/*--------------------------------*- C++ -*----------------------------------*\
| =========                 |                                                 |
| \\      /  F ield         | OpenFOAM: The Open Source CFD Toolbox           |
|  \\    /   O peration     | Version:  2106                                  |
|   \\  /    A nd           | Website:  www.openfoam.com                      |
|    \\/     M anipulation  |                                                 |
\*---------------------------------------------------------------------------*/
FoamFile
{
    version     2.0;
    format      ascii;
    arch        "LSB;label=32;scalar=64";
    class       volVectorField;
    location    "0.047";
    object      U_0;
}
// * * * * * * * * * * * * * * * * * * * * * * * * * * * * * * * * * * * * * //

dimensions      [0 1 -1 0 0 0 0];

internalField   nonuniform List<vector> 
65536
(
(-9.044947e-05 9.0429194e-05 0)
(-0.00027129838 9.0379178e-05 0)
(-0.00045199724 9.0279164e-05 0)
(-0.00063244607 9.012919e-05 0)
(-0.00081254498 8.9929316e-05 0)
(-0.00099219425 8.9679619e-05 0)
(-0.0011712943 8.9380193e-05 0)
(-0.0013497458 8.9031157e-05 0)
(-0.0015274496 8.8632644e-05 0)
(-0.0017043069 8.8184811e-05 0)
(-0.0018802192 8.7687833e-05 0)
(-0.0020550884 8.7141905e-05 0)
(-0.0022288169 8.6547241e-05 0)
(-0.0024013073 8.5904078e-05 0)
(-0.0025724629 8.5212671e-05 0)
(-0.0027421874 8.4473295e-05 0)
(-0.0029103853 8.368625e-05 0)
(-0.0030769614 8.2851852e-05 0)
(-0.0032418214 8.197044e-05 0)
(-0.0034048716 8.1042376e-05 0)
(-0.003566019 8.0068042e-05 0)
(-0.0037251716 7.9047841e-05 0)
(-0.0038822379 7.7982199e-05 0)
(-0.0040371276 7.6871565e-05 0)
(-0.004189751 7.5716409e-05 0)
(-0.0043400197 7.4517225e-05 0)
(-0.004487846 7.3274528e-05 0)
(-0.0046331434 7.1988857e-05 0)
(-0.0047758267 7.0660774e-05 0)
(-0.0049158114 6.9290866e-05 0)
(-0.0050530145 6.7879741e-05 0)
(-0.0051873543 6.6428032e-05 0)
(-0.0053187501 6.4936395e-05 0)
(-0.0054471229 6.3405512e-05 0)
(-0.0055723947 6.1836088e-05 0)
(-0.0056944892 6.022885e-05 0)
(-0.0058133316 5.8584552e-05 0)
(-0.0059288484 5.6903973e-05 0)
(-0.0060409678 5.5187913e-05 0)
(-0.0061496198 5.34372e-05 0)
(-0.0062547359 5.1652683e-05 0)
(-0.0063562492 4.9835239e-05 0)
(-0.0064540949 4.7985766e-05 0)
(-0.0065482097 4.6105188e-05 0)
(-0.0066385325 4.4194453e-05 0)
(-0.0067250037 4.2254533e-05 0)
(-0.0068075661 4.0286423e-05 0)
(-0.0068861643 3.8291142e-05 0)
(-0.0069607449 3.6269733e-05 0)
(-0.0070312567 3.4223262e-05 0)
(-0.0070976508 3.2152817e-05 0)
(-0.0071598801 3.0059509e-05 0)
(-0.0072179002 2.7944471e-05 0)
(-0.0072716687 2.5808859e-05 0)
(-0.0073211456 2.3653849e-05 0)
(-0.0073662933 2.1480638e-05 0)
(-0.0074070766 1.9290443e-05 0)
(-0.0074434628 1.7084504e-05 0)
(-0.0074754216 1.4864076e-05 0)
(-0.0075029253 1.2630435e-05 0)
(-0.0075259488 1.0384875e-05 0)
(-0.0075444694 8.1287078e-06 0)
(-0.0075584674 5.8632604e-06 0)
(-0.0075679255 3.5898744e-06 0)
(-0.0075728292 1.3099208e-06 0)
(-0.0075731666 -9.7524094e-07 0)
(-0.0075689289 -3.2642165e-06 0)
(-0.0075601096 -5.5556065e-06 0)
(-0.0075467054 -7.8479988e-06 0)
(-0.0075287158 -1.013997e-05 0)
(-0.0075061429 -1.2430088e-05 0)
(-0.007478992 -1.4716909e-05 0)
(-0.007447271 -1.6998983e-05 0)
(-0.0074109909 -1.9274855e-05 0)
(-0.0073701657 -2.1543059e-05 0)
(-0.007324812 -2.3802129e-05 0)
(-0.0072749496 -2.6050593e-05 0)
(-0.0072206012 -2.8286976e-05 0)
(-0.0071617925 -3.0509804e-05 0)
(-0.007098552 -3.27176e-05 0)
(-0.0070309112 -3.490889e-05 0)
(-0.0069589048 -3.7082201e-05 0)
(-0.00688257 -3.9236065e-05 0)
(-0.0068019473 -4.1369017e-05 0)
(-0.0067170799 -4.34796e-05 0)
(-0.006628014 -4.5566361e-05 0)
(-0.0065347988 -4.762786e-05 0)
(-0.0064374862 -4.9662663e-05 0)
(-0.0063361311 -5.166935e-05 0)
(-0.0062307909 -5.3646512e-05 0)
(-0.0061215264 -5.5592754e-05 0)
(-0.0060084006 -5.7506697e-05 0)
(-0.0058914795 -5.9386978e-05 0)
(-0.0057708318 -6.1232251e-05 0)
(-0.005646529 -6.3041191e-05 0)
(-0.0055186449 -6.4812492e-05 0)
(-0.0053872561 -6.654487e-05 0)
(-0.0052524418 -6.8237066e-05 0)
(-0.0051142836 -6.9887841e-05 0)
(-0.0049728656 -7.1495987e-05 0)
(-0.0048282742 -7.3060318e-05 0)
(-0.0046805983 -7.4579679e-05 0)
(-0.0045299289 -7.6052945e-05 0)
(-0.0043763593 -7.7479018e-05 0)
(-0.004219985 -7.8856835e-05 0)
(-0.0040609036 -8.0185364e-05 0)
(-0.0038992147 -8.1463609e-05 0)
(-0.0037350199 -8.2690606e-05 0)
(-0.0035684225 -8.3865429e-05 0)
(-0.0033995279 -8.4987189e-05 0)
(-0.003228443 -8.6055035e-05 0)
(-0.0030552766 -8.7068155e-05 0)
(-0.0028801389 -8.8025776e-05 0)
(-0.0027031416 -8.8927167e-05 0)
(-0.0025243979 -8.9771638e-05 0)
(-0.0023440224 -9.0558541e-05 0)
(-0.0021621309 -9.1287272e-05 0)
(-0.0019788402 -9.195727e-05 0)
(-0.0017942683 -9.2568019e-05 0)
(-0.0016085344 -9.3119049e-05 0)
(-0.0014217582 -9.3609933e-05 0)
(-0.0012340605 -9.4040291e-05 0)
(-0.0010455627 -9.4409792e-05 0)
(-0.00085638692 -9.4718147e-05 0)
(-0.0006666556 -9.4965119e-05 0)
(-0.00047649179 -9.5150516e-05 0)
(-0.0002860188 -9.5274194e-05 0)
(-9.5360228e-05 -9.5336057e-05 0)
(9.536023e-05 -9.5336057e-05 0)
(0.00028601881 -9.5274194e-05 0)
(0.00047649179 -9.5150516e-05 0)
(0.0006666556 -9.4965119e-05 0)
(0.00085638692 -9.4718147e-05 0)
(0.0010455628 -9.4409792e-05 0)
(0.0012340605 -9.4040291e-05 0)
(0.0014217582 -9.3609933e-05 0)
(0.0016085344 -9.3119049e-05 0)
(0.0017942683 -9.2568019e-05 0)
(0.0019788402 -9.195727e-05 0)
(0.0021621309 -9.1287272e-05 0)
(0.0023440224 -9.0558541e-05 0)
(0.0025243979 -8.9771637e-05 0)
(0.0027031416 -8.8927167e-05 0)
(0.0028801389 -8.8025776e-05 0)
(0.0030552766 -8.7068155e-05 0)
(0.003228443 -8.6055035e-05 0)
(0.0033995279 -8.4987189e-05 0)
(0.0035684225 -8.3865429e-05 0)
(0.0037350199 -8.2690606e-05 0)
(0.0038992147 -8.1463609e-05 0)
(0.0040609036 -8.0185364e-05 0)
(0.004219985 -7.8856835e-05 0)
(0.0043763593 -7.7479018e-05 0)
(0.0045299289 -7.6052945e-05 0)
(0.0046805983 -7.4579679e-05 0)
(0.0048282742 -7.3060318e-05 0)
(0.0049728656 -7.1495987e-05 0)
(0.0051142836 -6.9887841e-05 0)
(0.0052524418 -6.8237066e-05 0)
(0.0053872561 -6.654487e-05 0)
(0.0055186449 -6.4812492e-05 0)
(0.005646529 -6.3041191e-05 0)
(0.0057708318 -6.1232251e-05 0)
(0.0058914795 -5.9386978e-05 0)
(0.0060084006 -5.7506697e-05 0)
(0.0061215264 -5.5592754e-05 0)
(0.0062307909 -5.3646512e-05 0)
(0.0063361311 -5.166935e-05 0)
(0.0064374862 -4.9662663e-05 0)
(0.0065347988 -4.762786e-05 0)
(0.006628014 -4.5566361e-05 0)
(0.0067170799 -4.34796e-05 0)
(0.0068019473 -4.1369017e-05 0)
(0.00688257 -3.9236065e-05 0)
(0.0069589048 -3.7082201e-05 0)
(0.0070309112 -3.490889e-05 0)
(0.007098552 -3.27176e-05 0)
(0.0071617925 -3.0509804e-05 0)
(0.0072206012 -2.8286976e-05 0)
(0.0072749496 -2.6050593e-05 0)
(0.007324812 -2.3802129e-05 0)
(0.0073701657 -2.1543059e-05 0)
(0.0074109909 -1.9274855e-05 0)
(0.007447271 -1.6998983e-05 0)
(0.007478992 -1.4716909e-05 0)
(0.0075061429 -1.2430088e-05 0)
(0.0075287158 -1.013997e-05 0)
(0.0075467054 -7.8479988e-06 0)
(0.0075601096 -5.5556065e-06 0)
(0.0075689289 -3.2642164e-06 0)
(0.0075731666 -9.7524092e-07 0)
(0.0075728292 1.3099208e-06 0)
(0.0075679255 3.5898744e-06 0)
(0.0075584674 5.8632604e-06 0)
(0.0075444694 8.1287078e-06 0)
(0.0075259488 1.0384875e-05 0)
(0.0075029253 1.2630435e-05 0)
(0.0074754216 1.4864076e-05 0)
(0.0074434628 1.7084504e-05 0)
(0.0074070766 1.9290443e-05 0)
(0.0073662933 2.1480638e-05 0)
(0.0073211456 2.3653849e-05 0)
(0.0072716687 2.5808859e-05 0)
(0.0072179002 2.7944471e-05 0)
(0.0071598801 3.0059509e-05 0)
(0.0070976508 3.2152817e-05 0)
(0.0070312567 3.4223262e-05 0)
(0.0069607449 3.6269733e-05 0)
(0.0068861643 3.8291142e-05 0)
(0.0068075661 4.0286423e-05 0)
(0.0067250037 4.2254533e-05 0)
(0.0066385325 4.4194453e-05 0)
(0.0065482097 4.6105188e-05 0)
(0.0064540949 4.7985766e-05 0)
(0.0063562492 4.9835239e-05 0)
(0.0062547359 5.1652683e-05 0)
(0.0061496198 5.34372e-05 0)
(0.0060409678 5.5187913e-05 0)
(0.0059288484 5.6903973e-05 0)
(0.0058133316 5.8584552e-05 0)
(0.0056944892 6.022885e-05 0)
(0.0055723947 6.1836088e-05 0)
(0.0054471229 6.3405512e-05 0)
(0.0053187501 6.4936395e-05 0)
(0.0051873543 6.6428032e-05 0)
(0.0050530145 6.7879741e-05 0)
(0.0049158114 6.9290866e-05 0)
(0.0047758267 7.0660774e-05 0)
(0.0046331434 7.1988857e-05 0)
(0.004487846 7.3274528e-05 0)
(0.0043400196 7.4517225e-05 0)
(0.004189751 7.5716409e-05 0)
(0.0040371276 7.6871565e-05 0)
(0.0038822379 7.7982199e-05 0)
(0.0037251716 7.9047841e-05 0)
(0.003566019 8.0068042e-05 0)
(0.0034048716 8.1042376e-05 0)
(0.0032418214 8.197044e-05 0)
(0.0030769614 8.2851852e-05 0)
(0.0029103853 8.368625e-05 0)
(0.0027421874 8.4473295e-05 0)
(0.0025724629 8.521267e-05 0)
(0.0024013073 8.5904078e-05 0)
(0.0022288169 8.6547241e-05 0)
(0.0020550884 8.7141905e-05 0)
(0.0018802192 8.7687833e-05 0)
(0.0017043069 8.8184811e-05 0)
(0.0015274496 8.8632644e-05 0)
(0.0013497458 8.9031157e-05 0)
(0.0011712943 8.9380193e-05 0)
(0.00099219425 8.9679619e-05 0)
(0.00081254498 8.9929317e-05 0)
(0.00063244606 9.0129191e-05 0)
(0.00045199724 9.0279163e-05 0)
(0.00027129838 9.0379177e-05 0)
(9.0449469e-05 9.0429194e-05 0)
(-9.0488377e-05 0.00027132435 0)
(-0.00027141509 0.00027117429 0)
(-0.00045219169 0.00027087421 0)
(-0.00063271818 0.00027042424 0)
(-0.00081289463 0.00026982455 0)
(-0.00099262129 0.00026907538 0)
(-0.0011717985 0.000268177 0)
(-0.001350327 0.00026712977 0)
(-0.0015281075 0.0002659341 0)
(-0.0017050412 0.00026459045 0)
(-0.0018810296 0.00026309935 0)
(-0.0020559746 0.00026146138 0)
(-0.0022297784 0.00025967718 0)
(-0.0024023437 0.00025774747 0)
(-0.0025735737 0.00025567301 0)
(-0.0027433722 0.00025345464 0)
(-0.0029116435 0.00025109323 0)
(-0.0030782924 0.00024858975 0)
(-0.0032432246 0.00024594521 0)
(-0.0034063464 0.00024316069 0)
(-0.0035675647 0.00024023735 0)
(-0.0037267875 0.00023717639 0)
(-0.0038839232 0.00023397909 0)
(-0.0040388815 0.0002306468 0)
(-0.0041915728 0.00022718092 0)
(-0.0043419084 0.00022358295 0)
(-0.0044898008 0.00021985441 0)
(-0.0046351634 0.00021599694 0)
(-0.0047779108 0.00021201221 0)
(-0.0049179587 0.000207902 0)
(-0.005055224 0.00020366811 0)
(-0.0051896248 0.00019931245 0)
(-0.0053210805 0.000194837 0)
(-0.0054495121 0.00019024379 0)
(-0.0055748415 0.00018553494 0)
(-0.0056969924 0.00018071263 0)
(-0.0058158899 0.00017577912 0)
(-0.0059314605 0.00017073676 0)
(-0.0060436325 0.00016558793 0)
(-0.0061523356 0.00016033513 0)
(-0.0062575014 0.00015498091 0)
(-0.0063590631 0.00014952788 0)
(-0.0064569556 0.00014397875 0)
(-0.0065511158 0.0001383363 0)
(-0.0066414824 0.00013260335 0)
(-0.0067279959 0.00012678284 0)
(-0.006810599 0.00012087774 0)
(-0.0068892362 0.00011489111 0)
(-0.0069638542 0.00010882609 0)
(-0.0070344017 0.00010268587 0)
(-0.0071008297 9.6473705e-05 0)
(-0.0071630912 9.0192943e-05 0)
(-0.0072211418 8.3846979e-05 0)
(-0.0072749389 7.743928e-05 0)
(-0.0073244426 7.0973373e-05 0)
(-0.0073696152 6.4452853e-05 0)
(-0.0074104215 5.7881372e-05 0)
(-0.0074468288 5.1262644e-05 0)
(-0.0074788068 4.460044e-05 0)
(-0.0075063277 3.7898588e-05 0)
(-0.0075293663 3.116097e-05 0)
(-0.0075479002 2.4391519e-05 0)
(-0.0075619094 1.7594221e-05 0)
(-0.0075713767 1.0773107e-05 0)
(-0.0075762874 3.9322595e-06 0)
(-0.0075766299 -2.9241994e-06 0)
(-0.007572395 -9.7921104e-06 0)
(-0.0075635765 -1.6667271e-05 0)
(-0.007550171 -2.3545443e-05 0)
(-0.0075321779 -3.0422357e-05 0)
(-0.0075095995 -3.7293713e-05 0)
(-0.0074824408 -4.4155183e-05 0)
(-0.0074507099 -5.1002417e-05 0)
(-0.0074144177 -5.7831041e-05 0)
(-0.0073735782 -6.4636666e-05 0)
(-0.007328208 -7.1414888e-05 0)
(-0.007278327 -7.8161291e-05 0)
(-0.0072239579 -8.4871452e-05 0)
(-0.0071651262 -9.1540944e-05 0)
(-0.0071018605 -9.8165338e-05 0)
(-0.0070341925 -0.00010474021 0)
(-0.0069621566 -0.00011126114 0)
(-0.0068857902 -0.00011772373 0)
(-0.0068051337 -0.00012412357 0)
(-0.0067202304 -0.0001304563 0)
(-0.0066311266 -0.00013671756 0)
(-0.0065378713 -0.00014290302 0)
(-0.0064405165 -0.00014900839 0)
(-0.0063391171 -0.0001550294 0)
(-0.0062337307 -0.00016096182 0)
(-0.0061244178 -0.00016680147 0)
(-0.0060112417 -0.00017254421 0)
(-0.0058942683 -0.00017818595 0)
(-0.0057735665 -0.00018372266 0)
(-0.0056492075 -0.00018915035 0)
(-0.0055212653 -0.00019446511 0)
(-0.0053898167 -0.00019966309 0)
(-0.0052549408 -0.0002047405 0)
(-0.0051167192 -0.00020969363 0)
(-0.004975236 -0.00021451885 0)
(-0.0048305777 -0.00021921261 0)
(-0.0046828332 -0.00022377144 0)
(-0.0045320937 -0.00022819196 0)
(-0.0043784524 -0.00023247089 0)
(-0.0042220049 -0.00023660502 0)
(-0.0040628488 -0.00024059127 0)
(-0.0039010838 -0.00024442664 0)
(-0.0037368115 -0.00024810824 0)
(-0.0035701353 -0.0002516333 0)
(-0.0034011607 -0.00025499914 0)
(-0.0032299946 -0.00025820322 0)
(-0.0030567458 -0.00026124309 0)
(-0.0028815246 -0.00026411643 0)
(-0.0027044428 -0.00026682106 0)
(-0.0025256137 -0.0002693549 0)
(-0.0023451518 -0.000271716 0)
(-0.002163173 -0.00027390257 0)
(-0.0019797943 -0.0002759129 0)
(-0.0017951338 -0.00027774546 0)
(-0.0016093105 -0.00027939883 0)
(-0.0014224444 -0.00028087173 0)
(-0.0012346563 -0.00028216302 0)
(-0.0010460676 -0.00028327171 0)
(-0.0008568005 -0.00028419694 0)
(-0.0006669776 -0.00028493798 0)
(-0.00047672196 -0.00028549427 0)
(-0.00028615698 -0.00028586536 0)
(-9.5406297e-05 -0.00028605098 0)
(9.5406298e-05 -0.00028605098 0)
(0.00028615698 -0.00028586536 0)
(0.00047672196 -0.00028549427 0)
(0.0006669776 -0.00028493798 0)
(0.0008568005 -0.00028419694 0)
(0.0010460676 -0.00028327171 0)
(0.0012346563 -0.00028216302 0)
(0.0014224444 -0.00028087173 0)
(0.0016093105 -0.00027939883 0)
(0.0017951338 -0.00027774546 0)
(0.0019797943 -0.0002759129 0)
(0.002163173 -0.00027390257 0)
(0.0023451518 -0.000271716 0)
(0.0025256137 -0.0002693549 0)
(0.0027044428 -0.00026682106 0)
(0.0028815246 -0.00026411643 0)
(0.0030567458 -0.00026124309 0)
(0.0032299946 -0.00025820322 0)
(0.0034011607 -0.00025499914 0)
(0.0035701353 -0.0002516333 0)
(0.0037368115 -0.00024810824 0)
(0.0039010838 -0.00024442664 0)
(0.0040628488 -0.00024059127 0)
(0.0042220049 -0.00023660502 0)
(0.0043784524 -0.00023247089 0)
(0.0045320937 -0.00022819196 0)
(0.0046828332 -0.00022377144 0)
(0.0048305777 -0.00021921261 0)
(0.004975236 -0.00021451885 0)
(0.0051167192 -0.00020969363 0)
(0.0052549408 -0.0002047405 0)
(0.0053898167 -0.00019966309 0)
(0.0055212653 -0.00019446511 0)
(0.0056492075 -0.00018915035 0)
(0.0057735665 -0.00018372266 0)
(0.0058942683 -0.00017818595 0)
(0.0060112417 -0.00017254421 0)
(0.0061244178 -0.00016680147 0)
(0.0062337307 -0.00016096182 0)
(0.0063391171 -0.0001550294 0)
(0.0064405165 -0.00014900839 0)
(0.0065378713 -0.00014290302 0)
(0.0066311266 -0.00013671756 0)
(0.0067202304 -0.0001304563 0)
(0.0068051337 -0.00012412357 0)
(0.0068857902 -0.00011772373 0)
(0.0069621566 -0.00011126114 0)
(0.0070341925 -0.00010474021 0)
(0.0071018605 -9.8165338e-05 0)
(0.0071651262 -9.1540944e-05 0)
(0.0072239579 -8.4871452e-05 0)
(0.007278327 -7.8161291e-05 0)
(0.007328208 -7.1414888e-05 0)
(0.0073735782 -6.4636666e-05 0)
(0.0074144177 -5.7831041e-05 0)
(0.0074507099 -5.1002417e-05 0)
(0.0074824408 -4.4155183e-05 0)
(0.0075095995 -3.7293713e-05 0)
(0.0075321779 -3.0422357e-05 0)
(0.007550171 -2.3545443e-05 0)
(0.0075635765 -1.6667271e-05 0)
(0.007572395 -9.7921103e-06 0)
(0.0075766299 -2.9241994e-06 0)
(0.0075762874 3.9322595e-06 0)
(0.0075713767 1.0773107e-05 0)
(0.0075619094 1.7594221e-05 0)
(0.0075479002 2.4391519e-05 0)
(0.0075293663 3.116097e-05 0)
(0.0075063277 3.7898588e-05 0)
(0.0074788068 4.460044e-05 0)
(0.0074468288 5.1262644e-05 0)
(0.0074104215 5.7881372e-05 0)
(0.0073696152 6.4452853e-05 0)
(0.0073244425 7.0973374e-05 0)
(0.0072749389 7.743928e-05 0)
(0.0072211418 8.3846979e-05 0)
(0.0071630912 9.0192943e-05 0)
(0.0071008297 9.6473705e-05 0)
(0.0070344017 0.00010268587 0)
(0.0069638542 0.00010882609 0)
(0.0068892362 0.00011489111 0)
(0.006810599 0.00012087774 0)
(0.0067279959 0.00012678284 0)
(0.0066414824 0.00013260335 0)
(0.0065511158 0.0001383363 0)
(0.0064569556 0.00014397875 0)
(0.0063590631 0.00014952788 0)
(0.0062575014 0.00015498091 0)
(0.0061523356 0.00016033513 0)
(0.0060436325 0.00016558793 0)
(0.0059314605 0.00017073676 0)
(0.0058158899 0.00017577912 0)
(0.0056969924 0.00018071263 0)
(0.0055748415 0.00018553494 0)
(0.0054495121 0.00019024379 0)
(0.0053210805 0.000194837 0)
(0.0051896248 0.00019931245 0)
(0.005055224 0.00020366811 0)
(0.0049179587 0.000207902 0)
(0.0047779108 0.00021201221 0)
(0.0046351634 0.00021599694 0)
(0.0044898008 0.00021985441 0)
(0.0043419084 0.00022358295 0)
(0.0041915728 0.00022718092 0)
(0.0040388815 0.0002306468 0)
(0.0038839232 0.00023397909 0)
(0.0037267875 0.00023717639 0)
(0.0035675647 0.00024023735 0)
(0.0034063464 0.00024316069 0)
(0.0032432246 0.00024594521 0)
(0.0030782924 0.00024858975 0)
(0.0029116435 0.00025109323 0)
(0.0027433722 0.00025345464 0)
(0.0025735737 0.00025567301 0)
(0.0024023437 0.00025774747 0)
(0.0022297784 0.00025967718 0)
(0.0020559746 0.00026146138 0)
(0.0018810296 0.00026309935 0)
(0.0017050412 0.00026459045 0)
(0.0015281075 0.0002659341 0)
(0.001350327 0.00026712977 0)
(0.0011717985 0.000268177 0)
(0.00099262129 0.00026907538 0)
(0.00081289463 0.00026982455 0)
(0.00063271817 0.00027042424 0)
(0.00045219169 0.00027087421 0)
(0.00027141509 0.00027117429 0)
(9.0488376e-05 0.00027132435 0)
(-9.0541905e-05 0.00045232517 0)
(-0.00027157565 0.000452075 0)
(-0.0004524592 0.00045157477 0)
(-0.00063309252 0.00045082466 0)
(-0.00081337563 0.00044982496 0)
(-0.00099320872 0.00044857606 0)
(-0.0011724921 0.00044707844 0)
(-0.0013511264 0.00044533269 0)
(-0.0015290124 0.00044333947 0)
(-0.0017060511 0.00044109957 0)
(-0.0018821441 0.00043861386 0)
(-0.0020571931 0.00043588331 0)
(-0.0022311003 0.00043290901 0)
(-0.0024037684 0.00042969213 0)
(-0.0025751006 0.00042623394 0)
(-0.0027450005 0.00042253583 0)
(-0.0029133723 0.00041859928 0)
(-0.0030801211 0.00041442589 0)
(-0.0032451522 0.00041001735 0)
(-0.003408372 0.00040537546 0)
(-0.0035696873 0.00040050214 0)
(-0.003729006 0.0003953994 0)
(-0.0038862367 0.00039006938 0)
(-0.0040412887 0.0003845143 0)
(-0.0041940726 0.00037873654 0)
(-0.0043444995 0.00037273855 0)
(-0.004492482 0.00036652291 0)
(-0.0046379333 0.00036009232 0)
(-0.0047807681 0.00035344959 0)
(-0.0049209019 0.00034659764 0)
(-0.0050582516 0.00033953953 0)
(-0.0051927353 0.00033227841 0)
(-0.0053242724 0.00032481758 0)
(-0.0054527836 0.00031716043 0)
(-0.005578191 0.00030931049 0)
(-0.0057004182 0.00030127141 0)
(-0.0058193902 0.00029304694 0)
(-0.0059350335 0.00028464099 0)
(-0.0060472764 0.00027605756 0)
(-0.0061560484 0.00026730077 0)
(-0.0062612812 0.0002583749 0)
(-0.0063629078 0.00024928431 0)
(-0.0064608633 0.0002400335 0)
(-0.0065550843 0.00023062709 0)
(-0.0066455095 0.00022106982 0)
(-0.0067320795 0.00021136655 0)
(-0.0068147369 0.00020152226 0)
(-0.0068934261 0.00019154204 0)
(-0.0069680938 0.00018143112 0)
(-0.0070386887 0.00017119481 0)
(-0.0071051617 0.00016083857 0)
(-0.0071674659 0.00015036795 0)
(-0.0072255566 0.00013978863 0)
(-0.0072793913 0.00012910636 0)
(-0.0073289301 0.00011832705 0)
(-0.0073741353 0.00010745668 0)
(-0.0074149717 9.6501334e-05 0)
(-0.0074514063 8.5467209e-05 0)
(-0.007483409 7.4360591e-05 0)
(-0.007510952 6.318786e-05 0)
(-0.00753401 5.1955488e-05 0)
(-0.0075525605 4.0670034e-05 0)
(-0.0075665835 2.933814e-05 0)
(-0.0075760619 1.7966529e-05 0)
(-0.0075809809 6.5620027e-06 0)
(-0.0075813288 -4.8685673e-06 0)
(-0.0075770966 -1.6318243e-05 0)
(-0.0075682779 -2.7780019e-05 0)
(-0.0075548694 -3.9246831e-05 0)
(-0.0075368703 -5.0711561e-05 0)
(-0.007514283 -6.2167039e-05 0)
(-0.0074871126 -7.3606053e-05 0)
(-0.0074553671 -8.5021346e-05 0)
(-0.0074190574 -9.640563e-05 0)
(-0.0073781974 -0.00010775159 0)
(-0.0073328039 -0.00011905187 0)
(-0.0072828966 -0.00013029913 0)
(-0.0072284982 -0.00014148597 0)
(-0.0071696344 -0.00015260504 0)
(-0.0071063338 -0.00016364893 0)
(-0.0070386278 -0.00017461027 0)
(-0.0069665511 -0.0001854817 0)
(-0.0068901411 -0.00019625587 0)
(-0.0068094381 -0.00020692546 0)
(-0.0067244855 -0.00021748316 0)
(-0.0066353295 -0.00022792173 0)
(-0.0065420192 -0.00023823394 0)
(-0.0064446067 -0.00024841263 0)
(-0.0063431468 -0.0002584507 0)
(-0.0062376972 -0.00026834108 0)
(-0.0061283184 -0.00027807682 0)
(-0.0060150738 -0.000287651 0)
(-0.0058980293 -0.0002970568 0)
(-0.0057772537 -0.0003062875 0)
(-0.0056528184 -0.00031533647 0)
(-0.0055247976 -0.00032419716 0)
(-0.0053932678 -0.00033286316 0)
(-0.0052583082 -0.00034132817 0)
(-0.0051200007 -0.00034958599 0)
(-0.0049784292 -0.00035763057 0)
(-0.0048336805 -0.00036545598 0)
(-0.0046858433 -0.00037305645 0)
(-0.004535009 -0.00038042633 0)
(-0.0043812708 -0.00038756015 0)
(-0.0042247244 -0.00039445258 0)
(-0.0040654675 -0.00040109847 0)
(-0.0039035998 -0.00040749281 0)
(-0.003739223 -0.00041363079 0)
(-0.0035724406 -0.00041950779 0)
(-0.003403358 -0.00042511935 0)
(-0.0032320824 -0.0004304612 0)
(-0.0030587226 -0.0004355293 0)
(-0.002883389 -0.00044031977 0)
(-0.0027061934 -0.00044482896 0)
(-0.0025272492 -0.0004490534 0)
(-0.002346671 -0.00045298987 0)
(-0.0021645748 -0.00045663534 0)
(-0.0019810777 -0.000459987 0)
(-0.0017962978 -0.00046304227 0)
(-0.0016103543 -0.00046579879 0)
(-0.0014233672 -0.00046825443 0)
(-0.0012354574 -0.0004704073 0)
(-0.0010467465 -0.00047225572 0)
(-0.00085735666 -0.00047379827 0)
(-0.0006674106 -0.00047503375 0)
(-0.00047703147 -0.0004759612 0)
(-0.00028634278 -0.0004765799 0)
(-9.5468245e-05 -0.00047688937 0)
(9.5468247e-05 -0.00047688937 0)
(0.00028634278 -0.0004765799 0)
(0.00047703147 -0.0004759612 0)
(0.0006674106 -0.00047503375 0)
(0.00085735667 -0.00047379827 0)
(0.0010467465 -0.00047225572 0)
(0.0012354574 -0.0004704073 0)
(0.0014233672 -0.00046825443 0)
(0.0016103543 -0.00046579879 0)
(0.0017962978 -0.00046304227 0)
(0.0019810777 -0.000459987 0)
(0.0021645748 -0.00045663534 0)
(0.002346671 -0.00045298987 0)
(0.0025272492 -0.0004490534 0)
(0.0027061934 -0.00044482896 0)
(0.002883389 -0.00044031977 0)
(0.0030587226 -0.0004355293 0)
(0.0032320824 -0.0004304612 0)
(0.003403358 -0.00042511935 0)
(0.0035724406 -0.00041950779 0)
(0.003739223 -0.00041363079 0)
(0.0039035998 -0.00040749281 0)
(0.0040654675 -0.00040109847 0)
(0.0042247244 -0.00039445258 0)
(0.0043812708 -0.00038756015 0)
(0.004535009 -0.00038042633 0)
(0.0046858433 -0.00037305645 0)
(0.0048336805 -0.00036545598 0)
(0.0049784292 -0.00035763057 0)
(0.0051200007 -0.00034958599 0)
(0.0052583082 -0.00034132817 0)
(0.0053932678 -0.00033286316 0)
(0.0055247976 -0.00032419716 0)
(0.0056528184 -0.00031533647 0)
(0.0057772537 -0.0003062875 0)
(0.0058980293 -0.0002970568 0)
(0.0060150738 -0.000287651 0)
(0.0061283184 -0.00027807682 0)
(0.0062376972 -0.00026834108 0)
(0.0063431468 -0.0002584507 0)
(0.0064446067 -0.00024841263 0)
(0.0065420192 -0.00023823394 0)
(0.0066353295 -0.00022792173 0)
(0.0067244855 -0.00021748316 0)
(0.0068094381 -0.00020692546 0)
(0.0068901411 -0.00019625587 0)
(0.0069665511 -0.0001854817 0)
(0.0070386278 -0.00017461027 0)
(0.0071063338 -0.00016364893 0)
(0.0071696344 -0.00015260503 0)
(0.0072284982 -0.00014148597 0)
(0.0072828966 -0.00013029913 0)
(0.0073328039 -0.00011905187 0)
(0.0073781974 -0.00010775159 0)
(0.0074190574 -9.640563e-05 0)
(0.0074553671 -8.5021346e-05 0)
(0.0074871126 -7.3606052e-05 0)
(0.007514283 -6.2167039e-05 0)
(0.0075368703 -5.0711561e-05 0)
(0.0075548694 -3.9246831e-05 0)
(0.0075682779 -2.7780018e-05 0)
(0.0075770966 -1.6318243e-05 0)
(0.0075813288 -4.8685672e-06 0)
(0.0075809809 6.5620028e-06 0)
(0.0075760619 1.7966529e-05 0)
(0.0075665835 2.933814e-05 0)
(0.0075525605 4.0670034e-05 0)
(0.00753401 5.1955489e-05 0)
(0.007510952 6.318786e-05 0)
(0.007483409 7.4360591e-05 0)
(0.0074514063 8.5467209e-05 0)
(0.0074149717 9.6501334e-05 0)
(0.0073741353 0.00010745668 0)
(0.0073289301 0.00011832705 0)
(0.0072793913 0.00012910636 0)
(0.0072255565 0.00013978863 0)
(0.0071674659 0.00015036795 0)
(0.0071051617 0.00016083857 0)
(0.0070386887 0.00017119481 0)
(0.0069680938 0.00018143112 0)
(0.0068934261 0.00019154204 0)
(0.0068147369 0.00020152226 0)
(0.0067320795 0.00021136655 0)
(0.0066455095 0.00022106982 0)
(0.0065550843 0.00023062709 0)
(0.0064608633 0.0002400335 0)
(0.0063629078 0.00024928431 0)
(0.0062612812 0.0002583749 0)
(0.0061560484 0.00026730077 0)
(0.0060472764 0.00027605756 0)
(0.0059350335 0.00028464099 0)
(0.0058193902 0.00029304694 0)
(0.0057004182 0.00030127141 0)
(0.005578191 0.00030931049 0)
(0.0054527836 0.00031716043 0)
(0.0053242724 0.00032481758 0)
(0.0051927353 0.00033227842 0)
(0.0050582516 0.00033953953 0)
(0.0049209018 0.00034659764 0)
(0.0047807681 0.00035344959 0)
(0.0046379333 0.00036009232 0)
(0.004492482 0.00036652291 0)
(0.0043444995 0.00037273855 0)
(0.0041940726 0.00037873654 0)
(0.0040412887 0.0003845143 0)
(0.0038862367 0.00039006938 0)
(0.003729006 0.0003953994 0)
(0.0035696873 0.00040050214 0)
(0.003408372 0.00040537546 0)
(0.0032451522 0.00041001735 0)
(0.0030801211 0.00041442589 0)
(0.0029133723 0.00041859928 0)
(0.0027450004 0.00042253583 0)
(0.0025751006 0.00042623394 0)
(0.0024037684 0.00042969213 0)
(0.0022311003 0.00043290901 0)
(0.0020571931 0.00043588331 0)
(0.0018821441 0.00043861386 0)
(0.0017060511 0.00044109957 0)
(0.0015290124 0.00044333947 0)
(0.0013511264 0.00044533269 0)
(0.0011724921 0.00044707845 0)
(0.00099320872 0.00044857606 0)
(0.00081337563 0.00044982496 0)
(0.00063309252 0.00045082466 0)
(0.0004524592 0.00045157477 0)
(0.00027157565 0.000452075 0)
(9.0541904e-05 0.00045232517 0)
(-9.0610584e-05 0.00063344599 0)
(-0.00027178165 0.00063309567 0)
(-0.00045280243 0.00063239517 0)
(-0.0006335728 0.00063134475 0)
(-0.00081399274 0.00062994481 0)
(-0.00099396235 0.00062819591 0)
(-0.0011733819 0.00062609871 0)
(-0.0013521519 0.00062365403 0)
(-0.0015301731 0.00062086281 0)
(-0.0017073465 0.00061772614 0)
(-0.0018835735 0.00061424526 0)
(-0.0020587558 0.00061042151 0)
(-0.0022327956 0.00060625642 0)
(-0.0024055954 0.00060175162 0)
(-0.0025770584 0.0005969089 0)
(-0.0027470882 0.00059173021 0)
(-0.0029155889 0.00058621761 0)
(-0.0030824654 0.00058037334 0)
(-0.0032476231 0.00057419978 0)
(-0.0034109682 0.00056769944 0)
(-0.0035724076 0.00056087499 0)
(-0.003731849 0.00055372928 0)
(-0.0038892009 0.00054626527 0)
(-0.0040443727 0.00053848611 0)
(-0.0041972748 0.00053039509 0)
(-0.0043478183 0.00052199567 0)
(-0.0044959157 0.00051329145 0)
(-0.0046414802 0.0005042862 0)
(-0.0047844263 0.00049498388 0)
(-0.0049246695 0.00048538856 0)
(-0.0050621268 0.00047550452 0)
(-0.005196716 0.0004653362 0)
(-0.0053283565 0.00045488818 0)
(-0.0054569691 0.00044416523 0)
(-0.0055824757 0.00043317228 0)
(-0.0057047998 0.00042191445 0)
(-0.0058238663 0.00041039701 0)
(-0.0059396019 0.00039862539 0)
(-0.0060519345 0.00038660522 0)
(-0.0061607939 0.00037434228 0)
(-0.0062661114 0.00036184252 0)
(-0.0063678202 0.00034911209 0)
(-0.0064658551 0.00033615727 0)
(-0.006560153 0.00032298453 0)
(-0.0066506523 0.00030960051 0)
(-0.0067372935 0.00029601202 0)
(-0.0068200192 0.00028222602 0)
(-0.0068987739 0.00026824966 0)
(-0.0069735041 0.00025409023 0)
(-0.0070441585 0.0002397552 0)
(-0.0071106879 0.0002252522 0)
(-0.0071730454 0.00021058899 0)
(-0.0072311862 0.00019577353 0)
(-0.007285068 0.0001808139 0)
(-0.0073346505 0.00016571834 0)
(-0.0073798962 0.00015049523 0)
(-0.0074207697 0.00013515311 0)
(-0.0074572382 0.00011970065 0)
(-0.0074892713 0.00010414663 0)
(-0.0075168413 8.8500018e-05 0)
(-0.0075399229 7.2769856e-05 0)
(-0.0075584935 5.6965334e-05 0)
(-0.0075725332 4.1095755e-05 0)
(-0.0075820246 2.5170534e-05 0)
(-0.0075869532 9.1991937e-06 0)
(-0.007587307 -6.8086424e-06 0)
(-0.0075830771 -2.2843256e-05 0)
(-0.0075742572 -3.8894837e-05 0)
(-0.0075608438 -5.4953495e-05 0)
(-0.0075428362 -7.1009258e-05 0)
(-0.0075202367 -8.7052088e-05 0)
(-0.0074930504 -0.00010307188 0)
(-0.0074612853 -0.00011905848 0)
(-0.0074249524 -0.00013500167 0)
(-0.0073840655 -0.00015089121 0)
(-0.0073386414 -0.00016671682 0)
(-0.0072886998 -0.00018246817 0)
(-0.0072342635 -0.00019813495 0)
(-0.0071753581 -0.00021370682 0)
(-0.0071120122 -0.00022917344 0)
(-0.0070442574 -0.00024452447 0)
(-0.0069721281 -0.00025974961 0)
(-0.0068956619 -0.00027483856 0)
(-0.0068148992 -0.00028978105 0)
(-0.0067298833 -0.00030456689 0)
(-0.0066406604 -0.00031918589 0)
(-0.0065472798 -0.00033362795 0)
(-0.0064497934 -0.00034788304 0)
(-0.0063482563 -0.0003619412 0)
(-0.006242726 -0.00037579256 0)
(-0.0061332631 -0.00038942735 0)
(-0.0060199311 -0.0004028359 0)
(-0.0059027959 -0.00041600866 0)
(-0.0057819264 -0.00042893621 0)
(-0.0056573941 -0.00044160925 0)
(-0.005529273 -0.00045401863 0)
(-0.0053976399 -0.00046615536 0)
(-0.0052625741 -0.00047801061 0)
(-0.0051241573 -0.00048957571 0)
(-0.0049824737 -0.00050084217 0)
(-0.00483761 -0.00051180171 0)
(-0.0046896552 -0.00052244622 0)
(-0.0045387005 -0.00053276781 0)
(-0.0043848394 -0.00054275879 0)
(-0.0042281676 -0.00055241172 0)
(-0.0040687828 -0.00056171936 0)
(-0.0039067849 -0.00057067473 0)
(-0.0037422756 -0.00057927107 0)
(-0.0035753585 -0.0005875019 0)
(-0.0034061392 -0.00059536098 0)
(-0.0032347249 -0.00060284235 0)
(-0.0030612244 -0.00060994032 0)
(-0.0028857484 -0.00061664948 0)
(-0.0027084087 -0.00062296468 0)
(-0.0025293187 -0.00062888112 0)
(-0.0023485934 -0.00063439423 0)
(-0.0021663486 -0.00063949979 0)
(-0.0019827016 -0.00064419388 0)
(-0.0017977706 -0.00064847286 0)
(-0.001611675 -0.00065233344 0)
(-0.0014245348 -0.00065577263 0)
(-0.0012364711 -0.00065878778 0)
(-0.0010476055 -0.00066137655 0)
(-0.00085806029 -0.00066353693 0)
(-0.00066795839 -0.00066526726 0)
(-0.00047742304 -0.00066656618 0)
(-0.00028657783 -0.00066743268 0)
(-9.5546616e-05 -0.0006678661 0)
(9.5546618e-05 -0.0006678661 0)
(0.00028657783 -0.00066743268 0)
(0.00047742304 -0.00066656618 0)
(0.00066795839 -0.00066526726 0)
(0.00085806029 -0.00066353693 0)
(0.0010476055 -0.00066137655 0)
(0.0012364711 -0.00065878778 0)
(0.0014245348 -0.00065577263 0)
(0.001611675 -0.00065233344 0)
(0.0017977706 -0.00064847286 0)
(0.0019827016 -0.00064419388 0)
(0.0021663486 -0.00063949979 0)
(0.0023485934 -0.00063439423 0)
(0.0025293187 -0.00062888112 0)
(0.0027084087 -0.00062296468 0)
(0.0028857484 -0.00061664948 0)