/*--------------------------------*- C++ -*----------------------------------*\
| =========                 |                                                 |
| \\      /  F ield         | OpenFOAM: The Open Source CFD Toolbox           |
|  \\    /   O peration     | Version:  2306                                  |
|   \\  /    A nd           | Website:  www.openfoam.com                      |
|    \\/     M anipulation  |                                                 |
\*---------------------------------------------------------------------------*/
FoamFile
{
    version     2.0;
    format      ascii;
    arch        "LSB;label=32;scalar=64";
    class       surfaceScalarField;
    location    "0.54";
    object      phi;
}
// * * * * * * * * * * * * * * * * * * * * * * * * * * * * * * * * * * * * * //

dimensions      [0 3 -1 0 0 0 0];

oriented        oriented;

internalField   nonuniform List<scalar> 
12640
(
5.6221485e-07
-6.345145e-06
2.2225803e-06
-1.899646e-05
4.9270775e-06
-3.1445234e-05
8.6193474e-06
-4.3578139e-05
1.3282879e-05
-5.5322629e-05
1.8912847e-05
-6.6566853e-05
2.5500501e-05
-7.7168927e-05
3.3000457e-05
-8.6922466e-05
4.1316625e-05
-9.5591651e-05
5.0301192e-05
-0.00010294471
5.9764011e-05
-0.000108784
6.9488527e-05
-0.00011296782
7.9249212e-05
-0.00011542014
8.8827351e-05
-0.00011613068
9.8023455e-05
-0.0001151483
0.0001066657
-0.00011257033
0.00011461464
-0.00010853032
0.00012176473
-0.00010318586
0.00012804343
-9.670732e-05
0.00013340849
-8.9268199e-05
0.0001378441
-8.1037284e-05
0.00014135627
-7.2172723e-05
0.00014396805
-6.2817928e-05
0.00014571478
-5.309914e-05
0.00014663969
-4.3124407e-05
0.00014678996
-3.2983724e-05
0.00014621339
-2.2750112e-05
0.00014495548
-1.2480999e-05
0.00014305737
-2.2196542e-06
0.00014055691
7.9922091e-06
0.00013748138
1.8139892e-05
0.00013385325
2.8198792e-05
0.00012968805
3.8151245e-05
0.00012499492
4.7980637e-05
0.00011977738
5.7669061e-05
0.00011403439
6.7195452e-05
0.00010776163
7.6534068e-05
0.00010095288
8.5653256e-05
9.3601519e-05
9.4514537e-05
8.5702179e-05
0.00010307196
7.7252304e-05
0.00011127181
6.8253908e-05
0.00011905246
5.8715172e-05
0.00012634482
4.8651939e-05
0.00013307274
3.8089547e-05
0.00013915393
2.7063722e-05
0.00014450175
1.5622604e-05
0.00014902558
3.8258168e-06
0.00015263475
-8.2482231e-06
0.00015523608
-2.0512048e-05
0.0001567367
-3.2860392e-05
0.00015705799
-4.5174461e-05
0.00015612845
-5.7322382e-05
0.00015388924
-6.9160799e-05
0.00015029834
-8.0537335e-05
0.00014533434
-9.1293818e-05
0.00013899996
-0.00010127026
0.00013132512
-0.0001103095
0.0001223693
-0.00011826233
0.00011222296
-0.00012499292
0.00010100768
-0.00013038418
8.887497e-05
-0.00013434288
7.6003576e-05
-0.0001368038
6.2595107e-05
-0.00013773351
4.8869139e-05
-0.00013713226
3.5056404e-05
-0.00013503498
2.1392007e-05
-0.00013151937
8.1163608e-06
-0.00012664114
-4.5970989e-06
-0.00012058164
-1.6502791e-05
-0.00011347311
-2.7415328e-05
-0.00010548936
-3.7193897e-05
-9.6815791e-05
-4.5723899e-05
-8.764502e-05
-5.2923056e-05
-7.8171586e-05
-5.8742304e-05
-6.8586645e-05
-6.316675e-05
-5.9073152e-05
-6.6214341e-05
-4.9801611e-05
-6.7933468e-05
-4.0926485e-05
-6.8399823e-05
-3.2583288e-05
-6.7712879e-05
-6.5992116e-05
6.2030666e-07
-6.9654517e-06
2.4346855e-06
-2.0810839e-05
5.3727164e-06
-3.4383265e-05
9.3623576e-06
-4.756778e-05
1.4414389e-05
-6.037466e-05
2.0552574e-05
-7.2705039e-05
2.7799573e-05
-8.4415927e-05
3.6120039e-05
-9.5242931e-05
4.5404314e-05
-0.00010487593
5.5470144e-05
-0.00011301054
6.6078587e-05
-0.00011939244
7.6958468e-05
-0.0001238477
8.7831399e-05
-0.00012629307
9.8433186e-05
-0.00012673247
0.00010852947
-0.00012524459
0.00011792522
-0.00012196608
0.00012646887
-0.00011707398
0.00013405242
-0.00011076941
0.0001406086
-0.0001032635
0.00014610632
-9.4765916e-05
0.00015054496
-8.5475924e-05
0.00015394824
-7.5576008e-05
0.00015635804
-6.5227721e-05
0.00015782846
-5.4569565e-05
0.00015842057
-4.3716513e-05
0.00015819773
-3.2760882e-05
0.00015722173
-2.177411e-05
0.00015554949
-1.080876e-05
0.00015323274
9.709184e-08
0.00015031226
1.0912692e-05
0.00014682127
2.1630877e-05
0.00014278345
3.2236611e-05
0.0001382135
4.2721199e-05
0.00013311789
5.3076243e-05
0.00012749595
6.3291006e-05
0.00012134114
7.335026e-05
0.00011464266
8.3232545e-05
0.00010738712
9.2908795e-05
9.9560352e-05
0.00010234131
9.114928e-05
0.00011148303
8.2143859e-05
0.00012027723
7.2538949e-05
0.00012865738
6.2336332e-05
0.00013654744
5.1546394e-05
0.00014386268
4.0190128e-05
0.0001505102
2.8301439e-05
0.00015639044
1.592736e-05
0.00016139966
3.130161e-06
0.00016543195
-1.0012641e-05
0.00016837888
-2.3401687e-05
0.00017012575
-3.6923197e-05
0.0001705795
-5.0445477e-05
0.00016965073
-6.3820264e-05
0.00016726403
-7.6884522e-05
0.0001633626
-8.9463161e-05
0.00015791298
-0.00010137273
0.00015090953
-0.00011242611
0.00014237849
-0.00012243802
0.00013238122
-0.00013123139
0.00012101632
-0.00013864397
0.00010842026
-0.00014453518
9.4766182e-05
-0.00014879239
8.026078e-05
-0.00015133665
6.513937e-05
-0.00015212663
4.9659115e-05
-0.00015116206
3.4091836e-05
-0.00014848428
1.8714227e-05
-0.00014417605
3.8081318e-06
-0.00013833497
-1.0438177e-05
-0.00013114194
-2.3695827e-05
-0.00012277364
-3.5783627e-05
-0.00011343377
-4.6533764e-05
-0.0001033414
-5.5816271e-05
-9.2723415e-05
-6.3541038e-05
-8.1807823e-05
-6.9657897e-05
-7.0817376e-05
-7.4157197e-05
-5.9963966e-05
-7.706775e-05
-4.9443745e-05
-7.8453689e-05
-3.9433084e-05
-7.8410485e-05
-3.0085373e-05
-7.706059e-05
-7.4548844e-05
6.6124486e-07
-7.6266965e-06
2.5793702e-06
-2.2728964e-05
5.6893058e-06
-3.7493201e-05
9.912626e-06
-5.17911e-05
1.5324666e-05
-6.57867e-05
2.1991427e-05
-7.93718e-05
2.9982114e-05
-9.2406614e-05
3.9269129e-05
-0.00010452995
4.9717266e-05
-0.00011532406
6.1091822e-05
-0.0001243851
7.3084194e-05
-0.00013138482
8.5348192e-05
-0.0001361117
9.7535157e-05
-0.00013848003
0.00010932279
-0.0001385201
0.00012043489
-0.00013635669
0.00013065174
-0.00013218293
0.00013981261
-0.00012623485
0.00014781283
-0.00011876963
0.00015459768
-0.00011004835
0.00016015478
-0.00010032302
0.00016450598
-8.9827129e-05
0.00016769927
-7.8769292e-05
0.00016980103
-6.7329479e-05
0.000170889
-5.5657537e-05
0.00017104603
-4.387355e-05
0.00017035475
-3.2069595e-05
0.00016889339
-2.0312751e-05
0.00016673159
-8.6469624e-06
0.00016393232
2.8963626e-06
0.00016054019
1.4304824e-05
0.00015659337
2.5577697e-05
0.00015211603
3.6713949e-05
0.00014712095
4.7716282e-05
0.00014161057
5.858662e-05
0.0001355784
6.9323174e-05
0.00012901069
7.991797e-05
0.00012188833
9.0354908e-05
0.00011418888
0.00010060824
0.00010588874
0.00011064145
9.6965278e-05
0.0001204065
8.7399066e-05
0.00012984344
7.7176057e-05
0.00013888038
6.628985e-05
0.00014743364
5.4744049e-05
0.00015540848
4.2553787e-05
0.00016270046
2.9748272e-05
0.00016919595
1.6373903e-05
0.00017477403
2.4926807e-06
0.00017931317
-1.1813209e-05
0.00018268477
-2.6438787e-05
0.00018475132
-4.1259835e-05
0.00018540054
-5.613034e-05
0.00018452123
-7.0883662e-05
0.00018201735
-8.5334286e-05
0.00017781322
-9.9280746e-05
0.00017185944
-0.0001125098
0.00016413858
-0.00012480187
0.00015467057
-0.00013593778
0.00014351712
-0.00014570633
0.00013078488
-0.00015391277
0.0001166267
-0.00016038723
0.00010124064
-0.0001649929
8.4866454e-05
-0.0001676331
6.7779569e-05
-0.00016825714
5.0283147e-05
-0.00016686473
3.2699434e-05
-0.00016351128
1.5360777e-05
-0.00015825461
-1.4485434e-06
-0.00015127898
-1.7413803e-05
-0.00014276032
-3.2214488e-05
-0.00013291778
-4.5626165e-05
-0.0001219952
-5.7456344e-05
-0.00011025271
-6.7558767e-05
-9.7958149e-05
-7.5835597e-05
-8.5379079e-05
-8.2236967e-05
-7.2775225e-05
-8.6761051e-05
-6.0391987e-05
-8.9450988e-05
-4.8454891e-05
-9.0390786e-05
-3.7165152e-05
-8.9700223e-05
-2.6696339e-05
-8.7529404e-05
-8.4053363e-05
6.5920901e-07
-8.2859056e-06
2.5660163e-06
-2.4635771e-05
5.7143601e-06
-4.0641545e-05
1.0035278e-05
-5.6112018e-05
1.5738775e-05
-7.1490196e-05
2.294326e-05
-8.6576284e-05
3.1783774e-05
-0.00010124713
4.2229722e-05
-0.00011497589
5.4100045e-05
-0.00012719439
6.7082739e-05
-0.00013736779
8.0772731e-05
-0.00014507481
9.4722693e-05
-0.00015006167
0.00010849037
-0.00015224771
0.00012167727
-0.00015170699
0.00013395458
-0.000148634
0.00014507523
-0.00014330357
0.00015487377
-0.00013603339
0.00016325825
-0.0001271541
0.00017019812
-0.00011698822
0.0001757115
-0.0001058364
0.00017985331
-9.396894e-05
0.00018270474
-8.1620718e-05
0.00018436399
-6.8988728e-05
0.0001849382
-5.6231746e-05
0.00018453646
-4.3471818e-05
0.00018326411
-3.0797246e-05
0.00018121769
-1.826633e-05
0.00017848075
-5.9100225e-06
0.00017512839
6.2487224e-06
0.00017121089
1.8222323e-05
0.00016676804
3.0020556e-05
0.00016182383
4.165815e-05
0.00015638776
5.3152356e-05
0.00015045646
6.4517922e-05
0.00014401563
7.5764004e-05
0.00013704217
8.689143e-05
0.0001295065
9.789058e-05
0.00012137496
0.00010873977
0.00011261232
0.00011940409
0.00010318422
0.0001298346
9.3059766e-05
0.0001399679
8.2214004e-05
0.00014972615
7.0630307e-05
0.00015901734
5.8303041e-05
0.00016773575
4.5240331e-05
0.00017576317
3.1465725e-05
0.00018297056
1.7020482e-05
0.00018921927
1.9675649e-06
0.00019436609
-1.3603222e-05
0.00019825555
-2.9587853e-05
0.00020073596
-4.5849596e-05
0.00020166229
-6.2226789e-05
0.00020089843
-7.8532345e-05
0.00019832291
-9.4555208e-05
0.00019383609
-0.00011006335
0.00018736758
-0.00012480842
0.00017888365
-0.00013853207
0.00016839421
-0.00015097393
0.00015595898
-0.00016188105
0.000141692
-0.00017101835
0.000125764
-0.00017817941
0.0001084017
-0.0001831969
8.9883952e-05
-0.00018595175
7.0534416e-05
-0.00018638065
5.0712048e-05
-0.00018448095
3.0799735e-05
-0.00018031654
1.1196366e-05
-0.00017396735
-7.7977386e-06
-0.00016564403
-2.5737124e-05
-0.00015556471
-4.2293806e-05
-0.00014399247
-5.7198404e-05
-0.00013121919
-7.0229619e-05
-0.00011755444
-8.1223526e-05
-0.00010331499
-9.0075047e-05
-8.8815147e-05
-9.6736807e-05
-7.4357835e-05
-0.00010121836
-6.0227161e-05
-0.00010358166
-4.668218e-05
-0.00010393577
-3.3951947e-05
-0.00010243046
-2.223215e-05
-9.9249201e-05
-9.4603148e-05
5.8812312e-07
-8.8740287e-06
2.3039212e-06
-2.6351569e-05
5.2925143e-06
-4.3630138e-05
9.4995458e-06
-6.031905e-05
1.5388352e-05
-7.7379003e-05
2.3124447e-05
-9.4312379e-05
3.2935408e-05
-0.00011105809
4.4765419e-05
-0.00012680591
5.8360954e-05
-0.00014078992
7.3305891e-05
-0.00015231273
8.9071534e-05
-0.00016084045
0.00010508158
-0.00016607172
0.00012077166
-0.00016793778
0.00013564055
-0.00016657589
0.00014928706
-0.00016228051
0.00016142753
-0.00015544404
0.0001718943
-0.00014650016
0.00018062003
-0.00013587983
0.00018761544
-0.00012398363
0.00019294724
-0.0001111682
0.00019671959
-9.7741283e-05
0.00019905985
-8.3960981e-05
0.00020010781
-7.003669e-05
0.00020000709
-5.6131021e-05
0.0001988981
-4.2362827e-05
0.00019691237
-2.8811517e-05
0.00019416706
-1.5521027e-05
0.00019076042
-2.5033823e-06
0.00018678
1.0229144e-05
0.00018227994
2.2722382e-05
0.00017730191
3.499859e-05
0.00017186771
4.7092348e-05
0.00016598135
5.9038715e-05
0.00015963132
7.0867955e-05
0.00015279303
8.2602298e-05
0.00014543147
9.4252982e-05
0.00013750404
0.00010581801
0.00012896331
0.0001172805
0.00011975993
0.00012860748
0.0001098454
0.00013974912
9.9174946e-05
0.00015063835
8.7710281e-05
0.00016119081
7.5422481e-05
0.00017130514
6.2294678e-05
0.00018086355
4.8325117e-05
0.00018973273
3.3530082e-05
0.00019776559
1.7945704e-05
0.00020480365
1.6375053e-06
0.00021067429
-1.5318119e-05
0.00021521118
-3.2797893e-05
0.00021821573
-5.0657993e-05
0.00021952239
-6.8721111e-05
0.00021896154
-8.677786e-05
0.00021637966
-0.00010458841
0.00021164663
-0.00012188546
0.00020466464
-0.00013837933
0.00019537752
-0.00015376523
0.0001837801
-0.00016773276
0.00016992651
-0.00017997756
0.0001539368
-0.00019021434
0.00013600078
-0.00019819076
0.00011637811
-0.00020370076
9.5393952e-05
-0.0002065968
7.3430456e-05
-0.00020679838
5.091363e-05
-0.00020430024
2.8301593e-05
-0.00019918012
6.0762434e-06
-0.0001915352
-1.5442652e-05
-0.00018161928
-3.5653041e-05
-0.00016969962
-5.421347e-05
-0.00015609365
-7.080438e-05
-0.00014115202
-8.5171244e-05
-0.00012524421
-9.7131338e-05
-0.0001087456
-0.00010657366
-9.2025746e-05
-0.00011345666
-7.5437902e-05
-0.00011780621
-5.9310619e-05
-0.00011970895
-4.3940812e-05
-0.00011930557
-2.9588553e-05
-0.00011678271
-1.6473029e-05
-0.00011236472
-0.00010630515
4.3654024e-07
-9.3105689e-06
1.7587159e-06
-2.7673745e-05
4.3819123e-06
-4.6253334e-05
8.2411456e-06
-6.4178283e-05
1.4201594e-05
-8.3339451e-05
2.2454018e-05
-0.0001025648
3.3352332e-05
-0.0001219564
4.6780595e-05
-0.00014023417
6.2387614e-05
-0.00015639694
7.9635825e-05
-0.00016956094
9.7858292e-05
-0.00017906292
0.00011633144
-0.00018454487
0.00013434152
-0.00018594786
0.00015124956
-0.00018348393
0.00016654649
-0.00017757744
0.00017988629
-0.00016878384
0.00019108989
-0.00015770377
0.00020012289
-0.00014491283
0.00020705824
-0.00013091899
0.00021203733
-0.00011614729
0.00021523839
-0.00010094235
0.000216855
-8.5577587e-05
0.00021708281
-7.0264503e-05
0.0002161114
-5.5159604e-05
0.00021411843
-4.0369863e-05
0.00021126518
-2.5958262e-05
0.00020769115
-1.1947003e-05
0.00020351595
1.6718186e-06
0.0001988241
1.4921001e-05
0.00019368385
2.7862626e-05
0.00018813512
4.0547318e-05
0.00018219456
5.303291e-05
0.00017585784
6.5375437e-05
0.00016910232
7.7623476e-05
0.00016189009
8.9814525e-05
0.00015417123
0.00010197184
0.00014588708
0.00011410216
0.00013697357
0.00012619401
0.00012736441
0.00013821664
0.00011699425
0.00015011928
0.00010580179
0.00016183081
9.3732906e-05
0.00017325969
8.0743633e-05
0.00018429441
6.6803375e-05
0.00019480381
5.189819e-05
0.00020463792
3.603453e-05
0.00021362925
1.9240421e-05
0.00022159776
1.5688942e-06
0.00022834581
-1.6880089e-05
0.00023366016
-3.6000263e-05
0.0002373359
-5.563332e-05
0.00023915544
-7.5584498e-05
0.00023891272
-9.5620131e-05
0.00023641529
-0.00011546819
0.00023149469
-0.00013482088
0.00022401733
-0.00015333998
0.00021389663
-0.00017066507
0.00020110519
-0.00018642484
0.00018568629
-0.00020025134
0.00016776331
-0.00021179648
0.00014754592
-0.00022074972
0.00012533135
-0.00022685589
0.00010150012
-0.00022993064
7.6505209e-05
-0.00022987411
5.08571e-05
-0.00022668196
2.5109442e-05
-0.00022039869
-2.0702823e-07
-0.00021122532
-2.4616021e-05
-0.00019942519
-4.7453176e-05
-0.00018533007
-6.8308583e-05
-0.00016932688
-8.6807574e-05
-0.00015183917
-0.00010265896
-0.00013330937
-0.00011566114
-0.00011418311
-0.00012569992
-9.4895111e-05
-0.00013274465
-7.5857113e-05
-0.0001368442
-5.7448373e-05
-0.00013811768
-4.0008177e-05
-0.00013674577
-2.3831003e-05
-0.00013295989
-9.1612391e-06
-0.00012703449
-0.00011926798
2.2252046e-07
-9.5330894e-06
1.0046741e-06
-2.8455899e-05
3.1654441e-06
-4.8414104e-05
6.528098e-06
-6.7540937e-05
1.2504584e-05
-8.9315938e-05
2.1284333e-05
-0.00011134455
3.3366683e-05
-0.00013403875
4.8534611e-05
-0.0001554021
6.6327104e-05
-0.00017418943
8.6091004e-05
-0.00018932484
0.00010703562
-0.00020000753
0.00012829917
-0.00020580842
0.00014900859
-0.00020665729
0.00016835291
-0.00020282824
0.0001856633
-0.00019488783
0.00020047805
-0.00018359859
0.00021256984
-0.00016979556
0.00022192718
-0.00015427017
0.00022870111
-0.00013769291
0.00023313973
-0.00012058591
0.00023553155
-0.00010333417
0.00023616775
-8.6213788e-05
0.00023532265
-6.9419404e-05
0.00023324616
-5.308311e-05
0.00023016155
-3.7285251e-05
0.00022626362
-2.2060334e-05
0.00022171389
-7.397278e-06
0.00021665309
6.7326239e-06
0.00021117106
2.0403032e-05
0.00020533736
3.3696317e-05
0.00019918945
4.6695232e-05
0.00019273614
5.9486223e-05
0.0001859614
7.215018e-05
0.00017882785
8.4757025e-05
0.00017128063
9.7361744e-05
0.00016325131
0.00011000116
0.0001546618
0.00012269168
0.00014542805
0.00013542776
0.00013546373
0.00014818096
0.00012468367
0.00016089935
0.00011300716
0.00017350732
0.00010036133
0.00018590552
8.6684487e-05
0.00019797125
7.1929472e-05
0.00020955882
5.6067099e-05
0.00022050029
3.9089664e-05
0.00023060669
2.101828e-05
0.00023966914
1.90171e-06
0.00024746238
-1.8179623e-05
0.00025374149
-3.9102032e-05
0.00025825831
-6.0701871e-05
0.00026075528
-8.2768641e-05
0.00026097949
-0.00010504337
0.00025869002
-0.00012721854
0.00025366987
-0.00014894027
0.00024573905
-0.00016981349
0.00023476985
-0.00018941121
0.0002207029
-0.00020728774
0.00020356282
-0.00022299624
0.00018347181
-0.00023610947
0.00016065915
-0.00024624291
0.00013546478
-0.00025307769
0.00010833491
-0.00025638235
7.9809867e-05
-0.00025602997
5.0504722e-05
-0.000252014
2.1093463e-05
-0.00024436376
-7.8572656e-06
-0.00023336523
-3.5614547e-05
-0.00021932202
-6.1496386e-05
-0.00020264489
-8.4985715e-05
-0.00018380728
-0.00010564518
-0.00016332269
-0.00012314355
-0.00014172236
-0.00013726147
-0.00011953604
-0.00014788624
-9.7275136e-05
-0.00015500556
-7.5418906e-05
-0.00015870043
-5.4403964e-05
-0.00015913263
-3.4616303e-05
-0.00015653343
-1.6385442e-05
-0.00015119075
9.3893685e-09
-0.00014342932
-0.00013360905
-1.4780776e-08
-9.5183086e-06
2.3139377e-07
-2.8702073e-05
2.0820733e-06
-5.0264784e-05
5.0153407e-06
-7.0474204e-05
1.1090297e-05
-9.5390894e-05
2.0496575e-05
-0.00012075083
3.3839916e-05
-0.00014738209
5.0771105e-05
-0.00017233329
7.072875e-05
-0.00019414708
9.2977545e-05
-0.00021157364
0.00011665516
-0.00022368515
0.00014081288
-0.00022996614
0.00016444753
-0.00023029194
0.00018656635
-0.00022494706
0.00020628855
-0.00021461003
0.00022295693
-0.00020026697
0.00023621686
-0.00018305549
0.00024602896
-0.00016408227
0.00025261272
-0.00014427666
0.0002563492
-0.0001243224
0.0002576825
-0.00010466747
0.00025704805
-8.5579338e-05
0.00025483577
-6.7207119e-05
0.00025137999
-4.9627332e-05
0.00024696321
-3.2868475e-05
0.00024181957
-1.691669e-05
0.00023613332
-1.7110312e-06
0.00023006677
1.2799178e-05
0.00022371082
2.6758976e-05
0.00021713464
4.02725e-05
0.00021036873
5.3461146e-05
0.00020340973
6.6445217e-05
0.0001962254
7.933451e-05
0.00018875912
9.2223305e-05
0.00018093471
0.00010518616
0.00017266108
0.00011827479
0.00016383677
0.00013151599
0.00015435416
0.00014491037
0.00014410346
0.00015843165
0.00013297645
0.00017202636
0.00012086996
0.00018561381
0.00010768936
0.00019908613
9.3352029e-05
0.00021230858
7.7791044e-05
0.00022511981
6.0959443e-05
0.00023733189
4.2833256e-05
0.00024873287
2.3417729e-05
0.00025908467
2.7528338e-06
0.00026812728
-1.9089524e-05
0.00027558385
-4.1985087e-05
0.00028115388
-6.5764189e-05
0.00028453439
-9.0201348e-05
0.00028541665
-0.00011501177
0.00028350044
-0.00013984953
0.00027850762
-0.0001643087
0.00027019823
-0.00018792809
0.00025838924
-0.00021020107
0.00024297588
-0.00023059108
0.00022395283
-0.00024855295
0.00020143367
-0.00026355935
0.00017566556
-0.00027513068
0.00014703611
-0.00028286581
0.00011607003
-0.0002864696
8.3413656e-05
-0.00028577688
4.9812001e-05
-0.0002807847
1.6101291e-05
-0.0002715248
-1.7117171e-05
-0.00025833527
-4.8804074e-05
-0.00024161058
-7.8221073e-05
-0.00022185747
-0.00010473883
-0.0001996578
-0.00012784484
-0.00017563683
-0.00014716452
-0.00015043423
-0.00016246406
-0.00012468043
-0.00017364004
-9.8976589e-05
-0.00018070941
-7.3879391e-05
-0.00018379763
-4.988913e-05
-0.00018312289
-2.7441666e-05
-0.0001789809
-6.9063165e-06
-0.0001717261
1.138829e-05
-0.00016172393
-0.00014945809
-2.1375836e-07
-9.3045502e-06
-3.6444608e-07
-2.8551385e-05
1.7377853e-06
-5.2367015e-05
4.5918616e-06
-7.3328281e-05
1.1041966e-05
-0.000101841
2.1300807e-05
-0.00013100967
3.5983666e-05
-0.00016206495
5.4602115e-05
-0.00019095173
7.650496e-05
-0.00021604992
0.00010092821
-0.00023599689
0.00012701801
-0.00024977496
0.000153829
-0.00025677712
0.00018030832
-0.00025677126
0.00020532518
-0.00024996392
0.00022777093
-0.00023705578
0.00024671458
-0.00021921062
0.0002615588
-0.00019789971
0.00027212743
-0.00017465091
0.00027864423
-0.00015079346
0.00028161745
-0.00012729562
0.00028168659
-0.00010473661
0.00027949096
-8.3383706e-05
0.00027559211
-6.3308269e-05
0.00027044954
-4.4484767e-05
0.00026442863
-2.6847558e-05
0.00025781258
-1.030064e-05
0.00025082793
5.2736135e-06
0.0002436221
2.000501e-05
0.00023630971
3.4071362e-05
0.00022895102
4.7631191e-05
0.00022156261
6.0849559e-05
0.000214123
7.3884828e-05
0.00020657796
8.6879547e-05
0.00019884617
9.9955096e-05
0.00019082495
0.00011320738
0.00018239579
0.00012670395
0.00017342947
0.00014048231
0.00016379082
0.00015454902
0.00015334298
0.00016887949
0.00014195129
0.00018341805
0.00012948694
0.00019807816
0.00011583039
0.00021274268
0.00010087495
0.00022726403
8.4530586e-05
0.00024146417
6.6727608e-05
0.00025513487
4.7423519e-05
0.00026803696
2.6603686e-05
0.0002799045
4.2924445e-06
0.00029043852
-1.9448427e-05
0.00029932472
-4.4499674e-05
0.00030620512
-7.0690248e-05
0.00031072496
-9.7782184e-05
0.00031250859
-0.00012546565
0.00031118391
-0.00015335425
0.00030639622
-0.00018098425
0.00029782822
-0.00020781799
0.00028522299
-0.00023325394
0.00026841183
-0.00025664434
0.00024734324
-0.00027732108
0.00022211041
-0.00029462931
0.00019297379
-0.00030796695
0.00016037375
-0.000316825
0.00012492809
-0.00032082645
8.7415105e-05
-0.00031975776
4.8743308e-05
-0.0003135973
9.9408378e-06
-0.00030240361
-2.8310864e-05
-0.00028658424
-6.462345e-05
-0.00026664119
-9.8164114e-05
-0.00024320819
-0.00012817184
-0.0002170064
-0.00015404663
-0.00018880131
-0.00017536961
-0.00015936534
-0.00019190004
-0.00012944897
-0.0002035564
-9.9757634e-05
-0.00021040075
-7.0935512e-05
-0.00021261975
-4.3553544e-05
-0.00021050486
-1.8102347e-05
-0.00020443209
4.9898197e-06
-0.00019481827
2.5407047e-05
-0.00018214115
-0.00016694331
-3.7132056e-07
-8.9332297e-06
-6.4833924e-07
-2.8274367e-05
2.6429199e-06
-5.5658274e-05
5.9863294e-06
-7.667169e-05
1.325419e-05
-0.00010910886
2.4727731e-05
-0.00014248321
4.0897028e-05
-0.00017823425
6.1115382e-05
-0.00021117009
8.4642807e-05
-0.00023957735
0.00011074016
-0.00026209424
0.00013864425
-0.00027767905
0.00016751616
-0.00028564904
0.00019637058
-0.00028562569
0.00022404616
-0.0002776395
0.00024926552
-0.00026227513
0.00027080064
-0.00024074574
0.00028770308
-0.00021480215
0.00029950539
-0.00018645322
0.00030629708
-0.00015758515
0.00030863987
-0.00012963841
0.00030737114
-0.00010346788
0.00030338955
-7.9402117e-05
0.00029750113
-5.7419849e-05
0.00029035374
-3.7337373e-05
0.00028243586
-1.8929684e-05
0.00027409775
-1.9625244e-06
0.00026562382
1.3747544e-05
0.0002571609
2.8467926e-05
0.00024882147
4.2410797e-05
0.0002406555
5.579716e-05
0.00023265996
6.8845096e-05
0.00022478816
8.1756623e-05
0.00021695687
9.4710846e-05
0.0002090534
0.00010785856
0.00020094251
0.00012131827
0.00019247278
0.00013517368
0.00018348242
0.00014947267
0.00017380442
0.00016422702
0.00016327107
0.00017941285
0.00015171787
0.00019497125
0.00013898706
0.00021080896
0.00012493106
0.00022679868
0.00010941579
0.00024277929
9.2324055e-05
0.00025855591
7.3560787e-05
0.00027389814
5.3057285e-05
0.00028854046
3.0777646e-05
0.00030218414
6.7190418e-06
0.00031449713
-1.9055614e-05
0.00032509938
-4.6456563e-05
0.00033360607
-7.5312318e-05
0.00033958071
-0.00010537663
0.0003425729
-0.00013631738
0.00034212465
-0.00016770738
0.00033778623
-0.00019901988
0.00032914072
-0.00022962977
0.00031583287
-0.00025882272
0.00029760478
-0.00028581485
0.00027433537
-0.00030978367
0.00024607922
-0.00032991085
0.00021310097
-0.00034543452
0.00017589742
-0.00035570497
0.00013519854
-0.0003602353
9.1945428e-05
-0.00035874142
4.7249426e-05
-0.0003511995
2.3989247e-06
-0.00033765996
-4.1850407e-05
-0.00031865891
-8.3624497e-05
-0.00029482801
-0.00012199501
-0.00026696815
-0.0001560317
-0.00023598157
-0.00018503321
-0.00020281112
-0.00020854006
-0.00016839155
-0.00022631962
-0.00013361538
-0.00023833257
-9.9307818e-05
-0.0002447083
-6.6209743e-05
-0.00024571783
-3.4964387e-05
-0.00024175021
-6.1163087e-06
-0.00023328017
1.982559e-05
-0.00022076016
4.2562158e-05
-0.00020487772
-0.00018619517
-5.5459258e-07
-8.3786371e-06
-7.9666719e-07
-2.8032292e-05
4.6632551e-06
-6.1118196e-05
9.118139e-06
-8.1126574e-05
1.7736314e-05
-0.00011772703
3.0992992e-05
-0.00015573989
4.8991964e-05
-0.00019623322
7.0858471e-05
-0.0002330366
9.5764363e-05
-0.00026448324
0.00012303501
-0.00028936488
0.00015206021
-0.00030670425
0.00018219041
-0.00031577923
0.0002126232
-0.00031605847
0.00024231132
-0.00030732762
0.00026994921
-0.00028991302
0.0002940911
-0.00026488764
0.00031340684
-0.00023411788
0.00032699657
-0.00020004294
0.00033462162
-0.00016521021
0.00033673323
-0.00013175001
0.00033428956
-0.00010102421
0.00032846305
-7.3575602e-05
0.00032037474
-4.9331545e-05
0.00031094239
-2.790502e-05
0.00030084001
-8.827301e-06
0.00029055601
8.3214764e-06
0.00028039047
2.3913084e-05
0.00027054273
3.8315666e-05
0.00026111633
5.1837194e-05
0.00025213897
6.4774514e-05
0.00024357834
7.740573e-05
0.00023535308
8.998188e-05
0.00022734214
0.00010272179
0.00021939346
0.00011580725
0.00021133206
0.00012937967
0.0002029674
0.00014353834
0.00019409983
0.00015834024
0.00018452601
0.00017380084
0.00017404351
0.00018989535
0.00016245458
0.00020656018
0.00014956946
0.00022369408
0.0001352093
0.00024115884
0.00011920925
0.00025877935
0.00010142209
0.00027634307
8.1721857e-05
0.00029359837
6.0008805e-05
0.00031025352
3.6219127e-05
0.00032597382
1.0333496e-05
0.00034038276
-1.7635742e-05
0.00035306862
-4.7597955e-05
0.00036356828
-7.9398851e-05
0.00037138161
-0.0001127932
0.00037596725
-0.00014743246
0.00037676391
-0.00018285116
0.00037320493
-0.00021845606
0.00036474563
-0.00025352319
0.0003509
-0.00028720483
0.00033128642
-0.00031855061
0.00030568115
-0.00034654372
0.00027407233
-0.00037015512
0.00023671237
-0.00038841381
0.00019415611
-0.00040048384
0.00014726857
-0.00040573648
9.7198067e-05
-0.0004038201
4.5333048e-05
-0.00039446219
-6.958979e-06
-0.00037812614
-5.8186465e-05
-0.00035524957
-0.00010650106
-0.00032668002
-0.00015056456
-0.00029345293
-0.0001892588
-0.00025671145
-0.00022177468
-0.0002176249
-0.00024762661
-0.00017732623
-0.00026661829
-0.00013687376
-0.00027878504
-9.7226647e-05
-0.00028435541
-5.9229027e-05
-0.00028371545
-2.3607958e-05
-0.00027737128
8.9981926e-06
-0.00026588632
3.8145648e-05
-0.00024990762
6.3431095e-05
-0.00023016317
-0.0002073455
-9.5349913e-07
-7.4251379e-06
-1.6598542e-06
-2.7325937e-05
6.1757947e-06
-6.8953845e-05
1.2298717e-05
-8.7249497e-05
2.2999738e-05
-0.00012842805
3.9078328e-05
-0.00017181848
5.9637131e-05
-0.00021679202
8.3496268e-05
-0.00025689573
0.00010977718
-0.00029076415
0.0001379123
-0.0003175
0.00016748682
-0.00033627877
0.00019808587
-0.00034637828
0.00022916581
-0.00034713842
0.000259924
-0.00033808581
0.00028920677
-0.0003191958
0.00031553085
-0.00029121172
0.00033728448
-0.00025587151
0.00035309312
-0.00021585158
0.00036221277
-0.00017432986
0.00036475357
-0.00013429082
0.00036161296
-9.7883599e-05
0.00035416411
-6.6126756e-05
0.00034387202
-3.9039451e-05
0.00033199757
-1.6030566e-05
0.00031948353
3.686739e-06
0.00030702142
2.0783584e-05
0.00029500429
3.5930215e-05
0.00028367179
4.9648167e-05
0.00027312486
6.2384123e-05
0.00026336409
7.4535284e-05
0.00025431764
8.6452176e-05
0.00024585829
9.8441227e-05
0.00023781638
0.0001107637
0.00022999075
0.00012363288
0.00022215835
0.00013721207
0.00021408253
0.00015161415
0.00020552003
0.00016690274
0.00019622657
0.0001830943
0.00018596119
0.00020016072
0.00017448973
0.00021803164
0.00016158743
0.00023659638
0.00014704125
0.00025570501
0.00013065234
0.00027516826
0.00011223894
0.00029475646
9.163984e-05
0.00031419747
6.8720589e-05
0.00033317277
4.3378636e-05
0.00035131577
1.5555944e-05
0.00036820545
-1.4753228e-05
0.00038337779
-4.7503225e-05
0.00039631828
-8.2561456e-05
0.00040643984
-0.00011969536
0.00041310115
-0.00015854981
0.00041561837
-0.00019862762
0.00041328274
-0.00023926937
0.00040538738
-0.0002796408
0.00039127143
-0.00031873616
0.00037038177
-0.00035540015
0.00034234515
-0.00038836769
0.00030703987
-0.00041633135
0.00026467603
-0.0004380397
0.00021586446
-0.00045241042
0.00016163929
-0.00045862628
0.00010341392
-0.00045625428
4.2961047e-05
-0.00044492395
-1.828931e-05
-0.00042502139
-7.8089017e-05
-0.00039732204
-0.00013420042
-0.00036289416
-0.00018499244
-0.00032308287
-0.00022907008
-0.00027935441
-0.00026550315
-0.00023317158
-0.00029380944
-0.00018590987
-0.00031388
-0.00013881659
-0.00032587832
-9.2994583e-05
-0.00033017742
-4.9399307e-05
-0.00032731073
-8.8173981e-06
-0.00031795319
2.8006984e-05
-0.0003027107
6.065077e-05
-0.00028255141
8.869988e-05
-0.00025821228
-0.00023051486
-1.8825806e-06
-5.5425574e-06
-4.9766087e-06
-2.4231909e-05
3.4319241e-06
-7.7362378e-05
1.1961075e-05
-9.5778647e-05
2.6231566e-05
-0.00014269855
4.7072428e-05
-0.00019265934
7.142117e-05
-0.00024114077
9.7943776e-05
-0.00028341834
0.00012587121
-0.00031869159
0.00015482585
-0.00034645464
0.00018462136
-0.00036607428
0.00021508718
-0.00037684409
0.00024596045
-0.00037801169
0.00027675805
-0.00036888342
0.00030663289
-0.00034907064
0.00033428559
-0.00031886442
0.00035804091
-0.00027962684
0.00037616091
-0.00023397157
0.00038733144
-0.00018550039
0.00039110527
-0.00013806465
0.00038805882
-9.4837151e-05
0.0003795782
-5.7646138e-05
0.00036740247
-2.6863723e-05
0.00035314551
-1.7735996e-06
0.00033818048
1.8651759e-05
0.00032341094
3.5553128e-05
0.00030943235
4.9908803e-05
0.00029656127
6.251925e-05
0.00028490687
7.4038527e-05
0.00027444092
8.5001234e-05
0.00026504236
9.5850729e-05
0.00025652551
0.00010695808
0.00024865942
0.00011862979
0.00024118242
0.00013110988
0.00023381374
0.00014458075
0.00022626289
0.000159165
0.00021823705
0.00017492859
0.00020944644
0.00019188491
0.00019960819
0.00020999897
0.0001884489
0.00022919093
0.00017570631
0.00024933897
0.00016113054
0.00027028079
0.00014448535
0.00029181345
0.00012555024
0.00031369158
0.00010412331
0.0003356244
8.0025411e-05
0.00035727067
5.3111056e-05
0.00037823013
2.327408e-05
0.00039804242
-9.5309734e-06
0.00041618284
-4.5307751e-05
0.00043209506
-8.3963887e-05
0.00044509598
-0.00012530183
0.00045443909
-0.00016897614
0.00045929268
-0.00021447153
0.00045877812
-0.00026107178
0.00045198763
-0.00030782641
0.00043802606
-0.00035354738
0.00041610274
-0.00039683637
0.00038563414
-0.00043612205
0.00034632556
-0.00046973381
0.00029828779