/*--------------------------------*- C++ -*----------------------------------*\
| =========                 |                                                 |
| \\      /  F ield         | OpenFOAM: The Open Source CFD Toolbox           |
|  \\    /   O peration     | Version:  2306                                  |
|   \\  /    A nd           | Website:  www.openfoam.com                      |
|    \\/     M anipulation  |                                                 |
\*---------------------------------------------------------------------------*/
FoamFile
{
    version     2.0;
    format      ascii;
    arch        "LSB;label=32;scalar=64";
    class       volVectorField;
    location    "0.54";
    object      U_0;
}
// * * * * * * * * * * * * * * * * * * * * * * * * * * * * * * * * * * * * * //

dimensions      [0 1 -1 0 0 0 0];

internalField   nonuniform List<vector> 
6400
(
(0.012210151 -0.38694171 2.7519444e-16)
(0.027819577 -0.38646656 -2.352485e-17)
(0.045063119 -0.38419246 2.1028525e-16)
(0.0611475 -0.38062865 3.9757826e-16)
(0.07730004 -0.37592666 1.2498623e-16)
(0.093213124 -0.37000847 3.1834059e-17)
(0.10897027 -0.36274417 -2.9519358e-17)
(0.1245514 -0.35388436 1.1022184e-17)
(0.13975398 -0.34321772 -2.5177603e-17)
(0.15428121 -0.33063607 -4.1125394e-17)
(0.16780125 -0.31615849 -2.281213e-17)
(0.18000138 -0.29992629 -4.7679503e-17)
(0.19062472 -0.28217722 -3.7421568e-17)
(0.19948966 -0.26321292 -3.0257185e-18)
(0.2064953 -0.24336694 4.8226865e-18)
(0.21161686 -0.22297745 -8.6628456e-17)
(0.21489502 -0.20236639 -5.3504994e-17)
(0.21642265 -0.18182503 -4.1128712e-17)
(0.21633093 -0.16160512 -7.3830548e-18)
(0.2147764 -0.14191472 4.0800375e-17)
(0.21192944 -0.12291754 1.6811071e-17)
(0.20796465 -0.10473492 1.6713787e-19)
(0.20305319 -0.08744954 4.3691524e-19)
(0.19735687 -0.071110226 -3.2063764e-17)
(0.19102409 -0.055737264 -4.6649059e-17)
(0.18418711 -0.041327818 -1.2272482e-17)
(0.17696056 -0.027861228 2.0453226e-17)
(0.16944125 -0.015303844 4.9046152e-17)
(0.161713 -0.0036132821 3.1966376e-17)
(0.1538371 0.007260579 1.1499255e-18)
(0.14585811 0.017365354 1.4417185e-18)
(0.13781599 0.026749836 4.264404e-18)
(0.12973377 0.035459432 1.2430282e-17)
(0.12162649 0.043535292 2.6409302e-18)
(0.11350194 0.051012941 -7.0027153e-18)
(0.10536239 0.057921584 5.2100887e-18)
(0.097206403 0.064283743 2.8185184e-17)
(0.089030476 0.07011516 4.4131847e-17)
(0.080830539 0.075424959 3.599451e-17)
(0.072603278 0.080216 3.7070045e-17)
(0.064347356 0.084485408 2.7920254e-17)
(0.05606444 0.088225248 7.2797155e-18)
(0.047760132 0.091423322 4.6697632e-18)
(0.039444724 0.094064048 1.0480985e-17)
(0.031134165 0.09612946 4.9206567e-17)
(0.022850337 0.097600568 7.4277225e-17)
(0.014621656 0.09845799 4.9601155e-17)
(0.0064812033 0.098683772 1.2757217e-17)
(-0.0015519674 0.098262034 3.1516417e-19)
(-0.0094114814 0.097175458 3.5183147e-17)
(-0.017041832 0.095419693 3.5053609e-17)
(-0.024392175 0.092993955 2.913562e-17)
(-0.031401554 0.089905088 2.5801872e-17)
(-0.03800632 0.086168974 9.2688478e-18)
(-0.044141337 0.081811667 -1.288883e-19)
(-0.049741791 0.076870242 1.0061716e-17)
(-0.054745245 0.071393324 9.4648573e-18)
(-0.059093879 0.065441194 -8.5041256e-18)
(-0.062736843 0.059085406 -6.7583262e-18)
(-0.065632585 0.052407857 -1.2469238e-17)
(-0.067751015 0.045499284 -8.5020362e-18)
(-0.069075263 0.038457222 -3.1102998e-18)
(-0.06960291 0.031383484 -1.5100554e-17)
(-0.069346821 0.024381439 -1.1800124e-17)
(-0.068335435 0.017553014 -1.6074482e-17)
(-0.066612425 0.010995437 -1.0705067e-17)
(-0.0642374 0.0047987755 6.428265e-18)
(-0.061273031 -0.00095768055 -7.4848296e-18)
(-0.05779775 -0.0062000067 -1.5031019e-17)
(-0.053909269 -0.010879255 -1.5321198e-17)
(-0.049694664 -0.014954942 -1.8194393e-17)
(-0.045248542 -0.018402723 -6.6068738e-18)
(-0.040664521 -0.021213292 -4.8221364e-18)
(-0.036033023 -0.023391685 -2.7913259e-18)
(-0.031439213 -0.024956179 -2.5187271e-18)
(-0.026961214 -0.025936875 -9.5617762e-18)
(-0.022668657 -0.026374077 -3.017062e-18)
(-0.018621602 -0.026316493 1.0803134e-18)
(-0.014869856 -0.025819415 1.71848e-18)
(-0.011452451 -0.024942926 1.2573785e-18)
(0.013520014 -0.42486224 3.8683461e-16)
(0.030584074 -0.42362406 -2.5031527e-17)
(0.049257733 -0.42037143 2.1959834e-16)
(0.066523612 -0.41579195 -2.2313041e-17)
(0.083874373 -0.41046539 -1.0548551e-16)
(0.10117921 -0.40418434 1.6096141e-16)
(0.11857019 -0.39668713 -2.8128947e-17)
(0.13604028 -0.38748226 2.5202958e-17)
(0.15328248 -0.37617166 8.8006608e-17)
(0.16986835 -0.3625375 6.3533017e-18)
(0.18532817 -0.3465674 3.4201789e-17)
(0.19923182 -0.32843603 -9.1175579e-17)
(0.21123867 -0.30845654 -8.4424471e-17)
(0.2211202 -0.28702669 -6.604681e-17)
(0.22876249 -0.26458021 -7.4407433e-17)
(0.23415483 -0.24154826 -4.188637e-17)
(0.23737105 -0.21833222 -6.0380049e-17)
(0.23854861 -0.19528661 -8.0391368e-17)
(0.23786866 -0.17271004 -6.9916306e-17)
(0.23553849 -0.15084215 -5.5722738e-17)
(0.23177702 -0.1298648 1.4578725e-17)
(0.22680314 -0.10990626 4.2382989e-18)
(0.22082686 -0.091047153 -3.1783737e-18)
(0.21404297 -0.073327416 -3.525787e-17)
(0.20662667 -0.056753561 -3.6264834e-17)
(0.19873111 -0.041305809 1.1005403e-17)
(0.19048624 -0.026944888 3.3442386e-17)
(0.18199898 -0.013617605 4.793144e-17)
(0.17336491 -0.0012614801 3.5257783e-17)
(0.16463588 0.010189653 1.6220385e-18)
(0.15586517 0.020801823 1.9538754e-17)
(0.14708688 0.030637954 2.0334845e-17)
(0.13831936 0.039756301 8.5015155e-18)
(0.12957143 0.048208781 -6.1793404e-19)
(0.12084374 0.056039577 2.3230109e-18)
(0.11213092 0.063284519 2.5902695e-18)
(0.10342377 0.069970805 1.6287592e-17)
(0.094711131 0.076117043 3.4127106e-17)
(0.085981628 0.081733548 3.9876909e-17)
(0.077225169 0.08682285 4.5669341e-17)
(0.068434331 0.091380389 3.0984009e-17)
(0.059605511 0.095395314 1.0737162e-17)
(0.050739982 0.098851447 1.2768946e-18)
(0.041844726 0.10172838 6.1571504e-18)
(0.032933615 0.10400249 2.8222641e-17)
(0.024027559 0.10564838 6.1304184e-17)
(0.015155508 0.10664015 6.138183e-17)
(0.0063511676 0.10695341 1.6448745e-17)
(-0.0023648684 0.10656418 -4.4646874e-20)
(-0.01091956 0.10544842 1.9743636e-17)
(-0.019251057 0.10359542 2.6795916e-17)
(-0.027301362 0.10099864 3.3720359e-17)
(-0.035000724 0.097660221 1.5528654e-17)
(-0.042275187 0.09359269 1.0795301e-17)
(-0.04904817 0.088820522 1.9106448e-17)
(-0.055242584 0.083381314 1.2898126e-17)
(-0.060783303 0.077326601 5.6793198e-18)
(-0.065599898 0.070722187 -1.5255142e-17)
(-0.069629568 0.06364786 -1.2390625e-17)
(-0.072820094 0.056196414 8.7565624e-19)
(-0.07513263 0.048471931 -8.3487301e-18)
(-0.076544057 0.04058735 -5.1671145e-18)
(-0.07704857 0.032661401 -2.1684075e-17)
(-0.076658801 0.024815207 -2.2619921e-17)
(-0.07540644 0.017168526 -9.4799626e-18)
(-0.073341368 0.0098354428 -1.2168806e-17)
(-0.070531546 0.0029203757 3.0389759e-18)
(-0.067052863 -0.0034732625 -8.807091e-18)
(-0.062999285 -0.0092762246 -1.9174416e-17)
(-0.058480743 -0.014421707 -1.3633427e-17)
(-0.053603445 -0.018865314 -1.2091816e-17)
(-0.04847785 -0.022580779 -4.9416933e-18)
(-0.043213362 -0.025559576 -7.6020296e-18)
(-0.037915275 -0.027810134 -1.4576332e-17)
(-0.032682226 -0.029356405 -8.4579959e-18)
(-0.027604117 -0.030236067 -7.5089961e-18)
(-0.022760479 -0.030498512 -4.0970938e-18)
(-0.018219278 -0.030202631 -1.1848822e-18)
(-0.01403624 -0.02941463 -2.6419971e-18)
(-0.010254317 -0.028205883 -3.6839101e-18)
(0.014464316 -0.46632421 7.4571854e-16)
(0.032459767 -0.46384965 9.4289579e-16)
(0.052170575 -0.45936954 7.2754973e-16)
(0.070391201 -0.4535391 3.3251091e-16)
(0.088910762 -0.44773772 1.4938635e-16)
(0.10786576 -0.44139213 1.7158882e-16)
(0.12734184 -0.43405736 1.0631023e-16)
(0.14731769 -0.42484125 3.0105367e-17)
(0.16728196 -0.41307609 2.4168196e-17)
(0.186604 -0.39839925 8.5572051e-17)
(0.20461608 -0.38076983 7.6908766e-17)
(0.22072887 -0.36042599 7.2995812e-17)
(0.23449436 -0.33779916 1.7502294e-17)
(0.24563011 -0.31342859 2.5176827e-17)
(0.25401612 -0.28788871 -1.0205208e-17)
(0.25967286 -0.26173556 1.5676235e-17)
(0.26273006 -0.23547223 -1.6442837e-17)
(0.26339405 -0.20952993 -2.0314804e-17)
(0.26191847 -0.18426054 -3.1926888e-17)
(0.2585806 -0.15993662 -3.9013844e-17)
(0.25366312 -0.13675611 3.769447e-17)
(0.2474408 -0.11484989 8.6009526e-17)
(0.24017097 -0.094290878 1.8405313e-17)
(0.23208712 -0.075103819 -3.4491676e-17)
(0.223395 -0.057274931 -2.4748148e-17)
(0.21427065 -0.040761097 1.9669434e-17)
(0.20486018 -0.025498458 6.9843816e-17)
(0.19528096 -0.011408902 3.7290187e-17)
(0.18563711 0.0015962819 -8.6759798e-18)
(0.17597154 0.013601233 -2.0514813e-18)
(0.16634368 0.024695037 1.1848297e-17)
(0.156779 0.034957725 3.4303765e-17)
(0.14728897 0.044462554 5.2726478e-18)
(0.1378738 0.053273814 -1.3749568e-17)
(0.12852466 0.061445515 -1.1673611e-17)
(0.11922637 0.069020856 -1.3967396e-17)
(0.10995987 0.076032096 7.2651746e-18)
(0.10070444 0.082500779 6.8103155e-18)
(0.091439653 0.088438223 -8.3039809e-18)
(0.082147109 0.093846218 8.3754284e-18)
(0.072811908 0.098717922 -1.9181049e-17)
(0.06342396 0.10303884 -2.8479048e-17)
(0.053979158 0.1067879 -2.8477797e-17)
(0.044480246 0.10993878 -3.6681417e-17)
(0.034938178 0.11246117 -2.5508686e-17)
(0.025372407 0.11432198 4.3332167e-18)
(0.015812339 0.11548702 2.7949728e-17)
(0.0062920724 0.11592427 -1.1283762e-17)
(-0.0031674237 0.11560111 -3.8702376e-17)
(-0.01248581 0.11448279 -3.1198506e-17)
(-0.021592957 0.11255208 -1.9402473e-17)
(-0.030423888 0.10979461 -2.5014847e-18)
(-0.038898654 0.10620602 -6.1918464e-19)
(-0.046931287 0.10179394 -6.4879798e-18)
(-0.054431672 0.096579931 2.1018105e-18)
(-0.06130801 0.090601171 3.890183e-18)
(-0.067469742 0.083911643 -9.3753268e-18)
(-0.072830893 0.0765828 -1.0035944e-17)
(-0.077313725 0.06870347 -9.9057179e-18)
(-0.080852487 0.060378873 3.3745203e-19)
(-0.083397041 0.051728685 1.9757743e-17)
(-0.08491596 0.042884138 9.6461202e-19)
(-0.085398713 0.033984283 -1.3228226e-17)
(-0.08485724 0.025171707 -1.6319257e-17)
(-0.08332709 0.016587825 -4.7142246e-19)
(-0.080867175 0.0083680675 1.8494624e-17)
(-0.077550016 0.00063565918 2.3851611e-17)
(-0.073466957 -0.0064897518 1.1886433e-17)
(-0.068740313 -0.012922986 -1.4989892e-17)
(-0.063489445 -0.018589557 -2.7670662e-18)
(-0.057842367 -0.023438656 1.1520212e-17)
(-0.05192952 -0.027441718 1.140297e-17)
(-0.045879253 -0.030591602 2.7565469e-18)
(-0.039814423 -0.032901294 -1.1252375e-17)
(-0.033849396 -0.034402 -4.9177945e-18)
(-0.028087657 -0.035140829 -1.9358507e-18)
(-0.022620003 -0.035178276 7.2436077e-18)
(-0.017523247 -0.034585513 4.830028e-18)
(-0.012859559 -0.033441739 -4.3248763e-19)
(-0.0086759646 -0.031831718 -3.6269614e-19)
(0.014453352 -0.50954253 7.9719195e-16)
(0.032174951 -0.50548571 8.2763559e-16)
(0.052138612 -0.50001232 4.1706289e-16)
(0.070894393 -0.49301324 2.595605e-16)
(0.09054271 -0.48742686 1.6246077e-16)
(0.11161603 -0.48173153 2.6938953e-18)
(0.13390808 -0.47532685 5.7095779e-17)
(0.15734964 -0.46668213 4.881967e-17)
(0.18105035 -0.45478278 4.8041512e-17)
(0.20409051 -0.43910339 5.0175506e-17)
(0.22553281 -0.41959834 1.3999921e-17)
(0.24458126 -0.39662249 1.8561134e-17)
(0.26065255 -0.3707909 1.5879909e-18)
(0.27340004 -0.34285018 -1.4704232e-17)
(0.28270454 -0.31357357 4.0556812e-17)
(0.28863959 -0.2836868 -2.2228788e-18)
(0.29142288 -0.25382419 -5.643973e-17)
(0.29136553 -0.22450926 -5.6256798e-17)
(0.28882791 -0.19615206 -5.308221e-17)
(0.28418603 -0.16905584 -1.6678361e-18)
(0.27780835 -0.14342837 1.9538177e-17)
(0.27004112 -0.11939493 5.4093738e-17)
(0.26119935 -0.097011793 3.0129267e-17)
(0.25156174 -0.076279433 2.9249139e-17)
(0.24136814 -0.057155063 3.7700489e-17)
(0.23081892 -0.039564095 4.9902701e-17)
(0.22007624 -0.023410555 6.1642853e-17)
(0.20926874 -0.0085848638 6.0141654e-17)
(0.19849994 0.0050328159 5.61571e-17)
(0.18781277 0.017552537 5.4061651e-17)
(0.17726189 0.029087503 2.4631608e-17)
(0.16686304 0.039738532 2.7013127e-17)
(0.15661773 0.049596432 3.5500871e-17)
(0.14651466 0.058739647 3.4405271e-17)
(0.13653272 0.067233194 3.1581978e-17)
(0.12664421 0.075128325 2.9044858e-17)
(0.11681782 0.082462637 3.5431576e-17)
(0.10702103 0.08926055 3.9111752e-17)
(0.097222429 0.095534054 3.2395542e-17)
(0.087393512 0.10128365 2.1235075e-17)
(0.077510362 0.10649946 -2.2162984e-17)
(0.067555017 0.11116246 -4.8258502e-17)
(0.057516784 0.11524569 -4.4026249e-17)
(0.047393209 0.11871569 -5.7011636e-17)
(0.037191391 0.1215341 -4.2736596e-17)
(0.026928394 0.12365893 -4.1079051e-18)
(0.01663404 0.12504625 2.4334208e-17)
(0.006342481 0.12565397 3.2477406e-18)
(-0.0039260539 0.12543752 -2.3975745e-17)
(-0.014083182 0.12435398 -2.6266281e-17)
(-0.02404928 0.12237415 -3.7869581e-17)
(-0.033752242 0.11947418 -3.4682456e-17)
(-0.043100402 0.11564112 -9.5680594e-18)
(-0.051993873 0.11087567 9.1691743e-18)
(-0.060326615 0.10519472 3.2141365e-17)
(-0.067989219 0.09863363 2.4899125e-17)
(-0.074872366 0.091248031 -6.4007118e-18)
(-0.080870897 0.083114935 -1.7504047e-17)
(-0.085888357 0.074332975 1.1992721e-17)
(-0.089841792 0.065021504 3.2892479e-17)
(-0.092666455 0.055318436 4.0923297e-17)
(-0.094319964 0.045376801 6.4839207e-18)
(-0.094785278 0.035360101 -6.3013388e-18)
(-0.094072718 0.025437068 -4.8112528e-18)
(-0.092221153 0.01577569 1.0468566e-17)
(-0.0892987 0.006537805 4.4334918e-17)
(-0.085391423 -0.0021289117 2.7230974e-17)
(-0.080607038 -0.010090855 7.9342658e-18)
(-0.07509068 -0.017239282 -1.4327352e-17)
(-0.068984621 -0.023490168 -4.9861431e-18)
(-0.062441122 -0.028786406 1.2172713e-17)
(-0.055614304 -0.033097454 1.6881856e-17)
(-0.048655099 -0.036418531 6.8295384e-18)
(-0.041707101 -0.038768768 -1.3734665e-17)
(-0.034903013 -0.040188672 -1.1924053e-17)
(-0.02836193 -0.040737104 -3.308117e-18)
(-0.022187388 -0.040488162 9.634938e-18)
(-0.016466011 -0.039527868 8.8104687e-18)
(-0.011266979 -0.03795093 1.0895345e-18)
(-0.0066415379 -0.035857942 -5.0781653e-18)
(0.012929043 -0.55082717 9.4616706e-16)
(0.028408215 -0.54528134 1.0594119e-15)
(0.047567318 -0.54009976 2.7045008e-16)
(0.066242306 -0.53258252 2.235344e-16)
(0.086923337 -0.52889612 2.2086774e-16)
(0.11080995 -0.52521347 1.2197182e-16)
(0.13688271 -0.52107019 7.9005376e-17)
(0.16505587 -0.51392367 1.0244769e-16)
(0.19378079 -0.5023814 3.3102529e-17)
(0.2217734 -0.48578072 8.2085095e-17)
(0.24775852 -0.46412791 1.1832704e-16)
(0.27068948 -0.43797451 8.3835038e-17)
(0.28981457 -0.40820696 8.8031621e-17)
(0.30469964 -0.37586761 4.7056167e-17)
(0.31521896 -0.34200945 9.3608755e-17)
(0.32151272 -0.30759299 9.7477943e-17)
(0.32392015 -0.27342743 1.5823874e-18)
(0.32290346 -0.24015027 -8.7388663e-18)
(0.31897887 -0.20823346 -2.0724597e-17)
(0.31266468 -0.17800325 7.135868e-17)
(0.30444879 -0.14966383 7.2894852e-17)
(0.29477193 -0.12331991 3.442921e-17)
(0.2840209 -0.098996607 7.7533226e-17)
(0.27252726 -0.076656997 3.3481706e-17)
(0.26056832 -0.056217587 4.8334129e-17)
(0.24836944 -0.037562119 1.2640087e-16)
(0.23610765 -0.020553237 9.5389259e-17)
(0.22392427 -0.0050422626 8.439965e-17)
(0.21190932 0.0091295956 7.0641988e-17)
(0.20011161 0.022104058 8.1494266e-17)
(0.18857295 0.034021243 1.0971307e-16)
(0.17729652 0.045006481 6.7429369e-17)
(0.16626994 0.055170836 4.0623237e-17)
(0.15546665 0.064608715 4.1954658e-17)
(0.14484977 0.073397249 7.8719605e-17)
(0.134376 0.081596293 1.1159359e-16)
(0.12399889 0.089248882 9.0848662e-17)
(0.11367166 0.096382064 8.1241555e-17)
(0.10334963 0.10300798 8.9443835e-17)
(0.092992253 0.10912511 6.0065641e-17)
(0.082564863 0.11471964 -7.725453e-18)
(0.072040131 0.11976692 -6.6227412e-17)
(0.061399415 0.12423297 -6.3131487e-17)
(0.050633884 0.12807591 -4.5389435e-17)
(0.039745882 0.13124772 -3.1346883e-17)
(0.028749304 0.13369597 1.2851976e-18)
(0.017673372 0.13536571 1.7699159e-17)
(0.0065501901 0.13620046 -2.3767273e-18)
(-0.0045974366 0.1361465 -1.5793714e-17)
(-0.015673685 0.13514545 -2.3344722e-17)
(-0.026592372 0.13315603 -3.4156161e-17)
(-0.037270939 0.13014183 -2.6021859e-17)
(-0.047604896 0.12607849 -6.6411663e-18)
(-0.057478439 0.12095715 9.2052185e-18)
(-0.066766877 0.11478762 2.6925944e-17)
(-0.075339784 0.10760148 2.8274094e-17)
(-0.08306505 0.099454654 1.5576392e-17)
(-0.089813814 0.090429298 -4.4330955e-18)
(-0.095466133 0.080634482 9.6392079e-18)
(-0.099917119 0.070205541 2.174731e-17)
(-0.10308309 0.059301732 3.7438106e-17)
(-0.10490718 0.048102115 2.3872042e-17)
(-0.10536329 0.036799868 1.4021094e-19)
(-0.10445889 0.025595519 -3.1805482e-18)
(-0.1022364 0.01468903 5.5322483e-18)
(-0.098776388 0.0042720764 3.6996009e-17)
(-0.094176814 -0.0054686298 4.1247628e-17)
(-0.088570327 -0.014384077 2.0815873e-17)
(-0.08212813 -0.022344264 -1.1821428e-17)
(-0.07502136 -0.029251279 -1.1566387e-17)
(-0.067431505 -0.035040474 2.2379703e-18)
(-0.059541392 -0.039679761 2.0888073e-17)
(-0.051528981 -0.043168134 1.3272235e-17)
(-0.043562358 -0.045533026 -8.8946177e-18)
(-0.035795556 -0.046826924 -5.6551218e-18)
(-0.028365544 -0.047123386 -3.2054157e-18)
(-0.021390173 -0.046513208 8.7957883e-18)
(-0.014966803 -0.045100387 9.7645247e-18)
(-0.0091721158 -0.042998316 3.3645171e-18)
(-0.0040617221 -0.04032571 -2.9139836e-18)
(0.0097904163 -0.58497082 1.0069061e-15)
(0.020501241 -0.57877303 1.0878629e-15)
(0.038057074 -0.57672626 4.9136976e-16)
(0.055969755 -0.57000337 1.9305636e-16)
(0.077459631 -0.5712616 2.1264992e-16)
(0.10503031 -0.57173744 7.3890251e-17)
(0.13583669 -0.57189423 4.5011895e-17)
(0.1700607 -0.56756532 -1.9189256e-16)
(0.20507875 -0.55706265 -9.9197079e-17)
(0.23924031 -0.53968561 -7.0703119e-17)
(0.27089848 -0.51558757 -2.0030592e-16)
(0.29873651 -0.48561468 -1.1729403e-16)
(0.32180223 -0.45102043 -1.811413e-16)
(0.33952738 -0.41324343 -2.9211415e-17)
(0.3517348 -0.37371999 -4.8085148e-17)
(0.35860832 -0.33374011 -8.037516e-17)
(0.36061943 -0.29435927 -8.390168e-17)
(0.35842398 -0.25636851 -1.1335955e-16)
(0.35275493 -0.22031079 -2.588948e-17)
(0.34433572 -0.18652251 9.5570719e-17)
(0.33382615 -0.15518049 1.3812519e-16)
(0.32179841 -0.12634262 4.4895126e-17)
(0.30873325 -0.099979019 5.9921046e-17)
(0.29502596 -0.075995431 5.2349691e-17)
(0.28099503 -0.054251495 3.6026657e-17)
(0.26689041 -0.03457626 9.9524719e-17)
(0.25290056 -0.016779619 8.3479869e-17)
(0.23918713 -0.0006592153 6.6563672e-17)
(0.22579631 0.013976888 7.9401012e-17)
(0.21279844 0.027318584 6.2677738e-17)
(0.20021133 0.039535971 9.7826519e-17)
(0.18802149 0.050782236 6.5823088e-17)
(0.17619749 0.061191021 1.5101884e-17)
(0.1646929 0.0708743 2.9389389e-17)
(0.15345101 0.079922222 5.7064868e-17)
(0.1424092 0.088403556 9.544037e-17)
(0.13150267 0.096366623 9.5945606e-17)
(0.12066751 0.10384059 7.368729e-17)
(0.10984332 0.11083696 9.9075175e-17)
(0.098975358 0.11735125 6.6974652e-17)
(0.088016333 0.12336461 -9.4957317e-18)
(0.076927914 0.12884553 -5.4364109e-17)
(0.06568206 0.13375165 -6.7757471e-17)
(0.054262206 0.1380313 -3.5280477e-17)
(0.042664791 0.14162517 -1.7339511e-17)
(0.030899752 0.14446845 8.9140279e-18)
(0.018993075 0.14649356 1.730516e-17)
(0.0069787998 0.14762837 -1.0586146e-17)
(-0.0051229487 0.14780356 -2.475059e-17)
(-0.017209327 0.14694809 -2.9287015e-17)
(-0.02918338 0.14500275 -4.1122582e-17)
(-0.040954268 0.14191557 -3.2297056e-17)
(-0.052402745 0.1376475 -2.2216318e-17)
(-0.063394798 0.13217668 -6.4348927e-18)
(-0.073784011 0.12550261 1.9691116e-17)
(-0.08341496 0.1176503 9.2259666e-18)
(-0.092127886 0.10867395 -2.0291582e-17)
(-0.099764636 0.098659842 -4.0410207e-17)
(-0.10617572 0.087727867 3.4386477e-18)
(-0.1112282 0.076031293 3.4332556e-17)
(-0.11481374 0.063754335 1.4529913e-17)
(-0.11685618 0.051107334 -1.4868374e-17)
(-0.11731718 0.03831968 -3.7989977e-17)
(-0.11620036 0.025631059 3.4787825e-18)
(-0.11355334 0.013281651 3.564866e-17)
(-0.10946167 0.0015001544 2.4497926e-17)
(-0.10404257 -0.0094830407 2.2944759e-17)
(-0.097472469 -0.019494746 3.3623331e-18)
(-0.089942673 -0.028380074 -2.1376784e-18)
(-0.08166155 -0.036025208 1.3767207e-17)
(-0.072847142 -0.042357447 3.214999e-18)
(-0.063717306 -0.047344131 7.445076e-18)
(-0.054482425 -0.05099016 1.2962536e-17)
(-0.045339493 -0.053334231 1.4850482e-18)
(-0.036467266 -0.054444314 1.2373115e-17)
(-0.028023041 -0.054412405 6.3426115e-19)
(-0.020140609 -0.053349841 7.1644036e-18)
(-0.012929081 -0.05138238 1.7266579e-17)
(-0.0064724204 -0.048645623 4.9377057e-18)
(-0.00082863216 -0.0452769 -1.0819112e-18)
(0.0056627725 -0.60682968 8.3909255e-16)
(0.009018962 -0.60176526 6.0333951e-16)
(0.025430374 -0.60743876 3.510746e-16)
(0.042234543 -0.60320517 -1.1800984e-16)
(0.064174339 -0.61374468 -1.0314845e-17)
(0.096371278 -0.621214 6.1181077e-18)
(0.13244287 -0.62834232 2.3096695e-16)
(0.1736552 -0.62844093 2.4264981e-16)
(0.2157101 -0.61980112 2.2072288e-16)
(0.25674976 -0.60187232 2.7756999e-16)
(0.29479688 -0.57508242 2.1784004e-16)
(0.32830345 -0.54066259 3.4806026e-17)
(0.35610966 -0.50030128 4.3183665e-18)
(0.37745037 -0.4559131 -9.6054934e-18)
(0.39199925 -0.40942559 3.9131702e-17)
(0.3998894 -0.3625844 -7.8959442e-17)
(0.40167019 -0.31680848 5.5740573e-17)
(0.39819384 -0.27312376 -7.3511196e-17)
(0.3904624 -0.23217765 -1.5289449e-16)
(0.3794824 -0.19430814 -1.1013976e-16)
(0.36616322 -0.1596305 -1.1849091e-17)
(0.35126914 -0.12811321 4.3037457e-17)
(0.33541335 -0.09963192 5.9581066e-18)
(0.31907435 -0.074003478 3.9408092e-17)
(0.30261828 -0.051007123 1.2673219e-17)
(0.2863192 -0.030399721 1.6455317e-17)
(0.27037645 -0.01192498 7.8764639e-17)
(0.2549479 0.0046852208 7.8258342e-17)
(0.24005946 0.019665399 8.7704824e-17)
(0.22577735 0.033256578 4.0285891e-17)
(0.21209041 0.045665867 5.3013569e-17)
(0.19896293 0.057078073 7.7560464e-17)
(0.1863389 0.06765171 2.8084753e-17)
(0.1741467 0.07751772 3.8140089e-17)
(0.16230496 0.086779871 4.958249e-17)
(0.15072754 0.095515813 4.2808223e-17)
(0.1393276 0.10377864 7.9114266e-17)
(0.12802096 0.11159877 7.6645733e-17)
(0.11672884 0.11898601 1.0057028e-16)
(0.10537998 0.12593163 8.9622697e-17)
(0.093912499 0.13241042 2.3834107e-17)
(0.082275308 0.13838264 3.4077949e-18)
(0.070429441 0.14379601 -2.1133785e-17)
(0.058349122 0.14858752 -1.3549184e-17)
(0.046023494 0.15268506 -1.4648396e-17)
(0.033457842 0.1560096 3.1118829e-17)
(0.020674398 0.15847776 6.1208601e-17)
(0.0077025546 0.16000192 1.212187e-17)
(-0.0054339823 0.16049054 -1.7317175e-17)
(-0.018623686 0.15986116 -1.8562394e-17)
(-0.031768524 0.15803082 -1.5230526e-17)
(-0.044763398 0.15492843 5.1625664e-18)
(-0.057473584 0.1504961 2.2272773e-18)
(-0.06974476 0.14469458 -8.7256967e-18)
(-0.081405437 0.13750875 -2.5762613e-17)
(-0.092270613 0.12895316 1.1782477e-18)
(-0.10214706 0.11907719 1.87171e-17)
(-0.1108404 0.10796941 -2.2093556e-17)
(-0.11816391 0.095760436 -2.3784639e-18)
(-0.12394858 0.08262339 -1.0279424e-17)
(-0.12805387 0.068771624 -2.084535e-17)
(-0.13037788 0.054453114 -1.2790522e-18)
(-0.13086536 0.039941736 -3.5325943e-17)
(-0.12951311 0.025526219 -5.3400426e-18)
(-0.12637426 0.011498295 1.1106592e-17)
(-0.12154498 -0.001866212 -1.3712917e-17)
(-0.11516414 -0.014297651 4.9568655e-18)
(-0.10745341 -0.025575417 -1.1921296e-17)
(-0.098638969 -0.035518209 1.2427349e-18)
(-0.08897455 -0.043994618 2.1664835e-17)
(-0.078722811 -0.050923859 -7.2338769e-18)
(-0.068144217 -0.056274438 -1.3187582e-17)
(-0.057488004 -0.060060281 -7.52814e-18)
(-0.046985185 -0.062335414 -9.833489e-18)
(-0.036843013 -0.063187873 2.0393375e-17)
(-0.027241701 -0.062732876 -5.5788002e-20)
(-0.018332592 -0.061107172 -1.4531528e-17)
(-0.01023728 -0.05846276 8.484732e-19)
(-0.0030437918 -0.054958602 2.459459e-18)
(0.0031802873 -0.05075844 1.7467045e-17)
(0.001715185 -0.61338519 9.7533381e-16)
(-0.0043084144 -0.61233727 8.6167019e-16)
(0.013942461 -0.63211084 4.2554566e-16)
(0.030292902 -0.63154247 7.4493778e-17)
(0.052201364 -0.65629943 -5.8096906e-17)
(0.089915533 -0.67390136 -1.0773466e-16)
(0.13098983 -0.69084741 -4.3560473e-17)
(0.17931616 -0.69694636 3.1923684e-16)
(0.22812222 -0.69095909 1.0454981e-16)
(0.27572736 -0.67274431 5.6473536e-17)
(0.31996012 -0.64314952 3.262688e-16)
(0.35916583 -0.60384248 9.5669114e-17)
(0.3920346 -0.55694075 1.8362641e-16)
(0.41756704 -0.50483893 9.708096e-17)
(0.43516143 -0.45001916 4.8193593e-17)
(0.44472601 -0.39481497 1.0989835e-16)
(0.44672799 -0.34117765 8.5963521e-18)
(0.44212422 -0.2905209 -8.0953672e-19)
(0.43218243 -0.24369084 4.4274388e-18)
(0.41825905 -0.20105 5.9452397e-17)
(0.40161122 -0.1626194 1.3860636e-16)
(0.3832882 -0.128218 9.4349394e-17)
(0.36410273 -0.097564326 5.2459942e-17)
(0.34465428 -0.070335004 4.7722844e-17)
(0.32537189 -0.046192601 8.7541858e-19)
(0.30655557 -0.024796181 -4.1148572e-17)
(0.28842152 -0.0058055447 -5.3049963e-17)
(0.27108294 0.011123506 -3.5988189e-17)
(0.25457577 0.026287039 -1.0774072e-17)
(0.23892989 0.039974242 -7.1169626e-18)
(0.22410321 0.052436585 -3.5576767e-17)
(0.21002939 0.063894536 -3.8449805e-17)
(0.19662034 0.074533723 -3.7533415e-17)
(0.18377281 0.084505082 -1.2865676e-17)
(0.17137517 0.09392613 -1.1519991e-17)
(0.15931289 0.10288287 -5.731601e-17)
(0.14747303 0.11143215 -4.002027e-17)
(0.13574772 0.11960436 -9.205388e-19)
(0.12403689 0.12740607 2.9360902e-18)
(0.11225044 0.13482276 2.0594563e-17)
(0.10030981 0.14182124 -1.8776375e-19)
(0.088149412 0.14835195 -4.1612212e-18)
(0.075717749 0.15435113 -5.3141142e-18)
(0.062978395 0.15974267 -1.7234393e-17)
(0.049911691 0.16443996 -2.2198072e-17)
(0.036516158 0.16834806 2.8422833e-17)
(0.022809421 0.17136489 7.2506035e-17)
(0.0088169332 0.17338391 2.0440329e-17)
(-0.005439128 0.17429595 -1.4328535e-17)
(-0.019836418 0.17399229 -2.6821931e-17)
(-0.034277698 0.17236881 -2.9725413e-17)
(-0.048643789 0.1693298 7.1409378e-18)
(-0.062783363 0.16479317 2.6197136e-17)
(-0.076519661 0.15869664 -5.1168397e-18)
(-0.089652558 0.15100473 -2.3405932e-17)
(-0.10196227 0.1417161 2.7733461e-17)
(-0.11321516 0.13087074 4.1515478e-18)
(-0.1231721 0.11855646 -1.451586e-17)
(-0.13159932 0.10491357 8.8070193e-18)
(-0.13828136 0.09013682 1.0752105e-17)
(-0.14303538 0.074473437 2.3953869e-17)
(-0.14572492 0.058216801 -2.6893276e-17)
(-0.14627095 0.041695526 -4.5446892e-17)
(-0.14465942 0.025259008 -3.5203406e-19)
(-0.14095163 0.0092625939 3.204075e-17)
(-0.13525628 -0.0059545385 7.8572172e-18)
(-0.12774091 -0.020070519 -9.4930831e-18)
(-0.11867439 -0.032812943 -1.5575849e-17)
(-0.10833673 -0.043966756 -1.0592869e-17)
(-0.097036904 -0.05337952 3.5646024e-17)
(-0.085092955 -0.060962613 -6.7314835e-18)
(-0.072817399 -0.066688499 -2.8687822e-17)
(-0.060506047 -0.070584664 -1.4872641e-17)
(-0.048429804 -0.072726069 -1.5418039e-17)
(-0.036828505 -0.073226752 1.5695228e-17)
(-0.025907974 -0.072231426 -1.9668973e-17)
(-0.015838495 -0.069908345 -1.1593642e-17)
(-0.0067517614 -0.066440194 2.3824719e-18)
(0.0012592442 -0.062007125 -2.8187858e-18)
(0.0081117796 -0.056820218 9.22902e-18)
(-0.0010984211 -0.60533049 1.0539385e-15)
(-0.017507982 -0.61207041 9.2081493e-16)
(0.0091567835 -0.65500339 3.5596861e-16)
(0.027470799 -0.65681832 -5.1797848e-17)
(0.048538599 -0.70021196 3.3830098e-17)
(0.092534639 -0.7307223 -6.1651468e-16)
(0.13749315 -0.75975649 -3.1937896e-16)
(0.19208655 -0.77292909 -2.7757206e-16)
(0.24615794 -0.77005248 -3.9440821e-16)
(0.2987826 -0.75172029 -1.7659672e-16)
(0.34779683 -0.71934733 -1.3485433e-16)
(0.39164176 -0.67503606 -9.4755796e-17)
(0.42900781 -0.62123069 -1.1869128e-16)
(0.45871251 -0.56068564 -3.8850088e-17)
(0.47980197 -0.49638549 -9.1859645e-17)
(0.49176304 -0.43132113 -2.7178729e-17)
(0.49472375 -0.36816049 -7.8310164e-17)
(0.48951776 -0.30893865 -1.0159282e-16)
(0.4775533 -0.25489805 -2.9502774e-17)
(0.46053423 -0.20652995 4.0987062e-17)
(0.44015241 -0.16376489 1.7416538e-17)
(0.41786214 -0.12620793 2.916128e-17)
(0.39478168 -0.093331354 3.4920217e-17)
(0.37170173 -0.06459042 -2.8637676e-17)
(0.34914942 -0.039472456 -1.8339727e-17)
(0.32746037 -0.017499633 -6.9959666e-17)
(0.30688999 0.0017948979 -1.4500848e-16)
(0.28743854 0.018806958 -1.2095501e-16)
(0.26919176 0.033936268 -1.1636216e-16)
(0.25211444 0.047520939 -9.1674032e-17)
(0.2361255 0.059861428 -1.4748269e-16)
(0.22111733 0.071216398 -1.7750686e-16)
(0.20696068 0.081800042 -1.4485562e-16)
(0.19351301 0.091783603 -1.4114151e-16)
(0.18062591 0.10129777 -1.2454844e-16)
(0.16815106 0.11043564 -1.5894408e-16)
(0.1559449 0.11925619 -1.5506272e-16)
(0.14387221 0.12778783 -1.019599e-16)
(0.13180872 0.13603194 -9.9158526e-17)
(0.11964303 0.14396621 -4.3997094e-17)
(0.10727797 0.1515476 -1.1653502e-17)
(0.094631645 0.15871493 -1.1733799e-17)
(0.081638422 0.16539122 1.1961539e-18)
(0.068249699 0.17148566 -2.8701418e-17)
(0.054435582 0.17689525 -8.6346976e-18)
(0.040185865 0.18150688 4.684557e-17)
(0.02551141 0.18519899 8.4212752e-17)
(0.010435254 0.18784247 4.974035e-17)
(-0.0050287534 0.18930785 7.8250082e-18)
(-0.020745717 0.18945579 -1.219988e-17)
(-0.036620766 0.18815741 -3.3656679e-17)
(-0.052522275 0.18528664 -2.2028442e-17)
(-0.068281737 0.18073092 1.93151e-17)
(-0.083698217 0.17439788 -7.4988918e-18)
(-0.09853937 0.16622413 -4.8552145e-19)
(-0.11254487 0.15618499 4.2889784e-17)
(-0.12543253 0.14430446 2.0814214e-18)
(-0.13690798 0.1306646 -1.3254338e-17)
(-0.14667791 0.11541315 1.5327133e-17)
(-0.15446681 0.098767631 3.1877744e-17)
(-0.16003587 0.081014482 4.8755898e-17)
(-0.16320231 0.062501761 -1.5837343e-17)
(-0.16385503 0.043625498 -1.4012481e-17)
(-0.16196411 0.024810917 2.7197621e-18)
(-0.15759661 0.0064948998 2.2767072e-17)
(-0.15087328 -0.010904739 4.8501978e-17)
(-0.14200773 -0.026990896 6.2120282e-18)
(-0.13132521 -0.041434993 -2.9568561e-18)
(-0.11917328 -0.053978961 -1.5084673e-17)
(-0.1059321 -0.064445963 1.229453e-17)
(-0.091989375 -0.072740847 -4.7511573e-19)
(-0.077721546 -0.078844692 -6.5341949e-18)
(-0.063480158 -0.082805221 -1.2566085e-18)
(-0.049582522 -0.084726019 -1.4522053e-17)
(-0.036305382 -0.084754948 -9.7036481e-19)
(-0.023882826 -0.08307421 -2.1477601e-17)
(-0.012504278 -0.079890288 4.7496881e-19)
(-0.0023008458 -0.075416394 7.6512954e-18)
(0.0066033126 -0.069874954 2.3882666e-19)
(0.014138231 -0.063512892 -4.9916776e-18)
(-0.0019734784 -0.58602625 7.9775386e-16)
(-0.030271006 -0.60600957 5.7826226e-16)
(0.015163281 -0.68581347 7.5930222e-17)
(0.040225942 -0.68331556 5.1890101e-17)