/*--------------------------------*- C++ -*----------------------------------*\
| =========                 |                                                 |
| \\      /  F ield         | OpenFOAM: The Open Source CFD Toolbox           |
|  \\    /   O peration     | Version:  2106                                  |
|   \\  /    A nd           | Website:  www.openfoam.com                      |
|    \\/     M anipulation  |                                                 |
\*---------------------------------------------------------------------------*/
FoamFile
{
    version     2.0;
    format      ascii;
    arch        "LSB;label=32;scalar=64";
    class       volScalarField;
    location    "0.007";
    object      p_rgh;
}
// * * * * * * * * * * * * * * * * * * * * * * * * * * * * * * * * * * * * * //

dimensions      [1 -1 -2 0 0 0 0];

internalField   nonuniform List<scalar> 
256
(
31.349805
26.538839
17.776306
6.1856628
-6.1653442
-17.795119
-26.575655
-31.423395
-31.423395
-26.575655
-17.795119
-6.1653442
6.1856627
17.776306
26.538839
31.349805
35.213586
29.799299
19.958204
6.9383561
-6.9069864
-19.979714
-29.851482
-35.322251
-35.322251
-29.851483
-19.979714
-6.9069864
6.938356
19.958204
29.799299
35.213586
45.987526
38.897812
26.04681
9.0439887
-8.9635676
-26.054854
-38.921896
-46.089995
-46.089995
-38.921896
-26.054854
-8.9635677
9.0439886
26.04681
38.897812
45.987526
59.255963
50.058435
33.492093
11.601055
-11.443871
-33.520782
-50.215884
-59.627159
-59.627159
-50.215884
-33.520782
-11.443871
11.601055
33.492093
50.058435
59.255963
89.453551
75.482405
50.450853
17.415948
-17.100019
-50.415085
-75.446603
-89.658236
-89.658236
-75.446603
-50.415085
-17.10002
17.415948
50.450853
75.482405
89.453551
115.47302
97.12779
64.626205
22.278931
-21.591431
-64.681106
-97.786163
-116.9393
-116.9393
-97.786163
-64.681107
-21.591431
22.278931
64.626205
97.12779
115.47301
190.67429
160.05304
106.02571
36.329366
-35.953481
-106.36708
-160.40355
-191.86332
-191.86332
-160.40355
-106.36708
-35.953481
36.329366
106.02571
160.05304
190.67429
229.76588
191.3881
125.21775
42.874702
-39.548119
-108.26693
-153.33748
-176.52247
-176.52247
-153.33748
-108.26693
-39.548119
42.874702
125.21775
191.3881
229.76588
-174.77703
-152.05209
-106.67283
-38.59405
42.960262
124.36025
189.17392
227.23022
227.23022
189.17392
124.36025
42.960262
-38.59405
-106.67283
-152.05209
-174.77703
-193.60318
-161.98559
-106.63177
-35.834045
36.953062
107.29907
160.78006
191.62422
191.62422
160.78006
107.29907
36.953062
-35.834045
-106.63177
-161.98559
-193.60318
-110.20282
-92.119367
-60.530441
-19.881786
21.231628
60.987313
90.757387
107.98356
107.98356
90.757388
60.987313
21.231628
-19.881786
-60.530441
-92.119367
-110.20282
-96.672314
-81.396902
-54.041392
-18.166496
19.401759
54.940039
80.600384
95.563905
95.563905
80.600384
54.940039
19.401759
-18.166496
-54.041392
-81.396902
-96.672314
-41.398594
-34.755383
-23.086509
-7.4198712
8.4779177
25.276893
32.269983
39.901141
39.901141
32.269983
25.276893
8.4779177
-7.4198712
-23.086509
-34.755383
-41.398594
-67.456661
-57.005192
-37.977185
-12.917238
13.908289
38.568942
56.338813
66.57637
66.57637
56.338813
38.568942
13.908289
-12.917238
-37.977185
-57.005192
-67.456661
10.383159
8.8132093
5.8593626
2.1367551
-2.0556759
-5.806062
-9.1209503
-10.731044
-10.731044
-9.1209503
-5.806062
-2.0556759
2.1367551
5.8593626
8.8132093
10.383159
-85.584823
-72.470061
-48.454071
-16.918168
16.841505
48.454618
72.395031
85.514825
85.514825
72.395031
48.454618
16.841505
-16.918168
-48.454071
-72.470061
-85.584823
)
;

boundaryField
{
    leftWall
    {
        type            cyclic;
    }
    rightWall
    {
        type            cyclic;
    }
    lowerWall
    {
        type            fixedFluxPressure;
        gradient        uniform 0;
        value           nonuniform List<scalar> 
16
(
31.349805
26.538839
17.776306
6.1856628
-6.1653442
-17.795119
-26.575655
-31.423395
-31.423395
-26.575655
-17.795119
-6.1653442
6.1856627
17.776306
26.538839
31.349805
)
;
    }
    atmosphere
    {
        type            totalPressure;
        rho             rho;
        psi             none;
        gamma           1;
        p0              uniform 0;
        value           nonuniform List<scalar> 
16
(
-0.004275675
-0.034401005
-0.076739269
-0.10572811
0
0
0
0
0
0
0
0
-0.10572811
-0.076739269
-0.034401005
-0.004275675
)
;
    }
    defaultFaces
    {
        type            empty;
    }
}


// ************************************************************************* //
