/*--------------------------------*- C++ -*----------------------------------*\
| =========                 |                                                 |
| \\      /  F ield         | OpenFOAM: The Open Source CFD Toolbox           |
|  \\    /   O peration     | Version:  2106                                  |
|   \\  /    A nd           | Website:  www.openfoam.com                      |
|    \\/     M anipulation  |                                                 |
\*---------------------------------------------------------------------------*/
FoamFile
{
    version     2.0;
    format      ascii;
    arch        "LSB;label=32;scalar=64";
    class       surfaceScalarField;
    location    "0.02";
    object      phi;
}
// * * * * * * * * * * * * * * * * * * * * * * * * * * * * * * * * * * * * * //

dimensions      [0 3 -1 0 0 0 0];

oriented        oriented;

internalField   nonuniform List<scalar> 
480
(
0.0026757788
-0.0026759948
0.0049438311
-0.0022680523
0.0064600193
-0.0015161882
0.0069979305
-0.00053791119
0.0064786599
0.00051927066
0.0049693763
0.0015092836
0.0026937866
0.0022755897
2.3631083e-07
0.0026935503
-0.002693394
0.0026936303
-0.0049691167
0.0022757227
-0.0064784892
0.0015093725
-0.0069979594
0.00051947023
-0.0064601763
-0.00053778311
-0.0049441111
-0.0015160652
-0.0026761622
-0.0022679489
-0.0026759462
0.0031382292
-0.0058144624
0.0057970714
-0.0049268946
0.0075734648
-0.0032925816
0.0082054766
-0.001169923
0.0076032783
0.001121469
0.0058377462
0.0032748158
0.0031669209
0.0049464149
2.6801317e-07
0.0058602032
-0.0031664952
0.0058603935
-0.0058375017
0.0049467292
-0.007603106
0.0032749768
-0.0082055113
0.0011218755
-0.0075736155
-0.0011696789
-0.005797353
-0.0032923277
-0.0031386424
-0.0049266595
-0.0058143502
0.004424792
-0.010239594
0.0081691933
-0.0086712959
0.010664392
-0.0057877799
0.011549698
-0.0020552289
0.010711295
0.0019598717
0.0082329578
0.0057531528
0.0044696541
0.0087097186
4.0824219e-07
0.010329449
-0.0044690413
0.010329843
-0.0082326697
0.0087103576
-0.010711068
0.0057533748
-0.011549772
0.0019605801
-0.010664598
-0.0020548533
-0.008169548
-0.0057873776
-0.0044253643
-0.0086708433
-0.010239375
0.006225701
-0.016465757
0.011480382
-0.013925977
0.014967709
-0.0092751075
0.016206228
-0.0032937477
0.015061487
0.0031046127
0.011607995
0.0092066445
0.0063155422
0.014002172
5.766697e-07
0.016644415
-0.0063147804
0.0166452
-0.01160784
0.014003417
-0.0150614
0.0092069354
-0.016206324
0.0031055039
-0.01496775
-0.0032934274
-0.011480657
-0.0092744702
-0.0062264215
-0.013925079
-0.016465334
0.010316443
-0.02678314
0.019003323
-0.022612856
0.024731389
-0.015003174
0.026733992
-0.005296351
0.024881914
0.0049566907
0.019214234
0.014874325
0.010467714
0.022748692
1.2812996e-06
0.027110847
-0.010466075
0.027112556
-0.019213922
0.022751264
-0.024881826
0.014874839
-0.026733958
0.0049576366
-0.024731601
-0.0052957845
-0.019003992
-0.015002079
-0.010317966
-0.022611105
-0.026782361
0.016139152
-0.042923791
0.029657993
-0.036131697
0.038482665
-0.023827846
0.041523005
-0.0083366909
0.038704214
0.0077754818
0.029962387
0.023616152
0.016353823
0.036357255
2.1353115e-06
0.043462535
-0.016351374
0.043466066
-0.029962445
0.036362334
-0.038705313
0.023617707
-0.041523875
0.0077761987
-0.038481339
-0.0083383204
-0.029658032
-0.023825386
-0.016141309
-0.036127828
-0.04292217
0.025741205
-0.068669541
0.047287595
-0.057678087
0.061219964
-0.037760215
0.065735033
-0.01285176
0.061313114
0.012197401
0.047450924
0.037478342
0.025871654
0.057936526
5.9084024e-06
0.06932828
-0.025864885
0.069336859
-0.047451366
0.057948815
-0.061317293
0.037483635
-0.065727812
0.012186717
-0.06121395
-0.012852182
-0.047289996
-0.037749341
-0.02574869
-0.057669134
-0.068666315
0.02080831
-0.08948272
0.038141164
-0.075010941
0.049134952
-0.048754003
0.052319608
-0.016036415
0.048417155
0.016099854
0.03715856
0.048736936
0.020112523
0.074982563
5.9185687e-06
0.089434884
-0.020106396
0.089449174
-0.037162777
0.075005196
-0.048428005
0.048748862
-0.052317418
0.01607613
-0.04912031
-0.01604929
-0.03813743
-0.048732221
-0.020814711
-0.074991853
-0.089476157
-0.019947671
-0.069530292
-0.036856122
-0.05810249
-0.048034017
-0.037576108
-0.051846647
-0.012223786
-0.048645773
0.012898981
-0.03777304
0.037864203
-0.020608469
0.057817993
-5.9934059e-06
0.068832408
0.020602488
0.068840693
0.037777872
0.057829811
0.048657389
0.037869345
0.051845332
0.012888188
0.048019759
-0.012223717
0.036852693
-0.037565155
0.019954045
-0.058093204
-0.06952687
-0.025881458
-0.043644069
-0.047464337
-0.03651961
-0.061338513
-0.023701932
-0.065756413
-0.0078058859
-0.061234575
0.0083771425
-0.047311809
0.023941438
-0.025753704
0.036259887
-5.8470219e-06
0.043084551
0.025746985
0.043087861
0.047312148
0.036264648
0.061238513
0.023942981
0.065748735
0.0083779658
0.061332548
-0.0078075309
0.047466909
-0.023699515
0.025889298
-0.036515594
-0.043642337
-0.015852195
-0.027790484
-0.029044983
-0.023326822
-0.037505201
-0.015241714
-0.040226596
-0.0050844908
-0.0372836
0.0054341463
-0.028737821
0.015395659
-0.015647226
0.023169292
-1.8600249e-06
0.027439185
0.015645166
0.027440835
0.028737949
0.023171865
0.037284679
0.015396251
0.040227523
0.0054351212
0.037503821
-0.0050838286
0.029044757
-0.015240451
0.015854092
-0.023324929
-0.027789634
-0.010689226
-0.017100051
-0.01963304
-0.014383009
-0.025435253
-0.0094395006
-0.027348584
-0.0031711604
-0.025313424
0.0033989863
-0.019450738
0.0095329731
-0.01056194
0.014280494
-1.4807472e-06
0.016878725
0.010559912
0.016879443
0.019450113
0.014281665
0.025313146
0.0095332174
0.027348407
0.0033998606
0.025435546
-0.0031709684
0.019634034
-0.0094389389
0.010691229
-0.014382124
-0.017099613
-0.0049833823
-0.012116579
-0.0091531027
-0.010213288
-0.011858397
-0.0067342065
-0.012747791
-0.0022817656
-0.011778928
0.0024301233
-0.0090427085
0.0067967532
-0.0049100123
0.010147798
-1.927047e-07
0.011968906
0.004909921
0.011969329
0.0090430402
0.010148545
0.011779103
0.0067971549
0.012747945
0.0024310182
0.011858141
-0.002281164
0.0091528325
-0.0067336308
0.0049834091
-0.0102127
-0.012116293
-0.0050044026
-0.0071115497
-0.009223729
-0.0059939619
-0.012006925
-0.0039510103
-0.012955744
-0.0013329468
-0.011966501
0.0014408801
-0.0091653187
0.0039955709
-0.0049647722
0.0059472515
-6.8285424e-07
0.0070048165
0.004963644
0.0070050021
0.0091646308
0.0059475585
0.011966044
0.0039957416
0.012955785
0.0014412773
0.012007336
-0.0013327146
0.0092244907
-0.0039507859
0.0050055083
-0.005993718
-0.0071114113
-0.00017809109
-0.0069337515
-0.00031459542
-0.0058574576
-0.00038417851
-0.0038814272
-0.00038820243
-0.0013289228
-0.00034065627
0.001393334
-0.00025335685
0.0039082715
-0.00013558935
0.005829484
2.4156842e-07
0.0068689856
0.00013609084
0.0068691528
0.00025379492
0.0058298544
0.0003408737
0.0039086629
0.00038822422
0.0013939268
0.00038393949
-0.0013284299
0.0003140952
-0.0038809416
0.0001774863
-0.0058571091
-0.0069336321
-0.0069042711
-0.012737391
-0.016602589
-0.01792585
-0.016538181
-0.012646145
-0.0068410061
-7.6314635e-07
0.0068396491
0.012645164
0.0165376
0.017925874
0.016603117
0.012738414
0.0069056478
)
;

boundaryField
{
    leftWall
    {
        type            cyclic;
        value           nonuniform List<scalar> 
16
(
2.1599343e-07
2.3839555e-07
3.3992689e-07
4.6165597e-07
9.3922543e-07
1.500094e-06
4.5451414e-06
4.8685165e-06
-4.7572848e-06
-4.765038e-06
-1.3892059e-06
-1.2076976e-06
-8.9697996e-08
-6.2637461e-07
2.9287503e-07
-7.4892786e-07
)
;
    }
    rightWall
    {
        type            cyclic;
        value           nonuniform List<scalar> 
16
(
-2.1599343e-07
-2.3839555e-07
-3.3992689e-07
-4.6165597e-07
-9.3922543e-07
-1.500094e-06
-4.5451414e-06
-4.8685165e-06
4.7572848e-06
4.765038e-06
1.3892059e-06
1.2076976e-06
8.9697996e-08
6.2637461e-07
-2.9287503e-07
7.4892786e-07
)
;
    }
    lowerWall
    {
        type            calculated;
        value           uniform 0;
    }
    atmosphere
    {
        type            calculated;
        value           nonuniform List<scalar> 
16
(
-2.8731463e-05
-2.4337279e-05
-1.6230029e-05
-5.6610001e-06
5.6640067e-06
1.6236048e-05
2.4345021e-05
2.8742617e-05
2.874057e-05
2.4339374e-05
1.6226675e-05
5.6527211e-06
-5.6723988e-06
-1.6238928e-05
-2.4342697e-05
-2.8733237e-05
)
;
    }
    defaultFaces
    {
        type            empty;
        value           nonuniform List<scalar> 0();
    }
}


// ************************************************************************* //
