/*--------------------------------*- C++ -*----------------------------------*\
| =========                 |                                                 |
| \\      /  F ield         | OpenFOAM: The Open Source CFD Toolbox           |
|  \\    /   O peration     | Version:  2106                                  |
|   \\  /    A nd           | Website:  www.openfoam.com                      |
|    \\/     M anipulation  |                                                 |
\*---------------------------------------------------------------------------*/
FoamFile
{
    version     2.0;
    format      ascii;
    arch        "LSB;label=32;scalar=64";
    class       surfaceScalarField;
    location    "0.012";
    object      phi;
}
// * * * * * * * * * * * * * * * * * * * * * * * * * * * * * * * * * * * * * //

dimensions      [0 3 -1 0 0 0 0];

oriented        oriented;

internalField   nonuniform List<scalar> 
8064
(
-5.718534e-05
5.718534e-05
-0.00011392252
5.6737185e-05
-0.0001697628
5.5840275e-05
-0.00022425683
5.4494027e-05
-0.00027695556
5.2698738e-05
-0.00032741119
5.0455625e-05
-0.00037517911
4.7767921e-05
-0.0004198222
4.4643088e-05
-0.00046091387
4.1091678e-05
-0.0004980439
3.7130027e-05
-0.00053082369
3.2779786e-05
-0.00055889111
2.8067424e-05
-0.00058191623
2.3025115e-05
-0.0005996093
1.7693071e-05
-0.00061172073
1.2111435e-05
-0.00061805097
6.3302343e-06
-0.00061845116
4.0019501e-07
-0.00061282608
-5.6250798e-06
-0.0006011415
-1.1684584e-05
-0.00058342344
-1.771806e-05
-0.00055976231
-2.3661133e-05
-0.0005303144
-2.9447902e-05
-0.00049530447
-3.5009934e-05
-0.00045502666
-4.0277812e-05
-0.0004098442
-4.5182462e-05
-0.0003601885
-4.9655695e-05
-0.00030655662
-5.3631881e-05
-0.00024950636
-5.7050256e-05
-0.00018965011
-5.9856253e-05
-0.00012764613
-6.2003978e-05
-6.4189447e-05
-6.3456685e-05
2.5032384e-14
-6.4189447e-05
6.4189447e-05
-6.4189447e-05
0.00012764613
-6.3456685e-05
0.00018965011
-6.2003978e-05
0.00024950636
-5.9856253e-05
0.00030655662
-5.7050256e-05
0.0003601885
-5.3631881e-05
0.0004098442
-4.9655695e-05
0.00045502666
-4.5182462e-05
0.00049530447
-4.0277812e-05
0.0005303144
-3.5009934e-05
0.00055976231
-2.9447902e-05
0.00058342344
-2.3661133e-05
0.0006011415
-1.771806e-05
0.00061282608
-1.1684583e-05
0.00061845116
-5.6250798e-06
0.00061805097
4.0019503e-07
0.00061172073
6.3302343e-06
0.0005996093
1.2111435e-05
0.00058191623
1.7693071e-05
0.00055889111
2.3025115e-05
0.00053082369
2.8067424e-05
0.0004980439
3.2779786e-05
0.00046091387
3.7130027e-05
0.0004198222
4.1091678e-05
0.00037517911
4.4643088e-05
0.00032741119
4.7767921e-05
0.00027695556
5.0455625e-05
0.00022425683
5.2698738e-05
0.0001697628
5.4494027e-05
0.00011392252
5.5840274e-05
5.718534e-05
5.6737184e-05
5.718534e-05
-5.6309067e-05
0.00011349441
-0.0001121827
0.00011261081
-0.00016718469
0.00011084227
-0.00022087778
0.00010818712
-0.00027282301
0.00010464397
-0.00032258175
0.00010021436
-0.00036971794
9.4904116e-05
-0.0004137999
8.8725046e-05
-0.00045440686
8.1698634e-05
-0.00049113232
7.385549e-05
-0.00052358838
6.5235843e-05
-0.00055141541
5.5894459e-05
-0.00057428519
4.5894891e-05
-0.00059190497
3.5312848e-05
-0.00060402679
2.4233258e-05
-0.00061044726
1.2750702e-05
-0.00061101301
9.6594384e-07
-0.00060562762
-1.1010467e-05
-0.00059425018
-2.3062017e-05
-0.00057690027
-3.5067972e-05
-0.0005536607
-4.6900708e-05
-0.0005246802
-5.8428401e-05
-0.00049017513
-6.9514999e-05
-0.00045043095
-8.0022e-05
-0.0004058033
-8.9810112e-05
-0.00035671639
-9.8742605e-05
-0.00030366121
-0.00010668706
-0.00024719108
-0.00011352038
-0.00018791531
-0.00011913203
-0.00012649096
-0.00012342832
-6.3612342e-05
-0.00012633531
2.428698e-14
-0.00012780179
6.3612342e-05
-0.00012780179
0.00012649096
-0.00012633531
0.00018791531
-0.00012342832
0.00024719108
-0.00011913203
0.00030366121
-0.00011352038
0.00035671639
-0.00010668706
0.0004058033
-9.8742605e-05
0.00045043095
-8.9810112e-05
0.00049017513
-8.0022e-05
0.0005246802
-6.9514999e-05
0.0005536607
-5.8428401e-05
0.00057690027
-4.6900708e-05
0.00059425018
-3.5067972e-05
0.00060562762
-2.3062017e-05
0.00061101301
-1.1010467e-05
0.00061044726
9.6594388e-07
0.00060402679
1.2750702e-05
0.00059190497
2.4233258e-05
0.00057428519
3.5312848e-05
0.00055141541
4.5894891e-05
0.00052358838
5.5894459e-05
0.00049113232
6.5235843e-05
0.00045440686
7.385549e-05
0.0004137999
8.1698634e-05
0.00036971794
8.8725046e-05
0.00032258175
9.4904116e-05
0.00027282301
0.00010021436
0.00022087778
0.00010464397
0.00016718469
0.00010818712
0.0001121827
0.00011084227
5.6309067e-05
0.00011261081
0.00011349441
-5.4425042e-05
0.00016791945
-0.00010843962
0.00016662539
-0.0001616321
0.00016403475
-0.00021358817
0.00016014319
-0.00026389032
0.00015494612
-0.00031211856
0.0001484426
-0.0003578527
0.00014063826
-0.00040067571
0.00013154805
-0.00044017726
0.00012120018
-0.00047595978
0.00010963802
-0.00050764357
9.6919628e-05
-0.00053487305
8.3123943e-05
-0.00055732197
6.8343812e-05
-0.00057470118
5.2692054e-05
-0.00058675959
3.6291672e-05
-0.00059329269
1.9283803e-05
-0.00059414524
1.8184955e-06
-0.00058921092
-1.5944793e-05
-0.00057844059
-3.3832349e-05
-0.00056184311
-5.1665443e-05
-0.00053948778
-6.9256042e-05
-0.0005115079
-8.6408277e-05
-0.0004781043
-0.0001029186
-0.00043954559
-0.00011858072
-0.000396171
-0.0001331847
-0.00034838926
-0.00014652434
-0.00029667846
-0.00015839786
-0.00024158034
-0.0001686185
-0.00018369506
-0.00017701731
-0.00012367213
-0.00018345125
-6.2201572e-05
-0.00018780587
2.2344567e-14
-0.00019000336
6.2201572e-05
-0.00019000336
0.00012367213
-0.00018780587
0.00018369506
-0.00018345125
0.00024158034
-0.00017701731
0.00029667846
-0.0001686185
0.00034838926
-0.00015839786
0.000396171
-0.00014652434
0.00043954559
-0.0001331847
0.0004781043
-0.00011858072
0.00051150791
-0.0001029186
0.00053948778
-8.6408277e-05
0.00056184312
-6.9256042e-05
0.00057844059
-5.1665443e-05
0.00058921092
-3.3832349e-05
0.00059414524
-1.5944793e-05
0.00059329269
1.8184956e-06
0.00058675959
1.9283803e-05
0.00057470118
3.6291672e-05
0.00055732197
5.2692054e-05
0.00053487305
6.8343812e-05
0.00050764357
8.3123943e-05
0.00047595978
9.6919628e-05
0.00044017726
0.00010963802
0.00040067571
0.00012120018
0.0003578527
0.00013154805
0.00031211856
0.00014063826
0.00026389032
0.0001484426
0.00021358817
0.00015494612
0.0001616321
0.00016014319
0.00010843962
0.00016403475
5.4425042e-05
0.00016662539
0.00016791945
-5.1465613e-05
0.00021938506
-0.00010255937
0.00021771915
-0.0001529061
0.00021438148
-0.00020212718
0.00020936427
-0.000249837
0.00020265593
-0.00029564501
0.00019425062
-0.000339157
0.00018415025
-0.00037997738
0.00017236843
-0.0004177128
0.0001589356
-0.00045198112
0.00014390634
-0.0004824122
0.00012735071
-0.00050866091
0.00010937265
-0.00053040552
9.0088424e-05
-0.00054735952
6.9646053e-05
-0.00055927606
4.8208209e-05
-0.00056594564
2.5953379e-05
-0.00056720625
3.0791084e-06
-0.00056294601
-2.0205029e-05
-0.00055310218
-4.3676178e-05
-0.00053766564
-6.7101988e-05
-0.00051668793
-9.0233749e-05
-0.00049027899
-0.00011281722
-0.00045861486
-0.00013458273
-0.00042193947
-0.0001552561
-0.0003805649
-0.00017455928
-0.00033487788
-0.00019221136
-0.00028533256
-0.00020794318
-0.00023245254
-0.00022149852
-0.00017682189
-0.00023264795
-0.00011907836
-0.00024119479
-5.9901281e-05
-0.00024698295
2.3259819e-14
-0.00024990464
5.9901281e-05
-0.00024990464
0.00011907836
-0.00024698295
0.00017682189
-0.00024119479
0.00023245254
-0.00023264795
0.00028533256
-0.00022149852
0.00033487788
-0.00020794318
0.0003805649
-0.00019221136
0.00042193947
-0.00017455928
0.00045861486
-0.0001552561
0.00049027899
-0.00013458273
0.00051668793
-0.00011281722
0.00053766564
-9.0233749e-05
0.00055310218
-6.7101988e-05
0.00056294601
-4.3676178e-05
0.00056720625
-2.0205029e-05
0.00056594564
3.0791085e-06
0.00055927606
2.5953379e-05
0.00054735952
4.8208209e-05
0.00053040552
6.9646053e-05
0.00050866091
9.0088424e-05
0.0004824122
0.00010937265
0.00045198112
0.00012735071
0.0004177128
0.00014390634
0.00037997738
0.0001589356
0.000339157
0.00017236843
0.00029564501
0.00018415025
0.000249837
0.00019425062
0.00020212718
0.00020265593
0.0001529061
0.00020936427
0.00010255937
0.00021438148
5.1465613e-05
0.00021771915
0.00021938506
-4.7220694e-05
0.00026660576
-9.4122189e-05
0.00026462064
-0.00014038374
0.00026064302
-0.00018567444
0.00025465497
-0.00022965651
0.00024663801
-0.00027197973
0.00023657384
-0.00031228326
0.00022445377
-0.00035020557
0.00021029074
-0.00038537773
0.00019410776
-0.00041743669
0.0001759653
-0.00044603322
0.00015594724
-0.00047083041
0.00013416984
-0.00049151941
0.00011077742
-0.00050781872
8.5945362e-05
-0.00051948028
5.9869766e-05
-0.0005262977
3.2770802e-05
-0.00052810425
4.8856563e-06
-0.00052477281
-2.3536461e-05
-0.00051622599
-5.2223006e-05
-0.00050243291
-8.0895068e-05
-0.00048341785
-0.0001092488
-0.0004592618
-0.00013697327
-0.00043010427
-0.00016374027
-0.00039615137
-0.000189209
-0.00035768218
-0.00021302846
-0.00031504399
-0.00023484955
-0.00026866242
-0.00025432476
-0.00021903062
-0.00027113031
-0.00016670924
-0.00028496933
-0.000112316
-0.00029558803
-5.6514091e-05
-0.00030278485
2.4382375e-14
-0.00030641873
5.6514091e-05
-0.00030641873
0.000112316
-0.00030278485
0.00016670924
-0.00029558803
0.00021903062
-0.00028496933
0.00026866242
-0.00027113031
0.00031504399
-0.00025432476
0.00035768218
-0.00023484955
0.00039615137
-0.00021302846
0.00043010427
-0.000189209
0.0004592618
-0.00016374027
0.00048341785
-0.00013697327
0.00050243291
-0.0001092488
0.00051622599
-8.0895067e-05
0.00052477281
-5.2223006e-05
0.00052810425
-2.3536461e-05
0.0005262977
4.8856564e-06
0.00051948028
3.2770802e-05
0.00050781872
5.9869766e-05
0.00049151941
8.5945362e-05
0.00047083041
0.00011077742
0.00044603322
0.00013416984
0.00041743669
0.00015594724
0.00038537773
0.0001759653
0.00035020557
0.00019410776
0.00031228326
0.00021029074
0.00027197973
0.00022445377
0.00022965651
0.00023657384
0.00018567444
0.00024663801
0.00014038374
0.00025465497
9.4122189e-05
0.00026064302
4.7220694e-05
0.00026462064
0.00026660576
-4.1347235e-05
0.00030795299
-8.2450287e-05
0.0003057237
-0.0001230558
0.00030124853
-0.00016290274
0.00029450192
-0.00020171499
0.00028545026
-0.00023919755
0.0002740564
-0.00027504013
0.00026029635
-0.00030892191
0.00024417252
-0.00034050872
0.00022569457
-0.00036947154
0.00020492812
-0.00039547634
0.00018195203
-0.000418209
0.0001569025
-0.00043737834
0.00012994676
-0.00045270847
0.00010127549
-0.00046395713
7.1118426e-05
-0.00047091745
3.9731128e-05
-0.00047341722
7.3854247e-06
-0.00047131853
-2.5635151e-05
-0.00046452426
-5.9017275e-05
-0.00045297372
-9.2445609e-05
-0.00043665768
-0.00012556484
-0.0004156145
-0.00015801645
-0.00038993667
-0.0001894181
-0.00035978101
-0.00021936466
-0.00032537403
-0.00024743544
-0.00028701503
-0.00027320855
-0.00024508244
-0.00029625734
-0.00020003177
-0.00031618098
-0.00015238625
-0.00033261485
-0.00010273402
-0.00034524026
-5.171361e-05
-0.00035380526
2.5827e-14
-0.00035813234
5.171361e-05
-0.00035813234
0.00010273402
-0.00035380526
0.00015238625
-0.00034524026
0.00020003177
-0.00033261485
0.00024508244
-0.00031618098
0.00028701503
-0.00029625734
0.00032537403
-0.00027320855
0.00035978101
-0.00024743544
0.00038993667
-0.00021936466
0.0004156145
-0.0001894181
0.00043665768
-0.00015801645
0.00045297372
-0.00012556484
0.00046452426
-9.2445609e-05
0.00047131853
-5.9017275e-05
0.00047341722
-2.5635151e-05
0.00047091745
7.3854248e-06
0.00046395713
3.9731128e-05
0.00045270847
7.1118426e-05
0.00043737834
0.00010127549
0.000418209
0.00012994676
0.00039547634
0.0001569025
0.00036947154
0.00018195203
0.00034050872
0.00020492812
0.00030892191
0.00022569457
0.00027504012
0.00024417252
0.00023919755
0.00026029635
0.00020171499
0.0002740564
0.00016290274
0.00028545026
0.0001230558
0.00029450192
8.2450287e-05
0.00030124853
4.1347235e-05
0.0003057237
0.00030795299
-3.3393831e-05
0.00034134682
-6.6638696e-05
0.00033896856
-9.9580991e-05
0.00033419083
-0.00013204246
0.00032696338
-0.00016383355
0.00031724135
-0.00019474282
0.00030496568
-0.00022451173
0.00029006525
-0.00025288451
0.0002725453
-0.00027956886
0.00025237892
-0.00030427763
0.0002296369
-0.00032671483
0.00020438923
-0.00034658541
0.00017677308
-0.00036361377
0.00014697512
-0.00037754517
0.00011520689
-0.00038815221
8.1725473e-05
-0.00039522893
4.6807844e-05
-0.00039859581
1.0752301e-05
-0.00039809784
-2.6133117e-05
-0.00039362338
-6.3491733e-05
-0.00038506759
-0.0001010014
-0.00037238207
-0.00013825037
-0.00035554674
-0.00017485177
-0.00033459534
-0.00021036949
-0.00030961641
-0.0002443436
-0.00028076517
-0.00027628668
-0.00024828051
-0.00030569321
-0.00021247124
-0.00033206661
-0.00017373833
-0.00035491389
-0.00013255244
-0.00037380075
-8.9459825e-05
-0.00038833288
-4.506138e-05
-0.00039820371
2.6046303e-14
-0.00040319372
4.506138e-05
-0.00040319372
8.9459825e-05
-0.00039820371
0.00013255244
-0.00038833288
0.00017373833
-0.00037380075
0.00021247124
-0.00035491389
0.00024828051
-0.00033206661
0.00028076517
-0.00030569321
0.00030961641
-0.00027628668
0.00033459534
-0.0002443436
0.00035554674
-0.00021036949
0.00037238207
-0.00017485177
0.00038506759
-0.00013825037
0.00039362338
-0.0001010014
0.00039809784
-6.3491733e-05
0.00039859581
-2.6133117e-05
0.00039522893
1.0752301e-05
0.00038815221
4.6807844e-05
0.00037754517
8.1725473e-05
0.00036361377
0.00011520689
0.00034658541
0.00014697512
0.00032671483
0.00017677308
0.00030427763
0.00020438923
0.00027956886
0.0002296369
0.00025288451
0.00025237892
0.00022451173
0.0002725453
0.00019474282
0.00029006525
0.00016383355
0.00030496568
0.00013204246
0.00031724135
9.9580991e-05
0.00032696338
6.6638696e-05
0.00033419083
3.3393831e-05
0.00033896856
0.00034134682
-2.2815604e-05
0.00036416242
-4.5616956e-05
0.00036176991
-6.8352721e-05
0.00035692659
-9.0992466e-05
0.00034960312
-0.00011343666
0.00033968555
-0.00013556763
0.00032709664
-0.00015723
0.00031172762
-0.00017824119
0.0002935565
-0.00019835039
0.00027248812
-0.00021733574
0.00024862225
-0.00023495136
0.00022200485
-0.00025093874
0.00019276046
-0.0002650412
0.00016107758
-0.00027702624
0.00012719193
-0.00028667838
9.1377619e-05
-0.0002938027
5.3932158e-05
-0.0002982223
1.5171907e-05
-0.00029977133
-2.4584091e-05
-0.00029829956
-6.4963502e-05
-0.00029367035
-0.00010563062
-0.00028577454
-0.00014614617
-0.00027452377
-0.00018610254
-0.00025986043
-0.00022503284
-0.00024180677
-0.00026239726
-0.00022041674
-0.00029767672
-0.00019583316
-0.00033027679
-0.00016828463
-0.00035961514
-0.00013808513
-0.00038511339
-0.00010564548
-0.00040624039
-7.1444573e-05
-0.00042253378
-3.60324e-05
-0.00043361588
2.3843312e-14
-0.00043922612
3.60324e-05
-0.00043922612
7.1444573e-05
-0.00043361588
0.00010564548
-0.00042253378
0.00013808513
-0.00040624039
0.00016828463
-0.00038511339
0.00019583316
-0.00035961514
0.00022041674
-0.00033027679
0.00024180677
-0.00029767672
0.00025986043
-0.00026239726
0.00027452377
-0.00022503284
0.00028577454
-0.00018610254
0.00029367035
-0.00014614617
0.00029829956
-0.00010563062
0.00029977133
-6.4963502e-05
0.0002982223
-2.4584091e-05
0.0002938027
1.5171907e-05
0.00028667838
5.3932158e-05
0.00027702624
9.1377619e-05
0.0002650412
0.00012719193
0.00025093874
0.00016107758
0.00023495136
0.00019276046
0.00021733574
0.00022200485
0.00019835039
0.00024862225
0.00017824119
0.00027248812
0.00015723
0.0002935565
0.00013556763
0.00031172762
0.00011343666
0.00032709664
9.0992466e-05
0.00033968555
6.8352721e-05
0.00034960312
4.5616956e-05
0.00035692659
2.2815604e-05
0.00036176991
0.00036416242
-9.0249392e-06
0.00037318736
-1.8187929e-05
0.0003709329
-2.7640272e-05
0.00036637894
-3.7454149e-05
0.000359417
-4.7691704e-05
0.0003499231
-5.8344433e-05
0.00033774937
-6.941305e-05
0.00032279624
-8.0732061e-05
0.00030487551
-9.2256337e-05
0.0002840124
-0.00010373718
0.0002601031
-0.00011498611
0.00023325378
-0.00012580048
0.00020357483
-0.00013597519
0.00017125229
-0.00014530897
0.00013652571
-0.00015360704
9.9675687e-05
-0.00016068476
6.1009882e-05
-0.00016636704
2.085418e-05
-0.00017047677
-2.0474356e-05
-0.00017282204
-6.2618228e-05
-0.00017325599
-0.00010519667
-0.00017154631
-0.00014785585
-0.00016756443
-0.00019008442
-0.00016113104
-0.00023146622
-0.00015215688
-0.00027137141
-0.00014054015
-0.00030929345
-0.00012636048
-0.00034445646
-0.00010972023
-0.00037625539
-9.0817206e-05
-0.00040401641
-6.9958057e-05
-0.00042709954
-4.7543998e-05
-0.00044494784
-2.4048183e-05
-0.0004571117
1.8773307e-14
-0.00046327431
2.4048183e-05
-0.00046327431
4.7543998e-05
-0.0004571117
6.9958057e-05
-0.00044494784
9.0817206e-05
-0.00042709954
0.00010972023
-0.00040401641
0.00012636048
-0.00037625539
0.00014054015
-0.00034445646
0.00015215688
-0.00030929345
0.00016113104
-0.00027137141
0.00016756443
-0.00023146622
0.00017154631
-0.00019008442
0.00017325599
-0.00014785585
0.00017282204
-0.00010519667
0.00017047677
-6.2618228e-05
0.00016636704
-2.0474356e-05
0.00016068476
2.085418e-05
0.00015360704
6.1009882e-05
0.00014530897
9.9675687e-05
0.00013597519
0.00013652571
0.00012580048
0.00017125229
0.00011498611
0.00020357483
0.00010373718
0.00023325378
9.2256337e-05
0.0002601031
8.0732061e-05
0.0002840124
6.941305e-05
0.00030487551
5.8344433e-05
0.00032279624
4.7691704e-05
0.00033774937
3.7454149e-05
0.0003499231
2.7640272e-05
0.000359417
1.8187929e-05
0.00036637894
9.0249392e-06
0.0003709329
0.00037318736
8.5288936e-06
0.00036465847
1.6702729e-05
0.00036275907
2.4203423e-05
0.00035887824
3.0730886e-05
0.00035288954
3.6050202e-05
0.00034460379
3.9990485e-05
0.00033380909
4.2481439e-05
0.00032030528
4.3457747e-05
0.0003038992
4.3002808e-05
0.00028446734
4.1175284e-05
0.00026193062
3.8113567e-05
0.0002363155
3.3969043e-05
0.00020771935
2.8906383e-05
0.00017631495
2.3089833e-05
0.00014234226
1.6680293e-05
0.00010608523
9.83812e-06
6.7852055e-05
2.7337135e-06
2.7958586e-05
-4.4313543e-06
-1.3309288e-05
-1.1499861e-05
-5.5549721e-05
-1.8235979e-05
-9.8460557e-05
-2.4402252e-05
-0.00014168958
-2.9632963e-05
-0.00018485371
-3.3724189e-05
-0.000227375
-3.6320822e-05
-0.00026877478
-3.7350869e-05
-0.0003082634
-3.657056e-05
-0.00034523677
-3.3973704e-05
-0.00037885224
-2.9636718e-05
-0.0004083534
-2.3748961e-05
-0.0004329873
-1.6587906e-05
-0.0004521089
-8.5273375e-06
-0.00046517227
1.5906266e-14
-0.00047180164
8.5273375e-06
-0.00047180164
1.6587906e-05
-0.00046517227
2.3748961e-05
-0.0004521089
2.9636718e-05
-0.0004329873
3.3973704e-05
-0.0004083534
3.657056e-05
-0.00037885224
3.7350869e-05
-0.00034523677
3.6320822e-05
-0.0003082634
3.3724189e-05
-0.00026877478
2.9632963e-05
-0.000227375
2.4402252e-05
-0.00018485371
1.8235979e-05
-0.00014168958
1.1499861e-05
-9.8460557e-05
4.4313543e-06
-5.5549721e-05
-2.7337135e-06
-1.3309288e-05
-9.8381201e-06
2.7958587e-05
-1.6680293e-05
6.7852055e-05
-2.3089833e-05
0.00010608523
-2.8906383e-05
0.00014234226
-3.3969043e-05
0.00017631495
-3.8113567e-05
0.00020771935
-4.1175284e-05
0.0002363155
-4.3002808e-05
0.00026193062
-4.3457747e-05
0.00028446734
-4.2481439e-05
0.0003038992
-3.9990485e-05
0.00032030528
-3.6050202e-05
0.00033380909
-3.0730886e-05
0.00034460379
-2.4203423e-05
0.00035288954
-1.6702729e-05
0.00035887824
-8.5288936e-06
0.00036275907
0.00036465847
3.0393934e-05
0.00033426454
6.0176046e-05
0.00033297696
8.877157e-05
0.00033028272
0.00011564575
0.00032601536
0.00014033995
0.00031990959
0.00016250256
0.00031164648
0.00018184884
0.000300959
0.00019821441
0.00028753363
0.00021150628
0.00027117547
0.00022172099
0.00025171591
0.00022890025
0.00022913624
0.00023313032
0.00020348928
0.0002345159
0.00017492937
0.00023317067
0.00014368749
0.00022921193
0.00011004396
0.00022276122
7.4302764e-05
0.0002139561
3.6763708e-05
0.00020298213
-2.3353224e-06
0.00019007592
-4.2643512e-05
0.00017555493
-8.3939558e-05
0.00015976191
-0.00012589656
0.00014308632
-0.00016817812
0.00012599639
-0.00021028507
0.00010889055
-0.00025166894
9.2214162e-05
-0.00029158702
7.6253132e-05
-0.00032927574
6.1245619e-05
-0.00036384473
4.7293533e-05
-0.00039440132
3.437642e-05
-0.00042007019
2.2359158e-05
-0.00044009164
1.1005615e-05
-0.00045381872
1.7320757e-14
-0.00046079603
-1.1005615e-05
-0.00046079603
-2.2359158e-05
-0.00045381872
-3.437642e-05
-0.00044009164
-4.7293533e-05
-0.00042007019
-6.1245619e-05
-0.00039440132
-7.6253132e-05
-0.00036384473
-9.2214162e-05
-0.00032927574
-0.00010889055
-0.00029158702
-0.00012599639
-0.00025166894
-0.00014308632
-0.00021028507
-0.00015976191
-0.00016817812
-0.00017555493
-0.00012589656
-0.00019007592
-8.3939558e-05
-0.00020298213
-4.2643512e-05
-0.0002139561
-2.3353223e-06
-0.00022276122
3.6763708e-05
-0.00022921193
7.4302764e-05
-0.00023317067
0.00011004396
-0.0002345159
0.00014368749
-0.00023313032
0.00017492937
-0.00022890025
0.00020348928
-0.00022172099
0.00022913624
-0.00021150628
0.00025171591
-0.00019821441
0.00027117547
-0.00018184884
0.00028753363
-0.00016250256
0.000300959
-0.00014033995
0.00031164648
-0.00011564575
0.00031990959
-8.877157e-05
0.00032601536
-6.0176046e-05
0.00033028272
-3.0393934e-05
0.00033297696
0.00033426454
5.6872917e-05
0.00027739162
0.00011285663
0.00027699324
0.00016699863
0.00027614072
0.00021851158
0.00027450241
0.00026668728
0.00027173388
0.00031090781
0.00026742595
0.00035069404
0.00026117278
0.0003856708
0.00025255687
0.00041564251
0.00024120376
0.00044045941
0.000226899
0.00046008427
0.00020951138
0.00047452441
0.00018904914
0.00048382005
0.00016563374
0.00048803011
0.00013947743
0.00048721664
0.00011085744
0.00048145269
8.0066716e-05
0.00047084315
4.7373249e-05
0.0004555212
1.298662e-05
0.0004358018
-2.2924106e-05
0.00041200835
-6.0146106e-05
0.00038460664
-9.849486e-05
0.00035414054
-0.00013771202
0.00032124888
-0.00017739341
0.00028657104
-0.00021699109
0.00025076151
-0.00025577749
0.00021436995
-0.00029288418
0.00017786013
-0.00032733491
0.00014153337
-0.00035807455
0.00010559933
-0.00038413615
7.009523e-05
-0.00040458753
3.4946186e-05
-0.00041866968
2.5248205e-14
-0.00042584984
-3.4946186e-05
-0.00042584984
-7.009523e-05
-0.00041866968
-0.00010559933
-0.00040458753
-0.00014153337
-0.00038413615
-0.00017786013
-0.00035807455
-0.00021436995
-0.00032733491
-0.00025076151
-0.00029288418
-0.00028657104
-0.00025577749
-0.00032124888
-0.00021699109
-0.00035414054
-0.00017739341
-0.00038460664
-0.00013771202
-0.00041200835
-9.849486e-05
-0.0004358018
-6.0146106e-05
-0.0004555212
-2.2924106e-05
-0.00047084315
1.298662e-05
-0.00048145269
4.7373249e-05
-0.00048721664
8.0066716e-05
-0.00048803011
0.00011085744
-0.00048382005
0.00013947743
-0.00047452441
0.00016563374
-0.00046008427
0.00018904914
-0.00044045941
0.00020951138
-0.00041564251
0.000226899
-0.0003856708
0.00024120376
-0.00035069404
0.00025255687
-0.00031090781
0.00026117278
-0.00026668728
0.00026742595
-0.00021851158
0.00027173388
-0.00016699863
0.00027450241
-0.00011285663
0.00027614072
-5.6872917e-05
0.00027699324
0.00027739162
8.8004614e-05
0.00018938701
0.00017471351
0.00019028434
0.00025891339
0.00019194084
0.0003393772
0.00019403859
0.00041508459
0.00019602649
0.00048519821
0.00019731234
0.0005489308
0.00019744019
0.00060575366
0.000195734
0.00065525481
0.00019170261
0.00069719462
0.00018495919
0.00073142767
0.00017527833
0.00075788784
0.00016258897
0.00077654471
0.00014697686
0.00078740704
0.00012861511
0.00079047045
0.00010779402
0.00078573941
8.4797756e-05
0.00077325575
5.9856912e-05
0.00075313475
3.3107622e-05
0.00072560776
4.6028825e-06
0.00069112265
-2.5660991e-05
0.00065024622
-5.7618437e-05
0.00060367965
-9.1145449e-05
0.0005522574
-0.00012597115
0.00049690851
-0.0001616422
0.00043854821
-0.00019741719
0.00037803256
-0.00023236854
0.00031606296
-0.00026536531
0.00025326306
-0.00029527464
0.00019005189
-0.00032092498
0.00012670662
-0.00034124227
6.3343034e-05
-0.00035530609
3.1688449e-14
-0.00036250681
-6.3343034e-05
-0.00036250681
-0.00012670662
-0.00035530609
-0.00019005189
-0.00034124227
-0.00025326306
-0.00032092498
-0.00031606296
-0.00029527464
-0.00037803256
-0.00026536531
-0.00043854821
-0.00023236854
-0.00049690851
-0.00019741719
-0.0005522574
-0.0001616422
-0.00060367965
-0.00012597115
-0.00065024622
-9.1145449e-05
-0.00069112265
-5.7618437e-05
-0.00072560776
-2.5660991e-05
-0.00075313475
4.6028825e-06
-0.00077325575
3.3107623e-05
-0.00078573941
5.9856912e-05
-0.00079047045
8.4797756e-05
-0.00078740704
0.00010779402
-0.00077654471
0.00012861511
-0.00075788784
0.00014697686
-0.00073142767
0.00016258897
-0.00069719462
0.00017527833
-0.00065525481
0.00018495919
-0.00060575366
0.00019170261
-0.0005489308
0.000195734
-0.00048519821
0.00019744019
-0.0004150846
0.00019731234
-0.0003393772
0.00019602649
-0.00025891339
0.00019403859
-0.00017471351
0.00019194084
-8.8004614e-05
0.00019028434
0.00018938701
0.00012325086
6.6136145e-05
0.00024483393
6.870128e-05
0.00036306172
7.371305e-05
0.00047634841
8.0751899e-05
0.0005832473
8.9127604e-05
0.00068262067
9.7938971e-05
0.00077342589
0.00010663498
0.0008548704
0.00011428948
0.00092638093
0.00012019209
0.00098761302
0.0001237271
0.0010383199
0.00012457149
0.0010783639
0.00012254495
0.0011076683
0.00011767249
0.0011261941
0.00011008922
0.0011338627
0.00010012546
0.0011305942
8.8066269e-05
0.0011163329
7.4118168e-05
0.0010911174
5.83232e-05
0.0010551396
4.0580666e-05
0.0010087869
2.0691669e-05
0.00095288604
-1.7175637e-06
0.00088816782
-2.6427231e-05
0.00081580484
-5.3608174e-05
0.00073699884
-8.2836203e-05
0.00065300753
-0.00011342588
0.00056499335
-0.00014435436
0.00047402697
-0.00017439893
0.00038097826
-0.00020222594
0.00028659566
-0.00022654238
0.00019144668
-0.00024609328
9.5814767e-05
-0.00025967419
2.7942764e-14
-0.00026669204
-9.5814767e-05
-0.00026669204
-0.00019144668
-0.00025967419
-0.00028659566
-0.00024609328
-0.00038097826
-0.00022654238
-0.00047402697
-0.00020222594
-0.00056499335
-0.00017439893
-0.00065300753
-0.00014435436
-0.00073699884
-0.00011342588
-0.00081580484
-8.2836203e-05
-0.00088816782
-5.3608174e-05
-0.00095288604
-2.6427231e-05
-0.0010087869
-1.7175637e-06
-0.0010551396
2.0691669e-05
-0.0010911174
4.0580666e-05
-0.0011163329
5.83232e-05
-0.0011305942
7.4118168e-05
-0.0011338627
8.8066269e-05
-0.0011261941
0.00010012546
-0.0011076683
0.00011008922
-0.0010783639
0.00011767249
-0.0010383199
0.00012254495
-0.00098761302
0.00012457149
-0.00092638093
0.0001237271
-0.0008548704
0.00012019209
-0.00077342589
0.00011428948
-0.00068262067
0.00010663498
-0.0005832473
9.7938971e-05
-0.00047634841
8.9127604e-05
-0.00036306172
8.0751899e-05
-0.00024483393
7.371305e-05
-0.00012325086
6.870128e-05
6.6136145e-05
0.00016164482
-9.5508678e-05
0.00032104313
-9.0697029e-05
0.00047610063
-8.1344453e-05
0.00062487944
-6.8026909e-05
0.00076559312
-5.1586071e-05
0.00089656889
-3.3036799e-05
0.001016625
-1.3421169e-05
0.0011245339
6.3806288e-06
0.0012196554
2.5070612e-05
0.0013015925
4.1789933e-05
0.0013699753
5.6188714e-05
0.0014246174
6.7902826e-05
0.0014654488
7.6841151e-05
0.0014923941
8.3143881e-05
0.0015053304
8.718914e-05
0.0015040508
8.9345882e-05
0.0014883525
8.9816516e-05
0.0014581282
8.8547491e-05
0.0014134792
8.5229612e-05
0.0013548236
7.9347252e-05
0.0012827988
7.0307323e-05
0.0011986451
5.7726428e-05
0.0011036623
4.1374573e-05
0.00099936448
2.1461671e-05
0.00088737905
-1.4404596e-06
0.00076947954
-2.6454842e-05
0.00064684997
-5.1769366e-05
0.00052073164
-7.6107609e-05
0.00039226999
-9.8080733e-05
0.00026225949
-0.00011608278
0.0001313356
-0.00012875029
1.5886791e-14
-0.00013535645
-0.0001313356
-0.00013535645
-0.00026225949
-0.00012875029
-0.00039226999
-0.00011608278
-0.00052073164
-9.8080733e-05
-0.00064684997
-7.6107609e-05
-0.00076947954
-5.1769366e-05
-0.00088737905
-2.6454842e-05
-0.00099936448
-1.4404595e-06
-0.0011036623
2.1461671e-05
-0.0011986451
4.1374573e-05
-0.0012827988
5.7726428e-05
-0.0013548236
7.0307323e-05
-0.0014134792
7.9347252e-05
-0.0014581282
8.5229612e-05
-0.0014883525
8.8547491e-05
-0.0015040508
8.9816516e-05
-0.0015053304
8.9345882e-05
-0.0014923941
8.718914e-05
-0.0014654488
8.3143881e-05
-0.0014246174
7.6841151e-05
-0.0013699753
6.7902826e-05
-0.0013015925
5.6188714e-05
-0.0012196554
4.1789933e-05
-0.0011245339
2.5070612e-05
-0.001016625
6.3806289e-06
-0.00089656889
-1.3421169e-05
-0.00076559312
-3.3036799e-05
-0.00062487944
-5.1586071e-05
-0.00047610063
-6.8026909e-05
-0.00032104313
-8.1344453e-05
-0.00016164482
-9.0697029e-05
-9.5508678e-05
0.00020088684
-0.00029639551
0.00039906217
-0.00028887236
0.00059191993
-0.00027420222
0.00077701841
-0.00025312538
0.00095212606
-0.00022669372
0.0011152694
-0.00019618014
0.0012648151
-0.0001629669
0.0013996394
-0.00012844361
0.0015187427
-9.4032671e-05
0.0016214333
-6.0900742e-05
0.0017074834
-2.9861315e-05
0.0017767926
-1.4064577e-06
0.0018292557
2.4378143e-05
0.0018649448
4.7454745e-05
0.0018836456
6.8488377e-05
0.0018849988
8.7992669e-05
0.0018685775
0.00010623775
0.0018340254
0.00012309959
0.001781236
0.000138019
0.0017105092
0.00015007409
0.0016226111
0.0001582054
0.0015188401
0.00016149749
0.0014008457
0.0001593689
0.0012705509
0.00015175655
0.0011299551
0.00013915531
0.00098089631
0.00012260393
0.00082543871
0.00010368823
0.00066523485
8.4096256e-05
0.00050155089
6.5603223e-05
0.00033550414
4.9963977e-05
0.00016808981
3.8664035e-05
7.5378588e-15
3.2733369e-05
-0.00016808981
3.2733369e-05
-0.00033550414
3.8664035e-05
-0.00050155089
4.9963977e-05
-0.00066523485
6.5603223e-05
-0.00082543871
8.4096256e-05
-0.00098089631
0.00010368823
-0.0011299551
0.00012260393
-0.0012705509
0.00013915531
-0.0014008457
0.00015175655
-0.0015188401
0.0001593689
-0.0016226111
0.00016149749
-0.0017105092
0.0001582054
-0.001781236
0.00015007409
-0.0018340254
0.000138019
-0.0018685775
0.00012309959
-0.0018849988
0.00010623775
-0.0018836456
8.799267e-05
-0.0018649448
6.8488377e-05
-0.0018292557
4.7454745e-05
-0.0017767926
2.4378143e-05
-0.0017074834
-1.4064577e-06
-0.0016214333
-2.9861315e-05
-0.0015187427
-6.0900742e-05
-0.0013996394
-9.4032671e-05
-0.0012648151
-0.00012844361
-0.0011152694
-0.0001629669
-0.00095212606
-0.00019618014
-0.00077701841
-0.00022669372
-0.00059191993
-0.00025312538
-0.00039906217
-0.00027420222
-0.00020088684
-0.00028887236
-0.00029639551