/*--------------------------------*- C++ -*----------------------------------*\
| =========                 |                                                 |
| \\      /  F ield         | OpenFOAM: The Open Source CFD Toolbox           |
|  \\    /   O peration     | Version:  2106                                  |
|   \\  /    A nd           | Website:  www.openfoam.com                      |
|    \\/     M anipulation  |                                                 |
\*---------------------------------------------------------------------------*/
FoamFile
{
    version     2.0;
    format      ascii;
    arch        "LSB;label=32;scalar=64";
    class       volVectorField;
    location    "0.012";
    object      U_0;
}
// * * * * * * * * * * * * * * * * * * * * * * * * * * * * * * * * * * * * * //

dimensions      [0 1 -1 0 0 0 0];

internalField   nonuniform List<vector> 
4096
(
(-0.0018253658 0.0018282239 0)
(-0.0054618204 0.0018138751 0)
(-0.0090554711 0.0017851671 0)
(-0.012577738 0.0017420847 0)
(-0.016000023 0.0016846292 0)
(-0.019293723 0.0016128504 0)
(-0.022430345 0.0015268629 0)
(-0.025381788 0.0014268903 0)
(-0.028120455 0.0013132966 0)
(-0.030619662 0.0011865969 0)
(-0.032853722 0.0010474712 0)
(-0.034798611 0.00089678479 0)
(-0.03643236 0.00073557566 0)
(-0.037734949 0.00056509098 0)
(-0.038689121 0.00038665946 0)
(-0.039280486 0.00020184175 0)
(-0.039497806 1.2259705e-05 0)
(-0.039333276 -0.00018027902 0)
(-0.038782665 -0.00037393208 0)
(-0.037845628 -0.00056674929 0)
(-0.036525799 -0.00075665659 0)
(-0.034830979 -0.0009415449 0)
(-0.032773292 -0.0011192242 0)
(-0.030369216 -0.0012874848 0)
(-0.027639622 -0.0014441232 0)
(-0.024609974 -0.0015869675 0)
(-0.021309881 -0.0017139263 0)
(-0.017773044 -0.0018230609 0)
(-0.014036897 -0.0019126372 0)
(-0.010142086 -0.0019811879 0)
(-0.0061319442 -0.0020275549 0)
(-0.0020518047 -0.0020509437 0)
(0.0020518047 -0.0020509437 0)
(0.0061319442 -0.0020275549 0)
(0.010142086 -0.0019811879 0)
(0.014036897 -0.0019126372 0)
(0.017773044 -0.0018230609 0)
(0.021309881 -0.0017139263 0)
(0.024609974 -0.0015869675 0)
(0.027639622 -0.0014441232 0)
(0.030369216 -0.0012874848 0)
(0.032773292 -0.0011192242 0)
(0.034830979 -0.0009415449 0)
(0.036525799 -0.00075665659 0)
(0.037845628 -0.00056674929 0)
(0.038782665 -0.00037393208 0)
(0.039333276 -0.00018027902 0)
(0.039497806 1.2259705e-05 0)
(0.039280486 0.00020184175 0)
(0.038689121 0.00038665946 0)
(0.037734949 0.00056509098 0)
(0.03643236 0.00073557566 0)
(0.034798611 0.00089678479 0)
(0.032853722 0.0010474712 0)
(0.030619662 0.0011865969 0)
(0.028120455 0.0013132966 0)
(0.025381788 0.0014268903 0)
(0.022430345 0.0015268629 0)
(0.019293723 0.0016128504 0)
(0.016000023 0.0016846292 0)
(0.012577738 0.0017420847 0)
(0.0090554711 0.0017851671 0)
(0.0054618204 0.0018138751 0)
(0.0018253658 0.0018282239 0)
(-0.0017972022 0.005466297 0)
(-0.0053777474 0.0054235385 0)
(-0.0089167253 0.0053379847 0)
(-0.012386328 0.0052095733 0)
(-0.015758673 0.0050382721 0)
(-0.019005814 0.0048242012 0)
(-0.022099803 0.0045676773 0)
(-0.025012972 0.0042693269 0)
(-0.027718077 0.0039302176 0)
(-0.030188712 0.0035518534 0)
(-0.03239941 0.0031362296 0)
(-0.034326274 0.0026859587 0)
(-0.035947322 0.002204117 0)
(-0.037242602 0.0016944089 0)
(-0.038194785 0.0011608406 0)
(-0.038789385 0.00060805081 0)
(-0.039014988 4.0890866e-05 0)
(-0.038863492 -0.00053529636 0)
(-0.038330508 -0.0011149527 0)
(-0.03741521 -0.0016922204 0)
(-0.036120789 -0.0022609388 0)
(-0.034454563 -0.0028147784 0)
(-0.032428112 -0.00334719 0)
(-0.030057415 -0.0038515436 0)
(-0.027362814 -0.0043211998 0)
(-0.024369254 -0.0047496166 0)
(-0.021105917 -0.0051304924 0)
(-0.017606175 -0.0054579775 0)
(-0.01390723 -0.0057268324 0)
(-0.010049581 -0.0059326172 0)
(-0.0060765013 -0.0060718268 0)
(-0.0020333361 -0.0061420535 0)
(0.0020333361 -0.0061420535 0)
(0.0060765013 -0.0060718268 0)
(0.010049581 -0.0059326172 0)
(0.01390723 -0.0057268324 0)
(0.017606175 -0.0054579775 0)
(0.021105917 -0.0051304924 0)
(0.024369254 -0.0047496166 0)
(0.027362814 -0.0043211998 0)
(0.030057415 -0.0038515436 0)
(0.032428112 -0.00334719 0)
(0.034454563 -0.0028147784 0)
(0.036120789 -0.0022609388 0)
(0.03741521 -0.0016922204 0)
(0.038330508 -0.0011149527 0)
(0.038863492 -0.00053529636 0)
(0.039014988 4.0890867e-05 0)
(0.038789385 0.00060805081 0)
(0.038194785 0.0011608406 0)
(0.037242602 0.0016944089 0)
(0.035947322 0.002204117 0)
(0.034326274 0.0026859587 0)
(0.03239941 0.0031362296 0)
(0.030188712 0.0035518534 0)
(0.027718077 0.0039302176 0)
(0.025012972 0.0042693269 0)
(0.022099803 0.0045676773 0)
(0.019005814 0.0048242012 0)
(0.015758673 0.0050382721 0)
(0.012386328 0.0052095733 0)
(0.0089167253 0.0053379847 0)
(0.0053777474 0.0054235385 0)
(0.0017972022 0.005466297 0)
(-0.0017365654 0.0090128922 0)
(-0.0051966415 0.0089429959 0)
(-0.00861755 0.0088031015 0)
(-0.011973025 0.0085930378 0)
(-0.015236602 0.0083126308 0)
(-0.018381625 0.0079619481 0)
(-0.021381294 0.0075413781 0)
(-0.024208877 0.007051802 0)
(-0.026837925 0.0064948639 0)
(-0.029242731 0.0058729423 0)
(-0.031398301 0.0051892112 0)
(-0.033281113 0.0044479615 0)
(-0.034869409 0.0036541759 0)
(-0.036143417 0.0028139426 0)
(-0.037085834 0.001933901 0)
(-0.037682066 0.0010215928 0)
(-0.037920562 8.5092084e-05 0)
(-0.037792798 -0.00086694959 0)
(-0.037293903 -0.0018252921 0)
(-0.036422401 -0.0027802595 0)
(-0.035180693 -0.0037217661 0)
(-0.033575178 -0.0046393216 0)
(-0.031616418 -0.0055220558 0)
(-0.029319363 -0.006358927 0)
(-0.026703281 -0.0071388297 0)
(-0.023792066 -0.0078507725 0)
(-0.020613967 -0.008484148 0)
(-0.017201561 -0.0090290825 0)
(-0.013591402 -0.0094767032 0)
(-0.0098234673 -0.0098194748 0)
(-0.005940649 -0.01005143 0)
(-0.0019880254 -0.010168461 0)
(0.0019880254 -0.010168461 0)
(0.005940649 -0.01005143 0)
(0.0098234673 -0.0098194748 0)
(0.013591402 -0.0094767032 0)
(0.017201561 -0.0090290825 0)
(0.020613967 -0.008484148 0)
(0.023792066 -0.0078507725 0)
(0.026703281 -0.0071388297 0)
(0.029319363 -0.006358927 0)
(0.031616418 -0.0055220558 0)
(0.033575178 -0.0046393216 0)
(0.035180693 -0.0037217661 0)
(0.036422401 -0.0027802595 0)
(0.037293903 -0.0018252921 0)
(0.037792798 -0.00086694959 0)
(0.037920562 8.5092085e-05 0)
(0.037682066 0.0010215928 0)
(0.037085834 0.001933901 0)
(0.036143417 0.0028139426 0)
(0.034869409 0.0036541759 0)
(0.033281113 0.0044479615 0)
(0.031398301 0.0051892112 0)
(0.029242731 0.0058729423 0)
(0.026837925 0.0064948639 0)
(0.024208877 0.007051802 0)
(0.021381294 0.0075413781 0)
(0.018381625 0.0079619481 0)
(0.015236602 0.0083126308 0)
(0.011973025 0.0085930378 0)
(0.00861755 0.0088031015 0)
(0.0051966415 0.0089429959 0)
(0.0017365654 0.0090128922 0)
(-0.0016413599 0.012406889 0)
(-0.0049122505 0.012311854 0)
(-0.0081476218 0.012121563 0)
(-0.011323571 0.011835629 0)
(-0.014415811 0.011453597 0)
(-0.017399651 0.01097528 0)
(-0.020250073 0.010400967 0)
(-0.022941809 0.0097316177 0)
(-0.025449647 0.0089691739 0)
(-0.027749001 0.0081167605 0)
(-0.029815637 0.0071785772 0)
(-0.031626682 0.0061604186 0)
(-0.033160811 0.0050690131 0)
(-0.034398533 0.0039127289 0)
(-0.035322745 0.0027007174 0)
(-0.035918758 0.0014432093 0)
(-0.036174824 0.00015136405 0)
(-0.036081939 -0.0011629475 0)
(-0.03563452 -0.002487143 0)
(-0.034830219 -0.0038078985 0)
(-0.033670297 -0.0051112964 0)
(-0.032159724 -0.0063828609 0)
(-0.030307536 -0.0076075002 0)
(-0.028127096 -0.0087697807 0)
(-0.025635997 -0.0098541336 0)
(-0.022856495 -0.010845056 0)
(-0.019815363 -0.011727494 0)
(-0.016543876 -0.012487406 0)
(-0.013077475 -0.013112093 0)
(-0.0094552142 -0.01359075 0)
(-0.0057192624 -0.013914805 0)
(-0.0019141609 -0.014078339 0)
(0.0019141609 -0.014078339 0)
(0.0057192624 -0.013914805 0)
(0.0094552142 -0.01359075 0)
(0.013077475 -0.013112093 0)
(0.016543876 -0.012487406 0)
(0.019815363 -0.011727494 0)
(0.022856495 -0.010845056 0)
(0.025635997 -0.0098541336 0)
(0.028127096 -0.0087697807 0)
(0.030307536 -0.0076075002 0)
(0.032159724 -0.0063828609 0)
(0.033670297 -0.0051112964 0)
(0.034830219 -0.0038078985 0)
(0.03563452 -0.002487143 0)
(0.036081939 -0.0011629475 0)
(0.036174824 0.00015136405 0)
(0.035918758 0.0014432093 0)
(0.035322745 0.0027007174 0)
(0.034398533 0.0039127289 0)
(0.033160811 0.0050690131 0)
(0.031626682 0.0061604186 0)
(0.029815637 0.0071785772 0)
(0.027749001 0.0081167605 0)
(0.025449647 0.0089691739 0)
(0.022941809 0.0097316177 0)
(0.020250073 0.010400967 0)
(0.017399651 0.01097528 0)
(0.014415811 0.011453597 0)
(0.011323571 0.011835629 0)
(0.0081476218 0.012121563 0)
(0.0049122505 0.012311854 0)
(0.0016413599 0.012406889 0)
(-0.0015048223 0.015574568 0)
(-0.0045043569 0.015457318 0)
(-0.0074735018 0.015222351 0)
(-0.01039168 0.014868901 0)
(-0.013237691 0.014396111 0)
(-0.015989588 0.013803219 0)
(-0.018624829 0.01309012 0)
(-0.02112033 0.012257685 0)
(-0.023452624 0.011307711 0)
(-0.02559865 0.010243902 0)
(-0.027535334 0.0090712341 0)
(-0.029240796 0.0077967816 0)
(-0.030694373 0.0064289244 0)
(-0.031876998 0.0049779688 0)
(-0.032772015 0.0034554209 0)
(-0.033364684 0.0018740816 0)
(-0.033643009 0.00024791626 0)
(-0.033597548 -0.0014082871 0)
(-0.033221816 -0.003078908 0)
(-0.032512165 -0.0047473193 0)
(-0.031468358 -0.006395855 0)
(-0.030093495 -0.0080063302 0)
(-0.028394428 -0.0095596573 0)
(-0.02638227 -0.011036104 0)
(-0.024072257 -0.012415596 0)
(-0.021484252 -0.013678095 0)
(-0.01864287 -0.01480387 0)
(-0.015577451 -0.015774498 0)
(-0.012321734 -0.016573253 0)
(-0.0089133753 -0.017185775 0)
(-0.0053933879 -0.01760072 0)
(-0.0018054096 -0.017810201 0)
(0.0018054096 -0.017810201 0)
(0.0053933879 -0.01760072 0)
(0.0089133753 -0.017185775 0)
(0.012321734 -0.016573253 0)
(0.015577451 -0.015774498 0)
(0.01864287 -0.01480387 0)
(0.021484252 -0.013678095 0)
(0.024072257 -0.012415596 0)
(0.02638227 -0.011036104 0)
(0.028394428 -0.0095596573 0)
(0.030093495 -0.0080063302 0)
(0.031468358 -0.006395855 0)
(0.032512165 -0.0047473193 0)
(0.033221816 -0.003078908 0)
(0.033597548 -0.0014082871 0)
(0.033643009 0.00024791626 0)
(0.033364684 0.0018740816 0)
(0.032772015 0.003455421 0)
(0.031876998 0.0049779688 0)
(0.030694373 0.0064289244 0)
(0.029240796 0.0077967816 0)
(0.027535334 0.0090712341 0)
(0.02559865 0.010243902 0)
(0.023452624 0.011307711 0)
(0.02112033 0.012257685 0)
(0.018624829 0.01309012 0)
(0.015989588 0.013803219 0)
(0.013237691 0.014396111 0)
(0.01039168 0.014868901 0)
(0.0074735018 0.015222351 0)
(0.0045043569 0.015457318 0)
(0.0015048222 0.015574568 0)
(-0.001315966 0.018424426 0)
(-0.0039401748 0.01828895 0)
(-0.0065410248 0.0180172 0)
(-0.0091023172 0.017607786 0)
(-0.011607102 0.0170592 0)
(-0.014037282 0.016369782 0)
(-0.016373517 0.01553849 0)
(-0.01859584 0.014565985 0)
(-0.020683201 0.013453363 0)
(-0.022614525 0.012204707 0)
(-0.024368459 0.010825231 0)
(-0.025924419 0.0093231297 0)
(-0.027262872 0.0077083716 0)
(-0.028365466 0.0059926642 0)
(-0.029216035 0.0041896653 0)
(-0.029799984 0.0023145853 0)
(-0.030105235 0.00038381111 0)
(-0.030121876 -0.0015853266 0)
(-0.029842341 -0.0035744989 0)
(-0.02926121 -0.0055644006 0)
(-0.028376294 -0.0075337521 0)
(-0.027188401 -0.0094611461 0)
(-0.025701429 -0.011323768 0)
(-0.023923328 -0.013097783 0)
(-0.021866125 -0.01475855 0)
(-0.019546341 -0.016281367 0)
(-0.016985502 -0.01764168 0)
(-0.014210281 -0.018816303 0)
(-0.011251906 -0.019784322 0)
(-0.0081459448 -0.020527435 0)
(-0.0049316903 -0.021031266 0)
(-0.0016513084 -0.021285749 0)
(0.0016513084 -0.021285749 0)
(0.0049316903 -0.021031266 0)
(0.0081459449 -0.020527435 0)
(0.011251906 -0.019784322 0)
(0.014210281 -0.018816303 0)
(0.016985502 -0.01764168 0)
(0.019546341 -0.016281367 0)
(0.021866125 -0.01475855 0)
(0.023923328 -0.013097783 0)
(0.025701429 -0.011323768 0)
(0.027188401 -0.0094611461 0)
(0.028376294 -0.0075337521 0)
(0.02926121 -0.0055644006 0)
(0.029842341 -0.0035744988 0)
(0.030121876 -0.0015853266 0)
(0.030105235 0.00038381111 0)
(0.029799984 0.0023145853 0)
(0.029216035 0.0041896653 0)
(0.028365466 0.0059926642 0)
(0.027262872 0.0077083716 0)
(0.025924419 0.0093231297 0)
(0.024368459 0.010825231 0)
(0.022614525 0.012204707 0)
(0.020683201 0.013453363 0)
(0.01859584 0.014565985 0)
(0.016373517 0.01553849 0)
(0.014037282 0.016369782 0)
(0.011607102 0.0170592 0)
(0.0091023172 0.017607786 0)
(0.0065410248 0.0180172 0)
(0.0039401748 0.01828895 0)
(0.001315966 0.018424426 0)
(-0.0010602717 0.02083924 0)
(-0.0031762366 0.02069085 0)
(-0.0052782071 0.020392846 0)
(-0.0073558393 0.019943045 0)
(-0.0093977854 0.019338788 0)
(-0.011391241 0.018577316 0)
(-0.013320927 0.017655553 0)
(-0.015171085 0.016574042 0)
(-0.016924032 0.015332173 0)
(-0.018561385 0.013934506 0)
(-0.020064187 0.01238582 0)
(-0.021413282 0.010694921 0)
(-0.022591079 0.0088731266 0)
(-0.023580401 0.0069333943 0)
(-0.024365564 0.0048912603 0)
(-0.024932428 0.0027638119 0)
(-0.025269037 0.00056940589 0)
(-0.025365011 -0.0016724944 0)
(-0.025211751 -0.003941444 0)
(-0.02480141 -0.0062162846 0)
(-0.024129302 -0.0084722464 0)
(-0.023193558 -0.010685454 0)
(-0.021994079 -0.012829765 0)
(-0.020534526 -0.014877358 0)
(-0.018822528 -0.01679922 0)
(-0.016870196 -0.018565737 0)
(-0.014694735 -0.020147503 0)
(-0.012319157 -0.021516052 0)
(-0.0097711762 -0.022645924 0)
(-0.0070832332 -0.023514548 0)
(-0.0042921347 -0.024104089 0)
(-0.001437806 -0.024402047 0)
(0.001437806 -0.024402047 0)
(0.0042921347 -0.024104089 0)
(0.0070832332 -0.023514548 0)
(0.0097711762 -0.022645924 0)
(0.012319157 -0.021516052 0)
(0.014694735 -0.020147503 0)
(0.016870196 -0.018565737 0)
(0.018822528 -0.01679922 0)
(0.020534526 -0.014877358 0)
(0.021994079 -0.012829765 0)
(0.023193558 -0.010685454 0)
(0.024129302 -0.0084722464 0)
(0.02480141 -0.0062162846 0)
(0.025211751 -0.003941444 0)
(0.025365011 -0.0016724944 0)
(0.025269037 0.00056940589 0)
(0.024932428 0.0027638119 0)
(0.024365564 0.0048912603 0)
(0.023580401 0.0069333943 0)
(0.022591079 0.0088731266 0)
(0.021413282 0.010694921 0)
(0.020064187 0.01238582 0)
(0.018561385 0.013934506 0)
(0.016924032 0.015332173 0)
(0.015171085 0.016574042 0)
(0.013320927 0.017655553 0)
(0.011391241 0.018577316 0)
(0.0093977854 0.019338788 0)
(0.0073558393 0.019943045 0)
(0.0052782071 0.020392846 0)
(0.0031762366 0.02069085 0)
(0.0010602716 0.02083924 0)
(-0.00072045663 0.022669312 0)
(-0.002160906 0.022515356 0)
(-0.0035995251 0.022204881 0)
(-0.0050337166 0.02173547 0)
(-0.0064593675 0.021102147 0)
(-0.0078711243 0.020300696 0)
(-0.0092586613 0.019325492 0)
(-0.010611724 0.018176225 0)
(-0.011917103 0.016849228 0)
(-0.013159661 0.015349891 0)
(-0.014324366 0.013682137 0)
(-0.015393685 0.011854377 0)
(-0.01635235 0.0098785969 0)
(-0.017184872 0.0077691743 0)
(-0.01787662 0.0055431146 0)
(-0.018414362 0.0032188392 0)
(-0.018786354 0.00081611675 0)
(-0.018981862 -0.0016441893 0)
(-0.018991481 -0.0041400259 0)
(-0.018803963 -0.0066493191 0)
(-0.018411555 -0.009144876 0)
(-0.017809506 -0.011600776 0)
(-0.01699221 -0.013988405 0)
(-0.01595779 -0.016275416 0)
(-0.014708076 -0.018429703 0)
(-0.013249327 -0.020416117 0)
(-0.011592884 -0.022200276 0)
(-0.0097566218 -0.023748081 0)
(-0.0077636041 -0.025028742 0)
(-0.0056418005 -0.026015207 0)
(-0.0034243838 -0.026685602 0)
(-0.0011480761 -0.027024739 0)
(0.0011480761 -0.027024739 0)
(0.0034243838 -0.026685602 0)
(0.0056418005 -0.026015207 0)
(0.0077636041 -0.025028742 0)
(0.0097566218 -0.023748081 0)
(0.011592884 -0.022200276 0)
(0.013249327 -0.020416117 0)
(0.014708076 -0.018429703 0)
(0.01595779 -0.016275416 0)
(0.01699221 -0.013988405 0)
(0.017809506 -0.011600776 0)
(0.018411555 -0.009144876 0)
(0.018803963 -0.0066493191 0)
(0.018991481 -0.0041400259 0)
(0.018981862 -0.0016441893 0)
(0.018786354 0.00081611675 0)
(0.018414362 0.0032188392 0)
(0.01787662 0.0055431146 0)
(0.017184872 0.0077691743 0)
(0.01635235 0.0098785969 0)
(0.015393685 0.011854377 0)
(0.014324366 0.013682137 0)
(0.013159661 0.015349891 0)
(0.011917103 0.016849228 0)
(0.010611724 0.018176225 0)
(0.0092586613 0.019325492 0)
(0.0078711243 0.020300696 0)
(0.0064593675 0.021102147 0)
(0.0050337166 0.02173547 0)
(0.0035995251 0.022204881 0)
(0.002160906 0.022515356 0)
(0.00072045662 0.022669312 0)
(-0.00027734827 0.023728178 0)
(-0.00083759736 0.023577567 0)
(-0.0014115331 0.023273398 0)
(-0.0020065064 0.022810981 0)
(-0.0026283886 0.022183332 0)
(-0.0032805638 0.021383037 0)
(-0.0039594095 0.020403564 0)
(-0.0046626155 0.019238937 0)
(-0.0053818037 0.017886671 0)
(-0.0061053272 0.016346942 0)
(-0.0068245389 0.01462472 0)
(-0.0075242689 0.012727616 0)
(-0.0081914821 0.010667632 0)
(-0.0088127797 0.0084600271 0)
(-0.0093754085 0.006122562 0)
(-0.0098675782 0.0036745804 0)
(-0.010278177 0.0011367193 0)
(-0.010596068 -0.0014695088 0)
(-0.010811288 -0.0041218126 0)
(-0.010909077 -0.0067972174 0)
(-0.010877544 -0.009469568 0)
(-0.010708437 -0.012109084 0)
(-0.010388598 -0.014687542 0)
(-0.0099098179 -0.017167122 0)
(-0.0092667013 -0.019514986 0)
(-0.0084569424 -0.02168766 0)
(-0.0074847126 -0.023647043 0)
(-0.0063606348 -0.025353314 0)
(-0.0051016908 -0.026769218 0)
(-0.0037298635 -0.027862446 0)
(-0.0022731132 -0.028606666 0)
(-0.00076365989 -0.02898355 0)
(0.00076365989 -0.02898355 0)
(0.0022731132 -0.028606666 0)
(0.0037298635 -0.027862446 0)
(0.0051016908 -0.026769218 0)
(0.0063606348 -0.025353314 0)
(0.0074847126 -0.023647043 0)
(0.0084569424 -0.02168766 0)
(0.0092667013 -0.019514986 0)
(0.0099098179 -0.017167122 0)
(0.010388598 -0.014687542 0)
(0.010708437 -0.012109084 0)
(0.010877544 -0.0094695679 0)
(0.010909077 -0.0067972174 0)
(0.010811288 -0.0041218126 0)
(0.010596068 -0.0014695088 0)
(0.010278177 0.0011367193 0)
(0.0098675782 0.0036745804 0)
(0.0093754085 0.006122562 0)
(0.0088127797 0.0084600271 0)
(0.0081914821 0.010667632 0)
(0.0075242689 0.012727616 0)
(0.0068245389 0.01462472 0)
(0.0061053272 0.016346942 0)
(0.0053818037 0.017886671 0)
(0.0046626155 0.019238937 0)
(0.0039594095 0.020403564 0)
(0.0032805638 0.021383037 0)
(0.0026283886 0.022183332 0)
(0.0020065064 0.022810981 0)
(0.0014115331 0.023273398 0)
(0.00083759736 0.023577567 0)
(0.00027734826 0.023728178 0)
(0.00028720613 0.02379212 0)
(0.00084987853 0.023656467 0)
(0.0013788469 0.023382098 0)
(0.0018538515 0.022960727 0)
(0.0022572496 0.022382953 0)
(0.002575605 0.021637353 0)
(0.0028013646 0.020714803 0)
(0.0029296738 0.019603314 0)
(0.0029612228 0.018300035 0)
(0.0029008079 0.016799227 0)
(0.0027543719 0.015105287 0)
(0.0025316175 0.013224984 0)
(0.0022425799 0.011169971 0)
(0.0018978216 0.0089555532 0)
(0.0015076783 0.006599724 0)
(0.0010821851 0.0041221933 0)
(0.0006314 0.0015436208 0)
(0.00016592849 -0.0011149846 0)
(-0.00030319196 -0.0038320521 0)
(-0.00075883827 -0.0065838067 0)
(-0.0011826363 -0.0093475709 0)
(-0.0015620969 -0.012093916 0)
(-0.0018759388 -0.014791118 0)
(-0.0021078918 -0.017402991 0)
(-0.0022420368 -0.019888727 0)
(-0.0022648082 -0.022203668 0)
(-0.0021740814 -0.024302003 0)
(-0.0019689157 -0.026137937 0)
(-0.0016578086 -0.027667485 0)
(-0.0012553974 -0.028852034 0)
(-0.00078275266 -0.029660268 0)
(-0.00026595737 -0.030070054 0)
(0.00026595738 -0.030070054 0)
(0.00078275266 -0.029660268 0)
(0.0012553974 -0.028852034 0)
(0.0016578086 -0.027667485 0)
(0.0019689157 -0.026137937 0)
(0.0021740814 -0.024302003 0)
(0.0022648082 -0.022203668 0)
(0.0022420368 -0.019888727 0)
(0.0021078918 -0.017402991 0)
(0.0018759388 -0.014791118 0)
(0.0015620969 -0.012093916 0)
(0.0011826363 -0.0093475709 0)
(0.00075883827 -0.0065838067 0)
(0.00030319196 -0.0038320521 0)
(-0.00016592849 -0.0011149846 0)
(-0.0006314 0.0015436208 0)
(-0.0010821851 0.0041221933 0)
(-0.0015076783 0.006599724 0)
(-0.0018978216 0.0089555532 0)
(-0.0022425799 0.011169971 0)
(-0.0025316175 0.013224984 0)
(-0.0027543719 0.015105287 0)
(-0.0029008079 0.016799227 0)
(-0.0029612228 0.018300035 0)
(-0.0029296738 0.019603314 0)
(-0.0028013646 0.020714803 0)
(-0.002575605 0.021637353 0)
(-0.0022572496 0.022382953 0)
(-0.0018538515 0.022960727 0)
(-0.0013788469 0.023382098 0)
(-0.00084987853 0.023656467 0)
(-0.00028720614 0.02379212 0)
(0.00098989097 0.022599499 0)
(0.0029499695 0.022493878 0)
(0.0048515034 0.022278211 0)
(0.0066581647 0.021941239 0)
(0.008337952 0.021468918 0)
(0.0098644177 0.020845723 0)
(0.011217107 0.020056376 0)
(0.012381233 0.019085239 0)
(0.013348621 0.017922223 0)
(0.014116454 0.016560026 0)
(0.0146858 0.014998641 0)
(0.015061118 0.013243186 0)
(0.015248537 0.011304363 0)
(0.015255128 0.0091970606 0)
(0.01508825 0.0069393066 0)
(0.014755366 0.0045506389 0)
(0.014264527 0.0020508658 0)
(0.013625767 -0.00054051796 0)
(0.012851985 -0.0032050174 0)
(0.011961203 -0.005920458 0)
(0.010975066 -0.0086671605 0)
(0.0099170204 -0.01141993 0)
(0.0088153769 -0.014144827 0)
(0.007698383 -0.016807898 0)
(0.0065937252 -0.019361458 0)
(0.0055256784 -0.021760162 0)
(0.0045115102 -0.023949454 0)
(0.0035624408 -0.025876509 0)
(0.0026812172 -0.027490433 0)
(0.001863041 -0.028745367 0)
(0.0010957838 -0.029604027 0)
(0.00036146839 -0.030040183 0)
(-0.00036146838 -0.030040183 0)
(-0.0010957838 -0.029604027 0)
(-0.001863041 -0.028745367 0)
(-0.0026812172 -0.027490433 0)
(-0.0035624408 -0.025876509 0)
(-0.0045115102 -0.023949454 0)
(-0.0055256784 -0.021760162 0)
(-0.0065937252 -0.019361458 0)
(-0.007698383 -0.016807898 0)
(-0.0088153769 -0.014144827 0)
(-0.0099170204 -0.01141993 0)
(-0.010975066 -0.0086671605 0)
(-0.011961203 -0.005920458 0)
(-0.012851985 -0.0032050174 0)
(-0.013625767 -0.00054051796 0)
(-0.014264527 0.0020508658 0)
(-0.014755366 0.0045506389 0)
(-0.01508825 0.0069393066 0)
(-0.015255128 0.0091970606 0)
(-0.015248537 0.011304363 0)
(-0.015061118 0.013243186 0)
(-0.0146858 0.014998641 0)
(-0.014116454 0.016560026 0)
(-0.013348621 0.017922223 0)
(-0.012381233 0.019085239 0)
(-0.011217107 0.020056376 0)
(-0.0098644177 0.020845723 0)
(-0.008337952 0.021468918 0)
(-0.0066581647 0.021941239 0)
(-0.0048515034 0.022278211 0)
(-0.0029499695 0.022493878 0)
(-0.00098989098 0.022599499 0)
(0.0018410202 0.019859004 0)
(0.0054938832 0.019801837 0)
(0.009058243 0.019680291 0)
(0.012477728 0.019480911 0)
(0.015703336 0.019183644 0)
(0.018692761 0.018765701 0)
(0.021410368 0.018204843 0)
(0.023828585 0.017479014 0)
(0.02592917 0.016570922 0)
(0.027701054 0.015468215 0)
(0.029138678 0.01416611 0)
(0.030241209 0.012666956 0)
(0.031010379 0.010979695 0)
(0.03144946 0.0091183423 0)
(0.031562329 0.0071006431 0)
(0.031353037 0.0049454943 0)
(0.030826874 0.0026711007 0)
(0.029990942 0.00029409262 0)
(0.028859075 -0.0021709192 0)
(0.027451678 -0.0047096908 0)
(0.025794188 -0.0073058463 0)
(0.02391951 -0.0099380628 0)
(0.021866314 -0.012577138 0)
(0.019676209 -0.015187306 0)
(0.017391596 -0.017721962 0)
(0.015051977 -0.02012822 0)
(0.012690327 -0.022346404 0)
(0.010331737 -0.024315867 0)
(0.0079928713 -0.025976981 0)
(0.0056815535 -0.027275726 0)
(0.0033964921 -0.028167603 0)
(0.0011299251 -0.028621708 0)
(-0.0011299251 -0.028621708 0)
(-0.0033964921 -0.028167603 0)
(-0.0056815534 -0.027275726 0)
(-0.0079928713 -0.025976981 0)
(-0.010331737 -0.024315867 0)
(-0.012690327 -0.022346404 0)
(-0.015051977 -0.02012822 0)
(-0.017391596 -0.017721962 0)
(-0.019676209 -0.015187306 0)
(-0.021866314 -0.012577138 0)
(-0.02391951 -0.0099380628 0)
(-0.025794188 -0.0073058463 0)
(-0.027451678 -0.0047096908 0)
(-0.028859075 -0.0021709192 0)
(-0.029990942 0.00029409262 0)
(-0.030826874 0.0026711007 0)
(-0.031353037 0.0049454943 0)
(-0.031562329 0.0071006431 0)
(-0.03144946 0.0091183423 0)
(-0.031010379 0.010979695 0)
(-0.030241209 0.012666956 0)
(-0.029138678 0.01416611 0)
(-0.027701054 0.015468215 0)
(-0.02592917 0.016570922 0)
(-0.023828585 0.017479014 0)
(-0.021410368 0.018204843 0)
(-0.018692761 0.018765701 0)
(-0.015703336 0.019183644 0)
(-0.012477728 0.019480911 0)
(-0.009058243 0.019680291 0)
(-0.0054938832 0.019801837 0)
(-0.0018410202 0.019859004 0)
(0.0028412688 0.015269618 0)
(0.0084822638 0.015281734 0)
(0.014000014 0.015296808 0)
(0.019315299 0.015297483 0)
(0.024355884 0.015257608 0)
(0.029061365 0.015144619 0)
(0.033379626 0.014926533 0)
(0.03726833 0.014572441 0)
(0.04069717 0.014055964 0)
(0.043645544 0.013356507 0)
(0.046101403 0.012463804 0)
(0.048058427 0.011376159 0)
(0.049513833 0.010099875 0)
(0.050467157 0.0086478752 0)
(0.050918521 0.0070373942 0)
(0.050867611 0.0052864646 0)
(0.050315375 0.0034110379 0)
(0.04926598 0.0014232084 0)
(0.047729891 -0.00066768512 0)
(0.045728591 -0.0028565062 0)
(0.04329419 -0.0051366855 0)
(0.040468325 -0.0074941827 0)
(0.037301674 -0.0099058701 0)
(0.033851151 -0.012337936 0)
(0.030177017 -0.014743555 0)
(0.026337034 -0.017065176 0)
(0.02238218 -0.019236386 0)
(0.018355377 -0.021187321 0)
(0.014290199 -0.022849248 0)
(0.010209426 -0.02415873 0)
(0.0061249924 -0.025062475 0)
(0.0020413314 -0.025524066 0)
(-0.0020413314 -0.025524066 0)
(-0.0061249924 -0.025062475 0)
(-0.010209426 -0.02415873 0)
(-0.014290199 -0.022849248 0)
(-0.018355377 -0.021187321 0)
(-0.02238218 -0.019236386 0)
(-0.026337034 -0.017065176 0)
(-0.030177017 -0.014743555 0)
(-0.033851151 -0.012337936 0)
(-0.037301674 -0.0099058701 0)
(-0.040468325 -0.0074941827 0)
(-0.04329419 -0.0051366855 0)
(-0.045728591 -0.0028565062 0)
(-0.047729891 -0.00066768511 0)
(-0.04926598 0.0014232084 0)
(-0.050315375 0.0034110379 0)
(-0.050867611 0.0052864646 0)
(-0.050918521 0.0070373942 0)
(-0.050467157 0.0086478752 0)
(-0.049513833 0.010099875 0)
(-0.048058427 0.011376159 0)
(-0.046101403 0.012463804 0)
(-0.043645544 0.013356507 0)
(-0.04069717 0.014055964 0)
(-0.03726833 0.014572441 0)
(-0.033379626 0.014926533 0)
(-0.029061365 0.015144619 0)
(-0.024355884 0.015257608 0)
(-0.019315299 0.015297483 0)
(-0.014000014 0.015296808 0)
(-0.0084822638 0.015281734 0)
(-0.0028412688 0.015269618 0)
(0.0039742203 0.0085293599 0)
(0.011868648 0.0086403743 0)
(0.019600706 0.0088469995 0)
(0.027064444 0.0091226139 0)
(0.034161778 0.0094342082 0)
(0.04080933 0.0097420476 0)
(0.04693681 0.0099992033 0)
(0.052485536 0.010165014 0)
(0.057411428 0.010198358 0)
(0.061685112 0.010067802 0)
(0.065288457 0.0097569352 0)
(0.068209747 0.0092581479 0)
(0.070442652 0.0085740439 0)
(0.071983809 0.0077162437 0)
(0.072829615 0.0067018994 0)
(0.072974634 0.0055489309 0)
(0.072413672 0.0042710759 0)
(0.071145007 0.0028748411 0)
(0.069175111 0.001359735 0)
(0.066522381 -0.00027906705 0)
(0.063222948 -0.0020475265 0)
(0.059329596 -0.0039449909 0)
(0.054906505 -0.0059596635 0)
(0.050028342 -0.008062171 0)
(0.044775538 -0.010207888 0)
(0.039227609 -0.01233727 0)
(0.033457317 -0.014370339 0)
(0.027527058 -0.016229063 0)
(0.021489544 -0.01783551 0)
(0.015386575 -0.019114981 0)
(0.0092451852 -0.020005667 0)
(0.0030836202 -0.020462799 0)
(-0.0030836202 -0.020462799 0)
(-0.0092451852 -0.020005667 0)
(-0.015386575 -0.019114981 0)
(-0.021489544 -0.01783551 0)
(-0.027527058 -0.016229063 0)
(-0.033457317 -0.014370339 0)
(-0.039227609 -0.01233727 0)
(-0.044775538 -0.010207888 0)
(-0.050028342 -0.008062171 0)
(-0.054906505 -0.0059596635 0)
(-0.059329596 -0.0039449909 0)
(-0.063222948 -0.0020475265 0)
(-0.066522381 -0.00027906704 0)
(-0.069175111 0.001359735 0)
(-0.071145007 0.0028748411 0)
(-0.072413672 0.0042710759 0)
(-0.072974634 0.0055489309 0)
(-0.072829615 0.0067018994 0)
(-0.071983809 0.0077162437 0)
(-0.070442652 0.0085740439 0)
(-0.068209747 0.0092581479 0)
(-0.065288457 0.0097569352 0)
(-0.061685112 0.010067802 0)
(-0.057411428 0.010198358 0)
(-0.052485536 0.010165014 0)
(-0.04693681 0.0099992033 0)
(-0.04080933 0.0097420476 0)
(-0.034161778 0.0094342082 0)
(-0.027064444 0.0091226139 0)
(-0.019600706 0.0088469995 0)
(-0.011868648 0.0086403743 0)
(-0.0039742203 0.0085293599 0)
(0.0052084735 -0.00057255738 0)
(0.015552736 -0.00033650653 0)
(0.025684036 0.00011615006 0)
(0.035472265 0.00075104444 0)
(0.044796872 0.0015227778 0)
(0.053546247 0.0023780967 0)
(0.061628299 0.0032560221 0)
(0.068966515 0.0040971051 0)
(0.075500146 0.0048509081 0)
(0.081195457 0.0054765257 0)
(0.086029761 0.0059397025 0)
(0.089986048 0.006224107 0)
(0.093056745 0.0063290795 0)
(0.095237975 0.0062637187 0)
(0.096523949 0.0060483485 0)
(0.096903522 0.0057025936 0)
(0.096362529 0.0052390315 0)
(0.09488904 0.0046579835 0)
(0.092481091 0.003946657 0)
(0.089153771 0.0030833063 0)
(0.084943499 0.0020450788 0)
(0.079909113 0.00081439857 0)
(0.07413139 -0.00061087498 0)
(0.067705177 -0.0022106559 0)
(0.06073171 -0.0039418703 0)
(0.053322399 -0.0057397957 0)
(0.045573902 -0.0075297347 0)
(0.037563947 -0.0092177248 0)
(0.02936936 -0.010706804 0)
(0.021052473 -0.011911044 0)
(0.012658745 -0.012759699 0)
(0.0042237904 -0.013197656 0)
(-0.0042237904 -0.013197656 0)
(-0.012658745 -0.012759699 0)
(-0.021052473 -0.011911044 0)
(-0.02936936 -0.010706804 0)
(-0.037563947 -0.0092177248 0)
(-0.045573902 -0.0075297347 0)
(-0.053322399 -0.0057397957 0)
(-0.06073171 -0.0039418703 0)
(-0.067705177 -0.0022106559 0)
(-0.07413139 -0.00061087497 0)
(-0.079909113 0.00081439857 0)
(-0.084943499 0.0020450788 0)
(-0.089153771 0.0030833063 0)
(-0.092481091 0.0039466571 0)
(-0.09488904 0.0046579835 0)
(-0.096362529 0.0052390315 0)
(-0.096903522 0.0057025936 0)
(-0.096523949 0.0060483485 0)
(-0.095237975 0.0062637187 0)
(-0.093056745 0.0063290795 0)
(-0.089986048 0.006224107 0)
(-0.086029761 0.0059397025 0)
(-0.081195457 0.0054765257 0)
(-0.075500146 0.0048509081 0)
(-0.068966515 0.0040971051 0)
(-0.061628299 0.0032560221 0)
(-0.053546247 0.0023780967 0)
(-0.044796872 0.0015227778 0)
(-0.035472265 0.00075104444 0)
(-0.025684036 0.00011615006 0)
(-0.015552736 -0.00033650653 0)
(-0.0052084735 -0.00057255738 0)
(0.0064703564 -0.012186607 0)
(0.019323405 -0.011797585 0)
(0.031916974 -0.011039939 0)
(0.044088141 -0.0099553177 0)
(0.055686122 -0.0086039679 0)
(0.066575027 -0.0070586314 0)
(0.076638657 -0.0053960638 0)
(0.085787385 -0.00369702 0)
(0.09395399 -0.0020308796 0)
(0.10108533 -0.00045727001 0)
(0.10715161 0.00097404632 0)
(0.11214393 0.0022356785 0)
(0.11605723 0.0033223302 0)
(0.11889198 0.0042496329 0)
(0.12064447 0.0050374066 0)
(0.12129607 0.0057102397 0)
(0.12081993 0.0062834132 0)
(0.11918798 0.0067519329 0)
(0.11638259 0.0070883233 0)
(0.11240825 0.0072481937 0)
(0.10729933 0.0071814604 0)