/*--------------------------------*- C++ -*----------------------------------*\
| =========                 |                                                 |
| \\      /  F ield         | OpenFOAM: The Open Source CFD Toolbox           |
|  \\    /   O peration     | Version:  2106                                  |
|   \\  /    A nd           | Website:  www.openfoam.com                      |
|    \\/     M anipulation  |                                                 |
\*---------------------------------------------------------------------------*/
FoamFile
{
    version     2.0;
    format      ascii;
    arch        "LSB;label=32;scalar=64";
    class       surfaceScalarField;
    location    "0.042";
    object      phi;
}
// * * * * * * * * * * * * * * * * * * * * * * * * * * * * * * * * * * * * * //

dimensions      [0 3 -1 0 0 0 0];

oriented        oriented;

internalField   nonuniform List<scalar> 
480
(
-3.9677499e-05
3.844914e-05
-7.1350607e-05
3.1673107e-05
-9.1881184e-05
2.0530578e-05
-9.8148948e-05
6.2677638e-06
-8.9766948e-05
-8.3819997e-06
-6.804846e-05
-2.1718489e-05
-3.6349498e-05
-3.1698962e-05
1.0972249e-06
-3.7446723e-05
3.8289429e-05
-3.7192204e-05
6.9397413e-05
-3.1107984e-05
9.059504e-05
-2.1197628e-05
9.8278963e-05
-7.6839223e-06
9.1265061e-05
7.0139013e-06
6.9942218e-05
2.1322843e-05
3.7586208e-05
3.235601e-05
3.8814567e-05
-7.8714498e-05
0.00011611947
-0.00014369365
9.6652255e-05
-0.00018651165
6.3348581e-05
-0.00020059825
2.0354362e-05
-0.00018428551
-2.4694733e-05
-0.00014036136
-6.5642643e-05
-7.5565913e-05
-9.6494408e-05
9.2683461e-07
-0.00011393947
7.7167935e-05
-0.0001134333
0.00014148837
-9.5428418e-05
0.00018502646
-6.4735723e-05
0.00020071493
-2.3372386e-05
0.00018597675
2.1752085e-05
0.00014251367
6.4785918e-05
7.6977405e-05
9.7892277e-05
0.00011683614
4.3555981e-06
0.00010938899
1.2768361e-05
8.8239493e-05
1.9634386e-05
5.6482556e-05
2.3512103e-05
1.6476644e-05
2.3118981e-05
-2.430161e-05
1.8064274e-05
-6.0587936e-05
1.0065331e-05
-8.8495465e-05
2.0213392e-06
-0.00010589548
-6.8499764e-06
-0.00010456199
-1.6129316e-05
-8.6149078e-05
-2.1793044e-05
-5.9071995e-05
-2.3059282e-05
-2.2106149e-05
-2.0370655e-05
1.9063459e-05
-1.4806193e-05
5.9221455e-05
-8.0973033e-06
9.1183387e-05
0.00011111372
-0.00015376335
0.00026122055
-0.00027991307
0.00021438922
-0.000363349
0.00013991848
-0.00039107377
4.4201418e-05
-0.0003591288
-5.6246584e-05
-0.0002739678
-0.00014574893
-0.00014813834
-0.00021432493
1.6650916e-06
-0.00025569891
0.00015056153
-0.00025345843
0.000275299
-0.00021088654
0.00036032866
-0.00014410166
0.00039155371
-5.3331193e-05
0.00036272713
4.7890032e-05
0.00027834209
0.0001436065
0.00015084003
0.00021868544
0.00026388554
0.00010476258
0.00015022071
0.00020821514
0.00011093666
0.00027981224
6.8321382e-05
0.00030743488
1.6578777e-05
0.00028751855
-3.6330258e-05
0.00021959283
-7.782321e-05
0.00011832333
-0.00011305543
5.1615525e-06
-0.00014253713
-0.00011136731
-0.00013692957
-0.00021708155
-0.0001051723
-0.00028542973
-7.5753479e-05
-0.00030590106
-3.2859866e-05
-0.00028008795
2.2076927e-05
-0.00021126364
7.4782186e-05
-0.00011341053
0.00012083234
0.00015671227
0.00019506505
-5.2847177e-05
0.00038154094
-7.5539232e-05
0.00050750985
-5.7647522e-05
0.0005576642
-3.3575578e-05
0.00052744368
-6.1097307e-06
0.00040982704
3.9793427e-05
0.00022224642
7.4525191e-05
6.6406764e-06
7.3068613e-05
-0.00021477623
8.4487337e-05
-0.00040831916
8.8370631e-05
-0.00052463642
4.0563779e-05
-0.00055481129
-2.6849923e-06
-0.000507816
-2.4918369e-05
-0.00038446384
-4.8569968e-05
-0.00020515279
-5.8478714e-05
-4.0437694e-05
0.0023500643
-0.0024248621
0.0043967998
-0.0021222747
0.0057745043
-0.0014353521
0.006259742
-0.0005188133
0.0057854742
0.00046815805
0.0044187102
0.0014065575
0.0023892792
0.0021039562
1.8488239e-05
0.0024438595
-0.002366604
0.0024695796
-0.0044174914
0.002139258
-0.0057865373
0.0014096097
-0.0062548763
0.00046565398
-0.0057676901
-0.00051210454
-0.0043995131
-0.001416747
-0.0023783403
-0.0020796515
-0.0023968274
0.0031192778
-0.0055674421
0.0058097617
-0.0048127586
0.0076031245
-0.0032287148
0.008210094
-0.0011257828
0.0075519765
0.0011262756
0.0057476638
0.0032108701
0.0031014085
0.0047502115
1.9340537e-05
0.0055259275
-0.0030768205
0.0055657405
-0.0057463175
0.0048087551
-0.0075554603
0.0032187525
-0.0082056061
0.0011157998
-0.0075943574
-0.0011233532
-0.0058116273
-0.0031994771
-0.0031491355
-0.0047421433
-0.0055226607
-0.0030455001
-0.002499295
-0.0056920119
-0.0021662468
-0.0074871954
-0.0014335313
-0.0081338122
-0.00047916605
-0.0075270379
0.00051950129
-0.0057581108
0.001441943
-0.0031180938
0.0021101946
-1.9124722e-05
0.0024269584
0.0030936046
0.0024530112
0.0057570869
0.0021452728
0.0075309665
0.0014448729
0.0081297054
0.00051706089
0.0074788214
-0.00047246924
0.0056937289
-0.0014143846
0.0030744432
-0.0021228576
-0.0024708645
-0.0024126511
-6.443691e-05
-0.0045063642
-7.2533696e-05
-0.0059069775
-3.2917995e-05
-0.0063889495
2.806009e-06
-0.0058911559
2.1707676e-05
-0.0044915522
4.233933e-05
-0.0024262186
4.4860885e-05
-1.8005593e-05
1.8745415e-05
0.0024031747
3.1830879e-05
0.0044898103
5.8637222e-05
0.0058919142
4.2768948e-05
0.0063831564
2.5818756e-05
0.0059009127
9.7744219e-06
0.0045095175
-2.2989279e-05
0.0024413136
-5.4653772e-05
-5.1757888e-05
-8.9900576e-05
3.2825433e-05
-0.0001778428
1.5408525e-05
-0.00022592712
1.5166326e-05
-0.00023440941
1.1288303e-05
-0.00021272238
2.0641507e-08
-0.00015707864
-1.3304408e-05
-7.9919356e-05
-3.2298399e-05
-6.4374091e-06
-5.4736532e-05
7.3941266e-05
-4.8547797e-05
0.00015627165
-2.3693162e-05
0.00020976807
-1.0727476e-05
0.00023259019
2.9966437e-06
0.00022517847
1.7186139e-05
0.00018010668
2.2082514e-05
9.8899395e-05
2.655351e-05
3.977974e-05
-0.00027887805
0.0003188921
-0.00053009666
0.00026662713
-0.00069643055
0.00018150022
-0.00075236398
6.7221725e-05
-0.00069255386
-5.9789475e-05
-0.00052599612
-0.00017986215
-0.00028294252
-0.000275352
-6.1025833e-06
-0.00033157647
0.00027480659
-0.00032945697
0.00052296972
-0.00027185629
0.00069038703
-0.00017814479
0.0007504518
-5.7068122e-05
0.00069688993
7.0748005e-05
0.00053372648
0.00018524596
0.00028909621
0.00027118378
0.00032168734
0.00044521379
-0.00012523727
0.00081992697
-0.00010808604
0.001071697
-7.0269857e-05
0.0011612985
-2.2379716e-05
0.0010739755
2.7533474e-05
0.00082334347
7.0769918e-05
0.00044650166
0.00010148981
-6.436949e-07
0.00011556889
-0.00044709563
0.00011699496
-0.00082318752
0.00010423561
-0.0010743152
7.2982896e-05
-0.0011618491
3.046578e-05
-0.001071971
-1.9130095e-05
-0.00081989435
-6.6830696e-05
-0.000443991
-0.00010471958
-0.00012338808
-0.00031546333
0.00019344378
-0.00058751423
0.00016396485
-0.00076923242
0.00011144834
-0.00083278227
4.1170139e-05
-0.00076885461
-3.639419e-05
-0.00058792643
-0.00011015827
-0.00031862458
-0.00016781204
-2.8636689e-06
-0.00020019202
0.00031381223
-0.00019968094
0.0005847846
-0.00016673676
0.0007669527
-0.0001091852
0.00083240817
-3.4989693e-05
0.00077058492
4.2693158e-05
0.00059078564
0.00011296859
0.0003207876
0.00016527847
0.0001941818
0.00092263056
-0.0007307623
0.0017065187
-0.00061992331
0.0022315214
-0.00041355438
0.002417486
-0.00014479438
0.002235532
0.00014555977
0.0017127785
0.00041259527
0.00092836388
0.00061660254
1.6542159e-06
0.00072651765
-0.00092520065
0.00072717392
-0.0017103253
0.00061838785
-0.002234289
0.00041477855
-0.002417605
0.00014832628
-0.0022328609
-0.00014205091
-0.0017089528
-0.00041093951
-0.00092562696
-0.00061804739
-0.00072986965
-0.00071345298
-0.0013220409
-0.0017280174
-0.0018701452
-0.0017272325
-0.0013221921
-0.000716901
-3.7313732e-06
0.00071008815
0.0013171461
0.0017243466
0.0018699994
0.0017305869
0.0013271957
0.0007204611
)
;

boundaryField
{
    leftWall
    {
        type            cyclic;
        value           nonuniform List<scalar> 
16
(
1.2283596e-06
1.0441648e-06
2.3748846e-06
1.9317903e-06
6.2372609e-06
8.0028297e-06
2.1950573e-05
2.3302269e-05
-2.2647012e-05
-2.2207012e-05
-7.361767e-06
-7.1886163e-06
-1.0844209e-06
-3.2177143e-06
1.5755133e-06
-3.9456486e-06
)
;
    }
    rightWall
    {
        type            cyclic;
        value           nonuniform List<scalar> 
16
(
-1.2283596e-06
-1.0441648e-06
-2.3748846e-06
-1.9317903e-06
-6.2372609e-06
-8.0028297e-06
-2.1950573e-05
-2.3302269e-05
2.2647012e-05
2.2207012e-05
7.361767e-06
7.1886163e-06
1.0844209e-06
3.2177143e-06
-1.5755133e-06
3.9456486e-06
)
;
    }
    lowerWall
    {
        type            calculated;
        value           uniform 0;
    }
    atmosphere
    {
        type            calculated;
        value           nonuniform List<scalar> 
16
(
-1.3363672e-05
-1.1335351e-05
-7.5779553e-06
-2.6665641e-06
2.6470733e-06
7.554867e-06
1.1311466e-05
1.3348016e-05
1.3354399e-05
1.132987e-05
7.5780794e-06
2.6734864e-06
-2.6383903e-06
-7.5483494e-06
-1.1312781e-05
-1.3354194e-05
)
;
    }
    defaultFaces
    {
        type            empty;
        value           nonuniform List<scalar> 0();
    }
}


// ************************************************************************* //
