/*--------------------------------*- C++ -*----------------------------------*\
| =========                 |                                                 |
| \\      /  F ield         | OpenFOAM: The Open Source CFD Toolbox           |
|  \\    /   O peration     | Version:  2106                                  |
|   \\  /    A nd           | Website:  www.openfoam.com                      |
|    \\/     M anipulation  |                                                 |
\*---------------------------------------------------------------------------*/
FoamFile
{
    version     2.0;
    format      ascii;
    arch        "LSB;label=32;scalar=64";
    class       surfaceScalarField;
    location    "0.009";
    object      phi;
}
// * * * * * * * * * * * * * * * * * * * * * * * * * * * * * * * * * * * * * //

dimensions      [0 3 -1 0 0 0 0];

oriented        oriented;

internalField   nonuniform List<scalar> 
32512
(
0.0001012877
-0.0001012877
0.00020231934
-0.00010103164
0.00030283958
-0.00010052024
0.00040259455
-9.9754971e-05
0.00050133258
-9.8738027e-05
0.00059880489
-9.7472312e-05
0.00069476633
-9.5961436e-05
0.00078897602
-9.4209699e-05
0.00088119809
-9.2222069e-05
0.00097120226
-9.0004169e-05
0.0010587645
-8.7562249e-05
0.0011436677
-8.4903165e-05
0.001225702
-8.2034349e-05
0.0013046658
-7.8963784e-05
0.0013803658
-7.5699974e-05
0.0014526177
-7.2251911e-05
0.0015212467
-6.8629046e-05
0.001586088
-6.484125e-05
0.0016469868
-6.0898788e-05
0.0017037991
-5.6812279e-05
0.0017563917
-5.2592663e-05
0.0018046429
-4.8251163e-05
0.0018484421
-4.3799256e-05
0.0018876908
-3.924863e-05
0.0019223019
-3.4611151e-05
0.0019522007
-2.989883e-05
0.0019773245
-2.5123784e-05
0.0019976227
-2.0298202e-05
0.002013057
-1.5434308e-05
0.0020236014
-1.0544332e-05
0.0020292419
-5.6404867e-06
0.0020299767
-7.3487034e-07
0.0020258166
4.1601076e-06
0.0020167832
9.0334031e-06
0.0020029104
1.3872808e-05
0.0019842439
1.8666545e-05
0.0019608404
2.3403467e-05
0.0019327679
2.8072513e-05
0.001900105
3.2662872e-05
0.001862941
3.7164038e-05
0.0018213752
4.1565823e-05
0.0017755168
4.5858383e-05
0.0017254845
5.0032237e-05
0.0016714063
5.4078278e-05
0.0016134185
5.7987793e-05
0.001551666
6.1752471e-05
0.0014863016
6.5364419e-05
0.0014174854
6.8816162e-05
0.0013453848
7.2100657e-05
0.0012701735
7.5211289e-05
0.0011920316
7.8141883e-05
0.0011111449
8.0886695e-05
0.0010277045
8.3440417e-05
0.0009419063
8.5798173e-05
0.00085395078
8.7955516e-05
0.00076404235
8.9908427e-05
0.00067238905
9.1653305e-05
0.00057920208
9.3186966e-05
0.00048469545
9.4506637e-05
0.00038908549
9.5609954e-05
0.00029259054
9.6494952e-05
0.00019543047
9.7160066e-05
9.7826349e-05
9.7604125e-05
1.8984984e-13
9.7826348e-05
-9.7826348e-05
9.7826348e-05
-0.00019543047
9.7604125e-05
-0.00029259054
9.7160066e-05
-0.00038908549
9.6494952e-05
-0.00048469545
9.5609954e-05
-0.00057920208
9.4506637e-05
-0.00067238905
9.3186966e-05
-0.00076404235
9.1653305e-05
-0.00085395078
8.9908427e-05
-0.0009419063
8.7955517e-05
-0.0010277045
8.5798173e-05
-0.0011111449
8.3440417e-05
-0.0011920316
8.0886695e-05
-0.0012701735
7.8141883e-05
-0.0013453848
7.5211289e-05
-0.0014174854
7.2100657e-05
-0.0014863016
6.8816162e-05
-0.001551666
6.5364419e-05
-0.0016134185
6.1752471e-05
-0.0016714063
5.7987793e-05
-0.0017254845
5.4078278e-05
-0.0017755168
5.0032237e-05
-0.0018213752
4.5858383e-05
-0.001862941
4.1565823e-05
-0.001900105
3.7164038e-05
-0.0019327679
3.2662872e-05
-0.0019608404
2.8072513e-05
-0.0019842439
2.3403467e-05
-0.0020029104
1.8666545e-05
-0.0020167832
1.3872808e-05
-0.0020258166
9.0334031e-06
-0.0020299767
4.1601076e-06
-0.0020292419
-7.3487032e-07
-0.0020236014
-5.6404867e-06
-0.002013057
-1.0544332e-05
-0.0019976227
-1.5434308e-05
-0.0019773245
-2.0298202e-05
-0.0019522007
-2.5123784e-05
-0.0019223019
-2.989883e-05
-0.0018876908
-3.4611151e-05
-0.0018484421
-3.924863e-05
-0.0018046429
-4.3799256e-05
-0.0017563917
-4.8251163e-05
-0.0017037991
-5.2592663e-05
-0.0016469868
-5.6812279e-05
-0.001586088
-6.0898788e-05
-0.0015212467
-6.484125e-05
-0.0014526177
-6.8629046e-05
-0.0013803658
-7.2251911e-05
-0.0013046658
-7.5699974e-05
-0.001225702
-7.8963784e-05
-0.0011436677
-8.2034349e-05
-0.0010587645
-8.4903165e-05
-0.00097120226
-8.7562249e-05
-0.00088119809
-9.0004169e-05
-0.00078897602
-9.2222069e-05
-0.00069476633
-9.4209699e-05
-0.00059880489
-9.5961436e-05
-0.00050133258
-9.7472312e-05
-0.00040259455
-9.8738027e-05
-0.00030283958
-9.9754971e-05
-0.00020231934
-0.00010052024
-0.0001012877
-0.00010103164
-0.0001012877
0.00010167112
-0.00020295883
0.00020308511
-0.00020244562
0.00030398556
-0.00020142068
0.00040411754
-0.00019988695
0.00050322833
-0.00019784882
0.00060106814
-0.00019531212
0.00069739078
-0.00019228408
0.00079195442
-0.00018877334
0.0008845222
-0.00018478985
0.00097486293
-0.00018034489
0.0010627517
-0.00017545101
0.0011479705
-0.00017012193
0.0012303087
-0.00016437257
0.0013095638
-0.00015821894
0.0013855419
-0.00015167808
0.001458058
-0.00014476803
0.0015269367
-0.00013750772
0.0015920124
-0.00012991697
0.00165313
-0.00012201633
0.0017101448
-0.0001138271
0.0017629234
-0.00010537121
0.0018113434
-9.6671162e-05
0.0018552941
-8.7749952e-05
0.0018946764
-7.8631012e-05
0.0019294034
-6.9338127e-05
0.0019593999
-5.989537e-05
0.0019846032
-5.0327027e-05
0.0020049625
-4.0657529e-05
0.0020204396
-3.091138e-05
0.0020310084
-2.1113094e-05
0.002036655
-1.1287128e-05
0.0020373779
-1.4578177e-06
0.0020331874
8.3506442e-06
0.002024106
1.8114788e-05
0.0020101679
2.7810885e-05
0.0019914189
3.7415626e-05
0.0019679159
4.6906381e-05
0.0019397275
5.6260977e-05
0.0019069326
6.5457769e-05
0.0018696209
7.447571e-05
0.0018278923
8.3294396e-05
0.0017818566
9.189411e-05
0.001731633
0.00010025586
0.0016773499
0.00010836141
0.0016191443
0.00011619331
0.0015571619
0.00012373493
0.0014915558
0.00013097046
0.0014224871
0.00013788494
0.0013501235
0.00014446427
0.0012746395
0.00015069522
0.001196216
0.00015656544
0.0011150392
0.00016206342
0.0010313011
0.00016717857
0.00094519814
0.00017190112
0.00085693147
0.00017622219
0.00076670616
0.00018013373
0.00067473091
0.00018362856
0.00058121756
0.00018670031
0.00048638077
0.00018934343
0.00039043751
0.00019155321
0.00029360674
0.00019332572
0.00019610899
0.00019465782
9.8165917e-05
0.00019554719
1.9088951e-13
0.00019599227
-9.8165917e-05
0.00019599227
-0.00019610898
0.00019554719
-0.00029360674
0.00019465782
-0.00039043751
0.00019332572
-0.00048638077
0.00019155321
-0.00058121756
0.00018934343
-0.00067473091
0.00018670031
-0.00076670616
0.00018362856
-0.00085693147
0.00018013373
-0.00094519814
0.00017622219
-0.0010313011
0.00017190112
-0.0011150392
0.00016717857
-0.001196216
0.00016206342
-0.0012746395
0.00015656544
-0.0013501235
0.00015069522
-0.0014224871
0.00014446427
-0.0014915558
0.00013788494
-0.0015571619
0.00013097046
-0.0016191443
0.00012373493
-0.0016773499
0.00011619331
-0.001731633
0.00010836141
-0.0017818566
0.00010025586
-0.0018278923
9.189411e-05
-0.0018696209
8.3294396e-05
-0.0019069326
7.447571e-05
-0.0019397275
6.5457769e-05
-0.0019679159
5.6260977e-05
-0.0019914189
4.6906381e-05
-0.0020101679
3.7415626e-05
-0.002024106
2.7810885e-05
-0.0020331874
1.8114788e-05
-0.0020373779
8.3506443e-06
-0.002036655
-1.4578176e-06
-0.0020310084
-1.1287128e-05
-0.0020204396
-2.1113094e-05
-0.0020049625
-3.091138e-05
-0.0019846032
-4.0657529e-05
-0.0019593999
-5.0327027e-05
-0.0019294034
-5.989537e-05
-0.0018946764
-6.9338127e-05
-0.0018552941
-7.8631012e-05
-0.0018113434
-8.7749952e-05
-0.0017629234
-9.6671162e-05
-0.0017101448
-0.00010537121
-0.00165313
-0.0001138271
-0.0015920124
-0.00012201633
-0.0015269367
-0.00012991697
-0.001458058
-0.00013750772
-0.0013855419
-0.00014476803
-0.0013095638
-0.00015167808
-0.0012303087
-0.00015821894
-0.0011479705
-0.00016437257
-0.0010627517
-0.00017012193
-0.00097486293
-0.00017545101
-0.00088452221
-0.00018034489
-0.00079195442
-0.00018478985
-0.00069739079
-0.00018877334
-0.00060106814
-0.00019228408
-0.00050322833
-0.00019531212
-0.00040411754
-0.00019784882
-0.00030398556
-0.00019988695
-0.00020308511
-0.00020142068
-0.00010167112
-0.00020244562
-0.00020295883
0.00010231243
-0.00030527126
0.00020436594
-0.00030449913
0.00030590235
-0.00030295709
0.00040666497
-0.00030064957
0.00050639933
-0.00029758318
0.00060485391
-0.0002937667
0.00070178087
-0.00028921104
0.0007969367
-0.00028392917
0.00089008296
-0.00027793611
0.00098098691
-0.00027124884
0.0010694221
-0.00026388623
0.0011551692
-0.00025586898
0.0012380162
-0.00024721953
0.0013177592
-0.00023796198
0.0013942031
-0.00022812199
0.0014671618
-0.00021772672
0.0015364587
-0.00020680467
0.0016019274
-0.00019538564
0.0016634117
-0.0001835006
0.0017207662
-0.00017118159
0.0017738566
-0.00015846161
0.0018225599
-0.00014537453
0.0018667649
-0.00013195496
0.0019063721
-0.00011823814
0.0019412938
-0.00010425988
0.0019714549
-9.0056398e-05
0.0019967921
-7.5664232e-05
0.0020172547
-6.1120142e-05
0.0020328043
-4.6460998e-05
0.0020434149
-3.1723679e-05
0.0020490727
-1.6944971e-05
0.0020497764
-2.1614643e-06
0.0020455364
1.2590576e-05
0.0020363758
2.7275414e-05
0.0020223291
4.1857582e-05
0.0020034426
5.6302177e-05
0.0019797739
7.0575072e-05
0.001951392
8.4642895e-05
0.0019183766
9.8473093e-05
0.0018808183
0.00011203402
0.0018388177
0.00012529499
0.0017924855
0.00013822638
0.0017419417
0.00015079963
0.0016873158
0.00016298733
0.0016287458
0.00017476327
0.0015663783
0.00018610245
0.0015003676
0.00019698114
0.0014308757
0.00020737686
0.0013580715
0.00021726845
0.0012821307
0.00022663604
0.001203235
0.00023546109
0.0011215721
0.00024372635
0.0010373348
0.00025141591
0.00095072075
0.00025851513
0.00086193226
0.00026501068
0.00077117547
0.00027089052
0.00067866017
0.00027614386
0.00058459931
0.00028076117
0.00048920861
0.00028473414
0.00039270613
0.00028805568
0.00029531191
0.00029071994
0.00019724753
0.00029272221
9.8735716e-05
0.000294059
1.917159e-13
0.00029472798
-9.8735715e-05
0.00029472798
-0.00019724753
0.000294059
-0.00029531191
0.00029272221
-0.00039270613
0.00029071994
-0.00048920861
0.00028805568
-0.00058459931
0.00028473414
-0.00067866017
0.00028076117
-0.00077117547
0.00027614386
-0.00086193226
0.00027089052
-0.00095072075
0.00026501068
-0.0010373348
0.00025851513
-0.0011215721
0.00025141591
-0.001203235
0.00024372635
-0.0012821307
0.00023546109
-0.0013580715
0.00022663604
-0.0014308757
0.00021726845
-0.0015003676
0.00020737686
-0.0015663783
0.00019698114
-0.0016287458
0.00018610245
-0.0016873158
0.00017476327
-0.0017419417
0.00016298733
-0.0017924855
0.00015079963
-0.0018388177
0.00013822638
-0.0018808183
0.00012529499
-0.0019183766
0.00011203402
-0.001951392
9.8473093e-05
-0.0019797739
8.4642895e-05
-0.0020034426
7.0575072e-05
-0.0020223291
5.6302177e-05
-0.0020363758
4.1857582e-05
-0.0020455364
2.7275414e-05
-0.0020497764
1.2590576e-05
-0.0020490727
-2.1614642e-06
-0.0020434149
-1.6944971e-05
-0.0020328043
-3.1723679e-05
-0.0020172547
-4.6460998e-05
-0.0019967921
-6.1120142e-05
-0.0019714549
-7.5664232e-05
-0.0019412938
-9.0056398e-05
-0.0019063721
-0.00010425988
-0.0018667649
-0.00011823814
-0.0018225599
-0.00013195496
-0.0017738566
-0.00014537453
-0.0017207662
-0.00015846161
-0.0016634117
-0.00017118159
-0.0016019274
-0.0001835006
-0.0015364587
-0.00019538564
-0.0014671618
-0.00020680467
-0.0013942031
-0.00021772672
-0.0013177592
-0.00022812199
-0.0012380162
-0.00023796198
-0.0011551692
-0.00024721953
-0.0010694221
-0.00025586898
-0.00098098691
-0.00026388623
-0.00089008296
-0.00027124884
-0.0007969367
-0.00027793611
-0.00070178087
-0.00028392917
-0.00060485391
-0.00028921104
-0.00050639933
-0.0002937667
-0.00040666497
-0.00029758318
-0.00030590235
-0.00030064957
-0.00020436594
-0.00030295709
-0.00010231243
-0.00030449913
-0.00030527126
0.00010321578
-0.00040848704
0.00020617013
-0.00040745348
0.00030860236
-0.00040538933
0.00041025331
-0.00040230052
0.00051086606
-0.00039819593
0.00061018667
-0.00039308731
0.00070796492
-0.00038698929
0.00080395502
-0.00037991926
0.00089791625
-0.00037189735
0.00098961371
-0.0003629463
0.0010788189
-0.0003530914
0.0011653103
-0.0003423604
0.0012488741
-0.00033078335
0.0013293047
-0.00031839254
0.0014064051
-0.00030522237
0.0014799875
-0.00029130918
0.001549874
-0.00027669117
0.0016158966
-0.00026140825
0.0016778979
-0.0002455019
0.0017357314
-0.00022901502
0.0017892616
-0.00021199181
0.0018383646
-0.0001944776
0.0018829284
-0.00017651874
0.0019228527
-0.00015816243
0.0019580494
-0.0001394566
0.0019884427
-0.00012044973
0.0020139693
-0.00010119074
0.0020345779
-8.1728836e-05
0.0020502303
-6.2113381e-05
0.0020609004
-4.2393733e-05
0.0020665745
-2.2619122e-05
0.0020672516
-2.8385077e-06
0.0020629426
1.6899574e-05
0.0020536708
3.6547161e-05
0.0020394716
5.6056856e-05
0.0020203917
7.5382027e-05
0.0019964898
9.4476989e-05
0.0019678356
0.00011329707
0.00193451
0.00013179873
0.0018966044
0.00014993961
0.0018542207
0.0001676787
0.0018074707
0.00018497636
0.0017564759
0.00020179441
0.001701367
0.00021809623
0.0016422835
0.00023384678
0.0015793733
0.00024901264
0.0015127923
0.00026356212
0.001442704
0.00027746522
0.0013692788
0.00029069366
0.0012926939
0.00030322093
0.0012131327
0.00031502229
0.0011307843
0.00032607475
0.0010458431
0.00033635705
0.00095850855
0.00034584971
0.00086898427
0.00035453496
0.00077747805
0.00036239674
0.00068420123
0.00036942069
0.00058936829
0.0003755941
0.00049319649
0.00038090594
0.00039590542
0.00038534676
0.00029771661
0.00038890875
0.00019885314
0.00039158568
9.953927e-05
0.00039337288
1.9266243e-13
0.00039426725
-9.953927e-05
0.00039426725
-0.00019885314
0.00039337288
-0.00029771661
0.00039158568
-0.00039590542
0.00038890875
-0.00049319649
0.00038534676
-0.00058936829
0.00038090594
-0.00068420123
0.0003755941
-0.00077747805
0.00036942069
-0.00086898427
0.00036239674
-0.00095850854
0.00035453496
-0.0010458431
0.00034584971
-0.0011307843
0.00033635705
-0.0012131327
0.00032607475
-0.0012926939
0.00031502229
-0.0013692788
0.00030322093
-0.001442704
0.00029069366
-0.0015127923
0.00027746522
-0.0015793733
0.00026356212
-0.0016422835
0.00024901264
-0.001701367
0.00023384678
-0.0017564759
0.00021809623
-0.0018074707
0.00020179441
-0.0018542207
0.00018497636
-0.0018966044
0.0001676787
-0.00193451
0.00014993961
-0.0019678356
0.00013179873
-0.0019964898
0.00011329707
-0.0020203917
9.4476989e-05
-0.0020394716
7.5382027e-05
-0.0020536708
5.6056856e-05
-0.0020629426
3.6547161e-05
-0.0020672516
1.6899574e-05
-0.0020665745
-2.8385076e-06
-0.0020609004
-2.2619122e-05
-0.0020502303
-4.2393733e-05
-0.0020345779
-6.2113381e-05
-0.0020139693
-8.1728836e-05
-0.0019884427
-0.00010119074
-0.0019580494
-0.00012044973
-0.0019228527
-0.0001394566
-0.0018829284
-0.00015816243
-0.0018383646
-0.00017651874
-0.0017892616
-0.0001944776
-0.0017357314
-0.00021199181
-0.0016778979
-0.00022901502
-0.0016158966
-0.0002455019
-0.001549874
-0.00026140825
-0.0014799875
-0.00027669117
-0.0014064051
-0.00029130918
-0.0013293047
-0.00030522237
-0.0012488741
-0.00031839254
-0.0011653103
-0.00033078335
-0.0010788189
-0.0003423604
-0.00098961371
-0.0003530914
-0.00089791625
-0.0003629463
-0.00080395502
-0.00037189735
-0.00070796492
-0.00037991926
-0.00061018667
-0.00038698929
-0.00051086606
-0.00039308731
-0.00041025331
-0.00039819593
-0.00030860236
-0.00040230052
-0.00020617013
-0.00040538933
-0.00010321578
-0.00040745348
-0.00040848704
0.00010438725
-0.0005128743
0.00020850982
-0.00051157605
0.00031210378
-0.00050898329
0.00041490675
-0.00050510349
0.00051665862
-0.0004999478
0.00061710234
-0.00049353103
0.00071598462
-0.00048587157
0.00081305666
-0.00047699131
0.00090807485
-0.00046691554
0.0010008014
-0.0004556729
0.0010910052
-0.00044329518
0.0011784621
-0.00042981727
0.0012629557
-0.00041527698
0.0013442781
-0.00039971491
0.00142223
-0.00038317429
0.0014966217
-0.00036570082
0.001567273
-0.00034734253
0.0016340143
-0.00032814957
0.0016966865
-0.00030817407
0.0017551414
-0.00028746995
0.0018092424
-0.00026609276
0.0018588642
-0.00024409945
0.0019038938
-0.00022154827
0.0019442298
-0.00019849851
0.0019797836
-0.00017501038
0.0020104787
-0.0001511448
0.0020362512
-0.00012696323
0.0020570498
-0.00010252747
0.0020728359
-7.7899515e-05
0.0020835836
-5.3141376e-05
0.0020892793
-2.8314877e-05
0.0020899223
-3.4815078e-06
0.0020855242
2.1297764e-05
0.0020761087
4.5962655e-05
0.0020617119
7.0453669e-05
0.0020423816
9.471229e-05
0.0020181774
0.00011868115
0.0019891703
0.00014230417
0.0019554424
0.00016552668
0.0019170865
0.00018829553
0.0018742059
0.00021055925
0.0018269142
0.0002322681
0.0017753344
0.00025337421
0.001719599
0.00027383165
0.0016598493
0.00029359648
0.0015962351
0.00031262684
0.0015289142
0.000330883
0.001458052
0.00034832739
0.001383821
0.00036492462
0.0013064005
0.0003806415
0.0012259757
0.00039544706
0.0011427379
0.00040931255
0.0010568835
0.00042221142
0.00096861396
0.00043411929
0.00087813495
0.00044501397
0.00078565629
0.0004548754
0.00069139132
0.00046368566
0.00059555654
0.00047142888
0.00049837119
0.00047809129
0.00040005683
0.00048366112
0.00030083695
0.00048812862
0.0002009366
0.00049148602
0.00010058197
0.00049372751
1.9394898e-13
0.00049484922
-0.00010058197
0.00049484922
-0.0002009366
0.00049372751
-0.00030083695
0.00049148602
-0.00040005683
0.00048812862
-0.00049837119
0.00048366112
-0.00059555654
0.00047809129
-0.00069139132
0.00047142888
-0.00078565629
0.00046368566
-0.00087813495
0.0004548754
-0.00096861396
0.00044501397
-0.0010568835
0.00043411929
-0.0011427379
0.00042221142
-0.0012259757
0.00040931255
-0.0013064005
0.00039544706
-0.001383821
0.0003806415
-0.001458052
0.00036492462
-0.0015289142
0.00034832739
-0.0015962351
0.000330883
-0.0016598493
0.00031262684
-0.001719599
0.00029359648
-0.0017753344
0.00027383165
-0.0018269142
0.00025337421
-0.0018742059
0.0002322681
-0.0019170865
0.00021055925
-0.0019554424
0.00018829553
-0.0019891703
0.00016552668
-0.0020181774
0.00014230417
-0.0020423816
0.00011868115
-0.0020617119
9.4712291e-05
-0.0020761087
7.0453669e-05
-0.0020855242
4.5962655e-05
-0.0020899223
2.1297764e-05
-0.0020892793
-3.4815077e-06
-0.0020835836
-2.8314877e-05
-0.0020728359
-5.3141375e-05
-0.0020570498
-7.7899515e-05
-0.0020362512
-0.00010252747
-0.0020104787
-0.00012696323
-0.0019797836
-0.0001511448
-0.0019442298
-0.00017501038
-0.0019038938
-0.00019849851
-0.0018588642
-0.00022154827
-0.0018092424
-0.00024409945
-0.0017551414
-0.00026609276
-0.0016966865
-0.00028746995
-0.0016340143
-0.00030817407
-0.001567273
-0.00032814957
-0.0014966217
-0.00034734253
-0.00142223
-0.00036570082
-0.0013442781
-0.00038317429
-0.0012629557
-0.00039971491
-0.0011784621
-0.00041527698
-0.0010910052
-0.00042981727
-0.0010008014
-0.00044329518
-0.00090807485
-0.0004556729
-0.00081305666
-0.00046691554
-0.00071598462
-0.00047699131
-0.00061710234
-0.00048587157
-0.00051665862
-0.00049353103
-0.00041490675
-0.0004999478
-0.00031210378
-0.00050510349
-0.00020850982
-0.00050898329
-0.00010438725
-0.00051157605
-0.0005128743
0.00010583489
-0.00061870919
0.00021140107
-0.00061714223
0.00031643063
-0.00061401285
0.0004206572
-0.00060933006
0.00052381676
-0.00060310736
0.0006256484
-0.00059536266
0.00072589502
-0.00058611819
0.00082430413
-0.00057540042
0.00092062853
-0.00056323994
0.001014627
-0.00054967135
0.0011060649
-0.0005347331
0.001194715
-0.00051846736
0.0012803578
-0.00050091982
0.0013627825
-0.00048213954
0.0014417869
-0.00046217876
0.0015171788
-0.0004410927
0.0015887757
-0.00041893938
0.0016564055
-0.00039577938
0.0017199071
-0.00037167566
0.0017791305
-0.00034669334
0.0018339372
-0.00032089948
0.0018842006
-0.00029436289
0.0019298062
-0.00026715386
0.0019706517
-0.00023934399
0.0020066473
-0.00021100597
0.0020377158
-0.00018221333
0.0020637928
-0.00015304026
0.0020848267
-0.00012356136
0.0021007787
-9.3851476e-05
0.0021116227
-6.3985423e-05
0.0021173457
-3.4037831e-05
0.0021179471
-4.0829055e-06
0.0021134391
2.5805767e-05
0.0021038463
5.555542e-05
0.0020892057
8.5094275e-05
0.0020695663
0.00011435175
0.0020449888
0.00014325863
0.0020155457
0.00017174727
0.0019813206
0.00019975173
0.0019424082
0.00022720794
0.0018989136
0.00025405383
0.0018509523
0.00028022946
0.0017986494
0.00030567714
0.0017421395
0.00033034153
0.0016815662
0.00035416973
0.0016170817
0.00037711136
0.0015488461
0.0003991186
0.0014770272
0.00042014625
0.0014018001
0.00044015175
0.0013233464
0.00045909524
0.0012418539
0.0004769395
0.0011575165
0.00049364999
0.0010705331
0.00050919485
0.00098110751
0.00052354485
0.00088944813
0.00053667335
0.00079576719
0.00054855634
0.00070028055
0.0005591723
0.00060320716
0.00056850227
0.00050476873
0.00057652973
0.00040518925
0.0005832406
0.00030469466
0.00058862322
0.0002035124
0.00059266828
0.00010187106
0.00059536885
1.9588512e-13
0.00059672028
-0.00010187106
0.00059672028
-0.0002035124
0.00059536885
-0.00030469466
0.00059266828
-0.00040518925
0.00058862322
-0.00050476873
0.0005832406
-0.00060320716
0.00057652973
-0.00070028055
0.00056850227
-0.00079576719
0.0005591723
-0.00088944813
0.00054855634
-0.00098110751
0.00053667335
-0.0010705331
0.00052354485
-0.0011575165
0.00050919485
-0.0012418539
0.00049364999
-0.0013233464
0.0004769395
-0.0014018001
0.00045909524
-0.0014770272
0.00044015175
-0.0015488461
0.00042014625
-0.0016170817
0.0003991186
-0.0016815662
0.00037711136
-0.0017421395
0.00035416973
-0.0017986494
0.00033034153
-0.0018509523
0.00030567714
-0.0018989136
0.00028022946
-0.0019424082
0.00025405383
-0.0019813206
0.00022720794
-0.0020155457
0.00019975173
-0.0020449888
0.00017174727
-0.0020695663
0.00014325863
-0.0020892057
0.00011435175
-0.0021038463
8.5094275e-05
-0.0021134391
5.555542e-05
-0.0021179471
2.5805767e-05
-0.0021173457
-4.0829054e-06
-0.0021116227
-3.4037831e-05
-0.0021007787
-6.3985423e-05
-0.0020848267
-9.3851475e-05
-0.0020637928
-0.00012356136
-0.0020377158
-0.00015304026
-0.0020066473
-0.00018221333
-0.0019706517
-0.00021100597
-0.0019298062
-0.00023934399
-0.0018842006
-0.00026715386
-0.0018339372
-0.00029436289
-0.0017791305
-0.00032089948
-0.0017199071
-0.00034669334
-0.0016564055
-0.00037167566
-0.0015887757
-0.00039577938
-0.0015171788
-0.00041893938
-0.0014417869
-0.0004410927
-0.0013627825
-0.00046217876
-0.0012803578
-0.00048213954
-0.001194715
-0.00050091982
-0.0011060649
-0.00051846736
-0.001014627
-0.0005347331
-0.00092062853
-0.00054967135
-0.00082430413
-0.00056323994
-0.00072589502
-0.00057540042
-0.0006256484
-0.00058611819
-0.00052381677
-0.00059536266
-0.0004206572
-0.00060310736
-0.00031643063
-0.00060933006
-0.00021140107
-0.00061401285
-0.00010583489
-0.00061714223
-0.00061870919
0.00010756869
-0.00072627788
0.00021486387
-0.00072443741
0.00032161282
-0.0007207618
0.00042754444
-0.00071526167
0.00053238999
-0.00070795292
0.00063588394
-0.00069885661
0.00073776466
-0.00068799892
0.00083777525
-0.000675411
0.00093566418
-0.00066112887
0.001031186
-0.00064519322
0.0011241023
-0.00062764932
0.0012141817
-0.00060854675
0.0013012011
-0.00058793929
0.0013849462
-0.00056588462
0.0014652116
-0.0005424442
0.0015418019
-0.00051768295
0.0016145316
-0.00049166907
0.001683226
-0.00046447381
0.0017477215
-0.00043617116
0.0018078658
-0.00040683766
0.0018635185
-0.00037655212
0.001914551
-0.00034539539
0.0019608472
-0.00031345007
0.0020023035
-0.00028080029
0.002038829
-0.00024753143
0.0020703455
-0.00021372988
0.002096788
-0.00017948278
0.0021181044
-0.00014487777
0.0021342557
-0.00011000275
0.0021452159
-7.4945616e-05
0.0021509721
-3.9794002e-05
0.0021515242
-4.635065e-06
0.0021468852
3.0444771e-05
0.0021370806
6.5360046e-05
0.0021221484
0.00010002648
0.0021021389
0.00013436121
0.0020771145
0.000168283
0.0020471494
0.00020171243
0.002012329
0.00023457213
0.00197275
0.00026678692
0.0019285199
0.00029828398
0.0018797563
0.00032899302
0.001826587
0.00035884643
0.0017691492
0.00038777934
0.0017075891
0.00041572978
0.0016420618
0.00044263875
0.0015727301
0.00046845028
0.0014997648
0.00049311149
0.001423344
0.00051657262
0.0013436521
0.00053878706
0.0012608803
0.00055971134
0.0011752251
0.00057930514
0.0010868887
0.00059753126
0.00099607796
0.00061435562
0.00090300413
0.00062974718
0.00080788253
0.00064367794
0.00071093198
0.00065612285
0.00061237442
0.00066705983
0.00051243447
0.00067646967
0.00041133908
0.00068433599
0.00030931707
0.00069064523
0.00020659878
0.00069538657
0.00010341569
0.00069855194
1.9855836e-13
0.00070013597
-0.00010341569
0.00070013597
-0.00020659878
0.00069855194
-0.00030931707
0.00069538657
-0.00041133908
0.00069064523
-0.00051243447
0.00068433599
-0.00061237442
0.00067646967
-0.00071093198
0.00066705983
-0.00080788253
0.00065612285
-0.00090300413
0.00064367794
-0.00099607796
0.00062974718
-0.0010868887
0.00061435562
-0.0011752251
0.00059753126
-0.0012608803
0.00057930514
-0.0013436521
0.00055971134
-0.001423344
0.00053878706
-0.0014997648
0.00051657262
-0.0015727301
0.00049311149
-0.0016420618
0.00046845028
-0.0017075891
0.00044263875
-0.0017691492
0.00041572978
-0.001826587
0.00038777934
-0.0018797563
0.00035884643
-0.0019285199
0.00032899302
-0.00197275
0.00029828398
-0.002012329
0.00026678692
-0.0020471494
0.00023457213
-0.0020771145
0.00020171243
-0.0021021389
0.000168283
-0.0021221484
0.00013436121
-0.0021370806
0.00010002648
-0.0021468852
6.5360046e-05
-0.0021515242
3.0444771e-05
-0.0021509721
-4.6350648e-06
-0.0021452159
-3.9794002e-05
-0.0021342557
-7.4945616e-05
-0.0021181044
-0.00011000275
-0.002096788
-0.00014487777
-0.0020703455
-0.00017948278
-0.002038829
-0.00021372988
-0.0020023035
-0.00024753143
-0.0019608472
-0.00028080029
-0.001914551
-0.00031345007
-0.0018635185
-0.00034539539
-0.0018078658
-0.00037655212
-0.0017477215
-0.00040683766
-0.001683226
-0.00043617116
-0.0016145316
-0.00046447381
-0.0015418019
-0.00049166907
-0.0014652116
-0.00051768295
-0.0013849462
-0.0005424442
-0.0013012011
-0.00056588462
-0.0012141817
-0.00058793929
-0.0011241023
-0.00060854675
-0.0010311861
-0.00062764932
-0.00093566418
-0.00064519322
-0.00083777525
-0.00066112887
-0.00073776466
-0.000675411
-0.00063588394
-0.00068799892
-0.00053238999
-0.00069885661
-0.00042754444
-0.00070795292
-0.00032161282
-0.00071526167
-0.00021486387
-0.0007207618
-0.00010756869
-0.00072443741
-0.00072627788
0.0001096007
-0.00083587857
0.00021892224
-0.00083375896
0.00032768632
-0.00082952587
0.00043561625
-0.0008231916
0.00054243781
-0.00081477448
0.00064788004
-0.00080429884
0.00075167601
-0.0007917949
0.00085356362
-0.00077729862
0.00095328632
-0.00076085157
0.0010505938
-0.00074250073
0.0011452428
-0.00072229832
0.0012369976
-0.00070030157
0.0013256309
-0.0006765725
0.0014109239
-0.00065117767
0.0014926677
-0.00062418794
0.0015706629
-0.00059567819
0.0016447209
-0.00056572705
0.0017146637
-0.00053441663
0.0017803248
-0.00050183225
0.0018415492
-0.00046806211
0.0018981941
-0.00043319702
0.0019501289
-0.00039733015
0.0019972355
-0.00036055665
0.0020394086
-0.00032297345
0.0020765561
-0.0002846789
0.0021085987
-0.00024577251
0.0021354706
-0.00020635466
0.0021571191
-0.00016652628
0.002173505
-0.00012638861
0.0021846022
-8.6042864e-05
0.0021903982
-4.5589978e-05
0.0021908935
-5.130318e-06
0.0021861017
3.5236594e-05
0.0021760493
7.5412352e-05
0.0021607759
0.00011529993
0.0021403332
0.00015480393
0.0021147853
0.00019383084
0.0020842085
0.00023228929
0.0020486904
0.00027009023
0.0020083301
0.00030714718
0.0019632377
0.0003433764
0.0019135336
0.00037869709
0.0018593485
0.00041303153
0.0018008227
0.00044630521
0.0017381055
0.00047844696
0.0016713552
0.00050938908
0.0016007381
0.00053906734
0.0015264285
0.00056742113
0.0014486077
0.00059439341
0.0013674639
0.00061993081
0.0012831917
0.00064398358
0.0011959912
0.00066650559
0.0011060682
0.00068745434
0.0010136329
0.00070679086
0.00091890039
0.00072447973
0.00082208935
0.00074048898
0.00072342212
0.00075479008
0.00062312413
0.00076735783
0.00052142345
0.00077817035
0.00041855045
0.000787209
0.00031473735
0.00079445832
0.0002102179
0.00079990603
0.00010522692
0.00080354292
2.0192648e-13
0.00080536289
-0.00010522692
0.00080536289
-0.0002102179
0.00080354292
-0.00031473735
0.00079990603
-0.00041855045
0.00079445832
-0.00052142345
0.000787209
-0.00062312413
0.00077817035
-0.00072342212
0.00076735783
-0.00082208935
0.00075479008
-0.00091890039
0.00074048898
-0.0010136329
0.00072447973
-0.0011060682
0.00070679086
-0.0011959912
0.00068745434
-0.0012831917
0.00066650559
-0.0013674639
0.00064398358
-0.0014486077
0.00061993081
-0.0015264285
0.00059439341
-0.0016007381
0.00056742113
-0.0016713552
0.00053906734
-0.0017381055
0.00050938908
-0.0018008227
0.00047844696
-0.0018593485
0.00044630521
-0.0019135336
0.00041303153
-0.0019632377
0.00037869709
-0.0020083301
0.0003433764
-0.0020486904
0.00030714718
-0.0020842085
0.00027009023
-0.0021147853
0.00023228929
-0.0021403332
0.00019383084
-0.0021607759
0.00015480393
-0.0021760493
0.00011529993
-0.0021861017
7.5412352e-05
-0.0021908935
3.5236594e-05
-0.0021903982
-5.1303178e-06
-0.0021846022
-4.5589977e-05
-0.002173505
-8.6042864e-05
-0.0021571191
-0.00012638861
-0.0021354706
-0.00016652628
-0.0021085987
-0.00020635466
-0.0020765561
-0.00024577251
-0.0020394086
-0.0002846789
-0.0019972355
-0.00032297345
-0.0019501289
-0.00036055665
-0.0018981941
-0.00039733015
-0.0018415492
-0.00043319702
-0.0017803248
-0.00046806211
-0.0017146637
-0.00050183225
-0.0016447209
-0.00053441663
-0.0015706629
-0.00056572705
-0.0014926677
-0.00059567819
-0.0014109239
-0.00062418794
-0.0013256309
-0.00065117767
-0.0012369976
-0.0006765725
-0.0011452428
-0.00070030157
-0.0010505938
-0.00072229832
-0.00095328632
-0.00074250073
-0.00085356362
-0.00076085157
-0.00075167601
-0.00077729862
-0.00064788004
-0.0007917949
-0.00054243781
-0.00080429884
-0.00043561625
-0.00081477448
-0.00032768632
-0.0008231916
-0.00021892224
-0.00082952587
-0.0001096007
-0.00083375896
-0.00083587857
0.00011194505
-0.00094782363
0.00022360447
-0.00094541837
0.00033469345
-0.00094061486
0.00044492891
-0.00093342706
0.00055403028
-0.00092387585
0.00066172036
-0.00091198892
0.00076772612
-0.00089780065
0.00087177946
-0.00088135196
0.00097361803
-0.00086269013
0.0010729859
-0.00084186862
0.0011696344
-0.0008189468
0.0012633226
-0.00079398976
0.0013538181
-0.00076706801
0.0014408976