/*--------------------------------*- C++ -*----------------------------------*\
| =========                 |                                                 |
| \\      /  F ield         | OpenFOAM: The Open Source CFD Toolbox           |
|  \\    /   O peration     | Version:  2306                                  |
|   \\  /    A nd           | Website:  www.openfoam.com                      |
|    \\/     M anipulation  |                                                 |
\*---------------------------------------------------------------------------*/
FoamFile
{
    version     2.0;
    format      ascii;
    arch        "LSB;label=32;scalar=64";
    class       volVectorField;
    location    "0.05";
    object      U;
}
// * * * * * * * * * * * * * * * * * * * * * * * * * * * * * * * * * * * * * //

dimensions      [0 1 -1 0 0 0 0];

internalField   nonuniform List<vector> 
6400
(
(-0.00057788323 -0.00098201195 -1.4874406e-20)
(-0.00055146894 -0.00095722564 -1.4417675e-20)
(-0.00052653592 -0.00093338742 -9.1645553e-21)
(-0.00050298394 -0.00091045756 -2.9509997e-20)
(-0.00048072041 -0.00088839798 -1.8813626e-20)
(-0.00045965978 -0.00086717228 3.4964578e-20)
(-0.00043972294 -0.00084674563 1.5032453e-21)
(-0.0004208367 -0.00082708477 1.0823802e-20)
(-0.00040293326 -0.00080815791 4.6262629e-21)
(-0.0003859498 -0.00078993473 -1.0340426e-20)
(-0.00036982805 -0.00077238631 -2.6272468e-21)
(-0.00035451392 -0.00075548505 9.2306271e-21)
(-0.00033995718 -0.00073920465 -7.774418e-21)
(-0.00032611115 -0.00072352003 -8.189482e-21)
(-0.00031293242 -0.00070840729 -2.1889232e-21)
(-0.00030038057 -0.00069384365 -4.4230631e-21)
(-0.00028841797 -0.00067980742 2.1908548e-21)
(-0.00027700956 -0.00066627793 -3.9984867e-21)
(-0.00026612263 -0.00065323547 -1.3205182e-20)
(-0.00025572668 -0.00064066127 -6.1705656e-22)
(-0.0002457932 -0.00062853748 -2.5207577e-21)
(-0.00023629559 -0.00061684704 -2.2624691e-21)
(-0.00022720896 -0.00060557371 -1.0077159e-21)
(-0.00021851002 -0.00059470207 -3.1536841e-21)
(-0.00021017701 -0.00058421736 1.8566158e-21)
(-0.00020218952 -0.00057410553 9.1712889e-22)
(-0.00019452842 -0.00056435321 -2.0742523e-21)
(-0.0001871758 -0.00055494763 3.3193136e-21)
(-0.00018011483 -0.00054587664 -1.6872587e-21)
(-0.00017332973 -0.00053712864 -3.9925609e-21)
(-0.00016680567 -0.00052869257 -1.0708701e-21)
(-0.00016052871 -0.00052055789 4.2552859e-21)
(-0.00015448577 -0.00051271455 -2.9441555e-21)
(-0.00014866451 -0.00050515296 -2.9254879e-21)
(-0.00014305332 -0.00049786396 3.1752832e-21)
(-0.00013764128 -0.00049083883 -2.1101304e-22)
(-0.0001324181 -0.00048406922 1.3506517e-21)
(-0.00012737405 -0.00047754721 -1.4105625e-21)
(-0.00012249997 -0.0004712652 -5.2364045e-21)
(-0.00011778723 -0.00046521595 -3.922321e-22)
(-0.00011322765 -0.00045939254 1.8172384e-21)
(-0.0001088135 -0.00045378838 2.4967529e-21)
(-0.0001045375 -0.00044839717 -5.3432314e-22)
(-0.00010039274 -0.00044321288 -1.9667211e-21)
(-9.6372682e-05 -0.00043822978 -4.6083647e-22)
(-9.2471127e-05 -0.00043344239 2.4142148e-21)
(-8.8682206e-05 -0.00042884547 4.1239961e-21)
(-8.5000361e-05 -0.00042443401 1.2414021e-21)
(-8.1420312e-05 -0.00042020324 -1.1975253e-21)
(-7.7937041e-05 -0.0004161486 8.3750312e-22)
(-7.4545784e-05 -0.00041226574 3.3238009e-21)
(-7.124201e-05 -0.00040855051 9.4628844e-22)
(-6.802141e-05 -0.00040499894 -3.5341757e-23)
(-6.4879884e-05 -0.00040160723 -7.2883076e-22)
(-6.181353e-05 -0.00039837177 -1.7422034e-21)
(-5.881862e-05 -0.00039528913 7.5598449e-22)
(-5.5891601e-05 -0.00039235599 -2.1866758e-22)
(-5.3029078e-05 -0.00038956924 3.4823476e-22)
(-5.0227816e-05 -0.00038692588 -4.107895e-23)
(-4.7484721e-05 -0.00038442307 -5.0244703e-22)
(-4.4796832e-05 -0.00038205807 1.128424e-21)
(-4.2161318e-05 -0.00037982833 1.5035089e-22)
(-3.9575465e-05 -0.00037773137 4.7496517e-22)
(-3.7036676e-05 -0.00037576487 7.3778813e-22)
(-3.454245e-05 -0.0003739266 -9.7227046e-22)
(-3.2090392e-05 -0.00037221448 1.4202826e-21)
(-2.9678206e-05 -0.00037062653 1.9278441e-21)
(-2.7303678e-05 -0.00036916086 -4.4049223e-22)
(-2.496467e-05 -0.00036781571 1.2157576e-22)
(-2.2659126e-05 -0.00036658945 2.1921273e-21)
(-2.0385048e-05 -0.0003654805 9.2392533e-22)
(-1.8140502e-05 -0.00036448745 -1.022296e-21)
(-1.5923604e-05 -0.00036360892 1.1429155e-21)
(-1.373251e-05 -0.0003628437 1.6903609e-21)
(-1.1565421e-05 -0.00036219062 1.5822756e-21)
(-9.4205816e-06 -0.00036164862 1.7158741e-21)
(-7.2962732e-06 -0.00036121665 -1.0389724e-21)
(-5.1902423e-06 -0.00036089341 -4.8145756e-22)
(-3.09951e-06 -0.0003606758 1.0626341e-21)
(-1.026355e-06 -0.00036055677 2.2024478e-21)
(-0.00055201428 -0.0010016897 -3.8732325e-20)
(-0.00052660901 -0.00097579395 -2.6796579e-20)
(-0.00050264134 -0.00095092231 -1.2880856e-20)
(-0.00048001299 -0.00092702919 -2.1473655e-20)
(-0.00045863327 -0.00090407117 -7.3332863e-21)
(-0.00043841844 -0.00088200694 1.1425249e-20)
(-0.00041929119 -0.00086079719 -9.4605509e-21)
(-0.00040118003 -0.00084040453 -5.6990373e-21)
(-0.00038401879 -0.00082079342 -4.1336938e-23)
(-0.00036774621 -0.00080193005 -1.3493e-20)
(-0.00035230554 -0.00078378234 2.9220498e-21)
(-0.00033764411 -0.00076631974 -1.0251158e-20)
(-0.00032371307 -0.00074951327 -1.7535409e-20)
(-0.00031046704 -0.00073333537 -8.7582271e-22)
(-0.00029786385 -0.00071775985 -3.584397e-21)
(-0.00028586428 -0.00070276182 -8.0394756e-21)
(-0.00027443183 -0.00068831764 -1.1301189e-20)
(-0.0002635325 -0.00067440485 -9.8347024e-21)
(-0.00025313461 -0.00066100208 6.1088759e-21)
(-0.00024320862 -0.00064808903 3.5520933e-22)
(-0.00023372695 -0.00063564642 -4.8047523e-21)
(-0.00022466387 -0.00062365589 -6.9278658e-21)
(-0.00021599532 -0.00061209998 -7.2846756e-21)
(-0.00020769883 -0.00060096213 -7.4158803e-22)
(-0.00019975334 -0.00059022653 7.6949097e-22)
(-0.00019213918 -0.00057987818 -2.1999052e-21)
(-0.00018483791 -0.00056990278 -5.5463043e-21)
(-0.00017783223 -0.00056028676 1.0189291e-21)
(-0.00017110595 -0.00055101715 4.7284999e-22)
(-0.00016464385 -0.00054208165 -4.70632e-22)
(-0.00015843165 -0.00053346852 -3.0298651e-21)
(-0.00015245596 -0.00052516659 -3.3751017e-22)
(-0.00014670417 -0.00051716522 2.2252461e-21)
(-0.00014116441 -0.00050945429 -3.3874245e-22)
(-0.00013582554 -0.00050202412 -7.8102219e-22)
(-0.00013067706 -0.00049486551 -3.941437e-21)
(-0.00012570906 -0.00048796969 1.8778935e-21)
(-0.00012091223 -0.00048132831 2.3575917e-21)
(-0.00011627776 -0.00047493338 -2.7466423e-21)
(-0.00011179738 -0.00046877731 2.9987233e-22)
(-0.00010746323 -0.00046285285 -1.2523072e-21)
(-0.00010326792 -0.00045715308 -2.7959808e-22)
(-9.9204449e-05 -0.00045167142 -6.7337446e-22)
(-9.5266195e-05 -0.00044640154 -1.1721108e-22)
(-9.14469e-05 -0.00044133749 -2.8802143e-22)
(-8.774063e-05 -0.00043647352 -4.0115541e-22)
(-8.4141765e-05 -0.00043180416 2.5962079e-22)
(-8.0644982e-05 -0.00042732421 3.5937775e-23)
(-7.7245227e-05 -0.0004230287 1.3082446e-21)
(-7.3937703e-05 -0.00041891286 1.2664108e-21)
(-7.0717851e-05 -0.0004149722 -6.3103453e-22)
(-6.758134e-05 -0.00041120238 -1.2164668e-21)
(-6.4524048e-05 -0.00040759928 -1.6208066e-21)
(-6.1542061e-05 -0.00040415896 -5.6649708e-22)
(-5.8631642e-05 -0.0004008777 3.2718861e-22)
(-5.5789238e-05 -0.0003977519 -8.2666341e-22)
(-5.3011454e-05 -0.00039477816 3.3895946e-22)
(-5.0295047e-05 -0.00039195323 -2.6651261e-21)
(-4.7636931e-05 -0.00038927404 -4.0682614e-22)
(-4.5034149e-05 -0.0003867376 1.4553082e-21)
(-4.2483881e-05 -0.00038434113 4.9837718e-22)
(-3.9983428e-05 -0.00038208196 -4.7679003e-22)
(-3.7530196e-05 -0.00037995755 -5.2847926e-22)
(-3.512171e-05 -0.00037796548 -1.8585271e-21)
(-3.2755602e-05 -0.00037610347 -1.0795808e-21)
(-3.0429592e-05 -0.00037436936 3.1411397e-23)
(-2.8141494e-05 -0.0003727611 9.3038715e-22)
(-2.5889208e-05 -0.00037127675 -1.0354093e-21)
(-2.3670712e-05 -0.00036991451 5.4252188e-22)
(-2.1484054e-05 -0.00036867268 9.8971379e-22)
(-1.9327347e-05 -0.00036754967 -1.424844e-22)
(-1.7198762e-05 -0.00036654401 -6.4192446e-22)
(-1.5096519e-05 -0.00036565431 -4.8729608e-22)
(-1.3018872e-05 -0.00036487933 -1.5326542e-22)
(-1.0964114e-05 -0.0003642179 4.1594516e-22)
(-8.9305821e-06 -0.00036366894 3.3101672e-22)
(-6.9166313e-06 -0.0003632314 1.0873688e-21)
(-4.9201047e-06 -0.00036290399 4.6534663e-22)
(-2.9381578e-06 -0.00036268356 1.5281428e-21)
(-9.7292127e-07 -0.00036256298 2.5797013e-21)
(-0.000525009 -0.001020623 -2.1811662e-20)
(-0.00050069145 -0.00099364878 -2.8415148e-20)
(-0.00047776171 -0.00096777343 -5.9300545e-21)
(-0.00045612395 -0.0009429455 -5.6372374e-21)
(-0.00043568987 -0.00091911625 -2.9406412e-21)
(-0.00041637803 -0.0008962395 -4.9413211e-21)
(-0.00039811324 -0.00087427147 -2.5502496e-20)
(-0.00038082609 -0.00085317071 1.2553862e-20)
(-0.00036445239 -0.00083289794 1.9274043e-20)
(-0.00034893272 -0.00081341593 -1.6210604e-20)
(-0.0003342121 -0.00079468944 9.8221143e-22)
(-0.00032023956 -0.00077668506 -1.6476088e-21)
(-0.00030696783 -0.00075937114 -5.4626671e-21)
(-0.00029435305 -0.00074271767 4.0681022e-21)
(-0.00028235448 -0.00072669622 -1.7370813e-21)
(-0.00027093425 -0.00071127985 -1.9166046e-21)
(-0.00026005714 -0.000696443 -3.578281e-21)
(-0.00024969038 -0.00068216143 -5.6172525e-21)
(-0.00023980343 -0.00066841218 3.9451023e-21)
(-0.00023036784 -0.00065517344 7.1466485e-21)
(-0.00022135707 -0.00064242451 -1.2226317e-21)
(-0.00021274635 -0.00063014579 -2.5954648e-21)
(-0.00020451257 -0.00061831862 1.7810104e-21)
(-0.0001966341 -0.00060692532 -3.2090658e-22)
(-0.00018909075 -0.00059594908 1.8526618e-22)
(-0.00018186361 -0.00058537394 4.3729676e-21)
(-0.00017493497 -0.00057518474 -5.3151716e-21)
(-0.00016828826 -0.00056536707 -5.9859304e-22)
(-0.00016190794 -0.00055590724 1.5549327e-21)
(-0.00015577943 -0.00054679221 2.168716e-21)
(-0.00014988905 -0.00053800961 3.1228002e-22)
(-0.00014422398 -0.00052954764 -2.3516937e-21)
(-0.00013877212 -0.00052139512 1.4650495e-21)
(-0.00013352214 -0.00051354137 5.3636254e-21)
(-0.00012846338 -0.00050597624 5.0340796e-21)
(-0.00012358578 -0.00049869008 -1.3914596e-21)
(-0.00011887989 -0.00049167368 2.3433802e-22)
(-0.0001143368 -0.00048491828 5.719901e-21)
(-0.00010994811 -0.00047841553 2.4632458e-21)
(-0.00010570589 -0.00047215749 6.917477e-22)
(-0.00010160267 -0.00046613658 -1.4751625e-21)
(-9.7631387e-05 -0.00046034558 -3.494831e-21)
(-9.3785352e-05 -0.00045477762 1.2034617e-21)
(-9.0058255e-05 -0.00044942614 2.0138392e-21)
(-8.6444129e-05 -0.00044428489 5.7039326e-22)
(-8.2937319e-05 -0.00043934791 1.4192365e-21)
(-7.9532471e-05 -0.00043460952 6.1514231e-22)
(-7.622451e-05 -0.00043006431 -2.0581192e-21)
(-7.3008623e-05 -0.00042570711 -1.4769842e-21)
(-6.988024e-05 -0.00042153299 3.7957756e-21)
(-6.6835025e-05 -0.00041753727 -4.6994003e-22)
(-6.3868855e-05 -0.00041371547 5.0427181e-22)
(-6.0977803e-05 -0.00041006332 1.1806933e-21)
(-5.8158146e-05 -0.00040657676 -9.0844771e-22)
(-5.5406335e-05 -0.0004032519 -4.1990909e-22)
(-5.2718984e-05 -0.00040008505 -7.3520561e-22)
(-5.0092865e-05 -0.00039707269 7.1467616e-22)
(-4.75249e-05 -0.00039421147 1.4054977e-21)
(-4.5012154e-05 -0.00039149818 -4.1637784e-22)
(-4.2551819e-05 -0.00038892979 4.769108e-22)
(-4.0141217e-05 -0.00038650341 1.2325363e-21)
(-3.7777779e-05 -0.00038421627 8.9058472e-22)
(-3.5459053e-05 -0.00038206577 -5.539471e-22)
(-3.3182691e-05 -0.0003800494 -2.2193704e-21)
(-3.0946441e-05 -0.00037816483 -3.2297618e-22)
(-2.8748151e-05 -0.00037640981 -7.3630418e-22)
(-2.6585757e-05 -0.00037478224 -1.2932331e-21)
(-2.4457277e-05 -0.00037328013 9.0127659e-22)
(-2.2360804e-05 -0.00037190162 5.8238764e-22)
(-2.02945e-05 -0.00037064496 1.1995194e-21)
(-1.8256594e-05 -0.00036950852 -4.8459058e-22)
(-1.6245381e-05 -0.0003684908 -1.5591672e-22)
(-1.4259179e-05 -0.00036759041 7.4736423e-22)
(-1.2296351e-05 -0.00036680605 -4.0816043e-22)
(-1.0355293e-05 -0.00036613658 1.2069784e-22)
(-8.4344248e-06 -0.0003655809 -5.8132581e-22)
(-6.5321929e-06 -0.00036513798 9.4514333e-22)
(-4.6465465e-06 -0.00036480651 1.4852091e-21)
(-2.774757e-06 -0.00036458335 -3.8505932e-23)
(-9.1880555e-07 -0.00036446127 1.4959935e-21)
(-0.00049690177 -0.0010387444 -4.9366403e-21)
(-0.00047374915 -0.001010728 -2.2369423e-20)
(-0.00045192842 -0.0009838835 -3.9300682e-20)
(-0.00043134679 -0.00095815361 -2.2616985e-20)
(-0.0004119188 -0.00093348437 2.6559019e-21)
(-0.00039356574 -0.00090982478 1.1450758e-20)
(-0.00037621499 -0.00088712668 -6.1527743e-22)
(-0.00035979955 -0.00086534461 1.1160385e-20)
(-0.0003442575 -0.00084443561 -4.3700896e-21)
(-0.00032953162 -0.00082435911 -8.6732789e-21)
(-0.00031556894 -0.00080507677 -1.3550592e-20)
(-0.00030232043 -0.00078655235 7.5642189e-21)
(-0.00028974063 -0.00076875161 -8.0038119e-21)
(-0.00027778739 -0.00075164216 -1.3464598e-20)
(-0.0002664216 -0.00073519338 -4.4017139e-21)
(-0.0002556069 -0.0007193763 -1.0080938e-21)
(-0.00024530952 -0.00070416351 6.418502e-21)
(-0.00023549803 -0.00068952905 5.3874938e-23)
(-0.00022614318 -0.00067544839 -1.4250659e-20)
(-0.00021721773 -0.00066189825 -2.9236738e-21)
(-0.00020869628 -0.00064885659 3.4593126e-21)
(-0.00020055514 -0.00063630257 1.1322259e-21)
(-0.00019277219 -0.00062421636 -6.4703537e-22)
(-0.00018532679 -0.00061257922 -6.9950239e-21)
(-0.00017819963 -0.00060137336 1.0799974e-21)
(-0.00017137266 -0.00059058191 3.565801e-21)
(-0.00016482899 -0.00058018884 7.2462879e-21)
(-0.0001585528 -0.00057017899 1.5844069e-22)
(-0.00015252929 -0.00056053789 -1.6277741e-21)
(-0.00014674454 -0.00055125186 -2.9368426e-21)
(-0.00014118552 -0.00054230788 -2.7207829e-21)
(-0.00013584002 -0.00053369357 4.32631e-21)
(-0.00013069653 -0.0005253972 5.082765e-22)
(-0.00012574427 -0.00051740758 3.0371315e-23)
(-0.00012097307 -0.0005097141 2.735019e-21)
(-0.00011637339 -0.00050230666 2.9310288e-22)
(-0.00011193623 -0.00049517563 -4.1888703e-22)
(-0.00010765313 -0.00048831187 -1.4600417e-21)
(-0.0001035161 -0.00048170669 -1.2458521e-21)
(-9.9517626e-05 -0.00047535178 -1.1321452e-22)
(-9.5650585e-05 -0.00046923929 1.9129251e-21)
(-9.190828e-05 -0.00046336168 2.9747197e-21)
(-8.828438e-05 -0.00045771182 3.390566e-21)
(-8.4772889e-05 -0.00045228289 -1.1520495e-21)
(-8.1368141e-05 -0.0004470684 1.0687251e-23)
(-7.8064779e-05 -0.00044206217 3.1318397e-21)
(-7.4857728e-05 -0.00043725832 6.1982254e-22)
(-7.1742177e-05 -0.00043265122 -6.9207016e-22)
(-6.8713564e-05 -0.00042823554 -4.6374918e-21)
(-6.5767562e-05 -0.00042400619 -2.0474976e-22)
(-6.290006e-05 -0.0004199583 1.2433712e-22)
(-6.0107155e-05 -0.00041608727 9.9583222e-22)
(-5.7385135e-05 -0.00041238867 1.2877612e-21)
(-5.4730471e-05 -0.0004088583 7.7454107e-23)
(-5.2139808e-05 -0.00040549216 1.4295109e-21)
(-4.9609935e-05 -0.00040228646 8.6132507e-22)
(-4.7137799e-05 -0.00039923754 2.6298647e-22)
(-4.4720491e-05 -0.00039634198 2.1218934e-21)
(-4.2355237e-05 -0.00039359645 6.5208795e-22)
(-4.0039381e-05 -0.00039099784 2.7872549e-22)
(-3.7770383e-05 -0.00038854316 3.7757266e-22)
(-3.5545828e-05 -0.00038622959 6.8874096e-22)
(-3.3363394e-05 -0.00038405442 -2.2333309e-22)
(-3.1220866e-05 -0.00038201509 -2.6565777e-22)
(-2.9116123e-05 -0.00038010918 -7.858813e-22)
(-2.7047136e-05 -0.0003783344 -2.2267017e-23)
(-2.501197e-05 -0.00037668857 1.0921603e-22)
(-2.3008761e-05 -0.00037516964 -1.4939326e-22)
(-2.1035726e-05 -0.00037377571 -1.5194384e-22)
(-1.9091158e-05 -0.00037250498 1.6501613e-21)
(-1.7173406e-05 -0.00037135578 1.5279575e-22)
(-1.5280878e-05 -0.00037032657 1.6433274e-21)
(-1.3412018e-05 -0.00036941594 1.5543701e-21)
(-1.1565304e-05 -0.00036862261 2.6518629e-22)
(-9.7392362e-06 -0.00036794539 9.7633146e-22)
(-7.9323345e-06 -0.00036738322 1.0271769e-21)
(-6.1431301e-06 -0.00036693508 8.0311873e-22)
(-4.3696728e-06 -0.00036659967 1.8001494e-22)
(-2.6093619e-06 -0.00036637384 4.2645092e-22)
(-8.6402655e-07 -0.00036625031 3.7259368e-22)
(-0.00046773258 -0.0010559879 2.3270273e-21)
(-0.00044582004 -0.0010269708 -1.9848645e-20)
(-0.00042517748 -0.00099919646 -3.3278531e-20)
(-0.00040571565 -0.00097260184 1.3965133e-22)
(-0.00038735244 -0.00094712783 3.5618955e-20)
(-0.00037001229 -0.00092271874 2.6381073e-20)
(-0.00035362554 -0.00089932212 3.716776e-21)
(-0.00033812797 -0.00087688858 5.8908984e-21)
(-0.00032346027 -0.00085537159 -1.0364542e-20)
(-0.00030956768 -0.0008347273 8.3413656e-21)
(-0.00029639953 -0.00081491437 4.7284718e-21)
(-0.00028390895 -0.00079589382 -4.67074e-21)
(-0.00027205253 -0.00077762889 -1.4035382e-20)
(-0.00026079004 -0.00076008487 5.4414431e-21)
(-0.00025008413 -0.00074322903 8.1003494e-21)
(-0.00023990017 -0.00072703042 3.9806677e-21)
(-0.00023020596 -0.00071145985 1.9312695e-21)
(-0.00022097157 -0.0006964897 -1.7422676e-21)
(-0.00021216915 -0.00068209391 -1.7933322e-21)
(-0.00020377278 -0.0006682478 4.4203313e-21)
(-0.00019575832 -0.00065492803 2.0605028e-21)
(-0.00018810324 -0.00064211254 2.794745e-21)
(-0.00018078654 -0.0006297804 -3.2748568e-21)
(-0.00017378859 -0.00061791187 2.3244235e-21)
(-0.00016709109 -0.00060648819 9.5762343e-21)
(-0.00016067689 -0.0005954916 3.1966275e-21)
(-0.00015452998 -0.00058490528 4.2772948e-21)
(-0.00014863537 -0.00057471328 3.8932334e-23)
(-0.000142979 -0.00056490046 5.537662e-22)
(-0.00013754773 -0.00055545248 2.7266531e-21)
(-0.0001323292 -0.0005463557 5.773122e-21)
(-0.00012731183 -0.0005375972 6.361509e-21)
(-0.00012248476 -0.00052916472 -2.2717374e-21)
(-0.00011783776 -0.00052104657 -6.7700021e-22)
(-0.00011336125 -0.00051323171 6.7850468e-22)
(-0.00010904618 -0.00050570959 2.8842136e-21)
(-0.00010488407 -0.00049847021 2.4976915e-22)
(-0.0001008669 -0.00049150406 -4.5158185e-21)
(-9.6987143e-05 -0.0004848021 1.4514044e-21)
(-9.3237684e-05 -0.00047835571 1.1983192e-21)
(-8.9611822e-05 -0.00047215673 3.6174989e-21)
(-8.6103228e-05 -0.00046619736 3.764308e-21)
(-8.2705918e-05 -0.00046047019 1.4613897e-21)
(-7.9414248e-05 -0.00045496817 -6.8028082e-22)
(-7.6222879e-05 -0.00044968459 1.2929464e-21)
(-7.3126752e-05 -0.00044461304 4.3065158e-22)
(-7.0121087e-05 -0.00043974745 -1.1931987e-21)
(-6.7201353e-05 -0.00043508201 2.4760007e-21)
(-6.436325e-05 -0.00043061121 7.2045213e-22)
(-6.16027e-05 -0.0004263298 -2.282753e-22)
(-5.8915829e-05 -0.00042223276 5.299546e-22)
(-5.6298969e-05 -0.00041831534 7.2853743e-22)
(-5.3748631e-05 -0.00041457298 4.4002696e-22)
(-5.1261484e-05 -0.00041100136 2.5562017e-22)
(-4.8834367e-05 -0.00040759637 2.9010642e-21)
(-4.6464266e-05 -0.00040435409 1.906053e-21)
(-4.4148308e-05 -0.00040127078 1.6359903e-21)
(-4.1883758e-05 -0.00039834289 1.0446057e-21)
(-3.9668003e-05 -0.00039556705 1.2701717e-21)
(-3.7498542e-05 -0.00039294001 8.8568054e-22)
(-3.5372994e-05 -0.00039045874 -5.4030701e-22)
(-3.3289083e-05 -0.00038812031 2.7502396e-22)
(-3.1244628e-05 -0.00038592196 -3.1292085e-22)
(-2.9237551e-05 -0.00038386106 4.3841407e-22)
(-2.7265864e-05 -0.0003819351 -1.4215067e-22)
(-2.5327668e-05 -0.00038014175 3.0669004e-22)
(-2.3421153e-05 -0.00037847874 2.2614332e-21)
(-2.1544588e-05 -0.000376944 -6.6928061e-22)
(-1.9696317e-05 -0.00037553554 7.5924731e-22)
(-1.7874761e-05 -0.00037425152 8.1920366e-22)
(-1.6078404e-05 -0.00037309023 6.6105934e-22)
(-1.4305778e-05 -0.00037205011 9.2355319e-22)
(-1.2555464e-05 -0.00037112973 8.0518112e-22)
(-1.0826063e-05 -0.00037032779 1.9617772e-21)
(-9.1161938e-06 -0.00036964312 3.2771084e-22)
(-7.4244854e-06 -0.00036907467 9.926543e-22)
(-5.7495543e-06 -0.00036862145 2.0019271e-21)
(-4.0895569e-06 -0.00036828219 5.9975679e-22)
(-2.4420187e-06 -0.00036805375 8.0122512e-22)
(-8.0859967e-07 -0.00036792878 6.1739032e-22)
(-0.00043754686 -0.0010722891 -2.1988172e-20)
(-0.00041694706 -0.0010423181 -3.6386848e-20)
(-0.00039754944 -0.0010136579 6.6322984e-22)
(-0.00037926883 -0.00098624009 1.8295589e-20)
(-0.00036202697 -0.00096000046 1.541901e-20)
(-0.00034575185 -0.00093487877 2.0174029e-20)
(-0.00033037718 -0.00091081842 -1.5511051e-20)
(-0.00031584186 -0.00088776624 7.2209589e-21)
(-0.00030208951 -0.00086567221 1.6285364e-21)
(-0.00028906811 -0.00084448934 8.3122816e-21)
(-0.00027672957 -0.00082417339 2.0704859e-20)
(-0.00026502943 -0.00080468272 -5.4838283e-21)
(-0.00025392651 -0.00078597815 -6.6286146e-21)
(-0.00024338268 -0.00076802275 1.5798926e-20)
(-0.0002333626 -0.00075078173 8.7500925e-21)
(-0.00022383346 -0.00073422228 5.8648099e-21)
(-0.00021476481 -0.00071831347 -7.8191752e-21)
(-0.00020612835 -0.00070302612 -7.9453395e-22)
(-0.00019789776 -0.00068833266 5.7864699e-21)
(-0.00019004855 -0.00067420708 3.3812259e-21)
(-0.00018255793 -0.00066062481 2.4507772e-21)
(-0.00017540462 -0.00064756262 -7.2492817e-23)
(-0.00016856882 -0.00063499856 5.3580638e-22)
(-0.00016203203 -0.00062291186 8.643274e-21)
(-0.00015577698 -0.00061128288 6.87887e-21)
(-0.00014978752 -0.00060009301 2.506033e-21)
(-0.00014404858 -0.00058932467 -4.1574264e-21)
(-0.00013854603 -0.00057896117 2.1758533e-21)
(-0.00013326665 -0.0005689867 3.4354257e-21)
(-0.00012819807 -0.00055938632 1.1323279e-21)
(-0.00012332867 -0.0005501458 2.7011215e-21)
(-0.00011864756 -0.00054125171 1.4060105e-21)
(-0.00011414452 -0.00053269124 4.087865e-22)
(-0.00010980997 -0.00052445229 8.9369342e-22)
(-0.00010563487 -0.00051652336 8.5469558e-23)
(-0.00010161077 -0.00050889351 9.2722004e-22)
(-9.7729665e-05 -0.00050155236 1.1251606e-21)
(-9.3984056e-05 -0.00049449007 2.7713208e-22)
(-9.036687e-05 -0.00048769725 2.8353042e-21)
(-8.6871436e-05 -0.00048116501 1.5067604e-21)
(-8.3491472e-05 -0.00047488487 8.4075513e-22)
(-8.0221046e-05 -0.0004688488 8.6081046e-22)
(-7.7054549e-05 -0.00046304913 -5.3435254e-22)
(-7.3986691e-05 -0.00045747858 1.3865399e-21)
(-7.1012472e-05 -0.00045213021 -1.9667834e-22)
(-6.8127156e-05 -0.00044699744 1.5286427e-21)
(-6.5326266e-05 -0.00044207399 1.3735222e-21)
(-6.2605558e-05 -0.00043735389 -5.6148662e-22)
(-5.9961008e-05 -0.00043283146 1.1975937e-21)
(-5.7388803e-05 -0.00042850129 -1.0674411e-21)
(-5.4885322e-05 -0.00042435823 4.5984213e-22)
(-5.244713e-05 -0.00042039738 7.8316992e-22)
(-5.0070963e-05 -0.00041661406 -1.415896e-21)
(-4.7753708e-05 -0.00041300385 -5.0190794e-22)
(-4.5492407e-05 -0.00040956251 3.8195785e-24)
(-4.3284243e-05 -0.00040628602 3.1850278e-22)
(-4.1126531e-05 -0.00040317054 -1.232575e-21)
(-3.9016713e-05 -0.00040021245 1.3449307e-22)
(-3.6952344e-05 -0.00039740826 -1.0713608e-21)
(-3.4931088e-05 -0.00039475468 1.8509102e-22)
(-3.2950717e-05 -0.00039224856 -6.3739415e-22)
(-3.1009103e-05 -0.00038988694 8.5247127e-22)
(-2.9104214e-05 -0.00038766695 1.023883e-21)
(-2.7234107e-05 -0.00038558591 1.1559985e-21)
(-2.5396926e-05 -0.00038364125 2.9937733e-22)
(-2.3590905e-05 -0.00038183056 1.6209021e-21)
(-2.1814368e-05 -0.00038015153 2.6531718e-22)
(-2.006572e-05 -0.000378602 2.4925608e-22)
(-1.834343e-05 -0.00037717993 1.7037546e-21)
(-1.6646055e-05 -0.00037588344 -1.6558036e-22)
(-1.4972224e-05 -0.00037471078 1.7687447e-22)
(-1.3320612e-05 -0.00037366034 1.5788753e-22)
(-1.1689939e-05 -0.00037273068 1.136075e-21)
(-1.0078954e-05 -0.00037192049 7.49768e-22)
(-8.4864033e-06 -0.00037122863 6.9326484e-22)
(-6.9110336e-06 -0.00037065407 6.2599945e-22)
(-5.351563e-06 -0.00037019587 -2.2769933e-22)
(-3.806253e-06 -0.00036985281 4.1820092e-22)
(-2.2727478e-06 -0.00036962178 5.4393458e-22)
(-7.5253038e-07 -0.0003694954 -1.063447e-21)
(-0.00040639544 -0.0010875859 3.1401548e-20)
(-0.00038717804 -0.0010567129 -9.5388654e-21)
(-0.00036908932 -0.0010272155 2.8795603e-20)
(-0.00035204872 -0.00099902014 -3.6388232e-20)
(-0.00033598226 -0.00097205784 -2.8702373e-20)
(-0.00032082197 -0.00094626394 3.2244793e-21)
(-0.00030650525 -0.00092157783 -4.8174031e-21)
(-0.0002929745 -0.00089794271 2.2151524e-20)
(-0.00028017659 -0.00087530525 -8.7852928e-21)
(-0.00026806249 -0.00085361543 -1.75698e-20)
(-0.00025658696 -0.00083282622 1.0216924e-20)
(-0.00024570814 -0.00081289348 -6.2977817e-21)
(-0.00023538734 -0.00079377569 5.9167253e-21)
(-0.00022558872 -0.0007754338 6.920666e-22)
(-0.00021627907 -0.00075783107 -7.3935271e-21)
(-0.00020742761 -0.00074093291 -4.0319339e-21)
(-0.00019900575 -0.00072470674 -1.1775212e-20)
(-0.00019098696 -0.00070912186 1.4476825e-21)
(-0.00018334656 -0.00069414932 5.8661132e-21)
(-0.00017606161 -0.00067976183 -5.6544502e-21)
(-0.00016911075 -0.00066593363 -2.795232e-21)
(-0.00016247408 -0.00065264042 -3.2694432e-21)
(-0.00015613305 -0.00063985921 4.2088958e-21)
(-0.00015007035 -0.00062756834 -2.0354926e-21)
(-0.00014426984 -0.00061574729 -2.8074058e-21)
(-0.00013871643 -0.00060437666 -3.1937514e-21)
(-0.00013339603 -0.00059343812 -5.3632763e-21)
(-0.00012829544 -0.00058291432 8.3876697e-21)
(-0.00012340232 -0.00057278882 2.4420907e-21)
(-0.00011870511 -0.00056304606 -2.5813635e-21)
(-0.00011419297 -0.00055367131 -3.3462325e-21)
(-0.00010985577 -0.00054465061 -2.4032653e-21)
(-0.00010568395 -0.0005359707 1.7464787e-21)
(-0.00010166858 -0.00052761902 -2.3069084e-21)
(-9.7801255e-05 -0.00051958367 -3.6271881e-21)
(-9.4074061e-05 -0.00051185334 -2.0905304e-22)
(-9.0479579e-05 -0.00050441731 2.6281185e-21)
(-8.7010819e-05 -0.00049726539 2.7108443e-21)
(-8.3661189e-05 -0.0004903879 -4.111156e-21)
(-8.042448e-05 -0.00048377565 9.2659723e-22)
(-7.7294847e-05 -0.00047741992 3.0096797e-21)
(-7.4266773e-05 -0.00047131241 3.4660983e-21)
(-7.1335044e-05 -0.00046544522 4.4953603e-22)
(-6.849474e-05 -0.00045981087 1.0002648e-21)
(-6.5741211e-05 -0.00045440221 -2.3220331e-22)
(-6.3070055e-05 -0.00044921247 1.9840721e-21)
(-6.0477113e-05 -0.00044423519 8.9502388e-22)
(-5.7958442e-05 -0.00043946425 -7.0866222e-22)
(-5.5510302e-05 -0.0004348938 2.534559e-21)
(-5.3129157e-05 -0.00043051829 -1.1274167e-21)
(-5.0811647e-05 -0.00042633245 -7.7878468e-22)
(-4.8554577e-05 -0.00042233123 -7.9360349e-22)
(-4.635491e-05 -0.00041850987 8.8727028e-22)
(-4.4209768e-05 -0.0004148638 1.8134268e-21)
(-4.2116406e-05 -0.00041138869 -1.4805576e-21)
(-4.0072204e-05 -0.00040808044 2.9214436e-22)
(-3.8074673e-05 -0.00040493511 -9.7241414e-22)
(-3.6121434e-05 -0.00040194898 -4.8385687e-22)
(-3.4210219e-05 -0.00039911851 -6.939235e-22)
(-3.233886e-05 -0.00039644031 7.1274544e-22)
(-3.0505286e-05 -0.00039391117 2.2090388e-21)
(-2.8707521e-05 -0.00039152805 8.3980384e-22)
(-2.6943679e-05 -0.00038928803 2.6790006e-21)
(-2.5211955e-05 -0.00038718835 2.6834362e-21)
(-2.351063e-05 -0.00038522639 1.6572974e-21)
(-2.1838073e-05 -0.00038339966 1.7143231e-21)
(-2.0192736e-05 -0.00038170578 5.2654189e-22)
(-1.8573158e-05 -0.00038014255 -3.5158174e-22)
(-1.6977952e-05 -0.00037870785 -3.472116e-22)
(-1.5405815e-05 -0.00037739975 -7.9611894e-22)
(-1.3855525e-05 -0.00037621644 7.4207803e-22)
(-1.2325915e-05 -0.00037515628 3.2974454e-22)
(-1.0815863e-05 -0.0003742178 2.2811558e-21)
(-9.3242807e-06 -0.00037339971 8.4956332e-22)
(-7.8500682e-06 -0.00037270088 1.2923423e-21)
(-6.3921026e-06 -0.00037212034 3.4158718e-22)
(-4.9492173e-06 -0.0003716572 -8.277552e-22)
(-3.5197802e-06 -0.00037131034 4.8936009e-22)
(-2.1015532e-06 -0.00037107669 3.392586e-22)
(-6.9581889e-07 -0.00037094886 -5.3940399e-22)
(-0.00037433442 -0.0011018192 -1.4530521e-20)
(-0.00035656559 -0.0010701006 6.1416641e-22)
(-0.00033984646 -0.0010398191 6.7140568e-21)
(-0.0003241016 -0.001010896 -2.6490365e-20)
(-0.00030926179 -0.00098325767 7.9719739e-21)
(-0.00029526345 -0.00095683527 6.5348422e-21)
(-0.0002820481 -0.00093156442 9.2969733e-21)
(-0.00026956193 -0.00090738486 2.4999386e-20)
(-0.00025775535 -0.0008842401 1.2323974e-20)
(-0.00024658265 -0.00086207726 -4.2855952e-21)
(-0.00023600161 -0.0008408467 3.1211551e-21)
(-0.00022597326 -0.00082050186 1.6678113e-20)
(-0.00021646155 -0.00080099904 6.6382171e-21)
(-0.00020743311 -0.00078229719 -5.6644868e-21)
(-0.00019885707 -0.00076435772 1.7633101e-21)
(-0.00019070478 -0.00074714435 5.1710144e-21)
(-0.00018294968 -0.00073062295 8.3737225e-21)
(-0.0001755671 -0.0007147614 2.3298434e-21)
(-0.00016853415 -0.00069952945 1.1615283e-21)
(-0.00016182952 -0.00068489858 7.5958377e-21)
(-0.00015543338 -0.00067084195 4.5340235e-21)
(-0.00014932727 -0.00065733421 9.5395481e-21)
(-0.00014349399 -0.00064435145 6.7311229e-21)
(-0.00013791751 -0.00063187111 -5.4185156e-21)
(-0.00013258287 -0.00061987187 3.7251484e-21)
(-0.00012747609 -0.00060833361 9.8988838e-21)
(-0.00012258412 -0.00059723728 5.1491892e-21)
(-0.00011789475 -0.00058656491 2.698971e-21)
(-0.00011339655 -0.00057629946 -1.5033501e-21)
(-0.00010907884 -0.00056642483 3.64236e-21)
(-0.00010493159 -0.00055692578 3.419919e-21)
(-0.00010094542 -0.00054778786 3.6677699e-21)
(-9.7111529e-05 -0.00053899739 3.6931882e-21)
(-9.3421639e-05 -0.0005305414 3.4225564e-21)
(-8.9867985e-05 -0.00052240761 3.0557003e-21)
(-8.6443278e-05 -0.00051458436 1.855068e-23)
(-8.3140659e-05 -0.00050706059 1.4536084e-21)
(-7.9953668e-05 -0.00049982582 3.6398192e-21)
(-7.6876235e-05 -0.00049287007 -3.0681496e-22)
(-7.3902636e-05 -0.0004861839 2.4021444e-21)
(-7.1027466e-05 -0.00047975833 1.4962681e-21)
(-6.8245639e-05 -0.00047358484 -5.1260856e-22)
(-6.555236e-05 -0.00046765531 1.8133542e-21)
(-6.2943088e-05 -0.00046196205 3.4846774e-22)
(-6.0413537e-05 -0.00045649775 1.2265363e-21)
(-5.795966e-05 -0.00045125543 -5.778487e-22)
(-5.5577614e-05 -0.00044622849 3.1858872e-21)
(-5.3263776e-05 -0.00044141065 1.4025954e-21)
(-5.1014708e-05 -0.00043679592 2.4336962e-21)
(-4.8827143e-05 -0.00043237861 2.8850435e-21)
(-4.6697989e-05 -0.00042815332 4.86358e-22)
(-4.4624315e-05 -0.0004241149 1.2235653e-21)
(-4.2603332e-05 -0.00042025848 4.3349907e-21)
(-4.0632376e-05 -0.00041657938 5.0060465e-22)
(-3.8708921e-05 -0.00041307318 9.3945323e-22)
(-3.6830563e-05 -0.00040973568 1.6307178e-21)
(-3.4995008e-05 -0.00040656287 2.3208697e-21)
(-3.3200068e-05 -0.00040355096 9.9170552e-22)
(-3.1443651e-05 -0.00040069631 1.2922382e-21)
(-2.9723761e-05 -0.00039799548 2.2213898e-21)
(-2.803849e-05 -0.0003954452 3.0970418e-21)
(-2.6386017e-05 -0.00039304234 2.4699115e-21)
(-2.4764595e-05 -0.00039078394 2.4535941e-21)
(-2.3172564e-05 -0.00038866718 1.7801908e-21)
(-2.1608345e-05 -0.00038668936 1.311776e-21)
(-2.0070434e-05 -0.00038484794 1.1884524e-21)
(-1.8557417e-05 -0.00038314047 1.7889062e-21)
(-1.706796e-05 -0.00038156467 1.9665247e-21)
(-1.560082e-05 -0.00038011836 -2.2386818e-22)
(-1.415485e-05 -0.00037879954 2.1925207e-21)
(-1.272898e-05 -0.00037760634 2.7481443e-21)
(-1.1322218e-05 -0.00037653708 2.0820009e-21)