/*--------------------------------*- C++ -*----------------------------------*\
| =========                 |                                                 |
| \\      /  F ield         | OpenFOAM: The Open Source CFD Toolbox           |
|  \\    /   O peration     | Version:  2106                                  |
|   \\  /    A nd           | Website:  www.openfoam.com                      |
|    \\/     M anipulation  |                                                 |
\*---------------------------------------------------------------------------*/
FoamFile
{
    version     2.0;
    format      ascii;
    arch        "LSB;label=32;scalar=64";
    class       volScalarField;
    location    "0.155";
    object      reconstructedDistanceFunction;
}
// * * * * * * * * * * * * * * * * * * * * * * * * * * * * * * * * * * * * * //

dimensions      [0 1 0 0 0 0 0];

internalField   nonuniform List<scalar> 
32768
(
0
0
0
0
0
0
0
0
0
0
0
0
0
0
0
0
0
0
0
0
0
0
0
0
0
0
0
0
0
0
0
0
0
0
0
0
0
0
0
0
0
0
0
0
0
0
0
0
0
0
0
0
0
0
0
0
0
0
0
0
0
0
0
0
0
0
0
0
0
0
0
0
0
0
0
0
0
0
0
0
0
0
0
0
0
0
0
0
0
0
0
0
0
0
0
0
0
0
0
0
0
0
0
0
0
0
0
0
0
0
0
0
0
0
0
0
0
0
0
0
0
0
0
0
0
0
0
0
0
0
0
0
0
0
0
0
0
0
0
0
0
0
0
0
0
0
0
0
0
0
0
0
0
0
0
0
0
0
0
0
0
0
0
0
0
0
0
0
0
0
0
0
0
0
0
0
0
0
0
0
0
0
0
0
0
0
0
0
0
0
0
0
0
0
0
0
0
0
0
0
0
0
0
0
0
0
0
0
0
0
0
0
0
0
0.0038102759
0.0034512353
0.0031648059
0.0029652931
0.002705034
0.0024885312
0.0023936761
0.0023721917
0.0023435574
0.0018585286
0.0012302621
0.00049935186
-0.00020905831
-0.00091569266
-0.001622327
-0.0023289613
0
0
0
0
0
0
0
0
0
0
0
0
0
0
0
0
0
0
0
0
0
0
0
0
0
0
0
0
0
0
0
0
0
0
0
0
0
0
0
0
0
0
0
0
0
0
0
0
0
0
0
0
0
0
0
0
0
0
0
0
0
0
0
0
0
0
0
0
0
0
0
0
0
0
0
0
0
0
0
0
0
0
0
0
0
0
0
0
0
0
0
0
0
0
0
0
0
0
0
0
0
0
0
0
0
0
0
0
0
0
0
0
0
0
0
0
0
0
0
0
0
0
0
0
0
0
0
0
0
0
0
0
0
0
0
0
0
0
0
0
0
0
0
0
0
0
0
0
0
0
0
0
0
0
0
0
0
0
0
0
0
0
0
0
0
0
0
0
0
0
0
0
0
0
0
0
0
0
0
0
0
0
0
0
0
0
0
0
0
0
0
0
0
0
0
0
0
0
0
0
0
0
0
0
0
0
0
0
0
0
0
0
0
0
0
0
0
0
0
0
0
0
0
0
0
0
0
0
0
0
0
0
0
0
0
0.0036577645
0.0033553546
0.0031495135
0.0031310167
0.0031227849
0.003041823
0.0026409719
0.0023190214
0.0021078364
0.001835611
0.0016319035
0.0015057596
0.0014792655
0.0014557313
0.0011258337
0.0006212152
-3.0834827e-05
-0.00075706416
-0.0014616424
-0.0021682767
-0.002874911
0
0
0
0
0
0
0
0
0
0
0
0
0
0
0
0
0
0
0
0
0
0
0
0
0
0
0
0
0
0
0
0
0
0
0
0
0
0
0
0
0
0
0
0
0
0
0
0
0
0
0
0
0
0
0
0
0
0
0
0
0
0
0
0
0
0
0
0
0
0
0
0
0
0
0
0
0
0
0
0
0
0
0
0
0
0
0
0
0
0
0
0
0
0
0
0
0
0
0
0
0
0
0
0
0
0
0
0
0
0
0
0
0
0
0
0
0
0
0
0
0
0
0
0
0
0
0
0
0
0
0
0
0
0
0
0
0
0
0
0
0
0
0
0
0
0
0
0
0
0
0
0
0
0
0
0
0
0
0
0
0
0
0
0
0
0
0
0
0
0
0
0
0
0
0
0
0
0
0
0
0
0
0
0
0
0
0
0
0
0
0
0
0
0
0
0
0
0
0
0
0
0
0
0
0
0
0
0
0
0
0
0
0
0
0
0
0
0
0
0
0
0
0
0
0
0
0
0
0
0
0.0039307569
0.0036828981
0.0033670026
0.0031431625
0.0030993929
0.0028180475
0.0024893374
0.0022578548
0.0022389514
0.0022298163
0.0021991128
0.0018178275
0.001473237
0.0012646907
0.0010010581
0.00076248046
0.00061784316
0.00058633925
0.00056687584
0.00035108892
-0.00011730353
-0.00062972287
-0.0012919317
-0.0020134802
-0.0027053379
-0.0034208607
0
0
0
0
0
0
0
0
0
0
0
0
0
0
0
0
0
0
0
0
0
0
0
0
0
0
0
0
0
0
0
0
0
0
0
0
0
0
0
0
0
0
0
0
0
0
0
0
0
0
0
0
0
0
0
0
0
0
0
0
0
0
0
0
0
0
0
0
0
0
0
0
0
0
0
0
0
0
0
0
0
0
0
0
0
0
0
0
0
0
0
0
0
0
0
0
0
0
0
0
0
0
0
0
0
0
0
0
0
0
0
0
0
0
0
0
0
0
0
0
0
0
0
0
0
0
0
0
0
0
0
0
0
0
0
0
0
0
0
0
0
0
0
0
0
0
0
0
0
0
0
0
0
0
0
0
0
0
0
0
0
0
0
0
0
0
0
0
0
0
0
0
0
0
0
0
0
0
0
0
0
0
0
0
0
0
0
0
0
0
0
0
0
0
0
0
0
0
0
0
0
0
0
0
0
0
0
0
0
0
0
0
0
0
0
0
0
0
0
0
0
0
0
0
0
0
0.0034568134
0.0033761143
0.0031990855
0.0031079067
0.0030415573
0.0028379936
0.0025067224
0.0022742901
0.0022150277
0.0019783304
0.0016233202
0.0013661961
0.001346886
0.0013368477
0.0013355646
0.0010610507
0.00064852348
0.00041394846
0.00014360146
-0.00010694261
-0.00027007334
-0.00030658695
-0.00032197964
-0.00046914839
-0.00081828818
-0.0013604408
-0.0018916027
-0.0025530286
-0.0032168223
-0.0039617539
0
0
0
0
0
0
0
0
0
0
0
0
0
0
0
0
0
0
0
0
0
0
0
0
0
0
0
0
0
0
0
0
0
0
0
0
0
0
0
0
0
0
0
0
0
0
0
0
0
0
0
0
0
0
0
0
0
0
0
0
0
0
0
0
0
0
0
0
0
0
0
0
0
0
0
0
0
0
0
0
0
0
0
0
0
0
0
0
0
0
0
0
0
0
0
0
0
0
0
0
0
0
0
0
0
0
0
0
0
0
0
0
0
0
0
0
0
0
0
0
0
0
0
0
0
0
0
0
0
0
0
0
0
0
0
0
0
0
0
0
0
0
0
0
0
0
0
0
0
0
0
0
0
0
0
0
0
0
0
0
0
0
0
0
0
0
0
0
0
0
0
0
0
0
0
0
0
0
0
0
0
0
0
0
0
0
0
0
0
0
0
0
0
0
0
0
0
0
0
0
0
0
0
0
0
0
0
0
0
0
0
0
0
0
0
0
0.0033932819
0.0033440847
0.0032564452
0.0031281656
0.0029785994
0.0028395408
0.0027191985
0.0026223198
0.0025496499
0.0025279662
0.0025638739
0.0024968284
0.0023138224
0.0022205005
0.0021523577
0.0019930892
0.0016464421
0.0014054177
0.0013330474
0.001149281
0.00083485608
0.00053957064
0.00045482068
0.00044387913
0.00044892701
0.00021834055
-0.00017462092
-0.00050476141
-0.00071385517
-0.00097636567
-0.0011579898
-0.0011995131
-0.0012108351
-0.0013157185
-0.0016413795
-0.0020931357
-0.0025472689
-0.0031534826
-0.0038141255
0
0
0
0
0
0
0
0
0
0
0
0
0
0
0
0
0
0
0
0
0
0
0
0
0
0
0
0
0
0
0
0
0
0
0
0
0
0
0
0
0
0
0
0
0
0
0
0
0
0
0
0
0
0
0
0
0
0
0
0
0
0
0
0
0
0
0
0
0
0
0
0
0
0
0
0
0
0
0
0
0
0
0
0
0
0
0
0
0
0
0
0
0
0
0
0
0
0
0
0
0
0
0
0
0
0
0
0
0
0
0
0
0
0
0
0
0
0
0
0
0
0
0
0
0
0
0
0
0
0
0
0
0
0
0
0
0
0
0
0
0
0
0
0
0
0
0
0
0
0
0
0
0
0
0
0
0
0
0
0
0
0
0
0
0
0
0
0
0
0
0
0
0
0
0
0
0
0
0
0
0
0
0
0
0
0.0032947717
0.0032233794
0.0031527051
0.0030858357
0.0030259817
0.0029694119
0.0029118226
0.0028572035
0.0028070732
0.0027602248
0.0027155817
0.0026719649
0.0026293954
0.0025880905
0.0025472028
0.002505357
0.0024637124
0.0024262167
0.0023955241
0.0023730506
0.0023617837
0.0023634121
0.0023781131
0.0024025239
0.00243363
0.0024698639
0.0025082348
0.0025453277
0.0025768911
0.0025963458
0.0025909398
0.0025528852
0.002501588
0.0024530721
0.0023724438
0.0022445939
0.0021011252
0.001957466
0.0018344243
0.0017346515
0.0016580778
0.0016350923
0.0016709345
0.0016403915
0.0014618202
0.0013330942
0.0012631581
0.00114981
0.00085916977
0.00054676456
0.00045106722
0.0002834389
-4.860931e-06
-0.00032644656
-0.00043724467
-0.00043321813
-0.0004317565
-0.00062436963
-0.00099776532
-0.0013505459
-0.0015588861
-0.0018206335
-0.0020459063
-0.0020924394
-0.0020996906
-0.0021622886
-0.0024644709
-0.0028107566
-0.0033362729
-0.0038091488
-0.0044153625
0
0
0
0
0
0
0
0
0
0
0
0
0
0
0
0
0
0
0
0
0
0
0
0
0
0
0
0
0
0
0
0
0
0
0
0
0
0
0
0
0
0
0
0
0
0
0
0
0
0
0
0
0
0
0
0
0
0
0
0
0
0
0
0
0
0
0
0
0
0
0
0
0
0
0
0
0
0
0
0
0
0
0
0
0
0
0
0
0
0
0
0
0
0
0
0
0
0
0
0
0
0
0
0
0
0
0
0
0
0
0
0
0
0
0
0
0
0
0
0
0
0
0
0
0
0
0
0
0
0
0
0
0
0
0
0
0
0
0
0
0
0
0
0
0
0
0
0
0
0
0
0
0
0
0
0
0
0
0
0
0
0
0
0
0
0
0
0
0
0
0
0
0
0.0033995016
0.0033072074
0.003217035
0.0031310042
0.0030428735
0.0029563437
0.0028750644
0.0027946956
0.0027139465
0.0026349614
0.0025574805
0.0024803299
0.0024048982
0.0023332966
0.0022633937
0.0021951818
0.0021350062
0.002078283
0.0020206364
0.0019658207
0.001915453
0.0018684401
0.00182371
0.0017800406
0.0017374139
0.0016960676
0.0016551951
0.0016133789
0.0015716564
0.0015339456
0.0015029865
0.001480258
0.0014688293
0.0014704855
0.0014853798
0.0015100221
0.0015413328
0.0015777031
0.0016160847
0.0016530399
0.001684299
0.001703404
0.0016982225
0.0016609388
0.0016098941
0.0015620595
0.0014844651
0.0013610222
0.0012195616
0.0010753912
0.00094965019
0.00084698326
0.00076650579
0.00074221832
0.000777995
0.00075254958
0.00058253423
0.00044568793
0.00037395844
0.00027623503
1.4265314e-05
-0.00031351569
-0.000430913
-0.00058240317
-0.00084457794
-0.0011924638
-0.00132931
-0.0013261358
-0.0013210223
-0.001430494
-0.0017624317
-0.0021670693
-0.0024096283
-0.0026780901
-0.0029189193
-0.0029853656
-0.0029885461
-0.0030088587
-0.0032929577
-0.003633848
-0.0040689678
0
0
0
0
0
0
0
0
0
0
0
0
0
0
0
0
0
0
0
0
0
0
0
0
0
0
0
0
0
0
0
0
0
0
0
0
0
0
0
0
0
0
0
0
0
0
0
0
0
0
0
0
0
0
0
0
0
0
0
0
0
0
0
0
0
0
0
0
0
0
0
0
0
0
0
0
0
0
0
0
0
0
0
0
0
0
0
0
0
0
0
0
0
0
0
0
0
0
0
0
0
0
0
0
0
0
0
0
0
0
0
0
0
0
0
0
0
0
0
0
0
0
0
0
0
0
0
0
0
0
0
0
0
0
0
0
0
0
0
0
0
0
0
0
0
0
0
0
0
0
0
0
0
0
0
0
0
0
0
0
0
0
0
0
0
0
0.0033972604
0.0032896751
0.003187534
0.0030866798
0.0029847272
0.0028870588
0.0027918844
0.0026975797
0.0026039215
0.0025113746
0.0024189765
0.0023285343
0.0022423481
0.0021542071
0.0020674155
0.0019858245
0.0019053707
0.0018245713
0.001745464
0.0016678971
0.0015906574
0.0015150247
0.0014432138
0.001373087
0.0013045278
0.0012440308
0.0011871542
0.0011294503
0.0010744379
0.0010238329
0.00097665539
0.00093183834
0.00088811628
0.00084543246
0.00080404463
0.00076318733
0.00072140091
0.00067960029
0.00064167455
0.00061044889
0.00058746536
0.00057587491
0.00057755885
0.0005926464
0.0006175204
0.00064903572
0.00068554227
0.00072393458
0.00076075219
0.00079170693
0.00081046233
0.00080550515
0.00076899248
0.0007182002
0.00067104689
0.00059648647
0.00047815915
0.00033799793
0.00019331647
6.4876049e-05
-4.0685028e-05
-0.00012506624
-0.00015065564
-0.00011494447
-0.0001352923
-0.00029675171
-0.0004590245
-0.00051524118
-0.00059733994
-0.00083063914
-0.001173796
-0.0013128932
-0.0014482452
-0.001666673
-0.0019880523
-0.0022213754
-0.0022190535
-0.0022102881
-0.0023171316
-0.0026051419
-0.0029902137
-0.0032603705
-0.0035355468
-0.0037883423
0
0
0
0
0
0
0
0
0
0
0
0
0
0
0
0
0
0
0
0
0
0
0
0
0
0
0
0
0
0
0
0
0
0
0
0
0
0
0
0
0
0
0
0
0
0
0
0
0
0
0
0
0
0
0
0
0
0
0
0
0
0
0
0
0
0
0
0
0
0
0
0
0
0
0
0
0
0
0
0
0
0
0
0
0
0
0
0
0
0
0
0
0
0
0
0
0
0
0
0
0
0
0
0
0
0
0
0
0
0
0
0
0
0
0
0
0
0
0
0
0
0
0
0
0
0
0
0
0
0
0
0
0
0
0
0
0
0
0
0
0
0
0
0
0
0
0
0
0
0
0
0
0
0
0
0
0
0
0
0
0
0
0
0
0.0034049061
0.0032878689
0.0031743383
0.0030618858
0.0029489507
0.0028379164
0.0027274379
0.0026187479
0.0025108861
0.0024030395
0.0023002338
0.0021995319
0.0020974268
0.0019994224
0.0019040032
0.0018095846
0.0017158445
0.0016232477
0.0015307457
0.0014400336
0.0013536921
0.0012655407
0.0011784873
0.0010965845
0.0010160458
0.00093519612
0.00085596665
0.00077831371
0.00070098478
0.00062515121
0.00055313097
0.00048278034
0.00041387384
0.00035305543
0.00029602532
0.00023826409
0.00018305511
0.00013221268
8.4870698e-05
3.9966662e-05
-3.8080334e-06
-4.6549009e-05
-8.7978315e-05
-0.00012882043
-0.00017057709
-0.00021245578
-0.00025059651
-0.0002820887
-0.00030532724
-0.0003170795
-0.00031536778
-0.00030008697
-0.00027498134
-0.00024326142
-0.00020661854
-0.00016821553
-0.00013153557
-0.00010088516
-8.247939e-05
-8.7212193e-05
-0.00012295385
-0.00017349372
-0.00021996571
-0.0002914922
-0.00040582997
-0.00054356571
-0.0006887583
-0.00081989809
-0.00092835331
-0.0010166383
-0.0010435296
-0.0010078839
-0.0010231342
-0.0011760376
-0.0013442876
-0.0014044408
-0.0014709149
-0.0016560094
-0.0019645586
-0.0021948735
-0.0023345304
-0.0025325151
-0.0028277693
-0.0031422306
-0.0031119712
-0.0030995539
-0.0032037693
-0.0034478521
-0.003743204
0
0
0
0
0
0
0
0
0
0
0
0
0
0
0
0
0
0
0
0
0
0
0
0
0
0
0
0
0
0
0
0
0
0
0
0
0
0
0
0
0
0
0
0
0
0
0
0
0
0
0
0
0
0
0
0
0
0
0
0
0
0
0
0
0
0
0
0
0
0
0
0
0
0
0
0
0
0
0
0
0
0
0
0
0
0
0
0
0
0
0
0
0
0
0
0
0
0
0
0
0
0
0
0
0
0
0
0
0
0
0
0
0
0
0
0
0
0
0
0
0
0
0
0
0
0
0
0
0
0
0
0
0
0
0
0
0
0
0
0
0
0
0
0
0
0
0
0
0
0
0
0
0
0
0
0
0
0
0
0.0035365721
0.0034011535
0.0032713574
0.0031431678
0.0030142474
0.0028853604
0.0027609369
0.0026398443
0.0025209181
0.0024026032
0.002288544
0.0021760944
0.0020630735
0.0019519041
0.0018412626
0.0017324324
0.0016245118
0.001516404
0.0014132023
0.0013123841
0.0012101264
0.001111786
0.0010161221
0.00092158957
0.00082776753
0.00073512076
0.00064251487
0.00055153288
0.00046392703
0.00037687424
0.00028955918
0.00020734455
0.00012672093
4.5820925e-05
-3.3530734e-05
-0.00011126971
-0.0001886878
-0.00026472228
-0.00033695184
-0.00040752632
-0.00047678012
-0.00053791998
-0.00059510354
-0.00065292205
-0.0007083277
-0.00075940748
-0.00080691403
-0.00085190499
-0.00089573237
-0.00093853048
-0.00098000126
-0.0010208282
-0.0010625551
-0.0011045118
-0.0011428676
-0.0011746263
-0.0011981198
-0.0012100339
-0.0012082944
-0.0011928203
-0.0011674831
-0.0011355585
-0.0010987794
-0.0010603656
-0.0010238233
-0.00099347726
-0.00097542111
-0.00097992954
-0.0010149002
-0.0010651876
-0.0011109783
-0.0011794709
-0.0012898191
-0.0014251294
-0.0015708331
-0.0017046722
-0.0018160216
-0.0019082103
-0.0019364035
-0.0019008234
-0.001910976
-0.0020553236
-0.0022295506
-0.0022936404
-0.0023444899
-0.0025295843
-0.002809463
-0.0031337538
-0.0032165107
-0.0033983572
0
0
0
0
0
0
0
0
0
0
0
0
0
0
0
0
0
0
0
0
0
0
0
0
0
0
0
0
0
0
0
0
0
0
0
0
0
0
0
0
0
0
0
0
0
0
0
0
0
0
0
0
0
0
0
0
0
0
0
0
0
0
0
0
0
0
0
0
0
0
0
0
0
0
0
0
0
0
0
0
0
0
0
0
0
0
0
0
0
0
0
0
0
0
0
0
0
0
0
0
0
0
0
0
0
0
0
0
0
0
0
0
0
0
0
0
0
0
0
0
0
0
0
0
0
0
0
0
0
0
0
0
0
0
0
0
0
0
0
0
0
0
0
0
0
0
0
0
0
0
0
0
0
0
0
0
0
0
0
0
0.0034790124
0.0033360635
0.0031979345
0.0030621872
0.002924464
0.002788479
0.0026534518
0.0025195932
0.0023866811
0.0022595166
0.002130664
0.002001587
0.0018766559
0.0017551233
0.001635959
0.0015173374
0.0014029126
0.0012903031
0.0011771963
0.0010658917
0.00095508731
0.00084611681
0.00073813745
0.00062976836
0.00052617094
0.00042523621
0.00032282592
0.00022414959
0.00012824103
3.3594505e-05
-6.0309456e-05
-0.00015300619
-0.00024571595
-0.00033696783
-0.00042474595
-0.00051179216
-0.00059936902
-0.0006818954
-0.00076260396
-0.00084355427
-0.00092302812
-0.0010008531
-0.0010783604
-0.0011545958
-0.0012270347
-0.001297833
-0.0013674341
-0.0014288954
-0.0014862324
-0.0015441082
-0.0015997105
-0.0016510277
-0.0016986987
-0.0017437767
-0.0017876567
-0.0018305119
-0.0018720242
-0.0019128359
-0.0019545331
-0.0019965679
-0.0020351386
-0.0020671639
-0.0020909124
-0.0021029883
-0.002101221
-0.0020855537
-0.0020599848
-0.0020278557
-0.0019909402
-0.0019525158
-0.0019161111
-0.0018860694
-0.0018683628
-0.0018726469
-0.0019068465
-0.0019568815
-0.0020019909
-0.0020674495
-0.0021738082
-0.0023024708
-0.0024529078
-0.0025894464
-0.0027036899
-0.0027997824
-0.0028292775
-0.0027937629
-0.0027988179
-0.0028943689
-0.0030903318
-0.00318284
-0.0032180648
-0.0034031593
0
0
0
0
0
0
0
0
0
0
0
0
0
0
0
0
0
0
0
0
0
0
0
0
0
0
0
0
0
0
0
0
0
0
0
0
0
0
0
0
0
0
0
0
0
0
0
0
0
0
0
0
0
0
0
0
0
0
0
0
0
0
0
0
0
0
0
0
0
0
0
0
0
0
0
0
0
0
0
0
0
0
0
0
0
0
0
0
0
0
0
0
0
0
0
0
0
0
0
0
0
0
0
0
0
0
0
0
0
0
0
0
0
0
0
0
0
0
0
0
0
0
0
0
0
0
0
0
0
0
0
0
0
0
0
0
0
0
0
0
0
0
0
0
0
0
0
0
0
0
0
0
0
0
0
0
0
0
0.0035036689
0.0033477435
0.0031953101
0.0030435517
0.0028932417
0.0027448137
0.0025982615
0.0024543443
0.0023155245
0.0021797886
0.0020420408
0.0019059252
0.0017707652
0.0016367575
0.0015034023
0.0013758655
0.0012470807
0.0011178136
0.00099237495
0.00087040239
0.00075099984
0.00063207162
0.00051727352
0.00040451176
0.00029131905
0.00017987935
6.8912007e-05
-4.019876e-05
-0.00014823685
-0.00025686724
-0.00036086048
-0.00046191165
-0.0005644745
-0.00066348681
-0.00075964008
-0.00085440056
-0.00094838645
-0.0010411331
-0.0011339468
-0.0012254685
-0.0013134189
-0.0014004586
-0.0014882972
-0.0015711353
-0.0016519289
-0.0017329295
-0.0018125255
-0.0018904365
-0.001968033
-0.0020444693
-0.0021171175
-0.0021881396
-0.0022580881
-0.0023198708
-0.0023773613
-0.0024352944
-0.0024910933
-0.0025426478
-0.0025904835
-0.0026356483
-0.002679581
-0.0027224934
-0.0027640472
-0.0028048437
-0.0028465112
-0.002888624
-0.0029274097
-0.0029597015
-0.002983705
-0.0029959427
-0.0029941476
-0.0029782871
-0.0029524866
-0.0029201528
-0.002883101
-0.0028446659
-0.0028083988
-0.0027786615
-0.0027613045
-0.0027653642
-0.0027987929
-0.0028485755
-0.0028930035
-0.0029554282
-0.0030577973
-0.0031860425
-0.0033305195
-0.0034740412
0
0
0
0
0
0
0
0
0
0
0
0
0
0
0
0
0
0
0
0
0
0
0
0
0
0
0
0
0
0
0
0
0
0
0
0
0
0
0
0
0
0
0
0
0
0
0
0
0
0
0
0
0
0
0
0
0
0
0
0
0
0
0
0
0
0
0
0
0
0
0
0
0
0
0
0
0
0
0
0
0
0
0
0
0
0
0
0
0
0
0
0
0
0
0
0
0
0
0
0
0
0
0
0
0
0
0
0
0
0
0
0
0
0
0
0
0
0
0
0
0
0
0
0
0
0
0
0
0
0
0
0
0
0
0
0
0
0
0
0
0
0
0
0
0
0
0
0
0
0
0
0
0
0
0
0
0
0
0
0
0
0
0.0036080931
0.0034373731
0.0032727254
0.0031097205
0.0029460328
0.0027844839
0.002624535
0.0024679567
0.0023152988
0.0021641271
0.002012835
0.0018641067
0.0017174008
0.0015729432
0.0014329035
0.00129739
0.0011596188
0.0010233713
0.00088807865
0.00075392189
0.0006201235
0.00049175735
0.00036349743
0.00023404017
0.00010809397
-1.4318598e-05
-0.00013395928
-0.00025319415
-0.00036836559
-0.00048127957
-0.00059455818
-0.00070613301
-0.0008172633
-0.0009265143
-0.0010346112
-0.0011435028
-0.0012478919
-0.0013499274
-0.0014517749
-0.0015511232
-0.0016475212
-0.0017423956
-0.0018364634
-0.00192926
-0.0020221776
-0.0021139692
-0.0022020919
-0.002289125
-0.0023772254
-0.0024603753
-0.0025412538
-0.0026223047
-0.0027020229
-0.00278002
-0.0028577055
-0.0029343428
-0.0030072003
-0.0030784463
-0.0031464839
-0.0032108462
-0.0032684901
-0.0033264805
0
0
0
0
0
0
0
0
0
0
0
0
0
0
0
0
0
0
0
0
0
0
0
0
0
0
0
0
0
0
0
0
0
0
0
0
0
0
0
0
0
0
0
0
0
0
0
0
0
0
0
0
0
0
0
0
0
0
0
0
0
0
0
0
0
0
0
0
0
0
0
0
0
0
0
0
0
0
0
0
0
0
0
0
0
0
0
0
0
0
0
0
0
0
0
0
0
0
0
0
0
0
0
0
0
0
0
0
0
0
0
0
0
0
0
0
0
0
0
0
0
0
0
0
0
0
0
0
0
0
0
0
0
0
0
0
0
0
0
0
0
0
0
0
0
0
0
0
0
0
0
0
0
0
0
0
0
0
0
0
0
0
0
0
0
0
0
0
0
0
0
0
0
0
0
0
0
0
0
0
0
0
0
0
0
0
0
0
0
0.0036044703
0.0034219494
0.0032476699
0.0030764012
0.0029031601
0.0027315199
0.0025600633
0.0023948752
0.002231863
0.0020682753
0.001906009
0.0017462576
0.0015888228
0.0014350761
0.0012841138
0.0011326447
0.00098359261
0.00083654003
0.00069154226
0.00055081765
0.00041499136
0.0002771967
0.00014081752
5.3920534e-06
-0.00012891376
-0.00026315529
-0.00039189769
-0.00052008588
-0.00064973323
-0.00077618701
-0.00089903955
-0.0010189184
-0.0011384599
-0.0012540047
-0.0013676005
-0.0014804354
-0.0015921454
-0.0017034386
-0.0018128299
-0.0019209855
-0.0020301384
-0.0021349233
-0.0022370944
-0.0023390753
-0.0024387596
-0.0025354023
-0.0026303907
-0.0027245404
-0.002817387
-0.0029104084
-0.0030024699
-0.0030907649
-0.0031772442
-0.0032661535
-0.0033496153
0
0
0
0
0
0
0
0
0
0
0
0
0
0
0
0
0
0
0
0
0
0
0
0
0
0
0
0
0
0
0
0
0
0
0
0
0
0
0
0
0
0
0
0
0
0
0
0
0
0
0
0
0
0
0
0
0
0
0
0
0
0
0
0
0
0
0
0
0
0
0
0
0
0
0
0
0
0
0
0
0
0
0
0
0
0
0
0
0
0
0
0
0
0
0
0
0
0
0
0
0
0
0
0
0
0
0
0
0
0
0
0
0
0
0
0
0
0
0
0
0
0
0
0
0
0
0
0
0
0
0
0
0
0
0
0
0
0
0
0
0
0
0
0
0
0
0
0
0
0
0
0
0
0
0
0
0
0
0
0
0
0
0
0
0
0
0
0
0
0
0
0
0
0
0
0
0
0
0
0
0
0
0
0
0
0
0
0
0
0
0
0
0
0
0
0
0.0036534232
0.0034619708
0.0032790522
0.0030959379
0.0029119416
0.0027301159
0.00254668
0.0023715506
0.0022001271
0.0020277393
0.0018547573
0.0016846158
0.0015162581
0.0013540055
0.0011903494
0.0010278293
0.00086767521
0.00070968889
0.00055534974
0.00040410059
0.00025245436
0.00010307857
-4.4320711e-05
-0.00018985876
-0.00033126817
-0.00046740723
-0.00060522537
-0.0007417363
-0.00087729454
-0.0010117494
-0.0011464341
-0.0012755527
-0.0014036692
-0.0015335066
-0.001660468
-0.0017837605
-0.0019038776
-0.0020237257
-0.0021396438
-0.0022533948
-0.0023663126
-0.0024781577
-0.0025896139
-0.0026991454
-0.0028073598
-0.002916774
-0.0030219547
-0.0031242613
-0.0032263758
-0.003326396
-0.0034232834
0
0
0
0
0
0
0
0
0
0
0
0
0
0
0
0
0
0
0
0
0
0
0
0
0
0
0
0
0
0
0
0
0
0
0
0
0
0
0
0
0
0
0
0
0
0
0
0
0
0
0
0
0
0
0
0
0
0
0
0
0
0
0
0
0
0
0
0
0
0
0
0
0
0
0
0
0
0
0
0
0
0
0
0
0
0
0
0
0
0
0
0
0
0
0
0
0
0
0
0
0
0
0
0
0
0
0
0
0
0
0
0
0
0
0
0
0
0
0
0
0
0
0
0
0
0
0
0
0
0
0
0
0
0
0
0
0
0
0
0
0
0
0
0
0
0
0
0
0
0
0
0
0
0
0
0
0
0
0
0
0
0
0
0
0
0
0
0
0
0
0
0
0
0
0
0
0
0
0
0
0
0
0
0
0
0
0
0
0
0
0
0
0
0
0
0
0
0
0
0
0
0.0035492641
0.0033525967
0.0031613751
0.0029724315
0.0027810983
0.0025886366
0.0024050185
0.0022227541
0.002038353
0.0018548907
0.0016743845
0.0014945021
0.001323962
0.0011515935
0.00097854811
0.00080804256
0.00063894832
0.00047555247
0.00031242354
0.00014964948
-1.0907179e-05
-0.00016944503
-0.00032437662
-0.00047591266
-0.00062773597
-0.00077743547
-0.00092518145
-0.0010712597
-0.001213354
-0.0013510307
-0.0014876474
-0.0016242901
-0.0017599811
-0.0018945851
-0.0020297129
-0.0021592078
-0.0022874008
-0.00241728
-0.002544749
-0.0026684815
-0.0027888367
-0.0029089915
-0.0030252829
-0.0031391892
-0.0032516442
-0.0033641701
-0.0034757892
0
0
0
0
0
0
0
0
0
0
0
0
0
0
0
0
0
0
0
0
0
0
0
0
0
0
0
0
0
0
0
0
0
0
0
0
0
0
0
0
0
0
0
0
0
0
0
0
0
0
0
0
0
0
0
0
0
0
0
0
0
0
0
0
0
0
0
0
0
0
0
0
0
0
0
0
0
0
0
0
0
0
0
0
0
0
0
0
0
0
0
0
0
0
0
0
0
0
0
0
0
0
0
0
0
0
0
0
0
0
0
0
0
0
0
0
0
0
0
0
0
0
0
0
0
0
0
0
0
0
0
0
0
0
0
0
0
0
0
0
0
0
0
0
0
0
0
0
0
0
0
0
0
0
0
0
0
0
0
0
0
0
0
0
0
0
0
0
0
0
0
0
0
0
0
0
0
0
0
0
0
0
0
0
0
0
0
0
0
0
0
0
0
0
0
0
0
0
0
0
0
0
0
0
0.0036636404
0.0034606733
0.0032628189
0.0030693811
0.0028733914
0.0026780203
0.0024806323
0.0022889039
0.0021026604
0.0019086156
0.0017178744
0.0015290753
0.0013487504
0.0011644879
0.00098088379
0.00080003014
0.00061923267
0.00044779689
0.00027544782
0.00010233892
-6.8530629e-05
-0.00023836146
-0.00040229767
-0.00056550233
-0.0007285303
-0.00088948957
-0.0010485789
-0.001204103
-0.0013563158
-0.0015079263
-0.0016579495
-0.0018060422
-0.0019526608
-0.0020954399
-0.0022334407
-0.0023700695
-0.002506844
-0.0026426677
-0.0027774207
-0.0029129917
-0.0030428628
-0.003171052
-0.0032999626
-0.0034288727
0
0
0
0
0
0
0
0
0
0
0
0
0
0
0
0
0
0
0
0
0
0
0
0
0
0
0
0
0
0
0
0
0
0
0
0
0
0
0
0
0
0
0
0
0
0
0
0
0
0
0
0
0
0
0
0
0
0
0
0
0
0
0
0
0
0
0
0
0
0
0
0
0
0
0
0
0
0
0
0
0
0
0
0
0
0
0
0
0
0
0
0
0
0
0
0
0
0
0
0
0
0
0
0
0
0
0
0
0
0
0
0
0
0
0
0
0
0
0
0
0
0
0
0
0
0
0
0
0
0
0
0
0
0
0
0
0
0
0
0
0
0
0
0
0
0
0
0
0
0
0
0
0
0
0
0
0
0
0
0
0
0
0
0
0
0
0
0
0
0
0
0
0
0
0
0
0
0
0
0
0
0
0
0
0
0
0
0
0
0
0
0
0
0
0
0
0
0
0
0
0
0
0
0
0
0
0
0
0.0036053602
0.0033941365
0.0031919315
0.002994377
0.0027937765
0.0025903778
0.0023915946
0.0021962525
0.0020031176
0.0018063245
0.0016110028
0.0014164326
0.0012302167
0.001036457
0.0008455495
0.00065574104
0.00047474673
0.00029062282
0.00010687689
-7.4324224e-05
-0.00025603678
-0.00042945762
-0.0006006979
-0.00077387027
-0.00094510382
-0.0011156712
-0.0012801478
-0.0014434282
-0.0016067101
-0.001768072
-0.0019277129
-0.0020838293
-0.0022363271
-0.0023874973
-0.0025384636
-0.0026869029
-0.0028334551
-0.0029773289
-0.0031158507
-0.0032515917
-0.003389329
-0.0035253828
0
0
0
0
0
0
0
0
0
0
0
0
0
0
0
0
0
0
0
0
0
0
0
0
0
0
0
0
0
0
0
0
0
0
0
0
0
0
0
0
0
0
0
0
0
0
0
0
0
0
0
0
0
0
0
0
0
0
0
0
0
0
0
0
0
0
0
0
0
0
0
0
0
0
0
0
0
0
0
0
0
0
0
0
0
0
0
0
0
0
0
0
0
0
0
0
0
0
0
0
0
0
0
0
0
0
0
0
0
0
0
0
0
0
0
0
0
0
0
0
0
0
0
0
0
0
0
0
0
0
0
0
0
0
0
0
0
0
0
0
0
0
0
0
0
0
0
0
0
0
0
0
0
0
0
0
0
0
0
0
0
0
0
0
0
0
0
0
0
0
0
0
0
0
0
0
0
0
0
0
0
0
0
0
0
0
0
0
0
0
0
0
0
0
0
0
0
0
0
0
0
0
0
0
0
0
0
0
0
0
0.0035788369
0.0033636733
0.0031554504
0.0029472667
0.0027375359
0.0025252452
0.0023216784
0.002122729
0.0019242036
0.001722096
0.001520135
0.0013248902
0.0011316559
0.00093509493
0.00073975891
0.00054416444
0.00035777297
0.00016429833
-2.677543e-05
-0.00021759318
-0.00039999862
-0.00058324228
-0.00076713002
-0.00094867859
-0.0011313062
-0.001305577
-0.0014768436
-0.0016500795
-0.001821677
-0.001992981
-0.002157998
-0.0023210075
-0.0024845697
-0.0026467338
-0.0028062982
-0.002963425
-0.0031163385
-0.0032675106
-0.0034188333
-0.0035675986
0
0
0
0
0
0
0
0
0
0
0
0
0
0
0
0
0
0
0
0
0
0
0
0
0
0
0
0
0
0
0
0
0
0
0
0
0
0
0
0
0
0
0
0
0
0
0
0
0
0
0
0
0
0
0
0
0
0
0
0
0
0
0
0
0
0
0
0
0
0
0
0
0
0
0
0
0
0
0
0
0
0
0
0
0
0
0
0
0
0
0
0
0
0
0
0
0
0
0
0
0
0
0
0
0
0
0
0
0
0
0
0
0
0
0
0
0
0
0
0
0
0
0
0
0
0
0
0
0
0
0
0
0
0
0
0
0
0
0
0
0
0
0
0
0
0
0
0
0
0
0
0
0
0
0
0
0
0
0
0
0
0
0
0
0
0
0
0
0
0
0
0
0
0
0
0
0
0
0
0
0
0
0
0
0
0
0
0
0
0
0
0
0
0
0
0
0
0
0
0
0
0
0
0
0
0
0
0
0
0
0
0
0.0035748527
0.0033561997
0.0031421541
0.0029294231
0.0027123735
0.0024962508
0.0022855266
0.0020791783
0.0018698563
0.0016592975
0.0014514254
0.0012523009
0.0010538874
0.00085223207
0.00064983951
0.00045352795
0.00026019427
6.38654e-05
-0.00013148497
-0.00032779995
-0.00051467074
-0.00070786029
-0.00089910036
-0.0010909274
-0.0012740323
-0.00145632
-0.0016411369
-0.001823033
-0.0020065757
-0.0021816963
-0.0023531162
-0.0025255056
-0.0026984823
-0.0028685811
-0.0030367863
-0.003198865
-0.0033624956
-0.0035249136
0
0
0
0
0
0
0
0
0
0
0
0
0
0
0
0
0
0
0
0
0
0
0
0
0
0
0
0
0
0
0
0
0
0
0
0
0
0
0
0
0
0
0
0
0
0
0
0
0
0
0
0
0
0
0
0
0
0
0
0
0
0
0
0
0
0
0
0
0
0
0
0
0
0
0
0
0
0
0
0
0
0
0
0
0
0
0
0
0
0
0
0
0
0
0
0
0
0
0
0
0
0
0
0
0
0
0
0
0
0
0
0
0
0
0
0
0
0
0
0
0
0
0
0
0
0
0
0
0
0
0
0
0
0
0
0
0
0
0
0
0
0
0
0
0
0
0
0
0
0
0
0
0
0
0
0
0
0
0
0
0
0
0
0
0
0
0
0
0
0
0
0
0
0
0
0
0
0
0
0
0
0
0
0
0
0
0
0
0
0
0
0
0
0
0
0
0
0
0
0
0
0
0
0
0
0
0
0
0
0
0
0
0
0.0037904865
0.0035730361
0.0033549243
0.0031407713
0.0029251686
0.0027088115
0.0024898494
0.0022751285
0.002062796
0.0018459102
0.00162996
0.0014172177
0.0012105769
0.0010017679
0.00079147312
0.0005814989
0.00038187282
0.0001835712
-1.7631861e-05
-0.00022045599
-0.00041793898
-0.0006112674
-0.00080736414
-0.0010027288
-0.0011997643
-0.0013912102
-0.0015800189
-0.0017714253
-0.0019642616
-0.0021480661
-0.0023303237
-0.0025146923
-0.0026981879
-0.0028787644
-0.0030587535
-0.0032292813
-0.0034016513
-0.0035746915
0
0
0
0
0
0
0
0
0
0
0
0
0
0
0
0
0
0
0
0
0
0
0
0
0
0
0
0
0
0
0
0
0
0
0
0
0
0
0
0
0
0
0
0
0
0
0
0
0
0
0
0
0
0
0
0
0
0
0
0
0
0
0
0
0
0
0
0
0
0
0
0
0
0
0
0
0
0
0
0
0
0
0
0
0
0
0
0
0
0
0
0
0
0
0
0
0
0
0
0
0
0
0
0
0
0
0
0
0
0
0
0
0
0
0
0
0
0
0
0
0
0
0
0
0
0
0
0
0
0
0
0
0
0
0
0
0
0
0
0
0
0
0
0
0
0
0
0
0
0
0
0
0
0
0
0
0
0
0
0
0
0
0
0
0
0
0
0
0
0
0
0
0
0
0
0
0
0
0
0
0
0
0
0
0
0
0
0
0
0
0
0
0
0
0
0
0
0
0
0
0
0
0
0
0
0
0
0
0
0
0
0
0
0
0
0.0035855837
0.0033613726
0.0031422751
0.002924404
0.0027069982
0.0024885647
0.0022721094
0.002058759
0.0018427703
0.0016251334
0.001407096
0.0011944214
0.00098087684
0.0007634967
0.00054934117
0.00034219896
0.00013367945
-7.6351253e-05
-0.00028739248
-0.00048855527
-0.00068674501
-0.00088749579
-0.0010907515
-0.0012891633
-0.0014844425
-0.0016785937
-0.0018739727
-0.0020697463
-0.0022636815
-0.0024499135
-0.0026438348
-0.0028346492
-0.0030238229
-0.0032043274
-0.0033885574
-0.0035721948
0
0
0
0
0
0
0
0
0
0
0
0
0
0
0
0
0
0
0
0
0
0
0
0
0
0
0
0
0
0
0
0
0
0
0
0
0
0
0
0
0
0
0
0
0
0
0
0
0
0
0
0
0
0
0
0
0
0
0
0
0
0
0
0
0
0
0
0
0
0
0
0
0
0
0
0
0
0
0
0
0
0
0
0
0
0
0
0
0
0
0
0
0
0
0
0
0
0
0
0
0
0
0
0
0
0
0
0
0
0
0
0
0
0
0
0
0
0
0
0
0
0
0
0
0
0
0
0
0
0
0
0
0
0
0
0
0
0
0
0
0
0
0
0
0
0
0
0
0
0
0
0
0
0
0
0
0
0
0
0
0
0
0
0
0
0
0
0
0
0
0
0
0
0
0
0
0
0
0
0
0
0
0
0
0
0
0
0
0
0
0
0
0
0
0
0
0
0
0
0
0
0
0
0
0
0
0
0
0
0
0
0
0
0
0
0
0.0036333611
0.0034011344
0.0031728055
0.0029474759
0.002721429
0.0024964153
0.0022750447
0.0020583214
0.0018409602
0.0016233104
0.0014056134
0.0011924558
0.00097618368
0.00075909219
0.00054074563
0.00032739577
0.00011424973
-0.00010296664
-0.00031808132
-0.000526179
-0.00073440894
-0.00094417562
-0.0011562839
-0.0013594658
-0.0015570612
-0.0017573597
-0.001961047
-0.0021603876
-0.0023558048
-0.0025489925
-0.0027456606
-0.0029409902
-0.0031362322
-0.0033223572
-0.0035159935
-0.0037069741
0
0
0
0
0
0
0
0
0
0
0
0
0
0
0
0
0
0
0
0
0
0
0
0
0
0
0
0
0
0
0
0
0
0
0
0
0
0
0
0
0
0
0
0
0
0
0
0
0
0
0
0
0
0
0
0
0
0
0
0
0
0
0
0
0
0
0
0
0
0
0
0
0
0
0
0
0
0
0
0
0
0
0
0
0
0
0
0
0
0
0
0
0
0
0
0
0
0
0
0
0
0
0
0
0
0
0
0
0
0
0
0
0
0
0
0
0
0
0
0
0
0
0
0
0
0
0
0
0
0
0
0
0
0
0
0
0
0
0
0
0
0
0
0
0
0
0
0
0
0
0
0
0
0
0
0
0
0
0
0
0
0
0
0
0
0
0
0
0
0
0
0
0
0
0
0
0
0
0
0
0
0
0
0
0
0
0
0
0
0
0
0
0
0
0
0
0
0
0
0
0
0
0
0
0
0
0
0
0
0
0
0
0
0
0
0
0.0037104641
0.003472571
0.0032362627
0.0030040189
0.0027711421
0.0025383423
0.0023095046
0.0020835368
0.0018572742
0.0016322636
0.0014092389
0.0011923304
0.00097476649
0.00075727243
0.00053947954
0.000325715
0.00010977408
-0.000106949
-0.00032560471
-0.00053962983
-0.00075237737
-0.00096942998
-0.0011855038
-0.0013961145
-0.0016024973
-0.001812
-0.002022414
-0.0022297188
-0.0024287808
-0.0026272346
-0.0028290402
-0.0030312898
-0.0032271671
-0.0034204542
-0.0036168901
0
0
0
0
0
0
0
0
0
0
0
0
0
0
0
0
0
0
0
0
0
0
0
0
0
0
0
0
0
0
0
0
0
0
0
0
0
0
0
0
0
0
0
0
0
0
0
0
0
0
0
0
0
0
0
0
0
0
0
0
0
0
0
0
0
0
0
0
0
0
0
0
0
0
0
0
0
0
0
0
0
0
0
0
0
0
0
0
0
0
0
0
0
0
0
0
0
0
0
0
0
0
0
0
0
0
0
0
0
0
0
0
0
0
0
0
0
0
0
0
0
0
0
0
0
0
0
0
0
0
0
0
0
0
0
0
0
0
0
0
0
0
0
0
0
0
0
0
0
0
0
0
0
0
0
0
0
0
0
0
0
0
0
0
0
0
0
0
0
0
0
0
0
0
0
0
0
0
0
0
0
0
0
0
0
0
0
0
0
0
0
0
0
0
0
0
0
0
0
0
0
0
0
0
0
0
0
0
0
0
0
0
0
0
0
0
0
0.0038126374
0.0035687433
0.0033263738
0.0030877769
0.0028497554
0.0026116622
0.0023746858
0.0021418722
0.0019089232
0.0016766052
0.0014459098
0.0012187197
0.00099376059
0.00076810885
0.00054459521
0.00032640331
0.00010868397
-0.00010876553
-0.00032688004
-0.00054102575
-0.00075663551
-0.00097299019
-0.001191955
-0.0014066554
-0.0016190045
-0.0018358933
-0.0020518435
-0.0022644234
-0.0024710524
-0.0026799078
-0.0028902384
-0.0031000301
-0.0032992089
-0.0034975508
-0.0036989042
0
0
0
0
0
0
0
0
0
0
0
0
0
0
0
0
0
0
0
0
0
0
0
0
0
0
0
0
0
0
0
0
0
0
0
0
0
0
0
0
0
0
0
0
0
0
0
0
0
0
0
0
0
0
0
0
0
0
0
0
0
0
0
0
0
0
0
0
0
0
0
0
0
0
0
0
0
0
0
0
0
0
0
0
0
0
0
0
0
0
0
0
0
0
0
0
0
0
0
0
0
0
0
0
0
0
0
0
0
0
0
0
0
0
0
0
0
0
0
0
0
0
0
0
0
0
0
0
0
0
0
0
0
0
0
0
0
0
0
0
0
0
0
0
0
0
0
0
0
0
0
0
0
0
0
0
0
0
0
0
0
0
0
0
0
0
0
0
0
0
0
0
0
0
0
0
0
0
0
0
0
0
0
0
0
0
0
0
0
0
0
0
0
0
0
0
0
0
0
0
0
0
0
0
0
0
0
0
0
0
0
0
0
0
0
0
0
0
0.0036912803
0.0034429074
0.0031963607
0.0029535392
0.0027094663
0.0024665255
0.0022257773
0.0019890468
0.0017507535
0.001513109
0.0012782832
0.0010471395
0.00081438622
0.00058257776
0.00035498429
0.00012982148
-9.6045877e-05
-0.00032036212
-0.00053952376
-0.00075739855
-0.00097480348
-0.0011932396
-0.0014096937
-0.0016230451
-0.0018390314
-0.0020566683
-0.0022747084
-0.0024873626
-0.0027009236
-0.0029183068
-0.0031324134
-0.0033394304
-0.0035479962
-0.0037580627
0
0
0
0
0
0
0
0
0
0
0
0
0
0
0
0
0
0
0
0
0
0
0
0
0
0
0
0
0
0
0
0
0
0
0
0
0
0
0
0
0
0
0
0
0
0
0
0
0
0
0
0
0
0
0
0
0
0
0
0
0
0
0
0
0
0
0
0
0
0
0
0
0
0
0
0
0
0
0
0
0
0
0
0
0
0
0
0
0
0
0
0
0
0
0
0
0
0
0
0
0
0
0
0
0
0
0
0
0
0
0
0
0
0
0
0
0
0
0
0
0
0
0
0
0
0
0
0
0
0
0
0
0
0
0
0
0
0
0
0
0
0
0
0
0
0
0
0
0
0
0
0
0
0
0
0
0
0
0
0
0
0
0
0
0
0
0
0
0
0
0
0
0
0
0
0
0
0
0
0
0
0
0
0
0
0
0
0
0
0
0
0
0
0
0
0
0
0
0
0
0
0
0
0
0
0
0
0
0
0
0
0
0
0
0
0
0
0
0.0038338919
0.003582295
0.0033307423
0.0030821971
0.0028335759
0.0025849135
0.0023379041
0.0020944409
0.0018501893
0.0016066772
0.001365732
0.0011283094
0.00089048561
0.00065271751
0.00041651353
0.00018499278
-4.783275e-05
-0.00028021436
-0.00050875107
-0.00073411763