/*--------------------------------*- C++ -*----------------------------------*\
| =========                 |                                                 |
| \\      /  F ield         | OpenFOAM: The Open Source CFD Toolbox           |
|  \\    /   O peration     | Version:  2106                                  |
|   \\  /    A nd           | Website:  www.openfoam.com                      |
|    \\/     M anipulation  |                                                 |
\*---------------------------------------------------------------------------*/
FoamFile
{
    version     2.0;
    format      ascii;
    arch        "LSB;label=32;scalar=64";
    class       volVectorField;
    location    "0.155";
    object      U;
}
// * * * * * * * * * * * * * * * * * * * * * * * * * * * * * * * * * * * * * //

dimensions      [0 1 -1 0 0 0 0];

internalField   nonuniform List<vector> 
32768
(
(0.00086850983 -0.0012284697 0)
(0.0046171766 -0.0017850824 0)
(0.009237736 -0.001962997 0)
(0.014085671 -0.0020530963 0)
(0.018992077 -0.0020801337 0)
(0.023929007 -0.0020868984 0)
(0.028877786 -0.0020898213 0)
(0.033830729 -0.0020948853 0)
(0.038794309 -0.0021011736 0)
(0.043778384 -0.0021400766 0)
(0.048776865 -0.0021890316 0)
(0.053788112 -0.0022389403 0)
(0.058811006 -0.0022868308 0)
(0.063844925 -0.0023323422 0)
(0.068889882 -0.0023755078 0)
(0.073946774 -0.002415245 0)
(0.079017351 -0.0024517045 0)
(0.084102546 -0.0024851467 0)
(0.089205144 -0.0025173587 0)
(0.094323383 -0.0025464647 0)
(0.099465255 -0.0025778607 0)
(0.10461951 -0.0026024618 0)
(0.10980998 -0.0026365622 0)
(0.11500294 -0.0026563202 0)
(0.12024906 -0.0026926189 0)
(0.12549148 -0.0027160363 0)
(0.13078678 -0.0027377728 0)
(0.13610162 -0.0027911714 0)
(0.14144081 -0.0027700218 0)
(0.14682494 -0.0028716618 0)
(0.15224077 -0.0028190881 0)
(0.157693 -0.0029087899 0)
(0.16313787 -0.0029386215 0)
(0.16873204 -0.0029016709 0)
(0.17424084 -0.0030285723 0)
(0.17979237 -0.0030002861 0)
(0.18556036 -0.0030066739 0)
(0.19116036 -0.0031242437 0)
(0.19678596 -0.0030880483 0)
(0.20269294 -0.0031018588 0)
(0.20848615 -0.0032177017 0)
(0.21418036 -0.0031837584 0)
(0.22009968 -0.0031872363 0)
(0.22610061 -0.0033026922 0)
(0.23202394 -0.0032944003 0)
(0.23793574 -0.0032755639 0)
(0.24391401 -0.0033535223 0)
(0.25003924 -0.0033948527 0)
(0.25620977 -0.0033928158 0)
(0.26223933 -0.0034202361 0)
(0.26825769 -0.0034425606 0)
(0.27447609 -0.0034628414 0)
(0.28077514 -0.0035132797 0)
(0.2869839 -0.0035411427 0)
(0.29316021 -0.0035214894 0)
(0.29937181 -0.003526867 0)
(0.30560193 -0.0035801874 0)
(0.31191545 -0.0036171828 0)
(0.31831538 -0.0036148429 0)
(0.32464786 -0.0036259796 0)
(0.33088287 -0.0036315721 0)
(0.33711098 -0.0036319139 0)
(0.34341946 -0.0036487592 0)
(0.34984446 -0.0036867937 0)
(0.35624405 -0.0037264754 0)
(0.36255902 -0.0036981458 0)
(0.36890241 -0.003670343 0)
(0.37520723 -0.0037086351 0)
(0.38142996 -0.0037158412 0)
(0.38774121 -0.0036953926 0)
(0.39410552 -0.0037476805 0)
(0.40044919 -0.0037687584 0)
(0.40685472 -0.0037442223 0)
(0.41320579 -0.0037667088 0)
(0.41941761 -0.0037359635 0)
(0.42559798 -0.0037007965 0)
(0.43179463 -0.0037533442 0)
(0.43805567 -0.0037830883 0)
(0.44440517 -0.003773117 0)
(0.45073478 -0.0038061108 0)
(0.45700428 -0.0038068887 0)
(0.46327793 -0.0037559466 0)
(0.46947472 -0.0037692612 0)
(0.47553147 -0.0037690191 0)
(0.48162614 -0.0037194645 0)
(0.4878185 -0.0037764692 0)
(0.49400295 -0.0038328693 0)
(0.50019019 -0.0037738143 0)
(0.50636074 -0.0037820709 0)
(0.51248616 -0.0038258743 0)
(0.5186365 -0.003774654 0)
(0.52474276 -0.0037594841 0)
(0.53072704 -0.0037887897 0)
(0.5367182 -0.0037497816 0)
(0.54276603 -0.0037310931 0)
(0.54876856 -0.0037893554 0)
(0.55474503 -0.0037902075 0)
(0.56075243 -0.0037309132 0)
(0.56672038 -0.0037474127 0)
(0.57264306 -0.0037973624 0)
(0.57860186 -0.0037692734 0)
(0.58454604 -0.0037240395 0)
(0.59039005 -0.0037475167 0)
(0.59621897 -0.0037701999 0)
(0.60213828 -0.003721546 0)
(0.60806534 -0.0036992006 0)
(0.61386429 -0.0037344719 0)
(0.6195572 -0.0037055821 0)
(0.62522485 -0.0036366776 0)
(0.63086772 -0.0036615298 0)
(0.63651201 -0.0037119859 0)
(0.64223181 -0.0036788199 0)
(0.64799884 -0.0036562964 0)
(0.65370447 -0.0037049841 0)
(0.65936189 -0.0037011873 0)
(0.6650424 -0.0036310384 0)
(0.67068925 -0.0035948701 0)
(0.67620747 -0.0035990761 0)
(0.68161303 -0.0035704273 0)
(0.68695899 -0.0035410591 0)
(0.69227583 -0.0035287314 0)
(0.6976217 -0.0035522349 0)
(0.70308065 -0.0035547235 0)
(0.7086645 -0.0035280779 0)
(0.71425795 -0.0035201001 0)
(0.71972831 -0.0035226491 0)
(0.72505782 -0.0034945879 0)
(0.73029921 -0.0034431796 0)
(0.7354696 -0.0034081978 0)
(0.74056185 -0.0034020113 0)
(0.74562137 -0.0034111534 0)
(0.7507327 -0.0034113124 0)
(0.75590124 -0.0034108912 0)
(0.76108066 -0.0034129391 0)
(0.76628937 -0.0034207126 0)
(0.77154033 -0.0034060809 0)
(0.77676672 -0.003367822 0)
(0.78190665 -0.0032931346 0)
(0.78698509 -0.0032518272 0)
(0.79206306 -0.0032007053 0)
(0.79712841 -0.0031567626 0)
(0.80210611 -0.0030908082 0)
(0.80692462 -0.0030448796 0)
(0.81153082 -0.0030235548 0)
(0.81593719 -0.0030098366 0)
(0.82020078 -0.0029990834 0)
(0.82442251 -0.0029931073 0)
(0.82877243 -0.0029951229 0)
(0.83338618 -0.0030205925 0)
(0.83827827 -0.003062168 0)
(0.84334016 -0.0030569468 0)
(0.848383 -0.0029622457 0)
(0.85319118 -0.0028039064 0)
(0.85761402 -0.0026175044 0)
(0.86166164 -0.0024896202 0)
(0.86546088 -0.0024733403 0)
(0.86918846 -0.0024935902 0)
(0.87300114 -0.0025291567 0)
(0.87696473 -0.002567993 0)
(0.88105997 -0.0025332151 0)
(0.88524514 -0.0023627657 0)
(0.88947745 -0.0021133674 0)
(0.89366667 -0.0017972429 0)
(0.89740644 -0.0015420944 0)
(0.90074848 -0.001467728 0)
(0.9037533 -0.0016292852 0)
(0.90647074 -0.0019047247 0)
(0.90889617 -0.0020764852 0)
(0.9110179 -0.0019890296 0)
(0.91290477 -0.0017135072 0)
(0.91499209 -0.0013877623 0)
(0.91772804 -0.00096210887 0)
(0.92117222 -6.4196513e-05 0)
(0.92397538 0.0010237982 0)
(0.92554271 0.0016508374 0)
(0.92618517 0.0017382687 0)
(0.9261558 0.0015397536 0)
(0.92576089 0.0011304096 0)
(0.92525945 0.00065311579 0)
(0.9249301 0.00011882153 0)
(0.92515892 -0.00056211182 0)
(0.92599109 -0.001114029 0)
(0.92748024 -0.0016567282 0)
(0.92971283 -0.0022054924 0)
(0.93274815 -0.0027288566 0)
(0.93660179 -0.0032388626 0)
(0.94150371 -0.0037356593 0)
(0.94766695 -0.0041711723 0)
(0.95491948 -0.004536852 0)
(0.96287705 -0.0048098002 0)
(0.9712398 -0.0049603241 0)
(0.97970719 -0.0050758257 0)
(0.98806149 -0.0052425957 0)
(0.99642795 -0.0054746692 0)
(1.0049892 -0.0057500057 0)
(1.0136312 -0.0059748336 0)
(1.0220957 -0.0060223127 0)
(1.0302753 -0.0058947935 0)
(1.0384267 -0.0057099104 0)
(1.0473125 -0.0055665862 0)
(1.0578142 -0.0055405577 0)
(1.0700373 -0.0056053393 0)
(1.0829365 -0.0055006092 0)
(1.0948006 -0.004946666 0)
(1.1043119 -0.0043051031 0)
(1.1114311 -0.004093892 0)
(1.1174041 -0.0044425736 0)
(1.1238983 -0.0053529548 0)
(1.1318758 -0.006565185 0)
(1.1409315 -0.0072124393 0)
(1.1497377 -0.0066359333 0)
(1.1576943 -0.0054059242 0)
(1.1659026 -0.0044084814 0)
(1.1765216 -0.0043241735 0)
(1.1905694 -0.0059971331 0)
(1.2061078 -0.0088957667 0)
(1.2204115 -0.01159438 0)
(1.232364 -0.012940874 0)
(1.241849 -0.013416438 0)
(1.24999 -0.013870437 0)
(1.2587615 -0.014922929 0)
(1.2702834 -0.017219766 0)
(1.2859313 -0.022901553 0)
(1.303434 -0.034606188 0)
(1.3189769 -0.038336642 0)
(1.2876443 -0.020090015 0)
(1.1603827 -0.016476086 0)
(1.13335 0.095762594 0)
(0.70479674 0.12715313 0)
(0.49347593 0.085735977 0)
(0.39164653 0.049538441 0)
(0.31050239 0.030147551 0)
(0.25580575 0.020675433 0)
(0.21641888 0.015164485 0)
(0.18633133 0.011665286 0)
(0.16247326 0.0092974234 0)
(0.14295485 0.0075841189 0)
(0.12661393 0.0065855397 0)
(0.11268093 0.0054762063 0)
(0.10059497 0.0047025094 0)
(0.089979219 0.0041101219 0)
(0.080514388 0.0036297782 0)
(0.07199569 0.0032543404 0)
(0.064280563 0.0029520733 0)
(0.057214229 0.0026987857 0)
(0.050685032 0.0025772949 0)
(0.044603819 0.0023297789 0)
(0.038906499 0.0021073622 0)
(0.033521671 0.0020383326 0)
(0.028391327 0.0019876454 0)
(0.02347543 0.0018613613 0)
(0.018725498 0.0017883651 0)
(0.014111714 0.0017373744 0)
(0.0096116771 0.0017080281 0)
(0.0052154792 0.0016267394 0)
(0.0013634688 0.0013382055 0)
(0.00082304516 -0.0041682758 0)
(0.0050785028 -0.0067091841 0)
(0.010555046 -0.0074381527 0)
(0.016056527 -0.00769318 0)
(0.021655778 -0.0077699655 0)
(0.027280804 -0.0077914019 0)
(0.032915564 -0.0078003233 0)
(0.038546895 -0.0078047668 0)
(0.044189746 -0.0078248479 0)
(0.049805727 -0.0078160592 0)
(0.055411506 -0.0077968409 0)
(0.061012417 -0.0077752266 0)
(0.066612144 -0.0077556601 0)
(0.072213765 -0.0077406549 0)
(0.077821027 -0.0077309982 0)
(0.083436319 -0.0077255932 0)
(0.08906279 -0.0077243436 0)
(0.094698579 -0.0077260641 0)
(0.10035547 -0.0077337887 0)
(0.10601157 -0.0077400381 0)
(0.11172194 -0.0077604621 0)
(0.11737596 -0.0077648984 0)
(0.1231945 -0.0078001573 0)
(0.12878227 -0.0078151726 0)
(0.13480216 -0.0078086653 0)
(0.14024747 -0.0079753355 0)
(0.14651696 -0.0076645989 0)
(0.15186296 -0.0083430571 0)
(0.15825746 -0.0074149375 0)
(0.16368865 -0.0085855296 0)
(0.17003918 -0.0076730615 0)
(0.17576755 -0.0080743493 0)
(0.18171599 -0.008541597 0)
(0.1882353 -0.0076886361 0)
(0.1936462 -0.0084098886 0)
(0.20011756 -0.0085157589 0)
(0.20664038 -0.0079802409 0)
(0.21208261 -0.0084176074 0)
(0.2185973 -0.0086660329 0)
(0.2253998 -0.008273864 0)
(0.23111358 -0.0085070274 0)
(0.23736646 -0.0086123652 0)
(0.24418274 -0.0085793233 0)
(0.25055459 -0.0087820813 0)
(0.25688151 -0.0086089501 0)
(0.2632595 -0.0085847395 0)
(0.26975938 -0.0089318171 0)
(0.27665504 -0.0089619827 0)
(0.28330866 -0.0087184805 0)
(0.28948584 -0.0087795993 0)
(0.29605708 -0.0089682239 0)
(0.30312112 -0.0090091912 0)
(0.30990375 -0.0090151226 0)
(0.3164327 -0.0090144112 0)
(0.32312284 -0.0089265949 0)
(0.32986176 -0.0089004922 0)
(0.33653645 -0.009094995 0)
(0.34353244 -0.0092444031 0)
(0.35056446 -0.009052252 0)
(0.35722719 -0.0090414663 0)
(0.3638844 -0.0089477212 0)
(0.37056927 -0.0089804947 0)
(0.37752829 -0.0091672061 0)
(0.384689 -0.0091314944 0)
(0.39141861 -0.0091219345 0)
(0.39819078 -0.0090982244 0)
(0.40525095 -0.0089296144 0)
(0.41189084 -0.0088917863 0)
(0.41849373 -0.0090636757 0)
(0.42561661 -0.0089026317 0)
(0.43238982 -0.0090285582 0)
(0.4392841 -0.009202314 0)
(0.44646659 -0.0089314076 0)
(0.45315393 -0.0089197699 0)
(0.45976771 -0.0087897841 0)
(0.46649806 -0.0086470115 0)
(0.47316717 -0.0088466165 0)
(0.48006842 -0.0089695918 0)
(0.48711363 -0.0088560543 0)
(0.49389496 -0.0088804614 0)
(0.50068539 -0.008942675 0)
(0.50767815 -0.0086511718 0)
(0.51423793 -0.0085371097 0)
(0.52058431 -0.0086327875 0)
(0.52745089 -0.0085171755 0)
(0.53426042 -0.0086246722 0)
(0.54089901 -0.0087996555 0)
(0.54776381 -0.0085172975 0)
(0.55443303 -0.0085319646 0)
(0.5610883 -0.008700455 0)
(0.56798949 -0.0084504141 0)
(0.57454074 -0.0083193664 0)
(0.58089581 -0.0084234068 0)
(0.58759764 -0.0083326346 0)
(0.59429678 -0.0082764153 0)
(0.60073506 -0.0083592082 0)
(0.6073378 -0.0083323121 0)
(0.6140375 -0.0081877702 0)
(0.62047163 -0.008216302 0)
(0.62697738 -0.008245135 0)
(0.6336881 -0.0081609327 0)
(0.64018006 -0.0080476596 0)
(0.64642653 -0.0080499021 0)
(0.65291835 -0.0081355489 0)
(0.65969454 -0.008132717 0)
(0.66627652 -0.0079989162 0)
(0.67251105 -0.0079363842 0)
(0.6787619 -0.0077860031 0)
(0.68509259 -0.0076083749 0)
(0.69131211 -0.0076697457 0)
(0.69756733 -0.0078902046 0)
(0.70406865 -0.0078422224 0)
(0.71056898 -0.0077084864 0)
(0.71684154 -0.007792437 0)
(0.72318286 -0.0078784989 0)
(0.72970567 -0.0076771611 0)
(0.73606882 -0.0075519827 0)
(0.74215938 -0.0074817005 0)
(0.74814462 -0.0073161358 0)
(0.75410124 -0.0071073708 0)
(0.76004936 -0.0071489291 0)
(0.76607241 -0.0074266224 0)
(0.77234988 -0.0076278244 0)
(0.77885916 -0.0075802873 0)
(0.78527812 -0.0074985695 0)
(0.79140836 -0.0074144059 0)
(0.79742689 -0.0071882702 0)
(0.80346143 -0.0069641153 0)
(0.8093906 -0.0068954615 0)
(0.81511522 -0.0068556425 0)
(0.82086043 -0.006826799 0)
(0.8268345 -0.006842963 0)
(0.8328001 -0.0069166026 0)
(0.83868546 -0.0070360683 0)
(0.84473305 -0.0070705541 0)
(0.8508825 -0.0070878224 0)
(0.85693133 -0.0070433001 0)
(0.86282255 -0.0070174061 0)
(0.86876694 -0.0070299894 0)
(0.8748952 -0.0070049199 0)
(0.88104118 -0.006941288 0)
(0.88707017 -0.0067466422 0)
(0.89284682 -0.0064092268 0)
(0.89826979 -0.0060199888 0)
(0.90344922 -0.0056987687 0)
(0.90837449 -0.0055250335 0)
(0.91326765 -0.0056997581 0)
(0.91847673 -0.0061131835 0)
(0.92416629 -0.0065897324 0)
(0.93033648 -0.006970886 0)
(0.93677761 -0.0071012931 0)
(0.94319167 -0.0069045026 0)
(0.94914585 -0.0064695522 0)
(0.95448753 -0.0059045818 0)
(0.9593782 -0.0053915707 0)
(0.96401887 -0.0051223939 0)
(0.96870942 -0.0051077019 0)
(0.97365455 -0.0052775117 0)
(0.97884972 -0.0055423587 0)
(0.98424677 -0.0058086694 0)
(0.98985517 -0.0061200629 0)
(0.99567929 -0.0063465798 0)
(1.0015616 -0.0061513601 0)
(1.0073817 -0.0056138845 0)
(1.0130056 -0.0049509364 0)
(1.018108 -0.0041956095 0)
(1.022334 -0.0032652758 0)
(1.0255761 -0.002346456 0)
(1.027985 -0.0018454061 0)
(1.0300908 -0.0022657521 0)
(1.0327595 -0.0036220338 0)
(1.0367999 -0.005242664 0)
(1.042532 -0.0059958272 0)
(1.0495403 -0.0054476478 0)
(1.0570681 -0.0040217378 0)
(1.0645725 -0.0024368866 0)
(1.0714063 -0.0010930437 0)
(1.0764123 -0.00023950723 0)
(1.0798275 0.00014821733 0)
(1.081757 6.9663457e-05 0)
(1.0825517 -0.00047275144 0)
(1.0831002 -0.0011751788 0)
(1.0834149 -0.0019251645 0)
(1.0836326 -0.0029877011 0)
(1.0846065 -0.0040361534 0)
(1.0865259 -0.0053216619 0)
(1.0898264 -0.0072409726 0)
(1.094897 -0.0091932462 0)
(1.1009483 -0.010677028 0)
(1.1075821 -0.011652992 0)
(1.1147098 -0.011950363 0)
(1.121562 -0.01186114 0)
(1.1281301 -0.011687067 0)
(1.1353679 -0.011515734 0)
(1.1433388 -0.011388359 0)
(1.1512455 -0.011237053 0)
(1.1584497 -0.010812483 0)
(1.1647427 -0.010600737 0)
(1.170758 -0.011656416 0)
(1.1783665 -0.014374034 0)
(1.1892197 -0.017600896 0)
(1.2029076 -0.019651383 0)
(1.2172746 -0.019257167 0)
(1.2290045 -0.01661826 0)
(1.236269 -0.01283044 0)
(1.2406823 -0.0096503851 0)
(1.2455566 -0.0082856974 0)
(1.2534299 -0.0088450506 0)
(1.2642999 -0.0099631164 0)
(1.2755097 -0.0099273616 0)
(1.2845069 -0.0093242511 0)
(1.2912089 -0.010895582 0)
(1.2974838 -0.015588563 0)
(1.3071008 -0.021932795 0)
(1.3214888 -0.025141998 0)
(1.3367782 -0.020762859 0)
(1.3509674 -0.012513267 0)
(1.3646654 -0.0061811848 0)
(1.374148 -0.0045593017 0)
(1.3790751 -0.0044815935 0)
(1.3831367 -0.0059441627 0)
(1.3881557 -0.011773428 0)
(1.3921267 -0.021426985 0)
(1.3806411 -0.0098084077 0)
(1.3062927 0.025185447 0)
(1.1439824 0.044472699 0)
(1.1800032 0.39046133 0)
(0.83133254 0.40930224 0)
(0.58168752 0.33177083 0)
(0.50717783 0.22858451 0)
(0.42829238 0.14464597 0)
(0.36235943 0.098088188 0)
(0.3106114 0.070410128 0)
(0.26934669 0.05320933 0)
(0.23592401 0.041894911 0)
(0.20836935 0.034034773 0)
(0.18520602 0.028399013 0)
(0.1654208 0.023879423 0)
(0.14827256 0.020754845 0)
(0.13318091 0.018230808 0)
(0.11973571 0.01616288 0)
(0.10765214 0.01464819 0)
(0.096698011 0.013175174 0)
(0.086645445 0.012024821 0)
(0.07735714 0.011089622 0)
(0.068714376 0.010212397 0)
(0.060615153 0.0096332497 0)
(0.052961019 0.0091034647 0)
(0.04568069 0.0086498542 0)
(0.038727305 0.0082152243 0)
(0.032032626 0.0079510389 0)
(0.025548448 0.0077440217 0)
(0.019231258 0.0075114013 0)
(0.013050972 0.0073087318 0)
(0.0070410045 0.0069134675 0)
(0.0016983846 0.005260365 0)
(0.00083281981 -0.0070695634 0)
(0.0050686664 -0.011601503 0)
(0.010476277 -0.012847482 0)
(0.015937853 -0.013217737 0)
(0.021501818 -0.013330226 0)
(0.027087515 -0.013364416 0)
(0.032677899 -0.013375744 0)
(0.038270459 -0.013383891 0)
(0.043861524 -0.013390695 0)
(0.049454767 -0.013400439 0)
(0.05505373 -0.013416677 0)
(0.060658941 -0.013439697 0)
(0.066271168 -0.013468814 0)
(0.071892042 -0.013502871 0)
(0.077523129 -0.013540999 0)
(0.083164754 -0.013583224 0)
(0.088820035 -0.01362927 0)
(0.09448438 -0.013678911 0)
(0.10017469 -0.013731622 0)
(0.10585348 -0.013788669 0)
(0.11161327 -0.013845688 0)
(0.11725508 -0.013915216 0)
(0.12319109 -0.013964205 0)
(0.12864095 -0.014073409 0)
(0.13497639 -0.014058258 0)
(0.14000724 -0.014318669 0)
(0.14689852 -0.014036647 0)
(0.15158918 -0.014771564 0)
(0.15863671 -0.013825943 0)
(0.16369936 -0.015283401 0)
(0.17013811 -0.013980963 0)
(0.17606561 -0.014933317 0)
(0.18186974 -0.015193909 0)
(0.18838537 -0.014238464 0)
(0.19395701 -0.01536609 0)
(0.20045911 -0.015424886 0)
(0.20676009 -0.014733518 0)
(0.21242169 -0.015280601 0)
(0.21911775 -0.015943875 0)
(0.22556498 -0.015348848 0)
(0.23140365 -0.015352363 0)
(0.23797925 -0.015780187 0)
(0.24451769 -0.016182559 0)
(0.25088504 -0.016048041 0)
(0.25738107 -0.015575676 0)
(0.26373845 -0.015974006 0)
(0.27025342 -0.01671703 0)
(0.27717385 -0.016608537 0)
(0.28378834 -0.015946321 0)
(0.28996726 -0.016136231 0)
(0.29665458 -0.016797211 0)
(0.30379093 -0.016983043 0)
(0.31047726 -0.016712382 0)
(0.31695158 -0.016593737 0)
(0.32370472 -0.016605378 0)
(0.33051279 -0.016707683 0)
(0.33727338 -0.017132951 0)
(0.34435814 -0.017401024 0)
(0.35117103 -0.016923994 0)
(0.35769839 -0.016886805 0)
(0.36461017 -0.016701118 0)
(0.37143895 -0.01699505 0)
(0.37838617 -0.017512096 0)
(0.38556037 -0.017360556 0)
(0.39204611 -0.017105295 0)
(0.39888807 -0.017168718 0)
(0.40601281 -0.017080995 0)
(0.41268484 -0.01687261 0)
(0.41946649 -0.017199253 0)
(0.42663256 -0.017142788 0)
(0.43327997 -0.017416127 0)
(0.44012759 -0.017577663 0)
(0.44719431 -0.017243694 0)
(0.45393074 -0.0170609 0)
(0.46074096 -0.016693117 0)
(0.46741971 -0.016798343 0)
(0.47420741 -0.01727655 0)
(0.4812673 -0.017399846 0)
(0.48810624 -0.017221565 0)
(0.49467404 -0.017336273 0)
(0.5016367 -0.017345561 0)
(0.50869294 -0.016867227 0)
(0.51513498 -0.016627238 0)
(0.52167293 -0.016740575 0)
(0.52855076 -0.016868956 0)
(0.53523858 -0.017243938 0)
(0.54218058 -0.017163105 0)
(0.54895848 -0.016733708 0)
(0.55528661 -0.017092177 0)
(0.56225393 -0.017268709 0)
(0.5693196 -0.016681606 0)
(0.57558146 -0.01656351 0)
(0.58194951 -0.016730359 0)
(0.58874323 -0.016641089 0)
(0.59532945 -0.016636473 0)
(0.60187046 -0.016831395 0)
(0.60864007 -0.016648634 0)
(0.6152531 -0.016450847 0)
(0.62171452 -0.016718351 0)
(0.62844869 -0.016815149 0)
(0.63518315 -0.016442229 0)
(0.64156254 -0.016247712 0)
(0.64768469 -0.016464348 0)
(0.65412274 -0.016684049 0)
(0.6608705 -0.016564675 0)
(0.66742064 -0.016411627 0)
(0.67370877 -0.016186017 0)
(0.68010474 -0.015827355 0)
(0.6864505 -0.015749658 0)
(0.69270648 -0.01609219 0)
(0.69926901 -0.016297844 0)
(0.70600301 -0.016214281 0)
(0.71227376 -0.016172191 0)
(0.71821749 -0.016254522 0)
(0.7245206 -0.016252109 0)
(0.73105881 -0.016103864 0)
(0.73739999 -0.015924672 0)
(0.74370047 -0.015673591 0)
(0.75001482 -0.015337071 0)
(0.75601489 -0.015100026 0)
(0.76171928 -0.015301028 0)
(0.76765719 -0.015858913 0)
(0.77417254 -0.016235001 0)
(0.78072788 -0.01619334 0)
(0.78687781 -0.015935552 0)
(0.79283492 -0.015627508 0)
(0.79883126 -0.015301311 0)
(0.80485261 -0.014986503 0)
(0.81099109 -0.014853063 0)
(0.81719891 -0.014869071 0)
(0.82328902 -0.014957664 0)
(0.82931944 -0.014974169 0)
(0.83527343 -0.01506958 0)
(0.8412288 -0.015299005 0)
(0.84730521 -0.01536954 0)
(0.85340899 -0.015195207 0)
(0.85936935 -0.014949753 0)
(0.86499036 -0.014880752 0)
(0.87050846 -0.015076267 0)
(0.87621332 -0.015148581 0)
(0.88207538 -0.015091187 0)
(0.88812201 -0.014746701 0)
(0.89428614 -0.014212838 0)
(0.90037314 -0.013589997 0)
(0.90633891 -0.012958399 0)
(0.911801 -0.012540491 0)
(0.91684215 -0.012817254 0)
(0.92193098 -0.013633993 0)
(0.92725994 -0.014675722 0)
(0.93303239 -0.015539078 0)
(0.9393002 -0.015815531 0)
(0.94576054 -0.015285258 0)
(0.95196064 -0.014113613 0)
(0.95760105 -0.012804014 0)
(0.96253866 -0.011937447 0)
(0.96714619 -0.011695769 0)
(0.97190519 -0.011956325 0)
(0.97691711 -0.012520558 0)
(0.98218297 -0.01301758 0)
(0.98760746 -0.013327944 0)
(0.99303839 -0.013677215 0)
(0.99843355 -0.013812518 0)
(1.0037482 -0.013433161 0)
(1.0090575 -0.012778895 0)
(1.0144159 -0.011959222 0)
(1.0195325 -0.010828497 0)
(1.02435 -0.0093914808 0)
(1.0291357 -0.0078456827 0)
(1.0337324 -0.0066668815 0)
(1.0377801 -0.006578458 0)
(1.0415429 -0.0081537978 0)
(1.0457229 -0.010728673 0)
(1.0506919 -0.012743825 0)
(1.0563165 -0.013535467 0)
(1.0623129 -0.013310627 0)
(1.0682283 -0.012219286 0)
(1.0736767 -0.010013643 0)
(1.0782651 -0.0071751261 0)
(1.081895 -0.0044917924 0)
(1.0844988 -0.002627518 0)
(1.0863691 -0.001996127 0)
(1.0879618 -0.0018814234 0)
(1.0890157 -0.0022222345 0)
(1.0902201 -0.0036381028 0)
(1.0924981 -0.0058224901 0)
(1.0953382 -0.0087835315 0)
(1.099023 -0.012205795 0)
(1.1040095 -0.015088704 0)
(1.1093631 -0.017233777 0)
(1.1145891 -0.018455462 0)
(1.1196606 -0.018474786 0)
(1.124234 -0.018240185 0)
(1.1288633 -0.018916132 0)
(1.1345164 -0.020402684 0)
(1.1419883 -0.02129933 0)
(1.151821 -0.020609639 0)
(1.163213 -0.018626114 0)
(1.174032 -0.017159901 0)
(1.1829873 -0.018770429 0)
(1.1911216 -0.023960015 0)
(1.1999235 -0.030348549 0)
(1.2092814 -0.034143427 0)
(1.2179106 -0.031645399 0)
(1.2254327 -0.023188131 0)
(1.2333859 -0.014727281 0)
(1.2433505 -0.012215474 0)
(1.2555237 -0.016618609 0)
(1.2691751 -0.024321718 0)
(1.2839329 -0.029701235 0)
(1.299513 -0.028565784 0)
(1.3132181 -0.022020845 0)
(1.3226262 -0.016790997 0)
(1.3280565 -0.017463973 0)
(1.3339995 -0.024452299 0)
(1.3431662 -0.034792708 0)
(1.3508744 -0.040874838 0)
(1.3562371 -0.044127248 0)
(1.3569486 -0.03799659 0)
(1.3523954 -0.027792213 0)
(1.3403135 -0.023291048 0)
(1.3238211 -0.029439231 0)
(1.3140155 -0.03513943 0)
(1.2967085 -0.022342713 0)
(1.1959314 0.021161378 0)
(0.9732487 0.077631544 0)
(0.92193494 0.28426784 0)
(0.59922122 0.56631459 0)
(0.46927735 0.53341419 0)
(0.45742904 0.4115506 0)
(0.42949433 0.28657679 0)
(0.38661386 0.20213177 0)
(0.34246817 0.1482209 0)
(0.30247306 0.11253491 0)
(0.26769701 0.088221816 0)
(0.23782846 0.071147593 0)
(0.21218146 0.0587811 0)
(0.19003105 0.049578207 0)
(0.17071436 0.042520162 0)
(0.15368065 0.037038509 0)
(0.13853278 0.032679988 0)
(0.12492308 0.029186175 0)
(0.11259903 0.026172227 0)
(0.10135031 0.023908662 0)
(0.090974772 0.021973275 0)
(0.081341663 0.020336649 0)
(0.072341829 0.01905653 0)
(0.063879736 0.017836636 0)
(0.055860198 0.016860808 0)
(0.048214682 0.016054106 0)
(0.040889181 0.015383208 0)
(0.033822665 0.014844063 0)
(0.026973441 0.014408996 0)
(0.020296369 0.014044743 0)
(0.013762385 0.01367935 0)
(0.0074251103 0.01294555 0)
(0.0017587619 0.00976651 0)
(0.00084684524 -0.009993783 0)
(0.0050897116 -0.016473602 0)
(0.010493018 -0.018242448 0)
(0.015957895 -0.018761415 0)
(0.021526644 -0.018917801 0)
(0.027116135 -0.018964415 0)
(0.032709587 -0.018979068 0)
(0.038303397 -0.018985913 0)
(0.043897642 -0.018994241 0)
(0.049493594 -0.019004355 0)
(0.055093232 -0.019017361 0)
(0.060697904 -0.019033952 0)
(0.066308731 -0.019053885 0)
(0.07192686 -0.019077391 0)
(0.077553774 -0.019104928 0)
(0.083190261 -0.019137033 0)
(0.088839369 -0.019173672 0)
(0.094497748 -0.01921607 0)
(0.10017924 -0.019261494 0)
(0.10585481 -0.019318103 0)
(0.11159657 -0.019365556 0)
(0.11725243 -0.019452342 0)
(0.1231366 -0.019472041 0)
(0.12865527 -0.019640777 0)
(0.13486296 -0.019552083 0)
(0.140042 -0.019918364 0)
(0.14676178 -0.019562489 0)
(0.15155723 -0.020337641 0)
(0.15859424 -0.019466895 0)
(0.16352861 -0.020806691 0)
(0.1701413 -0.01966057 0)
(0.17592145 -0.020565804 0)
(0.18179363 -0.02082155 0)
(0.18821806 -0.019936855 0)
(0.19391684 -0.021078957 0)
(0.20035325 -0.021160038 0)
(0.20651733 -0.020418052 0)
(0.21233637 -0.021089215 0)
(0.21915803 -0.021801933 0)
(0.22526198 -0.021092656 0)
(0.23114411 -0.021122929 0)
(0.23806524 -0.021776508 0)
(0.24444016 -0.022111062 0)
(0.25058674 -0.021766207 0)
(0.2570887 -0.021545813 0)
(0.26376751 -0.022059099 0)
(0.27033818 -0.022592407 0)
(0.27688798 -0.022589279 0)
(0.28341325 -0.021935927 0)
(0.28988992 -0.022079194 0)
(0.29675134 -0.022854076 0)
(0.30371238 -0.023231154 0)
(0.31028574 -0.022583203 0)
(0.3166585 -0.02245318 0)
(0.32354936 -0.022715935 0)
(0.33044327 -0.022935522 0)
(0.3373621 -0.0233027 0)
(0.34447272 -0.023321905 0)
(0.35084413 -0.022661206 0)
(0.35725567 -0.023074292 0)
(0.36455136 -0.022827243 0)
(0.37155811 -0.023091546 0)
(0.3784171 -0.023672794 0)
(0.38571953 -0.023194547 0)
(0.39172443 -0.022780376 0)
(0.39872155 -0.023245536 0)
(0.40578029 -0.023260587 0)
(0.41248931 -0.022783908 0)
(0.4195131 -0.023173632 0)
(0.42682259 -0.023118359 0)
(0.43360132 -0.023177095 0)
(0.44010386 -0.023188757 0)
(0.4467162 -0.023241333 0)
(0.45357967 -0.022993686 0)
(0.46050691 -0.02232389 0)
(0.46729313 -0.022721907 0)
(0.47460368 -0.023225511 0)
(0.48182886 -0.022933571 0)
(0.48815851 -0.022720583 0)
(0.49436295 -0.023061067 0)
(0.50138205 -0.023032093 0)
(0.50833873 -0.022536279 0)
(0.51478765 -0.022216696 0)
(0.52176669 -0.022075298 0)
(0.52874548 -0.022487481 0)
(0.53543754 -0.023061324 0)
(0.5426328 -0.022456329 0)
(0.54905454 -0.021941 0)
(0.5548868 -0.022675975 0)
(0.5620962 -0.022819067 0)
(0.5692857 -0.022016822 0)
(0.57535088 -0.021723806 0)
(0.5818204 -0.021796958 0)
(0.5887998 -0.021916467 0)
(0.59538366 -0.02205621 0)
(0.60204328 -0.022113266 0)
(0.60894869 -0.021820794 0)
(0.61522618 -0.021669181 0)
(0.62148227 -0.021941037 0)
(0.62857557 -0.022035891 0)
(0.63550719 -0.021498326 0)
(0.64153008 -0.02098062 0)
(0.64753733 -0.021145314 0)
(0.65415106 -0.021582467 0)
(0.66076404 -0.021602263 0)
(0.66706949 -0.02145819 0)
(0.67360854 -0.021001593 0)
(0.68018781 -0.020548326 0)
(0.6863942 -0.020635849 0)
(0.69280828 -0.021256841 0)
(0.69980036 -0.021239774 0)
(0.70656642 -0.020821493 0)
(0.71263274 -0.020596283 0)
(0.71838683 -0.020702199 0)
(0.72440161 -0.02068861 0)
(0.73062448 -0.020816637 0)
(0.73687151 -0.02086148 0)
(0.74337774 -0.020507046 0)
(0.75006562 -0.019730884 -2.0330606e-34)
(0.75631665 -0.019323557 -1.0665914e-29)
(0.76193057 -0.019525905 0)
(0.76776567 -0.02027332 0)
(0.77433013 -0.020769213 0)
(0.78092666 -0.020773502 0)
(0.78700946 -0.020252267 0)
(0.79278826 -0.019711886 0)
(0.79871741 -0.01947048 0)
(0.8048435 -0.019685143 0)
(0.81108483 -0.019651519 -1.602138e-34)
(0.81741902 -0.019348702 -9.2567715e-30)
(0.82380846 -0.019230714 -1.688306e-34)
(0.82994613 -0.01919661 -8.9838194e-30)
(0.83558116 -0.019175482 0)
(0.841233 -0.019436099 0)
(0.84727368 -0.019645461 0)
(0.8533588 -0.019495226 0)
(0.85926303 -0.018889854 0)
(0.8648935 -0.018426098 0)
(0.87035716 -0.018440828 -1.4262169e-34)
(0.87583422 -0.018762533 -7.8738141e-30)
(0.88142262 -0.019124112 0)
(0.88733428 -0.019250609 0)
(0.89356131 -0.018992955 0)
(0.90012491 -0.018501244 0)
(0.90695006 -0.017658457 0)
(0.91335775 -0.016689063 0)
(0.91899034 -0.016382825 0)
(0.92415966 -0.016817673 0)
(0.92896794 -0.017875128 0)
(0.93377756 -0.019224405 0)
(0.93906204 -0.019970025 -1.1267263e-34)
(0.94467056 -0.01975356 -6.1838304e-30)
(0.95029805 -0.018519265 0)
(0.95592312 -0.016681686 0)
(0.96119601 -0.015352137 0)
(0.9664433 -0.014976536 0)
(0.97200559 -0.015289178 0)
(0.97759689 -0.015950716 0)
(0.98322678 -0.016539454 0)
(0.98883616 -0.016845767 0)
(0.99416345 -0.017132689 8.7662478e-35)
(0.99918543 -0.01717236 4.8616026e-30)
(1.0039631 -0.016871622 0)
(1.0087203 -0.016491238 0)
(1.0136006 -0.015738057 7.2567111e-35)
(1.0184658 -0.014341867 3.9807217e-30)
(1.0233603 -0.012893511 0)
(1.0284109 -0.011577926 0)
(1.0337131 -0.010354453 0)
(1.0392222 -0.0099835896 0)
(1.0446807 -0.011453832 5.4073503e-35)
(1.0501889 -0.014347939 3.0756541e-30)
(1.0557468 -0.016844844 0)
(1.0608104 -0.01743467 0)
(1.0652471 -0.016240601 0)
(1.0687281 -0.014354113 0)
(1.0712126 -0.011687511 0)
(1.0734055 -0.008666556 0)
(1.0757417 -0.0062095904 0)
(1.0781104 -0.0046426095 0)
(1.0810565 -0.0041587531 0)
(1.084561 -0.003954884 0)
(1.0882581 -0.0044366884 0)
(1.0923952 -0.006376926 0)
(1.0960779 -0.0086229726 0)
(1.0991423 -0.012006202 0)
(1.1025911 -0.016476887 0)
(1.1059729 -0.019719673 0)
(1.1090104 -0.021268098 0)
(1.1123902 -0.021878072 0)
(1.1157988 -0.021616617 0)
(1.1187093 -0.021244781 0)
(1.1221347 -0.021898892 0)
(1.1280078 -0.02480469 0)
(1.1372977 -0.029590602 0)
(1.1502457 -0.033887172 0)
(1.1631025 -0.034184673 0)
(1.1736301 -0.031161211 0)
(1.1817649 -0.028942439 0)
(1.1889785 -0.0303617 0)
(1.1968178 -0.033877031 0)
(1.2062829 -0.035948768 0)
(1.2173752 -0.034940248 0)
(1.2299078 -0.032991966 0)
(1.2447113 -0.032416638 0)
(1.2626242 -0.033601927 0)
(1.2811024 -0.034806527 0)
(1.2960661 -0.03648783 0)
(1.3085578 -0.038809789 0)
(1.321198 -0.038754094 0)
(1.3322953 -0.032744012 0)
(1.3309615 -0.027787969 0)
(1.3247797 -0.031500123 -3.0782395e-34)
(1.3187563 -0.041305618 4.2392242e-32)
(1.3107762 -0.048143071 0)
(1.2785265 -0.032913127 0)
(1.22519 -0.012102472 0)
(1.1715181 -0.00032260692 0)
(1.1267 0.0085023155 0)
(1.0434048 0.021945307 0)
(1.0045602 0.016431204 0)
(1.0244987 0.01382268 0)
(0.96087712 0.068716869 0)
(0.76185986 0.16082744 0)
(0.48558988 0.40568941 0)
(0.29040194 0.58120189 0)
(0.25668868 0.60716967 0)
(0.30721498 0.53209313 0)
(0.34727786 0.40700338 0)
(0.34801147 0.30868131 0)
(0.32995586 0.23621375 -1.6748271e-33)
(0.30404782 0.18313386 -1.582629e-28)
(0.2764842 0.14513783 0)
(0.25001665 0.11737849 0)
(0.22570502 0.096788129 0)
(0.20379392 0.081258323 0)
(0.18417886 0.069344135 0)
(0.16660666 0.060029703 0)
(0.15080092 0.052651932 0)
(0.13652297 0.04672808 0)
(0.12354884 0.041913194 0)
(0.11167574 0.037936734 0)
(0.10073373 0.034658546 0)
(0.090591992 0.031918608 0)
(0.081130357 0.029626283 -8.8769627e-34)
(0.07225014 0.027603316 -4.3495529e-29)
(0.063866077 0.026043404 6.7609298e-34)
(0.055898835 0.024769664 3.2807195e-29)
(0.048286825 0.023568394 0)
(0.040971434 0.022610299 0)
(0.033902153 0.021834875 -3.4938917e-34)
(0.027039544 0.02117215 -1.5577177e-29)
(0.020342508 0.020681084 -2.1159977e-34)
(0.013786557 0.020130627 -8.1321908e-30)
(0.0074349192 0.019052478 7.9835099e-35)
(0.0017508414 0.014326167 1.3547047e-30)