/*--------------------------------*- C++ -*----------------------------------*\
| =========                 |                                                 |
| \\      /  F ield         | OpenFOAM: The Open Source CFD Toolbox           |
|  \\    /   O peration     | Version:  2106                                  |
|   \\  /    A nd           | Website:  www.openfoam.com                      |
|    \\/     M anipulation  |                                                 |
\*---------------------------------------------------------------------------*/
FoamFile
{
    version     2.0;
    format      ascii;
    arch        "LSB;label=32;scalar=64";
    class       volScalarField;
    location    "0.007";
    object      p;
}
// * * * * * * * * * * * * * * * * * * * * * * * * * * * * * * * * * * * * * //

dimensions      [1 -1 -2 0 0 0 0];

internalField   nonuniform List<scalar> 
4096
(
27.380419
27.120451
26.599246
25.821826
24.795678
23.530684
22.039028
20.335072
18.435225
16.35778
14.12274
11.751624
9.267261
6.6935719
4.055337
1.3779567
-1.3128048
-3.990998
-6.6308464
-9.2069519
-11.694485
-14.069486
-16.309077
-18.391685
-20.297243
-22.007393
-23.505657
-24.777598
-25.810959
-26.595782
-27.124507
-27.392039
-27.395801
-27.135759
-26.61442
-25.836811
-24.810427
-23.54516
-22.053201
-20.348927
-18.448758
-16.370999
-14.135665
-11.764286
-9.2797017
-6.7058395
-4.0675047
-1.3900784
1.3006713
3.9787956
6.6185223
9.1944353
11.68173
14.056456
16.295744
18.378033
20.283269
21.993106
23.491077
24.762756
25.795898
26.580553
27.109165
27.376646
27.637766
27.375351
26.849243
26.064509
25.028708
23.751815
22.246129
20.526148
18.608435
16.511455
14.255399
11.86199
9.3542703
6.7563862
4.0933504
1.3908032
-1.3252365
-4.0286096
-6.6932761
-9.2935886
-11.804497
-14.201816
-16.462453
-18.56463
-20.488094
-22.214312
-23.726653
-25.010544
-26.053613
-26.845809
-27.3795
-27.649544
-27.653341
-27.390855
-26.864618
-26.079704
-25.043677
-23.766523
-22.260549
-20.540265
-18.622245
-16.524966
-14.268631
-11.874973
-9.3670444
-6.7689998
-4.1058636
-1.4032661
1.3127613
4.0160602
6.6806039
9.2807356
11.791418
14.188475
16.448823
18.550696
20.473853
22.199774
23.711836
24.995479
26.038339
26.830376
27.363961
27.633958
28.160918
27.893536
27.357471
26.557887
25.502485
24.201431
22.667253
20.914726
18.960723
16.82406
14.525309
12.086601
9.5314156
6.8843538
4.170901
1.4171823
-1.3502886
-4.1048622
-6.8200097
-9.4695874
-12.028075
-14.470828
-16.774315
-18.916344
-20.876277
-22.635229
-24.17625
-25.48449
-26.547342
-27.354563
-27.898376
-28.17354
-28.177405
-27.909937
-27.373716
-26.573911
-25.518234
-24.216859
-22.682327
-20.929427
-18.975047
-16.838016
-14.538921
-12.099906
-9.5444625
-6.8972022
-4.1836189
-1.4298388
1.337619
4.0921053
6.8070981
9.4564555
12.014667
14.457098
16.760232
18.901888
20.861443
22.620027
24.160705
25.468639
26.531233
27.338256
27.881936
28.15704
28.954022
28.679111
28.127955
27.305864
26.220755
24.883079
23.305718
21.503859
19.494852
17.298038
14.934568
12.427194
9.8000552
7.0784421
4.2885565
1.4572578
-1.3881941
-4.2204001
-7.0120865
-9.736369
-12.367008
-14.878662
-17.247135
-19.449606
-21.464851
-23.273451
-24.857974
-26.203148
-27.296008
-28.12602
-28.685185
-28.968115
-28.972084
-28.697058
-28.14569
-27.323298
-26.237812
-24.899696
-23.321849
-21.519478
-19.509951
-17.312631
-14.948686
-12.440888
-9.8133913
-7.0915018
-4.3014314
-1.4700456
1.3753917
4.2074819
6.9989567
9.7229385
12.353199
14.864414
17.232401
19.434359
21.449085
23.257178
24.841226
26.185977
27.27848
28.108216
28.667196
28.950039
30.024328
29.739257
29.167736
28.315273
27.190076
25.802983
24.167349
22.298922
20.21569
17.937708
15.486903
12.886868
10.162629
7.3404092
4.4473762
1.5113801
-1.4393131
-4.3762927
-7.2712771
-10.096386
-12.824406
-15.429059
-17.885246
-20.169301
-22.259208
-24.134824
-25.778068
-27.173098
-28.306465
-29.167242
-29.747131
-30.040544
-30.044653
-29.759422
-29.187607
-28.334723
-27.208998
-25.821287
-24.18497
-22.315822
-20.231858
-17.953161
-15.501686
-12.90105
-10.176305
-7.3536926
-4.4603951
-1.5242725
1.4264041
4.3632246
7.2579137
10.082602
12.810093
15.414127
17.869632
20.152965
22.242141
24.117042
25.759617
27.154047
28.286909
29.147293
29.726918
30.020203
31.382083
31.084121
30.486767
29.595775
28.419727
26.969947
25.260394
23.307524
21.130138
18.749192
16.187602
13.470023
10.622609
7.6727654
4.6488833
1.5800695
-1.504134
-4.574033
-7.6000667
-10.553092
-13.404663
-16.127305
-18.694783
-21.082349
-23.266988
-25.227637
-26.945389
-28.40368
-29.588445
-30.488258
-31.094443
-31.401155
-31.40544
-31.10726
-30.509497
-29.617922
-28.441137
-26.990496
-25.279991
-23.326115
-21.147705
-18.765759
-16.203232
-13.484813
-10.636689
-7.6862926
-4.662037
-1.5930426
1.4911416
4.5608221
7.5864466
10.538887
13.389721
16.111503
18.678028
21.064588
23.248204
25.207854
26.924669
28.38212
29.566175
30.465437
31.071248
31.377779
33.040282
32.726577
32.097672
31.159627
29.921475
28.395138
26.595311
24.539317
22.246945
19.740256
17.043371
14.182243
11.184401
8.0786941
4.8950085
1.6639847
-1.5832776
-4.8155168
-8.0016101
-11.110872
-14.11335
-16.980112
-19.683528
-22.197535
-24.497892
-26.562412
-28.371181
-29.906748
-31.154299
-32.101798
-32.740104
-33.063062
-33.067559
-32.753558
-32.124096
-31.185254
-29.946094
-28.418579
-26.617447
-24.560074
-22.266299
-19.758238
-17.060066
-14.197783
-11.198966
-8.0924981
-4.9082967
-1.6770217
1.5702178
4.802161
7.9876966
11.09616
14.09763
16.963214
19.665326
22.177953
24.476908
26.540057
28.347539
29.881953
31.128529
32.075267
32.713057
33.035763
35.014773
34.682318
34.015842
33.021767
31.709665
30.092169
28.18485
26.006064
23.576778
20.920365
18.062383
15.030328
11.85337
8.5620723
5.1881022
1.7639252
-1.6775044
-5.1030593
-8.479757
-11.775076
-14.957268
-17.995666
-20.860978
-23.525574
-25.963751
-28.151984
-30.069157
-31.696765
-33.019098
-34.023392
-34.699955
-35.042259
-35.047006
-34.714158
-34.046937
-33.051793
-31.73834
-30.119263
-28.210192
-26.029552
-23.598381
-20.940124
-18.080411
-15.046804
-11.868532
-8.5762104
-5.2015442
-1.7770264
1.6643761
5.0895368
8.4654883
11.759738
14.940578
17.977395
20.840956
23.503699
25.939992
28.126383
30.041825
31.667882
32.988901
33.992171
34.668037
35.009999
37.324416
36.970025
36.259597
35.199977
33.80137
32.077241
30.044184
27.721764
25.132326
22.300779
19.254361
16.022372
12.635898
9.1275107
5.5309577
1.8808387
-1.7877239
-5.439421
-9.0390948
-12.552076
-15.944517
-19.183718
-22.238445
-25.07923
-27.67866
-30.011644
-32.055657
-33.790959
-35.200792
-36.27154
-36.992865
-37.357803
-37.362839
-37.007933
-36.296525
-35.235498
-33.835111
-32.108898
-30.073533
-27.74867
-25.156746
-22.322768
-19.274066
-16.040029
-12.651821
-9.1420801
-5.5446064
-1.8940349
1.7744951
5.4256755
9.0243686
12.535943
15.926604
19.163722
22.216142
25.054485
27.651431
29.981985
32.023714
33.756969
35.165067
36.234462
36.954864
37.319349
39.991266
39.61154
38.850355
37.715048
36.216552
34.369293
32.19105
29.702782
26.928425
23.894661
20.630667
17.167829
13.539441
9.7803938
5.9268344
2.015826
-1.9150071
-5.8278375
-9.6849968
-13.449336
-17.084581
-20.555687
-23.829172
-26.873447
-29.659122
-32.159294
-34.349809
-36.209501
-37.720399
-38.867903
-39.640925
-40.032003
-40.037365
-39.656973
-38.89452
-37.75739
-36.256588
-34.406627
-32.225391
-29.733953
-26.956372
-23.919454
-20.652497
-17.187
-13.556361
-9.7955558
-5.9407997
-2.0292015
1.9015921
5.8137553
9.6696453
13.432162
17.065101
20.533507
23.804001
26.845108
29.627561
32.12458
34.312133
36.169166
37.677813
38.823557
39.595381
39.985866
43.040779
42.632074
41.81284
40.590974
38.978246
36.990182
34.645915
31.967997
28.982185
25.717192
22.204407
18.4776
14.572593
10.526923
6.3794814
2.1701449
-2.0606032
-6.2720573
-10.423679
-14.475483
-18.388424
-22.124768
-25.648465
-28.925496
-31.924208
-34.615622
-36.97372
-38.975703
-40.60221
-41.837512
-42.669669
-43.09064
-43.096367
-42.686813
-41.865959
-40.641764
-39.026088
-37.034569
-34.686473
-32.004501
-29.014566
-25.745537
-22.228961
-18.498752
-14.590864
-10.542944
-6.3939689
-2.1838755
2.0468246
6.2574278
10.407429
14.456904
18.366898
22.09979
25.619663
28.892643
31.887234
34.574614
36.928922
38.927502
40.551126
41.784176
42.614796
43.035007
46.502048
46.060436
45.175299
43.855172
42.112772
39.964876
37.432154
34.538971
31.313149
27.785702
23.990536
19.964123
15.745153
11.374165
6.8931616
2.3452107
-2.2259621
-6.776387
-11.26227
-15.640407
-19.868603
-23.906076
-27.713853
-31.255156
-34.495757
-37.404319
-39.952706
-42.116257
-43.874035
-45.209029
-46.108325
-46.563231
-46.569362
-46.12668
-45.239498
-43.916429
-42.170305
-40.018044
-37.480485
-34.582178
-31.351143
-27.818596
-24.018638
-19.987925
-15.765312
-11.391479
-6.9085364
-2.3596272
2.2114871
6.7608391
11.244676
15.619873
19.844347
23.877459
27.680404
31.216589
34.451982
37.355446
39.899041
42.058291
43.812424
45.144568
46.04192
46.495863
50.408066
49.9293
48.969769
47.53873
45.649971
43.321681
40.576267
37.440139
33.943452
30.11982
26.005986
21.641472
17.068201
12.330099
7.4726741
2.5425929
-2.4127652
-7.3457496
-12.208894
-16.955365
-21.53941
-25.916802
-30.045271
-33.884916
-37.3986
-40.552321
-43.315543
-45.661507
-47.56749
-49.015033
-49.990122
-50.483329
-50.489899
-50.009798
-49.047712
-47.612996
-45.719582
-43.385834
-40.634372
-37.491837
-33.988632
-30.158622
-26.038794
-21.668902
-17.091076
-12.349414
-7.4895639
-2.558283
2.3970035
7.3286482
12.189236
16.932032
21.511426
25.883368
30.005796
33.839042
37.346214
40.49356
43.250791
45.591375
47.492798
48.936775
49.909431
50.401431
54.796029
54.275498
53.23236
51.676686
49.62347
47.092487
44.1081
40.699016
36.898016
32.741633
28.269799
23.525462
18.554175
13.403663
8.1233719
2.7640019
-2.6229679
-7.9857569
-13.272777
-18.433117
-23.417029
-28.176411
-32.66528
-36.840224
-40.660831
-44.090095
-47.094784
-49.645772
-51.718329
-53.292365
-54.352631
-54.88887
-54.895913
-54.373731
-53.327431
-51.767205
-49.708224
-47.170483
-44.178605
-40.761587
-36.952514
-32.788231
-28.308973
-23.557975
-18.581046
-13.426126
-8.1428301
-2.7819739
2.604908
7.9660391
13.249895
18.405686
23.383839
28.136473
32.617863
36.784883
40.597426
44.018796
47.016064
49.560389
51.627297
53.196915
54.254166
54.788908
59.707662
59.140343
58.003572
56.308331
54.070969
51.31304
48.061095
44.346422
40.20474
35.675852
30.803262
25.633754
20.216941
14.604798
8.8511697
3.0112644
-2.8588586
-8.7028024
-14.464372
-20.08809
-25.519734
-30.706861
-35.599324
-40.14977
-44.314113
-48.051978
-51.327106
-54.107717
-56.366828
-58.082523
-59.238169
-59.82258
-59.830125
-59.260781
-58.120132
-56.419308
-54.174871
-51.408649
-48.147511
-44.423099
-40.271508
-35.732923
-30.851222
-25.673538
-20.249799
-14.632247
-8.8749309
-3.0332023
2.8368125
8.6787219
14.436408
20.054544
25.479122
30.657968
35.541254
40.081978
44.236426
47.964604
51.230624
54.003057
56.255235
57.965508
59.117452
59.700023
65.189575
64.569981
63.328636
61.47754
59.034557
56.023231
52.472562
48.416719
43.894707
38.949986
33.630049
27.98596
22.071864
15.944475
9.6625365
3.2862789
-3.1231401
-9.5041811
-15.795514
-21.936568
-27.868124
-33.532882
-38.876038
-43.845829
-48.394056
-52.476573
-56.053733
-59.090788
-61.558238
-63.432125
-64.694268
-65.332448
-65.340517
-64.718462
-63.472401
-61.614517
-59.162929
-56.141515
-52.579662
-48.511971
-43.977903
-39.021383
-33.69036
-28.036324
-22.113803
-15.979832
-9.6934086
-3.3149346
3.0943506
9.4729151
15.759522
21.893786
27.816744
33.47143
38.803423
43.761388
48.297579
52.368313
55.934395
58.961504
61.420521
63.287813
64.545453
65.181394
71.293642
70.615766
69.257877
67.233117
64.561036
61.267401
57.383945
52.948052
48.002396
42.594514
36.776348
30.603732
24.135857
17.434704
10.564465
3.5909439
-3.4190426
-10.398244
-17.279624
-23.996944
-30.485409
-36.682303
-42.527619
-47.964667
-52.940651
-57.407215
-61.320929
-64.643732
-67.343317
-69.393449
-70.774228
-71.472279
-71.480884
-70.800044
-69.436474
-67.403531
-64.721079
-61.415282
-57.51834
-53.068158
-48.107961
-42.685848
-36.854309
-30.669694
-24.191656
-17.482567
-10.60692
-3.6307296
3.379091
10.355302
17.230978
23.940104
30.418199
36.602945
42.4348
47.857588
52.819061
57.27142
61.171779
64.482594
67.172015
69.214199
70.58955
71.284903
78.077392
77.334643
75.847093
73.629155
70.702259
67.094651
62.841106
57.982596
52.565879
46.643042
40.270978
33.510831
26.4274
19.088516
11.564407
3.9270507
-3.7504754
-11.394598
-18.931957
-26.290012
-33.397763
-40.186455
-46.590274
-52.547031
-57.998805
-62.892539
-67.180589
-70.821208
-73.778961
-76.025086
-77.537768
-78.302355
-78.311495
-77.565208
-76.070876
-73.843166
-70.903883
-67.281744
-63.012084
-58.136494
-52.702394
-46.76254
-40.374484
-33.599987
-26.504402
-19.156027
-11.625453
-3.9849127
3.6924066
11.332944
18.863473
26.211722
33.30707
40.081235
46.468962
52.408676
57.843109
62.719872
66.991971
70.61827
73.563888
75.800523
77.306726
78.068091
85.604401
84.789533
83.15792
80.725388
77.515462
73.559139
68.894588
63.566773
57.627005
51.132433
44.145468
36.733159
28.966529
20.919895
12.670163
4.2961288
-4.122228
-12.504356
-20.769905
-28.83934
-36.634755
-44.080659
-51.104765
-57.638752
-63.618979
-68.98716
-73.69096
-77.684531
-80.928971
-83.392712
-85.051819
-85.890226
-85.899883
-85.080832
-83.441198
-80.997108
-77.772523
-73.799
-69.115365
-63.767316
-57.806947
-51.292203
-44.286275
-36.856946
-29.075899
-21.018006
-12.760609
-4.3828078
4.0352897
12.413151
20.670581
28.728372
36.509068
43.937747
50.942779
57.456573
63.416263
68.764349
73.449269
77.425898
80.655985
83.108505
84.759953
85.594553
93.944661
93.049699
91.258191
88.587531
85.06357
80.720367
75.59986
69.751457
63.231543
56.102908
48.434104
40.298746
31.774771
22.943671
13.889729
4.6992442
-4.5402188
-13.740447
-22.813377
-31.671716
-40.229865
-48.404823
-56.117076
-63.291461
-69.857971
-75.752497
-80.917494
-85.302565
-88.864968
-91.570027
-93.391468
-94.311664
-94.321796
-93.421934
-91.62103
-88.936826
-85.395679
-81.032297
-75.889388
-70.017221
-63.473096
-56.32074
-48.629624
-40.47423
-31.933274
-23.08891
-14.025941
-4.8310341
4.4081014
13.603278
22.666617
31.51122
40.052028
48.206711
55.896534
63.047191
69.589583
75.460525
80.603375
84.968585
88.514167
91.206085
93.018561
93.934303
103.17492
102.19107
100.22225
97.287577
93.415483
88.643421
83.01752
76.592135
69.4293
61.598095
53.173917
44.237693
34.87503
25.175359
15.231088
5.136758
-5.0117776
-15.117954
-25.08522
-34.817665
-44.221105
-53.204143
-61.679192
-69.563458
-76.779841
-83.257761
-88.933893
-93.752801
-97.667498
-100.63988
-102.6411
-103.65181
-103.66235
-102.67282
-100.69308
-97.742674
-93.850597
-89.055052
-83.403058
-76.949966
-69.758877
-61.899962
-53.449693
-44.490009
-35.107442
-25.392212
-15.437357
-5.3378592
4.8102588
14.910471
24.866445
34.582753
43.965863
52.925173
61.374012
69.230585
76.418849
82.869297
88.519653
93.315466
97.210619
100.16775
102.15857
103.16411
113.37895
112.29654
110.13123
106.90406
102.64631
97.399196
91.213488
84.149047
76.274204
67.66506
58.404657
48.582074
38.291444
27.630972
16.702006
5.6080964
-5.5459022
-16.654443
-27.611644
-38.311994
-48.65168
-58.529891
-67.850001
-76.520696
-84.456984
-91.581098
-97.823308
-103.12261
-107.42733
-110.69561
-112.89575
-114.00654
-114.01738
-112.92841
-110.75052
-107.50518
-103.22434
-97.950045
-91.734099
-84.637504
-76.729826
-68.088426
-58.797595
-48.947593
-38.633647
-27.954918
-17.013528
-5.9135697
5.2398899
16.341364
27.28525
37.966636
48.282507
58.133007
67.422584
76.061083
83.964729
91.056997
97.269365
102.54196
106.82412
110.07479
112.26295
113.3678
124.64782
123.45619
121.07329
117.52231
112.83763
107.06463
100.25921
92.487361
83.824431
74.354377
64.168798
53.365896
42.0493
30.326915
18.309907
6.1116395
-6.1533538
-18.370123
-30.422522
-42.194261
-53.570627
-64.440198
-74.696201
-84.237819
-92.971275
-100.81083
-107.67967
-113.51064
-118.24692
-121.84251
-124.26263
-125.48398
-125.49498
-124.2958
-121.89843
-118.3265
-113.61516
-107.81072
-100.97027
-93.161085
-84.459949
-74.952271
-64.731095
-53.895992
-42.551902
-30.807909
-18.776174
-6.5707471
5.6935401
17.901832
29.938379
41.68765
53.035949
63.873018
74.09336
83.59748
92.293008
100.09563
106.92992
112.73003
117.44028
121.0156
123.42193
124.63647
137.08021
135.76762
133.14399
129.23479
124.07785
117.72306
110.23203
101.67752
92.142724
81.720395
70.511763
58.625301
46.175232
33.280175
20.062079
6.6449815
-6.8463221
-20.287582
-33.55133
-46.508953
-59.033203
-71.000629
-82.293053
-92.799055
-102.41511
-111.04663
-118.60898
-125.02821
-130.24185
-134.19938
-136.86264
-138.20611
-138.21707
-136.89577
-134.25537
-130.32188
-125.13392
-118.74249
-111.2105
-102.61224
-93.032537
-82.565837
-71.315031
-59.390161
-46.90708
-33.985928
-20.750004
-7.3242413
6.1661195
19.596983
32.841474
45.77196
58.262564
70.191309
81.441577
91.903443
101.47499
110.06328
117.58527
123.96854
129.15191
133.08592
135.73323
137.06882
150.78289
149.3365
146.44679
142.14174
136.46285
129.465
121.21596
111.79604
101.29716
89.821963
77.482566
64.399193
50.697902
36.509097
21.966588
7.2060145
-7.6371295
-22.430626
-37.034344
-51.30504
-65.100685
-78.284189
-90.724557
-102.2986
-112.89196
-122.40028
-130.73023
-137.80035
-143.54203
-147.89976
-150.83178
-152.31009
-152.3208
-150.86417
-147.95467
-143.62087
-137.90514
-130.86364
-122.56566
-113.09331
-102.54044
-91.011683
-78.621082
-65.490537
-51.748281
-37.526787
-22.961869
-8.1904194
6.6514312
21.43174
36.011225
50.247991
64.002013
77.13817
89.527501
101.04838
111.58831
121.04485
129.32661
136.3539
142.05961
146.3895
149.30267
150.7717
165.87189
164.27769
161.09433
156.35248
150.0975
142.38962
133.30332
122.92722
111.36291
98.72412
85.135187
70.730049
55.648533
40.034181
24.033735
7.7952132
-8.5350264
-24.821359
-40.908439
-56.634441
-71.83915
-86.370285
-100.08262
-112.83998
-124.51605
-134.99555
-144.1756
-151.96627
-158.2923
-163.09272
-166.32191
-167.9492
-167.95937
-166.35273
-163.14514
-158.36793
-152.06747
-144.30557
-135.15844
-124.71705
-113.08535
-100.37953
-86.726361
-72.261316
-57.12682
-41.46904
-25.438328
-9.1849364
7.1434094
23.411778
39.46627
55.147404
70.298539
84.769812
98.418337
111.10932
122.71874
133.13379
142.25391
149.99152
156.27308
161.03919
164.24522
165.86116
182.47495
180.7178
177.21108
171.98827
165.09863
156.60815
146.59827
135.16686
122.42612
108.50215
93.53251
77.665519
61.060466
43.877129
26.276629
8.4184606
-9.5400484
-27.473942
-45.20572
-62.547746
-79.316148
-95.342068
-110.4647
-124.53398
-137.41047
-148.96679
-159.08937
-167.6785
-174.65193
-179.94244
-183.50058
-185.29265
-185.30199
-183.52891
-179.99077
-174.72199
-167.77291
-159.21175
-149.12201
-137.60489
-124.77567
-110.7637
-95.71024
-79.766266
-63.090922
-45.846019
-28.200133
-10.318751
7.6367671
25.543318
43.226779
60.50565
77.203422
93.152847
108.19253
122.17481
134.96383
146.43544
156.47921
164.99877
171.91392
177.15968
180.68762
182.465
200.73626
198.79973
194.93792
189.18724
181.60031
172.24941
161.22272
148.6286
134.5908
119.25017
102.7615
85.287044
67.003091
48.087265
28.724538
9.0936135
-10.633404
-30.383992
-49.942642
-69.082463
-87.591073
-105.27961
-121.96794
-137.49344
-151.70252
-164.45433
-175.62362
-185.09865
-192.79036
-198.62401
-202.54682
-204.52144
-204.52961
-202.57166
-198.66651
-192.85227
-185.18266
-175.73358
-164.59557
-151.88226
-137.72141
-122.25708
-105.64693
-88.057699
-69.671759
-50.672996
-31.25241
-11.593355
8.1286966
27.845654
47.342798
66.398113
84.805032
102.3801
118.94851
134.35181
148.4391
161.07288
172.13203
181.51013
189.1205
194.89198
198.77283
200.7274
220.81925
218.68493
214.43454
208.10717
199.75704
189.46363
177.3204
163.44808
147.98217
131.07967
112.91432
93.666399
73.53659
52.720055
31.433444
9.8793742
-11.745058
-33.525429
-55.13298
-76.275941
-96.711559
-116.24382
-134.6713
-151.81807
-167.51041
-181.59241
-193.92628
-204.3854
-212.87499
-219.31087
-223.63824
-225.8152
-225.82189
-223.65859
-219.34579
-212.92608
-204.45521
-194.01855
-181.71251
-167.66584
-152.01939
-134.93355
-116.58897
-97.170956
-76.891946
-55.954123
-34.580026
-12.978081
8.6364406
30.36278
51.878613
72.899195
93.187252
112.55214
130.80301
147.76862
163.28191
177.19075
189.36303
199.68029
208.05066
214.39578
218.6623
220.8118
242.89889
240.54701
235.8748
228.92191
219.74123
208.42052
195.05605
179.78311
162.74943
144.12992
124.11965
102.91344
80.744635
57.829342
34.442657
10.844789
-12.745285
-36.829461
-60.757614
-84.140453
-106.70596
-128.27256
-148.62186
-167.57364
-184.92681
-200.49913
-214.13732
-225.69541
-235.07621
-242.18245
-246.96075
-249.363
-249.36793
-246.97574
-242.20818
-235.11397
-225.7473
-214.20666
-200.59072
-185.04753
-167.73335
-148.83534
-128.56416
-107.11564
-84.73336
-61.635751
-38.114007
-14.433979
9.1360907
33.133392
56.921297
80.12233
102.47859
123.80783
143.90049
162.57689
179.65105
194.95404
208.34187
219.6815
228.87809
235.84484
240.52955
242.89315
267.18909
264.61535
259.49595
251.87353
241.79685
229.36536
214.67197
197.87078
179.12191
158.62061
136.58725
113.22152
88.791125
63.523728
37.812229
12.161991
-13.251931
-40.052136
-66.63577
-92.539331
-117.47103
-141.33444
-163.84025
-184.83744
-204.07603
-221.34401
-236.48293
-249.28418
-259.69243
-267.5524
-272.85074
-275.51107
-275.51403
-272.85969
-267.56766
-259.71473
-249.31491
-236.52458
-221.40041
-204.15242
-184.941
-163.98097
-141.53301
-117.76682
-93.007041
-67.439932
-41.538246
-15.825712
9.5441349
36.289542
62.676081
88.283866
112.89442
136.36538
158.46347
179.00647
197.78316
214.60429
229.31306
241.7571
251.84443
259.47612
264.60383
267.18531
294.24477
291.44012
285.83451
277.52046
266.47068
252.87472
236.72639
218.27583
197.64987
175.07277
150.85388
125.0621
98.156882
70.107379
41.684425
14.172872
-11.332637
-38.535908
-60.196859
-77.21647
-89.909092
-98.803731
-104.28228
-106.83881
-107.0954
-105.5192
-102.8454
-99.514465
-96.189409
-93.227244
-91.06757
-89.932716
-89.933577
-91.070163
-93.231629
-96.195743
-99.523118
-102.85723
-105.53574
-107.11892
-106.87229
-104.32792
-98.869947
-90.015018
-77.399932
-60.592538
-39.80368
-16.09434
9.3102408
40.357783
69.661081
97.920839
124.91453
150.76094
175.01021
197.60524
218.24035
236.69753
252.85153
266.45277
277.50743
285.82576
291.43511
294.24314
-89.698829
-90.837583
-93.004009
-95.97646
-99.315601
-102.66368
-105.35649
-106.95404
-106.71976
-104.19281
-98.751858
-89.920141
-77.333904
-60.564106
-39.780316
-16.037474
9.2698683
40.273247
69.571394
97.841619
124.81892
150.63958
174.86169
197.43532
218.05257
236.49904
252.64674
266.24666
277.30197
285.62138
291.23017
294.03837
294.03967
291.23403
285.62781
277.31114
266.25916
252.66404
236.52353
218.08724
197.48343
174.92476
150.72703
124.95176
98.057613
70.015301
41.637892
14.213056
-11.340244
-38.547548
-60.172899
-77.143448
-89.812671
-98.690999
-104.15565
-106.69572
-106.93645
-105.34332
-102.65391
-99.308615
-95.971712
-93.000987
-90.835915
-89.698297
-275.26151
-272.61161
-267.32794
-259.48866
-249.10577
-236.3334
-221.22532
-203.99167
-184.79265
-163.84904
-141.41914
-117.67562
-92.942527
-67.402405
-41.519907
-15.827757
9.5291244
36.236101
62.601891
88.197598
112.7907
136.24002
158.31586
178.83905
197.59923
214.40817
229.10862
241.54776
251.63239
259.26244
264.3888
266.96945
266.97283
264.39906
259.28004
251.6582
241.58336
229.15651
214.47214
197.68458
178.95326
158.47036
136.45597
113.10804
88.694419
63.445555
37.758908
12.129024
-13.264644
-40.052528
-66.606087
-92.474203
-117.38062
-141.22597
-163.71712
-184.69909
-203.92217
-221.17254
-236.29324
-249.07579
-259.46716
-267.31357
-272.60338
-275.25883
-249.11896
-246.73049
-241.97034
-234.88728
-225.53454
-214.00924
-200.40874
-184.88075
-167.58185
-148.70108
-128.44905
-107.02242
-84.663719
-61.589055
-38.088547
-14.431599
9.1203199
33.088555
56.85394
80.03517
102.37114
123.67938
143.75132
162.40882
179.46665
194.75659
208.13447
219.467
228.65865
235.62197
240.30431
242.6666
242.67193
240.32054
235.64985
228.69956
219.52317
208.20924
194.85484
179.59539
162.57822
143.97674
123.98558
102.79848
80.649486
57.75613
34.392604
10.813953
-12.744408
-36.81501
-60.718713
-84.074968
-106.61689
-128.16332
-148.4948
-167.42953
-184.76596
-200.32124
-213.94254
-225.48443
-234.8509
-241.94568
-246.71621
-249.11429
-225.57218
-223.41211
-219.10585
-212.69586
-204.23726
-193.81464
-181.52364
-167.49274
-151.86281
-134.79505
-116.47018
-97.07381
-76.817525
-55.902409
-34.551038
-12.973138
8.6202203
30.320917
51.812897
72.810997
93.077132
112.42059
130.65092
147.59766
163.09428
176.98915
189.15012
199.45861
207.82239
214.16273
218.42599
220.57373
220.58078
218.44744
214.19951
207.8762
199.53204
189.24699
177.11487
163.25648
147.80706
130.9228
112.77707
93.549485
73.441085
52.647411
31.384246
9.8524968
-11.744711
-33.504348
-55.088493
-76.207353
-96.620123
-116.13132
-134.53943
-151.66792
-167.34277
-181.40781
-193.72556
-204.16984
-212.64656
-219.07223
-223.39256
-225.56577
-204.27537
-202.32032
-198.42114
-192.61578
-184.95754
-175.52183
-164.39871
-151.70156
-137.55811
-122.11264
-105.52286
-87.955551
-69.592555
-50.617264
-31.220704
-11.586438
8.1119651
27.80402
47.276592
66.308058
84.691868
102.24472
118.79208
134.17598
148.24592
160.86472
171.91132
181.27929
188.88175
194.64736
198.52422
200.47663
200.4851
198.54995
194.69137
188.94585
181.36621
172.02495
161.01043
148.43099
134.41019
119.08842
102.62011
85.167134
66.905772
48.013573
28.67493
9.068055
-10.633043
-30.359546
-49.894025
-69.009854
-87.495381
-105.1621
-121.82997
-137.33623
-151.52717
-164.26191
-175.41542
-184.87631
-192.55598
-198.38015
-202.29639
-204.2675
-185.03969
-183.26932
-179.73682
-174.47649
-167.53836
-158.99033
-148.91557
-137.41506
-124.60399
-110.61172
-95.579474
-79.658128
-63.006509
-45.78614
-28.165494
-10.309893
7.6202276
25.501116
43.159035
60.412855
77.086325
93.012495
108.03024
121.99225
134.76297
146.2185
156.24854
164.75675
171.66287
176.90183
180.42514
182.20002
182.20958
180.45414
176.95129
171.73455
164.85329
156.3736
146.37695
134.96118
122.23829
108.33407
93.385778
77.541446
60.9602
43.801552
26.226244
8.3935527
-9.5386811
-27.446779
-45.153192
-62.470426
-79.214932
-95.21809
-110.31925
-124.36837
-137.22606
-148.76498
-158.87179
-167.44704
-174.4088
-179.69018
-183.242
-185.03069
-167.68564
-166.08162
-162.87955
-158.11064
-151.82105
-144.07237
-134.94055
-124.51637
-112.90365
-100.21848
-86.587546
-72.146166
-57.036523
-41.404549
-25.400402
-9.1740646
7.1272512
23.368577
39.396202
55.050951
70.176479
84.623228
98.248627
110.91817
122.50813
132.90591
142.01111
149.73621
156.00772
160.7662
163.96701
165.58015
165.59047
163.99827
160.81934
156.08437
149.83875
142.14274
133.07078
122.71141
111.16605
98.548154
84.981802
70.600655
55.544285
39.955961
23.982129
7.7706072
-8.532239
-24.791358
-40.851711
-56.551696
-71.731335
-86.238555
-99.928293
-112.6645
-124.32096
-134.78253
-143.94651
-151.72321
-158.03761
-162.82897
-166.0519
-167.67584
-152.03234
-150.57831
-147.67436
-143.34894
-137.64429
-130.61635
-122.33424
-112.87988
-102.34697
-90.84
-78.472869
-65.367302
-51.651306
-37.457121
-22.920319
-8.1774951
6.6355849
21.387152
35.938137
50.146922
63.873789
76.983931
89.348699
100.84676
111.36588
120.80385
129.06943
136.08308
141.77773
146.0992
149.00659
150.47253
150.48329
149.03916
146.1544
141.85698
136.1884
129.20349
120.96997
111.56802
101.08937
89.636433
77.32106
64.263198
50.588629
36.427474
21.913258
7.1813903
-7.6328172
-22.397524
-36.972943
-51.216107
-64.985229
-78.143429
-90.559904
-102.11163
-112.6844
-122.17401
-130.48733
-137.54311
-143.27292
-147.62146
-150.54713
-152.02204
-137.91059
-136.59194
-133.95724
-130.0324
-124.85591
-118.47864
-110.96329
-102.38401
-92.825442
-82.381872
-71.156009
-59.257695
-46.802554
-33.910473
-20.704484
-7.3092173
6.1504166
19.550576
32.764643
45.665279
58.126917
70.027906
81.251936
91.689383
101.23859
109.80687
117.31137
123.6798
128.85111
132.7759
135.41688
136.74907
136.76001
135.44993
132.83175
128.93094
123.78525
117.44454
109.97029
101.43512
91.92202
81.523519
70.340574
58.481376
46.059855
33.194331
20.006464
6.6200173
-6.8404757
-20.251095
-33.484716
-46.413019
-58.909022
-70.84951
-82.116519
-92.598824
-102.19308
-110.8049
-118.34982
-124.75408
-129.9554
-133.90341
-136.56012
-137.90006
-125.16709
-123.97068
-121.57925
-118.0164
-113.31714
-107.52765
-100.70484
-92.91584
-84.237243
-74.754272
-64.559765
-53.75307
-42.43888
-30.726007
-18.726322
-6.5535598
5.6777705
17.853118
29.857032
41.574297
52.891545
63.698848
73.891035
83.368917
92.040405
99.821436
106.6368
112.4208
117.11792
120.68319
123.08261
124.29344
124.30432
123.11544
120.73852
117.19668
112.52426
106.76653
99.979264
92.228274
83.588704
74.14426
63.986266
53.212629
41.926669
30.235975
18.251401
6.086006
-6.1459857
-18.32996
-30.350107
-42.090453
-53.436573
-64.277305
-74.506122
-84.022424
-92.732649
-100.55126
-107.40163
-113.21679
-117.9401
-121.52569
-123.93892
-125.15657
-113.6646
-112.57855
-110.40696
-107.17126
-102.90327
-97.644916
-91.447838
-84.372865
-76.489371
-67.87451
-58.612347
-48.792895
-38.511109
-27.865858
-16.95895
-5.8941475
5.2238236
16.289813
27.198555
37.84548
48.127921
57.94637
67.205616
75.815823
83.693518
90.762442
96.954306
102.20944
106.47733
109.71707
111.89771
112.99852
113.00916
111.92976
109.77096
106.55375
102.30932
97.078774
90.912722
83.87083
76.021204
67.43968
58.209009
48.417957
38.16033
27.533998
16.639969
5.5814548
-5.53703
-16.610293
-27.532799
-38.199373
-48.506515
-58.353703
-67.644579
-76.28808
-84.199446
-91.301128
-97.523597
-102.80604
-107.09695
-110.3546
-112.54743
-113.65428
-103.28102
-102.2946
-100.32162
-97.381537
-93.503254
-88.724841
-83.093154
-76.663363
-69.498363
-61.668097
-53.248787
-44.322103
-34.974279
-25.295217
-15.377616
-5.3161046
4.7936597
14.855519
24.773512
34.452582
43.799572
52.72425
61.140305
68.966284
76.126463
82.551625
88.179749
92.956605
96.836259
99.781495
101.76414
102.7653
102.77555
101.79499
99.83325
96.909411
93.051793
88.297712
82.693121
76.292161
69.156617
61.355286
52.963254
44.061114
34.734124
25.071352
15.164842