/*--------------------------------*- C++ -*----------------------------------*\
| =========                 |                                                 |
| \\      /  F ield         | OpenFOAM: The Open Source CFD Toolbox           |
|  \\    /   O peration     | Version:  2106                                  |
|   \\  /    A nd           | Website:  www.openfoam.com                      |
|    \\/     M anipulation  |                                                 |
\*---------------------------------------------------------------------------*/
FoamFile
{
    version     2.0;
    format      ascii;
    arch        "LSB;label=32;scalar=64";
    class       surfaceScalarField;
    location    "0.007";
    object      phi;
}
// * * * * * * * * * * * * * * * * * * * * * * * * * * * * * * * * * * * * * //

dimensions      [0 3 -1 0 0 0 0];

oriented        oriented;

internalField   nonuniform List<scalar> 
8064
(
0.00018010714
-0.00018005413
0.00035847389
-0.00017836675
0.00053348092
-0.00017500703
0.00070348492
-0.00017000399
0.00086688588
-0.00016340097
0.0010221412
-0.0001552553
0.0011677792
-0.00014563804
0.0013024127
-0.00013463352
0.0014247516
-0.00012233881
0.0015336147
-0.00010886309
0.0016279416
-9.4326935e-05
0.0017068031
-7.8861469e-05
0.0017694105
-6.2607437e-05
0.0018151247
-4.5714165e-05
0.0018434631
-2.8338405e-05
0.0018541062
-1.0643184e-05
0.0018469026
7.2036497e-06
0.0018218718
2.5030767e-05
0.0017792046
4.266723e-05
0.0017192669
5.9937716e-05
0.0016425951
7.6671814e-05
0.0015498933
9.2701803e-05
0.0014420281
0.0001078652
0.0013200213
0.00012200676
0.001185041
0.00013498029
0.0010383905
0.00014665051
0.00088149576
0.00015689475
0.00071589119
0.00016560457
0.00054320399
0.0001726872
0.00036513718
0.00017806681
0.00018345157
0.00018168561
-5.3007153e-08
0.00018350458
-0.0001835571
0.00018350409
-0.00036524126
0.00018168415
-0.00054330565
0.0001780644
-0.00071598949
0.00017268383
-0.00088158977
0.00016560028
-0.0010384793
0.00015688956
-0.0011851238
0.00014664446
-0.0013200972
0.00013497342
-0.0014420963
0.00012199912
-0.0015499532
0.00010785686
-0.001642646
9.2692837e-05
-0.0017193083
7.6662306e-05
-0.0017792361
5.9927762e-05
-0.001821893
4.2656933e-05
-0.0018469133
2.5020236e-05
-0.0018541063
7.1930011e-06
-0.0018434524
-1.0653834e-05
-0.0018151035
-2.8348937e-05
-0.001769379
-4.5724465e-05
-0.0017067616
-6.2617394e-05
-0.0016278906
-7.887098e-05
-0.0015335547
-9.4335905e-05
-0.0014246833
-0.00010887144
-0.0013023369
-0.00012234645
-0.0011676965
-0.0001346404
-0.0010220524
-0.0001456441
-0.00086679186
-0.00015526049
-0.00070338661
-0.00016340526
-0.00053337925
-0.00017000736
-0.0003583698
-0.00017500945
-0.0001800016
-0.0001783682
-0.00018005461
0.00018186396
-0.00036186457
0.0003619724
-0.0003584752
0.00053869196
-0.00035172659
0.00071036488
-0.00034167692
0.00087537695
-0.00032841303
0.0010321716
-0.00031204991
0.0011792635
-0.00029273001
0.0013152524
-0.00027062242
0.0014388354
-0.00024592182
0.0015488196
-0.0002188472
0.0016441331
-0.00018964045
0.0017238363
-0.00015856468
0.0017871312
-0.00012590234
0.0018333702
-9.1953202e-05
0.0018620638
-5.7032017e-05
0.0018728867
-2.1466084e-05
0.0018656829
1.4407516e-05
0.0018404685
5.024515e-05
0.0017974357
8.5700007e-05
0.0017369501
0.00012042336
0.0016595509
0.00015407094
0.0015659476
0.00018630519
0.0014570137
0.00021679909
0.0013337804
0.00024524005
0.001197427
0.00027133365
0.0010492702
0.00029480732
0.00089075108
0.00031541386
0.00072342096
0.00033293469
0.00054892538
0.00034718278
0.00036898692
0.00035800527
0.00018538696
0.00036528557
-5.3501841e-08
0.00036894504
-0.00018549347
0.00036894407
-0.00036909198
0.00036528266
-0.000549028
0.00035800043
-0.00072352021
0.00034717604
-0.00089084601
0.00033292608
-0.0010493599
0.00031540345
-0.0011975106
0.00029479517
-0.001333857
0.00027131985
-0.0014570826
0.00024522471
-0.0015660081
0.00021678234
-0.0016596024
0.00018628717
-0.001736992
0.00015405183
-0.0017974675
0.00012040335
-0.0018404899
8.56793e-05
-0.0018656937
5.0223971e-05
-0.0018728867
1.4386099e-05
-0.0018620531
-2.1487501e-05
-0.0018333488
-5.7053198e-05
-0.0017870994
-9.1973914e-05
-0.0017237944
-0.00012592236
-0.0016440816
-0.0001585838
-0.001548759
-0.00018965848
-0.0014387665
-0.00021886397
-0.0013151758
-0.00024593717
-0.0011791799
-0.00027063623
-0.0010320819
-0.00029274217
-0.00087528201
-0.00031206033
-0.00071026563
-0.00032842164
-0.00053858932
-0.00034168367
-0.00036186733
-0.00035173143
-0.00018175742
-0.00035847811
-0.00036186555
0.00018485188
-0.00054666197
0.00036792241
-0.00054154573
0.00054755443
-0.00053135861
0.00072206566
-0.00051618815
0.00088981767
-0.00049616505
0.0010492301
-0.00047146238
0.0011987948
-0.00044229463
0.0013370887
-0.0004089164
0.0014627878
-0.00037162087
0.0015746785
-0.00033073793
0.0016716701
-0.00028663205
0.0017528052
-0.00023969975
0.0018172697
-0.00019036686
0.0018644019
-0.00013908543
0.0018937002
-8.6330288e-05
0.0019048294
-3.2595285e-05
0.0018976261
2.161079e-05
0.0018721024
7.576882e-05
0.0018284485
0.00012935395
0.0017670318
0.00018184008
0.0016883966
0.00023270613
0.0015932606
0.00028144115
0.0014825097
0.00032755001
0.0013571906
0.00037055915
0.0012185019
0.00041002239
0.0010677827
0.00044552646
0.00090650015
0.00047669645
0.00073623412
0.00050320072
0.00055866144
0.00052475546
0.00037553808
0.00054112864
0.00018868039
0.00055214326
-5.4473258e-08
0.0005576799
-0.00018878884
0.00055767844
-0.00037564505
0.00055213886
-0.00055876596
0.00054112134
-0.00073633522
0.00052474529
-0.00090659688
0.00050318774
-0.0010678742
0.00047668074
-0.0012185871
0.00044550813
-0.0013572688
0.00041000155
-0.0014825801
0.00037053598
-0.0015933224
0.00032752469
-0.0016884492
0.00028141391
-0.0017670746
0.00023267722
-0.001828481
0.0001818098
-0.0018721243
0.00012932261
-0.0018976371
7.5736763e-05
-0.0019048294
2.1578369e-05
-0.0018936892
-3.2627706e-05
-0.00186438
-8.6362348e-05
-0.0018172372
-0.00013911678
-0.0017527624
-0.00019039715
-0.0016716175
-0.00023972866
-0.0015746167
-0.00028665931
-0.0014627174
-0.00033076327
-0.0013370105
-0.00037164405
-0.0011987095
-0.00040893725
-0.0010491387
-0.00044231298
-0.00088972094
-0.0004714781
-0.00072196455
-0.00049617803
-0.00054744989
-0.00051619832
-0.00036781542
-0.00053136591
-0.00018474341
-0.00054155012
-0.00054666344
0.00018935272
-0.00073595874
0.00037688497
-0.00072907798
0.00056090358
-0.00071537721
0.00073968913
-0.00069497371
0.00091156663
-0.00066804255
0.0010749199
-0.00063481565
0.0012282058
-0.00059558048
0.0013699677
-0.00055067833
0.0014988491
-0.00050050232
0.0016136061
-0.00044549492
0.0017131192
-0.00038614508
0.0017964044
-0.00032298499
0.0018626239
-0.00025658636
0.0019110948
-0.00018755634
0.0019412975
-0.00011653294
0.0019528822
-4.4180057e-05
0.001945675
2.8818018e-05
0.0019196813
0.00010176248
0.001875089
0.00017394632
0.0018122681
0.00024466092
0.0017317708
0.0003132035
0.0016343274
0.00037888454
0.001520842
0.00044103539
0.001392385
0.00049901618
0.0012501837
0.00055222365
0.0010956114
0.00060009875
0.00093017382
0.00064213405
0.00075549401
0.00067788053
0.00057329571
0.00070695377
0.00038538494
0.0007290394
0.00019363061
0.00074389759
-5.5939184e-08
0.00075136645
-0.00019374199
0.00075136449
-0.00038549482
0.00074389169
-0.00057340309
0.00072902961
-0.00075559792
0.00070694012
-0.00093027328
0.0006778631
-0.0010957055
0.00064211295
-0.0012502715
0.0006000741
-0.0013924655
0.00055219561
-0.0015209145
0.00049898498
-0.0016343911
0.00044100127
-0.001731825
0.00037884781
-0.0018123123
0.00031316451
-0.0018751226
0.00024462005
-0.001919704
0.00017390401
-0.0019456864
0.00010171919
-0.0019528822
2.8774232e-05
-0.0019412861
-4.4223845e-05
-0.0019110722
-0.00011657624
-0.0018625903
-0.00018759866
-0.0017963602
-0.00025662724
-0.0017130649
-0.00032302399
-0.0016135424
-0.00038618182
-0.0014987766
-0.00044552905
-0.0013698871
-0.00050053354
-0.001228118
-0.00055070638
-0.0010748258
-0.00059560515
-0.00091146717
-0.00063483677
-0.00073958521
-0.00066805998
-0.00056079618
-0.00069498736
-0.00037677507
-0.00071538701
-0.00018924132
-0.00072908387
-0.00073596071
0.00019563943
-0.00093154026
0.00038940358
-0.00092284212
0.00057954865
-0.00090552228
0.00076430318
-0.00087972823
0.00094194089
-0.00084568025
0.0011107954
-0.0008036702
0.0012692748
-0.00075405987
0.0014158755
-0.000697279
0.0015491959
-0.00063382269
0.0016679493
-0.00056424838
0.0017709766
-0.00048917233
0.0018572571
-0.00040926552
0.0019259198
-0.0003252491
0.0019762528
-0.00023788925
0.0020077114
-0.00014799156
0.0020199261
-5.6394759e-05
0.002012708
3.6036057e-05
0.0019860538
0.00012841672
0.0019401481
0.000219852
0.001875365
0.00030944402
0.0017922671
0.0003963014
0.0016916029
0.00047954877
0.0015743017
0.00055833657
0.0014414668
0.00063185112
0.0012943657
0.0006993247
0.0011344191
0.00076004538
0.00096318658
0.00081336655
0.00078235138
0.00085871573
0.00059370253
0.00089560262
0.00039911585
0.00092362608
0.00020053342
0.00094248001
-5.7905503e-08
0.00095195778
-0.00020064872
0.0009519553
-0.00039922962
0.00094247259
-0.00059381376
0.00092361375
-0.00078245906
0.00089558542
-0.00096328971
0.00085869376
-0.0011345167
0.00081333991
-0.0012944568
0.00076001424
-0.0014415505
0.00069928926
-0.0015743771
0.00063181164
-0.0016916692
0.00055829336
-0.0017923236
0.00047950221
-0.001875411
0.00039625194
-0.0019401831
0.00030939214
-0.0019860774
0.00021979826
-0.0020127199
0.00012836171
-0.0020199261
3.5980412e-05
-0.0020076995
-5.6450406e-05
-0.0019762292
-0.00014804657
-0.0019258848
-0.000237943
-0.0018572111
-0.00032530099
-0.0017709201
-0.000409315
-0.001667883
-0.00048921891
-0.0015491204
-0.00056429161
-0.0014157918
-0.00063386219
-0.0012691837
-0.00069731446
-0.0011106978
-0.00075409103
-0.00094183774
-0.00080369685
-0.00076419548
-0.00084570224
-0.0005794374
-0.00087974544
-0.00038928979
-0.00090553462
-0.00019552411
-0.00092284955
-0.00093154274
0.00020399165
-0.0011354715
0.00040603509
-0.0011248856
0.00060431895
-0.0011038061
0.00079700241
-0.0010724117
0.00098229092
-0.0010309688
0.0011584514
-0.00097983067
0.001323827
-0.00091943546
0.0014768516
-0.00085030364
0.001616064
-0.00077303511
0.0017401212
-0.00068830555
0.0018478111
-0.00059686226
0.0019380649
-0.00049951928
0.0020099677
-0.00039715192
0.0020627691
-0.00029069067
0.002095892
-0.00018111442
0.0021089404
-6.944311e-05
0.002101706
4.3270466e-05
0.0020741734
0.00015594929
0.0020265235
0.00026750185
0.0019591353
0.00037683226
0.0018725853
0.00048285137
0.0017676457
0.00058448836
0.0016452794
0.00068070289
0.001506633
0.00077049753
0.0013530274
0.00085293027
0.001185946
0.00092712684
0.00100702
0.00099229256
0.00081801229
0.0010477234
0.0006207988
0.0010928161
0.000417348
0.0011270769
0.00020969921
0.0011501288
-6.0381115e-08
0.0011617174
-0.00020981945
0.0011617144
-0.00041746669
0.0011501198
-0.00062091489
0.001127062
-0.00081812474
0.0010927953
-0.0010071278
0.0010476968
-0.0011860481
0.00099226023
-0.0013531228
0.00092708901
-0.0015067207
0.00085288716
-0.0016453586
0.00077044945
-0.0017677154
0.00068065021
-0.0018726447
0.00058443153
-0.0019591837
0.00048279093
-0.0020265604
0.00037676882
-0.0020741982
0.00026743609
-0.0021017185
0.00015588195
-0.0021089404
4.3202324e-05
-0.0020958795
-6.9511254e-05
-0.0020627443
-0.00018118177
-0.0020099309
-0.00029075644
-0.0019380165
-0.00039721538
-0.0018477518
-0.00049957974
-0.0017400516
-0.00059691912
-0.0016159849
-0.00068835826
-0.0014767639
-0.00077308322
-0.0013237316
-0.00085034677
-0.0011583493
-0.00091947332
-0.00098218312
-0.00097986301
-0.00079688993
-0.0010309954
-0.00060420284
-0.0010724325
-0.00040591639
-0.0011038211
-0.00020387138
-0.0011248946
-0.0011354745
0.00021472431
-0.0013501324
0.00042740675
-0.001337568
0.00063614875
-0.0013125481
0.00083902023
-0.0012752832
0.0010341389
-0.0012260874
0.0012196857
-0.0011653775
0.0013939207
-0.0010936704
0.0015551974
-0.0010115804
0.0017019782
-0.00091981582
0.0018328476
-0.00081917494
0.0019465262
-0.00071054094
0.0020418834
-0.00059487641
0.0021179484
-0.00047321691
0.0021739216
-0.00034666392
0.0022091842
-0.00021637704
0.0022233065
-8.3565359e-05
0.0022160551
5.0521864e-05
0.0021873991
0.00018460528
0.0021375141
0.0003173868
0.0020667849
0.00044756149
0.0019758056
0.00057383065
0.0018653783
0.00069491571
0.0017365084
0.00080957282
0.001590398
0.00091660792
0.0014284362
0.001014892
0.0012521869
0.0011033762
0.0010633733
0.0011811061
0.00086386087
0.0012472358
0.00065563722
0.0013010398
0.00044079022
0.0013419239
0.00022148451
0.0013694345
-6.3376111e-08
0.0013832653
-0.00022161073
0.0013832617
-0.00044091485
0.0013694239
-0.0006557592
0.0013419063
-0.00086397913
0.0013010152
-0.0010634867
0.0012472044
-0.0012522945
0.001181068
-0.0014285369
0.0011033314
-0.0015904907
0.0010148409
-0.0017365921
0.00091655086
-0.0018654521
0.00080951021
-0.0019758686
0.00069484808
-0.0020668363
0.00057375863
-0.0021375533
0.00044748581
-0.0021874255
0.00031730829
-0.0022160684
0.00018452483
-0.0022233065
5.0440429e-05
-0.002209171
-8.3646797e-05
-0.0021738952
-0.0002164575
-0.0021179092
-0.00034674246
-0.002041832
-0.00047329262
-0.0019464632
-0.00059494847
-0.0018327738
-0.00071060861
-0.0017018944
-0.00081923758
-0.0015551047
-0.00091987291
-0.00139382
-0.0010116315
-0.0012195781
-0.0010937152
-0.0010340254
-0.0011654158
-0.00083890194
-0.0012261189
-0.00063602674
-0.0012753077
-0.00042728209
-0.0013125657
-0.00021459806
-0.0013375786
-0.001350136
0.00022822636
-0.0015782919
0.0004542932
-0.0015636348
0.00067619194
-0.0015344469
0.0008918802
-0.0014909714
0.0010993652
-0.0014335724
0.0012967201
-0.0013627324
0.0014821
-0.0012790503
0.0016537578
-0.0011832382
0.0018100597
-0.0010761177
0.0019494998
-0.00095861501
0.0020707142
-0.00083175537
0.0021724947
-0.00069665683
0.0022538006
-0.00055452285
0.0023137709
-0.00040663426
0.0023517343
-0.0002543404
0.0023672184
-9.904946e-05
0.0023599581
5.7782122e-05
0.0023299025
0.00021466093
0.0022772197
0.00037006961
0.0022023008
0.00052248036
0.0021057612
0.00067037022
0.0019884396
0.00081223732
0.0018513942
0.00094661819
0.0016958964
0.0010721058
0.0015234204
0.0011873679
0.0013356313
0.0012911653
0.0011343682
0.0013823693
0.0009216258
0.0014599782
0.00069953286
0.0015231327
0.00047032817
0.0015711286
0.00023633485
0.0016034278
-6.6900683e-08
0.001619667
-0.00023646812
0.0016196629
-0.00047045982
0.0016034156
-0.0006996618
0.0015711083
-0.00092175093
0.0015231043
-0.0011344884
0.0014599418
-0.0013357454
0.001382325
-0.0015235274
0.0012911134
-0.001695995
0.0011873086
-0.0018514835
0.0010720394
-0.0019885184
0.00094654513
-0.0021058286
0.00081215825
-0.0022023559
0.00067028589
-0.0022772617
0.00052239162
-0.0023299308
0.00036997744
-0.0023599724
0.00021456642
-0.0023672184
5.7686417e-05
-0.00235172
-9.9145169e-05
-0.0023137426
-0.00025443493
-0.0022537586
-0.00040672645
-0.0021724396
-0.00055461163
-0.0020706469
-0.00069674121
-0.001949421
-0.00083183448
-0.0018099705
-0.00095868812
-0.0016536591
-0.0010761842
-0.001481993
-0.0011832977
-0.0012966059
-0.0012791023
-0.001099245
-0.0013627767
-0.00089175504
-0.0014336088
-0.00067606297
-0.0014909998
-0.00045416152
-0.0015344672
-0.00022809307
-0.001563647
-0.0015782959
0.00024501044
-0.0018232313
0.00048771545
-0.0018063399
0.00072596948
-0.0017727009
0.00095759059
-0.0017225925
0.0011804488
-0.0016564306
0.0013924831
-0.0015747668
0.0015917187
-0.0014782859
0.0017762836
-0.0013678031
0.0019444247
-0.0012442588
0.0020945238
-0.0011087142
0.0022251127
-0.00096234428
0.0023348872
-0.00080643127
0.0024227202
-0.00064235588
0.0024876744
-0.00047158851
0.0025290133
-0.00029567931
0.0025462114
-0.00011624752
0.0025389633
6.5030224e-05
0.002507192
0.00024643222
0.0024510553
0.00042620632
0.0023709507
0.00060258496
0.0022675183
0.00077380265
0.0021416408
0.00093811483
0.0019944408
0.0010938182
0.0018272745
0.0012392721
0.001641722
0.0013729205
0.0014395735
0.0014933138
0.0012228126
0.0015991302
0.00099359526
0.0016891955
0.00075422665
0.0017625013
0.0005071344
0.0018182208
0.00025484012
0.0018557221
-7.0963784e-08
0.0018745781
-0.0002549815
0.0018745735
-0.00050727415
0.0018557083
-0.00075436365
0.0018181978
-0.00099372838
0.0017624691
-0.0012229406
0.0016891541
-0.0014396953
0.0015990797
-0.0016418364
0.0014932544
-0.0018273802
0.0013728524
-0.0019945366
0.0012391957
-0.0021417256
0.0010937341
-0.0022675909
0.0009380236
-0.0023710102
0.00077370514
-0.0024511007
0.00060248217
-0.0025072227
0.00042609942
-0.0025389788
0.00024632251
-0.0025462114
6.4919066e-05
-0.0025289979
-0.00011635868
-0.0024876438
-0.00029578905
-0.0024226748
-0.00047169544
-0.0023348277
-0.00064245871
-0.0022250401
-0.00080652884
-0.002094439
-0.00096243557
-0.0019443288
-0.0011087983
-0.0017761778
-0.0012443352
-0.0015916043
-0.0013678712
-0.0013923612
-0.0014783454
-0.0011803207
-0.0015748173
-0.00095745743
-0.001656472
-0.00072583244
-0.0017226248
-0.00048757567
-0.0017727239
-0.00024486901
-0.0018063537
-0.0018232359
0.00026577517
-0.0020889309
0.00052906504
-0.0020696297
0.00078755425
-0.0020311901
0.0010388884
-0.0019739267
0.0012807679
-0.0018983101
0.0015109662
-0.001804965
0.0017273477
-0.0016946675
0.0019278862
-0.0015683415
0.0021106816
-0.0014270542
0.0022739775
-0.00127201
0.0024161769
-0.0011045437
0.0025358575
-0.00092611186
0.0026317859
-0.00073828429
0.0027029307
-0.00054273335
0.0027484747
-0.00034122335
0.0027678261
-0.00013559892
0.0027606288
7.2227573e-05
0.0027267719
0.00028028906
0.0026663984
0.00048657984
0.0025799114
0.00068907196
0.0024679792
0.0008857349
0.0023315368
0.0010745573
0.0021717845
0.0012535705
0.0019901822
0.0014208743
0.0017884397
0.0015746629
0.0015685025
0.0017132511
0.0013325327
0.0018350999
0.0010828873
0.001938841
0.00082209084
0.0020232977
0.00055280666
0.002087505
0.00027780409
0.0021307247
-7.5571398e-08
0.0021524578
-0.00027795469
0.0021524526
-0.00055295562
0.0021307092
-0.00082223704
0.0020874792
-0.0010830295
0.0020232615
-0.0013326699
0.0019387944
-0.0015686332
0.0018350431
-0.0017885628
0.001713184
-0.0019902962
0.0015745858
-0.0021718881
0.0014207876
-0.0023316287
0.0012534747
-0.0024680581
0.001074453
-0.0025799761
0.0008856232
-0.0026664479
0.00068895398
-0.0027268054
0.00048645693
-0.0027606457
0.00028016276
-0.0027678262
7.2099535e-05
-0.0027484579
-0.00013572696
-0.0027028973
-0.00034134967
-0.0026317364
-0.0005428563
-0.0025357928
-0.00073840232
-0.002416098
-0.00092622362
-0.0022738856
-0.001104648
-0.002110578
-0.001272106
-0.0019277722
-0.001427141
-0.0017272247
-0.0015684187
-0.0015108354
-0.0016947346
-0.0012806307
-0.0018050219
-0.0010387461
-0.0018983567
-0.00078740801
-0.0019739629
-0.00052891603
-0.0020312159
-0.00026562453
-0.0020696452
-0.0020889361
0.0002914819
-0.0023803321
0.00058025662
-0.0023584045
0.00086379841
-0.0023147319
0.0011395396
-0.0022496679
0.0014049708
-0.0021637413
0.0016576606
-0.0020576548
0.001895275
-0.0019322819
0.002115597
-0.0017886635
0.0023165452
-0.0016280025
0.0024961926
-0.0014516574
0.0026527835
-0.0012611346
0.0027847505
-0.0010580788
0.002890729
-0.00084426285
0.0029695719
-0.00062157623
0.003020362
-0.00039201345
0.0030424248
-0.00015766164
0.0030353397
7.9312622e-05
0.0029989522
0.00031667655
0.0029333837
0.00055214832
0.0028390413
0.00078341444
0.0027166246
0.0010081516
0.0025671304
0.0012240514
0.0023918525
0.0014288483
0.0021923775
0.0016203494
0.0019705747
0.0017964658
0.0017285811
0.0019552447
0.0014687813
0.0020948997
0.0011937819
0.0022138404
0.00090638162
0.0023106979
0.00060953796
0.0023843487
0.00030632998
0.0024339327
-8.0724216e-08
0.0024588685
-0.00030649089
0.0024588628
-0.00060969725
0.0024339156
-0.00090653817
0.0023843201
-0.0011939345
0.0023106579
-0.0014689287
0.0022137887
-0.001728722
0.0020948364
-0.0019707077
0.0019551697
-0.0021925012
0.0017963793
-0.0023919652
0.0016202517
-0.0025672306
0.00142874
-0.0027167109
0.0012239333
-0.0028391122
0.0010080246
-0.0029334382
0.0007832799
-0.0029989891
0.00055200787
-0.0030353584
0.00031653201
-0.0030424248
7.9165987e-05
-0.0030203435
-0.00015780828
-0.0029695351
-0.00039215802
-0.0028906747
-0.00062171673
-0.0027846796
-0.00084439746
-0.0026526972
-0.0010582059
-0.0024960923
-0.0012612529
-0.0023164325
-0.0014517658
-0.0021154733
-0.0016281002
-0.0018951419
-0.0017887501
-0.0016575196
-0.001932357
-0.0014048232
-0.0020577182
-0.0011393869
-0.002163793
-0.0008636418
-0.002249708
-0.00058009728
-0.0023147604
-0.00029132093
-0.0023584215
-0.0023803378
0.00032344625
-0.0027036919
0.00064391058
-0.0026788688
0.00095860524
-0.0026294266
0.0012646977
-0.0025557603
0.001559418
-0.0024584617
0.0018400804
-0.0023383172
0.0021041044
-0.0021963059
0.002349036
-0.0020335952
0.0025725691
-0.0018515356
0.0027725651
-0.0016516534
0.0029470724
-0.0014356419
0.0030943439
-0.0012053503
0.0032128534
-0.00096277233
0.0033013103
-0.00071003314
0.0033586736
-0.00044937677
0.0033841652
-0.0001831532
0.0033772829
8.6194901e-05
0.0033378147
0.00035614476
0.0032658517
0.00062411137
0.0031618012
0.00088746494
0.0030263977
0.001143555
0.0028607107
0.0013897385
0.0026661469
0.0016234122
0.0024444475
0.0018420487
0.0021976792
0.0020432341
0.0019282173
0.0022247066
0.0016387235
0.0023843936
0.0013321169
0.0025204469
0.0010115399
0.0026312749
0.000680319
0.0027155696
0.00034192224
0.0027723294
-8.6414628e-08
0.0028008771
-0.00034209455
0.0028008709
-0.00068048975
0.0027723108
-0.001011708
0.0027155384
-0.0013322811
0.002631231
-0.0016388826
0.0025203901
-0.0019283699
0.0023843237
-0.0021978237
0.0022246235
-0.0024445823
0.0020431379
-0.0026662702
0.0018419396
-0.0028608208
0.0016232906
-0.0030264929
0.0013896053
-0.0031618796
0.0011434113
-0.003265912
0.00088731226
-0.0033378556
0.00062395156
-0.0033773036
0.00035598
-0.0033841652
8.6027598e-05
-0.003358653
-0.00018332051
-0.0033012695
-0.00044954157
-0.0032127932
-0.00071019302
-0.0030942655
-0.0009629251
-0.0029469773
-0.0012054941
-0.002772455
-0.0014357752
-0.0025724458
-0.0016517751
-0.0023489012
-0.0018516448
-0.0021039598
-0.0020336915
-0.0018399278
-0.002196389
-0.0015592588
-0.0023383872
-0.0012645334
-0.0024585185
-0.00095843709
-0.0025558042
-0.00064373977
-0.0026294578
-0.00032327387
-0.0026788874
-0.0027036981
0.00036344337
-0.0030670426
0.00072356246
-0.0030389879
0.0010772412
-0.0029831053
0.001421316
-0.0028998351
0.0017526912
-0.0027898369
0.0020683628
-0.0026539888
0.0023654419
-0.002493385
0.0026411787
-0.002309332
0.002892986
-0.0021033428
0.0031184616
-0.001877129
0.0033154097
-0.00163259
0.0034818603
-0.0013718009
0.0036160864
-0.0010969984
0.0037166195
-0.00081056632
0.0037822645
-0.00051502172
0.0038121131
-0.00021300176
0.003805559
9.274894e-05
0.003762315
0.00039938878
0.0036824294
0.000703997
0.0035663044
0.0010035899
0.0034147125
0.0012951469
0.0032288085
0.0015756425
0.0030101363
0.0018420844
0.0027606282
0.0020915568
0.0024825959
0.0023212665
0.0021787129
0.0025285895
0.0018519892
0.0027111173
0.0015057373
0.0028666988
0.0011435327
0.0029934795
0.00076916791
0.0030899344
0.00038660206
0.0031548953
-9.2622822e-08
0.0031875718
-0.00038678683
0.0031875651
-0.00076935122
0.0031548752
-0.0011437135
0.0030899007
-0.0015059144
0.0029934319
-0.0018521613
0.002866637
-0.0021788786
0.002711041
-0.0024827535
0.0025284984
-0.0027607759
0.0023211603
-0.0030102721
0.0020914357
-0.0032289302
0.0018419488
-0.0034148181
0.0015754931
-0.0035663918
0.001294985
-0.0036824967
0.0010034172
-0.0037623609
0.00070381567
-0.0038055823
0.00039920141
-0.0038121131
9.2558456e-05
-0.0037822414
-0.00021319226
-0.0037165738
-0.00051520915
-0.0036160191
-0.00081074774
-0.003481773
-0.0010971712
-0.0033153042
-0.0013719629
-0.0031183399
-0.0016327395
-0.0028928502
-0.0018772647
-0.002641031
-0.002103464
-0.0023652842
-0.0023094382
-0.002068197
-0.0024934763
-0.001752519
-0.0026540652
-0.0014211388
-0.0027898987
-0.0010770603
-0.0028998827
-0.00072337908
-0.002983139
-0.00036325853
-0.003039008
-0.0030670493
0.00041382106
-0.0034807643
0.00082388834
-0.0034490552
0.0012266716
-0.0033858886
0.0016185904
-0.0032917539
0.001996139
-0.0031673855
0.0023559125
-0.0030137623
0.0026946335
-0.002832106
0.0030091794
-0.0026238779
0.0032966093
-0.0023907728
0.00355419
-0.0021347097
0.0037794197
-0.0018578197
0.0039700497
-0.0015624309
0.0041241027
-0.0012510514
0.0042398889
-0.0009263525
0.0043160203
-0.00059115316
0.0043514254
-0.00024840683
0.004345365
9.8809358e-05
0.004297453
0.00044730077
0.0042076782
0.00079377177
0.0040764297
0.0011348384
0.0039045205
0.0014670561
0.0036932068
0.0017869561
0.0034442004
0.0020910908
0.0031596707
0.0023760865
0.0028422368
0.0026387004
0.0024949481
0.0028758782
0.0021212548
0.0030848106
0.0017249681
0.0032629856
0.0013102125
0.003408235
0.00088137195
0.003518775
0.00044302886
0.0035932384
-9.9311873e-08
0.0036307
-0.00044322707
0.0036306929
-0.00088156888
0.003593217
-0.0013104072
0.003518739
-0.0017251594
0.0034081841
-0.0021214416
0.0032629192
-0.0024951287
0.0030847281
-0.0028424093
0.002875779
-0.0031598332
0.0026385842
-0.0034443506
0.0023759531
-0.0036933422
0.0020909404
-0.0039046385
0.0017867894
-0.0040765279
0.0014668744
-0.0042077542
0.0011346435
-0.0042975048
0.00079356632
-0.0043453913
0.00044708789
-0.0043514255
9.859262e-05
-0.0043159941
-0.00024862358
-0.0042398372
-0.00059136611
-0.0041240269
-0.00092655807
-0.0039699516
-0.0012512464
-0.0037793017
-0.0015626128
-0.0035540546
-0.0018579866
-0.0032964591
-0.0021348602
-0.0030090168
-0.0023909063
-0.0026944608
-0.0026239942
-0.0023557319
-0.0028322052
-0.0019959522
-0.0030138449
-0.001618399
-0.003167452
-0.0012264768
-0.0032918048
-0.00082369134
-0.0033859245
-0.00041362279
-0.0034490765
-0.0034807714
0.00047760922
-0.0039582671
0.00095092266
-0.0039223686
0.0014158846
-0.0038508505
0.001868387
-0.0037442563
0.0023044045
-0.003603403
0.0027200239
-0.0034293817
0.0031114752
-0.0032235573
0.0034751632
-0.0029875659
0.0038076993
-0.0027233088
0.0041059314
-0.0024329418
0.0043669723
-0.0021188606
0.0045882232
-0.0017836818
0.0047673941
-0.0014302222
0.0049025189
-0.0010614773
0.0049919694
-0.00068060365
0.0050344687
-0.00029090619
0.0050291085
0.00010416963
0.0049753735
0.0005010357
0.0048731706
0.00089597472
0.0047228638
0.0012851452
0.0045253092
0.0016646107
0.0042818844
0.002030381
0.0039945078
0.0023784674
0.0036656461
0.0027049483
0.0032983064
0.00300604
0.002896015
0.0032781696
0.0024627813
0.0035180443
0.0020030511
0.0037227158
0.0015216485
0.0038896376
0.00102371
0.0040167134
0.0005146121
0.0041023363
-1.0642181e-07
0.0041454185
-0.00051482462
0.0041454111
-0.0010239215
0.0041023139
-0.0015218582
0.0040166757
-0.002003258
0.0038895839
-0.0024629841
0.0037226453
-0.0028962121
0.0035179561
-0.003298496
0.0032780629
-0.0036658258
0.0030059139
-0.0039946749
0.0027048023
-0.004282036
0.0023783015
-0.0045254422
0.0020301956
-0.004722975
0.0016644071
-0.0048732571
0.0012849256
-0.0049754328
0.00089574203
-0.0050291386
0.00050079375
-0.0050344688
0.00010392284
-0.0049919394
-0.00029115299
-0.0049024599
-0.00068084569
-0.0047673078
-0.0010617101
-0.0045881121
-0.001430442
-0.0043668394
-0.0017838856
-0.0041057798
-0.0021190462
-0.0038075321
-0.0024331079
-0.0034749835
-0.0027234549
-0.0031112855
-0.0029876921
-0.0027198266
-0.0032236641
-0.0023042016
-0.0034294699
-0.00186818
-0.0036034735
-0.0014156748
-0.0037443101
-0.00095071108
-0.0038508882
-0.00047739662
-0.003922391
-0.0039582745
0.00055860455
-0.0045167577
0.0011122269
-0.004475991
0.0016561426
-0.0043947661
0.0021855731
-0.0042736868
0.0026958323
-0.0041136622
0.0031823602
-0.0039159096
0.0036407597
-0.0036819568
0.0040668339
-0.00341364
0.0044566242
-0.0031130991
0.0048064473
-0.002782765
0.0051129284
-0.0024253417
0.0053730286
-0.002043782
0.0055840663
-0.0016412599
0.005743732
-0.001221143
0.005850099
-0.00078697065
0.0059016344
-0.00034244154
0.0058972152
0.00010858883
0.005836159
0.00056209185
0.0057182608
0.0010138729
0.0055438436
0.0014595624
0.0053138087
0.0018946456
0.0050296793
0.0023145103
0.0046936313
0.0027145154
0.0043085055
0.003090074
0.0038778017
0.0034367438
0.0034056527
0.0037503187
0.0028967812
0.0040269157
0.002356442
0.004263055
0.0017903507
0.0044557289
0.0012046032
0.004602461
0.00060558674
0.0047013527
-1.1386207e-07
0.0047511191
-0.00060581427
0.0047511115
-0.0012048301
0.0047013297
-0.0017905764
0.004602422
-0.0023566657
0.0044556731
-0.0028970017
0.0042629813
-0.0034058683
0.0040268228
-0.0038780106
0.0037502051
-0.004308705
0.0034366084
-0.0046938183
0.0030899156
-0.0050298503
0.0027143335
-0.0053139598
0.0023143051
-0.0055439708
0.0018944182
-0.0057183603
0.0014593151
-0.0058362274
0.0010136092
-0.0058972501
0.00056181641
-0.0059016345
0.00010830723
-0.0058500644
-0.00034272312
-0.0057436639
-0.0007872462
-0.0055839671
-0.0012214069
-0.0053729016
-0.0016415075
-0.0051127774
-0.0020440098
-0.0048062763
-0.0024255472
-0.0044564371
-0.0027829472
-0.0040666342
-0.0031132578
-0.0036405507
-0.0034137757
-0.0031821444
-0.0036820704
-0.0026956117
-0.0039160026
-0.0021853493
-0.0041137359
-0.0016559168
-0.0042737426
-0.001112
-0.0043948051
-0.00055837695
-0.004476014
-0.0045167653
0.0006613982
-0.0051780344
0.0013169445
-0.0051315373
0.0019610629
-0.0050388845
0.0025881228
-0.0049007468
0.0031925973
-0.0047181367
0.0037691029
-0.0044924152
0.0043124429
-0.0042252968
0.0048176534
-0.0039188505
0.0052800502
-0.003575496
0.0056952751
-0.0031979899
0.0060593363
-0.0027894028
0.0063686418
-0.0023530875
0.0066200225
-0.0018926406
0.0068107443
-0.0014118648
0.0069385135
-0.00091473986
0.0070014815
-0.00040540952
0.006998257
0.00011181323
0.0069279431
0.00063240577
0.0067901846
0.0011516315
0.0065852415
0.0016645055
0.0063140617
0.0021658253
0.0059783455
0.0026502266
0.0055805898
0.0031122711
0.0051241093
0.0035465545
0.0046130299
0.0039478232
0.004052257
0.0043110915
0.003447422
0.0046317508
0.002804809
0.004905668
0.0021312674
0.0051292706
0.0014341113
0.005299617
0.00072101127
0.0054144528
-1.2150285e-07
0.0054722519
-0.00072125426
0.0054722442
-0.0014343542
0.0054144297
-0.0021315099
0.0052995777
-0.0028050506
0.0051292138
-0.0034476617
0.0049055924
-0.0040524933
0.0046316545
-0.0046132607
0.0043109725
-0.0051243317
0.0039476794
-0.0055808002