/*--------------------------------*- C++ -*----------------------------------*\
| =========                 |                                                 |
| \\      /  F ield         | OpenFOAM: The Open Source CFD Toolbox           |
|  \\    /   O peration     | Version:  2306                                  |
|   \\  /    A nd           | Website:  www.openfoam.com                      |
|    \\/     M anipulation  |                                                 |
\*---------------------------------------------------------------------------*/
FoamFile
{
    version     2.0;
    format      ascii;
    arch        "LSB;label=32;scalar=64";
    class       volVectorField;
    location    "0.6";
    object      U;
}
// * * * * * * * * * * * * * * * * * * * * * * * * * * * * * * * * * * * * * //

dimensions      [0 1 -1 0 0 0 0];

internalField   nonuniform List<vector> 
51200
(
(4.3265056e-05 -2.4308559e-05 -1.1057825e-19)
(0.00010467347 -3.2638995e-05 -2.7172058e-21)
(0.00017449049 -3.2623006e-05 1.8162064e-20)
(0.00024206843 -3.3192659e-05 -2.3456891e-20)
(0.0003112471 -3.3404131e-05 -3.5239673e-20)
(0.00037958843 -3.3241424e-05 2.0039815e-20)
(0.00044698309 -3.3007602e-05 1.9162988e-20)
(0.00051343214 -3.2719255e-05 -1.9813381e-20)
(0.00057887888 -3.2383663e-05 -1.6920078e-20)
(0.00064324161 -3.2006773e-05 5.9786643e-20)
(0.00070642865 -3.1590985e-05 5.5645896e-20)
(0.00076834213 -3.1137544e-05 -2.7384039e-20)
(0.00082888128 -3.0647668e-05 2.145932e-20)
(0.00088794608 -3.0122637e-05 6.1546239e-20)
(0.00094543928 -2.956377e-05 3.9972583e-20)
(0.0010012675 -2.8972412e-05 -9.7957386e-22)
(0.001055342 -2.8349901e-05 -3.1909209e-20)
(0.0011075787 -2.7697521e-05 1.3311674e-20)
(0.0011578993 -2.701644e-05 3.5367383e-20)
(0.0012062309 -2.6307581e-05 -7.3033524e-21)
(0.001252506 -2.5571543e-05 1.4669194e-20)
(0.0012966634 -2.480833e-05 2.4449276e-20)
(0.0013386472 -2.4017013e-05 -3.3984814e-20)
(0.0013784075 -2.3195225e-05 -1.1921429e-19)
(0.0014159 -2.2338684e-05 -2.0119004e-19)
(0.0014510918 -2.1441138e-05 4.395173e-20)
(0.0014839829 -2.0501079e-05 3.1911367e-19)
(0.0015145704 -1.9564736e-05 6.1587783e-20)
(0.0015428063 -1.8673713e-05 -1.5568768e-19)
(0.0015686527 -1.7821532e-05 -1.314426e-19)
(0.0015921062 -1.699773e-05 -1.0480946e-19)
(0.0016131741 -1.6195142e-05 -2.4087347e-20)
(0.0016318684 -1.5409609e-05 -8.2808512e-20)
(0.0016482057 -1.4638773e-05 1.7082082e-19)
(0.0016622069 -1.3881474e-05 2.7301788e-19)
(0.0016738983 -1.3137292e-05 -2.1460062e-19)
(0.0016833111 -1.2406167e-05 -9.6616637e-20)
(0.0016904815 -1.1688381e-05 3.6329822e-19)
(0.0016954508 -1.0984312e-05 -1.5380323e-19)
(0.0016982647 -1.0294361e-05 -6.0804852e-19)
(0.0016989732 -9.6190394e-06 -1.0070269e-19)
(0.0016976309 -8.9588521e-06 3.6465151e-19)
(0.0016942957 -8.3142393e-06 5.2956045e-19)
(0.0016890296 -7.6857822e-06 4.0706544e-19)
(0.0016818978 -7.0739079e-06 -2.8873628e-19)
(0.0016729682 -6.4792605e-06 -9.7371449e-19)
(0.0016623119 -5.9028241e-06 -1.1118551e-19)
(0.0016500024 -5.3461398e-06 3.7161869e-19)
(0.0016361157 -4.8116605e-06 3.1631015e-19)
(0.0016207305 -4.3025087e-06 6.3042542e-19)
(0.0016039276 -3.8207991e-06 -3.8368859e-19)
(0.0015857898 -3.3683821e-06 -3.5705968e-19)
(0.0015664016 -2.9482967e-06 1.3464325e-19)
(0.0015458462 -2.5660255e-06 -2.8535186e-19)
(0.0015241994 -2.2290682e-06 3.9803469e-19)
(0.0015015311 -1.9299666e-06 3.2742727e-19)
(0.0014779055 -1.63043e-06 -4.9527533e-19)
(0.001453355 -1.3148534e-06 -1.4290604e-19)
(0.001428016 -8.8630924e-07 9.9207191e-20)
(0.0014020447 -4.3194502e-07 -6.9428119e-20)
(0.0013754853 -7.1377908e-10 2.9876736e-20)
(0.0013483906 3.9988011e-07 6.5103772e-20)
(0.0013208308 7.6935011e-07 -2.7847715e-21)
(0.0012928783 1.1097319e-06 -4.4779013e-20)
(0.0012646037 1.4231965e-06 8.1758058e-20)
(0.0012360758 1.7116106e-06 1.1226831e-19)
(0.001207361 1.9765993e-06 -2.4120507e-19)
(0.0011785229 2.2193748e-06 -1.9692252e-20)
(0.0011496225 2.4409398e-06 5.5280387e-20)
(0.0011207182 2.6425445e-06 -4.4598096e-19)
(0.0010918648 2.8249363e-06 8.2554281e-20)
(0.0010631151 2.9889233e-06 3.9386559e-19)
(0.0010345189 3.1355354e-06 -5.9032314e-21)
(0.0010061221 3.2655682e-06 -9.3552913e-20)
(0.00097796828 3.3797071e-06 -8.9838296e-20)
(0.00095009817 3.4786552e-06 2.6358831e-19)
(0.00092254919 3.5635175e-06 2.0403648e-19)
(0.00089535564 3.6347466e-06 -2.6375105e-19)
(0.00086854945 3.6932118e-06 -2.7588277e-19)
(0.00084215933 3.7397381e-06 6.0041687e-20)
(0.0008162111 3.7750128e-06 2.3896202e-19)
(0.00079072775 3.7997891e-06 -7.1797318e-20)
(0.0007657296 3.8147485e-06 -1.6639409e-19)
(0.00074123452 3.8206154e-06 -2.6441993e-20)
(0.00071725752 3.8182166e-06 -5.5582562e-20)
(0.0006938113 3.8080456e-06 8.9577257e-20)
(0.00067090646 3.7908015e-06 8.3624341e-20)
(0.00064855113 3.7671835e-06 5.7689681e-20)
(0.00062675129 3.7377122e-06 2.6967772e-20)
(0.00060551107 3.703025e-06 -1.6448364e-19)
(0.00058483269 3.6636728e-06 4.0362883e-21)
(0.00056471651 3.6201848e-06 4.948178e-20)
(0.00054516126 3.5730394e-06 -5.6102041e-20)
(0.0005261643 3.5227082e-06 -1.327116e-20)
(0.0005077215 3.4696714e-06 1.577791e-20)
(0.00048982745 3.4143547e-06 6.422689e-20)
(0.00047247544 3.3571926e-06 7.309713e-20)
(0.00045565782 3.2984678e-06 2.2934867e-20)
(0.00043936604 3.2385761e-06 -1.1076969e-19)
(0.00042359059 3.1778421e-06 -7.1313459e-20)
(0.00040832122 3.1165558e-06 6.6401446e-20)
(0.00039354707 3.0549802e-06 3.7767262e-20)
(0.00037925669 2.9933756e-06 3.0231784e-20)
(0.00036543816 2.9319647e-06 -4.1600463e-20)
(0.00035207915 2.8709412e-06 -4.0641954e-20)
(0.00033916704 2.8104984e-06 2.8601292e-20)
(0.00032668895 2.7507931e-06 2.1994698e-20)
(0.00031463182 2.6919762e-06 4.0341581e-20)
(0.00030298249 2.6341686e-06 1.5083722e-20)
(0.00029172773 2.5774889e-06 1.8843534e-20)
(0.00028085431 2.52203e-06 -1.0160308e-20)
(0.00027034905 2.4678711e-06 -7.0113927e-20)
(0.00026019886 2.4150828e-06 1.5008774e-20)
(0.00025039077 2.3637227e-06 3.7733227e-20)
(0.00024091196 2.3138306e-06 -1.2944282e-20)
(0.00023174983 2.2654421e-06 -1.3578328e-20)
(0.00022289196 2.2185879e-06 -9.33651e-21)
(0.00021432622 2.1732751e-06 3.5302411e-20)
(0.00020604073 2.1295147e-06 -1.2859597e-20)
(0.00019802386 2.0873098e-06 -5.4945128e-20)
(0.00019026433 2.046645e-06 6.673733e-21)
(0.00018275116 2.0075142e-06 4.4316708e-20)
(0.00017547366 1.969883e-06 2.2450074e-20)
(0.00016842152 1.9337341e-06 -5.2646081e-20)
(0.00016158462 1.8990699e-06 -4.6980754e-20)
(0.00015495351 1.8657772e-06 2.5096549e-20)
(0.00014851884 1.8339428e-06 5.574876e-20)
(0.00014227132 1.8034671e-06 2.7940208e-20)
(0.00013620232 1.7743193e-06 -1.3683635e-20)
(0.00013030346 1.7464753e-06 -7.3510009e-21)
(0.00012456671 1.7198884e-06 -6.2829784e-21)
(0.00011898429 1.6945554e-06 2.0179622e-20)
(0.00011354869 1.6704413e-06 5.4758964e-20)
(0.00010825266 1.6475055e-06 1.8460016e-20)
(0.00010308935 1.6256796e-06 -1.6519287e-20)
(9.8052095e-05 1.6049877e-06 -3.0572207e-20)
(9.3134499e-05 1.5853575e-06 -1.8122812e-20)
(8.8330471e-05 1.5667616e-06 4.2256491e-21)
(8.3634148e-05 1.5491628e-06 6.4310281e-21)
(7.9039911e-05 1.532516e-06 5.3141748e-21)
(7.4542381e-05 1.516787e-06 -6.3646734e-21)
(7.0136376e-05 1.5019589e-06 -2.2287887e-21)
(6.5816907e-05 1.4880005e-06 9.9734036e-21)
(6.1579188e-05 1.4748798e-06 -8.6387521e-21)
(5.7418596e-05 1.4625708e-06 -1.7706814e-20)
(5.3330652e-05 1.451056e-06 -3.7558201e-21)
(4.9310981e-05 1.4403137e-06 1.3560722e-20)
(4.5355319e-05 1.4303199e-06 1.6068813e-20)
(4.1459356e-05 1.421144e-06 -7.5864595e-21)
(3.7618632e-05 1.4128032e-06 -8.0999865e-21)
(3.3828417e-05 1.4054208e-06 3.0794091e-21)
(3.0083327e-05 1.3992453e-06 8.4225661e-21)
(2.6376917e-05 1.3947289e-06 5.4651694e-21)
(2.2701224e-05 1.392581e-06 4.6277587e-22)
(1.9046683e-05 1.393654e-06 3.0176978e-21)
(1.5403741e-05 1.3981392e-06 1.1233135e-21)
(1.1769855e-05 1.4027602e-06 -2.2569282e-22)
(8.1695667e-06 1.3966175e-06 2.7994091e-21)
(4.6698006e-06 1.3582359e-06 3.7984576e-21)
(1.4423501e-06 1.3460505e-06 4.6825894e-21)
(9.4467216e-05 -0.0002413595 -1.1572543e-19)
(0.00021425551 -0.00024851992 -1.0690021e-20)
(0.00034945239 -0.00024819846 -4.4007591e-20)
(0.00047997784 -0.00024805799 -1.3225499e-19)
(0.00061266248 -0.00024688298 -8.3419409e-20)
(0.00074369341 -0.00024499456 2.573554e-20)
(0.00087287527 -0.00024283931 -7.0524329e-20)
(0.0010002082 -0.00024048078 8.2171208e-21)
(0.0011255497 -0.00023791003 6.6577432e-20)
(0.0012487 -0.0002351118 3.2524702e-20)
(0.0013694448 -0.00023207385 1.9644982e-20)
(0.0014875637 -0.00022879 4.8964872e-20)
(0.001602836 -0.00022525981 4.4237251e-20)
(0.0017150464 -0.00022148697 -1.1454329e-19)
(0.0018239884 -0.00021747802 -1.2032075e-21)
(0.0019294656 -0.00021324144 1.5450243e-20)
(0.0020312933 -0.00020878704 -1.2746915e-19)
(0.002129299 -0.00020412561 3.3608118e-21)
(0.002223323 -0.00019926858 1.4943509e-19)
(0.0023132189 -0.00019422772 9.8637064e-20)
(0.002398854 -0.0001890151 4.0481657e-20)
(0.0024801094 -0.00018364261 5.514295e-20)
(0.0025568808 -0.00017812183 -5.5781247e-21)
(0.0026290785 -0.00017246362 -1.8252395e-19)
(0.002696628 -0.00016667785 -2.9069965e-19)
(0.0027594662 -0.00016077326 7.0230659e-20)
(0.0028175194 -0.00015476229 3.1395543e-19)
(0.0028707309 -0.00014869048 1.1393424e-19)
(0.0029191017 -0.00014260391 7.8902725e-20)
(0.0029626468 -0.00013651295 -2.7987155e-19)
(0.0030013729 -0.00013042222 -5.0756673e-19)
(0.0030352967 -0.00012433814 3.5377115e-20)
(0.0030644484 -0.00011826969 2.3594071e-19)
(0.0030888712 -0.00011222679 2.1925442e-19)
(0.003108621 -0.00010622029 4.4291094e-21)
(0.0031237655 -0.00010026136 -1.6728272e-19)
(0.0031343838 -9.4361066e-05 2.5790052e-19)
(0.0031405656 -8.8530665e-05 4.0922657e-19)
(0.0031424111 -8.278089e-05 -7.074145e-19)
(0.0031400296 -7.7121887e-05 -8.3842333e-19)
(0.0031335394 -7.1563617e-05 9.2797791e-19)
(0.0031230671 -6.6115546e-05 5.5158259e-19)
(0.0031087466 -6.0786486e-05 -6.7721235e-19)
(0.0030907191 -5.5585154e-05 -7.6270199e-19)
(0.003069132 -5.0519026e-05 -1.4511149e-19)
(0.0030441375 -4.559528e-05 1.3722922e-18)
(0.0030158926 -4.0820528e-05 9.5559701e-19)
(0.0029845585 -3.6200346e-05 -8.4049381e-19)
(0.0029503005 -3.1738775e-05 -6.9891535e-19)
(0.0029132894 -2.7439062e-05 4.6020124e-19)
(0.0028736996 -2.3305018e-05 6.5202753e-19)
(0.0028317051 -1.934069e-05 -5.274731e-19)
(0.0027874778 -1.5549453e-05 -8.7115582e-19)
(0.0027411868 -1.1922466e-05 -3.1270473e-21)
(0.0026930125 -8.4301642e-06 4.9021273e-19)
(0.0026431608 -5.090496e-06 6.1305882e-19)
(0.0025917855 -1.9648554e-06 -3.7604213e-20)
(0.0025390587 9.8039099e-07 -9.4152549e-19)
(0.0024851045 3.8190786e-06 -3.3258836e-19)
(0.0024300231 6.5032046e-06 8.4115985e-19)
(0.0023740161 9.0112275e-06 3.0225571e-19)
(0.0023172657 1.1343965e-05 -7.5152027e-19)
(0.002259927 1.3503483e-05 -3.3034523e-19)
(0.0022021457 1.5494612e-05 6.2250079e-19)
(0.0021440608 1.7321859e-05 2.4921005e-19)
(0.0020858063 1.8989855e-05 -3.36789e-19)
(0.0020275108 2.0503812e-05 -1.7623049e-19)
(0.0019692961 2.1868619e-05 -2.3082484e-19)
(0.0019112793 2.3089099e-05 -4.1252106e-20)
(0.0018535703 2.4171893e-05 1.9992467e-19)
(0.0017962723 2.5121744e-05 -9.0851484e-20)
(0.0017394837 2.5944023e-05 -1.3745266e-20)
(0.0016832957 2.6645459e-05 2.3609421e-19)
(0.0016277923 2.7231786e-05 3.4151952e-20)
(0.0015730511 2.7708648e-05 -2.8255478e-19)
(0.0015191449 2.8081622e-05 4.8011511e-20)
(0.0014661384 2.8358133e-05 4.5222232e-19)
(0.0014140903 2.8542685e-05 -1.2621173e-20)
(0.0013630543 2.8641367e-05 -2.6288275e-19)
(0.0013130772 2.8660639e-05 -1.0512163e-20)
(0.0012642003 2.8606155e-05 -1.1985153e-20)
(0.0012164589 2.8483632e-05 -1.0033576e-19)
(0.0011698828 2.8298402e-05 -2.0374278e-19)
(0.0011244971 2.8055912e-05 -1.0162663e-19)
(0.0010803212 2.776197e-05 -2.6176053e-21)
(0.0010373698 2.742082e-05 3.4345917e-20)
(0.00099565405 2.7037671e-05 3.0866166e-19)
(0.00095517974 2.6617462e-05 2.5542519e-19)
(0.00091594866 2.6164231e-05 -6.1240715e-20)
(0.00087795931 2.5682655e-05 -3.8033774e-19)
(0.00084120674 2.5176645e-05 -2.5180875e-19)
(0.00080568237 2.4650065e-05 2.1536202e-19)
(0.00077137455 2.4106407e-05 4.7735791e-20)
(0.00073826926 2.354907e-05 -1.8498065e-19)
(0.00070634993 2.2981245e-05 2.9320936e-20)
(0.00067559761 2.2405908e-05 1.2844662e-19)
(0.00064599116 2.1825978e-05 1.7686693e-19)
(0.00061750787 2.1243571e-05 4.0401755e-20)
(0.0005901236 2.0661196e-05 -2.331325e-19)
(0.00056381259 2.0081036e-05 -1.1499195e-19)
(0.00053854799 1.9504956e-05 7.1456792e-20)
(0.00051430201 1.8934597e-05 1.2809063e-19)
(0.00049104606 1.8371588e-05 4.258946e-20)
(0.00046875091 1.7817314e-05 -1.2803161e-19)
(0.00044738687 1.7272971e-05 -2.0037319e-20)
(0.00042692393 1.673963e-05 6.9651524e-20)
(0.00040733191 1.6218203e-05 8.9780763e-20)
(0.00038858056 1.5709483e-05 1.1477145e-19)
(0.00037063972 1.521411e-05 1.2340108e-20)
(0.00035347935 1.473263e-05 -1.4386151e-20)
(0.0003370697 1.4265463e-05 -6.275376e-20)
(0.00032138137 1.381295e-05 -1.1725296e-19)
(0.00030638536 1.3375317e-05 2.6997911e-20)
(0.00029205317 1.295272e-05 1.2939553e-19)
(0.00027835685 1.2545238e-05 1.8928825e-20)
(0.00026526903 1.2152869e-05 -1.4059694e-19)
(0.00025276301 1.1775554e-05 -6.0544573e-20)
(0.00024081277 1.1413178e-05 1.0947374e-19)
(0.00022939299 1.1065589e-05 3.5834122e-21)
(0.00021847905 1.0732584e-05 -1.5049264e-19)
(0.00020804715 1.0413794e-05 -3.5156778e-20)
(0.00019807424 1.0109152e-05 1.8349876e-19)
(0.00018853801 9.8181642e-06 1.3390348e-19)
(0.000179417 9.5405948e-06 -1.3692453e-19)
(0.00017069032 9.2763734e-06 -2.1646403e-19)
(0.00016233837 9.0235761e-06 5.3705831e-21)
(0.00015434196 8.7843674e-06 1.9027978e-19)
(0.00014668226 8.5569205e-06 9.4925616e-20)
(0.00013934172 8.3409619e-06 -3.649201e-20)
(0.00013230337 8.1362023e-06 -5.732046e-20)
(0.000125551 7.9421618e-06 -3.7789022e-20)
(0.00011906906 7.7586368e-06 7.1080264e-20)
(0.00011284255 7.5852883e-06 1.2554165e-19)
(0.00010685712 7.4217426e-06 4.4630311e-20)
(0.00010109925 7.2673699e-06 -4.3221624e-20)
(9.5555885e-05 7.1222628e-06 -4.6352475e-20)
(9.0214471e-05 6.985768e-06 -1.8620617e-20)
(8.5063183e-05 6.857645e-06 -5.9902275e-21)
(8.009066e-05 6.7375411e-06 2.152931e-20)
(7.5286066e-05 6.6251635e-06 1.4440966e-20)
(7.0639106e-05 6.5202368e-06 -2.4695594e-20)
(6.613988e-05 6.4224824e-06 -2.6890693e-20)
(6.1778876e-05 6.3316569e-06 1.1679245e-20)
(5.7547036e-05 6.2475378e-06 5.2411625e-22)
(5.3435642e-05 6.1699331e-06 -3.2481134e-20)
(4.9436255e-05 6.0986906e-06 -1.312484e-20)
(4.5540633e-05 6.0337378e-06 3.7102672e-20)
(4.1740872e-05 5.9751172e-06 3.900787e-20)
(3.8028887e-05 5.9230299e-06 -1.220754e-20)
(3.4396273e-05 5.8779488e-06 -2.8834388e-20)
(3.0834355e-05 5.8408085e-06 2.7089061e-21)
(2.7333552e-05 5.8131094e-06 2.9215214e-20)
(2.3883014e-05 5.7970229e-06 1.5635032e-20)
(2.0470607e-05 5.7950157e-06 -6.9719688e-22)
(1.7083933e-05 5.8080393e-06 -3.1465153e-22)
(1.3714007e-05 5.8302906e-06 1.5943921e-21)
(1.0364889e-05 5.8373804e-06 6.7809238e-21)
(7.0719967e-06 5.7640659e-06 1.2312614e-20)
(3.9058186e-06 5.4770328e-06 1.3053553e-20)
(1.1682997e-06 4.8677012e-06 1.3763631e-20)
(0.00011269195 -0.00056862197 1.1347824e-19)
(0.00025220793 -0.00057087117 1.0127619e-20)
(0.0004098929 -0.00056840527 -4.8847441e-20)
(0.00056151073 -0.00056495627 -1.2895854e-19)
(0.00071544446 -0.00056051814 -3.9145799e-20)
(0.00086735882 -0.00055548713 4.2772022e-20)
(0.0010170477 -0.00055009313 -1.2104714e-19)
(0.001164479 -0.00054431681 1.0355963e-20)
(0.0013094488 -0.00053809051 1.0925174e-20)
(0.0014516931 -0.00053135491 -1.273142e-19)
(0.0015909374 -0.00052407106 3.0150969e-20)
(0.0017269056 -0.00051621999 1.5927797e-20)
(0.0018593242 -0.00050779855 1.112571e-19)
(0.001987928 -0.00049881475 -5.1674691e-20)
(0.0021124638 -0.00048928426 -8.888574e-20)
(0.0022326919 -0.00047922792 6.3452918e-20)
(0.0023483875 -0.00046867035 -5.5496922e-20)
(0.0024593418 -0.00045763893 7.2281466e-20)
(0.0025653624 -0.00044616307 1.2597919e-19)
(0.0026662739 -0.00043427375 -5.0451147e-20)
(0.0027619186 -0.00042200342 8.3463693e-21)
(0.0028521565 -0.00040938551 2.8324205e-20)
(0.0029368653 -0.00039645456 -5.1278646e-20)
(0.003015941 -0.00038324634 -1.4922939e-19)
(0.0030892973 -0.00036979794 -1.4800845e-19)
(0.0031568654 -0.00035614783 -4.1681132e-20)
(0.0032185921 -0.00034233381 4.1213103e-20)
(0.0032744459 -0.00032837417 1.2186464e-19)
(0.0033244182 -0.00031428998 1.2011641e-19)
(0.0033685142 -0.00030012125 -1.4785576e-20)
(0.0034067521 -0.0002859074 -1.3186439e-19)
(0.0034391668 -0.00027168447 -1.7512434e-19)
(0.0034658103 -0.00025748728 4.1388492e-20)
(0.0034867512 -0.00024334841 1.897274e-19)
(0.003502073 -0.00022929973 -3.303475e-21)
(0.003511874 -0.00021537168 -2.6785008e-20)
(0.0035162662 -0.00020159366 1.9914565e-20)
(0.0035153746 -0.00018799431 -6.2509914e-20)
(0.0035093366 -0.00017460042 -2.3836999e-19)
(0.0034983011 -0.00016143719 -1.7022626e-19)
(0.0034824275 -0.00014852864 2.2204074e-19)
(0.0034618851 -0.00013589748 1.4361264e-19)
(0.0034368519 -0.00012356462 -1.0978858e-19)
(0.0034075143 -0.00011154993 -1.6024693e-19)
(0.0033740665 -9.987089e-05 2.6528179e-20)
(0.0033367082 -8.8543593e-05 4.2303267e-19)
(0.0032956455 -7.7582578e-05 2.3725676e-19)
(0.0032510902 -6.7000636e-05 -1.4947479e-19)
(0.0032032572 -5.6807324e-05 -2.3980566e-20)
(0.0031523633 -4.7010157e-05 1.5518066e-19)
(0.0030986268 -3.7615704e-05 8.8958255e-20)
(0.0030422689 -2.8627442e-05 -2.4160901e-19)
(0.0029835246 -2.0044398e-05 -2.1702167e-19)
(0.0029226394 -1.184034e-05 2.7388608e-20)
(0.0028597804 -4.1152435e-06 -2.3937741e-20)
(0.0027950525 3.1454132e-06 4.9961314e-20)
(0.0027287054 9.9575584e-06 -1.0435159e-21)
(0.0026610363 1.6337499e-05 -2.7430919e-19)
(0.0025922509 2.2252042e-05 -1.0962648e-19)
(0.0025225416 2.7742939e-05 1.4961453e-19)
(0.0024520947 3.2835125e-05 6.9038028e-20)
(0.0023810921 3.7538382e-05 -1.4387052e-19)
(0.0023097138 4.1858567e-05 -2.5681318e-19)
(0.0022381344 4.5804682e-05 6.6799023e-20)
(0.0021665205 4.938549e-05 2.2830836e-19)
(0.0020950326 5.2610451e-05 6.235667e-20)
(0.0020238238 5.5491051e-05 -1.6535604e-19)
(0.0019530376 5.8039043e-05 -3.9348312e-19)
(0.0018828111 6.0265459e-05 -3.9560504e-20)
(0.0018132724 6.2185516e-05 4.2542304e-20)
(0.0017445395 6.3811327e-05 -1.4330089e-19)
(0.0016767256 6.5155133e-05 -2.74285e-20)
(0.0016099337 6.623316e-05 6.3592558e-20)
(0.0015442571 6.7059334e-05 1.5669015e-19)
(0.0014797825 6.7647363e-05 4.4681678e-20)
(0.0014165893 6.8010222e-05 2.5112345e-19)
(0.0013547457 6.8164839e-05 1.9040811e-19)
(0.0012943134 6.8123253e-05 -3.1968793e-19)
(0.0012353491 6.7899255e-05 -6.7613473e-20)
(0.0011778996 6.7507549e-05 2.386702e-19)
(0.0011220047 6.6961696e-05 -1.0431338e-19)
(0.0010676969 6.6274836e-05 -3.1893888e-19)
(0.0010150021 6.5459389e-05 -1.9886765e-19)
(0.00096394115 6.4528001e-05 -5.6414135e-20)
(0.00091452701 6.3494154e-05 -4.9188351e-20)
(0.00086676754 6.2366765e-05 -3.4275166e-21)
(0.00082066656 6.1158394e-05 9.9523359e-20)
(0.00077622088 5.9880224e-05 2.1438514e-19)
(0.00073342327 5.8540812e-05 3.045532e-19)
(0.00069226244 5.7150905e-05 -1.4762994e-19)
(0.00065272282 5.5719164e-05 -4.1616562e-19)
(0.000614785 5.425445e-05 -4.1782783e-21)
(0.00057842598 5.2763619e-05 7.4974738e-20)
(0.00054362016 5.1254922e-05 -1.3941829e-19)
(0.00051033921 4.9735067e-05 3.4126292e-20)
(0.00047855221 4.8210335e-05 2.4496506e-19)
(0.00044822544 4.6687156e-05 5.3514475e-20)
(0.00041932389 4.5169893e-05 -1.5789297e-19)
(0.00039181143 4.3663927e-05 -2.0589249e-19)
(0.00036564978 4.2173646e-05 -4.8515984e-20)
(0.00034079966 4.0702977e-05 2.0008921e-19)
(0.00031722119 3.925545e-05 1.8319383e-19)
(0.00029487384 3.7834178e-05 -2.1945207e-20)
(0.00027371641 3.6441881e-05 -1.8112916e-19)
(0.00025370752 3.5080925e-05 1.613524e-20)
(0.00023480572 3.3753318e-05 2.1040546e-19)
(0.0002169696 3.2460746e-05 7.1411137e-20)
(0.00020015798 3.1204606e-05 -5.7299674e-21)
(0.00018433003 2.9986e-05 -2.1881893e-20)
(0.00016944537 2.8805777e-05 -1.0044074e-19)
(0.00015546423 2.7664553e-05 -3.9563008e-20)
(0.0001423475 2.6562727e-05 1.7870711e-20)
(0.00013005677 2.5500474e-05 4.2552467e-20)
(0.00011855452 2.4477823e-05 1.6095595e-19)
(0.00010780412 2.3494614e-05 -5.6561588e-21)
(9.7769822e-05 2.255056e-05 -2.6896438e-19)
(8.8416922e-05 2.1645223e-05 -1.4624689e-19)
(7.9711732e-05 2.0778058e-05 6.1905237e-20)
(7.1621602e-05 1.9948444e-05 6.689324e-20)
(6.4114832e-05 1.9155653e-05 -1.2013813e-20)
(5.7161161e-05 1.8398837e-05 2.5603037e-20)
(5.0731123e-05 1.7677146e-05 9.6985413e-20)
(4.4796267e-05 1.6989642e-05 3.5379152e-20)
(3.932982e-05 1.6335353e-05 -1.1722925e-19)
(3.4303981e-05 1.5713375e-05 -1.1824978e-19)
(2.9696212e-05 1.5122583e-05 5.0227237e-20)
(2.5482543e-05 1.4562094e-05 1.2759877e-19)
(2.1637356e-05 1.4030866e-05 8.3046328e-20)
(1.8140252e-05 1.352786e-05 -3.7109605e-20)
(1.4970087e-05 1.3052001e-05 -4.1502236e-20)
(1.2106948e-05 1.2602199e-05 9.5478871e-21)
(9.5318436e-06 1.2177673e-05 2.1218197e-20)
(7.2263572e-06 1.1777529e-05 9.402319e-20)
(5.1727919e-06 1.1400744e-05 1.0886619e-19)
(3.355121e-06 1.1046377e-05 7.216364e-21)
(1.7575849e-06 1.0713472e-05 -7.4144387e-20)
(3.6485201e-07 1.0401146e-05 -4.7842916e-20)
(-8.3698905e-07 1.0108556e-05 -9.1265899e-24)
(-1.8614902e-06 9.8348992e-06 6.3571674e-21)
(-2.7214239e-06 9.5794204e-06 -1.3375691e-22)
(-3.4289899e-06 9.3413882e-06 -1.9818976e-20)
(-3.9957927e-06 9.1201301e-06 -4.0722121e-20)
(-4.4328721e-06 8.9150344e-06 4.1453654e-21)
(-4.7507477e-06 8.7255064e-06 2.2917426e-20)
(-4.9594995e-06 8.5510976e-06 -7.6200904e-21)
(-5.0687981e-06 8.391435e-06 3.6539308e-21)
(-5.0880013e-06 8.2462572e-06 9.172915e-21)
(-5.026161e-06 8.1156778e-06 4.1969223e-21)
(-4.8922963e-06 8.0000712e-06 9.3880024e-21)
(-4.6954746e-06 7.9001228e-06 8.9050373e-21)
(-4.4448812e-06 7.817575e-06 2.0896331e-20)
(-4.1500956e-06 7.7548107e-06 2.1478187e-20)
(-3.8209346e-06 7.7147862e-06 6.6681384e-21)
(-3.4668577e-06 7.6998303e-06 -9.238342e-22)
(-3.0953691e-06 7.7078807e-06 4.8826029e-21)
(-2.7083068e-06 7.7235881e-06 1.015703e-20)
(-2.2955875e-06 7.7024197e-06 8.1012253e-21)
(-1.8259294e-06 7.5411751e-06 1.5376277e-20)
(-1.2582058e-06 7.058428e-06 2.3660959e-20)
(-4.7038809e-07 6.1258085e-06 2.5725817e-20)
(0.00011223964 -0.00090025146 5.0784278e-19)
(0.0002529584 -0.00089722708 1.9092039e-19)
(0.00041228975 -0.00089175173 -1.6815198e-19)
(0.00056541283 -0.00088482578 1.9456321e-20)
(0.00072115299 -0.00087704015 -1.4045032e-19)
(0.00087486268 -0.00086871791 -1.1258162e-21)
(0.0010262604 -0.00085987426 8.6585868e-21)
(0.0011752402 -0.00085040175 -3.0012431e-21)
(0.001321544 -0.00084018418 -3.8337399e-20)
(0.0014648727 -0.00082912995 -6.9492524e-20)
(0.001604928 -0.00081718171 3.6100839e-20)
(0.0017414157 -0.00080431304 -1.9576119e-22)
(0.001874048 -0.00079052149 1.5601195e-19)
(0.0020025471 -0.00077582179 7.0685254e-20)
(0.0021266482 -0.0007602406 2.5591163e-21)
(0.0022461012 -0.00074381287 1.2479967e-19)
(0.002360672 -0.0007265796 -3.0579567e-20)
(0.0024701434 -0.0007085863 5.3930291e-20)
(0.0025743164 -0.00068988179 1.1746083e-19)
(0.0026730101 -0.00067051742 -2.2007293e-20)
(0.0027660629 -0.00065054676 3.6167588e-20)
(0.0028533327 -0.00063002477 3.6975931e-20)
(0.0029346968 -0.00060900766 -1.1099945e-19)
(0.0030100521 -0.00058755272 -5.7167201e-20)
(0.0030793155 -0.00056571792 1.3314606e-19)
(0.0031424233 -0.00054356151 8.6706796e-20)
(0.0031993313 -0.00052114151 -6.5976356e-20)
(0.0032500154 -0.00049851383 -4.5066055e-20)
(0.0032944736 -0.00047573596 8.2713917e-20)
(0.0033327214 -0.00045286793 8.88486e-20)
(0.0033647916 -0.00042996835 -1.1467539e-19)
(0.0033907344 -0.00040709255 -2.0810694e-19)
(0.003410618 -0.00038429482 -7.0568232e-21)
(0.0034245277 -0.00036162691 2.1566728e-19)
(0.0034325651 -0.00033913963 3.6158773e-20)
(0.0034348481 -0.00031688127 -3.7107667e-19)
(0.003431508 -0.00029489903 -1.9926687e-19)
(0.0034226909 -0.00027323851 6.5916818e-20)
(0.0034085562 -0.000251942 -2.1091632e-19)
(0.003389275 -0.00023104976 -1.6801774e-19)
(0.0033650296 -0.00021059973 1.3577033e-20)
(0.0033360124 -0.00019062765 1.9325564e-21)
(0.0033024247 -0.00017116638 7.3576442e-20)
(0.0032644763 -0.00015224625 2.7218244e-19)
(0.003222385 -0.00013389478 1.3401952e-19)
(0.0031763736 -0.00011613645 -8.2195737e-21)
(0.0031266703 -9.8994465e-05 9.6229289e-20)
(0.0030735083 -8.2490043e-05 1.16719e-19)
(0.0030171243 -6.6641357e-05 2.6770575e-19)
(0.0029577586 -5.1464744e-05 2.3923638e-19)
(0.0028956554 -3.6969284e-05 -6.9530019e-20)
(0.0028310591 -2.3150738e-05 -3.2689759e-19)
(0.0027642303 -1.003682e-05 -1.2868919e-19)
(0.0026952967 2.2955779e-06 2.0711891e-19)
(0.0026244888 1.3861693e-05 -3.5188913e-20)
(0.0025521862 2.468768e-05 -2.2001042e-19)
(0.0024786026 3.4854579e-05 -1.7560619e-19)
(0.0024039171 4.4359314e-05 -1.3326268e-19)
(0.002328338 5.3203505e-05 2.3306375e-21)
(0.0022520726 6.1390138e-05 4.9841192e-20)
(0.0021753309 6.8924084e-05 5.5585125e-20)
(0.0020983128 7.5817111e-05 4.8234086e-20)
(0.0020212111 8.2082531e-05 -7.1125424e-20)
(0.0019442112 8.7736869e-05 -9.9882294e-20)
(0.0018674869 9.2797823e-05 -6.8640784e-20)
(0.0017912058 9.7283987e-05 1.391179e-19)
(0.001715527 0.00010121613 4.0994685e-21)
(0.0016405977 0.00010461645 -3.3110238e-19)
(0.0015665588 0.00010750297 -1.7477395e-19)
(0.0014935398 0.00010990099 -1.240092e-19)
(0.0014216586 0.00011183538 6.2618447e-20)
(0.0013510309 0.00011332458 9.231441e-20)
(0.0012817592 0.00011439747 -6.9502225e-20)
(0.0012139343 0.00011507629 -9.8045715e-20)
(0.0011476388 0.00011538147 5.0919437e-20)
(0.0010829496 0.00011534067 3.8934257e-19)
(0.0010199326 0.00011498039 -6.5441464e-20)
(0.00095864261 0.00011431611 -3.5730989e-19)
(0.00089913123 0.00011337602 1.3196434e-19)
(0.00084143954 0.00011218197 5.3958598e-20)
(0.00078560081 0.00011075618 -2.937452e-19)
(0.00073163985 0.00010912027 -1.8907425e-19)
(0.00067957512 0.00010729501 -1.3037999e-20)
(0.00062942028 0.00010530019 1.385154e-19)
(0.00058117824 0.000103161 5.7557409e-20)
(0.00053484836 0.00010088555 -1.3072915e-19)
(0.00049042736 9.8498476e-05 -1.9855847e-19)
(0.00044790101 9.6016344e-05 -9.476108e-20)
(0.00040725302 9.345364e-05 3.2586187e-19)
(0.00036846352 9.0827335e-05 3.2245239e-19)
(0.00033150714 8.8150294e-05 -1.2339088e-19)
(0.00029635404 8.5436553e-05 -3.2617372e-19)
(0.00026297205 8.2697788e-05 -2.1268677e-19)
(0.0002313269 7.9946475e-05 1.4140953e-19)
(0.00020137997 7.7193128e-05 2.1048154e-19)
(0.00017309148 7.4447432e-05 8.7030399e-21)
(0.00014641787 7.1718345e-05 -1.3691215e-19)
(0.00012131497 6.9014211e-05 -1.1923937e-19)
(9.7738286e-05 6.6342323e-05 -1.6870171e-20)
(7.5640481e-05 6.3709225e-05 -1.5204572e-20)
(5.497385e-05 6.1120867e-05 1.361724e-19)
(3.5690115e-05 5.8582548e-05 1.0125439e-19)
(1.7740538e-05 5.6098718e-05 -1.4546804e-19)
(1.0761392e-06 5.367328e-05 4.2207285e-20)
(-1.4352046e-05 5.1309568e-05 2.5051957e-19)
(-2.8592829e-05 4.9010351e-05 8.6739858e-20)
(-4.1694674e-05 4.6777874e-05 -5.5572939e-20)
(-5.3705575e-05 4.4613924e-05 -8.3484207e-20)
(-6.4672891e-05 4.2519815e-05 -2.4088543e-20)
(-7.4643245e-05 4.0496466e-05 -5.6812295e-20)
(-8.3662396e-05 3.8544432e-05 -4.2492673e-20)
(-9.1775157e-05 3.6663905e-05 2.3869345e-20)
(-9.9025331e-05 3.4854775e-05 1.3682327e-20)
(-0.00010545562 3.3116676e-05 1.1104954e-19)
(-0.00011110754 3.1448954e-05 6.0785123e-20)
(-0.00011602144 2.9850766e-05 -1.2621994e-19)
(-0.00012023644 2.8321032e-05 -1.6910276e-19)
(-0.00012379032 2.685852e-05 -8.5577124e-20)
(-0.00012671959 2.5461872e-05 3.1245315e-20)
(-0.00012905953 2.4129609e-05 9.8015106e-20)
(-0.00013084399 2.28601e-05 4.4635715e-20)
(-0.00013210557 2.1651441e-05 -4.4434436e-20)
(-0.00013287555 2.0502077e-05 -1.1072548e-20)
(-0.00013318378 1.9410035e-05 6.8340393e-20)
(-0.0001330592 1.8373421e-05 7.019635e-20)
(-0.00013252881 1.7391736e-05 9.0655749e-21)
(-0.00013161869 1.6460477e-05 -3.3654627e-20)
(-0.00013035436 1.5579508e-05 -1.388501e-20)
(-0.00012875953 1.4746891e-05 1.618395e-20)
(-0.00012685689 1.396047e-05 5.1625574e-20)
(-0.00012466764 1.3218002e-05 3.2100501e-20)
(-0.00012221213 1.2518324e-05 -9.6809202e-21)
(-0.00011951013 1.1859931e-05 3.112695e-20)
(-0.00011658024 1.1240847e-05 7.4599733e-20)
(-0.00011343986 1.0659716e-05 2.7594872e-20)
(-0.00011010556 1.0114376e-05 -4.3116971e-20)
(-0.00010659308 9.6035059e-06 -5.0420088e-20)
(-0.0001029172 9.1255429e-06 -2.8702215e-20)
(-9.9091995e-05 8.679029e-06 -4.5349043e-21)
(-9.513073e-05 8.2627794e-06 4.5140553e-21)
(-9.1045912e-05 7.8754393e-06 3.790404e-21)
(-8.6849426e-05 7.5157492e-06 -6.9750208e-21)
(-8.2552627e-05 7.182605e-06 -5.9856098e-21)
(-7.816614e-05 6.8750469e-06 5.7471801e-21)
(-7.3700064e-05 6.5921654e-06 1.8713378e-20)
(-6.9164164e-05 6.3332595e-06 2.3854296e-20)
(-6.4567627e-05 6.0979087e-06 -2.5420466e-21)
(-5.9919125e-05 5.885921e-06 -4.0858925e-21)
(-5.5227569e-05 5.6973705e-06 2.1500605e-20)
(-5.0501265e-05 5.5334041e-06 3.1999855e-20)
(-4.5747976e-05 5.3954096e-06 2.0061137e-20)
(-4.0975517e-05 5.2856136e-06 7.3114961e-21)
(-3.6190688e-05 5.2062904e-06 7.8074037e-21)
(-3.1398588e-05 5.1577174e-06 1.4832982e-22)
(-2.6601617e-05 5.1334597e-06 1.0692385e-20)
(-2.1796997e-05 5.1113203e-06 1.803108e-20)
(-1.6976018e-05 5.0360619e-06 1.1523255e-20)
(-1.2125711e-05 4.7970407e-06 1.7675246e-20)
(-7.24319e-06 4.2194695e-06 2.5863954e-20)
(-2.3877828e-06 3.2033978e-06 3.2246591e-20)
(0.00010645519 -0.001219926 7.6625786e-19)
(0.00024127543 -0.0012144732 2.2580364e-19)
(0.00039492079 -0.0012069829 -1.4766751e-19)
(0.00054298481 -0.0011975621 -3.3927939e-19)
(0.00069404817 -0.0011870596 -1.0455539e-19)
(0.00084326534 -0.0011757576 1.4883479e-19)
(0.00099023961 -0.0011635863 2.2035961e-19)
(0.00113477 -0.0011504135 1.2562125e-19)
(0.0012765446 -0.0011361146 5.4460258e-20)
(0.0014152369 -0.0011205943 2.1147988e-20)
(0.0015505358 -0.0011037958 2.0853609e-19)
(0.0016821419 -0.0010856969 8.2437587e-20)
(0.0018097663 -0.001066303 1.589135e-19)
(0.001933132 -0.0010456403 1.7665825e-19)
(0.002051976 -0.0010237498 1.9776396e-20)
(0.0021660502 -0.001000683 1.5822054e-19)
(0.002275123 -0.00097649971 3.4413696e-20)
(0.0023789796 -0.00095126551 1.0875173e-19)