/*--------------------------------*- C++ -*----------------------------------*\
| =========                 |                                                 |
| \\      /  F ield         | OpenFOAM: The Open Source CFD Toolbox           |
|  \\    /   O peration     | Version:  2106                                  |
|   \\  /    A nd           | Website:  www.openfoam.com                      |
|    \\/     M anipulation  |                                                 |
\*---------------------------------------------------------------------------*/
FoamFile
{
    version     2.0;
    format      ascii;
    arch        "LSB;label=32;scalar=64";
    class       volVectorField;
    location    "0.5";
    object      U_0;
}
// * * * * * * * * * * * * * * * * * * * * * * * * * * * * * * * * * * * * * //

dimensions      [0 1 -1 0 0 0 0];

internalField   nonuniform List<vector> 
90000
(
(-3.0625e-08 3.11075e-08 0)
(-9.21163e-08 3.09016e-08 0)
(-1.53749e-07 3.07157e-08 0)
(-2.15026e-07 3.05216e-08 0)
(-2.75865e-07 3.02873e-08 0)
(-3.36205e-07 3.00072e-08 0)
(-3.95945e-07 2.96792e-08 0)
(-4.54981e-07 2.93016e-08 0)
(-5.13213e-07 2.88741e-08 0)
(-5.70541e-07 2.8397e-08 0)
(-6.26866e-07 2.78708e-08 0)
(-6.82088e-07 2.72963e-08 0)
(-7.36113e-07 2.6674e-08 0)
(-7.88845e-07 2.60051e-08 0)
(-8.40192e-07 2.52907e-08 0)
(-8.90065e-07 2.4532e-08 0)
(-9.38376e-07 2.37303e-08 0)
(-9.8504e-07 2.28871e-08 0)
(-1.02998e-06 2.20038e-08 0)
(-1.07311e-06 2.10819e-08 0)
(-1.11435e-06 2.0123e-08 0)
(-1.15364e-06 1.91289e-08 0)
(-1.19091e-06 1.81012e-08 0)
(-1.22609e-06 1.70418e-08 0)
(-1.25912e-06 1.59525e-08 0)
(-1.28994e-06 1.48352e-08 0)
(-1.31849e-06 1.36919e-08 0)
(-1.34473e-06 1.25246e-08 0)
(-1.36862e-06 1.13353e-08 0)
(-1.3901e-06 1.01262e-08 0)
(-1.40915e-06 8.89926e-09 0)
(-1.42572e-06 7.65675e-09 0)
(-1.43979e-06 6.40081e-09 0)
(-1.45134e-06 5.13365e-09 0)
(-1.46034e-06 3.85749e-09 0)
(-1.46678e-06 2.57456e-09 0)
(-1.47064e-06 1.28711e-09 0)
(-1.47193e-06 -2.59528e-12 0)
(-1.47063e-06 -1.2923e-09 0)
(-1.46676e-06 -2.57973e-09 0)
(-1.46031e-06 -3.86264e-09 0)
(-1.4513e-06 -5.13876e-09 0)
(-1.43974e-06 -6.40587e-09 0)
(-1.42566e-06 -7.66175e-09 0)
(-1.40908e-06 -8.90419e-09 0)
(-1.39002e-06 -1.0131e-08 0)
(-1.36853e-06 -1.13401e-08 0)
(-1.34464e-06 -1.25292e-08 0)
(-1.31838e-06 -1.36964e-08 0)
(-1.28982e-06 -1.48396e-08 0)
(-1.25899e-06 -1.59567e-08 0)
(-1.22596e-06 -1.70458e-08 0)
(-1.19077e-06 -1.81051e-08 0)
(-1.15349e-06 -1.91325e-08 0)
(-1.1142e-06 -2.01265e-08 0)
(-1.07294e-06 -2.10851e-08 0)
(-1.02981e-06 -2.20067e-08 0)
(-9.84867e-07 -2.28897e-08 0)
(-9.38197e-07 -2.37325e-08 0)
(-8.89882e-07 -2.45338e-08 0)
(-8.40006e-07 -2.5292e-08 0)
(-7.88657e-07 -2.60058e-08 0)
(-7.35924e-07 -2.6674e-08 0)
(-6.819e-07 -2.72955e-08 0)
(-6.2668e-07 -2.7869e-08 0)
(-5.70361e-07 -2.83937e-08 0)
(-5.13041e-07 -2.88685e-08 0)
(-4.54821e-07 -2.92927e-08 0)
(-3.95803e-07 -2.96656e-08 0)
(-3.36091e-07 -2.99864e-08 0)
(-2.75789e-07 -3.02546e-08 0)
(-2.15004e-07 -3.04697e-08 0)
(-1.53841e-07 -3.06314e-08 0)
(-9.24087e-08 -3.07393e-08 0)
(-3.0814e-08 -3.07933e-08 0)
(3.08347e-08 -3.07933e-08 0)
(9.24294e-08 -3.07393e-08 0)
(1.53862e-07 -3.06314e-08 0)
(2.15025e-07 -3.04697e-08 0)
(2.7581e-07 -3.02546e-08 0)
(3.36112e-07 -2.99864e-08 0)
(3.95824e-07 -2.96656e-08 0)
(4.54842e-07 -2.92928e-08 0)
(5.13062e-07 -2.88686e-08 0)
(5.70382e-07 -2.83937e-08 0)
(6.26701e-07 -2.7869e-08 0)
(6.81922e-07 -2.72955e-08 0)
(7.35946e-07 -2.66741e-08 0)
(7.88679e-07 -2.60059e-08 0)
(8.40028e-07 -2.52921e-08 0)
(8.89904e-07 -2.45339e-08 0)
(9.38219e-07 -2.37326e-08 0)
(9.84888e-07 -2.28898e-08 0)
(1.02983e-06 -2.20068e-08 0)
(1.07297e-06 -2.10852e-08 0)
(1.11422e-06 -2.01266e-08 0)
(1.15352e-06 -1.91326e-08 0)
(1.19079e-06 -1.81052e-08 0)
(1.22598e-06 -1.7046e-08 0)
(1.25901e-06 -1.59568e-08 0)
(1.28984e-06 -1.48397e-08 0)
(1.31841e-06 -1.36966e-08 0)
(1.34466e-06 -1.25294e-08 0)
(1.36855e-06 -1.13402e-08 0)
(1.39005e-06 -1.01312e-08 0)
(1.4091e-06 -8.90438e-09 0)
(1.42568e-06 -7.66194e-09 0)
(1.43977e-06 -6.40608e-09 0)
(1.45132e-06 -5.13898e-09 0)
(1.46033e-06 -3.86287e-09 0)
(1.46678e-06 -2.57999e-09 0)
(1.47066e-06 -1.29258e-09 0)
(1.47196e-06 -2.9024e-12 0)
(1.47067e-06 1.28678e-09 0)
(1.46681e-06 2.57421e-09 0)
(1.46037e-06 3.85711e-09 0)
(1.45137e-06 5.13325e-09 0)
(1.43982e-06 6.40038e-09 0)
(1.42575e-06 7.65628e-09 0)
(1.40918e-06 8.89876e-09 0)
(1.39014e-06 1.01256e-08 0)
(1.36865e-06 1.13347e-08 0)
(1.34477e-06 1.2524e-08 0)
(1.31853e-06 1.36912e-08 0)
(1.28997e-06 1.48345e-08 0)
(1.25916e-06 1.59517e-08 0)
(1.22613e-06 1.70409e-08 0)
(1.19096e-06 1.81003e-08 0)
(1.15369e-06 1.91279e-08 0)
(1.1144e-06 2.01219e-08 0)
(1.07316e-06 2.10806e-08 0)
(1.03003e-06 2.20024e-08 0)
(9.85096e-07 2.28856e-08 0)
(9.38435e-07 2.37286e-08 0)
(8.90128e-07 2.453e-08 0)
(8.40259e-07 2.52884e-08 0)
(7.88916e-07 2.60025e-08 0)
(7.3619e-07 2.66709e-08 0)
(6.82172e-07 2.72926e-08 0)
(6.26957e-07 2.78665e-08 0)
(5.70642e-07 2.83917e-08 0)
(5.13325e-07 2.88672e-08 0)
(4.55107e-07 2.92925e-08 0)
(3.96089e-07 2.96669e-08 0)
(3.36372e-07 2.99901e-08 0)
(2.76061e-07 3.0262e-08 0)
(2.15256e-07 3.04829e-08 0)
(1.5406e-07 3.06533e-08 0)
(9.25713e-08 3.07752e-08 0)
(3.08824e-08 3.08502e-08 0)
(-3.08309e-08 9.30816e-08 0)
(-9.25406e-08 9.2657e-08 0)
(-1.54207e-07 9.21824e-08 0)
(-2.15576e-07 9.16236e-08 0)
(-2.76542e-07 9.09303e-08 0)
(-3.37016e-07 9.00936e-08 0)
(-3.96892e-07 8.91108e-08 0)
(-4.56065e-07 8.79787e-08 0)
(-5.14433e-07 8.66963e-08 0)
(-5.71895e-07 8.52643e-08 0)
(-6.28352e-07 8.36847e-08 0)
(-6.83705e-07 8.19594e-08 0)
(-7.37857e-07 8.00911e-08 0)
(-7.90713e-07 7.80827e-08 0)
(-8.42182e-07 7.59377e-08 0)
(-8.92173e-07 7.36596e-08 0)
(-9.40598e-07 7.12526e-08 0)
(-9.87373e-07 6.87207e-08 0)
(-1.03242e-06 6.60684e-08 0)
(-1.07565e-06 6.33003e-08 0)
(-1.11699e-06 6.04212e-08 0)
(-1.15637e-06 5.74362e-08 0)
(-1.19373e-06 5.43505e-08 0)
(-1.22899e-06 5.11695e-08 0)
(-1.2621e-06 4.78988e-08 0)
(-1.29299e-06 4.4544e-08 0)
(-1.32161e-06 4.11112e-08 0)
(-1.34792e-06 3.76062e-08 0)
(-1.37186e-06 3.40353e-08 0)
(-1.39339e-06 3.04047e-08 0)
(-1.41248e-06 2.67208e-08 0)
(-1.42909e-06 2.29901e-08 0)
(-1.4432e-06 1.9219e-08 0)
(-1.45477e-06 1.54142e-08 0)
(-1.4638e-06 1.15824e-08 0)
(-1.47025e-06 7.73032e-09 0)
(-1.47412e-06 3.86464e-09 0)
(-1.47541e-06 -7.82462e-12 0)
(-1.47411e-06 -3.88027e-09 0)
(-1.47023e-06 -7.74591e-09 0)
(-1.46376e-06 -1.15979e-08 0)
(-1.45473e-06 -1.54296e-08 0)
(-1.44315e-06 -1.92343e-08 0)
(-1.42903e-06 -2.30052e-08 0)
(-1.41241e-06 -2.67357e-08 0)
(-1.39331e-06 -3.04193e-08 0)
(-1.37177e-06 -3.40496e-08 0)
(-1.34782e-06 -3.76202e-08 0)
(-1.3215e-06 -4.11248e-08 0)
(-1.29287e-06 -4.45573e-08 0)
(-1.26197e-06 -4.79115e-08 0)
(-1.22886e-06 -5.11818e-08 0)
(-1.19359e-06 -5.43622e-08 0)
(-1.15623e-06 -5.74473e-08 0)
(-1.11683e-06 -6.04316e-08 0)
(-1.07548e-06 -6.33099e-08 0)
(-1.03225e-06 -6.60772e-08 0)
(-9.87198e-07 -6.87285e-08 0)
(-9.40418e-07 -7.12593e-08 0)
(-8.91989e-07 -7.36651e-08 0)
(-8.41995e-07 -7.59417e-08 0)
(-7.90524e-07 -7.8085e-08 0)
(-7.37666e-07 -8.00914e-08 0)
(-6.83515e-07 -8.19573e-08 0)
(-6.28164e-07 -8.36794e-08 0)
(-5.71711e-07 -8.52547e-08 0)
(-5.14255e-07 -8.66805e-08 0)
(-4.55898e-07 -8.79543e-08 0)
(-3.9674e-07 -8.90737e-08 0)
(-3.36887e-07 -9.0037e-08 0)
(-2.76442e-07 -9.08423e-08 0)
(-2.15513e-07 -9.14882e-08 0)
(-1.54205e-07 -9.19736e-08 0)
(-9.26275e-08 -9.22977e-08 0)
(-3.0887e-08 -9.24599e-08 0)
(3.09077e-08 -9.24599e-08 0)
(9.26482e-08 -9.22977e-08 0)
(1.54226e-07 -9.19736e-08 0)
(2.15534e-07 -9.14882e-08 0)
(2.76463e-07 -9.08423e-08 0)
(3.36908e-07 -9.0037e-08 0)
(3.96761e-07 -8.90738e-08 0)
(4.55919e-07 -8.79544e-08 0)
(5.14276e-07 -8.66806e-08 0)
(5.71732e-07 -8.52549e-08 0)
(6.28185e-07 -8.36795e-08 0)
(6.83536e-07 -8.19574e-08 0)
(7.37688e-07 -8.00916e-08 0)
(7.90546e-07 -7.80852e-08 0)
(8.42017e-07 -7.59419e-08 0)
(8.92011e-07 -7.36654e-08 0)
(9.4044e-07 -7.12596e-08 0)
(9.8722e-07 -6.87289e-08 0)
(1.03227e-06 -6.60775e-08 0)
(1.07551e-06 -6.33103e-08 0)
(1.11686e-06 -6.0432e-08 0)
(1.15625e-06 -5.74477e-08 0)
(1.19361e-06 -5.43626e-08 0)
(1.22888e-06 -5.11822e-08 0)
(1.262e-06 -4.79119e-08 0)
(1.2929e-06 -4.45577e-08 0)
(1.32153e-06 -4.11253e-08 0)
(1.34784e-06 -3.76207e-08 0)
(1.37179e-06 -3.40502e-08 0)
(1.39334e-06 -3.04199e-08 0)
(1.41244e-06 -2.67363e-08 0)
(1.42906e-06 -2.30058e-08 0)
(1.44317e-06 -1.92349e-08 0)
(1.45476e-06 -1.54304e-08 0)
(1.46379e-06 -1.15987e-08 0)
(1.47026e-06 -7.74673e-09 0)
(1.47414e-06 -3.88116e-09 0)
(1.47544e-06 -8.77527e-12 0)
(1.47415e-06 3.86362e-09 0)
(1.47028e-06 7.72923e-09 0)
(1.46383e-06 1.15813e-08 0)
(1.4548e-06 1.5413e-08 0)
(1.44323e-06 1.92177e-08 0)
(1.42913e-06 2.29887e-08 0)
(1.41252e-06 2.67193e-08 0)
(1.39343e-06 3.04031e-08 0)
(1.37189e-06 3.40336e-08 0)
(1.34795e-06 3.76044e-08 0)
(1.32165e-06 4.11092e-08 0)
(1.29303e-06 4.45419e-08 0)
(1.26214e-06 4.78965e-08 0)
(1.22903e-06 5.1167e-08 0)
(1.19377e-06 5.43478e-08 0)
(1.15642e-06 5.74332e-08 0)
(1.11704e-06 6.04179e-08 0)
(1.0757e-06 6.32967e-08 0)
(1.03247e-06 6.60644e-08 0)
(9.87428e-07 6.87162e-08 0)
(9.40656e-07 7.12475e-08 0)
(8.92235e-07 7.36538e-08 0)
(8.42248e-07 7.59309e-08 0)
(7.90784e-07 7.80749e-08 0)
(7.37932e-07 8.0082e-08 0)
(6.83787e-07 8.19487e-08 0)
(6.28441e-07 8.36719e-08 0)
(5.71993e-07 8.52486e-08 0)
(5.14541e-07 8.66764e-08 0)
(4.56185e-07 8.79531e-08 0)
(3.97028e-07 8.90772e-08 0)
(3.3717e-07 9.00476e-08 0)
(2.76716e-07 9.0864e-08 0)
(2.15768e-07 9.15272e-08 0)
(1.54428e-07 9.20391e-08 0)
(9.27936e-08 9.2404e-08 0)
(3.09574e-08 9.26268e-08 0)
(-3.10168e-08 1.54914e-07 0)
(-9.3015e-08 1.54455e-07 0)
(-1.54879e-07 1.53781e-07 0)
(-2.16465e-07 1.52887e-07 0)
(-2.7766e-07 1.51749e-07 0)
(-3.38363e-07 1.50364e-07 0)
(-3.98468e-07 1.48728e-07 0)
(-4.5787e-07 1.46842e-07 0)
(-5.16465e-07 1.44703e-07 0)
(-5.74152e-07 1.42314e-07 0)
(-6.30829e-07 1.39678e-07 0)
(-6.86399e-07 1.36799e-07 0)
(-7.40764e-07 1.3368e-07 0)
(-7.93828e-07 1.30328e-07 0)
(-8.45499e-07 1.26748e-07 0)
(-8.95686e-07 1.22946e-07 0)
(-9.44302e-07 1.18928e-07 0)
(-9.91261e-07 1.14702e-07 0)
(-1.03648e-06 1.10275e-07 0)
(-1.07988e-06 1.05655e-07 0)
(-1.12139e-06 1.0085e-07 0)
(-1.16093e-06 9.58674e-08 0)
(-1.19843e-06 9.0717e-08 0)
(-1.23383e-06 8.54076e-08 0)
(-1.26707e-06 7.99483e-08 0)
(-1.29808e-06 7.43489e-08 0)
(-1.32682e-06 6.86191e-08 0)
(-1.35322e-06 6.27689e-08 0)
(-1.37726e-06 5.68087e-08 0)
(-1.39888e-06 5.07488e-08 0)
(-1.41804e-06 4.46e-08 0)
(-1.43472e-06 3.83729e-08 0)
(-1.44888e-06 3.20786e-08 0)
(-1.4605e-06 2.5728e-08 0)
(-1.46956e-06 1.93323e-08 0)
(-1.47604e-06 1.29027e-08 0)
(-1.47993e-06 6.45046e-09 0)
(-1.48122e-06 -1.31068e-11 0)
(-1.47992e-06 -6.47665e-09 0)
(-1.47602e-06 -1.29288e-08 0)
(-1.46953e-06 -1.93583e-08 0)
(-1.46046e-06 -2.57538e-08 0)
(-1.44883e-06 -3.21042e-08 0)
(-1.43466e-06 -3.83982e-08 0)
(-1.41797e-06 -4.46249e-08 0)
(-1.3988e-06 -5.07733e-08 0)
(-1.37717e-06 -5.68327e-08 0)
(-1.35312e-06 -6.27924e-08 0)
(-1.32671e-06 -6.86419e-08 0)
(-1.29796e-06 -7.43711e-08 0)
(-1.26694e-06 -7.99697e-08 0)
(-1.2337e-06 -8.54281e-08 0)
(-1.19829e-06 -9.07366e-08 0)
(-1.16078e-06 -9.5886e-08 0)
(-1.12123e-06 -1.00867e-07 0)
(-1.07972e-06 -1.05671e-07 0)
(-1.03631e-06 -1.1029e-07 0)
(-9.91084e-07 -1.14716e-07 0)
(-9.44121e-07 -1.1894e-07 0)
(-8.95501e-07 -1.22955e-07 0)
(-8.4531e-07 -1.26755e-07 0)
(-7.93636e-07 -1.30333e-07 0)
(-7.4057e-07 -1.33682e-07 0)
(-6.86205e-07 -1.36796e-07 0)
(-6.30637e-07 -1.3967e-07 0)
(-5.73962e-07 -1.423e-07 0)
(-5.1628e-07 -1.44679e-07 0)
(-4.57692e-07 -1.46806e-07 0)
(-3.98302e-07 -1.48674e-07 0)
(-3.38213e-07 -1.50282e-07 0)
(-2.77531e-07 -1.51626e-07 0)
(-2.16361e-07 -1.52704e-07 0)
(-1.54813e-07 -1.53514e-07 0)
(-9.29922e-08 -1.54055e-07 0)
(-3.10086e-08 -1.54326e-07 0)
(3.10293e-08 -1.54326e-07 0)
(9.30129e-08 -1.54055e-07 0)
(1.54833e-07 -1.53514e-07 0)
(2.16382e-07 -1.52704e-07 0)
(2.77551e-07 -1.51626e-07 0)
(3.38234e-07 -1.50282e-07 0)
(3.98323e-07 -1.48674e-07 0)
(4.57713e-07 -1.46806e-07 0)
(5.16301e-07 -1.4468e-07 0)
(5.73983e-07 -1.423e-07 0)
(6.30658e-07 -1.39671e-07 0)
(6.86227e-07 -1.36796e-07 0)
(7.40592e-07 -1.33682e-07 0)
(7.93657e-07 -1.30333e-07 0)
(8.45331e-07 -1.26756e-07 0)
(8.95522e-07 -1.22956e-07 0)
(9.44142e-07 -1.1894e-07 0)
(9.91106e-07 -1.14716e-07 0)
(1.03633e-06 -1.10291e-07 0)
(1.07974e-06 -1.05672e-07 0)
(1.12125e-06 -1.00868e-07 0)
(1.1608e-06 -9.58866e-08 0)
(1.19831e-06 -9.07372e-08 0)
(1.23372e-06 -8.54287e-08 0)
(1.26696e-06 -7.99704e-08 0)
(1.29799e-06 -7.43717e-08 0)
(1.32673e-06 -6.86426e-08 0)
(1.35315e-06 -6.27931e-08 0)
(1.37719e-06 -5.68335e-08 0)
(1.39882e-06 -5.07742e-08 0)
(1.418e-06 -4.46258e-08 0)
(1.43468e-06 -3.83992e-08 0)
(1.44886e-06 -3.21053e-08 0)
(1.46049e-06 -2.5755e-08 0)
(1.46955e-06 -1.93596e-08 0)
(1.47604e-06 -1.29302e-08 0)
(1.47994e-06 -6.47812e-09 0)
(1.48125e-06 -1.4684e-11 0)
(1.47996e-06 6.44877e-09 0)
(1.47607e-06 1.29009e-08 0)
(1.46959e-06 1.93304e-08 0)
(1.46053e-06 2.5726e-08 0)
(1.44891e-06 3.20764e-08 0)
(1.43475e-06 3.83706e-08 0)
(1.41808e-06 4.45975e-08 0)
(1.39891e-06 5.07462e-08 0)
(1.37729e-06 5.68059e-08 0)
(1.35326e-06 6.27659e-08 0)
(1.32685e-06 6.86158e-08 0)
(1.29812e-06 7.43454e-08 0)
(1.26711e-06 7.99445e-08 0)
(1.23387e-06 8.54034e-08 0)
(1.19847e-06 9.07125e-08 0)
(1.16097e-06 9.58624e-08 0)
(1.12144e-06 1.00844e-07 0)
(1.07993e-06 1.05649e-07 0)
(1.03653e-06 1.10269e-07 0)
(9.91315e-07 1.14695e-07 0)
(9.44359e-07 1.1892e-07 0)
(8.95747e-07 1.22936e-07 0)
(8.45563e-07 1.26737e-07 0)
(7.93897e-07 1.30316e-07 0)
(7.40837e-07 1.33666e-07 0)
(6.86478e-07 1.36781e-07 0)
(6.30915e-07 1.39658e-07 0)
(5.74245e-07 1.42289e-07 0)
(5.16567e-07 1.44672e-07 0)
(4.57982e-07 1.46803e-07 0)
(3.98591e-07 1.48679e-07 0)
(3.38498e-07 1.50299e-07 0)
(2.77807e-07 1.51662e-07 0)
(2.16618e-07 1.52769e-07 0)
(1.55036e-07 1.53624e-07 0)
(9.31585e-08 1.54234e-07 0)
(3.10795e-08 1.54604e-07 0)
(-3.12116e-08 2.17103e-07 0)
(-9.35751e-08 2.16548e-07 0)
(-1.55773e-07 2.15654e-07 0)
(-2.17691e-07 2.14423e-07 0)
(-2.79219e-07 2.12844e-07 0)
(-3.40252e-07 2.10911e-07 0)
(-4.00684e-07 2.08623e-07 0)
(-4.6041e-07 2.05979e-07 0)
(-5.19326e-07 2.02981e-07 0)
(-5.7733e-07 1.99632e-07 0)
(-6.34319e-07 1.95935e-07 0)
(-6.90195e-07 1.91896e-07 0)
(-7.44859e-07 1.87522e-07 0)
(-7.98216e-07 1.8282e-07 0)
(-8.50172e-07 1.77798e-07 0)
(-9.00636e-07 1.72465e-07 0)
(-9.4952e-07 1.66829e-07 0)
(-9.96738e-07 1.60901e-07 0)
(-1.04221e-06 1.54691e-07 0)
(-1.08585e-06 1.4821e-07 0)
(-1.12758e-06 1.41469e-07 0)
(-1.16734e-06 1.3448e-07 0)
(-1.20505e-06 1.27255e-07 0)
(-1.24065e-06 1.19807e-07 0)
(-1.27407e-06 1.12149e-07 0)
(-1.30525e-06 1.04295e-07 0)
(-1.33415e-06 9.62569e-08 0)
(-1.3607e-06 8.80505e-08 0)
(-1.38487e-06 7.96896e-08 0)
(-1.40661e-06 7.11891e-08 0)
(-1.42588e-06 6.25637e-08 0)
(-1.44265e-06 5.38285e-08 0)
(-1.45689e-06 4.4999e-08 0)
(-1.46857e-06 3.60906e-08 0)
(-1.47768e-06 2.71189e-08 0)
(-1.48419e-06 1.80995e-08 0)
(-1.4881e-06 9.04849e-09 0)
(-1.4894e-06 -1.84272e-11 0)
(-1.48809e-06 -9.0853e-09 0)
(-1.48417e-06 -1.81362e-08 0)
(-1.47764e-06 -2.71553e-08 0)
(-1.46853e-06 -3.61268e-08 0)
(-1.45683e-06 -4.50349e-08 0)
(-1.44258e-06 -5.3864e-08 0)
(-1.42581e-06 -6.25987e-08 0)
(-1.40652e-06 -7.12235e-08 0)
(-1.38478e-06 -7.97234e-08 0)
(-1.3606e-06 -8.80835e-08 0)
(-1.33404e-06 -9.62891e-08 0)
(-1.30513e-06 -1.04326e-07 0)
(-1.27394e-06 -1.12179e-07 0)
(-1.24051e-06 -1.19836e-07 0)
(-1.20491e-06 -1.27283e-07 0)
(-1.16719e-06 -1.34506e-07 0)
(-1.12742e-06 -1.41494e-07 0)
(-1.08568e-06 -1.48233e-07 0)
(-1.04203e-06 -1.54712e-07 0)
(-9.96559e-07 -1.6092e-07 0)
(-9.49336e-07 -1.66846e-07 0)
(-9.00448e-07 -1.72478e-07 0)
(-8.49979e-07 -1.77809e-07 0)
(-7.9802e-07 -1.82827e-07 0)
(-7.44661e-07 -1.87525e-07 0)
(-6.89996e-07 -1.91894e-07 0)
(-6.3412e-07 -1.95926e-07 0)
(-5.77132e-07 -1.99614e-07 0)
(-5.19132e-07 -2.02953e-07 0)
(-4.60221e-07 -2.05935e-07 0)
(-4.00502e-07 -2.08556e-07 0)
(-3.40081e-07 -2.10811e-07 0)
(-2.79064e-07 -2.12697e-07 0)
(-2.17557e-07 -2.14209e-07 0)
(-1.55668e-07 -2.15346e-07 0)
(-9.35059e-08 -2.16104e-07 0)
(-3.118e-08 -2.16484e-07 0)
(3.12007e-08 -2.16484e-07 0)
(9.35266e-08 -2.16104e-07 0)
(1.55689e-07 -2.15346e-07 0)
(2.17577e-07 -2.14209e-07 0)
(2.79085e-07 -2.12697e-07 0)
(3.40102e-07 -2.10811e-07 0)
(4.00523e-07 -2.08556e-07 0)
(4.60242e-07 -2.05935e-07 0)
(5.19153e-07 -2.02953e-07 0)
(5.77153e-07 -1.99614e-07 0)
(6.34141e-07 -1.95926e-07 0)
(6.90017e-07 -1.91894e-07 0)
(7.44683e-07 -1.87525e-07 0)
(7.98042e-07 -1.82828e-07 0)
(8.50001e-07 -1.77809e-07 0)
(9.00469e-07 -1.72479e-07 0)
(9.49358e-07 -1.66846e-07 0)
(9.96581e-07 -1.60921e-07 0)
(1.04206e-06 -1.54713e-07 0)
(1.0857e-06 -1.48234e-07 0)
(1.12745e-06 -1.41494e-07 0)
(1.16721e-06 -1.34507e-07 0)
(1.20493e-06 -1.27284e-07 0)
(1.24053e-06 -1.19837e-07 0)
(1.27396e-06 -1.1218e-07 0)
(1.30516e-06 -1.04327e-07 0)
(1.33406e-06 -9.629e-08 0)
(1.36062e-06 -8.80845e-08 0)
(1.3848e-06 -7.97245e-08 0)
(1.40655e-06 -7.12247e-08 0)
(1.42583e-06 -6.26e-08 0)
(1.44261e-06 -5.38654e-08 0)
(1.45686e-06 -4.50364e-08 0)
(1.46855e-06 -3.61285e-08 0)
(1.47767e-06 -2.71571e-08 0)
(1.4842e-06 -1.81381e-08 0)
(1.48812e-06 -9.08729e-09 0)
(1.48943e-06 -2.05574e-11 0)
(1.48813e-06 9.04619e-09 0)
(1.48422e-06 1.80971e-08 0)
(1.47771e-06 2.71162e-08 0)
(1.4686e-06 3.60877e-08 0)
(1.45692e-06 4.4996e-08 0)
(1.44268e-06 5.38253e-08 0)
(1.42591e-06 6.25603e-08 0)
(1.40664e-06 7.11855e-08 0)
(1.3849e-06 7.96858e-08 0)
(1.36074e-06 8.80463e-08 0)
(1.33418e-06 9.62524e-08 0)
(1.30529e-06 1.0429e-07 0)
(1.27411e-06 1.12144e-07 0)
(1.24069e-06 1.19802e-07 0)
(1.20509e-06 1.27249e-07 0)
(1.16739e-06 1.34473e-07 0)
(1.12763e-06 1.41462e-07 0)
(1.0859e-06 1.48202e-07 0)
(1.04226e-06 1.54682e-07 0)
(9.96791e-07 1.60891e-07 0)
(9.49576e-07 1.66818e-07 0)
(9.00695e-07 1.72452e-07 0)
(8.50234e-07 1.77783e-07 0)
(7.98282e-07 1.82803e-07 0)
(7.4493e-07 1.87503e-07 0)
(6.90271e-07 1.91873e-07 0)
(6.344e-07 1.95908e-07 0)
(5.77417e-07 1.99599e-07 0)
(5.19421e-07 2.02942e-07 0)
(4.60512e-07 2.05931e-07 0)
(4.00793e-07 2.08563e-07 0)
(3.40368e-07 2.10835e-07 0)
(2.79341e-07 2.12747e-07 0)
(2.17815e-07 2.143e-07 0)
(1.55892e-07 2.155e-07 0)
(9.36722e-08 2.16356e-07 0)
(3.12508e-08 2.16874e-07 0)
(-3.14484e-08 2.79732e-07 0)
(-9.4274e-08 2.79045e-07 0)
(-1.56916e-07 2.77914e-07 0)
(-2.19273e-07 2.76342e-07 0)
(-2.81236e-07 2.74318e-07 0)
(-3.42701e-07 2.71835e-07 0)
(-4.03561e-07 2.68892e-07 0)
(-4.63711e-07 2.65488e-07 0)
(-5.23046e-07 2.61626e-07 0)
(-5.81462e-07 2.5731e-07 0)
(-6.38857e-07 2.52546e-07 0)
(-6.95131e-07 2.47341e-07 0)
(-7.50184e-07 2.41704e-07 0)
(-8.03922e-07 2.35644e-07 0)
(-8.56248e-07 2.29171e-07 0)
(-9.07073e-07 2.22297e-07 0)
(-9.56306e-07 2.15033e-07 0)
(-1.00386e-06 2.07392e-07 0)
(-1.04965e-06 1.99388e-07 0)
(-1.09361e-06 1.91034e-07 0)
(-1.13564e-06 1.82345e-07 0)
(-1.17568e-06 1.73337e-07 0)
(-1.21366e-06 1.64025e-07 0)
(-1.24951e-06 1.54425e-07 0)
(-1.28317e-06 1.44554e-07 0)
(-1.31458e-06 1.3443e-07 0)
(-1.34368e-06 1.2407e-07 0)
(-1.37042e-06 1.13492e-07 0)
(-1.39476e-06 1.02715e-07 0)
(-1.41666e-06 9.17587e-08 0)
(-1.43606e-06 8.0641e-08 0)
(-1.45295e-06 6.93819e-08 0)
(-1.46729e-06 5.80012e-08 0)
(-1.47906e-06 4.65187e-08 0)
(-1.48823e-06 3.49546e-08 0)
(-1.4948e-06 2.33292e-08 0)
(-1.49873e-06 1.1663e-08 0)
(-1.50005e-06 -2.3793e-11 0)
(-1.49872e-06 -1.17105e-08 0)
(-1.49477e-06 -2.33766e-08 0)
(-1.4882e-06 -3.50017e-08 0)
(-1.47902e-06 -4.65655e-08 0)
(-1.46724e-06 -5.80475e-08 0)
(-1.45289e-06 -6.94277e-08 0)
(-1.43599e-06 -8.06862e-08 0)
(-1.41657e-06 -9.18031e-08 0)
(-1.39467e-06 -1.02759e-07 0)
(-1.37032e-06 -1.13535e-07 0)
(-1.34357e-06 -1.24111e-07 0)
(-1.31446e-06 -1.3447e-07 0)
(-1.28304e-06 -1.44593e-07 0)
(-1.24937e-06 -1.54462e-07 0)
(-1.21352e-06 -1.6406e-07 0)
(-1.17553e-06 -1.73371e-07 0)
(-1.13548e-06 -1.82377e-07 0)
(-1.09344e-06 -1.91064e-07 0)
(-1.04948e-06 -1.99415e-07 0)
(-1.00368e-06 -2.07417e-07 0)
(-9.56119e-07 -2.15054e-07 0)
(-9.06881e-07 -2.22315e-07 0)
(-8.56052e-07 -2.29185e-07 0)
(-8.03722e-07 -2.35654e-07 0)
(-7.49982e-07 -2.41709e-07 0)
(-6.94926e-07 -2.4734e-07 0)
(-6.38651e-07 -2.52537e-07 0)
(-5.81256e-07 -2.57291e-07 0)
(-5.22841e-07 -2.61594e-07 0)
(-4.63509e-07 -2.65438e-07 0)
(-4.03364e-07 -2.68817e-07 0)
(-3.42511e-07 -2.71724e-07 0)
(-2.81058e-07 -2.74154e-07 0)
(-2.19111e-07 -2.76103e-07 0)
(-1.5678e-07 -2.77568e-07 0)
(-9.4174e-08 -2.78546e-07 0)
(-3.14028e-08 -2.79036e-07 0)
(3.14235e-08 -2.79036e-07 0)
(9.41948e-08 -2.78546e-07 0)
(1.56801e-07 -2.77568e-07 0)
(2.19132e-07 -2.76103e-07 0)
(2.81078e-07 -2.74154e-07 0)
(3.42532e-07 -2.71724e-07 0)
(4.03385e-07 -2.68817e-07 0)
(4.6353e-07 -2.65439e-07 0)
(5.22862e-07 -2.61595e-07 0)
(5.81277e-07 -2.57292e-07 0)
(6.38672e-07 -2.52538e-07 0)
(6.94947e-07 -2.4734e-07 0)
(7.50003e-07 -2.41709e-07 0)
(8.03743e-07 -2.35654e-07 0)
(8.56074e-07 -2.29186e-07 0)
(9.06903e-07 -2.22315e-07 0)
(9.56141e-07 -2.15055e-07 0)
(1.0037e-06 -2.07417e-07 0)
(1.0495e-06 -1.99416e-07 0)
(1.09346e-06 -1.91065e-07 0)
(1.1355e-06 -1.82378e-07 0)
(1.17555e-06 -1.73372e-07 0)
(1.21354e-06 -1.64061e-07 0)
(1.2494e-06 -1.54463e-07 0)
(1.28306e-06 -1.44594e-07 0)
(1.31448e-06 -1.34471e-07 0)
(1.34359e-06 -1.24112e-07 0)
(1.37034e-06 -1.13536e-07 0)
(1.39469e-06 -1.0276e-07 0)
(1.4166e-06 -9.18046e-08 0)
(1.43602e-06 -8.06878e-08 0)
(1.45292e-06 -6.94295e-08 0)
(1.46727e-06 -5.80494e-08 0)
(1.47905e-06 -4.65675e-08 0)
(1.48823e-06 -3.50039e-08 0)
(1.4948e-06 -2.33789e-08 0)
(1.49875e-06 -1.17129e-08 0)
(1.50007e-06 -2.64227e-11 0)
(1.49876e-06 1.16601e-08 0)
(1.49482e-06 2.33262e-08 0)
(1.48826e-06 3.49513e-08 0)
(1.47909e-06 4.65152e-08 0)
(1.46733e-06 5.79974e-08 0)
(1.45299e-06 6.93779e-08 0)
(1.4361e-06 8.06367e-08 0)
(1.41669e-06 9.17541e-08 0)
(1.3948e-06 1.02711e-07 0)
(1.37046e-06 1.13487e-07 0)
(1.34372e-06 1.24064e-07 0)
(1.31462e-06 1.34423e-07 0)
(1.28321e-06 1.44547e-07 0)
(1.24955e-06 1.54417e-07 0)
(1.2137e-06 1.64017e-07 0)
(1.17573e-06 1.73328e-07 0)
(1.13569e-06 1.82336e-07 0)
(1.09365e-06 1.91024e-07 0)
(1.0497e-06 1.99376e-07 0)
(1.00391e-06 2.07379e-07 0)
(9.5636e-07 2.15018e-07 0)
(9.0713e-07 2.22281e-07 0)
(8.56309e-07 2.29153e-07 0)
(8.03985e-07 2.35623e-07 0)
(7.50252e-07 2.4168e-07 0)
(6.95202e-07 2.47314e-07 0)
(6.38933e-07 2.52514e-07 0)
(5.81543e-07 2.57272e-07 0)
(5.23132e-07 2.61581e-07 0)
(4.63802e-07 2.65433e-07 0)
(4.03657e-07 2.68826e-07 0)
(3.428e-07 2.71754e-07 0)
(2.81337e-07 2.74218e-07 0)
(2.1937e-07 2.76221e-07 0)
(1.57005e-07 2.77769e-07 0)
(9.43409e-08 2.78872e-07 0)
(3.14739e-08 2.79537e-07 0)
(-3.17331e-08 3.42866e-07 0)
(-9.51226e-08 3.42038e-07 0)
(-1.58317e-07 3.40667e-07 0)
(-2.21219e-07 3.38751e-07 0)
(-2.83724e-07 3.36278e-07 0)
(-3.45725e-07 3.33241e-07 0)
(-4.07117e-07 3.29637e-07 0)
(-4.67793e-07 3.25468e-07 0)
(-5.27647e-07 3.20736e-07 0)
(-5.86574e-07 3.15446e-07 0)
(-6.44472e-07 3.09607e-07 0)
(-7.01238e-07 3.03227e-07 0)
(-7.56775e-07 2.96316e-07 0)
(-8.10983e-07 2.88887e-07 0)
(-8.63769e-07 2.80952e-07 0)
(-9.15039e-07 2.72525e-07 0)
(-9.64703e-07 2.6362e-07 0)
(-1.01268e-06 2.54253e-07 0)
(-1.05887e-06 2.4444e-07 0)
(-1.10321e-06 2.34199e-07 0)
(-1.14561e-06 2.23547e-07 0)
(-1.18601e-06 2.12503e-07 0)
(-1.22432e-06 2.01087e-07 0)
(-1.26048e-06 1.89317e-07 0)
(-1.29444e-06 1.77216e-07 0)
(-1.32612e-06 1.64804e-07 0)
(-1.35548e-06 1.52104e-07 0)
(-1.38245e-06 1.39136e-07 0)
(-1.40701e-06 1.25924e-07 0)
(-1.42909e-06 1.12492e-07 0)
(-1.44867e-06 9.88622e-08 0)
(-1.46571e-06 8.50591e-08 0)
(-1.48018e-06 7.11068e-08 0)
(-1.49205e-06 5.70298e-08 0)
(-1.5013e-06 4.28527e-08 0)
(-1.50792e-06 2.86006e-08 0)
(-1.51189e-06 1.42982e-08 0)
(-1.51321e-06 -2.91928e-11 0)
(-1.51188e-06 -1.43565e-08 0)
(-1.5079e-06 -2.86587e-08 0)
(-1.50127e-06 -4.29106e-08 0)
(-1.492e-06 -5.70872e-08 0)
(-1.48012e-06 -7.11636e-08 0)
(-1.46565e-06 -8.51153e-08 0)
(-1.4486e-06 -9.89176e-08 0)
(-1.42901e-06 -1.12546e-07 0)
(-1.40692e-06 -1.25978e-07 0)
(-1.38235e-06 -1.39188e-07 0)
(-1.35536e-06 -1.52155e-07 0)
(-1.326e-06 -1.64854e-07 0)
(-1.29431e-06 -1.77264e-07 0)
(-1.26034e-06 -1.89363e-07 0)
(-1.22417e-06 -2.0113e-07 0)
(-1.18585e-06 -2.12545e-07 0)
(-1.14545e-06 -2.23586e-07 0)
(-1.10304e-06 -2.34236e-07 0)
(-1.05869e-06 -2.44474e-07 0)
(-1.01249e-06 -2.54283e-07 0)
(-9.64513e-07 -2.63647e-07 0)
(-9.14843e-07 -2.72548e-07 0)
(-8.63568e-07 -2.80971e-07 0)
(-8.10778e-07 -2.88901e-07 0)
(-7.56566e-07 -2.96324e-07 0)
(-7.01027e-07 -3.03228e-07 0)
(-6.44258e-07 -3.09599e-07 0)
(-5.86359e-07 -3.15428e-07 0)
(-5.27431e-07 -3.20703e-07 0)
(-4.67579e-07 -3.25415e-07 0)
(-4.06905e-07 -3.29557e-07 0)
(-3.45518e-07 -3.33121e-07 0)
(-2.83525e-07 -3.361e-07 0)
(-2.21035e-07 -3.3849e-07 0)
(-1.58157e-07 -3.40286e-07 0)
(-9.50009e-08 -3.41485e-07 0)
(-3.16786e-08 -3.42085e-07 0)
(3.16993e-08 -3.42085e-07 0)
(9.50216e-08 -3.41485e-07 0)
(1.58177e-07 -3.40286e-07 0)
(2.21056e-07 -3.3849e-07 0)
(2.83546e-07 -3.361e-07 0)
(3.45539e-07 -3.33121e-07 0)
(4.06926e-07 -3.29557e-07 0)
(4.67599e-07 -3.25416e-07 0)
(5.27452e-07 -3.20703e-07 0)
(5.8638e-07 -3.15428e-07 0)
(6.44279e-07 -3.096e-07 0)
(7.01048e-07 -3.03228e-07 0)
(7.56587e-07 -2.96325e-07 0)
(8.108e-07 -2.88901e-07 0)
(8.6359e-07 -2.80971e-07 0)
(9.14865e-07 -2.72549e-07 0)
(9.64535e-07 -2.63648e-07 0)
(1.01251e-06 -2.54284e-07 0)
(1.05872e-06 -2.44475e-07 0)
(1.10306e-06 -2.34236e-07 0)
(1.14547e-06 -2.23587e-07 0)
(1.18587e-06 -2.12546e-07 0)
(1.22419e-06 -2.01132e-07 0)
(1.26037e-06 -1.89365e-07 0)
(1.29433e-06 -1.77265e-07 0)
(1.32602e-06 -1.64855e-07 0)
(1.35539e-06 -1.52156e-07 0)
(1.38238e-06 -1.3919e-07 0)
(1.40694e-06 -1.25979e-07 0)
(1.42904e-06 -1.12548e-07 0)
(1.44862e-06 -9.89195e-08 0)
(1.46567e-06 -8.51173e-08 0)
(1.48015e-06 -7.11658e-08 0)
(1.49203e-06 -5.70895e-08 0)
(1.50129e-06 -4.29131e-08 0)
(1.50792e-06 -2.86614e-08 0)
(1.51191e-06 -1.43594e-08 0)
(1.51324e-06 -3.23034e-11 0)
(1.51192e-06 1.42949e-08 0)
(1.50795e-06 2.85969e-08 0)
(1.50133e-06 4.28489e-08 0)
(1.49208e-06 5.70256e-08 0)
(1.48021e-06 7.11023e-08 0)
(1.46574e-06 8.50543e-08 0)
(1.4487e-06 9.88571e-08 0)
(1.42913e-06 1.12486e-07 0)
(1.40704e-06 1.25918e-07 0)
(1.38249e-06 1.3913e-07 0)
(1.35551e-06 1.52097e-07 0)
(1.32616e-06 1.64797e-07 0)
(1.29447e-06 1.77208e-07 0)
(1.26052e-06 1.89309e-07 0)
(1.22436e-06 2.01077e-07 0)
(1.18605e-06 2.12493e-07 0)
(1.14566e-06 2.23536e-07 0)
(1.10326e-06 2.34186e-07 0)
(1.05892e-06 2.44426e-07 0)
(1.01273e-06 2.54238e-07 0)
(9.64756e-07 2.63603e-07 0)
(9.15094e-07 2.72506e-07 0)
(8.63826e-07 2.80931e-07 0)
(8.11044e-07 2.88863e-07 0)
(7.56838e-07 2.96289e-07 0)
(7.01305e-07 3.03195e-07 0)
(6.44542e-07 3.0957e-07 0)
(5.86648e-07 3.15404e-07 0)
(5.27724e-07 3.20686e-07 0)
(4.67874e-07 3.25409e-07 0)
(4.072e-07 3.29568e-07 0)
(3.45809e-07 3.33158e-07 0)
(2.83806e-07 3.36179e-07 0)
(2.21296e-07 3.38635e-07 0)
(1.58383e-07 3.40532e-07 0)
(9.51689e-08 3.41885e-07 0)
(3.17501e-08 3.42699e-07 0)
(-3.20685e-08 4.0661e-07 0)
(-9.6126e-08 4.05637e-07 0)
(-1.59982e-07 4.0402e-07 0)
(-2.23539e-07 4.01756e-07 0)
(-2.86693e-07 3.98829e-07 0)
(-3.49339e-07 3.95233e-07 0)
(-4.11368e-07 3.90963e-07 0)
(-4.72674e-07 3.86021e-07 0)
(-5.33149e-07 3.8041e-07 0)
(-5.92688e-07 3.74138e-07 0)
(-6.51188e-07 3.67214e-07 0)
(-7.08545e-07 3.59647e-07 0)
(-7.64658e-07 3.51452e-07 0)
(-8.19431e-07 3.42641e-07 0)
(-8.72765e-07 3.33229e-07 0)
(-9.24569e-07 3.23234e-07 0)
(-9.7475e-07 3.12672e-07 0)
(-1.02322e-06 3.01563e-07 0)
(-1.0699e-06 2.89924e-07 0)
(-1.1147e-06 2.77777e-07 0)
(-1.15754e-06 2.65143e-07 0)
(-1.19836e-06 2.52045e-07 0)
(-1.23707e-06 2.38504e-07 0)
(-1.27361e-06 2.24545e-07 0)
(-1.30791e-06 2.10192e-07 0)
(-1.33993e-06 1.95471e-07 0)
(-1.36959e-06 1.80407e-07 0)
(-1.39685e-06 1.65026e-07 0)
(-1.42166e-06 1.49356e-07 0)
(-1.44397e-06 1.33424e-07 0)
(-1.46376e-06 1.17258e-07 0)
(-1.48097e-06 1.00887e-07 0)
(-1.49559e-06 8.43381e-08 0)
(-1.50758e-06 6.76417e-08 0)
(-1.51693e-06 5.08266e-08 0)
(-1.52362e-06 3.39224e-08 0)
(-1.52763e-06 1.69588e-08 0)
(-1.52897e-06 -3.46123e-11 0)
(-1.52762e-06 -1.70279e-08 0)
(-1.5236e-06 -3.39914e-08 0)
(-1.5169e-06 -5.08952e-08 0)
(-1.50754e-06 -6.77097e-08 0)
(-1.49554e-06 -8.44055e-08 0)
(-1.48091e-06 -1.00953e-07 0)
(-1.46368e-06 -1.17324e-07 0)
(-1.44389e-06 -1.33489e-07 0)
(-1.42156e-06 -1.49419e-07 0)
(-1.39675e-06 -1.65088e-07 0)
(-1.36948e-06 -1.80467e-07 0)
(-1.3398e-06 -1.95529e-07 0)
(-1.30778e-06 -2.10249e-07 0)
(-1.27347e-06 -2.246e-07 0)
(-1.23692e-06 -2.38556e-07 0)
(-1.1982e-06 -2.52094e-07 0)
(-1.15738e-06 -2.6519e-07 0)
(-1.11452e-06 -2.77821e-07 0)
(-1.06972e-06 -2.89965e-07 0)
(-1.02303e-06 -3.016e-07 0)
(-9.74556e-07 -3.12706e-07 0)
(-9.24369e-07 -3.23263e-07 0)
(-8.7256e-07 -3.33253e-07 0)
(-8.1922e-07 -3.42659e-07 0)
(-7.64444e-07 -3.51463e-07 0)
(-7.08326e-07 -3.59651e-07 0)
(-6.50966e-07 -3.67208e-07 0)
(-5.92465e-07 -3.74121e-07 0)
(-5.32923e-07 -3.80378e-07 0)
(-4.72447e-07 -3.85968e-07 0)
(-4.11142e-07 -3.9088e-07 0)
(-3.49116e-07 -3.95107e-07 0)
(-2.86478e-07 -3.98641e-07 0)
(-2.23336e-07 -4.01475e-07 0)
(-1.59803e-07 -4.03605e-07 0)
(-9.59902e-08 -4.05028e-07 0)
(-3.20086e-08 -4.05739e-07 0)
(3.20292e-08 -4.05739e-07 0)
(9.60109e-08 -4.05028e-07 0)
(1.59824e-07 -4.03605e-07 0)
(2.23357e-07 -4.01475e-07 0)
(2.86498e-07 -3.98641e-07 0)
(3.49137e-07 -3.95107e-07 0)
(4.11163e-07 -3.9088e-07 0)
(4.72468e-07 -3.85968e-07 0)
(5.32944e-07 -3.80379e-07 0)
(5.92485e-07 -3.74122e-07 0)
(6.50987e-07 -3.67209e-07 0)
(7.08347e-07 -3.59652e-07 0)
(7.64465e-07 -3.51464e-07 0)
(8.19242e-07 -3.42659e-07 0)
(8.72581e-07 -3.33254e-07 0)
(9.2439e-07 -3.23264e-07 0)
(9.74578e-07 -3.12706e-07 0)
(1.02306e-06 -3.01601e-07 0)
(1.06974e-06 -2.89966e-07 0)
(1.11455e-06 -2.77822e-07 0)
(1.1574e-06 -2.65192e-07 0)
(1.19822e-06 -2.52096e-07 0)
(1.23694e-06 -2.38558e-07 0)
(1.27349e-06 -2.24601e-07 0)
(1.30781e-06 -2.1025e-07 0)
(1.33983e-06 -1.95531e-07 0)
(1.3695e-06 -1.80469e-07 0)
(1.39677e-06 -1.6509e-07 0)
(1.42159e-06 -1.49421e-07 0)
(1.44391e-06 -1.33491e-07 0)
(1.46371e-06 -1.17326e-07 0)
(1.48093e-06 -1.00956e-07 0)
(1.49556e-06 -8.44081e-08 0)
(1.50757e-06 -6.77125e-08 0)