/*--------------------------------*- C++ -*----------------------------------*\
| =========                 |                                                 |
| \\      /  F ield         | OpenFOAM: The Open Source CFD Toolbox           |
|  \\    /   O peration     | Version:  2306                                  |
|   \\  /    A nd           | Website:  www.openfoam.com                      |
|    \\/     M anipulation  |                                                 |
\*---------------------------------------------------------------------------*/
FoamFile
{
    version     2.0;
    format      ascii;
    arch        "LSB;label=32;scalar=64";
    class       surfaceScalarField;
    location    "0.33";
    object      phi_0;
}
// * * * * * * * * * * * * * * * * * * * * * * * * * * * * * * * * * * * * * //

dimensions      [0 3 -1 0 0 0 0];

oriented        oriented;

internalField   nonuniform List<scalar> 
12640
(
-1.0885717e-05
-1.8834462e-05
-1.0464518e-05
-1.8481562e-05
-1.0057598e-05
-1.8140001e-05
-9.6669086e-06
-1.7807849e-05
-9.2937587e-06
-1.7484495e-05
-8.9387736e-06
-1.7170141e-05
-8.6019531e-06
-1.6865377e-05
-8.2827952e-06
-1.6570874e-05
-7.9804439e-06
-1.6287188e-05
-7.6938329e-06
-1.6014658e-05
-7.421809e-06
-1.5753377e-05
-7.1632243e-06
-1.5503215e-05
-6.9169983e-06
-1.5263865e-05
-6.6821504e-06
-1.5034903e-05
-6.4578115e-06
-1.4815843e-05
-6.2432201e-06
-1.4606176e-05
-6.0377098e-06
-1.4405411e-05
-5.8406929e-06
-1.4213087e-05
-5.651645e-06
-1.4028785e-05
-5.4700904e-06
-1.385213e-05
-5.295592e-06
-1.3682784e-05
-5.1277431e-06
-1.3520446e-05
-4.9661629e-06
-1.3364841e-05
-4.8104927e-06
-1.321572e-05
-4.6603946e-06
-1.3072848e-05
-4.5155499e-06
-1.2936009e-05
-4.3756582e-06
-1.2805001e-05
-4.2404368e-06
-1.267963e-05
-4.1096196e-06
-1.2559718e-05
-3.9829562e-06
-1.2445094e-05
-3.8602109e-06
-1.23356e-05
-3.7411616e-06
-1.2231084e-05
-3.6255992e-06
-1.2131406e-05
-3.513326e-06
-1.2036433e-05
-3.4041558e-06
-1.1946041e-05
-3.297912e-06
-1.1860113e-05
-3.1944282e-06
-1.1778538e-05
-3.0935467e-06
-1.1701212e-05
-2.9951181e-06
-1.1628038e-05
-2.8990012e-06
-1.1558923e-05
-2.8050623e-06
-1.1493781e-05
-2.7131748e-06
-1.1432528e-05
-2.6232191e-06
-1.1375088e-05
-2.535082e-06
-1.1321388e-05
-2.4486566e-06
-1.1271358e-05
-2.363842e-06
-1.1224933e-05
-2.2805432e-06
-1.1182054e-05
-2.1986707e-06
-1.1142661e-05
-2.1181406e-06
-1.1106702e-05
-2.0388738e-06
-1.1074127e-05
-1.9607968e-06
-1.1044889e-05
-1.8838407e-06
-1.1018946e-05
-1.8079413e-06
-1.0996259e-05
-1.7330389e-06
-1.0976793e-05
-1.6590783e-06
-1.0960518e-05
-1.5860083e-06
-1.0947406e-05
-1.5137817e-06
-1.0937436e-05
-1.4423546e-06
-1.0930589e-05
-1.3716867e-06
-1.0926853e-05
-1.3017407e-06
-1.092622e-05
-1.2324817e-06
-1.0928687e-05
-1.163877e-06
-1.0934258e-05
-1.0958957e-06
-1.0942941e-05
-1.0285078e-06
-1.0954752e-05
-9.6168391e-07
-1.0969711e-05
-8.9539456e-07
-1.0987847e-05
-8.296092e-07
-1.1009195e-05
-7.6429573e-07
-1.1033794e-05
-6.9941945e-07
-1.1061694e-05
-6.3494237e-07
-1.1092947e-05
-5.7082221e-07
-1.1127614e-05
-5.0701164e-07
-1.116576e-05
-4.4345758e-07
-1.1207452e-05
-3.801006e-07
-1.1252761e-05
-3.1687466e-07
-1.1301751e-05
-2.5370703e-07
-1.1354475e-05
-1.905192e-07
-1.1410955e-05
-1.2722842e-07
-1.147116e-05
-6.3750526e-08
-1.1534979e-05
-1.1602377e-05
-1.0299806e-05
-1.924422e-05
-9.8975305e-06
-1.8883838e-05
-9.5071171e-06
-1.8530415e-05
-9.1319121e-06
-1.8183054e-05
-8.7740904e-06
-1.7842317e-05
-8.4347082e-06
-1.7509524e-05
-8.1138783e-06
-1.7186207e-05
-7.8110069e-06
-1.6873746e-05
-7.5250387e-06
-1.6573157e-05
-7.2546758e-06
-1.6285021e-05
-6.9985512e-06
-1.6009502e-05
-6.7553502e-06
-1.5746416e-05
-6.5238819e-06
-1.5495333e-05
-6.30311e-06
-1.5255675e-05
-6.092155e-06
-1.5026798e-05
-5.8902768e-06
-1.4808054e-05
-5.69685e-06
-1.4598838e-05
-5.5113371e-06
-1.43986e-05
-5.3332648e-06
-1.4206858e-05
-5.1622052e-06
-1.4023189e-05
-4.997763e-06
-1.3847226e-05
-4.839567e-06
-1.3678642e-05
-4.6872657e-06
-1.3517143e-05
-4.5405255e-06
-1.336246e-05
-4.3990296e-06
-1.3214344e-05
-4.262478e-06
-1.3072561e-05
-4.1305873e-06
-1.2936891e-05
-4.0030908e-06
-1.2807127e-05
-3.8797369e-06
-1.2683072e-05
-3.7602896e-06
-1.2564542e-05
-3.6445264e-06
-1.2451363e-05
-3.5322378e-06
-1.2343372e-05
-3.4232265e-06
-1.2240417e-05
-3.3173062e-06
-1.2142353e-05
-3.2143007e-06
-1.2049047e-05
-3.1140435e-06
-1.196037e-05
-3.0163772e-06
-1.1876204e-05
-2.9211525e-06
-1.1796437e-05
-2.8282283e-06
-1.1720962e-05
-2.7374706e-06
-1.1649681e-05
-2.648753e-06
-1.1582498e-05
-2.5619555e-06
-1.1519326e-05
-2.4769648e-06
-1.1460079e-05
-2.3936737e-06
-1.1404679e-05
-2.3119812e-06
-1.135305e-05
-2.2317919e-06
-1.1305123e-05
-2.1530161e-06
-1.1260829e-05
-2.0755696e-06
-1.1220107e-05
-1.9993735e-06
-1.1182898e-05
-1.9243539e-06
-1.1149146e-05
-1.8504421e-06
-1.1118801e-05
-1.7775743e-06
-1.1091814e-05
-1.7056913e-06
-1.1068142e-05
-1.6347387e-06
-1.1047746e-05
-1.5646663e-06
-1.103059e-05
-1.4954283e-06
-1.1016644e-05
-1.4269829e-06
-1.1005881e-05
-1.3592921e-06
-1.099828e-05
-1.2923214e-06
-1.0993824e-05
-1.2260393e-06
-1.0992502e-05
-1.1604173e-06
-1.0994309e-05
-1.0954293e-06
-1.0999246e-05
-1.0310508e-06
-1.100732e-05
-9.6725876e-07
-1.1018544e-05
-9.0403061e-07
-1.1032939e-05
-8.4134377e-07
-1.1050534e-05
-7.7917466e-07
-1.1071364e-05
-7.1749787e-07
-1.1095471e-05
-6.5628523e-07
-1.1122906e-05
-5.955047e-07
-1.1153728e-05
-5.351195e-07
-1.1187999e-05
-4.7508692e-07
-1.1225792e-05
-4.1535749e-07
-1.1267181e-05
-3.5587423e-07
-1.1312244e-05
-2.96572e-07
-1.1361053e-05
-2.373777e-07
-1.1413669e-05
-1.7821076e-07
-1.1470122e-05
-1.1898497e-07
-1.1530386e-05
-5.9611644e-08
-1.1594353e-05
-1.1661989e-05
-9.701661e-06
-1.963544e-05
-9.3141373e-06
-1.9271361e-05
-8.9370785e-06
-1.8907474e-05
-8.5753714e-06
-1.8544761e-05
-8.2320094e-06
-1.8185679e-05
-7.9083062e-06
-1.7833227e-05
-7.6042517e-06
-1.7490261e-05
-7.3189139e-06
-1.7159083e-05
-7.0508167e-06
-1.6841254e-05
-6.7982542e-06
-1.6537584e-05
-6.5595221e-06
-1.6248234e-05
-6.3330646e-06
-1.5972873e-05
-6.1175481e-06
-1.571085e-05
-5.9118787e-06
-1.5461345e-05
-5.7151824e-06
-1.5223494e-05
-5.5267667e-06
-1.499647e-05
-5.3460747e-06
-1.477953e-05
-5.1726437e-06
-1.4572031e-05
-5.0060712e-06
-1.437343e-05
-4.8459913e-06
-1.4183269e-05
-4.6920594e-06
-1.4001158e-05
-4.5439449e-06
-1.3826756e-05
-4.4013286e-06
-1.3659759e-05
-4.2639026e-06
-1.3499886e-05
-4.1313721e-06
-1.3346874e-05
-4.0034563e-06
-1.3200477e-05
-3.8798893e-06
-1.3060458e-05
-3.7604209e-06
-1.2926595e-05
-3.6448158e-06
-1.2798677e-05
-3.5328528e-06
-1.2676505e-05
-3.424324e-06
-1.2559891e-05
-3.319034e-06
-1.2448662e-05
-3.2167981e-06
-1.2342653e-05
-3.1174421e-06
-1.2241709e-05
-3.0208013e-06
-1.2145687e-05
-2.9267197e-06
-1.2054452e-05
-2.8350495e-06
-1.1967874e-05
-2.7456507e-06
-1.1885836e-05
-2.6583906e-06
-1.1808222e-05
-2.5731433e-06
-1.1734928e-05
-2.4897898e-06
-1.1665852e-05
-2.4082174e-06
-1.1600898e-05
-2.3283192e-06
-1.1539977e-05
-2.2499945e-06
-1.1483003e-05
-2.1731483e-06
-1.1429896e-05
-2.0976911e-06
-1.138058e-05
-2.0235387e-06
-1.1334982e-05
-1.9506122e-06
-1.1293034e-05
-1.8788382e-06
-1.1254672e-05
-1.808148e-06
-1.1219836e-05
-1.7384782e-06
-1.118847e-05
-1.66977e-06
-1.1160522e-05
-1.6019695e-06
-1.1135942e-05
-1.5350277e-06
-1.1114688e-05
-1.4688998e-06
-1.1096718e-05
-1.4035457e-06
-1.1081998e-05
-1.3389292e-06
-1.1070498e-05
-1.2750184e-06
-1.1062191e-05
-1.211785e-06
-1.1057057e-05
-1.149204e-06
-1.1055083e-05
-1.0872536e-06
-1.105626e-05
-1.0259145e-06
-1.1060585e-05
-9.6516975e-07
-1.1068064e-05
-9.0500353e-07
-1.107871e-05
-8.4540102e-07
-1.1092542e-05
-7.8634731e-07
-1.1109588e-05
-7.2782666e-07
-1.1129884e-05
-6.6982131e-07
-1.1153476e-05
-6.1231056e-07
-1.1180417e-05
-5.552694e-07
-1.1210769e-05
-4.9866747e-07
-1.1244601e-05
-4.4246755e-07
-1.1281992e-05
-3.8662454e-07
-1.1323024e-05
-3.3108437e-07
-1.1367784e-05
-2.7578321e-07
-1.1416354e-05
-2.2064729e-07
-1.1468805e-05
-1.6559349e-07
-1.1525176e-05
-1.1053125e-07
-1.1585448e-05
-5.5365977e-08
-1.1649518e-05
-1.1717355e-05
-9.0955716e-06
-2.0016282e-05
-8.7161569e-06
-1.9650776e-05
-8.3476857e-06
-1.9275945e-05
-7.9966156e-06
-1.8895831e-05
-7.6665435e-06
-1.8515751e-05
-7.3586861e-06
-1.8141084e-05
-7.0725086e-06
-1.7776439e-05
-6.8063589e-06
-1.7425233e-05
-6.558021e-06
-1.7089592e-05
-6.3251444e-06
-1.677046e-05
-6.1055358e-06
-1.6467842e-05
-5.8973212e-06
-1.6181088e-05
-5.6990047e-06
-1.5909166e-05
-5.5094528e-06
-1.5650897e-05
-5.3278369e-06
-1.540511e-05
-5.1535574e-06
-1.517075e-05
-4.9861693e-06
-1.4946918e-05
-4.8253198e-06
-1.4732881e-05
-4.6707025e-06
-1.4528047e-05
-4.5220293e-06
-1.4331943e-05
-4.3790149e-06
-1.4144173e-05
-4.2413728e-06
-1.3964399e-05
-4.1088162e-06
-1.3792316e-05
-3.9810624e-06
-1.3627639e-05
-3.8578371e-06
-1.34701e-05
-3.7388781e-06
-1.3319436e-05
-3.6239371e-06
-1.3175399e-05
-3.512781e-06
-1.3037751e-05
-3.4051913e-06
-1.2906267e-05
-3.3009633e-06
-1.2780733e-05
-3.199905e-06
-1.266095e-05
-3.1018356e-06
-1.2546732e-05
-3.0065847e-06
-1.2437904e-05
-2.9139912e-06
-1.2334303e-05
-2.8239022e-06
-1.2235776e-05
-2.7361732e-06
-1.2142181e-05
-2.6506666e-06
-1.2053381e-05
-2.5672522e-06
-1.196925e-05
-2.4858063e-06
-1.1889668e-05
-2.4062114e-06
-1.1814523e-05
-2.3283563e-06
-1.1743707e-05
-2.2521357e-06
-1.1677119e-05
-2.1774498e-06
-1.1614663e-05
-2.1042045e-06
-1.1556249e-05
-2.0323109e-06
-1.150179e-05
-1.9616856e-06
-1.1451205e-05
-1.8922503e-06
-1.1404417e-05
-1.8239316e-06
-1.1361353e-05
-1.7566616e-06
-1.1321942e-05
-1.690377e-06
-1.1286121e-05
-1.6250196e-06
-1.1253828e-05
-1.5605361e-06
-1.1225005e-05
-1.4968782e-06
-1.11996e-05
-1.434002e-06
-1.1177564e-05
-1.3718687e-06
-1.1158851e-05
-1.3104438e-06
-1.1143423e-05
-1.2496973e-06
-1.1131244e-05
-1.1896035e-06
-1.1122285e-05
-1.1301406e-06
-1.111652e-05
-1.0712906e-06
-1.1113933e-05
-1.0130388e-06
-1.1114511e-05
-9.5537364e-07
-1.111825e-05
-8.9828571e-07
-1.1125152e-05
-8.417675e-07
-1.1135228e-05
-7.8581265e-07
-1.1148497e-05
-7.3041491e-07
-1.1164986e-05
-6.7556725e-07
-1.1184732e-05
-6.2126077e-07
-1.1207783e-05
-5.674833e-07
-1.1234195e-05
-5.1421817e-07
-1.1264034e-05
-4.6144248e-07
-1.1297377e-05
-4.091258e-07
-1.1334309e-05
-3.5722834e-07
-1.1374922e-05
-3.0569971e-07
-1.1419313e-05
-2.544778e-07
-1.1467576e-05
-2.0348816e-07
-1.1519795e-05
-1.5264451e-07
-1.157602e-05
-1.0185075e-07
-1.1636242e-05
-5.1004842e-08
-1.1700364e-05
-1.176836e-05
-8.4843435e-06
-2.0399075e-05
-8.1035393e-06
-2.003158e-05
-7.7372369e-06
-1.9642247e-05
-7.3932782e-06
-1.923979e-05
-7.0753734e-06
-1.8833656e-05
-6.7840191e-06
-1.8432439e-05
-6.5175206e-06
-1.8042937e-05
-6.2729445e-06
-1.7669809e-05
-6.0468961e-06
-1.731564e-05
-5.8360804e-06
-1.6981276e-05
-5.6376452e-06
-1.6666278e-05
-5.449335e-06
-1.6369398e-05
-5.2695032e-06
-1.6088998e-05
-5.0970339e-06
-1.5823366e-05
-4.9312199e-06
-1.5570924e-05
-4.7716307e-06
-1.5330339e-05
-4.6179972e-06
-1.5100552e-05
-4.470124e-06
-1.4880754e-05
-4.3278314e-06
-1.467034e-05
-4.1909249e-06
-1.4468849e-05
-4.0591844e-06
-1.4275913e-05
-3.9323667e-06
-1.4091216e-05
-3.810214e-06
-1.3914468e-05
-3.6924645e-06
-1.3745389e-05
-3.5788613e-06
-1.3583703e-05
-3.4691584e-06
-1.3429139e-05
-3.3631247e-06
-1.3281433e-05
-3.2605445e-06
-1.3140332e-05
-3.1612172e-06
-1.3005594e-05
-3.0649561e-06
-1.2876994e-05
-2.9715861e-06
-1.275432e-05
-2.8809427e-06
-1.2637375e-05
-2.7928708e-06
-1.2525976e-05
-2.707223e-06
-1.2419951e-05
-2.6238595e-06
-1.231914e-05
-2.5426475e-06
-1.2223393e-05
-2.4634604e-06
-1.2132568e-05
-2.386178e-06
-1.2046532e-05
-2.310686e-06
-1.196516e-05
-2.2368757e-06
-1.1888333e-05
-2.1646442e-06
-1.1815938e-05
-2.0938938e-06
-1.1747869e-05
-2.0245318e-06
-1.1684025e-05
-1.956471e-06
-1.162431e-05
-1.8896291e-06
-1.1568632e-05
-1.8239286e-06
-1.1516906e-05
-1.7592973e-06
-1.1469049e-05
-1.6956675e-06
-1.1424982e-05
-1.6329768e-06
-1.1384633e-05
-1.5711675e-06
-1.134793e-05
-1.5101868e-06
-1.1314808e-05
-1.449987e-06
-1.1285205e-05
-1.390525e-06
-1.1259062e-05
-1.331763e-06
-1.1236326e-05
-1.2736677e-06
-1.1216947e-05
-1.2162106e-06
-1.120088e-05
-1.1593682e-06
-1.1188087e-05
-1.1031212e-06
-1.1178532e-05
-1.0474547e-06
-1.1172187e-05
-9.9235798e-07
-1.116903e-05
-9.3782409e-07
-1.1169045e-05
-8.8384936e-07
-1.1172225e-05
-8.30433e-07
-1.1178569e-05
-7.7757642e-07
-1.1188085e-05
-7.2528251e-07
-1.1200791e-05
-6.7355471e-07
-1.1216713e-05
-6.2239586e-07
-1.1235891e-05
-5.718071e-07
-1.1258372e-05
-5.2178631e-07
-1.1284215e-05
-4.7232643e-07
-1.1313494e-05
-4.2341375e-07
-1.134629e-05
-3.7502588e-07
-1.1382697e-05
-3.271298e-07
-1.1422818e-05
-2.7967991e-07
-1.1466763e-05
-2.3261648e-07
-1.151464e-05
-1.8586449e-07
-1.1566547e-05
-1.3933403e-07
-1.162255e-05
-9.2922022e-08
-1.1682654e-05
-4.6516864e-08
-1.1746769e-05
-1.1814876e-05
-7.8679713e-06
-2.0801152e-05
-7.4731598e-06
-2.0426392e-05
-7.1011473e-06
-2.001426e-05
-6.7605803e-06
-1.9580357e-05
-6.4543797e-06
-1.9139857e-05
-6.1813087e-06
-1.870551e-05
-5.9375566e-06
-1.828669e-05
-5.7181161e-06
-1.788925e-05
-5.5178371e-06
-1.7515919e-05
-5.3321244e-06
-1.7166989e-05
-5.1573013e-06
-1.6841101e-05
-4.9907099e-06
-1.6535989e-05
-4.8306277e-06
-1.624908e-05
-4.6760796e-06
-1.5977914e-05
-4.5266121e-06
-1.5720391e-05
-4.3820818e-06
-1.5474869e-05
-4.2424861e-06
-1.5240147e-05
-4.1078472e-06
-1.5015393e-05
-3.9781452e-06
-1.4800042e-05
-3.8532916e-06
-1.4593703e-05
-3.7331304e-06
-1.4396074e-05
-3.6174536e-06
-1.4206893e-05
-3.5060223e-06
-1.40259e-05
-3.3985869e-06
-1.3852824e-05
-3.2949013e-06
-1.3687388e-05
-3.1947329e-06
-1.3529307e-05
-3.0978663e-06
-1.33783e-05
-3.004104e-06
-1.3234094e-05
-2.913265e-06
-1.3096433e-05
-2.8251819e-06
-1.2965077e-05
-2.7396987e-06
-1.2839803e-05
-2.6566688e-06
-1.2720405e-05
-2.5759529e-06
-1.2606692e-05
-2.4974188e-06
-1.2498485e-05
-2.4209401e-06
-1.2395619e-05
-2.3463963e-06
-1.2297937e-05
-2.2736721e-06
-1.2205292e-05
-2.2026578e-06
-1.2117547e-05
-2.1332489e-06
-1.2034569e-05
-2.0653456e-06
-1.1956236e-05
-1.9988534e-06
-1.188243e-05
-1.9336825e-06
-1.181304e-05
-1.8697478e-06
-1.174796e-05
-1.8069688e-06
-1.1687088e-05
-1.7452699e-06
-1.1630331e-05
-1.6845799e-06
-1.1577596e-05
-1.6248325e-06
-1.1528796e-05
-1.5659659e-06
-1.1483849e-05
-1.5079232e-06
-1.1442676e-05
-1.4506524e-06
-1.1405201e-05
-1.3941061e-06
-1.1371355e-05
-1.3382422e-06
-1.1341069e-05
-1.2830233e-06
-1.1314281e-05
-1.2284171e-06
-1.1290932e-05
-1.1743964e-06
-1.1270967e-05
-1.120939e-06
-1.1254338e-05
-1.0680275e-06
-1.1240998e-05
-1.0156495e-06
-1.1230909e-05
-9.6379749e-07
-1.1224039e-05
-9.1246825e-07
-1.1220359e-05
-8.6166292e-07
-1.1219851e-05
-8.1138642e-07
-1.1222501e-05
-7.6164718e-07
-1.1228308e-05
-7.1245627e-07
-1.1237276e-05
-6.6382682e-07
-1.124942e-05
-6.1577298e-07
-1.1264767e-05
-5.6830884e-07
-1.1283355e-05
-5.214469e-07
-1.1305234e-05
-4.7519667e-07
-1.1330466e-05
-4.2956258e-07
-1.1359128e-05
-3.8454185e-07
-1.139131e-05
-3.4012217e-07
-1.1427116e-05
-2.9627907e-07
-1.1466661e-05
-2.5297334e-07
-1.1510068e-05
-2.1014863e-07
-1.1557464e-05
-1.6772998e-07
-1.1608966e-05
-1.2562321e-07
-1.1664657e-05
-8.3716871e-08
-1.172456e-05
-4.1887109e-08
-1.1788599e-05
-1.1856764e-05
-7.2417631e-06
-2.1245637e-05
-6.8172098e-06
-2.0850945e-05
-6.430695e-06
-2.0400775e-05
-6.0904766e-06
-1.9920575e-05
-5.7971688e-06
-1.9433164e-05
-5.5462356e-06
-1.8956443e-05
-5.3303603e-06
-1.8502565e-05
-5.1413806e-06
-1.8078229e-05
-4.9716708e-06
-1.7685629e-05
-4.814947e-06
-1.7323713e-05
-4.6665894e-06
-1.6989458e-05
-4.5236117e-06
-1.6678967e-05
-4.3844037e-06
-1.6388289e-05
-4.2483565e-06
-1.6113961e-05
-4.1154841e-06
-1.5853264e-05
-3.9861026e-06
-1.5604251e-05
-3.8605972e-06
-1.5365653e-05
-3.7392783e-06
-1.5136712e-05
-3.6223153e-06
-1.4917005e-05
-3.5097273e-06
-1.4706291e-05
-3.4014072e-06
-1.4504394e-05
-3.2971617e-06
-1.4311139e-05
-3.1967515e-06
-1.412631e-05
-3.0999236e-06
-1.3949652e-05
-3.0064337e-06
-1.3780878e-05
-2.9160579e-06
-1.3619683e-05
-2.828596e-06
-1.3465761e-05
-2.7438705e-06
-1.3318819e-05
-2.6617222e-06
-1.3178581e-05
-2.5820061e-06
-1.3044793e-05
-2.5045874e-06
-1.2917222e-05
-2.4293387e-06
-1.2795654e-05
-2.3561385e-06
-1.2679892e-05
-2.2848698e-06
-1.2569754e-05
-2.2154203e-06
-1.2465068e-05
-2.1476821e-06
-1.2365675e-05
-2.0815516e-06
-1.2271423e-05
-2.0169298e-06
-1.2182168e-05
-1.9537219e-06
-1.2097777e-05
-1.8918376e-06
-1.2018121e-05
-1.8311908e-06
-1.1943077e-05
-1.7716998e-06
-1.1872531e-05
-1.713287e-06
-1.1806372e-05
-1.655879e-06
-1.1744496e-05
-1.5994068e-06
-1.1686803e-05
-1.5438055e-06
-1.1633197e-05
-1.4890148e-06
-1.1583587e-05
-1.4349788e-06
-1.1537885e-05
-1.3816461e-06
-1.1496008e-05
-1.3289703e-06
-1.1457877e-05
-1.2769097e-06
-1.1423415e-05
-1.2254274e-06
-1.1392551e-05
-1.1744918e-06
-1.1365217e-05
-1.1240764e-06
-1.1341347e-05
-1.07416e-06
-1.1320884e-05
-1.0247265e-06
-1.1303771e-05
-9.7576524e-07
-1.1289959e-05
-9.2727087e-07
-1.1279404e-05
-8.7924316e-07
-1.1272066e-05
-8.316869e-07
-1.1267915e-05
-7.8461174e-07
-1.1266926e-05
-7.3803179e-07
-1.1269081e-05
-6.9196519e-07
-1.1274375e-05
-6.4643359e-07
-1.1282807e-05
-6.0146127e-07
-1.1294392e-05
-5.570743e-07
-1.1309154e-05
-5.1329926e-07
-1.132713e-05
-4.7016186e-07
-1.1348371e-05
-4.2768497e-07
-1.1372943e-05
-3.8588661e-07
-1.1400926e-05
-3.4477737e-07
-1.143242e-05
-3.0435737e-07
-1.1467536e-05
-2.6461315e-07
-1.1506405e-05
-2.2551414e-07
-1.1549167e-05
-1.8700934e-07
-1.1595969e-05
-1.490246e-07
-1.164695e-05
-1.1146147e-07
-1.170222e-05
-7.4198351e-08
-1.1761823e-05
-3.7095897e-08
-1.1825701e-05
-1.189386e-05
-6.5937623e-06
-2.1762013e-05
-6.1210878e-06
-2.1323619e-05
-5.7114659e-06
-2.0810397e-05
-5.3706858e-06
-2.0261355e-05
-5.0946393e-06
-1.9709211e-05
-4.8731524e-06
-1.917793e-05
-4.6934322e-06
-1.8682285e-05
-4.542741e-06
-1.8228921e-05
-4.410128e-06
-1.7818242e-05
-4.2872549e-06
-1.7446586e-05
-4.1685624e-06
-1.7108151e-05
-4.0509946e-06
-1.6796535e-05
-3.9334224e-06
-1.6505861e-05
-3.815982e-06
-1.6231401e-05
-3.6994803e-06
-1.5969765e-05
-3.5849339e-06
-1.5718797e-05
-3.4732662e-06
-1.547732e-05
-3.3651481e-06
-1.524483e-05
-3.260952e-06
-1.5021201e-05
-3.1607817e-06
-1.4806461e-05
-3.0645411e-06
-1.4600635e-05
-2.9720112e-06
-1.4403668e-05
-2.8829189e-06
-1.4215402e-05
-2.7969856e-06
-1.4035586e-05
-2.7139563e-06
-1.3863908e-05
-2.6336118e-06
-1.3700027e-05
-2.5557686e-06
-1.3543605e-05
-2.4802728e-06
-1.3394315e-05
-2.4069918e-06
-1.3251862e-05
-2.3358069e-06
-1.3115978e-05
-2.2666074e-06
-1.2986421e-05
-2.1992874e-06
-1.2862974e-05
-2.1337436e-06
-1.2745436e-05
-2.0698752e-06
-1.2633622e-05
-2.0075841e-06
-1.2527359e-05
-1.946775e-06
-1.2426484e-05
-1.8873561e-06
-1.2330842e-05
-1.8292389e-06
-1.2240286e-05
-1.7723389e-06
-1.2154677e-05
-1.7165749e-06
-1.2073885e-05
-1.6618698e-06
-1.1997782e-05
-1.6081497e-06
-1.1926251e-05
-1.5553448e-06
-1.1859177e-05
-1.5033888e-06
-1.1796453e-05
-1.4522191e-06
-1.1737973e-05
-1.4017773e-06
-1.1683639e-05
-1.352009e-06
-1.1633355e-05
-1.302864e-06
-1.158703e-05
-1.2542966e-06
-1.1544576e-05
-1.2062657e-06
-1.1505908e-05
-1.1587351e-06
-1.1470946e-05
-1.1116735e-06
-1.1439613e-05
-1.0650548e-06
-1.1411835e-05
-1.0188582e-06
-1.1387544e-05
-9.7306852e-07
-1.1366674e-05
-9.2767601e-07
-1.1349164e-05
-8.8267668e-07
-1.1334959e-05
-8.3807222e-07
-1.1324008e-05
-7.9387007e-07
-1.1316269e-05
-7.5008324e-07
-1.1311702e-05
-7.0673026e-07
-1.1310279e-05
-6.6383492e-07
-1.1311977e-05
-6.214257e-07
-1.1316784e-05
-5.7953559e-07
-1.1324697e-05
-5.3820105e-07
-1.1335727e-05
-4.9746127e-07
-1.1349894e-05
-4.5735687e-07
-1.1367234e-05
-4.1792844e-07
-1.1387799e-05
-3.7921448e-07
-1.1411657e-05
-3.412491e-07
-1.1438892e-05
-3.0405901e-07
-1.146961e-05
-2.6766e-07
-1.1503935e-05
-2.3205287e-07
-1.1542012e-05
-1.9721895e-07
-1.1584001e-05
-1.6311535e-07
-1.1630073e-05
-1.2967075e-07
-1.1680395e-05
-9.6782652e-08
-1.1735108e-05
-6.4317714e-08
-1.1794288e-05
-3.2117076e-08
-1.1857902e-05
-1.1925977e-05
-5.9013182e-06
-2.2386174e-05
-5.3606435e-06
-2.1864294e-05
-4.9214655e-06
-2.1249575e-05
-4.583658e-06
-2.0599162e-05
-4.3346965e-06
-1.9958172e-05
-4.1553589e-06
-1.9357267e-05
-4.0246453e-06
-1.8812999e-05
-3.9234554e-06
-1.833011e-05
-3.8365901e-06
-1.7905107e-05
-3.7534079e-06
-1.7529768e-05
-3.6676873e-06
-1.7193871e-05
-3.5768699e-06
-1.6887352e-05
-3.4809563e-06
-1.6601774e-05
-3.3814269e-06
-1.6330931e-05
-3.2803519e-06
-1.607084e-05
-3.1797654e-06
-1.5819384e-05
-3.0813001e-06
-1.5575786e-05
-2.9860411e-06
-1.5340089e-05
-2.8945391e-06
-1.5112703e-05
-2.8069165e-06
-1.4894084e-05
-2.7230102e-06
-1.4684541e-05
-2.6425075e-06
-1.4484171e-05
-2.5650507e-06
-1.4292859e-05
-2.4903054e-06
-1.4110331e-05
-2.4179931e-06
-1.393622e-05
-2.3478983e-06
-1.3770122e-05
-2.2798601e-06
-1.3611643e-05
-2.2137564e-06
-1.3460419e-05
-2.1494891e-06
-1.3316129e-05
-2.0869718e-06
-1.3178495e-05
-2.0261217e-06
-1.3047271e-05
-1.9668559e-06
-1.2922239e-05
-1.9090903e-06
-1.2803201e-05
-1.8527402e-06
-1.2689972e-05
-1.7977213e-06
-1.2582378e-05
-1.7439507e-06
-1.2480254e-05
-1.6913481e-06
-1.2383444e-05
-1.6398356e-06
-1.2291798e-05
-1.5893388e-06
-1.2205174e-05
-1.539786e-06
-1.2123437e-05
-1.4911087e-06
-1.204646e-05
-1.4432413e-06
-1.1974118e-05
-1.3961216e-06
-1.1906297e-05
-1.3496901e-06
-1.1842884e-05
-1.3038911e-06
-1.1783772e-05
-1.2586722e-06
-1.1728858e-05
-1.2139848e-06
-1.1678042e-05
-1.1697844e-06
-1.163123e-05
-1.1260307e-06
-1.1588329e-05
-1.082688e-06
-1.1549251e-05
-1.0397253e-06
-1.1513909e-05
-9.9711679e-07
-1.1482221e-05
-9.5484173e-07
-1.145411e-05
-9.1288506e-07
-1.1429501e-05
-8.7123744e-07
-1.1408321e-05
-8.2989543e-07
-1.1390506e-05
-7.888617e-07
-1.1375992e-05
-7.4814517e-07
-1.1364725e-05
-7.0776096e-07
-1.1356653e-05
-6.6773056e-07
-1.1351732e-05
-6.280817e-07
-1.1349928e-05
-5.8884814e-07
-1.135121e-05
-5.5006949e-07
-1.1355562e-05
-5.1179063e-07
-1.1362976e-05
-4.7406126e-07
-1.1373456e-05
-4.3693493e-07
-1.138702e-05
-4.004679e-07
-1.1403702e-05
-3.6471758e-07
-1.142355e-05
-3.2974053e-07
-1.1446634e-05
-2.9558984e-07
-1.1473042e-05
-2.6231182e-07
-1.1502888e-05
-2.2994187e-07
-1.1536305e-05
-1.9849947e-07
-1.1573455e-05
-1.6798237e-07
-1.1614518e-05
-1.3836013e-07
-1.1659695e-05
-1.0956751e-07
-1.1709188e-05
-8.1499594e-08
-1.1763176e-05
-5.4010064e-08
-1.1821778e-05
-2.6915571e-08
-1.1884996e-05
-1.1952892e-05
-5.1263384e-06
-2.3159634e-05
-4.4986503e-06
-2.2491982e-05
-4.0289046e-06
-2.171932e-05
-3.7055983e-06
-2.0922469e-05
-3.5023039e-06
-2.0161467e-05
-3.3858519e-06
-1.9473719e-05
-3.3233783e-06
-1.8875472e-05
-3.287267e-06
-1.8366222e-05
-3.2571855e-06
-1.7935189e-05
-3.2202623e-06
-1.7566691e-05
-3.1704015e-06
-1.7243732e-05
-3.1065916e-06
-1.6951162e-05
-3.031028e-06
-1.6677338e-05
-2.9474347e-06
-1.6414524e-05
-2.859796e-06
-1.6158479e-05
-2.7715522e-06
-1.5907627e-05
-2.6852094e-06
-1.5662129e-05
-2.6022662e-06
-1.5423032e-05
-2.5233492e-06
-1.519162e-05
-2.4484583e-06
-1.4968975e-05
-2.3772275e-06
-1.4755772e-05
-2.3091425e-06
-1.4552256e-05
-2.2436914e-06
-1.435831e-05
-2.1804483e-06
-1.4173574e-05
-2.1191025e-06
-1.3997566e-05
-2.0594501e-06
-1.3829775e-05
-2.0013675e-06
-1.3669725e-05
-1.9447803e-06
-1.3517006e-05
-1.8896373e-06
-1.3371272e-05
-1.8358923e-06
-1.323224e-05
-1.7834949e-06
-1.3099669e-05
-1.7323865e-06
-1.2973348e-05
-1.6825021e-06
-1.2853086e-05
-1.6337717e-06
-1.2738702e-05
-1.5861238e-06
-1.2630026e-05
-1.5394873e-06
-1.2526891e-05
-1.4937926e-06
-1.2429139e-05
-1.4489728e-06
-1.2336618e-05
-1.4049632e-06
-1.2249184e-05
-1.3617016e-06
-1.2166699e-05
-1.3191285e-06
-1.2089033e-05
-1.2771863e-06
-1.2016061e-05
-1.2358203e-06
-1.1947663e-05
-1.1949781e-06
-1.1883726e-05
-1.1546102e-06
-1.182414e-05
-1.1146703e-06
-1.1768798e-05
-1.0751154e-06
-1.1717597e-05
-1.0359065e-06
-1.1670439e-05
-9.970085e-07
-1.1627227e-05
-9.5839078e-07
-1.1587868e-05
-9.2002748e-07
-1.1552272e-05
-8.8189783e-07
-1.1520351e-05
-8.4398655e-07
-1.1492022e-05
-8.0628401e-07
-1.1467203e-05
-7.6878664e-07
-1.1445819e-05
-7.3149717e-07
-1.1427795e-05
-6.9442487e-07
-1.1413065e-05
-6.5758578e-07
-1.1401564e-05
-6.2100286e-07
-1.1393236e-05
-5.8470616e-07
-1.1388029e-05
-5.4873277e-07
-1.1385901e-05
-5.1312688e-07
-1.1386816e-05
-4.7793949e-07
-1.139075e-05
-4.4322831e-07
-1.1397687e-05
-4.0905705e-07
-1.1407627e-05
-3.754949e-07
-1.1420582e-05
-3.4261529e-07
-1.1436581e-05
-3.1049459e-07
-1.145567e-05
-2.7921002e-07
-1.1477918e-05
-2.4883694e-07
-1.1503415e-05
-2.1944541e-07
-1.1532279e-05
-1.9109533e-07
-1.1564655e-05
-1.638306e-07
-1.1600719e-05
-1.3767174e-07
-1.1640677e-05
-1.1260712e-07
-1.168476e-05
-8.8583544e-08
-1.1733211e-05
-6.5497053e-08
-1.1786263e-05
-4.3188253e-08
-1.1844087e-05
-2.1443768e-08
-1.1906741e-05
-1.1974336e-05
-4.2088522e-06
-2.4127405e-05
-3.4803475e-06
-2.3220487e-05
-2.9897791e-06
-2.2209889e-05
-2.7058416e-06
-2.1206406e-05
-2.5801783e-06
-2.028713e-05
-2.5588458e-06
-1.9495052e-05
-2.5924203e-06
-1.8841898e-05
-2.6422743e-06
-1.8316368e-05
-2.6823049e-06
-1.7895158e-05
-2.6982669e-06
-1.7550729e-05
-2.6857577e-06
-1.7256241e-05
-2.6471046e-06
-1.6989815e-05
-2.5883577e-06
-1.6736085e-05
-2.5167866e-06
-1.6486095e-05
-2.4391424e-06
-1.6236123e-05
-2.360703e-06
-1.5986067e-05
-2.284952e-06
-1.573788e-05
-2.2136759e-06
-1.5494308e-05
-2.1473365e-06
-1.525796e-05
-2.0855521e-06
-1.5030759e-05
-2.0275339e-06
-1.481379e-05
-1.9724102e-06
-1.460738e-05
-1.9194257e-06
-1.4411294e-05
-1.8680308e-06
-1.4224969e-05
-1.8178881e-06
-1.4047708e-05
-1.7688312e-06
-1.3878832e-05
-1.7208045e-06
-1.3717752e-05
-1.6738079e-06
-1.3564003e-05
-1.6278554e-06
-1.3417225e-05
-1.5829519e-06
-1.3277144e-05
-1.5390826e-06
-1.3143538e-05
-1.4962133e-06
-1.3016217e-05
-1.4542951e-06
-1.2895004e-05
-1.4132706e-06
-1.2779727e-05
-1.3730789e-06
-1.2670218e-05
-1.333659e-06
-1.2566311e-05
-1.2949519e-06
-1.2467846e-05
-1.2569008e-06
-1.2374669e-05
-1.2194512e-06
-1.2286633e-05
-1.1825507e-06
-1.22036e-05
-1.1461483e-06
-1.2125435e-05
-1.110195e-06
-1.2052014e-05
-1.074643e-06
-1.1983215e-05
-1.0394469e-06
-1.1918922e-05
-1.0045634e-06
-1.1859023e-05
-9.6995177e-07
-1.1803409e-05
-9.3557458e-07
-1.1751974e-05
-9.0139773e-07
-1.1704616e-05
-8.6739119e-07
-1.1661234e-05
-8.3352912e-07
-1.162173e-05
-7.9979052e-07
-1.1586011e-05
-7.6615952e-07
-1.1553982e-05
-7.3262582e-07
-1.1525555e-05
-6.9918506e-07
-1.1500644e-05
-6.6583922e-07
-1.1479164e-05
-6.3259699e-07
-1.1461037e-05
-5.9947409e-07
-1.1446188e-05
-5.6649362e-07
-1.1434544e-05
-5.3368627e-07
-1.1426043e-05
-5.0109063e-07
-1.1420625e-05
-4.6875333e-07
-1.1418238e-05
-4.3672912e-07
-1.141884e-05
-4.050809e-07
-1.1422398e-05
-3.738796e-07
-1.1428889e-05
-3.4320385e-07
-1.1438303e-05
-3.1313951e-07
-1.1450647e-05
-2.8377884e-07
-1.1465942e-05
-2.5521915e-07
-1.148423e-05
-2.2756105e-07
-1.1505576e-05
-2.0090591e-07
-1.1530071e-05
-1.7535229e-07
-1.1557833e-05
-1.5099052e-07
-1.1589017e-05
-1.2789614e-07
-1.1623814e-05
-1.0612105e-07
-1.1662452e-05
-8.5682168e-08
-1.1705199e-05
-6.6547701e-08
-1.1752346e-05
-4.8621918e-08
-1.1804188e-05
-3.1734045e-08
-1.1860975e-05
-1.5636467e-08
-1.1922838e-05
-1.1989972e-05
-3.0585257e-06
-2.5333399e-05
-2.228149e-06
-2.4050864e-05
-1.7457193e-06
-2.2692318e-05
-1.5473127e-06
-2.1404813e-05
-1.5508141e-06
-2.0283629e-05
-1.6725275e-06
-1.9373338e-05
-1.8409892e-06
-1.8673436e-05
-2.0035853e-06
-1.8153772e-05
-2.1286899e-06
-1.7770054e-05
-2.2028373e-06
-1.7476581e-05
-2.2261102e-06
-1.7232968e-05
-2.2070561e-06
-1.7008869e-05
-2.1580767e-06
-1.6785064e-05
-2.0918065e-06
-1.6552365e-05
-2.0188031e-06
-1.6309127e-05
-1.9465899e-06
-1.605828e-05
-1.8795642e-06
-1.5804905e-05
-1.8194301e-06
-1.5554442e-05
-1.7660184e-06
-1.5311371e-05
-1.7181297e-06
-1.5078648e-05
-1.6742187e-06
-1.4857701e-05
-1.6328474e-06
-1.4648751e-05
-1.5929196e-06
-1.4451222e-05
-1.5537489e-06
-1.426414e-05
-1.5150102e-06
-1.4086447e-05
-1.4766332e-06
-1.3917209e-05
-1.4386865e-06
-1.3755699e-05
-1.401286e-06
-1.3601403e-05
-1.3645368e-06
-1.3453974e-05
-1.3285051e-06
-1.3313175e-05
-1.2932128e-06
-1.317883e-05
-1.2586456e-06
-1.3050784e-05
-1.2247651e-06
-1.2928884e-05
-1.1915208e-06
-1.2812971e-05
-1.158859e-06
-1.2702879e-05
-1.126727e-06
-1.2598443e-05
-1.0950755e-06
-1.2499497e-05
-1.0638582e-06
-1.2405886e-05
-1.0330311e-06
-1.231746e-05
-1.0025516e-06
-1.2234079e-05
-9.7237782e-07
-1.2155609e-05
-9.4246863e-07
-1.2081923e-05
-9.1278366e-07
-1.20129e-05
-8.8328377e-07
-1.1948422e-05
-8.5393148e-07
-1.1888376e-05
-8.2469151e-07
-1.1832649e-05
-7.9553131e-07
-1.1781135e-05
-7.6642163e-07
-1.1733726e-05
-7.3733693e-07
-1.1690319e-05
-7.0825586e-07
-1.1650811e-05
-6.7916189e-07
-1.1615105e-05
-6.500437e-07
-1.15831e-05
-6.2089563e-07
-1.1554703e-05
-5.9171828e-07
-1.1529821e-05
-5.6251887e-07
-1.1508364e-05
-5.3331175e-07
-1.1490244e-05
-5.0411885e-07
-1.147538e-05
-4.7497008e-07
-1.1463693e-05
-4.4590373e-07
-1.1455109e-05
-4.1696684e-07
-1.1449562e-05
-3.8821552e-07
-1.144699e-05
-3.597152e-07
-1.1447341e-05
-3.3154082e-07
-1.1450572e-05
-3.0377693e-07
-1.1456653e-05
-2.765177e-07
-1.1465562e-05
-2.4986663e-07
-1.1477298e-05
-2.2393618e-07
-1.1491872e-05
-1.9884652e-07
-1.150932e-05
-1.7472433e-07
-1.1529698e-05
-1.5170072e-07
-1.1553094e-05
-1.2990834e-07
-1.1579625e-05
-1.0947457e-07
-1.1609451e-05
-9.0515511e-08
-1.1642773e-05
-7.3125897e-08
-1.1679842e-05
-5.7365214e-08
-1.1720959e-05
-4.3238562e-08
-1.1766472e-05
-3.0671146e-08
-1.1816756e-05
-1.9487931e-08
-1.1872158e-05
-9.4006733e-09
-1.1932926e-05
-1.1999373e-05
-1.544441e-06
-2.6810883e-05
-6.3835703e-07
-2.4956948e-05
-2.2718964e-07
-2.3103486e-05
-1.9238839e-07
-2.1439614e-05
-4.0191056e-07
-2.0074107e-05
-7.3357643e-07
-1.9041672e-05
-1.0893968e-06
-1.8317616e-05
-1.3971686e-06
-1.7846e-05
-1.6222898e-06
-1.7544932e-05
-1.7560678e-06
-1.7342804e-05
-1.8077637e-06
-1.7181273e-05
-1.7966153e-06
-1.7020018e-05
-1.7450438e-06
-1.6836636e-05
-1.6734595e-06
-1.662395e-05
-1.5973882e-06
-1.6385198e-05
-1.5268474e-06
-1.6128821e-05
-1.4666759e-06
-1.5865077e-05
-1.4177257e-06
-1.5603392e-05
-1.3783786e-06
-1.5350718e-05
-1.3459267e-06
-1.5111099e-05
-1.3175958e-06
-1.4886032e-05
-1.2911248e-06
-1.4675222e-05
-1.264994e-06