/*--------------------------------*- C++ -*----------------------------------*\
| =========                 |                                                 |
| \\      /  F ield         | OpenFOAM: The Open Source CFD Toolbox           |
|  \\    /   O peration     | Version:  2106                                  |
|   \\  /    A nd           | Website:  www.openfoam.com                      |
|    \\/     M anipulation  |                                                 |
\*---------------------------------------------------------------------------*/
FoamFile
{
    version     2.0;
    format      ascii;
    arch        "LSB;label=32;scalar=64";
    class       volVectorField;
    location    "0.18";
    object      U_0;
}
// * * * * * * * * * * * * * * * * * * * * * * * * * * * * * * * * * * * * * //

dimensions      [0 1 -1 0 0 0 0];

internalField   nonuniform List<vector> 
32768
(
(0.00044239967 -0.00093021687 0)
(0.0037941274 -0.0016354001 0)
(0.0083216678 -0.0019038056 0)
(0.013212272 -0.0020548132 0)
(0.018238644 -0.0021037924 0)
(0.023325646 -0.0021182141 0)
(0.028431007 -0.0021227774 0)
(0.033539029 -0.002126996 0)
(0.038655483 -0.0021382144 0)
(0.043785961 -0.0021811903 0)
(0.048922276 -0.0022347799 0)
(0.054062159 -0.0022886852 0)
(0.059204201 -0.0023389841 0)
(0.064346769 -0.0023849052 0)
(0.069489652 -0.0024280427 0)
(0.074631789 -0.0024663489 0)
(0.079778539 -0.0025022777 0)
(0.084923444 -0.0025299306 0)
(0.090082696 -0.0025621501 0)
(0.095232202 -0.0025807286 0)
(0.10041113 -0.0026123 0)
(0.1055722 -0.0026300448 0)
(0.11076728 -0.0026474091 0)
(0.11596066 -0.0026908683 0)
(0.12116419 -0.002665105 0)
(0.12639049 -0.0027573501 0)
(0.13163721 -0.0026921899 0)
(0.13688698 -0.002786573 0)
(0.14212877 -0.0027846028 0)
(0.14749493 -0.0027574833 0)
(0.1527435 -0.0028719234 0)
(0.15804952 -0.0028120086 0)
(0.16353193 -0.002838925 0)
(0.16881432 -0.0029355323 0)
(0.17413883 -0.0028684682 0)
(0.17971807 -0.0028994151 0)
(0.18514553 -0.0030006503 0)
(0.19046911 -0.0029368984 0)
(0.19601266 -0.0029421142 0)
(0.20161932 -0.0030548803 0)
(0.20711202 -0.0030198127 0)
(0.21257548 -0.0029970209 0)
(0.21811798 -0.003067593 0)
(0.22378327 -0.0030847483 0)
(0.22944828 -0.0030792779 0)
(0.23497471 -0.0031089617 0)
(0.24048211 -0.003094103 0)
(0.2461443 -0.0030982576 0)
(0.25189617 -0.0031704071 0)
(0.25758191 -0.0031759236 0)
(0.26313065 -0.0031119046 0)
(0.26865162 -0.0031245996 0)
(0.27432956 -0.0031812875 0)
(0.28008668 -0.0032018913 0)
(0.28576902 -0.0031725235 0)
(0.29137606 -0.0031559785 0)
(0.29689472 -0.00317662 0)
(0.30243256 -0.0031523821 0)
(0.30809888 -0.0031686992 0)
(0.31376053 -0.0032111207 0)
(0.3193432 -0.0031845818 0)
(0.32493279 -0.0031522183 0)
(0.33045543 -0.003150805 0)
(0.33582967 -0.0031392129 0)
(0.34126458 -0.0031437125 0)
(0.34686121 -0.0031705855 0)
(0.35244925 -0.0031494253 0)
(0.35788441 -0.0031487996 0)
(0.36322359 -0.0031314687 0)
(0.36860947 -0.0030660279 0)
(0.37395933 -0.0030995217 0)
(0.37921498 -0.0031323901 0)
(0.38455933 -0.0030751069 0)
(0.38996626 -0.003083661 0)
(0.39524448 -0.0031233822 0)
(0.40047804 -0.003064523 0)
(0.405777 -0.003034331 0)
(0.41100599 -0.0030891314 0)
(0.41611481 -0.0030446192 0)
(0.42120995 -0.0029740059 0)
(0.42629081 -0.003049523 0)
(0.43139978 -0.0030746634 0)
(0.4366478 -0.0029983636 0)
(0.44186389 -0.0030442426 0)
(0.44687513 -0.0030556625 0)
(0.45186698 -0.0029377574 0)
(0.45691574 -0.002958341 0)
(0.46186998 -0.0030243434 0)
(0.46673737 -0.0029403059 0)
(0.47160028 -0.0029126564 0)
(0.4764987 -0.0030038816 0)
(0.48151497 -0.0030033782 0)
(0.48659142 -0.0029456862 0)
(0.49151449 -0.0029655502 0)
(0.49628501 -0.0029478086 0)
(0.50107293 -0.0028793626 0)
(0.50588157 -0.0028973941 0)
(0.5106419 -0.0029398763 0)
(0.5153853 -0.0029059062 0)
(0.52011467 -0.0028768088 0)
(0.52479433 -0.0029117623 0)
(0.52950017 -0.0029299999 0)
(0.53430417 -0.0029009439 0)
(0.53911289 -0.0028967792 0)
(0.54380882 -0.0029177203 0)
(0.54842186 -0.0028861026 0)
(0.55304715 -0.002818436 0)
(0.55766627 -0.0028285512 0)
(0.5622321 -0.0028771718 0)
(0.56679245 -0.0028415064 0)
(0.571346 -0.0027783479 0)
(0.57581127 -0.002810951 0)
(0.58025242 -0.0028677236 0)
(0.58481494 -0.0028358671 0)
(0.58944412 -0.0027895755 0)
(0.59395823 -0.0028183761 0)
(0.59833998 -0.0028260007 0)
(0.60269015 -0.0027530041 0)
(0.60704917 -0.0027009419 0)
(0.61139952 -0.0027700037 0)
(0.6157825 -0.0027986216 0)
(0.62024045 -0.0027276738 0)
(0.62466521 -0.0026927081 0)
(0.62893107 -0.0027366762 0)
(0.63311903 -0.002737318 0)
(0.63734874 -0.0026720801 0)
(0.6415892 -0.002676067 0)
(0.64579677 -0.0027460164 0)
(0.65003824 -0.0027441725 0)
(0.65432669 -0.0026829554 0)
(0.65853748 -0.0026661934 0)
(0.66264394 -0.0026833017 0)
(0.66680542 -0.002691565 0)
(0.6710976 -0.0026839367 0)
(0.6754318 -0.0026815521 0)
(0.67972289 -0.0026732056 0)
(0.68391597 -0.002662597 0)
(0.68797111 -0.0026115459 0)
(0.69191625 -0.0025865144 0)
(0.69581543 -0.0025824518 0)
(0.69973897 -0.0026218395 0)
(0.7037748 -0.0026406057 0)
(0.70793359 -0.002628307 0)
(0.71212216 -0.0025958157 0)
(0.71626676 -0.0025772962 0)
(0.72035889 -0.002548899 0)
(0.72441549 -0.0025100458 0)
(0.72845653 -0.0025131747 0)
(0.73245526 -0.0025390344 0)
(0.73636974 -0.0025267336 0)
(0.74022201 -0.0025008982 0)
(0.74404478 -0.0024985205 0)
(0.74785073 -0.0024903461 0)
(0.75167666 -0.0024709421 0)
(0.75555933 -0.0024727896 0)
(0.75948767 -0.0024811793 0)
(0.76342063 -0.0024463623 0)
(0.7673441 -0.002395465 0)
(0.77122764 -0.0023700631 0)
(0.77504232 -0.0023550585 0)
(0.77882878 -0.0023150182 0)
(0.78262948 -0.0022729495 0)
(0.78645892 -0.0022453099 0)
(0.79031411 -0.002262956 0)
(0.79417737 -0.0022546868 0)
(0.79803758 -0.0022345951 0)
(0.80180235 -0.0022203183 0)
(0.80533997 -0.0021737194 0)
(0.80861938 -0.0021170419 0)
(0.81170273 -0.0020908716 0)
(0.81471987 -0.0021211364 0)
(0.81784607 -0.0021765343 0)
(0.8212355 -0.0022143197 0)
(0.824924 -0.0022285429 0)
(0.82879651 -0.002165289 0)
(0.83268821 -0.0019927151 0)
(0.83646469 -0.0018220209 0)
(0.83985126 -0.0016541502 0)
(0.84298908 -0.0015489199 0)
(0.84590543 -0.0015529242 0)
(0.84860819 -0.001549002 0)
(0.85119994 -0.0015655784 0)
(0.85381067 -0.0016763005 0)
(0.85651396 -0.001701603 0)
(0.85926981 -0.0016014894 0)
(0.86200988 -0.0014596568 0)
(0.86468822 -0.0011638199 0)
(0.86740634 -0.00076451249 0)
(0.87007461 -0.00041833362 0)
(0.87248449 -0.00022241587 0)
(0.87469918 -0.00026657994 0)
(0.87649695 -0.00053738596 0)
(0.87778899 -0.00085646674 0)
(0.87872779 -0.00097255 0)
(0.87953282 -0.00080211725 0)
(0.88025862 -0.00038128503 0)
(0.88088988 0.00012633922 0)
(0.88174041 0.00070476768 0)
(0.88263984 0.001131577 0)
(0.88328173 0.0014743789 0)
(0.88366086 0.0017158351 0)
(0.8838137 0.0015439492 0)
(0.88415151 0.00076011051 0)
(0.88523866 -0.00046483554 0)
(0.88723731 -0.0015999134 0)
(0.8897063 -0.0023000945 0)
(0.89241505 -0.0027189798 0)
(0.89540968 -0.0030460703 0)
(0.89873067 -0.0033873952 0)
(0.90253129 -0.0038121682 0)
(0.90689392 -0.0043087155 0)
(0.91160707 -0.004746716 0)
(0.91672945 -0.0049829252 0)
(0.92248577 -0.0050728494 0)
(0.92904391 -0.0051165359 0)
(0.9367762 -0.0051814338 0)
(0.94529198 -0.0052613 0)
(0.95384836 -0.0053142213 0)
(0.96194368 -0.0053418165 0)
(0.96971468 -0.005338595 0)
(0.97771197 -0.0052873872 0)
(0.98627818 -0.0052124051 0)
(0.99533938 -0.0051207061 0)
(1.0045597 -0.0049550135 0)
(1.013409 -0.0047585296 0)
(1.021366 -0.0045993857 0)
(1.0282961 -0.0044994511 0)
(1.0345827 -0.004481005 0)
(1.0408935 -0.0045404521 0)
(1.047852 -0.0046493749 0)
(1.0558166 -0.0047138704 0)
(1.0647157 -0.0045312803 0)
(1.0740159 -0.0038560336 0)
(1.0828721 -0.0027904523 0)
(1.0904651 -0.001800905 0)
(1.0964025 -0.001280295 0)
(1.1010035 -0.0012996035 0)
(1.1050645 -0.0017801328 0)
(1.1091397 -0.0025556959 0)
(1.1131506 -0.0033714556 0)
(1.1169041 -0.0040438594 0)
(1.1205202 -0.0046260409 0)
(1.122657 -0.0022052243 0)
(1.1208727 0.00054094655 0)
(1.1154393 0.0047416262 0)
(1.1055121 0.010087359 0)
(1.08891 0.017016341 0)
(1.0616969 0.025378204 0)
(1.0196514 0.035291456 0)
(0.95612888 0.046042913 0)
(0.86333566 0.061361583 0)
(0.73912199 0.074411316 0)
(0.58320456 0.094403453 0)
(0.40821722 0.078450752 0)
(0.19946272 0.013115667 0)
(0.13378663 0.044643173 0)
(0.00036614284 -0.0032250239 0)
(0.0041805971 -0.0063417622 0)
(0.0096457531 -0.0074234541 0)
(0.015219061 -0.0078604967 0)
(0.020993958 -0.0080103789 0)
(0.026810689 -0.0080573691 0)
(0.032645541 -0.0080723634 0)
(0.038473602 -0.0080704926 0)
(0.044306678 -0.0080787651 0)
(0.050101985 -0.0080540752 0)
(0.055874936 -0.0080141136 0)
(0.061632576 -0.0079698338 0)
(0.067378727 -0.0079278425 0)
(0.073114073 -0.0078904352 0)
(0.078846416 -0.0078602755 0)
(0.084568003 -0.0078331152 0)
(0.090308772 -0.0078158412 0)
(0.096006544 -0.0077912223 0)
(0.10179565 -0.0077883867 0)
(0.10742281 -0.0077715343 0)
(0.11334058 -0.0077475406 0)
(0.1188226 -0.0078418315 0)
(0.12493769 -0.00757925 0)
(0.1302731 -0.0081228315 0)
(0.13652081 -0.0072596296 0)
(0.14183631 -0.0083802115 0)
(0.14809167 -0.0073449733 0)
(0.15357761 -0.0079098711 0)
(0.15945835 -0.0081729257 0)
(0.16571355 -0.0073282658 0)
(0.17090977 -0.0081514524 0)
(0.17724306 -0.0080652746 0)
(0.18342731 -0.007568262 0)
(0.18862541 -0.0080323966 0)
(0.19492878 -0.0081864186 0)
(0.20138155 -0.0078081843 0)
(0.20677871 -0.0079804331 0)
(0.21272645 -0.0080938675 0)
(0.21920358 -0.0080635153 0)
(0.22522928 -0.0081961512 0)
(0.23112926 -0.0079656193 0)
(0.23711855 -0.0080139747 0)
(0.24328253 -0.0083066376 0)
(0.24970814 -0.0082734999 0)
(0.25586525 -0.0080252839 0)
(0.26166226 -0.0081022114 0)
(0.26774759 -0.0081916602 0)
(0.27422328 -0.0082641177 0)
(0.2806006 -0.0083394936 0)
(0.28674069 -0.0081727274 0)
(0.29260332 -0.0079210483 0)
(0.29867333 -0.0082269722 0)
(0.30523551 -0.008292118 0)
(0.31153683 -0.0082753445 0)
(0.31771927 -0.0081997389 0)
(0.32387007 -0.0079363747 0)
(0.32969833 -0.0080780307 0)
(0.33596513 -0.0080817098 0)
(0.34241961 -0.0081372576 0)
(0.34855226 -0.008139758 0)
(0.35463222 -0.0081189009 0)
(0.36098706 -0.0079420366 0)
(0.36689775 -0.0077489176 0)
(0.37259623 -0.0078535311 0)
(0.37887433 -0.0079304589 0)
(0.38526805 -0.0080649325 0)
(0.39144103 -0.0078477614 0)
(0.39721847 -0.0077328115 0)
(0.40309525 -0.0078027615 0)
(0.40931319 -0.0075362501 0)
(0.41508361 -0.0075421922 0)
(0.42078856 -0.0077384586 0)
(0.42705469 -0.0076330591 0)
(0.43308422 -0.0075199037 0)
(0.43868691 -0.0076114416 0)
(0.44463009 -0.0075619287 0)
(0.45072968 -0.0073787599 0)
(0.45638965 -0.0073913911 0)
(0.46199497 -0.0073222081 0)
(0.46778369 -0.0070576395 0)
(0.47333456 -0.007261765 0)
(0.47910373 -0.0075459422 0)
(0.4853502 -0.0072723226 0)
(0.49101882 -0.0071786987 0)
(0.49631241 -0.0072946414 0)
(0.50216648 -0.0070106981 0)
(0.50794471 -0.0069545979 0)
(0.513314 -0.007059205 0)
(0.5187355 -0.0068064753 0)
(0.52419289 -0.0067456006 0)
(0.52970882 -0.0071340415 0)
(0.5356052 -0.0071945965 0)
(0.54143536 -0.0068781804 0)
(0.54671614 -0.006842778 0)
(0.55198498 -0.006837038 0)
(0.55755095 -0.0066257489 0)
(0.56302095 -0.0066529264 0)
(0.56833648 -0.0067610533 0)
(0.57373285 -0.0066079322 0)
(0.5790604 -0.0064327075 0)
(0.58424834 -0.00660772 0)
(0.58963717 -0.006753377 0)
(0.59526495 -0.0066494328 0)
(0.60075687 -0.0065410145 0)
(0.60594245 -0.0065791381 0)
(0.6111066 -0.0065078591 0)
(0.61650611 -0.0063041551 0)
(0.62179708 -0.00633342 0)
(0.62691773 -0.0065146302 0)
(0.63217279 -0.0063054137 0)
(0.63737977 -0.0060862186 0)
(0.64230391 -0.0061870347 0)
(0.64737027 -0.0063777171 0)
(0.65288218 -0.0063126501 0)
(0.65830624 -0.0062523883 0)
(0.66331613 -0.0062108628 0)
(0.6682321 -0.0060718272 0)
(0.67326704 -0.0059335401 0)
(0.6783299 -0.0059523891 0)
(0.68327768 -0.0061047333 0)
(0.68840216 -0.0062125359 0)
(0.69375175 -0.0060698547 0)
(0.69882439 -0.0059223053 0)
(0.70354009 -0.0058640585 0)
(0.70838226 -0.005836442 0)
(0.71341673 -0.0057228984 0)
(0.71831969 -0.0057316012 0)
(0.72314164 -0.0058709593 0)
(0.72820706 -0.0058524326 0)
(0.73329817 -0.0057271644 0)
(0.73797266 -0.0056773628 0)
(0.74256351 -0.0057208006 0)
(0.74755532 -0.0058225577 0)
(0.75274586 -0.0059341936 0)
(0.75788002 -0.0059697218 0)
(0.76296708 -0.0058582713 0)
(0.76787362 -0.0056284795 0)
(0.77253533 -0.0054363859 0)
(0.7770854 -0.0052659462 0)
(0.78156961 -0.0052651811 0)
(0.78615349 -0.0054114452 0)
(0.79103709 -0.0056245975 0)
(0.79605144 -0.0057509524 0)
(0.80098214 -0.0057696149 0)
(0.80584838 -0.0057428745 0)
(0.81067675 -0.0057019959 0)
(0.81551787 -0.0056293306 0)
(0.82044235 -0.0055234558 0)
(0.82526332 -0.005410077 0)
(0.82992135 -0.0053461731 0)
(0.83455623 -0.0052217259 0)
(0.8391383 -0.0051464845 0)
(0.84368305 -0.0052024115 0)
(0.84826461 -0.0053266047 0)
(0.85296706 -0.0053527733 0)
(0.85773374 -0.0053848157 0)
(0.86247428 -0.0054971843 0)
(0.867232 -0.005447485 0)
(0.8718519 -0.0053201118 0)
(0.87640042 -0.0053184967 0)
(0.88101435 -0.0053369087 0)
(0.88566221 -0.005440263 0)
(0.89044244 -0.0054711837 0)
(0.89531136 -0.0055386013 0)
(0.90032261 -0.0055242194 0)
(0.90551159 -0.0053578017 0)
(0.91044972 -0.0051049321 0)
(0.91493257 -0.004680235 0)
(0.91898889 -0.0042506222 0)
(0.92270195 -0.0040572957 0)
(0.92633101 -0.0040721503 0)
(0.93017414 -0.0044571321 0)
(0.93455715 -0.0049392313 0)
(0.93943131 -0.005338791 0)
(0.94452868 -0.0057003263 0)
(0.94970737 -0.005653277 0)
(0.95472924 -0.0053305431 0)
(0.95953201 -0.0050350379 0)
(0.96418382 -0.0045721124 0)
(0.9683489 -0.0040717974 0)
(0.97199335 -0.0038181383 0)
(0.97562129 -0.0036583718 0)
(0.97938257 -0.0036778007 0)
(0.98323401 -0.0037885613 0)
(0.98708553 -0.0037747812 0)
(0.99081069 -0.0039018781 0)
(0.99449989 -0.0041850564 0)
(0.99850171 -0.0045677623 0)
(1.0032047 -0.0047606142 0)
(1.0085831 -0.0045850108 0)
(1.0142012 -0.0038358609 0)
(1.0193775 -0.0025769555 0)
(1.0234655 -0.0014805181 0)
(1.0263597 -0.00080049 0)
(1.0283835 -0.00061630112 0)
(1.0300092 -0.00095333963 0)
(1.0317523 -0.0016363542 0)
(1.0341124 -0.0023774696 0)
(1.0372751 -0.0027190593 0)
(1.0410248 -0.0025603544 0)
(1.0453933 -0.002172883 0)
(1.0503295 -0.0018972844 0)
(1.0555012 -0.002089201 0)
(1.0606722 -0.0025934994 0)
(1.0649628 -0.0028351532 0)
(1.0684566 -0.0029096086 0)
(1.0712811 -0.003079276 0)
(1.0736022 -0.0033710474 0)
(1.0752733 -0.0038155033 0)
(1.0761651 -0.0043639598 0)
(1.0764084 -0.004747532 0)
(1.0762573 -0.0048911004 0)
(1.0761949 -0.0058427877 0)
(1.0776663 -0.0073536919 0)
(1.0812824 -0.0093728165 0)
(1.0868696 -0.011174563 0)
(1.0932305 -0.011860381 0)
(1.0989711 -0.011376608 0)
(1.103721 -0.010627347 0)
(1.1086961 -0.01058754 0)
(1.1150456 -0.011409898 0)
(1.1227523 -0.012569886 0)
(1.1315265 -0.013390973 0)
(1.1409354 -0.013267759 0)
(1.1497299 -0.012209529 0)
(1.1569131 -0.010555865 0)
(1.1625659 -0.0089354839 0)
(1.1675659 -0.008149251 0)
(1.1729215 -0.0086817761 0)
(1.1794325 -0.010286553 0)
(1.1877215 -0.012253414 0)
(1.1976556 -0.013832351 0)
(1.2083834 -0.014623492 0)
(1.2181458 -0.013979173 0)
(1.2256822 -0.011985833 0)
(1.2311011 -0.0095274739 0)
(1.2358663 -0.0076247306 0)
(1.2412172 -0.0065326471 0)
(1.247206 -0.0056591482 0)
(1.2528198 -0.0047127859 0)
(1.2589116 -0.0030604793 0)
(1.263616 -0.0013026923 0)
(1.2684747 0.0017158255 0)
(1.2698945 0.0067682311 0)
(1.2678855 0.0094828234 0)
(1.2641402 0.016090298 0)
(1.2510063 0.024618647 0)
(1.2411519 0.042799482 0)
(1.2138098 0.066717173 0)
(1.1699375 0.11806952 0)
(1.0883657 0.15226526 0)
(0.99171184 0.22201293 0)
(0.82315822 0.22891274 0)
(0.66789812 0.28138044 0)
(0.34840359 0.28454995 0)
(0.1901593 0.28708652 0)
(0.00037728258 -0.0054429228 0)
(0.0041760085 -0.010990494 0)
(0.009557872 -0.01284753 0)
(0.015084129 -0.013501303 0)
(0.020816902 -0.013732237 0)
(0.026588365 -0.013807842 0)
(0.032369853 -0.013824565 0)
(0.038153271 -0.013822491 0)
(0.043928997 -0.01381186 0)
(0.04969911 -0.013800537 0)
(0.055465949 -0.013793981 0)
(0.06122996 -0.013794147 0)
(0.066992125 -0.013800584 0)
(0.07275159 -0.013812123 0)
(0.078516789 -0.013826586 0)
(0.084268896 -0.013844776 0)
(0.090057538 -0.013863614 0)
(0.095767061 -0.013892636 0)
(0.10165428 -0.01390449 0)
(0.10720044 -0.013967939 0)
(0.11337855 -0.013920847 0)
(0.11853421 -0.014121748 0)
(0.1252147 -0.013827761 0)
(0.12993235 -0.014470722 0)
(0.13688051 -0.013542728 0)
(0.14175235 -0.014906608 0)
(0.14818319 -0.013559161 0)
(0.15387416 -0.014545641 0)
(0.15956042 -0.014634383 0)
(0.16585708 -0.013721773 0)
(0.17129646 -0.014839113 0)
(0.17753344 -0.014723111 0)
(0.18355936 -0.014108111 0)
(0.18908865 -0.014576326 0)
(0.19544561 -0.015165696 0)
(0.20157239 -0.014594768 0)
(0.20717802 -0.014437724 0)
(0.2134209 -0.014942272 0)
(0.21960044 -0.015307462 0)
(0.22567537 -0.0150189 0)
(0.23172344 -0.014476845 0)
(0.23764956 -0.015091379 0)
(0.24401429 -0.015577775 0)
(0.25039904 -0.015351533 0)
(0.25629203 -0.014830359 0)
(0.26230949 -0.015016949 0)
(0.26875721 -0.015295862 0)
(0.27496233 -0.015737101 0)
(0.2811914 -0.015663125 0)
(0.28755684 -0.014944618 0)
(0.29341597 -0.014703018 0)
(0.29955401 -0.01576477 0)
(0.30622113 -0.015767015 0)
(0.31248437 -0.01550341 0)
(0.31852269 -0.015299029 0)
(0.32478801 -0.01493366 0)
(0.33057402 -0.015214236 0)
(0.33708659 -0.015446859 0)
(0.34363663 -0.015682195 0)
(0.34966177 -0.015287919 0)
(0.35559155 -0.015358934 0)
(0.36190544 -0.015178251 0)
(0.36799161 -0.014617894 0)
(0.37380776 -0.014943783 0)
(0.38015164 -0.015564046 0)
(0.38674984 -0.015579592 0)
(0.39274572 -0.014824822 0)
(0.39806325 -0.014800113 0)
(0.40422689 -0.014974568 0)
(0.41075604 -0.014638137 0)
(0.41635688 -0.014659254 0)
(0.42217734 -0.014952118 0)
(0.42867709 -0.014930238 0)
(0.43459365 -0.014671667 0)
(0.44000383 -0.014642219 0)
(0.44593558 -0.014723762 0)
(0.4520082 -0.014585732 0)
(0.45772463 -0.014404707 0)
(0.46359909 -0.014080196 0)
(0.46940831 -0.013989311 0)
(0.47491833 -0.014502359 0)
(0.48100556 -0.014823941 0)
(0.48714635 -0.0144399 0)
(0.49237925 -0.01417904 0)
(0.4977351 -0.014060625 0)
(0.50364513 -0.014012826 0)
(0.50939862 -0.014154513 0)
(0.51519855 -0.01380772 0)
(0.52078169 -0.013323905 0)
(0.52592452 -0.013756906 0)
(0.53150035 -0.014490964 0)
(0.53773374 -0.014384514 0)
(0.54334512 -0.013748029 0)
(0.54829595 -0.013620417 0)
(0.55369252 -0.013578844 0)
(0.55929223 -0.013519573 0)
(0.56473569 -0.013622947 0)
(0.57038008 -0.013624528 0)
(0.57601472 -0.013298599 0)
(0.58110389 -0.013133314 0)
(0.58611673 -0.01347361 0)
(0.59176241 -0.013784923 0)
(0.59753831 -0.013665334 0)
(0.60281122 -0.013419701 0)
(0.60792883 -0.01327148 0)
(0.61330818 -0.013226361 0)
(0.61867252 -0.013080984 0)
(0.62372745 -0.013192015 0)
(0.62908814 -0.01331449 0)
(0.63465228 -0.012906267 0)
(0.63961091 -0.012583931 0)
(0.64433546 -0.012904577 0)
(0.64963705 -0.013328156 0)
(0.65528259 -0.013256791 0)
(0.66066059 -0.013097239 0)
(0.66584427 -0.012910561 0)
(0.67089759 -0.012549774 0)
(0.67581621 -0.01240962 0)
(0.68077425 -0.012669663 0)
(0.68580754 -0.013031954 0)
(0.69105757 -0.013078078 0)
(0.69633732 -0.012791704 0)
(0.70124375 -0.012524694 0)
(0.70586456 -0.012389989 0)
(0.71074005 -0.012299238 0)
(0.71580745 -0.012205199 0)
(0.72076704 -0.012472142 0)
(0.72594762 -0.012706208 0)
(0.73136712 -0.012538351 0)
(0.7365407 -0.012187804 0)
(0.7411588 -0.011990472 0)
(0.74555923 -0.012142644 0)
(0.75028503 -0.012497312 0)
(0.75538725 -0.01277778 0)
(0.76059765 -0.012865896 0)
(0.7658084 -0.012512143 0)
(0.77078118 -0.011985846 0)
(0.77544978 -0.011614184 0)
(0.78005151 -0.011455051 0)
(0.78465395 -0.011520431 0)
(0.78935922 -0.011915498 0)
(0.79440077 -0.012296317 0)
(0.79956301 -0.012382352 0)
(0.8044246 -0.012289992 0)
(0.80906618 -0.012195996 0)
(0.8137036 -0.012082725 0)
(0.81841122 -0.012196003 0)
(0.82328633 -0.012200145 0)
(0.82821794 -0.011898192 0)
(0.83310422 -0.011671779 0)
(0.83803934 -0.011576178 0)
(0.84276386 -0.011460916 0)
(0.84733514 -0.011478212 0)
(0.85206893 -0.011724889 0)
(0.85688085 -0.011862363 0)
(0.86159457 -0.011810334 0)
(0.8664447 -0.011850594 0)
(0.87146909 -0.011747568 0)
(0.87613643 -0.011474368 0)
(0.88055977 -0.011361664 0)
(0.88505832 -0.01135059 0)
(0.88941214 -0.011528261 0)
(0.89368582 -0.011781368 0)
(0.89809415 -0.012072886 0)
(0.90294237 -0.012331462 0)
(0.90832442 -0.012231314 0)
(0.91366083 -0.011618247 0)
(0.91872416 -0.010639561 0)
(0.92355536 -0.0097364795 0)
(0.92784295 -0.0092828778 0)
(0.93172521 -0.0093833692 0)
(0.93562666 -0.010181636 0)
(0.93973942 -0.011242186 0)
(0.94437465 -0.012121344 0)
(0.94954505 -0.012439773 0)
(0.95450839 -0.012082891 0)
(0.9591372 -0.011535391 0)
(0.96385628 -0.011007082 0)
(0.96849168 -0.010209568 0)
(0.97266293 -0.0091739169 0)
(0.97656226 -0.0086883748 0)
(0.98048491 -0.0088131229 0)
(0.98448821 -0.0092263541 0)
(0.9887971 -0.0094392331 0)
(0.99302472 -0.0092709747 0)
(0.99712896 -0.0090164976 0)
(1.0011373 -0.0089010641 0)
(1.0047474 -0.0094584044 0)
(1.0085704 -0.010268415 0)
(1.0128708 -0.01086821 0)
(1.017483 -0.010706072 0)
(1.0222195 -0.0095092001 0)
(1.0265528 -0.0077475826 0)
(1.030842 -0.0058798253 0)
(1.0348263 -0.0044884283 0)
(1.0377888 -0.0038791797 0)
(1.0404182 -0.0039254054 0)
(1.043431 -0.0046799201 0)
(1.046642 -0.0057774238 0)
(1.0504147 -0.0068199756 0)
(1.0550647 -0.0077753417 0)
(1.0599387 -0.0085935586 0)
(1.0643946 -0.0093608443 0)
(1.0684815 -0.0097231132 0)
(1.0721198 -0.0092622071 0)
(1.074917 -0.008419466 0)
(1.0770619 -0.0076259323 0)
(1.0790221 -0.0067442352 0)
(1.0811179 -0.0057366611 0)
(1.0830476 -0.0049993326 0)
(1.0839575 -0.0046565389 0)
(1.0840452 -0.0047756449 0)
(1.0847765 -0.0064594462 0)
(1.0873853 -0.01008365 0)
(1.0915183 -0.013907018 0)
(1.0974297 -0.016860854 0)
(1.1038883 -0.017275667 0)
(1.10903 -0.015730054 0)
(1.1126012 -0.015118418 0)
(1.1163539 -0.016370051 0)
(1.1214769 -0.018678998 0)
(1.1274911 -0.021326137 0)
(1.1338168 -0.022924997 0)
(1.1402615 -0.022408731 0)
(1.1471069 -0.020124202 0)
(1.1555783 -0.01719975 0)
(1.165906 -0.01519989 0)
(1.1762513 -0.015143758 0)
(1.1847112 -0.016872975 0)
(1.1911421 -0.019663964 0)
(1.1969191 -0.022730114 0)
(1.203535 -0.024654327 0)
(1.211325 -0.023606403 0)
(1.2192151 -0.019412718 0)
(1.2259877 -0.014471815 0)
(1.2319903 -0.011516406 0)
(1.2392 -0.011552158 0)
(1.2488367 -0.01348392 0)
(1.2594327 -0.015098616 0)
(1.2683832 -0.016144662 0)
(1.2753348 -0.016124606 0)
(1.2815207 -0.015471902 0)
(1.2877687 -0.010419676 0)
(1.2931721 -0.0011584012 0)
(1.297188 0.010307581 0)
(1.2981608 0.023032219 0)
(1.2928357 0.038354909 0)
(1.294553 0.060592141 0)
(1.2764944 0.10149149 0)
(1.2492372 0.18245164 0)
(1.1697676 0.25738595 0)
(1.1032957 0.38058495 0)
(0.97060754 0.46940087 0)
(0.75973163 0.57660272 0)
(0.405907 0.53421843 0)
(0.21351827 0.57012616 0)
(0.00039537678 -0.0077044152 0)
(0.0042074429 -0.015623906 0)
(0.0095897481 -0.018257299 0)
(0.015125796 -0.019177041 0)
(0.020869585 -0.019500164 0)
(0.026649795 -0.019603852 0)
(0.032439741 -0.019626406 0)
(0.038227854 -0.019617972 0)
(0.044010534 -0.019600989 0)
(0.049786638 -0.019581338 0)
(0.055557195 -0.019561026 0)
(0.061323133 -0.01954184 0)
(0.067085786 -0.019523771 0)
(0.072844029 -0.019507787 0)
(0.078604218 -0.019493568 0)
(0.084353081 -0.019486495 0)
(0.090127715 -0.019474942 0)
(0.095845445 -0.019490615 0)
(0.10168938 -0.019458789 0)
(0.10729311 -0.019543689 0)
(0.11334656 -0.019415285 0)
(0.11866394 -0.01968643 0)
(0.12511631 -0.019301933 0)
(0.1300466 -0.019961428 0)
(0.13682022 -0.019101264 0)
(0.14173496 -0.02028221 0)
(0.14821207 -0.019146141 0)
(0.15378672 -0.0200002 0)
(0.15958966 -0.020066317 0)
(0.16569982 -0.019282585 0)
(0.17134625 -0.020319291 0)
(0.17748193 -0.0201942 0)
(0.18331716 -0.019602063 0)
(0.189138 -0.020118008 0)
(0.19548007 -0.020733132 0)
(0.20127355 -0.020036259 0)
(0.20702193 -0.019909039 0)
(0.21356803 -0.020669981 0)
(0.21948851 -0.020864215 0)
(0.22537591 -0.02036594 0)
(0.23158918 -0.020024433 0)
(0.23764146 -0.020968949 0)
(0.24409899 -0.021063839 0)
(0.25017299 -0.020733295 0)
(0.25590593 -0.020342145 0)
(0.26216922 -0.020921257 0)
(0.26910474 -0.020777453 0)
(0.27482767 -0.021252848 0)
(0.28081172 -0.021226831 0)
(0.28729203 -0.020414688 0)
(0.29333192 -0.020272042 0)
(0.29978672 -0.021543932 0)
(0.30619729 -0.02123097 0)
(0.31224289 -0.020915459 0)
(0.31811203 -0.020781044 0)
(0.32474126 -0.020326098 0)
(0.33053065 -0.020630418 0)
(0.3371889 -0.021246549 0)
(0.34366267 -0.021319706 0)
(0.34949057 -0.020177086 0)
(0.35525746 -0.020604632 0)
(0.36162337 -0.020703717 0)
(0.36801767 -0.01993562 0)
(0.37388197 -0.020287044 0)
(0.38011191 -0.021189607 0)
(0.38683922 -0.020848304 0)
(0.39258646 -0.019511057 0)
(0.39753891 -0.019698732 0)
(0.40405431 -0.020436125 0)
(0.41086479 -0.020074633 0)
(0.41632647 -0.019568897 0)
(0.42204902 -0.020026417 0)
(0.42863892 -0.020312969 0)
(0.43464345 -0.019448028 0)
(0.43986821 -0.019130664 0)
(0.44563941 -0.019655042 0)
(0.45169065 -0.019724696 0)
(0.45754504 -0.019329292 0)
(0.46351776 -0.018881151 0)
(0.46927419 -0.018941301 0)
(0.47498072 -0.019430852 0)
(0.48128769 -0.019512179 0)
(0.48705628 -0.01903615 0)
(0.4919797 -0.018529891 0)
(0.49742582 -0.018381612 0)
(0.50321768 -0.018890776 0)
(0.50903581 -0.019260686 0)
(0.51521123 -0.018421653 0)
(0.52090704 -0.017622355 0)
(0.52590287 -0.018170838 0)
(0.53155318 -0.019160149 0)
(0.53786843 -0.018952896 0)
(0.54320524 -0.01796486 0)
(0.54785446 -0.017661898 0)
(0.55319893 -0.017708307 0)
(0.55879029 -0.018032468 0)
(0.56440655 -0.01828435 0)
(0.57037534 -0.018114022 0)
(0.57617252 -0.017399374 0)
(0.58118056 -0.017098263 0)
(0.58610777 -0.017630604 0)
(0.59175172 -0.018135037 0)
(0.59740627 -0.017919282 0)
(0.60251864 -0.017559964 0)
(0.60752704 -0.017254914 0)
(0.61297376 -0.017157038 0)
(0.61841705 -0.01706329 0)
(0.6233859 -0.017415677 0)
(0.62888186 -0.017377372 0)
(0.63470571 -0.016732627 0)
(0.63962383 -0.016334711 0)
(0.64417114 -0.016681461 0)
(0.64953005 -0.017207888 0)
(0.65517558 -0.017494311 0)
(0.66039006 -0.017331247 0)
(0.66564563 -0.016759293 0)
(0.67088339 -0.016097183 0)
(0.67574629 -0.016050287 0)
(0.68047127 -0.016361249 -1.3696544e-34)
(0.68553746 -0.016793422 -8.0603411e-30)
(0.69096085 -0.016773351 0)
(0.69616456 -0.016486354 0)
(0.70085482 -0.016001456 0)
(0.70549204 -0.015839652 0)
(0.7105511 -0.015817168 0)
(0.71554693 -0.015928252 0)
(0.7202909 -0.016364491 0)
(0.72568747 -0.016726261 0)
(0.73155639 -0.016444366 -1.3491801e-34)
(0.73686525 -0.015844643 -6.9529469e-30)
(0.74139698 -0.015123556 -1.24e-34)
(0.74574054 -0.01514549 -7.2088492e-30)
(0.75026368 -0.015781405 0)
(0.75495321 -0.016416221 0)
(0.75992014 -0.016687136 0)
(0.76521959 -0.016279702 0)
(0.77034221 -0.015375506 0)
(0.77506608 -0.014799338 0)
(0.77974695 -0.014739233 -1.1457754e-34)
(0.78443563 -0.014942063 -6.2927657e-30)
(0.78918328 -0.015433732 0)
(0.79437842 -0.015993003 0)
(0.79967604 -0.015986499 0)
(0.80452797 -0.015642465 0)
(0.80916591 -0.015307307 0)
(0.81361331 -0.015104809 0)
(0.81797989 -0.0153487 0)
(0.82271706 -0.015696031 0)
(0.82772244 -0.015623982 0)
(0.83278039 -0.015343677 0)
(0.8379796 -0.015006557 -1.0027469e-34)
(0.84296398 -0.014768897 -5.4865924e-30)
(0.84760665 -0.014793707 0)
(0.8522129 -0.014953682 0)
(0.85680117 -0.015135956 0)
(0.86133778 -0.015274945 0)
(0.86603009 -0.015427129 0)
(0.87080511 -0.015176284 0)
(0.87551137 -0.014722334 0)
(0.8803967 -0.014548754 0)
(0.88513781 -0.014350678 8.4236787e-35)
(0.88950491 -0.014141661 4.5221341e-30)
(0.89369527 -0.01430309 0)
(0.89783114 -0.014936604 0)
(0.90236849 -0.015845958 7.9714561e-35)
(0.90724199 -0.016282597 4.3170759e-30)
(0.91239737 -0.015706936 0)
(0.91805192 -0.014723722 0)
(0.92336892 -0.013612579 0)
(0.9281205 -0.012448391 0)
(0.93291645 -0.012085001 7.6356286e-35)
(0.93743131 -0.012679101 4.1125912e-30)
(0.94148086 -0.013763056 0)
(0.9457101 -0.015183887 0)
(0.9501602 -0.015798263 0)
(0.95435177 -0.015291652 0)
(0.95835955 -0.014837312 0)
(0.96247329 -0.014425488 0)
(0.96654438 -0.013475454 0)
(0.97071533 -0.012289879 0)
(0.97513527 -0.011695288 0)
(0.97977249 -0.011644741 0)
(0.98435352 -0.012043868 0)
(0.98900279 -0.012141101 0)
(0.99358744 -0.012053674 0)
(0.99801654 -0.011967882 0)
(1.0021833 -0.011705673 0)
(1.0059394 -0.01220147 0)
(1.0098526 -0.013150815 0)
(1.0138226 -0.013643546 0)
(1.0175731 -0.013306649 0)
(1.0210736 -0.012051823 0)
(1.024474 -0.01039769 0)
(1.0283147 -0.0090237077 0)
(1.0325125 -0.0076830183 0)
(1.0367239 -0.0065947856 0)
(1.0410841 -0.0070534489 0)
(1.0455458 -0.0084503476 0)
(1.0500729 -0.0098085783 0)
(1.054704 -0.011006559 0)
(1.0593714 -0.011538262 0)
(1.0637351 -0.01127827 0)
(1.0671908 -0.011062388 0)
(1.069258 -0.010812162 0)
(1.0701086 -0.0097045155 0)
(1.0701676 -0.0083604976 0)
(1.0705683 -0.0076337125 0)
(1.0718938 -0.0077810418 0)
(1.0740848 -0.008134955 0)
(1.0770171 -0.0074339014 0)
(1.0801495 -0.0059915948 0)
(1.0830364 -0.0061110507 0)
(1.0861126 -0.0090286582 -4.7921715e-36)
(1.0903893 -0.014146306 -1.4450072e-30)
(1.095246 -0.019536651 0)
(1.1000409 -0.023392305 0)
(1.1042118 -0.023054684 0)
(1.1075558 -0.019658376 0)
(1.1106845 -0.018020454 0)
(1.1152687 -0.019711344 0)
(1.1220659 -0.023006431 0)
(1.1276221 -0.025498907 0)
(1.1329188 -0.026789993 0)
(1.1390935 -0.027266591 0)
(1.1452814 -0.028097941 0)
(1.1514729 -0.029112068 0)
(1.1593482 -0.028498066 0)
(1.169778 -0.025702593 0)
(1.1808143 -0.022799262 0)
(1.189519 -0.022507684 0)
(1.1955072 -0.025448091 -1.4954614e-34)
(1.200909 -0.029558353 -6.7828569e-30)
(1.2075481 -0.031570462 0)
(1.2155792 -0.029368178 0)
(1.2246081 -0.024524296 0)
(1.2349341 -0.021745976 0)
(1.2461056 -0.023228502 0)
(1.2566486 -0.025275462 0)
(1.2659816 -0.023381363 0)
(1.2738712 -0.018270166 0)
(1.2806261 -0.013820911 0)
(1.2881497 -0.01108377 0)
(1.2980288 -0.008040552 0)
(1.3063157 -0.0021095564 0)
(1.3095226 0.0090146585 8.5843535e-34)
(1.3099423 0.022859364 7.1493931e-29)
(1.3100575 0.032276565 -2.0492331e-33)
(1.3199285 0.049681298 -1.3480525e-28)
(1.3019265 0.10346202 0)
(1.2912798 0.19176421 0)
(1.2091434 0.26181058 9.0759122e-33)
(1.1544181 0.41100894 8.8878185e-28)
(1.0178997 0.57139829 2.2085045e-32)
(0.86501402 0.81735312 1.3690598e-27)