/*--------------------------------*- C++ -*----------------------------------*\
| =========                 |                                                 |
| \\      /  F ield         | OpenFOAM: The Open Source CFD Toolbox           |
|  \\    /   O peration     | Version:  2106                                  |
|   \\  /    A nd           | Website:  www.openfoam.com                      |
|    \\/     M anipulation  |                                                 |
\*---------------------------------------------------------------------------*/
FoamFile
{
    version     2.0;
    format      ascii;
    arch        "LSB;label=32;scalar=64";
    class       volScalarField;
    location    "0.21";
    object      p;
}
// * * * * * * * * * * * * * * * * * * * * * * * * * * * * * * * * * * * * * //

dimensions      [1 -1 -2 0 0 0 0];

internalField   nonuniform List<scalar> 
32768
(
236.77546
236.81923
236.85313
236.87699
236.8734
236.84
236.7757
236.67992
236.55306
236.39593
236.20926
235.99361
235.74977
235.47832
235.18036
234.8562
234.50663
234.13342
233.73152
233.31558
232.85692
232.40265
231.89649
231.37957
230.85517
230.26931
229.6946
229.09657
228.44051
227.79144
227.12729
226.40717
225.67434
224.93753
224.16078
223.35901
222.53234
221.68919
220.83372
219.94301
219.01587
218.08822
217.14992
216.17194
215.17196
214.17081
213.14176
212.08422
211.04618
209.97607
208.87178
207.77187
206.66153
205.54912
204.41417
203.27103
202.13298
200.9653
199.79254
198.64532
197.48688
196.29426
195.11337
193.9513
192.77029
191.57912
190.39161
189.21875
188.05922
186.87467
185.679
184.511
183.35166
182.17394
180.99525
179.84172
178.69626
177.52334
176.35548
175.22665
174.06934
172.89652
171.78284
170.65253
169.47752
168.35196
167.2526
166.10465
164.96696
163.87856
162.74969
161.59285
160.50385
159.42886
158.29128
157.15785
156.09043
155.00685
153.88197
152.80223
151.72837
150.61042
149.51301
148.45036
147.37474
146.28879
145.21458
144.14708
143.07992
141.99978
140.93656
139.90389
138.8339
137.74586
136.72169
135.69304
134.60957
133.56131
132.56698
131.5414
130.48412
129.4631
128.46666
127.45399
126.43517
125.41691
124.4145
123.43262
122.42204
121.39797
120.43379
119.49268
118.49631
117.49295
116.55805
115.62547
114.63661
113.6687
112.75576
111.82798
110.86742
109.93212
109.04089
108.12698
107.1879
106.286
105.41224
104.53089
103.64958
102.77227
101.89175
101.0195
100.16942
99.316747
98.451521
97.602597
96.793011
95.992166
95.148723
94.308604
93.50554
92.715702
91.910297
91.09539
90.318073
89.555735
88.774052
88.002693
87.25249
86.509324
85.771201
85.043888
84.313184
83.582851
82.875542
82.183779
81.482674
80.778933
80.097315
79.439933
78.787928
78.118998
77.458132
76.832764
76.211192
75.576805
74.947639
74.328438
73.723784
73.141056
72.563363
71.988344
71.419368
70.834106
70.281807
69.765048
69.208125
68.638703
68.100839
67.584446
67.090684
66.64518
66.229989
65.809926
65.386322
65.001161
64.645677
64.264639
63.884389
63.560019
63.294977
63.054487
62.85267
62.694214
62.552545
62.454752
62.452636
62.569697
62.83691
63.268221
63.774429
64.325014
65.057619
66.045654
67.361934
69.077335
71.329321
74.143225
77.784408
82.382082
87.950415
95.047313
103.32381
113.56723
125.72363
140.4735
157.65568
178.02766
201.37477
228.38866
258.76925
292.42778
329.03385
367.26133
406.5548
444.77489
480.18112
509.41072
528.67361
540.54746
546.94391
545.06221
543.17447
549.68251
575.91358
594.37414
228.00964
228.0513
228.0857
228.11084
228.10665
228.07317
228.00877
227.9131
227.78628
227.62887
227.44165
227.22533
226.98083
226.70868
226.41032
226.08543
225.73548
225.36122
224.9596
224.54138
224.08563
223.6268
223.12263
222.60828
222.07679
221.49728
220.92408
220.31399
219.66847
219.02311
218.34235
217.63112
216.90743
216.15677
215.37829
214.58668
213.75559
212.90992
212.05406
211.15957
210.23803
209.31219
208.36316
207.38255
206.39362
205.38732
204.34993
203.30263
202.26063
201.17589
200.08504
198.99077
197.86701
196.75389
195.62212
194.48025
193.33815
192.16983
191.00492
189.85213
188.68255
187.49916
186.32887
185.15275
183.96593
182.78885
181.60232
180.42291
179.25834
178.07489
176.89286
175.72413
174.54982
173.3741
172.20976
171.05767
169.89615
168.72207
167.57727
166.44194
165.26205
164.11112
163.00619
161.84847
160.68588
159.58526
158.45948
157.29562
156.19035
155.10283
153.95002
152.80832
151.73397
150.63486
149.49357
148.38994
147.3193
146.20421
145.09097
144.03246
142.94224
141.82151
140.74297
139.67425
138.58273
137.50332
136.44217
135.37282
134.28783
133.20962
132.16941
131.12028
130.0243
128.97308
127.96658
126.89595
125.808
124.79671
123.79205
122.736
121.69624
120.6985
119.68809
118.6635
117.64874
116.63507
115.64248
114.65504
113.62756
112.61614
111.67038
110.70743
109.69008
108.71795
107.80245
106.83778
105.83554
104.89891
103.99315
103.03789
102.0698
101.16016
100.2714
99.339284
98.400474
97.503197
96.624515
95.747244
94.868678
93.988763
93.118924
92.253262
91.392235
90.537495
89.673671
88.815088
88.004249
87.206148
86.363574
85.525982
84.72582
83.940655
83.129875
82.312219
81.541732
80.780167
79.999838
79.228631
78.470375
77.722751
76.985938
76.255158
75.528889
74.804624
74.093485
73.400916
72.704541
72.004407
71.320774
70.655111
70.005472
69.352215
68.695089
68.053818
67.42176
66.794851
66.170689
65.550993
64.947342
64.356542
63.776976
63.209786
62.636118
62.055657
61.495261
60.947254
60.392022
59.852171
59.332669
58.813458
58.317264
57.864405
57.434931
57.01515
56.607568
56.223325
55.843138
55.452569
55.07451
54.742497
54.459179
54.202657
53.993234
53.837383
53.719326
53.64874
53.631207
53.672748
53.863133
54.271837
54.757577
55.254832
55.923499
56.801898
58.02816
59.701695
61.826557
64.522201
67.945201
72.213508
77.609782
84.179913
92.22097
102.0085
113.61903
127.63823
144.29357
163.84638
186.43622
212.67523
242.07452
274.90346
310.62005
348.00868
386.68553
424.93342
461.39571
493.53871
520.26878
538.24781
541.33113
531.70705
521.87077
519.60553
541.08398
565.86566
219.20665
219.24863
219.28325
219.30839
219.3038
219.26977
219.20476
219.10835
218.98095
218.82317
218.63579
218.41949
218.17537
217.90344
217.60572
217.28037
216.93194
216.55587
216.15754
215.73564
215.28486
214.82115
214.32033
213.80784
213.27007
212.69901
212.12177
211.50717
210.87258
210.22064
209.53495
208.83461
208.10498
207.3483
206.58038
205.7815
204.94381
204.11188
203.24578
202.34215
201.43207
200.50504
199.54422
198.56695
197.58369
196.56274
195.52638
194.4962
193.4341
192.33958
191.26909
190.16292
189.03574
187.92913
186.79081
185.64849
184.50045
183.33343
182.17958
181.02054
179.83809
178.66716
177.49657
176.30417
175.13389
173.95931
172.76096
171.59268
170.42022
169.23025
168.06458
166.88895
165.70434
164.54454
163.39189
162.22564
161.04771
159.893
158.76634
157.59728
156.41664
155.31124
154.182
152.99576
151.87734
150.78074
149.60576
148.46463
147.40199
146.27117
145.09484
144.0076
142.93814
141.79488
140.66337
139.59537
138.49843
137.36012
136.28767
135.22917
134.10322
133.00408
131.9437
130.85427
129.76361
128.69987
127.63646
126.56036
125.46274
124.39291
123.37571
122.29517
121.18722
120.18933
119.17786
118.05318
116.99205
116.02623
114.9823
113.89392
112.89085
111.90638
110.86859
109.84379
108.84129
107.83667
106.84706
105.82895
104.79263
103.82958
102.88875
101.87182
100.86318
99.945866
99.007767
97.993975
97.02544
96.126087
95.184853
94.205284
93.277329
92.384157
91.453934
90.512784
89.612962
88.716898
87.816437
86.945697
86.073673
85.180388
84.317225
83.470448
82.587939
81.712196
80.87889
80.047592
79.213383
78.37549
77.553904
76.749121
75.926024
75.11022
74.320528
73.533812
72.749016
71.962155
71.200199
70.451548
69.677804
68.922447
68.195785
67.450312
66.711053
66.004907
65.300632
64.590516
63.889829
63.210974
62.538103
61.86116
61.18678
60.531427
59.909693
59.276842
58.622647
57.995596
57.377066
56.756555
56.161864
55.559422
54.955295
54.384961
53.814687
53.245942
52.698918
52.135425
51.563322
51.032677
50.528814
50.022169
49.523113
49.054838
48.616365
48.192854
47.778801
47.378654
46.988396
46.603265
46.235519
45.907062
45.614991
45.354281
45.133422
44.943983
44.783634
44.670157
44.626037
44.663864
44.814653
45.085098
45.423705
45.854971
46.446386
47.267259
48.377944
49.831749
51.668938
54.048564
57.069957
60.866331
65.742957
71.588061
78.952022
87.816823
98.462937
111.25992
126.64528
144.61378
165.57554
190.02797
217.39194
248.43548
282.10585
317.76861
355.04869
391.81545
427.92781
460.05703
486.13249
503.69269
511.99581
514.4974
516.91211
524.89338
545.53754
573.02737
210.36964
210.4114
210.44598
210.47103
210.46594
210.43115
210.36523
210.26783
210.13934
209.98042
209.79183
209.57428
209.3288
209.0556
208.75652
208.43014
208.08068
207.7033
207.30545
206.88028
206.43292
205.9646
205.46608
204.95458
204.41049
203.84651
203.26645
202.64672
202.02011
201.36368
200.67456
199.97703
199.24768
198.48714
197.71831
196.91676
196.08125
195.24877
194.37306
193.46913
192.56382
191.63223
190.66351
189.68617
188.70412
187.67343
186.64098
185.6153
184.53294
183.44109
182.3801
181.26132
180.1378
179.02816
177.88343
176.74245
175.58858
174.42738
173.27971
172.10737
170.92027
169.76036
168.58097
167.38706
166.22881
165.04633
163.85161
162.68451
161.49619
160.31952
159.16288
157.97317
156.79369
155.64162
154.48825
153.31965
152.13501
150.99207
149.87556
148.68624
147.51384
146.43111
145.28007
144.08585
142.99784
141.89642
140.69617
139.57547
138.52717
137.37079
136.19805
135.13618
134.0593
132.89522
131.77374
130.73078
129.61601
128.46126
127.42078
126.36009
125.20745
124.12711
123.08439
121.97723
120.88335
119.83371
118.76739
117.67715
116.58181
115.54142
114.51899
113.39761
112.31411
111.35679
110.30898
109.16119
108.145
107.1868
106.10116
105.01619
104.04301
103.04829
101.99514
100.97399
99.971143
98.982221
98.002917
96.95559
95.913194
94.99028
94.048525
92.98015
91.982658
91.120542
90.157955
89.096566
88.173381
87.320103
86.325832
85.310523
84.436236
83.573848
82.593229
81.629171
80.767985
79.893071
78.972552
78.08513
77.21929
76.345937
75.477875
74.61317
73.745972
72.87472
72.003828
71.180045
70.383066
69.534139
68.690714
67.89776
67.108709
66.288046
65.454588
64.677647
63.929295
63.12096
62.323989
61.590629
60.845757
60.077806
59.336356
58.623212
57.889155
57.146358
56.45246
55.76854
55.057545
54.364926
53.693181
53.035216
52.368097
51.680145
51.030837
50.401348
49.768286
49.168083
48.557991
47.923816
47.326053
46.745389
46.151513
45.552781
44.953048
44.381334
43.833223
43.270182
42.717736
42.193008
41.66798
41.143965
40.656686
40.201204
39.755326
39.328434
38.922846
38.529808
38.123867
37.714536
37.346537
37.008008
36.686843
36.419448
36.189683
35.96597
35.783623
35.670353
35.606113
35.595722
35.644262
35.770209
35.971092
36.272196
36.713473
37.362558
38.275819
39.480237
41.080376
43.017424
45.553532
48.702775
52.841479
57.889114
63.938211
71.812552
81.076992
92.195894
105.84177
121.63878
140.41787
162.34038
187.34436
215.86084
247.23931
281.89449
317.79676
354.17061
389.95576
423.10091
452.62872
477.45601
498.51471
514.8973
529.87042
545.40499
567.36649
592.39173
201.49799
201.53968
201.5741
201.59872
201.59289
201.55705
201.48989
201.39111
201.26114
201.10067
200.91056
200.69153
200.44461
200.17013
199.86991
199.54258
199.19245
198.8142
198.41642
197.99017
197.54362
197.07441
196.57593
196.06564
195.51854
194.95868
194.37645
193.75428
193.13404
192.4703
191.78355
191.08648
190.3557
189.59163
188.82433
188.01818
187.18489
186.34635
185.46859
184.56229
183.65708
182.72058
181.74532
180.76841
179.78313
178.74662
177.71632
176.68396
175.59112
174.50934
173.44053
172.3161
171.19744
170.07701
168.93348
167.79304
166.63231
165.47525
164.32651
163.14673
161.96408
160.8013
159.61375
158.43611
157.27059
156.0764
154.9019
153.72415
152.52366
151.3728
150.21137
149.00866
147.84602
146.69178
145.52664
144.36855
143.1917
142.04355
140.92739
139.74738
138.57851
137.49023
136.33747
135.15009
134.07119
132.95905
131.7549
130.65739
129.60202
128.4284
127.27613
126.22822
125.13579
123.9568
122.84593
121.81902
120.69419
119.54314
118.51437
117.43902
116.29318
115.22228
114.16435
113.06579
111.98369
110.91925
109.85941
108.77317
107.66537
106.64495
105.62257
104.475
103.41639
102.47877
101.3919
100.24794
99.274786
98.287891
97.173696
96.131079
95.163546
94.134382
93.101613
92.095718
91.055351
90.065061
89.113019
88.058521
87.018136
86.107488
85.146361
84.073738
83.094621
82.223443
81.243792
80.199941
79.296546
78.434867
77.446407
76.438147
75.548126
74.67681
73.709452
72.754782
71.871247
70.994083
70.103469
69.211961
68.317282
67.452507
66.609382
65.736458
64.853572
64.003785
63.147845
62.289736
61.463165
60.638371
59.823196
59.009942
58.202662
57.421441
56.621934
55.809089
55.0175
54.260757
53.493281
52.680684
51.920173
51.2194
50.461523
49.696655
48.99432
48.286788
47.568397
46.875728
46.193746
45.500552
44.820074
44.165208
43.498838
42.833135
42.186097
41.519766
40.865811
40.250427
39.643702
39.065962
38.486275
37.868779
37.277072
36.693535
36.075181
35.491092
34.935773
34.34397
33.78154
33.295388
32.794791
32.243565
31.738354
31.297016
30.855794
30.426965
30.018533
29.610903
29.196635
28.791
28.417076
28.065618
27.734298
27.445924
27.182559
26.929677
26.726703
26.581963
26.447561
26.3579
26.339055
26.390962
26.473217
26.627053
26.877907
27.258427
27.779912
28.462699
29.492377
30.998826
32.944036
35.294461
38.590309
42.440603
47.306186
53.569756
60.960688
70.494713
81.492149
94.899276
110.99936
129.61419
151.78307
177.18587
206.17085
239.34201
274.8544
311.93305
349.71594
386.52389
420.62576
452.67901
481.75897
508.59151
536.27215
564.27472
594.23614
615.10708
192.59189
192.63353
192.66765
192.69161
192.68478
192.64761
192.57888
192.47836
192.34653
192.18417
191.99215
191.7713
191.5226
191.24657
190.94474
190.61629
190.2647
189.8858
189.48702
189.06006
188.61353
188.14333
187.64508
187.13489
186.58629
186.02905
185.44395
184.8226
184.20396
183.53426
182.85383
182.15064
181.42032
180.65453
179.88722
179.07177
178.24728
177.39615
176.51711
175.6101
174.70345
173.75641
172.7784
171.80334
170.80705
169.76908
168.73966
167.69276
166.59703
165.52654
164.43718
163.31593
162.19757
161.06209
159.92727
158.78464
157.61846
156.46231
155.3063
154.12462
152.95112
151.77948
150.58944
149.42622
148.24371
147.04517
145.88811
144.69927
143.50029
142.35803
141.18812
139.99938
138.83751
137.66207
136.51328
135.36783
134.17813
133.03925
131.92678
130.73868
129.58326
128.50012
127.32939
126.14865
125.09734
123.97511
122.75633
121.67348
120.62126
119.44054
118.29078
117.2605
116.16971
114.96025
113.86524
112.86843
111.70815
110.56094
109.56459
108.46654
107.31661
106.26671
105.20104
104.10555
103.02785
101.94093
100.89779
99.8327
98.706882
97.693444
96.678257
95.515753
94.463528
93.536488
92.436389
91.29537
90.337476
89.334877
88.21119
87.188186
86.219409
85.182547
84.176097
83.169805
82.096436
81.10721
80.165947
79.100439
78.074072
77.195118
76.215746
75.114875
74.16001
73.296044
72.279201
71.245227
70.379458
69.485626
68.474954
67.534018
66.663973
65.714055
64.742902
63.865985
62.979738
62.033478
61.144758
60.297514
59.399124
58.501601
57.661201
56.81712
55.946615
55.081084
54.231481
53.406704
52.552723
51.674294
50.874419
50.10775
49.287431
48.451385
47.666483
46.923293
46.123157
45.298249
44.557191
43.828051
43.029026
42.254753
41.531163
40.791131
40.030782
39.320574
38.63729
37.938268
37.252045
36.581934
35.913483
35.246738
34.568494
33.920788
33.299378
32.63005
31.966359
31.360961
30.736504
30.118292
29.554156
28.977105
28.36858
27.767191
27.159994
26.565432
26.015211
25.454138
24.839873
24.291591
23.82607
23.310782
22.766843
22.300729
21.873497
21.473383
21.091714
20.684256
20.258844
19.83653
19.435649
19.058301
18.697828
18.36416
18.063405
17.790746
17.561242
17.383102
17.230575
17.084335
16.932266
16.83652
16.795614
16.841926
16.937701
17.197082
17.583731
18.135143
18.896204
19.777371
20.853034
22.32945
24.462424
26.996739
30.526984
34.823536
40.151756
47.058397
55.106732
65.733457
78.162823
93.154304
111.85293
132.46568
158.59675
189.38952
223.17493
260.41237
300.55148
340.73547
382.35655
422.54297
460.04398
496.59611
531.88723
566.45573
597.19686
614.95827
183.65155
183.69314
183.72686
183.7499
183.74179
183.70297
183.63231
183.52967
183.3956
183.23094
183.03663
182.81357
182.56275
182.28482
181.98111
181.65126
181.29804
180.9184
180.5183
180.09099
179.64408
179.17292
178.67585
178.16411
177.61653
177.06018
176.47185
175.85441
175.23376
174.5605
173.88626
173.17522
172.44664
171.6774
170.91039
170.08725
169.26767
168.40193
167.5271
166.61659
165.70316
164.74346
163.77291
162.79329
161.77874
160.74737
159.71172
158.65022
157.56006
156.49068
155.37901
154.26423
153.14322
151.99919
150.86707
149.7141
148.55344
147.39471
146.22428
145.05334
143.88399
142.69547
141.51998
140.36037
139.15016
137.97018
136.82696
135.61356
134.4304
133.29428
132.09677
130.92955
129.7915
128.58323
127.4342
126.32239
125.12546
123.97326
122.87306
121.69019
120.53229
119.45374
118.27999
117.11167
116.06551
114.92285
113.73687
112.66028
111.56221
110.40711
109.28586
108.23079
107.13919
105.94193
104.85628
103.86263
102.69003
101.54095
100.54666
99.452766
98.312072
97.2601
96.198532
95.115592
94.025937
92.929349
91.896166
90.835575
89.717909
88.699255
87.670898
86.535475
85.496357
84.528625
83.432849
82.336739
81.353239
80.324748
79.246159
78.222085
77.200492
76.188271
75.223539
74.176259
73.096492
72.150195
71.180441
70.089367
69.094886
68.217863
67.23549
66.157905
65.201383
64.322209
63.315639
62.289309
61.398274
60.482814
59.479414
58.561721
57.715198
56.756306
55.768925
54.910778
54.053517
53.100842
52.170994
51.308513
50.438505
49.540602
48.667177
47.829384
46.987007
46.135873
45.282257
44.460821
43.637857
42.760115
41.902449
41.115812
40.347886
39.533776
38.695568
37.902637
37.166203
36.393839
35.568953
34.825457
34.145638
33.362612
32.55438
31.841484
31.127865
30.36275
29.64237
28.989114
28.305431
27.588875
26.944645
26.318337
25.606463
24.93053
24.340052
23.694428
23.034685
22.424653
21.833965
21.247034
20.617888
20.004257
19.436303
18.816575
18.176414
17.606085
17.047127
16.453637
15.908639
15.395328
14.847222
14.287896
13.815076
13.382553
12.919511
12.534156
12.174102
11.770805
11.331573
10.900548
10.489227
10.097869
9.7134776
9.3546948
9.0225356
8.6976038
8.4010148
8.1487937
7.9088899
7.6766023
7.4498672
7.187701
6.894235
6.648246
6.4232558
6.2107238
5.9004448
5.6530938
5.4490203
5.3532718
5.5429835
5.794574
6.6376879
7.6506347
9.4103906
11.651208
14.878969
19.100804
24.271853
31.53232
39.846115
50.438203
64.418257
83.529782
108.29153
138.19925
169.65955
205.16229
243.7608
288.05254
336.38491
383.05409
429.95277
472.93082
513.25823
551.15826
580.86379
597.44336
174.67716
174.71869
174.75191
174.77381
174.76414
174.72332
174.65035
174.54518
174.40845
174.24107
174.04406
173.81838
173.56505
173.28487
172.97899
172.64746
172.29242
171.91181
171.51034
171.08246
170.6353
170.16297
169.66756
169.15371
168.60846
168.05115
167.46108
166.84813
166.22278
165.54978
164.87852
164.16042
163.43163
162.66302
161.88885
161.06557
160.23919
159.37016
158.49106
157.57569
156.65621
155.68666
154.71811
153.73144
152.70246
151.6787
150.62788
149.55621
148.47636
147.39378
146.26929
145.15711
144.03307
142.88725
141.74843
140.5823
139.43494
138.269
137.0792
135.93074
134.75425
133.54896
132.39192
131.22899
130.00509
128.83558
127.70155
126.48116
125.29993
124.1634
122.95982
121.79852
120.67244
119.46773
118.30525
117.19363
116.02186
114.86551
113.74779
112.58811
111.44058
110.34451
109.17891
108.03708
106.97365
105.80702
104.65999
103.59765
102.46742
101.32073
100.21886
99.155787
98.050894
96.866137
95.806627
94.793925
93.620468
92.49778
91.473001
90.382616
89.277821
88.200548
87.139257
86.090479
84.97098
83.869767
82.863239
81.776088
80.680004
79.68499
78.604504
77.481994
76.496051
75.489122
74.369846
73.325065
72.34318
71.27208
70.21908
69.226498
68.151364
67.123988
66.207885
65.143614
64.052879
63.157589
62.170917
61.042087
60.081465
59.193409
58.160635
57.125805
56.223135
55.299843
54.274533
53.320777
52.4256
51.426888
50.436213
49.567286
48.674007
47.698202
46.778406
45.92568
45.035762
44.116692
43.219278
42.311458
41.412975
40.549947
39.657183
38.782875
37.960578
37.114252
36.263973
35.466058
34.660716
33.788875
32.931861
32.133611
31.333058
30.525337
29.740401
28.928392
28.111432
27.3738
26.616272
25.790466
25.050999
24.342988
23.59728
22.87102
22.113766
21.392278
20.708487
20.002773
19.314935
18.640159
17.939703
17.278198
16.633634
15.969092
15.303286
14.606465
13.949862
13.405994
12.820523
12.259127
11.706201
11.100245
10.478931
9.8375828
9.1552244
8.5495786
8.0438824
7.4228168
6.694615
6.174925
5.8594689
5.1853213
4.4266982
4.0967214
3.8244413
3.6876557
3.5836692
3.4216493
3.1880164
2.946841
2.7354326
2.5435393
2.3505067
2.1623603
1.9873006
1.8219434
1.6756676
1.5548887
1.4413842
1.3172083
1.1817231
1.03831
0.892214
0.7533889
0.62218575
0.49507219
0.37715234
0.27408045
0.1989099
0.15495383
0.13487665
0.15099745
0.20079023
0.28493916
0.40626019
0.53043297
0.74664968
0.99398693
1.2802789
1.5439995
1.7086937
1.7859396
1.6456587
1.8797723
34.181329
63.63383
97.179293
138.04511
181.90801
231.49881
281.49149
336.43621
389.92645
439.22057
485.04697
522.86736
552.06329
567.51387
165.66901
165.71046
165.74306
165.76359
165.75206
165.70888
165.6332
165.52505
165.3852
165.21464
165.01446
164.78573
164.52951
164.24669
163.93837
163.60486
163.24784
162.86609
162.46315
162.03475
161.58725
161.11392
160.6204
160.10442
159.56197
159.00321
158.4128
157.80354
157.17282
156.50342
155.82892
155.11018
154.3752
153.6129
152.82252
152.00868
151.16441
150.30241
149.40787
148.49484
147.55979
146.59136
145.61334
144.61795
143.58093
142.55613
141.49724
140.41482
139.33798
138.2377
137.11038
135.99653
134.86603
133.72085
132.56738
131.39858
130.26102
129.08512
127.88454
126.74734
125.55914
124.35363
123.20875
122.02513
120.81204
119.65381
118.49917
117.28995
116.12558
114.96891
113.76055
112.6294
111.49397
110.28008
109.13828
108.01977
106.84032
105.70661
104.59293
103.42038
102.28894
101.19686
100.03289
98.906477
97.814468
96.65735
95.551735
94.452649
93.330635
92.229885
91.082699
90.0084
88.938666
87.747888
86.692034
85.676798
84.499243
83.406868
82.374311
81.268946
80.191452
79.106783
78.030812
77.006358
75.881245
74.765753
73.787756
72.689474
71.574758
70.616464
69.546865
68.40847
67.409035
66.396185
65.292576
64.253292
63.274624
62.214258
61.152141
60.151419
59.084239
58.05151
57.107341
56.056921
55.013243
54.102727
53.107581
52.02174
51.036023
50.104265
49.092172
48.062829
47.14549
46.242268
45.216437
44.261059
43.407005
42.40046
41.377001
40.531243
39.631291
38.606799
37.711847
36.8944
35.968128
35.047977
34.213027
33.326547
32.393022
31.512029
30.653126
29.773817
28.909285
28.066184
27.216549
26.378278
25.597
24.771804
23.905083
23.125463
22.323841
21.460773
20.671818
19.963024
19.191753
18.342693
17.558634
16.85382
16.056958
15.199505
14.46088
13.855065
13.09799
12.28641
11.651824
11.051823
10.341021
9.6346029
9.0055963
8.351132
7.5912436
6.9643387
6.4786208
5.6076241
4.7825831
4.3363594
3.9465389
3.6966644
3.4055024
3.1120006
2.82379
2.4948798
2.1346862
1.8414555
1.6081238
1.3136749
0.98063833
0.70472403
0.4763071
0.23348364
0.0068992592
-0.19700662
-0.23203325
-0.22628547
-0.21387576
-0.20633392
-0.2018763
-0.1995555
-0.20038993
-0.20344455
-0.20790984
-0.21369092
-0.22078501
-0.22871543
-0.23687934
-0.24464072
-0.25169109
-0.25784995
-0.26263188
-0.26604131
-0.26797417
-0.26785501
-0.2663535
-0.26443555
-0.26286887
-0.26218462
-0.26162125
-0.26010257
-0.25779378
-0.25495682
-0.25165671
-0.24771618
-0.24263547
-0.23740538
-0.23070145
-0.22358399
-0.21436837
-0.20127244
-0.18396514
-0.15608263
-0.10614527
-0.032184589
-0.20904005
0.0030518761
-0.71991027
29.544335
90.653508
154.06612
215.71764
279.02516
340.35756
399.40518
447.36373
485.52019
514.8635
528.43071
156.62738
156.6687
156.70058
156.71952
156.70582
156.6599
156.58105
156.46944
156.32596
156.15171
155.94788
155.71564
155.45612
155.17029
154.85922
154.52345
154.16432
153.7812
153.37682
152.9479
152.49989
152.02623
151.53394
151.01669
150.47728
149.91671
149.3276
148.72087
148.08363
147.42235
146.73835
146.02459
145.28013
144.52415
143.71767
142.91074
142.05113
141.19339
140.28209
139.36944
138.42219
137.44427
136.46158
135.46155
134.40894
133.37723
132.31801
131.21858
130.14407
129.02887
127.89815
126.78208
125.63914
124.49766
123.3238
122.16364
121.02263
119.83638
118.64632
117.49229
116.30694
115.1046
113.95817
112.77756
111.55137
110.40722
109.25188
108.02555
106.88444
105.73821
104.50385
103.38485
102.26611
101.03819
99.90009
98.806659
97.614261
96.461784
95.394523
94.219799
93.061256
92.002334
90.85028
89.703825
88.605851
87.475085
86.388536
85.256647
84.141186
83.07855
81.904475
80.821649
79.773106
78.578104
77.53315
76.523694
75.333042
74.241509
73.231608
72.126807
71.028299
69.965607
68.912043
67.858655
66.739708
65.643252
64.646283
63.568239
62.45702
61.451009
60.421653
59.338579
58.28192
57.252095
56.180728
55.131302
54.143332
53.102539
52.064592
51.035206
49.949642
48.964256
47.987087
46.877902
45.917327
45.022581
43.964772
42.958192
41.997203
40.963254
39.971238
39.004531
38.020832
37.087964
36.130377
35.183632
34.278215
33.292379
32.33771
31.470181
30.528423
29.542418
28.648671
27.803026
26.875118
25.942416
25.083628
24.199735
23.338018
22.480233
21.559544
20.720849
19.933729
19.043069
18.14309
17.32203
16.498679
15.591203
14.729674
14.05088
13.228757
12.350084
11.573676
10.818196
10.098906
9.4111735
8.5477485
7.7174149
7.1460798
6.2329902
5.1521507
4.7288028
4.0583707
3.5775344
3.2677397
3.0080013
2.7135922
2.3812121
2.05441
1.7399082
1.4210942
1.1178684
0.81685396
0.49535465
0.18940117
-0.084702016
-0.13261544
-0.14189845
-0.14549109
-0.15587947
-0.1704071
-0.18674551
-0.20512119
-0.22460709
-0.24435382
-0.26364963
-0.27961846
-0.29114889
-0.2978633
-0.2966115
-0.28728807
-0.27070222
-0.24847828
-0.23409703
-0.2215807
-0.21395506
-0.21111818
-0.210244
-0.21062906
-0.21328351
-0.21803913
-0.22438227
-0.23185075
-0.24005986
-0.24851307
-0.25648822
-0.26364862
-0.26996992
-0.27529857
-0.27899487
-0.2804776
-0.27981274
-0.27750048
-0.27528259
-0.27446794
-0.27530777
-0.27730935
-0.27814965
-0.27729938
-0.2751303
-0.27233272
-0.26935635
-0.26583036
-0.26292234
-0.26032958
-0.25682674
-0.25302528
-0.24726033
-0.23877491
-0.2247777
-0.2079425
-0.2187447
-0.23142856
-0.15845676
-0.082493866
-0.14652724
-1.1551237
35.116395
119.04728
205.632
282.90019
348.38738
399.88572
441.51973
470.34903
483.80248
147.55259
147.59376
147.6248
147.64189
147.62571
147.57663
147.49412
147.37852
147.23084
147.05235
146.84435
146.60811
146.34484
146.05562
145.74149
145.40318
145.04179
144.6572
144.25131
143.822
143.37342
142.8999
142.40858
141.89105
141.35413
140.79306
140.2053
139.60026
138.95832
138.3052
137.60977
136.90297
136.15037
135.39417
134.57866
133.77138
132.90095
132.03862
131.11933
130.19412
129.24299
128.25887
127.25796
126.25705
125.18804
124.15452
123.08451
121.96318
120.89769
119.76608
118.62956
117.51092
116.35204
115.21515
114.02871
112.87413
111.71882
110.52453
109.35281
108.17279
106.99892
105.80343
104.63108
103.47421
102.2479
101.08588
99.946299
98.719574
97.572689
96.437902
95.212764
94.081001
92.955991
91.75366
90.62098
89.517146
88.34475
87.179493
86.11393
84.972869
83.796075
82.740224
81.619272
80.455696
79.351441
78.255986
77.158233
76.0087
74.929349
73.854619
72.659533
71.611377
70.568276
69.357409
68.316608
67.310276
66.139
65.042802
64.021219
62.946819
61.836061
60.752412
59.730928
58.679238
57.551517
56.490611
55.473482
54.374858
53.314134
52.279111
51.223304
50.194738
49.127756
48.087787
47.050469
45.965813
44.950835
43.940189
42.907037
41.871185
40.794768
39.82105
38.84243
37.720452
36.74862
35.838783
34.805205
33.841315
32.876803
31.835993
30.846607
29.879365
28.897455
27.929028
26.952373
26.047473
25.143472
24.095106
23.205399
22.412612
21.390249
20.426836
19.628094
18.741372
17.754048
16.86256
15.964595
14.975337
14.152694
13.364302
12.429608
11.55813
10.787427
10.041265
9.1718309
8.2204106
7.4914849
6.6278783
5.4309515
4.9145118
4.1298338
3.592566
3.2129532
2.8908915
2.5516742
2.2043565
1.8247137
1.4595294
1.1091503
0.72279527
0.3515986
0.08164055
-0.1263961
-0.2045858
-0.17719391
-0.15920597
-0.15311683
-0.14945056
-0.14741326
-0.14565369
-0.14414639
-0.14465108
-0.14492434
-0.14382358
-0.14372233
-0.14446905
-0.14190437
-0.14544359
-0.1525341
-0.16413791
-0.17922828
-0.1967605
-0.21622959
-0.23652165
-0.25664582
-0.27717995
-0.29668326
-0.31074455
-0.31580778
-0.31151073
-0.30302023
-0.28546657
-0.26223204
-0.24487871
-0.23248348
-0.22384601
-0.22032103
-0.2199052
-0.2211365
-0.22428268
-0.22924307
-0.23572096
-0.24335184
-0.25172243
-0.26033869
-0.26856265
-0.27589112
-0.28219052
-0.28753894
-0.29136081
-0.29302742
-0.29244602
-0.29013199
-0.28766622
-0.28643023
-0.28694075
-0.28836508
-0.28915699
-0.28828926
-0.28661968
-0.28476271
-0.28304248
-0.28148104
-0.28049135
-0.2799291
-0.27992333
-0.28030242
-0.28023546
-0.27982038
-0.27756001
-0.27283586
-0.26524986
-0.25530269
-0.23195006
-0.19471067
-0.13834009
0.0059250167
-0.40116218
12.031353
110.27064
211.63041
288.57174
348.66575
390.24673
419.0005
434.25535
138.44502
138.48597
138.51606
138.53106
138.51203
138.45934
138.37263
138.25243
138.09996
137.91662
137.70387
137.4631
137.19563
136.9026
136.58512
136.244
135.88022
135.49399
135.08668
134.65705
134.2079
133.73528
133.24432
132.72815
132.1929
131.63226
131.04708
130.44204
129.79945
129.14985
128.44662
127.74496
126.98426
126.22446
125.40613
124.58673
123.71728
122.83435
121.919
120.97592
120.01392
119.03016
118.00513
117.00194
115.92088
114.87515
113.79533
112.66463
111.59108
110.45217
109.30127
108.18451
107.01058
105.85737
104.69333
103.51581
102.34956
101.17062
99.977388
98.808733
97.637582
96.422601
95.260506
94.101504
92.878444
91.71628
90.575686
89.359954
88.21079
87.062683
85.859713
84.737711
83.581096
82.407027
81.30384
80.15697
78.999959
77.878597
76.779126
75.638866
74.50931
73.434605
72.297984
71.173273
70.07336
68.96973