/*--------------------------------*- C++ -*----------------------------------*\
| =========                 |                                                 |
| \\      /  F ield         | OpenFOAM: The Open Source CFD Toolbox           |
|  \\    /   O peration     | Version:  2106                                  |
|   \\  /    A nd           | Website:  www.openfoam.com                      |
|    \\/     M anipulation  |                                                 |
\*---------------------------------------------------------------------------*/
FoamFile
{
    version     2.0;
    format      ascii;
    arch        "LSB;label=32;scalar=64";
    class       volVectorField;
    location    "0.21";
    object      U;
}
// * * * * * * * * * * * * * * * * * * * * * * * * * * * * * * * * * * * * * //

dimensions      [0 1 -1 0 0 0 0];

internalField   nonuniform List<vector> 
32768
(
(-0.00016759714 -0.000451345 0)
(0.0023665292 -0.0012969755 0)
(0.0064228329 -0.001688783 0)
(0.01105489 -0.0019319149 0)
(0.01597119 -0.0020249114 0)
(0.021013014 -0.0020614125 0)
(0.026095901 -0.0020750081 0)
(0.031190238 -0.0020784897 0)
(0.036294741 -0.0020987694 0)
(0.041404311 -0.0021450662 0)
(0.046507715 -0.0021991016 0)
(0.051600003 -0.0022517934 0)
(0.056680946 -0.002301173 0)
(0.061744348 -0.0023424744 0)
(0.066798102 -0.0023846942 0)
(0.071825628 -0.0024136459 0)
(0.076856616 -0.0024504037 0)
(0.081854346 -0.0024703791 0)
(0.086864909 -0.0024887084 0)
(0.091853209 -0.0025293974 0)
(0.096836269 -0.0024996769 0)
(0.10182056 -0.0025902136 0)
(0.10681209 -0.0025156284 0)
(0.11177998 -0.0026115789 0)
(0.11673706 -0.0025917057 0)
(0.12179355 -0.0025692044 0)
(0.12671816 -0.0026747963 0)
(0.13169531 -0.0025997777 0)
(0.13682071 -0.0026340603 0)
(0.14175173 -0.0027177359 0)
(0.14669832 -0.002638371 0)
(0.15187719 -0.0026717505 0)
(0.15693661 -0.0027627458 0)
(0.16185975 -0.0026986191 0)
(0.16694585 -0.0026858951 0)
(0.17213783 -0.0027958997 0)
(0.17723924 -0.0027652825 0)
(0.18224196 -0.0027341565 0)
(0.18728921 -0.00278035 0)
(0.19250239 -0.0028016464 0)
(0.19773057 -0.0028004345 0)
(0.20277433 -0.0028154332 0)
(0.20776548 -0.0027919837 0)
(0.212932 -0.0027843785 0)
(0.21816747 -0.0028471992 0)
(0.22329452 -0.0028586469 0)
(0.22838337 -0.002788958 0)
(0.23344356 -0.0027921767 0)
(0.23842955 -0.0028350878 0)
(0.24354236 -0.0027996371 0)
(0.24878629 -0.002835201 0)
(0.25388229 -0.0028368422 0)
(0.25877315 -0.0027606143 0)
(0.26364903 -0.0027577549 0)
(0.26867324 -0.0027772923 0)
(0.27372606 -0.002803893 0)
(0.27872993 -0.0027949946 0)
(0.2837303 -0.0027437052 0)
(0.28856897 -0.0027149069 0)
(0.29323465 -0.0027085294 0)
(0.29801499 -0.002703597 0)
(0.3029801 -0.00271499 0)
(0.30786708 -0.0027324153 0)
(0.31257083 -0.0026772759 0)
(0.31726646 -0.0026305984 0)
(0.32200936 -0.0026537176 0)
(0.32664731 -0.0026274368 0)
(0.33111958 -0.0025901168 0)
(0.33563906 -0.0026083035 0)
(0.34037859 -0.002620893 0)
(0.34512952 -0.0026094751 0)
(0.34963812 -0.0025732255 0)
(0.35399112 -0.0025251287 0)
(0.35839266 -0.0025010466 0)
(0.36284133 -0.0025167193 0)
(0.36722354 -0.00254715 0)
(0.37157558 -0.0025187115 0)
(0.37602197 -0.0024658083 0)
(0.3804819 -0.0025112398 0)
(0.38480609 -0.0025224897 0)
(0.38906784 -0.0024064075 0)
(0.3933107 -0.0024071165 0)
(0.39749167 -0.0024881197 0)
(0.40172684 -0.0024306661 0)
(0.40603429 -0.0023898416 0)
(0.41023253 -0.0024586791 0)
(0.41431829 -0.0024292594 0)
(0.4184491 -0.0023371794 0)
(0.42266231 -0.0023954807 0)
(0.42690377 -0.0024633244 0)
(0.43111627 -0.0023658854 0)
(0.43517056 -0.0023003419 0)
(0.43904557 -0.0023521614 0)
(0.44299287 -0.0023642507 0)
(0.44713779 -0.0023299993 0)
(0.45126795 -0.0023603436 0)
(0.45521724 -0.0023797519 0)
(0.45913088 -0.0023040874 0)
(0.46314104 -0.0022851748 0)
(0.46717704 -0.0023553571 0)
(0.47122961 -0.002343963 0)
(0.47527424 -0.0022824508 0)
(0.47915766 -0.002268996 0)
(0.48287138 -0.0022679898 0)
(0.48658986 -0.0022606327 0)
(0.49043586 -0.0022737247 0)
(0.49439439 -0.0023108249 0)
(0.49836254 -0.0023309261 0)
(0.50226024 -0.0022714653 0)
(0.50609068 -0.0022016669 0)
(0.50985433 -0.0022473921 0)
(0.51359763 -0.0022796061 0)
(0.51742875 -0.0022004486 0)
(0.52128868 -0.0022045586 0)
(0.52503612 -0.0022724382 0)
(0.52871814 -0.0022183053 0)
(0.53238372 -0.002136752 0)
(0.5359857 -0.0021815154 0)
(0.53959414 -0.0022214052 0)
(0.54331253 -0.0021920115 0)
(0.54708556 -0.0021648903 0)
(0.55077652 -0.0021753258 0)
(0.55436816 -0.0021533916 0)
(0.55794423 -0.0021347936 0)
(0.56155681 -0.0021316203 0)
(0.56520553 -0.0021090437 0)
(0.5688437 -0.00211841 0)
(0.57242208 -0.0021285366 0)
(0.57592701 -0.0020645367 0)
(0.57933248 -0.0020222617 0)
(0.58266399 -0.002081966 0)
(0.58606194 -0.0021241132 0)
(0.58960326 -0.002073945 0)
(0.59320605 -0.0020580274 0)
(0.59674457 -0.0021138125 0)
(0.60022434 -0.0020811207 0)
(0.60367863 -0.0020089095 0)
(0.60704767 -0.001988254 0)
(0.61033267 -0.0020317705 0)
(0.61363464 -0.0020061747 0)
(0.61701659 -0.0019706324 0)
(0.62045537 -0.0019778875 0)
(0.62388511 -0.00199371 0)
(0.62728296 -0.0019542384 0)
(0.63059456 -0.0019229791 0)
(0.633752 -0.0019161677 0)
(0.63685926 -0.0019208324 0)
(0.64005928 -0.0019550851 0)
(0.64336183 -0.0019799522 0)
(0.64672329 -0.0019634921 0)
(0.65009221 -0.0019544205 0)
(0.65339909 -0.001946912 0)
(0.65659874 -0.0019082122 0)
(0.65970241 -0.0018912592 0)
(0.66277613 -0.0019030544 0)
(0.66591748 -0.001899615 0)
(0.66916852 -0.0019027606 0)
(0.67252059 -0.0019146114 0)
(0.67593313 -0.0018889783 0)
(0.6792966 -0.0018453094 0)
(0.68250622 -0.0018008028 0)
(0.68553622 -0.0018047084 0)
(0.68849808 -0.0018057814 0)
(0.69150931 -0.0018192842 0)
(0.6945328 -0.0018442354 0)
(0.6975771 -0.001859301 0)
(0.70069305 -0.0018538267 0)
(0.70383312 -0.0018425879 0)
(0.70695841 -0.0018304068 0)
(0.71006559 -0.0017997913 0)
(0.71315961 -0.0017709844 0)
(0.71625607 -0.0017394228 0)
(0.71936762 -0.0017454565 0)
(0.72249116 -0.0017729099 0)
(0.72556998 -0.0017535564 0)
(0.72855797 -0.0017204681 0)
(0.73150263 -0.0017218646 0)
(0.73445535 -0.0017486626 0)
(0.73739091 -0.0017551065 0)
(0.7402839 -0.0017169657 0)
(0.74318548 -0.0016919601 0)
(0.7461485 -0.0017127786 0)
(0.7491489 -0.0017340996 0)
(0.75215951 -0.001698874 0)
(0.75517911 -0.0016351969 0)
(0.75818144 -0.0015925457 0)
(0.76114317 -0.0015833365 0)
(0.76402794 -0.0015622246 0)
(0.76677649 -0.0015301397 0)
(0.76943638 -0.0014892237 0)
(0.77217112 -0.0014987095 0)
(0.77508763 -0.0015723743 0)
(0.77816654 -0.0015786838 0)
(0.78133286 -0.0014577589 0)
(0.78424012 -0.0013373299 0)
(0.78692481 -0.0012566124 0)
(0.78944376 -0.0012361643 0)
(0.79180872 -0.0013070409 0)
(0.79407727 -0.0014017729 0)
(0.79626947 -0.0014531963 0)
(0.7984217 -0.0014512664 0)
(0.8006147 -0.0013945009 0)
(0.80298193 -0.001291432 0)
(0.80557309 -0.0011329241 0)
(0.80833346 -0.00085884613 0)
(0.81062806 -0.00057374192 0)
(0.81268266 -0.00053437513 0)
(0.81456863 -0.00052780096 0)
(0.81640903 -0.00057999685 0)
(0.81823154 -0.00065620268 0)
(0.82003289 -0.00064324237 0)
(0.82176879 -0.00068258922 0)
(0.82332492 -0.00081958425 0)
(0.82474244 -0.00086513553 0)
(0.8260794 -0.00068973187 0)
(0.82723799 -0.000291825 0)
(0.82818709 0.00020700939 0)
(0.82905212 0.00060916421 0)
(0.82991009 0.00091544887 0)
(0.83041096 0.0013139025 0)
(0.83040334 0.0015062897 0)
(0.83001912 0.0016249402 0)
(0.82912148 0.001729173 0)
(0.82771819 0.0018125964 0)
(0.82585755 0.0018865975 0)
(0.82353089 0.0019678055 0)
(0.82075681 0.0020956494 0)
(0.81752199 0.0022488378 0)
(0.81384322 0.0024813849 0)
(0.80949251 0.0028034852 0)
(0.80428554 0.0031513038 0)
(0.79812957 0.0038567857 0)
(0.79101839 0.0045042944 0)
(0.78209664 0.0055004049 0)
(0.77151625 0.0066834143 0)
(0.75829921 0.0082882171 0)
(0.74204289 0.010091802 0)
(0.72213674 0.012264742 0)
(0.69766368 0.014841965 0)
(0.66842055 0.017957656 0)
(0.63279865 0.021748292 0)
(0.59073628 0.025996115 0)
(0.54099802 0.030836119 0)
(0.4827183 0.036161683 0)
(0.4157858 0.042137689 0)
(0.33955704 0.047072477 0)
(0.25353414 0.053011289 0)
(0.1584732 0.055681512 0)
(0.054626255 0.044997614 0)
(-0.034019183 0.03122204 0)
(-0.11263071 0.028471498 0)
(-0.18164283 0.030307112 0)
(-0.22964714 0.023681639 0)
(-0.2470904 -0.0092501786 0)
(-0.17448742 -0.053002368 0)
(-0.09047975 -0.099918853 0)
(-0.00027540752 -0.0016841302 0)
(0.0026358746 -0.0053392928 0)
(0.0076725992 -0.0068979643 0)
(0.012998699 -0.0076264665 0)
(0.018719436 -0.0079246612 0)
(0.024520837 -0.0080419365 0)
(0.030365234 -0.0080848653 0)
(0.036214945 -0.008089443 0)
(0.042057468 -0.0080780727 0)
(0.047854614 -0.0080312403 0)
(0.053615693 -0.0079663529 0)
(0.059343418 -0.0078937393 0)
(0.065054074 -0.0078247806 0)
(0.07071805 -0.0077564066 0)
(0.076409656 -0.0077037353 0)
(0.081981982 -0.0076486771 0)
(0.087727195 -0.0075891561 0)
(0.093144564 -0.0076213958 0)
(0.099025099 -0.0073739881 0)
(0.10425543 -0.007804311 0)
(0.11025791 -0.0069902563 0)
(0.11538471 -0.0080348364 0)
(0.12141804 -0.0069477512 0)
(0.12662175 -0.007574631 0)
(0.13229858 -0.0077081409 0)
(0.13821487 -0.0068917387 0)
(0.14317387 -0.0077143308 0)
(0.14917679 -0.0075443192 0)
(0.15501643 -0.0070982594 0)
(0.15998819 -0.0074907096 0)
(0.16583474 -0.0076125589 0)
(0.17193413 -0.0073379415 0)
(0.17712397 -0.0073510633 0)
(0.18259096 -0.0074917332 0)
(0.18857963 -0.007478572 0)
(0.19436522 -0.0076378635 0)
(0.19993204 -0.0072942897 0)
(0.20536293 -0.0073728615 0)
(0.21107385 -0.0076335742 0)
(0.21717137 -0.0076572244 0)
(0.2229467 -0.0073639968 0)
(0.22822097 -0.0073907161 0)
(0.23382249 -0.0074869178 0)
(0.23992769 -0.0075621638 0)
(0.24573134 -0.007522349 0)
(0.25125373 -0.0075557131 0)
(0.25706502 -0.0073355044 0)
(0.26263866 -0.0071514649 0)
(0.26798455 -0.007603704 0)
(0.27413302 -0.0074663575 0)
(0.28009261 -0.0074906593 0)
(0.28556192 -0.0072800364 0)
(0.29081113 -0.007003706 0)
(0.2963581 -0.0072937224 0)
(0.30230076 -0.0072356704 0)
(0.30783663 -0.0073417193 0)
(0.31353798 -0.0073491238 0)
(0.31930654 -0.0070200934 0)
(0.32442755 -0.0068105204 0)
(0.3294966 -0.0069207521 0)
(0.33523219 -0.0071104933 0)
(0.34113542 -0.0070258642 0)
(0.34642413 -0.0069639513 0)
(0.35156764 -0.0068618077 0)
(0.3570745 -0.0067882928 0)
(0.36259195 -0.0067741684 0)
(0.36768338 -0.0064951415 0)
(0.37250479 -0.0064761991 0)
(0.37786047 -0.0067983283 0)
(0.38369678 -0.0068190306 0)
(0.38905253 -0.0066274512 0)
(0.39385705 -0.00642564 0)
(0.39876915 -0.0063179394 0)
(0.40401918 -0.0063216276 0)
(0.40918227 -0.006313617 0)
(0.41404953 -0.0063087894 0)
(0.41904627 -0.0063883244 0)
(0.42444585 -0.0063409925 0)
(0.42955166 -0.0062872475 0)
(0.43429974 -0.0063062892 0)
(0.43932756 -0.0059996154 0)
(0.44418796 -0.0059386963 0)
(0.44887906 -0.0062070049 0)
(0.45401838 -0.0061082584 0)
(0.45913564 -0.0059422889 0)
(0.4637482 -0.0060009302 0)
(0.46834306 -0.0059497444 0)
(0.47328633 -0.0058423692 0)
(0.4782946 -0.006076503 0)
(0.48327006 -0.0062340749 0)
(0.4882217 -0.0058195638 0)
(0.49268687 -0.0054973148 0)
(0.49697354 -0.0056934711 0)
(0.50180846 -0.0058596853 0)
(0.50696779 -0.0057956585 0)
(0.51166884 -0.0056780161 0)
(0.51595056 -0.0057272503 0)
(0.52059499 -0.005618956 0)
(0.52541202 -0.005638093 0)
(0.53008657 -0.0059031919 0)
(0.53500562 -0.0058190703 0)
(0.5398234 -0.0055379542 0)
(0.54413746 -0.0053879333 0)
(0.54829795 -0.0052756262 0)
(0.55270637 -0.005322506 0)
(0.55738623 -0.0055255292 0)
(0.56217478 -0.0056562591 0)
(0.56681896 -0.0055971592 0)
(0.57131381 -0.005529374 0)
(0.57580133 -0.005324655 0)
(0.58010333 -0.0053204577 0)
(0.58449735 -0.0054900749 0)
(0.58927956 -0.0054107186 0)
(0.59386359 -0.0053037597 0)
(0.59814408 -0.0053946835 0)
(0.60255081 -0.0052058762 0)
(0.60688051 -0.0049893002 0)
(0.61102098 -0.0050968546 0)
(0.61533242 -0.0053101149 0)
(0.61991789 -0.0053058852 0)
(0.62444574 -0.0052136877 0)
(0.6286871 -0.0051976475 0)
(0.63286872 -0.005111741 0)
(0.63713793 -0.0050745645 0)
(0.64152051 -0.0051612142 0)
(0.64601171 -0.0051713865 0)
(0.65041094 -0.0051552038 0)
(0.65467325 -0.0050852374 0)
(0.65885062 -0.0048029193 0)
(0.66279268 -0.0046467989 0)
(0.66665938 -0.0047874795 0)
(0.670794 -0.0049633981 0)
(0.67522806 -0.0049731134 0)
(0.67962431 -0.0050141534 0)
(0.68378759 -0.0050734334 0)
(0.68802578 -0.0049483601 0)
(0.69225799 -0.0046987459 0)
(0.69620391 -0.0046855462 0)
(0.70007616 -0.0046876568 0)
(0.70409256 -0.0047266692 0)
(0.70833028 -0.0047836774 0)
(0.71259129 -0.0049242994 0)
(0.71676217 -0.004977296 0)
(0.72098041 -0.0047673147 0)
(0.7249195 -0.0045280003 0)
(0.72851964 -0.0044503888 0)
(0.73228008 -0.0044668064 0)
(0.73625447 -0.0045887238 0)
(0.74034402 -0.004738874 0)
(0.74453403 -0.0047978513 0)
(0.74872861 -0.0047166734 0)
(0.75276351 -0.0046009773 0)
(0.75655301 -0.0044830668 0)
(0.76017 -0.0043028921 0)
(0.76382808 -0.0043294917 0)
(0.76772773 -0.0045462693 0)
(0.77171146 -0.004817821 0)
(0.77591153 -0.0049374933 0)
(0.78026979 -0.0048404094 0)
(0.78447819 -0.0047816661 0)
(0.78837029 -0.0044886776 0)
(0.79192366 -0.0042583043 0)
(0.79566394 -0.0041816699 0)
(0.79949692 -0.0042147548 0)
(0.80310257 -0.0043102764 0)
(0.80688725 -0.0043444255 0)
(0.81079199 -0.004403281 0)
(0.8146389 -0.004483177 0)
(0.81847305 -0.0044800348 0)
(0.82226594 -0.0044581995 0)
(0.82607108 -0.0044733126 0)
(0.82991751 -0.0045383937 0)
(0.83387604 -0.0045041023 0)
(0.83791936 -0.0044674595 0)
(0.84178068 -0.0043834399 0)
(0.8454758 -0.0042667529 0)
(0.8492658 -0.0041854839 0)
(0.85309899 -0.004165639 0)
(0.85678571 -0.0041317896 0)
(0.86032997 -0.0041364625 0)
(0.86397605 -0.0041929818 0)
(0.86777948 -0.0042223144 0)
(0.87159534 -0.0043215042 0)
(0.87546584 -0.0044435252 0)
(0.87936398 -0.0044350561 0)
(0.88323414 -0.0043941698 0)
(0.88710184 -0.0043132685 0)
(0.89074863 -0.004110607 0)
(0.89400481 -0.0039277555 0)
(0.89719811 -0.0039683286 0)
(0.90069702 -0.0041601458 0)
(0.90455711 -0.0044667772 0)
(0.90878091 -0.0047012952 0)
(0.91328321 -0.0046342287 0)
(0.91770595 -0.0043839209 0)
(0.92184026 -0.0040566852 0)
(0.92565764 -0.0036181801 0)
(0.92907679 -0.0033206178 0)
(0.93221663 -0.0031200459 0)
(0.93516033 -0.0029077941 0)
(0.93790184 -0.0029223313 0)
(0.94069103 -0.0032244038 0)
(0.94386455 -0.0037187659 0)
(0.94750285 -0.004170063 0)
(0.95158099 -0.0042446329 0)
(0.95587405 -0.0038719112 0)
(0.95999653 -0.0034976249 0)
(0.96371828 -0.0032112363 0)
(0.96711932 -0.0030828043 0)
(0.97032265 -0.0030676745 0)
(0.97351583 -0.0029834776 0)
(0.97676778 -0.0026671765 0)
(0.97986763 -0.0022674961 0)
(0.98265922 -0.0019023177 0)
(0.98512731 -0.0016909409 0)
(0.98732256 -0.0017170229 0)
(0.98949021 -0.002011137 0)
(0.99196207 -0.0023644837 0)
(0.99475866 -0.0023502469 0)
(0.99780465 -0.0018884722 0)
(1.0011527 -0.0011405813 0)
(1.0047286 -0.00032688323 0)
(1.0081755 0.00051391739 0)
(1.011267 0.0013719284 0)
(1.0137065 0.0021778705 0)
(1.015414 0.003133596 0)
(1.015746 0.0037571046 0)
(1.0154631 0.0047445254 0)
(1.0130806 0.0053858967 0)
(1.0107208 0.0065200736 0)
(1.0065046 0.0084444961 0)
(1.0019678 0.0085192891 0)
(0.99739051 0.012181781 0)
(0.98878563 0.013182883 0)
(0.98365391 0.017459767 0)
(0.97003303 0.020179411 0)
(0.96131991 0.026630386 0)
(0.94203894 0.031043508 0)
(0.92614459 0.03972693 0)
(0.90082847 0.046347765 0)
(0.87222418 0.056768987 0)
(0.83749678 0.066372959 0)
(0.79401167 0.077842358 0)
(0.74420407 0.091354657 0)
(0.68718513 0.10223237 0)
(0.62431248 0.11942964 0)
(0.54912034 0.13148678 0)
(0.46778338 0.14451091 0)
(0.37458222 0.15562714 0)
(0.25611713 0.14941983 0)
(0.12894164 0.12116046 0)
(0.0096556699 0.086152213 0)
(-0.06361807 0.034155989 0)
(-0.1147727 -0.028430015 0)
(-0.097797378 -0.12461975 0)
(-0.038413697 -0.18786567 0)
(-0.00027108619 -0.0027977372 0)
(0.0026351832 -0.0092961187 0)
(0.0075840717 -0.011980687 0)
(0.012857894 -0.01310644 0)
(0.018530132 -0.013581069 0)
(0.024282314 -0.013769439 0)
(0.030067886 -0.013827227 0)
(0.035863994 -0.013826897 0)
(0.041650292 -0.013799366 0)
(0.047422156 -0.013762473 0)
(0.053180062 -0.013724453 0)
(0.05891591 -0.013690744 0)
(0.064651427 -0.01366084 0)
(0.070330129 -0.013641406 0)
(0.076093652 -0.013610841 0)
(0.081630078 -0.013622804 0)
(0.087575169 -0.013540626 0)
(0.092759923 -0.013682195 0)
(0.099119654 -0.013369068 0)
(0.10381803 -0.013931436 0)
(0.11049721 -0.013015929 0)
(0.115173 -0.014275793 0)
(0.12142867 -0.01294327 0)
(0.12683421 -0.013872321 0)
(0.13231201 -0.013893589 0)
(0.13827139 -0.013016281 0)
(0.1435459 -0.014043084 0)
(0.14939664 -0.013853417 0)
(0.15506459 -0.013386327 0)
(0.16048103 -0.01362583 0)
(0.16631321 -0.01416157 0)
(0.17208804 -0.013880763 0)
(0.17752157 -0.013403138 0)
(0.18327771 -0.013871284 0)
(0.1890501 -0.014270069 0)
(0.19476748 -0.01423379 0)
(0.20056327 -0.013309833 0)
(0.20594334 -0.013905198 0)
(0.21185331 -0.014437221 0)
(0.2179005 -0.014452737 0)
(0.22354589 -0.013631395 0)
(0.22883908 -0.013726039 0)
(0.23474886 -0.014193872 0)
(0.24103743 -0.014486803 0)
(0.24644268 -0.014126796 0)
(0.2520548 -0.014056223 0)
(0.25788039 -0.013834618 0)
(0.26370464 -0.013625886 0)
(0.2692521 -0.014346411 0)
(0.27523162 -0.014385376 0)
(0.28096765 -0.014377174 0)
(0.28655977 -0.013337079 0)
(0.29190069 -0.013279621 0)
(0.29769866 -0.014219479 0)
(0.30378997 -0.013942848 0)
(0.3090269 -0.01400471 0)
(0.31465655 -0.014075932 0)
(0.3205862 -0.013371929 0)
(0.32574072 -0.012807436 0)
(0.33081648 -0.013402985 0)
(0.33678258 -0.014066464 0)
(0.34282069 -0.013721046 0)
(0.3479969 -0.013164633 0)
(0.352926 -0.013062124 0)
(0.35828675 -0.013445231 0)
(0.36418872 -0.013207932 0)
(0.3695133 -0.012293118 0)
(0.37407907 -0.012656431 0)
(0.3795598 -0.013663843 0)
(0.38572697 -0.013574616 0)
(0.39090945 -0.012707286 0)
(0.39536269 -0.012186094 0)
(0.40021394 -0.012457184 0)
(0.40577134 -0.012715661 0)
(0.41124726 -0.01245449 0)
(0.41613693 -0.012360894 0)
(0.42109288 -0.012674556 0)
(0.4264769 -0.01271439 0)
(0.43150756 -0.01243717 0)
(0.43634915 -0.012210139 0)
(0.44132872 -0.011822421 0)
(0.44595069 -0.012003498 0)
(0.45090802 -0.012362905 0)
(0.4563758 -0.012243622 0)
(0.46137183 -0.011994936 0)
(0.46604974 -0.011844545 0)
(0.47089283 -0.011655105 0)
(0.47563612 -0.011937366 0)
(0.48042715 -0.012528424 0)
(0.48567013 -0.012393351 0)
(0.49068145 -0.011347407 0)
(0.49475729 -0.010955829 0)
(0.49905113 -0.011572928 0)
(0.5043751 -0.012115965 0)
(0.50982235 -0.011892942 0)
(0.51447296 -0.011384475 0)
(0.51877486 -0.011317018 0)
(0.52339658 -0.011367248 0)
(0.52792047 -0.011663388 0)
(0.53259904 -0.012065208 0)
(0.53770861 -0.011795654 0)
(0.54247953 -0.011200716 0)
(0.54678261 -0.010765858 0)
(0.55099833 -0.010696666 0)
(0.55545694 -0.011082291 0)
(0.56037427 -0.011641454 0)
(0.56545188 -0.011681532 0)
(0.57010886 -0.011313459 0)
(0.57451163 -0.011042099 0)
(0.57888626 -0.010849632 0)
(0.58297927 -0.010977357 0)
(0.58739886 -0.011241596 0)
(0.59228135 -0.011216457 0)
(0.59680598 -0.011127923 0)
(0.60122846 -0.011003919 0)
(0.60592175 -0.010577099 0)
(0.61024315 -0.010408605 0)
(0.61429894 -0.010737543 0)
(0.6187554 -0.011033064 0)
(0.62347114 -0.011038029 0)
(0.62794326 -0.010875044 0)
(0.63219392 -0.010632715 0)
(0.63638693 -0.010463499 0)
(0.6405472 -0.010634603 0)
(0.64495443 -0.010868734 0)
(0.64949796 -0.010850226 0)
(0.65393055 -0.010815096 0)
(0.65841674 -0.010495795 0)
(0.6626688 -0.0098736108 0)
(0.66638727 -0.009712639 0)
(0.67023363 -0.010174668 0)
(0.67462921 -0.010488796 0)
(0.67906228 -0.010521986 0)
(0.68333563 -0.010620951 0)
(0.68766147 -0.010607417 0)
(0.69204763 -0.010225306 0)
(0.69619681 -0.0098748581 0)
(0.70015097 -0.0098698269 0)
(0.70418548 -0.0098929376 0)
(0.70828244 -0.0099275693 0)
(0.71244336 -0.010222617 0)
(0.71673036 -0.010479633 0)
(0.72109385 -0.010378796 0)
(0.72534203 -0.0098355285 0)
(0.72910597 -0.0092853618 0)
(0.73252164 -0.0092280012 0)
(0.73620047 -0.0095837297 0)
(0.74015623 -0.0099177146 0)
(0.74429781 -0.010148748 0)
(0.74879357 -0.010268455 0)
(0.75327819 -0.010118438 0)
(0.75741622 -0.0096708479 0)
(0.7614005 -0.009282042 0)
(0.76514197 -0.0090703118 0)
(0.76861593 -0.0092069902 0)
(0.77234211 -0.009566388 0)
(0.77630106 -0.010146042 0)
(0.78055332 -0.010409674 0)
(0.78487851 -0.010189883 0)
(0.78899779 -0.0098500198 0)
(0.79293376 -0.0093010748 0)
(0.79654963 -0.0091017282 0)
(0.80026716 -0.0091290445 0)
(0.80411563 -0.0090906619 0)
(0.807905 -0.0092613116 0)
(0.81201046 -0.0094325278 0)
(0.81609298 -0.0094092802 0)
(0.82000179 -0.0093489124 0)
(0.82394387 -0.0093109544 0)
(0.8276144 -0.0092650348 0)
(0.8311504 -0.0093003126 0)
(0.83497031 -0.0094695508 0)
(0.83885757 -0.0096441119 0)
(0.84275986 -0.0095244471 0)
(0.84670283 -0.0092282689 0)
(0.85050434 -0.009175167 0)
(0.85448897 -0.0092078229 0)
(0.85857885 -0.0091116256 0)
(0.86237885 -0.0088727165 0)
(0.86600004 -0.0088676606 0)
(0.8697769 -0.0091432314 0)
(0.87355547 -0.0091937064 0)
(0.87720121 -0.0092083846 0)
(0.88110257 -0.0092891615 0)
(0.88519884 -0.0092639364 0)
(0.88922975 -0.0091963456 0)
(0.89332112 -0.0089563355 0)
(0.89713997 -0.0083429597 0)
(0.90034199 -0.0079090408 0)
(0.90352599 -0.0081432935 0)
(0.90689231 -0.0088301792 0)
(0.91027109 -0.0095625582 0)
(0.91402082 -0.010121961 0)
(0.91830071 -0.010190376 0)
(0.92276651 -0.0097502465 0)
(0.92716031 -0.0090919468 0)
(0.93127677 -0.0083903294 0)
(0.93512975 -0.0078407119 0)
(0.93883976 -0.0073944788 0)
(0.94234139 -0.0069696573 0)
(0.94562629 -0.0068922723 0)
(0.94870828 -0.0073091028 0)
(0.95199497 -0.0080307089 0)
(0.95557221 -0.0088062055 0)
(0.95932811 -0.0092288476 0)
(0.96322179 -0.0089992407 0)
(0.96708051 -0.0082768837 0)
(0.97055035 -0.0074777023 0)
(0.97375919 -0.0069892353 0)
(0.9768967 -0.0069123896 0)
(0.98007948 -0.0069608421 0)
(0.98335143 -0.0069226001 0)
(0.98656074 -0.006740111 0)
(0.9898694 -0.0062332059 0)
(0.99331309 -0.0054992938 0)
(0.99663556 -0.0048325879 0)
(0.99948684 -0.0045148687 0)
(1.0018005 -0.0045660738 0)
(1.0039663 -0.0049147604 0)
(1.0065837 -0.0053108505 0)
(1.0097134 -0.0055260105 0)
(1.0131717 -0.0053346289 0)
(1.0163619 -0.0048207711 0)
(1.0199287 -0.00356485 0)
(1.0227911 -0.0022486683 0)
(1.02572 -8.368099e-05 0)
(1.0271039 0.0018661798 0)
(1.0276101 0.0047348028 0)
(1.0263424 0.0068707603 0)
(1.0251996 0.0092081393 0)
(1.0221886 0.010984167 0)
(1.0200961 0.012935638 0)
(1.0159778 0.016520234 0)
(1.0106751 0.01879616 0)
(1.0061614 0.024067063 0)
(0.99412914 0.030708935 0)
(0.98651613 0.036246467 0)
(0.96933972 0.046632099 0)
(0.95768965 0.0545923 0)
(0.93549017 0.069580957 0)
(0.91341507 0.084503574 0)
(0.88893808 0.10106936 0)
(0.84659922 0.12291979 0)
(0.81505301 0.13948381 0)
(0.76264003 0.15758213 0)
(0.71441183 0.17714905 0)
(0.66075236 0.19659392 0)
(0.5971136 0.21669768 0)
(0.52967591 0.2343696 0)
(0.46542425 0.23924984 0)
(0.38120347 0.24486961 0)
(0.30317972 0.21319704 0)
(0.21332158 0.14681762 0)
(0.12568743 0.049193305 0)
(0.075187976 -0.10639839 0)
(0.018625841 -0.21549093 0)
(-0.00025092822 -0.0039820456 0)
(0.0026764949 -0.013247816 0)
(0.0076339114 -0.017054561 0)
(0.012927012 -0.018644207 0)
(0.018620831 -0.019311057 0)
(0.024389663 -0.019572022 0)
(0.030191273 -0.019651732 0)
(0.035998016 -0.019647035 0)
(0.041795822 -0.019604623 0)
(0.047577046 -0.019545715 0)
(0.053340968 -0.019478227 0)
(0.059081939 -0.019408909 0)
(0.06481523 -0.019333976 0)
(0.070502946 -0.019272119 0)
(0.07623795 -0.019179849 0)
(0.081818449 -0.019170303 0)
(0.087655084 -0.018998518 0)
(0.092994479 -0.019160801 0)
(0.099101086 -0.018748022 0)
(0.10408221 -0.019287924 0)
(0.11045322 -0.018430777 0)
(0.11533094 -0.019453281 0)
(0.12149083 -0.018353395 0)
(0.12682679 -0.019103548 0)
(0.13245892 -0.019055681 0)
(0.13814785 -0.018358433 0)
(0.1436558 -0.019263581 0)
(0.14946575 -0.018951897 0)
(0.15481436 -0.018662342 0)
(0.16059308 -0.018849698 0)
(0.16644349 -0.019350348 0)
(0.17178641 -0.019009598 0)
(0.17741959 -0.01853319 0)
(0.18341271 -0.019277945 0)
(0.18910045 -0.019376166 0)
(0.19438042 -0.019284689 0)
(0.20047436 -0.018437111 0)
(0.20596848 -0.019395453 0)
(0.21203004 -0.019477067 0)
(0.21755464 -0.019646621 0)
(0.22329479 -0.018571503 0)
(0.22875561 -0.018936188 0)
(0.23487597 -0.019683196 0)
(0.24110438 -0.019687034 0)
(0.2460425 -0.018848869 0)
(0.25193087 -0.019016382 0)
(0.2576353 -0.019262868 0)
(0.26369534 -0.01902305 0)
(0.26959744 -0.019166415 0)
(0.27505025 -0.019279354 0)
(0.28042528 -0.019504312 0)
(0.28638165 -0.018036782 0)
(0.29186498 -0.018524563 0)
(0.29779786 -0.019530694 0)
(0.3039659 -0.018675726 0)
(0.30885361 -0.018591715 0)
(0.31418581 -0.019026824 0)
(0.32021436 -0.018313421 0)
(0.32569614 -0.017435757 0)
(0.33097324 -0.018157737 0)
(0.33687592 -0.019217184 0)
(0.34274336 -0.018686476 0)
(0.34774771 -0.01726433 0)
(0.35247529 -0.017212777 0)
(0.35782612 -0.018523112 0)
(0.36423631 -0.018140161 0)
(0.36970114 -0.016529895 0)
(0.37407577 -0.016994153 0)
(0.37937761 -0.018534488 0)
(0.38542801 -0.01838031 0)
(0.39062025 -0.016704787 0)
(0.39506756 -0.015812221 0)
(0.39983737 -0.016908832 0)
(0.40558777 -0.017729273 0)
(0.41137007 -0.016993775 0)
(0.41618061 -0.016296151 0)
(0.42089987 -0.016834844 0)
(0.4260611 -0.017135756 0)
(0.43104941 -0.016550801 0)
(0.43613346 -0.016019974 0)
(0.44111527 -0.015806524 0)
(0.44557189 -0.016168393 0)
(0.4507293 -0.016585223 0)
(0.45635823 -0.016578885 0)
(0.46110197 -0.016237441 0)
(0.46571187 -0.015748556 0)
(0.47076769 -0.015306212 0)
(0.47543419 -0.015870344 0)
(0.48000259 -0.01666017 0)
(0.48525537 -0.016306527 0)
(0.4903065 -0.014951245 0)
(0.49435018 -0.014534632 0)
(0.49876633 -0.015507459 0)
(0.50429666 -0.016536115 0)
(0.50976395 -0.016184433 0)
(0.51413709 -0.015097421 0)
(0.51840521 -0.014652551 0)
(0.5231783 -0.014816929 0)
(0.52753697 -0.015358216 0)
(0.53219115 -0.015859591 0)
(0.53738587 -0.015645684 0)
(0.54206247 -0.01498932 0)
(0.54627851 -0.01413521 0)
(0.55058869 -0.014048032 0)
(0.55516621 -0.014890708 0)
(0.56018881 -0.015810921 0)
(0.56532697 -0.015586034 0)
(0.56993884 -0.014850104 0)
(0.57428264 -0.014249277 0)
(0.57849442 -0.014102483 0)
(0.58254787 -0.014231445 0)
(0.58702472 -0.014631943 0)
(0.59168154 -0.014865703 0)
(0.59604623 -0.014933296 0)
(0.6007123 -0.01456294 0)
(0.60567898 -0.01397502 0)
(0.6101069 -0.013804658 0)
(0.61423155 -0.014139558 0)
(0.6186445 -0.014339667 -1.2810714e-34)
(0.62317615 -0.014571225 -6.7981526e-30)
(0.62748801 -0.014427479 0)
(0.63175489 -0.013901079 0)
(0.63603958 -0.013512283 0)
(0.64022102 -0.013933187 0)
(0.64458606 -0.014292834 0)
(0.64896034 -0.014344891 0)
(0.65329899 -0.014306318 0)
(0.65800274 -0.013840088 0)
(0.66238588 -0.012865729 -1.1599006e-34)
(0.66602032 -0.012663424 -6.1590658e-30)
(0.66992203 -0.013244691 -1.1862809e-34)
(0.67458262 -0.013700699 -6.8236304e-30)
(0.67899104 -0.013880833 0)
(0.68290066 -0.014037513 0)
(0.68719689 -0.013854267 0)
(0.69175013 -0.013392865 0)
(0.69570906 -0.013060478 0)
(0.69959447 -0.012987835 0)
(0.70396254 -0.012869831 -1.1859492e-34)
(0.70824594 -0.013034716 -6.2414006e-30)
(0.71216273 -0.013466201 0)
(0.7161611 -0.013796012 0)
(0.72064323 -0.013644315 0)
(0.7250842 -0.0129401 0)
(0.72872559 -0.011923747 0)
(0.73216418 -0.011637773 0)
(0.73595351 -0.012269396 0)
(0.73976995 -0.012949827 0)
(0.7437203 -0.013449456 0)
(0.74814911 -0.013819473 0)
(0.7527232 -0.0136499 -1.0226002e-34)
(0.75718389 -0.012918575 -5.7205354e-30)
(0.76127882 -0.012181107 0)
(0.76511612 -0.011710852 0)
(0.76891851 -0.011864299 0)
(0.77240989 -0.01231667 0)
(0.77586534 -0.013044727 0)
(0.78001376 -0.013533234 0)
(0.78437316 -0.013504412 0)
(0.78837973 -0.012899066 0)
(0.79223228 -0.011965111 9.4910573e-35)
(0.79603328 -0.011737117 5.4636209e-30)
(0.79997843 -0.012004379 0)
(0.80362462 -0.011983412 0)
(0.80719698 -0.012267325 9.1780942e-35)
(0.81157405 -0.012671048 5.3023822e-30)
(0.81607817 -0.012689351 0)
(0.81997449 -0.012420568 0)
(0.8238479 -0.012065315 0)
(0.82773982 -0.011808031 0)
(0.83126708 -0.011884011 8.5757955e-35)
(0.83461149 -0.01210682 4.7801551e-30)
(0.83832275 -0.012384176 0)
(0.84223798 -0.012458828 0)
(0.84600657 -0.012119464 0)
(0.84983429 -0.012047529 0)
(0.85399916 -0.012374613 0)
(0.8582034 -0.012244723 0)
(0.86227994 -0.011638318 0)
(0.86615345 -0.011556728 0)
(0.869953 -0.0118169 0)
(0.87360613 -0.011889742 0)
(0.87697794 -0.012168833 0)
(0.88058986 -0.012445227 0)
(0.88453457 -0.012496227 0)
(0.88833429 -0.012525498 0)
(0.89234689 -0.012199273 0)
(0.89640328 -0.011146506 0)
(0.90017831 -0.010335238 0)
(0.90388298 -0.010355465 0)
(0.90735951 -0.010903556 0)
(0.91063028 -0.011737032 0)
(0.91409988 -0.01280699 0)
(0.9178391 -0.013505294 0)
(0.92177378 -0.013365474 0)
(0.92591127 -0.012510975 0)
(0.92999661 -0.011594187 0)
(0.93410861 -0.011065357 0)
(0.93829099 -0.010516808 0)
(0.94241285 -0.0097936752 0)
(0.94621937 -0.0092783145 0)
(0.94983221 -0.0095969119 0)
(0.95339478 -0.010566515 0)
(0.95694837 -0.011453005 0)
(0.96044612 -0.01182234 0)
(0.96366844 -0.011625172 0)
(0.96670887 -0.010897353 0)
(0.96973817 -0.0099938734 0)
(0.97267282 -0.0095290018 0)
(0.97566403 -0.0095506723 0)
(0.97891907 -0.0095297203 0)
(0.98229265 -0.0091851777 0)
(0.98568618 -0.0087568998 -2.6839553e-35)
(0.989185 -0.0085426687 -1.3412308e-30)
(0.99264433 -0.0082480869 0)
(0.99596413 -0.0076707837 0)
(0.99923743 -0.0070454691 0)
(1.0026702 -0.0068570383 0)
(1.0061736 -0.0072463848 0)
(1.0096361 -0.0077659516 0)
(1.0125492 -0.0077965158 0)
(1.0153542 -0.0071721948 0)
(1.017653 -0.0064456994 0)
(1.0202287 -0.005369975 0)
(1.022216 -0.0036030552 0)
(1.0243103 -0.0011847761 0)
(1.0256858 0.0023650283 0)
(1.0268318 0.0058099105 0)
(1.0267581 0.0085597679 0)
(1.027419 0.011086862 0)
(1.0269297 0.013711648 5.4006796e-34)
(1.0258853 0.015891728 3.6610675e-29)
(1.0244428 0.021128739 0)
(1.0213281 0.024731671 0)
(1.0158591 0.032642705 0)
(1.0089461 0.041724242 0)
(0.9973314 0.051166638 0)
(0.98421901 0.061537869 0)
(0.97088888 0.074570337 0)
(0.94655444 0.092327804 0)
(0.93327139 0.10871758 0)
(0.90197428 0.13553897 0)
(0.8700423 0.16135443 0)
(0.84044906 0.18307491 0)
(0.79199691 0.21382837 4.2519779e-33)
(0.75184733 0.23319135 2.3834369e-28)
(0.70390447 0.25628548 -4.0774417e-33)
(0.65425426 0.28552534 -2.0701098e-28)
(0.60082374 0.29777996 0)