/*--------------------------------*- C++ -*----------------------------------*\
| =========                 |                                                 |
| \\      /  F ield         | OpenFOAM: The Open Source CFD Toolbox           |
|  \\    /   O peration     | Version:  2306                                  |
|   \\  /    A nd           | Website:  www.openfoam.com                      |
|    \\/     M anipulation  |                                                 |
\*---------------------------------------------------------------------------*/
FoamFile
{
    version     2.0;
    format      ascii;
    arch        "LSB;label=32;scalar=64";
    class       volVectorField;
    location    "0.52";
    object      U;
}
// * * * * * * * * * * * * * * * * * * * * * * * * * * * * * * * * * * * * * //

dimensions      [0 1 -1 0 0 0 0];

internalField   nonuniform List<vector> 
6400
(
(3.4359261e-05 -2.7863817e-05 -9.177434e-20)
(7.9729225e-05 -3.1884473e-05 -4.1225952e-21)
(0.00013014938 -3.1222571e-05 1.7880896e-20)
(0.0001783103 -3.0945147e-05 -6.3863809e-21)
(0.00022673611 -3.0672589e-05 -2.1462467e-20)
(0.00027427532 -3.0349129e-05 7.1059546e-21)
(0.00032103093 -3.0042624e-05 7.0942014e-21)
(0.00036704688 -2.9723444e-05 -1.514589e-20)
(0.00041228924 -2.9379472e-05 -7.0128218e-21)
(0.00045669023 -2.9005409e-05 3.795862e-20)
(0.00050016891 -2.8598878e-05 4.1948685e-20)
(0.00054263834 -2.8159281e-05 -1.6870535e-21)
(0.00058401007 -2.768723e-05 3.0636912e-20)
(0.0006241984 -2.7183714e-05 3.219985e-20)
(0.00066312189 -2.6650005e-05 1.6964655e-20)
(0.00070070419 -2.608757e-05 1.6144959e-20)
(0.000736874 -2.5497917e-05 8.0944661e-21)
(0.00077156514 -2.4882746e-05 2.0397328e-20)
(0.00080471711 -2.4243725e-05 8.5568784e-21)
(0.00083627485 -2.3582569e-05 -8.9832113e-21)
(0.00086618944 -2.2901163e-05 9.8892032e-21)
(0.00089441727 -2.220095e-05 2.2127954e-20)
(0.00092092057 -2.1483863e-05 1.3590192e-20)
(0.00094566728 -2.0751368e-05 -1.6680832e-20)
(0.00096863134 -2.0005495e-05 -8.4588162e-20)
(0.00098979246 -1.9247635e-05 -4.634997e-20)
(0.0010091356 -1.8479186e-05 5.3704733e-20)
(0.0010266504 -1.7701085e-05 -2.3207281e-20)
(0.0010423337 -1.691504e-05 -6.1486383e-20)
(0.0010561875 -1.6120259e-05 2.5236816e-20)
(0.0010682192 -1.5316795e-05 1.9456527e-20)
(0.0010784478 -1.4503694e-05 -5.2845516e-20)
(0.0010869055 -1.3690345e-05 -1.0813615e-19)
(0.0010936143 -1.2900446e-05 3.3682464e-20)
(0.0010985833 -1.2140232e-05 1.4727332e-19)
(0.0011018376 -1.1408421e-05 -3.7277626e-20)
(0.0011034148 -1.0700531e-05 -1.0886919e-19)
(0.0011033555 -1.001527e-05 4.6956477e-21)
(0.0011017081 -9.3523508e-06 -2.4599253e-20)
(0.0010985232 -8.710565e-06 -8.6538265e-20)
(0.0010938517 -8.0905101e-06 -1.7851239e-20)
(0.0010877504 -7.4936659e-06 1.0559365e-19)
(0.0010802749 -6.9203046e-06 2.865305e-19)
(0.0010714881 -6.3774552e-06 2.7374802e-19)
(0.0010614567 -5.8653895e-06 -1.0046534e-19)
(0.0010502355 -5.3839835e-06 -4.46734e-19)
(0.0010378811 -4.9295051e-06 -2.093496e-19)
(0.0010244609 -4.4978798e-06 1.2917402e-19)
(0.0010100475 -4.0789554e-06 1.463394e-19)
(0.00099470907 -3.6487691e-06 2.9381541e-20)
(0.00097850717 -3.2357471e-06 -8.0305172e-20)
(0.00096149951 -2.8409476e-06 9.6156286e-20)
(0.00094372675 -2.4446644e-06 1.54044e-19)
(0.00092530411 -1.9812324e-06 -8.1009774e-20)
(0.0009063392 -1.5308364e-06 -1.029152e-19)
(0.00088686371 -1.1066718e-06 -7.4432047e-20)
(0.00086693303 -7.1093965e-07 -8.2133691e-20)
(0.00084660808 -3.4173644e-07 1.772025e-20)
(0.00082595143 2.0178444e-09 4.9553207e-20)
(0.00080502351 3.2241095e-07 -9.1512424e-21)
(0.00078388304 6.1918058e-07 -8.2453366e-21)
(0.00076258794 8.9437122e-07 9.1109875e-20)
(0.00074119237 1.1489634e-06 -1.9845464e-20)
(0.00071974865 1.3838491e-06 -2.6787302e-19)
(0.00069830414 1.6011233e-06 -2.2480857e-19)
(0.000676907 1.7979792e-06 1.4413269e-19)
(0.00065560416 1.9779467e-06 3.0369753e-19)
(0.00063443613 2.1417344e-06 3.0044279e-22)
(0.00061344265 2.2886422e-06 -1.5643472e-19)
(0.00059265854 2.4220308e-06 -1.0093976e-19)
(0.00057211936 2.538747e-06 2.7758756e-20)
(0.00055185981 2.6412483e-06 1.4509276e-19)
(0.00053190814 2.7301968e-06 6.0456946e-20)
(0.0005122915 2.8065926e-06 8.3262863e-21)
(0.0004930325 2.8728395e-06 3.3528009e-20)
(0.00047415261 2.9260833e-06 2.9467034e-20)
(0.00045567216 2.9684079e-06 -2.7885233e-20)
(0.0004376088 3.0010249e-06 -7.4174751e-20)
(0.00041997392 3.0299009e-06 -3.7822578e-20)
(0.00040278031 3.0445448e-06 -5.8785533e-20)
(5.9620604e-05 -0.00017784845 3.2582901e-20)
(0.00013258071 -0.00017758487 -5.8137973e-21)
(0.00021390829 -0.00017473844 -2.2622915e-20)
(0.00029151766 -0.00017208841 -5.2580443e-20)
(0.00036918955 -0.00016956042 -4.6774943e-20)
(0.00044522524 -0.00016723793 -6.2932512e-21)
(0.00051977412 -0.00016506529 -3.4937508e-20)
(0.00059290261 -0.00016291686 -1.1743905e-20)
(0.0006645492 -0.00016070057 3.8337534e-20)
(0.00073459288 -0.0001583587 6.964089e-20)
(0.00080288858 -0.00015585892 5.554461e-20)
(0.00086927946 -0.00015318509 7.6285995e-20)
(0.00093360562 -0.00015033187 7.3863977e-20)
(0.00099571163 -0.00014729971 -2.7181943e-20)
(0.0010554499 -0.00014409354 3.0246593e-20)
(0.0011126829 -0.00014072024 5.2006133e-20)
(0.0011672834 -0.00013718809 -8.1949533e-21)
(0.001219134 -0.00013350656 2.7264457e-20)
(0.0012681284 -0.00012968629 3.2445635e-20)
(0.001314172 -0.00012573797 2.4915535e-20)
(0.0013571823 -0.00012167384 2.9479378e-20)
(0.0013970875 -0.00011750437 5.4220345e-20)
(0.0014338276 -0.00011324242 7.2797261e-20)
(0.0014673541 -0.00010889927 2.7783456e-20)
(0.0014976302 -0.00010448821 -1.5295404e-19)
(0.0015246313 -0.00010001969 -2.1300961e-19)
(0.0015483431 -9.5505789e-05 -4.807296e-20)
(0.0015687607 -9.095579e-05 -3.07247e-20)
(0.0015858953 -8.6385038e-05 -8.2694629e-21)
(0.0015997671 -8.1798652e-05 1.2695832e-19)
(0.0016104052 -7.7209364e-05 1.0384554e-20)
(0.001617847 -7.2623156e-05 -1.8272342e-19)
(0.001622131 -6.8062683e-05 -2.1590969e-19)
(0.0016233193 -6.355455e-05 4.4198067e-20)
(0.0016214851 -5.9112953e-05 2.9222046e-19)
(0.0016167081 -5.475067e-05 7.7177425e-20)
(0.0016090725 -5.0465623e-05 -1.3154882e-19)
(0.0015986641 -4.6266233e-05 -1.6873642e-19)
(0.0015855852 -4.2160485e-05 -2.2108849e-19)
(0.0015699432 -3.8150721e-05 -1.5789871e-19)
(0.0015518445 -3.4244443e-05 1.705094e-19)
(0.0015314072 -3.0449269e-05 2.4679721e-19)
(0.0015087437 -2.6762677e-05 3.6628173e-19)
(0.00148398 -2.3206164e-05 5.9512473e-19)
(0.0014572532 -1.9764671e-05 -1.5054743e-19)
(0.0014286888 -1.6416064e-05 -7.9038639e-19)
(0.0013984155 -1.3176866e-05 -3.3075838e-19)
(0.0013665726 -1.0086109e-05 1.2288981e-19)
(0.0013333143 -7.158721e-06 2.6891096e-19)
(0.0012987335 -4.4242988e-06 -5.5710459e-20)
(0.0012629371 -1.8430034e-06 -2.0696382e-19)
(0.001226097 5.9143519e-07 4.2300976e-19)
(0.0011883852 2.893742e-06 3.841154e-19)
(0.0011498754 5.1108865e-06 -1.8491474e-19)
(0.0011106567 7.1840963e-06 -2.9985438e-19)
(0.0010708981 9.1180798e-06 -2.5859224e-19)
(0.0010307275 1.090605e-05 -1.1910151e-19)
(0.00099026374 1.2558151e-05 3.9991927e-20)
(0.00094962152 1.4069202e-05 4.9904451e-20)
(0.00090890503 1.5441079e-05 -6.994618e-20)
(0.00086821999 1.6685707e-05 -3.7701877e-20)
(0.00082767316 1.7798957e-05 2.0452057e-19)
(0.00078735955 1.8790251e-05 -5.3462162e-20)
(0.00074737109 1.9665361e-05 -4.8230755e-19)
(0.00070778219 2.0421833e-05 -3.509089e-19)
(0.00066867696 2.1071971e-05 3.2067903e-19)
(0.00063014063 2.1614704e-05 6.0043117e-19)
(0.00059223425 2.2056564e-05 6.1224822e-21)
(0.00055502377 2.2403795e-05 -4.2734101e-19)
(0.00051856459 2.2674142e-05 -6.0500768e-19)
(0.00048291072 2.2841148e-05 -6.6968032e-22)
(0.00044811584 2.2931154e-05 5.6402086e-19)
(0.00041422085 2.2948631e-05 2.1293059e-19)
(0.00038126706 2.2897388e-05 1.2102891e-19)
(0.00034928016 2.2781536e-05 8.3497977e-21)
(0.0003182878 2.2606632e-05 1.1051247e-19)
(0.00028832104 2.2377325e-05 3.9200662e-21)
(0.00025940391 2.2097748e-05 -4.8040257e-19)
(0.00023153149 2.1771694e-05 -1.726149e-19)
(0.00020471689 2.1406263e-05 1.928591e-19)
(5.9264372e-05 -0.00036488888 6.0109807e-20)
(0.00013095667 -0.00035996321 1.1628066e-20)
(0.00021172455 -0.0003541532 -6.1228207e-20)
(0.00028876724 -0.00034790248 -8.4418106e-20)
(0.0003659334 -0.0003421132 -3.445586e-20)
(0.0004413375 -0.00033688967 -1.2638816e-20)
(0.00051506014 -0.00033196632 -7.2992089e-20)
(0.00058710366 -0.00032708801 6.003623e-21)
(0.00065737088 -0.00032206659 3.357016e-20)
(0.00072572016 -0.00031678002 1.9002388e-20)
(0.00079199199 -0.000311158 8.5132758e-20)
(0.00085601596 -0.00030516372 8.3392258e-20)
(0.00091761856 -0.00029878383 1.0942266e-19)
(0.00097663061 -0.00029201866 4.2159098e-20)
(0.001032891 -0.00028488002 4.2725662e-20)
(0.0010862506 -0.00027738199 7.937542e-20)
(0.001136572 -0.00026954427 2.5659322e-20)
(0.0011837286 -0.00026138882 4.1712761e-20)
(0.0012276064 -0.00025294109 3.4354643e-20)
(0.0012681053 -0.00024422368 -6.3135234e-21)
(0.0013051416 -0.00023526727 4.0358343e-20)
(0.0013386418 -0.00022609754 6.0267473e-20)
(0.0013685477 -0.00021674167 5.616914e-20)
(0.0013948158 -0.00020722766 -1.5860431e-20)
(0.0014174161 -0.00019758673 -1.6378529e-19)
(0.0014363326 -0.00018784348 -1.2804068e-19)
(0.001451562 -0.0001780285 -3.7899682e-20)
(0.0014631104 -0.00016816377 -4.1280084e-20)
(0.0014710067 -0.00015828981 -6.571632e-20)
(0.0014752869 -0.00014842188 7.4263459e-20)
(0.0014759974 -0.00013859533 1.0038466e-19)
(0.001473196 -0.00012882406 -2.0788937e-19)
(0.0014669488 -0.00011915187 -2.1635135e-19)
(0.0014573459 -0.00010958196 -4.8845859e-21)
(0.0014444756 -0.00010013827 1.6111264e-19)
(0.001428448 -9.0852149e-05 2.1555532e-19)
(0.0014093777 -8.1732162e-05 -3.8575995e-20)
(0.0013873757 -7.2806271e-05 -1.591611e-19)
(0.0013625739 -6.4103073e-05 -1.9739724e-19)
(0.0013351074 -5.5626316e-05 -3.2898472e-19)
(0.0013051121 -4.7392336e-05 -1.0183877e-19)
(0.001272743 -3.9414809e-05 4.0518826e-19)
(0.0012381364 -3.1683781e-05 5.602622e-19)
(0.0012014609 -2.4259167e-05 4.0289691e-19)
(0.0011629139 -1.7133933e-05 -1.1348533e-19)
(0.0011226127 -1.0364979e-05 -9.1039567e-19)
(0.0010806469 -3.9405602e-06 -3.7946363e-19)
(0.0010371854 2.166417e-06 2.2892491e-19)
(0.00099240593 7.9405266e-06 4.4270461e-19)
(0.00094652228 1.3346962e-05 5.746214e-19)
(0.00089972278 1.8430442e-05 -4.3256164e-19)
(0.00085212885 2.3179863e-05 -2.4678644e-19)
(0.00080391074 2.7584198e-05 4.0484023e-19)
(0.00075519936 3.1660198e-05 -4.8490525e-20)
(0.00070613942 3.5393541e-05 -1.3211916e-19)
(0.00065688759 3.8818939e-05 -1.6968866e-19)
(0.0006075801 4.1922774e-05 -1.8816274e-19)
(0.00055834957 4.4733382e-05 1.1820548e-19)
(0.00050931936 4.7253874e-05 -2.8802393e-21)
(0.00046062678 4.9461146e-05 -3.5205528e-19)
(0.00041238428 5.1395066e-05 -6.7879909e-20)
(0.00036470454 5.3057702e-05 2.3125072e-19)
(0.00031770196 5.4458445e-05 -1.7250418e-19)
(0.00027146521 5.5605905e-05 -1.652644e-19)
(0.00022608632 5.6506548e-05 3.5709052e-19)
(0.00018165333 5.7182206e-05 2.7020125e-19)
(0.00013824572 5.7637114e-05 -2.3676192e-19)
(9.5938622e-05 5.7882155e-05 -3.3356306e-19)
(5.4807313e-05 5.7933013e-05 -9.052171e-20)
(1.4876163e-05 5.7800284e-05 -3.1101017e-19)
(-2.379169e-05 5.7494698e-05 -1.442788e-19)
(-6.1119005e-05 5.702889e-05 1.8406526e-19)
(-9.709008e-05 5.6416492e-05 5.6399127e-20)
(-0.00013167047 5.5668355e-05 2.5736326e-19)
(-0.00016483387 5.4792779e-05 1.6533016e-19)
(-0.00019655897 5.3807e-05 3.3056383e-19)
(-0.00022682912 5.2719796e-05 7.8002334e-20)
(-0.00025563345 5.1540338e-05 -7.0556161e-19)
(-0.00028296968 5.0271309e-05 -2.0594921e-19)
(-0.000308837 4.8940256e-05 5.0727636e-19)
(4.9530842e-05 -0.00052126637 2.6937048e-19)
(0.00011087488 -0.00051376206 -1.8191305e-20)
(0.00018078777 -0.00050586489 -1.2195021e-19)
(0.00024780379 -0.00049714995 -7.7503839e-20)
(0.00031524298 -0.00048888206 -1.6496376e-19)
(0.00038113782 -0.00048117215 -1.1238237e-19)
(0.00044542031 -0.00047369109 -6.5112741e-20)
(0.00050797955 -0.0004661433 1.8765218e-21)
(0.00056866842 -0.00045830209 3.5506895e-20)
(0.00062732845 -0.00045001723 5.2815674e-20)
(0.00068379989 -0.00044120016 1.0623849e-19)
(0.00073791814 -0.00043180344 6.8957131e-20)
(0.00078951705 -0.00042181215 1.0664235e-19)
(0.00083843431 -0.0004112295 1.1403281e-19)
(0.00088451792 -0.00040007536 6.7739088e-20)
(0.0009276269 -0.00038837259 7.5925991e-20)
(0.00096762998 -0.00037615336 5.0440318e-20)
(0.0010044076 -0.00036345296 6.6690401e-20)
(0.0010378554 -0.00035031208 7.9098599e-20)
(0.0010678778 -0.00033676953 1.4604582e-20)
(0.0010943978 -0.00032287083 5.6607693e-20)
(0.0011173553 -0.00030865793 7.0169291e-20)
(0.0011367001 -0.00029417602 -6.4955365e-20)
(0.0011523955 -0.00027946841 -7.6542792e-20)
(0.0011644244 -0.00026458572 9.922276e-20)
(0.0011727805 -0.00024957315 5.6591084e-20)
(0.0011774732 -0.0002344708 -1.921753e-19)
(0.0011785155 -0.00021932135 -9.7408371e-20)
(0.0011759522 -0.00020418538 9.5234666e-20)
(0.0011698351 -0.00018908578 6.0674906e-20)
(0.0011602271 -0.00017408833 -1.6501834e-19)
(0.0011471897 -0.0001592093 -2.2860203e-19)
(0.0011308098 -0.00014451321 8.7345007e-20)
(0.0011112022 -0.00013001324 2.0708366e-19)
(0.0010884548 -0.00011576112 -9.7502108e-20)
(0.0010627009 -0.00010177965 -3.4023522e-19)
(0.0010340666 -8.8104372e-05 -2.4210606e-20)
(0.0010026615 -7.4788522e-05 1.8358007e-19)
(0.00096864762 -6.1848627e-05 -2.3743607e-19)
(0.00093218666 -4.9302105e-05 -2.5187711e-19)
(0.00089342215 -3.7165337e-05 -5.5465419e-21)
(0.00085253462 -2.5478354e-05 1.1381142e-19)
(0.0008096319 -1.4268791e-05 2.2138557e-19)
(0.00076487903 -3.5587828e-06 1.9546874e-19)
(0.00071845603 6.6476911e-06 6.8531892e-20)
(0.00067053776 1.6268357e-05 -2.4140062e-19)
(0.0006213721 2.5360606e-05 -1.6764593e-19)
(0.00057111058 3.3886005e-05 1.2896629e-19)
(0.00051987782 4.1915958e-05 2.8523834e-19)
(0.00046786196 4.9465931e-05 4.4226718e-19)
(0.00041522675 5.6512808e-05 -2.2841199e-20)
(0.00036212094 6.3013089e-05 -5.0080337e-19)
(0.00030877252 6.8995319e-05 -3.7415433e-20)
(0.00025528045 7.445946e-05 2.6897168e-19)
(0.00020177657 7.9415953e-05 -5.3662299e-20)
(0.00014845039 8.3865155e-05 -2.6846324e-19)
(9.5445052e-05 8.7818564e-05 -2.0430272e-19)
(4.2912541e-05 9.128602e-05 5.0786078e-21)
(-9.0655911e-06 9.4286851e-05 3.8606958e-21)
(-6.033585e-05 9.6828513e-05 -1.7240709e-19)
(-0.00011075643 9.8927231e-05 1.084053e-20)
(-0.0001602407 0.0001006061 1.9991537e-19)
(-0.00020868146 0.000101877 -9.8071313e-21)
(-0.00025598283 0.00010275488 -1.1226407e-19)
(-0.00030205677 0.00010326335 2.8274997e-20)
(-0.0003468209 0.00010341986 1.5758084e-19)
(-0.00039019967 0.00010324621 -1.3792009e-19)
(-0.00043212643 0.00010275925 -3.2192897e-19)
(-0.00047254121 0.00010197934 -1.4217954e-19)
(-0.00051139971 0.00010091371 -1.1257373e-19)
(-0.00054865463 9.9614048e-05 5.2897976e-20)
(-0.00058426071 9.8077873e-05 6.8826732e-20)
(-0.00061819104 9.6326637e-05 -1.0430593e-19)
(-0.0006504219 9.4380304e-05 -9.4836232e-20)
(-0.00068093644 9.2257132e-05 1.7971083e-19)
(-0.00070972308 8.9976858e-05 4.1217441e-19)
(-0.0007367754 8.7556773e-05 -2.0757444e-19)
(-0.00076209294 8.5013783e-05 -5.5795366e-19)
(-0.00078568245 8.2363136e-05 4.0691396e-20)
(-0.00080755372 7.9623925e-05 1.2737079e-19)
(4.0332904e-05 -0.00064898625 2.5083184e-19)
(9.1051614e-05 -0.00064151348 -1.5031611e-19)
(0.00014983146 -0.00063297942 -2.9955581e-19)
(0.00020670037 -0.00062316236 -3.1138206e-19)
(0.00026430472 -0.00061336158 -2.507585e-19)
(0.00032068102 -0.00060373673 -1.299329e-19)
(0.00037561353 -0.00059403675 -2.6539967e-20)
(0.0004288824 -0.00058401236 5.2752488e-22)
(0.0004802862 -0.00057345634 7.3695424e-20)
(0.00052964357 -0.00056223 1.2310626e-19)
(0.00057679114 -0.0005502491 1.513309e-19)
(0.00062156798 -0.0005374694 1.0256467e-19)
(0.00066381552 -0.00052388319 1.218246e-19)
(0.00070338023 -0.00050950281 1.5493851e-19)
(0.00074012075 -0.00049435478 8.8964137e-20)
(0.00077390729 -0.00047847603 9.1400482e-20)
(0.00080461815 -0.00046191209 8.192924e-20)
(0.00083214128 -0.00044471481 1.0420959e-19)
(0.00085638132 -0.00042693508 7.0987432e-20)
(0.00087725477 -0.00040863517 -4.5803039e-22)
(0.00089469399 -0.00038987463 4.6336906e-20)
(0.00090864484 -0.00037071149 8.6513334e-20)
(0.00091906736 -0.00035120964 4.8285565e-20)
(0.00092593217 -0.00033143377 1.2813732e-19)
(0.00092922852 -0.00031144527 1.8564837e-19)
(0.00092896779 -0.00029131488 -6.0570428e-20)
(0.00092516891 -0.00027109064 -2.7664774e-19)
(0.00091784252 -0.0002508456 -1.4017714e-19)
(0.00090705475 -0.00023063906 9.9665685e-20)
(0.00089285405 -0.00021052656 5.5020455e-20)
(0.00087531612 -0.00019058168 -2.091631e-19)
(0.0008545217 -0.00017082989 -2.4837992e-20)
(0.00083056245 -0.00015136756 1.6219468e-19)
(0.00080355646 -0.00013220516 1.4718679e-19)
(0.00077360656 -0.00011342547 -1.2737032e-19)
(0.00074085627 -9.5036697e-05 -4.3785219e-19)
(0.00070541065 -7.7121506e-05 -5.6400735e-20)
(0.00066741843 -5.9722786e-05 1.088671e-19)
(0.0006270638 -4.2862065e-05 -1.9552361e-19)
(0.00058450179 -2.6563205e-05 -2.9538732e-19)
(0.00053986208 -1.0869913e-05 -2.3854844e-19)
(0.00049330582 4.2060804e-06 2.1792662e-19)
(0.00044500232 1.857626e-05 4.4488065e-19)
(0.0003951564 3.2272033e-05 6.1348151e-20)
(0.00034392438 4.5258754e-05 -2.4799277e-19)
(0.00029149625 5.7591928e-05 -2.043659e-19)
(0.0002380154 6.920741e-05 4.6838839e-20)
(0.00018367952 8.004095e-05 3.7231179e-19)
(0.00012871851 9.0136924e-05 1.7552582e-19)
(7.3262425e-05 9.9499825e-05 -6.4738505e-20)
(1.7449232e-05 0.00010811421 1.0381353e-19)
(-3.854156e-05 0.00011599149 -1.0559186e-20)
(-9.4491136e-05 0.00012314647 -1.0436542e-19)
(-0.00015028617 0.0001295419 9.3058076e-21)
(-0.00020578015 0.00013524836 2.0048995e-20)
(-0.00026081257 0.00014025391 -3.2964114e-20)
(-0.00031523967 0.00014459152 -3.2979816e-19)
(-0.00036892308 0.00014825745 -3.5915144e-19)
(-0.00042174444 0.00015127399 -4.38193e-20)
(-0.00047357493 0.00015368828 1.3845824e-20)
(-0.00052429323 0.0001554993 1.4368571e-19)
(-0.00057379627 0.00015673566 2.8512354e-19)
(-0.00062198505 0.00015742253 1.3568182e-19)
(-0.00066876837 0.0001575858 -1.7224336e-19)
(-0.00071406333 0.00015725358 -4.0123226e-19)
(-0.00075779361 0.00015645409 -4.5846382e-20)
(-0.00079989016 0.00015521538 1.3739888e-19)
(-0.00084029322 0.00015356493 3.3386871e-20)
(-0.00087895063 0.00015153093 -2.7207238e-19)
(-0.00091581928 0.00014914013 -4.65888e-19)
(-0.00095086099 0.00014642738 9.5529723e-20)
(-0.00098404353 0.0001434166 3.5131196e-19)
(-0.0010153443 0.00014013476 1.6630295e-19)
(-0.0010447472 0.00013660872 -1.592445e-19)
(-0.0010722429 0.00013286453 -2.0885197e-19)
(-0.0010978279 0.00012892831 -7.5010909e-20)
(-0.0011215043 0.00012482463 -2.6686739e-19)
(-0.00114328 0.00012057702 -6.5306501e-20)
(-0.0011631689 0.00011620804 2.6818123e-20)
(-0.0011811893 0.00011174087 -2.1602936e-19)
(3.4375419e-05 -0.00075458409 1.9577802e-19)
(7.7910688e-05 -0.0007484239 -2.9847589e-19)
(0.00012892203 -0.00074024913 -3.9257953e-19)
(0.00017868222 -0.00073029264 -3.9917675e-19)
(0.00022935371 -0.00071968614 -2.9196789e-19)
(0.00027905996 -0.00070865154 -1.8672409e-19)
(0.0003274887 -0.00069707751 -1.0288589e-19)
(0.00037434601 -0.00068480884 -1.8757929e-20)
(0.00041938265 -0.00067169879 9.6077276e-20)
(0.00046239066 -0.00065764669 1.0370592e-19)
(0.00050319737 -0.00064259139 1.0960455e-19)
(0.00054163659 -0.00062650708 1.0337452e-19)
(0.00057754868 -0.00060939736 7.9942371e-20)
(0.00061078707 -0.00059128908 9.5439042e-20)
(0.00064121527 -0.00057221959 7.8503617e-20)
(0.00066870683 -0.00055224109 1.1671226e-19)
(0.00069314653 -0.00053141273 1.0222802e-19)
(0.00071443279 -0.00050980322 8.70678e-20)
(0.00073247272 -0.00048748163 9.3845966e-20)
(0.00074718558 -0.0004645199 9.2829163e-20)
(0.0007585159 -0.00044100145 9.9962616e-20)
(0.00076641629 -0.00041700415 1.0322867e-19)
(0.00077084693 -0.00039260179 1.5407133e-19)
(0.00077178984 -0.00036788368 1.5027902e-19)
(0.00076923966 -0.00034292517 1.227926e-19)
(0.00076321622 -0.00031780809 -3.9914888e-21)
(0.00075374078 -0.00029261835 -1.4069326e-19)
(0.00074082918 -0.00026744182 -1.5580597e-19)
(0.00072455637 -0.00024232519 -7.9098166e-20)
(0.00070497523 -0.00021738058 -9.4361701e-21)
(0.00068218548 -0.0001926735 1.6887415e-20)
(0.00065624052 -0.00016825346 1.5020608e-19)
(0.00062725465 -0.00014422314 9.6837276e-20)
(0.00059536455 -0.00012060272 -1.0696867e-19)
(0.00056067079 -9.7513324e-05 -1.7459446e-19)
(0.00052330978 -7.4974215e-05 -9.6081068e-20)
(0.00048339235 -5.3036039e-05 -3.6142384e-20)
(0.00044109168 -3.1793922e-05 -1.4243828e-19)
(0.00039659502 -1.1210586e-05 -1.9614944e-19)
(0.00035005021 8.5866898e-06 -2.9775289e-19)
(0.00030161569 2.7618068e-05 -2.6682242e-19)
(0.0002514355 4.5777688e-05 5.6750682e-20)
(0.0001996632 6.311925e-05 1.6824539e-19)
(0.00014651954 7.9575321e-05 7.5762312e-21)
(9.2215002e-05 9.5038422e-05 -1.2869461e-20)
(3.6884041e-05 0.00010961632 9.5774594e-20)
(-1.9338287e-05 0.00012322919 1.4959267e-19)
(-7.6187118e-05 0.00013593161 9.2788412e-20)
(-0.00013347318 0.00014766691 -9.4596841e-21)
(-0.00019106705 0.00015844845 -1.0799099e-20)
(-0.00024880108 0.00016826062 3.0557679e-20)
(-0.00030650236 0.00017715252 2.1297314e-20)
(-0.0003639921 0.00018510706 5.0465786e-20)
(-0.00042112191 0.00019212625 -7.9256567e-20)
(-0.00047774206 0.00019824387 -1.5603221e-19)
(-0.0005337019 0.00020347516 7.8505e-20)
(-0.00058885989 0.00020784594 -3.6253956e-21)
(-0.00064308137 0.00021137618 -1.670287e-19)
(-0.00069624134 0.00021409451 -1.5866977e-19)
(-0.00074821807 0.00021603566 -1.9172782e-19)
(-0.00079889777 0.00021722585 1.4811197e-20)
(-0.00084817672 0.00021769734 2.4227676e-19)
(-0.00089595912 0.0002174837 2.5698513e-19)
(-0.00094215747 0.00021661972 4.5261451e-20)
(-0.00098669247 0.00021514152 -2.2363791e-19)
(-0.0010294924 0.00021308604 -1.3747479e-19)
(-0.0010704933 0.00021049006 -8.4655467e-20)
(-0.0011096402 0.00020739044 -2.7254988e-20)
(-0.0011468858 0.00020382434 -8.4039057e-20)
(-0.001182191 0.00019982877 -2.061716e-19)
(-0.0012155235 0.00019544204 -2.4520534e-20)
(-0.0012468579 0.00019069965 6.0148671e-20)
(-0.0012761767 0.00018563686 5.4633084e-20)
(-0.0013034695 0.00018028828 5.134704e-20)
(-0.0013287324 0.0001746877 5.5062146e-20)
(-0.0013519678 0.00016886816 -1.3995997e-19)
(-0.0013731838 0.00016286136 -3.0400534e-19)
(-0.0013923942 0.00015669767 -1.0525196e-19)
(-0.0014096185 0.00015040624 -7.7794368e-20)
(-0.0014248806 0.00014401547 -7.4893569e-20)
(3.1663374e-05 -0.00084813495 1.2274739e-19)
(7.16478e-05 -0.00084353279 -4.9971064e-19)
(0.00011863711 -0.00083609604 -5.3850226e-19)
(0.00016463711 -0.00082641068 -3.3960166e-19)
(0.00021157114 -0.00081535352 -2.9737695e-19)
(0.00025768272 -0.00080319818 -3.1038907e-19)
(0.00030262458 -0.00078997035 -1.7953753e-19)
(0.00034606903 -0.00077561794 -1.4800822e-20)
(0.00038773589 -0.00076007197 4.6546174e-20)
(0.00042739406 -0.00074327941 8.4227593e-20)
(0.00046485539 -0.00072521416 1.1191866e-19)
(0.00049994555 -0.00070587625 9.3131336e-20)
(0.00053249885 -0.00068528494 8.0964114e-20)
(0.00056236536 -0.00066348593 8.2460231e-20)
(0.00058940874 -0.00064053087 6.3404706e-20)
(0.000613503 -0.00061649012 8.8132661e-20)
(0.00063453266 -0.00059143843 9.0098563e-20)
(0.00065239578 -0.00056545227 8.7928107e-20)
(0.00066700948 -0.00053863453 1.4076911e-19)
(0.00067829072 -0.00051106239 1.4711569e-19)
(0.00068618115 -0.00048283405 1.5652253e-19)
(0.00069064854 -0.00045405614 1.3969337e-19)
(0.00069165331 -0.00042481268 1.939146e-19)
(0.00068917672 -0.00039521464 2.3803688e-19)
(0.00068322313 -0.0003653568 1.2454277e-19)
(0.00067380497 -0.0003353272 1.4505296e-20)
(0.00066094858 -0.00030525791 -7.1654431e-20)
(0.00064470345 -0.00027522784 -1.2338998e-19)
(0.00062511994 -0.00024531171 -7.5133785e-20)
(0.00060224513 -0.00021561009 5.3618424e-20)
(0.00057621465 -0.00018623985 1.2457105e-19)
(0.00054707719 -0.00015728379 1.6908895e-19)
(0.00051496158 -0.00012878237 9.4901094e-20)
(0.00047997202 -0.00010085876 -1.8312131e-20)
(0.00044221573 -7.3586127e-05 -8.3414475e-20)
(0.0004019091 -4.6996041e-05 -1.6408654e-19)
(0.00035909433 -2.1169862e-05 -1.4836282e-19)
(0.00031400065 3.8083135e-06 -2.5813613e-19)
(0.00026677899 2.7927272e-05 -2.3087486e-19)
(0.00021757858 5.1067796e-05 -1.5963932e-19)
(0.00016654445 7.3240116e-05 -1.2761868e-19)
(0.00011387848 9.4386065e-05 -2.2158413e-19)
(5.9778085e-05 0.00011444014 -1.8553962e-19)
(4.2895334e-06 0.00013337156 1.2423554e-19)
(-5.2252575e-05 0.00015117024 2.2172701e-19)
(-0.00010963645 0.00016780647 2.395583e-19)
(-0.00016776872 0.00018329997 2.294015e-19)
(-0.00022643769 0.00019766057 -3.6074414e-20)
(-0.00028545459 0.00021083881 -1.6866997e-20)
(-0.00034465211 0.000222843 -3.1476569e-20)
(-0.00040385939 0.00023367786 -1.4268159e-19)
(-0.00046290554 0.00024336353 -5.486193e-20)
(-0.00052162062 0.00025190837 -3.998304e-20)
(-0.00057984749 0.00025932716 -7.5079932e-20)
(-0.00063743355 0.00026564588 -8.4543714e-20)
(-0.00069422948 0.00027089017 -1.4428819e-20)
(-0.00075009393 0.00027508971 9.4999517e-21)
(-0.00080489262 0.00027827565 4.9490393e-20)
(-0.0008584993 0.00028048332 -4.1164838e-20)
(-0.00091079438 0.00028175117 -2.2056007e-19)
(-0.00096166633 0.00028211753 -9.9391832e-20)
(-0.0010110124 0.0002816231 2.3354312e-20)
(-0.0010587382 0.00028031025 1.2596733e-19)
(-0.0011047582 0.00027822278 1.4373041e-19)
(-0.0011489951 0.00027540569 -3.855609e-20)
(-0.0011913798 0.00027190477 -6.3850614e-20)
(-0.0012318517 0.00026776604 -1.3653441e-19)
(-0.0012703583 0.00026303564 -6.9111703e-20)
(-0.0013068558 0.00025775981 1.0494339e-20)
(-0.0013413081 0.00025198459 -7.2326922e-20)
(-0.0013736864 0.00024575586 -1.6267072e-20)
(-0.0014039699 0.00023911825 -3.7657466e-20)
(-0.0014321447 0.00023211545 -7.5578832e-20)
(-0.0014582043 0.00022479017 6.3040212e-21)
(-0.0014821488 0.00021718396 8.2724602e-20)
(-0.0015039846 0.00020933713 -2.8554594e-20)
(-0.0015237241 0.00020128846 -1.7011534e-19)
(-0.0015413854 0.00019307517 -1.884704e-19)
(-0.001556992 0.00018473286 -1.792269e-19)
(-0.001570572 0.0001762956 -4.4118057e-20)
(3.1245931e-05 -0.00093766156 1.4240948e-19)
(7.0420064e-05 -0.0009343077 -4.7092226e-19)
(0.0001163172 -0.00092752763 -5.6675269e-19)
(0.000161198 -0.00091809985 -4.3587831e-19)
(0.0002069369 -0.00090663621 -2.8952896e-19)
(0.00025188102 -0.00089343828 -1.8756843e-19)
(0.00029569226 -0.00087863406 -1.3799649e-19)
(0.00033803749 -0.00086226197 1.7017004e-20)
(0.00037862297 -0.00084432357 1.0781179e-19)
(0.00041720235 -0.00082481509 1.3353503e-19)
(0.00045357255 -0.00080374943 1.5650401e-19)
(0.00048754917 -0.00078115175 1.1263648e-19)
(0.00051895454 -0.00075706384 1.0102543e-19)
(0.00054763258 -0.00073155347 9.828437e-20)
(0.00057344119 -0.00070468569 5.0751132e-20)
(0.00059624984 -0.00067655066 4.8784103e-20)
(0.00061594846 -0.00064724267 6.2195525e-20)
(0.00063242169 -0.00061685091 7.2543094e-20)
(0.00064558783 -0.00058549681 1.2934528e-19)
(0.00065537686 -0.00055327781 1.5568089e-19)
(0.00066171657 -0.00052031162 1.7515745e-19)
(0.00066457973 -0.0004867141 2.1192809e-19)
(0.00066393053 -0.00045259543 3.1019386e-19)
(0.0006597478 -0.00041809481 4.0184842e-19)
(0.00065204833 -0.00038330326 2.2853094e-19)
(0.00064082803 -0.00034835 8.8048899e-20)
(0.00062612399 -0.00031336998 -3.7731765e-20)
(0.00060800396 -0.00027845562 -1.3242859e-19)
(0.00058653037 -0.00024372575 -8.2805897e-20)
(0.00056172193 -0.00020927207 6.430765e-20)
(0.00053369842 -0.00017522521 1.9010899e-19)
(0.00050258457 -0.00014170872 2.9008364e-19)
(0.0004684612 -0.00010875256 1.6728819e-19)
(0.00043144163 -7.651268e-05 4.8617386e-20)
(0.00039171037 -4.5047369e-05 -5.0001182e-20)
(0.00034939955 -1.4418992e-05 -1.2614516e-19)
(0.00030457119 1.5229717e-05 -1.0233177e-19)
(0.00025746315 4.3911762e-05 -2.8521109e-19)
(0.00020823024 7.1475279e-05 -2.9354083e-19)
(0.0001570464 9.7908936e-05 -2.1898076e-19)
(0.00010412403 0.00012313688 -2.025827e-19)
(4.9534326e-05 0.00014717998 -1.1345795e-19)
(-6.5443714e-06 0.0001698598 -8.8458565e-20)
(-6.3836382e-05 0.00019119916 -1.1152379e-20)
(-0.00012213205 0.00021125331 1.0924409e-19)
(-0.00018126688 0.00022992219 2.9057134e-19)
(-0.00024107047 0.00024721163 3.0296053e-19)
(-0.00030135176 0.00026312006 3.7463389e-20)
(-0.00036192289 0.00027763464 -7.103632e-20)
(-0.00042260508 0.00029075779 -7.9678318e-20)
(-0.00048322191 0.00030249801 -1.9052706e-19)
(-0.00054359984 0.00031287147 -1.0530448e-19)
(-0.00060356921 0.00032189574 -8.0498474e-20)
(-0.000662968 0.00032959307 -9.8474833e-20)
(-0.0007216401 0.00033599264 -9.9829275e-21)
(-0.00077943506 0.00034112682 5.441845e-21)
(-0.00083620976 0.00034503193 -5.7940222e-20)
(-0.00089182858 0.00034774739 -3.7216964e-20)
(-0.00094616382 0.0003493162 -3.8616177e-20)
(-0.00099909559 0.0003497842 -1.5962039e-19)
(-0.0010505124 0.00034919916 -1.0886399e-19)
(-0.0011003113 0.00034761092 -2.2400037e-20)
(-0.0011483983 0.00034507111 -3.1100187e-20)
(-0.0011946882 0.00034163287 -2.5063671e-20)
(-0.0012391046 0.00033735051 -2.6275733e-20)
(-0.0012815796 0.00033227915 -5.1965039e-20)
(-0.001322054 0.00032647427 -1.0973568e-19)
(-0.0013604774 0.00031999148 -2.1394363e-20)
(-0.0013968075 0.00031288628 3.1023824e-20)
(-0.0014310103 0.00030521382 -4.2357106e-20)
(-0.0014630599 0.00029702862 -2.4295985e-20)
(-0.0014929378 0.00028838412 -5.3907516e-20)
(-0.0015206331 0.0002793326 1.5786986e-20)
(-0.001546142 0.00026992498 6.0943121e-20)
(-0.0015694678 0.0002602107 -1.1197847e-20)
(-0.0015906198 0.00025023758 -1.1434236e-19)
(-0.0016096138 0.00024005161 -1.7039024e-19)
(-0.001626471 0.00022969684 -8.0409403e-20)
(-0.0016412183 0.00021921535 -1.2475013e-19)
(-0.0016538871 0.00020864712 -1.1166032e-19)
(3.2205469e-05 -0.0010282981 1.8566596e-19)
(7.2325352e-05 -0.0010257471 -3.7358648e-19)
(0.00011908662 -0.0010193384 -5.1874972e-19)
(0.00016465173 -0.0010099391 -4.021512e-19)
(0.00021096371 -0.00099793155 -2.405341e-19)
(0.00025642876 -0.00098362587 -1.1135952e-19)
(0.00030073642 -0.00096721378 -6.7537088e-20)
(0.00034356607 -0.00094880107 2.7429226e-20)
(0.00038462189 -0.00092844538 1.1891904e-19)
(0.00042364595 -0.00090618744 1.7118428e-19)
(0.00046042502 -0.00088207475 1.3860132e-19)