/*--------------------------------*- C++ -*----------------------------------*\
| =========                 |                                                 |
| \\      /  F ield         | OpenFOAM: The Open Source CFD Toolbox           |
|  \\    /   O peration     | Version:  2106                                  |
|   \\  /    A nd           | Website:  www.openfoam.com                      |
|    \\/     M anipulation  |                                                 |
\*---------------------------------------------------------------------------*/
FoamFile
{
    version     2.0;
    format      ascii;
    arch        "LSB;label=32;scalar=64";
    class       surfaceScalarField;
    location    "0.05";
    object      phi_0;
}
// * * * * * * * * * * * * * * * * * * * * * * * * * * * * * * * * * * * * * //

dimensions      [0 3 -1 0 0 0 0];

oriented        oriented;

internalField   nonuniform List<scalar> 
480
(
-0.00056455948
0.00056483054
-0.0010431851
0.00047862559
-0.0013626908
0.00031950568
-0.0014746601
0.00011196929
-0.0013622485
-0.00011241155
-0.0010426472
-0.00031960133
-0.0005644068
-0.00047824036
-2.4531009e-07
-0.00056416149
0.00056395746
-0.00056420277
0.0010423236
-0.00047836616
0.0013620883
-0.00031976469
0.0014746435
-0.00011255521
0.0013628639
0.00011177963
0.0010435222
0.0003193417
0.00056499801
0.00047852418
0.00056472695
-0.00062140954
0.0011865319
-0.0011481178
0.0010053338
-0.0014995859
0.00067097376
-0.0016226647
0.00023504818
-0.0014989342
-0.00023614211
-0.0011473003
-0.00067123518
-0.00062108088
-0.0010044598
-2.5520602e-07
-0.0011849872
0.00062061519
-0.0011850732
0.0011469779
-0.0010047289
0.0014987828
-0.00067156957
0.0016226358
-0.00023640826
0.001499756
0.0002346594
0.0011484568
0.00067064094
0.00062185918
0.0010051218
0.0011862943
-0.00077182374
0.0019587326
-0.0014257731
0.0016592832
-0.0018618167
0.0011070173
-0.0020143648
0.00038759622
-0.0018607777
-0.00038972918
-0.0014244106
-0.0011076023
-0.00077119436
-0.0016576761
-3.1064285e-07
-0.0019558709
0.00077065188
-0.0019560357
0.0014240917
-0.0016581687
0.001860649
-0.0011081269
0.0020142946
-0.00039005381
0.0018619755
0.00038697842
0.0014261214
0.0011064951
0.00077233879
0.0016589044
0.0019582562
-0.0010013447
0.0029606497
-0.0018492547
0.0025071932
-0.0024139148
0.0016716775
-0.0026111184
0.00058479979
-0.0024121022
-0.00058874533
-0.0018468797
-0.0016728249
-0.0010002075
-0.0025043482
-4.6150101e-07
-0.0029556169
0.00099939657
-0.0029558938
0.0018464347
-0.0025052068
0.0024119424
-0.0016736346
0.0026109895
-0.00058910087
0.0024141464
0.00058382152
0.0018497432
0.0016708983
0.0010020852
0.0025065624
0.0029597688
-0.0015578914
0.0045197928
-0.0028762409
0.0038255427
-0.0037529097
0.0025483464
-0.004058829
0.00089071906
-0.0037499772
-0.00089759716
-0.0028721085
-0.0025506935
-0.0015560844
-0.0038203723
-1.040025e-06
-0.0045106613
0.0015544189
-0.0045113527
0.0028714355
-0.0038222234
0.0037497753
-0.0025519745
0.004058502
-0.00089782757
0.0037532587
0.00088906485
0.0028770409
0.0025471161
0.0015594015
0.0038242018
0.0045179187
-0.0023868486
0.0069088694
-0.0044057718
0.0058444659
-0.0057470388
0.0038896134
-0.0062149853
0.0013586656
-0.0057433973
-0.0013691851
-0.0044009103
-0.0038931805
-0.0023855861
-0.0058356964
-1.9476336e-06
-0.0068942998
0.0023824072
-0.0068957076
0.0043994764
-0.0058392926
0.0057428326
-0.0038953306
0.0062144846
-0.0013694795
0.0057479953
0.0013555541
0.0044074106
0.0038877008
0.002389609
0.0058420034
0.0069052996
-0.0036704629
0.010584118
-0.0067728605
0.0089468635
-0.0088311537
0.0059479066
-0.0095502372
0.002077749
-0.0088266976
-0.0020927247
-0.0067650889
-0.0059547892
-0.0036690675
-0.0089317178
-4.1264805e-06
-0.010559241
0.0036641048
-0.010563939
0.0067657272
-0.0089409149
0.0088274739
-0.0059570773
0.0095484469
-0.0020904525
0.00883069
0.0020733109
0.0067732021
0.0059451888
0.003675054
0.0089401515
0.010575568
-0.0028170619
0.013405695
-0.0052024691
0.011332271
-0.006789068
0.0075345055
-0.0073481532
0.0026368343
-0.0067957456
-0.0026451323
-0.0052105812
-0.0075399536
-0.0028272601
-0.011315039
-3.555808e-06
-0.013382945
0.0028240912
-0.013391586
0.0052134405
-0.011330264
0.0067977797
-0.0075414165
0.0073458955
-0.0026385684
0.0067866284
0.0026325781
0.0052007139
0.0075311032
0.0028205493
0.011320316
0.013391603
0.0028026747
0.010598485
0.0051714302
0.0089635151
0.00674001
0.0059659257
0.0072841413
0.0020927029
0.0067265241
-0.0020875151
0.0051510546
-0.0059644842
0.0027925852
-0.0089565695
3.5417608e-06
-0.010593902
-0.002789425
-0.010598619
-0.0051539034
-0.0089657858
-0.0067285499
-0.00596677
-0.0072818835
-0.0020852349
-0.0067375759
0.0020882705
-0.0051696846
0.0059632119
-0.0028061893
0.0089568209
0.010589948
0.0036670881
0.0069266064
0.0067679641
0.005862639
0.008825969
0.0039079209
0.0095456669
0.001373005
0.0088234833
-0.0013653315
0.0067637144
-0.0039047153
0.003669109
-0.0058619642
4.1610047e-06
-0.0069289536
-0.0036640992
-0.0069303589
-0.0067643345
-0.0058655506
-0.0088242433
-0.0039068611
-0.0095438584
-0.0013656198
-0.0088254872
0.0013698994
-0.006768297
0.0039060217
-0.0036716818
0.0058602057
0.006923057
0.0023207553
0.0046036546
0.0042842419
0.0038991524
0.0055901913
0.0026019714
0.0060481509
0.00091504545
0.005591944
-0.00090912461
0.0042864211
-0.0025991924
0.0023239791
-0.0038995222
1.961614e-06
-0.0046069361
-0.0023207651
-0.0046076322
-0.0042849379
-0.0039013778
-0.0055913363
-0.0026004626
-0.0060476212
-0.00090933493
-0.0055911353
0.0009134135
-0.004285867
0.0026007534
-0.0023234761
0.0038978147
0.0046017773
0.0015787281
0.0030236781
0.0029156844
0.0025621961
0.0038063537
0.001711302
0.0041189516
0.00060244763
0.0038076001
-0.0005977732
0.0029176131
-0.0017092053
0.0015812005
-0.0025631096
1.0664325e-06
-0.003026802
-0.0015794952
-0.0030270706
-0.0029169149
-0.0025639581
-0.0038073718
-0.0017100058
-0.0041185878
-0.00059811895
-0.003806659
0.00060148479
-0.002916448
0.0017105423
-0.0015802203
0.0025615871
0.0030228055
0.00082548997
0.0021977002
0.0015247058
0.0018629803
0.001990958
0.0012450498
0.0021548924
0.00043851321
0.0019920318
-0.00043491256
0.0015261812
-0.0012433548
0.00082685826
-0.0018637866
4.1149976e-07
-0.0022003553
-0.00082613073
-0.0022005283
-0.0015257842
-0.0018643046
-0.001991889
-0.001243901
-0.0021547468
-0.00043526109
-0.0019911355
0.00043787348
-0.0015250933
0.0012445001
-0.00082608635
0.0018625801
0.002197207
0.00082231518
0.0013750761
0.0015193677
0.0011659278
0.0019848496
0.00077956788
0.0021485168
0.00027484595
0.0019856174
-0.00027201308
0.0015204986
-0.00077823601
0.00082335211
-0.0011666401
2.561347e-07
-0.0013772593
-0.00082291352
-0.0013773587
-0.0015202605
-0.0011669576
-0.0019855223
-0.00077863928
-0.0021484237
-0.00027235967
-0.0019849293
0.00027437909
-0.0015195997
0.0007791705
-0.00082269665
0.0011656771
0.0013748193
0.00024322716
0.0011316681
0.00044962571
0.00095952929
0.00058772016
0.00064147342
0.00063668568
0.00022588044
0.00058872538
-0.00022405279
0.00045106925
-0.00064057988
0.0002443842
-0.00095995509
1.7682961e-07
-0.0011330519
-0.00024405373
-0.0011331281
-0.00045084034
-0.00096017099
-0.00058862314
-0.00064085648
-0.00063666071
-0.00022432211
-0.00058783674
0.00022555513
-0.00044983873
0.00064117248
-0.00024350233
0.00095934068
0.0011314978
0.0011282263
0.0020852399
0.0027250335
0.0029503256
0.0027268627
0.0020879637
0.0011305248
4.4115032e-07
-0.0011297189
-0.0020873744
-0.0027265511
-0.0029502846
-0.0027253191
-0.0020858272
-0.0011290027
)
;

boundaryField
{
    leftWall
    {
        type            cyclic;
        value           nonuniform List<scalar> 
16
(
-2.710595e-07
-2.9185463e-07
-3.7690936e-07
-5.7248757e-07
-1.2516344e-06
-2.2280923e-06
-4.7854757e-06
-4.5148303e-06
4.5351805e-06
4.7902961e-06
2.1964722e-06
1.2484879e-06
4.8788028e-07
3.0897709e-07
1.8082503e-07
4.7330415e-07
)
;
    }
    rightWall
    {
        type            cyclic;
        value           nonuniform List<scalar> 
16
(
2.710595e-07
2.9185463e-07
3.7690936e-07
5.7248757e-07
1.2516344e-06
2.2280923e-06
4.7854757e-06
4.5148303e-06
-4.5351805e-06
-4.7902961e-06
-2.1964722e-06
-1.2484879e-06
-4.8788028e-07
-3.0897709e-07
-1.8082503e-07
-4.7330415e-07
)
;
    }
    lowerWall
    {
        type            calculated;
        value           uniform 0;
    }
    atmosphere
    {
        type            calculated;
        value           nonuniform List<scalar> 
16
(
2.9685048e-06
2.5156627e-06
1.6797869e-06
5.8840526e-07
-5.8992893e-07
-1.6808939e-06
-2.5161574e-06
-2.9682783e-06
-2.9680791e-06
-2.5154759e-06
-1.67977e-06
-5.8859399e-07
5.8961064e-07
1.6805855e-06
2.5161802e-06
2.9684415e-06
)
;
    }
    defaultFaces
    {
        type            empty;
        value           nonuniform List<scalar> 0();
    }
}


// ************************************************************************* //
