/*--------------------------------*- C++ -*----------------------------------*\
| =========                 |                                                 |
| \\      /  F ield         | OpenFOAM: The Open Source CFD Toolbox           |
|  \\    /   O peration     | Version:  2306                                  |
|   \\  /    A nd           | Website:  www.openfoam.com                      |
|    \\/     M anipulation  |                                                 |
\*---------------------------------------------------------------------------*/
FoamFile
{
    version     2.0;
    format      ascii;
    arch        "LSB;label=32;scalar=64";
    class       volVectorField;
    location    "0.47";
    object      U_0;
}
// * * * * * * * * * * * * * * * * * * * * * * * * * * * * * * * * * * * * * //

dimensions      [0 1 -1 0 0 0 0];

internalField   nonuniform List<vector> 
6400
(
(0.009705159 -0.28287513 1.3850373e-16)
(0.022293272 -0.28286406 -1.264008e-16)
(0.036395528 -0.28124232 1.0027381e-16)
(0.04966915 -0.27835193 3.1660271e-16)
(0.062979766 -0.27405879 8.6936359e-17)
(0.075883084 -0.26838197 -5.8965068e-18)
(0.088361333 -0.26134416 -5.7384289e-17)
(0.10036112 -0.25293562 -3.2275224e-18)
(0.11176462 -0.24315268 -3.9728846e-17)
(0.12241449 -0.23202493 -4.9460086e-17)
(0.13214128 -0.2196287 -3.2140691e-17)
(0.14078557 -0.2060886 -3.4313248e-17)
(0.14821449 -0.19157036 -2.5865059e-17)
(0.15433174 -0.17626895 2.8622803e-18)
(0.15908187 -0.1603954 8.8541088e-18)
(0.16244981 -0.14416408 -6.8356081e-17)
(0.16445704 -0.1277822 -3.7404748e-17)
(0.16515597 -0.11144164 -2.6597401e-17)
(0.16462329 -0.095313367 -1.3079686e-18)
(0.16295322 -0.079544106 3.8471578e-17)
(0.16025106 -0.064254999 1.5711088e-17)
(0.15662738 -0.049541841 1.9577228e-18)
(0.15219306 -0.035476535 2.7539825e-18)
(0.14705525 -0.022109472 -2.0962961e-17)
(0.1413145 -0.0094722848 -3.1706904e-17)
(0.13506805 0.0024194647 -8.888684e-19)
(0.12839116 0.013562547 3.0035665e-17)
(0.12135733 0.023963071 5.4607615e-17)
(0.11402717 0.033632982 3.5966999e-17)
(0.10645111 0.042587655 7.0847795e-18)
(0.098670637 0.050843713 5.8548163e-18)
(0.09071946 0.058417094 7.8746673e-18)
(0.082624945 0.065321555 1.9568628e-17)
(0.0744097 0.071567555 1.0633849e-17)
(0.066093175 0.077161547 3.2622595e-18)
(0.057693372 0.082105647 1.271522e-17)
(0.049228291 0.086397654 2.9546053e-17)
(0.040717351 0.090031222 4.7597082e-17)
(0.032183371 0.092996654 3.9340422e-17)
(0.023652741 0.095281826 4.3275656e-17)
(0.015157947 0.096872957 3.8502418e-17)
(0.0067346877 0.097755469 1.6691163e-17)
(-0.0015988954 0.097916919 5.1329069e-18)
(-0.0097715029 0.09734258 -6.8914667e-18)
(-0.017722437 0.096028011 2.66104e-17)
(-0.025399394 0.093972545 5.5884814e-17)
(-0.032736814 0.091183129 3.2360367e-17)
(-0.039665666 0.087675977 1.2103255e-18)
(-0.04611462 0.08347808 -9.0217291e-18)
(-0.052012003 0.078628442 9.444478e-18)
(-0.057288125 0.073178942 1.7339865e-17)
(-0.061877905 0.067194699 1.5893634e-17)
(-0.065723677 0.060753832 2.7173894e-18)
(-0.068778038 0.053946531 -4.2383065e-18)
(-0.071006512 0.046873373 -1.5186562e-17)
(-0.072389712 0.039642936 -1.0053773e-17)
(-0.072924859 0.032368829 -3.5749059e-18)
(-0.072626853 0.025166397 -1.8420051e-17)
(-0.071528703 0.018148999 -1.0636619e-17)
(-0.06968101 0.011424266 -1.30489e-17)
(-0.067150745 0.0050910089 -1.1057407e-17)
(-0.064012623 -0.00076482595 -5.842764e-18)
(-0.060356195 -0.0060662247 -1.8939802e-17)
(-0.056288972 -0.010762558 -8.4178145e-18)
(-0.051909881 -0.014815013 -1.1004516e-17)
(-0.047323125 -0.018203401 -1.0850268e-17)
(-0.042630502 -0.020924745 3.027637e-18)
(-0.037928696 -0.022992152 -2.3969282e-18)
(-0.033306912 -0.024433208 -5.872331e-18)
(-0.028844929 -0.025288048 -6.3736627e-18)
(-0.024611619 -0.025607163 -9.2841622e-18)
(-0.020663957 -0.025449083 -5.2825105e-18)
(-0.017046474 -0.024878083 1.9442829e-18)
(-0.013791008 -0.023961899 1.1731711e-18)
(-0.010917056 -0.022769375 2.5814309e-18)
(-0.0084328044 -0.021368654 -1.4964925e-18)
(-0.0063356218 -0.019825662 -2.1878965e-18)
(-0.0046129691 -0.018201892 1.7564423e-18)
(-0.003244297 -0.016553107 1.4098203e-18)
(-0.0022010586 -0.014930169 1.5491491e-18)
(0.011074499 -0.31331307 2.208488e-16)
(0.025350584 -0.31313977 -1.9223156e-16)
(0.041107961 -0.31095434 5.5686653e-17)
(0.055697124 -0.30738944 -6.2200215e-17)
(0.07021155 -0.30243486 -1.1553107e-16)
(0.084274262 -0.29612694 9.3850685e-17)
(0.097947059 -0.28844014 -8.2727378e-17)
(0.1112007 -0.27928228 -1.3140789e-17)
(0.1238902 -0.2685769 6.035755e-17)
(0.13580323 -0.25630928 -8.2040469e-18)
(0.14670717 -0.24254397 2.4437701e-17)
(0.15638528 -0.22742199 -7.4614193e-17)
(0.16466091 -0.21114546 -7.2429342e-17)
(0.17141049 -0.19395716 -5.7456692e-17)
(0.17656726 -0.1761199 -6.0169616e-17)
(0.18011855 -0.15789847 -3.3290075e-17)
(0.18209895 -0.13954543 -4.1241957e-17)
(0.18258154 -0.12129084 -5.5679667e-17)
(0.18166842 -0.10333579 -4.6707473e-17)
(0.17948154 -0.085848997 -3.9187516e-17)
(0.17615425 -0.068965884 1.365611e-17)
(0.17182404 -0.052789688 1.4676559e-18)
(0.16662634 -0.037393911 -3.0800813e-18)
(0.16068977 -0.0228259 -2.8496761e-17)
(0.15413341 -0.0091107022 -2.5120309e-17)
(0.14707025 0.0037461211 1.5974729e-17)
(0.13958443 0.015751862 3.4115692e-17)
(0.13175834 0.026924511 4.7805511e-17)
(0.12365677 0.037287684 3.301727e-17)
(0.11533195 0.046867862 2.7666277e-18)
(0.1068249 0.055691755 1.7526169e-17)
(0.098167046 0.063784015 1.7735913e-17)
(0.089382111 0.071165496 1.2278293e-17)
(0.080488109 0.077852 6.36021e-18)
(0.071499376 0.083853519 7.6971094e-18)
(0.062428656 0.089173905 2.4897622e-18)
(0.053288884 0.093810902 1.2473646e-17)
(0.044094977 0.097756587 3.3567181e-17)
(0.034866142 0.10099826 3.9303735e-17)
(0.025626214 0.10351902 4.6290875e-17)
(0.016405763 0.10529995 3.3364305e-17)
(0.0072403004 0.10632034 1.5758006e-17)
(-0.001851499 0.10655925 1.0750879e-17)
(-0.01079271 0.10599707 -1.1441574e-17)
(-0.019518866 0.10462079 9.4616083e-18)
(-0.027970043 0.10242323 3.8691371e-17)
(-0.036071797 0.099405625 4.1031613e-17)
(-0.043744377 0.095579774 7.3880962e-18)
(-0.05090414 0.090970121 -4.7508226e-18)
(-0.057465865 0.085615439 5.3872883e-18)
(-0.063345545 0.079570125 9.0864606e-18)
(-0.068463623 0.072904895 2.1809294e-17)
(-0.072748517 0.065706749 -6.1972754e-18)
(-0.07614027 0.05807803 -8.6876037e-18)
(-0.078594047 0.050134532 2.7328229e-18)
(-0.080083045 0.042002636 -7.6158658e-18)
(-0.080600542 0.033815658 -7.0000487e-18)
(-0.080161379 0.025709697 -1.9206605e-17)
(-0.078802537 0.017818987 -2.1535352e-17)
(-0.076582225 0.01027096 -1.0085837e-17)
(-0.073579207 0.0031812467 -1.1850601e-17)
(-0.069882725 -0.0033408932 -6.1596941e-18)
(-0.065600407 -0.0092180646 -2.1508771e-17)
(-0.060856576 -0.014383486 -2.1000309e-17)
(-0.055771417 -0.018794817 -1.2443339e-17)
(-0.050467724 -0.022431083 -1.1675553e-17)
(-0.045065267 -0.025291808 -1.1704125e-18)
(-0.03967725 -0.027395649 1.254656e-19)
(-0.034407422 -0.028778315 -6.5756796e-18)
(-0.029347813 -0.029490125 -7.9025044e-18)
(-0.024577062 -0.029593269 -6.4552591e-18)
(-0.020159372 -0.029158952 -3.8105194e-18)
(-0.01614399 -0.028264646 1.976628e-18)
(-0.012565004 -0.026991407 -4.7308204e-18)
(-0.0094418984 -0.025421034 -1.6158422e-18)
(-0.0067809806 -0.023633918 -1.6890614e-19)
(-0.0045758915 -0.021707446 -2.9076216e-18)
(-0.002808269 -0.019714202 8.0945227e-19)
(-0.0014519155 -0.017716824 1.0396743e-18)
(-0.00046927462 -0.015776758 2.9847203e-19)
(0.012820287 -0.34819805 5.2433782e-16)
(0.02911895 -0.34749906 6.7371349e-16)
(0.046701753 -0.34423788 5.5675243e-16)
(0.06260786 -0.33954448 3.1210982e-16)
(0.078273805 -0.33367813 9.8968303e-17)
(0.093483629 -0.32666149 8.1038612e-17)
(0.10842184 -0.31835178 6.2592382e-17)
(0.1230891 -0.30849066 -4.7538388e-18)
(0.13728621 -0.29686909 2.3661667e-18)
(0.15070923 -0.28339683 6.6318101e-17)
(0.16302764 -0.26811925 6.801417e-17)
(0.17394103 -0.25120254 5.5026907e-17)
(0.18321306 -0.2329025 1.2256404e-17)
(0.1906863 -0.21352964 1.7852249e-17)
(0.19628331 -0.19341754 -1.0278821e-17)
(0.19999921 -0.17289744 1.3651031e-17)
(0.20188972 -0.15227965 -6.4732161e-18)
(0.20205778 -0.13184132 -8.8697514e-18)
(0.20064022 -0.11181929 -1.8806526e-17)
(0.19779549 -0.092407096 -2.7959825e-17)
(0.19369293 -0.073755095 3.1054738e-17)
(0.18850365 -0.055972851 6.6861719e-17)
(0.18239315 -0.039133141 5.1614967e-18)
(0.17551583 -0.023276937 -3.8336892e-17)
(0.16801295 -0.0084184217 -2.4193623e-17)
(0.16001463 0.0054498582 1.7512424e-17)
(0.15161482 0.018350381 5.5155081e-17)
(0.14290536 0.030316866 2.4718956e-17)
(0.13395458 0.041387969 -1.5388099e-17)
(0.12481542 0.051604357 -6.0284169e-18)
(0.115527 0.061005452 6.4638646e-18)
(0.10611667 0.069626757 2.1182471e-17)
(0.096602569 0.077497862 -2.8772577e-18)
(0.086996078 0.084641066 -1.5553978e-17)
(0.077304374 0.091070582 -1.3091495e-17)
(0.06753295 0.096792246 -2.467095e-17)
(0.057687845 0.10180366 -1.210734e-17)
(0.047777796 0.10609483 -8.1090921e-18)
(0.037816574 0.10964912 -1.4598571e-17)
(0.027824144 0.11244391 -3.2416566e-19)
(0.017829059 0.1144532 -1.4482777e-17)
(0.0078649049 0.11564978 -1.4954947e-17)
(-0.0020504855 0.11600265 -1.7145131e-17)
(-0.01183306 0.11548261 -4.7382265e-17)
(-0.021414999 0.11406813 -4.8554003e-17)
(-0.030728239 0.11174294 -7.1495807e-18)
(-0.039688163 0.10850026 2.4933335e-17)
(-0.048202579 0.10434539 -6.8021723e-18)
(-0.056173286 0.099298409 -3.6110412e-17)
(-0.063498755 0.093396419 -3.5267353e-17)
(-0.070077459 0.086695481 -7.3395037e-18)
(-0.075811836 0.079271783 1.1608589e-17)
(-0.080612729 0.071221924 -3.0076983e-18)
(-0.084404068 0.062662069 -1.7681764e-17)
(-0.087127461 0.053725826 2.3511927e-19)
(-0.088746111 0.044560844 1.6110063e-17)
(-0.089247629 0.035324257 1.3514928e-17)
(-0.08864611 0.026177435 4.9010531e-18)
(-0.086983354 0.017280222 -1.4771554e-17)
(-0.084328509 0.008784968 -4.5684807e-18)
(-0.080768902 0.00082825656 2.5737953e-17)
(-0.076410918 -0.0064588919 1.4346241e-17)
(-0.071394059 -0.012985095 -8.3123453e-18)
(-0.065857508 -0.01867449 -1.1365166e-17)
(-0.05994649 -0.023479046 -9.5345837e-19)
(-0.053807025 -0.027377018 1.4128453e-17)
(-0.047580555 -0.03037154 2.04102e-17)
(-0.041399892 -0.032488578 1.0212497e-17)
(-0.035385817 -0.033774183 -4.4530756e-18)
(-0.029644497 -0.034291372 1.3043215e-18)
(-0.024265642 -0.034116698 3.4929188e-18)
(-0.019321432 -0.03333674 2.3892932e-18)
(-0.014866093 -0.032044799 5.7362732e-18)
(-0.010935778 -0.030337731 -3.2340667e-18)
(-0.0075493591 -0.028312668 -1.8841923e-18)
(-0.0047102721 -0.026064537 -3.1281703e-18)
(-0.0024081516 -0.023683429 1.5319093e-18)
(-0.00061574547 -0.021255944 1.5810627e-18)
(0.00069868251 -0.018855787 4.058002e-19)
(0.0015810768 -0.016549471 1.2748675e-18)
(0.014892556 -0.38860695 5.958906e-16)
(0.033409733 -0.38665105 5.4676388e-16)
(0.05283986 -0.38149353 2.6408368e-16)
(0.069968586 -0.37498443 3.0643128e-16)
(0.086691665 -0.36790309 1.9419666e-16)
(0.10307233 -0.36015108 -3.0415827e-18)
(0.11943988 -0.35134928 4.7464562e-17)
(0.13581519 -0.34092998 3.2434556e-17)
(0.15188992 -0.32846242 1.9701123e-17)
(0.16721068 -0.31374047 2.8025757e-17)
(0.1812994 -0.296787 -1.9116758e-18)
(0.19373784 -0.27781283 5.9844772e-18)
(0.20421223 -0.2571568 -4.1473356e-18)
(0.21252724 -0.23522771 -1.3794052e-17)
(0.21860053 -0.21245675 3.3063657e-17)
(0.22244644 -0.18926272 3.0549545e-18)
(0.22415571 -0.16602905 -4.0913886e-17)
(0.22387527 -0.14309003 -4.0554454e-17)
(0.22178988 -0.12072405 -3.673079e-17)
(0.21810621 -0.099151826 2.0228691e-18)
(0.21303952 -0.078538313 1.651628e-17)
(0.20680279 -0.058997131 4.1398561e-17)
(0.19959825 -0.040596651 1.7764366e-17)
(0.19161121 -0.02336703 2.2348203e-17)
(0.18300813 -0.0073068389 3.4784136e-17)
(0.17393737 0.0076115099 4.753048e-17)
(0.16450539 0.021429297 5.5957025e-17)
(0.15481231 0.034200741 5.3130333e-17)
(0.14492895 0.045983932 5.0533809e-17)
(0.13490752 0.056837486 4.9229578e-17)
(0.12478318 0.06681668 2.4742654e-17)
(0.11457691 0.075970359 2.498416e-17)
(0.10429871 0.084338721 2.9889756e-17)
(0.093950789 0.091951852 2.9183428e-17)
(0.083530647 0.098828918 2.8548563e-17)
(0.073034114 0.10497796 2.0575483e-17)
(0.062458038 0.11039629 2.525271e-17)
(0.051802809 0.11507115 3.1700277e-17)
(0.041074956 0.11898081 2.8709271e-17)
(0.030288878 0.12209634 2.7500984e-17)
(0.019470225 0.12438261 -9.6486549e-18)
(0.0086494546 0.12580231 -2.9218738e-17)
(-0.0021585394 0.12631594 -3.3693439e-17)
(-0.012861348 0.12587918 -4.407018e-17)
(-0.023387954 0.12446054 -4.1382547e-17)
(-0.033661887 0.12203182 -7.9205799e-18)
(-0.043587032 0.11857537 2.1654941e-17)
(-0.053056833 0.11408731 3.5777076e-18)
(-0.061955946 0.10858084 -1.7993261e-17)
(-0.070163252 0.1020894 -9.9038263e-18)
(-0.077555801 0.094669312 -8.5446236e-18)
(-0.08401363 0.086401755 -2.0503684e-17)
(-0.089425328 0.077393511 -7.0656327e-18)
(-0.093694078 0.067776364 -4.0880876e-18)
(-0.096743706 0.057704797 2.2074402e-17)
(-0.098524045 0.047351938 4.2375173e-17)
(-0.099014794 0.036903872 2.0203883e-17)
(-0.098228151 0.026553116 -7.1538087e-18)
(-0.096210234 0.016491065 -4.7208918e-18)
(-0.093042513 0.006900935 8.3969078e-18)
(-0.08882757 -0.0020509179 4.1942939e-17)
(-0.083692988 -0.010216505 2.3664451e-17)
(-0.077808379 -0.017480693 -2.8159435e-18)
(-0.071339057 -0.023757119 -9.8700911e-18)
(-0.064459475 -0.028992297 -6.5538172e-18)
(-0.057343561 -0.033164493 2.1683467e-17)
(-0.050158772 -0.036282099 2.7221896e-17)
(-0.043061172 -0.038380752 1.0794429e-17)
(-0.036191446 -0.039519717 -1.2597604e-17)
(-0.029672001 -0.039777864 -1.2624427e-17)
(-0.023604996 -0.039249381 3.7728366e-18)
(-0.018071291 -0.038039466 3.4551497e-18)
(-0.013130205 -0.036260405 2.4931132e-18)
(-0.0088196164 -0.034027758 -5.5886513e-18)
(-0.0051570945 -0.031456658 -5.3776447e-18)
(-0.0021415612 -0.028658573 -6.9248689e-18)
(0.00024148421 -0.025742398 5.7219525e-19)
(0.0020253838 -0.022806515 2.5909129e-18)
(0.0032594799 -0.019939115 1.0623433e-18)
(0.0039996418 -0.017210652 1.0872052e-18)
(0.016833908 -0.43509828 8.9860408e-16)
(0.037205695 -0.43075973 1.1566375e-15)
(0.058143915 -0.42272399 2.785545e-16)
(0.076295103 -0.41359588 4.255529e-16)
(0.094047607 -0.40510546 3.4837905e-16)
(0.11184113 -0.39676092 1.3505435e-16)
(0.13008049 -0.38780002 7.5094808e-17)
(0.14876796 -0.37712403 7.9286748e-17)
(0.16738455 -0.36396672 2.5627017e-17)
(0.18524747 -0.34796477 6.6766298e-17)
(0.20166838 -0.32912816 8.7289395e-17)
(0.21607212 -0.30775104 6.1174408e-17)
(0.22805087 -0.28430383 6.7226084e-17)
(0.23737349 -0.25933988 3.2919162e-17)
(0.24396773 -0.23342562 7.9454601e-17)
(0.24788919 -0.20709479 8.4492392e-17)
(0.24928754 -0.18082177 3.8465145e-18)
(0.24837617 -0.15500843 -2.0026482e-18)
(0.24540713 -0.12997951 -1.0964592e-17)
(0.24065125 -0.10598371 6.4467163e-17)
(0.23438244 -0.083198487 6.1232401e-17)
(0.22686542 -0.061737399 2.6437255e-17)
(0.21834642 -0.041658896 6.5577601e-17)
(0.2090468 -0.0229759 3.4269513e-17)
(0.19916525 -0.0056645551 5.6924079e-17)
(0.18886544 0.01032814 1.2907917e-16)
(0.17826785 0.025071087 9.7380712e-17)
(0.16748099 0.038643891 8.7246788e-17)
(0.15657665 0.051129165 7.7924204e-17)
(0.14560385 0.062607985 8.6417806e-17)
(0.13459098 0.073155144 1.1119905e-16)
(0.12354959 0.082835694 6.9075982e-17)
(0.11247838 0.091702535 4.1104748e-17)
(0.10136716 0.099794928 5.0165582e-17)
(0.090200666 0.10713775 8.2803375e-17)
(0.078962127 0.11374146 1.1116414e-16)
(0.067636469 0.11960266 9.2880066e-17)
(0.0562132 0.1247051 8.375053e-17)
(0.044689692 0.12902088 1.0198557e-16)
(0.033072437 0.13251302 8.2187331e-17)
(0.021381436 0.13513607 9.7572913e-18)
(0.0096458485 0.13683955 -4.4808023e-17)
(-0.0021262031 0.13757098 -4.7120801e-17)
(-0.013834663 0.13727309 -3.4337683e-17)
(-0.025403548 0.13589786 -3.2493665e-17)
(-0.036748758 0.1334023 3.2671807e-18)
(-0.047761222 0.12975451 1.8940826e-17)
(-0.058317946 0.1249379 3.7073542e-19)
(-0.068283501 0.11895552 -1.3600892e-17)
(-0.077513332 0.11183425 -1.2742108e-17)
(-0.085858322 0.10362861 -9.1125163e-18)
(-0.093170627 0.094423675 -1.4600953e-17)
(-0.099310638 0.084336735 -3.305583e-18)
(-0.10415478 0.073517094 -3.9723307e-18)
(-0.10760349 0.0621437 1.2194877e-17)
(-0.10958854 0.050420318 3.1774676e-17)
(-0.11007833 0.038568494 3.6330691e-17)
(-0.10908171 0.02681909 6.2016693e-18)
(-0.10664978 0.015402155 -3.0643683e-18)
(-0.10287807 0.0045371623 2.92379e-18)
(-0.097886532 -0.0055650792 3.7674803e-17)
(-0.091834746 -0.014738266 3.9663998e-17)
(-0.08492351 -0.022842419 1.7021999e-18)
(-0.077353734 -0.029777301 -8.0563981e-18)
(-0.06933523 -0.035483254 -8.5732382e-18)
(-0.061075928 -0.0399397 9.8159292e-18)
(-0.052774575 -0.043162601 2.8274027e-17)
(-0.044614789 -0.04520044 1.7648778e-17)
(-0.036760428 -0.046129406 -6.0616008e-18)
(-0.029352426 -0.046048195 -1.5043783e-17)
(-0.022506778 -0.04507265 -4.5651659e-18)
(-0.016313637 -0.043330446 4.0232961e-18)
(-0.010837331 -0.040956532 5.8750138e-18)
(-0.0061168633 -0.038088651 -3.2175859e-18)
(-0.0021671082 -0.034863118 -2.3254789e-18)
(0.0010142112 -0.031413963 -5.5256668e-18)
(0.0034518035 -0.027868868 -2.5712618e-18)
(0.0051948181 -0.024336827 4.5700202e-19)
(0.0063001178 -0.020921275 2.1841584e-18)
(0.0068388848 -0.017707359 4.6264713e-19)
(0.017547408 -0.48618358 9.1973939e-16)
(0.038208691 -0.47828246 1.1575947e-15)
(0.059680111 -0.46689438 6.7783097e-16)
(0.078542412 -0.45464969 4.2647026e-16)
(0.097538061 -0.44511683 4.4575393e-16)
(0.11749327 -0.43671974 1.75922e-16)
(0.13859018 -0.42829052 6.5191667e-17)
(0.16074357 -0.41788206 -1.496988e-16)
(0.18304656 -0.40428883 -6.2754799e-17)
(0.2044976 -0.38696896 -8.2224038e-17)
(0.22413265 -0.36595568 -1.9762935e-16)
(0.24118187 -0.34169436 -1.1197155e-16)
(0.25512996 -0.31486262 -1.4720089e-16)
(0.265718 -0.28622675 -2.3973063e-17)
(0.2729094 -0.25654156 -3.4392012e-17)
(0.2768373 -0.22649136 -6.2136871e-17)
(0.27774974 -0.19666181 -6.981564e-17)
(0.27596293 -0.16753127 -9.4490695e-17)
(0.27182624 -0.13947245 -1.6531874e-17)
(0.2656976 -0.11275922 8.7126294e-17)
(0.25792637 -0.087576146 1.1614646e-16)
(0.24884109 -0.064029729 3.1557933e-17)
(0.23874054 -0.042160717 4.9287259e-17)
(0.22788801 -0.021956479 4.6276962e-17)
(0.21651835 -0.0033632839 4.3771723e-17)
(0.2048068 0.013713298 1.082535e-16)
(0.19289632 0.029370238 8.8578421e-17)
(0.18089675 0.043721175 7.2539866e-17)
(0.16887924 0.05688001 8.5004025e-17)
(0.15688662 0.068955625 6.7935365e-17)
(0.14493687 0.080046577 1.0150995e-16)
(0.1330281 0.090237352 6.5219554e-17)
(0.12114369 0.099595847 1.0638636e-17)
(0.10925717 0.10817193 3.3270175e-17)
(0.097336706 0.11599694 6.0646261e-17)
(0.08534943 0.12308381 1.0242646e-16)
(0.073265119 0.12942791 1.0023675e-16)
(0.061059488 0.13500853 7.2415746e-17)
(0.048718027 0.13979041 1.1381596e-16)
(0.036237413 0.14372605 8.1951429e-17)
(0.023629815 0.14675815 -5.3295597e-18)
(0.010918752 0.14882109 -3.6082362e-17)
(-0.0018916444 0.14984523 -3.5704275e-17)
(-0.01469413 0.14975752 -3.0404344e-17)
(-0.027413001 0.14848993 -3.1423012e-17)
(-0.0399533 0.14598042 -4.6251051e-18)
(-0.052192177 0.14217852 1.639899e-17)
(-0.063988189 0.13705039 1.0048131e-17)
(-0.075182591 0.13058453 -1.7992502e-17)
(-0.085602925 0.12279729 -3.8840304e-17)
(-0.0950682 0.1137382 -3.6349905e-17)
(-0.10339587 0.10349433 -2.5085932e-17)
(-0.1104105 0.092193281 -2.755654e-17)
(-0.11595385 0.080003741 2.1087947e-18)
(-0.1198955 0.067133269 4.2625618e-17)
(-0.12214288 0.053822683 1.3059608e-17)
(-0.12264883 0.040337295 -1.2952186e-17)
(-0.12141712 0.026955818 -3.1371224e-17)
(-0.11850509 0.013957435 4.9124569e-18)
(-0.11401814 0.0016055625 4.3573923e-17)
(-0.10809957 -0.0098361898 3.0370925e-17)
(-0.10096072 -0.02017271 7.6505688e-18)
(-0.09283196 -0.029236356 -1.7613335e-17)
(-0.083959789 -0.036910683 6.0598424e-18)
(-0.074598256 -0.043129844 1.9405637e-17)
(-0.064996956 -0.047876331 1.1219136e-17)
(-0.055392322 -0.051177003 2.2100208e-17)
(-0.046000554 -0.053097456 2.1342098e-17)
(-0.037012359 -0.053735614 1.1581268e-18)
(-0.028589589 -0.053214978 -1.0000419e-18)
(-0.020863321 -0.051678032 1.1074082e-18)
(-0.013933445 -0.049279715 5.9068075e-18)
(-0.0078691562 -0.046182098 1.9724442e-17)
(-0.0027094883 -0.042548953 2.344084e-18)
(0.0015310174 -0.03854277 1.7721545e-20)
(0.0048632455 -0.034323716 -6.9042521e-20)
(0.0073280087 -0.030031739 1.1282292e-18)
(0.0089805388 -0.0258014 7.876935e-18)
(0.0098947842 -0.021750429 2.6191126e-18)
(0.010159336 -0.017977806 -2.7790017e-18)
(0.015529078 -0.53636989 9.4619734e-16)
(0.03312679 -0.52445901 8.2702072e-16)
(0.053378417 -0.51112617 7.1053364e-16)
(0.072460819 -0.49628813 1.7270947e-16)
(0.093239139 -0.4875596 1.8178382e-16)
(0.11687339 -0.48037498 1.1833574e-16)
(0.14253042 -0.47375582 3.1113243e-16)
(0.17001477 -0.46442635 2.3479916e-16)
(0.19772594 -0.45074355 1.8642304e-16)
(0.2242871 -0.43202556 2.417998e-16)
(0.24841212 -0.40840542 1.6235623e-16)
(0.26910971 -0.38058152 1.0843818e-17)
(0.28574181 -0.34954471 -2.1828903e-17)
(0.29802344 -0.31637097 -2.9605744e-17)
(0.305978 -0.28208004 2.4093575e-17)
(0.30986154 -0.24755734 -7.5526311e-17)
(0.31007758 -0.21352529 3.9857378e-17)
(0.30710236 -0.18054516 -7.1869576e-17)
(0.30143097 -0.14903264 -1.3727229e-16)
(0.29354452 -0.11927659 -9.8110028e-17)
(0.28389228 -0.091456811 -1.858202e-17)
(0.27288207 -0.065660777 2.5866316e-17)
(0.2608745 -0.041899946 -5.6834627e-18)
(0.24817863 -0.020124255 2.8169294e-17)
(0.2350847 -0.00023417032 1.4279434e-17)
(0.22175673 0.017903523 2.9124164e-17)
(0.20836533 0.034434846 8.8140254e-17)
(0.19502438 0.049514437 8.6659953e-17)
(0.18179926 0.063294395 9.5614347e-17)
(0.16872155 0.075917347 5.0254369e-17)
(0.15579376 0.087510369 6.5881966e-17)
(0.1429955 0.098180942 8.6342916e-17)
(0.13028985 0.10801439 3.5397608e-17)
(0.1176292 0.11707263 5.1513463e-17)
(0.10496074 0.125394 6.356148e-17)
(0.092231283 0.13299385 5.9036235e-17)
(0.079391685 0.13986562 9.0364051e-17)
(0.066400546 0.1459829 8.5421983e-17)
(0.053228204 0.15130144 1.1971305e-16)
(0.039858954 0.15576116 1.1035198e-16)
(0.02629462 0.15929002 4.2276953e-17)
(0.012552476 0.1618048 2.2435531e-17)
(-0.0013722687 0.16321805 -9.1623795e-19)
(-0.015365137 0.16343152 -2.5138314e-17)
(-0.029349978 0.16235671 -2.7014819e-17)
(-0.043222939 0.15990692 1.8047581e-17)
(-0.056846176 0.15600765 4.6137443e-17)
(-0.070057741 0.15060209 7.5131574e-18)
(-0.082672099 0.14365835 -1.4084905e-17)
(-0.094483798 0.13517677 -1.5874701e-17)
(-0.10527317 0.12519722 -1.3302133e-17)
(-0.11481453 0.11380559 4.3376588e-18)
(-0.1228869 0.10113867 -1.6577485e-17)
(-0.12928701 0.087386194 6.8430708e-18)
(-0.13384342 0.07278905 8.7623849e-19)
(-0.1364304 0.057632872 -2.2192129e-17)
(-0.13697876 0.04223707 -5.965204e-18)
(-0.13548367 0.026940556 -3.0785606e-17)
(-0.13201117 0.012086126 3.509043e-18)
(-0.12667879 -0.0020033599 1.9085997e-17)
(-0.11965853 -0.01501553 -1.2075561e-17)
(-0.11122099 -0.026701913 -1.3562591e-17)
(-0.10164087 -0.036864729 -3.7121625e-17)
(-0.091221394 -0.045369718 -5.1260899e-18)
(-0.080271277 -0.052145646 2.5867399e-17)
(-0.06909112 -0.057181123 -6.0657249e-18)
(-0.057962669 -0.060518643 -1.1245873e-17)
(-0.047140479 -0.062246707 5.8334155e-18)
(-0.036846126 -0.062491238 7.4258887e-18)
(-0.027264842 -0.061406898 2.0543663e-17)
(-0.018543897 -0.059168999 3.2898545e-18)
(-0.010793 -0.055965546 -1.1454978e-17)
(-0.0040850973 -0.051989843 1.0855548e-17)
(0.0015405434 -0.047436249 -2.5507454e-18)
(0.0060722406 -0.042501967 1.0615179e-17)
(0.0095377284 -0.037364286 8.4970944e-18)
(0.011984182 -0.032194667 -7.436472e-18)
(0.013483894 -0.027147799 4.8464648e-18)
(0.014129408 -0.022359593 4.6683962e-18)
(0.014029825 -0.017944438 5.5616588e-18)
(0.0098126494 -0.57534865 1.2697863e-15)
(0.019063901 -0.5607714 1.4308495e-15)
(0.036005185 -0.55021058 7.835522e-16)
(0.054495094 -0.53522195 2.2198849e-16)
(0.077720411 -0.5318137 -9.4137244e-18)
(0.10738322 -0.52813313 -4.1725163e-17)
(0.13979344 -0.52548877 1.9482624e-17)
(0.17501471 -0.51836823 2.7260437e-16)
(0.21020822 -0.50501456 8.1385896e-17)
(0.24369355 -0.48475856 3.3861509e-17)
(0.27386853 -0.45795236 2.6196415e-16)
(0.29951852 -0.42566911 8.0386259e-17)
(0.31985431 -0.38933561 1.3743068e-16)
(0.33452902 -0.3504612 7.1116118e-17)
(0.34361192 -0.31044184 3.6726548e-17)
(0.34750704 -0.27044596 9.1750283e-17)
(0.34683474 -0.23137629 -8.9368066e-19)
(0.34231077 -0.19388609 -5.4120033e-18)
(0.33465269 -0.15842052 9.2364013e-19)
(0.32452534 -0.1252602 4.7387006e-17)
(0.3125186 -0.094556118 1.0898895e-16)
(0.29914359 -0.066355502 6.6014293e-17)
(0.28483593 -0.040622664 2.6860866e-17)
(0.26996068 -0.017254191 2.5135443e-17)
(0.25484755 0.0039126616 -1.2354539e-17)
(0.23966876 0.023054647 -4.0227161e-17)
(0.22461893 0.040385843 -4.1742018e-17)
(0.20980286 0.056111469 -2.3833927e-17)
(0.19527656 0.070430011 -2.2007485e-18)
(0.18105505 0.083524725 -1.2524557e-18)
(0.1671191 0.095556541 -2.8233853e-17)
(0.15342345 0.10665976 -2.7832242e-17)
(0.13990466 0.11693962 -2.6739407e-17)
(0.12648823 0.1264714 -6.9086511e-19)
(0.11309499 0.13530078 -3.6401012e-18)
(0.099646666 0.14344506 -5.8786696e-17)
(0.086070865 0.15089485 -3.5613738e-17)
(0.072305202 0.15761656 8.5897148e-18)
(0.058301368 0.16355488 1.3683133e-17)
(0.044028064 0.16863517 4.0788672e-17)
(0.029474158 0.17276746 3.1384581e-17)
(0.014648651 0.17584807 2.7937137e-17)
(-0.00046632928 0.17776578 2.1131706e-17)
(-0.015749803 0.17839855 -2.3931662e-17)
(-0.031125677 0.17762811 -5.8516063e-17)
(-0.046483553 0.17533813 -1.0973479e-17)
(-0.061669835 0.17142374 5.5085184e-17)
(-0.076500411 0.16579798 2.4458058e-17)
(-0.090759455 0.15840094 -1.5594422e-17)
(-0.10420288 0.14920941 -4.6140976e-17)
(-0.11656434 0.13824687 -4.1092311e-17)
(-0.12756462 0.12559291 -7.3996802e-18)
(-0.1369248 0.11139099 -2.7074697e-18)
(-0.14438287 0.095852885 1.8680028e-18)
(-0.14971285 0.079257997 2.3845124e-17)
(-0.15274399 0.061946271 1.0141459e-17)
(-0.15337601 0.044304425 -2.1575982e-17)
(-0.15158957 0.026747314 -2.4925685e-17)
(-0.14745898 0.0096984733 2.2366504e-18)
(-0.14112104 -0.006440496 3.4939792e-17)
(-0.13278801 -0.021293856 8.762336e-18)
(-0.12279061 -0.034550547 -3.8152775e-17)
(-0.11147284 -0.045975045 -5.197622e-17)
(-0.099207907 -0.055412436 -4.8589904e-18)
(-0.086372821 -0.062787776 3.7730971e-17)
(-0.073330799 -0.068100532 -6.3775161e-18)
(-0.060417999 -0.071415622 -1.2289157e-17)
(-0.047933841 -0.072852282 -6.0622606e-18)
(-0.036134981 -0.072572566 -3.9478864e-18)
(-0.02523236 -0.070770451 2.5332629e-17)
(-0.015390211 -0.067661398 -1.0027061e-17)
(-0.006726295 -0.063473434 -1.7950013e-17)
(0.00068483362 -0.058431738 1.0288777e-17)
(0.0067970269 -0.052778598 -3.7355496e-18)
(0.011619368 -0.046733793 9.798628e-19)
(0.015184107 -0.040511367 -7.5713379e-18)
(0.01755504 -0.03430971 2.0710021e-18)
(0.018823441 -0.028308321 8.3756786e-18)
(0.019103653 -0.022664578 9.9163186e-19)
(0.018529151 -0.01751055 -3.3143104e-18)
(0.00064660511 -0.5901721 1.5376442e-15)
(-0.004681302 -0.57683951 1.7002082e-15)
(0.0078384473 -0.57739654 3.9881859e-16)
(0.024616804 -0.56754938 -4.4697395e-16)
(0.05080409 -0.57706269 -3.4362258e-16)
(0.089401162 -0.58038391 -7.6471158e-16)
(0.13040462 -0.5849264 -2.903747e-16)
(0.17566581 -0.58136096 -2.6671046e-16)
(0.22006481 -0.56878828 -4.3064066e-16)
(0.26199203 -0.54683313 -1.9885791e-16)
(0.29962305 -0.51620692 -1.4315929e-16)
(0.33156819 -0.47845296 -9.978342e-17)
(0.35684536 -0.43552516 -1.1675951e-16)
(0.3749401 -0.38949046 -4.5607827e-17)
(0.38585656 -0.34227105 -8.1620753e-17)
(0.39008718 -0.29545844 -2.3632793e-17)
(0.38848638 -0.25023033 -6.0930546e-17)
(0.38208989 -0.207367 -7.5750792e-17)
(0.3719455 -0.16732922 -1.7996144e-17)
(0.35900165 -0.13034941 4.1947245e-17)
(0.34406163 -0.09650456 1.3201499e-17)
(0.32778333 -0.065763054 1.1092828e-17)
(0.31069889 -0.038012573 2.647055e-18)
(0.29324205 -0.01307415 -5.9416231e-17)
(0.27577396 0.0092938907 -4.6702897e-17)
(0.25848389 0.029343549 -8.9613777e-17)
(0.24157681 0.047357318 -1.4876222e-16)
(0.2251452 0.063604749 -1.2274661e-16)
(0.20922756 0.078341875 -1.2174198e-16)
(0.19381406 0.091800714 -9.8338649e-17)
(0.17885542 0.10418197 -1.6038288e-16)
(0.16427341 0.11565079 -1.8310778e-16)
(0.14997043 0.12633467 -1.4403287e-16)
(0.13583809 0.13632325 -1.433765e-16)
(0.12176466 0.1456695 -1.3384254e-16)
(0.10764132 0.15439179 -1.8905034e-16)
(0.093367587 0.16247652 -1.7292594e-16)
(0.078855723 0.16988107 -9.7960388e-17)
(0.064034866 0.17653678 -9.1982105e-17)
(0.048854513 0.18235201 -1.8549597e-17)
(0.033287226 0.18721567 2.2724768e-17)
(0.017330156 0.19100026 2.2771148e-17)
(0.00095272306 0.19356695 2.3907826e-17)
(-0.015723203 0.19476651 -2.2772454e-17)
(-0.032624452 0.1944438 -3.6012803e-17)
(-0.049634746 0.19244671 1.2459356e-17)
(-0.066585259 0.18863228 6.4025685e-17)
(-0.083268946 0.18287451 4.416669e-17)
(-0.099436554 0.17507555 -5.0174784e-18)
(-0.11479938 0.16517846 -2.7952271e-17)
(-0.12903519 0.15318066 -2.9982923e-17)
(-0.14179861 0.13914752 -4.4049544e-17)
(-0.15273698 0.12322442 -7.5210542e-19)
(-0.16151159 0.10564495 -8.0741414e-18)
(-0.16782335 0.086732543 2.0109318e-17)
(-0.17143965 0.066892968 4.2411509e-17)
(-0.17221655 0.046597161 -6.6502528e-19)
(-0.17011257 0.026356058 -2.2199473e-17)
(-0.1652115 0.0066966466 3.9512212e-19)
(-0.15766788 -0.011881021 2.8871486e-17)
(-0.14775375 -0.028904611 4.2699558e-17)
(-0.13587631 -0.043996018 -3.4645803e-18)
(-0.12246797 -0.056871679 -2.4617172e-17)
(-0.10799259 -0.067353589 -3.0026198e-18)
(-0.092913476 -0.07536665 1.0319705e-17)
(-0.077670894 -0.080928694 7.9734102e-18)
(-0.062666065 -0.084136831 1.4338896e-17)
(-0.048250408 -0.085151652 3.3036025e-18)
(-0.034719841 -0.084181974 -1.5231199e-17)
(-0.022312673 -0.081471191 -7.8597629e-18)
(-0.011210193 -0.077282948 -5.2103733e-18)
(-0.0015300427 -0.071890608 -1.0326706e-17)
(0.0066352975 -0.065567569 -2.4995205e-18)
(0.013259571 -0.058594371 -2.4926344e-18)
(0.018357743 -0.051231495 -1.2103289e-18)
(0.021976345 -0.043727849 -1.6348581e-17)
(0.024198264 -0.036313706 -8.9705543e-19)
(0.025136934 -0.029197376 1.9067222e-18)
(0.024932428 -0.022561274 1.1090243e-18)
(0.023746964 -0.016558262 -2.4771198e-18)