/*--------------------------------*- C++ -*----------------------------------*\
| =========                 |                                                 |
| \\      /  F ield         | OpenFOAM: The Open Source CFD Toolbox           |
|  \\    /   O peration     | Version:  2306                                  |
|   \\  /    A nd           | Website:  www.openfoam.com                      |
|    \\/     M anipulation  |                                                 |
\*---------------------------------------------------------------------------*/
FoamFile
{
    version     2.0;
    format      ascii;
    arch        "LSB;label=32;scalar=64";
    class       surfaceScalarField;
    location    "0.22";
    object      phi_0;
}
// * * * * * * * * * * * * * * * * * * * * * * * * * * * * * * * * * * * * * //

dimensions      [0 3 -1 0 0 0 0];

oriented        oriented;

internalField   nonuniform List<scalar> 
12640
(
-2.4379502e-06
-2.4351329e-09
-2.4342114e-06
-3.7388087e-09
-2.4291891e-06
-5.0222696e-09
-2.4229102e-06
-6.2789153e-09
-2.4154034e-06
-7.5067338e-09
-2.4066983e-06
-8.7051142e-09
-2.3968245e-06
-9.8738699e-09
-2.3858115e-06
-1.1012911e-08
-2.3736893e-06
-1.2122192e-08
-2.3604876e-06
-1.3201745e-08
-2.346236e-06
-1.4251613e-08
-2.3309641e-06
-1.5271915e-08
-2.3147012e-06
-1.6262816e-08
-2.2974767e-06
-1.7224576e-08
-2.2793192e-06
-1.8157475e-08
-2.2602573e-06
-1.9061854e-08
-2.2403192e-06
-1.9938121e-08
-2.2195325e-06
-2.0786678e-08
-2.1979245e-06
-2.160804e-08
-2.1755218e-06
-2.2402725e-08
-2.1523505e-06
-2.3171248e-08
-2.1284363e-06
-2.3914261e-08
-2.103804e-06
-2.4632307e-08
-2.0784779e-06
-2.5326065e-08
-2.0524817e-06
-2.5996167e-08
-2.0258384e-06
-2.6643281e-08
-1.9985703e-06
-2.7268119e-08
-1.970699e-06
-2.7871346e-08
-1.9422453e-06
-2.8453709e-08
-1.9132294e-06
-2.9015892e-08
-1.8836707e-06
-2.9558631e-08
-1.8535881e-06
-3.0082617e-08
-1.8229995e-06
-3.0588617e-08
-1.7919222e-06
-3.1077342e-08
-1.7603726e-06
-3.1549512e-08
-1.7283668e-06
-3.2005813e-08
-1.6959199e-06
-3.2446973e-08
-1.6630462e-06
-3.2873713e-08
-1.6297594e-06
-3.3286715e-08
-1.5960728e-06
-3.3686668e-08
-1.5619985e-06
-3.4074231e-08
-1.5275484e-06
-3.4450117e-08
-1.4927335e-06
-3.4814914e-08
-1.4575642e-06
-3.5169308e-08
-1.4220503e-06
-3.551392e-08
-1.3862009e-06
-3.5849377e-08
-1.3500247e-06
-3.6176259e-08
-1.3135295e-06
-3.6495175e-08
-1.2767228e-06
-3.6806674e-08
-1.2396114e-06
-3.7111358e-08
-1.2022017e-06
-3.7409723e-08
-1.1644994e-06
-3.7702304e-08
-1.1265098e-06
-3.7989654e-08
-1.0882375e-06
-3.8272229e-08
-1.049687e-06
-3.8550513e-08
-1.010862e-06
-3.8824999e-08
-9.7176588e-07
-3.9096129e-08
-9.324016e-07
-3.9364285e-08
-8.9277163e-07
-3.962996e-08
-8.5287816e-07
-3.9893479e-08
-8.1272289e-07
-4.0155261e-08
-7.7230724e-07
-4.041566e-08
-7.3163223e-07
-4.0675018e-08
-6.9069858e-07
-4.0933642e-08
-6.4950677e-07
-4.1191813e-08
-6.0805699e-07
-4.1449772e-08
-5.6634923e-07
-4.1707773e-08
-5.2438334e-07
-4.196588e-08
-4.8215929e-07
-4.2224064e-08
-4.3967725e-07
-4.2482041e-08
-3.9693828e-07
-4.2738963e-08
-3.5394555e-07
-4.2992732e-08
-3.1070689e-07
-4.3238645e-08
-2.6724062e-07
-4.3466265e-08
-2.2358678e-07
-4.3653837e-08
-1.7982447e-07
-4.3762316e-08
-1.3607527e-07
-4.3749185e-08
-9.2391837e-08
-4.3683437e-08
-4.8091998e-08
-4.4299832e-08
-4.8092002e-08
-5.26692e-06
-9.8425334e-09
-5.2567429e-06
-1.3915886e-08
-5.243866e-06
-1.7899196e-08
-5.2283534e-06
-2.1791452e-08
-5.2102682e-06
-2.5591963e-08
-5.1896733e-06
-2.9300022e-08
-5.1666321e-06
-3.2915079e-08
-5.1412083e-06
-3.6436729e-08
-5.1134657e-06
-3.9864806e-08
-5.0834681e-06
-4.3199334e-08
-5.0512791e-06
-4.6440568e-08
-5.0169621e-06
-4.9588972e-08
-4.9805797e-06
-5.2645196e-08
-4.9421941e-06
-5.5610113e-08
-4.9018669e-06
-5.8484721e-08
-4.8596585e-06
-6.1270245e-08
-4.8156286e-06
-6.3967998e-08
-4.7698358e-06
-6.6579447e-08
-4.7223377e-06
-6.9106229e-08
-4.6731904e-06
-7.1550029e-08
-4.622449e-06
-7.3912629e-08
-4.5701673e-06
-7.6195963e-08
-4.5163976e-06
-7.8401995e-08
-4.4611909e-06
-8.0532784e-08
-4.4045967e-06
-8.2590373e-08
-4.346663e-06
-8.4576952e-08
-4.2874364e-06
-8.6494679e-08
-4.226962e-06
-8.834578e-08
-4.1652832e-06
-9.013253e-08
-4.1024419e-06
-9.1857152e-08
-4.0384787e-06
-9.3521881e-08
-3.9734323e-06
-9.512905e-08
-3.90734e-06
-9.6680863e-08
-3.8402377e-06
-9.8179654e-08
-3.7721596e-06
-9.9627628e-08
-3.7031383e-06
-1.0102705e-07
-3.6332052e-06
-1.0238009e-07
-3.56239e-06
-1.0368899e-07
-3.4907208e-06
-1.049559e-07
-3.4182245e-06
-1.0618296e-07
-3.3449264e-06
-1.0737226e-07
-3.2708507e-06
-1.085259e-07
-3.1960197e-06
-1.0964585e-07
-3.1204549e-06
-1.1073414e-07
-3.0441761e-06
-1.1179274e-07
-2.9672019e-06
-1.1282353e-07
-2.8895498e-06
-1.138284e-07
-2.8112358e-06
-1.1480917e-07
-2.7322749e-06
-1.1576758e-07
-2.6526808e-06
-1.1670541e-07
-2.5724663e-06
-1.1762429e-07
-2.4916427e-06
-1.1852587e-07
-2.4102206e-06
-1.1941178e-07
-2.3282093e-06
-1.202835e-07
-2.2456173e-06
-1.2114252e-07
-2.162452e-06
-1.2199031e-07
-2.0787199e-06
-1.2282826e-07
-1.9944266e-06
-1.2365762e-07
-1.9095767e-06
-1.2447978e-07
-1.8241743e-06
-1.2529589e-07
-1.7382224e-06
-1.2610719e-07
-1.6517233e-06
-1.2691472e-07
-1.5646787e-06
-1.2771961e-07
-1.4770896e-06
-1.2852278e-07
-1.3889562e-06
-1.2932517e-07
-1.3002785e-06
-1.3012754e-07
-1.2110556e-06
-1.3093063e-07
-1.1212866e-06
-1.3173489e-07
-1.0309702e-06
-1.3254045e-07
-9.4010528e-07
-1.3334698e-07
-8.4869102e-07
-1.3415322e-07
-7.5672776e-07
-1.3495598e-07
-6.6421774e-07
-1.3574869e-07
-5.7116561e-07
-1.365184e-07
-4.7757708e-07
-1.3724237e-07
-3.8344949e-07
-1.3788992e-07
-2.8873731e-07
-1.3846137e-07
-1.9327472e-07
-1.3914604e-07
-9.6845003e-08
-1.4072956e-07
-1.4493701e-07
-6.6664518e-06
-2.0412484e-08
-6.6524228e-06
-2.7944868e-08
-6.6350163e-06
-3.5305717e-08
-6.6143121e-06
-4.2495635e-08
-6.5903903e-06
-4.9513759e-08
-6.5633314e-06
-5.6358912e-08
-6.5332163e-06
-6.3030153e-08
-6.5001262e-06
-6.9526872e-08
-6.4641422e-06
-7.5848863e-08
-6.4253451e-06
-8.1996369e-08
-6.3838157e-06
-8.7969998e-08
-6.3396339e-06
-9.3770789e-08
-6.2928789e-06
-9.9400131e-08
-6.2436293e-06
-1.0485974e-07
-6.1919624e-06
-1.1015167e-07
-6.1379544e-06
-1.1527825e-07
-6.0816803e-06
-1.202421e-07
-6.0232137e-06
-1.2504603e-07
-5.9626268e-06
-1.2969315e-07
-5.8999901e-06
-1.341867e-07
-5.8353726e-06
-1.385301e-07
-5.7688416e-06
-1.4272697e-07
-5.7004626e-06
-1.4678103e-07
-5.6302992e-06
-1.5069615e-07
-5.5584134e-06
-1.5447621e-07
-5.484865e-06
-1.5812529e-07
-5.4097123e-06
-1.6164744e-07
-5.3330112e-06
-1.6504683e-07
-5.2548161e-06
-1.6832769e-07
-5.1751791e-06
-1.7149414e-07
-5.0941505e-06
-1.7455044e-07
-5.0117787e-06
-1.7750084e-07
-4.9281101e-06
-1.8034952e-07
-4.843189e-06
-1.8310073e-07
-4.757058e-06
-1.8575864e-07
-4.6697577e-06
-1.8832736e-07
-4.5813267e-06
-1.9081105e-07
-4.491802e-06
-1.9321376e-07
-4.4012184e-06
-1.9553949e-07
-4.3096091e-06
-1.977922e-07
-4.2170056e-06
-1.999758e-07
-4.1234374e-06
-2.020941e-07
-4.0289324e-06
-2.0415082e-07
-3.9335169e-06
-2.0614969e-07
-3.8372153e-06
-2.080943e-07
-3.7400506e-06
-2.099882e-07
-3.6420442e-06
-2.1183481e-07
-3.5432159e-06
-2.1363753e-07
-3.4435839e-06
-2.1539956e-07
-3.3431651e-06
-2.1712415e-07
-3.2419751e-06
-2.1881438e-07
-3.1400277e-06
-2.2047327e-07
-3.0373357e-06
-2.2210378e-07
-2.9339105e-06
-2.2370866e-07
-2.8297623e-06
-2.2529073e-07
-2.7249e-06
-2.2685261e-07
-2.6193314e-06
-2.2839686e-07
-2.5130631e-06
-2.2992588e-07
-2.4061008e-06
-2.3144212e-07
-2.2984488e-06
-2.3294786e-07
-2.1901108e-06
-2.344452e-07
-2.0810893e-06
-2.3593619e-07
-1.9713861e-06
-2.3742284e-07
-1.8610019e-06
-2.3890697e-07
-1.7499368e-06
-2.4039027e-07
-1.6381901e-06
-2.4187427e-07
-1.5257604e-06
-2.4336029e-07
-1.4126459e-06
-2.4484943e-07
-1.2988441e-06
-2.4634229e-07
-1.1843521e-06
-2.4783899e-07
-1.0691667e-06
-2.4933853e-07
-9.5328442e-07
-2.5083834e-07
-8.3670006e-07
-2.5233305e-07
-7.194053e-07
-2.5381315e-07
-6.0138213e-07
-2.5526552e-07
-4.8259082e-07
-2.5668123e-07
-3.6295826e-07
-2.580939e-07
-2.4241248e-07
-2.5969182e-07
-1.210987e-07
-2.6204333e-07
-2.6603571e-07
-7.276544e-06
-3.2697215e-08
-7.2605077e-06
-4.3981222e-08
-7.2408062e-06
-5.5007202e-08
-7.217527e-06
-6.5774851e-08
-7.1907582e-06
-7.6282575e-08
-7.1605884e-06
-8.6528729e-08
-7.1271064e-06
-9.6512072e-08
-7.0904015e-06
-1.0623185e-07
-7.0505623e-06
-1.15688e-07
-7.0076776e-06
-1.2488104e-07
-6.9618355e-06
-1.338121e-07
-6.9131234e-06
-1.4248289e-07
-6.8616279e-06
-1.5089565e-07
-6.8074345e-06
-1.5905313e-07
-6.7506276e-06
-1.6695857e-07
-6.6912903e-06
-1.7461558e-07
-6.6295041e-06
-1.8202823e-07
-6.5653493e-06
-1.8920085e-07
-6.4989043e-06
-1.9613821e-07
-6.4302457e-06
-2.0284527e-07
-6.3594485e-06
-2.0932729e-07
-6.2865857e-06
-2.1558973e-07
-6.2117285e-06
-2.2163829e-07
-6.1349458e-06
-2.2747876e-07
-6.0563049e-06
-2.3311715e-07
-5.9758707e-06
-2.3855953e-07
-5.893706e-06
-2.4381208e-07
-5.8098718e-06
-2.488811e-07
-5.7244266e-06
-2.5377288e-07
-5.6374269e-06
-2.5849377e-07
-5.5489272e-06
-2.6305014e-07
-5.4589797e-06
-2.6744834e-07
-5.3676345e-06
-2.7169473e-07
-5.2749396e-06
-2.7579563e-07
-5.1809409e-06
-2.7975734e-07
-5.0856822e-06
-2.8358609e-07
-4.9892052e-06
-2.8728803e-07
-4.8915497e-06
-2.908693e-07
-4.7927533e-06
-2.943359e-07
-4.6928517e-06
-2.9769374e-07
-4.5918788e-06
-3.0094867e-07
-4.4898665e-06
-3.0410644e-07
-4.3868447e-06
-3.0717268e-07
-4.2828415e-06
-3.1015286e-07
-4.1778833e-06
-3.1305245e-07
-4.0719948e-06
-3.158767e-07
-3.9651989e-06
-3.1863076e-07
-3.8575167e-06
-3.2131969e-07
-3.7489679e-06
-3.2394835e-07
-3.6395705e-06
-3.2652158e-07
-3.529341e-06
-3.2904395e-07
-3.4182942e-06
-3.3152e-07
-3.3064439e-06
-3.3395412e-07
-3.193802e-06
-3.3635055e-07
-3.0803794e-06
-3.3871335e-07
-2.9661855e-06
-3.4104651e-07
-2.8512284e-06
-3.4335389e-07
-2.7355152e-06
-3.4563909e-07
-2.6190517e-06
-3.4790572e-07
-2.5018424e-06
-3.5015713e-07
-2.3838909e-06
-3.5239662e-07
-2.2651999e-06
-3.5462724e-07
-2.1457708e-06
-3.5685194e-07
-2.0256043e-06
-3.5907348e-07
-1.9047001e-06
-3.6129447e-07
-1.7830571e-06
-3.6351726e-07
-1.6606734e-06
-3.6574396e-07
-1.5375465e-06
-3.6797641e-07
-1.4136728e-06
-3.7021598e-07
-1.2890482e-06
-3.7246357e-07
-1.1636675e-06
-3.7471925e-07
-1.0375238e-06
-3.7698194e-07
-9.1060766e-07
-3.7924922e-07
-7.8290362e-07
-3.815172e-07
-6.5438642e-07
-3.8378273e-07
-5.2501566e-07
-3.8605199e-07
-3.9474143e-07
-3.8836812e-07
-2.6356163e-07
-3.9087162e-07
-1.3171461e-07
-3.9389033e-07
-3.9775034e-07
-7.5193662e-06
-4.5972235e-08
-7.5022322e-06
-6.1115245e-08
-7.4813264e-06
-7.5913e-08
-7.4567388e-06
-9.0362392e-08
-7.4285609e-06
-1.0446052e-07
-7.3968846e-06
-1.18205e-07
-7.3618025e-06
-1.3159421e-07
-7.3234069e-06
-1.4462739e-07
-7.2817904e-06
-1.5730459e-07
-7.2370446e-06
-1.6962675e-07
-7.1892612e-06
-1.8159559e-07
-7.1385305e-06
-1.9321357e-07
-7.0849422e-06
-2.0448391e-07
-7.0285849e-06
-2.1541046e-07
-6.9695457e-06
-2.2599772e-07
-6.9079106e-06
-2.362507e-07
-6.8437638e-06
-2.4617499e-07
-6.7771881e-06
-2.5577657e-07
-6.7082644e-06
-2.6506194e-07
-6.6370718e-06
-2.7403788e-07
-6.5636875e-06
-2.8271155e-07
-6.4881869e-06
-2.9109037e-07
-6.4106431e-06
-2.9918205e-07
-6.3311274e-06
-3.0699452e-07
-6.2497087e-06
-3.1453587e-07
-6.1664539e-06
-3.2181431e-07
-6.0814277e-06
-3.2883826e-07
-5.9946926e-06
-3.3561618e-07
-5.9063089e-06
-3.4215657e-07
-5.8163347e-06
-3.4846801e-07
-5.7248258e-06
-3.5455905e-07
-5.6318358e-06
-3.6043834e-07
-5.5374161e-06
-3.6611439e-07
-5.441616e-06
-3.7159571e-07
-5.3444826e-06
-3.7689078e-07
-5.2460607e-06
-3.8200798e-07
-5.1463931e-06
-3.8695564e-07
-5.0455204e-06
-3.9174195e-07
-4.9434814e-06
-3.9637496e-07
-4.8403124e-06
-4.0086268e-07
-4.7360481e-06
-4.0521297e-07
-4.6307211e-06
-4.094335e-07
-4.5243619e-06
-4.1353182e-07
-4.4169994e-06
-4.1751538e-07
-4.3086605e-06
-4.2139141e-07
-4.1993702e-06
-4.2516699e-07
-4.0891519e-06
-4.2884907e-07
-3.9780272e-06
-4.324444e-07
-3.866016e-06
-4.3595952e-07
-3.7531367e-06
-4.3940086e-07
-3.639406e-06
-4.4277466e-07
-3.5248391e-06
-4.4608694e-07
-3.4094496e-06
-4.4934361e-07
-3.2932498e-06
-4.5255032e-07
-3.1762506e-06
-4.5571256e-07
-3.0584614e-06
-4.5883568e-07
-2.9398906e-06
-4.6192476e-07
-2.8205449e-06
-4.6498477e-07
-2.7004301e-06
-4.6802048e-07
-2.5795508e-06
-4.7103643e-07
-2.4579105e-06
-4.7403696e-07
-2.3355115e-06
-4.7702626e-07
-2.2123551e-06
-4.8000831e-07
-2.0884418e-06
-4.8298678e-07
-1.963771e-06
-4.859653e-07
-1.8383412e-06
-4.8894704e-07
-1.7121502e-06
-4.9193503e-07
-1.5851946e-06
-4.9493195e-07
-1.4574705e-06
-4.9794013e-07
-1.3289726e-06
-5.0096147e-07
-1.1996945e-06
-5.039973e-07
-1.0696279e-06
-5.0704856e-07
-9.3876152e-07
-5.1011563e-07
-8.070793e-07
-5.131994e-07
-6.7455873e-07
-5.1630332e-07
-5.4117093e-07
-5.1943978e-07
-4.0689365e-07
-5.2264541e-07
-2.7176068e-07
-5.2600459e-07
-1.3597822e-07
-5.2967279e-07
-5.3372856e-07
-7.6143726e-06
-5.9989906e-08
-7.5964607e-06
-7.9027218e-08
-7.5747435e-06
-9.7630111e-08
-7.5493128e-06
-1.1579317e-07
-7.5202612e-06
-1.3351209e-07
-7.4876825e-06
-1.5078366e-07
-7.4516708e-06
-1.6760591e-07
-7.4123203e-06
-1.8397798e-07
-7.3697247e-06
-1.9990014e-07
-7.3239777e-06
-2.1537375e-07
-7.2751721e-06
-2.3040118e-07
-7.2233999e-06
-2.4498576e-07
-7.1687521e-06
-2.5913172e-07
-7.1113185e-06
-2.7284407e-07
-7.0511876e-06
-2.8612863e-07
-6.9884464e-06
-2.9899192e-07
-6.9231803e-06
-3.1144105e-07
-6.8554731e-06
-3.2348381e-07
-6.7854067e-06
-3.3512835e-07
-6.7130611e-06
-3.4638344e-07
-6.6385145e-06
-3.5725816e-07
-6.5618429e-06
-3.6776197e-07
-6.4831203e-06
-3.7790462e-07
-6.4024186e-06
-3.8769625e-07
-6.3198074e-06
-3.9714706e-07
-6.2353542e-06
-4.0626751e-07
-6.1491243e-06
-4.1506819e-07
-6.0611806e-06
-4.2355985e-07
-5.971584e-06
-4.3175324e-07
-5.8803928e-06
-4.3965915e-07
-5.7876634e-06
-4.4728848e-07
-5.6934497e-06
-4.5465203e-07
-5.5978034e-06
-4.6176064e-07
-5.5007741e-06
-4.6862499e-07
-5.4024091e-06
-4.7525582e-07
-5.3027534e-06
-4.8166364e-07
-5.2018501e-06
-4.87859e-07
-5.0997399e-06
-4.9385213e-07
-4.9964616e-06
-4.9965327e-07
-4.8920518e-06
-5.0527243e-07
-4.7865453e-06
-5.1071955e-07
-4.6799745e-06
-5.1600426e-07
-4.5723702e-06
-5.2113609e-07
-4.4637613e-06
-5.2612436e-07
-4.3541745e-06
-5.3097818e-07
-4.243635e-06
-5.3570649e-07
-4.132166e-06
-5.40318e-07
-4.0197893e-06
-5.4482117e-07
-3.9065245e-06
-5.4922428e-07
-3.79239e-06
-5.5353537e-07
-3.6774023e-06
-5.577623e-07
-3.5615766e-06
-5.6191265e-07
-3.4449264e-06
-5.6599377e-07
-3.3274639e-06
-5.7001285e-07
-3.2091997e-06
-5.7397675e-07
-3.0901432e-06
-5.7789218e-07
-2.9703024e-06
-5.8176555e-07
-2.8496841e-06
-5.8560312e-07
-2.7282937e-06
-5.8941083e-07
-2.6061357e-06
-5.9319441e-07
-2.4832133e-06
-5.9695935e-07
-2.3595287e-06
-6.0071092e-07
-2.2350829e-06
-6.0445412e-07
-2.109876e-06
-6.0819366e-07
-1.9839072e-06
-6.1193407e-07
-1.8571747e-06
-6.1567949e-07
-1.7296759e-06
-6.1943389e-07
-1.601407e-06
-6.2320082e-07
-1.4723635e-06
-6.2698365e-07
-1.3425397e-06
-6.3078527e-07
-1.2119286e-06
-6.3460836e-07
-1.0805217e-06
-6.3845547e-07
-9.4830802e-07
-6.4232933e-07
-8.1527396e-07
-6.4623345e-07
-6.8140306e-07
-6.5017422e-07
-5.4667864e-07
-6.541642e-07
-4.1109532e-07
-6.5822873e-07
-2.7468822e-07
-6.624117e-07
-1.3758523e-07
-6.6677577e-07
-6.7131377e-07
-7.6579661e-06
-7.4731779e-08
-7.6393189e-06
-9.7674401e-08
-7.6168582e-06
-1.2009085e-07
-7.5906773e-06
-1.4197404e-07
-7.5608708e-06
-1.6331861e-07
-7.5275337e-06
-1.8412078e-07
-7.4907613e-06
-2.0437827e-07
-7.4506491e-06
-2.2409025e-07
-7.4072919e-06
-2.4325729e-07
-7.3607844e-06
-2.6188123e-07
-7.3112204e-06
-2.7996519e-07
-7.2586928e-06
-2.9751338e-07
-7.2032934e-06
-3.1453111e-07
-7.1451128e-06
-3.3102468e-07
-7.0842401e-06
-3.470013e-07
-7.0207631e-06
-3.6246897e-07
-6.9547676e-06
-3.7743651e-07
-6.886338e-06
-3.9191341e-07
-6.8155566e-06
-4.0590974e-07
-6.7425039e-06
-4.1943616e-07
-6.6672583e-06
-4.3250373e-07
-6.5898962e-06
-4.4512405e-07
-6.5104919e-06
-4.5730899e-07
-6.4291173e-06
-4.6907083e-07
-6.3458423e-06
-4.8042203e-07
-6.2607346e-06
-4.9137525e-07
-6.1738594e-06
-5.0194335e-07
-6.0852799e-06
-5.1213939e-07
-5.9950567e-06
-5.2197635e-07
-5.9032486e-06
-5.3146735e-07
-5.8099114e-06
-5.4062558e-07
-5.7150994e-06
-5.4946412e-07
-5.618864e-06
-5.5799601e-07
-5.5212547e-06
-5.6623428e-07
-5.4223187e-06
-5.7419182e-07
-5.322101e-06
-5.8188135e-07
-5.2206444e-06
-5.8931563e-07
-5.1179895e-06
-5.9650703e-07
-5.0141749e-06
-6.0346786e-07
-4.909237e-06
-6.1021028e-07
-4.8032104e-06
-6.1674618e-07
-4.6961274e-06
-6.2308726e-07
-4.5880185e-06
-6.29245e-07
-4.4789122e-06
-6.3523062e-07
-4.3688353e-06
-6.4105511e-07
-4.2578126e-06
-6.4672924e-07
-4.1458671e-06
-6.522635e-07
-4.0330202e-06
-6.576681e-07
-3.9192914e-06
-6.6295305e-07
-3.8046988e-06
-6.6812801e-07
-3.6892587e-06
-6.7320241e-07
-3.5729859e-06
-6.7818539e-07
-3.4558938e-06
-6.8308587e-07
-3.3379942e-06
-6.8791244e-07
-3.2192975e-06
-6.9267342e-07
-3.0998129e-06
-6.9737683e-07
-2.979548e-06
-7.0203044e-07
-2.8585094e-06
-7.0664177e-07
-2.7367022e-06
-7.1121797e-07
-2.6141307e-06
-7.1576594e-07
-2.4907977e-06
-7.2029237e-07
-2.3667051e-06
-7.2480352e-07
-2.2418537e-06
-7.2930551e-07
-2.1162433e-06
-7.3380404e-07
-1.9898728e-06
-7.3830459e-07
-1.86274e-06
-7.428123e-07
-1.7348419e-06
-7.4733199e-07
-1.6061745e-06
-7.5186823e-07
-1.4767329e-06
-7.5642525e-07
-1.3465111e-06
-7.6100704e-07
-1.2155021e-06
-7.6561739e-07
-1.0836974e-06
-7.702601e-07
-9.5108743e-07
-7.7493932e-07
-8.1766097e-07
-7.7965991e-07
-6.8340641e-07
-7.8442879e-07
-5.4831429e-07
-7.892563e-07
-4.1238489e-07
-7.9415812e-07
-2.7564202e-07
-7.9915458e-07
-1.3815213e-07
-8.0426567e-07
-8.0946591e-07
-7.6872144e-06
-9.0290487e-08
-7.6677509e-06
-1.1713789e-07
-7.6444761e-06
-1.4336562e-07
-7.6174849e-06
-1.6896528e-07
-7.586873e-06
-1.9393051e-07
-7.5527367e-06
-2.1825701e-07
-7.5151727e-06
-2.4194233e-07
-7.4742772e-06
-2.6498573e-07
-7.4301463e-06
-2.8738812e-07
-7.3828757e-06
-3.0915193e-07
-7.3325598e-06
-3.3028106e-07
-7.2792924e-06
-3.5078074e-07
-7.2231661e-06
-3.7065743e-07
-7.164272e-06
-3.8991877e-07
-7.1026999e-06
-4.0857341e-07
-7.0385379e-06
-4.2663098e-07
-6.9718724e-06
-4.44102e-07
-6.902788e-06
-4.6099776e-07
-6.8313675e-06
-4.7733028e-07
-6.7576915e-06
-4.9311217e-07
-6.6818386e-06
-5.0835663e-07
-6.6038853e-06
-5.2307735e-07
-6.5239059e-06
-5.3728838e-07
-6.4419726e-06
-5.5100415e-07
-6.3581552e-06
-5.6423947e-07
-6.2725212e-06
-5.7700925e-07
-6.1851359e-06
-5.8932867e-07
-6.0960622e-06
-6.0121303e-07
-6.0053609e-06
-6.1267769e-07
-5.9130901e-06
-6.2373811e-07
-5.819306e-06
-6.344097e-07
-5.7240622e-06
-6.4470789e-07
-5.6274102e-06
-6.5464805e-07
-5.5293991e-06
-6.6424539e-07
-5.4300758e-06
-6.7351511e-07
-5.329485e-06
-6.8247214e-07
-5.2276693e-06
-6.9113135e-07
-5.124669e-06
-6.9950737e-07
-5.0205222e-06
-7.0761461e-07
-4.9152653e-06
-7.1546726e-07
-4.8089321e-06
-7.2307931e-07
-4.701555e-06
-7.3046443e-07
-4.5931639e-06
-7.3763607e-07
-4.4837871e-06
-7.4460742e-07
-4.3734509e-06
-7.513913e-07
-4.2621798e-06
-7.5800035e-07
-4.1499965e-06
-7.6444679e-07
-4.036922e-06
-7.7074261e-07
-3.9229755e-06
-7.7689952e-07
-3.8081747e-06
-7.8292882e-07
-3.6925356e-06
-7.8884153e-07
-3.5760726e-06
-7.9464837e-07
-3.4587987e-06
-8.0035974e-07
-3.3407255e-06
-8.0598568e-07
-3.221863e-06
-8.1153596e-07
-3.1022199e-06
-8.1701994e-07
-2.9818036e-06
-8.2244671e-07
-2.8606204e-06
-8.2782501e-07
-2.738675e-06
-8.3316329e-07
-2.6159713e-06
-8.384696e-07
-2.492512e-06
-8.4375175e-07
-2.3682983e-06
-8.4901713e-07
-2.243331e-06
-8.5427285e-07
-2.1176094e-06
-8.5952564e-07
-1.9911321e-06
-8.6478194e-07
-1.8638965e-06
-8.7004788e-07
-1.7358993e-06
-8.7532919e-07
-1.6071362e-06
-8.8063131e-07
-1.477602e-06
-8.8595942e-07
-1.3472907e-06
-8.9131841e-07
-1.216195e-06
-8.9671307e-07
-1.084307e-06
-9.0214805e-07
-9.5161801e-07
-9.0762834e-07
-8.1811852e-07
-9.1315941e-07
-6.8379964e-07
-9.1874768e-07
-5.4865483e-07
-9.2440112e-07
-4.1268399e-07
-9.3012897e-07
-2.7589901e-07
-9.3593955e-07
-1.3832902e-07
-9.4183566e-07
-9.4779495e-07
-7.7147805e-06
-1.0678957e-07
-7.6943803e-06
-1.3753803e-07
-7.6701745e-06
-1.6757138e-07
-7.6422598e-06
-1.9688006e-07
-7.6107333e-06
-2.2545699e-07
-7.5756928e-06
-2.5329747e-07
-7.5372362e-06
-2.8039893e-07
-7.4954611e-06
-3.0676084e-07
-7.4504647e-06
-3.3238455e-07
-7.4023434e-06
-3.572732e-07
-7.3511929e-06
-3.8143157e-07
-7.2971077e-06
-4.0486597e-07
-7.240181e-06
-4.275841e-07
-7.1805048e-06
-4.4959502e-07
-7.1181692e-06
-4.7090895e-07
-7.053263e-06
-4.9153719e-07
-6.985873e-06
-5.1149203e-07
-6.916084e-06
-5.3078672e-07
-6.8439791e-06
-5.4943518e-07
-6.7696391e-06
-5.6745214e-07
-6.6931429e-06
-5.848529e-07
-6.6145669e-06
-6.0165334e-07
-6.5339855e-06
-6.1786974e-07
-6.4514708e-06
-6.3351886e-07
-6.3670926e-06
-6.4861768e-07
-6.2809183e-06
-6.6318353e-07
-6.193013e-06
-6.7723394e-07
-6.1034396e-06
-6.907865e-07
-6.0122583e-06
-7.0385896e-07
-5.9195273e-06
-7.1646908e-07
-5.8253023e-06
-7.2863468e-07
-5.7296368e-06
-7.4037345e-07
-5.6325818e-06
-7.5170306e-07
-5.534186e-06
-7.626411e-07
-5.4344962e-06
-7.7320493e-07
-5.3335566e-06
-7.8341174e-07
-5.2314093e-06
-7.9327863e-07
-5.1280943e-06
-8.0282238e-07
-5.0236494e-06
-8.120595e-07
-4.9181104e-06
-8.2100632e-07
-4.8115108e-06
-8.2967885e-07
-4.7038825e-06
-8.3809279e-07
-4.595255e-06
-8.4626356e-07
-4.4856562e-06
-8.5420624e-07
-4.3751119e-06
-8.6193559e-07
-4.2636462e-06
-8.6946602e-07
-4.1512814e-06
-8.7681158e-07
-4.0380381e-06
-8.8398599e-07
-3.923935e-06
-8.9100262e-07
-3.8089893e-06
-8.9787447e-07
-3.6932167e-06
-9.0461413e-07
-3.5766312e-06
-9.1123388e-07
-3.4592454e-06
-9.1774562e-07
-3.3410702e-06
-9.2416082e-07
-3.2221156e-06
-9.3049064e-07
-3.1023896e-06
-9.3674589e-07
-2.9818994e-06
-9.4293689e-07
-2.8606507e-06
-9.4907371e-07
-2.738648e-06
-9.5516595e-07
-2.6158948e-06
-9.612229e-07
-2.4923931e-06
-9.6725343e-07
-2.3681441e-06
-9.7326605e-07
-2.243148e-06
-9.7926895e-07
-2.1174039e-06
-9.8526982e-07
-1.9909097e-06
-9.9127612e-07
-1.8636627e-06
-9.9729482e-07
-1.7356593e-06
-1.0033326e-06
-1.6068947e-06
-1.0093959e-06
-1.4773636e-06
-1.0154906e-06
-1.3470596e-06
-1.0216224e-06
-1.2159756e-06
-1.027797e-06
-1.0841039e-06
-1.0340198e-06
-9.5143619e-07
-1.0402961e-06
-8.1796394e-07
-1.0466316e-06
-6.836793e-07
-1.0530323e-06
-5.485761e-07
-1.0595043e-06
-4.1265191e-07
-1.0660531e-06
-2.7590974e-07
-1.0726817e-06
-1.3835845e-07
-1.079387e-06
-1.0861534e-06
-7.744561e-06
-1.2436505e-07
-7.7230896e-06
-1.5900948e-07
-7.6978199e-06
-1.9284106e-07
-7.6688506e-06
-2.2584934e-07
-7.6362809e-06
-2.5802672e-07
-7.6002101e-06
-2.8936827e-07
-7.5607376e-06
-3.1987144e-07
-7.5179624e-06
-3.4953606e-07
-7.4719829e-06
-3.7836405e-07
-7.4228967e-06
-4.0635934e-07
-7.3708006e-06
-4.335277e-07
-7.3157899e-06
-4.5987666e-07
-7.2579587e-06
-4.8541528e-07
-7.1973996e-06
-5.1015413e-07
-7.1342035e-06
-5.3410506e-07
-7.0684596e-06
-5.5728115e-07
-7.000255e-06
-5.7969659e-07
-6.9296752e-06
-6.0136655e-07
-6.8568032e-06
-6.223071e-07
-6.7817203e-06
-6.4253504e-07
-6.7045053e-06
-6.6206792e-07
-6.6252348e-06
-6.8092381e-07
-6.5439832e-06
-6.9912135e-07
-6.4608225e-06
-7.1667954e-07
-6.3758224e-06
-7.3361784e-07
-6.2890501e-06
-7.4995584e-07
-6.2005705e-06
-7.6571344e-07
-6.1104463e-06
-7.8091072e-07
-6.0187375e-06
-7.9556773e-07
-5.925502e-06
-8.0970464e-07
-5.830795e-06
-8.2334166e-07
-5.7346696e-06
-8.364988e-07
-5.6371766e-06
-8.491961e-07
-5.5383643e-06
-8.6145339e-07
-5.4382789e-06
-8.7329033e-07
-5.3369643e-06
-8.8472641e-07
-5.234462e-06
-8.9578089e-07
-5.1308117e-06
-9.0647273e-07
-5.0260505e-06
-9.1682062e-07
-4.9202139e-06
-9.2684296e-07
-4.8133349e-06
-9.3655782e-07
-4.7054448e-06
-9.4598293e-07
-4.5965727e-06
-9.5513564e-07
-4.4867459e-06
-9.6403303e-07
-4.3759898e-06
-9.7269168e-07
-4.264328e-06
-9.8112783e-07
-4.1517822e-06
-9.8935737e-07
-4.0383725e-06
-9.9739571e-07
-3.9241172e-06
-1.0052579e-06
-3.809033e-06
-1.0129587e-06
-3.693135e-06
-1.0205121e-06
-3.5764369e-06
-1.027932e-06
-3.4589505e-06
-1.0352319e-06
-3.3406867e-06
-1.0424247e-06
-3.2216545e-06
-1.0495228e-06
-3.1018619e-06
-1.0565385e-06
-2.9813154e-06
-1.0634834e-06
-2.8600203e-06
-1.0703688e-06
-2.7379806e-06
-1.0772056e-06
-2.6151993e-06
-1.0840042e-06
-2.4916782e-06
-1.0907746e-06
-2.3674179e-06
-1.0975264e-06
-2.2424182e-06
-1.1042687e-06
-2.1166776e-06
-1.1110104e-06
-1.9901939e-06
-1.1177598e-06
-1.8629639e-06
-1.1245249e-06
-1.7349834e-06
-1.1313131e-06
-1.6062476e-06
-1.1381317e-06
-1.4767506e-06
-1.1449875e-06
-1.3464859e-06
-1.1518871e-06
-1.2154464e-06
-1.1588366e-06
-1.0836242e-06
-1.1658419e-06
-9.5101117e-07
-1.1729091e-06
-8.1759909e-07
-1.1800437e-06
-6.8338002e-07
-1.1872514e-06
-5.4834719e-07
-1.1945372e-06
-4.1249559e-07
-1.2019047e-06
-2.7582245e-07
-1.2093549e-06
-1.3832622e-07
-1.2168832e-06
-1.2244796e-06
-7.7776371e-06
-1.4315909e-07
-7.7549536e-06
-1.8169302e-07
-7.7284808e-06
-2.1931386e-07
-7.6983196e-06
-2.5601052e-07
-7.6645712e-06
-2.9177509e-07
-7.627337e-06
-3.2660252e-07
-7.5867178e-06
-3.6049057e-07
-7.5428144e-06
-3.9343948e-07
-7.4957266e-06
-4.2545191e-07
-7.4455532e-06
-4.5653275e-07
-7.392392e-06
-4.8668888e-07
-7.3363395e-06
-5.1592916e-07
-7.2774906e-06
-5.4426413e-07
-7.2159388e-06
-5.7170596e-07
-7.1517755e-06
-5.982683e-07
-7.0850906e-06
-6.2396608e-07
-7.0159717e-06
-6.4881549e-07
-6.9445045e-06
-6.7283377e-07
-6.8707724e-06
-6.9603914e-07
-6.7948569e-06
-7.1845058e-07
-6.7168369e-06
-7.4008798e-07
-6.636789e-06
-7.6097166e-07
-6.5547876e-06
-7.811227e-07
-6.4709047e-06
-8.0056247e-07
-6.3852098e-06
-8.1931276e-07
-6.2977699e-06
-8.373957e-07
-6.2086498e-06
-8.5483359e-07
-6.1179116e-06
-8.7164887e-07
-6.0256153e-06
-8.8786409e-07
-5.9318181e-06
-9.0350183e-07
-5.8365751e-06
-9.1858464e-07
-5.7399389e-06
-9.3313499e-07
-5.6419598e-06
-9.4717524e-07
-5.5426856e-06
-9.6072754e-07
-5.4421621e-06
-9.7381386e-07
-5.3404325e-06
-9.8645597e-07
-5.2375381e-06
-9.9867531e-07
-5.1335177e-06
-1.0104931e-06
-5.0284082e-06
-1.0219301e-06
-4.9222443e-06
-1.0330069e-06
-4.8150585e-06
-1.0437436e-06
-4.7068815e-06
-1.0541599e-06
-4.597742e-06
-1.0642752e-06
-4.4876665e-06
-1.0741085e-06
-4.37668e-06
-1.0836782e-06
-4.2648053e-06
-1.0930024e-06
-4.1520638e-06
-1.1020989e-06
-4.0384749e-06
-1.1109846e-06
-3.9240564e-06
-1.1196764e-06
-3.8088245e-06
-1.1281906e-06
-3.6927936e-06
-1.136543e-06
-3.5759768e-06
-1.1447488e-06
-3.4583857e-06
-1.1528231e-06
-3.3400303e-06
-1.1607801e-06
-3.2209192e-06
-1.1686338e-06
-3.1010599e-06
-1.1763978e-06
-2.9804584e-06
-1.184085e-06
-2.8591194e-06
-1.1917078e-06
-2.7370465e-06
-1.1992785e-06
-2.6142421e-06
-1.2068085e-06
-2.4907076e-06
-1.2143091e-06
-2.3664431e-06
-1.2217908e-06
-2.2414478e-06
-1.229264e-06
-2.11572e-06
-1.2367383e-06
-1.9892568e-06
-1.244223e-06
-1.8620546e-06
-1.2517271e-06
-1.7341088e-06
-1.2592588e-06
-1.6054142e-06
-1.2668263e-06
-1.4759647e-06
-1.2744372e-06
-1.3457532e-06
-1.2820985e-06
-1.2147726e-06
-1.2898173e-06
-1.0830146e-06
-1.2975999e-06
-9.5047113e-07
-1.3054526e-06
-8.1713356e-07
-1.3133813e-06
-6.8299357e-07
-1.3213914e-06
-5.4804329e-07
-1.3294874e-06
-4.1227569e-07
-1.3376724e-06
-2.7568422e-07
-1.3459463e-06
-1.3826233e-07
-1.3543051e-06
-1.362742e-06
-7.8142696e-06
-1.6331721e-07
-7.79023e-06
-2.0573266e-07
-7.7624117e-06
-2.4713209e-07
-7.7309183e-06
-2.87504e-07
-7.695853e-06
-3.2684033e-07
-7.6573193e-06
-3.6513622e-07
-7.6154201e-06
-4.0238977e-07
-7.5702577e-06
-4.386019e-07
-7.5219334e-06
-4.7377619e-07
-7.4705476e-06
-5.0791856e-07
-7.4161993e-06
-5.4103721e-07
-7.358986e-06
-5.7314244e-07
-7.2990038e-06
-6.0424639e-07
-7.2363467e-06
-6.3436303e-07
-7.1711071e-06
-6.6350785e-07
-7.1033754e-06
-6.9169783e-07
-7.0332397e-06
-7.1895121e-07
-6.9607861e-06
-7.4528739e-07
-6.8860983e-06
-7.7072687e-07
-6.8092579e-06
-7.9529097e-07
-6.730344e-06
-8.1900187e-07
-6.6494333e-06
-8.4188236e-07
-6.5666002e-06
-8.6395589e-07
-6.4819163e-06
-8.8524634e-07
-6.3954511e-06
-9.0577798e-07
-6.3072714e-06
-9.2557539e-07
-6.2174416e-06
-9.4466336e-07
-6.1260236e-06
-9.6306684e-07
-6.0330769e-06
-9.808108e-07
-5.9386584e-06
-9.9792031e-07
-5.8428227e-06
-1.0144203e-06
-5.7456219e-06
-1.0303358e-06
-5.6471057e-06
-1.0456914e-06
-5.5473215e-06
-1.0605117e-06
-5.4463145e-06
-1.0748209e-06
-5.3441273e-06
-1.0886432e-06
-5.2408005e-06
-1.1020021e-06
-5.1363725e-06
-1.1149211e-06
-5.0308794e-06
-1.1274232e-06
-4.9243554e-06
-1.139531e-06
-4.8168323e-06
-1.1512666e-06
-4.7083403e-06
-1.162652e-06
-4.5989071e-06
-1.1737084e-06
-4.488559e-06
-1.1844566e-06
-4.3773202e-06
-1.1949171e-06
-4.2652128e-06
-1.2051098e-06
-4.1522576e-06
-1.2150541e-06
-4.0384734e-06
-1.2247688e-06
-3.9238773e-06
-1.2342725e-06
-3.8084848e-06
-1.243583e-06
-3.69231e-06
-1.2527178e-06
-3.5753651e-06
-1.2616937e-06
-3.4576612e-06
-1.270527e-06
-3.3392077e-06
-1.2792336e-06
-3.2200127e-06
-1.2878289e-06
-3.1000829e-06
-1.2963275e-06
-2.9794239e-06
-1.304744e-06
-2.8580398e-06
-1.3130919e-06
-2.7359337e-06
-1.3213846e-06
-2.6131074e-06
-1.3296349e-06
-2.4895616e-06
-1.3378549e-06
-2.3652961e-06
-1.3460564e-06
-2.2403094e-06
-1.3542506e-06
-2.1145994e-06
-1.3624483e-06
-1.9881626e-06
-1.3706598e-06
-1.860995e-06
-1.3788946e-06
-1.7330916e-06
-1.3871622e-06
-1.6044465e-06
-1.3954714e-06
-1.4750533e-06
-1.4038304e-06
-1.3449047e-06
-1.4122471e-06
-1.2139929e-06
-1.4207291e-06
-1.0823095e-06
-1.4292832e-06
-9.4984583e-07
-1.4379163e-06
-8.1659295e-07
-1.4466342e-06
-6.825418e-07
-1.4554425e-06
-5.4768352e-07
-1.4643457e-06
-4.1200928e-07
-1.4733466e-06
-2.7551036e-07
-1.4824453e-06
-1.3817762e-07
-1.4916378e-06
-1.5009196e-06
-7.8545006e-06
-1.8498771e-07
-7.8289583e-06
-2.31275e-07
-7.79965e-06
-2.7644044e-07
-7.7666816e-06
-3.2047235e-07
-7.7301592e-06
-3.6336277e-07
-7.6901882e-06
-4.0510714e-07
-7.6468738e-06
-4.4570421e-07
-7.60032e-06
-4.8515573e-07
-7.5506299e-06
-5.234663e-07
-7.4979053e-06
-5.6064314e-07
-7.4422466e-06
-5.9669589e-07
-7.3837526e-06
-6.3163645e-07
-7.3225202e-06
-6.6547876e-07
-7.2586446e-06
-6.9823865e-07
-7.1922188e-06
-7.2993366e-07
-7.1233338e-06
-7.6058286e-07
-7.0520782e-06
-7.9020672e-07
-6.9785387e-06
-8.1882696e-07
-6.9027991e-06
-8.464664e-07
-6.8249413e-06
-8.7314879e-07
-6.7450444e-06
-8.9889874e-07
-6.6631852e-06