/*--------------------------------*- C++ -*----------------------------------*\
| =========                 |                                                 |
| \\      /  F ield         | OpenFOAM: The Open Source CFD Toolbox           |
|  \\    /   O peration     | Version:  2106                                  |
|   \\  /    A nd           | Website:  www.openfoam.com                      |
|    \\/     M anipulation  |                                                 |
\*---------------------------------------------------------------------------*/
FoamFile
{
    version     2.0;
    format      ascii;
    arch        "LSB;label=32;scalar=64";
    class       volScalarField;
    location    "0.001";
    object      p_rgh;
}
// * * * * * * * * * * * * * * * * * * * * * * * * * * * * * * * * * * * * * //

dimensions      [1 -1 -2 0 0 0 0];

internalField   nonuniform List<scalar> 
1024
(
-43.737836
-42.053176
-38.749421
-33.954999
-27.855924
-20.688186
-12.729143
-4.2844403
4.3220146
12.758985
20.703951
27.852639
33.931224
38.706737
41.996027
43.672862
43.672862
41.996028
38.706739
33.931226
27.852643
20.703955
12.758989
4.3220187
-4.2844364
-12.729139
-20.688183
-27.855921
-33.954997
-38.74942
-42.053175
-43.737836
-45.338774
-43.591809
-40.166028
-35.194884
-28.871606
-21.441266
-13.191136
-4.4384804
4.4803088
13.223328
21.456054
28.863415
35.161838
40.110023
43.518237
45.255697
45.255697
43.518238
40.110025
35.161841
28.863419
21.456058
13.223332
4.4803129
-4.4384765
-13.191132
-21.441263
-28.871603
-35.194882
-40.166026
-43.591808
-45.338774
-48.684877
-46.80733
-43.125872
-37.784618
-30.992035
-23.012217
-14.154108
-4.7589412
4.8125752
14.194062
23.026998
30.973851
37.730753
43.039047
46.695283
48.559183
48.559184
46.695285
43.039049
37.730756
30.973855
23.027003
14.194066
4.8125795
-4.7589371
-14.154104
-23.012213
-30.992033
-37.784616
-43.125871
-46.807329
-48.684877
-53.880421
-51.799725
-47.720599
-41.803908
-34.282029
-25.44879
-15.64712
-5.2550677
5.3287629
15.700152
25.463666
34.24702
41.714902
47.581711
51.622667
53.682708
53.682709
51.622668
47.581714
41.714905
34.247024
25.463671
15.700156
5.3287673
-5.2550636
-15.647116
-25.448787
-34.282026
-41.803907
-47.720598
-51.799724
-53.88042
-61.126934
-58.7621
-54.126959
-47.406148
-38.865885
-28.841943
-17.724976
-5.9443013
6.0488441
17.798
28.856719
38.804529
47.262377
53.907052
58.48393
60.817239
60.81724
58.483932
53.907055
47.26238
38.804533
28.856723
17.798005
6.0488487
-5.944297
-17.724972
-28.84194
-38.865882
-47.406146
-54.126957
-58.762099
-61.126934
-70.706251
-67.964353
-62.591711
-54.805125
-44.916469
-33.317832
-20.46351
-6.8505978
7.0006114
20.56577
33.331812
44.815061
54.578786
62.249952
67.534265
70.228368
70.228369
67.534266
62.249954
54.57879
44.815065
33.331816
20.565774
7.0006159
-6.8505937
-20.463507
-33.317829
-44.916467
-54.805123
-62.591709
-67.964352
-70.706251
-82.992312
-79.764292
-73.441432
-64.283067
-52.661226
-39.041782
-23.96163
-8.004854
8.2206003
24.105735
39.053426
52.499709
63.934023
72.919117
79.109362
82.265626
82.265627
79.109363
72.919119
63.934026
52.499713
39.05343
24.105739
8.2206046
-8.0048499
-23.961627
-39.041779
-52.661224
-64.283064
-73.44143
-79.764291
-82.992312
-98.468011
-94.623446
-87.096406
-76.201921
-62.390504
-46.223658
-28.344001
-9.4453823
9.7552892
28.547358
46.230023
62.139317
75.67171
86.30832
93.637957
97.375717
97.375717
93.637958
86.308322
75.671713
62.139321
46.230027
28.547362
9.7552932
-9.4453786
-28.343998
-46.223655
-62.390501
-76.201919
-87.096405
-94.623445
-98.468011
-117.74714
-113.12759
-104.08845
-91.017547
-74.467641
-55.124004
-33.763789
-11.218148
11.662301
34.050554
55.119837
74.083092
90.22064
102.91028
111.65748
116.11909
116.11909
111.65748
102.91029
90.220642
74.083095
55.119841
34.050558
11.662305
-11.218144
-33.763785
-55.124001
-74.467639
-91.017545
-104.08845
-113.12759
-117.74714
-141.60332
-136.01362
-125.08397
-109.29759
-89.341001
-66.060646
-40.404885
-13.376065
14.011339
40.808758
66.0371
88.758585
108.1087
123.334
133.83378
139.19101
139.19101
133.83378
123.334
108.1087
88.758588
66.037104
40.808762
14.011342
-13.376061
-40.404882
-66.060643
-89.340999
-109.29759
-125.08397
-136.01362
-141.60332
-171.00842
-164.20516
-150.91404
-131.74381
-107.55779
-79.415634
-48.483837
-15.975897
16.884508
49.050971
79.3581
106.6828
129.97952
148.32615
160.98592
167.4481
167.4481
160.98592
148.32615
129.97952
106.6828
79.358103
49.050974
16.884511
-15.975894
-48.483834
-79.415631
-107.55779
-131.74381
-150.91404
-164.20515
-171.00842
-207.18371
-198.85901
-182.61182
-159.21707
-129.7772
-95.642091
-58.253272
-19.074513
20.374249
59.040753
95.524666
128.47138
156.60864
178.79361
194.11317
201.93816
201.93816
194.11317
178.79361
156.60864
128.47139
95.524669
59.040756
20.374252
-19.074509
-58.253269
-95.642088
-129.7772
-159.21707
-182.61182
-198.859
-207.18371
-251.6704
-241.43124
-221.47145
-192.78704
-156.79926
-115.26692
-69.970787
-22.716478
24.57405
71.067235
115.04542
154.85096
188.92994
215.83996
234.43761
243.94807
243.94807
234.43761
215.83996
188.92994
154.85096
115.04542
71.067239
24.574053
-22.716475
-69.970784
-115.26692
-156.79926
-192.78704
-221.47145
-241.43124
-251.6704
-306.3809
-293.72457
-269.09969
-233.78697
-189.55541
-138.79827
-83.788381
-26.711309
29.645775
85.476002
138.51102
186.7114
228.15069
260.91066
283.56125
295.16855
295.16855
283.56125
260.91066
228.1507
186.7114
138.51102
85.476005
29.645778
-26.711306
-83.788378
-138.79827
-189.5554
-233.78697
-269.09969
-293.72456
-306.3809
-373.7597
-358.06776
-327.53789
-283.76545
-229.3094
-167.45676
-100.90213
-31.950401
35.392863
102.57908
166.78335
225.30198
275.81346
315.76458
343.36748
357.4695
357.4695
343.36748
315.76459
275.81347
225.30199
166.78335
102.57908
35.392866
-31.950398
-100.90212
-167.45676
-229.30939
-283.76544
-327.53789
-358.06776
-373.7597
-190.75428
-191.44354
-190.7991
-184.87859
-169.11855
-139.78357
-94.172069
-32.583516
43.570002
122.05567
198.46913
269.06187
330.74164
379.73172
413.63017
430.97997
430.97997
413.63017
379.73172
330.74165
269.06187
198.46913
122.05567
43.570005
-32.583513
-94.172066
-139.78357
-169.11855
-184.87859
-190.7991
-191.44353
-190.75428
430.07365
412.75615
378.90231
329.97181
268.33703
197.75801
121.60517
44.179492
-31.901444
-94.203486
-139.63988
-168.65729
-184.20627
-189.99361
-190.56088
-189.83671
-189.83671
-190.56088
-189.99361
-184.20627
-168.65729
-139.63987
-94.203484
-31.901442
44.179495
121.60517
197.75802
268.33703
329.97181
378.90231
412.75615
430.07365
356.49609
342.42517
314.87704
275.00999
224.61606
166.2849
102.38972
35.034134
-32.044867
-100.45867
-167.0213
-228.75653
-283.06498
-326.71516
-357.15587
-372.8072
-372.8072
-357.15587
-326.71516
-283.06498
-228.75653
-167.0213
-100.45866
-32.044865
35.034137
102.38972
166.2849
224.61606
275.00999
314.87705
342.42517
356.49609
294.10845
282.53686
259.95627
227.30342
186.01078
137.99703
85.155157
29.347867
-26.811499
-83.470632
-138.30799
-188.92557
-233.02387
-268.22278
-292.76452
-305.3792
-305.3792
-292.76452
-268.22278
-233.02387
-188.92557
-138.30799
-83.47063
-26.811497
29.347869
85.15516
137.99703
186.01078
227.30343
259.95627
282.53686
294.10845
242.77021
233.3022
214.7885
188.00329
154.08637
114.46808
70.676778
24.329486
-22.732603
-69.680262
-114.75062
-156.10272
-191.93993
-220.5038
-240.37833
-250.57392
-250.57392
-240.37833
-220.5038
-191.93992
-156.10271
-114.75062
-69.68026
-22.7326
24.329488
70.67678
114.46808
154.08637
188.00329
214.7885
233.3022
242.77021
200.60875
192.83315
177.61075
155.56744
127.60969
94.868631
58.601599
20.153923
-19.04067
-57.934877
-95.073147
-128.99618
-158.26145
-181.52028
-197.67355
-205.95036
-205.95036
-197.67355
-181.52028
-158.26145
-128.99618
-95.073145
-57.934875
-19.040668
20.153925
58.601601
94.868633
127.60969
155.56744
177.61076
192.83315
200.60875
165.88908
159.48532
146.9401
128.75939
105.67227
78.590387
48.548423
16.663138
-15.897556
-48.098151
-78.745013
-106.63805
-130.61782
-149.62875
-162.81095
-169.55888
-169.55888
-162.81094
-149.62875
-130.61782
-106.63805
-78.745011
-48.098149
-15.897555
16.66314
48.548425
78.590388
105.67227
128.75939
146.9401
159.48532
165.88908
137.26465
131.98055
121.62395
106.60576
87.517483
65.100945
40.208447
13.766795
-13.252143
-39.914777
-65.224606
-88.195201
-107.89046
-123.47326
-134.26368
-139.78273
-139.78273
-134.26368
-123.47325
-107.89046
-88.1952
-65.224604
-39.914775
-13.252141
13.766796
40.208449
65.100946
87.517484
106.60576
121.62395
131.98055
137.26465
114.42523
110.02681
101.40341
88.893017
72.982811
54.285952
33.512319
11.439167
-11.11701
-33.340564
-54.395781
-73.464599
-89.78089
-102.66883
-111.58236
-116.13798
-116.13798
-111.58236
-102.66883
-89.780889
-73.464598
-54.39578
-33.340563
-11.117009
11.439169
33.51232
54.285954
72.982812
88.893018
101.40341
110.02681
114.42523
92.973408
89.403377
82.402688
72.24347
59.318436
44.123126
27.233301
9.2822868
-9.0606483
-27.120465
-44.212965
-59.674613
-72.887634
-83.31154
-90.513944
-94.192833
-94.192833
-90.513944
-83.311539
-72.887633
-59.674612
-44.212963
-27.120464
-9.0606469
9.2822881
27.233303
44.123127
59.318437
72.24347
82.402689
89.403377
92.973408
84.154588
80.922871
74.584535
65.384337
53.676367
39.908388
24.6038
8.341962
-8.2641866
-24.589397
-40.013252
-53.939188
-65.820332
-75.182042
-81.644861
-84.944217
-84.944217
-81.64486
-75.182041
-65.820331
-53.939187
-40.013251
-24.589396
-8.2641855
8.3419632
24.603802
39.908389
53.676367
65.384338
74.584536
80.922872
84.154589
55.602435
53.471343
49.290748
43.220285
35.490897
26.396084
16.281395
5.5294079
-5.4545074
-16.25643
-26.46282
-35.678867
-43.541932
-49.737415
-54.01428
-56.197615
-56.197614
-54.01428
-49.737414
-43.541931
-35.678866
-26.462819
-16.256429
-5.4545065
5.5294089
16.281396
26.396084
35.490898
43.220285
49.290748
53.471343
55.602435
77.359738
74.384676
68.549549
60.079643
49.301378
36.629103
22.54775
7.5957641
-7.6589702
-22.635047
-36.760544
-49.490353
-60.330305
-68.856979
-74.735503
-77.734045
-77.734045
-74.735503
-68.856978
-60.330305
-49.490352
-36.760543
-22.635047
-7.6589694
7.5957648
22.54775
36.629103
49.301378
60.079643
68.549549
74.384676
77.359739
11.980569
11.525687
10.632379
9.3328692
7.6738701
5.7148629
3.5258689
1.1853372
-1.2164703
-3.5765584
-5.8018381
-7.8082189
-9.5187685
-10.866166
-11.796258
-12.271087
-12.271086
-11.796258
-10.866165
-9.5187676
-7.808218
-5.8018372
-3.5765577
-1.2164698
1.1853376
3.5258692
5.7148632
7.6738701
9.332869
10.632379
11.525687
11.980569
100.74015
96.861396
89.254299
78.213659
64.166884
47.657069
29.321566
9.8686355
-9.9622886
-29.423116
-47.773645
-64.303224
-78.371414
-89.43187
-97.054153
-100.94113
-100.94113
-97.054152
-89.431869
-78.371413
-64.303223
-47.773645
-29.423115
-9.9622882
9.8686358
29.321566
47.657069
64.166884
78.213659
89.254299
96.861396
100.74015
-51.554173
-49.566662
-45.6697
-40.016355
-32.828718
-24.389198
-15.030658
-5.1242585
4.9340841
14.851432
24.231334
32.6993
39.918052
45.600312
49.519502
51.519074
51.519074
49.519502
45.600312
39.918053
32.6993
24.231334
14.851432
4.9340843
-5.1242584
-15.030659
-24.389199
-32.828718
-40.016355
-45.6697
-49.566662
-51.554174
161.17271
154.96788
142.79891
125.13754
102.66791
76.259474
46.933548
15.840255
-15.808245
-46.922257
-76.287334
-102.74737
-125.27319
-142.98671
-155.19573
-161.42227
-161.42227
-155.19573
-142.98671
-125.27319
-102.74737
-76.287333
-46.922257
-15.808245
15.840255
46.933548
76.259474
102.66791
125.13754
142.79891
154.96788
161.17271
)
;

boundaryField
{
    leftWall
    {
        type            cyclic;
    }
    rightWall
    {
        type            cyclic;
    }
    lowerWall
    {
        type            fixedFluxPressure;
        gradient        uniform 0;
        value           nonuniform List<scalar> 
32
(
-43.737836
-42.053176
-38.749421
-33.954999
-27.855924
-20.688186
-12.729143
-4.2844403
4.3220146
12.758985
20.703951
27.852639
33.931224
38.706737
41.996027
43.672862
43.672862
41.996028
38.706739
33.931226
27.852643
20.703955
12.758989
4.3220187
-4.2844364
-12.729139
-20.688183
-27.855921
-33.954997
-38.74942
-42.053175
-43.737836
)
;
    }
    atmosphere
    {
        type            totalPressure;
        rho             rho;
        psi             none;
        gamma           1;
        p0              uniform 0;
        value           nonuniform List<scalar> 
32
(
0
0
0
0
0
0
0
0
-0.21314807
-0.19760797
-0.16828761
-0.12959102
-0.087454337
-0.048363225
-0.018359416
-0.002094372
-0.002094372
-0.018359416
-0.048363225
-0.087454337
-0.12959102
-0.16828761
-0.19760797
-0.21314807
0
0
0
0
0
0
0
0
)
;
    }
    defaultFaces
    {
        type            empty;
    }
}


// ************************************************************************* //
