/*--------------------------------*- C++ -*----------------------------------*\
| =========                 |                                                 |
| \\      /  F ield         | OpenFOAM: The Open Source CFD Toolbox           |
|  \\    /   O peration     | Version:  2106                                  |
|   \\  /    A nd           | Website:  www.openfoam.com                      |
|    \\/     M anipulation  |                                                 |
\*---------------------------------------------------------------------------*/
FoamFile
{
    version     2.0;
    format      ascii;
    arch        "LSB;label=32;scalar=64";
    class       surfaceScalarField;
    location    "0.001";
    object      phi_0;
}
// * * * * * * * * * * * * * * * * * * * * * * * * * * * * * * * * * * * * * //

dimensions      [0 3 -1 0 0 0 0];

oriented        oriented;

internalField   nonuniform List<scalar> 
1984
(
-0.0018510484
0.0018510484
-0.0036295796
0.0017785311
-0.0052661106
0.001636531
-0.0066970646
0.001430954
-0.0078673301
0.0011702655
-0.008732386
0.00086505591
-0.0092598289
0.00052744291
-0.0094306809
0.000170852
-0.0092395893
-0.00019109158
-0.0086949407
-0.00054464866
-0.0078184345
-0.0008765062
-0.0066441496
-0.0011742849
-0.0052172262
-0.0014269234
-0.0035921657
-0.0016250605
-0.0018308003
-0.0017613654
1.0020402e-13
-0.0018308003
0.0018308003
-0.0018308003
0.0035921657
-0.0017613654
0.0052172262
-0.0016250605
0.0066441496
-0.0014269234
0.0078184345
-0.0011742849
0.0086949407
-0.0008765062
0.0092395893
-0.00054464866
0.0094306809
-0.00019109158
0.0092598289
0.000170852
0.008732386
0.00052744291
0.0078673301
0.00086505591
0.0066970646
0.0011702655
0.0052661106
0.001430954
0.0036295796
0.001636531
0.0018510484
0.0017785311
0.0018510484
-0.0019327633
0.0037838118
-0.0037896109
0.0036353787
-0.0054978403
0.0033447604
-0.0069909974
0.0029241111
-0.0082115682
0.0023908363
-0.0091131939
0.0017666816
-0.009662373
0.001076622
-0.0098393598
0.00034783879
-0.009638828
-0.00039162331
-0.0090697175
-0.0011137592
-0.0081547458
-0.001791478
-0.0069294872
-0.0023995435
-0.0054410099
-0.0029154007
-0.0037461139
-0.0033199564
-0.0019092227
-0.0035982565
1.409825e-13
-0.0037400231
0.0019092227
-0.0037400231
0.0037461139
-0.0035982565
0.0054410099
-0.0033199564
0.0069294872
-0.0029154007
0.0081547458
-0.0023995435
0.0090697175
-0.001791478
0.009638828
-0.0011137592
0.0098393598
-0.00039162331
0.009662373
0.00034783879
0.0091131939
0.001076622
0.0082115682
0.0017666816
0.0069909974
0.0023908363
0.0054978403
0.0029241111
0.0037896109
0.0033447604
0.0019327633
0.0036353787
0.0037838118
-0.0020812415
0.0058650533
-0.0040803507
0.0056344879
-0.0059187441
0.0051831538
-0.0075247281
0.0045300951
-0.0088364417
0.0037025499
-0.0098042442
0.0027344841
-0.01039246
0.0016648381
-0.010580351
0.00053572973
-0.010362574
-0.00060940032
-0.0097490295
-0.0017273039
-0.0087642862
-0.0027762212
-0.0074466193
-0.0037172104
-0.0058465771
-0.004515443
-0.004025115
-0.0051414185
-0.0020513479
-0.0055720237
1.487279e-13
-0.0057913709
0.0020513479
-0.0057913709
0.004025115
-0.0055720237
0.0058465771
-0.0051414185
0.0074466193
-0.004515443
0.0087642862
-0.0037172104
0.0097490295
-0.0027762212
0.010362574
-0.0017273039
0.010580351
-0.00060940032
0.01039246
0.00053572973
0.0098042442
0.0016648381
0.0088364417
0.0027344841
0.0075247281
0.0037025499
0.0059187441
0.0045300951
0.0040803507
0.0051831538
0.0020812415
0.0056344879
0.0058650533
-0.0023082499
0.0081733032
-0.0045247764
0.0078510144
-0.0065619358
0.0072203132
-0.0083399914
0.0063081507
-0.0097904531
0.0051530116
-0.010858729
0.0038027602
-0.011505961
0.0023120697
-0.011709982
0.00073975042
-0.011465561
-0.00085382085
-0.010784076
-0.0024087886
-0.0096929004
-0.0038673972
-0.0082343903
-0.0051757204
-0.0064643677
-0.0062854656
-0.0044500995
-0.0071556867
-0.002267835
-0.0077542882
1.8143588e-13
-0.0080592059
0.002267835
-0.0080592059
0.0044500995
-0.0077542882
0.0064643677
-0.0071556867
0.0082343903
-0.0062854656
0.0096929004
-0.0051757204
0.010784076
-0.0038673972
0.011465561
-0.0024087886
0.011709982
-0.00085382085
0.011505961
0.00073975042
0.010858729
0.0023120697
0.0097904531
0.0038027602
0.0083399914
0.0051530116
0.0065619358
0.0063081507
0.0045247764
0.0072203132
0.0023082499
0.0078510144
0.0081733032
-0.0026248155
0.010798119
-0.0051443612
0.01037056
-0.0074582215
0.0095341735
-0.0094753745
0.0083253037
-0.011118115
0.0067957518
-0.012325091
0.0050097369
-0.01305326
0.003040238
-0.013278721
0.00096521204
-0.012996614
-0.0011359283
-0.012220409
-0.0031849931
-0.010981318
-0.005106488
-0.0093272894
-0.0068297494
-0.0073214014
-0.0082913536
-0.0050396428
-0.0094374453
-0.0025681431
-0.010225788
2.1602575e-13
-0.010627349
0.0025681431
-0.010627349
0.0050396428
-0.010225788
0.0073214014
-0.0094374453
0.0093272894
-0.0082913536
0.010981318
-0.0068297494
0.012220409
-0.005106488
0.012996614
-0.0031849931
0.013278721
-0.0011359283
0.01305326
0.00096521204
0.012325091
0.003040238
0.011118115
0.0050097369
0.0094753745
0.0067957518
0.0074582215
0.0083253037
0.0051443612
0.0095341735
0.0026248155
0.01037056
0.010798119
-0.0030445365
0.013842655
-0.0059655386
0.013291562
-0.0086454081
0.012214043
-0.010978026
0.010657921
-0.01287351
0.0086912361
-0.01426181
0.0063980371
-0.015094791
0.0038732187
-0.015346791
0.0012172115
-0.015013842
-0.0014688764
-0.014112203
-0.0040866321
-0.012677995
-0.0065406966
-0.010766368
-0.0087413758
-0.0084498525
-0.01060787
-0.0058158694
-0.012071428
-0.0029635394
-0.013078118
2.1358787e-13
-0.013590888
0.0029635394
-0.013590888
0.0058158694
-0.013078118
0.0084498525
-0.012071428
0.010766368
-0.01060787
0.012677995
-0.0087413758
0.014112203
-0.0065406966
0.015013842
-0.0040866321
0.015346791
-0.0014688764
0.015094791
0.0012172115
0.01426181
0.0038732187
0.01287351
0.0063980371
0.010978026
0.0086912361
0.0086454081
0.010657921
0.0059655386
0.012214043
0.0030445365
0.013291562
0.013842655
-0.0035852957
0.017427951
-0.0070230244
0.016729291
-0.010173028
0.015364047
-0.012909485
0.013394378
-0.015126863
0.010908614
-0.016744337
0.0080155109
-0.017708026
0.0048369077
-0.017991007
0.0015001926
-0.017591262
-0.0018686217
-0.016528511
-0.005149383
-0.01484478
-0.0082244273
-0.012604098
-0.010982058
-0.0098908776
-0.01332109
-0.0068070896
-0.015155216
-0.0034684429
-0.016416765
1.5437581e-13
-0.017059331
0.0034684429
-0.017059331
0.0068070896
-0.016416765
0.0098908776
-0.015155216
0.012604098
-0.01332109
0.01484478
-0.010982058
0.016528511
-0.0082244273
0.017591262
-0.005149383
0.017991007
-0.0018686217
0.017708026
0.0015001926
0.016744337
0.0048369077
0.015126863
0.0080155109
0.012909485
0.010908614
0.010173028
0.013394378
0.0070230244
0.015364047
0.0035852957
0.016729291
0.017427951
-0.0042705135
0.021698464
-0.008362229
0.020821006
-0.012105716
0.019107534
-0.015349723
0.016638384
-0.017968861
0.013527752
-0.019869324
0.009915974
-0.020991346
0.0059589299
-0.021308292
0.0018171385
-0.020822175
-0.0023547381
-0.019556573
-0.0064149852
-0.017560036
-0.010220965
-0.014907092
-0.013635002
-0.011696781
-0.0165314
-0.0080492897
-0.018802708
-0.0041011809
-0.020364874
1.2930709e-13
-0.021160512
0.0041011809
-0.021160512
0.0080492897
-0.020364874
0.011696781
-0.018802708
0.014907092
-0.0165314
0.017560036
-0.013635002
0.019556573
-0.010220965
0.020822175
-0.0064149852
0.021308292
-0.0023547381
0.020991346
0.0018171385
0.019869324
0.0059589299
0.017968861
0.009915974
0.015349723
0.013527752
0.012105716
0.016638384
0.008362229
0.019107534
0.0042705135
0.020821006
0.021698464
-0.0051305377
0.026829002
-0.010041934
0.025732403
-0.014526949
0.023592549
-0.018401563
0.020512998
-0.021515226
0.016641415
-0.023758781
0.012159529
-0.025067385
0.0072675343
-0.025418328
0.0021680809
-0.024821848
-0.0029512176
-0.0233047
-0.0079321331
-0.020921518
-0.012604148
-0.017758702
-0.016797818
-0.013933073
-0.020357029
-0.0095875324
-0.023148249
-0.004884693
-0.025067713
1.2515321e-13
-0.026045205
0.004884693
-0.026045205
0.0095875324
-0.025067713
0.013933073
-0.023148249
0.017758702
-0.020357029
0.020921518
-0.016797818
0.0233047
-0.012604148
0.024821848
-0.0079321331
0.025418328
-0.0029512176
0.025067385
0.0021680809
0.023758781
0.0072675343
0.021515226
0.012159529
0.018401563
0.016641415
0.014526949
0.020512998
0.010041934
0.023592549
0.0051305377
0.025732403
0.026829002
-0.0062041542
0.033033156
-0.012137244
0.031665493
-0.017543243
0.028998548
-0.022195689
0.025165444
-0.025911778
0.020357504
-0.028564307
0.014812058
-0.030085747
0.008788974
-0.030465005
0.0025473393
-0.02972944
-0.0036867833
-0.027905026
-0.0097565463
-0.025049471
-0.015459703
-0.021261879
-0.02058541
-0.016680712
-0.024938196
-0.01147743
-0.028351531
-0.0058472549
-0.030697888
1.4162496e-13
-0.03189246
0.0058472549
-0.03189246
0.01147743
-0.030697888
0.016680712
-0.028351531
0.021261879
-0.024938196
0.025049471
-0.02058541
0.027905026
-0.015459703
0.02972944
-0.0097565463
0.030465005
-0.0036867833
0.030085747
0.0025473393
0.028564307
0.008788974
0.025911778
0.014812058
0.022195689
0.020357504
0.017543243
0.025165444
0.012137244
0.028998548
0.0062041542
0.031665493
0.033033156
-0.0075384663
0.040571623
-0.01473954
0.038866567
-0.021284439
0.035543447
-0.026891209
0.030772213
-0.031334672
0.024800967
-0.034466031
0.017943417
-0.036219827
0.01054277
-0.036610994
0.0029385069
-0.035704798
-0.0045929795
-0.033512905
-0.011948439
-0.030087362
-0.018885246
-0.025540156
-0.025132616
-0.020036766
-0.030441586
-0.013785424
-0.034602873
-0.0070225576
-0.037460754
1.4489474e-13
-0.038915018
0.0070225576
-0.038915018
0.013785424
-0.037460754
0.020036766
-0.034602873
0.025540156
-0.030441586
0.030087362
-0.025132616
0.033512905
-0.018885246
0.035704798
-0.011948439
0.036610994
-0.0045929795
0.036219827
0.0029385069
0.034466031
0.01054277
0.031334672
0.017943417
0.026891209
0.024800967
0.021284439
0.030772213
0.01473954
0.035543447
0.0075384663
0.038866567
0.040571623
-0.0091765092
0.049748132
-0.017933206
0.047623263
-0.025872249
0.043482491
-0.032638951
0.037538914
-0.037950702
0.030112719
-0.041631266
0.021623981
-0.043623844
0.012535348
-0.043994634
0.0033092964
-0.0428934
-0.0056942129
-0.040280248
-0.014561592
-0.036180801
-0.022984693
-0.030720532
-0.030592885
-0.024100831
-0.037061287
-0.016579136
-0.042124567
-0.0084447217
-0.045595169
1.6440913e-13
-0.047359739
0.0084447217
-0.047359739
0.016579136
-0.045595169
0.024100831
-0.042124567
0.030720532
-0.037061287
0.036180801
-0.030592885
0.040280248
-0.022984693
0.0428934
-0.014561592
0.043994634
-0.0056942129
0.043623844
0.0033092964
0.041631266
0.012535348
0.037950702
0.021623981
0.032638951
0.030112719
0.025872249
0.037538914
0.017933206
0.043482491
0.0091765092
0.047623263
0.049748132
-0.011081338
0.06082947
-0.021650956
0.05819288
-0.031220921
0.053052457
-0.039347523
0.045665515
-0.04566813
0.036433326
-0.049965325
0.025921176
-0.052182525
0.014752548
-0.052495073
0.0036218452
-0.051224477
-0.0069648094
-0.048183611
-0.017602458
-0.043330619
-0.027837685
-0.036811278
-0.037112226
-0.028879361
-0.044993204
-0.019861322
-0.051142606
-0.010114755
-0.055341736
1.3568943e-13
-0.057474494
0.010114755
-0.057474494
0.019861322
-0.055341736
0.028879361
-0.051142606
0.036811278
-0.044993204
0.043330619
-0.037112226
0.048183611
-0.027837685
0.051224477
-0.017602458
0.052495073
-0.0069648094
0.052182525
0.0036218452
0.049965325
0.014752548
0.04566813
0.025921176
0.039347523
0.036433326
0.031220921
0.045665515
0.021650956
0.053052457
0.011081338
0.05819288
0.06082947
-0.012818934
0.073648404
-0.025064297
0.070438244
-0.036185056
0.064173216
-0.04566428
0.055144739
-0.053026535
0.043795581
-0.05798647
0.030881111
-0.060449146
0.017215224
-0.060667788
0.0038404875
-0.059474748
-0.0081578495
-0.056187781
-0.020889425
-0.050668627
-0.033356839
-0.043104434
-0.044676419
-0.033822766
-0.054274872
-0.02325429
-0.061711082
-0.011840736
-0.066755291
1.5263304e-13
-0.06931523
0.011840736
-0.06931523
0.02325429
-0.066755291
0.033822766
-0.061711082
0.043104434
-0.054274872
0.050668627
-0.044676419
0.056187781
-0.033356839
0.059474748
-0.020889425
0.060667788
-0.0081578495
0.060449146
0.0038404875
0.05798647
0.017215224
0.053026535
0.030881111
0.04566428
0.043795581
0.036185056
0.055144739
0.025064297
0.064173216
0.012818934
0.070438244
0.073648404
-0.012559024
0.086207428
-0.024659795
0.082539015
-0.035832745
0.075346165
-0.04557865
0.064890644
-0.053417652
0.051634583
-0.059010668
0.036474127
-0.062053047
0.020257603
-0.062609174
0.0043966142
-0.062169299
-0.0085977245
-0.05930108
-0.023757643
-0.053788495
-0.038869424
-0.045931066
-0.052533849
-0.036104944
-0.064100994
-0.024835968
-0.072980058
-0.012639671
-0.078951588
1.315175e-13
-0.081954901
0.012639671
-0.081954901
0.024835968
-0.078951588
0.036104944
-0.072980058
0.045931066
-0.064100994
0.053788495
-0.052533849
0.05930108
-0.038869424
0.062169299
-0.023757643
0.062609174
-0.0085977245
0.062053047
0.0043966142
0.059010668
0.020257603
0.053417652
0.036474127
0.04557865
0.051634583
0.035832745
0.064890644
0.024659795
0.075346165
0.012559024
0.082539015
0.086207428
-0.0051575313
0.091364959
-0.010579435
0.087960918
-0.016324974
0.081091705
-0.022288637
0.070854307
-0.028133004
0.05747895
-0.03344451
0.041785633
-0.037614388
0.024427482
-0.039612956
0.0063951821
-0.041470219
-0.006740462
-0.040960584
-0.024267278
-0.038103496
-0.041726513
-0.03319808
-0.057439264
-0.026472016
-0.070827058
-0.01837935
-0.081072724
-0.0093903738
-0.087940564
1.1155927e-13
-0.091345274
0.0093903738
-0.091345274
0.01837935
-0.087940564
0.026472016
-0.081072724
0.03319808
-0.070827058
0.038103496
-0.057439264
0.040960584
-0.041726513
0.041470219
-0.024267278
0.039612956
-0.006740462
0.037614388
0.0063951821
0.03344451
0.024427482
0.028133004
0.041785633
0.022288637
0.05747895
0.016324974
0.070854307
0.010579435
0.081091705
0.0051575313
0.087960918
0.091364959
0.0093417981
0.082023161
0.018284517
0.0790182
0.026333722
0.0730425
0.033025944
0.064162085
0.03791204
0.052592855
0.040782582
0.038915091
0.041432702
0.023777361
0.039366587
0.0084612967
0.037151395
-0.0045252697
0.03314489
-0.020260773
0.02789612
-0.036477742
0.022096551
-0.051639694
0.016177087
-0.064907595
0.010477728
-0.075373364
0.0051059137
-0.08256875
1.2672821e-13
-0.086239361
-0.0051059137
-0.086239361
-0.010477728
-0.08256875
-0.016177087
-0.075373364
-0.022096551
-0.064907595
-0.02789612
-0.051639694
-0.03314489
-0.036477742
-0.037151395
-0.020260773
-0.039366587
-0.0045252697
-0.041432702
0.0084612967
-0.040782582
0.023777361
-0.03791204
0.038915091
-0.033025944
0.052592855
-0.026333722
0.064162085
-0.018284517
0.0730425
-0.0093417981
0.0790182
0.082023161
0.012590156
0.069433005
0.024739346
0.06686901
0.035965353
0.061816493
0.045758329
0.05436911
0.053596234
0.044754949
0.059102046
0.033409278
0.061977872
0.020901536
0.062331201
0.0081079671
0.061717791
-0.00391186
0.058714555
-0.017257536
0.053162147
-0.030925335
0.045370444
-0.043847991
0.035673194
-0.055210345
0.02455019
-0.06425036
0.012503463
-0.070522023
1.607439e-13
-0.073735897
-0.012503463
-0.073735897
-0.02455019
-0.070522023
-0.035673194
-0.06425036
-0.045370444
-0.055210345
-0.053162147
-0.043847991
-0.058714555
-0.030925335
-0.061717791
-0.017257536
-0.062331201
-0.00391186
-0.061977872
0.0081079671
-0.059102046
0.020901536
-0.053596234
0.033409278
-0.045758329
0.044754949
-0.035965353
0.05436911
-0.024739346
0.061816493
-0.012590156
0.06686901
0.069433005
0.011787537
0.057645468
0.023150315
0.055506232
0.033672712
0.051294096
0.042916243
0.045125578
0.050452086
0.037219106
0.055950909
0.027910455
0.059219204
0.017633241
0.060377463
0.0069497085
0.060133701
-0.003668098
0.057689297
-0.014813133
0.052762386
-0.025998424
0.045443638
-0.036529243
0.036013811
-0.045780518
0.024946735
-0.053183284
0.012759172
-0.05833446
1.7521205e-13
-0.060976725
-0.012759172
-0.060976725
-0.024946735
-0.05833446
-0.036013811
-0.053183284
-0.045443638
-0.045780518
-0.052762386
-0.036529243
-0.057689297
-0.025998424
-0.060133701
-0.014813133
-0.060377463
-0.003668098
-0.059219204
0.0069497085
-0.055950909
0.017633241
-0.050452086
0.027910455
-0.042916243
0.037219106
-0.033672712
0.045125578
-0.023150315
0.051294096
-0.011787537
0.055506232
0.057645468
0.010055227
0.047590241
0.01974479
0.045816669
0.028710682
0.042328204
0.036597627
0.037238634
0.043080716
0.030736016
0.047905261
0.023085911
0.050923249
0.014615253
0.052174151
0.0056988058
0.051854168
-0.0033481149
0.049651507
-0.012610472
0.045385456
-0.021732373
0.039108369
-0.030252156
0.031033877
-0.037706027
0.021522397
-0.043671804
0.011015916
-0.047827979
1.5551888e-13
-0.049960809
-0.011015916
-0.049960809
-0.021522397
-0.047827979
-0.031033877
-0.043671804
-0.039108369
-0.037706027
-0.045385456
-0.030252156
-0.049651507
-0.021732373
-0.051854168
-0.012610472
-0.052174151
-0.0033481149
-0.050923249
0.0056988058
-0.047905261
0.014615253
-0.043080716
0.023085911
-0.036597627
0.030736016
-0.028710682
0.037238634
-0.01974479
0.042328204
-0.010055227
0.045816669
0.047590241
0.0083763495
0.039213892
0.016445108
0.037747911
0.023906389
0.034866923
0.030473173
0.030671849
0.035889677
0.025319512
0.039954989
0.019020599
0.042543691
0.012026552
0.043630896
0.0046116003
0.043260054
-0.0029772729
0.041284769
-0.010635186
0.037637631
-0.018085235
0.032372691
-0.024987216
0.02566325
-0.030996586
0.017789366
-0.03579792
0.0091032396
-0.039141853
1.6840575e-13
-0.040857569
-0.0091032396
-0.040857569
-0.017789366
-0.039141853
-0.02566325
-0.03579792
-0.032372691
-0.030996586
-0.037637631
-0.024987216
-0.041284769
-0.018085235
-0.043260054
-0.010635186
-0.043630896
-0.0029772729
-0.042543691
0.0046116003
-0.039954989
0.012026552
-0.035889677
0.019020599
-0.030473173
0.025319512
-0.023906389
0.030671849
-0.016445108
0.034866923
-0.0083763495
0.037747911
0.039213892
0.0069424884
0.032271403
0.013628345
0.031062055
0.019808624
0.028686643
0.025249464
0.025231009
0.029744727
0.02082425
0.033130375
0.015634951
0.035295558
0.0098613687
0.036189724
0.0037174339
0.035802314
-0.0025898629
0.034070106
-0.0089029784
0.030977099
-0.014992227
0.02658677
-0.020596887
0.021045214
-0.02545503
0.014574791
-0.029327497
0.0074545017
-0.032021563
1.3501454e-13
-0.033403068
-0.0074545017
-0.033403068
-0.014574791
-0.032021563
-0.021045214
-0.029327497
-0.02658677
-0.02545503
-0.030977099
-0.020596887
-0.034070106
-0.014992227
-0.035802314
-0.0089029784
-0.036189724
-0.0025898629
-0.035295558
0.0037174339
-0.033130375
0.0098613687
-0.029744727
0.015634951
-0.025249464
0.02082425
-0.019808624
0.025231009
-0.013628345
0.028686643
-0.0069424884
0.031062055
0.032271403
0.0057526055
0.026518798
0.011291703
0.025522957
0.016410886
0.023567461
0.020918043
0.020723852
0.024644392
0.0170979
0.027453581
0.012825763
0.029248161
0.0080667879
0.029971461
0.0029941344
0.029599292
-0.0022176941
0.028103817
-0.0074075039
0.025495773
-0.012384183
0.021840981
-0.016942094
0.017264084
-0.020878134
0.011944775
-0.024008188
0.0061059903
-0.026182779
1.1849156e-13
-0.027297078
-0.0061059903
-0.027297078
-0.011944775
-0.026182779
-0.017264084
-0.024008188
-0.021840981
-0.020878134
-0.025495773
-0.016942094
-0.028103817
-0.012384183
-0.029599292
-0.0074075039
-0.029971461
-0.0022176941
-0.029248161
0.0029941344
-0.027453581
0.0080667879
-0.024644392
0.012825763
-0.020918043
0.0170979
-0.016410886
0.020723852
-0.011291703
0.023567461
-0.0057526055
0.025522957
0.026518798
0.0047795347
0.021739263
0.0093811417
0.02092135
0.013633135
0.019315468
0.017376338
0.016980649
0.020470865
0.014003373
0.022802414
0.010494214
0.02428658
0.006582622
0.024870233
0.0024104804
0.024527297
-0.0018747581
0.023247644
-0.0061278502
0.021053015
-0.010189555
0.018006532
-0.013895611
0.014215107
-0.017086708
0.009826309
-0.01961939
0.0050203413
-0.021376811
1.1903411e-13
-0.022276736
-0.0050203413
-0.022276736
-0.009826309
-0.021376811
-0.014215107
-0.01961939
-0.018006532
-0.017086708
-0.021053015
-0.013895611
-0.023247644
-0.010189555
-0.024527297
-0.0061278502
-0.024870233
-0.0018747581
-0.02428658
0.0024104804
-0.022802414
0.006582622
-0.020470865
0.010494214
-0.017376338
0.014003373
-0.013633135
0.016980649
-0.0093811417
0.019315468
-0.0047795347
0.02092135
0.021739263
0.0039466236
0.017792639
0.0077460457
0.017121928
0.01125635
0.015805164
0.014346144
0.013890854
0.016899796
0.011449721
0.018822084
0.0085719263
0.02004144
0.0053632655
0.020511144
0.001940777
0.02020886
-0.0015724741
0.019131645
-0.0050506356
0.017304545
-0.0083624553
0.014784542
-0.011375607
0.01166162
-0.013963786
0.0080563605
-0.01601413
0.0041146028
-0.017435053
9.5404919e-14
-0.018162133
-0.0041146028
-0.018162133
-0.0080563605
-0.017435053
-0.01166162
-0.01601413
-0.014784542
-0.013963786
-0.017304545
-0.011375607
-0.019131645
-0.0083624553
-0.02020886
-0.0050506356
-0.020511144
-0.0015724741
-0.02004144
0.001940777
-0.018822084
0.0053632655
-0.016899796
0.0085719263
-0.014346144
0.011449721
-0.01125635
0.013890854
-0.0077460457
0.015805164
-0.0039466236
0.017121928
0.017792639
0.0033652634
0.014427376
0.0066046967
0.013882494
0.0095970285
0.012812832
0.012229985
0.011257897
0.014404502
0.0092752043
0.016038396
0.0069380322
0.01706928
0.0043323812
0.017456438
0.0015536193
0.017180559
-0.0012965951
0.016244368
-0.0041144445
0.014674331
-0.0067924183
0.012522845
-0.0092241212
0.0098681532
-0.011309095
0.0068124854
-0.012958462
0.0034777996
-0.014100367
8.3788125e-14
-0.014684334
-0.0034777996
-0.014684334
-0.0068124854
-0.014100367
-0.0098681532
-0.012958462
-0.012522845
-0.011309095
-0.014674331
-0.0092241212
-0.016244368
-0.0067924183
-0.017180559
-0.0041144445
-0.017456438
-0.0012965951
-0.01706928
0.0015536193
-0.016038396
0.0043323812
-0.014404502
0.0069380322
-0.012229985
0.0092752043
-0.0095970285
0.011257897
-0.0066046967
0.012812832
-0.0033652634
0.013882494
0.014427376
0.0026538583
0.011773518
0.0052082858
0.011328067
0.0075675112
0.010453607
0.0096429615
0.0091824472
0.011356549
0.0075616166
0.012643432
0.005651149
0.013454105
0.0035217084
0.01375595
0.0012517742
0.01353429
-0.0010749346
0.012791675
-0.0033718302
0.011550335
-0.0055510783
0.0098527199
-0.0075265056
0.0077612446
-0.0092176193
0.0053565115
-0.010553729
0.0027340566
-0.011477912
1.2800116e-13
-0.011950277
-0.0027340566
-0.011950277
-0.0053565115
-0.011477912
-0.0077612446
-0.010553729
-0.0098527199
-0.0092176193
-0.011550335
-0.0075265056
-0.012791675
-0.0055510783
-0.01353429
-0.0033718302
-0.01375595
-0.0010749346
-0.013454105
0.0012517742
-0.012643432
0.0035217084
-0.011356549
0.005651149
-0.0096429615
0.0075616166
-0.0075675112
0.0091824472
-0.0052082858
0.010453607
-0.0026538583
0.011328067
0.011773518
0.0025590174
0.0092145003
0.0050215477
0.0088655367
0.0072946591
0.0081804954
0.0092924154
0.0071846909
0.010939077
0.0059149553
0.012171908
0.004418318
0.012943317
0.0027502995
0.013222308
0.0009727831
0.012995208
-0.00084783546
0.012267716
-0.0026443374
0.011064097
-0.0043474597
0.0094276001
-0.0058900088
0.0074194763
-0.0072094955
0.0051170465
-0.0082512993
0.0026106924
-0.0089715583
1.8131331e-13
-0.0093395848
-0.0026106924
-0.0093395848
-0.0051170465
-0.0089715583
-0.0074194763
-0.0082512993
-0.0094276001
-0.0072094955
-0.011064097
-0.0058900088
-0.012267716
-0.0043474597
-0.012995208
-0.0026443374
-0.013222308
-0.00084783546
-0.012943317
0.0009727831
-0.012171908
0.0027502995
-0.010939077
0.004418318
-0.0092924154
0.0059149553
-0.0072946591
0.0071846909
-0.0050215477
0.0081804954
-0.0025590174
0.0088655367
0.0092145003
0.0016336899
0.0075808104
0.0032060521
0.0072931745
0.0046580027
0.0067285448
0.0059348574
0.0059078362
0.0069883189
0.0048614938
0.0077781891
0.0036284478
0.0082737321
0.0022547565
0.0084545214
0.00079199379
0.008310775
-0.00070408912
0.0078466404
-0.0021802027
0.0070777909
-0.0035786102
0.00603175
-0.004843968
0.0047475533
-0.0059252987
0.003274608
-0.006778354
0.0016707966
-0.0073677469
1.5663524e-13
-0.0076687883
-0.0016707966
-0.0076687883
-0.003274608
-0.0073677469
-0.0047475533
-0.006778354
-0.00603175
-0.0059252987
-0.0070777909
-0.004843968
-0.0078466404
-0.0035786102
-0.008310775
-0.0021802027
-0.0084545214
-0.00070408912
-0.0082737321
0.00079199379
-0.0077781891
0.0022547565
-0.0069883189
0.0036284478
-0.0059348574
0.0048614938
-0.0046580027
0.0059078362
-0.0032060521
0.0067285448
-0.0016336899
0.0072931745
0.0075808104
0.0023838207
0.0051969897
0.0046771617
0.0049998335
0.0067929055
0.004612801
0.0086505399
0.0040502018
0.010179161
0.0033328724
0.011320125
0.0024874843
0.012029242
0.0015456391
0.01227863
0.00054260645
0.012056933
-0.00048239293
0.011371275
-0.0014945441
0.010245967
-0.0024533024
0.0087228301
-0.0033208311
0.0068596814
-0.0040621501
0.0047282649
-0.0046469375
0.0024114763
-0.0050509583
1.0169156e-13
-0.0052573119
-0.0024114763
-0.0052573119
-0.0047282649
-0.0050509583
-0.0068596814
-0.0046469375
-0.0087228301
-0.0040621501
-0.010245967
-0.0033208311
-0.011371275
-0.0024533024
-0.012056933
-0.0014945441
-0.01227863
-0.00048239293
-0.012029242
0.00054260645
-0.011320125
0.0015456391
-0.010179161
0.0024874843
-0.0086505399
0.0033328724
-0.0067929055
0.0040502018
-0.0046771617
0.004612801
-0.0023838207
0.0049998335
0.0051969897
0.001011702
0.0041852877
0.0019856048
0.0040259308
0.0028852696
0.0037131362
0.0036769465
0.0032585249
0.0043308142
0.0026790047
0.0048221214
0.0019961771
0.0051320471
0.0012357134
0.0052469434
0.00042771019
0.005151071
-0.00038652061
0.0048572361
-0.0012007091
0.0043766719
-0.0019727383
0.0037265707
-0.0026707298
0.0029311119
-0.0032666914
0.0020206874
-0.0037365129
0.001030688
-0.004060959
1.7973108e-13
-0.0042266239
-0.001030688
-0.0042266239
-0.0020206874
-0.004060959
-0.0029311119
-0.0037365129
-0.0037265707
-0.0032666914
-0.0043766719
-0.0026707298
-0.0048572361
-0.0019727383
-0.005151071
-0.0012007091
-0.0052469434
-0.00038652061
-0.0051320471
0.00042771019
-0.0048221214
0.0012357134
-0.0043308142
0.0019961771
-0.0036769465
0.0026790047
-0.0028852696
0.0032585249
-0.0019856048
0.0037131362
-0.001011702
0.0040259308
0.0041852877
0.0039708414
0.0077905817
0.011313719
0.014405744
0.016948146
0.018842858
0.020016126
0.020422761
0.020056992
0.018918453
0.017046995
0.014512802
0.011412673
0.0078663434
0.0040118512
3.7697484e-13
-0.0040118512
-0.0078663434
-0.011412673
-0.014512802
-0.017046995
-0.018918453
-0.020056992
-0.020422761
-0.020016126
-0.018842858
-0.016948146
-0.014405744
-0.011313719
-0.0077905817
-0.0039708414
)
;

boundaryField
{
    leftWall
    {
        type            cyclic;
        value           nonuniform List<scalar> 
32
(
2.2093061e-13
4.8157707e-13
2.4990229e-13
3.6790817e-13
3.1473707e-13
4.1787699e-14
-1.3753282e-13
-6.6577668e-14
5.6230681e-14
3.122568e-13
2.0590345e-13
-7.3045027e-14
-7.6525803e-14
-5.2224945e-14
1.0704054e-14
2.2122736e-13
3.068448e-13
2.5361391e-13
3.0333141e-13
2.3852487e-13
1.546947e-13
2.3965541e-13
1.2163161e-13
-1.9358051e-13
2.36266e-14
3.5713441e-13
5.348399e-13
3.4418805e-13
3.9395609e-13
-2.736451e-13
9.1917852e-13
-1.0197118e-12
)
;
    }
    rightWall
    {
        type            cyclic;
        value           nonuniform List<scalar> 
32
(
-2.2093061e-13
-4.8157707e-13
-2.4990229e-13
-3.6790817e-13
-3.1473707e-13
-4.1787699e-14
1.3753282e-13
6.6577668e-14
-5.6230681e-14
-3.122568e-13
-2.0590345e-13
7.3045027e-14
7.6525803e-14
5.2224945e-14
-1.0704054e-14
-2.2122736e-13
-3.068448e-13
-2.5361391e-13
-3.0333141e-13
-2.3852487e-13
-1.546947e-13
-2.3965541e-13
-1.2163161e-13
1.9358051e-13
-2.36266e-14
-3.5713441e-13
-5.348399e-13
-3.4418805e-13
-3.9395609e-13
2.736451e-13
-9.1917852e-13
1.0197118e-12
)
;
    }
    lowerWall
    {
        type            calculated;
        value           uniform 0;
    }
    atmosphere
    {
        type            calculated;
        value           nonuniform List<scalar> 
32
(
0.00021444634
0.00020619047
0.00018999898
0.00016649961
0.00013660264
0.00010146501
6.2445638e-05
2.1074799e-05
-2.0751516e-05
-6.2170152e-05
-0.0001012798
-0.00013653651
-0.00016656314
-0.00019018287
-0.00020646676
-0.00021477274
-0.00021477274
-0.00020646676
-0.00019018287
-0.00016656314
-0.00013653651
-0.0001012798
-6.2170151e-05
-2.0751516e-05
2.1074799e-05
6.2445637e-05
0.00010146501
0.00013660264
0.00016649961
0.00018999898
0.00020619047
0.00021444634
)
;
    }
    defaultFaces
    {
        type            empty;
        value           nonuniform List<scalar> 0();
    }
}


// ************************************************************************* //
