/*--------------------------------*- C++ -*----------------------------------*\
| =========                 |                                                 |
| \\      /  F ield         | OpenFOAM: The Open Source CFD Toolbox           |
|  \\    /   O peration     | Version:  2106                                  |
|   \\  /    A nd           | Website:  www.openfoam.com                      |
|    \\/     M anipulation  |                                                 |
\*---------------------------------------------------------------------------*/
FoamFile
{
    version     2.0;
    format      ascii;
    arch        "LSB;label=32;scalar=64";
    class       volVectorField;
    location    "0.001";
    object      U_0;
}
// * * * * * * * * * * * * * * * * * * * * * * * * * * * * * * * * * * * * * //

dimensions      [0 1 -1 0 0 0 0];

internalField   nonuniform List<vector> 
1024
(
(-0.029865897 0.02940854 0)
(-0.088426915 0.028256971 0)
(-0.14352474 0.026001921 0)
(-0.19301167 0.022736994 0)
(-0.23497265 0.018596401 0)
(-0.26779932 0.01374797 0)
(-0.29025935 0.00838291 0)
(-0.30150767 0.0027198438 0)
(-0.30117643 -0.0030328104 0)
(-0.28929916 -0.0086516389 0)
(-0.26636876 -0.013925818 0)
(-0.23328424 -0.018658553 0)
(-0.19132351 -0.022673957 0)
(-0.14209363 -0.025823177 0)
(-0.087470685 -0.027989654 0)
(-0.029530114 -0.029093284 0)
(0.029530114 -0.029093284 0)
(0.087470685 -0.027989654 0)
(0.14209363 -0.025823177 0)
(0.19132351 -0.022673957 0)
(0.23328424 -0.018658553 0)
(0.26636876 -0.013925818 0)
(0.28929916 -0.0086516389 0)
(0.30117643 -0.0030328104 0)
(0.30150767 0.0027198438 0)
(0.29025935 0.00838291 0)
(0.26779932 0.01374797 0)
(0.23497265 0.018596401 0)
(0.19301167 0.022736994 0)
(0.14352474 0.026001921 0)
(0.088426916 0.028256971 0)
(0.029865897 0.02940854 0)
(-0.031187042 0.089342688 0)
(-0.092335266 0.085841555 0)
(-0.14985796 0.078985988 0)
(-0.20150869 0.069061472 0)
(-0.24528696 0.056477115 0)
(-0.27951707 0.041744558 0)
(-0.30291325 0.025451127 0)
(-0.31461628 0.00823914 0)
(-0.31422637 -0.0092277548 0)
(-0.30180136 -0.026289218 0)
(-0.27785393 -0.042303184 0)
(-0.24332445 -0.056672439 0)
(-0.19954609 -0.068863358 0)
(-0.1481941 -0.078424298 0)
(-0.091223492 -0.085001569 0)
(-0.030796636 -0.088352086 0)
(0.030796636 -0.088352086 0)
(0.091223492 -0.085001569 0)
(0.1481941 -0.078424298 0)
(0.19954609 -0.068863358 0)
(0.24332445 -0.056672439 0)
(0.27785393 -0.042303184 0)
(0.30180136 -0.026289218 0)
(0.31422637 -0.0092277548 0)
(0.31461628 0.00823914 0)
(0.30291325 0.025451127 0)
(0.27951707 0.041744558 0)
(0.24528696 0.056477115 0)
(0.20150869 0.069061472 0)
(0.14985796 0.078985988 0)
(0.092335266 0.085841555 0)
(0.031187042 0.089342688 0)
(-0.033584371 0.15311179 0)
(-0.099426609 0.1471013 0)
(-0.16134685 0.13533411 0)
(-0.21691875 0.11830381 0)
(-0.26398695 0.096716936 0)
(-0.30075306 0.071455635 0)
(-0.3258429 0.043532765 0)
(-0.33834896 0.014047291 0)
(-0.33785346 -0.01586576 0)
(-0.32443184 -0.045074455 0)
(-0.29864121 -0.072484693 0)
(-0.26149538 -0.09707682 0)
(-0.214427 -0.11793929 0)
(-0.15923435 -0.13430027 0)
(-0.098015056 -0.14555517 0)
(-0.033088696 -0.15128841 0)
(0.033088696 -0.15128841 0)
(0.098015056 -0.14555517 0)
(0.15923435 -0.13430027 0)
(0.214427 -0.11793929 0)
(0.26149538 -0.09707682 0)
(0.29864121 -0.072484693 0)
(0.32443184 -0.045074455 0)
(0.33785346 -0.01586576 0)
(0.33834896 0.014047291 0)
(0.3258429 0.043532765 0)
(0.30075306 0.071455635 0)
(0.26398695 0.096716936 0)
(0.21691875 0.11830381 0)
(0.16134685 0.13533411 0)
(0.099426609 0.1471013 0)
(0.033584371 0.15311179 0)
(-0.037249897 0.22277077 0)
(-0.11026786 0.21400359 0)
(-0.17890651 0.19684358 0)
(-0.24046273 0.1720182 0)
(-0.29254406 0.14056726 0)
(-0.33316562 0.10378609 0)
(-0.36082274 0.063157779 0)
(-0.37453521 0.020282918 0)
(-0.3738655 -0.023189872 0)
(-0.3589155 -0.065621959 0)
(-0.3303109 -0.1054315 0)
(-0.2891762 -0.14114286 0)
(-0.23709459 -0.17143563 0)
(-0.17605102 -0.19519092 0)
(-0.10835986 -0.21153194 0)
(-0.036579897 -0.21985591 0)
(0.036579897 -0.21985591 0)
(0.10835986 -0.21153194 0)
(0.17605102 -0.19519092 0)
(0.23709459 -0.17143563 0)
(0.2891762 -0.14114286 0)
(0.3303109 -0.1054315 0)
(0.3589155 -0.065621959 0)
(0.3738655 -0.023189872 0)
(0.37453521 0.020282918 0)
(0.36082274 0.063157779 0)
(0.33316562 0.10378609 0)
(0.29254406 0.14056726 0)
(0.24046273 0.1720182 0)
(0.17890651 0.19684358 0)
(0.11026786 0.21400359 0)
(0.037249897 0.22277077 0)
(-0.042362122 0.30104524 0)
(-0.12538507 0.28915563 0)
(-0.20338292 0.26589183 0)
(-0.27326309 0.2322545 0)
(-0.33230164 0.18967136 0)
(-0.37825634 0.13991577 0)
(-0.40944735 0.085009271 0)
(-0.42480166 0.027120481 0)
(-0.42386283 -0.031530159 0)
(-0.40677349 -0.088747328 0)
(-0.37425392 -0.14241213 0)
(-0.32757969 -0.19054475 0)
(-0.26854068 -0.23137073 0)
(-0.19937932 -0.26338459 0)
(-0.12270996 -0.28540592 0)
(-0.041422757 -0.29662317 0)
(0.041422757 -0.29662317 0)
(0.12270996 -0.28540592 0)
(0.19937932 -0.26338459 0)
(0.26854068 -0.23137073 0)
(0.32757969 -0.19054475 0)
(0.37425392 -0.14241213 0)
(0.40677349 -0.088747328 0)
(0.42386283 -0.031530159 0)
(0.42480166 0.027120481 0)
(0.40944735 0.085009271 0)
(0.37825634 0.13991577 0)
(0.33230164 0.18967136 0)
(0.27326309 0.2322545 0)
(0.20338292 0.26589183 0)
(0.12538507 0.28915563 0)
(0.042362122 0.30104524 0)
(-0.049141304 0.39099491 0)
(-0.14542659 0.37547998 0)
(-0.23581627 0.34513582 0)
(-0.31669481 0.30129239 0)
(-0.38489692 0.24584362 0)
(-0.43784382 0.18113375 0)
(-0.47363548 0.10981968 0)
(-0.49109277 0.034729125 0)
(-0.48975138 -0.041269388 0)
(-0.4698148 -0.11536415 0)
(-0.43212427 -0.18483683 0)
(-0.37814875 -0.24713935 0)
(-0.30994587 -0.29998146 0)
(-0.23009469 -0.34141665 0)
(-0.14160367 -0.3699179 0)
(-0.047798916 -0.38443564 0)
(0.047798916 -0.38443564 0)
(0.14160367 -0.3699179 0)
(0.23009469 -0.34141665 0)
(0.30994587 -0.29998146 0)
(0.37814875 -0.24713935 0)
(0.43212427 -0.18483683 0)
(0.4698148 -0.11536415 0)
(0.48975138 -0.041269388 0)
(0.49109277 0.034729125 0)
(0.47363548 0.10981968 0)
(0.43784382 0.18113375 0)
(0.38489692 0.24584362 0)
(0.31669481 0.30129239 0)
(0.23581627 0.34513582 0)
(0.14542659 0.37547998 0)
(0.049141304 0.39099491 0)
(-0.057877255 0.49617297 0)
(-0.17124477 0.47636436 0)
(-0.27757154 0.43764336 0)
(-0.37255674 0.38174695 0)
(-0.45246212 0.31114458 0)
(-0.51428247 0.22888182 0)
(-0.55585446 0.13838578 0)
(-0.5758934 0.043265693 0)
(-0.57395883 -0.052867546 0)
(-0.55034362 -0.1465265 0)
(-0.50603165 -0.23431959 0)
(-0.44272657 -0.31304755 0)
(-0.36281986 -0.37982193 0)
(-0.26931718 -0.43218208 0)
(-0.16572984 -0.46819739 0)
(-0.055940801 -0.4865422 0)
(0.055940801 -0.4865422 0)
(0.16572984 -0.46819739 0)
(0.26931718 -0.43218208 0)
(0.36281986 -0.37982193 0)
(0.44272657 -0.31304755 0)
(0.50603165 -0.23431959 0)
(0.55034362 -0.1465265 0)
(0.57395883 -0.052867546 0)
(0.5758934 0.043265693 0)
(0.55585446 0.13838578 0)
(0.51428247 0.22888182 0)
(0.45246212 0.31114458 0)
(0.37255674 0.38174695 0)
(0.27757154 0.43764336 0)
(0.17124477 0.47636436 0)
(0.057877255 0.49617297 0)
(-0.068949717 0.6207852 0)
(-0.20395564 0.59581005 0)
(-0.33043285 0.54702072 0)
(-0.44319265 0.47666683 0)
(-0.53776114 0.38794424 0)
(-0.61060188 0.28478285 0)
(-0.65925113 0.17156827 0)
(-0.68234587 0.052856852 0)
(-0.67954353 -0.06688649 0)
(-0.65126696 -0.18346499 0)
(-0.59864554 -0.29273095 0)
(-0.52365137 -0.39072612 0)
(-0.42908069 -0.47385292 0)
(-0.31847041 -0.53903853 0)
(-0.19596396 -0.58387449 0)
(-0.066143788 -0.6067114 0)
(0.066143788 -0.6067114 0)
(0.19596396 -0.58387449 0)
(0.31847041 -0.53903853 0)
(0.42908069 -0.47385292 0)
(0.52365137 -0.39072612 0)
(0.59864554 -0.29273095 0)
(0.65126696 -0.18346499 0)
(0.67954353 -0.06688649 0)
(0.68234587 0.052856852 0)
(0.65925113 0.17156827 0)
(0.61060188 0.28478285 0)
(0.53776114 0.38794424 0)
(0.44319265 0.47666683 0)
(0.33043285 0.54702072 0)
(0.20395564 0.59581005 0)
(0.068949717 0.6207852 0)
(-0.08285092 0.76988742 0)
(-0.24500497 0.73861555 0)
(-0.39670819 0.67756891 0)
(-0.53162514 0.58965051 0)
(-0.64433745 0.47898958 0)
(-0.73065015 0.35065954 0)
(-0.78777322 0.21027272 0)
(-0.81434224 0.063563757 0)
(-0.81027577 -0.084017275 0)
(-0.77618407 -0.2276209 0)
(-0.71328952 -0.36225287 0)
(-0.62384593 -0.48304813 0)
(-0.51113026 -0.58554564 0)
(-0.37933734 -0.66592712 0)
(-0.23340188 -0.72121102 0)
(-0.078777441 -0.74936739 0)
(0.078777441 -0.74936739 0)
(0.23340188 -0.72121102 0)
(0.37933734 -0.66592712 0)
(0.51113026 -0.58554564 0)
(0.62384593 -0.48304813 0)
(0.71328952 -0.36225287 0)
(0.77618407 -0.2276209 0)
(0.81027577 -0.084017275 0)
(0.81434224 0.063563757 0)
(0.78777322 0.21027272 0)
(0.73065015 0.35065954 0)
(0.64433745 0.47898958 0)
(0.53162514 0.58965051 0)
(0.39670819 0.67756891 0)
(0.24500497 0.73861555 0)
(0.08285092 0.76988742 0)
(-0.10020994 0.94963267 0)
(-0.29624043 0.91060672 0)
(-0.4793457 0.83447881 0)
(-0.64170694 0.72498745 0)
(-0.77668111 0.58747686 0)
(-0.87924882 0.428537 0)
(-0.94628381 0.25539855 0)
(-0.97658223 0.0753165 0)
(-0.97068268 -0.10510389 0)
(-0.92946365 -0.2806678 0)
(-0.85403943 -0.44543008 0)
(-0.7469162 -0.59339233 0)
(-0.61193747 -0.71900399 0)
(-0.4541197 -0.81751631 0)
(-0.27939451 -0.88525535 0)
(-0.094296907 -0.9197494 0)
(0.094296907 -0.9197494 0)
(0.27939451 -0.88525535 0)
(0.4541197 -0.81751631 0)
(0.61193747 -0.71900399 0)
(0.7469162 -0.59339233 0)
(0.85403943 -0.44543008 0)
(0.92946365 -0.2806678 0)
(0.97068268 -0.10510389 0)
(0.97658223 0.0753165 0)
(0.94628381 0.25539855 0)
(0.87924882 0.428537 0)
(0.77668111 0.58747686 0)
(0.64170694 0.72498745 0)
(0.4793457 0.83447881 0)
(0.29624043 0.91060672 0)
(0.10020994 0.94963267 0)
(-0.12178987 1.1675648 0)
(-0.35990667 1.1189106 0)
(-0.58193556 1.0240626 0)
(-0.77813555 0.88781968 0)
(-0.94024635 0.71711773 0)
(-1.0621884 0.52060779 0)
(-1.1404986 0.30772562 0)
(-1.1744163 0.087811204 0)
(-1.1658918 -0.13113789 0)
(-1.1161896 -0.34449275 0)
(-1.0257354 -0.54520099 0)
(-0.89718424 -0.72573367 0)
(-0.73506595 -0.87910164 0)
(-0.54545183 -0.99936455 0)
(-0.33555199 -1.0820143 0)
(-0.11324366 -1.1240872 0)
(0.11324366 -1.1240872 0)
(0.33555199 -1.0820143 0)
(0.54545183 -0.99936455 0)
(0.73506595 -0.87910164 0)
(0.89718424 -0.72573367 0)
(1.0257354 -0.54520099 0)
(1.1161896 -0.34449275 0)
(1.1658918 -0.13113789 0)
(1.1744163 0.087811204 0)
(1.1404986 0.30772562 0)
(1.0621884 0.52060779 0)
(0.94024635 0.71711773 0)
(0.77813555 0.88781968 0)
(0.58193556 1.0240626 0)
(0.35990667 1.1189106 0)
(0.12178987 1.1675648 0)
(-0.14828361 1.4328657 0)
(-0.43805738 1.3722061 0)
(-0.70780815 1.2540057 0)
(-0.94533709 1.0843637 0)
(-1.1402129 0.87224903 0)
(-1.2849328 0.6291539 0)
(-1.3756368 0.3676462 0)
(-1.4124235 0.10033742 0)
(-1.4003515 -0.16310022 0)
(-1.3411946 -0.4210321 0)
(-1.2332358 -0.66486735 0)
(-1.0790831 -0.88473814 0)
(-0.88418083 -1.0716591 0)
(-0.65602319 -1.2181262 0)
(-0.40350502 -1.3186573 0)
(-0.13616427 -1.3698025 0)
(0.13616427 -1.3698025 0)
(0.40350502 -1.3186573 0)
(0.65602319 -1.2181262 0)
(0.88418083 -1.0716591 0)
(1.0790831 -0.88473814 0)
(1.2332358 -0.66486735 0)
(1.3411946 -0.4210321 0)
(1.4003515 -0.16310022 0)
(1.4124235 0.10033742 0)
(1.3756368 0.3676462 0)
(1.2849328 0.6291539 0)
(1.1402129 0.87224903 0)
(0.94533709 1.0843637 0)
(0.70780815 1.2540057 0)
(0.43805738 1.3722061 0)
(0.14828361 1.4328657 0)
(-0.17906955 1.7557608 0)
(-0.52894095 1.6801842 0)
(-0.85439289 1.5329244 0)
(-1.1403758 1.3215245 0)
(-1.3736136 1.0573656 0)
(-1.544548 0.75596406 0)
(-1.6483953 0.43446116 0)
(-1.6865545 0.11081464 0)
(-1.6707945 -0.20179995 0)
(-1.6031297 -0.51186987 0)
(-1.4763325 -0.80778187 0)
(-1.2928392 -1.0755968 0)
(-1.0595398 -1.303417 0)
(-0.785968 -1.4815592 0)
(-0.48329663 -1.6035043 0)
(-0.16306746 -1.6654836 0)
(0.16306746 -1.6654836 0)
(0.48329663 -1.6035043 0)
(0.785968 -1.4815592 0)
(1.0595398 -1.303417 0)
(1.2928392 -1.0755968 0)
(1.4763325 -0.80778187 0)
(1.6031297 -0.51186987 0)
(1.6707945 -0.20179995 0)
(1.6865545 0.11081464 0)
(1.6483953 0.43446116 0)
(1.544548 0.75596406 0)
(1.3736136 1.0573656 0)
(1.1403758 1.3215245 0)
(0.85439289 1.5329244 0)
(0.52894095 1.6801842 0)
(0.17906955 1.7557608 0)
(-0.2070254 2.1433167 0)
(-0.61188176 2.0499422 0)
(-0.98936477 1.8676852 0)
(-1.3224206 1.6053869 0)
(-1.5945836 1.2781066 0)
(-1.7933222 0.90633982 0)
(-1.9116894 0.5122581 0)
(-1.950414 0.12192964 0)
(-1.9344586 -0.24305763 0)
(-1.8660515 -0.61552805 0)
(-1.724674 -0.97624296 0)
(-1.5131963 -1.3030863 0)
(-1.240923 -1.5803859 0)
(-0.920346 -1.7962836 0)
(-0.56573883 -1.9433389 0)
(-0.19083811 -2.0178541 0)
(0.19083811 -2.0178541 0)
(0.56573883 -1.9433389 0)
(0.920346 -1.7962836 0)
(1.240923 -1.5803859 0)
(1.5131963 -1.3030863 0)
(1.724674 -0.97624296 0)
(1.8660515 -0.61552805 0)
(1.9344586 -0.24305763 0)
(1.950414 0.12192964 0)
(1.9116894 0.5122581 0)
(1.7933222 0.90633982 0)
(1.5945836 1.2781066 0)
(1.3224206 1.6053869 0)
(0.98936477 1.8676852 0)
(0.61188176 2.0499422 0)
(0.2070254 2.1433167 0)
(-0.20219633 2.5791436 0)
(-0.59987113 2.4653022 0)
(-0.97508586 2.2429846 0)
(-1.312988 1.9211674 0)
(-1.5973222 1.5178867 0)
(-1.8149807 1.0618967 0)
(-1.9546992 0.58243586 0)
(-2.0065302 0.12032585 0)
(-2.0087652 -0.28105522 0)
(-1.9619973 -0.71936257 0)
(-1.8265723 -1.1545134 0)
(-1.6100049 -1.5514959 0)
(-1.3239022 -1.8889643 0)
(-0.98283337 -2.1499881 0)
(-0.60415226 -2.3268217 0)
(-0.20351967 -2.4170386 0)
(0.20351967 -2.4170386 0)
(0.60415226 -2.3268217 0)
(0.98283337 -2.1499881 0)
(1.3239022 -1.8889643 0)
(1.6100049 -1.5514959 0)
(1.8265723 -1.1545134 0)
(1.9619973 -0.71936257 0)
(2.0087652 -0.28105522 0)
(2.0065302 0.12032585 0)
(1.9546992 0.58243586 0)
(1.8149807 1.0618967 0)
(1.5973222 1.5178867 0)
(1.312988 1.9211674 0)
(0.97508586 2.2429846 0)
(0.59987113 2.4653022 0)
(0.20219633 2.5791436 0)
(-0.080958398 2.9447277 0)
(-0.25001251 2.8287657 0)
(-0.42898591 2.5961445 0)
(-0.61772519 2.2525004 0)
(-0.80869695 1.8083548 0)
(-0.9904902 1.2926586 0)
(-1.1473414 0.7295757 0)
(-1.2428177 0.16170523 0)
(-1.306847 -0.26389225 0)
(-1.3348255 -0.80958208 0)
(-1.2789374 -1.3494915 0)
(-1.1531091 -1.8313555 0)
(-0.96484345 -2.2375355 0)
(-0.72488681 -2.5462003 0)
(-0.4487124 -2.7519139 0)
(-0.15087884 -2.8537346 0)
(0.15087884 -2.8537346 0)
(0.4487124 -2.7519139 0)
(0.72488681 -2.5462003 0)
(0.96484345 -2.2375355 0)
(1.1531091 -1.8313555 0)
(1.2789374 -1.3494915 0)
(1.3348255 -0.80958208 0)
(1.306847 -0.26389225 0)
(1.2428177 0.16170523 0)
(1.1473414 0.7295757 0)
(0.9904902 1.2926586 0)
(0.80869695 1.8083548 0)
(0.61772519 2.2525004 0)
(0.42898591 2.5961445 0)
(0.25001251 2.8287657 0)
(0.080958398 2.9447277 0)
(0.15009478 2.8551316 0)
(0.44640655 2.7533038 0)
(0.72112561 2.5474934 0)
(0.95982759 2.2389563 0)
(1.1472725 1.8329402 0)
(1.2730235 1.3511245 0)
(1.3314158 0.81279682 0)
(1.3022954 0.25561242 0)
(1.2312917 -0.17004379 0)
(1.1349614 -0.72685862 0)
(0.98180947 -1.2918112 0)
(0.80177062 -1.8077876 0)
(0.61224152 -2.2523164 0)
(0.42495468 -2.5962737 0)
(0.24752599 -2.8288964 0)
(0.080126513 -2.944891 0)
(-0.080126513 -2.944891 0)
(-0.24752599 -2.8288964 0)
(-0.42495468 -2.5962737 0)
(-0.61224152 -2.2523164 0)
(-0.80177062 -1.8077876 0)
(-0.98180947 -1.2918112 0)
(-1.1349614 -0.72685862 0)
(-1.2312917 -0.17004379 0)
(-1.3022954 0.25561242 0)
(-1.3314158 0.81279682 0)
(-1.2730235 1.3511245 0)
(-1.1472725 1.8329402 0)
(-0.95982759 2.2389563 0)
(-0.72112561 2.5474934 0)
(-0.44640655 2.7533038 0)
(-0.15009478 2.8551316 0)
(0.20272008 2.4200008 0)
(0.601799 2.329688 0)
(0.97902399 2.152661 0)
(1.3188548 1.8914257 0)
(1.6041162 1.5536901 0)
(1.8202759 1.1562106 0)
(1.9556573 0.71998095 0)
(2.0011347 0.27815914 0)
(1.9966879 -0.12347528 0)
(1.944562 -0.58323592 0)
(1.8060547 -1.0625222 0)
(1.5898356 -1.5187725 0)
(1.307067 -1.9224821 0)
(0.97073976 -2.244642 0)
(0.59720243 -2.4671003 0)
(0.20129913 -2.5810373 0)
(-0.20129913 -2.5810373 0)
(-0.59720243 -2.4671003 0)
(-0.97073976 -2.244642 0)
(-1.307067 -1.9224821 0)
(-1.5898356 -1.5187725 0)
(-1.8060547 -1.0625222 0)
(-1.944562 -0.58323592 0)
(-1.9966879 -0.12347528 0)
(-2.0011347 0.27815914 0)
(-1.9556573 0.71998095 0)
(-1.8202759 1.1562106 0)
(-1.6041162 1.5536901 0)
(-1.3188548 1.8914257 0)
(-0.97902399 2.152661 0)
(-0.601799 2.329688 0)
(-0.20272008 2.4200008 0)
(0.18997967 2.0224324 0)
(0.56320425 1.9477525 0)
(0.916249 1.800362 0)
(1.2354608 1.5839835 0)
(1.5066647 1.306036 0)
(1.7173546 0.97823729 0)
(1.8580956 0.61621945 0)
(1.9256432 0.24198829 0)
(1.940655 -0.12368313 0)
(1.9018197 -0.51392747 0)
(1.7842625 -0.90826511 0)
(1.5867632 -1.2804546 0)
(1.316102 -1.6082457 0)
(0.98470176 -1.8709763 0)
(0.60901782 -2.0535132 0)
(0.20606071 -2.1470386 0)
(-0.20606071 -2.1470386 0)
(-0.60901782 -2.0535132 0)
(-0.98470176 -1.8709763 0)
(-1.316102 -1.6082457 0)
(-1.5867632 -1.2804546 0)
(-1.7842625 -0.90826511 0)
(-1.9018197 -0.51392747 0)
(-1.940655 -0.12368313 0)
(-1.9256432 0.24198829 0)
(-1.8580956 0.61621945 0)
(-1.7173546 0.97823729 0)
(-1.5066647 1.306036 0)
(-1.2354608 1.5839835 0)
(-0.916249 1.800362 0)
(-0.56320425 1.9477525 0)
(-0.18997967 2.0224324 0)
(0.1621069 1.6718525 0)
(0.48045625 1.6096282 0)
(0.78136714 1.4871944 0)
(1.0533692 1.3083316 0)
(1.2853564 1.079561 0)
(1.4678047 0.81054344 0)
(1.5937748 0.51320891 0)
(1.660755 0.20162662 0)
(1.67608 -0.11217153 0)
(1.6380376 -0.43661308 0)
(1.5349258 -0.7589128 0)
(1.3651965 -1.0611009 0)
(1.1335001 -1.3259972 0)
(0.84929858 -1.5379983 0)
(0.52580997 -1.6856742 0)
(0.17801385 -1.7614674 0)
(-0.17801385 -1.7614674 0)
(-0.52580997 -1.6856742 0)
(-0.84929858 -1.5379983 0)
(-1.1335001 -1.3259972 0)
(-1.3651965 -1.0611009 0)
(-1.5349258 -0.7589128 0)
(-1.6380376 -0.43661308 0)
(-1.67608 -0.11217153 0)
(-1.660755 0.20162662 0)
(-1.5937748 0.51320891 0)
(-1.4678047 0.81054344 0)
(-1.2853564 1.079561 0)
(-1.0533692 1.3083316 0)
(-0.78136714 1.4871944 0)
(-0.48045625 1.6096282 0)
(-0.1621069 1.6718525 0)
(0.13506104 1.3782811 0)
(0.40023935 1.3268044 0)
(0.65072371 1.2256181 0)
(0.87705145 1.0781899 0)
(1.0703922 0.89002726 0)
(1.2232875 0.66866104 0)
(1.3303022 0.4231472 0)
(1.3888405 0.16347373 0)
(1.4006845 -0.10158183 0)
(1.3641756 -0.3703334 0)
(1.2742919 -0.63316754 0)
(1.1308673 -0.87746924 0)
(0.9376691 -1.0906353 0)
(0.70211399 -1.2611135 0)
(0.43455391 -1.3798934 0)
(0.14710137 -1.4408507 0)
(-0.14710137 -1.4408507 0)
(-0.43455391 -1.3798934 0)
(-0.70211399 -1.2611135 0)
(-0.9376691 -1.0906353 0)
(-1.1308673 -0.87746924 0)
(-1.2742919 -0.63316754 0)
(-1.3641756 -0.3703334 0)
(-1.4006845 -0.10158183 0)
(-1.3888405 0.16347373 0)
(-1.3303022 0.4231472 0)
(-1.2232875 0.66866104 0)
(-1.0703922 0.89002726 0)
(-0.87705145 1.0781899 0)
(-0.65072371 1.2256181 0)
(-0.40023935 1.3268044 0)
(-0.13506104 1.3782811 0)
(0.11195177 1.1349018 0)
(0.33172571 1.0924049 0)
(0.53923656 1.0089205 0)
(0.72669419 0.8874403 0)
(0.8869642 0.73251574 0)
(1.0140333 0.5501446 0)
(1.1034134 0.34740133 0)
(1.1524923 0.13192426 0)
(1.160882 -0.089120316 0)
(1.1273718 -0.31101078 0)
(1.0500306 -0.52572843 0)
(0.92956554 -0.72389211 0)
(0.76936353 -0.89601018 0)
(0.5754169 -1.0333708 0)
(0.35589349 -1.1289914 0)
(0.12043508 -1.1780407 0)
(-0.12043508 -1.1780407 0)
(-0.35589349 -1.1289914 0)
(-0.5754169 -1.0333708 0)
(-0.76936353 -0.89601018 0)
(-0.92956554 -0.72389211 0)
(-1.0500306 -0.52572843 0)
(-1.1273718 -0.31101078 0)
(-1.160882 -0.089120316 0)
(-1.1524923 0.13192426 0)
(-1.1034134 0.34740133 0)
(-1.0140333 0.5501446 0)
(-0.8869642 0.73251574 0)
(-0.72669419 0.8874403 0)
(-0.53923656 1.0089205 0)
(-0.33172571 1.0924049 0)
(-0.11195177 1.1349018 0)
(0.092769897 0.93017878 0)
(0.27487109 0.89528185 0)
(0.44677 0.82675041 0)
(0.60203642 0.72708324 0)
(0.73483247 0.59999623 0)
(0.84021974 0.45029405 0)
(0.91441529 0.28360108 0)
(0.95495429 0.10600368 0)
(0.96077032 -0.076466001 0)
(0.93100593 -0.25852384 0)
(0.86510694 -0.43351627 0)
(0.76424523 -0.59412961 0)
(0.63147809 -0.7330722 0)
(0.47173439 -0.843695 0)
(0.29155005 -0.92060635 0)
(0.098625721 -0.96003319 0)
(-0.098625721 -0.96003319 0)
(-0.29155005 -0.92060635 0)
(-0.47173439 -0.843695 0)
(-0.63147809 -0.7330722 0)
(-0.76424523 -0.59412961 0)
(-0.86510694 -0.43351627 0)
(-0.93100593 -0.25852384 0)
(-0.96077032 -0.076466001 0)
(-0.95495429 0.10600368 0)
(-0.91441529 0.28360108 0)
(-0.84021974 0.45029405 0)
(-0.73483247 0.59999623 0)
(-0.60203642 0.72708324 0)
(-0.44677 0.82675041 0)
(-0.27487109 0.89528185 0)
(-0.092769897 0.93017878 0)
(0.077080488 0.77427274 0)
(0.22837439 0.7451539 0)
(0.37116668 0.68798111 0)
(0.50011976 0.60485571 0)
(0.61040306 0.49886419 0)
(0.69791113 0.37395983 0)
(0.75944025 0.23476686 0)
(0.79279162 0.086336529 0)
(0.79678052 -0.066135854 0)
(0.77080892 -0.21760878 0)
(0.71494242 -0.36244794 0)
(0.63050228 -0.49475439 0)
(0.52021153 -0.60876775 0)
(0.3881886 -0.69930363 0)
(0.2397413 -0.76214564 0)
(0.081070518 -0.79433055 0)
(-0.081070518 -0.79433055 0)
(-0.2397413 -0.76214564 0)
(-0.3881886 -0.69930363 0)
(-0.52021153 -0.60876775 0)
(-0.63050228 -0.49475439 0)
(-0.71494242 -0.36244794 0)
(-0.77080892 -0.21760878 0)
(-0.79678052 -0.066135854 0)
(-0.79279162 0.086336529 0)
(-0.75944025 0.23476686 0)
(-0.69791113 0.37395983 0)
(-0.61040306 0.49886419 0)
(-0.50011976 0.60485571 0)
(-0.37116668 0.68798111 0)
(-0.22837439 0.7451539 0)
(-0.077080488 0.77427274 0)
(0.063651251 0.60562144 0)
(0.1885811 0.58282913 0)
(0.30647751 0.53808007 0)
(0.41293206 0.47301913 0)
(0.50395801 0.3900482 0)
(0.57615357 0.29223167 0)
(0.62683154 0.18315971 0)
(0.65409644 0.066784267 0)
(0.65687054 -0.052751478 0)
(0.63473494 -0.17126177 0)
(0.58798979 -0.28429095 0)
(0.51793005 -0.38730276 0)
(0.42691631 -0.47593004 0)
(0.31833964 -0.54623402 0)
(0.19650997 -0.59500281 0)
(0.066435932 -0.61997199 0)
(-0.066435932 -0.61997199 0)
(-0.19650997 -0.59500281 0)
(-0.31833964 -0.54623402 0)
(-0.42691631 -0.47593004 0)
(-0.51793005 -0.38730276 0)
(-0.58798979 -0.28429095 0)
(-0.63473494 -0.17126177 0)
(-0.65687054 -0.052751478 0)
(-0.65409644 0.066784267 0)
(-0.62683154 0.18315971 0)
(-0.57615357 0.29223167 0)
(-0.50395801 0.3900482 0)
(-0.41293206 0.47301913 0)
(-0.30647751 0.53808007 0)
(-0.1885811 0.58282913 0)
(-0.063651251 0.60562144 0)
(0.054272515 0.55155236 0)
(0.16078911 0.53071409 0)
(0.26129368 0.48980695 0)
(0.35202042 0.43034297 0)
(0.42956152 0.35452326 0)
(0.49099467 0.265151 0)
(0.53398542 0.16552091 0)
(0.55688307 0.059297226 0)
(0.5587283 -0.049639434 0)
(0.53924222 -0.15730722 0)
(0.49887958 -0.25961275 0)
(0.4388909 -0.35249423 0)
(0.3613731 -0.43211662 0)
(0.26923566 -0.49509113 0)
(0.16610104 -0.53868275 0)
(0.056138646 -0.56097283 0)
(-0.056138646 -0.56097283 0)
(-0.16610104 -0.53868275 0)
(-0.26923566 -0.49509113 0)
(-0.3613731 -0.43211662 0)
(-0.4388909 -0.35249423 0)
(-0.49887958 -0.25961275 0)
(-0.53924222 -0.15730722 0)
(-0.5587283 -0.049639434 0)
(-0.55688307 0.059297226 0)
(-0.53398542 0.16552091 0)
(-0.49099467 0.265151 0)
(-0.42956152 0.35452326 0)
(-0.35202042 0.43034297 0)
(-0.26129368 0.48980695 0)
(-0.16078911 0.53071409 0)
(-0.054272515 0.55155236 0)
(0.042810035 0.34672428 0)
(0.12682661 0.33364846 0)
(0.20609161 0.30797743 0)
(0.27763169 0.27065597 0)
(0.3387582 0.2230597 0)
(0.38716661 0.16694329 0)
(0.42101845 0.10436205 0)
(0.43898701 0.0375852 0)
(0.44031437 -0.030956256 0)
(0.42480429 -0.098765922 0)
(0.39283643 -0.16325438 0)
(0.34544541 -0.22185159 0)
(0.28431692 -0.27212652 0)
(0.21175698 -0.3119214 0)
(0.13061087 -0.33948558 0)
(0.04413864 -0.35358609 0)
(-0.04413864 -0.35358609 0)
(-0.13061087 -0.33948558 0)
(-0.21175698 -0.3119214 0)
(-0.28431692 -0.27212652 0)
(-0.34544541 -0.22185159 0)
(-0.39283643 -0.16325438 0)
(-0.42480429 -0.098765922 0)
(-0.44031437 -0.030956256 0)
(-0.43898701 0.0375852 0)
(-0.42101845 0.10436205 0)
(-0.38716661 0.16694329 0)
(-0.3387582 0.2230597 0)
(-0.27763169 0.27065597 0)
(-0.20609161 0.30797742 0)
(-0.12682661 0.33364846 0)
(-0.042810035 0.34672428 0)
(0.041263662 0.43901003 0)
(0.12223562 0.42234468 0)
(0.19859872 0.3896326 0)
(0.26746928 0.34208906 0)
(0.32624075 0.28148226 0)
(0.37268084 0.2100699 0)
(0.40501212 0.13051818 0)
(0.42197412 0.045800184 0)
(0.4228351 -0.040913668 0)
(0.40746316 -0.12635617 0)
(0.37634452 -0.20724707 0)
(0.33055727 -0.28041217 0)
(0.27178231 -0.34291993 0)
(0.20225337 -0.39222171 0)
(0.12467699 -0.42628007 0)
(0.042120861 -0.44367415 0)
(-0.042120861 -0.44367415 0)
(-0.12467699 -0.42628007 0)
(-0.20225337 -0.39222171 0)
(-0.27178231 -0.34291993 0)
(-0.33055727 -0.28041217 0)
(-0.37634452 -0.20724707 0)
(-0.40746316 -0.12635617 0)
(-0.4228351 -0.040913668 0)
(-0.42197412 0.045800184 0)
(-0.40501212 0.13051818 0)
(-0.37268084 0.2100699 0)
(-0.32624075 0.28148226 0)
(-0.26746928 0.34208906 0)
(-0.19859872 0.3896326 0)
(-0.12223562 0.42234468 0)
(-0.041263662 0.43901003 0)
(0.026376359 0.11257251 0)
(0.078139162 0.10836246 0)
(0.12696844 0.10009294 0)
(0.17102771 0.088059975 0)
(0.20865484 0.072694491 0)
(0.23842178 0.05454745 0)
(0.25918255 0.034269582 0)
(0.2701066 0.012586576 0)
(0.27071883 -0.0097085203 0)
(0.26092768 -0.031845745 0)
(0.24103438 -0.052964154 0)
(0.211738 -0.072209534 0)
(0.17411227 -0.088763971 0)
(0.12958424 -0.10189589 0)
(0.079887357 -0.11100673 0)
(0.026990293 -0.11567222 0)
(-0.026990293 -0.11567222 0)
(-0.079887357 -0.11100673 0)
(-0.12958424 -0.10189589 0)
(-0.17411227 -0.088763971 0)
(-0.211738 -0.072209534 0)
(-0.24103438 -0.052964154 0)
(-0.26092768 -0.031845745 0)
(-0.27071883 -0.0097085203 0)
(-0.2701066 0.012586576 0)
(-0.25918255 0.034269582 0)
(-0.23842178 0.05454745 0)
(-0.20865484 0.072694491 0)
(-0.17102771 0.088059975 0)
(-0.12696844 0.10009294 0)
(-0.078139162 0.10836246 0)
(-0.026376359 0.11257251 0)
(0.038423242 0.41714899 0)
(0.11381172 0.40124638 0)
(0.18488041 0.37003648 0)
(0.24892783 0.32468902 0)
(0.30351391 0.2669063 0)
(0.34655084 0.19886435 0)
(0.37637861 0.1231375 0)
(0.39185379 0.042609292 0)
(0.39231405 -0.039610838 0)
(0.37768705 -0.12057798 0)
(0.34850815 -0.19711763 0)
(0.30582204 -0.2662227 0)
(0.25123543 -0.32515691 0)
(0.18683639 -0.3715691 0)
(0.11511862 -0.40359405 0)
(0.038882132 -0.41993789 0)
(-0.038882132 -0.41993789 0)
(-0.11511862 -0.40359405 0)
(-0.18683639 -0.3715691 0)
(-0.25123543 -0.32515691 0)
(-0.30582204 -0.2662227 0)
(-0.34850815 -0.19711763 0)
(-0.37768705 -0.12057798 0)
(-0.39231405 -0.039610838 0)
(-0.39185379 0.042609292 0)
(-0.37637861 0.1231375 0)
(-0.34655084 0.19886435 0)
(-0.30351391 0.2669063 0)
(-0.24892783 0.32468902 0)
(-0.18488041 0.37003648 0)
(-0.11381172 0.40124638 0)
(-0.038423242 0.41714899 0)
(0.01637831 -0.13043977 0)
(0.048523147 -0.12540036 0)
(0.078854816 -0.11551753 0)
(0.10623695 -0.10117591 0)
(0.12964062 -0.082934192 0)
(0.14818338 -0.061503648 0)
(0.16115829 -0.037721849 0)
(0.16806895 -0.012533319 0)
(0.16838516 0.013112202 0)
(0.16206154 0.038198207 0)
(0.14953394 0.061788432 0)
(0.13123338 0.082967393 0)
(0.10782948 0.10093613 0)
(0.080204707 0.11502499 0)
(0.049425157 0.12471414 0)
(0.01669501 0.12964866 0)
(-0.01669501 0.12964866 0)
(-0.049425157 0.12471414 0)
(-0.080204707 0.11502499 0)
(-0.10782948 0.10093613 0)
(-0.13123338 0.082967392 0)
(-0.14953394 0.061788432 0)
(-0.16206154 0.038198207 0)
(-0.16838516 0.013112202 0)
(-0.16806895 -0.012533319 0)
(-0.16115829 -0.037721849 0)
(-0.14818338 -0.061503648 0)
(-0.12964062 -0.082934192 0)
(-0.10623695 -0.10117591 0)
(-0.078854816 -0.11551753 0)
(-0.048523147 -0.12540036 0)
(-0.01637831 -0.13043977 0)
(0.064004588 0.4486587 0)
(0.18957895 0.43149202 0)
(0.3079391 0.39780682 0)
(0.41457267 0.34887522 0)
(0.5054023 0.28654692 0)
(0.57693638 0.21318185 0)
(0.62638187 0.13157501 0)
(0.65187253 0.04495747 0)
(0.65255013 -0.042624078 0)
(0.62831188 -0.12957714 0)
(0.57982764 -0.21181014 0)
(0.50881529 -0.28599568 0)
(0.41798745 -0.34921335 0)
(0.31083513 -0.39896751 0)
(0.19151457 -0.43328279 0)
(0.064684359 -0.45079054 0)
(-0.064684359 -0.45079054 0)
(-0.19151457 -0.43328279 0)
(-0.31083513 -0.39896751 0)
(-0.41798745 -0.34921335 0)
(-0.50881529 -0.28599568 0)
(-0.57982764 -0.21181014 0)
(-0.62831188 -0.12957714 0)
(-0.65255013 -0.042624078 0)
(-0.65187253 0.04495747 0)
(-0.62638187 0.13157501 0)
(-0.57693638 0.21318185 0)
(-0.5054023 0.28654692 0)
(-0.41457267 0.34887522 0)
(-0.3079391 0.39780682 0)
(-0.18957895 0.43149202 0)
(-0.064004588 0.4486587 0)
)
;

boundaryField
{
    leftWall
    {
        type            cyclic;
    }
    rightWall
    {
        type            cyclic;
    }
    lowerWall
    {
        type            slip;
    }
    atmosphere
    {
        type            slip;
    }
    defaultFaces
    {
        type            empty;
    }
}


// ************************************************************************* //
