/*--------------------------------*- C++ -*----------------------------------*\
| =========                 |                                                 |
| \\      /  F ield         | OpenFOAM: The Open Source CFD Toolbox           |
|  \\    /   O peration     | Version:  2306                                  |
|   \\  /    A nd           | Website:  www.openfoam.com                      |
|    \\/     M anipulation  |                                                 |
\*---------------------------------------------------------------------------*/
FoamFile
{
    version     2.0;
    format      ascii;
    arch        "LSB;label=32;scalar=64";
    class       surfaceScalarField;
    location    "0.25";
    object      phi;
}
// * * * * * * * * * * * * * * * * * * * * * * * * * * * * * * * * * * * * * //

dimensions      [0 3 -1 0 0 0 0];

oriented        oriented;

internalField   nonuniform List<scalar> 
12640
(
4.0126478e-06
3.2829389e-06
4.0975478e-06
3.1370819e-06
4.1740152e-06
2.9894914e-06
4.2423371e-06
2.8405665e-06
4.3028025e-06
2.6906776e-06
4.355702e-06
2.5401658e-06
4.4013262e-06
2.3893455e-06
4.4399641e-06
2.2385066e-06
4.4719013e-06
2.0879132e-06
4.4974201e-06
1.9378072e-06
4.5167977e-06
1.788409e-06
4.5303059e-06
1.6399186e-06
4.5382109e-06
1.4925164e-06
4.5407711e-06
1.3463661e-06
4.5382389e-06
1.2016133e-06
4.5308587e-06
1.0583893e-06
4.5188681e-06
9.1680954e-07
4.5024955e-06
7.7697716e-07
4.4819622e-06
6.3898144e-07
4.4574807e-06
5.0290074e-07
4.4292567e-06
3.6880208e-07
4.3974834e-06
2.3673698e-07
4.362352e-06
1.0675909e-07
4.3240598e-06
-2.1063055e-08
4.2827585e-06
-1.4672654e-07
4.2386191e-06
-2.7021179e-07
4.1918006e-06
-3.9149409e-07
4.1424524e-06
-5.1055856e-07
4.0907184e-06
-6.2739786e-07
4.0367344e-06
-7.4200915e-07
3.9806292e-06
-8.5439445e-07
3.922526e-06
-9.6455907e-07
3.8625398e-06
-1.0725124e-06
3.8007806e-06
-1.1782664e-06
3.7373523e-06
-1.2818365e-06
3.6723522e-06
-1.3832406e-06
3.6058726e-06
-1.4824978e-06
3.5379996e-06
-1.579629e-06
3.4688154e-06
-1.6746586e-06
3.3983955e-06
-1.7676103e-06
3.3268113e-06
-1.8585095e-06
3.2541303e-06
-1.9473827e-06
3.180414e-06
-2.0342568e-06
3.1057205e-06
-2.119159e-06
3.0301035e-06
-2.2021175e-06
2.9536134e-06
-2.2831591e-06
2.8762954e-06
-2.3623129e-06
2.7981928e-06
-2.4396061e-06
2.719344e-06
-2.5150662e-06
2.6397855e-06
-2.5887203e-06
2.5595485e-06
-2.6605948e-06
2.4786636e-06
-2.730716e-06
2.3971572e-06
-2.7991087e-06
2.3150536e-06
-2.8657989e-06
2.2323734e-06
-2.9308082e-06
2.1491356e-06
-2.9941611e-06
2.0653567e-06
-3.0558778e-06
1.9810514e-06
-3.1159801e-06
1.8962312e-06
-3.1744868e-06
1.8109064e-06
-3.2314167e-06
1.7250852e-06
-3.286787e-06
1.6387734e-06
-3.3406137e-06
1.5519758e-06
-3.3929098e-06
1.4646954e-06
-3.4436892e-06
1.3769339e-06
-3.4929641e-06
1.2886905e-06
-3.5407441e-06
1.1999646e-06
-3.5870377e-06
1.1107533e-06
-3.631852e-06
1.0210519e-06
-3.6751916e-06
9.3085723e-07
-3.7170616e-06
8.401614e-07
-3.7574617e-06
7.4895849e-07
-3.7963948e-06
6.5724022e-07
-3.8338571e-06
5.6499834e-07
-3.8698464e-06
4.7222389e-07
-3.9043585e-06
3.7890621e-07
-3.9373889e-06
2.8503549e-07
-3.9689395e-06
1.9060073e-07
-3.9990266e-06
9.5592484e-08
-4.0277045e-06
-4.0550292e-06
3.826994e-06
3.1891936e-06
3.9124256e-06
3.0516506e-06
3.9897892e-06
2.9121276e-06
4.0593388e-06
2.7710171e-06
4.1213318e-06
2.6286843e-06
4.1760299e-06
2.4854676e-06
4.2236961e-06
2.3416795e-06
4.2645931e-06
2.1976097e-06
4.2989825e-06
2.0535234e-06
4.3271239e-06
1.9096656e-06
4.349274e-06
1.766259e-06
4.3656848e-06
1.6235077e-06
4.3766037e-06
1.4815974e-06
4.3822735e-06
1.3406964e-06
4.3829304e-06
1.2009565e-06
4.3788048e-06
1.0625149e-06
4.3701207e-06
9.2549401e-07
4.3570948e-06
7.9000308e-07
4.3399376e-06
6.5613861e-07
4.3188519e-06
5.239866e-07
4.2940326e-06
3.936213e-07
4.2656665e-06
2.6510319e-07
4.2339332e-06
1.3849231e-07
4.1990351e-06
1.3834934e-08
4.1611003e-06
-1.087913e-07
4.1203054e-06
-2.2941715e-07
4.0768024e-06
-3.4799136e-07
4.0307372e-06
-4.644932e-07
3.9822485e-06
-5.7890942e-07
3.9314696e-06
-6.9123038e-07
3.8785267e-06
-8.0145119e-07
3.8235391e-06
-9.0957138e-07
3.7666211e-06
-1.0155944e-06
3.7078809e-06
-1.1195261e-06
3.64742e-06
-1.2213758e-06
3.5853358e-06
-1.321156e-06
3.5217183e-06
-1.4188809e-06
3.4566554e-06
-1.5145658e-06
3.3902265e-06
-1.6082299e-06
3.3225082e-06
-1.6998921e-06
3.2535723e-06
-1.789573e-06
3.1834852e-06
-1.8772959e-06
3.1123095e-06
-1.9630815e-06
3.0401037e-06
-2.0469537e-06
2.9669232e-06
-2.1289363e-06
2.8928173e-06
-2.2090536e-06
2.8178339e-06
-2.2873292e-06
2.742016e-06
-2.3637884e-06
2.6654046e-06
-2.4384542e-06
2.5880356e-06
-2.5113514e-06
2.5099431e-06
-2.5825021e-06
2.4311581e-06
-2.6519306e-06
2.3517085e-06
-2.7196594e-06
2.2716196e-06
-2.7857097e-06
2.1909141e-06
-2.8501032e-06
2.1096127e-06
-2.9128594e-06
2.0277335e-06
-2.9739987e-06
1.9452921e-06
-3.0335386e-06
1.8623025e-06
-3.0914972e-06
1.7787763e-06
-3.147891e-06
1.6947234e-06
-3.2027342e-06
1.6101515e-06
-3.2560414e-06
1.5250673e-06
-3.3078252e-06
1.4394758e-06
-3.358098e-06
1.3533794e-06
-3.4068684e-06
1.2667812e-06
-3.4541454e-06
1.1796803e-06
-3.4999373e-06
1.092077e-06
-3.5442483e-06
1.003969e-06
-3.5870837e-06
9.1535281e-07
-3.6284452e-06
8.2622561e-07
-3.6683345e-06
7.3658084e-07
-3.70675e-06
6.4641417e-07
-3.7436903e-06
5.557177e-07
-3.7791506e-06
4.6448624e-07
-3.8131264e-06
3.7270999e-07
-3.845613e-06
2.8038177e-07
-3.8766112e-06
1.8749307e-07
-3.9061382e-06
9.4034721e-08
-3.9342465e-06
-3.9609945e-06
3.6507755e-06
3.0956719e-06
3.7363792e-06
2.9660469e-06
3.8142782e-06
2.8342286e-06
3.8846946e-06
2.7006006e-06
3.9478574e-06
2.5655215e-06
4.0039999e-06
2.429325e-06
4.0533583e-06
2.2923212e-06
4.0961709e-06
2.154797e-06
4.1326764e-06
2.0170184e-06
4.1631119e-06
1.8792298e-06
4.187714e-06
1.7416569e-06
4.2067157e-06
1.604506e-06
4.2203473e-06
1.4679662e-06
4.2288336e-06
1.3322096e-06
4.2323968e-06
1.1973933e-06
4.231253e-06
1.0636586e-06
4.2256129e-06
9.3113411e-07
4.2156816e-06
7.9993432e-07
4.2016577e-06
6.7016254e-07
4.1837343e-06
5.419101e-07
4.162098e-06
4.152575e-07
4.1369246e-06
2.902764e-07
4.1083956e-06
1.6702123e-07
4.0766818e-06
4.554876e-08
4.0419337e-06
-7.4043264e-08
4.0043081e-06
-1.9179174e-07
3.9639541e-06
-3.0763706e-07
3.921013e-06
-4.2155198e-07
3.8756197e-06
-5.3351627e-07
3.8279032e-06
-6.4351404e-07
3.7779869e-06
-7.5153506e-07
3.7259877e-06
-8.5757269e-07
3.6720176e-06
-9.6162414e-07
3.6161824e-06
-1.0636906e-06
3.5585826e-06
-1.1637762e-06
3.4993134e-06
-1.2618865e-06
3.4384653e-06
-1.3580324e-06
3.3761228e-06
-1.4522232e-06
3.3123666e-06
-1.5444737e-06
3.2472724e-06
-1.6347979e-06
3.1809117e-06
-1.7232125e-06
3.1133514e-06
-1.8097352e-06
3.0446541e-06
-1.8943839e-06
2.9748788e-06
-1.9771781e-06
2.9040803e-06
-2.058138e-06
2.8323099e-06
-2.1372831e-06
2.7596152e-06
-2.2146347e-06
2.6860407e-06
-2.2902136e-06
2.6116273e-06
-2.3640412e-06
2.5364129e-06
-2.436137e-06
2.4604328e-06
-2.5065222e-06
2.3837187e-06
-2.5752166e-06
2.3062995e-06
-2.6422403e-06
2.2282027e-06
-2.7076126e-06
2.1494519e-06
-2.7713522e-06
2.070069e-06
-2.8334768e-06
1.9900735e-06
-2.8940031e-06
1.9094829e-06
-2.9529475e-06
1.8283122e-06
-3.0103269e-06
1.7465749e-06
-3.0661536e-06
1.6642832e-06
-3.1204422e-06
1.5814452e-06
-3.1732041e-06
1.4980707e-06
-3.2244506e-06
1.4141649e-06
-3.2741922e-06
1.3297333e-06
-3.3224366e-06
1.2447794e-06
-3.3691917e-06
1.1593049e-06
-3.4144629e-06
1.0733122e-06
-3.4582554e-06
9.8680008e-07
-3.5005718e-06
8.9976829e-07
-3.5414135e-06
8.1221387e-07
-3.58078e-06
7.2413438e-07
-3.6186704e-06
6.3552549e-07
-3.6550813e-06
5.4638353e-07
-3.6900082e-06
4.5670211e-07
-3.7234449e-06
3.6647609e-07
-3.7553872e-06
2.7569925e-07
-3.7858342e-06
1.8436546e-07
-3.8148039e-06
9.2467409e-08
-3.8423487e-06
-3.8685271e-06
3.4835943e-06
3.0026902e-06
3.5690481e-06
2.8805932e-06
3.6471567e-06
2.7561199e-06
3.7181132e-06
2.6296442e-06
3.7821187e-06
2.501516e-06
3.8393803e-06
2.3720637e-06
3.8901093e-06
2.2415923e-06
3.9345197e-06
2.1103865e-06
3.9728282e-06
1.9787098e-06
4.0052516e-06
1.8468067e-06
4.032006e-06
1.7149025e-06
4.0533061e-06
1.5832057e-06
4.0693649e-06
1.4519075e-06
4.0803919e-06
1.321183e-06
4.0865935e-06
1.1911918e-06
4.0881721e-06
1.0620803e-06
4.0853254e-06
9.339808e-07
4.0782466e-06
8.0701313e-07
4.0671241e-06
6.8128504e-07
4.0521398e-06
5.5689414e-07
4.0334717e-06
4.3392586e-07
4.0112909e-06
3.1245756e-07
3.9857614e-06
1.9255083e-07
3.9570464e-06
7.4264107e-08
3.9253053e-06
-4.2302426e-08
3.8906788e-06
-1.5716514e-07
3.8533102e-06
-2.7026852e-07
3.8133378e-06
-3.8157957e-07
3.7708916e-06
-4.9107019e-07
3.7260974e-06
-5.9871955e-07
3.6790753e-06
-7.0451305e-07
3.6299392e-06
-8.0843629e-07
3.5787979e-06
-9.1048302e-07
3.5257558e-06
-1.0106481e-06
3.4709106e-06
-1.1089312e-06
3.4143569e-06
-1.205333e-06
3.3561826e-06
-1.2998583e-06
3.2964725e-06
-1.3925131e-06
3.2353059e-06
-1.4833071e-06
3.1727584e-06
-1.5722501e-06
3.1089005e-06
-1.6593549e-06
3.0437988e-06
-1.7446337e-06
2.9775164e-06
-1.8281015e-06
2.9101119e-06
-1.9097738e-06
2.8416406e-06
-1.9896665e-06
2.7721545e-06
-2.0677969e-06
2.7017017e-06
-2.1441818e-06
2.630327e-06
-2.2188392e-06
2.5580722e-06
-2.2917863e-06
2.4849765e-06
-2.3630409e-06
2.4110747e-06
-2.4326207e-06
2.3364016e-06
-2.5005429e-06
2.2609858e-06
-2.5668245e-06
2.1848558e-06
-2.6314827e-06
2.1080373e-06
-2.6945336e-06
2.0305531e-06
-2.7559924e-06
1.9524238e-06
-2.8158737e-06
1.8736684e-06
-2.8741925e-06
1.7943037e-06
-2.930962e-06
1.7143442e-06
-2.9861947e-06
1.6338036e-06
-3.0399012e-06
1.5526925e-06
-3.0920927e-06
1.4710205e-06
-3.1427788e-06
1.3887961e-06
-3.1919677e-06
1.3060256e-06
-3.239666e-06
1.222714e-06
-3.2858804e-06
1.1388657e-06
-3.3306147e-06
1.0544838e-06
-3.3738736e-06
9.6957014e-07
-3.4156575e-06
8.841245e-07
-3.4559679e-06
7.9814653e-07
-3.4948026e-06
7.1163615e-07
-3.5321601e-06
6.2459028e-07
-3.5680356e-06
5.3700699e-07
-3.6024247e-06
4.4888234e-07
-3.6353205e-06
3.602135e-07
-3.6667175e-06
2.7099458e-07
-3.6966158e-06
1.8122263e-07
-3.7250319e-06
9.0892254e-08
-3.7520187e-06
-3.7776349e-06
3.3250547e-06
2.910528e-06
3.4100716e-06
2.7955764e-06
3.4880976e-06
2.6780939e-06
3.559299e-06
2.5584427e-06
3.6238501e-06
2.4369648e-06
3.6819336e-06
2.3139801e-06
3.7337369e-06
2.189789e-06
3.779452e-06
2.0646711e-06
3.8192745e-06
1.9388874e-06
3.8534004e-06
1.8126808e-06
3.882027e-06
1.6862758e-06
3.905352e-06
1.5598811e-06
3.9235705e-06
1.4336888e-06
3.9368774e-06
1.3078761e-06
3.9454641e-06
1.1826049e-06
3.9495192e-06
1.0580252e-06
3.9492282e-06
9.3427189e-07
3.9447723e-06
8.114689e-07
3.9363283e-06
6.8972904e-07
3.9240697e-06
5.6915305e-07
3.9081635e-06
4.4983168e-07
3.8887732e-06
3.3184744e-07
3.8660561e-06
2.1526823e-07
3.8401615e-06
1.0015828e-07
3.8112526e-06
-1.3393463e-08
3.7794575e-06
-1.2537005e-07
3.7449161e-06
-2.3572722e-07
3.7077602e-06
-3.4442386e-07
3.668117e-06
-4.5142699e-07
3.626108e-06
-5.5671097e-07
3.5818491e-06
-6.6025408e-07
3.535452e-06
-7.6203926e-07
3.4870224e-06
-8.620533e-07
3.4366618e-06
-9.6028778e-07
3.3844666e-06
-1.0567358e-06
3.3305285e-06
-1.1513951e-06
3.2749352e-06
-1.2442648e-06
3.2177696e-06
-1.3353475e-06
3.15911e-06
-1.4246474e-06
3.0990308e-06
-1.512171e-06
3.0376023e-06
-1.5979262e-06
2.9748909e-06
-1.6819222e-06
2.9109593e-06
-1.76417e-06
2.845866e-06
-1.8446806e-06
2.7796664e-06
-1.9234673e-06
2.7124129e-06
-2.0005435e-06
2.6441536e-06
-2.0759227e-06
2.5749343e-06
-2.1496194e-06
2.504797e-06
-2.2216492e-06
2.4337815e-06
-2.2920256e-06
2.3619241e-06
-2.360763e-06
2.289259e-06
-2.4278781e-06
2.2158174e-06
-2.4933829e-06
2.1416284e-06
-2.5572935e-06
2.0667179e-06
-2.6196232e-06
1.9911105e-06
-2.680385e-06
1.9148281e-06
-2.7395917e-06
1.837891e-06
-2.7972556e-06
1.7603173e-06
-2.8533882e-06
1.6821224e-06
-2.9079998e-06
1.6033216e-06
-2.9611005e-06
1.5239272e-06
-3.0126982e-06
1.4439503e-06
-3.0628017e-06
1.3634004e-06
-3.1114175e-06
1.2822859e-06
-3.1585514e-06
1.2006137e-06
-3.204208e-06
1.1183895e-06
-3.2483906e-06
1.0356173e-06
-3.2911016e-06
9.5230005e-07
-3.332341e-06
8.6844151e-07
-3.372109e-06
7.8404141e-07
-3.4104029e-06
6.9910219e-07
-3.4472201e-06
6.1362249e-07
-3.4825556e-06
5.2760127e-07
-3.5164039e-06
4.4103785e-07
-3.548757e-06
3.5392901e-07
-3.5796094e-06
2.6627428e-07
-3.6089606e-06
1.7806878e-07
-3.636827e-06
8.9312075e-08
-3.6632617e-06
-3.6883223e-06
3.1747654e-06
2.8194309e-06
3.2590909e-06
2.7112508e-06
3.3367739e-06
2.6004113e-06
3.4079539e-06
2.4872626e-06
3.4727819e-06
2.3721367e-06
3.5314169e-06
2.2553455e-06
3.5840242e-06
2.1371818e-06
3.6307748e-06
2.0179204e-06
3.6718434e-06
1.8978189e-06
3.7074074e-06
1.7771167e-06
3.7376461e-06
1.656037e-06
3.7627397e-06
1.5347877e-06
3.7828675e-06
1.4135607e-06
3.7982091e-06
1.2925343e-06
3.8089418e-06
1.1718725e-06
3.815241e-06
1.0517257e-06
3.8172794e-06
9.32233e-07
3.8152274e-06
8.1352109e-07
3.8092509e-06
6.9570561e-07
3.7995126e-06
5.7889089e-07
3.7861716e-06
4.6317287e-07
3.7693823e-06
3.4863668e-07
3.7492915e-06
2.3535897e-07
3.7260444e-06
1.2340577e-07
3.6998025e-06
1.2848415e-08
3.6706749e-06
-9.624226e-08
3.6388055e-06
-2.0385777e-07
3.6043196e-06
-3.0993779e-07
3.5673388e-06
-4.144465e-07
3.5279808e-06
-5.1735293e-07
3.4863583e-06
-6.1863125e-07
3.4425786e-06
-7.1825985e-07
3.3967451e-06
-8.1621964e-07
3.3489568e-06
-9.1249942e-07
3.2993078e-06
-1.0070868e-06
3.2478873e-06
-1.0999747e-06
3.1947823e-06
-1.1911598e-06
3.1400731e-06
-1.2806385e-06
3.0838378e-06
-1.3684119e-06
3.026149e-06
-1.4544826e-06
2.967077e-06
-1.5388541e-06
2.9066874e-06
-1.6215327e-06
2.8450417e-06
-1.7025243e-06
2.7821992e-06
-1.7818379e-06
2.718215e-06
-1.8594831e-06
2.6531414e-06
-1.9354696e-06
2.5870267e-06
-2.0098081e-06
2.5199168e-06
-2.0825097e-06
2.4518548e-06
-2.1535871e-06
2.3828803e-06
-2.2230506e-06
2.3130311e-06
-2.290914e-06
2.2423411e-06
-2.3571877e-06
2.1708431e-06
-2.421885e-06
2.0985666e-06
-2.4850171e-06
2.0255389e-06
-2.5465956e-06
1.9517856e-06
-2.6066315e-06
1.8773295e-06
-2.6651357e-06
1.802192e-06
-2.7221181e-06
1.7263922e-06
-2.7775884e-06
1.6499474e-06
-2.8315547e-06
1.5728735e-06
-2.8840264e-06
1.4951843e-06
-2.9350092e-06
1.4168923e-06
-2.9845099e-06
1.3380092e-06
-3.0325343e-06
1.2585436e-06
-3.079086e-06
1.1785047e-06
-3.124169e-06
1.0978992e-06
-3.1677852e-06
1.0167333e-06
-3.2099355e-06
9.3501145e-07
-3.2506191e-06
8.5273817e-07
-3.2898353e-06
7.6991636e-07
-3.3275813e-06
6.8654807e-07
-3.3638521e-06
6.0263502e-07
-3.3986427e-06
5.1817797e-07
-3.4319466e-06
4.331773e-07
-3.4637562e-06
3.4763272e-07
-3.4940646e-06
2.6154339e-07
-3.5228714e-06
1.7490881e-07
-3.5501921e-06
8.7728212e-08
-3.5760809e-06
-3.6005943e-06
3.0323403e-06
2.7296113e-06
3.1157515e-06
2.6278394e-06
3.1928595e-06
2.5233033e-06
3.2637807e-06
2.4163413e-06
3.3286436e-06
2.3072738e-06
3.387585e-06
2.1964038e-06
3.4407498e-06
2.0840169e-06
3.4882887e-06
1.9703816e-06
3.5303574e-06
1.8557501e-06
3.5671152e-06
1.7403587e-06
3.5987242e-06
1.6244281e-06
3.625348e-06
1.5081639e-06
3.6471509e-06
1.3917578e-06
3.6642974e-06
1.2753879e-06
3.6769513e-06
1.1592186e-06
3.6852753e-06
1.0434019e-06
3.6894299e-06
9.2807836e-07
3.689574e-06
8.13377e-07
3.6858631e-06
6.994165e-07
3.6784506e-06
5.8630367e-07
3.6674857e-06
4.7413768e-07
3.6531141e-06
3.6300822e-07
3.6354775e-06
2.5299563e-07
3.6147164e-06
1.4416682e-07
3.5909627e-06
3.6602378e-08
3.5643531e-06
-6.9632913e-08
3.5350075e-06
-1.7451215e-07
3.5030483e-06
-2.7797877e-07
3.4685932e-06
-3.7999139e-07
3.4317554e-06
-4.8051526e-07
3.3926441e-06
-5.7951998e-07
3.351363e-06
-6.7697848e-07
3.3080129e-06
-7.7286949e-07
3.2626891e-06
-8.6717586e-07
3.2154837e-06
-9.5988116e-07
3.1664846e-06
-1.0509758e-06
3.1157757e-06
-1.1404505e-06
3.0634364e-06
-1.2282993e-06
3.0095429e-06
-1.3145184e-06
2.9541674e-06
-1.3991071e-06
2.8973784e-06
-1.4820655e-06
2.8392412e-06
-1.5633953e-06
2.7798172e-06
-1.6430999e-06
2.7191648e-06
-1.7211855e-06
2.6573392e-06
-1.7976575e-06
2.5943919e-06
-1.8725226e-06
2.530372e-06
-1.9457883e-06
2.4653252e-06
-2.0174635e-06
2.3992953e-06
-2.0875568e-06
2.3323219e-06
-2.1560775e-06
2.2644432e-06
-2.2230353e-06
2.1956942e-06
-2.288439e-06
2.1261077e-06
-2.3522989e-06
2.0557154e-06
-2.4146243e-06
1.9845438e-06
-2.4754239e-06
1.9126196e-06
-2.5347076e-06
1.8399678e-06
-2.5924837e-06
1.7666096e-06
-2.6487598e-06
1.6925654e-06
-2.7035443e-06
1.6178541e-06
-2.756844e-06
1.5424919e-06
-2.8086644e-06
1.4664953e-06
-2.8590126e-06
1.3898777e-06
-2.9078921e-06
1.3126504e-06
-2.9553074e-06
1.2348262e-06
-3.0012612e-06
1.1564129e-06
-3.0457558e-06
1.07742e-06
-3.0887924e-06
9.9785489e-07
-3.1303701e-06
9.1772454e-07
-3.1704884e-06
8.3703357e-07
-3.2091444e-06
7.5578682e-07
-3.2463346e-06
6.7398835e-07
-3.2820538e-06
5.9164162e-07
-3.3162957e-06
5.087483e-07
-3.3490536e-06
4.2531092e-07
-3.3803187e-06
3.413305e-07
-3.4100845e-06
2.5680863e-07
-3.4383494e-06
1.71746e-07
-3.4651293e-06
8.6142781e-08
-3.4904779e-06
-3.5144514e-06
2.8974013e-06
2.6412531e-06
2.9797037e-06
2.5455371e-06
3.0560325e-06
2.4469744e-06
3.1264837e-06
2.3458901e-06
3.1911643e-06
2.2425934e-06
3.250191e-06
2.1373769e-06
3.3036894e-06
2.0305186e-06
3.3517911e-06
1.9222795e-06
3.3946343e-06
1.812907e-06
3.4323611e-06
1.702632e-06
3.4651167e-06
1.5916725e-06
3.4930493e-06
1.4802314e-06
3.5163085e-06
1.3684986e-06
3.5350451e-06
1.2566512e-06
3.5494096e-06
1.1448541e-06
3.5595516e-06
1.0332598e-06
3.5656206e-06
9.2200947e-07
3.5677643e-06
8.1123368e-07
3.5661285e-06
7.0105213e-07
3.5608555e-06
5.9157671e-07
3.5520865e-06
4.8290673e-07
3.5399595e-06
3.7513527e-07
3.5246085e-06
2.6834671e-07
3.506164e-06
1.6261106e-07
3.4847546e-06
5.8012004e-08
3.4605082e-06
-4.5386584e-08
3.433541e-06
-1.4754501e-07
3.4039703e-06
-2.4840794e-07
3.371908e-06
-3.479292e-07
3.3374637e-06
-4.4607096e-07
3.3007418e-06
-5.4279789e-07
3.2618432e-06
-6.380801e-07
3.2208655e-06
-7.3189173e-07
3.1779006e-06
-8.242113e-07
3.133039e-06
-9.1501981e-07
3.0863659e-06
-1.0043025e-06
3.0379621e-06
-1.0920468e-06
2.9879067e-06
-1.1782435e-06
2.9362738e-06
-1.2628854e-06
2.8831343e-06
-1.3459676e-06
2.8285559e-06
-1.4274866e-06
2.7726026e-06
-1.5074422e-06
2.7153356e-06
-1.5858328e-06
2.6568124e-06
-1.6626624e-06
2.5970875e-06
-1.7379327e-06
2.5362133e-06
-1.8116481e-06
2.4742379e-06
-1.8838128e-06
2.4112075e-06
-1.9544329e-06
2.3471655e-06
-2.0235146e-06
2.2821521e-06
-2.0910643e-06
2.216206e-06
-2.157089e-06
2.1493625e-06
-2.2215956e-06
2.0816553e-06
-2.2845915e-06
2.0131153e-06
-2.3460843e-06
1.9437719e-06
-2.4060807e-06
1.8736516e-06
-2.4645876e-06
1.8027795e-06
-2.5216115e-06
1.7311788e-06
-2.5771595e-06
1.6588712e-06
-2.6312364e-06
1.5858756e-06
-2.6838483e-06
1.5122105e-06
-2.7349991e-06
1.437891e-06
-2.7846936e-06
1.3629341e-06
-2.832935e-06
1.2873522e-06
-2.8797254e-06
1.2111578e-06
-2.925067e-06
1.1343616e-06
-2.9689598e-06
1.0569743e-06
-3.0114048e-06
9.7900401e-07
-3.0524e-06
9.0045846e-07
-3.0919433e-06
8.2134539e-07
-3.1300313e-06
7.4167013e-07
-3.1666594e-06
6.6143842e-07
-3.201822e-06
5.8065468e-07
-3.2355121e-06
4.9932346e-07
-3.2677222e-06
4.1744767e-07
-3.2984427e-06
3.3503043e-07
-3.3276673e-06
2.5207477e-07
-3.3553938e-06
1.6858307e-07
-3.3816376e-06
8.4557342e-08
-3.4064521e-06
-3.4298939e-06
2.7695796e-06
2.5545125e-06
2.8506046e-06
2.4645124e-06
2.9259758e-06
2.3716031e-06
2.99577e-06
2.2760961e-06
3.0600747e-06
2.1782885e-06
3.1189884e-06
2.0784635e-06
3.1726178e-06
1.9768891e-06
3.221078e-06
1.8738196e-06
3.2644893e-06
1.7694956e-06
3.3029777e-06
1.6641435e-06
3.3366737e-06
1.5579765e-06
3.3657104e-06
1.4511947e-06
3.3902232e-06
1.3439856e-06
3.4103491e-06
1.2365254e-06
3.4262264e-06
1.1289769e-06
3.437993e-06
1.0214932e-06
3.4457865e-06
9.1421556e-07
3.4497444e-06
8.0727565e-07
3.4500018e-06
7.00795e-07
3.4466928e-06
5.9488539e-07
3.439949e-06
4.8965042e-07
3.4299002e-06
3.8518412e-07
3.4166732e-06
2.8157402e-07
3.4003896e-06
1.788946e-07
3.3811747e-06
7.7226719e-08
3.3591476e-06
-2.3359366e-08
3.3344196e-06
-1.2281707e-07
3.3071025e-06
-2.2109104e-07
3.2773047e-06
-3.1813153e-07
3.2451301e-06
-4.138964e-07
3.21068e-06
-5.0834789e-07
3.1740511e-06
-6.0145098e-07
3.1353373e-06
-6.9317811e-07
3.0946285e-06
-7.8350248e-07
3.0520119e-06
-8.7240306e-07
3.0075703e-06
-9.5986073e-07
2.961383e-06
-1.0458596e-06
2.9135268e-06
-1.1303875e-06
2.8640741e-06
-1.2134326e-06
2.8130944e-06
-1.2949881e-06
2.760654e-06
-1.3750465e-06
2.7068163e-06
-1.4536043e-06
2.651642e-06
-1.5306582e-06
2.5951868e-06
-1.6062076e-06
2.537506e-06
-1.6802515e-06
2.4786499e-06
-1.752792e-06
2.4186681e-06
-1.8238312e-06
2.3576066e-06
-1.8933712e-06
2.2955073e-06
-1.9614158e-06
2.2324126e-06
-2.0279693e-06
2.16836e-06
-2.0930361e-06
2.1033857e-06
-2.1566214e-06
2.0375237e-06
-2.2187296e-06
1.9708057e-06
-2.2793662e-06
1.9032609e-06
-2.3385358e-06
1.8349177e-06
-2.3962441e-06
1.7658011e-06
-2.452495e-06
1.6959354e-06
-2.5072939e-06
1.625343e-06
-2.5606441e-06
1.5540437e-06
-2.6125487e-06
1.4820571e-06
-2.6630125e-06
1.4094006e-06
-2.7120371e-06
1.3360898e-06
-2.7596243e-06
1.26214e-06
-2.8057755e-06
1.1875642e-06
-2.8504914e-06
1.112375e-06
-2.8937707e-06
1.0365836e-06
-2.9356132e-06
9.6019944e-07
-2.9760159e-06
8.832322e-07
-3.0149761e-06
8.0569029e-07
-3.052489e-06
7.275812e-07
-3.0885502e-06
6.4891102e-07
-3.123152e-06
5.6968652e-07
-3.1562876e-06
4.8991288e-07
-3.1879483e-06
4.0959553e-07
-3.2181254e-06
3.287393e-07
-3.2468109e-06
2.473478e-07
-3.2740023e-06
1.6542457e-07
-3.2997147e-06
8.2974377e-08
-3.3240018e-06
-3.3469196e-06
2.6485163e-06
2.4695212e-06
2.7281194e-06
2.3849094e-06
2.8023784e-06
2.2973441e-06
2.8713517e-06
2.2071228e-06
2.9351093e-06
2.1145309e-06
2.9937322e-06
2.0198405e-06
3.0473108e-06
1.9233104e-06
3.0959434e-06
1.8251872e-06
3.1397349e-06
1.7257042e-06
3.178796e-06
1.6250823e-06
3.2132427e-06
1.5235298e-06
3.2431937e-06
1.4212435e-06
3.2687718e-06
1.3184079e-06
3.2901006e-06
1.2151964e-06
3.3073065e-06
1.1117711e-06
3.320516e-06
1.0082836e-06
3.3298559e-06
9.0487569e-07
3.3354531e-06
8.0167879e-07
3.3374329e-06
6.9881488e-07
3.3359208e-06
5.9639779e-07
3.3310396e-06
4.9453149e-07
3.3229102e-06
3.9331312e-07
3.3116535e-06
2.9283093e-07
3.2973829e-06
1.9316499e-07
3.2802182e-06
9.4391524e-08
3.260272e-06
-3.4131288e-09
3.2376486e-06
-1.0019383e-07
3.2124563e-06
-1.9589842e-07
3.1847983e-06
-2.9047327e-07
3.1547739e-06
-3.8387203e-07
3.1224802e-06
-4.7605389e-07
3.0880108e-06
-5.6698173e-07
3.0514558e-06
-6.5662306e-07
3.0129025e-06
-7.4494903e-07
2.9724347e-06
-8.3193529e-07
2.9301329e-06
-9.1755884e-07
2.8860747e-06
-1.0018013e-06
2.8403339e-06
-1.0846465e-06
2.7929818e-06
-1.1660804e-06
2.7440866e-06
-1.2460928e-06
2.6937131e-06
-1.324673e-06
2.6419229e-06
-1.4018144e-06
2.5887766e-06
-1.4775119e-06
2.5343294e-06
-1.5517603e-06
2.4786346e-06
-1.624557e-06
2.4217438e-06
-1.6959011e-06
2.3637044e-06
-1.7657921e-06
2.3045632e-06
-1.83423e-06
2.2443625e-06
-1.9012147e-06
2.1831432e-06
-1.9667502e-06
2.120945e-06
-2.0308377e-06
2.0578027e-06
-2.0934796e-06
1.9937516e-06
-2.1546783e-06
1.928823e-06
-2.2144375e-06
1.8630473e-06
-2.2727603e-06
1.7964531e-06
-2.3296495e-06
1.729066e-06
-2.3851081e-06
1.6609112e-06
-2.4391393e-06
1.5920117e-06
-2.4917444e-06
1.5223889e-06
-2.5429262e-06
1.4520625e-06
-2.5926863e-06
1.3810506e-06
-2.6410253e-06
1.3093708e-06
-2.6879444e-06
1.2370384e-06
-2.7334433e-06
1.1640686e-06
-2.7775212e-06
1.090474e-06
-2.8201765e-06
1.0162674e-06
-2.8614065e-06
9.4146011e-07
-2.9012082e-06
8.6606232e-07
-2.9395782e-06
7.9008413e-07
-2.9765109e-06
7.1353314e-07
-3.0119991e-06
6.3641838e-07
-3.0460376e-06
5.5874766e-07
-3.0786163e-06
4.8052678e-07
-3.1097279e-06
4.0176371e-07
-3.1393622e-06
3.22463e-07
-3.1675104e-06
2.426313e-07
-3.1941704e-06
1.6227333e-07
-3.2193566e-06
8.139456e-08
-3.243123e-06
-3.2655255e-06
2.5338635e-06
2.386388e-06
2.6119229e-06
2.3068498e-06
2.6849365e-06
2.2243304e-06
2.7529459e-06
2.1391134e-06
2.8160051e-06
2.0514715e-06
2.8741798e-06
1.9616658e-06
2.9275443e-06
1.8699458e-06
2.976182e-06
1.7765497e-06
3.0201832e-06
1.681703e-06
3.0596447e-06
1.5856207e-06
3.0946679e-06
1.4885065e-06
3.1253593e-06
1.3905521e-06
3.1518283e-06
1.2919389e-06
3.174187e-06
1.1928375e-06
3.1925503e-06
1.093408e-06
3.2070326e-06
9.9380095e-07
3.2177518e-06
8.9415663e-07
3.2248237e-06
7.9460671e-07
3.2283646e-06
6.9527367e-07
3.2284913e-06
5.9627112e-07
3.2253182e-06
4.9770468e-07
3.2189595e-06
3.9967216e-07
3.209526e-06
3.0226434e-07
3.1971281e-06
2.0556311e-07
3.1818741e-06
1.0964556e-07
3.1638764e-06
1.4584455e-08
3.1432283e-06
-7.9545884e-08
3.1200362e-06
-1.727064e-07
3.0943976e-06
-2.6483466e-07
3.0664077e-06
-3.5588256e-07
3.0361593e-06
-4.4580538e-07
3.0037425e-06
-5.3456489e-07
2.9692441e-06
-6.2212451e-07
2.932748e-06
-7.08453e-07
2.894335e-06
-7.935224e-07
2.854083e-06
-8.7730726e-07
2.8120678e-06
-9.5978595e-07
2.7683606e-06
-1.0409394e-06
2.7230311e-06
-1.1207512e-06
2.6761457e-06
-1.1992073e-06
2.6277683e-06
-1.2762954e-06
2.5779595e-06
-1.3520058e-06
2.5267765e-06
-1.4263292e-06
2.4742765e-06
-1.49926e-06
2.4205111e-06
-1.5707918e-06
2.3655307e-06
-1.6409209e-06
2.3093834e-06
-1.7096448e-06
2.2521142e-06
-1.7769604e-06
2.1937671e-06
-1.8428676e-06
2.1343813e-06
-1.9073648e-06
2.0739964e-06
-1.9704529e-06
2.0126486e-06
-2.0321316e-06
1.9503728e-06
-2.0924024e-06
1.8872008e-06
-2.1512658e-06
1.8231631e-06
-2.2087227e-06
1.7582888e-06
-2.2647753e-06
1.6926048e-06
-2.3194244e-06
1.6261362e-06
-2.3726707e-06
1.5589067e-06
-2.4245149e-06
1.4909385e-06
-2.4749577e-06
1.4222523e-06
-2.5239997e-06
1.3528673e-06
-2.5716403e-06
1.2828013e-06
-2.6178784e-06
1.212071e-06
-2.6627131e-06
1.1406926e-06
-2.7061425e-06
1.0686794e-06
-2.7481635e-06
9.9604627e-07
-2.7887728e-06
9.2280433e-07
-2.8279666e-06
8.4896562e-07
-2.8657395e-06
7.7454125e-07
-2.9020863e-06
6.9954053e-07
-2.9369989e-06
6.2397358e-07
-2.9704703e-06
5.4784867e-07
-3.002492e-06
4.7117468e-07
-3.0330538e-06
3.9395877e-07
-3.0621461e-06
3.1620858e-07
-3.08976e-06
2.3793033e-07
-3.1158927e-06
1.5913268e-07
-3.1405584e-06
7.9820005e-08
-3.1638108e-06
-3.1857049e-06
2.4252853e-06
2.3052005e-06
2.5016996e-06
2.2304356e-06
2.5733543e-06
2.1526759e-06
2.6402763e-06
2.0721912e-06
2.7025056e-06
1.9892423e-06
2.7600925e-06
1.904079e-06
2.8130976e-06
1.8169406e-06
2.8615904e-06
1.7280567e-06
2.9056472e-06
1.6376461e-06
2.945352e-06
1.5459161e-06
2.9807932e-06
1.4530652e-06
3.0120649e-06
1.3592804e-06
3.0392643e-06
1.2647392e-06
3.0624927e-06
1.1696091e-06
3.0818533e-06
1.0740476e-06
3.097451e-06
9.7820316e-07
3.1093926e-06
8.822154e-07
3.1177851e-06
7.8621431e-07
3.1227358e-06
6.9032289e-07
3.1243525e-06
5.9465461e-07
3.1227421e-06
4.9931494e-07
3.1180104e-06
4.0440407e-07
3.1102623e-06
3.1001221e-07
3.0996011e-06
2.1622431e-07
3.0861294e-06
1.2311711e-07
3.0699459e-06
3.0767689e-08
3.0511521e-06
-6.0751764e-08
3.0298407e-06
-1.5139524e-07
3.0061061e-06
-2.4110048e-07
2.9800394e-06
-3.2981566e-07
2.9517294e-06
-4.1749541e-07
2.9212618e-06
-5.0409738e-07
2.8887198e-06
-5.8958295e-07
2.8541851e-06
-6.7391785e-07
2.817735e-06
-7.5707224e-07
2.7794454e-06
-8.3901725e-07
2.7393885e-06
-9.1972894e-07
2.6976346e-06
-9.9918548e-07
2.6542518e-06
-1.0773679e-06
2.6093034e-06
-1.1542592e-06
2.5628519e-06
-1.229844e-06
2.5149572e-06
-1.3041109e-06
2.4656761e-06
-1.3770482e-06
2.4150625e-06
-1.4486467e-06
2.3631696e-06
-1.5188985e-06
2.3100462e-06
-1.5877976e-06
2.2557394e-06
-1.6553378e-06
2.2002944e-06
-1.7215158e-06
2.1437538e-06
-1.7863269e-06
2.0861587e-06
-1.8497695e-06
2.0275471e-06
-1.9118413e-06
1.9679557e-06
-1.9725402e-06
1.9074193e-06
-2.0318655e-06
1.8459698e-06
-2.0898164e-06
1.7836389e-06
-2.146392e-06
1.7204556e-06
-2.2015917e-06
1.656447e-06
-2.2554153e-06
1.5916386e-06
-2.307862e-06
1.5260548e-06
-2.3589314e-06
1.4597191e-06
-2.4086221e-06
1.392652e-06
-2.4569329e-06
1.3248741e-06
-2.5038621e-06
1.2564043e-06
-2.5494086e-06
1.1872596e-06
-2.5935688e-06
1.117457e-06
-2.6363397e-06
1.0470112e-06
-2.6777181e-06
9.7593755e-07
-2.7176992e-06
9.0424869e-07
-2.756278e-06
8.3195771e-07
-2.7934484e-06
7.5907647e-07
-2.8292049e-06
6.8561685e-07
-2.8635389e-06
6.1158812e-07
-2.8964418e-06
5.3700084e-07
-2.9279046e-06
4.6186472e-07
-2.9579176e-06
3.8618863e-07
-2.98647e-06
3.0998091e-07
-3.0135524e-06
2.3325065e-07
-3.0391622e-06
1.5600483e-07
-3.0633135e-06
7.8252438e-08
-3.0860582e-06
-3.1074529e-06
2.3224578e-06
2.2260289e-06
2.397144e-06
2.1557493e-06
2.4673449e-06
2.0824749e-06
2.5330743e-06
2.0064617e-06
2.5943589e-06
1.9279579e-06
2.6512361e-06
1.847202e-06
2.703753e-06
1.7644236e-06
2.7519664e-06
1.6798435e-06
2.7959405e-06
1.5936719e-06
2.8357464e-06
1.5061105e-06
2.8714608e-06
1.4173507e-06
2.9031661e-06
1.3275751e-06
2.9309488e-06
1.2369567e-06
2.9548988e-06
1.1456592e-06
2.975109e-06
1.0538372e-06
2.9916746e-06
9.6163753e-07
3.0046927e-06
8.691972e-07
3.0142613e-06
7.7664596e-07
3.0204792e-06
6.8410483e-07
3.0234463e-06
5.9168782e-07
3.0232603e-06
4.9950105e-07
3.0200207e-06
4.076433e-07
3.0138258e-06
3.1620706e-07
3.0047722e-06
2.2527824e-07
2.9929558e-06
1.3493363e-07
2.9784692e-06
4.5254107e-08
2.9614097e-06
-4.3692104e-08
2.9418639e-06
-1.3185003e-07
2.9199224e-06
-2.1915849e-07
2.8956714e-06
-3.0556463e-07
2.8691955e-06
-3.9101951e-07
2.8405769e-06
-4.7547878e-07
2.8098956e-06
-5.5890166e-07
2.7772295e-06
-6.4125184e-07
2.742653e-06
-7.2249603e-07
2.70624e-06
-8.0260396e-07
2.6680599e-06
-8.8154913e-07
2.6281811e-06
-9.5930662e-07
2.5866685e-06
-1.0358553e-06
2.5435851e-06
-1.1111759e-06
2.4989916e-06
-1.1852505e-06
2.4529455e-06
-1.2580647e-06
2.4055033e-06
-1.3296061e-06
2.3567177e-06
-1.399861e-06
2.3066407e-06
-1.4688211e-06
2.25532e-06
-1.5364768e-06
2.202803e-06
-1.602821e-06
2.1491339e-06
-1.6678467e-06
2.0943551e-06
-1.7315484e-06
2.0385071e-06
-1.7939217e-06
1.9816284e-06
-1.8549625e-06
1.9237547e-06
-1.9146666e-06
1.8649212e-06
-1.9730323e-06
1.8051606e-06
-2.0300558e-06
1.7445041e-06
-2.0857356e-06
1.6829813e-06
-2.1400685e-06
1.6206191e-06
-2.1930532e-06
1.5574446e-06
-2.2446875e-06
1.493482e-06
-2.2949691e-06
1.4287548e-06
-2.3438952e-06
1.3632854e-06
-2.3914633e-06
1.2970944e-06
-2.4376715e-06
1.2302011e-06
-2.4825152e-06
1.1626244e-06
-2.5259915e-06
1.0943804e-06
-2.5680961e-06
1.0254866e-06
-2.6088239e-06
9.5595806e-07
-2.6481704e-06