/*--------------------------------*- C++ -*----------------------------------*\
| =========                 |                                                 |
| \\      /  F ield         | OpenFOAM: The Open Source CFD Toolbox           |
|  \\    /   O peration     | Version:  2306                                  |
|   \\  /    A nd           | Website:  www.openfoam.com                      |
|    \\/     M anipulation  |                                                 |
\*---------------------------------------------------------------------------*/
FoamFile
{
    version     2.0;
    format      ascii;
    arch        "LSB;label=32;scalar=64";
    class       surfaceScalarField;
    location    "0.33";
    object      phi;
}
// * * * * * * * * * * * * * * * * * * * * * * * * * * * * * * * * * * * * * //

dimensions      [0 3 -1 0 0 0 0];

oriented        oriented;

internalField   nonuniform List<scalar> 
12640
(
3.2945735e-06
5.2579211e-06
3.4567271e-06
5.0851922e-06
3.6064423e-06
4.9093338e-06
3.7441604e-06
4.7309231e-06
3.8703212e-06
4.5504932e-06
3.985362e-06
4.3685341e-06
4.089715e-06
4.1854972e-06
4.1838056e-06
4.0017959e-06
4.2680523e-06
3.8178098e-06
4.3428641e-06
3.6338855e-06
4.4086412e-06
3.4503392e-06
4.4657733e-06
3.2674591e-06
4.5146399e-06
3.0855077e-06
4.555609e-06
2.9047216e-06
4.5890378e-06
2.7253157e-06
4.615272e-06
2.5474833e-06
4.6346456e-06
2.3713982e-06
4.647481e-06
2.1972162e-06
4.6540897e-06
2.0250755e-06
4.6547708e-06
1.8550992e-06
4.6498124e-06
1.6873953e-06
4.6394921e-06
1.5220586e-06
4.6240746e-06
1.3591731e-06
4.6038157e-06
1.1988083e-06
4.5789573e-06
1.0410254e-06
4.5497354e-06
8.8587494e-07
4.5163749e-06
7.3340233e-07
4.4790876e-06
5.836395e-07
4.4380819e-06
4.3660648e-07
4.3935379e-06
2.9233107e-07
4.345658e-06
1.5083399e-07
4.2946307e-06
1.2112523e-08
4.2405916e-06
-1.2380718e-07
4.1837157e-06
-2.5696871e-07
4.1241531e-06
-3.8735744e-07
4.0620485e-06
-5.1498267e-07
3.9975368e-06
-6.3985642e-07
3.9307477e-06
-7.619941e-07
3.8618026e-06
-8.8141438e-07
3.7908175e-06
-9.9813756e-07
3.7179003e-06
-1.1121846e-06
3.6431532e-06
-1.2235801e-06
3.5666729e-06
-1.3323486e-06
3.4885501e-06
-1.4385164e-06
3.4088687e-06
-1.5421099e-06
3.3277098e-06
-1.6431571e-06
3.245147e-06
-1.741685e-06
3.16125e-06
-1.8377222e-06
3.0760841e-06
-1.9312968e-06
2.9897093e-06
-2.0224366e-06
2.9021822e-06
-2.1111684e-06
2.8135549e-06
-2.1975204e-06
2.7238752e-06
-2.2815192e-06
2.6331871e-06
-2.3631891e-06
2.5415325e-06
-2.4425566e-06
2.4489481e-06
-2.519645e-06
2.3554681e-06
-2.5944773e-06
2.2611236e-06
-2.6670753e-06
2.1659429e-06
-2.7374587e-06
2.0699513e-06
-2.8056481e-06
1.9731715e-06
-2.8716606e-06
1.8756241e-06
-2.9355123e-06
1.7773263e-06
-2.9972173e-06
1.6782946e-06
-3.0567893e-06
1.5785415e-06
-3.1142394e-06
1.4780793e-06
-3.1695764e-06
1.3769177e-06
-3.2228087e-06
1.2750645e-06
-3.2739409e-06
1.1725261e-06
-3.3229769e-06
1.069308e-06
-3.3699187e-06
9.6541295e-07
-3.4147637e-06
8.6084385e-07
-3.4575112e-06
7.556017e-07
-3.4981547e-06
6.4968684e-07
-3.5366885e-06
5.4309881e-07
-3.5731054e-06
4.3583617e-07
-3.6074003e-06
3.2789673e-07
-3.6395774e-06
2.1927866e-07
-3.6696659e-06
1.0998074e-07
-3.697739e-06
-3.7238608e-06
3.0577271e-06
5.0837266e-06
3.2196417e-06
4.9232778e-06
3.369662e-06
4.7593136e-06
3.5081786e-06
4.5924065e-06
3.6355851e-06
4.4230866e-06
3.7522748e-06
4.2518445e-06
3.858639e-06
4.0791328e-06
3.9550663e-06
3.9053687e-06
4.0419395e-06
3.7309366e-06
4.1196364e-06
3.5561887e-06
4.1885267e-06
3.3814489e-06
4.2489732e-06
3.2070128e-06
4.3013295e-06
3.0331514e-06
4.345941e-06
2.86011e-06
4.3831429e-06
2.6881136e-06
4.4132619e-06
2.5173646e-06
4.436613e-06
2.3480471e-06
4.4535028e-06
2.1803262e-06
4.464227e-06
2.0143511e-06
4.4690719e-06
1.8502544e-06
4.4683118e-06
1.6881554e-06
4.4622126e-06
1.5281576e-06
4.4510301e-06
1.3703558e-06
4.4350084e-06
1.2148296e-06
4.4143847e-06
1.0616495e-06
4.3893828e-06
9.1087672e-07
4.3602221e-06
7.6256303e-07
4.3271118e-06
6.1674991e-07
4.2902441e-06
4.7347427e-07
4.2498092e-06
3.3276637e-07
4.2059936e-06
1.9464951e-07
4.1589839e-06
5.9122223e-08
4.1089176e-06
-7.3740554e-08
4.0559625e-06
-2.0401407e-07
4.000268e-06
-3.316628e-07
3.9419752e-06
-4.5668992e-07
3.8812189e-06
-5.7910028e-07
3.8181267e-06
-6.9890179e-07
3.7528192e-06
-8.1610691e-07
3.6854107e-06
-9.3072913e-07
3.6160098e-06
-1.0427836e-06
3.5447186e-06
-1.1522886e-06
3.4716331e-06
-1.2592632e-06
3.3968442e-06
-1.3637277e-06
3.3204378e-06
-1.4657034e-06
3.2424932e-06
-1.5652124e-06
3.1630867e-06
-1.6622785e-06
3.0822878e-06
-1.7569234e-06
3.0001637e-06
-1.8491723e-06
2.9167747e-06
-1.9390476e-06
2.8321794e-06
-2.0265733e-06
2.7464306e-06
-2.1117721e-06
2.6595779e-06
-2.1946667e-06
2.5716683e-06
-2.2752792e-06
2.4827429e-06
-2.3536316e-06
2.392842e-06
-2.4297437e-06
2.3020005e-06
-2.5036362e-06
2.2102526e-06
-2.5753272e-06
2.1176282e-06
-2.6448344e-06
2.0241542e-06
-2.7121741e-06
1.9298555e-06
-2.777362e-06
1.8347548e-06
-2.8404112e-06
1.7388716e-06
-2.9013346e-06
1.6422242e-06
-2.9601419e-06
1.5448287e-06
-3.0168438e-06
1.4466983e-06
-3.0714466e-06
1.3478458e-06
-3.1239563e-06
1.2482809e-06
-3.1743762e-06
1.1480132e-06
-3.2227092e-06
1.0470498e-06
-3.2689547e-06
9.4539651e-07
-3.3131108e-06
8.4305834e-07
-3.3551732e-06
7.4003923e-07
-3.3951357e-06
6.3634254e-07
-3.4329919e-06
5.3196929e-07
-3.4687324e-06
4.2692205e-07
-3.5023526e-06
3.2120069e-07
-3.533856e-06
2.14806e-07
-3.5632713e-06
1.0773904e-07
-3.5906721e-06
-3.6161218e-06
2.8352651e-06
4.9109286e-06
2.9963817e-06
4.7621611e-06
3.1461519e-06
4.6095434e-06
3.2849181e-06
4.4536401e-06
3.4130291e-06
4.2949758e-06
3.5308361e-06
4.1340376e-06
3.6386915e-06
3.9712772e-06
3.736947e-06
3.807113e-06
3.825952e-06
3.6419313e-06
3.9060525e-06
3.4760884e-06
3.9775891e-06
3.3099123e-06
4.0408973e-06
3.1437046e-06
4.096306e-06
2.9777427e-06
4.144137e-06
2.8122792e-06
4.1847049e-06
2.6475461e-06
4.2183152e-06
2.4837539e-06
4.2452662e-06
2.3210959e-06
4.2658473e-06
2.1597455e-06
4.2803384e-06
1.9998597e-06
4.289012e-06
1.8415813e-06
4.2921297e-06
1.6850375e-06
4.2899449e-06
1.5303425e-06
4.2827031e-06
1.3775978e-06
4.2706394e-06
1.2268936e-06
4.2539803e-06
1.0783082e-06
4.2329439e-06
9.319133e-07
4.207738e-06
7.8776891e-07
4.1785705e-06
6.4591747e-07
4.1456306e-06
5.0641386e-07
4.109093e-06
3.6930409e-07
4.0691465e-06
2.3459561e-07
4.0259498e-06
1.0231891e-07
3.979682e-06
-2.7472968e-08
3.9304793e-06
-1.5481125e-07
3.8784915e-06
-2.7967501e-07
3.8238583e-06
-4.0205711e-07
3.7667128e-06
-5.2195454e-07
3.7071814e-06
-6.3937015e-07
3.645383e-06
-7.5430855e-07
3.581431e-06
-8.6677697e-07
3.5154329e-06
-9.7678571e-07
3.4474906e-06
-1.0843465e-06
3.3776994e-06
-1.1894719e-06
3.3061508e-06
-1.2921789e-06
3.2329301e-06
-1.3924825e-06
3.158118e-06
-1.4904003e-06
3.0817899e-06
-1.5859503e-06
3.0040179e-06
-1.6791513e-06
2.9248679e-06
-1.7700222e-06
2.8444028e-06
-1.8585825e-06
2.7626812e-06
-1.9448515e-06
2.6797587e-06
-2.0288492e-06
2.595684e-06
-2.1105924e-06
2.5105066e-06
-2.1901015e-06
2.4242693e-06
-2.2673941e-06
2.337013e-06
-2.342488e-06
2.2487756e-06
-2.415399e-06
2.1595924e-06
-2.4861441e-06
2.0694951e-06
-2.5547364e-06
1.9785124e-06
-2.6211916e-06
1.8866714e-06
-2.6855209e-06
1.793996e-06
-2.7477361e-06
1.7005089e-06
-2.8078475e-06
1.6062303e-06
-2.8658632e-06
1.5111772e-06
-2.9217908e-06
1.4153662e-06
-2.9756356e-06
1.3188116e-06
-3.0274015e-06
1.2215263e-06
-3.0770909e-06
1.123521e-06
-3.1247041e-06
1.024806e-06
-3.1702401e-06
9.2538931e-07
-3.2136937e-06
8.2527839e-07
-3.2550621e-06
7.2447994e-07
-3.2943372e-06
6.2299905e-07
-3.3315106e-06
5.2084011e-07
-3.3665735e-06
4.1800684e-07
-3.3995197e-06
3.1450358e-07
-3.4303524e-06
2.1033226e-07
-3.4591002e-06
1.0549724e-07
-3.4858368e-06
-3.5106246e-06
2.6265717e-06
4.7400241e-06
2.7863899e-06
4.6023425e-06
2.9354095e-06
4.4605242e-06
3.0739269e-06
4.3151226e-06
3.2022486e-06
4.1666542e-06
3.3206852e-06
4.0156008e-06
3.4295521e-06
3.8624106e-06
3.5291657e-06
3.7074996e-06
3.6198418e-06
3.5512549e-06
3.7018965e-06
3.3940339e-06
3.7756415e-06
3.2361673e-06
3.8413862e-06
3.0779603e-06
3.8994344e-06
2.9196943e-06
3.9500853e-06
2.7616284e-06
3.9936315e-06
2.6039996e-06
4.0303601e-06
2.4470256e-06
4.0605506e-06
2.2909053e-06
4.0844754e-06
2.1358206e-06
4.1023994e-06
1.9819357e-06
4.1145801e-06
1.8294007e-06
4.1212668e-06
1.6783507e-06
4.1227013e-06
1.5289079e-06
4.119117e-06
1.3811821e-06
4.1107398e-06
1.2352707e-06
4.0977859e-06
1.0912619e-06
4.0804669e-06
9.4923224e-07
4.0589851e-06
8.0925055e-07
4.0335284e-06
6.7137416e-07
4.0042854e-06
5.3565698e-07
3.9714432e-06
4.0214654e-07
3.9351662e-06
2.7087308e-07
3.8956134e-06
1.4187152e-07
3.8529649e-06
1.5175453e-08
3.8073436e-06
-1.0918977e-07
3.7589021e-06
-2.3123358e-07
3.7077778e-06
-3.5093255e-07
3.6541005e-06
-4.6827728e-07
3.5979941e-06
-5.8326369e-07
3.5395766e-06
-6.9589091e-07
3.4789602e-06
-8.0616024e-07
3.4162509e-06
-9.1407672e-07
3.3515499e-06
-1.0196452e-06
3.2849529e-06
-1.1228751e-06
3.2165494e-06
-1.2237755e-06
3.1464255e-06
-1.3223587e-06
3.0746617e-06
-1.4186369e-06
3.0013342e-06
-1.5126232e-06
2.9265146e-06
-1.6043317e-06
2.8502707e-06
-1.6937784e-06
2.772666e-06
-1.7809776e-06
2.6937592e-06
-1.8659449e-06
2.6136059e-06
-1.9486956e-06
2.5322588e-06
-2.0292452e-06
2.4497655e-06
-2.1076086e-06
2.3661729e-06
-2.1838012e-06
2.2815217e-06
-2.2578369e-06
2.1958518e-06
-2.3297292e-06
2.1091988e-06
-2.399491e-06
2.021597e-06
-2.4671349e-06
1.933077e-06
-2.5326718e-06
1.8436676e-06
-2.5961114e-06
1.7533949e-06
-2.6574633e-06
1.662283e-06
-2.7167353e-06
1.5703532e-06
-2.7739334e-06
1.4776259e-06
-2.8290634e-06
1.3841192e-06
-2.8821287e-06
1.2898495e-06
-2.9331316e-06
1.1948316e-06
-2.9820732e-06
1.099079e-06
-3.0289517e-06
1.0026037e-06
-3.0737645e-06
9.0541619e-07
-3.1165067e-06
8.0752632e-07
-3.1571723e-06
7.0894232e-07
-3.1957534e-06
6.0967242e-07
-3.2322409e-06
5.0972327e-07
-3.2666242e-06
4.0910128e-07
-3.2988975e-06
3.0781247e-07
-3.3290635e-06
2.0586289e-07
-3.3571506e-06
1.0325717e-07
-3.3832311e-06
-3.4073676e-06
2.431029e-06
4.5714517e-06
2.5891043e-06
4.4442669e-06
2.7369241e-06
4.3127042e-06
2.8747433e-06
4.1773034e-06
3.002827e-06
4.0385707e-06
3.1214484e-06
3.8969793e-06
3.2308863e-06
3.7529724e-06
3.3314233e-06
3.6069626e-06
3.4233447e-06
3.4593337e-06
3.5069357e-06
3.3104431e-06
3.5824805e-06
3.1606221e-06
3.6502629e-06
3.0101778e-06
3.7105627e-06
2.8593946e-06
3.7636562e-06
2.7085346e-06
3.8098154e-06
2.5578401e-06
3.849308e-06
2.4075334e-06
3.8823948e-06
2.2578186e-06
3.9093323e-06
2.1088833e-06
3.9303697e-06
1.9608981e-06
3.9457502e-06
1.8140202e-06
3.9557098e-06
1.6683906e-06
3.9604784e-06
1.5241392e-06
3.9602778e-06
1.3813827e-06
3.9553235e-06
1.2402252e-06
3.9458233e-06
1.1007622e-06
3.9319784e-06
9.6307702e-07
3.9139835e-06
8.2724582e-07
3.8920235e-06
6.9333419e-07
3.8662776e-06
5.6140261e-07
3.8369226e-06
4.3150144e-07
3.8041232e-06
3.036725e-07
3.768035e-06
1.7795999e-07
3.728825e-06
5.4384978e-08
3.686621e-06
-6.6985599e-08
3.6415694e-06
-1.8618198e-07
3.5938042e-06
-3.0316716e-07
3.5434528e-06
-4.1792625e-07
3.4906378e-06
-5.304487e-07
3.4354744e-06
-6.4072755e-07
3.3780729e-06
-7.4875907e-07
3.318539e-06
-8.5454245e-07
3.2569717e-06
-9.5807811e-07
3.1934664e-06
-1.0593697e-06
3.1281128e-06
-1.1584219e-06
3.0609959e-06
-1.2552419e-06
2.9921964e-06
-1.3498373e-06
2.9217905e-06
-1.4422168e-06
2.8498496e-06
-1.5323911e-06
2.7764419e-06
-1.6203709e-06
2.7016316e-06
-1.7061672e-06
2.6254782e-06
-1.7897914e-06
2.5480383e-06
-1.8712559e-06
2.4693649e-06
-1.9505715e-06
2.3895076e-06
-2.0277518e-06
2.3085133e-06
-2.1028066e-06
2.2264245e-06
-2.1757481e-06
2.1432823e-06
-2.2465869e-06
2.0591241e-06
-2.3153329e-06
1.9739845e-06
-2.3819958e-06
1.8878973e-06
-2.4465843e-06
1.8008916e-06
-2.5091059e-06
1.7129958e-06
-2.5695674e-06
1.6242348e-06
-2.6279746e-06
1.5346337e-06
-2.6843322e-06
1.444213e-06
-2.7386427e-06
1.352993e-06
-2.7909092e-06
1.2609928e-06
-2.8411316e-06
1.1682286e-06
-2.889309e-06
1.0747154e-06
-2.9354389e-06
9.8046841e-07
-2.9795173e-06
8.8549968e-07
-3.021538e-06
7.8982176e-07
-3.0614943e-06
6.9344443e-07
-3.0993763e-06
5.9637843e-07
-3.1351745e-06
4.9863281e-07
-3.1688787e-06
4.0021598e-07
-3.2004809e-06
3.011365e-07
-3.2299844e-06
2.0140255e-07
-3.2574165e-06
1.0102175e-07
-3.2828498e-06
-3.3063461e-06
2.2480205e-06
4.4055936e-06
2.4039603e-06
4.2883273e-06
2.5501816e-06
4.1664832e-06
2.686899e-06
4.0405859e-06
2.8143398e-06
3.9111297e-06
2.9327412e-06
3.7785781e-06
3.0423478e-06
3.6433658e-06
3.1434104e-06
3.5058999e-06
3.236183e-06
3.3665609e-06
3.3209232e-06
3.225703e-06
3.3978883e-06
3.0836569e-06
3.4673363e-06
2.9407297e-06
3.5295242e-06
2.797207e-06
3.5847056e-06
2.6533532e-06
3.6331333e-06
2.509413e-06
3.6750542e-06
2.3656122e-06
3.7107129e-06
2.22216e-06
3.7403481e-06
2.0792478e-06
3.7641944e-06
1.937052e-06
3.7824806e-06
1.7957341e-06
3.7954291e-06
1.6554424e-06
3.8032581e-06
1.5163106e-06
3.8061777e-06
1.3784629e-06
3.8043932e-06
1.2420095e-06
3.7981035e-06
1.1070521e-06
3.7875002e-06
9.7368035e-07
3.7727681e-06
8.4197776e-07
3.7540924e-06
7.1200982e-07
3.7316372e-06
5.8385815e-07
3.705574e-06
4.5756459e-07
3.6760593e-06
3.3318731e-07
3.6432651e-06
2.1075404e-07
3.6073154e-06
9.033439e-08
3.56837e-06
-2.8040189e-08
3.5265536e-06
-1.4436543e-07
3.4819998e-06
-2.5861366e-07
3.4348346e-06
-3.707606e-07
3.3851771e-06
-4.8079115e-07
3.3331413e-06
-5.8869195e-07
3.2788353e-06
-6.9445324e-07
3.2223629e-06
-7.9807001e-07
3.163823e-06
-8.995382e-07
3.1033086e-06
-9.9885538e-07
3.0409088e-06
-1.0960219e-06
2.976709e-06
-1.1910417e-06
2.9107887e-06
-1.2839169e-06
2.8432237e-06
-1.374652e-06
2.7740865e-06
-1.4632537e-06
2.7034445e-06
-1.549729e-06
2.6313623e-06
-1.6340852e-06
2.5579002e-06
-1.7163293e-06
2.4831153e-06
-1.796471e-06
2.4070614e-06
-1.8745181e-06
2.3297896e-06
-1.9504791e-06
2.2513457e-06
-2.0243632e-06
2.1717753e-06
-2.096178e-06
2.0911197e-06
-2.1659312e-06
2.0094181e-06
-2.2336307e-06
1.9267063e-06
-2.2992842e-06
1.8430192e-06
-2.3628968e-06
1.7583873e-06
-2.4244738e-06
1.6728402e-06
-2.4840206e-06
1.5864057e-06
-2.5415401e-06
1.499109e-06
-2.5970353e-06
1.4109739e-06
-2.6505073e-06
1.3220212e-06
-2.7019566e-06
1.2322722e-06
-2.7513822e-06
1.141745e-06
-2.7987814e-06
1.0504569e-06
-2.844151e-06
9.5842442e-07
-2.8874849e-06
8.6566262e-07
-2.9287757e-06
7.721845e-07
-2.9680163e-06
6.7800363e-07
-3.0051954e-06
5.8313175e-07
-3.0403027e-06
4.8758032e-07
-3.0733272e-06
3.9136093e-07
-3.1042611e-06
2.944833e-07
-3.1331065e-06
1.9695742e-07
-3.1598907e-06
9.8793033e-08
-3.1846857e-06
-3.2075527e-06
2.076935e-06
4.242781e-06
2.230396e-06
4.1348663e-06
2.374666e-06
4.022213e-06
2.5099226e-06
3.9053294e-06
2.6363573e-06
3.784695e-06
2.7541728e-06
3.6607623e-06
2.8635829e-06
3.5339561e-06
2.9648065e-06
3.4046765e-06
3.0580693e-06
3.2732978e-06
3.1436013e-06
3.1401713e-06
3.2216344e-06
3.0056237e-06
3.2924021e-06
2.869962e-06
3.3561384e-06
2.7334706e-06
3.4130764e-06
2.596415e-06
3.4634476e-06
2.4590415e-06
3.5074816e-06
2.3215784e-06
3.5454043e-06
2.184237e-06
3.5774394e-06
2.047213e-06
3.6038053e-06
1.9106864e-06
3.6247166e-06
1.7748229e-06
3.6403834e-06
1.6397753e-06
3.6510106e-06
1.5056834e-06
3.6567985e-06
1.3726749e-06
3.6579408e-06
1.240867e-06
3.6546273e-06
1.1103655e-06
3.6470402e-06
9.8126747e-07
3.6353591e-06
8.5365883e-07
3.6197498e-06
7.2761908e-07
3.6003892e-06
6.0321857e-07
3.5774288e-06
4.8052526e-07
3.5510275e-06
3.595884e-07
3.5213208e-06
2.4046106e-07
3.4884871e-06
1.2316785e-07
3.4526409e-06
7.8060781e-09
3.4139033e-06
-1.0562788e-07
3.3724165e-06
-2.1712673e-07
3.3282998e-06
-3.2664422e-07
3.2816692e-06
-4.3416057e-07
3.2326363e-06
-5.3965884e-07
3.1813077e-06
-6.4312447e-07
3.1277845e-06
-7.4454733e-07
3.0721646e-06
-8.4391804e-07
3.0145402e-06
-9.4123072e-07
2.9549992e-06
-1.0364815e-06
2.8936254e-06
-1.1296679e-06
2.8304985e-06
-1.2207899e-06
2.7656944e-06
-1.3098481e-06
2.6992843e-06
-1.3968438e-06
2.6313365e-06
-1.481781e-06
2.5619151e-06
-1.5646638e-06
2.4910814e-06
-1.645496e-06
2.4188923e-06
-1.7242819e-06
2.3454023e-06
-1.8010276e-06
2.2706626e-06
-1.8757396e-06
2.1947211e-06
-1.9484218e-06
2.117624e-06
-2.0190806e-06
2.0394127e-06
-2.0877202e-06
1.9601282e-06
-2.1543465e-06
1.8798074e-06
-2.2189634e-06
1.798485e-06
-2.2815749e-06
1.7161952e-06
-2.3421841e-06
1.6329682e-06
-2.4007934e-06
1.5488323e-06
-2.4574046e-06
1.4638152e-06
-2.512018e-06
1.3779413e-06
-2.5646339e-06
1.2912347e-06
-2.61525e-06
1.203717e-06
-2.6638643e-06
1.1154086e-06
-2.7104729e-06
1.0263287e-06
-2.7550709e-06
9.3649474e-07
-2.7976508e-06
8.4592483e-07
-2.8382057e-06
7.5463313e-07
-2.8767247e-06
6.6263586e-07
-2.9131979e-06
5.699468e-07
-2.9476135e-06
4.7657874e-07
-2.9799592e-06
3.8254523e-07
-3.0102276e-06
2.8785866e-07
-3.0384202e-06
1.9253118e-07
-3.0645634e-06
9.657485e-08
-3.088729e-06
-3.110978e-06
1.9171698e-06
4.0832965e-06
2.0678545e-06
3.9841815e-06
2.2098647e-06
3.880203e-06
2.3433424e-06
3.7718515e-06
2.4684472e-06
3.6595906e-06
2.5853491e-06
3.54386e-06
2.6942316e-06
3.4250736e-06
2.7952851e-06
3.3036231e-06
2.8887076e-06
3.1798752e-06
2.9747032e-06
3.0541755e-06
3.053479e-06
2.926848e-06
3.1252456e-06
2.7981954e-06
3.1902149e-06
2.6685015e-06
3.2485988e-06
2.5380311e-06
3.3006105e-06
2.4070301e-06
3.3464602e-06
2.2757285e-06
3.3863579e-06
2.1443395e-06
3.4205101e-06
2.0130607e-06
3.4491209e-06
1.8820753e-06
3.4723915e-06
1.7515526e-06
3.4905183e-06
1.6216486e-06
3.5036941e-06
1.4925076e-06
3.5121078e-06
1.3642612e-06
3.5159439e-06
1.2370312e-06
3.5153807e-06
1.1109292e-06
3.5105928e-06
9.86055e-07
3.5017498e-06
8.6250163e-07
3.4890161e-06
7.4035284e-07
3.4725496e-06
6.1968547e-07
3.4525071e-06
5.0056726e-07
3.4290375e-06
3.8305818e-07
3.4022829e-06
2.6721579e-07
3.3723683e-06
1.5308228e-07
3.3394557e-06
4.0718536e-08
3.3036598e-06
-6.9832163e-08
3.2651002e-06
-1.7856665e-07
3.2238967e-06
-2.8544062e-07
3.1801636e-06
-3.9042791e-07
3.1340104e-06
-4.9350556e-07
3.0855414e-06
-5.9465582e-07
3.0348564e-06
-6.938624e-07
2.982051e-06
-7.9111226e-07
2.9272154e-06
-8.8639525e-07
2.8704377e-06
-9.7970329e-07
2.8118e-06
-1.0710301e-06
2.7513812e-06
-1.1603713e-06
2.6892565e-06
-1.2477233e-06
2.6254978e-06
-1.3330849e-06
2.5601722e-06
-1.4164554e-06
2.4933439e-06
-1.4978356e-06
2.4250738e-06
-1.5772254e-06
2.3554204e-06
-1.6546281e-06
2.2844375e-06
-1.730045e-06
2.2121774e-06
-1.8034793e-06
2.1386882e-06
-1.8749328e-06
2.0640169e-06
-1.9444089e-06
1.9882061e-06
-2.0119096e-06
1.9112969e-06
-2.0774374e-06
1.8333285e-06
-2.1409944e-06
1.7543365e-06
-2.2025828e-06
1.674355e-06
-2.2622021e-06
1.5934158e-06
-2.3198543e-06
1.5115498e-06
-2.3755386e-06
1.4287852e-06
-2.4292531e-06
1.345148e-06
-2.4809968e-06
1.2606637e-06
-2.5307655e-06
1.1753552e-06
-2.5785564e-06
1.0892453e-06
-2.6243632e-06
1.0023543e-06
-2.6681797e-06
9.1470186e-07
-2.709999e-06
8.2630686e-07
-2.7498106e-06
7.3718652e-07
-2.7876044e-06
6.4735787e-07
-2.8233697e-06
5.5683673e-07
-2.8570922e-06
4.6563826e-07
-2.8887614e-06
3.7377834e-07
-2.9183674e-06
2.8127076e-07
-2.9459128e-06
1.881294e-07
-2.971422e-06
9.4368189e-08
-2.9949683e-06
-3.0166098e-06
1.7681336e-06
3.9273775e-06
1.9157879e-06
3.8365272e-06
2.05527e-06
3.7407211e-06
2.1866907e-06
3.6404307e-06
2.310178e-06
3.5361035e-06
2.4258733e-06
3.4281646e-06
2.5339309e-06
3.3170164e-06
2.6345142e-06
3.2030395e-06
2.727796e-06
3.0865934e-06
2.8139549e-06
2.9680169e-06
2.8931747e-06
2.8476279e-06
2.9656439e-06
2.7257264e-06
3.0315529e-06
2.6025925e-06
3.0910948e-06
2.478489e-06
3.144463e-06
2.3536621e-06
3.1918506e-06
2.228341e-06
3.2334506e-06
2.1027396e-06
3.2694541e-06
1.9770569e-06
3.3000508e-06
1.8514787e-06
3.3254278e-06
1.7261756e-06
3.3457692e-06
1.6013074e-06
3.3612555e-06
1.4770214e-06
3.3720647e-06
1.3534521e-06
3.3783702e-06
1.2307255e-06
3.3803415e-06
1.1089575e-06
3.3781442e-06
9.8825248e-07
3.3719398e-06
8.6870637e-07
3.3618837e-06
7.5040905e-07
3.3481291e-06
6.3343989e-07
3.3308235e-06
5.1787313e-07
3.3101092e-06
4.037728e-07
3.2861261e-06
2.9119841e-07
3.2590008e-06
1.8020808e-07
3.2288709e-06
7.0848477e-08
3.1958626e-06
-3.682395e-08
3.1600884e-06
-1.4279266e-07
3.1216647e-06
-2.4701675e-07
3.080702e-06
-3.49465e-07
3.0373075e-06
-4.5011117e-07
2.9915827e-06
-5.4893112e-07
2.9436254e-06
-6.4590488e-07
2.8935291e-06
-7.4101592e-07
2.8413836e-06
-8.3424974e-07
2.7872743e-06
-9.2559387e-07
2.7312825e-06
-1.0150384e-06
2.6734868e-06
-1.1025756e-06
2.6139612e-06
-1.1881976e-06
2.5527766e-06
-1.2719002e-06
2.4900004e-06
-1.3536792e-06
2.4256966e-06
-1.4335317e-06
2.3599262e-06
-1.5114552e-06
2.292747e-06
-1.5874492e-06
2.2242141e-06
-1.6615121e-06
2.1543791e-06
-1.7336441e-06
2.0832914e-06
-1.8038455e-06
2.0109976e-06
-1.8721151e-06
1.9375419e-06
-1.9384539e-06
1.8629666e-06
-2.002862e-06
1.7873104e-06
-2.0653383e-06
1.7106102e-06
-2.1258828e-06
1.632902e-06
-2.1844943e-06
1.5542187e-06
-2.2411711e-06
1.4745918e-06
-2.2959116e-06
1.3940512e-06
-2.3487122e-06
1.3126233e-06
-2.3995693e-06
1.2303361e-06
-2.4484784e-06
1.1472135e-06
-2.4954338e-06
1.0632792e-06
-2.5404289e-06
9.7855601e-07
-2.5834569e-06
8.930652e-07
-2.6245078e-06
8.0682663e-07
-2.6635718e-06
7.1985938e-07
-2.7006375e-06
6.3218238e-07
-2.7356927e-06
5.438134e-07
-2.7687236e-06
4.5477015e-07
-2.7997176e-06
3.6506814e-07
-2.8286657e-06
2.7472438e-07
-2.8555689e-06
1.8375535e-07
-2.8804526e-06
9.2175526e-08
-2.9033884e-06
-2.9244341e-06
1.6292481e-06
3.7752215e-06
1.7736573e-06
3.6921179e-06
1.9103817e-06
3.6039966e-06
2.0395034e-06
3.5113091e-06
2.1611215e-06
3.4144855e-06
2.2753504e-06
3.3139357e-06
2.3823175e-06
3.2100491e-06
2.4821613e-06
3.1031957e-06
2.5750293e-06
2.9937252e-06
2.6610779e-06
2.8819684e-06
2.7404681e-06
2.7682379e-06
2.813367e-06
2.6528273e-06
2.8799457e-06
2.5360137e-06
2.9403776e-06
2.418057e-06
2.9948385e-06
2.2992014e-06
3.0435038e-06
2.1796754e-06
3.086551e-06
2.0596922e-06
3.1241561e-06
1.939452e-06
3.1564943e-06
1.8191404e-06
3.183739e-06
1.6989308e-06
3.2060622e-06
1.5789846e-06
3.2236329e-06
1.4594503e-06
3.2366173e-06
1.3404678e-06
3.245179e-06
1.2221639e-06
3.2494787e-06
1.1046578e-06
3.249672e-06
9.8805893e-07
3.2459123e-06
8.7246643e-07
3.2383477e-06
7.5797312e-07
3.2271241e-06
6.446638e-07
3.2123819e-06
5.3261511e-07
3.1942585e-06
4.218963e-07
3.172882e-06
3.1257476e-07
3.1483883e-06
2.0470196e-07
3.1209028e-06
9.8333883e-08
3.0905375e-06
-6.4584757e-09
3.0574117e-06
-1.0966696e-07
3.0216366e-06
-2.1124196e-07
2.98332e-06
-3.1114849e-07
2.9425647e-06
-4.0935582e-07
2.8994701e-06
-5.0583659e-07
2.854132e-06
-6.0056697e-07
2.8066418e-06
-6.9352588e-07
2.7570872e-06
-7.8469518e-07
2.7055525e-06
-8.740594e-07
2.6521179e-06
-9.6160369e-07
2.5968599e-06
-1.0473178e-06
2.5398528e-06
-1.1311906e-06
2.4811659e-06
-1.2132137e-06
2.4208666e-06
-1.2933799e-06
2.3590183e-06
-1.3716835e-06
2.2956823e-06
-1.448119e-06
2.2309157e-06
-1.5226825e-06
2.1647745e-06
-1.5953706e-06
2.0973092e-06
-1.6661792e-06
2.0285705e-06
-1.7351068e-06
1.9586061e-06
-1.8021501e-06
1.8874594e-06
-1.8673075e-06
1.8151734e-06
-1.930576e-06
1.7417885e-06
-1.9919532e-06
1.6673422e-06
-2.0514369e-06
1.5918712e-06
-2.1090232e-06
1.5154096e-06
-2.1647092e-06
1.4379892e-06
-2.2184915e-06
1.359641e-06
-2.2703641e-06
1.2803948e-06
-2.3203226e-06
1.2002772e-06
-2.3683606e-06
1.1193146e-06
-2.4144715e-06
1.0375329e-06
-2.458647e-06
9.5495472e-07
-2.5008789e-06
8.7160389e-07
-2.5411565e-06
7.8750086e-07
-2.5794692e-06
7.0266787e-07
-2.6158044e-06
6.1712415e-07
-2.6501486e-06
5.3088968e-07
-2.6824888e-06
4.4398275e-07
-2.712811e-06
3.5642271e-07
-2.7411056e-06
2.6822715e-07
-2.7673736e-06
1.7941327e-07
-2.7916389e-06
8.9998789e-08
-2.8139741e-06
-2.8344351e-06
1.499951e-06
3.6269867e-06
1.640937e-06
3.5511317e-06
1.7747096e-06
3.4702239e-06
1.9013243e-06
3.3846944e-06
2.0208541e-06
3.2949557e-06
2.1333876e-06
3.2014017e-06
2.2390285e-06
3.1044084e-06
2.3378914e-06
3.0043333e-06
2.4301004e-06
2.9015156e-06
2.5157906e-06
2.7962785e-06
2.5951017e-06
2.6889265e-06
2.6681813e-06
2.5797478e-06
2.7351806e-06
2.4690145e-06
2.7962551e-06
2.3569824e-06
2.8515628e-06
2.2438935e-06
2.9012643e-06
2.129974e-06
2.9455203e-06
2.0154362e-06
2.9844926e-06
1.9004798e-06
3.0183423e-06
1.7852909e-06
3.0472299e-06
1.6700434e-06
3.071315e-06
1.5548992e-06
3.0907553e-06
1.4400102e-06
3.1057064e-06
1.3255166e-06
3.1163218e-06
1.2115486e-06
3.1227517e-06
1.0982278e-06
3.1251443e-06
9.8566661e-07
3.1236436e-06
8.739668e-07
3.1183915e-06
7.6322559e-07
3.1095252e-06
6.5352969e-07
3.0971794e-06
5.4496074e-07
3.0814849e-06
4.375911e-07
3.0625687e-06
3.314909e-07
3.0405516e-06
2.2671917e-07
3.0155527e-06
1.2333249e-07
2.9877014e-06
2.1392435e-08
2.9570923e-06
-7.9057329e-08
2.9238387e-06
-1.779885e-07
2.8880455e-06
-2.7535507e-07
2.8498129e-06
-3.7112317e-07
2.8092369e-06
-4.6526079e-07
2.7664114e-06
-5.5774126e-07
2.7214248e-06
-6.4853949e-07
2.6743639e-06
-7.3763429e-07
2.6253102e-06
-8.2500615e-07
2.5743442e-06
-9.1063755e-07
2.5215402e-06
-9.9451365e-07
2.4669705e-06
-1.076621e-06
2.4107053e-06
-1.1569483e-06
2.3528106e-06
-1.2354851e-06
2.293349e-06
-1.3122219e-06
2.2323819e-06
-1.3871521e-06
2.1699662e-06
-1.4602667e-06
2.1061571e-06
-1.5315612e-06
2.0410066e-06
-1.6010288e-06
1.9745648e-06
-1.6686647e-06
1.9068789e-06
-1.7344647e-06
1.8379943e-06
-1.7984229e-06
1.7679537e-06
-1.8605353e-06
1.6967975e-06
-1.9207974e-06
1.6245657e-06
-1.9792043e-06
1.551294e-06
-2.0357515e-06
1.4770177e-06
-2.0904335e-06
1.401771e-06
-2.1432442e-06
1.3255841e-06
-2.1941779e-06
1.2484881e-06
-2.243227e-06
1.1705124e-06
-2.2903845e-06
1.0916831e-06
-2.3356423e-06
1.0120278e-06
-2.3789919e-06
9.3157078e-07
-2.4204215e-06
8.5033621e-07
-2.4599219e-06
7.6834781e-07
-2.4974801e-06
6.8562673e-07
-2.5330837e-06
6.0219589e-07
-2.5667182e-06
5.1807627e-07
-2.5983689e-06
4.3328704e-07
-2.628022e-06
3.4784963e-07
-2.6556684e-06
2.617835e-07
-2.6813068e-06
1.7510727e-07
-2.7049631e-06
8.7840474e-08
-2.7267072e-06
-2.7465942e-06
1.3796969e-06
3.4827982e-06
1.5171158e-06
3.413713e-06
1.6477751e-06
3.3395646e-06
1.7717061e-06
3.2607632e-06
1.8889584e-06
3.1777035e-06
1.999598e-06
3.0907621e-06
2.1037049e-06
3.0003015e-06
2.2013717e-06
2.9066661e-06
2.2927026e-06
2.8101853e-06
2.3778101e-06
2.7111708e-06
2.456816e-06
2.6099207e-06
2.5298479e-06
2.5067159e-06
2.5970397e-06
2.4018228e-06
2.658529e-06
2.2954932e-06
2.7144578e-06
2.1879646e-06
2.7649703e-06
2.0794615e-06
2.8102129e-06
1.9701937e-06
2.8503328e-06
1.8603596e-06
2.8854789e-06
1.750145e-06
2.9157974e-06
1.6397244e-06
2.9414375e-06
1.5292594e-06
2.9625446e-06
1.418903e-06
2.9792643e-06
1.308797e-06
2.99174e-06
1.1990731e-06
3.0001122e-06
1.0898552e-06
3.0045212e-06
9.8125744e-07
3.0051025e-06
8.7338553e-07
3.0019904e-06
7.6633776e-07
2.9953151e-06
6.6020517e-07
2.9852046e-06
5.5507121e-07
2.9717825e-06
4.5101328e-07
2.9551718e-06
3.4810144e-07
2.9354842e-06
2.4640649e-07
2.91285e-06
1.4596703e-07
2.8873721e-06
4.6870112e-08
2.8591471e-06
-5.083224e-08
2.8282905e-06
-1.47132e-07
2.7949015e-06
-2.4196639e-07
2.7590769e-06
-3.3529808e-07
2.7209101e-06
-4.270942e-07
2.6804923e-06
-5.1732302e-07
2.637909e-06
-6.059567e-07
2.5932458e-06
-6.9297051e-07
2.5465824e-06
-7.7834237e-07
2.4979962e-06
-8.6205156e-07
2.4475621e-06
-9.440794e-07
2.3953515e-06
-1.0244101e-06
2.3414315e-06
-1.1030287e-06
2.2858684e-06
-1.1799219e-06
2.2287254e-06
-1.2550787e-06
2.1700613e-06
-1.3284879e-06
2.1099342e-06
-1.4001397e-06
2.0483983e-06
-1.4700253e-06
1.9855059e-06
-1.5381367e-06
1.9213074e-06
-1.6044661e-06
1.8558504e-06
-1.6690073e-06
1.7891795e-06
-1.7317519e-06
1.7213385e-06
-1.7926945e-06
1.6523692e-06
-1.851828e-06
1.5823099e-06
-1.9091452e-06
1.5111987e-06
-1.9646402e-06
1.4390718e-06
-2.018306e-06
1.3659629e-06
-2.0701354e-06
1.2919049e-06
-2.1201196e-06
1.2169288e-06
-2.1682509e-06
1.1410643e-06
-2.2145201e-06
1.0643405e-06
-2.2589183e-06
9.867841e-07
-2.3014355e-06
9.0842241e-07
-2.3420598e-06
8.2927978e-07
-2.3807797e-06
7.4938113e-07
-2.4175818e-06
6.687505e-07
-2.4524526e-06
5.8741011e-07
-2.4853781e-06
5.0538297e-07
-2.5163419e-06
4.226914e-07
-2.5453304e-06
3.3935632e-07
-2.5723332e-06
2.5539937e-07
-2.5973499e-06
1.7084126e-07
-2.620405e-06
8.5701253e-08
-2.6415677e-06
-2.6608931e-06
1.2679598e-06
3.3427487e-06
1.4016972e-06
3.2799755e-06
1.5291115e-06
3.2121502e-06
1.6502123e-06
3.1396629e-06
1.7650267e-06
3.0628888e-06
1.8735999e-06
2.982189e-06
1.9759913e-06
2.8979101e-06
2.0722729e-06
2.8103847e-06
2.162529e-06
2.7199289e-06
2.2468539e-06
2.6268463e-06
2.3253501e-06
2.5314245e-06
2.3981276e-06
2.4339382e-06
2.465303e-06
2.3346473e-06
2.526998e-06
2.233798e-06
2.5833388e-06
2.1316242e-06
2.6344548e-06
2.0283455e-06
2.6804777e-06
1.9241708e-06
2.7215413e-06
1.8192962e-06
2.7577808e-06
1.7139054e-06
2.7893326e-06
1.6081727e-06
2.816332e-06
1.50226e-06
2.8389149e-06
1.3963204e-06
2.8572159e-06
1.2904957e-06
2.8713685e-06
1.1849203e-06
2.8815053e-06
1.0797185e-06
2.8877566e-06
9.7500642e-07
2.8902505e-06
8.7089143e-07
2.8891135e-06
7.6747495e-07
2.8844695e-06
6.6484904e-07
2.8764393e-06
5.6310094e-07
2.8651422e-06
4.623105e-07
2.8506922e-06
3.625515e-07
2.8332084e-06
2.638906e-07
2.812783e-06
1.6639229e-07
2.7895376e-06
7.0115621e-08
2.7635825e-06
-2.4877126e-08
2.7350048e-06
-1.1855432e-07
2.7039048e-06
-2.1086611e-07
2.6703764e-06
-3.017701e-07
2.6345114e-06
-3.9122922e-07
2.596398e-06
-4.7920922e-07
2.5561202e-06
-5.6567877e-07
2.5137595e-06
-6.5061023e-07
2.4693957e-06
-7.339785e-07
2.4231043e-06
-8.157598e-07
2.3749569e-06
-8.9593254e-07
2.3250252e-06
-9.7447814e-07
2.2733757e-06
-1.0513789e-06
2.2200731e-06
-1.1266189e-06
2.1651791e-06
-1.2001845e-06
2.108753e-06
-1.2720618e-06
2.0508519e-06
-1.3422385e-06
1.9915303e-06
-1.4107035e-06
1.93084e-06
-1.4774464e-06
1.8688306e-06
-1.5424574e-06
1.8055508e-06
-1.6057272e-06
1.7410454e-06
-1.6672465e-06
1.675358e-06
-1.7270069e-06
1.6085306e-06
-1.785e-06
1.540603e-06
-1.8412176e-06
1.4716133e-06
-1.8956509e-06
1.4015979e-06
-1.9482908e-06
1.3305912e-06
-1.9991284e-06
1.2586269e-06
-2.0481552e-06
1.1857378e-06
-2.0953615e-06
1.1119542e-06
-2.1407367e-06
1.0373058e-06
-2.1842697e-06
9.6182071e-07
-2.2259501e-06
8.8552634e-07
-2.2657654e-06
8.0844953e-07
-2.3037029e-06
7.3061601e-07
-2.3397483e-06