/*--------------------------------*- C++ -*----------------------------------*\
| =========                 |                                                 |
| \\      /  F ield         | OpenFOAM: The Open Source CFD Toolbox           |
|  \\    /   O peration     | Version:  2306                                  |
|   \\  /    A nd           | Website:  www.openfoam.com                      |
|    \\/     M anipulation  |                                                 |
\*---------------------------------------------------------------------------*/
FoamFile
{
    version     2.0;
    format      ascii;
    arch        "LSB;label=32;scalar=64";
    class       volVectorField;
    location    "0.33";
    object      U;
}
// * * * * * * * * * * * * * * * * * * * * * * * * * * * * * * * * * * * * * //

dimensions      [0 1 -1 0 0 0 0];

internalField   nonuniform List<vector> 
6400
(
(0.0012762093 0.0021248614 2.0982814e-19)
(0.0013266837 0.0020284941 7.7206527e-20)
(0.0013710258 0.0019333296 -7.3587845e-20)
(0.001409625 0.0018395465 2.7359844e-20)
(0.0014428519 0.0017472976 -5.2316797e-20)
(0.0014710595 0.0016567125 8.8772636e-20)
(0.0014945826 0.0015678994 3.2021945e-20)
(0.0015137388 0.0014809482 1.2257842e-19)
(0.0015288288 0.0013959316 8.8142151e-20)
(0.0015401366 0.0013129076 8.2963081e-20)
(0.0015479309 0.0012319203 5.6629093e-20)
(0.0015524649 0.0011530021 1.1705853e-19)
(0.0015539775 0.0010761751 1.0270015e-20)
(0.0015526934 0.0010014516 -5.644056e-20)
(0.0015488242 0.00092883559 -2.3265506e-20)
(0.0015425688 0.00085832398 1.9607332e-20)
(0.0015341142 0.00078990727 -9.0005484e-21)
(0.0015236356 0.00072357023 3.4093755e-20)
(0.0015112976 0.00065929269 -3.2424824e-20)
(0.0014972546 0.0005970505 -1.8443088e-20)
(0.0014816507 0.00053681547 2.9481289e-20)
(0.0014646212 0.00047855661 -2.0975622e-20)
(0.0014462927 0.00042224058 6.0550549e-21)
(0.0014267829 0.00036783113 -3.3216866e-20)
(0.0014062021 0.00031529093 -2.4171539e-20)
(0.0013846532 0.0002645804 3.0085504e-20)
(0.0013622326 0.00021565888 4.6039896e-21)
(0.0013390297 0.00016848557 1.1455933e-20)
(0.0013151279 0.00012301893 8.3030643e-21)
(0.0012906032 7.9215721e-05 -1.1806346e-20)
(0.0012655279 3.7034796e-05 5.7336068e-21)
(0.0012399728 -3.5681193e-06 6.9655787e-20)
(0.0012139967 -4.2633973e-05 7.017254e-20)
(0.0011876545 -8.0205985e-05 4.8824593e-21)
(0.0011610013 -0.00011632556 -1.054069e-20)
(0.0011340859 -0.00015103423 5.0979084e-21)
(0.0011069535 -0.0001843726 6.5285155e-21)
(0.0010796455 -0.00021638088 3.5235511e-20)
(0.0010522004 -0.00024709863 6.7610981e-21)
(0.0010246533 -0.00027656464 -4.7798211e-20)
(0.00099703648 -0.00030481657 -8.8932135e-21)
(0.00096937927 -0.00033189154 3.6055719e-20)
(0.00094170865 -0.00035782571 1.7752491e-20)
(0.0009140492 -0.00038265416 7.168831e-22)
(0.00088642305 -0.00040641126 -1.2697648e-20)
(0.00085885044 -0.00042913017 -4.9242025e-21)
(0.00083134964 -0.00045084321 2.4278585e-20)
(0.00080393695 -0.00047158166 3.094293e-20)
(0.00077662707 -0.00049137591 -1.6269929e-20)
(0.00074943311 -0.00051025525 -1.5599956e-20)
(0.00072236669 -0.00052824793 -1.7882345e-21)
(0.00069543809 -0.00054538135 1.963654e-21)
(0.00066865624 -0.00056168181 2.7152521e-20)
(0.00064202887 -0.00057717456 2.1049781e-20)
(0.00061556271 -0.00059188412 -8.7294466e-21)
(0.00058926345 -0.00060583385 3.962587e-21)
(0.00056313573 -0.00061904612 1.1196574e-20)
(0.00053718342 -0.0006315425 1.9232073e-20)
(0.00051140956 -0.00064334342 7.5349891e-22)
(0.00048581644 -0.00065446882 -2.5922095e-20)
(0.00046040568 -0.00066493733 -2.6874357e-21)
(0.00043517827 -0.0006747668 1.8342988e-21)
(0.00041013461 -0.00068397414 1.3811749e-20)
(0.00038527459 -0.00069257567 4.5529322e-21)
(0.00036059761 -0.00070058661 -8.4883424e-21)
(0.00033610263 -0.00070802131 -6.5450261e-22)
(0.00031178831 -0.0007148935 2.3499687e-21)
(0.00028765286 -0.00072121599 1.4938552e-20)
(0.00026369418 -0.00072700078 6.1371155e-21)
(0.00023991001 -0.00073225921 -1.1215872e-20)
(0.00021629774 -0.00073700155 9.3218955e-21)
(0.00019285456 -0.00074123775 6.3689905e-21)
(0.00016957752 -0.00074497671 1.2762092e-21)
(0.00014646351 -0.000748227 2.8177883e-21)
(0.00012350933 -0.00075099662 6.0225771e-21)
(0.00010071229 -0.00075329395 1.5030345e-20)
(7.806956e-05 -0.00075512902 -1.4174228e-21)
(5.5569348e-05 -0.00075651648 -7.7500039e-21)
(3.3191464e-05 -0.00075747961 -1.3307966e-20)
(1.0986618e-05 -0.0007580403 -2.0910375e-20)
(0.0011821742 0.0020553988 2.8793953e-21)
(0.0012335968 0.0019648229 6.0142799e-20)
(0.0012790852 0.0018751495 -2.4076139e-20)
(0.0013190016 0.0017865668 -1.6720076e-19)
(0.0013536924 0.0016992377 -1.6573018e-19)
(0.0013834884 0.0016133019 -3.6177704e-20)
(0.0014087045 0.0015288785 -4.4642144e-20)
(0.0014296405 0.0014460678 5.1013673e-20)
(0.0014465809 0.0013649535 -7.4863489e-20)
(0.0014597957 0.0012856038 -4.2370744e-20)
(0.0014695407 0.0012080736 2.1416137e-20)
(0.0014760575 0.0011324054 8.4661415e-20)
(0.0014795749 0.0010586314 -3.850115e-20)
(0.0014803088 0.00098677336 -1.5501486e-19)
(0.0014784627 0.00091684508 -7.430808e-20)
(0.0014742285 0.00084885236 -1.6964981e-20)
(0.0014677869 0.0007827945 -1.3976645e-20)
(0.0014593078 0.00071866474 -1.772016e-20)
(0.0014489511 0.00065645112 -7.294097e-20)
(0.0014368668 0.00059613713 -2.5190077e-20)
(0.0014231959 0.0005377023 1.4550119e-20)
(0.0014080702 0.00048112253 -4.9454381e-21)
(0.0013916139 0.00042637142 -1.4928477e-20)
(0.0013739427 0.00037341928 -3.8878774e-20)
(0.0013551652 0.0003222346 -1.6458653e-20)
(0.0013353825 0.0002727843 2.2614668e-20)
(0.0013146898 0.00022503364 -4.3995718e-21)
(0.0012931762 0.00017894643 4.1215347e-21)
(0.0012709236 0.00013448646 -6.8133937e-21)
(0.0012480078 9.1615889e-05 1.7722334e-20)
(0.0012245014 5.0297651e-05 4.3833107e-20)
(0.0012004741 1.0493195e-05 3.8054574e-20)
(0.0011759857 -2.783914e-05 2.7661558e-20)
(0.0011510912 -6.4733898e-05 -3.4319809e-21)
(0.0011258457 -0.00010022982 -6.3337929e-21)
(0.0011002986 -0.00013436513 2.7914888e-21)
(0.0010744954 -0.00016717722 3.7994916e-21)
(0.0010484784 -0.00019870305 1.2358295e-20)
(0.0010222866 -0.00022897938 -9.2691283e-21)
(0.00099595563 -0.00025804207 -2.7142098e-20)
(0.00096951864 -0.00028592614 -2.9602316e-22)
(0.00094300597 -0.00031266629 1.9330349e-20)
(0.00091644531 -0.00033829628 7.6308657e-21)
(0.00088986202 -0.00036284902 -1.1492474e-21)
(0.00086327935 -0.00038635667 1.2618783e-21)
(0.00083671834 -0.00040885052 9.8193672e-21)
(0.00081019814 -0.00043036108 2.6855827e-20)
(0.00078373606 -0.00045091777 1.9901177e-20)
(0.00075734774 -0.00047054947 8.2120614e-21)
(0.00073104722 -0.00048928384 1.3454881e-20)
(0.00070484706 -0.00050714771 -5.378447e-23)
(0.0006787585 -0.00052416712 -1.374578e-20)
(0.00065279136 -0.00054036715 7.3407094e-21)
(0.00062695448 -0.00055577176 2.2309507e-20)
(0.00060125542 -0.00057040447 1.8081632e-20)
(0.00057570073 -0.00058428745 2.4221849e-20)
(0.00055029604 -0.00059744228 1.3964766e-20)
(0.00052504612 -0.0006098895 2.5035202e-20)
(0.00049995502 -0.00062164875 1.0135596e-20)
(0.00047502581 -0.00063273906 -3.534251e-21)
(0.00045026093 -0.00064317845 7.5065864e-21)
(0.00042566226 -0.00065298402 -4.748077e-21)
(0.00040123106 -0.00066217213 9.9361005e-21)
(0.000376968 -0.0006707583 1.3790166e-20)
(0.0003528734 -0.00067875745 1.0983572e-20)
(0.00032894703 -0.00068618332 4.3391652e-21)
(0.00030518825 -0.00069304924 -1.7661657e-21)
(0.00028159609 -0.00069936743 6.9169707e-21)
(0.00025816926 -0.00070514972 1.6237986e-21)
(0.00023490622 -0.000710407 6.8465373e-21)
(0.00021180509 -0.00071514924 9.2670001e-21)
(0.00018886376 -0.00071938611 2.749331e-21)
(0.00016608005 -0.00072312624 7.4553238e-21)
(0.0001434516 -0.00072637806 4.7484525e-21)
(0.00012097585 -0.00072914933 9.2563012e-21)
(9.8650793e-05 -0.00073144831 7.684662e-21)
(7.647432e-05 -0.00073328488 3.0816025e-21)
(5.4435412e-05 -0.00073467369 4.2843766e-21)
(3.251479e-05 -0.00073563807 -1.9745371e-21)
(1.0762721e-05 -0.00073619974 -1.8067702e-20)
(0.0010939673 0.0019863857 5.460278e-20)
(0.0011460468 0.0019013603 1.4012835e-20)
(0.0011923981 0.0018169635 -8.5229557e-20)
(0.0012333572 0.0017333906 -1.0617238e-19)
(0.0012692464 0.0016508125 -6.8960642e-20)
(0.0013003748 0.0015693774 -6.7260657e-20)
(0.0013270377 0.001489213 -9.7373475e-20)
(0.0013495172 0.0014104289 -6.2860289e-20)
(0.0013680818 0.0013331178 -7.4549603e-20)
(0.0013829872 0.0012573572 -3.7224201e-20)
(0.001394476 0.001183211 6.9154622e-21)
(0.0014027785 0.001110731 -4.0159083e-20)
(0.0014081131 0.001039958 -1.586544e-19)
(0.0014106864 0.00097092278 -1.3743733e-19)
(0.0014106936 0.00090364753 1.3726514e-20)
(0.0014083194 0.00083814633 -7.9800407e-21)
(0.0014037378 0.00077442668 -8.5205556e-20)
(0.0013971133 0.00071248944 -1.0100468e-19)
(0.0013886004 0.00065233015 -6.7809107e-20)
(0.0013783451 0.0005939396 6.1403252e-22)
(0.0013664841 0.0005373043 1.2156263e-20)
(0.0013531463 0.00048240684 -3.4788396e-20)
(0.0013384526 0.00042922709 -7.1734908e-20)
(0.0013225167 0.00037774158 -1.1748423e-20)
(0.0013054448 0.00032792453 -1.2816576e-20)
(0.0012873365 0.00027974857 -4.7202037e-22)
(0.0012682852 0.00023318461 -3.1838019e-20)
(0.0012483791 0.00018820172 -5.0826598e-20)
(0.0012277001 0.00014476718 -2.1116743e-20)
(0.0012063226 0.00010284791 1.8197057e-20)
(0.0011843184 6.2412377e-05 2.1243136e-20)
(0.0011617539 2.3425842e-05 -3.1079881e-20)
(0.0011386922 -1.4149265e-05 -3.5034318e-20)
(0.0011151908 -5.0343425e-05 6.3821673e-21)
(0.0010913013 -8.5192436e-05 3.9407832e-21)
(0.0010670737 -0.00011873109 -2.9292242e-20)
(0.0010425542 -0.00015099343 -4.2975192e-20)
(0.0010177856 -0.00018201349 -1.8449857e-20)
(0.00099280731 -0.00021182504 -1.153031e-20)
(0.00096765562 -0.00024046116 -1.8884958e-20)
(0.00094236421 -0.00026795449 1.1686875e-20)
(0.00091696406 -0.00029433719 -8.084779e-21)
(0.00089148358 -0.00031964057 -1.121705e-20)
(0.0008659489 -0.00034389566 1.9741085e-21)
(0.00084038403 -0.00036713237 -5.1127779e-21)
(0.00081481085 -0.00038938014 -3.0422777e-21)
(0.00078924926 -0.00041066765 -5.9179755e-21)
(0.00076371752 -0.00043102259 -1.5334866e-20)
(0.00073823207 -0.00045047219 6.0434514e-21)
(0.00071280774 -0.00046904262 3.046136e-20)
(0.00068745801 -0.0004867594 1.0968599e-20)
(0.00066219508 -0.00050364716 -2.642509e-20)
(0.00063702955 -0.00051972947 -1.9825942e-20)
(0.00061197098 -0.00053502948 1.0806334e-21)
(0.00058702797 -0.00054956938 7.2192142e-21)
(0.00056220784 -0.00056337042 1.7157068e-20)
(0.00053751709 -0.00057645312 1.2356401e-21)
(0.00051296142 -0.00058883722 8.6862531e-21)
(0.00048854564 -0.00060054141 4.6847967e-22)
(0.00046427366 -0.00061158398 -3.3251845e-21)
(0.00044014874 -0.00062198212 1.0219708e-20)
(0.00041617353 -0.0006317523 -1.1484384e-20)
(0.0003923501 -0.00064091037 3.1549607e-21)
(0.00036868007 -0.00064947108 3.3743685e-21)
(0.00034516435 -0.00065744885 3.0349797e-21)
(0.00032180344 -0.000664857 8.611687e-22)
(0.00029859756 -0.00067170824 -1.1642426e-20)
(0.00027554648 -0.00067801454 -1.3825432e-21)
(0.00025264962 -0.00068378724 -3.2112422e-22)
(0.00022990612 -0.00068903689 1.4414141e-21)
(0.00020731488 -0.00069377314 1.9736438e-21)
(0.00018487448 -0.00069800541 -5.0601206e-21)
(0.00016258345 -0.00070174212 1.0824904e-21)
(0.00014044007 -0.0007049914 -4.0183459e-21)
(0.00011844246 -0.00070776085 -3.5665216e-21)
(9.6589189e-05 -0.00071005859 -3.7351196e-21)
(7.4878841e-05 -0.00071189435 -1.0022748e-21)
(5.3301242e-05 -0.00071328276 -2.6238881e-21)
(3.1837999e-05 -0.00071424716 -7.3659732e-21)
(1.0538817e-05 -0.00071480912 -1.0899804e-20)
(0.001011332 0.0019180318 1.4240643e-19)
(0.0010638039 0.0018383142 -8.4727974e-21)
(0.0011107594 0.0017589762 -5.9485675e-20)
(0.0011525091 0.0016802185 -2.5269874e-20)
(0.0011893519 0.001602218 1.2865768e-20)
(0.0012215757 0.0015251295 -7.4894549e-20)
(0.0012494566 0.001449088 -1.3040288e-19)
(0.0012732591 0.0013742105 -7.6134262e-20)
(0.0012932359 0.0013005974 -8.5373027e-21)
(0.0013096282 0.0012283341 -4.7581879e-20)
(0.0013226659 0.0011574925 -6.8198555e-20)
(0.0013325677 0.0010881322 -7.6545851e-20)
(0.0013395413 0.0010203021 -1.2875114e-20)
(0.0013437839 0.00095404053 6.0997758e-21)
(0.0013454825 0.00088937745 -3.7507249e-21)
(0.001344814 0.00082633441 -2.7397525e-20)
(0.0013419459 0.0007649262 -2.9820383e-20)
(0.0013370367 0.00070516091 2.6073663e-20)
(0.0013302356 0.0006470408 -8.756607e-21)
(0.0013216837 0.00059056345 2.1321124e-21)
(0.001311514 0.00053572165 -3.4128321e-20)
(0.0012998516 0.00048250444 -4.0146586e-20)
(0.0012868144 0.00043089742 3.982666e-21)
(0.0012725133 0.00038088295 1.2769648e-20)
(0.0012570521 0.00033244077 -4.9250856e-21)
(0.0012405288 0.00028554877 -3.1219957e-20)
(0.0012230354 0.00024018264 -4.5317503e-20)
(0.001204657 0.0001963167 -2.998898e-21)
(0.0011854738 0.00015392281 9.189353e-21)
(0.0011655623 0.0001129716 1.6688403e-20)
(0.0011449934 7.3435782e-05 3.0026128e-20)
(0.0011238313 3.5284414e-05 -1.3067328e-20)
(0.0011021399 -1.5126468e-06 -1.5947477e-20)
(0.0010799757 -3.6986563e-05 1.4638406e-20)
(0.0010573898 -7.1168505e-05 6.6148457e-21)
(0.0010344332 -0.00010408997 -2.3442757e-22)
(0.0010111522 -0.00013578177 -2.4668863e-20)
(0.00098758946 -0.00016627515 -8.0610244e-21)
(0.00096378491 -0.00019560094 -9.9398885e-21)
(0.00093977535 -0.0002237896 2.3191125e-21)
(0.00091559484 -0.00025087143 1.4802005e-20)
(0.0008912749 -0.00027687595 -9.3169042e-22)
(0.00086684462 -0.00030183239 1.8694568e-20)
(0.00084233064 -0.00032576958 4.9882132e-21)
(0.00081775757 -0.00034871557 5.4356993e-21)
(0.00079314802 -0.00037069787 3.9582195e-21)
(0.00076852266 -0.00039174322 -6.7752992e-21)
(0.00074390039 -0.00041187781 -8.6588844e-21)
(0.00071929851 -0.00043112722 -3.1730294e-21)
(0.00069473273 -0.00044951614 3.6763081e-20)
(0.00067021721 -0.00046706863 2.6303691e-20)
(0.00064576469 -0.00048380803 -3.1821892e-21)
(0.00062138679 -0.00049975668 4.3629267e-21)
(0.00059709386 -0.00051493655 3.0778401e-21)
(0.00057289523 -0.00052936871 4.6949521e-21)
(0.00054879916 -0.00054307346 5.8965902e-21)
(0.00052481283 -0.00055607023 -1.3717116e-21)
(0.0005009426 -0.00056837792 1.1610733e-20)
(0.00047719404 -0.00058001442 -1.2783974e-21)
(0.00045357197 -0.00059099723 -6.7217822e-23)
(0.00043008045 -0.00060134268 1.0253074e-20)
(0.00040672289 -0.00061106668 -5.3860374e-21)
(0.00038350211 -0.00062018437 1.4821318e-20)
(0.00036042031 -0.00062870997 1.4157921e-20)
(0.00033747922 -0.00063665726 1.8082074e-21)
(0.00031468014 -0.00064403915 -5.0346057e-21)
(0.00029202396 -0.00065086785 -1.0446396e-20)
(0.00026951112 -0.000657155 8.1352382e-21)
(0.00024714177 -0.00066291138 4.2918685e-21)
(0.00022491577 -0.00066814727 8.138564e-23)
(0.00020283264 -0.00067287196 2.544314e-21)
(0.00018089169 -0.00067709462 1.636729e-21)
(0.00015909201 -0.00068082347 7.0009159e-21)
(0.00013743252 -0.00068406632 9.3103825e-21)
(0.00011591206 -0.00068683062 -2.9637768e-21)
(9.4529819e-05 -0.00068912434 -3.4846712e-21)
(7.3284943e-05 -0.00069095711 7.1711758e-21)
(5.2168114e-05 -0.00069234351 5.8554957e-21)
(3.1161806e-05 -0.00069330673 -1.2496377e-20)
(1.0315082e-05 -0.00069386822 -1.0557762e-20)
(0.00093401132 0.0018505227 2.931072e-19)
(0.00098663678 0.0017758697 1.5530938e-19)
(0.0010339615 0.0017013714 -7.3263245e-20)
(0.0010762714 0.0016272319 7.6168457e-20)
(0.001113843 0.0015536323 1.1928762e-19)
(0.0011469436 0.0014807326 6.6837046e-20)
(0.0011758303 0.0014086735 4.5930852e-20)
(0.0012007506 0.0013375778 2.0222502e-20)
(0.0012219416 0.0012675525 8.8564523e-20)
(0.0012396303 0.0011986895 3.5839204e-20)
(0.0012540336 0.0011310676 5.1327741e-20)
(0.0012653586 0.0010647532 9.4318613e-20)
(0.0012738027 0.00099980199 6.3222119e-20)
(0.0012795535 0.00093625946 5.2129328e-20)
(0.0012827893 0.00087416218 1.7027663e-20)
(0.0012836796 0.00081353858 5.3103934e-20)
(0.0012823849 0.00075440977 1.2548194e-19)
(0.0012790574 0.00069679048 5.0033601e-20)
(0.0012738411 0.00064068923 -2.685109e-20)
(0.0012668722 0.00058610973 1.8792677e-20)
(0.0012582792 0.00053305061 1.4826707e-21)
(0.0012481836 0.00048150673 2.5303529e-20)
(0.0012366998 0.00043146926 4.253534e-20)
(0.0012239357 0.00038292575 -9.6582402e-22)
(0.0012099928 0.00033586131 1.7528893e-20)
(0.0011949667 0.00029025845 -7.4549458e-22)
(0.0011789474 0.00024609751 1.1944309e-20)
(0.001162019 0.00020335693 3.1036174e-21)
(0.0011442602 0.00016201454 5.3097893e-22)
(0.001125746 0.00012204585 1.0741755e-20)
(0.0011065462 8.3424972e-05 -1.704694e-21)
(0.0010867253 4.6125088e-05 2.8459097e-20)
(0.0010663456 1.0121718e-05 4.9841194e-20)
(0.0010454634 -2.4616091e-05 3.0559082e-20)
(0.0010241302 -5.8113677e-05 1.1231604e-20)
(0.0010023966 -9.0400062e-05 2.2053087e-21)
(0.0009803087 -0.00012150322 1.0270844e-20)
(0.00095790962 -0.00015145136 3.550709e-20)
(0.00093523932 -0.00018027268 1.2540719e-21)
(0.00091233477 -0.00020799512 1.3565169e-20)
(0.00088923047 -0.00023464659 1.2116829e-20)
(0.00086595829 -0.00026025422 -4.3851736e-23)
(0.00084254774 -0.00028484523 2.6284351e-20)
(0.00081902612 -0.00030844615 1.4030104e-20)
(0.00079541856 -0.00033108327 6.0232647e-22)
(0.00077174821 -0.00035278217 -9.0555828e-22)
(0.0007480364 -0.00037356784 1.3486731e-20)
(0.00072430261 -0.00039346489 2.9062492e-20)
(0.00070056472 -0.00041249735 -3.3951464e-21)
(0.00067683917 -0.00043068839 1.025317e-20)
(0.00065314084 -0.00044806064 8.1007995e-21)
(0.00062948321 -0.00046463615 -1.7033501e-21)
(0.0006058786 -0.00048043613 2.9986448e-20)
(0.0005823381 -0.00049548143 8.3682645e-21)
(0.00055887173 -0.00050979184 8.2208443e-21)
(0.00053548841 -0.00052338674 6.0436582e-21)
(0.0005121961 -0.00053628466 5.444059e-22)
(0.00048900194 -0.00054850346 1.9436729e-20)
(0.00046591212 -0.00056006042 -4.0275134e-21)
(0.00044293224 -0.00057097204 -4.9953072e-21)
(0.00042006708 -0.00058125402 4.1922414e-21)
(0.00039732072 -0.00059092157 -9.8224374e-21)
(0.00037469663 -0.00059998916 1.6544441e-20)
(0.00035219784 -0.00060847052 1.3716393e-20)
(0.00032982676 -0.00061637872 5.3050948e-21)
(0.00030758526 -0.00062372632 1.8656569e-21)
(0.00028547497 -0.00063052502 -9.6757969e-21)
(0.00026349704 -0.000636786 1.4831523e-20)
(0.00024165217 -0.00064251968 2.8138251e-21)
(0.00021994091 -0.0006477359 -3.6111641e-21)
(0.00019836349 -0.00065244381 3.6566768e-21)
(0.00017691984 -0.00065665212 3.684064e-21)
(0.00015560968 -0.00066036881 1.1511885e-20)
(0.00013443248 -0.00066360154 1.3023909e-20)
(0.00011338774 -0.00066635756 1.4676922e-20)
(9.247522e-05 -0.00066864462 7.008441e-21)
(7.169464e-05 -0.00067047234 -3.0811817e-21)
(5.1037424e-05 -0.00067185512 -1.8684192e-22)
(3.0486984e-05 -0.00067281604 -1.9190796e-20)
(1.0091803e-05 -0.00067337642 -2.4691782e-20)
(0.00086174943 0.0017840213 1.5266765e-19)
(0.00091431399 0.0017141911 2.4260189e-19)
(0.00096179547 0.0016443134 -2.7165739e-20)
(0.0010044561 0.001574594 -2.5914172e-20)
(0.001042551 0.001505217 5.4457847e-20)
(0.0010763273 0.0014363457 1.3164124e-19)
(0.0011060241 0.0013681251 1.2463035e-19)
(0.0011318721 0.001300683 5.8837668e-21)
(0.0011540929 0.0012341312 -3.7803943e-20)
(0.0011728998 0.0011685673 4.0117962e-20)
(0.0011884971 0.0011040756 1.1600324e-19)
(0.0012010801 0.0010407286 1.1816902e-19)
(0.0012108357 0.00097858786 1.8913605e-20)
(0.001217942 0.00091770483 1.7306404e-20)
(0.001222569 0.00085812217 1.515068e-20)
(0.0012248782 0.00079987421 6.9511015e-20)
(0.0012250233 0.00074298807 9.9066752e-20)
(0.00122315 0.00068748416 -2.1015136e-21)
(0.0012193969 0.00063337681 3.6860243e-21)
(0.0012138951 0.00058067524 8.5276111e-21)
(0.0012067686 0.00052938363 1.7532191e-20)
(0.0011981348 0.00047950194 3.8015801e-20)
(0.0011881048 0.00043102661 1.5308944e-21)
(0.0011767833 0.00038395007 -1.703715e-20)
(0.0011642691 0.00033826234 2.5990984e-20)
(0.0011506554 0.00029395039 2.5995337e-20)
(0.0011360298 0.00025099925 1.7756993e-21)
(0.0011204754 0.00020939154 -7.2848298e-21)
(0.0011040695 0.00016910852 1.1400839e-20)
(0.0010868845 0.00013013037 -9.7153822e-21)
(0.0010689889 9.2435219e-05 -7.3431429e-21)
(0.001050449 5.6000276e-05 6.1224842e-20)
(0.0010313241 2.0800641e-05 5.6640114e-20)
(0.0010116697 -1.3186471e-05 1.4792275e-21)
(0.00099153915 -4.5984425e-05 -9.6311766e-21)
(0.00097098081 -7.7620296e-05 -1.9284516e-21)
(0.0009500413 -0.00010811884 4.7686516e-20)
(0.0009287637 -0.00013750563 4.5091083e-20)
(0.000907188 -0.00016580606 -2.5164415e-20)
(0.00088535142 -0.00019304558 -3.7358361e-20)
(0.00086328859 -0.00021924982 3.5231045e-21)
(0.00084103175 -0.00024444385 4.466445e-20)
(0.00081861071 -0.00026865254 1.9488604e-20)
(0.00079605304 -0.0002919005 -4.6950368e-21)
(0.00077338445 -0.00031421226 -1.1643326e-20)
(0.00075062858 -0.00033561143 2.6417964e-22)
(0.00072780713 -0.00035612135 2.744296e-20)
(0.00070494026 -0.00037576508 2.5593818e-20)
(0.00068204644 -0.00039456506 1.125764e-21)
(0.00065914257 -0.00041254306 -6.3353464e-21)
(0.00063624419 -0.00042972025 -1.1730917e-20)
(0.00061336546 -0.00044611756 -1.649876e-21)
(0.00059051931 -0.00046175492 2.0024207e-20)
(0.00056771757 -0.00047665202 2.8769354e-21)
(0.00054497075 -0.00049082764 -4.4566745e-21)
(0.00052228844 -0.00050430007 1.1809924e-20)
(0.00049967939 -0.00051708692 1.3531426e-20)
(0.00047715136 -0.00052920521 1.8475575e-20)
(0.00045471125 -0.00054067143 -8.6173672e-21)
(0.00043236527 -0.00055150119 -1.4738676e-20)
(0.00041011885 -0.0005617095 -1.4620514e-21)
(0.00038797667 -0.00057131096 -1.3397774e-20)
(0.00036594297 -0.00058031928 1.2112089e-21)
(0.00034402139 -0.00058874774 5.4623977e-21)
(0.00032221501 -0.00059660876 -4.0736008e-21)
(0.00030052636 -0.00060391443 4.0145678e-21)
(0.00027895762 -0.00061067601 -8.1651497e-21)
(0.00025751062 -0.00061690418 6.2167108e-21)
(0.00023618671 -0.00062260909 9.5714287e-21)
(0.00021498702 -0.00062780015 9.5114398e-22)
(0.00019391243 -0.00063248618 9.8172394e-21)
(0.00017296345 -0.00063667567 8.4102229e-21)
(0.00015214035 -0.00064037621 7.6756762e-21)
(0.00013144328 -0.0006435953 4.444419e-21)
(0.00011087222 -0.00064634004 8.6654068e-21)
(9.0427619e-05 -0.00064861799 6.5033691e-21)
(7.0109742e-05 -0.00065043864 -3.8255622e-21)
(4.9910574e-05 -0.00065181627 -7.5335095e-21)
(2.9814353e-05 -0.00065277382 -1.8210435e-20)
(9.8691899e-06 -0.0006533325 -2.6707416e-20)
(0.00079429351 0.0017186691 2.2224715e-20)
(0.00084660549 0.0016534225 1.1239948e-19)
(0.00089405252 0.0015879477 -3.1161951e-20)
(0.00093687441 0.0015224508 -2.1247142e-19)
(0.00097530545 0.0014571173 -9.0429766e-20)
(0.0010095736 0.0013921128 2.227505e-20)
(0.0010399005 0.001327585 -8.6189141e-21)
(0.0010665004 0.0012636654 -9.9345182e-21)
(0.0010895803 0.0012004698 -1.4424121e-19)
(0.0011093396 0.0011381004 -2.9292374e-20)
(0.0011259702 0.0010766459 5.3785644e-20)
(0.0011396561 0.001016184 5.5321825e-20)
(0.0011505737 0.00095678111 -2.7086791e-20)
(0.0011588919 0.00089849405 -1.1846756e-19)
(0.0011647718 0.0008413706 -2.3628847e-20)
(0.0011683673 0.0007854504 5.1736596e-20)
(0.001169825 0.00073076586 1.9336215e-20)
(0.0011692845 0.00067734256 -6.377073e-20)
(0.0011668785 0.00062520004 -7.4538756e-20)
(0.0011627327 0.00057435242 -2.4246221e-20)
(0.0011569669 0.00052480902 3.5514645e-20)
(0.0011496942 0.0004765745 1.7702383e-20)
(0.0011410221 0.00042964993 -2.554281e-20)
(0.0011310519 0.00038403262 -3.3544696e-20)
(0.0011198798 0.00033971677 7.6546717e-21)
(0.0011075963 0.00029669387 4.0834967e-20)
(0.0010942868 0.00025495293 -2.656059e-21)
(0.0010800317 0.00021448078 -2.0730648e-20)
(0.0010649075 0.00017526228 -2.9310999e-20)
(0.0010489859 0.00013728076 -7.5986665e-21)
(0.0010323337 0.00010051878 3.5507911e-20)
(0.0010150127 6.495788e-05 2.9264299e-20)
(0.00099708524 3.057563e-05 2.0455951e-20)
(0.00097860867 -2.6492628e-06 -8.7832986e-21)
(0.00095963048 -3.4737283e-05 -4.8572986e-21)
(0.00094019987 -6.5710112e-05 2.6844293e-21)
(0.00092036455 -9.55906e-05 1.715587e-20)
(0.00090016686 -0.00012440193 8.3327536e-21)
(0.0008796467 -0.00015216706 -2.0074923e-20)
(0.00085884134 -0.00017890901 -3.554443e-20)
(0.00083778546 -0.00020465122 -6.6917792e-21)
(0.00081651143 -0.00022941658 2.1589971e-20)
(0.0007950494 -0.00025322793 3.458819e-21)
(0.00077342725 -0.00027610797 1.8579334e-21)
(0.00075167093 -0.00029807931 2.1991226e-21)
(0.00072980446 -0.00031916393 1.2594757e-20)
(0.0007078501 -0.00033938351 1.8411757e-20)
(0.00068582839 -0.00035875937 -6.6422414e-21)
(0.00066375826 -0.00037731259 1.4346445e-21)
(0.00064165716 -0.00039506361 1.1329141e-20)
(0.00061954118 -0.00041203221 5.431698e-21)
(0.00059742503 -0.00042823791 -8.1978347e-21)
(0.00057532214 -0.00044369967 -4.71175e-21)
(0.00055324489 -0.000458436 3.7010993e-21)
(0.00053120448 -0.00047246462 -1.0204887e-21)
(0.00050921119 -0.00048580287 1.8680601e-20)
(0.00048727426 -0.00049846729 1.4487332e-20)
(0.00046540204 -0.00051047419 1.4816832e-20)
(0.00044360211 -0.00052183915 -2.4363212e-21)
(0.00042188112 -0.00053257701 -6.3057618e-21)
(0.00040024521 -0.00054270211 1.2104516e-20)
(0.00037869986 -0.00055222834 -1.4258656e-20)
(0.00035724974 -0.00056116882 -1.5628403e-20)
(0.00033589909 -0.00056953615 4.3544032e-21)
(0.00031465159 -0.00057734238 5.8804575e-21)
(0.00029351045 -0.00058459889 8.2784777e-21)
(0.00027247848 -0.00059131663 -8.1038982e-21)
(0.00025155802 -0.0005975058 -8.4453221e-21)
(0.00023075105 -0.0006031762 1.0870839e-20)
(0.00021005923 -0.00060833682 1.2924268e-20)
(0.00018948403 -0.00061299628 1.6190598e-20)
(0.00016902654 -0.00061716259 8.488165e-21)
(0.00014868764 -0.00062084323 -2.2435925e-21)
(0.00012846809 -0.0006240454 5.2905561e-21)
(0.00010836833 -0.00062677598 -4.5193696e-22)
(8.8389274e-05 -0.00062904247 -3.4661316e-21)
(6.8531767e-05 -0.00063085417 2.3541783e-21)
(4.8788534e-05 -0.00063222518 -4.1558432e-23)
(2.914469e-05 -0.00063317836 -6.6604643e-21)
(9.6476322e-06 -0.00063373474 -1.9161781e-20)
(0.00073139453 0.0016545876 5.9602616e-21)
(0.0007832839 0.0015936894 -1.3338621e-19)
(0.00083052555 0.0015324022 -2.8844418e-20)
(0.0008733379 0.0014709318 -2.1146508e-20)
(0.00091193551 0.0014094631 2.96424e-22)
(0.00094652812 0.0013481633 -7.6458156e-21)
(0.00097732014 0.0012871816 -1.9041228e-19)
(0.0010045104 0.001226652 -4.0365762e-20)
(0.0010282913 0.0011666934 -1.4333294e-20)
(0.0010488492 0.0011074113 -6.3723207e-21)
(0.0010663636 0.0010488983 1.8499171e-20)
(0.0010810075 0.00099123595 -1.252294e-19)
(0.0010929471 0.00093449505 -6.1948449e-20)
(0.0011023417 0.00087873691 -1.3217529e-20)
(0.0011093441 0.0008240137 5.9914345e-20)
(0.0011141005 0.0007703698 8.0993928e-21)
(0.0011167504 0.00071784213 -1.5254435e-19)
(0.001117427 0.00066646094 -5.8470194e-20)
(0.001116257 0.0006162504 2.6857273e-21)
(0.0011133614 0.00056722914 2.4685588e-20)
(0.001108855 0.00051941092 7.5536246e-21)
(0.0011028467 0.00047280502 -9.65503e-20)
(0.00109544 0.00042741648 -3.119621e-20)
(0.0010867334 0.00038324712 3.3414801e-20)
(0.0010768195 0.00034029509 -7.2876828e-22)
(0.0010657862 0.00029855591 -1.56023e-20)
(0.0010537169 0.00025802227 -8.7572369e-20)
(0.0010406899 0.00021868485 -2.7214516e-20)
(0.0010267795 0.00018053267 3.7779044e-22)
(0.0010120558 0.00014355195 1.2541099e-21)
(0.00099658509 0.0001077281 7.7979538e-21)
(0.00098042915 7.3045751e-05 -7.7415831e-20)
(0.00096364438 3.9488756e-05 -3.5007731e-20)
(0.00094628781 7.0358886e-06 2.1476975e-20)
(0.00092841293 -2.4331302e-05 -3.4714665e-21)
(0.00091006581 -5.4630031e-05 -2.9745285e-20)
(0.00089129138 -8.3881048e-05 -6.9860741e-20)
(0.00087213247 -0.0001121049 -2.0444817e-20)
(0.00085262899 -0.00013932221 2.0616299e-21)
(0.00083281822 -0.00016555391 -3.234128e-20)
(0.00081273489 -0.00019082102 -1.2254933e-20)
(0.00079241145 -0.00021514438 -5.37642e-20)
(0.00077187801 -0.00023854501 -2.0630275e-20)
(0.0007511628 -0.00026104375 1.5067733e-20)
(0.00073029204 -0.0002826612 -1.3815891e-20)
(0.00070928996 -0.00030341785 -1.6502885e-20)
(0.00068817916 -0.00032333373 -3.9100866e-20)
(0.00066698065 -0.00034242864 -2.8506797e-20)
(0.00064571376 -0.00036072211 6.9406839e-21)
(0.00062439629 -0.00037823333 4.9990399e-21)
(0.00060304475 -0.00039498072 1.2100567e-21)
(0.00058167443 -0.00041098262 -3.1445744e-20)
(0.00056029927 -0.0004262568 -2.369515e-20)
(0.00053893212 -0.00044082078 1.2527928e-22)
(0.00051758474 -0.00045469106 -9.5702787e-21)
(0.00049626789 -0.00046788415 -7.2262313e-21)
(0.0004749914 -0.00048041566 -2.7157818e-20)
(0.00045376414 -0.000492301 -5.4290205e-21)
(0.00043259431 -0.00050355484 -5.54492e-22)
(0.00041148921 -0.00051419146 -1.2362984e-20)
(0.00039045542 -0.00052422436 -3.3532284e-21)
(0.00036949886 -0.00053366683 -3.4155633e-20)
(0.00034862494 -0.0005425314 -1.8833868e-20)
(0.00032783851 -0.00055082996 -7.4882357e-21)
(0.00030714376 -0.00055857418 -8.9466623e-21)
(0.00028654446 -0.00056577481 -9.0048047e-21)
(0.00026604394 -0.00057244242 -2.1690439e-20)
(0.0002456451 -0.00057858673 -1.272366e-20)
(0.00022535056 -0.00058421714 -1.7101312e-21)
(0.00020516248 -0.00058934242 -5.4103338e-21)
(0.00018508285 -0.00059397077 -4.646966e-21)
(0.00016511332 -0.00059810982 -1.2140425e-20)
(0.0001452553 -0.00060176703 -1.3426403e-20)
(0.00012551001 -0.00060494909 -1.0170714e-20)
(0.00010587849 -0.00060766288 -1.1437505e-20)
(8.6362217e-05 -0.00060991563 -1.1397326e-20)
(6.6962514e-05 -0.00061171662 -6.1808132e-21)
(4.7672691e-05 -0.0006130796 -6.1052074e-21)
(2.8478648e-05 -0.0006140275 -7.0570183e-21)
(9.427224e-06 -0.00061458101 -1.4481945e-20)
(0.00067280882 0.0015918801 2.0654217e-19)
(0.00072412579 0.0015350997 -2.9440304e-20)
(0.00077101002 0.0014777888 -1.1531543e-19)
(0.00081365985 0.0014201509 -9.2124148e-20)
(0.00085227107 0.0013623701 -8.6941308e-20)
(0.00088703596 0.0013046134 -5.3287653e-20)
(0.00091814274 0.001247031 -1.2329459e-19)
(0.00094577507 0.0011897582 -7.2865098e-20)
(0.00097011164 0.001132916 -3.9975731e-20)
(0.00099132584 0.0010766123 -8.8730286e-20)
(0.0010095853 0.0010209428 -2.6047705e-20)
(0.0010250521 0.00096599225 -4.8581018e-20)
(0.0010378825 0.00091183496 6.2238137e-21)
(0.0010482266 0.00085853579 -7.2175583e-21)
(0.0010562289 0.00080615096 -5.1899662e-20)
(0.0010620278 0.00075472871 -3.3914508e-20)
(0.0010657559 0.00070431004 -2.0144641e-20)
(0.0010675398 0.00065492917 4.4598644e-20)
(0.0010675007 0.00060661457 -1.5860627e-20)