/*--------------------------------*- C++ -*----------------------------------*\
| =========                 |                                                 |
| \\      /  F ield         | OpenFOAM: The Open Source CFD Toolbox           |
|  \\    /   O peration     | Version:  2106                                  |
|   \\  /    A nd           | Website:  www.openfoam.com                      |
|    \\/     M anipulation  |                                                 |
\*---------------------------------------------------------------------------*/
FoamFile
{
    version     2.0;
    format      ascii;
    arch        "LSB;label=32;scalar=64";
    class       volScalarField;
    location    "0.034";
    object      p;
}
// * * * * * * * * * * * * * * * * * * * * * * * * * * * * * * * * * * * * * //

dimensions      [1 -1 -2 0 0 0 0];

internalField   nonuniform List<scalar> 
65536
(
-5.3047557
-5.3015632
-5.2951801
-5.2856102
-5.2728593
-5.256935
-5.2378469
-5.2156064
-5.1902268
-5.1617235
-5.1301133
-5.0954154
-5.0576506
-5.0168414
-4.9730124
-4.9261898
-4.8764018
-4.8236783
-4.7680508
-4.7095528
-4.6482193
-4.5840872
-4.517195
-4.4475829
-4.3752926
-4.3003675
-4.2228527
-4.1427948
-4.0602417
-3.9752432
-3.8878503
-3.7981155
-3.7060927
-3.6118374
-3.515406
-3.4168567
-3.3162487
-3.2136425
-3.1090998
-3.0026835
-2.8944577
-2.7844875
-2.672839
-2.5595795
-2.4447771
-2.328501
-2.2108212
-2.0918085
-1.9715347
-1.8500721
-1.7274939
-1.603874
-1.4792869
-1.3538076
-1.2275118
-1.1004756
-0.97277542
-0.84448838
-0.71569178
-0.58646326
-0.45688072
-0.32702231
-0.19696634
-0.06679115
0.06342475
0.19360277
0.32366444
0.45353133
0.58312513
0.71236769
0.84118105
0.96948755
1.0972098
1.2242708
1.3505939
1.4761029
1.6007221
1.7243764
1.8469913
1.9684927
2.0888075
2.2078631
2.3255877
2.4419103
2.5567608
2.67007
2.7817697
2.8917923
3.0000717
3.1065426
3.2111409
3.3138034
3.4144684
3.5130752
3.6095643
3.7038778
3.7959587
3.8857516
3.9732025
4.0582586
4.1408688
4.2209832
4.2985538
4.3735337
4.4458779
4.5155428
4.5824865
4.6466686
4.7080506
4.7665956
4.8222682
4.8750351
4.9248644
4.9717262
5.0155923
5.0564363
5.0942337
5.1289617
5.1605994
5.1891278
5.2145297
5.23679
5.2558951
5.2718336
5.2845959
5.2941744
5.3005632
5.3037586
5.3037586
5.3005632
5.2941744
5.2845959
5.2718336
5.2558951
5.23679
5.2145297
5.1891278
5.1605994
5.1289617
5.0942337
5.0564363
5.0155923
4.9717262
4.9248644
4.8750351
4.8222682
4.7665956
4.7080506
4.6466686
4.5824865
4.5155428
4.4458779
4.3735337
4.2985538
4.2209832
4.1408688
4.0582586
3.9732025
3.8857516
3.7959587
3.7038778
3.6095643
3.5130752
3.4144684
3.3138034
3.2111409
3.1065426
3.0000717
2.8917923
2.7817697
2.6700701
2.5567608
2.4419103
2.3255877
2.2078631
2.0888075
1.9684927
1.8469913
1.7243764
1.6007221
1.4761029
1.3505939
1.2242708
1.0972098
0.96948756
0.84118106
0.71236769
0.58312514
0.45353134
0.32366444
0.19360278
0.063424757
-0.066791143
-0.19696634
-0.3270223
-0.45688072
-0.58646326
-0.71569178
-0.84448838
-0.97277541
-1.1004755
-1.2275118
-1.3538076
-1.4792869
-1.603874
-1.7274939
-1.8500721
-1.9715347
-2.0918085
-2.2108212
-2.328501
-2.4447771
-2.5595795
-2.672839
-2.7844875
-2.8944577
-3.0026835
-3.1090998
-3.2136425
-3.3162487
-3.4168567
-3.515406
-3.6118374
-3.7060927
-3.7981155
-3.8878503
-3.9752432
-4.0602418
-4.1427948
-4.2228528
-4.3003675
-4.3752926
-4.4475829
-4.517195
-4.5840872
-4.6482193
-4.7095528
-4.7680508
-4.8236783
-4.8764019
-4.9261899
-4.9730124
-5.0168414
-5.0576506
-5.0954155
-5.1301134
-5.1617235
-5.1902269
-5.2156064
-5.2378469
-5.256935
-5.2728593
-5.2856102
-5.2951801
-5.3015632
-5.3047557
-5.3080342
-5.3048397
-5.2984526
-5.2888768
-5.276118
-5.2601838
-5.2410838
-5.2188295
-5.1934342
-5.1649131
-5.1332833
-5.0985639
-5.0607755
-5.019941
-4.9760848
-4.9292331
-4.8794142
-4.8266579
-4.7709959
-4.7124615
-4.65109
-4.586918
-4.5199843
-4.4503289
-4.3779937
-4.3030221
-4.2254592
-4.1453516
-4.0627473
-3.977696
-3.8902488
-3.8004583
-3.7083784
-3.6140645
-3.5175733
-3.4189629
-3.3182924
-3.2156226
-3.111015
-3.0045328
-2.8962398
-2.7862014
-2.6744837
-2.5611539
-2.4462804
-2.3299322
-2.2121795
-2.093093
-1.9727447
-1.8512068
-1.7285528
-1.6048563
-1.4801921
-1.3546351
-1.2282612
-1.1011463
-0.97336716
-0.84500079
-0.71612455
-0.58681615
-0.45715353
-0.32721487
-0.19707853
-0.066822981
0.063473286
0.19373166
0.32387358
0.45382058
0.5834943
0.71281654
0.84170929
0.97009484
1.0978958
1.225035
1.3514358
1.477022
1.6017179
1.7254483
1.8481385
1.9697146
2.0901033
2.209232
2.3270289
2.4434229
2.5583439
2.6717226
2.7834906
2.8935807
3.0019265
3.1084626
3.2131248
3.3158502
3.4165768
3.5152439
3.611792
3.7061631
3.7983003
3.8881481
3.9756523
4.0607603
4.1434209
4.2235842
4.3012021
4.3762278
4.448616
4.5183234
4.5853078
4.649529
4.7109484
4.769529
4.8252355
4.8780345
4.9278941
4.9747844
5.0186772
5.0595461
5.0973664
5.1321155
5.1637724
5.1923182
5.2177356
5.2400093
5.259126
5.2750742
5.2878443
5.2974286
5.3038213
5.3070186
5.3070186
5.3038213
5.2974286
5.2878443
5.2750742
5.259126
5.2400093
5.2177356
5.1923182
5.1637724
5.1321155
5.0973664
5.0595461
5.0186772
4.9747844
4.9278941
4.8780345
4.8252355
4.769529
4.7109484
4.649529
4.5853078
4.5183234
4.448616
4.3762278
4.3012021
4.2235842
4.1434209
4.0607603
3.9756523
3.8881481
3.7983003
3.7061631
3.611792
3.5152439
3.4165768
3.3158502
3.2131248
3.1084626
3.0019265
2.8935807
2.7834907
2.6717226
2.5583439
2.4434229
2.3270289
2.209232
2.0901033
1.9697146
1.8481385
1.7254483
1.6017179
1.477022
1.3514358
1.225035
1.0978958
0.97009484
0.8417093
0.71281654
0.58349431
0.45382059
0.32387359
0.19373166
0.063473291
-0.066822976
-0.19707853
-0.32721487
-0.45715353
-0.58681614
-0.71612455
-0.84500078
-0.97336715
-1.1011463
-1.2282611
-1.3546351
-1.4801921
-1.6048563
-1.7285528
-1.8512068
-1.9727447
-2.093093
-2.2121795
-2.3299322
-2.4462804
-2.5611539
-2.6744837
-2.7862014
-2.8962398
-3.0045327
-3.111015
-3.2156226
-3.3182924
-3.4189629
-3.5175734
-3.6140645
-3.7083784
-3.8004583
-3.8902488
-3.977696
-4.0627473
-4.1453516
-4.2254592
-4.3030222
-4.3779937
-4.4503289
-4.5199843
-4.5869181
-4.65109
-4.7124615
-4.7709959
-4.8266579
-4.8794143
-4.9292332
-4.9760848
-5.019941
-5.0607756
-5.0985639
-5.1332833
-5.1649131
-5.1934342
-5.2188295
-5.2410839
-5.2601838
-5.276118
-5.2888768
-5.2984526
-5.3048397
-5.3080342
-5.3144868
-5.3112884
-5.3048936
-5.2953061
-5.2825318
-5.2665782
-5.247455
-5.2251736
-5.1997474
-5.1711916
-5.1395234
-5.1047617
-5.0669274
-5.0260432
-4.9821337
-4.935225
-4.8853455
-4.832525
-4.7767953
-4.7181897
-4.6567435
-4.5924935
-4.5254783
-4.4557382
-4.383315
-4.3082522
-4.2305949
-4.1503897
-4.0676849
-3.9825301
-3.8949765
-3.8050767
-3.7128847
-3.618456
-3.5218474
-3.4231169
-3.3223239
-3.2195291
-3.1147942
-3.0081823
-2.8997575
-2.7895851
-2.6777314
-2.5642637
-2.4492503
-2.3327604
-2.2148643
-2.0956329
-1.975138
-1.8534523
-1.7306489
-1.6068019
-1.4819859
-1.3562761
-1.2297483
-1.1024787
-0.97454406
-0.84602147
-0.71698841
-0.58752267
-0.45770229
-0.32760556
-0.19731091
-0.066896906
0.063557822
0.1939746
0.32427477
0.45437977
0.58421113
0.71369056
0.84273997
0.97128153
1.0992377
1.2265314
1.3530858
1.4788245
1.6036718
1.7275524
1.8503916
1.9721152
2.09265
2.2119232
2.329863
2.4463982
2.5614585
2.6749747
2.7868782
2.8971017
3.0055787
3.1122439
3.2170329
3.3198827
3.4207312
3.5195178
3.6161828
3.7106681
3.8029167
3.8928732
3.9804833
4.0656942
4.1484547
4.228715
4.3064266
4.3815429
4.4540187
4.5238102
4.5908756
4.6551744
4.7166679
4.7753192
4.831093
4.8839557
4.9338755
4.9808224
5.0247681
5.0656863
5.1035522
5.1383432
5.1700384
5.1986185
5.2240666
5.2463672
5.2655069
5.2814744
5.2942598
5.3038557
5.3102561
5.3134573
5.3134573
5.3102561
5.3038557
5.2942598
5.2814744
5.2655069
5.2463672
5.2240666
5.1986185
5.1700383
5.1383432
5.1035522
5.0656863
5.0247681
4.9808224
4.9338755
4.8839557
4.831093
4.7753192
4.7166679
4.6551744
4.5908756
4.5238102
4.4540187
4.3815429
4.3064266
4.228715
4.1484547
4.0656942
3.9804833
3.8928732
3.8029167
3.7106681
3.6161828
3.5195178
3.4207312
3.3198827
3.217033
3.1122439
3.0055788
2.8971017
2.7868782
2.6749747
2.5614585
2.4463982
2.329863
2.2119232
2.09265
1.9721152
1.8503916
1.7275524
1.6036718
1.4788245
1.3530858
1.2265314
1.0992377
0.97128153
0.84273997
0.71369056
0.58421113
0.45437977
0.32427477
0.1939746
0.063557823
-0.066896905
-0.19731091
-0.32760556
-0.45770229
-0.58752267
-0.71698841
-0.84602147
-0.97454406
-1.1024787
-1.2297483
-1.3562761
-1.4819859
-1.6068019
-1.7306489
-1.8534523
-1.975138
-2.0956329
-2.2148643
-2.3327604
-2.4492503
-2.5642636
-2.6777314
-2.7895851
-2.8997575
-3.0081823
-3.1147942
-3.2195291
-3.3223239
-3.4231169
-3.5218474
-3.618456
-3.7128847
-3.8050767
-3.8949765
-3.9825301
-4.0676849
-4.1503897
-4.2305949
-4.3082522
-4.383315
-4.4557382
-4.5254783
-4.5924935
-4.6567435
-4.7181897
-4.7767953
-4.8325251
-4.8853455
-4.9352251
-4.9821337
-5.0260432
-5.0669274
-5.1047617
-5.1395234
-5.1711916
-5.1997474
-5.2251736
-5.247455
-5.2665782
-5.2825318
-5.2953061
-5.3048936
-5.3112884
-5.3144868
-5.3241278
-5.3209236
-5.3145172
-5.3049124
-5.2921149
-5.2761324
-5.2569745
-5.2346528
-5.2091805
-5.180573
-5.1488473
-5.1140226
-5.0761198
-5.0351615
-4.9911723
-4.9441786
-4.8942087
-4.8412924
-4.7854617
-4.7267498
-4.6651922
-4.6008257
-4.5336889
-4.4638223
-4.3912678
-4.3160688
-4.2382706
-4.15792
-4.0750651
-3.9897558
-3.9020433
-3.8119803
-3.7196211
-3.625021
-3.528237
-3.4293273
-3.3283514
-3.2253699
-3.1204449
-3.0136394
-2.9050178
-2.7946453
-2.6825885
-2.5689147
-2.4536925
-2.3369911
-2.2188809
-2.0994329
-1.9787192
-1.8568124
-1.7337859
-1.609714
-1.4846713
-1.3587331
-1.2319755
-1.1044748
-0.97630775
-0.84755173
-0.71828431
-0.58858342
-0.45852727
-0.32819427
-0.197663
-0.067012166
0.063679444
0.19433302
0.32486977
0.45521097
0.58527802
0.71499249
0.84427613
0.97305098
1.1012394
1.228764
1.355548
1.4815149
1.6065887
1.7306939
1.8537559
1.9757003
2.0964536
2.215943
2.3340966
2.4508429
2.5661118
2.6798336
2.7919399
2.9023631
3.0110366
3.1178949
3.2228737
3.3259096
3.4269407
3.525906
3.6227459
3.7174022
3.8098177
3.8999368
3.9877054
4.0730704
4.1559805
4.2363858
4.314238
4.38949
4.4620967
4.5320144
4.5992009
4.6636158
4.7252204
4.7839776
4.8398521
4.8928103
4.9428202
4.9898518
5.0338769
5.0748689
5.1128032
5.147657
5.1794093
5.208041
5.233535
5.2558758
5.2750501
5.2910464
5.3038549
5.313468
5.31988
5.323087
5.323087
5.31988
5.313468
5.3038549
5.2910464
5.2750501
5.2558758
5.233535
5.208041
5.1794093
5.147657
5.1128032
5.0748689
5.0338769
4.9898518
4.9428202
4.8928103
4.8398521
4.7839776
4.7252204
4.6636158
4.5992009
4.5320144
4.4620967
4.38949
4.314238
4.2363858
4.1559805
4.0730704
3.9877054
3.8999368
3.8098177
3.7174022
3.6227459
3.525906
3.4269407
3.3259096
3.2228737
3.1178949
3.0110366
2.9023631
2.7919399
2.6798336
2.5661118
2.4508429
2.3340966
2.215943
2.0964536
1.9757003
1.8537559
1.7306939
1.6065887
1.4815149
1.355548
1.228764
1.1012394
0.97305098
0.84427612
0.71499248
0.58527802
0.45521097
0.32486977
0.19433302
0.063679441
-0.06701217
-0.197663
-0.32819427
-0.45852728
-0.58858343
-0.71828431
-0.84755173
-0.97630775
-1.1044748
-1.2319755
-1.3587331
-1.4846713
-1.609714
-1.7337859
-1.8568124
-1.9787192
-2.0994329
-2.2188809
-2.3369911
-2.4536925
-2.5689147
-2.6825885
-2.7946453
-2.9050178
-3.0136394
-3.1204449
-3.2253699
-3.3283514
-3.4293273
-3.528237
-3.625021
-3.7196211
-3.8119804
-3.9020433
-3.9897558
-4.0750651
-4.15792
-4.2382706
-4.3160688
-4.3912678
-4.4638223
-4.533689
-4.6008257
-4.6651922
-4.7267498
-4.7854617
-4.8412925
-4.8942087
-4.9441787
-4.9911723
-5.0351615
-5.0761198
-5.1140226
-5.1488473
-5.180573
-5.2091805
-5.2346528
-5.2569746
-5.2761324
-5.2921149
-5.3049124
-5.3145172
-5.3209236
-5.3241278
-5.3369733
-5.3337614
-5.3273395
-5.3177115
-5.3048832
-5.2888623
-5.2696583
-5.2472827
-5.2217491
-5.1930726
-5.1612706
-5.126362
-5.0883678
-5.0473108
-5.0032156
-4.9561087
-4.9060184
-4.8529746
-4.7970092
-4.7381559
-4.6764498
-4.6119282
-4.5446296
-4.4745945
-4.401865
-4.3264847
-4.2484989
-4.1679545
-4.0848997
-3.9993846
-3.9114606
-3.8211803
-3.7285982
-3.6337699
-3.5367524
-3.4376039
-3.3363843
-3.2331542
-3.1279759
-3.0209126
-2.9120287
-2.8013898
-2.6890624
-2.5751141
-2.4596136
-2.3426304
-2.224235
-2.1044985
-1.9834932
-1.8612919
-1.7379683
-1.6135967
-1.4882519
-1.3620096
-1.2349457
-1.107137
-0.97866033
-0.84959326
-0.72001356
-0.58999935
-0.45962903
-0.32898118
-0.1981346
-0.067168174
0.063839114
0.19480826
0.32566029
0.45631628
0.58669745
0.71672515
0.84632097
0.97540675
1.1039046
1.2317371
1.3588272
1.4850981
1.6104737
1.7348785
1.8582374
1.980476
2.1015207
2.2212983
2.3397369
2.4567648
2.5723116
2.6863076
2.7986842
2.9093735
3.0183089
3.1254248
3.2306565
3.3339407
3.4352151
3.5344188
3.6314919
3.7263761
3.8190141
3.9093502
3.99733
4.0829005
4.1660101
4.2466089
4.3246483
4.4000814
4.4728627
4.5429485
4.6102966
4.6748664
4.7366191
4.7955176
4.8515264
4.9046118
4.9547419
5.0018865
5.0460174
5.0871079
5.1251333
5.1600708
5.1918994
5.2205999
5.2461551
5.2685496
5.28777
5.3038046
5.3166439
5.3262801
5.3327075
5.3359222
5.3359222
5.3327075
5.3262801
5.3166439
5.3038046
5.28777
5.2685496
5.2461551
5.2205999
5.1918994
5.1600708
5.1251333
5.0871079
5.0460174
5.0018865
4.9547419
4.9046118
4.8515264
4.7955176
4.7366191
4.6748664
4.6102966
4.5429485
4.4728627
4.4000814
4.3246483
4.2466089
4.1660101
4.0829005
3.99733
3.9093502
3.8190141
3.7263761
3.6314919
3.5344188
3.4352151
3.3339407
3.2306565
3.1254248
3.0183089
2.9093735
2.7986842
2.6863076
2.5723116
2.4567648
2.3397369
2.2212983
2.1015207
1.980476
1.8582374
1.7348785
1.6104737
1.4850981
1.3588272
1.2317371
1.1039046
0.97540674
0.84632096
0.71672514
0.58669744
0.45631628
0.32566028
0.19480826
0.063839107
-0.067168182
-0.19813461
-0.32898119
-0.45962904
-0.58999936
-0.72001357
-0.84959327
-0.97866034
-1.107137
-1.2349457
-1.3620096
-1.4882519
-1.6135967
-1.7379683
-1.861292
-1.9834932
-2.1044985
-2.224235
-2.3426304
-2.4596136
-2.5751141
-2.6890624
-2.8013898
-2.9120287
-3.0209126
-3.1279759
-3.2331542
-3.3363843
-3.4376039
-3.5367524
-3.6337699
-3.7285982
-3.8211803
-3.9114606
-3.9993846
-4.0848997
-4.1679545
-4.2484989
-4.3264847
-4.401865
-4.4745945
-4.5446296
-4.6119282
-4.6764498
-4.7381559
-4.7970092
-4.8529746
-4.9060184
-4.9561087
-5.0032156
-5.0473108
-5.0883678
-5.126362
-5.1612706
-5.1930726
-5.2217491
-5.2472827
-5.2696583
-5.2888623
-5.3048832
-5.3177115
-5.3273395
-5.3337614
-5.3369733
-5.3530313
-5.3498097
-5.3433686
-5.3337117
-5.3208449
-5.3047758
-5.2855141
-5.2630714
-5.2374611
-5.2086985
-5.1768009
-5.1417875
-5.1036792
-5.0624989
-5.0182712
-4.9710228
-4.920782
-4.8675788
-4.8114453
-4.7524151
-4.6905236
-4.625808
-4.5583071
-4.4880615
-4.4151134
-4.3395065
-4.2612862
-4.1804995
-4.097195
-4.0114227
-3.9232342
-3.8326824
-3.7398218
-3.6447082
-3.5473987
-3.4479519
-3.3464277
-3.2428869
-3.137392
-3.0300065
-2.9207948
-2.8098228
-2.6971572
-2.5828658
-2.4670175
-2.349682
-2.23093
-2.1108329
-1.9894632
-1.8668938
-1.7431987
-1.6184524
-1.4927301
-1.3661074
-1.2386608
-1.110467
-0.98160328
-0.85214735
-0.72217726
-0.59177134
-0.46100823
-0.32996678
-0.19872599
-0.067365007
0.064036953
0.19540065
0.32664685
0.45769642
0.58847031
0.71888965
0.84887579
0.97835034
1.1072352
1.2354526
1.3629253
1.4895764
1.6153295
1.7401088
1.863839
1.9864455
2.1078544
2.2279925
2.3467874
2.4641674
2.5800618
2.6944007
2.8071152
2.9181374
3.0274004
3.1348383
3.2403863
3.3439809
3.4455597
3.5450615
3.6424263
3.7375955
3.8305118
3.9211192
4.0093632
4.0951906
4.1785498
4.2593905
4.3376642
4.4133237
4.4863234
4.5566195
4.6241696
4.6889332
4.7508711
4.8099462
4.866123
4.9193676
4.969648
5.016934
5.0611972
5.1024109
5.1405503
5.1755925
5.2075165
5.236303
5.2619348
5.2843964
5.3036744
5.3197571
5.3326348
5.3422999
5.3487466
5.3519709
5.3519709
5.3487466
5.3422999
5.3326348
5.3197571
5.3036744
5.2843964
5.2619348
5.236303
5.2075165
5.1755925
5.1405503
5.1024108
5.0611972
5.016934
4.969648
4.9193676
4.866123
4.8099462
4.7508711
4.6889331
4.6241696
4.5566195
4.4863234
4.4133237
4.3376642
4.2593906
4.1785498
4.0951906
4.0093632
3.9211192
3.8305118
3.7375955
3.6424263
3.5450615
3.4455597
3.3439809
3.2403863
3.1348383
3.0274004
2.9181374
2.8071153
2.6944007
2.5800618
2.4641674
2.3467874
2.2279925
2.1078544
1.9864455
1.863839
1.7401088
1.6153295
1.4895764
1.3629253
1.2354526
1.1072352
0.97835033
0.84887579
0.71888964
0.5884703
0.45769641
0.32664684
0.19540064
0.064036943
-0.067365018
-0.198726
-0.32996679
-0.46100825
-0.59177136
-0.72217727
-0.85214737
-0.98160329
-1.110467
-1.2386608
-1.3661074
-1.4927301
-1.6184524
-1.7431988
-1.8668938
-1.9894632
-2.1108329
-2.23093
-2.349682
-2.4670175
-2.5828658
-2.6971572
-2.8098228
-2.9207948
-3.0300065
-3.137392
-3.2428869
-3.3464276
-3.4479519
-3.5473987
-3.6447082
-3.7398218
-3.8326824
-3.9232342
-4.0114227
-4.097195
-4.1804995
-4.2612862
-4.3395065
-4.4151134
-4.4880615
-4.5583071
-4.625808
-4.6905236
-4.7524151
-4.8114453
-4.8675788
-4.9207819
-4.9710228
-5.0182712
-5.0624989
-5.1036792
-5.1417875
-5.1768009
-5.2086985
-5.2374611
-5.2630714
-5.2855141
-5.3047758
-5.3208449
-5.3337117
-5.3433686
-5.3498097
-5.3530313
-5.3723108
-5.3690777
-5.3626134
-5.3529218
-5.3400088
-5.3238819
-5.304551
-5.2820277
-5.2563253
-5.2274593
-5.1954471
-5.1603078
-5.1220625
-5.0807342
-5.0363475
-4.9889292
-4.9385077
-4.8851133
-4.8287779
-4.7695354
-4.7074213
-4.642473
-4.5747293
-4.504231
-4.4310204
-4.3551414
-4.2766396
-4.1955622
-4.1119579
-4.0258769
-3.9373709
-3.8464931
-3.7532981
-3.657842
-3.5601821
-3.4603772
-3.3584872
-3.2545735
-3.1486986
-3.0409261
-2.931321
-2.8199491
-2.7068775
-2.5921742
-2.4759084
-2.3581499
-2.2389698
-2.1184398
-1.9966325
-1.8736212
-1.7494802
-1.624284
-1.4981083
-1.3710291
-1.2431228
-1.1144667
-0.98513831
-0.85521551
-0.72477668
-0.59390045
-0.46266574
-0.33115167
-0.19943756
-0.067602829
0.064273021
0.19611046
0.32782997
0.45935211
0.59059757
0.72148719
0.85194202
0.98188338
1.1112329
1.2399126
1.3678448
1.4949524
1.6211587
1.7463877
1.8705638
1.9936121
2.1154585
2.2360294
2.3552522
2.473055
2.5893668
2.7041175
2.8172379
2.9286598
3.0383161
3.1461407
3.2520686
3.3560361
3.4579804
3.5578402
3.6555553
3.7510668
3.8443173
3.9352505
4.0238118
4.1099478
4.1936067
4.274738
4.353293
4.4292244
4.5024864
4.5730351
4.6408279
4.705824
4.7679844
4.8272717
4.8836502
4.937086
4.987547
5.0350028
5.0794248
5.1207865
5.1590628
5.1942308
5.2262694
5.2551592
5.280883
5.3034252
5.3227723
5.3389127
5.3518367
5.3615365
5.3680063
5.3712421
5.3712421
5.3680063
5.3615365
5.3518367
5.3389127
5.3227723
5.3034252
5.280883
5.2551592
5.2262694
5.1942308
5.1590628
5.1207865
5.0794248
5.0350028
4.987547
4.937086
4.8836502
4.8272717
4.7679844
4.705824
4.6408279
4.5730351
4.5024864
4.4292244
4.353293
4.274738
4.1936067
4.1099478
4.0238118
3.9352505
3.8443173
3.7510668
3.6555553
3.5578402
3.4579804
3.3560361
3.2520686
3.1461407
3.0383161
2.9286598
2.8172379
2.7041175
2.5893668
2.473055
2.3552522
2.2360294
2.1154585
1.9936121
1.8705638
1.7463877
1.6211587
1.4949524
1.3678448
1.2399126
1.1112329
0.98188337
0.85194201
0.72148718
0.59059757
0.45935211
0.32782996
0.19611045
0.06427301
-0.067602841
-0.19943757
-0.33115169
-0.46266575
-0.59390046
-0.72477669
-0.85521552
-0.98513832
-1.1144668
-1.2431229
-1.3710291
-1.4981084
-1.6242841
-1.7494802
-1.8736212
-1.9966325
-2.1184398
-2.2389698
-2.3581499
-2.4759084
-2.5921742
-2.7068775
-2.8199491
-2.931321
-3.0409261
-3.1486986
-3.2545735
-3.3584872
-3.4603772
-3.5601821
-3.657842
-3.7532981
-3.8464931
-3.9373709
-4.0258769
-4.1119579
-4.1955622
-4.2766396
-4.3551414
-4.4310204
-4.504231
-4.5747293
-4.6424729
-4.7074213
-4.7695354
-4.8287779
-4.8851133
-4.9385077
-4.9889292
-5.0363475
-5.0807342
-5.1220625
-5.1603078
-5.1954471
-5.2274593
-5.2563253
-5.2820277
-5.304551
-5.3238819
-5.3400088
-5.3529218
-5.3626134
-5.3690777
-5.3723108
-5.3948234
-5.3915768
-5.3850854
-5.3753534
-5.3623863
-5.3461921
-5.3267803
-5.3041628
-5.278353
-5.2493663
-5.2172203
-5.181934
-5.1435288
-5.1020276
-5.0574554
-5.0098387
-4.9592063
-4.9055885
-4.8490175
-4.7895271
-4.7271532
-4.661933
-4.5939059
-4.5231125
-4.4495955
-4.3733989
-4.2945685
-4.2131516
-4.1291973
-4.0427558
-3.9538791
-3.8626207
-3.7690354
-3.6731793
-3.5751103
-3.4748872
-3.3725703
-3.2682211
-3.1619024
-3.0536782
-2.9436136
-2.8317748
-2.7182291
-2.6030449
-2.4862915
-2.3680392
-2.2483593
-2.1273237
-2.0050055
-1.8814782
-1.7568164
-1.631095
-1.50439
-1.3767775
-1.2483346
-1.1191387
-0.98926757
-0.85879959
-0.7278134
-0.59638797
-0.46460254
-0.33253659
-0.20026976
-0.067881795
0.06454745
0.19693811
0.32921034
0.46128436
0.59308052
0.72451931
0.85552147
0.98600799
1.1159002
1.2451196
1.3735885
1.5012292
1.6279649
1.7537191
1.8784159
2.0019801
2.1243374
2.2454138
2.3651364
2.4834329
2.6002322
2.7154638
2.8290582
2.9409469
3.0510626
3.1593389
3.2657105
3.3701134
3.4724846
3.5727625
3.6708866
3.766798
3.8604388
3.9517526
4.0406845
4.1271809
4.2111897
4.2926604
4.371544
4.4477929
4.5213613
4.592205
4.6602812
4.7255491
4.7879694
4.8475045
4.9041186
4.9577777
5.0084495
5.0561036
5.1007113
5.1422457
5.1806819
5.2159968
5.2481692
5.2771797
5.3030109
5.3256473
5.3450752
5.361283
5.374261
5.3840013
5.3904981
5.3937474
5.3937474
5.3904981
5.3840013
5.374261
5.361283
5.3450752
5.3256473
5.3030109
5.2771797
5.2481692
5.2159968
5.1806819
5.1422457
5.1007113
5.0561036
5.0084495
4.9577777
4.9041186
4.8475045
4.7879694
4.7255491
4.6602812
4.592205
4.5213614
4.4477929
4.371544
4.2926604
4.2111897
4.1271809
4.0406845
3.9517526
3.8604388
3.766798
3.6708866
3.5727625
3.4724846
3.3701134
3.2657105
3.1593389
3.0510626
2.9409469
2.8290582
2.7154638
2.6002322
2.483433
2.3651364
2.2454138
2.1243374
2.0019801
1.8784159
1.7537191
1.6279649
1.5012292
1.3735885
1.2451196
1.1159002
0.98600798
0.85552147
0.72451931
0.59308051
0.46128435
0.32921033
0.1969381
0.064547441
-0.067881805
-0.20026977
-0.33253661
-0.46460256
-0.59638798
-0.72781341
-0.8587996
-0.98926758
-1.1191387
-1.2483346
-1.3767775
-1.50439
-1.631095
-1.7568164
-1.8814782
-2.0050055
-2.1273238
-2.2483593
-2.3680392
-2.4862915
-2.6030449
-2.7182291
-2.8317748
-2.9436136
-3.0536782
-3.1619024
-3.2682211
-3.3725703
-3.4748872
-3.5751103
-3.6731793
-3.7690353
-3.8626207
-3.9538791
-4.0427558
-4.1291973
-4.2131516
-4.2945685
-4.3733989
-4.4495955
-4.5231125
-4.5939059
-4.661933
-4.7271531
-4.7895271
-4.8490175
-4.9055885
-4.9592063
-5.0098387
-5.0574553
-5.1020276
-5.1435288
-5.181934
-5.2172202
-5.2493663
-5.278353
-5.3041628
-5.3267803
-5.3461921
-5.3623863
-5.3753533
-5.3850854
-5.3915768
-5.3948234
-5.4205825
-5.4173204
-5.4107982
-5.4010198
-5.387991
-5.3717196
-5.3522154
-5.3294902
-5.3035574
-5.2744327
-5.2421335
-5.2066792
-5.168091
-5.1263921
-5.0816074
-5.0337639
-4.9828902
-4.9290169
-4.8721762
-4.8124023
-4.749731
-4.6842
-4.6158485
-4.5447176
-4.4708499
-4.39429
-4.3150836
-4.2332784
-4.1489235
-4.0620696
-3.9727689
-3.881075
-3.787043
-3.6907295
-3.5921923
-3.4914908
-3.3886853
-3.2838379
-3.1770115
-3.0682705
-2.9576801
-2.8453071
-2.731219
-2.6154845
-2.4981733
-2.379356
-2.2591041
-2.1374901
-2.0145873
-1.8904696
-1.7652119
-1.6388896
-1.5115788
-1.3833563
-1.2542993
-1.1244856
-0.99399359
-0.86290179
-0.73128928
-0.59923542
-0.46681984
-0.33412239
-0.20122308
-0.068202079
0.064860402
0.19788411
0.3307888
0.46349433
0.59592064
0.72798786
0.85961634
0.99072668
1.1212398
1.251077
1.3801599
1.5084107
1.6357521
1.7621073
1.8874
2.0115547
2.1344965
2.2561513
2.3764458
2.4953075
2.6126646
2.7284465
2.8425833
2.9550063
3.0656477
3.1744408
3.2813202
3.3862213
3.489081
3.5898374
3.6884297
3.7847986
3.878886
3.9706354
4.0599914
4.1469002
4.2313096
4.3131687
4.3924283
4.4690406
4.5429596
4.6141409
4.6825415
4.7481203
4.8108379
4.8706566
4.9275404
4.9814551
5.0323682
5.0802492
5.1250692
5.1668014
5.2054206
5.2409037
5.2732292
5.3023778
5.328332
5.3510761
5.3705965
5.3868814
5.3999211
5.4097078
5.4162355
5.4195003
5.4195003
5.4162355
5.4097078
5.3999211
5.3868814
5.3705965
5.3510761
5.328332
5.3023778
5.2732292
5.2409037
5.2054206
5.1668014
5.1250692
5.0802492
5.0323682
4.9814551
4.9275404
4.8706566
4.8108379
4.7481203
4.6825415
4.6141409
4.5429596
4.4690406
4.3924283
4.3131687
4.2313096
4.1469002
4.0599914
3.9706354
3.8788861
3.7847986
3.6884297
3.5898374
3.489081
3.3862213
3.2813202
3.1744408
3.0656477
2.9550063
2.8425833
2.7284465
2.6126646
2.4953075
2.3764458
2.2561513
2.1344965
2.0115547
1.8874
1.7621073
1.6357521
1.5084107
1.3801599
1.251077
1.1212398
0.99072668
0.85961634
0.72798786
0.59592064
0.46349432
0.3307888
0.1978841
0.064860396
-0.068202086
-0.20122309
-0.3341224
-0.46681985
-0.59923543
-0.73128929
-0.8629018
-0.9939936
-1.1244857
-1.2542993
-1.3833563
-1.5115788
-1.6388896
-1.7652119
-1.8904696
-2.0145873
-2.1374902
-2.2591041
-2.379356
-2.4981733
-2.6154845
-2.731219
-2.8453071
-2.9576801
-3.0682705
-3.1770115
-3.2838379
-3.3886853
-3.4914907
-3.5921923
-3.6907295
-3.787043
-3.881075
-3.9727689
-4.0620696
-4.1489235
-4.2332784
-4.3150836
-4.39429
-4.4708499
-4.5447175
-4.6158485
-4.6841999
-4.749731
-4.8124023
-4.8721762
-4.9290169
-4.9828902
-5.0337639
-5.0816074
-5.126392
-5.168091
-5.2066791
-5.2421335
-5.2744327
-5.3035574
-5.3294902
-5.3522154
-5.3717196
-5.387991
-5.4010198
-5.4107982
-5.4173204
-5.4205825
-5.4496038
-5.4463242
-5.4397672
-5.4299365
-5.4168382
-5.4004799
-5.3808716
-5.358025
-5.3319537
-5.3026735
-5.2702018
-5.2345581
-5.1957638
-5.1538421
-5.1088183
-5.0607192
-5.0095737
-4.9554125
-4.8982681
-4.8381747
-4.7751685
-4.7092872
-4.6405703
-4.5690592
-4.4947966
-4.4178273
-4.3381973
-4.2559546
-4.1711486
-4.0838301
-3.9940516
-3.9018671
-3.807332
-3.710503
-3.6114385
-3.5101979
-3.4068422
-3.3014334
-3.1940351
-3.0847117
-2.9735291
-2.8605543
-2.7458551
-2.6295006
-2.5115609
-2.392107
-2.2712109
-2.1489452
-2.0253837
-1.9006009
-1.7746718
-1.6476724
-1.5196792
-1.3907693
-1.2610205
-1.1305109
-0.99931924
-0.8675246
-0.73520645
-0.60244456
-0.46931899
-0.33591003
-0.20229814
-0.068563888
0.065212058
0.19894901
0.33256631
0.46598335
0.59911967
0.73189495
0.8642291
0.99604231
1.1272551
1.2577882
1.3875631
1.5165013
1.6445251
1.7715574
1.8975215
2.0223415
2.145942
2.2682486
2.3891875
2.5086858
2.6266715
2.7430734
2.8578214
2.9708464
3.0820801
3.1914557
3.2989071
3.4043696
3.5077798
3.6090753
3.7081951
3.8050795
3.8996703
3.9919103
4.0817441
4.1691177
4.2539784
4.3362751
4.4159584
4.4929802
4.5672943
4.6388559
4.707622
4.7735512
4.8366039
4.8967421
4.9539297
5.0081323
5.0593174
5.107454
5.1525134
5.1944684
5.2332938
5.2689663
5.3014644
5.3307686
5.3568613
5.3797268
5.3993514
5.4157232
5.4288325
5.4386714
5.445234
5.4485162
5.4485162
5.445234
5.4386714
5.4288326
5.4157232
5.3993514
5.3797268
5.3568613
5.3307686
5.3014644
5.2689663
5.2332938
5.1944684
5.1525134
5.107454
5.0593174
5.0081323
4.9539297
4.8967421
4.8366039
4.7735512
4.707622
4.6388559
4.5672943
4.4929802
4.4159584
4.3362751
4.2539784
4.1691177
4.0817441
3.9919103
3.8996703
3.8050795
3.7081951
3.6090753
3.5077798
3.4043696
3.2989071
3.1914557
3.0820801
2.9708464
2.8578214
2.7430734
2.6266715
2.5086858
2.3891875
2.2682486
2.145942
2.0223415
1.8975215
1.7715574
1.6445252
1.5165013
1.3875631
1.2577882
1.1272551
0.99604232
0.86422911
0.73189495
0.59911967
0.46598335
0.33256631
0.19894901
0.065212057
-0.06856389
-0.20229814
-0.33591004
-0.469319
-0.60244456
-0.73520645
-0.86752461
-0.99931925
-1.1305109
-1.2610205
-1.3907693
-1.5196792
-1.6476724
-1.7746718
-1.9006009
-2.0253837
-2.1489452
-2.2712109
-2.392107
-2.5115609
-2.6295006
-2.7458551
-2.8605543
-2.9735292
-3.0847117
-3.1940351
-3.3014334
-3.4068422
-3.5101979
-3.6114385
-3.710503
-3.807332
-3.9018671
-3.9940516
-4.0838301
-4.1711486
-4.2559546
-4.3381973
-4.4178273
-4.4947966
-4.5690592
-4.6405703
-4.7092872
-4.7751685
-4.8381747
-4.8982681
-4.9554125
-5.0095737
-5.0607192
-5.1088183
-5.1538421
-5.1957638
-5.2345581
-5.2702018
-5.3026735
-5.3319537
-5.358025
-5.3808716
-5.4004799
-5.4168382
-5.4299365
-5.4397672
-5.4463242
-5.4496038
-5.4819045
-5.4786056
-5.4720098
-5.462121
-5.4489452
-5.4324903
-5.4127661
-5.3897844
-5.363559
-5.3341057
-5.301442
-5.2655876
-5.2265639
-5.1843944
-5.1391043
-5.0907207
-5.0392728
-4.9847912
-4.9273088
-4.86686
-4.803481
-4.7372099
-4.6680864
-4.596152
-4.5214499
-4.444025
-4.3639237
-4.2811941
-4.1958859
-4.1080503
-4.0177402
-3.9250097
-3.8299146
-3.732512
-3.6328605
-3.53102
-3.4270518
-3.3210183
-3.2129834
-3.103012
-2.9911702
-2.8775255
-2.7621462
-2.6451017
-2.5264626
-2.4063002
-2.2846868
-2.1616959
-2.0374014
-1.9118781
-1.7852019
-1.6574488
-1.5286961
-1.3990212
-1.2685023
-1.1372181
-1.0052478
-0.87267087
-0.73956729
-0.60601733
-0.47210153
-0.33790063
-0.20349558
-0.068967454
0.065602617
0.20013346
0.33454392
0.46875293
0.60267953
0.73624292
0.86936255
1.0019581
1.1339496
1.2652574
1.3958024
1.5255058
1.6542893
1.7820753
1.9087867
2.0343471
2.1586809
2.2817129
2.4033691
2.5235761
2.6422614
2.7593535
2.8747818
2.9884768
3.1003699
3.2103936
3.3184818
3.4245693
3.5285922
3.6304878
3.7301947
3.827653
3.9228039
4.0155902
4.1059559
4.1938468
4.2792098
4.3619936
4.4421485
4.5196261
4.59438
4.666365
4.7355379
4.8018571
4.8652827
4.9257766
4.9833024
5.0378255
5.0893132
5.1377345
5.1830603
5.2252633
5.2643182
5.3002015
5.3328917
5.3623691
5.388616
5.4116166
5.4313572
5.4478258
5.4610126
5.4709096
5.4775109
5.4808126
5.4808126
5.4775109
5.4709096
5.4610126
5.4478258
5.4313572
5.4116166
5.388616
5.3623691
5.3328917
5.3002015
5.2643182
5.2252633
5.1830603
5.1377345
5.0893132
5.0378256
4.9833024
4.9257766
4.8652827
4.8018571
4.7355379
4.666365
4.59438
4.5196261
4.4421485
4.3619937
4.2792098
4.1938468
4.1059559
4.0155902
3.9228039
3.827653
3.7301948
3.6304878
3.5285922
3.4245693
3.3184818
3.2103936
3.1003699
2.9884768
2.8747818
2.7593535
2.6422614
2.5235761
2.4033691
2.2817129
2.1586809
2.0343471
1.9087867
1.7820753
1.6542893
1.5255058
1.3958024
1.2652575
1.1339496
1.0019581
0.86936255
0.73624293
0.60267953
0.46875294
0.33454393
0.20013346
0.06560262
-0.068967451
-0.20349558
-0.33790063
-0.47210153
-0.60601734
-0.7395673
-0.87267087
-1.0052478
-1.1372181
-1.2685023
-1.3990212
-1.5286961
-1.6574488