/*--------------------------------*- C++ -*----------------------------------*\
| =========                 |                                                 |
| \\      /  F ield         | OpenFOAM: The Open Source CFD Toolbox           |
|  \\    /   O peration     | Version:  2306                                  |
|   \\  /    A nd           | Website:  www.openfoam.com                      |
|    \\/     M anipulation  |                                                 |
\*---------------------------------------------------------------------------*/
FoamFile
{
    version     2.0;
    format      ascii;
    arch        "LSB;label=32;scalar=64";
    class       surfaceScalarField;
    location    "0.47";
    object      phi;
}
// * * * * * * * * * * * * * * * * * * * * * * * * * * * * * * * * * * * * * //

dimensions      [0 3 -1 0 0 0 0];

oriented        oriented;

internalField   nonuniform List<scalar> 
101920
(
1.0850128e-09
-1.0850128e-09
4.2695777e-09
-3.1845648e-09
9.3975173e-09
-5.1279395e-09
1.634558e-08
-6.9480629e-09
2.5046717e-08
-8.701137e-09
3.545875e-08
-1.0412033e-08
4.7541942e-08
-1.2083192e-08
6.1245989e-08
-1.3704047e-08
7.6508699e-08
-1.5262711e-08
9.325618e-08
-1.6747481e-08
1.1140436e-07
-1.8148185e-08
1.3085978e-07
-1.9455421e-08
1.5152118e-07
-2.0661396e-08
1.7328052e-07
-2.1759342e-08
1.9602225e-07
-2.2741728e-08
2.196289e-07
-2.360665e-08
2.4397673e-07
-2.4347833e-08
2.6893902e-07
-2.496229e-08
2.9438271e-07
-2.5443692e-08
3.2017775e-07
-2.5795037e-08
3.4619153e-07
-2.6013778e-08
3.7228629e-07
-2.6094762e-08
3.9833606e-07
-2.6049767e-08
4.2420731e-07
-2.5871248e-08
4.4976971e-07
-2.5562403e-08
4.7489716e-07
-2.5127448e-08
4.994615e-07
-2.4564343e-08
5.2334661e-07
-2.3885114e-08
5.4643877e-07
-2.3092155e-08
5.6862657e-07
-2.2187806e-08
5.8980383e-07
-2.1177257e-08
6.098835e-07
-2.0079664e-08
6.2874869e-07
-1.8865196e-08
6.4631578e-07
-1.7567086e-08
6.6249037e-07
-1.6174589e-08
6.7722562e-07
-1.473525e-08
6.9048621e-07
-1.3260592e-08
7.0221274e-07
-1.1726534e-08
7.1233703e-07
-1.0124289e-08
7.2081095e-07
-8.4739176e-09
7.2760952e-07
-6.7985743e-09
7.3271423e-07
-5.1047017e-09
7.3611139e-07
-3.3971637e-09
7.3778442e-07
-1.6730304e-09
7.3769813e-07
8.6284961e-11
7.3597426e-07
1.7238798e-09
7.3258367e-07
3.3905889e-09
7.2754523e-07
5.038437e-09
7.2087735e-07
6.6678872e-09
7.1263878e-07
8.2385703e-09
7.0285664e-07
9.7821294e-09
6.915967e-07
1.1259945e-08
6.7891577e-07
1.2680933e-08
6.6487199e-07
1.4043779e-08
6.4947454e-07
1.5397451e-08
6.3287472e-07
1.6599816e-08
6.1512355e-07
1.775118e-08
5.9629064e-07
1.8832901e-08
5.7645269e-07
1.9837956e-08
5.5568848e-07
2.0764212e-08
5.3407909e-07
2.1609387e-08
5.1171056e-07
2.2368533e-08
4.8866076e-07
2.3049804e-08
4.6501281e-07
2.3647948e-08
4.4085585e-07
2.4156961e-08
4.1626603e-07
2.4589814e-08
3.9132086e-07
2.4945179e-08
3.6610265e-07
2.5218209e-08
3.4069608e-07
2.540657e-08
3.1516665e-07
2.5529427e-08
2.8958978e-07
2.5576868e-08
2.6404601e-07
2.5543775e-08
2.385959e-07
2.5450109e-08
2.1330249e-07
2.5293412e-08
1.8822972e-07
2.5072771e-08
1.6343553e-07
2.4794182e-08
1.3897399e-07
2.4461547e-08
1.1489509e-07
2.4078897e-08
9.1267449e-08
2.3627639e-08
6.8112375e-08
2.3155075e-08
4.5475617e-08
2.2636763e-08
2.339653e-08
2.2079083e-08
1.9145107e-09
2.1482016e-08
-1.8939528e-08
2.0854041e-08
-3.9148505e-08
2.0208972e-08
-5.868533e-08
1.9536831e-08
-7.75283e-08
1.8842966e-08
-9.56595e-08
1.8131201e-08
-1.1306433e-07
1.7404831e-08
-1.2973121e-07
1.6666879e-08
-1.4565146e-07
1.592024e-08
-1.6081906e-07
1.5167602e-08
-1.7523041e-07
1.4411355e-08
-1.8888406e-07
1.3653647e-08
-2.0178025e-07
1.2896188e-08
-2.1392036e-07
1.2140119e-08
-2.2530657e-07
1.13862e-08
-2.3594325e-07
1.063668e-08
-2.4583677e-07
9.8935232e-09
-2.5499643e-07
9.1596648e-09
-2.6343638e-07
8.4399401e-09
-2.7116639e-07
7.7300112e-09
-2.7819769e-07
7.0312994e-09
-2.845422e-07
6.3445077e-09
-2.9020359e-07
5.661392e-09
-2.9521707e-07
5.0134859e-09
-2.9959773e-07
4.3806515e-09
-3.0335931e-07
3.7615816e-09
-3.0651653e-07
3.1572241e-09
-3.09085e-07
2.5684633e-09
-3.1108073e-07
1.9957403e-09
-3.1251917e-07
1.4384275e-09
-3.1341294e-07
8.9377185e-10
-3.137636e-07
3.5066731e-10
-3.1360012e-07
-1.6349172e-10
-3.1297604e-07
-6.2408507e-10
-3.1188731e-07
-1.0887353e-09
-3.1034498e-07
-1.5423201e-09
-3.0836383e-07
-1.9811657e-09
-3.0595944e-07
-2.4043838e-09
-3.031475e-07
-2.8119423e-09
-2.9994342e-07
-3.2040789e-09
-2.9636228e-07
-3.5811455e-09
-2.9241873e-07
-3.9435494e-09
-2.8812704e-07
-4.2916844e-09
-2.8350109e-07
-4.6259492e-09
-2.7855431e-07
-4.9467764e-09
-2.732997e-07
-5.2546137e-09
-2.6774986e-07
-5.549841e-09
-2.6191695e-07
-5.8329042e-09
-2.5581272e-07
-6.1042302e-09
-2.4944846e-07
-6.3642688e-09
-2.4283507e-07
-6.6133952e-09
-2.3598303e-07
-6.8520447e-09
-2.289024e-07
-7.0806223e-09
-2.2160291e-07
-7.2994932e-09
-2.1409381e-07
-7.5090931e-09
-2.0638407e-07
-7.7097436e-09
-1.9848224e-07
-7.9018316e-09
-1.9039657e-07
-8.085665e-09
-1.8213497e-07
-8.2615966e-09
-1.737051e-07
-8.4298831e-09
-1.6511429e-07
-8.5907991e-09
-1.5636971e-07
-8.7445788e-09
-1.4747834e-07
-8.8913853e-09
-1.3844702e-07
-9.0313084e-09
-1.2928272e-07
-9.1643102e-09
-1.1999259e-07
-9.2901241e-09
-1.1058443e-07
-9.4081503e-09
-1.0106746e-07
-9.516971e-09
-9.1453649e-08
-9.6138105e-09
-8.1760366e-08
-9.6932838e-09
-7.2014918e-08
-9.7454532e-09
-6.2261447e-08
-9.7534582e-09
-5.2569543e-08
-9.6919046e-09
-4.3034703e-08
-9.5348534e-09
-3.3730591e-08
-9.3041129e-09
-2.4489839e-08
-9.2407618e-09
-1.4198042e-08
-1.0291779e-08
-1.4198059e-08
1.4123155e-09
-2.4973283e-09
5.4393321e-09
-7.2115815e-09
1.1898542e-08
-1.158715e-08
2.0575861e-08
-1.5625382e-08
3.1346055e-08
-1.947133e-08
4.412259e-08
-2.3188568e-08
5.8822795e-08
-2.6783398e-08
7.5354035e-08
-3.0235288e-08
9.3607474e-08
-3.351615e-08
1.1345661e-07
-3.6596615e-08
1.3475862e-07
-3.9450196e-08
1.5735555e-07
-4.2052348e-08
1.8107607e-07
-4.4381922e-08
2.0573798e-07
-4.6421254e-08
2.3114882e-07
-4.8152568e-08
2.5711057e-07
-4.9568399e-08
2.8341785e-07
-5.0655112e-08
3.0986147e-07
-5.1405908e-08
3.3622309e-07
-5.1805312e-08
3.6228968e-07
-5.1861627e-08
3.8784687e-07
-5.1570974e-08
4.1267011e-07
-5.0917998e-08
4.3656372e-07
-4.9943372e-08
4.593173e-07
-4.8624831e-08
4.807278e-07
-4.6972908e-08
5.0060122e-07
-4.500087e-08
5.1874529e-07
-4.2708408e-08
5.3498585e-07
-4.0125675e-08
5.4915692e-07
-3.7263221e-08
5.6109876e-07
-3.412965e-08
5.7067057e-07
-3.0749061e-08
5.7775538e-07
-2.7164482e-08
5.8221988e-07
-2.3329694e-08
5.8394053e-07
-1.9287735e-08
5.8281323e-07
-1.5047289e-08
5.7880158e-07
-1.0723605e-08
5.7180394e-07
-6.2629446e-09
5.6187763e-07
-1.8002334e-09
5.4886929e-07
2.8840537e-09
5.3279115e-07
7.6042246e-09
5.1366828e-07
1.2324294e-08
4.9152096e-07
1.7042622e-08
4.6638142e-07
2.1742367e-08
4.3831085e-07
2.6397542e-08
4.0739451e-07
3.1002629e-08
3.7360987e-07
3.5508517e-08
3.3708844e-07
3.991202e-08
2.9793605e-07
4.4190829e-08
2.5629829e-07
4.8305651e-08
2.1224281e-07
5.2294045e-08
1.659441e-07
5.6080846e-08
1.1750464e-07
5.9699405e-08
6.7073922e-08
6.3111647e-08
1.4821939e-08
6.6295763e-08
-3.8984072e-08
6.9203459e-08
-9.4354029e-08
7.1969779e-08
-1.5107619e-07
7.4473343e-08
-2.0896681e-07
7.6723531e-08
-2.6784849e-07
7.871963e-08
-3.2754499e-07
8.0460714e-08
-3.8788088e-07
8.1945272e-08
-4.4868241e-07
8.317006e-08
-5.0977569e-07
8.4143093e-08
-5.7099036e-07
8.4862613e-08
-6.3216073e-07
8.5327331e-08
-6.9312179e-07
8.5550875e-08
-7.537134e-07
8.5536786e-08
-8.1378235e-07
8.5287155e-08
-8.7318248e-07
8.48067e-08
-9.3176799e-07
8.411493e-08
-9.8940373e-07
8.3212614e-08
-1.0459644e-06
8.2104473e-08
-1.1013252e-06
8.0810895e-08
-1.1553705e-06
7.9338698e-08
-1.2079938e-06
7.7696065e-08
-1.2590951e-06
7.5895487e-08
-1.3085818e-06
7.394821e-08
-1.3563684e-06
7.1865521e-08
-1.4023895e-06
6.9648721e-08
-1.4465637e-06
6.7329334e-08
-1.4888328e-06
6.4905812e-08
-1.5291437e-06
6.238998e-08
-1.5674539e-06
5.9792199e-08
-1.6037254e-06
5.7125608e-08
-1.6379188e-06
5.4402316e-08
-1.6700117e-06
5.1629698e-08
-1.6999859e-06
4.8817222e-08
-1.727829e-06
4.5974278e-08
-1.753534e-06
4.3109866e-08
-1.7770996e-06
4.0232502e-08
-1.7985296e-06
3.7350242e-08
-1.8178327e-06
3.4470621e-08
-1.8350221e-06
3.1600763e-08
-1.8501154e-06
2.874698e-08
-1.8631338e-06
2.5914586e-08
-1.8741007e-06
2.3107016e-08
-1.8830403e-06
2.0325755e-08
-1.8899816e-06
1.7577977e-08
-1.8949573e-06
1.4869278e-08
-1.8980039e-06
1.2206246e-08
-1.8991586e-06
9.5945907e-09
-1.8984617e-06
7.033128e-09
-1.8959455e-06
4.5150856e-09
-1.8916297e-06
2.0287077e-09
-1.8855615e-06
-4.0673592e-10
-1.877895e-06
-2.6530699e-09
-1.868613e-06
-4.9013047e-09
-1.8577473e-06
-7.1041668e-09
-1.8453396e-06
-9.2504103e-09
-1.8314351e-06
-1.1336055e-08
-1.8160797e-06
-1.3359715e-08
-1.7993197e-06
-1.5321585e-08
-1.7812024e-06
-1.7223464e-08
-1.7617823e-06
-1.906945e-08
-1.7410881e-06
-2.085768e-08
-1.719139e-06
-2.2573241e-08
-1.6959976e-06
-2.4230072e-08
-1.6717094e-06
-2.5830495e-08
-1.6463153e-06
-2.7375326e-08
-1.6198542e-06
-2.8865445e-08
-1.5923642e-06
-3.030195e-08
-1.5638821e-06
-3.1686138e-08
-1.5344439e-06
-3.3019407e-08
-1.5040841e-06
-3.4303285e-08
-1.4728365e-06
-3.5539301e-08
-1.4407334e-06
-3.6729047e-08
-1.4078061e-06
-3.7874095e-08
-1.3740846e-06
-3.89761e-08
-1.3395978e-06
-4.0036628e-08
-1.3043734e-06
-4.1057315e-08
-1.2684379e-06
-4.2039737e-08
-1.2318167e-06
-4.2985496e-08
-1.1945339e-06
-4.3896139e-08
-1.1566128e-06
-4.4773175e-08
-1.1180753e-06
-4.5618103e-08
-1.0789424e-06
-4.643237e-08
-1.0392341e-06
-4.7217383e-08
-9.9896938e-07
-4.7974505e-08
-9.5816617e-07
-4.8705038e-08
-9.1684161e-07
-4.9410221e-08
-8.7501197e-07
-5.0091232e-08
-8.3269273e-07
-5.0749125e-08
-7.8989861e-07
-5.1384923e-08
-7.466437e-07
-5.1999484e-08
-7.029416e-07
-5.2593475e-08
-6.588055e-07
-5.3167409e-08
-6.1424846e-07
-5.3721338e-08
-5.6928381e-07
-5.4254783e-08
-5.2392566e-07
-5.4766299e-08
-4.7819007e-07
-5.5252562e-08
-4.320967e-07
-5.5707173e-08
-3.8567188e-07
-5.6118097e-08
-3.3895123e-07
-5.646611e-08
-2.9197926e-07
-5.6725425e-08
-2.4480288e-07
-5.6868282e-08
-1.9744241e-07
-5.6895321e-08
-1.4981129e-07
-5.6935226e-08
-1.0155008e-07
-5.7501963e-08
-5.1905975e-08
-5.9935899e-08
-6.6104024e-08
9.5404899e-10
-3.4513773e-09
3.6914737e-09
-9.9490062e-09
8.0844349e-09
-1.5980111e-08
1.3964781e-08
-2.1505728e-08
2.1205133e-08
-2.6711683e-08
2.9693202e-08
-3.1676638e-08
3.9321412e-08
-3.6411607e-08
4.997681e-08
-4.0890686e-08
6.1533627e-08
-4.5072967e-08
7.385104e-08
-4.8914026e-08
8.6773645e-08
-5.2372803e-08
1.0013175e-07
-5.5410448e-08
1.1374242e-07
-5.7992592e-08
1.2741057e-07
-6.0089405e-08
1.4094135e-07
-6.1683345e-08
1.5411775e-07
-6.2744808e-08
1.6672816e-07
-6.3265518e-08
1.7855181e-07
-6.3229563e-08
1.8938819e-07
-6.2641684e-08
1.9898181e-07
-6.1455242e-08
2.0712913e-07
-5.9718298e-08
2.1363285e-07
-5.7421722e-08
2.1826508e-07
-5.4575602e-08
2.2082599e-07
-5.1185735e-08
2.2112022e-07
-4.7267139e-08
2.1895627e-07
-4.283692e-08
2.1417018e-07
-3.7922315e-08
2.0658076e-07
-3.2536264e-08
1.9604027e-07
-2.6722725e-08
1.8241851e-07
-2.0507896e-08
1.6560617e-07
-1.3936715e-08
1.4548237e-07
-7.0406786e-09
1.2205908e-07
9.3594067e-11
9.5015415e-08
7.755932e-09
6.4499122e-08
1.5469006e-08
3.0394771e-08
2.3380749e-08
-7.2515723e-09
3.1383395e-08
-4.8551891e-08
3.9500084e-08
-9.3376933e-08
4.7709096e-08
-1.4170846e-07
5.5935753e-08
-1.9351487e-07
6.4130705e-08
-2.4872681e-07
7.2254561e-08
-3.0725458e-07
8.0270135e-08
-3.6899151e-07
8.813447e-08
-4.3380549e-07
9.5816622e-08
-5.0157331e-07
1.0327633e-07
-5.7214301e-07
1.1048172e-07
-6.4535195e-07
1.1739976e-07
-7.210358e-07
1.2398951e-07
-7.9899434e-07
1.3025258e-07
-8.7904808e-07
1.3613459e-07
-9.6098106e-07
1.4163239e-07
-1.0445841e-06
1.4671471e-07
-1.1296474e-06
1.5135905e-07
-1.2159935e-06
1.5554954e-07
-1.3033282e-06
1.5930449e-07
-1.3914467e-06
1.6259183e-07
-1.4801257e-06
1.6540257e-07
-1.5691387e-06
1.6773258e-07
-1.6582586e-06
1.6958061e-07
-1.7472605e-06
1.7094717e-07
-1.8359245e-06
1.7183413e-07
-1.9240307e-06
1.7224925e-07
-2.0113662e-06
1.7219816e-07
-2.0977273e-06
1.7168838e-07
-2.1829108e-06
1.7073437e-07
-2.2667223e-06
1.6934828e-07
-2.3489776e-06
1.6754249e-07
-2.4295031e-06
1.6533214e-07
-2.5081262e-06
1.6273802e-07
-2.5846891e-06
1.597756e-07
-2.6590471e-06
1.5646243e-07
-2.731058e-06
1.5282175e-07
-2.8005925e-06
1.488732e-07
-2.8675331e-06
1.4463669e-07
-2.9317715e-06
1.4013386e-07
-2.9932094e-06
1.3538617e-07
-3.0517585e-06
1.3041466e-07
-3.1073486e-06
1.2523873e-07
-3.1599043e-06
1.1988507e-07
-3.2093702e-06
1.1437176e-07
-3.2556993e-06
1.0871908e-07
-3.2988544e-06
1.0294729e-07
-3.3388057e-06
9.7076904e-08
-3.3755309e-06
9.1127446e-08
-3.4090178e-06
8.5116628e-08
-3.4392623e-06
7.906178e-08
-3.4662677e-06
7.297967e-08
-3.4900442e-06
6.6886348e-08
-3.5106088e-06
6.0797048e-08
-3.5279848e-06
5.4726255e-08
-3.5422019e-06
4.8687734e-08
-3.5532939e-06
4.2692772e-08
-3.5612994e-06
3.6752515e-08
-3.5662617e-06
3.0876872e-08
-3.5682268e-06
2.5072121e-08
-3.5672396e-06
1.9338527e-08
-3.5633557e-06
1.3694128e-08
-3.5566243e-06
8.1378961e-09
-3.5470915e-06
2.6733749e-09
-3.5348751e-06
-2.6218054e-09
-3.5200074e-06
-7.8345311e-09
-3.5025504e-06
-1.2941933e-08
-3.4825905e-06
-1.7931165e-08
-3.4602091e-06
-2.278816e-08
-3.4353771e-06
-2.7485107e-08
-3.4082154e-06
-3.2062921e-08
-3.3788004e-06
-3.6519183e-08
-3.3472006e-06
-4.0850292e-08
-3.3134821e-06
-4.5054533e-08
-3.2777104e-06
-4.9131431e-08
-3.2399502e-06
-5.3081766e-08
-3.2002665e-06
-5.6907175e-08
-3.158726e-06
-6.0609886e-08
-3.1153935e-06
-6.4190244e-08
-3.07032e-06
-6.7646753e-08
-3.0235657e-06
-7.0984298e-08
-2.9751899e-06
-7.4206338e-08
-2.9252493e-06
-7.731592e-08
-2.8737989e-06
-8.031586e-08
-2.8208917e-06
-8.3209117e-08
-2.7665791e-06
-8.5998759e-08
-2.7109106e-06
-8.868792e-08
-2.653934e-06
-9.1279903e-08
-2.5956952e-06
-9.3778048e-08
-2.5362386e-06
-9.6185708e-08
-2.4756064e-06
-9.8506233e-08
-2.4138394e-06
-1.0074307e-07
-2.3509765e-06
-1.0289958e-07
-2.2870547e-06
-1.0497912e-07
-2.2221094e-06
-1.0698502e-07
-2.1561744e-06
-1.0892052e-07
-2.0892817e-06
-1.1078887e-07
-2.0214616e-06
-1.1259322e-07
-1.952743e-06
-1.1433666e-07
-1.8831532e-06
-1.1602217e-07
-1.812718e-06
-1.1765264e-07
-1.7414616e-06
-1.192309e-07
-1.669407e-06
-1.2075961e-07
-1.5965759e-06
-1.2224135e-07
-1.5229886e-06
-1.2367853e-07
-1.4486643e-06
-1.2507338e-07
-1.3736212e-06
-1.2642806e-07
-1.2978763e-06
-1.2774434e-07
-1.2214461e-06
-1.2902372e-07
-1.1443461e-06
-1.3026737e-07
-1.0665917e-06
-1.3147574e-07
-9.8819805e-07
-1.3264845e-07
-9.0918083e-07
-1.337835e-07
-8.2955673e-07
-1.3487668e-07
-7.4934404e-07
-1.3591988e-07
-6.6856247e-07
-1.3689966e-07
-5.8723193e-07
-1.3779665e-07
-5.0536868e-07
-1.3858868e-07
-4.2297202e-07
-1.3926496e-07
-3.3999788e-07
-1.3986946e-07
-2.5632318e-07
-1.4060995e-07
-1.7174851e-07
-1.4207663e-07
-8.6165248e-08
-1.4551916e-07
-1.5226927e-07
3.6280592e-10
-3.8141832e-09
1.4601734e-09
-1.1046374e-08
3.2474366e-09
-1.7767374e-08
5.6378333e-09
-2.3896125e-08
8.5291785e-09
-2.9603028e-08
1.1803203e-08
-3.4950662e-08
1.5338721e-08
-3.9947124e-08
1.9013403e-08
-4.4565368e-08
2.2694216e-08
-4.8753782e-08
2.624113e-08
-5.246094e-08
2.949692e-08
-5.5628593e-08
3.2297756e-08
-5.8211284e-08
3.4466427e-08
-6.0161264e-08
3.5827501e-08
-6.1450478e-08
3.6178275e-08
-6.203412e-08
3.5331738e-08
-6.1898269e-08
3.307982e-08
-6.10136e-08
2.9223171e-08
-5.9372914e-08
2.3541626e-08
-5.6960141e-08
1.5892402e-08
-5.3806019e-08
6.0388732e-09
-4.9864769e-08
-6.1985775e-09
-4.5184271e-08
-2.1036032e-08
-3.9738148e-08
-3.8646836e-08
-3.3574929e-08
-5.9197432e-08
-2.6716542e-08
-8.2839353e-08
-1.9194998e-08
-1.0972343e-07
-1.1038239e-08
-1.3999525e-07
-2.2644506e-09
-1.7374236e-07
7.024384e-09
-2.1108901e-07
1.6838761e-08
-2.521262e-07
2.7100474e-08
-2.9693164e-07
3.776476e-08
-3.4561368e-07
4.8775625e-08
-3.980069e-07
6.0149153e-08
-4.5426505e-07
7.1727162e-08
-5.1435759e-07
8.3473281e-08
-5.7829396e-07
9.5319769e-08
-6.4601615e-07
1.0722227e-07
-7.174389e-07
1.1913185e-07
-7.9248095e-07
1.309778e-07
-8.7104689e-07
1.4269665e-07
-9.5302136e-07
1.5422903e-07
-1.0382693e-06
1.6551804e-07
-1.1266416e-06
1.7650685e-07
-1.2179698e-06
1.8714479e-07
-1.3120746e-06
1.9738115e-07
-1.4087615e-06
2.0716855e-07
-1.5078235e-06
2.1646183e-07
-1.6090513e-06
2.2521732e-07
-1.7122056e-06
2.3340685e-07
-1.8170591e-06
2.409881e-07
-1.9233626e-06
2.4793587e-07
-2.0308685e-06
2.5422063e-07
-2.1393279e-06
2.5981842e-07
-2.2484911e-06
2.6471279e-07
-2.3580833e-06
2.6889667e-07
-2.4678465e-06
2.7235502e-07
-2.5775234e-06
2.7507942e-07
-2.6868574e-06
2.7706658e-07
-2.7955942e-06
2.7831743e-07
-2.9034834e-06
2.7883638e-07
-3.0102803e-06
2.7863103e-07
-3.1157444e-06
2.7771339e-07
-3.2196434e-06
2.760971e-07
-3.3217536e-06
2.7379864e-07
-3.4218581e-06
2.7083879e-07
-3.5197492e-06
2.6723939e-07
-3.6152306e-06
2.6302394e-07
-3.708117e-06
2.5821848e-07
-3.7982309e-06
2.5285201e-07
-3.8854084e-06
2.4695312e-07
-3.969498e-06
2.4055197e-07
-4.0503574e-06
2.3368116e-07
-4.1278571e-06
2.2637287e-07
-4.20188e-06
2.1865961e-07
-4.2723207e-06
2.105746e-07
-4.3390856e-06
2.0215107e-07
-4.402093e-06
1.9342203e-07
-4.4612744e-06
1.8442017e-07
-4.5165689e-06
1.7517952e-07
-4.5679287e-06
1.6573154e-07
-4.615317e-06
1.5610739e-07
-4.6587074e-06
1.4633767e-07
-4.6980827e-06
1.3645227e-07
-4.7334352e-06
1.2647988e-07
-4.7647663e-06
1.164478e-07
-4.7920866e-06
1.0638205e-07
-4.8154145e-06
9.6307528e-08
-4.834776e-06
8.6247888e-08
-4.8502044e-06
7.6225411e-08
-4.8617391e-06
6.6260992e-08
-4.8694254e-06
5.637406e-08
-4.8733153e-06
4.6582689e-08
-4.8734669e-06
3.6904115e-08
-4.8699453e-06
2.7355176e-08
-4.8628242e-06
1.7951083e-08
-4.8521463e-06
8.6606438e-09
-4.8379831e-06
-4.6907438e-10
-4.8203977e-06
-9.4475053e-09
-4.7995055e-06
-1.821884e-08
-4.7753402e-06
-2.6787076e-08
-4.7480109e-06
-3.5163899e-08
-4.7176056e-06
-4.3347201e-08
-4.6842082e-06
-5.1328528e-08
-4.6478982e-06
-5.9098238e-08
-4.6087347e-06
-6.6648588e-08
-4.566809e-06
-7.3988656e-08
-4.5222077e-06
-8.1120422e-08
-4.4750141e-06
-8.8043972e-08
-4.425309e-06
-9.4759551e-08
-4.3731722e-06
-1.0126826e-07
-4.318682e-06
-1.0757202e-07
-4.2619157e-06
-1.136734e-07
-4.2029502e-06
-1.1957542e-07
-4.1418596e-06
-1.2528084e-07
-4.0787138e-06
-1.3079256e-07
-4.0135827e-06
-1.3611537e-07
-3.9465349e-06
-1.4125414e-07
-3.877637e-06
-1.4621384e-07
-3.8069534e-06
-1.509995e-07
-3.7345462e-06
-1.5561624e-07
-3.6604756e-06
-1.6006939e-07
-3.5847993e-06
-1.6436422e-07
-3.5075729e-06
-1.685063e-07
-3.4288498e-06
-1.7250112e-07
-3.3486812e-06
-1.763543e-07
-3.2671161e-06
-1.8007131e-07
-3.1842013e-06
-1.8365787e-07
-3.0999815e-06
-1.8711942e-07
-3.0144991e-06
-1.9046148e-07
-2.9277946e-06
-1.9368949e-07
-2.8399064e-06
-1.9680873e-07
-2.7508708e-06
-1.998245e-07
-2.6607222e-06
-2.0274188e-07
-2.5694929e-06
-2.0556589e-07
-2.4772137e-06
-2.0830139e-07
-2.3839133e-06
-2.1095306e-07
-2.2896187e-06
-2.1352547e-07
-2.1943554e-06
-2.1602296e-07
-2.098147e-06
-2.1844972e-07
-2.0010159e-06
-2.2080964e-07
-1.9029828e-06
-2.231065e-07
-1.8040672e-06
-2.2534367e-07
-1.7042872e-06
-2.2752426e-07
-1.6036601e-06
-2.2965087e-07
-1.5022018e-06
-2.3172564e-07
-1.3999276e-06
-2.3374993e-07
-1.2968521e-06
-2.35724e-07
-1.1929891e-06
-2.3764651e-07
-1.0883519e-06
-2.3951381e-07
-9.8295272e-07
-2.413191e-07
-8.7680072e-07
-2.4305166e-07
-7.698993e-07
-2.4469806e-07
-6.6223997e-07
-2.4624801e-07
-5.5379298e-07
-2.4771194e-07
-4.4449899e-07
-2.4916346e-07
-3.342815e-07
-2.5082742e-07
-2.2313748e-07
-2.5322066e-07
-1.1138737e-07
-2.5726926e-07
-2.6365665e-07
-8.0510409e-11
-3.7336727e-09
-2.5427114e-10
-1.0872613e-08
-4.9315909e-10
-1.7528486e-08
-8.1768255e-10
-2.3571602e-08
-1.3050474e-09
-2.9115663e-08
-2.0601794e-09
-3.4195531e-08
-3.2053869e-09
-3.8801917e-08
-4.8690826e-09
-4.2901672e-08
-7.1831856e-09
-4.6439678e-08
-1.0295087e-08
-4.9349038e-08
-1.4351058e-08
-5.1572621e-08
-1.951242e-08
-5.3049922e-08
-2.5944215e-08
-5.372947e-08
-3.3822453e-08
-5.357224e-08
-4.3321656e-08
-5.2534917e-08
-5.4631272e-08
-5.0588653e-08
-6.7932109e-08
-4.7712765e-08
-8.341288e-08
-4.3892143e-08
-1.0125078e-07
-3.9122244e-08
-1.2164684e-07
-3.3409952e-08
-1.4477359e-07
-2.6738024e-08
-1.7080148e-07
-1.9156381e-08
-1.9989336e-07
-1.0646265e-08
-2.3221441e-07
-1.2538769e-09
-2.6788267e-07
8.9517153e-09
-3.0706279e-07
1.9985118e-08
-3.4987198e-07
3.1770947e-08
-3.9639826e-07
4.4261831e-08
-4.4676176e-07
5.7387887e-08
-5.0101988e-07
7.1096882e-08
-5.5923767e-07
8.5318262e-08
-6.2145833e-07
9.9985418e-08
-6.8770989e-07
1.1502719e-07
-7.5794541e-07
1.3038467e-07
-8.3217333e-07
1.4595509e-07
-9.1036053e-07
1.6166048e-07
-9.9245978e-07
1.7741901e-07
-1.0783934e-06
1.9315587e-07
-1.1680573e-06
2.0879573e-07
-1.2613359e-06
2.2425649e-07
-1.3580979e-06
2.3945862e-07
-1.4581942e-06
2.543253e-07
-1.5614586e-06
2.6878243e-07
-1.6677101e-06
2.8275841e-07
-1.7767514e-06
2.9618603e-07
-1.8883714e-06
3.0900114e-07
-2.0023463e-06
3.2114348e-07
-2.1184413e-06
3.3255686e-07
-2.2364136e-06
3.4318964e-07
-2.3560046e-06
3.5299786e-07
-2.4769547e-06
3.6193815e-07
-2.5989939e-06
3.6997505e-07
-2.7218498e-06
3.7707657e-07
-2.8452479e-06
3.832165e-07
-2.9689106e-06
3.8837551e-07
-3.0925544e-06
3.9254045e-07
-3.2158998e-06
3.9570044e-07
-3.3386703e-06
3.9784989e-07
-3.4605923e-06
3.9898862e-07
-3.5813965e-06
3.9912165e-07
-3.7008189e-06
3.9825873e-07
-3.818602e-06
3.9641412e-07
-3.9344952e-06
3.9360663e-07
-4.0482568e-06
3.8985865e-07
-4.1596543e-06
3.8519617e-07
-4.2684647e-06
3.7964921e-07
-4.3744757e-06
3.7325039e-07
-4.4774866e-06
3.6603482e-07
-4.5773085e-06
3.5804036e-07
-4.6737639e-06
3.4930738e-07
-4.7666882e-06
3.3987744e-07
-4.8559299e-06
3.297937e-07
-4.9413496e-06
3.191009e-07
-5.0228211e-06
3.0784428e-07
-5.100231e-06
2.9606952e-07
-5.173479e-06
2.8382262e-07
-5.2424775e-06
2.7114959e-07
-5.3071516e-06
2.5809616e-07
-5.3674391e-06
2.447076e-07
-5.4232886e-06
2.31029e-07
-5.474661e-06
2.1710401e-07
-5.5215288e-06
2.0297519e-07
-5.5638751e-06
1.8868398e-07
-5.6016933e-06
1.7427049e-07
-5.6349867e-06
1.5977323e-07
-5.6637679e-06
1.45229e-07
-5.6880586e-06
1.3067281e-07
-5.707889e-06
1.1613792e-07
-5.723297e-06
1.0165588e-07
-5.7343279e-06
8.7256325e-08
-5.7410341e-06
7.2967153e-08
-5.7434745e-06
5.8814424e-08
-5.741714e-06
4.4822184e-08
-5.7358229e-06
3.1013044e-08
-5.7258856e-06
1.7417911e-08
-5.7119993e-06
4.0647466e-09
-5.6941098e-06
-9.2288249e-09
-5.6723938e-06
-2.2185069e-08
-5.6469656e-06
-3.4875716e-08
-5.6178935e-06
-4.7290945e-08
-5.5852577e-06
-5.942288e-08
-5.5491519e-06
-7.1269668e-08
-5.5096725e-06
-8.2826615e-08
-5.4669135e-06
-9.4087562e-08
-5.4209651e-06
-1.0504655e-07
-5.3719132e-06
-1.1570057e-07
-5.3198501e-06
-1.2605167e-07
-5.264869e-06
-1.3610153e-07
-5.2070613e-06
-1.4585169e-07
-5.1465167e-06
-1.553041e-07
-5.0833235e-06
-1.6446149e-07
-5.0175682e-06
-1.7332735e-07
-4.9493357e-06
-1.8190586e-07
-4.8787093e-06
-1.9020179e-07
-4.80577e-06
-1.9822018e-07
-4.7305959e-06
-2.0596666e-07
-4.6532635e-06
-2.1344774e-07
-4.5738473e-06
-2.2067032e-07
-4.4924196e-06
-2.2764162e-07
-4.40905e-06
-2.34369e-07
-4.3238062e-06
-2.4086007e-07
-4.236753e-06
-2.4712257e-07
-4.1479529e-06
-2.5316434e-07
-4.0574659e-06
-2.5899334e-07
-3.9653494e-06
-2.6461761e-07
-3.8716585e-06
-2.7004514e-07
-3.7764458e-06
-2.7528403e-07
-3.6797614e-06
-2.8034226e-07
-3.5816531e-06
-2.8522774e-07
-3.4821663e-06
-2.8994837e-07
-3.3813438e-06
-2.9451189e-07
-3.2792267e-06
-2.9892591e-07
-3.1758532e-06
-3.0319791e-07
-3.07126e-06
-3.0733519e-07
-2.965481e-06
-3.1134483e-07
-2.8585486e-06
-3.1523381e-07
-2.7504928e-06
-3.1900884e-07
-2.641342e-06
-3.2267628e-07
-2.5311224e-06
-3.2624247e-07
-2.4198588e-06
-3.2971331e-07
-2.3075741e-06
-3.3309441e-07
-2.1942895e-06
-3.3639113e-07
-2.0800247e-06
-3.3960841e-07
-1.9647981e-06
-3.4275082e-07
-1.8486266e-06
-3.4582236e-07
-1.7315259e-06
-3.4882643e-07
-1.6135101e-06
-3.5176566e-07
-1.4945925e-06
-3.5464162e-07
-1.3747846e-06
-3.5745445e-07
-1.2540958e-06
-3.602026e-07
-1.1325326e-06
-3.6288228e-07
-1.0100964e-06
-3.6548789e-07
-8.8678008e-07
-3.6801439e-07
-7.6256432e-07
-3.7046379e-07
-6.3741471e-07
-3.7286155e-07
-5.1128903e-07
-3.7528914e-07
-3.8417514e-07
-3.7794131e-07
-2.5620063e-07
-3.8119517e-07
-1.2783806e-07
-3.8563182e-07
-3.9149472e-07
-3.412001e-10
-3.3924727e-09
-1.2716681e-09
-9.9421449e-09
-2.7475185e-09
-1.6052635e-08
-4.7401447e-09
-2.1578976e-08
-7.3079108e-09
-2.6547897e-08
-1.0547063e-08
-3.0956378e-08
-1.4571809e-08
-3.4777171e-08
-1.9512912e-08
-3.796057e-08
-2.5505145e-08
-4.0447445e-08
-3.2693433e-08
-4.2160751e-08
-4.1221937e-08
-4.3044115e-08
-5.1248911e-08
-4.3022949e-08
-6.2938043e-08
-4.2040338e-08
-7.6454032e-08
-4.0056251e-08
-9.1973912e-08
-3.7015037e-08
-1.0967586e-07
-3.2886701e-08
-1.297264e-07
-2.7662226e-08
-1.5230919e-07
-2.1309358e-08
-1.7760557e-07
-1.3825862e-08
-2.0578927e-07
-5.226257e-09
-2.3699785e-07
4.470568e-09
-2.7142913e-07
1.5274895e-08
-3.0921837e-07
2.7142977e-08
-3.5050479e-07
4.003254e-08
-3.9544349e-07
5.3890423e-08
-4.4413332e-07
6.8674944e-08
-4.9668317e-07
8.4320798e-08
-5.5318104e-07
1.0075971e-07
-6.1370786e-07
1.1791471e-07
-6.7831904e-07
1.3570806e-07
-7.4705608e-07
1.540553e-07
-8.1994036e-07
1.7286969e-07
-8.9697386e-07
1.920607e-07
-9.7812539e-07
2.115362e-07
-1.0633624e-06
2.3119212e-07
-1.1526301e-06
2.5092817e-07
-1.245855e-06
2.7064393e-07
-1.3429405e-06
2.902413e-07
-1.4437676e-06
3.0962284e-07
-1.5482009e-06
3.2868983e-07
-1.6560878e-06
3.4734546e-07
-1.7672582e-06
3.6549572e-07
-1.8815256e-06
3.8304988e-07
-1.9986882e-06
3.9992099e-07
-2.118529e-06
4.160268e-07
-2.2408175e-06
4.3128968e-07
-2.3653111e-06
4.456371e-07
-2.4917564e-06
4.5900208e-07
-2.6198903e-06
4.7132362e-07
-2.7494401e-06
4.8254766e-07
-2.8801274e-06
4.9262538e-07
-3.0116674e-06
5.0151503e-07
-3.1437719e-06
5.0918117e-07
-3.2761507e-06
5.1559527e-07
-3.4085113e-06
5.2073611e-07
-3.5405602e-06
5.245893e-07
-3.6720059e-06
5.2714618e-07
-3.8025604e-06
5.2840441e-07
-3.9319398e-06
5.2836804e-07
-4.0598655e-06
5.2704731e-07
-4.1860651e-06
5.2445833e-07
-4.3102738e-06
5.2062282e-07
-4.432235e-06
5.1556784e-07
-4.5517015e-06
5.0932516e-07
-4.6684365e-06
5.019311e-07
-4.7822135e-06
4.9342629e-07
-4.892818e-06
4.838549e-07
-5.0000476e-06
4.7326439e-07
-5.1037125e-06
4.6170519e-07
-5.2036354e-06
4.4923038e-07
-5.2996529e-06
4.3589493e-07
-5.3916148e-06
4.2175556e-07
-5.4793842e-06
4.0687035e-07
-5.5628382e-06
3.9129819e-07
-5.6418671e-06
3.7509842e-07
-5.716375e-06
3.5833056e-07
-5.7862793e-06
3.4105394e-07
-5.8515106e-06
3.2332741e-07
-5.9120121e-06
3.0520915e-07
-5.9677395e-06
2.8675639e-07
-6.0186604e-06
2.6802492e-07
-6.0647543e-06
2.4906901e-07
-6.1060116e-06
2.299413e-07
-6.1424335e-06
2.1069239e-07
-6.1740311e-06
1.9137091e-07
-6.2008254e-06
1.7202329e-07
-6.2228462e-06
1.5269359e-07
-6.2401319e-06
1.3342356e-07
-6.2527286e-06
1.1425261e-07
-6.2606903e-06
9.5217985e-08
-6.2640777e-06
7.6354562e-08
-6.2629581e-06
5.7694855e-08
-6.2574076e-06
3.9271673e-08
-6.247513e-06
2.1118474e-08
-6.233371e-06
3.2759292e-09
-6.2148736e-06
-1.443274e-08
-6.1923579e-06
-3.1744527e-08
-6.1658305e-06
-4.8712417e-08
-6.1353835e-06
-6.5322696e-08
-6.1011098e-06
-8.1564648e-08
-6.0631037e-06
-9.7428962e-08
-6.0214639e-06
-1.129095e-07
-5.9762904e-06
-1.2800015e-07
-5.9276824e-06
-1.4269554e-07
-5.8757375e-06
-1.5699148e-07
-5.8205519e-06
-1.7088608e-07
-5.7622235e-06
-1.8438013e-07
-5.7008496e-06
-1.9747542e-07
-5.6365266e-06
-2.1017466e-07
-5.5693494e-06
-2.2248135e-07
-5.499411e-06
-2.3439989e-07
-5.4268027e-06
-2.4593566e-07
-5.3516139e-06
-2.570947e-07
-5.2739318e-06
-2.6788387e-07
-5.1938414e-06
-2.7831061e-07
-5.111425e-06
-2.8838302e-07
-5.0267629e-06
-2.9810986e-07
-4.9399328e-06
-3.075004e-07
-4.8510101e-06
-3.1656431e-07
-4.7600676e-06
-3.253115e-07
-4.6671755e-06
-3.3375218e-07
-4.5724013e-06
-3.4189674e-07
-4.47581e-06
-3.4975569e-07
-4.3774637e-06
-3.5733959e-07
-4.2774221e-06
-3.6465918e-07
-4.1757422e-06
-3.7172509e-07
-4.0724783e-06
-3.7854795e-07
-3.9676821e-06
-3.8513841e-07
-3.8614029e-06
-3.9150693e-07
-3.7536874e-06
-3.9766385e-07
-3.6445799e-06
-4.0361944e-07
-3.5341221e-06
-4.0938368e-07
-3.4223536e-06
-4.1496644e-07
-3.3093114e-06
-4.2037731e-07
-3.1950306e-06
-4.2562566e-07
-3.0795439e-06
-4.3072056e-07
-2.9628819e-06
-4.3567082e-07
-2.8450732e-06
-4.4048497e-07
-2.7261445e-06
-4.4517116e-07
-2.6061206e-06
-4.4973726e-07
-2.4850243e-06
-4.5419068e-07
-2.3628769e-06
-4.5853851e-07
-2.239698e-06
-4.6278736e-07
-2.1155054e-06
-4.6694339e-07
-1.9903156e-06
-4.7101217e-07
-1.8641434e-06
-4.7499861e-07
-1.7370022e-06
-4.7890691e-07
-1.6089034e-06
-4.827404e-07
-1.4798566e-06
-4.8650122e-07
-1.3498688e-06
-4.9019045e-07
-1.2189429e-06
-4.9380812e-07
-1.0870768e-06
-4.9735405e-07
-9.5426063e-07
-5.0083052e-07
-8.2047622e-07
-5.0424818e-07
-6.8569947e-07
-5.0763831e-07
-5.4991471e-07
-5.1107389e-07
-4.1315569e-07
-5.1470034e-07
-2.755918e-07
-5.1875906e-07
-1.3765354e-07
-5.2357007e-07
-5.2914826e-07
-4.5062369e-10
-2.9418491e-09
-1.7282912e-09
-8.6644773e-09
-3.7881166e-09
-1.3992811e-08
-6.5978254e-09
-1.8769267e-08
-1.020193e-08
-2.2943793e-08
-1.468638e-08
-2.6471928e-08
-2.015905e-08
-2.9304501e-08
-2.6747045e-08
-3.1372574e-08
-3.4587275e-08
-3.2607216e-08
-4.3817177e-08
-3.2930849e-08
-5.4595405e-08
-3.2265889e-08
-6.7074605e-08
-3.0543747e-08
-8.1415761e-08
-2.7699181e-08
-9.7792748e-08
-2.3679264e-08
-1.1637222e-07
-1.8435562e-08
-1.3732465e-07
-1.1934271e-08
-1.6084283e-07
-4.1440409e-09
-1.8708154e-07
4.929352e-09
-2.1622031e-07
1.53129e-08
-2.4843269e-07
2.6986126e-08
-2.8389322e-07
3.9931096e-08
-3.227456e-07
5.4127278e-08
-3.6513696e-07
6.953434e-08
-4.1120596e-07
8.6101542e-08
-4.6108457e-07
1.0376902e-07
-5.1488184e-07
1.2247221e-07
-5.7269612e-07
1.4213509e-07
-6.3461014e-07
1.6267372e-07
-7.0069198e-07
1.8399655e-07
-7.7099066e-07
2.0600674e-07
-8.4553717e-07
2.2860181e-07
-9.2434245e-07
2.5167498e-07
-1.0073969e-06
2.7511518e-07
-1.0946684e-06
2.988077e-07
-1.1861092e-06
3.226329e-07
-1.2816516e-06
3.4647058e-07
-1.3812081e-06
3.7020044e-07
-1.4846701e-06
3.9370321e-07
-1.591908e-06
4.1686077e-07
-1.7027741e-06
4.395559e-07
-1.8171024e-06