/*--------------------------------*- C++ -*----------------------------------*\
| =========                 |                                                 |
| \\      /  F ield         | OpenFOAM: The Open Source CFD Toolbox           |
|  \\    /   O peration     | Version:  2306                                  |
|   \\  /    A nd           | Website:  www.openfoam.com                      |
|    \\/     M anipulation  |                                                 |
\*---------------------------------------------------------------------------*/
FoamFile
{
    version     2.0;
    format      ascii;
    arch        "LSB;label=32;scalar=64";
    class       volVectorField;
    location    "0.47";
    object      U_0;
}
// * * * * * * * * * * * * * * * * * * * * * * * * * * * * * * * * * * * * * //

dimensions      [0 1 -1 0 0 0 0];

internalField   nonuniform List<vector> 
51200
(
(2.4273162e-05 -2.5125979e-05 -5.6552083e-20)
(5.4025406e-05 -2.6280053e-05 -2.7639915e-21)
(8.6275133e-05 -2.5352647e-05 1.0627309e-20)
(0.00011653319 -2.4656885e-05 4.6391645e-21)
(0.00014628352 -2.4174933e-05 -9.2785361e-21)
(0.00017525114 -2.3806115e-05 6.1345623e-22)
(0.0002036011 -2.3499614e-05 1.0922479e-21)
(0.00023140466 -2.3206345e-05 -6.691921e-21)
(0.00025864467 -2.2903484e-05 -2.3155554e-22)
(0.00028527059 -2.2580517e-05 1.9830244e-20)
(0.00031121896 -2.2233037e-05 3.0400442e-20)
(0.00033642031 -2.1859114e-05 2.0874243e-20)
(0.00036080396 -2.1459169e-05 3.0322015e-20)
(0.00038430338 -2.1033979e-05 1.4079634e-20)
(0.00040685409 -2.058343e-05 5.8681657e-21)
(0.00042839919 -2.0110646e-05 1.7904594e-20)
(0.00044888789 -1.9615666e-05 2.5804327e-20)
(0.00046827228 -1.9100658e-05 1.2480219e-20)
(0.00048650645 -1.8565033e-05 -1.3515472e-20)
(0.00050355098 -1.8013558e-05 -7.7900219e-21)
(0.00051937604 -1.7447773e-05 1.2779843e-20)
(0.00053394959 -1.6867475e-05 2.4210641e-20)
(0.00054725163 -1.6282175e-05 4.0348853e-20)
(0.00055926801 -1.5688301e-05 3.563852e-20)
(0.00056998312 -1.5089316e-05 -1.4308429e-20)
(0.00057939024 -1.448718e-05 -8.6693382e-20)
(0.00058748283 -1.3881858e-05 -1.0167455e-19)
(0.00059426256 -1.3277845e-05 -5.639128e-20)
(0.00059973906 -1.267679e-05 4.2916457e-21)
(0.00060392421 -1.2080441e-05 1.0169071e-19)
(0.00060682757 -1.1487418e-05 8.1538993e-20)
(0.00060847501 -1.0906949e-05 -6.3822655e-20)
(0.00060888204 -1.0325643e-05 -1.0384293e-19)
(0.00060806269 -9.7459927e-06 -4.4697655e-20)
(0.00060604319 -9.164368e-06 5.7320348e-20)
(0.00060286017 -8.5873921e-06 6.8195313e-20)
(0.00059857677 -8.0069247e-06 -1.0451401e-19)
(0.00059323606 -7.440959e-06 -2.0275104e-19)
(0.00058686822 -6.8857586e-06 4.9759202e-20)
(0.00057950653 -6.3481961e-06 2.1111406e-19)
(0.00057119366 -5.8374321e-06 3.4237631e-20)
(0.00056198235 -5.3512781e-06 -3.6872292e-20)
(0.00055192459 -4.8878482e-06 1.1798847e-19)
(0.00054106671 -4.438228e-06 1.5185254e-19)
(0.00052944467 -3.998558e-06 2.3173407e-21)
(0.00051714033 -3.5398413e-06 -9.0955353e-20)
(0.00050422815 -3.097852e-06 -2.2321525e-19)
(0.00049074577 -2.6761818e-06 -1.2588592e-20)
(0.00047673618 -2.2570862e-06 2.608207e-20)
(0.00046225855 -1.8859961e-06 -3.2528067e-19)
(0.00044736985 -1.5122926e-06 1.1009857e-19)
(0.00043212049 -1.1741558e-06 3.48519e-19)
(0.00041657127 -8.5247313e-07 1.4001448e-19)
(0.00040077044 -5.45678e-07 3.7087787e-20)
(0.00038475158 -2.4765537e-07 -3.8175212e-19)
(0.0003685749 8.1064412e-09 -2.9346629e-19)
(0.00035230584 2.5353895e-07 1.6704e-19)
(0.00033598226 4.8308754e-07 1.0260002e-19)
(0.00031964678 6.9537408e-07 1.4609197e-20)
(0.00030334202 8.9068855e-07 3.2472717e-20)
(0.0002871106 1.0690126e-06 -2.8898656e-20)
(0.0002709887 1.2292362e-06 9.0295037e-20)
(0.00025501381 1.375357e-06 -3.0529943e-20)
(0.00023922547 1.5057185e-06 -3.5861972e-19)
(0.00022365042 1.6184813e-06 -3.7728962e-19)
(0.00020831787 1.7193386e-06 1.4124315e-19)
(0.0001932618 1.8081504e-06 5.8812591e-19)
(0.0001785083 1.8832975e-06 6.0708263e-21)
(0.00016407296 1.9444575e-06 -2.6160866e-19)
(0.00014997984 1.9993762e-06 1.2551286e-19)
(0.00013625637 2.04475e-06 -1.2593913e-20)
(0.00012291008 2.0786884e-06 -2.8442672e-20)
(0.00010995558 2.1079319e-06 9.725027e-20)
(9.741287e-05 2.1309241e-06 7.4924613e-20)
(8.5289967e-05 2.1464985e-06 1.0731e-19)
(7.3594182e-05 2.1560389e-06 -1.2353476e-19)
(6.2333316e-05 2.1601596e-06 -1.7128233e-19)
(5.1520056e-05 2.1594691e-06 5.8484266e-20)
(4.1142682e-05 2.1471786e-06 1.2480712e-19)
(3.1205566e-05 2.1380258e-06 -1.2465547e-19)
(2.1723383e-05 2.1232995e-06 -3.8401374e-19)
(1.2686705e-05 2.1042003e-06 1.9903832e-19)
(4.0886628e-06 2.0802453e-06 3.3812438e-19)
(-4.0716514e-06 2.0559335e-06 -2.2515555e-20)
(-1.1793728e-05 2.0286075e-06 7.2011949e-20)
(-1.9086904e-05 1.9987303e-06 -1.2087256e-19)
(-2.5958036e-05 1.9668018e-06 6.6653921e-20)
(-3.2414579e-05 1.9331876e-06 4.2395556e-20)
(-3.8464814e-05 1.8982028e-06 -3.0463229e-19)
(-4.4117739e-05 1.8621285e-06 -3.5762438e-20)
(-4.9382985e-05 1.8252419e-06 -1.9493139e-19)
(-5.4270727e-05 1.7878113e-06 -1.0347806e-19)
(-5.8791576e-05 1.7500543e-06 2.8395221e-19)
(-6.2956464e-05 1.7121501e-06 1.6913458e-19)
(-6.6776501e-05 1.6741616e-06 -4.096063e-20)
(-7.0262797e-05 1.6359873e-06 -2.7132837e-19)
(-7.3426299e-05 1.5974738e-06 9.6360226e-20)
(-7.6278008e-05 1.5586738e-06 2.8616264e-19)
(-7.8829212e-05 1.5197388e-06 5.3857904e-20)
(-8.1091531e-05 1.4807527e-06 -1.4821815e-19)
(-8.3077336e-05 1.4417898e-06 -3.0659939e-19)
(-8.4798561e-05 1.4035617e-06 1.1648905e-19)
(-8.6266192e-05 1.3665406e-06 1.9664705e-19)
(-8.7491143e-05 1.3324436e-06 5.612284e-20)
(-8.8483075e-05 1.3063879e-06 -6.3762212e-20)
(-8.9254524e-05 1.2913748e-06 -3.3111466e-19)
(-8.9818974e-05 1.2772183e-06 9.8128517e-20)
(-9.0186527e-05 1.2624222e-06 2.6883571e-19)
(-9.0366862e-05 1.2471075e-06 5.3964354e-20)
(-9.0369557e-05 1.2316489e-06 3.9054106e-20)
(-9.0204018e-05 1.216349e-06 -2.5634071e-19)
(-8.987927e-05 1.201271e-06 -1.6288726e-19)
(-8.9403484e-05 1.1860562e-06 1.757499e-19)
(-8.8782514e-05 1.1692623e-06 8.1510439e-20)
(-8.8025022e-05 1.1457135e-06 1.3219269e-20)
(-8.7145981e-05 1.1153864e-06 -5.5026348e-20)
(-8.6154762e-05 1.0853113e-06 -1.0618276e-21)
(-8.5055331e-05 1.05689e-06 1.023488e-19)
(-8.3853955e-05 1.0302617e-06 -1.7516642e-20)
(-8.2557282e-05 1.0052595e-06 -3.6498266e-20)
(-8.1171844e-05 9.8170954e-07 -5.3589491e-20)
(-7.9703928e-05 9.594648e-07 2.2251271e-20)
(-7.8159537e-05 9.3840885e-07 8.2295284e-20)
(-7.6544379e-05 9.1845065e-07 -7.2000133e-21)
(-7.4863876e-05 8.9952021e-07 -4.9335732e-20)
(-7.3123179e-05 8.8156065e-07 -9.831131e-20)
(-7.1327166e-05 8.6451291e-07 2.0718966e-20)
(-6.9480457e-05 8.4833396e-07 1.111481e-19)
(-6.758742e-05 8.3298485e-07 2.5372596e-20)
(-6.5652188e-05 8.1842556e-07 -3.3148944e-20)
(-6.367866e-05 8.0461951e-07 -6.3260399e-20)
(-6.1670509e-05 7.9152718e-07 2.5420532e-20)
(-5.9631199e-05 7.7912581e-07 7.9489789e-20)
(-5.7563992e-05 7.673774e-07 -5.9429812e-21)
(-5.5471952e-05 7.5625297e-07 -6.7415227e-20)
(-5.3357963e-05 7.4572865e-07 -3.5061959e-20)
(-5.1224729e-05 7.3576732e-07 3.8270091e-20)
(-4.9074792e-05 7.26349e-07 2.8955357e-20)
(-4.6910532e-05 7.174441e-07 8.6036709e-21)
(-4.4734183e-05 7.0902975e-07 2.3047546e-22)
(-4.2547844e-05 7.010761e-07 -2.6976544e-20)
(-4.035348e-05 6.9356236e-07 1.7115357e-20)
(-3.8152943e-05 6.8646189e-07 2.0401397e-20)
(-3.5947978e-05 6.7975193e-07 -1.3987548e-20)
(-3.3740235e-05 6.7341073e-07 -7.3415039e-21)
(-3.1531289e-05 6.6741895e-07 -3.8699669e-20)
(-2.9322663e-05 6.6176823e-07 -1.0359564e-21)
(-2.7115866e-05 6.5646079e-07 5.1587556e-20)
(-2.4912451e-05 6.5153242e-07 8.9999764e-21)
(-2.2714124e-05 6.4708392e-07 -1.9350153e-20)
(-2.0522961e-05 6.4334648e-07 -2.3103779e-20)
(-1.8341801e-05 6.4079207e-07 1.1665197e-21)
(-1.6174975e-05 6.4030357e-07 2.1981527e-20)
(-1.4029521e-05 6.4354252e-07 5.8475844e-21)
(-1.1916973e-05 6.5365171e-07 -1.8057605e-21)
(-9.8548279e-06 6.7550239e-07 -6.6822761e-21)
(-7.8637579e-06 7.1176691e-07 -3.7005375e-21)
(-5.9485711e-06 7.4133371e-07 4.6087243e-21)
(-4.0421473e-06 6.1976319e-07 2.9752397e-21)
(-1.5737478e-06 2.4893802e-08 2.827788e-22)
(3.2034655e-05 -0.00011655063 1.6572343e-20)
(6.9086598e-05 -0.00011243008 -5.1573489e-21)
(0.00010945522 -0.00010856142 -1.0017203e-20)
(0.00014699806 -0.00010488178 -1.4672686e-20)
(0.00018345448 -0.00010197528 -1.788455e-20)
(0.00021851787 -9.9689805e-05 -1.2074829e-20)
(0.00025241658 -9.7757419e-05 -1.2749821e-20)
(0.00028526958 -9.5967399e-05 -2.044757e-21)
(0.00031706795 -9.4195549e-05 2.2413247e-20)
(0.00034774965 -9.2368787e-05 6.2909409e-20)
(0.00037722643 -9.0449476e-05 6.8375564e-20)
(0.00040539488 -8.8416629e-05 8.6942912e-20)
(0.00043214605 -8.6262789e-05 8.9459746e-20)
(0.00045737693 -8.3987178e-05 2.7536354e-20)
(0.0004809851 -8.1586313e-05 3.8751985e-20)
(0.00050288203 -7.9079119e-05 6.5286911e-20)
(0.00052298962 -7.6464224e-05 6.1607235e-20)
(0.00054123588 -7.375095e-05 2.9170052e-20)
(0.00055755079 -7.0937059e-05 -4.7637988e-20)
(0.00057187557 -6.8046643e-05 -2.0614963e-20)
(0.00058417296 -6.5084617e-05 2.824398e-20)
(0.00059439525 -6.2047217e-05 4.8003279e-20)
(0.00060252303 -5.8972428e-05 1.0395569e-19)
(0.00060854737 -5.5846523e-05 1.4636798e-19)
(0.00061245217 -5.2682118e-05 -5.1483436e-20)
(0.00061424309 -4.9493491e-05 -3.3781244e-19)
(0.00061392165 -4.6278788e-05 -2.412022e-19)
(0.00061150551 -4.3066742e-05 -1.0272976e-19)
(0.0006070287 -3.986146e-05 -5.6671896e-20)
(0.00060053013 -3.6663631e-05 3.236328e-19)
(0.00059203276 -3.3483898e-05 2.8765816e-19)
(0.00058160617 -3.0351389e-05 -2.7925523e-19)
(0.00056930732 -2.7201888e-05 -4.3399724e-19)
(0.00055517439 -2.4101162e-05 -5.8638103e-20)
(0.00053926866 -2.1013985e-05 4.1066721e-19)
(0.00052167492 -1.8037882e-05 2.0523084e-19)
(0.00050248887 -1.5110348e-05 -3.4099796e-19)
(0.00048178422 -1.2306423e-05 -4.7313955e-19)
(0.00045964747 -9.6339477e-06 8.1226005e-20)
(0.00043615313 -7.068212e-06 2.3307578e-19)
(0.00041140005 -4.6020675e-06 -2.7314541e-19)
(0.00038550102 -2.23694e-06 5.602341e-20)
(0.00035856587 2.4170262e-08 9.1468828e-19)
(0.00033068957 2.1778733e-06 1.2699544e-18)
(0.00030197538 4.2286191e-06 -1.5586899e-19)
(0.00027251786 6.1938333e-06 -1.9027375e-18)
(0.00024241143 8.0485603e-06 -9.890847e-19)
(0.00021179468 9.7869193e-06 6.7132664e-19)
(0.00018070798 1.1406584e-05 7.8230559e-19)
(0.00014929396 1.2911248e-05 -3.5170354e-19)
(0.00011766366 1.4299235e-05 -6.7144498e-19)
(8.5878606e-05 1.5571873e-05 9.1397931e-19)
(5.4081972e-05 1.6729465e-05 1.0485145e-18)
(2.2346713e-05 1.7772075e-05 -2.718008e-19)
(-9.2911355e-06 1.8703419e-05 -7.1397772e-19)
(-4.0706589e-05 1.9528687e-05 -7.2473322e-19)
(-7.1773656e-05 2.0248241e-05 -1.5542371e-19)
(-0.0001024564 2.0864513e-05 6.0001635e-19)
(-0.00013267714 2.138021e-05 2.6193098e-19)
(-0.00016236472 2.1799381e-05 -5.9678168e-19)
(-0.00019145212 2.2125347e-05 -2.3147647e-19)
(-0.00021987885 2.2359406e-05 7.4059177e-19)
(-0.00024758772 2.2511048e-05 1.1488317e-19)
(-0.00027452433 2.2581146e-05 -1.073206e-18)
(-0.00030064298 2.2570321e-05 -6.6121251e-19)
(-0.00032590053 2.2490128e-05 6.675037e-19)
(-0.0003502563 2.2343537e-05 9.7610913e-19)
(-0.00037367614 2.2131919e-05 1.3908937e-19)
(-0.00039613259 2.185815e-05 -6.0050132e-19)
(-0.00041759959 2.1535906e-05 -1.0175231e-18)
(-0.00043805407 2.1164004e-05 5.0024547e-20)
(-0.00045748197 2.0743618e-05 8.4208942e-19)
(-0.00047587047 2.0286908e-05 1.7554671e-19)
(-0.00049320875 1.9795129e-05 1.6397493e-19)
(-0.00050949202 1.9270347e-05 1.8548307e-19)
(-0.00052471855 1.8717575e-05 1.4373657e-19)
(-0.00053888953 1.8140637e-05 -2.6861518e-19)
(-0.00055200864 1.7543271e-05 -7.0844965e-19)
(-0.00056408614 1.6920589e-05 -9.0235254e-20)
(-0.00057513175 1.629226e-05 2.9454696e-19)
(-0.00058515557 1.5650856e-05 5.5797562e-20)
(-0.00059417411 1.5000208e-05 1.1581803e-19)
(-0.00060220584 1.4342149e-05 6.7130044e-20)
(-0.0006092695 1.368415e-05 -5.2764929e-19)
(-0.00061538481 1.3025174e-05 -6.8556535e-20)
(-0.00062057489 1.2367492e-05 4.4492109e-19)
(-0.00062486393 1.1713364e-05 -9.5622323e-20)
(-0.00062827717 1.1064781e-05 3.3076359e-19)
(-0.00063084082 1.0423538e-05 1.3665913e-19)
(-0.00063258194 9.7912503e-06 -6.8319445e-19)
(-0.00063352826 9.1693728e-06 -4.684315e-19)
(-0.00063370813 8.5591537e-06 2.7033195e-20)
(-0.00063315026 7.9616418e-06 3.7336738e-19)
(-0.0006318836 7.3776798e-06 -1.2205642e-21)
(-0.00062993725 6.8078967e-06 -1.02652e-19)
(-0.00062734003 6.2526697e-06 8.1802736e-20)
(-0.00062412005 5.7122982e-06 2.1242572e-19)
(-0.00062030522 5.1878071e-06 3.0807275e-19)
(-0.00061592376 4.6796384e-06 -3.0430683e-19)
(-0.00061100395 4.1890814e-06 -4.8664338e-19)
(-0.00060557368 3.7197113e-06 -3.1971549e-21)
(-0.00059966023 3.2666854e-06 3.7387882e-19)
(-0.00059328885 2.8297368e-06 2.9869205e-19)
(-0.00058648093 2.4086601e-06 -1.4018726e-19)
(-0.00057926016 1.999717e-06 -2.9384839e-19)
(-0.00057166848 1.5963839e-06 -1.6168129e-19)
(-0.00056373622 1.2087107e-06 2.1835499e-19)
(-0.00055547531 8.3863223e-07 4.9593311e-19)
(-0.00054690572 4.8634985e-07 4.5964851e-20)
(-0.00053804867 1.5157902e-07 -3.1170238e-19)
(-0.00052892517 -1.6607353e-07 -1.6908071e-19)
(-0.00051955566 -4.670962e-07 -1.4670368e-19)
(-0.00050996006 -7.5214383e-07 2.7157894e-19)
(-0.00050015879 -1.0226355e-06 4.0341579e-19)
(-0.00049016843 -1.2827427e-06 -1.6077483e-19)
(-0.0004800006 -1.5341558e-06 -3.8286191e-19)
(-0.00046967153 -1.7731905e-06 -9.5836238e-20)
(-0.00045919994 -1.9991639e-06 3.4206467e-19)
(-0.00044860101 -2.2122782e-06 9.4639036e-20)
(-0.00043788863 -2.4130291e-06 -4.218013e-19)
(-0.00042707585 -2.6019673e-06 -1.2600057e-19)
(-0.00041617502 -2.7796411e-06 4.0332012e-19)
(-0.00040519777 -2.9465843e-06 3.225625e-19)
(-0.00039415513 -3.1033139e-06 -2.3118023e-19)
(-0.00038305743 -3.2503145e-06 -4.9196817e-19)
(-0.0003719144 -3.3880525e-06 -3.3435938e-20)
(-0.00036073518 -3.5169842e-06 3.6882256e-19)
(-0.0003495283 -3.6375517e-06 1.9957724e-19)
(-0.00033830174 -3.7501664e-06 -7.39363e-20)
(-0.00032706294 -3.8552343e-06 -2.0013719e-19)
(-0.00031581882 -3.9531438e-06 -8.9139278e-20)
(-0.00030457582 -4.0442762e-06 2.2189817e-19)
(-0.00029333989 -4.12898e-06 2.5193744e-19)
(-0.00028211654 -4.2076028e-06 -3.1558736e-20)
(-0.00027091087 -4.2804678e-06 -2.425415e-19)
(-0.00025972755 -4.3478832e-06 -6.8102779e-20)
(-0.00024857088 -4.4101547e-06 1.3090816e-19)
(-0.00023744482 -4.4675529e-06 6.0533473e-20)
(-0.00022635295 -4.5203443e-06 -7.1592477e-22)
(-0.00021529857 -4.5687733e-06 -3.0649786e-20)
(-0.00020428467 -4.613073e-06 -3.5344858e-20)
(-0.00019331399 -4.6534434e-06 -5.4202539e-21)
(-0.00018238899 -4.6900798e-06 4.0299782e-20)
(-0.00017151192 -4.7231474e-06 -1.9239317e-20)
(-0.00016068485 -4.7527785e-06 -8.5968087e-20)
(-0.00014990967 -4.7790741e-06 -2.4099516e-20)
(-0.00013918818 -4.8020734e-06 7.4936267e-20)
(-0.00012852212 -4.8217342e-06 8.4919815e-20)
(-0.00011791329 -4.8378818e-06 -2.799022e-20)
(-0.0001073637 -4.85007e-06 -8.3620163e-20)
(-9.6875892e-05 -4.8574086e-06 -5.5931379e-21)
(-8.6453395e-05 -4.8581818e-06 5.6256647e-20)
(-7.6101357e-05 -4.849257e-06 3.3065985e-20)
(-6.5826907e-05 -4.8254295e-06 -1.0319761e-20)
(-5.5638853e-05 -4.7796166e-06 -2.0166012e-20)
(-4.5544704e-05 -4.7066949e-06 -2.7455815e-21)
(-3.5539718e-05 -4.6199256e-06 1.2674516e-20)
(-2.5580082e-05 -4.6002035e-06 1.3718638e-20)
(-1.5564494e-05 -4.8945931e-06 7.7689682e-21)
(-5.2557173e-06 -5.8954722e-06 7.2711361e-21)
(2.1800004e-05 -0.00020106046 2.6262945e-20)
(4.6669215e-05 -0.00019300904 -1.9926284e-20)
(7.4326137e-05 -0.00018608721 -5.5910226e-20)
(9.98008e-05 -0.00017905281 -5.6198394e-20)
(0.00012422755 -0.00017326722 -9.5676087e-21)
(0.00014729465 -0.00016852073 -3.6391782e-20)
(0.00016909 -0.00016438955 -3.6463625e-20)
(0.00018967891 -0.00016052562 7.3450157e-21)
(0.00020903186 -0.00015669967 4.6109385e-20)
(0.0002270928 -0.0001527723 9.2109167e-20)
(0.00024378489 -0.00014866642 1.0572262e-19)
(0.00025901597 -0.00014433827 1.0985724e-19)
(0.00027268398 -0.00013976756 8.7546195e-20)
(0.0002846968 -0.00013495086 8.7825573e-20)
(0.00029494454 -0.00012990158 1.1738159e-19)
(0.00030334684 -0.00012462313 8.7087132e-20)
(0.0003098421 -0.00011913658 6.8702183e-20)
(0.00031436602 -0.00011345362 2.3292636e-20)
(0.00031684239 -0.0001076024 -3.0848533e-20)
(0.00031721865 -0.00010156113 1.1456729e-20)
(0.00031548877 -9.5405125e-05 6.2148804e-20)
(0.00031158885 -8.9138079e-05 6.7410867e-20)
(0.00030551828 -8.2783687e-05 1.0328194e-19)
(0.00029729891 -7.6352278e-05 6.1896828e-20)
(0.00028690748 -6.9865476e-05 -1.45589e-19)
(0.00027437379 -6.3349303e-05 -1.6374014e-19)
(0.00025970205 -5.6823672e-05 -7.4457857e-20)
(0.00024292401 -5.0306412e-05 -1.288581e-19)
(0.00022411558 -4.3827561e-05 -1.6719806e-19)
(0.00020332337 -3.7400027e-05 1.1301895e-19)
(0.00018057045 -3.1054022e-05 2.0627521e-19)
(0.0001560095 -2.4800056e-05 -2.0135579e-19)
(0.00012967033 -1.8693003e-05 -3.2945185e-19)
(0.00010159638 -1.2769419e-05 -1.139929e-19)
(7.1839685e-05 -6.9917472e-06 2.4399815e-19)
(4.0532895e-05 -1.3684e-06 3.2002298e-19)
(7.8244607e-06 4.0782296e-06 -7.8831679e-20)
(-2.6248046e-05 9.3209236e-06 -1.9389406e-19)
(-6.1488226e-05 1.4341241e-05 -1.5511592e-19)
(-9.777664e-05 1.9133455e-05 -3.8441157e-19)
(-0.00013503115 2.3705321e-05 -2.7810457e-19)
(-0.00017314124 2.8049696e-05 4.960526e-19)
(-0.00021198559 3.2159265e-05 8.7026885e-19)
(-0.00025144198 3.6017483e-05 6.7185285e-19)
(-0.00029138472 3.9624804e-05 -1.7229152e-19)
(-0.00033169028 4.2966525e-05 -1.5201972e-18)
(-0.00037224059 4.6053249e-05 -6.535055e-19)
(-0.00041291225 4.8882003e-05 4.2138502e-19)
(-0.00045359397 5.1430046e-05 6.561406e-19)
(-0.00049416476 5.3756744e-05 7.2434898e-19)
(-0.00053450927 5.5802724e-05 -6.8828737e-19)
(-0.0005745206 5.7615805e-05 -2.1074227e-19)
(-0.00061408545 5.9176764e-05 7.0783601e-19)
(-0.00065310533 6.0486429e-05 -8.921009e-20)
(-0.00069149583 6.154607e-05 -1.8136322e-19)
(-0.00072915425 6.2407711e-05 -2.7469742e-19)
(-0.00076597855 6.3037959e-05 -2.7852802e-19)
(-0.00080189317 6.34494e-05 3.1955074e-19)
(-0.00083682158 6.3651859e-05 6.0144633e-20)
(-0.00087069152 6.3654986e-05 -5.9552006e-19)
(-0.00090343565 6.3468153e-05 -1.3781381e-19)
(-0.00093499349 6.3100233e-05 4.1602358e-19)
(-0.00096530936 6.2562933e-05 -1.0971584e-19)
(-0.0009943323 6.1865267e-05 -2.8135052e-19)
(-0.0010220197 6.1016355e-05 3.8360439e-19)
(-0.0010483334 6.0028584e-05 3.5069333e-19)
(-0.0010732393 5.8911739e-05 -2.5706147e-19)
(-0.0010967103 5.7675087e-05 -2.592112e-19)
(-0.0011187261 5.6328444e-05 -1.0321238e-19)
(-0.0011392697 5.4884013e-05 -4.8700336e-19)
(-0.0011583285 5.3350245e-05 -1.3224437e-19)
(-0.0011758975 5.1736241e-05 2.8515398e-19)
(-0.0011919752 5.0053365e-05 4.3426234e-20)
(-0.0012065631 4.8310415e-05 2.9175371e-19)
(-0.0012196684 4.6515984e-05 2.1993013e-19)
(-0.0012313023 4.4678947e-05 3.4676817e-19)
(-0.0012414794 4.2807593e-05 7.0898999e-21)
(-0.0012502174 4.0909646e-05 -8.5401124e-19)
(-0.0012575393 3.8991647e-05 -2.5843888e-19)
(-0.0012634694 3.706319e-05 6.127422e-19)
(-0.0012680335 3.5129562e-05 2.6956877e-19)
(-0.0012712619 3.3196899e-05 -5.5225744e-19)
(-0.0012731871 3.1271042e-05 -4.1783107e-19)
(-0.0012738427 2.9358454e-05 -2.294158e-19)
(-0.001273264 2.746361e-05 -1.5231474e-19)
(-0.0012714883 2.5590954e-05 2.2543254e-19)
(-0.0012685542 2.3744672e-05 -4.3993756e-20)
(-0.0012645012 2.1928591e-05 2.5470136e-19)
(-0.0012593698 2.014616e-05 5.6367474e-19)
(-0.001253201 1.8400449e-05 -2.7259502e-19)
(-0.0012460365 1.6694167e-05 -5.0182046e-19)
(-0.0012379181 1.5029719e-05 -2.084119e-20)
(-0.001228888 1.3409241e-05 1.4606389e-19)
(-0.0012189877 1.1834451e-05 -1.8111002e-19)
(-0.0012082589 1.0306564e-05 2.3206533e-20)
(-0.0011967425 8.8257051e-06 4.6821396e-19)
(-0.001184478 7.3904017e-06 9.2120983e-21)
(-0.0011715049 6.0026411e-06 -2.5680648e-19)
(-0.001157862 4.6635233e-06 -3.5494631e-19)
(-0.001143585 3.3754844e-06 -1.2986402e-19)
(-0.0011287189 2.1348945e-06 3.9472989e-19)
(-0.0011133049 9.4517661e-07 2.5855123e-19)
(-0.0010973736 -1.9515117e-07 2.300753e-20)
(-0.0010809632 -1.29037e-06 -2.9300862e-19)
(-0.0010641125 -2.3484992e-06 -8.6706107e-20)
(-0.0010468422 -3.375328e-06 3.5560989e-19)
(-0.0010291785 -4.3579156e-06 9.050505e-20)
(-0.0010111614 -5.2939586e-06 1.446093e-20)
(-0.00099282215 -6.1838799e-06 -8.2995231e-20)
(-0.00097418914 -7.0289161e-06 -2.7653822e-19)
(-0.00095528945 -7.8304365e-06 3.1707665e-20)
(-0.00093614894 -8.589793e-06 1.1068877e-19)
(-0.00091679251 -9.3081479e-06 1.0228136e-19)
(-0.0008972445 -9.9863526e-06 2.3622591e-19)
(-0.00087752815 -1.0623898e-05 -9.7237456e-20)
(-0.00085766385 -1.1222898e-05 -3.6722884e-19)
(-0.00083767082 -1.1787925e-05 -1.709652e-19)
(-0.0008175686 -1.2320717e-05 1.4468092e-19)
(-0.0007973756 -1.2822541e-05 1.1383645e-19)
(-0.00077710906 -1.3294582e-05 -9.6937084e-20)
(-0.00075678515 -1.3738057e-05 3.1513573e-20)
(-0.00073641903 -1.4154195e-05 1.7537655e-19)
(-0.00071602489 -1.4544217e-05 7.12972e-20)
(-0.00069561603 -1.4909352e-05 -1.8770876e-19)
(-0.00067520486 -1.5250796e-05 -2.2024427e-19)
(-0.00065480291 -1.5569716e-05 9.3235505e-20)
(-0.00063442093 -1.5867242e-05 2.0592099e-19)
(-0.00061406886 -1.6144497e-05 1.0222267e-19)
(-0.0005937559 -1.640254e-05 -8.4147818e-20)
(-0.00057349054 -1.6642409e-05 -9.1370507e-20)
(-0.00055328055 -1.6865098e-05 3.6596481e-20)
(-0.00053313308 -1.7071565e-05 6.6405744e-20)
(-0.00051305465 -1.7262734e-05 1.1576107e-19)
(-0.00049305118 -1.743948e-05 7.6056324e-20)
(-0.00047312804 -1.7602644e-05 -5.1603155e-20)
(-0.00045329006 -1.7753028e-05 -8.2584188e-20)
(-0.00043354158 -1.7891389e-05 -3.1050195e-21)
(-0.00041388648 -1.801845e-05 3.2615709e-20)
(-0.00039432819 -1.8134889e-05 -9.9396083e-21)
(-0.00037486973 -1.824134e-05 -1.8118504e-20)
(-0.00035551374 -1.8338398e-05 -8.5093676e-21)
(-0.00033626253 -1.8426596e-05 -4.9076745e-20)
(-0.00031711807 -1.8506443e-05 9.0581187e-21)
(-0.00029808204 -1.857837e-05 1.8847497e-20)
(-0.0002791559 -1.8642736e-05 -2.8933946e-20)
(-0.00026034088 -1.8699831e-05 1.9121329e-20)
(-0.00024163807 -1.8749811e-05 1.7205766e-20)
(-0.00022304847 -1.8792666e-05 1.9222279e-21)
(-0.0002045731 -1.882812e-05 1.4887386e-21)
(-0.0001862131 -1.885546e-05 -2.9084844e-21)
(-0.00016796987 -1.8873288e-05 3.4917061e-20)
(-0.00014984513 -1.8879136e-05 3.1404967e-20)
(-0.00013184082 -1.8869076e-05 4.7039553e-21)
(-0.00011395874 -1.883791e-05 -1.853701e-20)
(-9.6198956e-05 -1.8781702e-05 -6.0588685e-21)
(-7.8556166e-05 -1.8706324e-05 2.0637973e-20)
(-6.1011988e-05 -1.8650657e-05 1.1357987e-20)
(-4.3522141e-05 -1.8737683e-05 1.2828129e-20)
(-2.6028291e-05 -1.9245689e-05 2.1260989e-20)
(-8.6103553e-06 -2.0500846e-05 2.8689046e-20)
(8.2756953e-06 -0.00024055796 1.7625665e-20)
(1.8066343e-05 -0.00023157583 -1.1571452e-19)
(2.9614815e-05 -0.00022330264 -1.3289604e-19)
(4.0125977e-05 -0.00021455942 -1.3341089e-19)
(4.9912608e-05 -0.00020700236 -1.4879908e-19)
(5.8684264e-05 -0.00020044125 -1.4037581e-19)
(6.6286017e-05 -0.00019447565 -9.3729609e-20)
(7.2699289e-05 -0.00018875468 -5.2102185e-21)
(7.7850149e-05 -0.00018302133 5.8156109e-20)
(8.1674976e-05 -0.00017710655 1.1393681e-19)
(8.4110095e-05 -0.00017091577 1.3685025e-19)
(8.5082569e-05 -0.00016439561 1.0214055e-19)
(8.4506387e-05 -0.00015752413 6.6449027e-20)
(8.2291645e-05 -0.00015029945 1.2503021e-19)
(7.8365598e-05 -0.00014274014 1.0741092e-19)
(7.2661062e-05 -0.00013484514 4.9689353e-20)
(6.5119261e-05 -0.00012665126 8.1345388e-20)
(5.5684408e-05 -0.00011818356 6.5149699e-20)
(4.4343609e-05 -0.00010948463 5.0735453e-20)
(3.1009482e-05 -0.00010055998 4.1428048e-20)
(1.5647994e-05 -9.1456335e-05 6.6528896e-20)
(-1.7162719e-06 -8.2223558e-05 7.2866454e-20)
(-2.1083361e-05 -7.2862437e-05 -2.9994065e-20)
(-4.2435789e-05 -6.3433452e-05 -7.7926732e-20)
(-6.5779539e-05 -5.3970122e-05 6.4691902e-20)
(-9.1078824e-05 -4.4490925e-05 3.163133e-20)
(-0.00011829674 -3.5048585e-05 -2.3470333e-19)
(-0.00014739693 -2.565719e-05 -1.1325461e-19)
(-0.00017830969 -1.6349514e-05 8.7614068e-20)
(-0.00021096586 -7.1784686e-06 3.6346248e-20)
(-0.00024531131 1.824122e-06 -1.7678325e-19)
(-0.00028126806 1.0653166e-05 -2.1406818e-19)
(-0.00031877096 1.9189041e-05 1.2684215e-19)
(-0.00035765883 2.7469577e-05 1.7736493e-19)
(-0.00039781203 3.5442982e-05 -1.6388132e-19)
(-0.0004391752 4.319148e-05 -3.0077806e-19)
(-0.00048163675 5.0621888e-05 6.2387334e-20)
(-0.00052509034 5.77622e-05 2.2883376e-19)
(-0.00056939652 6.4594531e-05 -2.1765178e-19)
(-0.00061442276 7.1069116e-05 -2.7053583e-19)
(-0.00066004742 7.7167253e-05 -2.5623021e-20)
(-0.00070614521 8.2879225e-05 1.5093883e-19)
(-0.00075258784 8.8197963e-05 2.7804236e-19)
(-0.00079924691 9.3116012e-05 1.4409288e-19)
(-0.00084599369 9.7630129e-05 4.0321364e-20)
(-0.00089269934 0.00010173397 -3.2735934e-19)
(-0.00093923773 0.00010542642 -2.8221107e-19)
(-0.00098548358 0.00010870736 1.1982699e-19)
(-0.0010313185 0.00011157605 2.6953338e-19)
(-0.0010766215 0.00011404367 5.053738e-19)
(-0.0011212759 0.00011610786 -1.2538028e-22)
(-0.0011651719 0.00011778044 -5.3706369e-19)
(-0.0012082005 0.00011906623 1.5422554e-20)
(-0.0012502625 0.00011997281 2.7889603e-19)
(-0.0012912643 0.0001205111 -6.5004177e-20)
(-0.0013311116 0.00012070407 -2.771599e-19)
(-0.0013697149 0.00012055645 -2.0538241e-19)
(-0.0014069957 0.00012008087 7.8821402e-20)
(-0.0014428812 0.00011929185 1.0643027e-20)
(-0.0014773044 0.00011820483 -2.7531597e-19)
(-0.0015102041 0.00011683563 -1.1887778e-20)
(-0.0015415259 0.00011520033 2.6663254e-19)
(-0.0015712214 0.00011331631 1.9730131e-20)
(-0.001599248 0.00011120004 -1.1598472e-19)
(-0.0016255705 0.00010886819 6.6025251e-20)
(-0.0016501594 0.00010633873 1.4386752e-19)
(-0.0016729905 0.00010362861 -1.9983403e-19)
(-0.0016940462 0.00010075422 -2.8039458e-19)
(-0.0017133155 9.7732217e-05 -1.0373144e-19)
(-0.001730792 9.4579953e-05 -1.0135372e-19)
(-0.0017464743 9.1312962e-05 3.8109879e-20)
(-0.0017603673 8.7946647e-05 5.1466257e-20)
(-0.0017724804 8.4497042e-05 -1.1447999e-19)
(-0.0017828271 8.0978743e-05 -8.7618635e-20)
(-0.0017914255 7.7405673e-05 2.2979844e-19)
(-0.0017982983 7.3791443e-05 3.8874829e-19)
(-0.0018034714 7.0148967e-05 -2.6507595e-19)
(-0.0018069745 6.649038e-05 -6.0893658e-19)
(-0.0018088411 6.2826914e-05 -9.5957225e-21)
(-0.0018091069 5.9170631e-05 1.5803856e-19)
(-0.00180781 5.5531176e-05 -2.0478981e-19)
(-0.0018049915 5.1917948e-05 -3.0450307e-19)
(-0.0018006945 4.8339822e-05 -2.3305754e-20)
(-0.0017949639 4.4805199e-05 1.7295849e-19)
(-0.0017878457 4.1321348e-05 5.1222208e-20)
(-0.0017793878 3.7894936e-05 -1.0258416e-19)
(-0.001769639 3.4531989e-05 -2.9546612e-19)
(-0.0017586488 3.1237938e-05 -1.2754408e-19)
(-0.0017464674 2.8017603e-05 3.4572811e-19)
(-0.0017331455 2.487519e-05 3.4129613e-19)
(-0.0017187338 2.1814327e-05 -1.0824792e-19)
(-0.0017032829 1.8838095e-05 -3.831488e-19)
(-0.0016868434 1.5948931e-05 -1.3574323e-19)
(-0.0016694659 1.3148579e-05 1.8259966e-19)
(-0.0016512012 1.0437825e-05 2.2100303e-19)
(-0.0016321004 7.8157718e-06 8.3347063e-20)
(-0.0016122085 5.2767829e-06 -2.2358375e-19)
(-0.0015915687 2.8361505e-06 -1.8142217e-19)
(-0.001570226 4.9343522e-07 -1.2064199e-20)
(-0.0015482303 -1.7576526e-06 4.1107903e-21)
(-0.0015256249 -3.9225392e-06 2.0355866e-19)
(-0.0015024503 -5.9963306e-06 9.7333791e-20)
(-0.001478754 -7.9800052e-06 -1.1697938e-19)
(-0.0014545778 -9.8757621e-06 1.5019614e-20)
(-0.0014299602 -1.1682831e-05 2.2542333e-19)
(-0.0014049346 -1.3398505e-05 1.4331346e-19)
(-0.0013795356 -1.5033171e-05 -8.8594703e-20)
(-0.0013538 -1.6589667e-05 -1.131324e-19)
(-0.0013277623 -1.8069819e-05 -8.4427005e-20)
(-0.0013014545 -1.9475519e-05 -1.4110616e-19)
(-0.0012749074 -2.0808847e-05 -2.3244018e-20)
(-0.00124815 -2.2072086e-05 1.13422e-19)
(-0.0012212101 -2.3267614e-05 8.062318e-20)
(-0.0011941143 -2.4397796e-05 9.5986175e-20)
(-0.0011668877 -2.5464527e-05 -3.2811269e-21)
(-0.0011395537 -2.6469533e-05 -1.4420187e-19)
(-0.0011121342 -2.7415664e-05 -1.73598e-19)
(-0.0010846503 -2.8305528e-05 -5.0536522e-20)
(-0.0010571219 -2.9141614e-05 6.7369993e-20)
(-0.0010295676 -2.99263e-05 1.1251508e-19)
(-0.0010020049 -3.0661915e-05 5.6937299e-20)
(-0.00097445009 -3.1350751e-05 -6.4721307e-20)
(-0.00094691835 -3.1995028e-05 -3.1339727e-20)
(-0.0009194238 -3.2596949e-05 6.4230344e-20)
(-0.00089197956 -3.3158648e-05 9.2740576e-20)
(-0.00086459775 -3.3682207e-05 3.3932338e-20)
(-0.00083728955 -3.4169625e-05 -3.6976614e-20)
(-0.00081006526 -3.4622878e-05 -5.0697018e-21)
(-0.00078293428 -3.504384e-05 -7.4746512e-21)
(-0.00075590523 -3.5434335e-05 3.8844232e-20)
(-0.00072898592 -3.579612e-05 6.9202153e-20)
(-0.00070218343 -3.613087e-05 8.7518637e-21)
(-0.00067550413 -3.6440212e-05 3.2025548e-20)
(-0.00064895371 -3.6725685e-05 4.3663882e-20)
(-0.00062253725 -3.6988771e-05 -6.7204691e-21)
(-0.00059625921 -3.7230879e-05 -5.6628992e-20)
(-0.00057012351 -3.7453341e-05 -2.5889475e-20)
(-0.00054413352 -3.7657435e-05 -9.1976858e-21)
(-0.00051829215 -3.7844359e-05 -1.8253197e-20)
(-0.00049260181 -3.8015243e-05 -6.4422101e-21)
(-0.00046706453 -3.8171137e-05 1.3824893e-20)
(-0.00044168191 -3.8313029e-05 -2.9941877e-21)
(-0.00041645521 -3.8441824e-05 5.3532196e-21)
(-0.00039138536 -3.855833e-05 6.6843563e-21)
(-0.00036647301 -3.8663239e-05 8.2402596e-21)
(-0.00034171853 -3.8757137e-05 2.6826783e-20)
(-0.00031712211 -3.8840417e-05 -1.6490909e-20)
(-0.00029268376 -3.8913238e-05 -8.4908085e-21)
(-0.00026840334 -3.8975386e-05 3.3169129e-20)
(-0.00024428062 -3.9026131e-05 4.3631486e-20)
(-0.00022031517 -3.9063966e-05 2.8338886e-20)
(-0.00019650626 -3.9086405e-05 7.6013354e-21)
(-0.00017285231 -3.9090095e-05 9.1123503e-21)
(-0.00014935007 -3.9071884e-05 -1.7976073e-20)
(-0.000125993 -3.9032366e-05 2.2991667e-21)
(-0.00010276963 -3.8985148e-05 2.643983e-20)
(-7.9661935e-05 -3.8977268e-05 1.156777e-20)
(-5.6644362e-05 -3.9124585e-05 2.0510954e-20)
(-3.3708507e-05 -3.9646752e-05 2.8297446e-20)
(-1.1092999e-05 -4.0728986e-05 3.9194411e-20)
(-1.6868569e-06 -0.00024616218 -1.1337318e-19)
(-3.683759e-06 -0.00023829162 -3.256559e-19)
(-4.8568996e-06 -0.00023020956 -3.1909974e-19)
(-6.0472875e-06 -0.00022114502 -2.529016e-19)