/*--------------------------------*- C++ -*----------------------------------*\
| =========                 |                                                 |
| \\      /  F ield         | OpenFOAM: The Open Source CFD Toolbox           |
|  \\    /   O peration     | Version:  2106                                  |
|   \\  /    A nd           | Website:  www.openfoam.com                      |
|    \\/     M anipulation  |                                                 |
\*---------------------------------------------------------------------------*/
FoamFile
{
    version     2.0;
    format      ascii;
    arch        "LSB;label=32;scalar=64";
    class       surfaceScalarField;
    location    "0.045";
    object      phi;
}
// * * * * * * * * * * * * * * * * * * * * * * * * * * * * * * * * * * * * * //

dimensions      [0 3 -1 0 0 0 0];

oriented        oriented;

internalField   nonuniform List<scalar> 
8064
(
4.0874542e-05
-4.0874542e-05
8.1351386e-05
-4.0476844e-05
0.00012103683
-3.9685442e-05
0.00015954511
-3.8508283e-05
0.00019650228
-3.6957169e-05
0.0002315499
-3.5047623e-05
0.00026434862
-3.2798714e-05
0.00029458146
-3.0232841e-05
0.00032195695
-2.7375487e-05
0.00034621189
-2.4254942e-05
0.00036711389
-2.0902003e-05
0.00038446354
-1.7349652e-05
0.00039809626
-1.3632714e-05
0.00040788376
-9.787505e-06
0.00041373523
-5.8514673e-06
0.00041559803
-1.8628039e-06
0.00041345813
2.1399014e-06
0.00040734005
6.1180836e-06
0.00039730642
1.0033625e-05
0.00038345749
1.3848938e-05
0.00036592978
1.7527701e-05
0.00034489479
2.1034997e-05
0.00032055713
2.4337662e-05
0.00029315253
2.7404594e-05
0.0002629455
3.0207029e-05
0.00023022671
3.2718789e-05
0.00019531021
3.49165e-05
0.00015853043
3.6779784e-05
0.00012023901
3.8291419e-05
8.080154e-05
3.9437471e-05
4.0594139e-05
4.0207401e-05
7.1321811e-15
4.0594139e-05
-4.0594139e-05
4.0594139e-05
-8.080154e-05
4.0207401e-05
-0.00012023901
3.9437471e-05
-0.00015853043
3.8291419e-05
-0.00019531021
3.6779784e-05
-0.00023022671
3.49165e-05
-0.0002629455
3.2718789e-05
-0.00029315253
3.0207029e-05
-0.00032055713
2.7404594e-05
-0.00034489479
2.4337662e-05
-0.00036592978
2.1034997e-05
-0.00038345749
1.7527701e-05
-0.00039730642
1.3848938e-05
-0.00040734005
1.0033625e-05
-0.00041345813
6.1180836e-06
-0.00041559803
2.1399014e-06
-0.00041373523
-1.8628039e-06
-0.00040788376
-5.8514673e-06
-0.00039809626
-9.787505e-06
-0.00038446354
-1.3632714e-05
-0.00036711389
-1.7349652e-05
-0.00034621189
-2.0902003e-05
-0.00032195695
-2.4254942e-05
-0.00029458146
-2.7375487e-05
-0.00026434862
-3.0232841e-05
-0.0002315499
-3.2798714e-05
-0.00019650228
-3.5047623e-05
-0.00015954511
-3.6957169e-05
-0.00012103683
-3.8508283e-05
-8.1351386e-05
-3.9685442e-05
-4.0874542e-05
-4.0476844e-05
-4.0874542e-05
4.1481342e-05
-8.2355884e-05
8.2559051e-05
-8.1554553e-05
0.00012283355
-7.9959945e-05
0.00016191334
-7.7588074e-05
0.0001994189
-7.4462726e-05
0.00023498647
-7.0615188e-05
0.00026827164
-6.6083886e-05
0.00029895275
-6.0913957e-05
0.00032673402
-5.5156752e-05
0.00035134835
-4.8869274e-05
0.00037255992
-4.2113575e-05
0.00039016638
-3.4956108e-05
0.0004040007
-2.7467037e-05
0.00041393273
-1.9719534e-05
0.0004198703
-1.1789038e-05
0.00042176001
-3.7525149e-06
0.00041958761
4.3123055e-06
0.00041337797
1.232772e-05
0.00040319481
2.0216785e-05
0.00038913979
2.7903954e-05
0.00037135153
3.5315968e-05
0.00035000406
4.2382462e-05
0.00032530511
4.9036619e-05
0.00029749392
5.521578e-05
0.00026683895
6.0861997e-05
0.0002336352
6.5922535e-05
0.00019820139
7.0350312e-05
0.00016087689
7.4104283e-05
0.00012201855
7.7149765e-05
8.1997322e-05
7.9458697e-05
4.1194867e-05
8.1009856e-05
6.7067751e-15
8.1789007e-05
-4.1194867e-05
8.1789007e-05
-8.1997322e-05
8.1009856e-05
-0.00012201855
7.9458697e-05
-0.00016087689
7.7149765e-05
-0.00019820139
7.4104283e-05
-0.0002336352
7.0350312e-05
-0.00026683895
6.5922535e-05
-0.00029749392
6.0861997e-05
-0.00032530511
5.521578e-05
-0.00035000406
4.9036619e-05
-0.00037135153
4.2382462e-05
-0.00038913979
3.5315968e-05
-0.00040319481
2.7903954e-05
-0.00041337797
2.0216785e-05
-0.00041958761
1.232772e-05
-0.00042176001
4.3123055e-06
-0.0004198703
-3.7525148e-06
-0.00041393273
-1.1789038e-05
-0.0004040007
-1.9719534e-05
-0.00039016638
-2.7467037e-05
-0.00037255992
-3.4956108e-05
-0.00035134835
-4.2113575e-05
-0.00032673402
-4.8869274e-05
-0.00029895275
-5.5156752e-05
-0.00026827164
-6.0913957e-05
-0.00023498647
-6.6083886e-05
-0.0001994189
-7.0615188e-05
-0.00016191334
-7.4462726e-05
-0.00012283355
-7.7588074e-05
-8.2559051e-05
-7.9959945e-05
-4.1481342e-05
-8.1554553e-05
-8.2355884e-05
4.2495773e-05
-0.00012485166
8.4578042e-05
-0.00012363682
0.00012583746
-0.00012121937
0.00016587296
-0.00011762357
0.00020429574
-0.00011288551
0.00024073317
-0.00010705261
0.00027483243
-0.00010018315
0.00030626402
-9.2345547e-05
0.00033472492
-8.3617651e-05
0.00035994152
-7.4085876e-05
0.00038167223
-6.3844283e-05
0.00039970972
-5.29936e-05
0.00041388287
-4.1640189e-05
0.0004240583
-2.9894964e-05
0.00043014155
-1.7872286e-05
0.00043207786
-5.6888275e-06
0.0004298526
6.537575e-06
0.00042349122
1.8689094e-05
0.00041305898
3.0649028e-05
0.00039866004
4.2302897e-05
0.0003804364
5.3539604e-05
0.00035856641
6.4252454e-05
0.00033326288
7.4340141e-05
0.000304771
8.3707667e-05
0.00027336581
9.2267188e-05
0.00023934957
9.9938769e-05
0.00020304883
0.00010665105
0.00016481128
0.00011234183
0.00012500249
0.00011695855
8.4002488e-05
0.0001204587
4.2202228e-05
0.00012281012
6.2374498e-15
0.00012399123
-4.2202228e-05
0.00012399123
-8.4002488e-05
0.00012281012
-0.00012500249
0.0001204587
-0.00016481128
0.00011695855
-0.00020304883
0.00011234183
-0.00023934957
0.00010665105
-0.00027336581
9.9938769e-05
-0.000304771
9.2267188e-05
-0.00033326288
8.3707667e-05
-0.00035856641
7.4340141e-05
-0.0003804364
6.4252454e-05
-0.00039866004
5.3539604e-05
-0.00041305898
4.2302897e-05
-0.00042349122
3.0649028e-05
-0.0004298526
1.8689094e-05
-0.00043207786
6.537575e-06
-0.00043014155
-5.6888275e-06
-0.0004240583
-1.7872286e-05
-0.00041388287
-2.9894964e-05
-0.00039970972
-4.1640189e-05
-0.00038167223
-5.29936e-05
-0.00035994152
-6.3844283e-05
-0.00033472492
-7.4085876e-05
-0.00030626402
-8.3617651e-05
-0.00027483243
-9.2345547e-05
-0.00024073317
-0.00010018315
-0.00020429574
-0.00010705261
-0.00016587296
-0.00011288551
-0.00012583746
-0.00011762357
-8.4578042e-05
-0.00012121937
-4.2495773e-05
-0.00012363682
-0.00012485166
4.3926354e-05
-0.00016877801
8.7425311e-05
-0.00016713578
0.00013007378
-0.00016386783
0.00017145721
-0.000159007
0.00021117375
-0.00015260205
0.00024883827
-0.00014471713
0.0002840861
-0.00013543098
0.00031657667
-0.00012483612
0.00034599678
-0.00011303776
0.00037206361
-0.0001001527
0.0003945274
-8.6308073e-05
0.0004131738
-7.1640007e-05
0.00042782587
-5.6292256e-05
0.00043834564
-4.0414733e-05
0.00044463537
-2.4162017e-05
0.00044663837
-7.691824e-06
0.0004443394
8.8365438e-06
0.00043776473
2.5263765e-05
0.00042698172
4.1432034e-05
0.00041209804
5.7186577e-05
0.00039326048
7.2377162e-05
0.00037065342
8.6859515e-05
0.00034449691
0.00010049666
0.00031504443
0.00011316015
0.00028258039
0.00012473123
0.00024741729
0.00013510186
0.00020989274
0.0001441756
0.00017036619
0.00015186839
0.00012921554
0.00015810921
8.6833617e-05
0.00016284062
4.3624545e-05
0.00016601919
5.713892e-15
0.00016761578
-4.3624545e-05
0.00016761578
-8.6833617e-05
0.00016601919
-0.00012921554
0.00016284062
-0.00017036619
0.00015810921
-0.00020989274
0.00015186839
-0.00024741729
0.0001441756
-0.00028258039
0.00013510186
-0.00031504443
0.00012473123
-0.00034449691
0.00011316015
-0.00037065342
0.00010049666
-0.00039326048
8.6859515e-05
-0.00041209804
7.2377162e-05
-0.00042698172
5.7186577e-05
-0.00043776473
4.1432034e-05
-0.0004443394
2.5263765e-05
-0.00044663837
8.8365438e-06
-0.00044463537
-7.691824e-06
-0.00043834564
-2.4162017e-05
-0.00042782587
-4.0414733e-05
-0.0004131738
-5.6292256e-05
-0.0003945274
-7.1640007e-05
-0.00037206361
-8.6308073e-05
-0.00034599678
-0.0001001527
-0.00031657667
-0.00011303776
-0.0002840861
-0.00012483612
-0.00024883827
-0.00013543098
-0.00021117375
-0.00014471713
-0.00017145721
-0.00015260205
-0.00013007378
-0.000159007
-8.7425312e-05
-0.00016386783
-4.3926354e-05
-0.00016713578
-0.00016877801
4.5791012e-05
-0.00021456902
9.1136541e-05
-0.00021248131
0.00013559559
-0.00020832688
0.00017873608
-0.00020214749
0.00022013917
-0.00019400514
0.00025940341
-0.00018398137
0.00029614873
-0.0001721763
0.00033002014
-0.00015870752
0.00036069114
-0.00014370877
0.00038786691
-0.00012732847
0.00041128703
-0.00010972819
0.00043072797
-9.1080954e-05
0.00044600516
-7.1569444e-05
0.00045697463
-5.1384202e-05
0.00046353433
-3.0721715e-05
0.00046562499
-9.7824836e-06
0.00046323058
1.123095e-05
0.00045637836
3.2115985e-05
0.00044513846
5.2671934e-05
0.00042962308
7.2701964e-05
0.00040998524
9.2015003e-05
0.00038641719
0.00011042756
0.00035914842
0.00012776543
0.00032844327
0.00014386529
0.00029459835
0.00015857615
0.00025793955
0.00017176067
0.00021881889
0.00018329626
0.00017761117
0.0001930761
0.00013471041
0.00020100997
9.0526128e-05
0.0002070249
4.547961e-05
0.00021106571
5.0854906e-15
0.00021309539
-4.547961e-05
0.00021309539
-9.0526128e-05
0.00021106571
-0.00013471041
0.0002070249
-0.00017761117
0.00020100997
-0.00021881889
0.0001930761
-0.00025793955
0.00018329626
-0.00029459835
0.00017176067
-0.00032844327
0.00015857615
-0.00035914842
0.00014386529
-0.00038641719
0.00012776543
-0.00040998524
0.00011042756
-0.00042962308
9.2015003e-05
-0.00044513846
7.2701964e-05
-0.00045637836
5.2671934e-05
-0.00046323058
3.2115985e-05
-0.00046562499
1.123095e-05
-0.00046353433
-9.7824836e-06
-0.00045697463
-3.0721715e-05
-0.00044600516
-5.1384202e-05
-0.00043072797
-7.1569444e-05
-0.00041128703
-9.1080954e-05
-0.00038786691
-0.00010972819
-0.00036069114
-0.00012732847
-0.00033002014
-0.00014370877
-0.00029614873
-0.00015870752
-0.00025940341
-0.0001721763
-0.00022013917
-0.00018398137
-0.00017873608
-0.00019400514
-0.00013559559
-0.00020214749
-9.1136541e-05
-0.00020832688
-4.5791012e-05
-0.00021248131
-0.00021456902
4.8118055e-05
-0.00026268708
9.5768079e-05
-0.00026013133
0.00014248676
-0.00025504556
0.00018782014
-0.00024748087
0.0002313282
-0.0002375132
0.00027258917
-0.00022524234
0.00031120374
-0.00021079087
0.00034679892
-0.0001943027
0.00037903165
-0.0001759415
0.00040759208
-0.0001558889
0.0004322065
-0.00013434261
0.00045263989
-0.00011151435
0.00046869811
-8.7627663e-05
0.00048022967
-6.2915755e-05
0.00048712708
-3.7619129e-05
0.00048932784
-1.198324e-05
0.00048681487
1.3743911e-05
0.00047961665
3.9314209e-05
0.00046780674
6.4481849e-05
0.00045150297
8.900573e-05
0.00043086617
0.0001126518
0.00040609844
0.00013519529
0.00037744104
0.00015642283
0.00034517192
0.00017613441
0.00030960291
0.00019414517
0.00027107664
0.00021028694
0.00022996318
0.00022440971
0.00018665649
0.00023638279
0.00014157069
0.00024609578
9.5136168e-05
0.00025345942
4.7795623e-05
0.00025840625
4.3428428e-15
0.00026089101
-4.7795623e-05
0.00026089101
-9.5136168e-05
0.00025840625
-0.00014157069
0.00025345942
-0.00018665649
0.00024609578
-0.00022996318
0.00023638279
-0.00027107664
0.00022440971
-0.00030960291
0.00021028694
-0.00034517192
0.00019414517
-0.00037744104
0.00017613441
-0.00040609844
0.00015642283
-0.00043086617
0.00013519529
-0.00045150297
0.0001126518
-0.00046780674
8.900573e-05
-0.00047961665
6.4481849e-05
-0.00048681487
3.9314209e-05
-0.00048932784
1.3743911e-05
-0.00048712708
-1.198324e-05
-0.00048022967
-3.7619129e-05
-0.00046869811
-6.2915755e-05
-0.00045263989
-8.7627663e-05
-0.0004322065
-0.00011151435
-0.00040759208
-0.00013434261
-0.00037903165
-0.0001558889
-0.00034679892
-0.0001759415
-0.00031120374
-0.0001943027
-0.00027258917
-0.00021079087
-0.0002313282
-0.00022524234
-0.00018782014
-0.0002375132
-0.00014248676
-0.00024748087
-9.5768079e-05
-0.00025504556
-4.8118055e-05
-0.00026013133
-0.00026268708
5.0948087e-05
-0.00031363516
0.00010140075
-0.00031058399
0.00015086754
-0.00030451236
0.00019886797
-0.0002954813
0.00024493622
-0.00028358145
0.00028862587
-0.00026893199
0.00032951421
-0.00025167921
0.00036720638
-0.00023199487
0.00040133915
-0.00021007427
0.00043158441
-0.00018613416
0.00045765224
-0.00016041044
0.00047929361
-0.00013315571
0.0004963027
-0.00010463676
0.00050851883
-7.5131879e-05
0.00051582785
-4.4928152e-05
0.00051816325
-1.4318638e-05
0.00051550666
1.6400502e-05
0.00050788796
4.6932903e-05
0.0004953849
7.6984907e-05
0.00047812219
0.00010626845
0.00045627012
0.00013450387
0.0004300428
0.00016142261
0.00039969587
0.00018676977
0.00036552384
0.00021030644
0.00032785714
0.00023181187
0.00028705878
0.0002510853
0.0002435208
0.00026794769
0.00019766049
0.00028224309
0.00014991643
0.00029383983
0.00010074439
0.00030263147
5.0613094e-05
0.00030853754
3.5102651e-15
0.00031150411
-5.0613094e-05
0.00031150411
-0.00010074439
0.00030853754
-0.00014991643
0.00030263147
-0.00019766049
0.00029383983
-0.0002435208
0.00028224309
-0.00028705878
0.00026794769
-0.00032785714
0.0002510853
-0.00036552384
0.00023181187
-0.00039969587
0.00021030644
-0.0004300428
0.00018676977
-0.00045627012
0.00016142261
-0.00047812219
0.00013450387
-0.0004953849
0.00010626845
-0.00050788796
7.6984907e-05
-0.00051550666
4.6932903e-05
-0.00051816325
1.6400502e-05
-0.00051582785
-1.4318638e-05
-0.00050851883
-4.4928152e-05
-0.0004963027
-7.5131879e-05
-0.00047929361
-0.00010463676
-0.00045765224
-0.00013315571
-0.00043158441
-0.00016041044
-0.00040133915
-0.00018613416
-0.00036720638
-0.00021007427
-0.00032951421
-0.00023199487
-0.00028862587
-0.00025167921
-0.00024493622
-0.00026893199
-0.00019886797
-0.00028358145
-0.00015086754
-0.0002954813
-0.00010140075
-0.00030451236
-5.0948087e-05
-0.00031058399
-0.00031363516
5.4336969e-05
-0.00036797213
0.00010814573
-0.00036439276
0.00016090342
-0.00035727004
0.00021209772
-0.0003466756
0.00026123205
-0.00033271578
0.00030783041
-0.00031553036
0.00035144212
-0.00029529092
0.00039164613
-0.00027219887
0.00042805507
-0.00024648321
0.00046031893
-0.00021839803
0.00048812836
-0.00018821987
0.0005112175
-0.00015624485
0.00052936651
-0.00012278577
0.00054240359
-8.8168957e-05
0.00055020657
-5.2731135e-05
0.00055270407
-1.6816132e-05
0.00054987609
1.9228479e-05
0.00054175421
5.5054789e-05
0.00052842112
9.0317993e-05
0.00051000976
0.0001246798
0.00048670184
0.00015781179
0.00045872587
0.00018939858
0.00042635474
0.00021914089
0.00038990291
0.00024675828
0.00034972311
0.00027199167
0.0003062028
0.0002946056
0.00025976039
0.0003143901
0.00021084112
0.00033116236
0.00015991287
0.00034476808
0.00010746179
0.00035508256
5.3987781e-05
0.00036201155
2.6834266e-15
0.00036549189
-5.3987781e-05
0.00036549189
-0.00010746179
0.00036201155
-0.00015991287
0.00035508256
-0.00021084112
0.00034476808
-0.00025976039
0.00033116236
-0.0003062028
0.0003143901
-0.00034972311
0.0002946056
-0.00038990291
0.00027199167
-0.00042635474
0.00024675828
-0.00045872587
0.00021914089
-0.00048670184
0.00018939858
-0.00051000976
0.00015781179
-0.00052842112
0.0001246798
-0.00054175421
9.0317993e-05
-0.00054987609
5.5054789e-05
-0.00055270407
1.9228479e-05
-0.00055020657
-1.6816132e-05
-0.00054240359
-5.2731135e-05
-0.00052936651
-8.8168957e-05
-0.0005112175
-0.00012278577
-0.00048812836
-0.00015624485
-0.00046031893
-0.00018821987
-0.00042805507
-0.00021839803
-0.00039164613
-0.00024648321
-0.00035144212
-0.00027219887
-0.00030783041
-0.00029529092
-0.00026123205
-0.00031553036
-0.00021209772
-0.00033271578
-0.00016090342
-0.0003466756
-0.00010814573
-0.00035727004
-5.4336969e-05
-0.00036439276
-0.00036797213
5.8359374e-05
-0.00042633151
0.00011615168
-0.00042218506
0.00017281557
-0.00041393393
0.00022780105
-0.00040166108
0.000280575
-0.00038548972
0.00033062638
-0.00036558175
0.00037747132
-0.00034213585
0.00042065768
-0.00031538524
0.00045976946
-0.00028559499
0.00049443064
-0.00025305921
0.00052430872
-0.00021809795
0.00054911785
-0.00018105398
0.00056862145
-0.00014228937
0.00058263444
-0.00010218195
0.00059102504
-6.112173e-05
0.00059371597
-1.9507066e-05
0.00059068527
2.2259181e-05
0.00058196643
6.377363e-05
0.00056764804
0.00010463638
0.00054787281
0.00014445503
0.00052283601
0.00018284859
0.00049278334
0.00021945126
0.00045800828
0.00025391595
0.00041884899
0.00028591757
0.00037568477
0.00031515589
0.00032893222
0.00034135816
0.00027904104
0.00036428128
0.00022648971
0.0003837137
0.00017178089
0.0003994769
0.00011543677
0.00041142669
5.7994221e-05
0.00041945409
1.9277772e-15
0.00042348611
-5.7994221e-05
0.00042348611
-0.00011543677
0.00041945409
-0.00017178089
0.00041142669
-0.00022648971
0.0003994769
-0.00027904104
0.0003837137
-0.00032893222
0.00036428128
-0.00037568477
0.00034135816
-0.00041884899
0.00031515589
-0.00045800828
0.00028591757
-0.00049278334
0.00025391595
-0.00052283601
0.00021945126
-0.00054787281
0.00018284859
-0.00056764804
0.00014445503
-0.00058196643
0.00010463638
-0.00059068527
6.377363e-05
-0.00059371597
2.2259181e-05
-0.00059102504
-1.9507066e-05
-0.00058263444
-6.112173e-05
-0.00056862145
-0.00010218195
-0.00054911785
-0.00014228937
-0.00052430872
-0.00018105398
-0.00049443064
-0.00021809795
-0.00045976946
-0.00025305921
-0.00042065768
-0.00028559499
-0.00037747132
-0.00031538524
-0.00033062638
-0.00034213585
-0.000280575
-0.00036558175
-0.00022780105
-0.00038548972
-0.00017281557
-0.00040166108
-0.00011615168
-0.00041393393
-5.8359374e-05
-0.00042218506
-0.00042633151
6.3112258e-05
-0.00048944377
0.00012561157
-0.00048468438
0.00018689118
-0.00047521354
0.00024635661
-0.00046112651
0.00030343159
-0.0004425647
0.00035756375
-0.00041971391
0.00040822999
-0.00039280209
0.00045494149
-0.00036209674
0.00049724837
-0.00032790187
0.00053474386
-0.0002905547
0.00056706811
-0.0002504222
0.00059391152
-0.00020789739
0.00061501763
-0.00016339548
0.00063018559
-0.00011734991
0.0006392721
-7.020824e-05
0.00064219285
-2.2427817e-05
0.00063892341
2.552862e-05
0.00062949951
7.319753e-05
0.00061401667
0.00012011922
0.00059262917
0.00016584253
0.00056554836
0.00020992939
0.00053304035
0.00025195926
0.00049542306
0.00029153325
0.00045306278
0.00032827784
0.00040637032
0.00036184834
0.00035579676
0.00039193172
0.00030182888
0.00041824916
0.00024498444
0.00044055814
0.00018580721
0.00045865413
0.00012486195
0.00047237195
6.2729173e-05
0.00048158687
1.2282897e-15
0.00048621528
-6.2729173e-05
0.00048621528
-0.00012486195
0.00048158687
-0.00018580721
0.00047237195
-0.00024498444
0.00045865413
-0.00030182888
0.00044055814
-0.00035579676
0.00041824916
-0.00040637032
0.00039193172
-0.00045306278
0.00036184834
-0.00049542306
0.00032827784
-0.00053304035
0.00029153325
-0.00056554836
0.00025195926
-0.00059262917
0.00020992939
-0.00061401667
0.00016584253
-0.00062949951
0.00012011922
-0.00063892341
7.319753e-05
-0.00064219285
2.552862e-05
-0.0006392721
-2.2427817e-05
-0.00063018559
-7.020824e-05
-0.00061501763
-0.00011734991
-0.00059391152
-0.00016339548
-0.00056706811
-0.00020789739
-0.00053474386
-0.0002504222
-0.00049724837
-0.0002905547
-0.00045494149
-0.00032790187
-0.00040822999
-0.00036209674
-0.00035756375
-0.00039280209
-0.00030343159
-0.00041971391
-0.00024635661
-0.0004425647
-0.00018689118
-0.00046112651
-0.00012561157
-0.00047521354
-6.3112258e-05
-0.00048468438
-0.00048944377
6.8717302e-05
-0.00055816107
0.00013676762
-0.00055273469
0.00020349068
-0.00054193661
0.00026823961
-0.00052587544
0.00033038732
-0.00050471241
0.00038933271
-0.00047865929
0.00044450647
-0.00044797585
0.00049537654
-0.00041296681
0.00054145308
-0.00037397841
0.00058229304
-0.00033139465
0.00061750422
-0.00028563338
0.00064674895
-0.00023714211
0.00066974721
-0.00018639374
0.0006862794
-0.0001338821
0.0006961885
-8.0117335e-05
0.00069938173
-2.5621054e-05
0.00069583167
2.907868e-05
0.0006855766
8.3452608e-05
0.00066872017
0.00013697565
0.00064543036
0.00018913234
0.00061593759
0.00023942217
0.00058053212
0.00028736473
0.00053956084
0.00033250453
0.00049342339
0.00037441529
0.00044256787
0.00041270387
0.00038748611
0.00044701348
0.0003287087
0.00047702657
0.00026679977
0.00050246707
0.00020235157
0.00052310232
0.00013597901
0.00053874452
6.8314032e-05
0.00054925184
4.7800257e-16
0.00055452931
-6.8314032e-05
0.00055452931
-0.00013597901
0.00054925184
-0.00020235157
0.00053874452
-0.00026679977
0.00052310232
-0.0003287087
0.00050246707
-0.00038748611
0.00047702657
-0.00044256787
0.00044701348
-0.00049342339
0.00041270387
-0.00053956084
0.00037441529
-0.00058053212
0.00033250453
-0.00061593759
0.00028736473
-0.00064543036
0.00023942217
-0.00066872017
0.00018913234
-0.0006855766
0.00013697565
-0.00069583167
8.3452608e-05
-0.00069938173
2.907868e-05
-0.0006961885
-2.5621054e-05
-0.0006862794
-8.0117335e-05
-0.00066974721
-0.0001338821
-0.00064674895
-0.00018639374
-0.00061750422
-0.00023714211
-0.00058229304
-0.00028563338
-0.00054145308
-0.00033139465
-0.00049537654
-0.00037397841
-0.00044450647
-0.00041296681
-0.00038933271
-0.00044797585
-0.00033038732
-0.00047865929
-0.00026823961
-0.00050471241
-0.00020349068
-0.00052587544
-0.00013676762
-0.00054193661
-6.8717302e-05
-0.00055273469
-0.00055816107
7.5321117e-05
-0.00063348218
0.00014991163
-0.00062732521
0.00022304833
-0.0006150733
0.00029402261
-0.00059684973
0.00036214759
-0.00057283739
0.0004267648
-0.0005432765
0.00048725054
-0.00050846159
0.0005430218
-0.00046873807
0.00059354167
-0.00042449828
0.00063832432
-0.0003761773
0.00067693939
-0.00032424845
0.000709016
-0.00026921873
0.00073424627
-0.00021162401
0.00075238831
-0.00015202415
0.00076326876
-9.0997782e-05
0.00076678472
-2.9137011e-05
0.00076290506
3.295834e-05
0.00075167097
9.4686692e-05
0.00073319571
0.00015545091
0.00070766341
0.00021466464
0.00067532704
0.00027175853
0.00063650552
0.00032618624
0.00059158004
0.00037743001
0.00054098969
0.00042500564
0.00048522667
0.00046846689
0.00042483098
0.00050740917
0.00036038489
0.00054147265
0.00029250719
0.00057034477
0.00022184726
0.00059376226
0.00014907905
0.00061151272
7.4895027e-05
0.00062343586
-4.7337205e-16
0.00062942434
-7.4895027e-05
0.00062942434
-0.00014907905
0.00062343586
-0.00022184726
0.00061151272
-0.00029250719
0.00059376226
-0.00036038489
0.00057034477
-0.00042483098
0.00054147265
-0.00048522667
0.00050740917
-0.00054098969
0.00046846689
-0.00059158004
0.00042500564
-0.00063650552
0.00037743001
-0.00067532704
0.00032618624
-0.00070766341
0.00027175853
-0.00073319571
0.00021466464
-0.00075167097
0.00015545091
-0.00076290506
9.4686692e-05
-0.00076678472
3.295834e-05
-0.00076326876
-2.9137011e-05
-0.00075238831
-9.0997782e-05
-0.00073424627
-0.00015202415
-0.000709016
-0.00021162401
-0.00067693939
-0.00026921873
-0.00063832432
-0.00032424845
-0.00059354167
-0.0003761773
-0.0005430218
-0.00042449828
-0.00048725054
-0.00046873807
-0.0004267648
-0.00050846159
-0.00036214759
-0.0005432765
-0.00029402261
-0.00057283739
-0.00022304833
-0.00059684973
-0.00014991163
-0.0006150733
-7.5321117e-05
-0.00062732521
-0.00063348218
8.309164e-05
-0.00071657382
0.0001653779
-0.00070961147
0.00024606154
-0.00069575693
0.00032436144
-0.00067514963
0.00039952039
-0.00064799635
0.00047081247
-0.00061456859
0.00053755004
-0.00057519915
0.00059909014
-0.00053027818
0.00065484052
-0.00048024866
0.00070426493
-0.00042560171
0.00074688805
-0.00036687157
0.00078229985
-0.00030463053
0.00081015947
-0.00023948363
0.00083019861
-0.00017206329
0.00084222448
-0.00010302365
0.00084612204
-3.3034579e-05
0.00084185567
3.722471e-05
0.00082946988
0.00010707248
0.00080908916
0.00017583164
0.00078091671
0.00024283709
0.00074523221
0.00030744303
0.00070238847
0.00036902999
0.00065280723
0.00042701125
0.00059697426
0.00048083861
0.00053543381
0.00053000734
0.00046878271
0.00057406027
0.00039766413
0.00061259123
0.00032276122
0.00064524768
0.00024479054
0.00067173294
0.00016449549
0.00069180777
8.2639631e-05
0.00070529172
-1.800601e-15
0.00071206397
-8.2639631e-05
0.00071206397
-0.00016449549
0.00070529172
-0.00024479054
0.00069180777
-0.00032276122
0.00067173294
-0.00039766413
0.00064524768
-0.00046878271
0.00061259123
-0.00053543381
0.00057406027
-0.00059697426
0.00053000734
-0.00065280723
0.00048083861
-0.00070238847
0.00042701125
-0.00074523221
0.00036902999
-0.00078091671
0.00030744303
-0.00080908916
0.00024283709
-0.00082946988
0.00017583164
-0.00084185567
0.00010707248
-0.00084612204
3.722471e-05
-0.00084222448
-3.3034579e-05
-0.00083019861
-0.00010302365
-0.00081015947
-0.00017206329
-0.00078229985
-0.00023948363
-0.00074688805
-0.00030463053
-0.00070426493
-0.00036687157
-0.00065484052
-0.00042560171
-0.00059909014
-0.00048024866
-0.00053755004
-0.00053027818
-0.00047081247
-0.00057519915
-0.00039952039
-0.00061456859
-0.00032436144
-0.00064799635
-0.00024606154
-0.00067514963
-0.0001653779
-0.00069575693
-8.309164e-05
-0.00070961147
-0.00071657382
9.2208879e-05
-0.0008087827
0.00018352472
-0.00080092731
0.00027306349
-0.00078529571
0.00035995906
-0.0007620452
0.00044337177
-0.00073140906
0.00052249663
-0.00069369344
0.00059657098
-0.0006492735
0.0006648816
-0.0005985888
0.00072677125
-0.00054213831
0.00078164456
-0.00048047501
0.00082897337
-0.00041420038
0.00086830158
-0.00034395874
0.00089924947
-0.00027043152
0.00092151758
-0.0001943314
0.00093489007
-0.00011639613
0.00093923744
-3.738195e-05
0.00093451857
4.1943581e-05
0.00092078174
0.00012080931
0.00089816459
0.00019844879
0.0008668928
0.00027410888
0.00082727749
0.00034705834
0.00077971147
0.00041659601
0.00072466435
0.00048205837
0.00066267686
0.0005428261
0.00059435456
0.00059832964
0.00052036109
0.00064805375
0.00044141118
0.00069154114
0.00035826349
0.00072839537
0.00027171341
0.00075828302
0.00018258575
0.00078093544
9.172739e-05
0.00079615008
-3.5929501e-15
0.00080379136
-9.172739e-05
0.00080379136
-0.00018258575
0.00079615008
-0.00027171341
0.00078093544
-0.00035826349
0.00075828302
-0.00044141118
0.00072839537
-0.00052036109
0.00069154114
-0.00059435456
0.00064805375
-0.00066267686
0.00059832964
-0.00072466435
0.0005428261
-0.00077971147
0.00048205837
-0.00082727749
0.00041659601
-0.0008668928
0.00034705834
-0.00089816459
0.00027410888
-0.00092078174
0.00019844879
-0.00093451857
0.00012080931
-0.00093923744
4.1943581e-05
-0.00093489007
-3.738195e-05
-0.00092151758
-0.00011639613
-0.00089924947
-0.0001943314
-0.00086830158
-0.00027043152
-0.00082897337
-0.00034395874
-0.00078164456
-0.00041420038
-0.00072677125
-0.00048047501
-0.0006648816
-0.00054213831
-0.00059657098
-0.0005985888
-0.00052249663
-0.0006492735
-0.00044337177
-0.00069369344
-0.00035995906
-0.00073140906
-0.00027306349
-0.0007620452
-0.00018352472
-0.00078529571
-9.2208879e-05
-0.00080092731
-0.0008087827
0.00010284797
-0.00091163067
0.00020470068
-0.00090278002
0.00030457292
-0.00088516795
0.00040149941
-0.00085897169
0.00049454436
-0.00082445401
0.00058281053
-0.00078195962
0.00066544779
-0.00073191076
0.00074166096
-0.00067480197
0.00081071697
-0.00061119433
0.00087195143
-0.00054170947
0.00092477448
-0.00046702343
0.00096867614
-0.0003878604
0.0010032312
-0.00030498658
0.0010281036
-0.00021920381
0.0010430504
-0.0001313429
0.0010479249
-4.2256456e-05
0.0010426794
4.7189103e-05
0.0010273663
0.00013612234
0.0010021387
0.00022367638
0.00096724854
0.00030899908
0.00092304377
0.00039126311
0.00086996414
0.00046967564
0.00080853537
0.00054348714
0.00073936263
0.00061199884
0.00066312321
0.00067456906
0.00058055886
0.00073061809
0.00049246789
0.00077963212
0.00039969712
0.00082116614
0.00030313386
0.00085484627
0.00020369785
0.00088037146
0.00010233313
0.0008975148
-5.7185397e-15
0.00090612449
-0.00010233313
0.00090612449
-0.00020369785
0.0008975148
-0.00030313386
0.00088037146
-0.00039969712
0.00085484627
-0.00049246789
0.00082116614
-0.00058055886
0.00077963212
-0.00066312321
0.00073061809
-0.00073936263
0.00067456906
-0.00080853537
0.00061199884
-0.00086996414
0.00054348714
-0.00092304377
0.00046967564
-0.00096724854
0.00039126311
-0.0010021387
0.00030899908
-0.0010273663
0.00022367638
-0.0010426794
0.00013612234
-0.0010479249
4.7189103e-05
-0.0010430504
-4.2256456e-05
-0.0010281036
-0.0001313429
-0.0010032312
-0.00021920381
-0.00096867614
-0.00030498658
-0.00092477448
-0.0003878604
-0.00087195143
-0.00046702343
-0.00081071697
-0.00054170947
-0.00074166096
-0.00061119433
-0.00066544779
-0.00067480197
-0.00058281053
-0.00073191076
-0.00049454436
-0.00078195962
-0.00040149941
-0.00082445401
-0.00030457292
-0.00085897169
-0.00020470068
-0.00088516795
-0.00010284797
-0.00090278002
-0.00091163067
0.00011515246
-0.0010267831
0.00022919153
-0.0010168191
0.00034101505
-0.00099699147
0.00044954315
-0.00096749979
0.00055372889
-0.00092863975
0.00065256843
-0.00088079916
0.00074511051
-0.00082445284
0.00083046515
-0.0007601566
0.00090781162
-0.0006885408
0.00097640569
-0.00061030354
0.0010355861
-0.00052620381
0.0010847804
-0.00043705475
0.0011235108
-0.00034371694
0.0011513986
-0.0002470916
0.0011681692
-0.0001481135
0.0011736559
-4.7743135e-05
0.0011678029
5.3042055e-05
0.0011506676
0.00015325768
0.0011224204
0.00025192356
0.0010833438
0.00034807567
0.0010338287
0.00044077821
0.0009743693
0.00052913502
0.00090555658
0.00061229986
0.00082807042
0.000689485
0.0007426713
0.00075996818
0.00065019146
0.00082309794
0.00055152589
0.00087829768
0.0004476234
0.00092506863
0.00033947757
0.0009629921
0.00022811784
0.00099173118
0.00011460056
0.0010110321
-8.0059316e-15
0.0010207251
-0.00011460056
0.0010207251
-0.00022811784
0.0010110321
-0.00033947757
0.00099173118
-0.0004476234
0.0009629921
-0.00055152589
0.00092506863
-0.00065019146
0.00087829768
-0.0007426713
0.00082309794
-0.00082807042
0.00075996818
-0.00090555658
0.000689485
-0.0009743693
0.00061229986
-0.0010338287
0.00052913502
-0.0010833438
0.00044077821
-0.0011224204
0.00034807567
-0.0011506676
0.00025192356
-0.0011678029
0.00015325768
-0.0011736559
5.3042055e-05
-0.0011681692
-4.7743135e-05
-0.0011513986
-0.0001481135
-0.0011235108
-0.0002470916
-0.0010847804
-0.00034371694
-0.0010355861
-0.00043705475
-0.00097640569
-0.00052620381
-0.00090781162
-0.00061030354
-0.00083046515
-0.0006885408
-0.00074511051
-0.0007601566
-0.00065256843
-0.00082445284
-0.00055372889
-0.00088079916