/*--------------------------------*- C++ -*----------------------------------*\
| =========                 |                                                 |
| \\      /  F ield         | OpenFOAM: The Open Source CFD Toolbox           |
|  \\    /   O peration     | Version:  2306                                  |
|   \\  /    A nd           | Website:  www.openfoam.com                      |
|    \\/     M anipulation  |                                                 |
\*---------------------------------------------------------------------------*/
FoamFile
{
    version     2.0;
    format      ascii;
    arch        "LSB;label=32;scalar=64";
    class       volVectorField;
    location    "0.43";
    object      U;
}
// * * * * * * * * * * * * * * * * * * * * * * * * * * * * * * * * * * * * * //

dimensions      [0 1 -1 0 0 0 0];

internalField   nonuniform List<vector> 
51200
(
(1.5848815e-05 -2.1712038e-05 -3.2275384e-20)
(3.298064e-05 -2.0836674e-05 -2.061263e-21)
(5.0743659e-05 -1.9788461e-05 4.8075745e-21)
(6.6811877e-05 -1.883513e-05 8.5453022e-21)
(8.1846441e-05 -1.8259428e-05 1.3980289e-21)
(9.6229789e-05 -1.788088e-05 -5.2208458e-21)
(0.00011013318 -1.759459e-05 2.9739431e-22)
(0.00012365157 -1.7337386e-05 3.3038173e-21)
(0.00013678104 -1.7080261e-05 7.3394863e-21)
(0.0001494861 -1.6811621e-05 1.1387596e-20)
(0.00016171638 -1.6524544e-05 1.7041274e-20)
(0.00017341275 -1.6213094e-05 2.905586e-20)
(0.00018452072 -1.5886201e-05 2.947569e-20)
(0.00019499253 -1.5540508e-05 -1.4345197e-21)
(0.0002047835 -1.5178743e-05 -4.6270696e-21)
(0.00021385206 -1.4801794e-05 2.2092775e-20)
(0.00022216211 -1.4410523e-05 3.7690445e-20)
(0.0002296813 -1.4004932e-05 7.3266607e-21)
(0.00023638173 -1.3589719e-05 -2.3848727e-20)
(0.00024223622 -1.3151391e-05 -4.5943468e-21)
(0.00024722518 -1.2711657e-05 1.2712984e-20)
(0.00025133294 -1.2250956e-05 2.2093655e-20)
(0.00025455857 -1.1787054e-05 5.4484274e-20)
(0.00025689116 -1.129219e-05 7.0557703e-20)
(0.00025831409 -1.0797267e-05 3.6541545e-20)
(0.00025883254 -1.03021e-05 -1.0993605e-19)
(0.00025845106 -9.8059589e-06 -2.034488e-19)
(0.0002571798 -9.3076421e-06 -7.6564506e-20)
(0.00025503305 -8.8097733e-06 4.9162204e-20)
(0.00025202296 -8.3149903e-06 1.476007e-19)
(0.00024816602 -7.8219716e-06 1.2021474e-19)
(0.00024349024 -7.330816e-06 -7.0862759e-20)
(0.0002380221 -6.8486435e-06 -9.5414753e-20)
(0.00023180547 -6.3797407e-06 -9.3530736e-20)
(0.00022485024 -5.9577892e-06 -1.2073299e-20)
(0.0002171631 -5.5502373e-06 1.3731842e-19)
(0.00020879528 -5.1470457e-06 -8.85997e-20)
(0.00019978914 -4.7475184e-06 -3.307164e-19)
(0.00019018615 -4.3527867e-06 9.614891e-20)
(0.00018002853 -3.9658074e-06 4.038152e-19)
(0.00016935536 -3.5897303e-06 6.4258111e-20)
(0.00015820563 -3.2244917e-06 -1.4548657e-19)
(0.00014662846 -2.8691376e-06 -1.365281e-20)
(0.00013466557 -2.529392e-06 6.4634819e-20)
(0.00012235459 -2.2020951e-06 9.1305414e-20)
(0.00010974665 -1.8857109e-06 1.7628407e-19)
(9.6888247e-05 -1.5837042e-06 -2.2532895e-19)
(8.382557e-05 -1.2964174e-06 -1.230481e-19)
(7.0592131e-05 -1.0289251e-06 -6.2458963e-20)
(5.7228925e-05 -7.7180991e-07 -5.5253454e-19)
(4.3790508e-05 -5.2769436e-07 2.3608233e-19)
(3.0317487e-05 -2.9860597e-07 4.9707459e-19)
(1.6860218e-05 -8.5406125e-08 1.2076638e-19)
(3.4109272e-06 1.0041175e-07 1.2731176e-19)
(-9.9736334e-06 2.9431743e-07 -5.5227131e-19)
(-2.3214548e-05 4.7060555e-07 -4.2997765e-19)
(-3.6307916e-05 6.3168779e-07 3.3364366e-19)
(-4.9220697e-05 7.7888362e-07 1.5377305e-19)
(-6.1921576e-05 9.1300685e-07 -1.27879e-20)
(-7.4381216e-05 1.0346752e-06 6.163721e-20)
(-8.6572261e-05 1.1444029e-06 -3.9340721e-20)
(-9.846935e-05 1.2427025e-06 8.510937e-20)
(-0.00011004912 1.3300644e-06 -3.4243043e-20)
(-0.0001212902 1.4070008e-06 -3.9933063e-19)
(-0.00013217323 1.4740076e-06 -4.683048e-19)
(-0.00014268085 1.5316051e-06 1.2442305e-19)
(-0.00015279764 1.5802995e-06 7.5765918e-19)
(-0.00016251014 1.6206005e-06 9.7252204e-21)
(-0.0001718068 1.6530324e-06 -3.2249071e-19)
(-0.00018067791 1.6780902e-06 2.8318889e-19)
(-0.00018911558 1.696279e-06 -4.0133466e-20)
(-0.00019711368 1.7080886e-06 -1.5286793e-19)
(-0.00020466774 1.7140009e-06 1.1853572e-19)
(-0.0002117749 1.7144819e-06 1.1938712e-19)
(-0.00021843385 1.7099828e-06 1.5415955e-19)
(-0.0002246447 1.7009441e-06 -2.2988549e-19)
(-0.00023040896 1.6877808e-06 -2.6734298e-19)
(-0.00023572938 1.6708967e-06 1.5458376e-19)
(-0.00024060994 1.6506765e-06 2.3834853e-19)
(-0.00024505572 1.6274856e-06 -1.662181e-19)
(-0.00024907285 1.6016712e-06 -5.3295885e-19)
(-0.00025266843 1.5735725e-06 2.5436399e-19)
(-0.00025585042 1.5435033e-06 4.5061223e-19)
(-0.00025862765 1.5117791e-06 -1.6211784e-20)
(-0.00026100968 1.4786883e-06 1.046621e-19)
(-0.00026300673 1.4444973e-06 -1.7159017e-19)
(-0.00026462964 1.4094455e-06 5.8904096e-20)
(-0.00026588969 1.3737007e-06 3.5913867e-20)
(-0.00026679849 1.3373589e-06 -3.7241044e-19)
(-0.00026736783 1.300441e-06 7.1436106e-21)
(-0.00026760952 1.2629023e-06 -2.4225528e-19)
(-0.00026753499 1.224878e-06 -1.3822782e-19)
(-0.00026715558 1.1875091e-06 3.6045186e-19)
(-0.00026648236 1.1517687e-06 2.0622786e-19)
(-0.0002655267 1.1197013e-06 -5.2084573e-20)
(-0.00026430059 1.0982849e-06 -3.4890144e-19)
(-0.00026281805 1.0904855e-06 9.1363563e-20)
(-0.00026109346 1.084275e-06 3.3519708e-19)
(-0.00025913854 1.077464e-06 1.0432478e-19)
(-0.00025696263 1.0691535e-06 -1.5217644e-19)
(-0.00025456363 1.0559011e-06 -3.9380183e-19)
(-0.00025196668 1.0135918e-06 1.3051479e-19)
(-0.00024919977 9.6632565e-07 2.2697887e-19)
(-0.0002462626 9.206781e-07 8.3493871e-20)
(-0.00024316229 8.7773669e-07 -6.2195792e-20)
(-0.00023990831 8.3743301e-07 -4.1398865e-19)
(-0.0002365105 7.9947066e-07 1.1231293e-19)
(-0.00023297852 7.635636e-07 3.1234625e-19)
(-0.00022932172 7.2950263e-07 6.0273991e-20)
(-0.00022554911 6.9712686e-07 4.1857552e-20)
(-0.00022166936 6.6632062e-07 -3.0967822e-19)
(-0.00021769079 6.3698751e-07 -1.7395303e-19)
(-0.00021362135 6.0905324e-07 2.1010146e-19)
(-0.00020946864 5.8245265e-07 8.6340993e-20)
(-0.00020523995 5.5713225e-07 1.9683651e-20)
(-0.00020094221 5.330347e-07 -6.4548404e-20)
(-0.00019658202 5.1011712e-07 2.4438329e-21)
(-0.00019216565 4.8833551e-07 1.1299576e-19)
(-0.00018769905 4.6763522e-07 -1.6929058e-20)
(-0.00018318787 4.4798425e-07 -2.4233776e-20)
(-0.00017863745 4.2933817e-07 -6.8549396e-20)
(-0.00017405282 4.1165362e-07 1.2183098e-20)
(-0.00016943875 3.9489772e-07 9.279596e-20)
(-0.0001647997 3.7902056e-07 9.4015957e-21)
(-0.00016013989 3.639982e-07 -4.3493373e-20)
(-0.00015546326 3.4978642e-07 -1.3039115e-19)
(-0.0001507735 3.3634677e-07 6.2778641e-21)
(-0.00014607407 3.23649e-07 1.2803268e-19)
(-0.00014136819 3.1165591e-07 3.6395422e-20)
(-0.00013665887 3.0033941e-07 -3.9030868e-20)
(-0.0001319489 2.8965638e-07 -7.5872814e-20)
(-0.00012724087 2.7958242e-07 2.530526e-20)
(-0.00012253716 2.7008205e-07 7.8667344e-20)
(-0.00011784 2.6113013e-07 -1.3732904e-20)
(-0.00011315142 2.5269176e-07 -7.6897198e-20)
(-0.0001084733 2.4474179e-07 -3.1799617e-20)
(-0.00010380736 2.3724671e-07 5.3722874e-20)
(-9.9155159e-05 2.3018247e-07 3.3036986e-20)
(-9.4518146e-05 2.2352281e-07 7.8904775e-21)
(-8.9897621e-05 2.172398e-07 -1.0715003e-21)
(-8.5294767e-05 2.1131478e-07 -3.0962254e-20)
(-8.0710663e-05 2.0572296e-07 2.1687369e-20)
(-7.6146278e-05 2.0045253e-07 2.1246955e-20)
(-7.1602491e-05 1.954941e-07 -1.4114958e-20)
(-6.7080105e-05 1.9086116e-07 -2.1360025e-21)
(-6.2579859e-05 1.8657505e-07 -4.6610621e-20)
(-5.8102452e-05 1.8269364e-07 -6.29836e-21)
(-5.3648587e-05 1.792998e-07 5.8311466e-20)
(-4.9219035e-05 1.7644889e-07 1.4380843e-20)
(-4.4814725e-05 1.7420419e-07 -2.0950162e-20)
(-4.0436939e-05 1.7271141e-07 -2.9847962e-20)
(-3.608769e-05 1.7234063e-07 -1.5159395e-21)
(-3.1770451e-05 1.7391091e-07 2.5559873e-20)
(-2.7491489e-05 1.7920131e-07 7.2290647e-21)
(-2.3262034e-05 1.9178031e-07 -3.3889332e-21)
(-1.910065e-05 2.1757614e-07 -8.6444999e-21)
(-1.5032231e-05 2.6115117e-07 -4.2414155e-21)
(-1.1072133e-05 3.0115911e-07 5.051314e-21)
(-7.1459864e-06 1.6601584e-07 2.5956388e-21)
(-2.6152177e-06 -5.9049123e-07 -1.1243852e-21)
(1.1007177e-05 -6.7212284e-05 1.2850591e-20)
(2.0982167e-05 -6.0585543e-05 -5.6248821e-22)
(3.0640433e-05 -5.6272944e-05 -1.0271697e-21)
(3.8178654e-05 -5.206295e-05 1.6129912e-20)
(4.389449e-05 -4.9057268e-05 9.7708475e-22)
(4.8506888e-05 -4.6912244e-05 -2.0216356e-20)
(5.220502e-05 -4.5236244e-05 3.027814e-21)
(5.51719e-05 -4.3784721e-05 4.2095022e-21)
(5.7432375e-05 -4.241021e-05 1.5038738e-20)
(5.8970496e-05 -4.1034019e-05 5.4837505e-20)
(5.974398e-05 -3.9602505e-05 6.0186319e-20)
(5.9674361e-05 -3.8093566e-05 8.9871795e-20)
(5.8695032e-05 -3.6518876e-05 1.0372376e-19)
(5.6751329e-05 -3.4867241e-05 6.1027309e-20)
(5.3783406e-05 -3.3137175e-05 4.3080515e-20)
(4.9739921e-05 -3.133317e-05 7.2515693e-20)
(4.4577678e-05 -2.9457151e-05 1.0537873e-19)
(3.8255304e-05 -2.7516933e-05 2.9090446e-20)
(3.0755504e-05 -2.5518643e-05 -9.7435654e-20)
(2.2032696e-05 -2.3469319e-05 -5.2856239e-20)
(1.2077565e-05 -2.1378118e-05 1.7800163e-20)
(8.8249031e-07 -1.9252513e-05 4.7976671e-20)
(-1.1535044e-05 -1.7106066e-05 1.3030284e-19)
(-2.5190972e-05 -1.4979636e-05 2.1569422e-19)
(-4.0112022e-05 -1.2842436e-05 1.8683312e-20)
(-5.6244296e-05 -1.0701794e-05 -4.0549083e-19)
(-7.3563834e-05 -8.566023e-06 -3.6070715e-19)
(-9.2040541e-05 -6.4406456e-06 -1.4662791e-19)
(-0.00011163779 -4.3363901e-06 -8.8786009e-20)
(-0.00013231542 -2.2631658e-06 4.3648833e-19)
(-0.00015402758 -2.2361275e-07 4.6254425e-19)
(-0.00017672035 1.7778496e-06 -3.2304996e-19)
(-0.00020033987 3.7273098e-06 -5.5544761e-19)
(-0.00022483491 5.6196159e-06 -1.283396e-19)
(-0.00025012274 7.4226304e-06 4.6512998e-19)
(-0.00027612071 9.1539773e-06 2.8198047e-19)
(-0.00030277099 1.081606e-05 -4.6037419e-19)
(-0.00033000522 1.2407062e-05 -6.5667698e-19)
(-0.00035774622 1.3923996e-05 2.8103278e-19)
(-0.00038591453 1.5361377e-05 4.8864203e-19)
(-0.00041443056 1.6713538e-05 -5.7380031e-19)
(-0.00044321421 1.7979396e-05 -9.5470754e-20)
(-0.00047218281 1.9159157e-05 1.23084e-18)
(-0.00050125553 2.0244499e-05 1.6783227e-18)
(-0.00053035279 2.1239037e-05 -1.1407442e-19)
(-0.00055939268 2.2144302e-05 -2.5434606e-18)
(-0.0005882957 2.2956111e-05 -1.40225e-18)
(-0.00061698422 2.3674669e-05 9.9608375e-19)
(-0.00064538438 2.4294781e-05 1.0956889e-18)
(-0.00067342281 2.4828463e-05 -5.3599053e-19)
(-0.00070102584 2.5273772e-05 -9.706209e-19)
(-0.00072812454 2.5629809e-05 1.190047e-18)
(-0.00075465318 2.5896981e-05 1.4605959e-18)
(-0.00078055975 2.6064535e-05 -2.9951494e-19)
(-0.0008057809 2.6177284e-05 -9.5890441e-19)
(-0.00083025034 2.6207999e-05 -1.0175528e-18)
(-0.00085392075 2.6161138e-05 -1.7716891e-19)
(-0.00087674555 2.6040857e-05 9.5954528e-19)
(-0.00089868114 2.5851035e-05 3.9942446e-19)
(-0.00091968751 2.5595502e-05 -9.3566704e-19)
(-0.0009397286 2.5278053e-05 -3.5932828e-19)
(-0.00095877229 2.4902542e-05 1.0839874e-18)
(-0.0009767905 2.4472828e-05 2.3677833e-19)
(-0.00099375909 2.399283e-05 -1.4310243e-18)
(-0.0010096579 2.3466445e-05 -8.5399419e-19)
(-0.0010244706 2.2897587e-05 8.7040202e-19)
(-0.0010381847 2.2290125e-05 1.188095e-18)
(-0.0010507913 2.1647895e-05 2.2149825e-19)
(-0.0010622852 2.0974685e-05 -6.9105675e-19)
(-0.0010726645 2.0274185e-05 -1.2537986e-18)
(-0.0010819307 1.9550012e-05 8.7457555e-20)
(-0.0010900883 1.8805672e-05 9.9702079e-19)
(-0.0010971449 1.8044556e-05 1.3647032e-19)
(-0.0011031109 1.7269913e-05 1.8821629e-19)
(-0.0011079993 1.6484865e-05 3.0229256e-19)
(-0.0011118255 1.5692381e-05 1.5413897e-19)
(-0.0011146073 1.4895276e-05 -4.5278745e-19)
(-0.0011163643 1.4096222e-05 -8.3263131e-19)
(-0.0011171183 1.3297745e-05 -2.2588519e-20)
(-0.0011168927 1.2502219e-05 3.5335861e-19)
(-0.0011157125 1.1711871e-05 7.0220632e-20)
(-0.001113604 1.0928803e-05 1.6118542e-19)
(-0.0011105948 1.0154964e-05 1.3386338e-19)
(-0.0011067135 9.3921825e-06 -5.9439608e-19)
(-0.0011019898 8.642141e-06 -8.0816065e-20)
(-0.0010964537 7.9063712e-06 5.2127685e-19)
(-0.0010901362 7.1862479e-06 -2.0219538e-19)
(-0.0010830686 6.4829275e-06 3.2629079e-19)
(-0.001075282 5.7973528e-06 1.8596143e-19)
(-0.0010668077 5.1303075e-06 -7.0498245e-19)
(-0.0010576763 4.4823983e-06 -4.916212e-19)
(-0.0010479171 3.8528934e-06 -3.7122573e-20)
(-0.0010375595 3.2419131e-06 4.3322996e-19)
(-0.0010266322 2.6460234e-06 5.5334254e-20)
(-0.0010151599 2.0689139e-06 -1.3114943e-19)
(-0.0010031734 1.5043452e-06 5.6953236e-20)
(-0.00099072373 9.5075061e-07 1.9842423e-19)
(-0.00097784572 4.1978597e-07 3.5633091e-19)
(-0.00096455523 -8.7345591e-08 -2.8918313e-19)
(-0.00095087837 -5.7172058e-07 -5.4865226e-19)
(-0.0009368516 -1.0358826e-06 -2.7236755e-20)
(-0.00092248726 -1.4954164e-06 4.1539288e-19)
(-0.00090779723 -1.9380631e-06 3.4668169e-19)
(-0.00089281771 -2.3604169e-06 -1.3089561e-19)
(-0.00087757556 -2.7621653e-06 -3.4744752e-19)
(-0.00086209411 -3.143771e-06 -2.1758684e-19)
(-0.00084639527 -3.5059075e-06 2.3476624e-19)
(-0.00083049997 -3.849285e-06 5.6422292e-19)
(-0.0008144283 -4.1745925e-06 5.4221836e-20)
(-0.00079819946 -4.4825041e-06 -3.7210821e-19)
(-0.00078183178 -4.7736575e-06 -1.8477515e-19)
(-0.00076534276 -5.0486901e-06 -1.4245879e-19)
(-0.00074874904 -5.3082217e-06 3.1698466e-19)
(-0.00073206642 -5.5528599e-06 4.4920819e-19)
(-0.00071530987 -5.7832032e-06 -2.0226327e-19)
(-0.00069849355 -5.9998493e-06 -4.2236135e-19)
(-0.00068163081 -6.2033721e-06 -9.5575742e-20)
(-0.00066473425 -6.3943459e-06 3.8265305e-19)
(-0.0006478157 -6.5733444e-06 1.1435817e-19)
(-0.00063088625 -6.7409032e-06 -4.6642511e-19)
(-0.0006139563 -6.8975587e-06 -1.4211562e-19)
(-0.00059703555 -7.0438487e-06 4.3337185e-19)
(-0.00058013303 -7.1802683e-06 3.4961534e-19)
(-0.00056325715 -7.307328e-06 -2.3881856e-19)
(-0.00054641569 -7.4255044e-06 -5.2994308e-19)
(-0.00052961584 -7.5352557e-06 -4.1405936e-20)
(-0.00051286424 -7.6370474e-06 3.9108464e-19)
(-0.00049616696 -7.7313054e-06 2.1344451e-19)
(-0.00047952959 -7.8184529e-06 -7.9763669e-20)
(-0.0004629572 -7.8988855e-06 -2.2598976e-19)
(-0.0004464544 -7.9730021e-06 -9.7257446e-20)
(-0.00043002534 -8.0411653e-06 2.4939305e-19)
(-0.00041367377 -8.1037303e-06 2.6970169e-19)
(-0.00039740302 -8.161033e-06 -5.19264e-20)
(-0.00038121605 -8.213398e-06 -2.8362233e-19)
(-0.00036511548 -8.2611193e-06 -6.8837764e-20)
(-0.00034910356 -8.3044999e-06 1.6623913e-19)
(-0.00033318225 -8.343804e-06 7.5737869e-20)
(-0.00031735321 -8.3792875e-06 -7.9158546e-21)
(-0.00030161782 -8.4111956e-06 -4.3024754e-20)
(-0.00028597721 -8.4397467e-06 -3.5585265e-20)
(-0.00027043227 -8.46515e-06 2.4994842e-21)
(-0.00025498369 -8.4876009e-06 4.5847468e-20)
(-0.00023963193 -8.5072833e-06 -2.4038342e-20)
(-0.00022437733 -8.5243491e-06 -9.4955846e-20)
(-0.00020922006 -8.5389583e-06 -2.4552771e-20)
(-0.00019416023 -8.5512292e-06 8.0281748e-20)
(-0.00017919804 -8.5612151e-06 9.1600991e-20)
(-0.00016433381 -8.5687895e-06 -3.0164927e-20)
(-0.00014956807 -8.5735292e-06 -9.3087841e-20)
(-0.00013490178 -8.5745424e-06 -7.3485118e-21)
(-0.00012033673 -8.5700542e-06 5.9899955e-20)
(-0.0001058761 -8.5568274e-06 3.5711912e-20)
(-9.1525003e-05 -8.5293381e-06 -1.2394996e-20)
(-7.7290466e-05 -8.4794195e-06 -2.4509168e-20)
(-6.317873e-05 -8.3992865e-06 -3.5159575e-21)
(-4.9184524e-05 -8.2975919e-06 1.3705119e-20)
(-3.5264193e-05 -8.2515064e-06 1.3222665e-20)
(-2.131344e-05 -8.5183004e-06 5.6779119e-21)
(-7.1409927e-06 -9.5643877e-06 4.893002e-21)
(-5.1602018e-06 -7.605854e-05 7.4786224e-21)
(-1.4083583e-05 -6.5919582e-05 -3.848151e-20)
(-2.4775332e-05 -5.8736581e-05 -4.9691771e-20)
(-3.641763e-05 -5.151924e-05 -3.5184313e-20)
(-4.9903587e-05 -4.5956786e-05 1.1568683e-21)
(-6.4345624e-05 -4.1780336e-05 -4.0734229e-20)
(-7.974852e-05 -3.8390871e-05 -1.5038954e-20)
(-9.5970928e-05 -3.5416405e-05 -4.577258e-21)
(-0.00011298282 -3.2612523e-05 5.2486598e-20)
(-0.00013077354 -2.9828472e-05 1.3613103e-19)
(-0.00014936541 -2.6995525e-05 1.0920674e-19)
(-0.00016883387 -2.4075213e-05 1.2287274e-19)
(-0.00018921515 -2.1011268e-05 7.2310774e-20)
(-0.0002105296 -1.7805096e-05 1.118991e-19)
(-0.00023282559 -1.4458482e-05 1.6603627e-19)
(-0.00025614079 -1.0981392e-05 9.1505727e-20)
(-0.00028050461 -7.3828987e-06 8.997844e-20)
(-0.00030594124 -3.6797921e-06 4.9126006e-21)
(-0.00033246629 1.1745933e-07 -7.4651408e-20)
(-0.00036009288 3.9764825e-06 1.7903874e-20)
(-0.00038882286 7.9029106e-06 7.3760337e-20)
(-0.00041865382 1.1856428e-05 7.6658068e-20)
(-0.00044959422 1.5834735e-05 1.3470127e-19)
(-0.00048158145 1.9775326e-05 1.1293514e-19)
(-0.0005145683 2.3705085e-05 -1.2466416e-19)
(-0.00054855284 2.7609073e-05 -1.7638555e-19)
(-0.00058349398 3.147026e-05 -9.5748038e-20)
(-0.00061934123 3.5272901e-05 -1.8198485e-19)
(-0.00065603822 3.9000027e-05 -2.2832416e-19)
(-0.00069352484 4.2635803e-05 1.2926239e-19)
(-0.00073173528 4.6167611e-05 2.6979089e-19)
(-0.00077059664 4.9583084e-05 -1.7930002e-19)
(-0.00081003437 5.286826e-05 -3.8794212e-19)
(-0.00084997135 5.6015131e-05 -1.9158078e-19)
(-0.00089032208 5.902117e-05 2.7964529e-19)
(-0.00093099619 6.1863777e-05 3.7883034e-19)
(-0.00097190392 6.4529617e-05 -9.5748426e-20)
(-0.0010129551 6.7011789e-05 -2.120474e-19)
(-0.0010540563 6.9304634e-05 -1.2128544e-19)
(-0.0010951128 7.1402576e-05 -4.0018503e-19)
(-0.0011360297 7.330075e-05 -3.8865543e-19)
(-0.0011767124 7.4996125e-05 5.1785024e-19)
(-0.0012170651 7.6486656e-05 1.0252077e-18)
(-0.0012569941 7.7769514e-05 8.3040715e-19)
(-0.0012964076 7.8845092e-05 -1.782283e-19)
(-0.0013352136 7.971412e-05 -1.8401886e-18)
(-0.0013733229 8.0377113e-05 -8.129903e-19)
(-0.0014106495 8.0836077e-05 5.2302208e-19)
(-0.0014471115 8.1093308e-05 7.6956036e-19)
(-0.0014826292 8.115429e-05 7.8804988e-19)
(-0.0015171249 8.1023104e-05 -8.3753807e-19)
(-0.0015505265 8.0704261e-05 -1.825619e-19)
(-0.0015827665 8.0202763e-05 8.8587477e-19)
(-0.0016137841 7.9523927e-05 -9.6340413e-20)
(-0.0016435184 7.8683486e-05 -2.0083288e-19)
(-0.0016719116 7.7684145e-05 -3.4811778e-19)
(-0.001698915 7.6532646e-05 -3.332451e-19)
(-0.0017244845 7.5237088e-05 4.4729663e-19)
(-0.0017485809 7.380613e-05 1.0214773e-19)
(-0.0017711697 7.2248694e-05 -7.3273489e-19)
(-0.0017922216 7.0573864e-05 -1.7951894e-19)
(-0.0018117121 6.8790836e-05 5.2876336e-19)
(-0.0018296218 6.690884e-05 -5.8527362e-20)
(-0.001845936 6.4937128e-05 -3.4986512e-19)
(-0.0018606451 6.2884899e-05 3.8218668e-19)
(-0.0018737437 6.0761261e-05 3.8775203e-19)
(-0.0018852314 5.8575194e-05 -2.640956e-19)
(-0.0018951117 5.6335514e-05 -2.1068643e-19)
(-0.0019033927 5.4050828e-05 -1.1085126e-19)
(-0.0019100863 5.1729511e-05 -5.7447944e-19)
(-0.001915208 4.9379666e-05 -1.0845611e-19)
(-0.0019187773 4.7009102e-05 3.3920256e-19)
(-0.0019208167 4.4625301e-05 3.1435228e-20)
(-0.001921352 4.2235387e-05 3.0548906e-19)
(-0.0019204117 3.984614e-05 2.4629667e-19)
(-0.0019180271 3.7463937e-05 3.3652175e-19)
(-0.001914232 3.5094785e-05 -4.3771041e-20)
(-0.0019090621 3.2744316e-05 -9.1092148e-19)
(-0.0019025551 3.0417783e-05 -2.7629221e-19)
(-0.0018947507 2.812007e-05 6.6159565e-19)
(-0.0018856898 2.5855678e-05 3.4404413e-19)
(-0.0018754145 2.362875e-05 -5.7282184e-19)
(-0.0018639683 2.1443075e-05 -4.3848668e-19)
(-0.0018513952 1.9302078e-05 -2.4827152e-19)
(-0.0018377403 1.7208831e-05 -1.680018e-19)
(-0.0018230486 1.5166043e-05 2.6244404e-19)
(-0.0018073659 1.3176051e-05 -8.446002e-20)
(-0.001790738 1.1240707e-05 2.4823544e-19)
(-0.0017732104 9.3613044e-06 5.9252673e-19)
(-0.0017548285 7.5383501e-06 -2.8387617e-19)
(-0.0017356381 5.7715186e-06 -4.8143984e-19)
(-0.0017156833 4.0570818e-06 -2.4475643e-20)
(-0.0016950092 2.401253e-06 1.5043467e-19)
(-0.0016736535 8.1104921e-07 -1.741596e-19)
(-0.0016516607 -7.2319285e-07 1.982141e-20)
(-0.0016290777 -2.2118967e-06 4.8351779e-19)
(-0.0016059297 -3.661369e-06 -6.2249389e-21)
(-0.0015822559 -5.0567206e-06 -2.5831643e-19)
(-0.0015581071 -6.3932972e-06 -3.6224292e-19)
(-0.0015335217 -7.6694147e-06 -1.4244244e-19)
(-0.0015085369 -8.8842807e-06 4.1353733e-19)
(-0.0014831869 -1.0028961e-05 2.5884173e-19)
(-0.0014575029 -1.1116782e-05 3.1339956e-20)
(-0.0014315174 -1.2152006e-05 -3.0068387e-19)
(-0.0014052618 -1.313639e-05 -1.0897773e-19)
(-0.0013787661 -1.4071286e-05 3.6479037e-19)
(-0.0013520591 -1.4958026e-05 8.9642246e-20)
(-0.0013251681 -1.5798003e-05 2.0325842e-20)
(-0.0012981192 -1.6592693e-05 -9.2040291e-20)
(-0.0012709374 -1.7343625e-05 -3.0237639e-19)
(-0.0012436461 -1.805234e-05 5.0108899e-20)
(-0.0012162678 -1.8720417e-05 1.2639207e-19)
(-0.0011888237 -1.934942e-05 1.1043465e-19)
(-0.0011613338 -1.9940915e-05 2.4063918e-19)
(-0.0011338169 -2.049647e-05 -1.1104733e-19)
(-0.0011062907 -2.101762e-05 -3.667585e-19)
(-0.001078772 -2.1505889e-05 -1.6888471e-19)
(-0.0010512762 -2.1962771e-05 1.5711986e-19)
(-0.001023818 -2.2389746e-05 1.1671874e-19)
(-0.00099641089 -2.2788245e-05 -1.1362642e-19)
(-0.00096906747 -2.3159665e-05 3.2202336e-20)
(-0.0009417994 -2.3505393e-05 1.8167168e-19)
(-0.00091461746 -2.3826744e-05 7.2662858e-20)
(-0.00088753157 -2.4125018e-05 -1.922864e-19)
(-0.00086055082 -2.4401476e-05 -2.277802e-19)
(-0.00083368351 -2.4657307e-05 1.00019e-19)
(-0.00080693722 -2.4893698e-05 2.1028051e-19)
(-0.00078031876 -2.5111769e-05 9.807777e-20)
(-0.0007538343 -2.5312603e-05 -9.1425417e-20)
(-0.00072748933 -2.5497243e-05 -9.7404948e-20)
(-0.00070128873 -2.5666683e-05 4.2183753e-20)
(-0.00067523682 -2.5821883e-05 7.388213e-20)
(-0.00064933733 -2.5963749e-05 1.1295842e-19)
(-0.00062359348 -2.6093153e-05 5.9686981e-20)
(-0.000598008 -2.621092e-05 -6.464579e-20)
(-0.00057258315 -2.6317829e-05 -7.8124764e-20)
(-0.00054732077 -2.6414628e-05 9.2917599e-21)
(-0.00052222229 -2.6502013e-05 3.9204075e-20)
(-0.00049728875 -2.6580654e-05 -1.400652e-20)
(-0.00047252085 -2.6651164e-05 -2.2715235e-20)
(-0.00044791897 -2.6714124e-05 -4.9757821e-21)
(-0.0004234832 -2.6770065e-05 -4.628709e-20)
(-0.00039921337 -2.6819503e-05 1.0321345e-20)
(-0.00037510905 -2.6862894e-05 1.5272021e-20)
(-0.00035116966 -2.6900657e-05 -3.2422166e-20)
(-0.00032739444 -2.6933172e-05 2.3100018e-20)
(-0.00030378252 -2.696074e-05 1.94945e-20)
(-0.0002803329 -2.6983519e-05 1.2491705e-21)
(-0.00025704454 -2.700133e-05 -1.6605102e-21)
(-0.00023391658 -2.7013502e-05 -5.8229041e-21)
(-0.00021094836 -2.7018662e-05 3.6437262e-20)
(-0.00018813957 -2.7014329e-05 3.1340112e-20)
(-0.00016549019 -2.699651e-05 3.7714832e-21)
(-0.00014300003 -2.6959747e-05 -2.2150807e-20)
(-0.00012066718 -2.689899e-05 -8.3182713e-21)
(-9.848462e-05 -2.6817404e-05 2.2804798e-20)
(-7.6432578e-05 -2.6749263e-05 1.1662374e-20)
(-5.4465553e-05 -2.6813139e-05 1.1175126e-20)
(-3.2524591e-05 -2.7292582e-05 1.9101392e-20)
(-1.0744382e-05 -2.8546459e-05 2.7657041e-20)
(-1.9862645e-05 -3.2679679e-05 -1.2274772e-19)
(-4.6454376e-05 -2.2775008e-05 -1.3826686e-19)
(-7.5999328e-05 -1.4820939e-05 -8.717203e-20)
(-0.0001048832 -6.568078e-06 -1.5430444e-19)
(-0.00013545801 2.2652222e-07 -1.1717274e-19)
(-0.00016660028 5.654235e-06 -1.4743008e-19)
(-0.00019853323 1.0263612e-05 -1.064145e-19)
(-0.00023123884 1.4433099e-05 -1.4098011e-20)
(-0.00026471331 1.8421666e-05 6.6064471e-20)
(-0.00029896578 2.2397224e-05 1.4826482e-19)
(-0.00033400465 2.6442315e-05 1.461182e-19)
(-0.00036981195 3.0608905e-05 1.1309555e-19)
(-0.00040641706 3.4952079e-05 3.6746322e-20)
(-0.00044386695 3.9471051e-05 1.2463797e-19)
(-0.00048217849 4.4158532e-05 1.2740335e-19)
(-0.00052136643 4.900161e-05 2.6266535e-20)
(-0.00056144133 5.3982758e-05 1.0049282e-19)
(-0.00060240883 5.9080757e-05 6.0347539e-20)
(-0.00064426868 6.4273504e-05 2.7239628e-20)
(-0.00068701542 6.9535198e-05 6.1632356e-20)
(-0.00073063661 7.4844626e-05 7.3088229e-20)
(-0.00077511361 8.0174302e-05 6.9570533e-20)
(-0.00082042187 8.5504637e-05 -3.9647403e-21)
(-0.00086651408 9.0830123e-05 -7.1253045e-20)
(-0.00091334112 9.6095277e-05 3.8383915e-20)
(-0.00096086152 0.00010127687 1.6741366e-20)
(-0.0010090227 0.0001063529 -2.506236e-19)
(-0.0010577633 0.00011130127 -1.2362039e-19)
(-0.0011070159 0.00011609924 7.566444e-20)
(-0.0011567083 0.00012072486 1.7681306e-20)
(-0.0012067633 0.00012515818 -1.7581573e-19)
(-0.0012570978 0.00012937987 -1.9050463e-19)
(-0.0013076263 0.00013337093 1.4669625e-19)
(-0.0013582596 0.00013711567 1.4195202e-19)
(-0.0014089042 0.00014060079 -1.9697389e-19)
(-0.0014594634 0.00014381211 -2.580001e-19)
(-0.0015098393 0.0001467363 1.1386274e-19)
(-0.0015599331 0.00014936269 2.4607874e-19)
(-0.0016096444 0.00015168251 -1.9471271e-19)
(-0.0016588728 0.00015368836 -2.6986359e-19)
(-0.0017075179 0.00015537444 -3.9459734e-20)
(-0.0017554804 0.00015673704 1.6238289e-19)
(-0.0018026611 0.00015777404 2.9526704e-19)
(-0.0018489632 0.00015848423 1.0570284e-19)
(-0.001894292 0.00015886888 2.8842784e-20)
(-0.0019385549 0.00015893056 -3.5852669e-19)
(-0.0019816621 0.00015867264 -3.3972346e-19)
(-0.002023528 0.00015810003 1.0705366e-19)
(-0.0020640707 0.00015721891 2.4529233e-19)
(-0.0021032122 0.00015603781 5.2296465e-19)
(-0.0021408784 0.00015456536 1.3922744e-20)
(-0.0021770003 0.00015281103 -5.3690237e-19)
(-0.0022115141 0.00015078538 5.1875599e-20)
(-0.0022443618 0.00014850039 2.7392066e-19)
(-0.0022754888 0.00014597085 -7.0269434e-20)
(-0.0023048458 0.00014320881 -2.6492679e-19)
(-0.0023323899 0.00014022735 -1.9475186e-19)
(-0.002358084 0.00013704045 1.1888393e-19)
(-0.0023818966 0.0001336626 1.3601393e-20)
(-0.0024038018 0.0001301087 -3.2990964e-19)
(-0.0024237791 0.00012639382 -2.4705772e-20)
(-0.0024418136 0.00012253314 2.9575763e-19)
(-0.0024578958 0.00011854186 3.3786982e-20)
(-0.0024720212 0.0001144351 -1.1290226e-19)
(-0.0024841907 0.00011022783 9.6019058e-20)
(-0.00249441 0.0001059348 1.3634329e-19)
(-0.0025026898 0.00010157048 -2.358697e-19)
(-0.0025090453 9.7148993e-05 -2.5559567e-19)
(-0.0025134958 9.2684047e-05 -9.4692465e-20)
(-0.0025160652 8.8188921e-05 -7.8870224e-20)
(-0.002516781 8.3676377e-05 4.6789543e-20)
(-0.0025156744 7.9158656e-05 3.8454473e-20)
(-0.00251278 7.4647406e-05 -1.2123939e-19)
(-0.0025081356 7.015366e-05 -8.7390663e-20)
(-0.0025017817 6.5687843e-05 2.5587832e-19)
(-0.0024937614 6.1259694e-05 3.5550415e-19)
(-0.0024841203 5.6878315e-05 -2.9212009e-19)
(-0.0024729059 5.2552166e-05 -6.1095349e-19)
(-0.0024601676 4.8289042e-05 -3.1636059e-20)
(-0.0024459561 4.4096131e-05 1.7725424e-19)
(-0.0024303237 3.9979941e-05 -1.6153645e-19)
(-0.0024133236 3.5946378e-05 -2.9704959e-19)
(-0.0023950098 3.2000745e-05 -2.1961781e-20)
(-0.0023754371 2.8147715e-05 1.5932594e-19)
(-0.0023546604 2.4391376e-05 4.0508637e-20)
(-0.0023327353 2.0735229e-05 -9.4088286e-20)
(-0.0023097171 1.7182163e-05 -3.0249035e-19)
(-0.0022856614 1.3734302e-05 -1.2605164e-19)
(-0.0022606236 1.0392769e-05 3.1890165e-19)
(-0.0022346589 7.1569022e-06 3.1889936e-19)
(-0.0022078236 4.0202145e-06 -8.8727602e-20)
(-0.002180161 1.0015017e-06 -3.6745174e-19)
(-0.0021517094 -1.8990681e-06 -1.0863963e-19)
(-0.0021225336 -4.6825998e-06 1.8354839e-19)
(-0.0020926942 -7.3558777e-06 2.1188268e-19)
(-0.0020622365 -9.9155452e-06 8.7483381e-20)
(-0.0020312031 -1.2362772e-05 -2.2894337e-19)
(-0.0019996348 -1.4709461e-05 -1.8005678e-19)
(-0.0019675768 -1.6957049e-05 -1.6434586e-20)
(-0.0019350745 -1.9105727e-05 9.7785559e-21)
(-0.0019021715 -2.1156785e-05 2.0900007e-19)
(-0.0018689081 -2.3110391e-05 8.7129168e-20)
(-0.0018353219 -2.4969019e-05 -1.0142045e-19)
(-0.0018014497 -2.6735344e-05 3.4165944e-21)
(-0.0017673267 -2.8411989e-05 1.991794e-19)
(-0.0017329869 -3.0001621e-05 1.4877279e-19)
(-0.0016984624 -3.1506944e-05 -8.6532606e-20)
(-0.0016637842 -3.2930705e-05 -1.0799167e-19)
(-0.0016289815 -3.4275703e-05 -9.7384702e-20)
(-0.001594082 -3.5544765e-05 -1.5457512e-19)
(-0.001559112 -3.6740722e-05 -1.5318705e-20)
(-0.0015240963 -3.7866433e-05 1.279599e-19)
(-0.0014890584 -3.8924712e-05 9.3131122e-20)
(-0.0014540204 -3.9918376e-05 8.299419e-20)
(-0.0014190029 -4.0850213e-05 -1.6507341e-20)
(-0.0013840254 -4.1722965e-05 -1.3762886e-19)
(-0.0013491059 -4.2539339e-05 -1.6521554e-19)
(-0.0013142614 -4.330197e-05 -3.8268397e-20)
(-0.0012795075 -4.4013476e-05 7.1416993e-20)
(-0.0012448589 -4.4676392e-05 1.1077298e-19)
(-0.001210329 -4.5293181e-05 5.5812656e-20)
(-0.0011759301 -4.5866268e-05 -6.7094714e-20)
(-0.0011416737 -4.639798e-05 -3.5767735e-20)
(-0.00110757 -4.6890593e-05 5.9971437e-20)
(-0.0010736287 -4.7346296e-05 9.5335798e-20)
(-0.0010398581 -4.776721e-05 3.7563598e-20)
(-0.0010062659 -4.8155388e-05 -3.8515026e-20)
(-0.00097285915 -4.8512796e-05 -3.9573e-21)
(-0.0009396438 -4.8841327e-05 -1.1144598e-20)
(-0.00090662524 -4.9142808e-05 3.59375e-20)
(-0.00087380813 -4.9418976e-05 7.230464e-20)
(-0.00084119646 -4.9671503e-05 1.2403767e-20)
(-0.00080879361 -4.9901987e-05 3.0860744e-20)
(-0.00077660237 -5.0111948e-05 3.0228677e-20)
(-0.00074462495 -5.0302835e-05 -1.5965587e-20)
(-0.00071286307 -5.047602e-05 -5.6013774e-20)
(-0.00068131797 -5.0632813e-05 -1.8057541e-20)
(-0.0006499904 -5.0774445e-05 -3.4703606e-21)
(-0.00061888073 -5.0902094e-05 -2.0654311e-20)
(-0.00058798892 -5.1016842e-05 -8.3153048e-21)
(-0.00055731458 -5.1119712e-05 1.5439682e-20)
(-0.00052685697 -5.121165e-05 -2.6696415e-21)
(-0.00049661509 -5.1293536e-05 8.9803835e-21)
(-0.00046658765 -5.1366141e-05 6.4326716e-21)
(-0.00043677313 -5.1430143e-05 4.4573588e-21)
(-0.00040716983 -5.1486092e-05 2.5172714e-20)
(-0.00037777586 -5.1534367e-05 -1.8769012e-20)
(-0.00034858917 -5.1575125e-05 -7.6489282e-21)
(-0.00031960758 -5.1608227e-05 3.3971164e-20)
(-0.00029082882 -5.1633091e-05 4.3786424e-20)
(-0.0002622505 -5.1648447e-05 2.898316e-20)
(-0.00023386993 -5.1652109e-05 6.9917915e-21)
(-0.00020568368 -5.1640894e-05 8.9697312e-21)
(-0.0001776867 -5.1611373e-05 -2.1736801e-20)
(-0.00014987077 -5.1562848e-05 8.107548e-23)
(-0.00012222286 -5.1505825e-05 2.7047442e-20)
(-9.472355e-05 -5.1481803e-05 1.0882701e-20)
(-6.7345181e-05 -5.1599173e-05 2.0250129e-20)
(-4.0077288e-05 -5.2072726e-05 2.7224154e-20)
(-1.3191616e-05 -5.3094813e-05 3.8566527e-20)
(-2.9358491e-05 4.6289067e-05 -3.3313243e-19)
(-6.8083225e-05 5.4018239e-05 -3.9731278e-19)
(-0.00011073471 6.1375214e-05 -2.6145757e-19)
(-0.00015150701 6.9305113e-05 -1.6646465e-19)
(-0.00019385398 7.6331597e-05 -3.527196e-19)