/*--------------------------------*- C++ -*----------------------------------*\
| =========                 |                                                 |
| \\      /  F ield         | OpenFOAM: The Open Source CFD Toolbox           |
|  \\    /   O peration     | Version:  2106                                  |
|   \\  /    A nd           | Website:  www.openfoam.com                      |
|    \\/     M anipulation  |                                                 |
\*---------------------------------------------------------------------------*/
FoamFile
{
    version     2.0;
    format      ascii;
    arch        "LSB;label=32;scalar=64";
    class       volScalarField;
    location    "0.029";
    object      p;
}
// * * * * * * * * * * * * * * * * * * * * * * * * * * * * * * * * * * * * * //

dimensions      [1 -1 -2 0 0 0 0];

internalField   nonuniform List<scalar> 
256
(
7.4735312
6.3369749
4.2369417
1.4875354
-1.4857425
-4.2368437
-6.3392282
-7.4777172
-7.4780347
-6.3401983
-4.2381606
-1.4873805
1.4860782
4.2356334
6.3361163
7.4732395
8.5930178
7.2867667
4.8734073
1.7109636
-1.7084199
-4.8738674
-7.2913723
-8.6006626
-8.6010248
-7.2925387
-4.8753539
-1.7103516
1.7093626
4.8718755
7.2857927
8.5926849
10.919014
9.2610466
6.1972637
2.1753669
-2.1715033
-6.198366
-9.2691201
-10.931824
-10.932266
-9.2707301
-6.200246
-2.1741474
2.1734678
6.1952429
9.2598321
10.918591
14.420054
12.232205
8.1912926
2.8798503
-2.8615818
-8.1910051
-12.257701
-14.463492
-14.463986
-12.259935
-8.1930741
-2.8647731
2.877805
8.1885258
12.230729
14.419498
21.429322
18.193707
12.196995
4.2800633
-4.2797244
-12.211913
-18.2252
-21.469782
-21.470759
-18.229282
-12.215754
-4.285697
4.2772752
12.192595
18.191396
21.4285
27.244954
23.125935
15.509781
5.469556
-5.3967572
-15.506963
-23.21999
-27.406261
-27.407003
-23.225302
-15.510689
-5.4029152
5.466428
15.503806
23.123516
27.243662
46.353291
39.462168
26.558872
9.3480003
-9.3578798
-26.62321
-39.608574
-46.558677
-46.561846
-39.620077
-26.632709
-9.3687425
9.344476
26.548143
39.456968
46.351961
53.282035
45.318263
30.466864
10.87567
-10.339465
-29.210352
-43.04873
-50.301022
-50.303569
-43.059953
-29.220444
-10.346411
10.868027
30.45596
45.312743
53.279932
-49.733671
-42.57199
-28.900019
-10.247091
10.743142
30.136719
44.838297
52.720315
52.72353
44.849916
30.147569
10.749935
-10.239764
-28.889671
-42.567273
-49.731508
-47.079133
-40.051907
-26.928886
-9.4776502
9.4356922
26.845393
39.899931
46.870912
46.87411
39.911461
26.854937
9.4467873
-9.4739185
-26.917854
-40.046556
-47.077749
-25.319481
-21.451908
-14.328248
-4.9896077
5.0464187
14.321511
21.357039
25.163375
25.163967
21.361765
14.324681
5.0519133
-4.986986
-14.322787
-21.449761
-25.318288
-23.692809
-20.113038
-13.478657
-4.7279409
4.7158319
13.451593
20.071886
23.645029
23.646154
20.076433
13.455879
4.7224459
-4.7246936
-13.473612
-20.110368
-23.69187
-9.146144
-7.7501443
-5.1784105
-1.807498
1.8196664
5.1769648
7.7284069
9.1103166
9.1105138
7.7297119
5.1779713
1.8215128
-1.8065429
-5.1767834
-7.749356
-9.1458254
-16.630138
-14.102164
-9.4322827
-3.3081545
3.3051699
9.4256148
14.091622
16.617972
16.618698
14.094164
9.4286905
3.3093593
-3.3049633
-9.4290322
-14.100177
-16.629447
3.6708884
3.1109473
2.0763372
0.72682572
-0.7327966
-2.080862
-3.1137323
-3.6726184
-3.6728273
-3.1142586
-2.0817434
-0.7337617
0.72578796
2.0755555
3.110409
3.6707021
-20.775928
-17.611993
-11.770843
-4.1268174
4.1310321
11.770004
17.604998
20.765449
20.766337
17.60775
11.773778
4.1357399
-4.1225548
-11.767045
-17.609514
-20.775079
)
;

boundaryField
{
    leftWall
    {
        type            cyclic;
    }
    rightWall
    {
        type            cyclic;
    }
    lowerWall
    {
        type            calculated;
        value           nonuniform List<scalar> 
16
(
7.4735312
6.3369749
4.2369417
1.4875354
-1.4857425
-4.2368437
-6.3392282
-7.4777172
-7.4780347
-6.3401983
-4.2381606
-1.4873805
1.4860782
4.2356334
6.3361163
7.4732395
)
;
    }
    atmosphere
    {
        type            calculated;
        value           nonuniform List<scalar> 
16
(
-4.4209167e-05
-0.00035963402
-0.00080792312
-0.0011309016
0
0
0
0
0
0
0
0
-0.0011308949
-0.00080799277
-0.00035970959
-4.4240648e-05
)
;
    }
    defaultFaces
    {
        type            empty;
    }
}


// ************************************************************************* //
