/*--------------------------------*- C++ -*----------------------------------*\
| =========                 |                                                 |
| \\      /  F ield         | OpenFOAM: The Open Source CFD Toolbox           |
|  \\    /   O peration     | Version:  2106                                  |
|   \\  /    A nd           | Website:  www.openfoam.com                      |
|    \\/     M anipulation  |                                                 |
\*---------------------------------------------------------------------------*/
FoamFile
{
    version     2.0;
    format      ascii;
    arch        "LSB;label=32;scalar=64";
    class       surfaceScalarField;
    location    "0.029";
    object      phi_0;
}
// * * * * * * * * * * * * * * * * * * * * * * * * * * * * * * * * * * * * * //

dimensions      [0 3 -1 0 0 0 0];

oriented        oriented;

internalField   nonuniform List<scalar> 
480
(
-0.0015430935
0.0015434265
-0.0028511604
0.0013080669
-0.0037236266
0.00087246615
-0.0040292554
0.00030562881
-0.0037214741
-0.00030778126
-0.0028483063
-0.00087316777
-0.0015416139
-0.0013066924
-3.3504035e-07
-0.0015412789
0.0015410042
-0.0015413392
0.0028478431
-0.0013068389
0.0037212369
-0.00087339386
0.0040292369
-0.00030799995
0.0037238729
0.00030536403
0.0028516302
0.00087224263
0.0015437091
0.0013079212
0.0015433761
-0.001704266
0.0032480861
-0.0031486878
0.0027524887
-0.0041116377
0.001835416
-0.0044490066
0.00064299779
-0.0041090759
-0.00064771197
-0.0031455501
-0.0018366936
-0.0017027494
-0.0027494931
-3.9885742e-07
-0.0032436294
0.0017020302
-0.0032437683
0.0031450055
-0.0027498142
0.0041088091
-0.0018371974
0.0044489691
-0.00064815998
0.0041119292
0.00064240391
0.0031492434
0.0018349284
0.0017049948
0.0027521698
0.0032479773
-0.0020263827
0.005274989
-0.0037435034
0.0044696094
-0.0048872715
0.0029791841
-0.0052886475
0.0010443738
-0.0048852203
-0.0010511392
-0.0037413457
-0.0029805682
-0.0020259499
-0.0044648889
-5.3615025e-07
-0.0052690432
0.0020249995
-0.005269304
0.0037406363
-0.004465451
0.0048849026
-0.0029814637
0.0052885589
-0.0010518163
0.004887657
0.0010433058
0.0037442403
0.0029783452
0.0020273496
0.0044690604
0.0052748067
-0.0026829913
0.0079587369
-0.0049568976
0.0067435158
-0.0064711986
0.004493485
-0.0070045489
0.0015777242
-0.0064722278
-0.0015834603
-0.0049597273
-0.0044930688
-0.0026868945
-0.0067377216
-7.9087122e-07
-0.0079551469
0.0026855109
-0.0079556057
0.004958692
-0.0067386321
0.0064718076
-0.0044945793
0.0070043726
-0.0015843813
0.006471779
0.0015758994
0.0049579726
0.0044921515
0.0026844066
0.0067426265
0.0079584567
-0.0038183672
0.011778227
-0.0070549316
0.0099800801
-0.0092108414
0.0066493948
-0.0099745917
0.0023414744
-0.0092192071
-0.0023388448
-0.007067757
-0.0066445189
-0.0038297201
-0.0099757585
-1.2146049e-06
-0.011783652
0.0038276485
-0.011784469
0.0070663576
-0.0099773412
0.0092187589
-0.0066469805
0.009974071
-0.0023396935
0.0092116556
0.0023383148
0.0070565772
0.0066472299
0.0038204839
0.0099787198
0.011777817
-0.0049057188
0.016685376
-0.0090704145
0.014144776
-0.011849558
0.0094285387
-0.012829379
0.0033212945
-0.011836486
-0.0033317377
-0.0090534282
-0.0094275764
-0.0048953542
-0.014133833
-1.6629627e-06
-0.016677344
0.00489258
-0.016678712
0.0090515768
-0.014136338
0.011836048
-0.0094314514
0.012828653
-0.0033322988
0.011850749
0.0033162189
0.0090725872
0.0094253916
0.0049084965
0.014142811
0.016684884
-0.0032943872
0.01998057
-0.0060691778
0.016919566
-0.0079086897
0.011268051
-0.0085543042
0.003966909
-0.0078658217
-0.0040202202
-0.0060028077
-0.01129059
-0.0032428732
-0.016893767
-1.1976321e-06
-0.019919019
0.0032412405
-0.01992115
0.0060031571
-0.016898255
0.0078664202
-0.011294715
0.0085518522
-0.0040177308
0.007908827
0.003959244
0.0060711066
0.011263112
0.003296056
0.016917861
0.019980134
0.0017138576
0.018266041
0.0031815066
0.015451917
0.004161273
0.010288284
0.0044682844
0.0036598976
0.0040818256
-0.0036337615
0.0030682767
-0.010277041
0.001630568
-0.015456058
7.8897631e-07
-0.01828924
-0.0016289043
-0.018291457
-0.0030658496
-0.015461309
-0.0040808003
-0.010279764
-0.0044705558
-0.0036279754
-0.004162312
0.0036510003
-0.0031818086
0.010282609
-0.001715169
0.015451221
0.018265636
-0.0016572082
0.019923915
-0.0031140704
0.01690878
-0.0041367558
0.01131097
-0.0045214469
0.0040445886
-0.004204533
-0.0039506753
-0.0032108807
-0.011270694
-0.0017278489
-0.01693909
-7.4969004e-07
-0.020016339
0.0017262717
-0.020018478
0.0032085443
-0.016943582
0.004203614
-0.011274834
0.0045238054
-0.0039481668
0.0041378924
0.0040369133
0.0031144497
0.011306051
0.00165853
0.016907141
0.0199235
0.0031743254
0.016748866
0.0058822631
0.014200842
0.007714126
0.0094791068
0.0083985738
0.0033601409
0.0077732683
-0.0033253699
0.0059714349
-0.0094688603
0.0032457136
-0.014213369
1.2328791e-06
-0.016771859
-0.0032440269
-0.016773218
-0.005971751
-0.014215858
-0.0077738346
-0.00947275
-0.0083960692
-0.0033259322
-0.0077142032
0.0033550473
-0.0058841029
0.0094759512
-0.0031758479
0.014198886
0.016748376
0.0049007289
0.01184672
0.0090679476
0.010033623
0.011858146
0.0066889087
0.012855446
0.002362841
0.011875401
-0.0023453257
0.0090908759
-0.0066843349
0.0049183694
-0.010040862
1.7113122e-06
-0.011855201
-0.0049155022
-0.011856005
-0.0090889351
-0.010042425
-0.011874912
-0.0066867728
-0.0128547
-0.0023461446
-0.011859328
0.0023596753
-0.0090701154
0.0066867385
-0.00490349
0.010032261
0.011846303
0.0036292927
0.008216408
0.0066987051
0.0069642108
0.0087361037
0.00465151
0.0094508263
0.0016481184
0.0087264195
-0.0016209189
0.0066842284
-0.0046421438
0.0036189026
-0.0069755365
1.1111079e-06
-0.008237409
-0.0036170152
-0.0082378783
-0.0066829662
-0.0069764739
-0.0087260237
-0.0046437152
-0.009450253
-0.0016219153
-0.0087368052
0.0016462275
-0.0067001911
0.0046501245
-0.0036312082
0.0069632778
0.0082161138
0.0027968032
0.0054187678
0.0051646495
0.0045963646
0.0067404586
0.0030757009
0.0072941946
0.0010943825
0.0067374513
-0.0010641757
0.0051594257
-0.0030641181
0.002792718
-0.0046088288
8.8170053e-07
-0.0054455727
-0.0027911643
-0.0054458323
-0.0051582461
-0.0046093922
-0.0067369538
-0.0030650076
-0.0072940293
-0.0010648398
-0.00674111
0.0010933082
-0.0051658363
0.0030748508
-0.002798368
0.0045958095
0.0054185828
0.0015676727
0.0038507783
0.0028953837
0.0032686536
0.0037803617
0.0021907229
0.0040936348
0.00078110938
0.0037841238
-0.00075466467
0.0029000343
-0.0021800286
0.001570566
-0.0032793604
3.2433068e-07
-0.0038753311
-0.0015700057
-0.0038755022
-0.0028996265
-0.0032797713
-0.003783961
-0.0021806731
-0.0040935217
-0.00075527899
-0.003780569
0.0007803554
-0.0028958247
0.0021901065
-0.0015682608
0.0032682456
0.0038506389
0.0027525986
0.0010973431
0.0050881146
0.00093313756
0.006650784
0.00062805345
0.0072038009
0.00022809249
0.0066616519
-0.0002125157
0.0051034364
-0.00062181311
0.0027638103
-0.00093973439
8.5521282e-07
-0.0011123759
-0.0027622445
-0.0011124026
-0.0051022447
-0.00093977106
-0.0066610371
-0.00062188071
-0.0072037904
-0.00021252569
-0.0066514357
0.00022800069
-0.0050893061
0.00062797689
-0.0027541496
0.00093308912
0.0010973258
0.0011249135
0.0020815107
0.0027252425
0.0029588306
0.0027408122
0.0021033208
0.0011401356
9.8980544e-08
-0.0011399655
-0.002103191
-0.002740755
-0.0029587897
-0.002725299
-0.0020816489
-0.0011251034
)
;

boundaryField
{
    leftWall
    {
        type            cyclic;
        value           nonuniform List<scalar> 
16
(
-3.3298935e-07
-3.9357852e-07
-5.2021006e-07
-7.566097e-07
-1.1231794e-06
-1.4295644e-06
-8.0680933e-07
6.7117881e-07
-6.6551424e-07
7.2355677e-07
1.4173052e-06
1.0188831e-06
8.3689989e-07
3.1682296e-07
8.3661051e-07
1.0416578e-07
)
;
    }
    rightWall
    {
        type            cyclic;
        value           nonuniform List<scalar> 
16
(
3.3298935e-07
3.9357852e-07
5.2021006e-07
7.566097e-07
1.1231794e-06
1.4295644e-06
8.0680933e-07
-6.7117881e-07
6.6551424e-07
-7.2355677e-07
-1.4173052e-06
-1.0188831e-06
-8.3689989e-07
-3.1682296e-07
-8.3661051e-07
-1.0416578e-07
)
;
    }
    lowerWall
    {
        type            calculated;
        value           uniform 0;
    }
    atmosphere
    {
        type            calculated;
        value           nonuniform List<scalar> 
16
(
-2.7674575e-05
-2.3459635e-05
-1.5678311e-05
-5.4956471e-06
5.5027424e-06
1.5678258e-05
2.3450807e-05
2.76607e-05
2.7661883e-05
2.3454473e-05
1.5683287e-05
5.5090134e-06
-5.4899679e-06
-1.5673253e-05
-2.3456332e-05
-2.7673443e-05
)
;
    }
    defaultFaces
    {
        type            empty;
        value           nonuniform List<scalar> 0();
    }
}


// ************************************************************************* //
