/*--------------------------------*- C++ -*----------------------------------*\
| =========                 |                                                 |
| \\      /  F ield         | OpenFOAM: The Open Source CFD Toolbox           |
|  \\    /   O peration     | Version:  2106                                  |
|   \\  /    A nd           | Website:  www.openfoam.com                      |
|    \\/     M anipulation  |                                                 |
\*---------------------------------------------------------------------------*/
FoamFile
{
    version     2.0;
    format      ascii;
    arch        "LSB;label=32;scalar=64";
    class       volVectorField;
    location    "0.029";
    object      U_0;
}
// * * * * * * * * * * * * * * * * * * * * * * * * * * * * * * * * * * * * * //

dimensions      [0 1 -1 0 0 0 0];

internalField   nonuniform List<vector> 
256
(
(-0.012883224 0.011913149 0)
(-0.03669743 0.010096875 0)
(-0.054909196 0.0067346031 0)
(-0.064737911 0.0023621719 0)
(-0.064721435 -0.0023724133 0)
(-0.054857221 -0.0067366013 0)
(-0.036658406 -0.01008259 0)
(-0.012875261 -0.011893217 0)
(0.01286452 -0.011893663 0)
(0.036649434 -0.010083672 0)
(0.054851459 -0.0067382833 0)
(0.064719355 -0.002374053 0)
(0.064739676 0.0023601789 0)
(0.054915188 0.0067329222 0)
(0.036706565 0.010095775 0)
(0.012893902 0.011912768 0)
(-0.014228439 0.037437866 0)
(-0.04053428 0.031727182 0)
(-0.060636122 0.021159563 0)
(-0.071488904 0.0074096042 0)
(-0.071464651 -0.0074705488 0)
(-0.060579228 -0.021182651 0)
(-0.040491812 -0.031699371 0)
(-0.014222895 -0.037390004 0)
(0.014210154 -0.037391506 0)
(0.040481212 -0.031702938 0)
(0.060572659 -0.021188194 0)
(0.071462189 -0.007475735 0)
(0.071490737 0.0074030562 0)
(0.060643274 0.021154117 0)
(0.040545104 0.031723618 0)
(0.014241051 0.037436639 0)
(-0.016917326 0.066224427 0)
(-0.04820519 0.056117876 0)
(-0.072090553 0.037415703 0)
(-0.084987451 0.013108517 0)
(-0.084967089 -0.013203647 0)
(-0.072046683 -0.03743317 0)
(-0.048182491 -0.056042164 0)
(-0.0169271 -0.06611675 0)
(0.016910078 -0.066119697 0)
(0.048168464 -0.056048814 0)
(0.07203867 -0.037443913 0)
(0.084963827 -0.013213045 0)
(0.084989228 0.013095903 0)
(0.072100221 0.037405615 0)
(0.048219567 0.056111213 0)
(0.016933983 0.066222174 0)
(-0.022392402 0.10129052 0)
(-0.063833154 0.085815989 0)
(-0.095450298 0.05718543 0)
(-0.1125428 0.020059539 0)
(-0.11255075 -0.020165811 0)
(-0.095480763 -0.057206705 0)
(-0.063901646 -0.085750127 0)
(-0.022453285 -0.10122871 0)
(0.02242827 -0.10123397 0)
(0.063880957 -0.085761108 0)
(0.095469996 -0.057223948 0)
(0.11254598 -0.020177163 0)
(0.11254455 0.020038342 0)
(0.095464985 0.05716895 0)
(0.06385412 0.085805312 0)
(0.022416662 0.10128699 0)
(-0.03185597 0.15567658 0)
(-0.090856226 0.13192446 0)
(-0.13584675 0.08791032 0)
(-0.16024143 0.030872246 0)
(-0.16032384 -0.030986039 0)
(-0.13603946 -0.087889088 0)
(-0.091080117 -0.13178164 0)
(-0.03199541 -0.15557222 0)
(0.031957015 -0.15558201 0)
(0.091049687 -0.13180036 0)
(0.13602833 -0.08792145 0)
(0.16031583 -0.031005768 0)
(0.16023938 0.030834435 0)
(0.13587011 0.087883778 0)
(0.090887874 0.13190619 0)
(0.031891941 0.15567112 0)
(-0.040893254 0.21602986 0)
(-0.11677809 0.18300456 0)
(-0.17469506 0.12188943 0)
(-0.20621864 0.043018361 0)
(-0.20608728 -0.042774963 0)
(-0.17442962 -0.12173342 0)
(-0.11653096 -0.18302273 0)
(-0.040827731 -0.21634581 0)
(0.040775446 -0.21636131 0)
(0.11648892 -0.18305331 0)
(0.17441898 -0.12177778 0)
(0.20607729 -0.042780795 0)
(0.20621415 0.042955797 0)
(0.17472967 0.1218477 0)
(0.1168188 0.18298025 0)
(0.04093957 0.21602216 0)
(-0.027526623 0.32617975 0)
(-0.078592866 0.2766947 0)
(-0.11693712 0.1845826 0)
(-0.13808656 0.064904915 0)
(-0.13770461 -0.065591874 0)
(-0.11595146 -0.18476095 0)
(-0.077467494 -0.27630701 0)
(-0.027008784 -0.32553986 0)
(0.026971093 -0.32556934 0)
(0.077448117 -0.27635891 0)
(0.11598768 -0.18484324 0)
(0.13768194 -0.065606429 0)
(0.13804111 0.064804581 0)
(0.11697646 0.18452164 0)
(0.078621094 0.27665475 0)
(0.027552022 0.32617182 0)
(0.014182692 0.29995494 0)
(0.040148107 0.25339019 0)
(0.060671427 0.16831329 0)
(0.071117715 0.059346764 0)
(0.070370052 -0.060243095 0)
(0.058917919 -0.16880042 0)
(0.038341488 -0.25298934 0)
(0.013371108 -0.29872853 0)
(-0.013345299 -0.29876505 0)
(-0.038317758 -0.25307612 0)
(-0.058862454 -0.1688458 0)
(-0.070391454 -0.060148671 0)
(-0.071168687 0.059203292 0)
(-0.060656479 0.16822017 0)
(-0.040169755 0.25337769 0)
(-0.014203829 0.29994854 0)
(-0.013606789 0.30046426 0)
(-0.03895644 0.25470863 0)
(-0.059766768 0.170183 0)
(-0.07127941 0.061090543 0)
(-0.071907279 -0.059341297 0)
(-0.061262889 -0.16933053 0)
(-0.040496323 -0.25524489 0)
(-0.014284767 -0.30244081 0)
(0.014260263 -0.30247803 0)
(0.040473845 -0.25533279 0)
(0.061209224 -0.1693772 0)
(0.071930087 -0.059247934 0)
(0.071331869 0.060946138 0)
(0.059753425 0.17008927 0)
(0.038978814 0.25469668 0)
(0.013627724 0.30045813 0)
(0.026400202 0.32336434 0)
(0.075884003 0.27456736 0)
(0.11366982 0.18369768 0)
(0.13512417 0.065400447 0)
(0.13567742 -0.064284797 0)
(0.11501032 -0.18332326 0)
(0.077391519 -0.27496263 0)
(0.027166676 -0.32423902 0)
(-0.027127852 -0.32426799 0)
(-0.077371531 -0.27501335 0)
(-0.11504618 -0.18340461 0)
(-0.13565398 -0.064297477 0)
(-0.13507774 0.065301128 0)
(-0.11370831 0.18363808 0)
(-0.075910171 0.274529 0)
(-0.026422959 0.32335688 0)
(0.040830671 0.22247186 0)
(0.11667534 0.18830338 0)
(0.17469954 0.12536555 0)
(0.20644468 0.044194211 0)
(0.20662417 -0.044094617 0)
(0.17505186 -0.12536162 0)
(0.11702819 -0.18832387 0)
(0.041021885 -0.22238861 0)
(-0.040968048 -0.22240437 0)
(-0.11698468 -0.18835539 0)
(-0.17503995 -0.1254077 0)
(-0.20661369 -0.044102637 0)
(-0.20644012 0.044129201 0)
(-0.17473401 0.1253218 0)
(-0.11671593 0.18827761 0)
(-0.04087659 0.22246361 0)
(0.030313647 0.14860999 0)
(0.086363068 0.12594913 0)
(0.12897322 0.08408796 0)
(0.15196773 0.029782223 0)
(0.15187651 -0.029359174 0)
(0.12874589 -0.083964664 0)
(0.086122583 -0.12615405 0)
(0.030220915 -0.14894254 0)
(-0.030185809 -0.14895165 0)
(-0.08609476 -0.1261708 0)
(-0.12873659 -0.083994266 0)
(-0.1518684 -0.029375452 0)
(-0.15196405 0.029747567 0)
(-0.12899454 0.084063985 0)
(-0.086391716 0.12593253 0)
(-0.030346229 0.14860509 0)
(0.023334403 0.12120953 0)
(0.066465796 0.10276095 0)
(0.099339801 0.068685361 0)
(0.11709722 0.024347371 0)
(0.11707191 -0.023875687 0)
(0.09926386 -0.068497506 0)
(0.066365676 -0.10292579 0)
(0.023297773 -0.1215686 0)
(-0.023269866 -0.121575 0)
(-0.06634245 -0.10294019 0)
(-0.099251077 -0.068519838 0)
(-0.11706662 -0.023893037 0)
(-0.11709987 0.024319979 0)
(-0.099355868 0.06866362 0)
(-0.066488918 0.10274675 0)
(-0.023361228 0.12120475 0)
(0.013115269 0.045460521 0)
(0.037360025 0.038611959 0)
(0.05585406 0.025913983 0)
(0.06587856 0.0093207379 0)
(0.065915758 -0.0088477743 0)
(0.055936232 -0.025740871 0)
(0.03742615 -0.038838667 0)
(0.013141793 -0.045941114 0)
(-0.013131542 -0.045942658 0)
(-0.03741782 -0.03884135 0)
(-0.055932168 -0.025745671 0)
(-0.065913533 -0.0088502642 0)
(-0.065878462 0.0093151666 0)
(-0.055859924 0.025909776 0)
(-0.037368757 0.038609199 0)
(-0.013125446 0.045459645 0)
(0.022841526 0.084629846 0)
(0.065087196 0.071809377 0)
(0.097445636 0.048087966 0)
(0.11501114 0.017053528 0)
(0.11511335 -0.016656998 0)
(0.097692822 -0.047909157 0)
(0.065331748 -0.071934336 0)
(0.022957139 -0.08495632 0)
(-0.022929871 -0.084960572 0)
(-0.065308847 -0.071945674 0)
(-0.097677943 -0.047926251 0)
(-0.11510826 -0.016675584 0)
(-0.11501632 0.017033539 0)
(-0.097460939 0.048071223 0)
(-0.065110014 0.071798277 0)
(-0.022868239 0.084625986 0)
(0.009423749 -0.054069033 0)
(0.026877968 -0.04581562 0)
(0.04028565 -0.030583498 0)
(0.047662322 -0.010679736 0)
(0.047806021 0.0107504 0)
(0.040640939 0.03059165 0)
(0.027222214 0.045742432 0)
(0.0095677512 0.053944344 0)
(-0.0095645941 0.053947901 0)
(-0.027219638 0.045752987 0)
(-0.040639534 0.03060715 0)
(-0.047805228 0.010769217 0)
(-0.047662187 -0.010662007 0)
(-0.040287392 -0.030568615 0)
(-0.026880802 -0.045805691 0)
(-0.0094271146 -0.054065595 0)
)
;

boundaryField
{
    leftWall
    {
        type            cyclic;
    }
    rightWall
    {
        type            cyclic;
    }
    lowerWall
    {
        type            slip;
    }
    atmosphere
    {
        type            slip;
    }
    defaultFaces
    {
        type            empty;
    }
}


// ************************************************************************* //
