/*--------------------------------*- C++ -*----------------------------------*\
| =========                 |                                                 |
| \\      /  F ield         | OpenFOAM: The Open Source CFD Toolbox           |
|  \\    /   O peration     | Version:  2106                                  |
|   \\  /    A nd           | Website:  www.openfoam.com                      |
|    \\/     M anipulation  |                                                 |
\*---------------------------------------------------------------------------*/
FoamFile
{
    version     2.0;
    format      ascii;
    arch        "LSB;label=32;scalar=64";
    class       surfaceScalarField;
    location    "0.205";
    object      phi;
}
// * * * * * * * * * * * * * * * * * * * * * * * * * * * * * * * * * * * * * //

dimensions      [0 3 -1 0 0 0 0];

oriented        oriented;

internalField   nonuniform List<scalar> 
65152
(
1.1212797e-08
-1.1212797e-08
4.2081445e-08
-3.0868647e-08
8.1247947e-08
-3.9166502e-08
1.2449618e-07
-4.3248234e-08
1.6931366e-07
-4.4817477e-08
2.1473172e-07
-4.5418066e-08
2.6036769e-07
-4.5635968e-08
3.0603955e-07
-4.5671856e-08
3.5176557e-07
-4.5726018e-08
3.9750221e-07
-4.5736646e-08
4.4319897e-07
-4.5696754e-08
4.8881312e-07
-4.5614158e-08
5.3433419e-07
-4.5521065e-08
5.7973018e-07
-4.5395993e-08
6.2503345e-07
-4.5303271e-08
6.7018852e-07
-4.5155068e-08
7.1528815e-07
-4.509963e-08
7.6043652e-07
-4.5148374e-08
8.049874e-07
-4.455088e-08
8.5091272e-07
-4.592532e-08
8.9400963e-07
-4.3096905e-08
9.414683e-07
-4.7458669e-08
9.8361872e-07
-4.2150422e-08
1.0304251e-06
-4.6806402e-08
1.0754008e-06
-4.4975669e-08
1.1184494e-06
-4.3048603e-08
1.1659103e-06
-4.7460882e-08
1.2101754e-06
-4.4265117e-08
1.2544081e-06
-4.4232672e-08
1.301093e-06
-4.6684921e-08
1.3464333e-06
-4.5340322e-08
1.3912851e-06
-4.4851755e-08
1.4372873e-06
-4.6002244e-08
1.4831314e-06
-4.5844071e-08
1.529071e-06
-4.5939673e-08
1.5755959e-06
-4.65249e-08
1.6205358e-06
-4.4939897e-08
1.666942e-06
-4.6406138e-08
1.7142664e-06
-4.7324446e-08
1.7604654e-06
-4.6198936e-08
1.8058906e-06
-4.542521e-08
1.8525263e-06
-4.6635733e-08
1.8993061e-06
-4.6779829e-08
1.9460329e-06
-4.6726784e-08
1.9927338e-06
-4.6700922e-08
2.0390159e-06
-4.6282047e-08
2.0841603e-06
-4.5144415e-08
2.1306827e-06
-4.652244e-08
2.1785663e-06
-4.7883545e-08
2.2243126e-06
-4.5746345e-08
2.2701994e-06
-4.5886792e-08
2.3150745e-06
-4.4875118e-08
2.3603862e-06
-4.5311623e-08
2.4069113e-06
-4.6525092e-08
2.4526594e-06
-4.5748088e-08
2.4986189e-06
-4.5959571e-08
2.542956e-06
-4.4337124e-08
2.5863018e-06
-4.3345771e-08
2.6306698e-06
-4.4368007e-08
2.6759639e-06
-4.5294062e-08
2.7206339e-06
-4.4670064e-08
2.7643305e-06
-4.3696543e-08
2.8081041e-06
-4.3773584e-08
2.8510987e-06
-4.2994629e-08
2.8936181e-06
-4.2519367e-08
2.9358858e-06
-4.2267777e-08
2.9780506e-06
-4.2164798e-08
3.0216558e-06
-4.3605198e-08
3.0649963e-06
-4.3340458e-08
3.1062696e-06
-4.1273338e-08
3.1469955e-06
-4.0725883e-08
3.1879149e-06
-4.0919348e-08
3.2286776e-06
-4.0762731e-08
3.2692867e-06
-4.0609125e-08
3.3103023e-06
-4.1015562e-08
3.3515581e-06
-4.125576e-08
3.3919355e-06
-4.0377467e-08
3.4315971e-06
-3.9661623e-08
3.4715519e-06
-3.9954721e-08
3.5105191e-06
-3.8967251e-08
3.5488845e-06
-3.8365425e-08
3.5890573e-06
-4.0172753e-08
3.6284846e-06
-3.9427335e-08
3.6661072e-06
-3.7622563e-08
3.7047953e-06
-3.8688135e-08
3.7440822e-06
-3.9286881e-08
3.7824815e-06
-3.8399345e-08
3.8210963e-06
-3.8614782e-08
3.8597833e-06
-3.8686953e-08
3.8962847e-06
-3.6501381e-08
3.9320177e-06
-3.5733029e-08
3.9700871e-06
-3.8069412e-08
4.0085944e-06
-3.8507253e-08
4.0452894e-06
-3.6695066e-08
4.0816872e-06
-3.639781e-08
4.1190344e-06
-3.7347167e-08
4.1564013e-06
-3.7366888e-08
4.1932134e-06
-3.6812153e-08
4.2305278e-06
-3.7314316e-08
4.2665638e-06
-3.6035991e-08
4.3008395e-06
-3.4275723e-08
4.33565e-06
-3.4810524e-08
4.3715103e-06
-3.5860258e-08
4.4079024e-06
-3.6392192e-08
4.4444017e-06
-3.6499246e-08
4.4803643e-06
-3.5962602e-08
4.5157722e-06
-3.5407899e-08
4.5507382e-06
-3.4965976e-08
4.5854509e-06
-3.4712746e-08
4.6206612e-06
-3.5210279e-08
4.6565439e-06
-3.5882698e-08
4.6908416e-06
-3.4297677e-08
4.7242053e-06
-3.3363771e-08
4.7584245e-06
-3.4219107e-08
4.7923856e-06
-3.3961118e-08
4.8257368e-06
-3.3351257e-08
4.8602643e-06
-3.4527476e-08
4.8953127e-06
-3.5048366e-08
4.9292119e-06
-3.389925e-08
4.9620888e-06
-3.2876925e-08
4.9953799e-06
-3.3291049e-08
5.0291643e-06
-3.3784382e-08
5.0627619e-06
-3.3597652e-08
5.095954e-06
-3.3192085e-08
5.1282886e-06
-3.2334577e-08
5.1602502e-06
-3.1961577e-08
5.1920507e-06
-3.1800581e-08
5.223302e-06
-3.1251285e-08
5.2552812e-06
-3.1979122e-08
5.2889052e-06
-3.3624048e-08
5.3223369e-06
-3.3431653e-08
5.3542293e-06
-3.1892411e-08
5.3856549e-06
-3.1425614e-08
5.4174486e-06
-3.179375e-08
5.448392e-06
-3.0943356e-08
5.4787128e-06
-3.0320825e-08
5.5100108e-06
-3.1297951e-08
5.542173e-06
-3.216223e-08
5.5739872e-06
-3.1814181e-08
5.6050629e-06
-3.1075704e-08
5.6355942e-06
-3.0531311e-08
5.6655913e-06
-2.9997116e-08
5.6947532e-06
-2.9161866e-08
5.7243777e-06
-2.9624515e-08
5.755164e-06
-3.0786336e-08
5.7862726e-06
-3.1108566e-08
5.8171644e-06
-3.0891848e-08
5.8474801e-06
-3.0315654e-08
5.876807e-06
-2.9326871e-08
5.9055381e-06
-2.8731115e-08
5.9345787e-06
-2.9040578e-08
5.9644101e-06
-2.9831431e-08
5.9948564e-06
-3.0446281e-08
6.0260666e-06
-3.1210246e-08
6.057509e-06
-3.1442398e-08
6.0880545e-06
-3.0545468e-08
6.1171853e-06
-2.9130785e-08
6.1449862e-06
-2.7800969e-08
6.1726186e-06
-2.7632343e-08
6.2005648e-06
-2.7946187e-08
6.2288776e-06
-2.8312847e-08
6.2576866e-06
-2.880901e-08
6.2865701e-06
-2.8883468e-08
6.315896e-06
-2.9325905e-08
6.3449072e-06
-2.9011164e-08
6.3737952e-06
-2.8888002e-08
6.402694e-06
-2.889885e-08
6.4316388e-06
-2.8944826e-08
6.460593e-06
-2.8954192e-08
6.4891724e-06
-2.8579413e-08
6.5173145e-06
-2.8142045e-08
6.5448205e-06
-2.750602e-08
6.572069e-06
-2.72485e-08
6.5992679e-06
-2.7198899e-08
6.6263666e-06
-2.709874e-08
6.6536744e-06
-2.730772e-08
6.6811034e-06
-2.7428993e-08
6.7089833e-06
-2.7879944e-08
6.7371076e-06
-2.8124303e-08
6.7650556e-06
-2.7948033e-08
6.7926984e-06
-2.7642804e-08
6.8200603e-06
-2.7361871e-08
6.8467646e-06
-2.6704331e-08
6.8725845e-06
-2.5819885e-08
6.8981085e-06
-2.5523945e-08
6.9241268e-06
-2.6018373e-08
6.9514059e-06
-2.7279017e-08
6.9801142e-06
-2.8708377e-08
7.0090082e-06
-2.8893983e-08
7.0362343e-06
-2.7226114e-08
7.0613781e-06
-2.5143805e-08
7.0847616e-06
-2.3383509e-08
7.1067458e-06
-2.1984109e-08
7.1279912e-06
-2.1245442e-08
7.1487391e-06
-2.0747922e-08
7.1696373e-06
-2.0898224e-08
7.1917211e-06
-2.2083736e-08
7.2154e-06
-2.3678906e-08
7.2406339e-06
-2.5233913e-08
7.2658636e-06
-2.5229741e-08
7.2884337e-06
-2.2570094e-08
7.3080401e-06
-1.9606401e-08
7.3258741e-06
-1.7833977e-08
7.3430968e-06
-1.722267e-08
7.3608398e-06
-1.7743044e-08
7.3788733e-06
-1.8033444e-08
7.396274e-06
-1.7400745e-08
7.4127055e-06
-1.6431489e-08
7.4280295e-06
-1.532402e-08
7.441977e-06
-1.3947497e-08
7.4557053e-06
-1.3728271e-08
7.4688482e-06
-1.3142954e-08
7.4810954e-06
-1.2247193e-08
7.4927818e-06
-1.1686338e-08
7.503523e-06
-1.0741213e-08
7.5113696e-06
-7.8466116e-09
7.5147562e-06
-3.3866026e-09
7.5139478e-06
8.0840722e-10
7.5107411e-06
3.2066872e-09
7.5062232e-06
4.5178594e-09
7.5003926e-06
5.8306956e-09
7.4933918e-06
7.0007112e-09
7.4859013e-06
7.4905857e-09
7.4790462e-06
6.8550879e-09
7.4735831e-06
5.4630463e-09
7.4694821e-06
4.100989e-09
7.466787e-06
2.6951458e-09
7.4645786e-06
2.2084156e-09
7.461112e-06
3.4665623e-09
7.4534206e-06
7.691393e-09
7.4393063e-06
1.411433e-08
7.4151168e-06
2.4189509e-08
7.3837588e-06
3.1358003e-08
7.335162e-06
4.8596754e-08
7.2683562e-06
6.6805798e-08
7.1831897e-06
8.5166547e-08
7.0618956e-06
1.2129406e-07
6.9156065e-06
1.462891e-07
6.7240289e-06
1.9157767e-07
6.492535e-06
2.3149389e-07
6.2049605e-06
2.8757448e-07
5.8658661e-06
3.3909439e-07
5.4540607e-06
4.1180541e-07
4.9636902e-06
4.9037049e-07
4.374874e-06
5.8881617e-07
3.6867285e-06
6.8814548e-07
2.8891319e-06
7.9759664e-07
1.9902624e-06
8.9886952e-07
1.0238049e-06
9.6645752e-07
6.9980588e-08
9.5382428e-07
-7.5347216e-07
8.2345275e-07
-1.3815682e-06
6.2809606e-07
-1.7679624e-06
3.863942e-07
-1.7306096e-06
-3.7352768e-08
-1.1057524e-06
-6.2485726e-07
-1.1057524e-06
1.2046516e-08
-2.3259314e-08
4.8991778e-08
-6.7813909e-08
9.560357e-08
-8.5778293e-08
1.4567445e-07
-9.3319113e-08
1.9729151e-07
-9.6434542e-08
2.4949348e-07
-9.7620037e-08
3.0184318e-07
-9.7985661e-08
3.5413458e-07
-9.7963258e-08
4.06212e-07
-9.7803436e-08
4.579583e-07
-9.748295e-08
5.0940979e-07
-9.7148244e-08
5.6063899e-07
-9.6843352e-08
6.1164079e-07
-9.6522868e-08
6.6246985e-07
-9.6225049e-08
7.1312891e-07
-9.5962332e-08
7.6374792e-07
-9.5774085e-08
8.1405987e-07
-9.5411577e-08
8.6471048e-07
-9.5798986e-08
9.1441573e-07
-9.4256131e-08
9.6576776e-07
-9.7277348e-08
1.0141155e-06
-9.1444688e-08
1.0669897e-06
-1.0033287e-07
1.1141692e-06
-8.9329836e-08
1.1666012e-06
-9.9238415e-08
1.2166978e-06
-9.507228e-08
1.2649276e-06
-9.1278458e-08
1.3177605e-06
-1.0029369e-07
1.3677764e-06
-9.428103e-08
1.4166302e-06
-9.3086486e-08
1.4680174e-06
-9.8072139e-08
1.5204938e-06
-9.7816709e-08
1.5696927e-06
-9.405064e-08
1.6191297e-06
-9.5439244e-08
1.6722193e-06
-9.8933692e-08
1.7244426e-06
-9.8162946e-08
1.774111e-06
-9.6193328e-08
1.8233615e-06
-9.4190404e-08
1.8772318e-06
-1.0027641e-07
1.9300823e-06
-1.0017493e-07
1.9807232e-06
-9.6839875e-08
2.0299653e-06
-9.4667365e-08
2.0824379e-06
-9.9108278e-08
2.1359453e-06
-1.0028726e-07
2.1882762e-06
-9.9057711e-08
2.2387429e-06
-9.7167522e-08
2.2898444e-06
-9.7383601e-08
2.3405289e-06
-9.5828956e-08
2.3929292e-06
-9.8922685e-08
2.4472476e-06
-1.0220192e-07
2.4984387e-06
-9.6937502e-08
2.5478667e-06
-9.5314765e-08
2.5965019e-06
-9.3510308e-08
2.6495965e-06
-9.8406224e-08
2.7026743e-06
-9.9602956e-08
2.7532036e-06
-9.6277378e-08
2.804627e-06
-9.7382971e-08
2.8533737e-06
-9.3083748e-08
2.9009654e-06
-9.0937541e-08
2.9517829e-06
-9.5185454e-08
3.004733e-06
-9.8244201e-08
3.0548351e-06
-9.4772111e-08
3.1026795e-06
-9.1540938e-08
3.1517052e-06
-9.2799317e-08
3.2012695e-06
-9.2558945e-08
3.2491391e-06
-9.0389003e-08
3.295189e-06
-8.8317647e-08
3.3440984e-06
-9.1074199e-08
3.3963283e-06
-9.5835113e-08
3.4450208e-06
-9.2032976e-08
3.4898825e-06
-8.6134962e-08
3.5354569e-06
-8.6300307e-08
3.5828654e-06
-8.832783e-08
3.6303422e-06
-8.8239532e-08
3.6765797e-06
-8.6846688e-08
3.7231123e-06
-8.7548159e-08
3.7709606e-06
-8.9103996e-08
3.8178514e-06
-8.7268289e-08
3.8625173e-06
-8.4327575e-08
3.9069331e-06
-8.4370481e-08
3.952049e-06
-8.4083117e-08
3.9975392e-06
-8.3855631e-08
4.0435406e-06
-8.6174144e-08
4.0882666e-06
-8.415339e-08
4.1319169e-06
-8.1272843e-08
4.1756767e-06
-8.244796e-08
4.2208728e-06
-8.4482918e-08
4.2673844e-06
-8.4910993e-08
4.3127188e-06
-8.3949166e-08
4.3547433e-06
-8.0711457e-08
4.3954671e-06
-7.7225204e-08
4.4385353e-06
-7.880122e-08
4.4841062e-06
-8.3640264e-08
4.5284524e-06
-8.2853443e-08
4.5703176e-06
-7.8560352e-08
4.611663e-06
-7.77432e-08
4.6549942e-06
-8.0678381e-08
4.6997723e-06
-8.2144897e-08
4.7437904e-06
-8.0830258e-08
4.7865469e-06
-8.0070864e-08
4.8270865e-06
-7.6575564e-08
4.8662733e-06
-7.3462554e-08
4.9067597e-06
-7.5296918e-08
4.9493776e-06
-7.8478201e-08
4.9931768e-06
-8.0191364e-08
5.0360425e-06
-7.9364925e-08
5.0770573e-06
-7.6977402e-08
5.1172702e-06
-7.5620767e-08
5.158169e-06
-7.5864787e-08
5.1996089e-06
-7.6152697e-08
5.241486e-06
-7.7087317e-08
5.2833698e-06
-7.776658e-08
5.3235684e-06
-7.4496239e-08
5.3626306e-06
-7.2425982e-08
5.4018471e-06
-7.3435617e-08
5.4414225e-06
-7.3536507e-08
5.4820778e-06
-7.4006584e-08
5.5237298e-06
-7.6179388e-08
5.564472e-06
-7.5790572e-08
5.6039071e-06
-7.3334356e-08
5.6429596e-06
-7.1929493e-08
5.6827006e-06
-7.3032036e-08
5.7233932e-06
-7.4476971e-08
5.7642358e-06
-7.4440194e-08
5.8040754e-06
-7.3031732e-08
5.8422657e-06
-7.0524848e-08
5.8792068e-06
-6.8902671e-08
5.9158113e-06
-6.8405068e-08
5.9534447e-06
-6.8884699e-08
5.9931496e-06
-7.1684041e-08
6.0335941e-06
-7.4068551e-08
6.0731264e-06
-7.2963984e-08
6.1116998e-06
-7.0465836e-08
6.14938e-06
-6.9105721e-08
6.1862331e-06
-6.864687e-08
6.2227629e-06
-6.7473147e-08
6.2596013e-06
-6.7159307e-08
6.2975127e-06
-6.9209346e-08
6.3363424e-06
-7.0991877e-08
6.3751436e-06
-7.0615386e-08
6.4127911e-06
-6.8723226e-08
6.4485875e-06
-6.6327718e-08
6.4832335e-06
-6.4643109e-08
6.5181302e-06
-6.405858e-08
6.5547491e-06
-6.6243401e-08
6.5934445e-06
-6.9481725e-08
6.6321288e-06
-6.9792845e-08
6.6695459e-06
-6.8308943e-08
6.7060025e-06
-6.6772262e-08
6.7410973e-06
-6.4421709e-08
6.7750103e-06
-6.2644093e-08
6.8093526e-06
-6.3382881e-08
6.8456529e-06
-6.613173e-08
6.884092e-06
-6.8885403e-08
6.9236427e-06
-7.0760955e-08
6.9625284e-06
-7.0328084e-08
6.9997019e-06
-6.7718985e-08
7.035032e-06
-6.4460864e-08
7.0687032e-06
-6.1472141e-08
7.1022653e-06
-6.1194462e-08
7.1365708e-06
-6.2251686e-08
7.171951e-06
-6.3692993e-08
7.207249e-06
-6.4107067e-08
7.2421695e-06
-6.3803908e-08
7.2781227e-06
-6.5279182e-08
7.3136534e-06
-6.454187e-08
7.348776e-06
-6.4010523e-08
7.3846342e-06
-6.4757134e-08
7.4208994e-06
-6.5209948e-08
7.4572679e-06
-6.5322708e-08
7.4935192e-06
-6.4830781e-08
7.5289527e-06
-6.3575513e-08
7.5633599e-06
-6.1913255e-08
7.597276e-06
-6.116453e-08
7.6315235e-06
-6.1446443e-08
7.6658582e-06
-6.143346e-08
7.6995395e-06
-6.0988943e-08
7.733662e-06
-6.1551486e-08
7.769084e-06
-6.3301943e-08
7.8049913e-06
-6.4031599e-08
7.8406446e-06
-6.360133e-08
7.8758285e-06
-6.2826702e-08
7.910473e-06
-6.2006452e-08
7.9435746e-06
-5.9805909e-08
7.9750886e-06
-5.7333865e-08
8.0062909e-06
-5.6726265e-08
8.0386751e-06
-5.840254e-08
8.0745132e-06
-6.311713e-08
8.1140283e-06
-6.8223484e-08
8.1548182e-06
-6.9683907e-08
8.1945348e-06
-6.6942674e-08
8.2317912e-06
-6.2400256e-08
8.2652802e-06
-5.6872493e-08
8.2952145e-06
-5.1918355e-08
8.3231961e-06
-4.9227113e-08
8.3503279e-06
-4.7879711e-08
8.3772383e-06
-4.78086e-08
8.4056304e-06
-5.0475884e-08
8.4370353e-06
-5.5083732e-08
8.4722052e-06
-6.0403796e-08
8.510743e-06
-6.3767575e-08
8.5501073e-06
-6.1934413e-08
8.5874451e-06
-5.6944175e-08
8.62116e-06
-5.1548866e-08
8.6517085e-06
-4.7771174e-08
8.6812384e-06
-4.7272959e-08
8.711095e-06
-4.7890091e-08
8.7407881e-06
-4.7093853e-08
8.7689533e-06
-4.4596608e-08
8.7945237e-06
-4.0894484e-08
8.8174778e-06
-3.6901547e-08
8.8391718e-06
-3.5422296e-08
8.8624114e-06
-3.6382536e-08
8.8891719e-06
-3.9007665e-08
8.9202487e-06
-4.2763213e-08
8.9556101e-06
-4.6102532e-08
8.9945728e-06
-4.6809359e-08
9.0350965e-06
-4.3910294e-08
9.0728487e-06
-3.6943845e-08
9.1047285e-06
-2.8673085e-08
9.1306357e-06
-2.1389326e-08
9.1510824e-06
-1.4615994e-08
9.165302e-06
-7.2189161e-09
9.1734097e-06
-6.1710114e-10
9.1768185e-06
3.4462975e-09
9.1779376e-06
4.3439553e-09
9.17892e-06
3.1185905e-09
9.1810894e-06
5.2573845e-10
9.1835905e-06
-2.9273873e-10
9.1848482e-06
2.20889e-09
9.1823318e-06
1.0207803e-08
9.1768766e-06
1.9569536e-08
9.1634325e-06
3.7633645e-08
9.1409492e-06
5.3841244e-08
9.1064159e-06
8.3130066e-08
9.0543696e-06
1.188521e-07
8.9811672e-06
1.5836894e-07
8.8732476e-06
2.2921364e-07
8.7367361e-06
2.8280066e-07
8.5595447e-06
3.6876906e-07
8.3463067e-06
4.447319e-07
8.1007441e-06
5.3313706e-07
7.8037405e-06
6.3609801e-07
7.4590279e-06
7.56518e-07
7.0303689e-06
9.190295e-07
6.5408757e-06
1.0783093e-06
5.9685008e-06
1.2605204e-06
5.3284984e-06
1.437599e-06
4.6258274e-06
1.6015406e-06
3.8016827e-06
1.7906022e-06
2.8149655e-06
1.9405415e-06
1.7190407e-06
1.9193775e-06
7.0180203e-07
1.6453348e-06
-8.5857513e-08
1.1740537e-06
-5.1541559e-07
3.9220531e-07
-4.2993998e-07
-7.1033287e-07
-1.5356924e-06
1.2069511e-08
-3.5328825e-08
4.8572224e-08
-1.0431662e-07
9.4576392e-08
-1.3178246e-07
1.4424355e-07
-1.4298627e-07
1.9539513e-07
-1.4758612e-07
2.4711194e-07
-1.4933684e-07
2.9896855e-07
-1.4984227e-07
3.5079858e-07
-1.4979329e-07
4.0249392e-07
-1.4949877e-07
4.5409211e-07
-1.4908115e-07
5.0556628e-07
-1.4862241e-07
5.5690029e-07
-1.4817736e-07
6.0811323e-07
-1.4773581e-07
6.5926666e-07
-1.4737848e-07
7.102244e-07
-1.4692008e-07
7.6129327e-07
-1.4684295e-07
8.1189422e-07
-1.4601253e-07
8.6300843e-07
-1.469132e-07
9.1331131e-07
-1.4455901e-07
9.6426449e-07
-1.4823053e-07
1.0147842e-06
-1.4196439e-07
1.065298e-06
-1.5084667e-07
1.1159022e-06
-1.3993405e-07
1.1667627e-06
-1.500989e-07
1.2169023e-06
-1.4521187e-07
1.2678853e-06
-1.4226151e-07
1.3187749e-06
-1.5118323e-07
1.3691462e-06
-1.446524e-07
1.4201799e-06
-1.4412011e-07
1.4708754e-06
-1.4876765e-07
1.522764e-06
-1.4970535e-07
1.5732804e-06
-1.4456705e-07
1.6235746e-06
-1.457334e-07
1.6765784e-06
-1.5193755e-07
1.7281271e-06
-1.4971168e-07
1.7785427e-06
-1.4660884e-07
1.8292565e-06
-1.4490426e-07
1.8834038e-06
-1.5442372e-07
1.934991e-06
-1.5176209e-07
1.9863584e-06
-1.4820734e-07
2.0361952e-06
-1.4450415e-07
2.0901883e-06
-1.5310135e-07
2.1438244e-06
-1.539234e-07
2.1947037e-06
-1.4993697e-07
2.2449454e-06
-1.4740923e-07
2.2979129e-06
-1.5035112e-07
2.350665e-06
-1.4858108e-07
2.402437e-06
-1.5069462e-07
2.4545669e-06
-1.543318e-07
2.5068708e-06
-1.4924143e-07
2.5569496e-06
-1.4539352e-07
2.6066371e-06
-1.4319781e-07
2.6617388e-06
-1.5350802e-07
2.7131941e-06
-1.5105824e-07
2.7625858e-06
-1.4566907e-07
2.8144494e-06
-1.4924656e-07
2.8645632e-06
-1.4319753e-07
2.9127005e-06
-1.3907482e-07
2.9640212e-06
-1.4650623e-07
3.0180265e-06
-1.5224943e-07
3.0680685e-06
-1.4481411e-07
3.1140918e-06
-1.3756431e-07
3.1620319e-06
-1.4073934e-07
3.2142779e-06
-1.4480501e-07
3.264142e-06
-1.4025311e-07
3.3092108e-06
-1.3338643e-07
3.358524e-06
-1.4038736e-07
3.4119677e-06
-1.4927885e-07
3.4599843e-06
-1.4004955e-07
3.5027348e-06
-1.288855e-07
3.5477195e-06
-1.3128494e-07
3.5980536e-06
-1.3866193e-07
3.6485322e-06
-1.3871816e-07
3.6943287e-06
-1.3264322e-07
3.7395684e-06
-1.3278787e-07
3.7875169e-06
-1.3705244e-07
3.8348887e-06
-1.3464015e-07
3.8788967e-06
-1.2833553e-07
3.9225533e-06
-1.2802705e-07
3.96844e-06
-1.2996982e-07
4.0158308e-06
-1.3124645e-07
4.0627629e-06
-1.3310624e-07
4.1080469e-06
-1.2943739e-07
4.1521567e-06
-1.2538264e-07
4.1953961e-06
-1.2568736e-07
4.2398481e-06
-1.2893498e-07
4.2863546e-06
-1.3141742e-07
4.3320855e-06
-1.2968012e-07
4.3733831e-06
-1.2200904e-07
4.4139383e-06
-1.1778036e-07
4.4588245e-06
-1.2368749e-07
4.5071366e-06
-1.3195238e-07
4.553024e-06
-1.2874079e-07
4.5943584e-06
-1.1989472e-07
4.6339941e-06
-1.173789e-07
4.6763682e-06
-1.2305255e-07
4.7208992e-06
-1.2667592e-07
4.7656262e-06
-1.255572e-07
4.8088324e-06
-1.2327703e-07
4.8496067e-06
-1.1734994e-07
4.8893975e-06
-1.1325329e-07
4.9307281e-06
-1.1662759e-07
4.9749032e-06
-1.2265331e-07
5.0208903e-06
-1.2617846e-07
5.0641322e-06
-1.2260681e-07
5.1035908e-06
-1.1643593e-07
5.1420529e-06
-1.1408289e-07
5.1825272e-06
-1.1633914e-07
5.2238702e-06
-1.1749565e-07
5.2663406e-06
-1.1955775e-07
5.3088638e-06
-1.2028973e-07
5.3505477e-06
-1.1618015e-07
5.3904871e-06
-1.123654e-07
5.4298105e-06
-1.1275898e-07
5.4694819e-06
-1.1320795e-07
5.5109203e-06
-1.1544493e-07
5.552756e-06
-1.1801512e-07
5.5934955e-06
-1.1653008e-07
5.632759e-06
-1.1259788e-07
5.6715583e-06
-1.1072881e-07
5.7106647e-06
-1.1213842e-07
5.7516767e-06
-1.1548889e-07
5.7938274e-06
-1.1659091e-07
5.8346409e-06
-1.1384531e-07
5.8729791e-06
-1.0886303e-07
5.9100929e-06
-1.0601646e-07
5.9461994e-06
-1.0451158e-07
5.9838764e-06
-1.0656168e-07
6.024478e-06
-1.1228561e-07
6.06561e-06
-1.1520055e-07
6.1052538e-06
-1.126078e-07
6.1444731e-06
-1.0968514e-07
6.1829956e-06
-1.076282e-07
6.2198235e-06
-1.0547476e-07
6.2568064e-06
-1.0445606e-07
6.294759e-06
-1.0511192e-07
6.333122e-06
-1.0757239e-07
6.3721782e-06
-1.1004808e-07
6.4117718e-06
-1.1020899e-07
6.449888e-06
-1.0683935e-07
6.4850175e-06
-1.0145725e-07
6.5181438e-06
-9.7769457e-08
6.551902e-06
-9.7816749e-08
6.5886802e-06
-1.0302162e-07
6.6286865e-06
-1.0948805e-07
6.669666e-06
-1.1077234e-07
6.7093513e-06
-1.0799425e-07
6.7475158e-06
-1.0493674e-07
6.7830977e-06
-1.0000363e-07
6.8163558e-06
-9.5902106e-08
6.8500138e-06
-9.7040948e-08
6.8852963e-06
-1.0141419e-07
6.9225615e-06
-1.0615067e-07
6.9617255e-06
-1.099249e-07
7.0010774e-06
-1.0968004e-07
7.0382929e-06
-1.049344e-07
7.0732503e-06
-9.941833e-08
7.1068677e-06
-9.5089492e-08
7.1412642e-06
-9.559095e-08
7.1770014e-06
-9.7988942e-08
7.2139132e-06
-1.0060476e-07
7.250806e-06
-1.009999e-07
7.2876345e-06
-1.0063234e-07
7.3238642e-06
-1.0150893e-07
7.3581967e-06
-9.8874378e-08
7.3916903e-06
-9.7504146e-08
7.4260178e-06
-9.908456e-08
7.4609304e-06
-1.0012258e-07
7.497381e-06
-1.0177332e-07
7.5345949e-06
-1.0204466e-07
7.5703043e-06
-9.928492e-08
7.6057881e-06
-9.7397104e-08
7.6419119e-06
-9.7288336e-08
7.6777918e-06
-9.7326314e-08
7.7128122e-06
-9.6453843e-08
7.7461814e-06
-9.4358123e-08
7.7797938e-06
-9.5163864e-08
7.8157484e-06
-9.9256542e-08
7.8524446e-06
-1.0072783e-07
7.8883853e-06
-9.9542092e-08
7.9249574e-06
-9.9398791e-08
7.9617503e-06
-9.8799295e-08
7.9959227e-06
-9.3978368e-08
8.0271364e-06
-8.8547574e-08
8.0565054e-06
-8.6095197e-08
8.0859287e-06
-8.7825915e-08
8.1191622e-06
-9.6350541e-08
8.1565665e-06
-1.0562779e-07
8.195562e-06
-1.0867948e-07
8.2357222e-06
-1.0710281e-07
8.2763191e-06
-1.0299713e-07
8.31389e-06
-9.4443408e-08
8.3480037e-06
-8.6032058e-08
8.380741e-06
-8.196446e-08
8.4128124e-06
-7.995114e-08
8.4433636e-06
-7.8359789e-08
8.4730069e-06
-8.0119189e-08
8.5038992e-06
-8.5976007e-08
8.5376098e-06
-9.4114351e-08
8.5733625e-06
-9.9520261e-08
8.6094796e-06
-9.8051519e-08
8.6439789e-06
-9.1443511e-08
8.675959e-06
-8.3528965e-08
8.7060917e-06
-7.7903922e-08
8.7349197e-06
-7.6100918e-08
8.7645367e-06
-7.7507071e-08
8.7959433e-06
-7.8500496e-08
8.8276565e-06
-7.6309826e-08
8.8587673e-06
-7.2005282e-08
8.8899364e-06
-6.8070643e-08
8.919825e-06
-6.5310877e-08
8.9467724e-06
-6.3329958e-08
8.9710343e-06
-6.3269534e-08
8.9956448e-06
-6.7373735e-08
9.0242975e-06
-7.4755226e-08
9.0579052e-06
-8.0417004e-08
9.0943009e-06
-8.0305976e-08
9.1314886e-06
-7.4131569e-08
9.1675911e-06
-6.4775565e-08
9.2010189e-06
-5.4817196e-08
9.2294415e-06
-4.3038579e-08
9.2502832e-06
-2.8060618e-08
9.263663e-06
-1.399692e-08
9.272862e-06
-5.7526831e-09
9.2814196e-06
-4.2136078e-09
9.2919006e-06
-7.3624752e-09
9.3039644e-06
-1.1538056e-08
9.3131077e-06
-9.4359561e-09
9.3180842e-06
-2.7676959e-09
9.3146052e-06
1.3686826e-08
9.3056539e-06
2.8520886e-08
9.288051e-06
5.5236476e-08
9.2641691e-06
7.7723233e-08
9.237349e-06
1.0995015e-07
9.2004151e-06
1.5578594e-07
9.1436304e-06
2.1515366e-07
9.0574564e-06
3.1538763e-07
8.9477265e-06
3.9253058e-07
8.8013112e-06
5.1518431e-07
8.6222673e-06
6.2377585e-07
8.4236705e-06
7.317339e-07
8.1821774e-06
8.7759103e-07
7.8852824e-06
1.053413e-06
7.5449032e-06
1.2594088e-06
7.165144e-06
1.4580685e-06
6.6835674e-06
1.742097e-06
6.1750123e-06
1.9461541e-06
5.63998e-06
2.1365729e-06
5.0170604e-06
2.4135218e-06
4.4276378e-06
2.529964e-06
3.7666063e-06
2.5804091e-06
2.974389e-06
2.4375521e-06
2.1359102e-06
2.0125326e-06
1.4053293e-06
1.1227861e-06
7.1748608e-07
-2.2489603e-08
-8.1820629e-07
1.2336113e-08
-4.7664938e-08
4.8948939e-08
-1.4092945e-07
9.5071182e-08
-1.779047e-07
1.4492067e-07
-1.9283576e-07
1.9622858e-07
-1.9889403e-07
2.4806619e-07
-2.0117445e-07
3.0002975e-07
-2.0180583e-07
3.5194303e-07
-2.0170657e-07
4.0373359e-07
-2.0128933e-07
4.5539135e-07
-2.007389e-07
5.0690698e-07
-2.0013804e-07
5.5827442e-07
-1.995448e-07
6.0949919e-07
-1.9896058e-07
6.6059922e-07
-1.984785e-07
7.1156092e-07
-1.9788178e-07
7.6243466e-07
-1.9771669e-07
8.1316886e-07
-1.9674674e-07
8.6383801e-07
-1.9758235e-07
9.1451073e-07
-1.9523172e-07
9.6477299e-07
-1.9849279e-07
1.0158707e-06
-1.9306207e-07
1.0654121e-06
-2.003881e-07
1.1168209e-06
-1.9134282e-07
1.1669041e-06
-2.0018215e-07
1.2168388e-06
-1.9514654e-07
1.2685359e-06
-1.939586e-07
1.3185775e-06
-2.0122484e-07
1.3683643e-06
-1.9443916e-07
1.4206381e-06
-1.9639392e-07
1.4710127e-06
-1.9914223e-07
1.5213562e-06
-2.0004888e-07
1.572517e-06
-1.9572782e-07
1.6243394e-06
-1.9755579e-07
1.6761239e-06
-2.0372204e-07
1.7258634e-06
-1.9945117e-07
1.7776583e-06
-1.9840377e-07
1.830196e-06
-1.9744199e-07
1.8830957e-06
-2.0732339e-07
1.9323758e-06
-2.0104216e-07
1.9848544e-06
-2.0068594e-07
2.0362657e-06
-1.9591548e-07
2.0907115e-06
-2.0754713e-07
2.1428198e-06
-2.0603173e-07
2.1922102e-06
-1.993274e-07
2.2430673e-06
-1.9826633e-07
2.2975821e-06
-2.0486592e-07
2.3518133e-06
-2.0281225e-07
2.4025923e-06
-2.0147357e-07
2.4512588e-06
-2.0299835e-07
2.5040982e-06
-2.0208078e-07
2.5562343e-06
-1.9752965e-07
2.6076521e-06
-1.9461561e-07
2.6628748e-06
-2.0873073e-07
2.71191e-06
-2.0009341e-07
2.7594774e-06
-1.9323654e-07
2.8110565e-06
-2.0082567e-07
2.8641865e-06
-1.963275e-07
2.9140856e-06
-1.8897393e-07
2.9645745e-06
-1.9699515e-07
3.0170808e-06
-2.0475571e-07
3.066064e-06
-1.9379729e-07
3.110569e-06
-1.8206936e-07
3.1589984e-06
-1.8916865e-07
3.2145426e-06
-2.003493e-07
3.2656622e-06
-1.9137264e-07
3.3091299e-06
-1.7685413e-07
3.3566167e-06
-1.8787417e-07
3.4092544e-06
-2.0191654e-07
3.457837e-06
-1.8863216e-07
3.5002247e-06
-1.7127316e-07
3.5449282e-06
-1.7598845e-07
3.5975079e-06
-1.9124164e-07
3.6497192e-06
-1.9092949e-07
3.6940675e-06
-1.7699151e-07
3.7368587e-06
-1.7557903e-07
3.7838364e-06
-1.8403018e-07
3.8321716e-06
-1.8297533e-07
3.876802e-06
-1.7296592e-07
3.9204928e-06
-1.7171786e-07
3.9664288e-06
-1.7590591e-07
4.0145423e-06
-1.7935992e-07
4.0614998e-06
-1.8006373e-07
4.1064987e-06
-1.7443625e-07
4.149827e-06
-1.6871092e-07
4.1932525e-06
-1.6911294e-07
4.2374667e-06
-1.7314912e-07
4.2831483e-06
-1.7709904e-07
4.3282848e-06
-1.7481659e-07
4.3701494e-06
-1.6387365e-07
4.4117121e-06
-1.5934312e-07
4.4574871e-06
-1.6946241e-07
4.5060922e-06
-1.8055747e-07
4.5518286e-06
-1.7447723e-07
4.5918074e-06
-1.5987349e-07
4.6309642e-06
-1.565357e-07
4.6734988e-06
-1.6558718e-07
4.7178641e-06
-1.7104127e-07
4.7619881e-06
-1.6968111e-07
4.8051486e-06
-1.6643762e-07
4.8460046e-06
-1.5820586e-07
4.8863177e-06
-1.5356644e-07
4.9280365e-06
-1.5834639e-07
4.9735514e-06
-1.6816815e-07
5.0201788e-06
-1.7280591e-07
5.0628547e-06
-1.6528267e-07
5.1006579e-06
-1.5423921e-07
5.1384367e-06
-1.5186162e-07
5.1781889e-06
-1.5609143e-07
5.2189892e-06
-1.5829591e-07
5.2609023e-06
-1.614708e-07
5.3037833e-06
-1.6317073e-07
5.3469999e-06
-1.5939674e-07
5.3888952e-06
-1.5426078e-07
5.4291182e-06
-1.5298192e-07
5.4691352e-06
-1.5322498e-07
5.5092362e-06
-1.5554592e-07
5.5494732e-06
-1.5825213e-07
5.5895817e-06
-1.5663852e-07
5.6293895e-06
-1.5240575e-07
5.6679155e-06
-1.4925481e-07
5.7064089e-06
-1.5063182e-07
5.7469111e-06
-1.5599106e-07
5.7885485e-06
-1.582283e-07
5.8292776e-06
-1.5457446e-07
5.8688772e-06
-1.4846255e-07
5.9070301e-06
-1.4416941e-07
5.9434363e-06
-1.4091777e-07
5.9811014e-06
-1.4422675e-07
6.0219574e-06
-1.5314166e-07
6.0625332e-06
-1.5577638e-07
6.1010478e-06
-1.5112235e-07
6.1396424e-06
-1.4827978e-07
6.1785257e-06
-1.4651149e-07
6.2162162e-06
-1.4316526e-07
6.2537408e-06
-1.4198067e-07
6.2924358e-06
-1.4380687e-07
6.330888e-06
-1.4602466e-07
6.3687576e-06
-1.4791767e-07
6.4073716e-06
-1.4882295e-07
6.4460091e-06
-1.4547683e-07
6.4818874e-06
-1.3733561e-07
6.5149985e-06
-1.3088055e-07
6.5476607e-06
-1.3047892e-07
6.583823e-06
-1.3918395e-07
6.6232731e-06
-1.4893812e-07
6.6636821e-06
-1.5118136e-07
6.7046844e-06
-1.4899654e-07
6.7453277e-06
-1.4558e-07
6.7824836e-06
-1.3715954e-07
6.8164156e-06
-1.2983415e-07
6.8494907e-06
-1.3011598e-07
6.8832858e-06
-1.3520931e-07
6.9185736e-06
-1.4143843e-07
6.9554982e-06
-1.4684951e-07
6.9938784e-06
-1.4806026e-07
7.0323079e-06
-1.4336391e-07
7.0676208e-06
-1.3473127e-07
7.101251e-06
-1.2871964e-07
7.1359193e-06
-1.3025931e-07
7.1721512e-06
-1.3422082e-07
7.2090663e-06
-1.3751988e-07
7.2471328e-06
-1.3906635e-07
7.2866037e-06
-1.4010328e-07
7.3246662e-06
-1.3957137e-07
7.3585507e-06
-1.3275891e-07
7.3907571e-06
-1.2971052e-07
7.4242364e-06
-1.3256393e-07
7.4576828e-06
-1.3356898e-07
7.4913719e-06
-1.3546237e-07
7.5275773e-06
-1.3825008e-07
7.5652102e-06
-1.3691779e-07
7.6021946e-06
-1.3438155e-07
7.6393403e-06
-1.3443398e-07
7.6773298e-06
-1.353158e-07
7.7140131e-06
-1.3313715e-07
7.7483064e-06
-1.2865144e-07
7.7811201e-06
-1.2797761e-07
7.8137836e-06
-1.3192001e-07
7.8473668e-06
-1.3431106e-07
7.8824346e-06
-1.3460987e-07
7.9193951e-06
-1.3635929e-07
7.9565303e-06
-1.3593443e-07
7.991675e-06
-1.2912315e-07
8.0260558e-06
-1.2292837e-07
8.0600021e-06
-1.2004146e-07
8.091775e-06
-1.1959884e-07
8.1225331e-06
-1.2710861e-07
8.1547156e-06
-1.3781027e-07
8.1892727e-06
-1.4323656e-07
8.2270145e-06
-1.4484468e-07
8.2662455e-06
-1.4222811e-07
8.3044022e-06
-1.326001e-07
8.3420224e-06
-1.2365225e-07
8.3797486e-06
-1.1969071e-07
8.4172019e-06
-1.1740444e-07
8.4532987e-06
-1.1445655e-07
8.4868621e-06
-1.1368257e-07
8.5189767e-06
-1.1809066e-07
8.550842e-06
-1.2597959e-07
8.5817979e-06
-1.3047615e-07
8.6111518e-06
-1.2740549e-07
8.6386811e-06
-1.189728e-07
8.6654808e-06
-1.103286e-07
8.6934531e-06
-1.0587631e-07
8.7234602e-06
-1.0610802e-07
8.7548285e-06
-1.0887531e-07
8.7873435e-06
-1.1101552e-07
8.8207829e-06
-1.0974925e-07
8.8539406e-06
-1.0516291e-07
8.8862723e-06
-1.0040239e-07
8.9184173e-06
-9.7455921e-08
8.9506695e-06
-9.5582111e-08
8.9830192e-06
-9.561922e-08
9.0154284e-06
-9.9782956e-08
9.0467924e-06
-1.0611927e-07
9.0755364e-06
-1.0916096e-07
9.1017972e-06
-1.0656675e-07
9.1279158e-06
-1.0025022e-07
9.1552883e-06
-9.2148017e-08
9.1827114e-06
-8.2240336e-08
9.2081279e-06
-6.8455085e-08
9.2313431e-06
-5.1275813e-08
9.2530465e-06
-3.5700313e-08
9.2742699e-06
-2.6976077e-08
9.2965586e-06
-2.6502351e-08
9.3198754e-06
-3.0679274e-08
9.341757e-06
-3.3419561e-08
9.3584607e-06
-2.6139753e-08
9.3671305e-06
-1.1437447e-08
9.3623923e-06
1.8425026e-08
9.3466054e-06
4.4307769e-08
9.319279e-06
8.256288e-08
9.2875338e-06
1.0946844e-07
9.2485155e-06
1.4896841e-07
9.2104424e-06
1.9385912e-07
9.1532309e-06
2.7236517e-07
9.090674e-06
3.7794449e-07
9.0041235e-06
4.7908105e-07
8.8950237e-06
6.2428416e-07
8.7638218e-06
7.5497777e-07
8.6040681e-06
8.9148759e-07
8.3961424e-06
1.0855167e-06
8.1206138e-06
1.3289415e-06
7.8400796e-06
1.539943e-06
7.4681336e-06
1.8300145e-06
7.0582728e-06
2.1519578e-06
6.6133855e-06