/*--------------------------------*- C++ -*----------------------------------*\
| =========                 |                                                 |
| \\      /  F ield         | OpenFOAM: The Open Source CFD Toolbox           |
|  \\    /   O peration     | Version:  2106                                  |
|   \\  /    A nd           | Website:  www.openfoam.com                      |
|    \\/     M anipulation  |                                                 |
\*---------------------------------------------------------------------------*/
FoamFile
{
    version     2.0;
    format      ascii;
    arch        "LSB;label=32;scalar=64";
    class       volScalarField;
    location    "0.205";
    object      reconstructedDistanceFunction;
}
// * * * * * * * * * * * * * * * * * * * * * * * * * * * * * * * * * * * * * //

dimensions      [0 1 0 0 0 0 0];

internalField   nonuniform List<scalar> 
32768
(
0
0
0
0
0
0
0
0
0
0
0
0
0
0
0
0
0
0
0
0
0
0
0
0
0
0
0
0
0
0
0
0
0
0
0
0
0
0
0
0
0
0
0
0
0
0
0
0
0
0
0
0
0
0
0
0
0
0
0
0
0
0
0
0
0
0
0
0
0
0
0
0
0
0
0
0
0
0
0
0
0
0
0
0
0
0
0
0
0
0
0
0
0
0
0
0
0
0
0
0
0
0
0
0
0
0
0
0
0
0
0
0
0
0
0
0
0
0
0
0
0
0
0
0
0
0
0
0
0
0
0
0
0
0
0
0
0
0
0
0
0
0
0
0
0
0
0
0
0
0
0
0
0
0
0
0
0
0
0
0
0
0
0
0
0
0
0
0
0
0
0
0
0
0
0
0
0
0
0
0
0
0
0
0
0
0
0
0
0
0
0
0
0
0
0
0
0
0
0
0
0
0
0
0
0
0
0
0
0
0
0
0
0
0
0
0
0
0
0
0
0
0
0
0
0
0
0
0
0
0
0
0
0
0
0
0
0
0
0
0
0
0
0
0
0
0
0
0
0
0
0
0
0.0025185072
0.0018870829
0.0012556586
0.00062423424
0
0
0
0
0
0
0
0
0
0
0
0
0
0
0
0
0
0
0
0
0
0
0
0
0
0
0
0
0
0
0
0
0
0
0
0
0
0
0
0
0
0
0
0
0
0
0
0
0
0
0
0
0
0
0
0
0
0
0
0
0
0
0
0
0
0
0
0
0
0
0
0
0
0
0
0
0
0
0
0
0
0
0
0
0
0
0
0
0
0
0
0
0
0
0
0
0
0
0
0
0
0
0
0
0
0
0
0
0
0
0
0
0
0
0
0
0
0
0
0
0
0
0
0
0
0
0
0
0
0
0
0
0
0
0
0
0
0
0
0
0
0
0
0
0
0
0
0
0
0
0
0
0
0
0
0
0
0
0
0
0
0
0
0
0
0
0
0
0
0
0
0
0
0
0
0
0
0
0
0
0
0
0
0
0
0
0
0
0
0
0
0
0
0
0
0
0
0
0
0
0
0
0
0
0
0
0
0
0
0
0
0
0
0
0
0
0
0
0
0
0
0
0
0
0
0
0
0
0
0
0
0
0
0
0
0
0
0
0
0
0
0
0
0
0
0
0
0
0
0
0
0
0.0031499314
0.0025185071
0.0018870828
0.0012556584
0
0
0
0
0
0
0
0
0
0
0
0
0
0
0
0
0
0
0
0
0
0
0
0
0
0
0
0
0
0
0
0
0
0
0
0
0
0
0
0
0
0
0
0
0
0
0
0
0
0
0
0
0
0
0
0
0
0
0
0
0
0
0
0
0
0
0
0
0
0
0
0
0
0
0
0
0
0
0
0
0
0
0
0
0
0
0
0
0
0
0
0
0
0
0
0
0
0
0
0
0
0
0
0
0
0
0
0
0
0
0
0
0
0
0
0
0
0
0
0
0
0
0
0
0
0
0
0
0
0
0
0
0
0
0
0
0
0
0
0
0
0
0
0
0
0
0
0
0
0
0
0
0
0
0
0
0
0
0
0
0
0
0
0
0
0
0
0
0
0
0
0
0
0
0
0
0
0
0
0
0
0
0
0
0
0
0
0
0
0
0
0
0
0
0
0
0
0
0
0
0
0
0
0
0
0
0
0
0
0
0
0
0
0
0
0
0
0
0
0
0
0
0
0
0
0
0
0
0
0
0
0
0
0
0
0
0
0
0
0
0
0
0
0
0
0
0
0
0
0
0
0
0.0037813556
0.0031499312
0.0025185069
0.0018870826
0
0
0
0
0
0
0
0
0
0
0
0
0
0
0
0
0
0
0
0
0
0
0
0
0
0
0
0
0
0
0
0
0
0
0
0
0
0
0
0
0
0
0
0
0
0
0
0
0
0
0
0
0
0
0
0
0
0
0
0
0
0
0
0
0
0
0
0
0
0
0
0
0
0
0
0
0
0
0
0
0
0
0
0
0
0
0
0
0
0
0
0
0
0
0
0
0
0
0
0
0
0
0
0
0
0
0
0
0
0
0
0
0
0
0
0
0
0
0
0
0
0
0
0
0
0
0
0
0
0
0
0
0
0
0
0
0
0
0
0
0
0
0
0
0
0
0
0
0
0
0
0
0
0
0
0
0
0
0
0
0
0
0
0
0
0
0
0
0
0
0
0
0
0
0
0
0
0
0
0
0
0
0
0
0
0
0
0
0
0
0
0
0
0
0
0
0
0
0
0
0
0
0
0
0
0
0
0
0
0
0
0
0
0
0
0
0
0
0
0
0
0
0
0
0
0
0
0
0
0
0
0
0
0
0
0
0
0
0
0
0
0
0
0
0
0
0
0
0
0
0
0
0.0044127798
0.0037813555
0.0031499311
0.0025185068
0
0
0
0
0
0
0
0
0
0
0
0
0
0
0
0
0
0
0
0
0
0
0
0
0
0
0
0
0
0
0
0
0
0
0
0
0
0
0
0
0
0
0
0
0
0
0
0
0
0
0
0
0
0
0
0
0
0
0
0
0
0
0
0
0
0
0
0
0
0
0
0
0
0
0
0
0
0
0
0
0
0
0
0
0
0
0
0
0
0
0
0
0
0
0
0
0
0
0
0
0
0
0
0
0
0
0
0
0
0
0
0
0
0
0
0
0
0
0
0
0
0
0
0
0
0
0
0
0
0
0
0
0
0
0
0
0
0
0
0
0
0
0
0
0
0
0
0
0
0
0
0
0
0
0
0
0
0
0
0
0
0
0
0
0
0
0
0
0
0
0
0
0
0
0
0
0
0
0
0
0
0
0
0
0
0
0
0
0
0
0
0
0
0
0
0
0.003268505
0.0032176583
0.0031691759
0.0031237512
0.0030793246
0.0030366533
0.0029945559
0.002952465
0.0029117237
0.0028726021
0.0028351353
0.0027993058
0.0027651283
0.0027326848
0.0027015962
0.0026715288
0.0026422502
0.0026131005
0.0025834936
0.0025532463
0.0025225771
0.0024924176
0.0024638551
0.0024372539
0.0024126137
0.0023908801
0.0023730033
0.0023593053
0.0023505528
0.0023475342
0.0023499624
0.0023577028
0.0023705316
0.0023871142
0.0024069701
0.0024297729
0.0024541927
0.0024773919
0.0024980816
0.0025161823
0.0025330643
0.0025507654
0.0025751014
0.0026079722
0.0026580345
0.0027317408
0.0028211694
0.0029231831
0.0030777896
0.0032773384
0.0034885722
0.0037178637
0
0
0
0
0
0
0
0
0
0
0
0
0
0
0
0
0
0
0
0
0
0
0
0
0
0
0
0
0
0
0
0
0
0
0
0
0
0
0
0
0
0
0
0
0
0
0
0
0
0
0
0
0
0
0
0
0
0
0
0
0
0
0
0
0
0
0
0
0
0
0
0
0
0
0
0
0
0
0
0
0
0
0
0
0
0
0
0
0
0
0
0
0
0
0
0
0
0
0
0
0
0
0
0
0
0
0
0
0
0
0
0
0
0
0
0
0
0
0
0
0
0
0
0
0
0
0
0
0
0
0
0
0
0
0
0
0
0
0
0
0
0
0
0
0
0
0
0
0
0
0
0
0
0
0
0
0
0
0
0
0
0
0
0
0
0
0
0
0
0
0
0
0
0
0
0
0
0
0
0
0
0
0
0
0
0
0
0
0.0033017523
0.0032369851
0.0031739004
0.0031133383
0.003052613
0.0029914515
0.0029312854
0.0028721448
0.0028124557
0.0027535152
0.0026970163
0.0026421171
0.0025871824
0.0025318876
0.002478007
0.0024270004
0.0023769668
0.0023260895
0.0022774758
0.0022319285
0.0021874254
0.0021446951
0.0021025824
0.0020604654
0.0020196612
0.0019804653
0.0019429277
0.0019070308
0.0018727872
0.0018402856
0.0018091527
0.0017790529
0.0017497577
0.001720612
0.0016910248
0.001660799
0.0016301316
0.0015999392
0.0015713209
0.0015446608
0.0015199537
0.0014981391
0.0014801803
0.0014664102
0.0014576044
0.0014545655
0.0014570092
0.0014647961
0.0014776885
0.0014943385
0.0015142658
0.001537125
0.0015615457
0.0015846918
0.001605318
0.0016233759
0.0016402557
0.001658033
0.0016826001
0.0017160963
0.0017674836
0.0018429206
0.0019350605
0.0020437003
0.0022087774
0.0024058951
0.0026258285
0.0028848589
0.0032108701
0.0036341397
0.0040998872
0
0
0
0
0
0
0
0
0
0
0
0
0
0
0
0
0
0
0
0
0
0
0
0
0
0
0
0
0
0
0
0
0
0
0
0
0
0
0
0
0
0
0
0
0
0
0
0
0
0
0
0
0
0
0
0
0
0
0
0
0
0
0
0
0
0
0
0
0
0
0
0
0
0
0
0
0
0
0
0
0
0
0
0
0
0
0
0
0
0
0
0
0
0
0
0
0
0
0
0
0
0
0
0
0
0
0
0
0
0
0
0
0
0
0
0
0
0
0
0
0
0
0
0
0
0
0
0
0
0
0
0
0
0
0
0
0
0
0
0
0
0
0
0
0
0
0
0
0
0
0
0
0
0
0
0
0
0
0
0
0
0
0
0
0
0
0
0
0
0
0
0
0.0033003065
0.0032249645
0.0031539775
0.0030818894
0.0030094953
0.0029402086
0.0028725798
0.002805122
0.00273783
0.0026713999
0.0026055229
0.0025400247
0.0024754672
0.0024111277
0.0023463304
0.0022831218
0.0022224491
0.0021617201
0.0021005469
0.0020403233
0.0019811629
0.00192147
0.0018624372
0.0018058026
0.0017508408
0.00169592
0.0016406031
0.0015865991
0.001535477
0.0014854286
0.0014345207
0.0013857757
0.0013401058
0.0012955262
0.0012527369
0.0012106088
0.0011684659
0.0011275986
0.0010883284
0.0010507202
0.0010147558
0.00098044614
0.0009478865
0.00091670928
0.00088657712
0.0008572652
0.00082812355
0.00079855603
0.00076835174
0.00073768617
0.00070746073
0.00067878674
0.00065206758
0.00062729372
0.00060539819
0.00058735734
0.00057351505
0.00056465613
0.00056159684
0.000564056
0.00057188949
0.00058484543
0.00060156284
0.00062156162
0.00064447715
0.00066889866
0.00069199169
0.0007125543
0.00073056953
0.00074744705
0.00076530051
0.00079009884
0.00082422032
0.00087693275
0.00095410043
0.0010489517
0.0011642175
0.0013367098
0.0015327232
0.0017630848
0.0020518541
0.0024241948
0.0028722523
0.0033803774
0.0039160162
0
0
0
0
0
0
0
0
0
0
0
0
0
0
0
0
0
0
0
0
0
0
0
0
0
0
0
0
0
0
0
0
0
0
0
0
0
0
0
0
0
0
0
0
0
0
0
0
0
0
0
0
0
0
0
0
0
0
0
0
0
0
0
0
0
0
0
0
0
0
0
0
0
0
0
0
0
0
0
0
0
0
0
0
0
0
0
0
0
0
0
0
0
0
0
0
0
0
0
0
0
0
0
0
0
0
0
0
0
0
0
0
0
0
0
0
0
0
0
0
0
0
0
0
0
0
0
0
0
0
0
0
0
0
0
0
0
0
0
0
0
0
0
0
0
0
0
0
0
0
0
0
0
0
0
0
0
0
0
0.0033549274
0.0032703547
0.0031898195
0.0031109116
0.0030285589
0.0029488197
0.0028707298
0.0027930431
0.0027161069
0.0026391033
0.002562501
0.0024870714
0.0024105911
0.0023350558
0.0022638307
0.0021918561
0.0021193749
0.0020499059
0.0019821767
0.0019146985
0.001847377
0.001780899
0.0017149811
0.001649432
0.0015848352
0.001520503
0.0014556758
0.0013923432
0.00133156
0.0012708271
0.0012096424
0.0011493613
0.0010901811
0.0010304843
0.00097135925
0.00091458891
0.00085956442
0.00080465753
0.00074931854
0.00069519115
0.00064395365
0.00059389037
0.00054295187
0.0004940756
0.00044828306
0.000403627
0.00036077876
0.00031863524
0.00027646631
0.00023553602
0.00019619153
0.0001585126
0.00012248081
8.8105068e-05
5.5487358e-05
2.4265813e-05
-5.8987042e-06
-3.5227332e-05
-6.4364943e-05
-9.3912753e-05
-0.00012409555
-0.00015475929
-0.00018501771
-0.0002137474
-0.0002405256
-0.00026536624
-0.00028734277
-0.00030546562
-0.00031938008
-0.00032829219
-0.00033137185
-0.00032889722
-0.00032101714
-0.00030799766
-0.00029121283
-0.00027114261
-0.00024817074
-0.00022374839
-0.0002007084
-0.00018020936
-0.00016223687
-0.00014536159
-0.00012743196
-0.00010240244
-6.7655628e-05
-1.3618125e-05
6.5280256e-05
0.00016284288
0.00028473466
0.00046464209
0.00066997946
0.00089714107
0.0012149853
0.0016446174
0.0021295172
0.0026681498
0.0032418424
0.0038723359
0
0
0
0
0
0
0
0
0
0
0
0
0
0
0
0
0
0
0
0
0
0
0
0
0
0
0
0
0
0
0
0
0
0
0
0
0
0
0
0
0
0
0
0
0
0
0
0
0
0
0
0
0
0
0
0
0
0
0
0
0
0
0
0
0
0
0
0
0
0
0
0
0
0
0
0
0
0
0
0
0
0
0
0
0
0
0
0
0
0
0
0
0
0
0
0
0
0
0
0
0
0
0
0
0
0
0
0
0
0
0
0
0
0
0
0
0
0
0
0
0
0
0
0
0
0
0
0
0
0
0
0
0
0
0
0
0
0
0
0
0
0
0
0
0
0
0
0.0034076262
0.0033182639
0.0032290556
0.0031443678
0.0030577885
0.0029699078
0.0028845899
0.0028007191
0.0027168345
0.0026326755
0.0025493183
0.0024659312
0.0023812514
0.0023004811
0.0022215981
0.0021392804
0.0020594031
0.0019811828
0.0019034329
0.0018264711
0.0017494441
0.001672785
0.0015973566
0.0015208757
0.0014451472
0.0013737593
0.0013018227
0.0012292545
0.0011596032
0.0010917736
0.001024275
0.00095692405
0.00089039812
0.00082443931
0.00075883937
0.00069420318
0.00062987842
0.00056502119
0.00050156452
0.0004406708
0.00037993418
0.0003187379
0.00025839929
0.00019919928
0.00013949854
8.0281259e-05
2.3375228e-05
-3.1711935e-05
-8.6604909e-05
-0.000141966
-0.00019621678
-0.00024756972
-0.00029764783
-0.00034861693
-0.00039762449
-0.00044399956
-0.00048827221
-0.00053117943
-0.00057333832
-0.00061553325
-0.00065652656
-0.00069594534
-0.00073369496
-0.0007697942
-0.00080423603
-0.00083691176
-0.00086817765
-0.00089837453
-0.00092771986
-0.00095685343
-0.00098638154
-0.0010165428
-0.0010472048
-0.0010774962
-0.0011062816
-0.0011331188
-0.0011580262
-0.0011800837
-0.0011982886
-0.0012122752
-0.0012212405
-0.0012243405
-0.0012218504
-0.0012139238
-0.0012008408
-0.0011839885
-0.0011638468
-0.0011408186
-0.0011163954
-0.0010934085
-0.001072973
-0.0010550433
-0.0010381702
-0.0010201644
-0.00099490372
-0.00095953157
-0.000904169
-0.00082353992
-0.00072326594
-0.00059474815
-0.00040331869
-0.00019276428
6.4136273e-05
0.00042831001
0.00088272991
0.0014172897
0.0019821066
0.0026097623
0.0032431575
0.0039434833
0
0
0
0
0
0
0
0
0
0
0
0
0
0
0
0
0
0
0
0
0
0
0
0
0
0
0
0
0
0
0
0
0
0
0
0
0
0
0
0
0
0
0
0
0
0
0
0
0
0
0
0
0
0
0
0
0
0
0
0
0
0
0
0
0
0
0
0
0
0
0
0
0
0
0
0
0
0
0
0
0
0
0
0
0
0
0
0
0
0
0
0
0
0
0
0
0
0
0
0
0
0
0
0
0
0
0
0
0
0
0
0
0
0
0
0
0
0
0
0
0
0
0
0
0
0
0
0
0
0
0
0
0
0
0
0
0.0034320925
0.003337851
0.0032434247
0.0031522746
0.0030609258
0.0029682244
0.0028769637
0.0027870716
0.0026980151
0.0026083855
0.0025191549
0.0024297984
0.0023404018
0.0022555456
0.002169074
0.0020811809
0.0019956857
0.0019117102
0.0018278209
0.0017436401
0.0016602668
0.001576935
0.0014921481
0.0014111427
0.0013322846
0.0012500018
0.0011699866
0.0010916358
0.0010138227
0.00093683531
0.00085978482
0.00078306902
0.00070764178
0.00063116036
0.00055523851
0.00048368791
0.00041178942
0.00033913402
0.00026930044
0.00020137052
0.00013385158
6.6471061e-05
-1.0278544e-07
-6.6102473e-05
-0.00013175332
-0.00019642884
-0.0002607462
-0.00032563344
-0.00038921411
-0.00045021837
-0.00051095875
-0.00057216662
-0.00063256273
-0.00069178255
-0.00075148719
-0.00081079673
-0.00086783846
-0.00092298829
-0.00097786735
-0.0010332505
-0.0010876247
-0.0011390931
-0.001189186
-0.0012401857
-0.0012893246
-0.0013358146
-0.0013801714
-0.0014231376
-0.0014653119
-0.0015075328
-0.0015485891
-0.0015880822
-0.0016259025
-0.0016620692
-0.0016965771
-0.0017293109
-0.0017606211
-0.0017908504
-0.0018202124
-0.0018493419
-0.0018788503
-0.0019089901
-0.0019396502
-0.0019699746
-0.0019988157
-0.0020257119
-0.0020506862
-0.0020728247
-0.0020911116
-0.0021051703
-0.0021141888
-0.0021173092
-0.0021148037
-0.0021068304
-0.0020936838
-0.0020767642
-0.0020565511
-0.0020334665
-0.0020090425
-0.0019861086
-0.0019657367
-0.0019478497
-0.0019309789
-0.0019128969
-0.001887405
-0.0018514075
-0.0017947199
-0.0017123601
-0.0016093748
-0.001474231
-0.0012747621
-0.001055508
-0.00076886853
-0.00034490498
0.00016642949
0.00072237079
0.0013471886
0.0019888127
0.0026891385
0.0034472749
0.0041863837
0
0
0
0
0
0
0
0
0
0
0
0
0
0
0
0
0
0
0
0
0
0
0
0
0
0
0
0
0
0
0
0
0
0
0
0
0
0
0
0
0
0
0
0
0
0
0
0
0
0
0
0
0
0
0
0
0
0
0
0
0
0
0
0
0
0
0
0
0
0
0
0
0
0
0
0
0
0
0
0
0
0
0
0
0
0
0
0
0
0
0
0
0
0
0
0
0
0
0
0
0
0
0
0
0
0
0
0
0
0
0
0
0
0
0
0
0
0
0
0
0
0
0
0
0
0
0.0034101865
0.0033109277
0.0032122634
0.0031167671
0.0030200361
0.0029223892
0.0028269335
0.002733319
0.002639092
0.0025441604
0.0024499137
0.0023553439
0.0022640163
0.0021727099
0.0020800206
0.0019886434
0.0018986216
0.0018095232
0.0017198966
0.0016306836
0.0015413329
0.001451748
0.0013663757
0.0012803594
0.001192454
0.0011067816
0.0010227013
0.0009388073
0.0008546047
0.00077121542
0.00068793883
0.00060304477
0.00052180427
0.00044297114
0.0003607233
0.00028057
0.00020208884
0.00012421244
4.719953e-05
-2.9874429e-05
-0.00010664697
-0.00018207306
-0.000258555
-0.00033467015
-0.00040638345
-0.00047824389
-0.00055098643
-0.00062100228
-0.00068903255
-0.00075657188
-0.00082398193
-0.00089060369
-0.00095664426
-0.001022346
-0.0010870609
-0.0011513708
-0.0012162881
-0.0012799927
-0.0013418688
-0.0014018517
-0.0014630711
-0.0015235248
-0.0015827644
-0.0016424729
-0.0017018747
-0.0017590521
-0.0018142647
-0.0018691298
-0.0019245351
-0.0019790326
-0.0020306165
-0.0020807243
-0.0021317545
-0.0021810247
-0.0022276296
-0.0022720706
-0.0023150958
-0.0023572854
-0.0023995324
-0.0024406517
-0.0024802191
-0.0025181101
-0.0025543442
-0.0025889182
-0.00262171
-0.0026530646
-0.0026833262
-0.0027127049
-0.0027418304
-0.0027713191
-0.0028014374
-0.0028320957
-0.002862453
-0.0028913499
-0.0029183051
-0.0029433461
-0.0029655657
-0.0029839345
-0.0029980654
-0.0030071371
-0.0030102779
-0.0030077569
-0.002999737
-0.0029865269
-0.0029695398
-0.0029492553
-0.0029261144
-0.0029016895
-0.0028788087
-0.0028585003
-0.0028406561
-0.0028237875
-0.0028056294
-0.0027799063
-0.0027432835
-0.0026852708
-0.0026011803
-0.0024954836
-0.0023436317
-0.0021462054
-0.0019235816
-0.0015675748
-0.0010844307
-0.00053736503
8.4614937e-05
0.00073446799
0.0014679472
0.002207056
0.0029535209
0.0037560594
0
0
0
0
0
0
0
0
0
0
0
0
0
0
0
0
0
0
0
0
0
0
0
0
0
0
0
0
0
0
0
0
0
0
0
0
0
0
0
0
0
0
0
0
0
0
0
0
0
0
0
0
0
0
0
0
0
0
0
0
0
0
0
0
0
0
0
0
0
0
0
0
0
0
0
0
0
0
0
0
0
0
0
0
0
0
0
0
0
0
0
0
0
0
0
0
0
0
0
0
0
0
0
0
0
0
0
0
0
0
0
0
0
0
0
0
0
0.0034217736
0.0033174094
0.0032160236
0.0031183599
0.0030184846
0.0029201494
0.0028218511
0.002723133
0.00262335
0.0025228552
0.0024235193
0.0023246611
0.0022290213
0.0021323645
0.0020346897
0.0019390376
0.0018453103
0.0017511193
0.0016562282
0.0015619764
0.0014672632
0.0013757724
0.001284494
0.0011918168
0.0011003231
0.0010101717
0.00092103134
0.00083140775
0.00074221224
0.00065286747
0.00056309413
0.00047754525
0.00039164483
0.00030372714
0.00021787737
0.00013369242
4.9793687e-05
-3.4430696e-05
-0.00011783599
-0.00020105737
-0.00028605856
-0.00036753415
-0.00044692295
-0.00052855523
-0.00060884657
-0.00068745815
-0.00076539779
-0.00084243625
-0.0009195337
-0.00099636293
-0.0010717879
-0.0011482704
-0.0012245788
-0.0012964548
-0.0013682772
-0.0014411069
-0.001511305
-0.0015794356
-0.0016469953
-0.0017144349
-0.0017811046
-0.001847186
-0.0019129387
-0.0019776929
-0.0020419954
-0.0021069427
-0.0021707714
-0.0022327529
-0.0022927446
-0.0023539757
-0.0024144868
-0.0024737462
-0.0025334587
-0.0025929527
-0.0026502658
-0.002705541
-0.0027603922
-0.0028158196
-0.0028704406
-0.0029221398
-0.0029722624
-0.0030233233
-0.0030727248
-0.0031194447
-0.0031639699
-0.003207054
-0.003249259
0
0
0
0
0
0
0
0
0
0
0
0
0
0
0
0
0
0
0
0
0
0
0
0
0
0
0
0
0
0
0
0
0
0
0
0
0
0
-0.0034900004
-0.0033878031
-0.0032156993
-0.003011357
-0.0027565864
-0.0023344273
-0.0017971008
-0.0011779587
-0.00051987671
0.00022772825
0.00095687632
0.0017594148
0.0025542087
0.0033748072
0
0
0
0
0
0
0
0
0
0
0
0
0
0
0
0
0
0
0
0
0
0
0
0
0
0
0
0
0
0
0
0
0
0
0
0
0
0
0
0
0
0
0
0
0
0
0
0
0
0
0
0
0
0
0
0
0
0
0
0
0
0
0
0
0
0
0
0
0
0
0
0
0
0
0
0
0
0
0
0
0
0
0
0
0
0
0
0
0
0
0
0
0
0
0
0
0
0
0
0
0
0
0
0
0
0
0
0
0
0.0033658088
0.0032608091
0.0031582949
0.0030565366
0.0029532666
0.0028513269
0.0027472471
0.002641592
0.0025351315
0.0024305266
0.0023287465
0.0022309138
0.0021310361
0.0020326286
0.0019343131
0.0018356687
0.0017359933
0.0016355239
0.001536111
0.0014370587
0.0013412754
0.0012446929
0.0011469902
0.0010511418
0.00095730153
0.00086314646
0.00076829604
0.00067403904
0.00057918243
0.00048752259
0.00039627814
0.00030361308
0.00021200282
0.00012172176
3.253948e-05
-5.7081131e-05
-0.00014625909
-0.00023559798
-0.00032555972
-0.00041128521
-0.00049706973
-0.00058499974
-0.00067102681
-0.00075531647
-0.00083921993
-0.00092346609
-0.0010068874
-0.0010900536
-0.0011751619
-0.0012568726
-0.001336273
-0.0014178338
-0.0014982631
-0.0015770051
-0.001655008
-0.001732072
-0.0018091929
-0.0018860789
-0.0019615027
-0.0020379857
-0.0021144875
-0.0021865262
-0.0022583105
-0.0023312273
-0.0024016077
-0.0024698387
-0.0025374188
-0.0026048879
-0.0026716055
-0.0027377278
-0.0028035314
-0.0028683249
-0.0029326201
-0.0029975973
-0.00306155
-0.003123637
-0.0031836376
-0.0032448802
-0.0033054488
0
0
0
0
0
0
0
0
0
0
0
0
0
0
0
0
0
0
0
0
0
0
0
0
0
0
0
0
0
0
0
0
0
0
0
0
0
0
0
0
0
0
0
0
0
0
0
0
0
0
0
0
0
0
0
0
0
-0.0038741007
-0.0035620623
-0.0030475184
-0.0024405324
-0.0017515994
-0.0010124907
-0.00023722971
0.0005608593
0.0013814578
0.0022020563
0.0031168558
0
0
0
0
0
0
0
0
0
0
0
0
0
0
0
0
0
0
0
0
0
0
0
0
0
0
0
0
0
0
0
0
0
0
0
0
0
0
0
0
0
0
0
0
0
0
0
0
0
0
0
0
0
0
0
0
0
0
0
0
0
0
0
0
0
0
0
0
0
0
0
0
0
0
0
0
0
0
0
0
0
0
0
0
0
0
0
0
0
0
0
0
0
0
0
0
0
0
0
0
0.0034112663
0.0033062771
0.0032010354
0.0030981606
0.0029959899
0.0028913664
0.0027895782
0.0026872057
0.0025840198
0.0024790309
0.0023739544
0.0022712236
0.0021694744
0.0020661841
0.0019642799
0.0018603879
0.0017549275
0.0016484895
0.0015436438
0.0014414695
0.0013434676
0.0012435876
0.0011451078
0.0010467751
0.00094820447
0.00084863657
0.00074819258
0.0006487026
0.00054945635
0.00045352957
0.00035702123
0.00025929068
0.00016324598
6.9292761e-05
-2.4826321e-05
-0.00011963612
-0.00021389828
-0.00030889833
-0.00040072723
-0.00049193777
-0.00058459068
-0.00067631747
-0.00076672816
-0.00085595238
-0.00094557001
-0.0010347304
-0.0011240635
-0.0012142136
-0.0013001157
-0.0013857843
-0.0014737266
-0.001559931
-0.0016443254
-0.0017282336
-0.0018125015
-0.0018959388
-0.0019790498
-0.0020642652
-0.002146211
-0.0022256229
-0.0023071123
-0.0023876797
-0.0024665521
-0.0025446182
-0.0026217078
-0.0026988522
-0.0027757949
-0.0028512175
-0.0029277011
-0.0030043961
-0.0030765976
-0.0031485052
-0.0032213477
-0.0032919104
-0.0033602418
0
0
0
0
0
0
0
0
0
0
0
0
0
0
0
0
0
0
0
0
0
0
0
0
0
0
0
0
0
0
0
0
0
0
0
0
0
0
0
0
0
0
0
0
0
0
0
0
0
0
0
0
0
0
0
0
0
0
0
0
0
0
0
0
0
0
0
0
0
0
0
-0.0042983786
-0.003703106
-0.0029918184
-0.0022338743
-0.0014324901
-0.00056074165
0.00029422486
0.0011491914
0.0020069344
0.0028785074
0
0
0
0
0
0
0
0
0
0
0
0
0
0
0
0
0
0
0
0
0
0
0
0
0
0
0
0
0
0
0
0
0
0
0
0
0
0
0
0
0
0
0
0
0
0
0
0
0
0
0
0
0
0
0
0
0
0
0
0
0
0
0
0
0
0
0
0
0
0
0
0
0
0
0
0
0
0
0
0
0
0
0
0
0
0
0
0
0
0
0
0.0034658368
0.0033590598
0.003253423
0.0031481758
0.003044482
0.0029404443
0.0028352923
0.0027315904
0.0026284158
0.0025244004
0.0024195311
0.002313894
0.0022111328
0.0021090129
0.0020043869
0.0019024851
0.0018001275
0.0016970977
0.0015922531
0.0014870996
0.0013841681
0.0012824121
0.0011791016
0.001077233
0.00097352864
0.00086826296
0.00076184743
0.00065676109
0.00055419243
0.00045563943
0.00035613918
0.00025758704
0.00015923708
6.0740216e-05
-3.8720125e-05
-0.00013913873
-0.00023870576
-0.000338146
-0.00043456781
-0.00053065039
-0.00062840882
-0.00072464985
-0.00081871597
-0.00091279913
-0.0010075683
-0.0011018356
-0.0011969791
-0.0012889771
-0.0013801537
-0.0014727945
-0.0015646378
-0.0016551781
-0.0017444442
-0.0018340589
-0.0019232017
-0.0020125289
-0.0021028674
-0.0021889462
-0.0022744989
-0.0023624535
-0.0024488352
-0.0025333343
-0.0026172472
-0.0027015369
-0.0027849902
-0.002868046
-0.0029533685
-0.0030355494
-0.0031149729
-0.0031963908
-0.0032770963
-0.0033560991
0
0
0
0
0
0
0
0
0
0
0
0
0
0
0
0
0
0
0
0
0
0
0
0
0
0
0
0
0
0
0
0
0
0
0
0
0
0
0
0
0
0
0
0
0
0
0
0
0
0
0
0
0
0
0
0
0
0
0
0
0
0
0
0
0
0
0
0
0
0
0
0
0
0
0
0
0
0
0
0
0
0
0
0
-0.0042305188
-0.0033833726
-0.0025284061
-0.0016736607
-0.00080208763
6.9485446e-05
0.00094105855
0.0018126316
0.0026848933
0
0
0
0
0
0
0
0
0
0
0
0
0
0
0
0
0
0
0
0
0
0
0
0
0
0
0
0
0
0
0
0
0
0
0
0
0
0
0
0
0
0
0
0
0
0
0
0
0
0
0
0
0
0
0
0
0
0
0
0
0
0
0
0
0
0
0
0
0
0
0
0
0
0
0
0
0
0
0
0
0
0
0
0.0034265382
0.0033214113
0.0032163512
0.0031111796
0.0030064387
0.0029010605
0.0027951177
0.0026877842
0.0025794048
0.0024725046
0.002366745
0.0022613695
0.0021575969
0.0020536004
0.0019484613
0.0018446585
0.0017414536
0.0016375346
0.0015327851
0.0014270708
0.001324105
0.0012220358
0.0011174073
0.0010153921
0.00091304936
0.00081017569
0.00070547532
0.00060024492
0.00049713788
0.00039534991
0.00029201906
0.00019018614
8.6669388e-05
-1.8401549e-05
-0.00012479459
-0.00023012171
-0.00033308465
-0.00043182363
-0.00053130928
-0.00062993373
-0.00072830092
-0.00082672406
-0.00092607682
-0.00102647
-0.0011261141
-0.0012257484
-0.001322319
-0.001418322
-0.0015161083
-0.0016125457
-0.0017067247
-0.0018007719
-0.0018955004
-0.0019897729
-0.0020850598
-0.0021772269
-0.0022688741
-0.0023609982
-0.002452958
-0.002543628
-0.0026329361
-0.0027225478
-0.002811673
-0.0029009944
-0.0029915212
-0.0030777766
-0.0031633428
-0.0032511804
-0.0033377394
0
0
0
0
0
0
0
0
0
0
0
0
0
0
0
0
0
0
0
0
0
0
0
0
0
0
0
0
0
0
0
0
0
0
0
0
0
0
0
0
0
0
0
0
0
0
0
0
0
0
0
0
0
0
0
0
0
0
0
0
0
0
0
0
0
0
0
0
0
0
0
0
0
0
0
0
0
0
0
0
0
0
0
0
0
0
0
0
0
0
0
0
0
0
0
0
-0.0036111096
-0.0027395366
-0.001866967
-0.00098725918
-0.00010755141
0.00077215639
0.0016518642
0.0025315719
0.0034204204
0
0
0
0
0
0
0
0
0
0
0
0
0
0
0
0
0
0
0
0
0
0
0
0
0
0
0
0
0
0
0
0
0
0
0
0
0
0
0
0
0
0
0
0
0
0
0
0
0
0
0
0
0
0
0
0
0
0
0
0
0
0
0
0
0
0
0
0
0
0
0
0
0
0.0034598567
0.003355755
0.0032531943
0.0031515446
0.0030504526
0.0029493314
0.0028474381
0.0027454865
0.0026428095
0.0025396174
0.0024346242
0.0023293373
0.0022243924
0.0021196617
0.0020143255
0.0019084983
0.0018013254
0.0016929727
0.0015859494
0.001480067
0.0013746898
0.0012707119
0.0011667564
0.0010616303
0.00095772668
0.00085449143
0.00075066868
0.00064603916
0.00054024768
0.0004370772
0.00033505882
0.00023042779
0.00012829897
2.5971179e-05
-7.6746349e-05
-0.00018130249
-0.0002866098
-0.00038989236
-0.00049171232
-0.00059506344
-0.00069686077
-0.00080018986
-0.00090506606
-0.0010114366
-0.0011170045
-0.0012203617
-0.0013192867
-0.0014187577
-0.0015174545
-0.0016158389
-0.0017141883
-0.0018134335
-0.0019138014
-0.0020135225
-0.0021133507
-0.0022100702
-0.0023059937
-0.0024038078
-0.0025004415
-0.0025947335
-0.0026887447
-0.0027834326
-0.0028777102
-0.0029731406
-0.0030654767
-0.0031571324
-0.003249202
-0.0033412783
0
0
0
0
0
0
0
0
0
0
0
0
0
0
0
0
0
0
0
0
0
0
0
0
0
0
0
0
0
0
0
0
0
0
0
0
0
0
0
0
0
0
0
0
0
0
0
0
0
0
0
0
0
0
0
0
0
0
0
0
0
0
0
0
0
0
0
0
0
0
0
0
0
0
0
0
0
0
0
0
0
0
0
0
0
0
0
0
0
0
0
0
0
0
0
0
0
0
0
0
0
0
0
0
0
0
0
-0.002893716
-0.0020090046
-0.0011242932
-0.0002395818
0.00064512957
0.001529841
0.0024145524
0.0032992638
0
0
0
0
0
0
0
0
0
0
0
0
0
0
0
0
0
0
0
0
0
0
0
0
0
0
0
0
0
0
0
0
0
0
0
0
0
0
0
0
0
0
0
0
0
0
0
0
0
0
0
0
0
0
0
0
0
0
0
0
0
0
0
0
0
0.0034388788
0.0033296221
0.0032189139
0.003109216
0.0030020268
0.0028943794
0.0027871535
0.0026802342
0.0025732287
0.0024688911
0.0023661357
0.0022643725
0.0021632359
0.0020621294
0.001960286
0.0018583749
0.0017557591
0.0016526966
0.0015478371
0.0014425758
0.0013376051
0.0012328847
0.0011275904
0.0010218789
0.0009148666
0.0008065407
0.00069939429
0.00059338894
0.00048790498
0.00038382688
0.00027991251
0.00017479933
7.0794842e-05
-3.247077e-05
-0.0001361972
-0.0002407068
-0.00034657549
-0.0004499828
-0.00055191821
-0.00065655177
-0.00075879411
-0.000861107
-0.00096366839
-0.0010680803
-0.0011734645
-0.0012769226
-0.0013787746
-0.0014821459
-0.0015839077
-0.0016870491
-0.0017917306
-0.0018980787
-0.0020038873
-0.0021076388
-0.0022067498
-0.0023062062
-0.0024049753
-0.0025033769
-0.0026016526
-0.0027007902
-0.0028011327
-0.0029009309
-0.0030009531
-0.0030978214
-0.0031938929
-0.0032915073
-0.0033883373
0
0
0
0
0
0
0
0
0
0
0
0
0
0
0
0
0
0
0
0
0
0
0
0
0
0
0
0
0
0
0
0
0
0
0
0
0
0
0
0
0
0
0
0
0
0
0
0
0
0
0
0
0
0
0
0
0
0
0
0
0
0
0
0
0
0
0
0
0
0
0
0
0
0
0
0
0
0
0
0
0
0
0
0
0
0
0
0
0
0
0
0
0
0
0
0
0
0
0
0
0
0
0
0
0
0
0
0
0
0
0
0
0
0
0
0
-0.003014621
-0.0021262286
-0.0012378362
-0.00034944387
0.00053894848
0.0014273409
0.0023157332
0.0032041256
0
0
0
0
0
0
0
0
0
0
0
0
0
0
0
0
0
0
0
0
0
0
0
0
0
0
0
0
0
0
0
0
0
0
0
0
0
0
0
0
0
0
0
0
0
0
0
0
0
0
0
0
0
0
0
0
0
0.0034470822
0.0033321376
0.0032176576
0.003104541
0.00299379
0.0028829095
0.0027719549
0.0026620064
0.0025526251
0.002443392
0.0023336217
0.0022229508
0.0021155983
0.002007886
0.0019006434
0.0017937231
0.0016866006
0.0015820273
0.001479077
0.0013772469
0.0012760193
0.0011749275
0.001073134
0.00097126334
0.00086870859
0.00076577577
0.00066104992
0.00055581426
0.00045081785
0.00034610774
0.00024085533
0.0001352595
2.8407773e-05
-7.9891323e-05
-0.00018716088
-0.00029328907
-0.00039887982
-0.00050305816
-0.00060693142
-0.00071203167
-0.000816137
-0.00091943297
-0.0010230631
-0.0011274528
-0.0012333987
-0.0013369948
-0.0014388952
-0.0015435313
-0.0016458872
-0.0017481852
-0.0018505904
-0.0019548581
-0.0020603192
-0.0021639528
-0.0022665914
-0.0023692284
-0.0024709546
-0.0025739084
-0.0026783951
-0.0027847207
-0.00289077
-0.0029949159
-0.0030942128
-0.0031929223
-0.003292496
-0.0033909149
0
0
0
0
0
0
0
0
0
0
0
0
0
0
0
0
0
0
0
0
0
0
0
0
0
0
0
0
0
0
0
0
0
0
0
0
0
0
0
0
0
0
0
0
0
0
0
0
0
0
0
0
0
0
0
0
0
0
0
0
0
0
0
0
0
0
0
0
0
0
0
0
0
0
0
0
0
0
0
0
0
0
0
0
0
0
0
0
0
0
0
0
0
0
0
0
0
0
0
0
0
0
0
0
0
0
0
0
0
0
0
0
0
0
0
0
0
0
0
0
0
0
0
0
0
-0.003101574
-0.0022106174
-0.0013196608
-0.00042870421
0.00046225242
0.001353209
0.0022441656
0.0031415867
0
0
0
0
0
0
0
0
0
0
0
0
0
0
0
0
0
0
0
0
0
0
0
0
0
0
0
0
0
0
0
0
0
0
0
0
0
0
0
0
0
0
0
0
0
0
0
0
0
0.0035103692
0.0033876862
0.0032656916
0.0031452683
0.0030271659
0.0029096389
0.0027927916
0.0026771694
0.0025616044
0.0024465922
0.0023325408
0.0022187084
0.0021077851
0.0019968532
0.0018858657
0.0017758255
0.0016663714
0.0015571619
0.0014474706
0.0013366857
0.0012291697
0.0011213927
0.0010141332
0.00090721201
0.0007999725
0.00069516345
0.00059201838
0.00049008301
0.00038880264
0.00028772552
0.00018598194
8.4151732e-05
-1.8341883e-05
-0.00012114502
-0.00022573722
-0.00033094728
-0.00043569864
-0.00054066926
-0.00064587974
-0.00075135991
-0.00085805105
-0.00096632335
-0.001073716
-0.0011799671
-0.0012856646
-0.0013899432
-0.0014937753
-0.0015988627
-0.0017030688
-0.0018063952
-0.001909929
-0.0020141987
-0.0021202218
-0.0022240069
-0.0023258723
-0.0024305109
-0.0025329803
-0.0026352634
-0.0027375125
-0.0028416359
-0.002947174
-0.0030509831
-0.0031536626
-0.0032563109
-0.0033580015
-0.0034607676
0
0
0
0
0
0
0
0
0
0
0
0
0
0
0
0
0
0
0
0
0
0
0
0
0
0
0
0
0
0
0
0
0
0
0
0
0
0
0
0
0
0
0
0
0
0
0
0
0
0
0
0
0
0
0
0
0
0
0
0
0
0
0
0
0
0
0
0
0
0
0
0
0
0
0
0
0
0
0
0
0
0
0
0
0
0
0
0
0
0
0
0
0
0
0
0
0
0
0
0
0
0
0
0
0
0
0
0
0
0
0
0
0
0
0
0
0
0
0
0
0
0
0
0
0
0
0
0
0
0
0
0
0
-0.0031412057
-0.0022490772
-0.0013569487
-0.00046482026
0.00042730825
0.0013194367
0.0022115652
0.0031036937
0
0
0
0
0
0
0
0
0
0
0
0
0
0
0
0
0
0
0
0
0
0
0
0
0
0
0
0
0
0
0
0
0
0
0
0
0
0
0
0
0
0
0.0034949443
0.0033695836
0.0032442139
0.0031190786
0.0029947532
0.0028714705
0.0027483372
0.002625423
0.0025034633
0.0023812567
0.0022604136
0.0021420997
0.0020244214
0.0019074575
0.001791744
0.0016761267
0.0015610468
0.0014469073
0.0013328758
0.0012217802
0.0011107968
0.00099977647
0.00088964467
0.00078011766
0.00067093181
0.00056131957
0.00045042057
0.00034274121
0.00023489929
0.000127623
2.0700942e-05
-8.6655583e-05
-0.00019170039
-0.00029504027
-0.0003970809
-0.00049841401
-0.00059947643
-0.0007011701
-0.00080295987
-0.00090539235
-0.0010080658
-0.0011125244
-0.0012177088
-0.0013224831
-0.0014274463
-0.0015326148
-0.0016379793
-0.0017445099
-0.0018527554
-0.0019602712
-0.0020666451
-0.0021724494
-0.002277389
-0.0023806193
-0.0024856937
-0.0025900007
-0.0026933574
-0.0027967948
-0.0029009447
-0.003007045
-0.0031110189
-0.0032138682
-0.0033174904
-0.0034200733
0
0
0
0
0
0
0
0
0
0
0
0
0
0
0
0
0
0
0
0
0
0
0
0
0
0
0
0
0
0
0
0
0
0
0
0
0
0
0
0
0
0
0
0
0
0
0
0
0
0
0
0
0
0
0
0
0
0
0
0
0
0
0
0
0
0
0
0
0
0
0
0
0
0
0
0
0
0
0
0
0
0
0
0
0
0
0
0
0
0
0
0
0
0
0
0
0
0
0
0
0
0
0
0
0
0
0
0
0
0
0
0
0
0
0
0
0
0
0
0
0
0
0
0
0
0
0
0
0
0
0
0
0
0
0
0
0
0
0
0
0
0
-0.0031792033
-0.0022867482
-0.0013942932
-0.00050183818
0.00039061683
0.0012830718
0.0021755268
0.0030679818
0
0
0
0
0
0
0
0
0
0
0
0
0
0
0
0
0
0
0
0
0
0
0
0
0
0
0
0
0
0
0
0
0
0
0
0.0034525803
0.0033381809
0.0032199038
0.0031003082
0.0029791892
0.0028575566
0.0027347353
0.0026105098
0.0024857285
0.0023600638
0.002234902
0.002110464
0.0019870762
0.0018638946
0.0017409167
0.0016189176
0.0014966347
0.0013755589
0.0012570336
0.0011392039
0.0010221234
0.0009063186
0.00079064889
0.00067550143
0.00056127386
0.00044704327
0.00033577527
0.00022474049
0.00011368725
3.46381e-06
-0.00010613606
-0.00021529828
-0.00032483149
-0.00043552752
-0.00054368732
-0.00065159408
-0.00075888717
-0.00086581013
-0.00097328367
-0.0010785642
-0.0011820989
-0.0012842448
-0.0013856307
-0.0014866784
-0.0015883221
-0.0016900715
-0.0017924428
-0.0018949866
-0.0019993115
-0.0021044704
-0.0022092675
-0.0023142232
-0.0024193499
-0.0025245987
-0.0026309687
-0.0027391874
-0.0028468264
-0.0029533231
-0.0030592342
-0.0031641954
-0.0032674632
-0.0033725247
0
0
0
0
0
0
0
0
0
0
0
0
0
0
0
0
0
0
0
0
0
0
0
0
0
0
0
0
0
0
0
0
0
0
0
0
0
0
0
0