/*--------------------------------*- C++ -*----------------------------------*\
| =========                 |                                                 |
| \\      /  F ield         | OpenFOAM: The Open Source CFD Toolbox           |
|  \\    /   O peration     | Version:  2106                                  |
|   \\  /    A nd           | Website:  www.openfoam.com                      |
|    \\/     M anipulation  |                                                 |
\*---------------------------------------------------------------------------*/
FoamFile
{
    version     2.0;
    format      ascii;
    arch        "LSB;label=32;scalar=64";
    class       volVectorField;
    location    "0.205";
    object      U;
}
// * * * * * * * * * * * * * * * * * * * * * * * * * * * * * * * * * * * * * //

dimensions      [0 1 -1 0 0 0 0];

internalField   nonuniform List<vector> 
32768
(
(-6.3315337e-05 -0.00053606634 0)
(0.0026262757 -0.0013626355 0)
(0.0067845106 -0.0017337758 0)
(0.011481399 -0.0019607832 0)
(0.016433253 -0.0020452667 0)
(0.021497857 -0.00207697 0)
(0.026598329 -0.0020883552 0)
(0.031707663 -0.0020917489 0)
(0.036826318 -0.0021103507 0)
(0.041951504 -0.0021561241 0)
(0.047072589 -0.0022103179 0)
(0.052185328 -0.0022637055 0)
(0.057288987 -0.002313512 0)
(0.06237883 -0.0023562321 0)
(0.067460148 -0.0023985326 0)
(0.072520576 -0.0024296061 0)
(0.077584253 -0.0024668824 0)
(0.082619232 -0.0024862067 0)
(0.087670638 -0.0025117663 0)
(0.09269591 -0.0025415006 0)
(0.097726359 -0.0025292175 0)
(0.10275842 -0.0026047583 0)
(0.10778863 -0.0025397459 0)
(0.11280398 -0.0026445705 0)
(0.11783626 -0.0025937858 0)
(0.12291835 -0.002615815 0)
(0.12788472 -0.0026951192 0)
(0.13297934 -0.0026107644 0)
(0.13810696 -0.0026937965 0)
(0.14304942 -0.0027283355 0)
(0.14816303 -0.0026517297 0)
(0.15338804 -0.0027406323 0)
(0.1583904 -0.0027786849 0)
(0.16343178 -0.0026986229 0)
(0.16868647 -0.0027601747 0)
(0.1738828 -0.0028378261 0)
(0.17894703 -0.0027598423 0)
(0.18405053 -0.0027787909 0)
(0.18928981 -0.0028449077 0)
(0.19458528 -0.0028363567 0)
(0.19974588 -0.002828809 0)
(0.20480593 -0.0028456849 0)
(0.21000879 -0.0028342441 0)
(0.21535026 -0.0028622343 0)
(0.22058787 -0.0029059404 0)
(0.22571551 -0.0028632231 0)
(0.23087086 -0.0028200802 0)
(0.23601729 -0.0028764141 0)
(0.24121551 -0.0028997858 0)
(0.24654928 -0.0028668088 0)
(0.25175157 -0.0028853567 0)
(0.25672277 -0.0028386356 0)
(0.2617374 -0.0028174678 0)
(0.26692091 -0.0028637943 0)
(0.27213661 -0.0028695808 0)
(0.27724711 -0.0028636074 0)
(0.28229648 -0.0028164891 0)
(0.28724713 -0.002775947 0)
(0.29209076 -0.0027892312 0)
(0.29706684 -0.0028130885 0)
(0.30219258 -0.0028048361 0)
(0.30719455 -0.0027862426 0)
(0.31200793 -0.0027626635 0)
(0.31683734 -0.0027217405 0)
(0.32170696 -0.0027267956 0)
(0.32644482 -0.002720695 0)
(0.33110084 -0.0026832362 0)
(0.33589571 -0.0027154956 0)
(0.34082652 -0.0027301711 0)
(0.34562721 -0.0026660305 0)
(0.35017032 -0.0026278014 0)
(0.35465935 -0.0026266985 0)
(0.35926321 -0.0026156912 0)
(0.36388624 -0.002607978 0)
(0.36842521 -0.0026314159 0)
(0.37296675 -0.0026262045 0)
(0.37758832 -0.0025651913 0)
(0.38215369 -0.0025687593 0)
(0.38653776 -0.0025955554 0)
(0.3908858 -0.0025127277 0)
(0.39531167 -0.0024906526 0)
(0.39970361 -0.0025872779 0)
(0.40407764 -0.0025473552 0)
(0.40848189 -0.0024616596 0)
(0.41277966 -0.0025218084 0)
(0.41701422 -0.0025366588 0)
(0.42138775 -0.0024510859 0)
(0.42583509 -0.002477818 0)
(0.43012441 -0.0025282655 0)
(0.43424721 -0.0024268303 0)
(0.4383396 -0.0023679473 0)
(0.44247273 -0.0024652192 0)
(0.44670415 -0.0024964666 0)
(0.45097629 -0.0024205351 0)
(0.45512194 -0.0024153737 0)
(0.45915988 -0.0024498037 0)
(0.46329604 -0.0024103009 0)
(0.46755428 -0.0023866676 0)
(0.47173263 -0.0024330209 0)
(0.47577106 -0.0024013387 0)
(0.47973184 -0.0023258405 0)
(0.48360554 -0.0023374792 0)
(0.48749337 -0.0023865576 0)
(0.49154154 -0.0024003867 0)
(0.49569021 -0.0023859067 0)
(0.4997711 -0.0023833709 0)
(0.50372766 -0.0023765501 0)
(0.50763803 -0.0023255087 0)
(0.51157168 -0.002292057 0)
(0.51550295 -0.0023538842 0)
(0.51942904 -0.0023793733 0)
(0.52337871 -0.0022876549 0)
(0.52725482 -0.002272923 0)
(0.53097801 -0.0023356928 0)
(0.53470544 -0.0022994683 0)
(0.53853919 -0.0022482448 0)
(0.54239463 -0.0022971381 0)
(0.54623822 -0.0023347462 0)
(0.5500836 -0.0022647815 0)
(0.55387633 -0.002221275 0)
(0.55757856 -0.0022306535 0)
(0.56127732 -0.0022413442 0)
(0.56505111 -0.0022367205 0)
(0.56883572 -0.0022102875 0)
(0.57253643 -0.002172928 0)
(0.57612245 -0.0021857316 0)
(0.57962681 -0.0021972106 0)
(0.58314779 -0.0021480488 0)
(0.58674881 -0.0021544598 0)
(0.59040891 -0.0022411799 0)
(0.59410958 -0.0022381636 0)
(0.59781939 -0.0021349473 0)
(0.60144046 -0.0021246712 0)
(0.60491919 -0.00217138 0)
(0.6083582 -0.0021377124 0)
(0.61184321 -0.0020703982 0)
(0.61532513 -0.0020976493 0)
(0.6188168 -0.0021248758 0)
(0.6223881 -0.0021061338 0)
(0.62598337 -0.0020468911 0)
(0.62946564 -0.0020510203 0)
(0.63279449 -0.0020486803 0)
(0.63606967 -0.0020405728 0)
(0.63937989 -0.0020587222 0)
(0.64276178 -0.0020813842 0)
(0.64623839 -0.0020839234 0)
(0.64972872 -0.0020751554 0)
(0.65314532 -0.0020428379 0)
(0.65649373 -0.0020071395 0)
(0.65976018 -0.0019969792 0)
(0.66296412 -0.0019936118 0)
(0.66621215 -0.0019994444 0)
(0.66958738 -0.0020306172 0)
(0.67308956 -0.0020379388 0)
(0.67663228 -0.0019990543 0)
(0.68009462 -0.0019758179 0)
(0.68341926 -0.0019469015 0)
(0.68662303 -0.0018990368 0)
(0.68972536 -0.001888505 0)
(0.69279266 -0.0019179882 0)
(0.69592748 -0.0019431139 0)
(0.69915558 -0.0019609293 0)
(0.70240659 -0.0019510271 0)
(0.70564081 -0.0019420743 0)
(0.70890514 -0.0019181084 0)
(0.71217283 -0.0019102969 0)
(0.71539567 -0.0019135435 0)
(0.71862852 -0.0018916626 0)
(0.72187648 -0.0018566688 0)
(0.72510391 -0.00184046 0)
(0.72829076 -0.0018641994 0)
(0.73140991 -0.0018703729 0)
(0.73446383 -0.0018388746 0)
(0.73748962 -0.0018101537 0)
(0.74053506 -0.0018396258 0)
(0.74359897 -0.001865778 0)
(0.74665121 -0.001832937 0)
(0.74973092 -0.0017893787 0)
(0.75287555 -0.0017739255 0)
(0.75603873 -0.0017807421 0)
(0.75916016 -0.0017615305 0)
(0.76223243 -0.0017005847 0)
(0.76525699 -0.0016554664 0)
(0.76820133 -0.0016416037 0)
(0.77106894 -0.0016485164 0)
(0.77393073 -0.0016393973 0)
(0.77688442 -0.001620658 0)
(0.78002335 -0.0016197122 0)
(0.78332057 -0.0016301618 0)
(0.78651439 -0.0015646921 0)
(0.78939615 -0.0014738081 0)
(0.79210897 -0.0014299515 0)
(0.79466047 -0.0014438282 0)
(0.79706882 -0.0014688544 0)
(0.79939162 -0.0014917937 0)
(0.80172358 -0.0015338672 0)
(0.8041167 -0.0015656358 0)
(0.80664752 -0.0015144336 0)
(0.80937827 -0.0013639919 0)
(0.81229985 -0.0011130652 0)
(0.81501361 -0.00083675133 0)
(0.81733941 -0.00065782912 0)
(0.81944415 -0.00061444032 0)
(0.82138958 -0.00067391578 0)
(0.82330312 -0.000791562 0)
(0.82530222 -0.00089799654 0)
(0.82730725 -0.00094045484 0)
(0.82921477 -0.0009939073 0)
(0.83101162 -0.0010324529 0)
(0.83263481 -0.00091851639 0)
(0.83420865 -0.00072796568 0)
(0.83567057 -0.00026224676 0)
(0.83708557 0.00029674663 0)
(0.83844518 0.00061223606 0)
(0.83975014 0.0007532048 0)
(0.84084263 0.00085231247 0)
(0.8414631 0.00093511507 0)
(0.84154365 0.00094039911 0)
(0.84132531 0.00089149758 0)
(0.84087852 0.00087660916 0)
(0.84028656 0.00090238373 0)
(0.8395562 0.00091770059 0)
(0.83872075 0.00088938831 0)
(0.83788656 0.00078235769 0)
(0.83717408 0.00059750303 0)
(0.83662905 0.00035796622 0)
(0.83622955 0.00011309725 0)
(0.83598256 3.1092707e-06 0)
(0.83573515 -8.2935852e-05 0)
(0.83517637 8.6164148e-05 0)
(0.83402903 0.00045765637 0)
(0.83193161 0.00091263419 0)
(0.82886898 0.0014826732 0)
(0.82446723 0.0021365332 0)
(0.81816894 0.003089813 0)
(0.80971919 0.0046478394 0)
(0.79841959 0.0062704569 0)
(0.78333502 0.008584071 0)
(0.76480504 0.011098339 0)
(0.74108312 0.014228313 0)
(0.71243788 0.017670281 0)
(0.67776654 0.021829124 0)
(0.63602747 0.026596812 0)
(0.58645542 0.031971739 0)
(0.52632594 0.038312312 0)
(0.45590414 0.045298252 0)
(0.37297982 0.052789255 0)
(0.27848556 0.058236585 0)
(0.17312225 0.062572044 0)
(0.056743704 0.054759133 0)
(-0.042705292 0.042166705 0)
(-0.12657432 0.031586979 0)
(-0.18919821 0.019003705 0)
(-0.21603656 -0.011676455 0)
(-0.16039836 -0.059988213 0)
(-0.079467821 -0.092803595 0)
(-0.00016660762 -0.0019580427 0)
(0.002915961 -0.0055413866 0)
(0.0080523827 -0.0070201024 0)
(0.013443086 -0.0076959462 0)
(0.01919097 -0.0079649772 0)
(0.025011611 -0.0080670378 0)
(0.030869629 -0.0081033123 0)
(0.036729406 -0.0081052647 0)
(0.042583909 -0.008096972 0)
(0.048394053 -0.0080540222 0)
(0.05417005 -0.0079933616 0)
(0.059916623 -0.0079256527 0)
(0.065645481 -0.0078610732 0)
(0.07133769 -0.0077982841 0)
(0.077044988 -0.0077497242 0)
(0.082664156 -0.0076964284 0)
(0.088412231 -0.0076550057 0)
(0.09390113 -0.0076495209 0)
(0.099775734 -0.0074975372 0)
(0.10507971 -0.0077756336 0)
(0.11110086 -0.0071567726 0)
(0.11628021 -0.00806545 0)
(0.12236247 -0.0069346296 0)
(0.12754498 -0.0078779746 0)
(0.13345663 -0.0075260126 0)
(0.13915727 -0.007058849 0)
(0.14429182 -0.0079781166 0)
(0.15056009 -0.0073620409 0)
(0.15602655 -0.0072338294 0)
(0.16120425 -0.0077708329 0)
(0.16747581 -0.0075721234 0)
(0.17321481 -0.0073187841 0)
(0.17831369 -0.0075584806 0)
(0.18427302 -0.0076430943 0)
(0.19033588 -0.0075626096 0)
(0.19586543 -0.0075992071 0)
(0.20140683 -0.0073687592 0)
(0.20714378 -0.0076730877 0)
(0.21316403 -0.0077824773 0)
(0.21911888 -0.0075598714 0)
(0.22457443 -0.0073963043 0)
(0.23008518 -0.007647703 0)
(0.23620055 -0.0077021513 0)
(0.24227822 -0.0076520537 0)
(0.24782948 -0.0075873209 0)
(0.25349833 -0.0075587582 0)
(0.25936901 -0.007355983 0)
(0.26493405 -0.0075863452 0)
(0.27088467 -0.0078731852 0)
(0.27717463 -0.007438513 0)
(0.28256172 -0.0074300349 0)
(0.28791687 -0.0072655607 0)
(0.29368602 -0.0074022381 0)
(0.29972891 -0.0075993023 0)
(0.30554756 -0.0074218758 0)
(0.31113226 -0.0074802402 0)
(0.31691156 -0.0071659688 0)
(0.32222674 -0.0069922839 0)
(0.32753442 -0.0072023716 0)
(0.33348936 -0.0073794289 0)
(0.33945589 -0.0072489255 0)
(0.34482248 -0.0070490113 0)
(0.35005547 -0.0070905907 0)
(0.35575263 -0.0069706983 0)
(0.3613085 -0.0068432796 0)
(0.36638748 -0.0067862653 0)
(0.37162111 -0.0068284129 0)
(0.37737831 -0.0070974692 0)
(0.38320642 -0.0070082205 0)
(0.38840959 -0.006632076 0)
(0.39325626 -0.0065441441 0)
(0.39846859 -0.0065851823 0)
(0.40393912 -0.0065723819 0)
(0.40918526 -0.0065329827 0)
(0.41422133 -0.0065840946 0)
(0.41950333 -0.0066621125 0)
(0.42500556 -0.0065402031 0)
(0.43012814 -0.0063431887 0)
(0.4348534 -0.0063789237 0)
(0.43997799 -0.0062842069 0)
(0.44522056 -0.00615777 0)
(0.45010355 -0.0064110779 0)
(0.45525058 -0.0063325666 0)
(0.46041535 -0.0060313622 0)
(0.46507297 -0.0061483828 0)
(0.4699073 -0.0063017851 0)
(0.47531755 -0.006225803 0)
(0.48055608 -0.006181776 0)
(0.48522147 -0.0061353271 0)
(0.48985251 -0.0058116386 0)
(0.49463415 -0.0057044925 0)
(0.4994752 -0.0060602075 0)
(0.50456438 -0.0061519482 0)
(0.50954672 -0.0058523642 0)
(0.51410079 -0.0057677102 0)
(0.51864698 -0.0059437525 0)
(0.52370965 -0.0060162337 0)
(0.52886682 -0.0058981331 0)
(0.53357642 -0.0059235766 0)
(0.53823727 -0.0057047687 0)
(0.54281142 -0.0054127863 0)
(0.54711801 -0.0054860979 0)
(0.55171046 -0.0056709386 0)
(0.55668748 -0.0057979103 0)
(0.56162981 -0.0058220315 0)
(0.56626954 -0.005690734 0)
(0.5707481 -0.0055977865 0)
(0.57531597 -0.0055643847 0)
(0.57999296 -0.0055179591 0)
(0.58458779 -0.0055484781 0)
(0.58924138 -0.0056969626 0)
(0.5940451 -0.0054539014 0)
(0.59846357 -0.0052302546 0)
(0.60261378 -0.0053470309 0)
(0.60710226 -0.0053678767 0)
(0.6117332 -0.0052899333 0)
(0.61625012 -0.0054648222 0)
(0.6208043 -0.0055478212 0)
(0.62537202 -0.0053903595 0)
(0.62976509 -0.005200395 0)
(0.63403736 -0.0052510189 0)
(0.63851027 -0.005355887 0)
(0.64315527 -0.005334433 0)
(0.64768811 -0.0052730917 0)
(0.65207335 -0.0051042187 0)
(0.65621511 -0.0049882064 0)
(0.66022356 -0.0049602664 0)
(0.66444186 -0.0049170024 0)
(0.66882974 -0.0050331747 0)
(0.67322268 -0.0052825287 0)
(0.6777094 -0.0052919583 0)
(0.68223856 -0.0050787149 0)
(0.68650902 -0.0049342388 0)
(0.69051044 -0.0049518084 0)
(0.69467363 -0.0048552904 0)
(0.69892482 -0.0047829736 0)
(0.70301605 -0.0049002606 0)
(0.70726205 -0.005081349 0)
(0.71174317 -0.0050735656 0)
(0.71616408 -0.0049598497 0)
(0.72023177 -0.0047980555 0)
(0.72405443 -0.0046968437 0)
(0.72798598 -0.0045606161 0)
(0.73198813 -0.0046591409 0)
(0.73616849 -0.0048745296 0)
(0.74055504 -0.0049226034 0)
(0.74476889 -0.0048798552 0)
(0.74887622 -0.0047878611 0)
(0.75292877 -0.004604083 0)
(0.75673566 -0.0044808336 0)
(0.76047119 -0.0045437626 0)
(0.76435921 -0.004709995 0)
(0.76855088 -0.0048454937 0)
(0.77300906 -0.0050366582 0)
(0.77744737 -0.0050996499 0)
(0.78163425 -0.0048881473 0)
(0.78567171 -0.0046287337 0)
(0.78959949 -0.004398873 0)
(0.79329283 -0.0043292765 0)
(0.7970165 -0.0043483187 0)
(0.80092821 -0.0044337392 0)
(0.80496729 -0.0045455187 0)
(0.80887149 -0.0045492597 0)
(0.81276045 -0.0046503753 0)
(0.81684939 -0.0046230636 0)
(0.8207811 -0.0046219091 0)
(0.82471177 -0.0046280901 0)
(0.82880215 -0.0046609052 0)
(0.83284244 -0.0046739301 0)
(0.83691592 -0.0045950701 0)
(0.84094733 -0.0044825608 0)
(0.84486894 -0.0043482046 0)
(0.84867116 -0.0043154695 0)
(0.85244159 -0.0043109968 0)
(0.85631991 -0.004259893 0)
(0.86014932 -0.0043040516 0)
(0.86390186 -0.0043664894 0)
(0.86779066 -0.0044776481 0)
(0.87181804 -0.0045307361 0)
(0.87583614 -0.00450539 0)
(0.87980393 -0.00448719 0)
(0.88373596 -0.0044889089 0)
(0.88754818 -0.0043653927 0)
(0.8911481 -0.0041864333 0)
(0.89464867 -0.0041307395 0)
(0.89817663 -0.0042479332 0)
(0.90194704 -0.0045235546 0)
(0.90622623 -0.0048171942 0)
(0.91083546 -0.0048535227 0)
(0.91539613 -0.0045895406 0)
(0.9197543 -0.0042528895 0)
(0.92378007 -0.0038997196 0)
(0.92730976 -0.0035388259 0)
(0.93048636 -0.0033104333 0)
(0.93357557 -0.0031564308 0)
(0.93658923 -0.003153635 0)
(0.93960464 -0.0034050069 0)
(0.94291814 -0.003825091 0)
(0.94664802 -0.0043130197 0)
(0.95080199 -0.0045588222 0)
(0.9552563 -0.0042676396 0)
(0.95963121 -0.0038012476 0)
(0.9636379 -0.003441492 0)
(0.96719576 -0.0032462811 0)
(0.97046532 -0.0032535027 0)
(0.97375257 -0.0032179428 0)
(0.97714813 -0.0030206787 0)
(0.98043771 -0.0027011792 0)
(0.98346766 -0.0023704369 0)
(0.98619086 -0.0021477596 0)
(0.98864268 -0.0023025898 0)
(0.99104593 -0.0026557411 0)
(0.99377973 -0.0030241241 0)
(0.99705356 -0.0032404675 0)
(1.0007731 -0.0031682467 0)
(1.0049083 -0.0026238608 0)
(1.0094008 -0.0017327311 0)
(1.0140374 -0.0007985059 0)
(1.0179341 -0.00021573869 0)
(1.0211284 0.00012584447 0)
(1.023738 0.00040759738 0)
(1.0256723 0.00065849855 0)
(1.0268778 0.00078003204 0)
(1.0275114 0.00074335292 0)
(1.027579 0.00059783178 0)
(1.0277621 0.00052341462 0)
(1.027716 0.00046757339 0)
(1.0283257 0.00046091778 0)
(1.0283725 0.00081333803 0)
(1.0284316 0.0015536764 0)
(1.0277639 0.0025712101 0)
(1.0272278 0.0043715772 0)
(1.024346 0.005383221 0)
(1.0219204 0.0086947033 0)
(1.0163888 0.011748468 0)
(1.0102034 0.014012279 0)
(0.99950613 0.020792026 0)
(0.98448448 0.023749742 0)
(0.96994295 0.031820434 0)
(0.94283734 0.037482667 0)
(0.92385038 0.046915775 0)
(0.88715572 0.054242383 0)
(0.85832825 0.066327073 0)
(0.81187975 0.078870748 0)
(0.76421205 0.094437868 0)
(0.70624431 0.10947111 0)
(0.63677225 0.1263811 0)
(0.56650624 0.14610282 0)
(0.47581113 0.15915377 0)
(0.38473776 0.16860844 0)
(0.25305249 0.15315854 0)
(0.12775536 0.11521459 0)
(0.022536001 0.061562439 0)
(-0.044057862 0.00046228142 0)
(-0.064019544 -0.091571748 0)
(-0.026869165 -0.1708682 0)
(-0.00016038949 -0.0032674981 0)
(0.0029150521 -0.0096389839 0)
(0.0079632239 -0.012184589 0)
(0.01330218 -0.013223628 0)
(0.019002305 -0.013649904 0)
(0.024774134 -0.01381391 0)
(0.030573684 -0.013861325 0)
(0.036381415 -0.013858927 0)
(0.042179066 -0.013833547 0)
(0.047963678 -0.013800791 0)
(0.053735679 -0.013768261 0)
(0.059490385 -0.013740566 0)
(0.065241354 -0.013717733 0)
(0.070952885 -0.013703048 0)
(0.076719111 -0.01368356 0)
(0.082326417 -0.013689986 0)
(0.088228654 -0.013640346 0)
(0.093551648 -0.013733088 0)
(0.099822755 -0.013527188 0)
(0.10466047 -0.013929765 0)
(0.11135543 -0.01323379 0)
(0.11597087 -0.014314945 0)
(0.12248596 -0.012980943 0)
(0.12768237 -0.014251946 0)
(0.13340201 -0.013670601 0)
(0.13932281 -0.013285718 0)
(0.14462031 -0.014387134 0)
(0.15063928 -0.01364372 0)
(0.15619626 -0.013514338 0)
(0.16174552 -0.01409793 0)
(0.16774272 -0.014214842 0)
(0.17337394 -0.013640328 0)
(0.17888322 -0.013728469 0)
(0.18486496 -0.014386018 0)
(0.19062655 -0.014302562 0)
(0.19634001 -0.013865832 0)
(0.20208427 -0.013607755 0)
(0.20771121 -0.01464701 0)
(0.21387441 -0.014567469 0)
(0.21970695 -0.014023003 0)
(0.22514062 -0.013676256 0)
(0.23086628 -0.014438724 0)
(0.23722854 -0.014646881 0)
(0.24306686 -0.014409588 0)
(0.24835166 -0.014065604 0)
(0.25442113 -0.014143776 0)
(0.26036558 -0.013974007 0)
(0.26605383 -0.01443992 0)
(0.2718768 -0.014920359 0)
(0.27802501 -0.014156279 0)
(0.28343751 -0.013788168 0)
(0.28904593 -0.013566303 0)
(0.2949665 -0.014508564 0)
(0.30106124 -0.01458755 0)
(0.3066349 -0.014027839 0)
(0.31211069 -0.014214482 0)
(0.3181718 -0.013571783 0)
(0.32352744 -0.01324549 0)
(0.32879111 -0.01398173 0)
(0.3349684 -0.014519508 0)
(0.34107695 -0.013872302 0)
(0.34614413 -0.013323956 0)
(0.35120244 -0.013581418 0)
(0.35707125 -0.013646438 0)
(0.36288366 -0.013272785 0)
(0.36811684 -0.012887804 0)
(0.37315423 -0.013442477 0)
(0.37900193 -0.01424341 0)
(0.3851119 -0.013525617 0)
(0.38996792 -0.01254286 0)
(0.3944518 -0.012646363 0)
(0.4000051 -0.013100971 0)
(0.40592614 -0.013077881 0)
(0.41121337 -0.01278362 0)
(0.416063 -0.012923729 0)
(0.42136453 -0.013208164 0)
(0.42695254 -0.012887438 0)
(0.43190695 -0.012419989 0)
(0.43659075 -0.012430282 0)
(0.44187843 -0.012441212 0)
(0.44705102 -0.012479134 0)
(0.45210863 -0.01279528 0)
(0.45762884 -0.012439758 0)
(0.46263314 -0.012038094 0)
(0.46715107 -0.012207692 0)
(0.47218153 -0.012551374 0)
(0.47750138 -0.01267249 0)
(0.48252787 -0.0124935 0)
(0.48734629 -0.011879713 0)
(0.49205496 -0.011390158 0)
(0.49665261 -0.011788305 0)
(0.50174716 -0.012568486 0)
(0.50739585 -0.01235244 0)
(0.51237632 -0.011637759 0)
(0.51655604 -0.011525277 0)
(0.52102336 -0.012045809 0)
(0.52616791 -0.012288386 0)
(0.53119262 -0.012091403 0)
(0.53593218 -0.011923746 0)
(0.54082984 -0.011366832 0)
(0.54533871 -0.01092783 0)
(0.54961179 -0.011267532 0)
(0.55444444 -0.011814971 0)
(0.55967735 -0.012069489 0)
(0.56476276 -0.011862976 0)
(0.56930264 -0.011451702 0)
(0.57354243 -0.011242398 0)
(0.57803653 -0.011350163 0)
(0.58271171 -0.011443494 0)
(0.58720439 -0.011593757 0)
(0.59203114 -0.011646863 0)
(0.59711877 -0.011167048 0)
(0.60144844 -0.010866428 0)
(0.60563508 -0.010993108 0)
(0.6103779 -0.011044951 0)
(0.61496777 -0.011181216 0)
(0.61936292 -0.011465027 0)
(0.62408552 -0.011361503 0)
(0.62876901 -0.010981522 0)
(0.63300645 -0.010794113 0)
(0.63715584 -0.010994714 0)
(0.64169748 -0.01125735 0)
(0.64644926 -0.011261563 0)
(0.65109777 -0.010982598 0)
(0.65550483 -0.010597336 0)
(0.659632 -0.010379935 0)
(0.66373858 -0.010298233 0)
(0.66790841 -0.010404574 0)
(0.67218136 -0.010899078 0)
(0.67673775 -0.011217454 0)
(0.68142521 -0.010985084 0)
(0.68590499 -0.01060526 0)
(0.69011905 -0.010438706 0)
(0.69426443 -0.010344522 0)
(0.69853006 -0.010181204 0)
(0.70276464 -0.010172686 0)
(0.70685563 -0.010521169 0)
(0.71119332 -0.010772428 0)
(0.71576781 -0.010677637 0)
(0.72016104 -0.010361118 0)
(0.72416315 -0.0099858088 0)
(0.72792801 -0.0097000778 0)
(0.73165984 -0.0096600598 0)
(0.73550045 -0.010047122 0)
(0.73981761 -0.010597861 0)
(0.74449577 -0.010621803 0)
(0.74896177 -0.010346675 0)
(0.75332248 -0.010111134 0)
(0.75758052 -0.0097504996 0)
(0.761293 -0.0094452804 0)
(0.76489838 -0.0095812399 0)
(0.76885404 -0.010034271 0)
(0.77289515 -0.010441406 0)
(0.77713754 -0.010654069 0)
(0.78167064 -0.010609321 0)
(0.78597892 -0.010246405 0)
(0.78998542 -0.0097146153 0)
(0.79382445 -0.0092837676 0)
(0.79752152 -0.0093582173 0)
(0.80149127 -0.0095630642 0)
(0.80556557 -0.0097327494 0)
(0.80970498 -0.009718883 0)
(0.81386399 -0.0096920454 0)
(0.81794934 -0.009898766 0)
(0.82198217 -0.009721643 0)
(0.82569251 -0.0095902256 0)
(0.82944684 -0.009765389 0)
(0.83339851 -0.0098701791 0)
(0.83733208 -0.0099066691 0)
(0.84152248 -0.0098640517 0)
(0.84566774 -0.0096707516 0)
(0.84958048 -0.0094342144 0)
(0.85360775 -0.0093377443 0)
(0.85770201 -0.0094238868 0)
(0.8616957 -0.0094188586 0)
(0.86556175 -0.0092603332 0)
(0.86922185 -0.0093709132 0)
(0.87309528 -0.0096918472 0)
(0.87731368 -0.0097754456 0)
(0.88134312 -0.0096309482 0)
(0.88533829 -0.0094456225 0)
(0.88952162 -0.0093178639 0)
(0.893602 -0.0089929943 0)
(0.89725457 -0.008583895 0)
(0.90057422 -0.008495874 0)
(0.90380593 -0.0088229184 0)
(0.90723376 -0.0096417904 0)
(0.91122291 -0.010478543 0)
(0.91559082 -0.010701984 0)
(0.91998083 -0.010283868 0)
(0.92454663 -0.0095845387 0)
(0.92908717 -0.0087592448 0)
(0.93302465 -0.0080733948 0)
(0.93668681 -0.0077335345 0)
(0.94042066 -0.0075658327 0)
(0.94394845 -0.0074982814 0)
(0.94722173 -0.0078167241 0)
(0.95056628 -0.0084489206 0)
(0.9541868 -0.009189977 0)
(0.95811696 -0.0097037039 0)
(0.9621926 -0.009549146 0)
(0.96618677 -0.0088783713 0)
(0.96990514 -0.0080340347 0)
(0.97335177 -0.0073664997 0)
(0.9766206 -0.0072340329 0)
(0.97980017 -0.0074299712 0)
(0.98329233 -0.0075106027 0)
(0.98689963 -0.0073270736 0)
(0.99038177 -0.0068698416 0)
(0.99386418 -0.006233375 0)
(0.99732786 -0.0057292045 0)
(1.0004636 -0.0055688913 0)
(1.0033024 -0.0057785401 0)
(1.0059318 -0.0063657988 0)
(1.0088101 -0.0071495193 0)
(1.0123222 -0.0078010412 0)
(1.0162923 -0.0079597772 0)
(1.0204891 -0.0073264495 0)
(1.0246231 -0.0061716613 0)
(1.0285712 -0.0049439013 0)
(1.0321306 -0.0037106566 0)
(1.0349373 -0.002282747 0)
(1.0367691 -0.00091832899 0)
(1.0378846 3.3118179e-05 0)
(1.0387646 0.00039877553 0)
(1.0397496 0.00019989938 0)
(1.0410456 -0.00033601531 0)
(1.0425046 -0.00047620653 0)
(1.0429005 -0.00031383355 0)
(1.0435095 0.00068395062 0)
(1.0423185 0.0017896043 0)
(1.0411774 0.0039199306 0)
(1.0378463 0.0064168171 0)
(1.0358028 0.0095338796 0)
(1.0311924 0.014322121 0)
(1.0278001 0.021005113 0)
(1.0176604 0.029739031 0)
(1.0076124 0.038581443 0)
(0.99355685 0.049591797 0)
(0.97304845 0.060427465 0)
(0.95557447 0.070526683 0)
(0.9270176 0.08578463 0)
(0.90310383 0.099785249 0)
(0.86193356 0.12282425 0)
(0.82819963 0.14212566 0)
(0.78028736 0.16682493 0)
(0.72181798 0.18828745 0)
(0.67102567 0.20383739 0)
(0.59991514 0.23128259 0)
(0.53300423 0.25112104 0)
(0.45797863 0.2586651 0)
(0.37918515 0.23867946 0)
(0.2768697 0.20018703 0)
(0.19672809 0.094153921 0)
(0.12016234 -0.060218476 0)
(0.051055117 -0.15678212 0)
(-0.00014031864 -0.0046430866 0)
(0.0029550688 -0.013729328 0)
(0.008010356 -0.017338627 0)
(0.013366859 -0.01880511 0)
(0.019086503 -0.019403685 0)
(0.024873453 -0.019630524 0)
(0.030687686 -0.019695857 0)
(0.036504859 -0.019687901 0)
(0.042313198 -0.019648729 0)
(0.048106596 -0.019596386 0)
(0.053884428 -0.01953738 0)
(0.059643472 -0.019476882 0)
(0.065393707 -0.019413073 0)
(0.071110487 -0.019357466 0)
(0.076856876 -0.019283851 0)
(0.082491974 -0.019265122 0)
(0.08831441 -0.019138489 0)
(0.093753095 -0.019248453 0)
(0.099815646 -0.018936922 0)
(0.10490449 -0.01935863 0)
(0.11129432 -0.018652331 0)
(0.11614918 -0.019571235 0)
(0.12250722 -0.018452718 0)
(0.12769905 -0.01947115 0)
(0.13351079 -0.018956649 0)
(0.13921833 -0.018678292 0)
(0.14476752 -0.019583664 0)
(0.15057956 -0.018865866 0)
(0.15603537 -0.018874162 0)
(0.16195206 -0.01933088 0)
(0.16766425 -0.019438443 0)
(0.17308419 -0.018852922 0)
(0.17898757 -0.019018261 0)
(0.1849651 -0.019772855 0)
(0.19041494 -0.019358564 0)
(0.19603551 -0.019073386 0)
(0.20222112 -0.01896934 0)
(0.20773809 -0.020080698 0)
(0.21378025 -0.019542703 0)
(0.2192898 -0.019282009 0)
(0.22513154 -0.018823376 0)
(0.23091758 -0.019980177 0)
(0.23730116 -0.01995304 0)
(0.24281201 -0.019301843 0)
(0.24795574 -0.019074603 0)
(0.25445925 -0.019657332 0)
(0.26029111 -0.019430992 0)
(0.26626073 -0.019452445 0)
(0.27178416 -0.019781077 0)
(0.2774621 -0.019382552 0)
(0.28320769 -0.018906113 0)
(0.28920535 -0.0186461 0)
(0.29505978 -0.020001064 0)
(0.30112586 -0.019383736 0)
(0.30636956 -0.018731838 0)
(0.31160296 -0.019339222 0)
(0.31796971 -0.018626668 0)
(0.32363288 -0.018032018 0)
(0.328927 -0.018977591 0)
(0.33498832 -0.019722693 0)
(0.34090718 -0.018681443 0)
(0.34576581 -0.017617187 0)
(0.35079832 -0.01808172 0)
(0.35687598 -0.01890332 0)
(0.36303788 -0.018265671 0)
(0.36834487 -0.017127386 0)
(0.37293383 -0.018128483 0)
(0.37871266 -0.019332341 0)
(0.38490965 -0.017971029 0)
(0.389662 -0.016438138 0)
(0.39410845 -0.016898434 0)
(0.39983211 -0.018095367 0)
(0.40600201 -0.018109818 0)
(0.41134709 -0.017052102 0)
(0.41588993 -0.0169561 0)
(0.4209582 -0.017617731 0)
(0.42660698 -0.017377807 0)
(0.43158778 -0.016451542 0)
(0.43640418 -0.016389474 0)
(0.44173521 -0.016782101 0)
(0.44675657 -0.017034589 0)
(0.4519779 -0.017167191 0)
(0.45763254 -0.016667935 0)
(0.46233983 -0.016153067 0)
(0.46680344 -0.016081818 0)
(0.47208104 -0.016456965 0)
(0.47724205 -0.016876705 0)
(0.48198854 -0.016671244 0)
(0.48696174 -0.015569216 0)
(0.49185754 -0.015115642 0)
(0.49640142 -0.016048563 0)
(0.50158332 -0.01711246 0)
(0.50738202 -0.01658873 0)
(0.51221042 -0.015333131 0)
(0.51614438 -0.014895333 0)
(0.52066701 -0.015638484 0)
(0.52597784 -0.016198536 0)
(0.53077403 -0.016133564 0)
(0.53542802 -0.015807288 0)
(0.54054243 -0.01504486 0)
(0.54496519 -0.014525735 0)
(0.5492018 -0.014956585 0)
(0.55426646 -0.015804852 0)
(0.55967158 -0.016304792 0)
(0.5646679 -0.015681145 0)
(0.56907027 -0.014759818 0)
(0.57323289 -0.01442989 0)
(0.57766185 -0.014768981 0)
(0.5821801 -0.014977315 0)
(0.58658274 -0.015341707 0)
(0.59154809 -0.015409143 0)
(0.5966532 -0.014924167 0)
(0.60103715 -0.014420421 0)
(0.60557153 -0.01440906 0)
(0.61048698 -0.014404715 0)
(0.61483249 -0.014757095 0)
(0.61898646 -0.015078569 0)
(0.62372652 -0.014854838 0)
(0.62844003 -0.014317322 -1.2870053e-34)
(0.63258974 -0.014097358 -6.8989335e-30)
(0.63674333 -0.014241222 0)
(0.64132837 -0.014734881 0)
(0.64597829 -0.014926794 0)
(0.65058191 -0.014569518 0)
(0.65505509 -0.013868435 0)
(0.65930156 -0.013484062 0)
(0.66359518 -0.013227356 0)
(0.66775147 -0.013555826 0)
(0.6718922 -0.014348409 -1.1664817e-34)
(0.67652569 -0.014713706 -7.0927696e-30)
(0.68126219 -0.014337819 -1.2655387e-34)
(0.68549681 -0.014010385 -6.3709978e-30)
(0.68951342 -0.013736531 0)
(0.69392088 -0.013428482 0)
(0.69837631 -0.013283875 0)
(0.7024366 -0.013385287 0)
(0.70654764 -0.013674313 0)
(0.71102071 -0.014023577 0)
(0.71541471 -0.014049985 -1.1437665e-34)
(0.71961048 -0.013587214 -6.0806804e-30)
(0.72374019 -0.012826857 0)
(0.72775465 -0.012320817 0)
(0.73140594 -0.012305883 0)
(0.73500959 -0.013034641 0)
(0.73932062 -0.013973422 0)
(0.7439476 -0.014254512 0)
(0.74839475 -0.013901412 0)
(0.75305419 -0.013450426 0)
(0.75752674 -0.012739519 0)
(0.76137291 -0.012139229 0)
(0.76503181 -0.012228827 -1.0517887e-34)
(0.76879379 -0.012780689 -5.9662953e-30)
(0.77268679 -0.013476466 0)
(0.77676413 -0.013980698 0)
(0.78089479 -0.013896495 0)
(0.78528151 -0.013299574 0)
(0.78958579 -0.012625819 0)
(0.79331301 -0.012001814 0)
(0.79696633 -0.012059182 0)
(0.80102326 -0.012488426 0)
(0.80513851 -0.012952838 9.80675e-35)
(0.80930611 -0.012956313 5.2473879e-30)
(0.81360359 -0.012885737 0)
(0.81801832 -0.012963571 0)
(0.82222242 -0.012547375 9.4543456e-35)
(0.82568278 -0.012262358 5.0188579e-30)
(0.82927535 -0.012430891 0)
(0.83321484 -0.012539074 0)
(0.83684822 -0.012845951 0)
(0.8406693 -0.012960904 0)
(0.84496039 -0.012631323 8.9109279e-35)
(0.84916776 -0.012427792 4.8476697e-30)
(0.8532462 -0.012431298 0)
(0.85742337 -0.012402039 0)
(0.86171872 -0.012312209 0)
(0.86573479 -0.011971036 0)
(0.86940052 -0.011965928 0)
(0.87301904 -0.012578536 0)
(0.87673848 -0.012881586 0)
(0.88056003 -0.012810214 0)
(0.88465883 -0.012871689 0)
(0.8888227 -0.012727849 0)
(0.89290714 -0.011984654 0)
(0.89679652 -0.011247945 0)
(0.90060803 -0.010786693 0)
(0.90436584 -0.010814096 0)
(0.90779187 -0.011874449 0)
(0.91118165 -0.013161365 0)
(0.91494695 -0.013718085 0)
(0.91897646 -0.013801231 0)
(0.92339828 -0.013502345 0)
(0.92782108 -0.012356218 0)
(0.93198916 -0.011176386 0)
(0.93620205 -0.01065126 0)
(0.94048858 -0.010421769 0)
(0.9445946 -0.010173778 0)
(0.94842577 -0.010234796 0)
(0.95206788 -0.010829165 0)
(0.95562567 -0.01185209 0)
(0.95917035 -0.012535372 0)
(0.9625932 -0.012358901 0)
(0.96583749 -0.011544944 0)
(0.96883457 -0.010627053 0)
(0.97187949 -0.010100788 0)
(0.97513032 -0.0098723809 0)
(0.97862683 -0.0099832017 0)
(0.98220106 -0.010062367 0)
(0.98587419 -0.0097173917 0)
(0.98968502 -0.0091736003 0)
(0.99334287 -0.0088769631 0)
(0.99685823 -0.0087854817 0)
(1.0004945 -0.0085808972 0)
(1.0041671 -0.0083939505 -2.648169e-35)
(1.0077675 -0.0087624111 -1.2018544e-30)
(1.0113681 -0.0096941278 0)
(1.0147806 -0.010367379 0)
(1.0177944 -0.010199894 0)
(1.0206475 -0.0093986238 0)
(1.0236506 -0.0083646566 0)
(1.0267983 -0.0073063496 0)
(1.0298112 -0.0059209981 0)
(1.0325188 -0.0040259421 0)
(1.0349803 -0.0022522905 0)
(1.0373516 -0.0013559614 0)
(1.0397184 -0.0013974435 0)
(1.0423385 -0.0019229319 0)
(1.0448609 -0.0023393071 0)
(1.0472955 -0.0017217048 0)
(1.0484604 -0.00028939161 0)
(1.049201 0.0024854992 0)
(1.047316 0.0045923373 4.6091135e-34)
(1.0455866 0.0082850862 3.222571e-29)
(1.0409679 0.010901834 0)
(1.038097 0.014712637 0)
(1.0328608 0.020351116 0)
(1.0276022 0.02685328 0)
(1.0212148 0.040478445 0)
(1.0122386 0.049972381 0)
(1.0009929 0.065314868 0)
(0.98831332 0.080144838 0)
(0.97053287 0.094428624 0)
(0.95273695 0.11228443 0)
(0.92473914 0.1384976 0)
(0.89122794 0.16195818 0)
(0.86370491 0.18811 4.6972778e-33)
(0.80977274 0.22790591 2.7596079e-28)
(0.7751405 0.25293569 -5.0210886e-33)
(0.7128699 0.27887232 -2.6790735e-28)
(0.65379513 0.31205873 0)