/*--------------------------------*- C++ -*----------------------------------*\
| =========                 |                                                 |
| \\      /  F ield         | OpenFOAM: The Open Source CFD Toolbox           |
|  \\    /   O peration     | Version:  2106                                  |
|   \\  /    A nd           | Website:  www.openfoam.com                      |
|    \\/     M anipulation  |                                                 |
\*---------------------------------------------------------------------------*/
FoamFile
{
    version     2.0;
    format      ascii;
    arch        "LSB;label=32;scalar=64";
    class       volVectorField;
    location    "0.205";
    object      U_0;
}
// * * * * * * * * * * * * * * * * * * * * * * * * * * * * * * * * * * * * * //

dimensions      [0 1 -1 0 0 0 0];

internalField   nonuniform List<vector> 
32768
(
(-6.2265566e-05 -0.00053691393 0)
(0.0026288608 -0.001363283 0)
(0.0067880829 -0.0017342153 0)
(0.011485591 -0.0019610623 0)
(0.01643778 -0.0020454628 0)
(0.021502595 -0.0020771204 0)
(0.026603229 -0.0020884849 0)
(0.031712702 -0.0020918782 0)
(0.036831487 -0.0021104632 0)
(0.041956819 -0.0021562311 0)
(0.047078068 -0.0022104257 0)
(0.052190999 -0.0022638188 0)
(0.057294871 -0.0023136287 0)
(0.062384962 -0.0023563608 0)
(0.067466538 -0.0023986615 0)
(0.072527275 -0.0024297552 0)
(0.077591257 -0.0024670321 0)
(0.08262659 -0.0024863574 0)
(0.087678372 -0.0025119736 0)
(0.092703994 -0.0025416142 0)
(0.097734899 -0.0025294972 0)
(0.10276739 -0.0026048754 0)
(0.10779796 -0.0025399917 0)
(0.11281381 -0.0026448451 0)
(0.11784677 -0.0025938151 0)
(0.12292904 -0.0026162907 0)
(0.12789594 -0.0026952518 0)
(0.13299158 -0.0026109347 0)
(0.13811904 -0.0026943596 0)
(0.14306194 -0.0027283458 0)
(0.1481772 -0.002651962 0)
(0.15340216 -0.0027412866 0)
(0.15840416 -0.0027787008 0)
(0.16344722 -0.0026987438 0)
(0.16870318 -0.0027609676 0)
(0.17389903 -0.002838039 0)
(0.17896324 -0.0027597958 0)
(0.18406835 -0.0027793983 0)
(0.18930928 -0.0028455026 0)
(0.19460479 -0.0028365644 0)
(0.1997647 -0.0028290744 0)
(0.20482579 -0.002846061 0)
(0.21003104 -0.0028347704 0)
(0.21537348 -0.0028629764 0)
(0.22061061 -0.0029063033 0)
(0.22573851 -0.0028632218 0)
(0.23089485 -0.0028206137 0)
(0.23604271 -0.0028773545 0)
(0.2412433 -0.0029003734 0)
(0.24657807 -0.002867332 0)
(0.25177883 -0.0028856073 0)
(0.25674982 -0.0028388071 0)
(0.26176735 -0.0028184299 0)
(0.26695381 -0.0028648791 0)
(0.27217026 -0.0028702548 0)
(0.27728079 -0.0028639506 0)
(0.28233018 -0.0028166525 0)
(0.28728054 -0.0027765062 0)
(0.29212613 -0.0027903145 0)
(0.29710628 -0.0028142227 0)
(0.30223365 -0.0028055475 0)
(0.30723445 -0.0027866356 0)
(0.31204806 -0.0027630379 0)
(0.31687964 -0.0027224992 0)
(0.32174999 -0.0027277238 0)
(0.32648753 -0.0027212434 0)
(0.33114601 -0.0026841977 0)
(0.33594552 -0.0027170011 0)
(0.34087799 -0.0027308105 0)
(0.34567636 -0.0026659686 0)
(0.35021822 -0.00262828 0)
(0.35470979 -0.0026277904 0)
(0.35931671 -0.0026167266 0)
(0.36394085 -0.0026089755 0)
(0.36848089 -0.0026325013 0)
(0.37302505 -0.0026268221 0)
(0.37764852 -0.0025657016 0)
(0.38221309 -0.0025697994 0)
(0.38659649 -0.0025960233 0)
(0.39094655 -0.0025129252 0)
(0.39537477 -0.0024923419 0)
(0.39976812 -0.0025887936 0)
(0.40414366 -0.0025472934 0)
(0.40854849 -0.0024623515 0)
(0.41284628 -0.0025233305 0)
(0.41708348 -0.0025371983 0)
(0.42146112 -0.0024517213 0)
(0.42590931 -0.0024793587 0)
(0.43019618 -0.0025285073 0)
(0.43431753 -0.0024262666 0)
(0.43841175 -0.0023693673 0)
(0.44254896 -0.0024675532 0)
(0.44678357 -0.0024971571 0)
(0.45105561 -0.0024206233 0)
(0.45519993 -0.002416368 0)
(0.45923974 -0.002450749 0)
(0.46338033 -0.0024108543 0)
(0.46764065 -0.0023878705 0)
(0.47181764 -0.002433855 0)
(0.47585419 -0.0024010139 0)
(0.47981382 -0.0023261124 0)
(0.48368833 -0.0023390225 0)
(0.4875805 -0.0023883966 0)
(0.49163379 -0.0024016364 0)
(0.49578432 -0.0023865718 0)
(0.49986387 -0.0023838913 0)
(0.50381923 -0.0023768103 0)
(0.50773064 -0.0023256999 0)
(0.51166638 -0.0022933448 0)
(0.51559934 -0.0023557684 0)
(0.51952688 -0.0023796961 0)
(0.52347684 -0.0022874895 0)
(0.52735108 -0.0022741578 0)
(0.53107367 -0.0023367736 0)
(0.53480388 -0.0022998092 0)
(0.53864117 -0.0022495506 0)
(0.542499 -0.0022990173 0)
(0.54634395 -0.0023353438 0)
(0.55018933 -0.002264566 0)
(0.55398114 -0.0022217008 0)
(0.55768381 -0.002231657 0)
(0.56138531 -0.0022424737 0)
(0.56516165 -0.0022375816 0)
(0.56894628 -0.002210428 0)
(0.57264514 -0.0021733054 0)
(0.57622922 -0.0021868704 0)
(0.57973357 -0.0021979834 0)
(0.58325755 -0.0021488351 0)
(0.58686309 -0.0021567016 0)
(0.59052687 -0.0022432703 0)
(0.59422923 -0.0022379226 0)
(0.59793856 -0.0021344528 0)
(0.6015573 -0.0021258157 0)
(0.60503439 -0.0021723233 0)
(0.60847431 -0.0021377126 0)
(0.61196138 -0.0020710758 0)
(0.61544553 -0.0020992567 0)
(0.61894051 -0.0021259716 0)
(0.62251461 -0.0021062943 0)
(0.62610948 -0.0020472205 0)
(0.62958848 -0.002051743 0)
(0.6329148 -0.0020495328 0)
(0.63619075 -0.0020421551 0)
(0.63950462 -0.0020609502 0)
(0.6428917 -0.0020831758 0)
(0.64637194 -0.0020849244 0)
(0.64986206 -0.0020753612 0)
(0.65327671 -0.0020426396 0)
(0.6566232 -0.0020073913 0)
(0.65988816 -0.0019976715 0)
(0.66309332 -0.0019945928 0)
(0.66634629 -0.0020012081 0)
(0.66972807 -0.0020325658 0)
(0.67323518 -0.0020386539 0)
(0.67677868 -0.0019990186 0)
(0.68023776 -0.0019758447 0)
(0.68355781 -0.0019465784 0)
(0.68675791 -0.0018992917 0)
(0.68985907 -0.0018900189 0)
(0.69292885 -0.0019200902 0)
(0.69606836 -0.0019449682 0)
(0.69930007 -0.0019621206 0)
(0.7025526 -0.001951645 0)
(0.70578855 -0.0019423566 0)
(0.70905483 -0.001918424 0)
(0.71232287 -0.0019111106 0)
(0.71554648 -0.0019144359 0)
(0.71878139 -0.001892 0)
(0.72203068 -0.0018569631 0)
(0.72525814 -0.0018417141 0)
(0.72844376 -0.0018658193 0)
(0.73156108 -0.0018710365 0)
(0.73461419 -0.0018388967 0)
(0.73764117 -0.0018112374 0)
(0.74068873 -0.0018417175 0)
(0.74375403 -0.0018667585 0)
(0.74680803 -0.0018326545 0)
(0.74989144 -0.0017893505 0)
(0.75303941 -0.00177468 0)
(0.75620326 -0.0017811785 0)
(0.75932377 -0.0017606454 0)
(0.76239496 -0.0016993765 0)
(0.76541758 -0.0016553114 0)
(0.76835926 -0.0016424245 0)
(0.77122621 -0.0016495721 0)
(0.77409175 -0.0016402003 0)
(0.77705402 -0.0016217291 0)
(0.78020263 -0.0016213549 0)
(0.78350624 -0.0016293284 0)
(0.78668558 -0.0015615484 0)
(0.78955936 -0.0014725027 0)
(0.79226513 -0.0014316055 0)
(0.7948115 -0.0014465374 0)
(0.79721462 -0.0014712457 0)
(0.79953704 -0.0014945149 0)
(0.80187261 -0.0015365027 0)
(0.80427294 -0.0015663034 0)
(0.80681479 -0.0015114076 0)
(0.80955629 -0.0013565671 0)
(0.81248567 -0.0011009579 0)
(0.81517892 -0.00082712343 0)
(0.81749345 -0.00065456828 0)
(0.8195904 -0.00061659876 0)
(0.82153384 -0.00067954089 0)
(0.8234509 -0.00079819687 0)
(0.82545347 -0.00090337454 0)
(0.8274575 -0.00094514823 0)
(0.82936189 -0.00099849024 0)
(0.83115395 -0.0010328078 0)
(0.83277457 -0.00091260472 0)
(0.83434822 -0.00071314499 0)
(0.8358101 -0.00023889871 0)
(0.83722558 0.00031607183 0)
(0.83858647 0.00062091573 0)
(0.83989014 0.00075630421 0)
(0.84097135 0.00085359282 0)
(0.84157054 0.00093192937 0)
(0.841637 0.00093230608 0)
(0.8414114 0.00088272711 0)
(0.84096406 0.00087083049 0)
(0.84037454 0.00089815032 0)
(0.83964819 0.00091270759 0)
(0.83882158 0.00088130039 0)
(0.83800326 0.00076908602 0)
(0.8373153 0.00057849761 0)
(0.83680103 0.00033320613 0)
(0.8364361 8.4815608e-05 0)
(0.83623167 -2.2905867e-05 0)
(0.83602534 -0.00011307664 0)
(0.83549821 6.0267096e-05 0)
(0.83437843 0.00043305977 0)
(0.83231357 0.00088572428 0)
(0.82928722 0.001451129 0)
(0.82492089 0.0021007061 0)
(0.81866067 0.0030598571 0)
(0.81025381 0.0046188737 0)
(0.79898542 0.0062420769 0)
(0.78395123 0.0085567565 0)
(0.76547865 0.011063627 0)
(0.74182161 0.014189261 0)
(0.7132698 0.017627389 0)
(0.67868516 0.021787965 0)
(0.63703611 0.026556603 0)
(0.58752053 0.031937937 0)
(0.52743867 0.038290565 0)
(0.45706661 0.045287537 0)
(0.37417415 0.052766356 0)
(0.27971951 0.058239081 0)
(0.17434946 0.062655082 0)
(0.057911491 0.055024474 0)
(-0.041968795 0.042375896 0)
(-0.12587858 0.031688272 0)
(-0.18872091 0.018987383 0)
(-0.21568122 -0.011676197 0)
(-0.16023539 -0.060049741 0)
(-0.07934635 -0.092739345 0)
(-0.0001655113 -0.0019607792 0)
(0.0029187491 -0.0055433641 0)
(0.0080561256 -0.0070212775 0)
(0.013447442 -0.0076966011 0)
(0.019195576 -0.0079653489 0)
(0.02501639 -0.0080672645 0)
(0.030874527 -0.0081034765 0)
(0.036734392 -0.0081054056 0)
(0.042589002 -0.008097144 0)
(0.048399263 -0.008054232 0)
(0.054175397 -0.0079936124 0)
(0.059922142 -0.0079259506 0)
(0.06565117 -0.0078614136 0)
(0.071343636 -0.0077986783 0)
(0.077051085 -0.0077501538 0)
(0.082670682 -0.007696889 0)
(0.088418785 -0.0076555998 0)
(0.093908362 -0.0076498333 0)
(0.099782871 -0.007498647 0)
(0.1050876 -0.0077753722 0)
(0.11110886 -0.0071584646 0)
(0.11628874 -0.0080654432 0)
(0.12237139 -0.0069348882 0)
(0.12755391 -0.0078806361 0)
(0.13346751 -0.0075239763 0)
(0.13916595 -0.00706127 0)
(0.14430302 -0.0079799947 0)
(0.15057282 -0.007359994 0)
(0.15603557 -0.0072361003 0)
(0.16121687 -0.0077731478 0)
(0.16749126 -0.0075709993 0)
(0.17322565 -0.007319216 0)
(0.17832568 -0.0075609552 0)
(0.18429015 -0.0076441059 0)
(0.19035168 -0.007562883 0)
(0.19587855 -0.0075990179 0)
(0.2014215 -0.0073703813 0)
(0.20716211 -0.0076759858 0)
(0.21318372 -0.0077827927 0)
(0.21913565 -0.0075587233 0)
(0.22458961 -0.0073977497 0)
(0.2301049 -0.0076507021 0)
(0.23622409 -0.0077035754 0)
(0.24229928 -0.0076523482 0)
(0.24784873 -0.0075877801 0)
(0.25351991 -0.0075588774 0)
(0.25939097 -0.0073576829 0)
(0.2649579 -0.0075912345 0)
(0.27091424 -0.0078739437 0)
(0.27720107 -0.0074369735 0)
(0.28258242 -0.0074299768 0)
(0.28794122 -0.0072675486 0)
(0.29371715 -0.0074069418 0)
(0.29976168 -0.0076012058 0)
(0.30557785 -0.007422942 0)
(0.31116361 -0.0074800305 0)
(0.31694137 -0.0071641309 0)
(0.32225417 -0.0069949445 0)
(0.32756951 -0.0072078758 0)
(0.33353116 -0.0073822412 0)
(0.3394935 -0.0072484061 0)
(0.34485555 -0.0070496586 0)
(0.35009322 -0.0070923822 0)
(0.35579455 -0.0069710461 0)
(0.36134604 -0.0068436469 0)
(0.3664235 -0.0067887977 0)
(0.37166603 -0.0068343904 0)
(0.37743098 -0.007101548 0)
(0.3832542 -0.0070060684 0)
(0.38844912 -0.0066298279 0)
(0.39329836 -0.0065459837 0)
(0.3985185 -0.0065883998 0)
(0.40399059 -0.0065746334 0)
(0.4092343 -0.0065352707 0)
(0.41427284 -0.0065878451 0)
(0.419561 -0.0066646452 0)
(0.42506296 -0.006539375 0)
(0.43017927 -0.0063430791 0)
(0.43490572 -0.0063806376 0)
(0.44003708 -0.0062851242 0)
(0.44527987 -0.0061613673 0)
(0.45016356 -0.006414684 0)
(0.45531367 -0.0063312055 0)
(0.46047493 -0.0060317076 0)
(0.46513154 -0.0061531331 0)
(0.46997533 -0.0063058378 0)
(0.47539214 -0.0062275885 0)
(0.48062454 -0.0061816078 0)
(0.4852825 -0.0061321709 0)
(0.48991487 -0.0058096715 0)
(0.49470279 -0.0057101323 0)
(0.49955069 -0.0060671949 0)
(0.50464101 -0.0061516923 0)
(0.50961704 -0.0058500507 0)
(0.51416863 -0.0057705185 0)
(0.51872336 -0.0059492393 0)
(0.52379483 -0.0060187892 0)
(0.52894942 -0.00589875 0)
(0.53365385 -0.0059218006 0)
(0.53831249 -0.0056998693 0)
(0.54288309 -0.0054122947 0)
(0.54719298 -0.0054915279 0)
(0.55179634 -0.0056776351 0)
(0.55677918 -0.0058025876 0)
(0.56171824 -0.0058221439 0)
(0.56635252 -0.0056886503 0)
(0.57083086 -0.0055978418 0)
(0.57540315 -0.0055659423 0)
(0.58008309 -0.0055199375 0)
(0.58467942 -0.005552196 0)
(0.58933603 -0.0056974556 0)
(0.59413691 -0.0054495462 0)
(0.59854826 -0.0052295371 0)
(0.60270056 -0.0053499863 0)
(0.60719619 -0.0053703713 0)
(0.61183042 -0.005294382 0)
(0.6163494 -0.0054694618 0)
(0.62090427 -0.0055479606 0)
(0.6254694 -0.0053876951 0)
(0.62986027 -0.0052002769 0)
(0.6341363 -0.0052546867 0)
(0.63861629 -0.0053592689 0)
(0.64326293 -0.0053353844 0)
(0.64779254 -0.0052708428 0)
(0.65217292 -0.0051003601 0)
(0.65630965 -0.0049868288 0)
(0.66031943 -0.0049615896 0)
(0.66454576 -0.0049214511 0)
(0.6689406 -0.0050408332 0)
(0.67333689 -0.0052877725 0)
(0.67782481 -0.0052908931 0)
(0.68235144 -0.0050747955 0)
(0.68661583 -0.0049322489 0)
(0.69061587 -0.004951416 0)
(0.69478294 -0.0048552543 0)
(0.69903534 -0.0047862355 0)
(0.70312991 -0.0049065642 0)
(0.70738348 -0.0050859651 0)
(0.71186752 -0.0050738011 0)
(0.71628276 -0.0049560434 0)
(0.72034143 -0.0047936149 0)
(0.72416182 -0.004693837 0)
(0.72809743 -0.0045623568 0)
(0.73210714 -0.004667051 0)
(0.73629767 -0.0048811493 0)
(0.740686 -0.0049241708 0)
(0.74489482 -0.0048783018 0)
(0.74899933 -0.004783733 0)
(0.75304668 -0.0045996714 0)
(0.75684905 -0.0044809358 0)
(0.76058835 -0.0045499617 0)
(0.7644869 -0.0047187197 0)
(0.76869105 -0.0048543193 0)
(0.77315617 -0.0050428004 0)
(0.77759138 -0.005097364 0)
(0.78177074 -0.0048797087 0)
(0.78580213 -0.0046201558 0)
(0.78972386 -0.0043940979 0)
(0.7934159 -0.0043297316 0)
(0.79714575 -0.004352682 0)
(0.80106444 -0.0044398325 0)
(0.80510448 -0.0045493182 0)
(0.80900762 -0.0045528997 0)
(0.812902 -0.004653613 0)
(0.81699226 -0.0046242365 0)
(0.82092193 -0.004623611 0)
(0.82485815 -0.0046302103 0)
(0.82895272 -0.0046636181 0)
(0.83299435 -0.0046743593 0)
(0.83706858 -0.0045920719 0)
(0.8410972 -0.0044782716 0)
(0.84501508 -0.0043456621 0)
(0.84881567 -0.004316113 0)
(0.85258906 -0.0043116309 0)
(0.85646933 -0.0042613337 0)
(0.86029695 -0.0043078489 0)
(0.86405318 -0.0043721177 0)
(0.86795039 -0.0044834257 0)
(0.87198168 -0.0045333376 0)
(0.87599906 -0.0045056307 0)
(0.87996601 -0.004487404 0)
(0.8838957 -0.0044867124 0)
(0.88770069 -0.0043597026 0)
(0.89129379 -0.004182657 0)
(0.89479425 -0.0041337935 0)
(0.89833136 -0.0042597221 0)
(0.90212292 -0.0045403864 0)
(0.90642439 -0.0048276612 0)
(0.91104149 -0.0048489081 0)
(0.91559691 -0.0045750388 0)
(0.919942 -0.0042369391 0)
(0.9239472 -0.0038837368 0)
(0.92745685 -0.0035256592 0)
(0.93062384 -0.0033025603 0)
(0.9337102 -0.0031552428 0)
(0.93672391 -0.0031625988 0)
(0.93974935 -0.0034243136 0)
(0.94308343 -0.0038511249 0)
(0.946837 -0.0043350839 0)
(0.95101141 -0.0045595433 0)
(0.95547256 -0.0042494514 0)
(0.95983641 -0.0037823042 0)
(0.96382279 -0.0034297836 0)
(0.96736341 -0.0032438511 0)
(0.97062832 -0.0032550222 0)
(0.97392077 -0.0032141492 0)
(0.97731783 -0.003009723 0)
(0.98059928 -0.0026868741 0)
(0.98361553 -0.0023592252 0)
(0.98632466 -0.0021500017 0)
(0.98877009 -0.0023203752 0)
(0.99118353 -0.0026797927 0)
(0.99394346 -0.0030453071 0)
(0.99724637 -0.0032504418 0)
(1.0009915 -0.0031595578 0)
(1.0051534 -0.002594532 0)
(1.0096641 -0.0016928823 0)
(1.0142964 -0.00076640284 0)
(1.0181496 -0.00020146514 0)
(1.0213166 0.00013043045 0)
(1.0238986 0.00040704643 0)
(1.0258035 0.00065097373 0)
(1.0269851 0.00076151386 0)
(1.0275992 0.00071726988 0)
(1.0276756 0.00055775397 0)
(1.0278761 0.00048510712 0)
(1.0278614 0.00042269208 0)
(1.0285184 0.00040755295 0)
(1.0285823 0.00077088036 0)
(1.0286678 0.001525043 0)
(1.0280366 0.0025415789 0)
(1.0275134 0.0043220019 0)
(1.0246597 0.0053436576 0)
(1.0222599 0.0086805338 0)
(1.0167418 0.011666476 0)
(1.0105658 0.013979265 0)
(0.99980333 0.020737279 0)
(0.98487137 0.023656664 0)
(0.97025082 0.031747438 0)
(0.94328662 0.037367997 0)
(0.92438041 0.046774753 0)
(0.88776667 0.054101635 0)
(0.85909112 0.066225414 0)
(0.81257026 0.07879335 0)
(0.76508209 0.094353546 0)
(0.7070699 0.10937431 0)
(0.63775859 0.12634886 0)
(0.56757037 0.14604927 0)
(0.47688262 0.1591382 0)
(0.38572577 0.1686682 0)
(0.25441614 0.15347747 0)
(0.1289197 0.1154747 0)
(0.02343285 0.061884089 0)
(-0.04321517 0.00078521732 0)
(-0.063587276 -0.091195514 0)
(-0.026724166 -0.17066493 0)
(-0.00015927571 -0.0032721909 0)
(0.0029178367 -0.009642335 0)
(0.0079669618 -0.012186547 0)
(0.013306537 -0.013224732 0)
(0.01900692 -0.01365054 0)
(0.024778927 -0.013814313 0)
(0.030578601 -0.013861632 0)
(0.036386436 -0.013859217 0)
(0.042184188 -0.013833859 0)
(0.047968916 -0.013801143 0)
(0.053741046 -0.013768666 0)
(0.059495923 -0.013741029 0)
(0.06524704 -0.01371826 0)
(0.070958865 -0.013703624 0)
(0.076725133 -0.01368423 0)
(0.082333072 -0.013690621 0)
(0.088234927 -0.013641251 0)
(0.093559223 -0.013733596 0)
(0.099829403 -0.013528616 0)
(0.10466863 -0.013929757 0)
(0.11136342 -0.013235927 0)
(0.1159786 -0.014314987 0)
(0.12249602 -0.012981788 0)
(0.12769025 -0.014255163 0)
(0.13341259 -0.013668178 0)
(0.13933256 -0.013289346 0)
(0.14463061 -0.014389464 0)
(0.15065103 -0.013641214 0)
(0.15620677 -0.01351705 0)
(0.16175789 -0.014102197 0)
(0.16775614 -0.014213632 0)
(0.17338565 -0.013638839 0)
(0.17889659 -0.013733436 0)
(0.18488033 -0.014389874 0)
(0.19064107 -0.014300648 0)
(0.19635447 -0.013863411 0)
(0.20209908 -0.013613535 0)
(0.20772896 -0.014653212 0)
(0.21389321 -0.014565346 0)
(0.21972263 -0.014019078 0)
(0.22515628 -0.013680334 0)
(0.23088781 -0.014446388 0)
(0.23725149 -0.014648438 0)
(0.24308402 -0.014407407 0)
(0.24837076 -0.014065788 0)
(0.25444521 -0.014145411 0)
(0.26038859 -0.013978047 0)
(0.26607621 -0.014449054 0)
(0.2719032 -0.014921214 0)
(0.27805043 -0.014149919 0)
(0.28345936 -0.013785967 0)
(0.28907217 -0.013575657 0)
(0.29499853 -0.01451942 0)
(0.30109131 -0.014586567 0)
(0.30666116 -0.014028265 0)
(0.31214264 -0.014213683 0)
(0.31820351 -0.01356695 0)
(0.32355397 -0.01325293 0)
(0.32882638 -0.013996798 0)
(0.33501214 -0.014522155 0)
(0.34111244 -0.01386497 0)
(0.34617165 -0.013325283 0)
(0.35123871 -0.013589072 0)
(0.35711657 -0.013647101 0)
(0.36292402 -0.01326881 0)
(0.36815077 -0.012894604 0)
(0.37319714 -0.013460824 0)
(0.37905718 -0.01424779 0)
(0.38515761 -0.013512117 0)
(0.389999 -0.012538088 0)
(0.39449209 -0.012657046 0)
(0.40006205 -0.013110304 0)
(0.40598228 -0.013078306 0)
(0.41125949 -0.012785997 0)
(0.41611043 -0.012933257 0)
(0.42142191 -0.013212606 0)
(0.42700853 -0.01288241 0)
(0.43195407 -0.01241824 0)
(0.43664183 -0.012435487 0)
(0.44193772 -0.012447105 0)
(0.44711108 -0.012486635 0)
(0.45217262 -0.012798327 0)
(0.45769272 -0.012435638 0)
(0.46268875 -0.012039094 0)
(0.46720798 -0.012217762 0)
(0.47224806 -0.012562919 0)
(0.47757176 -0.012676198 0)
(0.48259432 -0.012485174 0)
(0.48740682 -0.011869204 0)
(0.49211441 -0.011394947 0)
(0.49672209 -0.011807908 0)
(0.50183114 -0.012578659 0)
(0.50747717 -0.012343911 0)
(0.51244056 -0.011630948 0)
(0.51661601 -0.011534683 0)
(0.52109661 -0.012060961 0)
(0.52625048 -0.012293923 0)
(0.53127279 -0.012089131 0)
(0.5360108 -0.011915836 0)
(0.54090489 -0.011356984 0)
(0.5454078 -0.010930778 0)
(0.5496879 -0.011284124 0)
(0.55453508 -0.011831144 0)
(0.55977325 -0.012074025 0)
(0.56485015 -0.011856441 0)
(0.56937795 -0.011445672 0)
(0.57361745 -0.011245539 0)
(0.57812027 -0.011358056 0)
(0.58279891 -0.011450892 0)
(0.5872948 -0.011599868 0)
(0.5921297 -0.011644347 0)
(0.59721246 -0.011158589 0)
(0.60153127 -0.010865669 0)
(0.6057226 -0.010999587 0)
(0.61047197 -0.011053943 0)
(0.61506174 -0.011192016 0)
(0.61946099 -0.011469985 0)
(0.62418616 -0.01135723 0)
(0.62886333 -0.010976803 0)
(0.63309576 -0.010797819 0)
(0.63725108 -0.011006177 0)
(0.64180309 -0.011266451 0)
(0.64655862 -0.011260925 0)
(0.65120309 -0.010974335 0)
(0.65560235 -0.010589553 0)
(0.6597244 -0.010377956 0)
(0.66383179 -0.010304257 0)
(0.668008 -0.010420887 0)
(0.67229153 -0.010916436 0)
(0.67685433 -0.011222082 0)
(0.68153982 -0.010979324 0)
(0.68601513 -0.010599274 0)
(0.69022558 -0.010435528 0)
(0.69437009 -0.010343523 0)
(0.69863816 -0.01018407 0)
(0.7028738 -0.010182729 0)
(0.70696827 -0.010534965 0)
(0.71131416 -0.010780163 0)
(0.71589129 -0.010674662 0)
(0.72027641 -0.010349955 0)
(0.72426693 -0.0099752256 0)
(0.72802644 -0.0096988212 0)
(0.73176185 -0.0096725147 0)
(0.73561663 -0.01006933 0)
(0.73995207 -0.010612086 0)
(0.74463477 -0.010619841 0)
(0.74909528 -0.010339304 0)
(0.75345193 -0.01010214 0)
(0.7576982 -0.0097404552 0)
(0.76139914 -0.0094456876 0)
(0.76501015 -0.0095977962 0)
(0.76897627 -0.010057425 0)
(0.77302588 -0.010459451 0)
(0.77727993 -0.010661071 0)
(0.78181517 -0.010602796 0)
(0.78611334 -0.010230291 0)
(0.79011076 -0.0096984774 0)
(0.79394446 -0.0092800824 0)
(0.79764605 -0.0093675002 0)
(0.80162584 -0.0095753049 0)
(0.8057054 -0.0097406366 0)
(0.80984753 -0.0097218334 0)
(0.81400655 -0.0096991329 0)
(0.81809028 -0.0099031259 0)
(0.82211574 -0.0097196247 0)
(0.82582148 -0.0095955123 0)
(0.82958243 -0.0097755277 0)
(0.83353933 -0.0098776957 0)
(0.83748054 -0.0099104235 0)
(0.84167728 -0.009861988 0)
(0.8458171 -0.0096643331 0)
(0.84972859 -0.009430281 0)
(0.85376127 -0.0093411796 0)
(0.85785592 -0.0094290461 0)
(0.86184559 -0.009418742 0)
(0.86570487 -0.0092635992 0)
(0.86936649 -0.0093852268 0)
(0.8732548 -0.0097050094 0)
(0.87747887 -0.0097776457 0)
(0.88150508 -0.0096272643 0)
(0.88550515 -0.0094421165 0)
(0.88969048 -0.0093098187 0)
(0.89375834 -0.0089781828 0)
(0.89739414 -0.0085757332 0)
(0.90070453 -0.0085062208 0)
(0.90393948 -0.0088564955 0)
(0.90738821 -0.0096880498 0)
(0.91140299 -0.010508818 0)
(0.91578284 -0.010700369 0)
(0.92017976 -0.010258928 0)
(0.92474962 -0.0095489813 0)
(0.92927427 -0.0087239212 0)
(0.93319058 -0.0080502935 0)
(0.93684859 -0.007724219 0)
(0.94058085 -0.0075647041 0)
(0.94409964 -0.0075102185 0)
(0.94736978 -0.0078472709 0)
(0.95072431 -0.0084911196 0)
(0.95436185 -0.009228624 0)
(0.95830577 -0.0097177815 0)
(0.96238455 -0.0095316927 0)
(0.96637036 -0.0088426353 0)
(0.97007565 -0.0079981755 0)
(0.97351261 -0.0073497161 0)
(0.97677636 -0.007240957 0)
(0.97996318 -0.0074431071 0)
(0.98346826 -0.0075133173 0)
(0.98707695 -0.0073150751 0)
(0.99055729 -0.0068461435 0)
(0.9940415 -0.0062085586 0)
(0.99749839 -0.0057171971 0)
(1.0006183 -0.0055778755 0)
(1.0034445 -0.0058098134 0)
(1.0060781 -0.0064134241 0)
(1.0089847 -0.0072007048 0)
(1.0125296 -0.0078383251 0)
(1.01652 -0.0079630573 0)
(1.0207241 -0.0072916221 0)
(1.0248561 -0.0061210905 0)
(1.028794 -0.0048943053 0)
(1.0323285 -0.0036586215 0)
(1.0350951 -0.0022313373 0)
(1.0368899 -0.0008858473 0)
(1.037993 2.9589128e-05 0)
(1.0388872 0.00035378895 0)
(1.039906 0.00011940261 0)
(1.0412392 -0.00042674243 0)
(1.0426964 -0.00056285816 0)
(1.0430976 -0.00038910098 0)
(1.0437031 0.00060752935 0)
(1.0425108 0.0017202781 0)
(1.0413718 0.0038513662 0)
(1.0380828 0.0063327664 0)
(1.0360863 0.0094580237 0)
(1.0315368 0.014291039 0)
(1.0281187 0.021012406 0)
(1.0179362 0.0297117 0)
(1.0079486 0.038532271 0)
(0.99380697 0.049485567 0)
(0.97344848 0.060184207 0)
(0.95602827 0.070288775 0)
(0.92760981 0.085529005 0)
(0.90367026 0.099636191 0)
(0.86258521 0.1227112 0)
(0.82903697 0.14197727 0)
(0.78082279 0.16677206 0)
(0.72268136 0.1880497 0)
(0.67180076 0.20376936 0)
(0.60058902 0.23150479 0)
(0.53379718 0.25118285 0)
(0.45872594 0.25874194 0)
(0.3798763 0.239073 0)
(0.27761623 0.20068521 0)
(0.19750641 0.094498338 0)
(0.1206877 -0.059729623 0)
(0.051274149 -0.15612769 0)
(-0.00013920596 -0.0046496901 0)
(0.0029578396 -0.013734033 0)
(0.0080140657 -0.017341354 0)
(0.013371171 -0.018806625 0)
(0.019091054 -0.019404538 0)
(0.024878167 -0.019631052 0)
(0.030692511 -0.019696252 0)
(0.036509776 -0.019688268 0)
(0.04231821 -0.01964913 0)
(0.048111718 -0.019596851 0)
(0.053889678 -0.019537925 0)
(0.059648887 -0.019477512 0)
(0.065399281 -0.019413806 0)
(0.071116324 -0.019358263 0)
(0.076862828 -0.019284811 0)
(0.082498419 -0.019266015 0)
(0.08832073 -0.019139777 0)
(0.093760352 -0.019249284 0)
(0.099822423 -0.018938678 0)
(0.10491242 -0.019359265 0)
(0.11130219 -0.018654492 0)
(0.11615707 -0.019572117 0)
(0.12251687 -0.018453985 0)
(0.12770716 -0.019474355 0)
(0.13352101 -0.018955501 0)
(0.13922837 -0.018682103 0)
(0.14477789 -0.019585945 0)
(0.15059021 -0.018864735 0)
(0.15604715 -0.018877395 0)
(0.16196464 -0.019335166 0)
(0.16767559 -0.019437778 0)
(0.17309696 -0.018852439 0)
(0.17900268 -0.019024463 0)
(0.18497899 -0.019776135 0)
(0.1904274 -0.01935666 0)
(0.19605202 -0.01907305 0)
(0.20223765 -0.018976798 0)
(0.20775448 -0.020085622 0)
(0.21379651 -0.019540335 0)
(0.21930636 -0.019279585 0)
(0.22514984 -0.018830158 0)
(0.23093939 -0.019989483 0)
(0.23732237 -0.019951045 0)
(0.24282634 -0.019298816 0)
(0.24797645 -0.01908017 0)
(0.25448554 -0.019662654 0)
(0.26031564 -0.019432181 0)
(0.26628258 -0.019458713 0)
(0.27180484 -0.019784831 0)
(0.27748716 -0.019378902 0)
(0.28323467 -0.018904255 0)
(0.28923389 -0.01865961 0)
(0.29509154 -0.020010439 0)
(0.30115298 -0.019377867 0)
(0.30639085 -0.018736762 0)
(0.31163561 -0.019342883 0)
(0.31800718 -0.018619757 0)
(0.32366243 -0.018040415 0)
(0.32896097 -0.018998431 0)
(0.33502941 -0.01972491 0)
(0.34093969 -0.018666824 0)
(0.34579112 -0.017617946 0)
(0.35083635 -0.018100439 0)
(0.35692711 -0.018909392 0)
(0.36308234 -0.018253291 0)
(0.36837504 -0.017133272 0)
(0.37297161 -0.018157448 0)
(0.37876831 -0.019335916 0)
(0.38495622 -0.017945745 0)
(0.38969172 -0.016433044 0)
(0.39414936 -0.01692393 0)
(0.39989397 -0.018114425 0)
(0.40606254 -0.018102782 0)
(0.41139047 -0.017045575 0)
(0.41593092 -0.016969734 0)
(0.42101411 -0.01762862 0)
(0.42666514 -0.017369431 0)
(0.43163686 -0.016445665 0)
(0.43645678 -0.016400142 0)
(0.44179392 -0.016796291 0)
(0.44681735 -0.017044413 0)
(0.45204497 -0.017168085 0)
(0.45769502 -0.016661316 0)
(0.46239227 -0.016151198 0)
(0.46686245 -0.016091525 0)
(0.4721485 -0.016473972 0)
(0.47730811 -0.016884776 0)
(0.48205384 -0.016657967 0)
(0.48702608 -0.015554418 0)
(0.49191918 -0.015129041 0)
(0.49647198 -0.016081004 0)
(0.50167008 -0.017124211 0)
(0.50746349 -0.016569173 0)
(0.51227059 -0.015315336 0)
(0.51620248 -0.014905296 0)
(0.52074293 -0.015662765 0)
(0.52605983 -0.01621132 0)
(0.53085048 -0.01613223 0)
(0.535508 -0.015795707 0)
(0.54061937 -0.015031662 0)
(0.54503375 -0.014530049 0)
(0.54928091 -0.014981373 0)
(0.55436277 -0.015830491 0)
(0.5597698 -0.016306937 0)
(0.56475291 -0.015661247 0)
(0.56914211 -0.014745438 0)
(0.57330563 -0.014436083 0)
(0.57774299 -0.014783612 0)
(0.58226371 -0.014990971 0)
(0.58667277 -0.015353037 0)
(0.59164926 -0.015408036 0)
(0.59675036 -0.014912173 0)
(0.60112693 -0.014414879 0)
(0.60566608 -0.014414461 0)
(0.61058057 -0.014416987 0)
(0.61491992 -0.014772455 0)
(0.61908028 -0.015084281 0)
(0.62382776 -0.014847395 0)
(0.62853501 -0.014308706 -1.2867827e-34)
(0.63267832 -0.014099888 -6.9034945e-30)
(0.63683834 -0.014257862 0)
(0.64143228 -0.014752143 0)
(0.64608542 -0.014928157 0)
(0.65068866 -0.014555465 0)
(0.65515687 -0.013853408 0)
(0.65939896 -0.013476617 0)
(0.66369096 -0.013234611 0)
(0.66784967 -0.013582363 0)
(0.67200189 -0.014373563 -1.1677906e-34)
(0.67664285 -0.014717594 -7.1023012e-30)
(0.68137309 -0.014330679 -1.2649146e-34)
(0.68560126 -0.014003717 -6.3683553e-30)
(0.68962156 -0.01372905 0)
(0.69403336 -0.013425215 0)
(0.69848581 -0.013289204 0)
(0.70254514 -0.013396818 0)
(0.70666201 -0.01369015 0)
(0.71113869 -0.014036143 0)
(0.71553255 -0.014046419 -1.1429826e-34)
(0.71972683 -0.013565913 -6.0853342e-30)
(0.72385058 -0.012804924 0)
(0.72785487 -0.012316039 0)
(0.73150216 -0.012326849 0)
(0.73512179 -0.01307373 0)
(0.73945349 -0.014002114 0)
(0.74408479 -0.014256303 0)
(0.74853469 -0.013888549 0)
(0.7531953 -0.013430081 0)
(0.75765205 -0.012715751 0)
(0.76148298 -0.012133133 0)
(0.76514075 -0.012248022 -1.052377e-34)
(0.76890795 -0.012812174 -5.9690011e-30)
(0.77280975 -0.013506988 0)
(0.7768956 -0.013994824 0)
(0.78103424 -0.013885922 0)
(0.78542348 -0.013275389 0)
(0.78971442 -0.01260218 0)
(0.79343094 -0.011994811 0)
(0.79709243 -0.012074706 0)
(0.80115919 -0.012512005 0)
(0.80527885 -0.012966913 9.8047138e-35)
(0.80945364 -0.012959311 5.247359e-30)
(0.81375783 -0.012889859 0)
(0.81816955 -0.012959212 0)
(0.82235354 -0.012535817 9.4483806e-35)
(0.82580315 -0.012265785 5.0181567e-30)
(0.82940718 -0.012443431 0)
(0.83334832 -0.012553667 0)
(0.83698176 -0.012860166 0)
(0.84081934 -0.012960671 0)
(0.84511954 -0.012623098 8.8959768e-35)
(0.84932395 -0.012427257 4.8340114e-30)
(0.85340444 -0.012435096 0)
(0.85758716 -0.012402776 0)
(0.86187829 -0.012305247 0)
(0.86588133 -0.011967276 0)
(0.86953996 -0.01198574 0)
(0.87316058 -0.012604991 0)
(0.87688548 -0.012890562 0)
(0.88071792 -0.012813703 0)
(0.88482815 -0.01287382 0)
(0.88899332 -0.012710353 0)
(0.89307073 -0.011952644 0)
(0.89695422 -0.011222728 0)
(0.90076341 -0.010780937 0)
(0.90451231 -0.010847097 0)
(0.90793115 -0.011938718 0)
(0.91133052 -0.013212279 0)
(0.91511258 -0.013737986 0)
(0.91916077 -0.013799104 0)
(0.92359454 -0.013469508 0)
(0.92801263 -0.012301212 0)
(0.93217663 -0.011137094 0)
(0.9363927 -0.010636554 0)
(0.94067822 -0.010413933 0)
(0.94477539 -0.010173429 0)
(0.94859581 -0.010257946 0)
(0.95223223 -0.010879276 0)
(0.95578984 -0.011904191 0)
(0.95933213 -0.012554337 0)
(0.96274759 -0.012337923 0)
(0.96598189 -0.01150481 0)
(0.96897529 -0.010594515 0)
(0.97202842 -0.010086548 0)
(0.97529253 -0.0098755446 0)
(0.9787993 -0.0099948792 0)
(0.98238049 -0.010061317 0)
(0.98606172 -0.0096992917 0)
(0.98987403 -0.0091576212 0)
(0.99352691 -0.0088735907 0)
(0.99704359 -0.0087847083 0)
(1.0006849 -0.0085789474 0)
(1.0043586 -0.0084096198 -2.6460078e-35)
(1.0079597 -0.0088102074 -1.2033569e-30)
(1.0115563 -0.0097519174 0)
(1.0149535 -0.010396777 0)
(1.0179539 -0.010190121 0)
(1.0208104 -0.0093662874 0)
(1.0238266 -0.0083275175 0)
(1.0269797 -0.0072622304 0)
(1.0299864 -0.00585742 0)
(1.0326864 -0.0039578177 0)
(1.0351482 -0.0022218691 0)
(1.0375289 -0.0013885665 0)
(1.0399182 -0.0014844597 0)
(1.042561 -0.0020359823 0)
(1.0450986 -0.002440133 0)
(1.0475182 -0.0017918874 0)
(1.0486567 -0.00033450989 0)
(1.0493472 0.0024578254 0)
(1.0474296 0.0045417832 4.601624e-34)
(1.0456772 0.0082012585 3.2142075e-29)
(1.0410788 0.010769294 0)
(1.0382671 0.014594448 0)
(1.0330531 0.020237955 0)
(1.0278742 0.026835876 0)
(1.0214974 0.040481286 0)
(1.0125523 0.049865866 0)
(1.0013941 0.065199056 0)
(0.98876653 0.079849551 0)
(0.97111785 0.094046272 0)
(0.95333247 0.11207275 0)
(0.9252301 0.13830306 0)
(0.89208803 0.16160243 0)
(0.86431207 0.1881154 4.6999937e-33)
(0.81049299 0.22784363 2.7628002e-28)
(0.77603924 0.25263875 -5.0293399e-33)
(0.71322773 0.27902436 -2.6844507e-28)
(0.65459468 0.31207695 0)