/*--------------------------------*- C++ -*----------------------------------*\
| =========                 |                                                 |
| \\      /  F ield         | OpenFOAM: The Open Source CFD Toolbox           |
|  \\    /   O peration     | Version:  2306                                  |
|   \\  /    A nd           | Website:  www.openfoam.com                      |
|    \\/     M anipulation  |                                                 |
\*---------------------------------------------------------------------------*/
FoamFile
{
    version     2.0;
    format      ascii;
    arch        "LSB;label=32;scalar=64";
    class       surfaceScalarField;
    location    "0.5";
    object      phi_0;
}
// * * * * * * * * * * * * * * * * * * * * * * * * * * * * * * * * * * * * * //

dimensions      [0 3 -1 0 0 0 0];

oriented        oriented;

internalField   nonuniform List<scalar> 
12640
(
1.3960503e-09
-1.3960504e-09
5.602274e-09
-4.2062237e-09
1.2462663e-08
-6.8603893e-09
2.1881669e-08
-9.4190061e-09
3.3781079e-08
-1.1899409e-08
4.8100592e-08
-1.4319513e-08
6.4785748e-08
-1.6685157e-08
8.3771994e-08
-1.8986246e-08
1.0498209e-07
-2.1210092e-08
1.2832598e-07
-2.3343898e-08
1.5370185e-07
-2.5375863e-08
1.8099705e-07
-2.7295202e-08
2.1008956e-07
-2.9092512e-08
2.4084881e-07
-3.0759242e-08
2.731368e-07
-3.2287998e-08
3.0680929e-07
-3.3672491e-08
3.4171608e-07
-3.490679e-08
3.7770211e-07
-3.5986022e-08
4.1460837e-07
-3.6906266e-08
4.5227302e-07
-3.7664643e-08
4.9053249e-07
-3.825947e-08
5.2922066e-07
-3.8688175e-08
5.681723e-07
-3.8951643e-08
6.0722124e-07
-3.9048938e-08
6.4620377e-07
-3.8982532e-08
6.8495663e-07
-3.875286e-08
7.2331995e-07
-3.8363316e-08
7.6113606e-07
-3.7816115e-08
7.982569e-07
-3.7120832e-08
8.3453437e-07
-3.6277465e-08
8.6983002e-07
-3.5295654e-08
9.0400903e-07
-3.4179014e-08
9.3694651e-07
-3.293748e-08
9.6852936e-07
-3.1582845e-08
9.9865411e-07
-3.0124747e-08
1.0272254e-06
-2.8571277e-08
1.0541332e-06
-2.6907845e-08
1.0792839e-06
-2.5150673e-08
1.1026082e-06
-2.3324282e-08
1.1240469e-06
-2.1438677e-08
1.1435474e-06
-1.9500576e-08
1.1610499e-06
-1.7502451e-08
1.1764951e-06
-1.5445207e-08
1.1898766e-06
-1.3381533e-08
1.2011759e-06
-1.1299267e-08
1.2103827e-06
-9.2068475e-09
1.2174985e-06
-7.1157402e-09
1.2225284e-06
-5.0299396e-09
1.2254714e-06
-2.9429968e-09
1.2263072e-06
-8.357357e-10
1.2251597e-06
1.1474089e-09
1.2220956e-06
3.0641218e-09
1.2171288e-06
4.9668187e-09
1.2102901e-06
6.8386659e-09
1.2016537e-06
8.6364534e-09
1.191275e-06
1.0378657e-08
1.1792262e-06
1.2048797e-08
1.1655736e-06
1.3652626e-08
1.1504138e-06
1.5159768e-08
1.1338221e-06
1.6591754e-08
1.1158869e-06
1.7935167e-08
1.0966946e-06
1.9192306e-08
1.076334e-06
2.0360572e-08
1.0548962e-06
2.1437858e-08
1.0324647e-06
2.2431509e-08
1.0091414e-06
2.33233e-08
9.8501335e-07
2.4128017e-08
9.6016901e-07
2.4844326e-08
9.3470395e-07
2.5465068e-08
9.0870327e-07
2.6000674e-08
8.8225376e-07
2.644952e-08
8.5543999e-07
2.6813762e-08
8.2834563e-07
2.7094368e-08
8.010531e-07
2.729253e-08
7.7361147e-07
2.7441632e-08
7.4612744e-07
2.7484027e-08
7.1866334e-07
2.7464101e-08
6.9128358e-07
2.7379764e-08
6.6405348e-07
2.7230095e-08
2.7024891e-08
2.1830329e-09
-3.5790832e-09
8.5308871e-09
-1.0554078e-08
1.887185e-08
-1.7201352e-08
3.2989796e-08
-2.3536951e-08
5.074102e-08
-2.9650634e-08
7.2018648e-08
-3.5597141e-08
9.6712931e-08
-4.137944e-08
1.2470148e-07
-4.69748e-08
1.5584225e-07
-5.2350855e-08
1.8997175e-07
-5.7473407e-08
2.2690624e-07
-6.2310353e-08
2.6644299e-07
-6.6831952e-08
3.0836256e-07
-7.1012073e-08
3.5243043e-07
-7.4827115e-08
3.9840031e-07
-7.8257882e-08
4.4601434e-07
-8.1286518e-08
4.9500564e-07
-8.3898092e-08
5.4509949e-07
-8.607987e-08
5.9601636e-07
-8.7823136e-08
6.4747155e-07
-8.911983e-08
6.9917996e-07
-8.9967879e-08
7.5085353e-07
-9.0361747e-08
8.0220758e-07
-9.03057e-08
8.529578e-07
-8.9799157e-08
9.0282612e-07
-8.8850846e-08
9.515397e-07
-8.7466445e-08
9.9883251e-07
-8.5656122e-08
1.0444462e-06
-8.3429839e-08
1.0881409e-06
-8.081547e-08
1.1296788e-06
-7.7815362e-08
1.1688444e-06
-7.4461292e-08
1.2054239e-06
-7.0758493e-08
1.2392343e-06
-6.6747865e-08
1.2700964e-06
-6.2444951e-08
1.2978363e-06
-5.7864643e-08
1.3223136e-06
-5.3048654e-08
1.3433981e-06
-4.799232e-08
1.3609889e-06
-4.2741442e-08
1.3750042e-06
-3.7339548e-08
1.3853771e-06
-3.1811651e-08
1.3920657e-06
-2.6189177e-08
1.3950221e-06
-2.0458836e-08
1.3941924e-06
-1.4615477e-08
1.3896257e-06
-8.8148707e-09
1.3813781e-06
-3.051613e-09
1.3693991e-06
2.7720634e-09
1.3537129e-06
8.5704951e-09
1.3344401e-06
1.4242905e-08
1.3116864e-06
1.9810685e-08
1.2855927e-06
2.5257954e-08
1.2561737e-06
3.0566405e-08
1.2235404e-06
3.56974e-08
1.1878632e-06
4.0644049e-08
1.1492925e-06
4.5409385e-08
1.1079935e-06
4.9935449e-08
1.0641175e-06
5.4254619e-08
1.0178452e-06
5.8321094e-08
9.6930911e-07
6.2188731e-08
9.1873877e-07
6.5730101e-08
8.663232e-07
6.900734e-08
8.1222889e-07
7.2029472e-08
7.5664581e-07
7.4775384e-08
6.9976148e-07
7.7244916e-08
6.4176654e-07
7.9432783e-08
5.8287587e-07
8.1322177e-08
5.2324391e-07
8.2955263e-08
4.630638e-07
8.4308124e-08
4.0252575e-07
8.5382368e-08
3.4179437e-07
8.6196439e-08
2.8104465e-07
8.67504e-08
2.2044327e-07
8.7050912e-08
1.6015488e-07
8.7102143e-08
1.0032627e-07
8.6922959e-08
4.1096563e-08
8.6522256e-08
-1.733468e-08
8.5872858e-08
-7.4910871e-08
8.5060224e-08
-1.3149296e-07
8.4046193e-08
-1.8695983e-07
8.2846629e-08
-2.4120249e-07
8.1472759e-08
7.9942694e-08
1.970617e-09
-5.5497002e-09
7.7158058e-09
-1.6299267e-08
1.710172e-08
-2.6587266e-08
2.9936088e-08
-3.6371319e-08
4.6068316e-08
-4.5782862e-08
6.5364609e-08
-5.4893434e-08
8.7686479e-08
-6.3701309e-08
1.1288342e-07
-7.2171741e-08
1.407865e-07
-8.025394e-08
1.7120638e-07
-8.7893282e-08
2.039336e-07
-9.5037574e-08
2.3873898e-07
-1.0163733e-07
2.7537608e-07
-1.0764918e-07
3.1358239e-07
-1.1303343e-07
3.5308414e-07
-1.1775963e-07
3.9359391e-07
-1.2179629e-07
4.3481621e-07
-1.2512039e-07
4.7644761e-07
-1.2771127e-07
5.1818255e-07
-1.2955808e-07
5.5970752e-07
-1.3064479e-07
6.0071275e-07
-1.3097311e-07
6.4089003e-07
-1.3053902e-07
6.7993013e-07
-1.293458e-07
7.1752949e-07
-1.2739851e-07
7.5339673e-07
-1.2471809e-07
7.8724263e-07
-1.2131234e-07
8.1879317e-07
-1.1720666e-07
8.4777218e-07
-1.1240886e-07
8.7394266e-07
-1.0698594e-07
8.9705678e-07
-1.0092948e-07
9.1690878e-07
-9.4313304e-08
9.3328315e-07
-8.713286e-08
9.4601552e-07
-7.9480222e-08
9.5493279e-07
-7.1362231e-08
9.5990019e-07
-6.283204e-08
9.6079485e-07
-5.3943315e-08
9.5750836e-07
-4.4705832e-08
9.4997466e-07
-3.5207744e-08
9.3813286e-07
-2.5497742e-08
9.2197202e-07
-1.5650803e-08
9.0153717e-07
-5.7543268e-09
8.7669925e-07
4.379075e-09
8.4745547e-07
1.4628309e-08
8.1391037e-07
2.4730226e-08
7.7609468e-07
3.4764082e-08
7.342229e-07
4.4643838e-08
6.8837094e-07
5.4422447e-08
6.3866072e-07
6.3953129e-08
5.8523098e-07
7.3240419e-08
5.2822668e-07
8.2262255e-08
4.6783312e-07
9.0959977e-08
4.0422045e-07
9.9310069e-08
3.375812e-07
1.072833e-07
2.6817053e-07
1.1482006e-07
1.9614611e-07
1.2195987e-07
1.217729e-07
1.2862784e-07
4.5261806e-08
1.3483218e-07
-3.305401e-08
1.4050454e-07
-1.130703e-07
1.457464e-07
-1.9451457e-07
1.504516e-07
-2.7712988e-07
1.5464479e-07
-3.60667e-07
1.5831249e-07
-4.4487979e-07
1.6145772e-07
-5.295273e-07
1.6408029e-07
-6.1437614e-07
1.6617103e-07
-6.9918686e-07
1.6776598e-07
-7.8373208e-07
1.6885334e-07
-8.6779292e-07
1.6944322e-07
-9.5115265e-07
1.6955617e-07
-1.0336044e-06
1.692021e-07
-1.1149501e-06
1.6839666e-07
-1.1950037e-06
1.6715575e-07
-1.2735822e-06
1.6550148e-07
-1.3505115e-06
1.6345154e-07
-1.4256586e-06
1.6101997e-07
-1.498843e-06
1.5824465e-07
-1.5699347e-06
1.5513785e-07
-1.6388085e-06
1.5172038e-07
-1.7053499e-06
1.4801424e-07
1.4404455e-07
1.4694357e-09
-7.019136e-09
5.8523226e-09
-2.0682153e-08
1.307783e-08
-3.3812773e-08
2.303398e-08
-4.632747e-08
3.5592349e-08
-5.8341231e-08
5.06091e-08
-6.9910184e-08
6.7930855e-08
-8.1023064e-08
8.7392199e-08
-9.1633086e-08
1.0881222e-07
-1.0167396e-07
1.3199393e-07
-1.1107499e-07
1.5672275e-07
-1.197664e-07
1.8276724e-07
-1.2768181e-07
2.0988095e-07
-1.3476289e-07
2.3780216e-07
-1.4095463e-07
2.6625866e-07
-1.4621614e-07
2.9496775e-07
-1.5050537e-07
3.2363832e-07
-1.5379096e-07
3.5197055e-07
-1.560435e-07
3.7966485e-07
-1.5725238e-07
4.0642303e-07
-1.5740297e-07
4.3194108e-07
-1.5649117e-07
4.559155e-07
-1.5451344e-07
4.7805844e-07
-1.5148875e-07
4.9807369e-07
-1.4741377e-07
5.1568323e-07
-1.4232763e-07
5.3063296e-07
-1.3626207e-07
5.4265186e-07
-1.2922556e-07
5.5149572e-07
-1.2125272e-07
5.5694638e-07
-1.124366e-07
5.5876539e-07
-1.0274849e-07
5.5678909e-07
-9.2337007e-08
5.5084462e-07
-8.1188384e-08
5.4077281e-07
-6.9408422e-08
5.2644477e-07
-5.7034188e-08
5.0776736e-07
-4.4154635e-08
4.8463446e-07
-3.0810412e-08
4.5698255e-07
-1.7053916e-08
4.248478e-07
-3.0730022e-09
3.8805868e-07
1.1291384e-08
3.4670854e-07
2.5699322e-08
3.0073869e-07
4.0215523e-08
2.5029493e-07
5.4822835e-08
1.9561086e-07
6.9312382e-08
1.3656e-07
8.3781084e-08
7.335195e-08
9.7972131e-08
6.0633646e-09
1.1193243e-07
-6.5088585e-08
1.255744e-07
-1.4001659e-07
1.3888113e-07
-2.1851282e-07
1.5173666e-07
-3.0035893e-07
1.6410836e-07
-3.8533923e-07
1.7594027e-07
-4.7322154e-07
1.8719238e-07
-5.6376125e-07
1.9782301e-07
-6.5672862e-07
2.0778743e-07
-7.5183892e-07
2.1707016e-07
-8.4884246e-07
2.2563137e-07
-9.4745942e-07
2.3344915e-07
-1.0474541e-06
2.4049925e-07
-1.1484972e-06
2.4678943e-07
-1.2503343e-06
2.5228878e-07
-1.3526872e-06
2.569977e-07
-1.4552846e-06
2.609099e-07
-1.557855e-06
2.6402809e-07
-1.6601315e-06
2.6635679e-07
-1.7618619e-06
2.6790137e-07
-1.8627813e-06
2.686854e-07
-1.962646e-06
2.68718e-07
-2.0612199e-06
2.6801716e-07
-2.1582712e-06
2.6660744e-07
-2.2535808e-06
2.6451172e-07
-2.3469401e-06
2.617559e-07
-2.4381522e-06
2.5836788e-07
-2.5270295e-06
2.543788e-07
-2.6133974e-06
2.4981944e-07
-2.6970989e-06
2.4472141e-07
-2.7779764e-06
2.3912223e-07
-2.8558928e-06
2.3305423e-07
-2.9307236e-06
2.2655112e-07
-3.0023568e-06
2.1964744e-07
2.1237901e-07
1.0402569e-09
-8.0593928e-09
4.2147222e-09
-2.3856619e-08
9.5236785e-09
-3.9121729e-08
1.6925509e-08
-5.37293e-08
2.6319335e-08
-6.7735057e-08
3.7565788e-08
-8.1156637e-08
5.0505955e-08
-9.3963232e-08
6.4969167e-08
-1.060963e-07
8.0768292e-08
-1.1747309e-07
9.7703595e-08
-1.2801029e-07
1.1556241e-07
-1.3762522e-07
1.341133e-07
-1.462327e-07
1.531136e-07
-1.5376319e-07
1.7231767e-07
-1.601587e-07
1.9145253e-07
-1.65351e-07
2.1024616e-07
-1.69299e-07
2.2841695e-07
-1.7196175e-07
2.4569412e-07
-1.7332068e-07
2.6176565e-07
-1.7332391e-07
2.7635865e-07
-1.7199596e-07
2.8917828e-07
-1.693108e-07
2.999545e-07
-1.6528967e-07
3.0838982e-07
-1.5992406e-07
3.1424894e-07
-1.5327289e-07
3.1723262e-07
-1.453113e-07
3.1712438e-07
-1.3615384e-07
3.1364052e-07
-1.257417e-07
3.0662296e-07
-1.1423515e-07
2.9581555e-07
-1.016292e-07
2.8109722e-07
-8.8030152e-08
2.6225268e-07
-7.3492467e-08
2.3909638e-07
-5.8032091e-08
2.1154951e-07
-4.1861552e-08
1.7956016e-07
-2.5044837e-08
1.4300815e-07
-7.6026296e-09
1.0182705e-07
1.0370699e-08
5.6066526e-08
2.8706605e-08
5.5864677e-09
4.740706e-08
-4.9460249e-08
6.6338099e-08
-1.0917649e-07
8.5415563e-08
-1.7347634e-07
1.0451538e-07
-2.4222027e-07
1.2356677e-07
-3.1535484e-07
1.4244695e-07
-3.9267899e-07
1.6110523e-07
-4.7411566e-07
1.794088e-07
-5.5947623e-07
1.9729299e-07
-6.4858422e-07
2.1468239e-07
-7.4120754e-07
2.3150445e-07
-8.3714399e-07
2.476731e-07
-9.3616048e-07
2.6312485e-07
-1.0380147e-06
2.7779446e-07
-1.1424488e-06
2.9162648e-07
-1.2491952e-06
3.0456947e-07
-1.3579835e-06
3.165757e-07
-1.468525e-06
3.2761164e-07
-1.5805338e-06
3.3764015e-07
-1.6937185e-06
3.4663384e-07
-1.8077906e-06
3.5457142e-07
-1.9224432e-06
3.6144203e-07
-2.0373858e-06
3.6723136e-07
-2.1523242e-06
3.7193605e-07
-2.26697e-06
3.7555572e-07
-2.3810385e-06
3.7809664e-07
-2.4942513e-06
3.7956959e-07
-2.6063399e-06
3.799899e-07
-2.7170358e-06
3.7938138e-07
-2.8260849e-06
3.7776708e-07
-2.933243e-06
3.7517524e-07
-3.0382743e-06
3.7163877e-07
-3.1409553e-06
3.6719279e-07
-3.2410746e-06
3.618752e-07
-3.3384332e-06
3.5572647e-07
-3.4328441e-06
3.487897e-07
-3.5241339e-06
3.411092e-07
-3.6121433e-06
3.3273078e-07
-3.6967234e-06
3.2370239e-07
-3.7777405e-06
3.1407135e-07
-3.8550747e-06
3.038853e-07
-3.9286196e-06
2.931923e-07
2.8204081e-07
7.7482962e-10
-8.8342225e-09
3.1768916e-09
-2.6258681e-08
7.2422257e-09
-4.3187064e-08
1.296894e-08
-5.9456014e-08
2.0279575e-08
-7.5045692e-08
2.9044969e-08
-8.9922031e-08
3.9110862e-08
-1.0402913e-07
5.0302676e-08
-1.1728811e-07
6.2433114e-08
-1.2960353e-07
7.5299859e-08
-1.4087703e-07
8.8687464e-08
-1.5101282e-07
1.0237408e-07
-1.5991931e-07
1.1611851e-07
-1.6750762e-07
1.2966458e-07
-1.7370477e-07
1.427584e-07
-1.7844482e-07
1.5512952e-07
-1.8167012e-07
1.6650335e-07
-1.8333557e-07
1.7659379e-07
-1.8341112e-07
1.8515495e-07
-1.8188507e-07
1.9186926e-07
-1.7871027e-07
1.964823e-07
-1.7392384e-07
1.9871084e-07
-1.675182e-07
1.9829916e-07
-1.5951238e-07
1.9496627e-07
-1.4994e-07
1.8850128e-07
-1.3884631e-07
1.7861179e-07
-1.2626433e-07
1.6516436e-07
-1.1229427e-07
1.4793952e-07
-9.7010311e-08
1.2664751e-07
-8.0337196e-08
1.0118132e-07
-6.2563954e-08
7.1351546e-08
-4.3662695e-08
3.723428e-08
-2.3914821e-08
-1.4701692e-09
-3.1571005e-09
-4.4754129e-08
1.823912e-08
-9.276299e-08
4.0406227e-08
-1.4550346e-07
6.3111162e-08
-2.0301982e-07
8.6222969e-08
-2.6526542e-07
1.0965266e-07
-3.322072e-07
1.3327987e-07
-4.0377392e-07
1.5698229e-07
-4.7989441e-07
1.8063586e-07
-5.6045443e-07
2.0412679e-07
-6.4533825e-07
2.2733076e-07
-7.3438054e-07
2.5014751e-07
-8.2742779e-07
2.7245606e-07
-9.2429204e-07
2.9415725e-07
-1.024765e-06
3.1515531e-07
-1.1286173e-06
3.3535679e-07
-1.2356146e-06
3.5467036e-07
-1.3455046e-06
3.7301489e-07
-1.4580245e-06
3.9031435e-07
-1.5728991e-06
4.0650111e-07
-1.6898441e-06
4.215144e-07
-1.8085688e-06
4.3530049e-07
-1.9287726e-06
4.4781544e-07
-2.0501529e-06
4.5902039e-07
-2.1724038e-06
4.6888476e-07
-2.2952184e-06
4.7738599e-07
-2.4182859e-06
4.8450957e-07
-2.5413006e-06
4.9024608e-07
-2.6639588e-06
4.9459423e-07
-2.7859619e-06
4.975588e-07
-2.9070168e-06
4.991515e-07
-3.0268374e-06
4.9939021e-07
-3.1451463e-06
4.9829882e-07
-3.2616729e-06
4.9590795e-07
-3.3761577e-06
4.9225189e-07
-3.4883523e-06
4.8736984e-07
-3.5980192e-06
4.8130572e-07
-3.7049335e-06
4.74107e-07
-3.8088827e-06
4.6582448e-07
-3.9096682e-06
4.5651192e-07
-4.0071042e-06
4.4622575e-07
-4.1010193e-06
4.3502428e-07
-4.191256e-06
4.2296748e-07
-4.2776703e-06
4.1011668e-07
-4.3601326e-06
3.9653364e-07
-4.4385277e-06
3.8228036e-07
-4.5127544e-06
3.6741898e-07
3.5201147e-07
6.5551765e-10
-9.4897401e-09
2.6896248e-09
-2.8292788e-08
6.1433254e-09
-4.6640764e-08
1.1025698e-08
-6.4338386e-08
1.7270897e-08
-8.1290891e-08
2.4762124e-08
-9.7413258e-08
3.3350662e-08
-1.1261766e-07
4.2861005e-08
-1.2679845e-07
5.3107486e-08
-1.3985001e-07
6.3886625e-08
-1.5165617e-07
7.4980985e-08
-1.6210718e-07
8.6159808e-08
-1.7109814e-07
9.7182263e-08
-1.7853008e-07
1.0779871e-07
-1.8432121e-07
1.1774453e-07
-1.8839064e-07
1.267567e-07
-1.9068229e-07
1.3457287e-07
-1.9115175e-07
1.4089008e-07
-1.8972834e-07
1.4544145e-07
-1.8643643e-07
1.4797919e-07
-1.8124802e-07
1.4818129e-07
-1.7412595e-07
1.4581019e-07
-1.651471e-07
1.4059685e-07
-1.5429904e-07
1.3226987e-07
-1.4161302e-07
1.2063063e-07
-1.2720708e-07
1.0539401e-07
-1.1102772e-07
8.6392732e-08
-9.3292993e-08
6.3335621e-08
-7.3953194e-08
3.620133e-08
-5.3202907e-08
4.7586136e-09
-3.1121235e-08
-3.108836e-08
-7.8157226e-09
-7.1564676e-08
1.6561494e-08
-1.1668933e-07
4.1967553e-08
-1.6663353e-07
6.8183316e-08
-2.2135633e-07
9.5129041e-08
-2.8089387e-07
1.226487e-07
-3.4526291e-07
1.5059201e-07
-4.1443382e-07
1.7882357e-07
-4.8835464e-07
2.072007e-07
-5.6695049e-07
2.3557812e-07
-6.5012661e-07
2.6381198e-07
-7.3776157e-07
2.9176176e-07
-8.2971817e-07
3.1928737e-07
-9.2582881e-07
3.4625815e-07
-1.0259149e-06
3.725421e-07
-1.1297746e-06
3.9801702e-07
-1.2371864e-06
4.2256711e-07
-1.3479115e-06
4.460819e-07
-1.4616984e-06
4.6845726e-07
-1.5782813e-06
4.8959774e-07
-1.6973826e-06
5.094157e-07
-1.8187142e-06
5.2783263e-07
-1.9419785e-06
5.4477876e-07
-2.0668714e-06
5.6019342e-07
-2.1930818e-06
5.7402574e-07
-2.3202948e-06
5.8623349e-07
-2.4481938e-06
5.9678366e-07
-2.5764604e-06
6.0565267e-07
-2.7047767e-06
6.1282583e-07
-2.8328273e-06
6.1829674e-07
-2.9603008e-06
6.2206767e-07
-3.0868908e-06
6.2414879e-07
-3.2122975e-06
6.2455822e-07
-3.3362289e-06
6.2332161e-07
-3.4584017e-06
6.2047169e-07
-3.5785419e-06
6.1604815e-07
-3.6963864e-06
6.1009631e-07
-3.8116836e-06
6.0266706e-07
-3.9241943e-06
5.9381644e-07
-4.0336922e-06
5.8360488e-07
-4.1399645e-06
5.7209675e-07
-4.2428123e-06
5.5935971e-07
-4.3420509e-06
5.4546439e-07
-4.4375102e-06
5.3048361e-07
-4.5290347e-06
5.1449197e-07
-4.6164834e-06
4.9756533e-07
-4.6997299e-06
4.7978018e-07
-4.7786628e-06
4.6121325e-07
-4.8531849e-06
4.419411e-07
4.2203982e-07
6.3458971e-10
-1.012433e-08
2.5847688e-09
-3.0242967e-08
5.8789366e-09
-4.9934932e-08
1.051873e-08
-6.897818e-08
1.6440488e-08
-8.7212648e-08
2.3534785e-08
-1.0450756e-07
3.1655345e-08
-1.2073822e-07
4.063236e-08
-1.3577547e-07
5.0275351e-08
-1.49493e-07
6.0379232e-08
-1.6176005e-07
7.0721378e-08
-1.7244933e-07
8.106846e-08
-1.8144522e-07
9.1169966e-08
-1.8863158e-07
1.0077547e-07
-1.9392671e-07
1.0961865e-07
-1.9723382e-07
1.1742075e-07
-1.984844e-07
1.2389683e-07
-1.9762783e-07
1.2879649e-07
-1.94628e-07
1.3181066e-07
-1.894506e-07
1.3264163e-07
-1.8207899e-07
1.3107238e-07
-1.725567e-07
1.2677531e-07
-1.6085003e-07
1.1947854e-07
-1.4700227e-07
1.0902193e-07
-1.3115641e-07
9.5021128e-08
-1.1320628e-07
7.7368361e-08
-9.3374947e-08
5.5786647e-08
-7.1711282e-08
3.0115448e-08
-4.8281996e-08
1.3774373e-10
-2.3225197e-08
-3.4297993e-08
3.3144957e-09
-7.3329061e-08
3.1215349e-08
-1.1709163e-07
6.0324061e-08
-1.6563736e-07
9.0513278e-08
-2.1906495e-07
1.2161091e-07
-2.7740295e-07
1.5346704e-07
-3.4066966e-07
1.859154e-07
-4.0886385e-07
2.187862e-07
-4.8195297e-07
2.519127e-07
-5.5987884e-07
2.8512657e-07
-6.4255951e-07
3.182588e-07
-7.2988959e-07
3.5114205e-07
-8.2173979e-07
3.8361194e-07
-9.1795986e-07
4.1550745e-07
-1.0183755e-06
4.466738e-07
-1.1227941e-06
4.769607e-07
-1.2310026e-06
5.0622555e-07
-1.342769e-06
5.3433344e-07
-1.4578442e-06
5.6115712e-07
-1.5759647e-06
5.865778e-07
-1.6968532e-06
6.1048623e-07
-1.8202204e-06
6.3278294e-07
-1.9457666e-06
6.5337879e-07
-2.0731831e-06
6.721953e-07
-2.2021544e-06
6.8916472e-07
-2.3323591e-06
7.0423044e-07
-2.4634723e-06
7.1734661e-07
-2.5951668e-06
7.2847824e-07
-2.7271153e-06
7.3760118e-07
-2.8589913e-06
7.4470183e-07
-2.9904713e-06
7.4977669e-07
-3.1212359e-06
7.528323e-07
-3.2509718e-06
7.5388469e-07
-3.3793727e-06
7.5295906e-07
-3.5061404e-06
7.5008938e-07
-3.6309865e-06
7.4531778e-07
-3.7536326e-06
7.3869421e-07
-3.8738117e-06
7.3027544e-07
-3.9912693e-06
7.2012468e-07
-4.1057638e-06
7.0831088e-07
-4.217067e-06
6.9490809e-07
-4.3249651e-06
6.7999482e-07
-4.4292587e-06
6.6365335e-07
-4.5297634e-06
6.459691e-07
-4.6263098e-06
6.2703001e-07
-4.7187437e-06
6.0692585e-07
-4.8069261e-06
5.857477e-07
-4.8907332e-06
5.6358724e-07
-4.9700562e-06
5.405363e-07
-5.0448014e-06
5.1668633e-07
4.9212789e-07
6.706982e-10
-1.0795028e-08
2.7091596e-09
-3.2281428e-08
6.1256077e-09
-5.335138e-08
1.0905437e-08
-7.3758009e-08
1.6982728e-08
-9.3289941e-08
2.4245717e-08
-1.1177054e-07
3.2551886e-08
-1.2904439e-07
4.1731615e-08
-1.449552e-07
5.1591539e-08
-1.5935292e-07
6.1920295e-08
-1.7208881e-07
7.2491392e-08
-1.8302042e-07
8.306057e-08
-1.920144e-07
9.3383629e-08
-1.9895465e-07
1.0318375e-07
-2.0372684e-07
1.1219114e-07
-2.062412e-07
1.2011935e-07
-2.0641261e-07
1.2668987e-07
-2.0419835e-07
1.3159958e-07
-1.9953771e-07
1.3457388e-07
-1.9242489e-07
1.3530521e-07
-1.8281033e-07
1.3350145e-07
-1.7075293e-07
1.2890384e-07
-1.5625242e-07
1.212653e-07
-1.3936373e-07
1.1022467e-07
-1.2011577e-07
9.5665777e-08
-9.8647388e-08
7.7303863e-08
-7.5013029e-08
5.4876493e-08
-4.9283913e-08
2.8241323e-08
-2.1646822e-08
-2.8257368e-09
7.8418596e-09
-3.8519806e-08
3.9008569e-08
-7.8936828e-08
7.1632372e-08
-1.2420125e-07
1.0558848e-07
-1.7439796e-07
1.4070998e-07
-2.2960052e-07
1.7681348e-07
-2.898485e-07
2.1371502e-07
-3.5515736e-07
2.5122426e-07
-4.2551842e-07
2.8914726e-07
-5.008955e-07
3.2728977e-07
-5.8122602e-07
3.6545709e-07
-6.6642222e-07
4.03455e-07
-7.5637166e-07
4.410915e-07
-8.5093779e-07
4.7817807e-07
-9.4996116e-07
5.1453082e-07
-1.0532595e-06
5.4997214e-07
-1.1606299e-06
5.8433108e-07
-1.2718492e-06
6.1744484e-07
-1.3866754e-06
6.4915962e-07
-1.5048493e-06
6.7933101e-07
-1.6260964e-06
7.0782491e-07
-1.7501283e-06
7.3451816e-07
-1.8766445e-06
7.5929917e-07
-2.0053341e-06
7.8206836e-07
-2.1358773e-06
8.0273845e-07
-2.2679473e-06
8.2123478e-07
-2.4012123e-06
8.3749536e-07
-2.5353366e-06
8.5147094e-07
-2.6699832e-06
8.6312484e-07
-2.8048148e-06
8.7243283e-07
-2.9394959e-06
8.7938292e-07
-3.0736942e-06
8.8397498e-07
-3.2070823e-06
8.8622033e-07
-3.3393389e-06
8.8614137e-07
-3.4701508e-06
8.8377096e-07
-3.5992135e-06
8.7915201e-07
-3.7262324e-06
8.7233674e-07
-3.8509244e-06
8.6338615e-07
-3.973018e-06
8.5236912e-07
-4.0922551e-06
8.3936179e-07
-4.2083911e-06
8.244468e-07
-4.3211955e-06
8.0771251e-07
-4.4304529e-06
7.8925222e-07
-4.535963e-06
7.6916347e-07
-4.637541e-06
7.4754717e-07
-4.735018e-06
7.2450693e-07
-4.8282405e-06
7.0014839e-07
-4.9170712e-06
6.7457835e-07
-5.0013882e-06
6.4790424e-07
-5.0810853e-06
6.2023345e-07
-5.1560717e-06
5.9167269e-07
5.623275e-07
7.374229e-10
-1.1532451e-08
2.9612515e-09
-3.4505257e-08
6.6642494e-09
-5.7054378e-08
1.1814673e-08
-7.8908433e-08
1.8337397e-08
-9.9812664e-08
2.6120286e-08
-1.1955343e-07
3.5017561e-08
-1.3794167e-07
4.4855856e-08
-1.5479349e-07
5.5437903e-08
-1.6993497e-07
6.6546042e-08
-1.8319695e-07
7.7947788e-08
-1.9442217e-07
8.9389552e-08
-2.0345616e-07
1.0060621e-07
-2.101713e-07
1.1132285e-07
-2.1444348e-07
1.2124693e-07
-2.1616529e-07
1.3010432e-07
-2.1527e-07
1.3756934e-07
-2.1166336e-07
1.4336194e-07
-2.0533031e-07
1.4715037e-07
-1.9621333e-07
1.4867807e-07
-1.8433803e-07
1.4760476e-07
-1.6967963e-07
1.4366029e-07
-1.5230795e-07
1.3655673e-07
-1.3226018e-07
1.2602916e-07
-1.095882e-07
1.1179395e-07
-8.4412181e-08
9.361228e-08
-5.6831364e-08
7.129047e-08
-2.6962102e-08
4.4518048e-08
5.1255949e-09
1.328269e-08
3.907722e-08
-2.2630841e-08
7.4922098e-08
-6.3504494e-08
1.1250603e-07
-1.0937465e-07
1.5145864e-07
-1.6033448e-07
1.9166981e-07
-2.1645268e-07
2.3293167e-07
-2.777706e-07
2.7503294e-07
-3.4430294e-07
3.177566e-07
-4.1603783e-07
3.6088215e-07
-4.9293587e-07
4.0418782e-07
-5.7493058e-07
4.474518e-07
-6.6192908e-07
4.904535e-07
-7.5381272e-07
5.3297514e-07
-8.5043788e-07
5.7480322e-07
-9.5163692e-07
6.1572986e-07
-1.057219e-06
6.5555424e-07
-1.1669715e-06
6.940836e-07
-1.2806613e-06
7.3113458e-07
-1.3980358e-06
7.665341e-07
-1.518825e-06
8.0012022e-07
-1.642743e-06
8.3174295e-07
-1.7694899e-06
8.6126502e-07
-1.8987532e-06
8.8856247e-07
-2.03021e-06
9.1352515e-07
-2.1635285e-06
9.3605702e-07
-2.2983703e-06
9.5607654e-07
-2.4343916e-06
9.7351664e-07
-2.5712455e-06
9.8832486e-07
-2.7085838e-06
1.0004631e-06
-2.8460585e-06
1.0099076e-06
-2.983324e-06
1.0166484e-06
-3.1200382e-06
1.0206892e-06
-3.2558646e-06
1.0220467e-06
-3.3904735e-06
1.0207503e-06
-3.5235435e-06
1.016841e-06
-3.654763e-06
1.0103715e-06
-3.783831e-06
1.0014047e-06
-3.9104583e-06
9.9001353e-07
-4.0343689e-06
9.7627964e-07
-4.1553e-06
9.6029293e-07
-4.2730037e-06
9.4215046e-07
-4.3872468e-06
9.2195562e-07
-4.4978119e-06
8.998173e-07
-4.6044974e-06
8.7584896e-07
-4.707118e-06
8.5016775e-07
-4.8055047e-06
8.2289368e-07
-4.8995051e-06
7.9414877e-07
-4.9889831e-06
7.6405633e-07
-5.0738188e-06
7.3273999e-07
-5.1539086e-06
7.0032323e-07
-5.2291645e-06
6.6692856e-07
6.3267688e-07
8.208057e-10
-1.2353257e-08
3.2851733e-09
-3.6969625e-08
7.3716051e-09
-6.1140809e-08
1.3033912e-08
-8.457074e-08
2.0186908e-08
-1.0696566e-07
2.8712721e-08
-1.2807925e-07
3.8458452e-08
-1.476874e-07
4.9246213e-08
-1.6558126e-07
6.0874943e-08
-1.815637e-07
7.3114112e-08
-1.9543612e-07
8.572495e-08
-2.0703301e-07
9.8440629e-08
-2.1617184e-07
1.1098357e-07
-2.2271424e-07
1.2306601e-07
-2.2652592e-07
1.3438994e-07
-2.2748922e-07
1.4464128e-07
-2.2552134e-07
1.5351976e-07
-2.2054184e-07
1.6069277e-07
-2.1250332e-07
1.6585126e-07
-2.0137182e-07
1.6866677e-07
-1.8715354e-07
1.6883791e-07
-1.6985077e-07
1.660641e-07
-1.4953414e-07
1.6002683e-07
-1.262229e-07
1.504718e-07
-1.0003317e-07
1.3710895e-07
-7.1049339e-08
1.1968751e-07
-3.9409922e-08
9.7942068e-08
-5.2166567e-09
7.1708611e-08
3.1359049e-08
4.0738718e-08
7.0047114e-08
4.8762836e-09
1.1078454e-07
-3.5979464e-08
1.5336177e-07
-8.203276e-08
1.9751194e-07
-1.333544e-07
2.4299146e-07
-1.9001004e-07
2.8958732e-07
-2.5204221e-07
3.3706511e-07
-3.1946534e-07
3.8517974e-07
-3.9226548e-07
4.3368229e-07
-4.7040023e-07
4.8232255e-07
-5.5379897e-07
5.3085055e-07
-6.423636e-07
5.7901813e-07
-7.3596908e-07
6.2658063e-07
-8.3446433e-07
6.7329848e-07
-9.3767322e-07
7.1893875e-07
-1.0453955e-06
7.6327657e-07
-1.1574085e-06
8.0609654e-07
-1.2734679e-06
8.4719397e-07
-1.3933098e-06
8.8637598e-07
-1.5166521e-06
9.2346255e-07
-1.6431965e-06
9.5828736e-07
-1.7726301e-06
9.9069866e-07
-1.9046275e-06
1.0205598e-06
-2.0388524e-06
1.04775e-06
-2.1749598e-06
1.0721645e-06
-2.312598e-06
1.0937148e-06
-2.4514103e-06
1.1123289e-06
-2.5910371e-06
1.1279516e-06
-2.7311176e-06
1.1405437e-06
-2.8712921e-06
1.1500821e-06
-3.0112033e-06
1.1565596e-06
-3.1504984e-06
1.1599843e-06
-3.2888305e-06
1.1603788e-06
-3.4258604e-06
1.1577802e-06
-3.5612579e-06
1.1522385e-06
-3.6947032e-06
1.1438167e-06
-3.8258879e-06
1.1325895e-06
-3.9545166e-06
1.1186422e-06
-4.0803073e-06
1.1020704e-06
-4.2029928e-06
1.0829784e-06
-4.322321e-06
1.0614787e-06
-4.4380559e-06
1.0376905e-06
-4.5499776e-06
1.011739e-06
-4.6578832e-06
9.837546e-07
-4.7615868e-06
9.5387131e-07
-4.8609195e-06
9.2222636e-07
-4.9557296e-06
8.8895891e-07
-5.0458826e-06
8.5420935e-07
-5.1312609e-06
8.1811826e-07
-5.2117635e-06
7.8082578e-07
-5.2873056e-06
7.424707e-07
7.0318984e-07
9.1479623e-10
-1.3268053e-08
3.6558012e-09
-3.9710629e-08
8.1911838e-09
-6.5676192e-08
1.4462179e-08
-9.0841735e-08
2.2373642e-08
-1.1487712e-07
3.1798249e-08
-1.3750386e-07
4.2576844e-08
-1.5846599e-07
5.4524714e-08
-1.7752913e-07
6.7424781e-08
-1.9446376e-07
8.1046708e-08
-2.0905805e-07
9.5129841e-08
-2.2111614e-07
1.0940089e-07
-2.3044289e-07
1.2356861e-07
-2.3688196e-07
1.3732643e-07
-2.4028374e-07
1.5036414e-07
-2.4052693e-07
1.6234678e-07
-2.3750398e-07
1.7295699e-07
-2.3115205e-07
1.8184865e-07
-2.2139497e-07
1.8868913e-07
-2.082123e-07
1.9315473e-07
-1.9161913e-07
1.949019e-07
-1.7159795e-07
1.9361136e-07
-1.482436e-07
1.8897876e-07
-1.2159031e-07
1.8072393e-07
-9.1778332e-08
1.6851372e-07
-5.883913e-08
1.5209168e-07
-2.2987885e-08
1.3124215e-07
1.5632877e-08
1.056877e-07
5.6913503e-08
7.5224846e-08
1.0050997e-07
3.9697192e-08
1.4631219e-07
-9.0081943e-10
1.9395979e-07
-4.6959782e-08
2.435709e-07
-9.849097e-08
2.9452264e-07
-1.5555335e-07
3.466497e-07
-2.1819285e-07
3.9970461e-07
-2.8642355e-07
4.5341043e-07
-3.6022938e-07
5.0748812e-07
-4.3956458e-07
5.6165776e-07
-5.2435409e-07
6.1564005e-07
-6.1449395e-07
6.69158e-07
-7.0985215e-07
7.2193882e-07
-8.102693e-07
7.7371564e-07
-9.1555983e-07
8.2422927e-07
-1.0255132e-06
8.7322989e-07
-1.1398951e-06
9.2047845e-07
-1.2584492e-06
9.6574811e-07
-1.3808988e-06
1.0088255e-06
-1.5069482e-06
1.049512e-06
-1.6362851e-06
1.0876243e-06
-1.7685823e-06
1.1229958e-06
-1.9034996e-06
1.1554771e-06
-2.0406859e-06
1.1849364e-06
-2.1797815e-06
1.2112601e-06
-2.3204198e-06
1.234353e-06
-2.4622295e-06
1.2541386e-06
-2.6048366e-06
1.2705588e-06
-2.7478667e-06
1.2835738e-06
-2.8909465e-06
1.2931619e-06
-3.033706e-06
1.2993191e-06
-3.1757801e-06
1.3020584e-06
-3.3168105e-06
1.3014093e-06
-3.4564473e-06
1.297417e-06
-3.5943504e-06
1.2901416e-06
-3.7301909e-06
1.2796573e-06
-3.8636526e-06
1.2660511e-06
-3.9944326e-06
1.2494222e-06
-4.122243e-06
1.2298807e-06
-4.2468111e-06
1.2075465e-06
-4.3678806e-06
1.1825482e-06
-4.4852122e-06
1.155022e-06
-4.5985836e-06
1.1251104e-06
-4.7077904e-06
1.0929614e-06
-4.812646e-06
1.058727e-06
-4.9129819e-06
1.0225623e-06
-5.0086475e-06
9.8462448e-07
-5.09951e-06
9.4507182e-07
-5.1854543e-06
9.0406255e-07
-5.2663825e-06
8.6175406e-07
-5.3422139e-06
8.1830208e-07
7.7385981e-07
1.0178486e-09
-1.4285901e-08
4.0645207e-09
-4.2757302e-08
9.1012164e-09
-7.0712888e-08
1.6059319e-08
-9.7799837e-08
2.4832702e-08
-1.2365051e-07
3.5283817e-08
-1.4795497e-07
4.7245143e-08
-1.7042732e-07
6.0519998e-08
-1.9080398e-07
7.4885512e-08
-2.0882928e-07
9.0093228e-08
-2.2426576e-07
1.0587222e-07
-2.3689513e-07
1.2193197e-07
-2.4650264e-07
1.3796562e-07
-2.5291562e-07
1.5365501e-07
-2.5597312e-07
1.6865622e-07
-2.5552814e-07
1.8263024e-07
-2.51478e-07
1.9522298e-07
-2.4374479e-07
2.0609595e-07
-2.3226794e-07
2.1488545e-07
-2.170018e-07
2.2122695e-07
-1.9796064e-07
2.248061e-07
-1.7517709e-07
2.2524575e-07
-1.4868326e-07
2.2224837e-07
-1.1859292e-07
2.1545438e-07
-8.4984338e-08
2.0462225e-07
-4.8007013e-08
1.8942422e-07
-7.7898467e-09
1.6956786e-07
3.5489229e-08
1.4491405e-07
8.1567317e-08
1.1514044e-07
1.3028357e-07
8.0118489e-08
1.8133414e-07
3.9556673e-08
2.345216e-07
-6.3211395e-09
2.8944871e-07
-5.8026072e-08
3.4622758e-07
-1.1547967e-07
4.0410329e-07
-1.7873888e-07
4.6296381e-07
-2.4781456e-07
5.2248611e-07
-3.2268756e-07
5.8236112e-07
-4.0330813e-07
6.4227834e-07
-4.89596e-07
7.0192791e-07
-5.8144068e-07
7.6100269e-07
-6.7870219e-07
8.1920031e-07
-7.8121185e-07
8.7622529e-07
-8.8877352e-07
9.3179095e-07
-1.0011649e-06
9.8562124e-07
-1.1181389e-06
1.0374525e-06
-1.2394255e-06
1.0870348e-06
-1.3647335e-06
1.1341335e-06
-1.4937521e-06
1.1785305e-06
-1.6261531e-06
1.2200254e-06
-1.7615933e-06
1.258436e-06
-1.899716e-06
1.2935998e-06
-2.0401536e-06
1.325374e-06
-2.1825296e-06
1.3536361e-06
-2.3264609e-06
1.3782843e-06
-2.47156e-06
1.3992377e-06
-2.617437e-06
1.4164357e-06
-2.7637018e-06
1.4298386e-06
-2.9099663e-06
1.4394263e-06
-3.0558461e-06
1.4451989e-06
-3.2009627e-06
1.4471749e-06
-3.344945e-06
1.4453916e-06