/*--------------------------------*- C++ -*----------------------------------*\
| =========                 |                                                 |
| \\      /  F ield         | OpenFOAM: The Open Source CFD Toolbox           |
|  \\    /   O peration     | Version:  2306                                  |
|   \\  /    A nd           | Website:  www.openfoam.com                      |
|    \\/     M anipulation  |                                                 |
\*---------------------------------------------------------------------------*/
FoamFile
{
    version     2.0;
    format      ascii;
    arch        "LSB;label=32;scalar=64";
    class       surfaceScalarField;
    location    "0.6";
    object      phi;
}
// * * * * * * * * * * * * * * * * * * * * * * * * * * * * * * * * * * * * * //

dimensions      [0 3 -1 0 0 0 0];

oriented        oriented;

internalField   nonuniform List<scalar> 
12640
(
-1.365653e-07
-1.7229019e-06
-5.4467026e-07
-5.1604025e-06
-1.2152078e-06
-8.5423765e-06
-2.133289e-06
-1.1829429e-05
-3.2785111e-06
-1.4980615e-05
-4.6265851e-06
-1.7963693e-05
-6.1506854e-06
-2.075369e-05
-7.822377e-06
-2.333054e-05
-9.612626e-06
-2.5679095e-05
-1.1492776e-05
-2.7789145e-05
-1.3435403e-05
-2.9655223e-05
-1.5414979e-05
-3.1276185e-05
-1.7408332e-05
-3.2654622e-05
-1.9394907e-05
-3.3796206e-05
-2.1356846e-05
-3.4709019e-05
-2.3278939e-05
-3.5402917e-05
-2.5148467e-05
-3.5888969e-05
-2.6954983e-05
-3.6178968e-05
-2.8690054e-05
-3.6285047e-05
-3.0346992e-05
-3.6219363e-05
-3.1920585e-05
-3.5993879e-05
-3.3406854e-05
-3.56202e-05
-3.4802817e-05
-3.5109483e-05
-3.6106303e-05
-3.4472373e-05
-3.7315776e-05
-3.3718996e-05
-3.8430202e-05
-3.285896e-05
-3.944894e-05
-3.1901388e-05
-4.037166e-05
-3.0854959e-05
-4.1198279e-05
-2.9727954e-05
-4.1928927e-05
-2.8528306e-05
-4.2563915e-05
-2.7263644e-05
-4.3103727e-05
-2.5941337e-05
-4.3549016e-05
-2.456853e-05
-4.3900608e-05
-2.3152175e-05
-4.4159515e-05
-2.1699055e-05
-4.4326941e-05
-2.0215804e-05
-4.4404301e-05
-1.8708909e-05
-4.4393231e-05
-1.7184721e-05
-4.4295598e-05
-1.564945e-05
-4.4113512e-05
-1.4109159e-05
-4.3849333e-05
-1.256975e-05
-4.3505672e-05
-1.1036955e-05
-4.3085389e-05
-9.5163135e-06
-4.2591591e-05
-8.0131545e-06
-4.2027623e-05
-6.5325728e-06
-4.1397057e-05
-5.0794146e-06
-4.0703676e-05
-3.6582547e-06
-3.9951471e-05
-2.2733842e-06
-3.914458e-05
-9.2877965e-07
-3.8287369e-05
3.7190971e-07
-3.7384238e-05
1.6253289e-06
-3.6439752e-05
2.8285558e-06
-3.5458536e-05
3.9789769e-06
-3.444526e-05
5.074363e-06
-3.3404612e-05
6.1128585e-06
-3.2341266e-05
7.0929828e-06
-3.1259859e-05
8.0136305e-06
-3.0164951e-05
8.8740652e-06
-2.9061006e-05
9.6739135e-06
-2.7952363e-05
1.0413155e-05
-2.6843208e-05
1.1092107e-05
-2.573755e-05
1.1711414e-05
-2.4639204e-05
1.2272027e-05
-2.3551766e-05
1.277518e-05
-2.2478598e-05
1.3222378e-05
-2.1422812e-05
1.3615362e-05
-2.0387262e-05
1.3956095e-05
-1.9374529e-05
1.4246729e-05
-1.8386918e-05
1.4489581e-05
-1.7426453e-05
1.4687108e-05
-1.6494876e-05
1.4841875e-05
-1.5593651e-05
1.4956536e-05
-1.4723964e-05
1.5033798e-05
-1.3886735e-05
1.5076403e-05
-1.3082621e-05
1.5087102e-05
-1.2312032e-05
1.5068628e-05
-1.1575144e-05
1.5023678e-05
-1.087191e-05
1.495489e-05
-1.0202081e-05
1.4864827e-05
1.4755959e-05
-1.2325148e-07
-1.5996504e-06
-4.9172644e-07
-4.7919275e-06
-1.0977634e-06
-7.9363396e-06
-1.9287646e-06
-1.0998428e-05
-2.9673942e-06
-1.3941985e-05
-4.1929656e-06
-1.6738121e-05
-5.5825627e-06
-1.9364093e-05
-7.1117908e-06
-2.1801312e-05
-8.7555649e-06
-2.4035321e-05
-1.0488885e-05
-2.6055825e-05
-1.2287535e-05
-2.7856573e-05
-1.4128657e-05
-2.9435063e-05
-1.5991171e-05
-3.0792109e-05
-1.7856045e-05
-3.1931332e-05
-1.9706429e-05
-3.2858634e-05
-2.1527669e-05
-3.3581678e-05
-2.3307225e-05
-3.4109413e-05
-2.5034536e-05
-3.4451657e-05
-2.6700837e-05
-3.4618746e-05
-2.8298956e-05
-3.4621244e-05
-2.9823105e-05
-3.446973e-05
-3.1268679e-05
-3.4174627e-05
-3.2632067e-05
-3.3746095e-05
-3.3910483e-05
-3.3193957e-05
-3.5101819e-05
-3.252766e-05
-3.620452e-05
-3.1756258e-05
-3.7217483e-05
-3.0888426e-05
-3.8139972e-05
-2.993247e-05
-3.8971561e-05
-2.8896365e-05
-3.9712088e-05
-2.7787779e-05
-4.0361622e-05
-2.661411e-05
-4.0920444e-05
-2.5382515e-05
-4.1389037e-05
-2.4099936e-05
-4.1768085e-05
-2.2773127e-05
-4.2058471e-05
-2.140867e-05
-4.2261282e-05
-2.0012992e-05
-4.2377822e-05
-1.8592369e-05
-4.2409611e-05
-1.7152932e-05
-4.2358398e-05
-1.5700663e-05
-4.2226162e-05
-1.4241395e-05
-4.2015119e-05
-1.2780793e-05
-4.172772e-05
-1.1324354e-05
-4.1366651e-05
-9.8773824e-06
-4.0934826e-05
-8.4449799e-06
-4.0435377e-05
-7.0320211e-06
-3.987165e-05
-5.6431414e-06
-3.9247186e-05
-4.2827186e-06
-3.8565712e-05
-2.954859e-06
-3.7831116e-05
-1.6633754e-06
-3.7047429e-05
-4.1177748e-07
-3.6218787e-05
7.9668768e-07
-3.5349447e-05
1.9592154e-06
-3.4443728e-05
3.073258e-06
-3.3505992e-05
4.1366264e-06
-3.2540617e-05
5.1474844e-06
-3.1551978e-05
6.1043431e-06
-3.0544408e-05
7.0060607e-06
-2.9522182e-05
7.8518393e-06
-2.8489486e-05
8.6412179e-06
-2.7450395e-05
9.3740636e-06
-2.6408847e-05
1.0050559e-05
-2.5368622e-05
1.067119e-05
-2.4333324e-05
1.1236729e-05
-2.330636e-05
1.1748217e-05
-2.2290926e-05
1.2206944e-05
-2.1289993e-05
1.2614429e-05
-2.0306293e-05
1.2972396e-05
-1.9342315e-05
1.3282751e-05
-1.8400296e-05
1.3547561e-05
-1.7482213e-05
1.3769025e-05
-1.6589791e-05
1.3949453e-05
-1.5724496e-05
1.409124e-05
-1.4887541e-05
1.4196843e-05
-1.4079893e-05
1.4268756e-05
-1.3302279e-05
1.4309488e-05
-1.2555196e-05
1.4321545e-05
-1.1838922e-05
1.4307404e-05
-1.1153532e-05
1.4269499e-05
-1.0498906e-05
1.4210201e-05
1.4131805e-05
-1.1155479e-07
-1.4880956e-06
-4.4517909e-07
-4.4583032e-06
-9.9444101e-07
-7.3870777e-06
-1.7486881e-06
-1.0244181e-05
-2.6931722e-06
-1.2997501e-05
-3.8102171e-06
-1.5621076e-05
-5.0801534e-06
-1.8094156e-05
-6.4819403e-06
-2.0399525e-05
-7.9937978e-06
-2.2523463e-05
-9.5938335e-06
-2.4455789e-05
-1.126062e-05
-2.6189786e-05
-1.2973685e-05
-2.7721998e-05
-1.4713892e-05
-2.9051902e-05
-1.6463703e-05
-3.0181521e-05
-1.8207336e-05
-3.1115001e-05
-1.9930818e-05
-3.1858196e-05
-2.1621966e-05
-3.2418265e-05
-2.3270303e-05
-3.280332e-05
-2.486694e-05
-3.3022109e-05
-2.6404424e-05
-3.308376e-05
-2.787658e-05
-3.2997574e-05
-2.9278351e-05
-3.2772855e-05
-3.0605645e-05
-3.2418801e-05
-3.1855189e-05
-3.1944414e-05
-3.3024403e-05
-3.1358446e-05
-3.411129e-05
-3.0669371e-05
-3.5114342e-05
-2.9885374e-05
-3.6032461e-05
-2.9014351e-05
-3.6864902e-05
-2.8063923e-05
-3.7611225e-05
-2.7041456e-05
-3.8271258e-05
-2.5954078e-05
-3.8845075e-05
-2.4808698e-05
-3.9332979e-05
-2.3612031e-05
-3.9735496e-05
-2.237061e-05
-4.0053365e-05
-2.1090801e-05
-4.0287544e-05
-1.9778814e-05
-4.0439205e-05
-1.8440707e-05
-4.0509744e-05
-1.7082393e-05
-4.0500776e-05
-1.5709631e-05
-4.0414142e-05
-1.4328029e-05
-4.0251907e-05
-1.2943028e-05
-4.0016362e-05
-1.15599e-05
-3.9710015e-05
-1.0183729e-05
-3.9335592e-05
-8.819403e-06
-3.8896021e-05
-7.4715916e-06
-3.8394429e-05
-6.1447338e-06
-3.7834122e-05
-4.8430258e-06
-3.7218583e-05
-3.5703977e-06
-3.6551425e-05
-2.3305332e-06
-3.5836461e-05
-1.1267415e-06
-3.5077516e-05
3.7742152e-08
-3.4278554e-05
1.1602535e-06
-3.344362e-05
2.2383237e-06
-3.2576789e-05
3.2697959e-06
-3.1682156e-05
4.2528514e-06
-3.0763809e-05
5.1859962e-06
-2.9825808e-05
6.0680593e-06
-2.8872157e-05
6.8981883e-06
-2.7906784e-05
7.6758452e-06
-2.6933518e-05
8.4007971e-06
-2.5956065e-05
9.0731054e-06
-2.497799e-05
9.6931149e-06
-2.4002699e-05
1.0261438e-05
-2.3033422e-05
1.0778939e-05
-2.2073195e-05
1.1246717e-05
-2.1124854e-05
1.1666087e-05
-2.0191015e-05
1.2038557e-05
-1.9274076e-05
1.2365812e-05
-1.8376201e-05
1.2649687e-05
-1.7499324e-05
1.2892148e-05
-1.6645142e-05
1.3095272e-05
-1.5815119e-05
1.3261217e-05
-1.5010485e-05
1.3392209e-05
-1.4232243e-05
1.3490514e-05
-1.3481176e-05
1.3558421e-05
-1.2757854e-05
1.3598223e-05
-1.2062645e-05
1.3612195e-05
-1.1395725e-05
1.3602579e-05
-1.075709e-05
1.3571567e-05
1.3521289e-05
-1.0125796e-07
-1.3868377e-06
-4.0417699e-07
-4.1553842e-06
-9.0334914e-07
-6.8879056e-06
-1.589752e-06
-9.5577779e-06
-2.4508109e-06
-1.2136442e-05
-3.4713731e-06
-1.4600514e-05
-4.6344876e-06
-1.6931042e-05
-5.921926e-06
-1.9112087e-05
-7.3146993e-06
-2.113069e-05
-8.7935721e-06
-2.2976916e-05
-1.0339544e-05
-2.4643814e-05
-1.1934271e-05
-2.6127271e-05
-1.35604e-05
-2.7425773e-05
-1.5201821e-05
-2.8540099e-05
-1.6843831e-05
-2.9472991e-05
-1.8473214e-05
-3.0228814e-05
-2.0078257e-05
-3.0813223e-05
-2.1648714e-05
-3.1232863e-05
-2.3175728e-05
-3.1495095e-05
-2.4651728e-05
-3.1607761e-05
-2.6070308e-05
-3.1578993e-05
-2.7426106e-05
-3.1417057e-05
-2.8714674e-05
-3.1130233e-05
-2.9932366e-05
-3.0726722e-05
-3.1076225e-05
-3.0214587e-05
-3.2143887e-05
-2.9601709e-05
-3.3133499e-05
-2.8895762e-05
-3.4043645e-05
-2.8104204e-05
-3.4873292e-05
-2.7234276e-05
-3.562174e-05
-2.6293009e-05
-3.6288587e-05
-2.5287231e-05
-3.6873704e-05
-2.4223582e-05
-3.7377211e-05
-2.3108524e-05
-3.7799468e-05
-2.1948353e-05
-3.8141065e-05
-2.0749204e-05
-3.8402816e-05
-1.9517063e-05
-3.8585757e-05
-1.8257766e-05
-3.8691146e-05
-1.6977004e-05
-3.8720458e-05
-1.5680319e-05
-3.867539e-05
-1.4373097e-05
-3.8557853e-05
-1.3060565e-05
-3.8369975e-05
-1.1747778e-05
-3.8114091e-05
-1.0439613e-05
-3.7792739e-05
-9.1407547e-06
-3.7408651e-05
-7.8556792e-06
-3.6964743e-05
-6.5886423e-06
-3.64641e-05
-5.3436679e-06
-3.5909962e-05
-4.1245363e-06
-3.5305744e-05
-2.9347513e-06
-3.4654882e-05
-1.7776033e-06
-3.39611e-05
-6.5604011e-07
-3.3228032e-05
4.2718622e-07
-3.245944e-05
1.4697311e-06
-3.1659143e-05
2.4694993e-06
-3.0830971e-05
3.4246793e-06
-2.9978749e-05
4.333774e-06
-2.9106277e-05
5.1955878e-06
-2.8217311e-05
6.0092225e-06
-2.7315538e-05
6.7740717e-06
-2.6404555e-05
7.4898138e-06
-2.5487851e-05
8.1564023e-06
-2.4568791e-05
8.774055e-06
-2.3650595e-05
9.3432413e-06
-2.2736321e-05
9.8646656e-06
-2.1828858e-05
1.0339255e-05
-2.0930909e-05
1.0768138e-05
-2.0044981e-05
1.1152629e-05
-1.9173379e-05
1.149421e-05
-1.8318199e-05
1.1794507e-05
-1.7481324e-05
1.2055273e-05
-1.6664422e-05
1.227837e-05
-1.5868946e-05
1.2465741e-05
-1.5096137e-05
1.2619399e-05
-1.4347024e-05
1.2741402e-05
-1.3622437e-05
1.2833834e-05
-1.2923004e-05
1.2898791e-05
-1.2249169e-05
1.293836e-05
-1.1601195e-05
1.2954605e-05
-1.097918e-05
1.2949552e-05
1.2925175e-05
-9.2167141e-08
-1.2946705e-06
-3.6795998e-07
-3.8795913e-06
-8.2281582e-07
-6.4330497e-06
-1.4490703e-06
-8.9315234e-06
-2.2359707e-06
-1.1349542e-05
-3.170484e-06
-1.3666001e-05
-4.2379485e-06
-1.5863577e-05
-5.4225115e-06
-1.7927524e-05
-6.7075571e-06
-1.9845645e-05
-8.0761342e-06
-2.1608339e-05
-9.5113607e-06
-2.3208587e-05
-1.0996784e-05
-2.4641849e-05
-1.2516678e-05
-2.5905879e-05
-1.4056278e-05
-2.7000499e-05
-1.5601939e-05
-2.792733e-05
-1.7141235e-05
-2.8689518e-05
-1.8662997e-05
-2.929146e-05
-2.0157312e-05
-2.9738548e-05
-2.1615473e-05
-3.0036933e-05
-2.3029916e-05
-3.0193317e-05
-2.4394132e-05
-3.0214777e-05
-2.5702569e-05
-3.010862e-05
-2.6950539e-05
-2.9882263e-05
-2.8134119e-05
-2.9543142e-05
-2.9250059e-05
-2.9098647e-05
-3.02957e-05
-2.8556067e-05
-3.1268902e-05
-2.792256e-05
-3.2167977e-05
-2.720513e-05
-3.2991634e-05
-2.6410619e-05
-3.373894e-05
-2.5545703e-05
-3.4409278e-05
-2.4616892e-05
-3.5002323e-05
-2.3630537e-05
-3.5518017e-05
-2.2592831e-05
-3.5956555e-05
-2.1509815e-05
-3.6318371e-05
-2.0387387e-05
-3.6604134e-05
-1.92313e-05
-3.6814736e-05
-1.8047164e-05
-3.6951292e-05
-1.6840448e-05
-3.7015136e-05
-1.5616475e-05
-3.7007814e-05
-1.4380419e-05
-3.6931084e-05
-1.3137294e-05
-3.678691e-05
-1.1891952e-05
-3.6577455e-05
-1.0649068e-05
-3.6305077e-05
-9.4131331e-06
-3.5972316e-05
-8.1884406e-06
-3.5581884e-05
-6.9790745e-06
-3.5136655e-05
-5.788896e-06
-3.4639654e-05
-4.6215377e-06
-3.4094031e-05
-3.480374e-06
-3.3503059e-05
-2.3685761e-06
-3.2870113e-05
-1.2889859e-06
-3.2198713e-05
-2.4421381e-07
-3.1492261e-05
7.6327939e-07
-3.075437e-05
1.7316083e-06
-2.9988616e-05
2.6589252e-06
-2.9198577e-05
3.5437356e-06
-2.8387815e-05
4.3848255e-06
-2.7559849e-05
5.1812566e-06
-2.6718141e-05
5.9323638e-06
-2.5866074e-05
6.6377465e-06
-2.5006934e-05
7.2972621e-06
-2.4143894e-05
7.9110153e-06
-2.3279998e-05
8.4793455e-06
-2.2418148e-05
9.0028151e-06
-2.1561087e-05
9.4821938e-06
-2.0711393e-05
9.9184433e-06
-1.9871466e-05
1.0312702e-05
-1.9043522e-05
1.0666266e-05
-1.8229587e-05
1.0980572e-05
-1.7431492e-05
1.1257179e-05
-1.6650872e-05
1.149775e-05
-1.5889166e-05
1.1704035e-05
-1.5147615e-05
1.1877849e-05
-1.442727e-05
1.2021056e-05
-1.3728993e-05
1.2135556e-05
-1.3053463e-05
1.2223261e-05
-1.2401186e-05
1.2286084e-05
-1.1772503e-05
1.2325922e-05
-1.1167595e-05
1.2344645e-05
1.234408e-05
-8.411518e-08
-1.2105553e-06
-3.3586918e-07
-3.6278373e-06
-7.5139614e-07
-6.0175228e-06
-1.3241615e-06
-8.358758e-06
-2.0449393e-06
-1.0628764e-05
-2.9024814e-06
-1.2808459e-05
-3.8840622e-06
-1.4881996e-05
-4.9758464e-06
-1.683574e-05
-6.163248e-06
-1.8658243e-05
-7.4312877e-06
-2.0340299e-05
-8.7649358e-06
-2.1874939e-05
-1.0149421e-05
-2.3257363e-05
-1.1570496e-05
-2.4484804e-05
-1.3014647e-05
-2.5556349e-05
-1.4469247e-05
-2.647273e-05
-1.5922667e-05
-2.7236098e-05
-1.7364324e-05
-2.7849803e-05
-1.8784704e-05
-2.8318169e-05
-2.0175337e-05
-2.86463e-05
-2.1528764e-05
-2.8839891e-05
-2.2838467e-05
-2.8905074e-05
-2.409881e-05
-2.8848278e-05
-2.5304953e-05
-2.867612e-05
-2.6452781e-05
-2.8395314e-05
-2.7538828e-05
-2.80126e-05
-2.8560205e-05
-2.753469e-05
-2.9514538e-05
-2.6968227e-05
-3.0399909e-05
-2.6319759e-05
-3.1214808e-05
-2.559572e-05
-3.1958092e-05
-2.4802418e-05
-3.262895e-05
-2.3946034e-05
-3.3226873e-05
-2.3032614e-05
-3.3751631e-05
-2.2068072e-05
-3.420326e-05
-2.1058187e-05
-3.4582041e-05
-2.0008607e-05
-3.4888494e-05
-1.8924847e-05
-3.5123367e-05
-1.781229e-05
-3.5287632e-05
-1.6676183e-05
-3.5382477e-05
-1.5521631e-05
-3.5409299e-05
-1.4353597e-05
-3.5369703e-05
-1.3176891e-05
-3.526549e-05
-1.1996165e-05
-3.5098656e-05
-1.0815902e-05
-3.4871381e-05
-9.6404082e-06
-3.4586019e-05
-8.473802e-06
-3.4245091e-05
-7.3200029e-06
-3.3851267e-05
-6.18272e-06
-3.3407361e-05
-5.0654441e-06
-3.2916303e-05
-3.9714317e-06
-3.2381157e-05
-2.9037222e-06
-3.1805054e-05
-1.8650888e-06
-3.119123e-05
-8.5803815e-07
-3.0542999e-05
1.1504934e-07
-2.9863623e-05
1.0522318e-06
-2.9156467e-05
1.9517694e-06
-2.8424886e-05
2.8121548e-06
-2.7672216e-05
3.6321551e-06
-2.6901758e-05
4.4107984e-06
-2.6116762e-05
5.1473677e-06
-2.5320409e-05
5.8413935e-06
-2.4515795e-05
6.4926478e-06
-2.3705913e-05
7.101134e-06
-2.2893643e-05
7.6670756e-06
-2.2081734e-05
8.1909058e-06
-2.1272794e-05
8.6732533e-06
-2.0469279e-05
9.114929e-06
-1.9673488e-05
9.5169102e-06
-1.8887548e-05
9.8803257e-06
-1.8113415e-05
1.0206439e-05
-1.7352867e-05
1.0496631e-05
-1.6607505e-05
1.0752388e-05
-1.5878745e-05
1.0975275e-05
-1.5167827e-05
1.1166931e-05
-1.4475813e-05
1.1329042e-05
-1.380359e-05
1.1463334e-05
-1.3151879e-05
1.157155e-05
-1.2521238e-05
1.1655442e-05
-1.1912069e-05
1.1716753e-05
-1.1324631e-05
1.1757206e-05
1.1778492e-05
-7.6959601e-08
-1.1335957e-06
-3.0734146e-07
-3.3974555e-06
-6.8785532e-07
-5.6370089e-06
-1.2129076e-06
-7.8337057e-06
-1.8745533e-06
-9.9671187e-06
-2.6630509e-06
-1.2019961e-05
-3.5673178e-06
-1.397773e-05
-4.5752402e-06
-1.5827817e-05
-5.6739753e-06
-1.7559508e-05
-6.8502528e-06
-1.9164022e-05
-8.0906665e-06
-2.0634526e-05
-9.3819411e-06
-2.1966088e-05
-1.0711165e-05
-2.315558e-05
-1.206598e-05
-2.4201534e-05
-1.343473e-05
-2.5103979e-05
-1.4806567e-05
-2.5864262e-05
-1.6171513e-05
-2.6484857e-05
-1.7520494e-05
-2.6969188e-05
-1.884534e-05
-2.7321453e-05
-2.0138765e-05
-2.7546466e-05
-2.1394327e-05
-2.7649512e-05
-2.2606377e-05
-2.7636228e-05
-2.3770004e-05
-2.7512493e-05
-2.4880973e-05
-2.7284344e-05
-2.5935667e-05
-2.6957906e-05
-2.6931025e-05
-2.6539333e-05
-2.7864488e-05
-2.6034764e-05
-2.8733952e-05
-2.5450295e-05
-2.9537721e-05
-2.479195e-05
-3.0274471e-05
-2.4065669e-05
-3.0943215e-05
-2.3277291e-05
-3.1543276e-05
-2.2432553e-05
-3.2074266e-05
-2.1537082e-05
-3.2536065e-05
-2.0596387e-05
-3.2928808e-05
-1.9615864e-05
-3.3252869e-05
-1.8600786e-05
-3.3508855e-05
-1.7556305e-05
-3.3697594e-05
-1.6487444e-05
-3.3820129e-05
-1.5399096e-05
-3.387771e-05
-1.4296015e-05
-3.387179e-05
-1.3182811e-05
-3.3804013e-05
-1.2063942e-05
-3.367621e-05
-1.0943705e-05
-3.3490389e-05
-9.8262294e-06
-3.3248726e-05
-8.7154649e-06
-3.2953555e-05
-7.615174e-06
-3.2607354e-05
-6.5289206e-06
-3.2212737e-05
-5.4600612e-06
-3.1772432e-05
-4.4117371e-06
-3.1289283e-05
-3.3868712e-06
-3.0766219e-05
-2.3881524e-06
-3.0206221e-05
-1.418036e-06
-2.961245e-05
-4.7872143e-07
-2.8987907e-05
4.2768883e-07
-2.8335739e-05
1.2996013e-06
-2.7659091e-05
2.1355064e-06
-2.6961088e-05
2.9341519e-06
-2.6244826e-05
3.6945366e-06
-2.5513358e-05
4.4158994e-06
-2.4769674e-05
5.09771e-06
-2.4016692e-05
5.7396653e-06
-2.3257235e-05
6.3416778e-06
-2.2494027e-05
6.9038675e-06
-2.1729673e-05
7.4265517e-06
-2.0966652e-05
7.9102318e-06
-2.0207304e-05
8.3555816e-06
-1.9453827e-05
8.7634333e-06
-1.8708265e-05
9.1347631e-06
-1.7972503e-05
9.470677e-06
-1.7248266e-05
9.772395e-06
-1.6537115e-05
1.0041236e-05
-1.5840445e-05
1.0278604e-05
-1.5159484e-05
1.048597e-05
-1.4495301e-05
1.0664859e-05
-1.3848803e-05
1.0816835e-05
-1.3220741e-05
1.0943487e-05
-1.2611714e-05
1.1046416e-05
-1.2022182e-05
1.112722e-05
-1.1452463e-05
1.1187487e-05
1.1228779e-05
-7.0579532e-08
-1.0630162e-06
-2.8189831e-07
-3.1861367e-06
-6.3114317e-07
-5.2877641e-06
-1.1135062e-06
-7.3513427e-06
-1.7221198e-06
-9.358505e-06
-2.4485176e-06
-1.1293563e-05
-3.2830157e-06
-1.3143232e-05
-4.2149748e-06
-1.4895858e-05
-5.233055e-06
-1.6541428e-05
-6.3254717e-06
-1.8071605e-05
-7.4802447e-06
-1.9479753e-05
-8.6854289e-06
-2.0760904e-05
-9.9293188e-06
-2.191169e-05
-1.120062e-05
-2.2930232e-05
-1.2488589e-05
-2.3816011e-05
-1.3783131e-05
-2.456972e-05
-1.5074875e-05
-2.5193112e-05
-1.6355213e-05
-2.568885e-05
-1.7616315e-05
-2.6060352e-05
-1.8851118e-05
-2.6311662e-05
-2.0053315e-05
-2.6447316e-05
-2.1217309e-05
-2.6472234e-05
-2.233818e-05
-2.6391622e-05
-2.3411635e-05
-2.6210889e-05
-2.443396e-05
-2.5935581e-05
-2.5401974e-05
-2.557132e-05
-2.6312979e-05
-2.5123759e-05
-2.7164722e-05
-2.4598552e-05
-2.7955356e-05
-2.4001317e-05
-2.8683399e-05
-2.3337625e-05
-2.9347714e-05
-2.2612976e-05
-2.9947472e-05
-2.1832795e-05
-3.048214e-05
-2.1002414e-05
-3.0951453e-05
-2.0127074e-05
-3.1355404e-05
-1.9211912e-05
-3.169423e-05
-1.826196e-05
-3.1968398e-05
-1.7282137e-05
-3.2178597e-05
-1.6277245e-05
-3.2325728e-05
-1.5251964e-05
-3.2410899e-05
-1.4210844e-05
-3.2435412e-05
-1.3158298e-05
-3.2400759e-05
-1.2098596e-05
-3.230861e-05
-1.1035854e-05
-3.2160808e-05
-9.9740311e-06
-3.1959358e-05
-8.9169147e-06
-3.1706416e-05
-7.8681163e-06
-3.1404276e-05
-6.8310602e-06
-3.1055362e-05
-5.8089752e-06
-3.066221e-05
-4.8048896e-06
-3.0227463e-05
-3.8216183e-06
-2.9753841e-05
-2.8617738e-06
-2.9244146e-05
-1.9277318e-06
-2.8701226e-05
-1.0216414e-06
-2.8128087e-05
-1.454499e-07
-2.752749e-05
6.9900378e-07
-2.6902441e-05
1.510458e-06
-2.6255863e-05
2.2875738e-06
-2.5590659e-05
3.0293325e-06
-2.4909695e-05
3.734935e-06
-2.4215785e-05
4.4038e-06
-2.3511675e-05
5.0355557e-06
-2.2800032e-05
5.630035e-06
-2.208343e-05
6.1872656e-06
-2.1364338e-05
6.7074595e-06
-2.0645111e-05
7.1910045e-06
-1.9927979e-05
7.6384503e-06
-1.9215043e-05
8.0504972e-06
-1.8508264e-05
8.4279835e-06
-1.7809458e-05
8.7718711e-06
-1.7120296e-05
9.0832329e-06
-1.6442297e-05
9.3632378e-06
-1.577683e-05
9.6131375e-06
-1.5125112e-05
9.834252e-06
-1.4488209e-05
1.0027957e-05
-1.3867041e-05
1.0195667e-05
-1.3262382e-05
1.0338828e-05
-1.2674868e-05
1.0458902e-05
-1.2105001e-05
1.0557353e-05
-1.1553154e-05
1.0635641e-05
1.0695207e-05
-6.4872576e-08
-9.9814363e-07
-2.5913383e-07
-2.9918754e-06
-5.8036769e-07
-4.9665302e-06
-1.0244245e-06
-6.9072859e-06
-1.5853455e-06
-8.797584e-06
-2.2557467e-06
-1.0623162e-05
-3.0271389e-06
-1.2371839e-05
-3.8901497e-06
-1.4032847e-05
-4.8347395e-06
-1.5596838e-05
-5.8504189e-06
-1.7055925e-05
-6.9264625e-06
-1.8403709e-05
-8.0521088e-06
-1.9635258e-05
-9.2167402e-06
-2.0747059e-05
-1.0410037e-05
-2.1736935e-05
-1.1622105e-05
-2.2603943e-05
-1.2843574e-05
-2.3348251e-05
-1.4065667e-05
-2.3971019e-05
-1.5280251e-05
-2.4474266e-05
-1.6479858e-05
-2.4860745e-05
-1.7657691e-05
-2.5133829e-05
-1.8807617e-05
-2.529739e-05
-1.9924143e-05
-2.5355708e-05
-2.1002389e-05
-2.5313376e-05
-2.2038052e-05
-2.5175226e-05
-2.3027372e-05
-2.4946261e-05
-2.3967091e-05
-2.4631601e-05
-2.4854412e-05
-2.4236438e-05
-2.5686971e-05
-2.3765993e-05
-2.6462796e-05
-2.3225493e-05
-2.7180278e-05
-2.2620142e-05
-2.7838148e-05
-2.1955107e-05
-2.8435446e-05
-2.1235497e-05
-2.8971504e-05
-2.0466356e-05
-2.9445926e-05
-1.9652651e-05
-2.9858575e-05
-1.8799264e-05
-3.0209554e-05
-1.7910981e-05
-3.0499198e-05
-1.6992493e-05
-3.0728062e-05
-1.6048381e-05
-3.0896911e-05
-1.5083115e-05
-3.1006712e-05
-1.4101043e-05
-3.1058623e-05
-1.3106387e-05
-3.1053989e-05
-1.2103231e-05
-3.0994325e-05
-1.1095518e-05
-3.0881317e-05
-1.0087039e-05
-3.0716804e-05
-9.0814279e-06
-3.0502771e-05
-8.0821487e-06
-3.024134e-05
-7.0924914e-06
-2.9934753e-05
-6.1155627e-06
-2.9585363e-05
-5.1542792e-06
-2.919562e-05
-4.2113614e-06
-2.8768064e-05
-3.2893296e-06
-2.8305299e-05
-2.3904969e-06
-2.7809983e-05
-1.5169574e-06
-2.7284835e-05
-6.7059758e-07
-2.6732632e-05
1.4680052e-07
-2.6156037e-05
9.3386339e-07
-2.5557814e-05
1.6893506e-06
-2.4940691e-05
2.4122095e-06
-2.430736e-05
3.1016047e-06
-2.3660469e-05
3.7569083e-06
-2.3002603e-05
4.3776899e-06
-2.2336279e-05
4.9637112e-06
-2.1663931e-05
5.5149171e-06
-2.0987898e-05
6.0314264e-06
-2.0310417e-05
6.5135235e-06
-1.9633613e-05
6.9616463e-06
-1.8959492e-05
7.3763761e-06
-1.8289933e-05
7.7584254e-06
-1.7626688e-05
8.1086256e-06
-1.697137e-05
8.4279149e-06
-1.6325458e-05
8.7173252e-06
-1.5690289e-05
8.9779689e-06
-1.5067064e-05
9.2110275e-06
-1.4456846e-05
9.4177378e-06
-1.3860558e-05
9.5993799e-06
-1.3278995e-05
9.7572647e-06
-1.2712817e-05
9.8927246e-06
-1.2162565e-05
1.00071e-05
-1.1628656e-05
1.0101732e-05
1.0177948e-05
-5.9751891e-08
-9.3839174e-07
-2.3870343e-07
-2.8129239e-06
-5.3477057e-07
-4.6704631e-06
-9.4435721e-07
-6.4976993e-06
-1.4622739e-06
-8.2796674e-06
-2.082058e-06
-1.0003378e-05
-2.7962444e-06
-1.1657653e-05
-3.5965529e-06
-1.3232539e-05
-4.4740716e-06
-1.4719319e-05
-5.4194434e-06
-1.6110554e-05
-6.4230491e-06
-1.7400103e-05
-7.4751814e-06
-1.8583126e-05
-8.5662026e-06
-1.9656038e-05
-9.6866836e-06
-2.0616454e-05
-1.082752e-05
-2.1463107e-05
-1.1980024e-05
-2.2195747e-05
-1.3135997e-05
-2.2815045e-05
-1.428778e-05
-2.3322483e-05
-1.5428281e-05
-2.3720245e-05
-1.6550989e-05
-2.401112e-05
-1.7649981e-05
-2.4198398e-05
-1.8719901e-05
-2.4285787e-05
-1.9755952e-05
-2.4277325e-05
-2.0753863e-05
-2.4177315e-05
-2.1709866e-05
-2.3990259e-05
-2.2620662e-05
-2.3720805e-05
-2.3483394e-05
-2.3373705e-05
-2.4295616e-05
-2.2953771e-05
-2.505526e-05
-2.2465848e-05
-2.5760616e-05
-2.1914786e-05
-2.6410303e-05
-2.130542e-05
-2.7003246e-05
-2.0642553e-05
-2.7538661e-05
-1.9930941e-05
-2.8016033e-05
-1.917528e-05
-2.8435101e-05
-1.8380196e-05
-2.8795846e-05
-1.7550236e-05
-2.9098478e-05
-1.6689861e-05
-2.9343424e-05
-1.5803435e-05
-2.9531319e-05
-1.489522e-05
-2.9662995e-05
-1.3969367e-05
-2.9739474e-05
-1.3029908e-05
-2.9761955e-05
-1.2080749e-05
-2.973181e-05
-1.1125663e-05
-2.965057e-05
-1.016828e-05
-2.9519918e-05
-9.2120802e-06
-2.9341677e-05
-8.2603893e-06
-2.9117802e-05
-7.3163664e-06
-2.8850365e-05
-6.3829998e-06
-2.8541545e-05
-5.4630994e-06
-2.8193616e-05
-4.5592908e-06
-2.7808934e-05
-3.6740109e-06
-2.7389922e-05
-2.8095091e-06
-2.693906e-05
-1.9678195e-06
-2.6458859e-05
-1.1507985e-06
-2.5951975e-05
-3.6008317e-07
-2.5420845e-05
4.0273341e-07
-2.4868066e-05
1.1365708e-06
-2.42962e-05
1.8403439e-06
-2.3707777e-05
2.5131814e-06
-2.3105283e-05
3.1544146e-06
-2.2491156e-05
3.7635624e-06
-2.1867769e-05
4.3403241e-06
-2.1237422e-05
4.8845703e-06
-2.0602332e-05
5.3963369e-06
-1.9964624e-05
5.8758153e-06
-1.9326321e-05
6.3233427e-06
-1.8689337e-05
6.7393925e-06
-1.8055475e-05
7.1245632e-06
-1.7426416e-05
7.4795673e-06
-1.6803722e-05
7.8052207e-06
-1.6188827e-05
8.1024295e-06
-1.5583037e-05
8.372179e-06
-1.4987532e-05
8.6155233e-06
-1.4403366e-05
8.8335717e-06
-1.3831465e-05
9.0274787e-06
-1.3272633e-05
9.1984327e-06
-1.2727554e-05
9.3476452e-06
-1.2196794e-05
9.4763412e-06
-1.1680812e-05
9.5857492e-06
9.6770931e-06
-5.5143659e-08
-8.8324808e-07
-2.2031402e-07
-2.6477535e-06
-4.9370583e-07
-4.3970713e-06
-8.7219043e-07
-6.1192146e-06
-1.3512316e-06
-7.8006262e-06
-1.9251544e-06
-9.4294553e-06
-2.5873737e-06
-1.0995434e-05
-3.3305535e-06
-1.2489359e-05
-4.1467634e-06
-1.3903109e-05
-5.0276381e-06
-1.5229679e-05
-5.9645354e-06
-1.6463206e-05
-6.9486873e-06
-1.7598974e-05
-7.9713391e-06
-1.8633386e-05
-9.0238735e-06
-1.956392e-05
-1.0097916e-05
-2.0389064e-05
-1.1185422e-05
-2.1108241e-05
-1.2278747e-05
-2.172172e-05
-1.3370695e-05
-2.2230535e-05
-1.4454555e-05
-2.2636386e-05
-1.5524118e-05
-2.2941556e-05
-1.657369e-05
-2.3148827e-05
-1.7598084e-05
-2.3261393e-05
-1.8592612e-05
-2.3282797e-05
-1.9553069e-05
-2.3216858e-05
-2.0475712e-05
-2.3067616e-05
-2.1357236e-05
-2.2839281e-05
-2.2194751e-05
-2.253619e-05
-2.2985758e-05
-2.2162765e-05
-2.3728121e-05
-2.1723485e-05
-2.4420048e-05
-2.1222859e-05
-2.5060068e-05
-2.06654e-05
-2.564701e-05
-2.0055612e-05
-2.6179986e-05
-1.9397965e-05
-2.6658375e-05
-1.8696891e-05
-2.7081805e-05
-1.7956765e-05
-2.7450145e-05
-1.7181896e-05
-2.7763486e-05
-1.6376519e-05
-2.8022137e-05
-1.5544784e-05
-2.8226609e-05
-1.4690749e-05
-2.8377605e-05
-1.3818371e-05
-2.8476016e-05
-1.2931497e-05
-2.8522907e-05
-1.2033859e-05
-2.8519507e-05
-1.1129063e-05
-2.8467204e-05
-1.0220583e-05
-2.836753e-05
-9.3117538e-06
-2.8222156e-05
-8.4057632e-06
-2.8032878e-05
-7.5056447e-06
-2.7801606e-05
-6.6142714e-06
-2.7530356e-05
-5.7343499e-06
-2.7221232e-05
-4.8684143e-06
-2.6876422e-05
-4.018821e-06
-2.6498181e-05
-3.1877505e-06
-2.608881e-05
-2.37719e-06
-2.5650655e-05
-1.5889534e-06
-2.5186123e-05
-8.2461582e-07
-2.4697697e-05
-8.5692779e-08
-2.4187601e-05
6.2647487e-07
-2.3658319e-05
1.3110619e-06
-2.3112215e-05
1.9670775e-06
-2.2551627e-05
2.5938271e-06
-2.1978851e-05
3.1907862e-06
-2.1396125e-05
3.7575983e-06
-2.0805624e-05
4.2940693e-06
-2.0209448e-05
4.8001605e-06
-1.9609612e-05
5.2759796e-06
-1.9008043e-05
5.7217736e-06
-1.8406569e-05
6.1379181e-06
-1.7806914e-05
6.5249082e-06
-1.7210695e-05
6.8833488e-06
-1.6619418e-05
7.2139435e-06
-1.6034472e-05
7.5174839e-06
-1.5457133e-05
7.7948393e-06
-1.4888556e-05
8.0469465e-06
-1.4329782e-05
8.2747975e-06
-1.3781735e-05
8.4794315e-06
-1.3245224e-05
8.6619223e-06
-1.2720949e-05
8.8233703e-06
-1.2209501e-05
8.9648928e-06
-1.1711367e-05
9.0876148e-06
9.1926604e-06
-5.0984927e-08
-8.3226315e-07
-2.0371545e-07
-2.495023e-06
-4.5662152e-07
-4.1441652e-06
-8.069708e-07
-5.7688654e-06
-1.250784e-06
-7.3568129e-06
-1.7830613e-06
-8.897178e-06
-2.3979765e-06
-1.0380518e-05
-3.0890124e-06
-1.1798323e-05
-3.8490949e-06
-1.3143027e-05
-4.6707297e-06
-1.4408044e-05
-5.5461387e-06
-1.5587797e-05
-6.4673918e-06
-1.6677721e-05
-7.4265298e-06
-1.7674248e-05
-8.4156742e-06
-1.8574776e-05
-9.4271239e-06
-1.9377615e-05
-1.0453436e-05
-2.0081929e-05
-1.1487491e-05
-2.0687665e-05
-1.2522544e-05
-2.1195482e-05
-1.3552261e-05
-2.1606669e-05
-1.4570742e-05
-2.1923075e-05
-1.5572536e-05
-2.2147032e-05
-1.6552644e-05
-2.2281286e-05
-1.7506511e-05
-2.2328929e-05
-1.8430024e-05
-2.2293344e-05
-1.9319492e-05
-2.2178148e-05
-2.017163e-05
-2.1987143e-05
-2.0983542e-05
-2.1724278e-05
-2.1752699e-05
-2.1393608e-05
-2.247692e-05
-2.0999264e-05
-2.3154353e-05
-2.0545426e-05
-2.3783455e-05
-2.0036298e-05
-2.4362975e-05
-1.9476092e-05
-2.4891938e-05
-1.8869003e-05
-2.5369627e-05
-1.8219202e-05
-2.5795573e-05
-1.7530819e-05
-2.6169541e-05
-1.6807929e-05
-2.6491514e-05
-1.6054545e-05
-2.6761689e-05
-1.5274609e-05
-2.698046e-05
-1.4471978e-05
-2.7148413e-05
-1.3650418e-05
-2.7266311e-05
-1.2813598e-05
-2.7335091e-05
-1.1965078e-05
-2.7355851e-05
-1.1108303e-05
-2.7329839e-05
-1.0246595e-05
-2.7258447e-05
-9.3831459e-06
-2.7143199e-05
-8.5210112e-06
-2.6985741e-05
-7.6631021e-06
-2.6787832e-05
-6.8121804e-06
-2.6551331e-05
-5.9708516e-06
-2.6278184e-05
-5.1415604e-06
-2.5970419e-05
-4.3265862e-06
-2.5630131e-05
-3.5280389e-06
-2.5259463e-05
-2.7478579e-06
-2.4860612e-05
-1.9878044e-06
-2.4435769e-05
-1.2494593e-06
-2.3987233e-05
-5.3422852e-07
-2.3517269e-05
1.5651092e-07
-2.3028045e-05
8.2183769e-07
-2.2521805e-05
1.4608375e-06
-2.2000754e-05
2.0727763e-06
-2.1467054e-05
2.6570866e-06
-2.0922818e-05
3.2133623e-06
-2.03701e-05
3.7413517e-06
-1.9810889e-05
4.2409489e-06
-1.9247097e-05
4.7121878e-06
-1.8680557e-05
5.1552337e-06
-1.8113013e-05
5.5703738e-06
-1.7546115e-05
5.9580103e-06
-1.6981416e-05
6.3186494e-06
-1.6420365e-05
6.6528928e-06
-1.5864309e-05
6.9614283e-06
-1.5314488e-05
7.2450176e-06
-1.4772032e-05
7.5044908e-06
-1.4237967e-05
7.7407322e-06
-1.3713209e-05
7.9546738e-06
-1.3198571e-05
8.1472843e-06
-1.2694761e-05
8.3195609e-06
-1.2202389e-05
8.4725206e-06
-1.1721966e-05
8.6071916e-06
8.7246056e-06
-4.7221844e-08
-7.8504131e-07
-1.8869366e-07
-2.3535512e-06
-4.2304468e-07
-3.9098142e-06
-7.4787993e-07
-5.4440301e-06
-1.1596967e-06
-6.9449961e-06
-1.654076e-06
-8.4027988e-06
-2.225848e-06
-9.8087464e-06
-2.8692078e-06
-1.1154963e-05
-3.5778301e-06
-1.2434405e-05
-4.3449871e-06
-1.3640887e-05
-5.1636664e-06
-1.4769118e-05
-6.0266865e-06
-1.58147e-05
-6.9268042e-06
-1.677413e-05
-7.8568134e-06
-1.7644766e-05
-8.8096323e-06
-1.8424796e-05
-9.7783777e-06
-1.9113183e-05
-1.0756427e-05
-1.9709616e-05
-1.1737469e-05
-2.021444e-05
-1.2715539e-05
-2.06286e-05
-1.3685045e-05
-2.0953569e-05
-1.4640789e-05
-2.1191288e-05
-1.557797e-05
-2.1344105e-05
-1.6492187e-05
-2.1414712e-05
-1.7379437e-05
-2.1406095e-05
-1.82361e-05
-2.1321484e-05
-1.9058936e-05
-2.1164307e-05
-1.9845064e-05
-2.0938151e-05
-2.0591946e-05
-2.0646725e-05
-2.1297378e-05
-2.0293832e-05
-2.1959464e-05
-1.9883339e-05
-2.2576608e-05
-1.9419154e-05
-2.3147494e-05
-1.8905206e-05
-2.3671072e-05