/*--------------------------------*- C++ -*----------------------------------*\
| =========                 |                                                 |
| \\      /  F ield         | OpenFOAM: The Open Source CFD Toolbox           |
|  \\    /   O peration     | Version:  2306                                  |
|   \\  /    A nd           | Website:  www.openfoam.com                      |
|    \\/     M anipulation  |                                                 |
\*---------------------------------------------------------------------------*/
FoamFile
{
    version     2.0;
    format      ascii;
    arch        "LSB;label=32;scalar=64";
    class       volVectorField;
    location    "0.04";
    object      U_0;
}
// * * * * * * * * * * * * * * * * * * * * * * * * * * * * * * * * * * * * * //

dimensions      [0 1 -1 0 0 0 0];

internalField   nonuniform List<vector> 
6400
(
(-0.00046005255 -0.00078446339 -9.7000927e-21)
(-0.00043907851 -0.00076470073 -8.3724954e-21)
(-0.00041927705 -0.00074569314 -5.1081785e-21)
(-0.00040056907 -0.00072740896 -1.9689936e-20)
(-0.00038288149 -0.00070981788 -1.4028228e-20)
(-0.00036614676 -0.00069289092 2.5628892e-20)
(-0.00035030242 -0.00067660035 3.5818589e-22)
(-0.00033529064 -0.0006609197 7.590563e-21)
(-0.00032105786 -0.0006458237 4.0785399e-21)
(-0.00030755441 -0.00063128819 -7.1640579e-21)
(-0.00029473423 -0.00061729018 -2.1524811e-21)
(-0.00028255455 -0.0006038077 7.2100948e-21)
(-0.00027097565 -0.00059081983 -4.9719637e-21)
(-0.00025996059 -0.00057830662 -6.0009772e-21)
(-0.00024947501 -0.00056624906 -1.7874175e-21)
(-0.00023948693 -0.00055462902 -2.5531256e-21)
(-0.00022996657 -0.00054342925 1.4089478e-21)
(-0.00022088615 -0.0005326333 -2.3700875e-21)
(-0.00021221978 -0.00052222548 -9.1423551e-21)
(-0.00020394328 -0.00051219088 -2.7917405e-22)
(-0.00019603408 -0.00050251526 -1.5956077e-21)
(-0.00018847111 -0.00049318507 -9.1258596e-22)
(-0.00018123461 -0.00048418741 -5.1205344e-22)
(-0.00017430615 -0.00047550996 -2.1343557e-21)
(-0.00016766847 -0.00046714101 1.5108531e-21)
(-0.00016130537 -0.00045906936 7.3008155e-22)
(-0.0001552017 -0.00045128437 -1.2632315e-21)
(-0.00014934324 -0.00044377589 2.5543776e-21)
(-0.00014371665 -0.00043653423 -1.3123359e-21)
(-0.0001383094 -0.00042955017 -2.2235774e-21)
(-0.00013310972 -0.0004228149 -1.0327646e-21)
(-0.00012810656 -0.00041632003 3.3487384e-21)
(-0.00012328951 -0.00041005755 -2.2021977e-21)
(-0.0001186488 -0.00040401984 -2.3637938e-21)
(-0.0001141752 -0.00039819959 2.0969362e-21)
(-0.00010986005 -0.00039258986 3.3464714e-23)
(-0.00010569516 -0.00038718402 1.0414068e-21)
(-0.00010167281 -0.00038197574 -7.9737293e-22)
(-9.7785737e-05 -0.00037695897 -3.6675204e-21)
(-9.4027063e-05 -0.00037212795 -2.4842269e-22)
(-9.0390301e-05 -0.00036747717 1.3108509e-21)
(-8.686931e-05 -0.00036300138 2.0872716e-21)
(-8.3458293e-05 -0.00035869555 -4.5723194e-22)
(-8.0151762e-05 -0.00035455488 -1.3429086e-21)
(-7.6944521e-05 -0.00035057482 -2.9589414e-22)
(-7.3831646e-05 -0.00034675098 2.0323417e-21)
(-7.080847e-05 -0.0003430792 2.833775e-21)
(-6.7870572e-05 -0.0003395555 1.0432736e-21)
(-6.5013752e-05 -0.00033617606 -9.5729484e-22)
(-6.2234024e-05 -0.00033293725 6.947199e-22)
(-5.9527595e-05 -0.00032983561 2.4977286e-21)
(-5.689086e-05 -0.00032686783 9.0151261e-22)
(-5.4320395e-05 -0.00032403074 1.5088936e-23)
(-5.1812935e-05 -0.00032132133 -4.9736515e-22)
(-4.9365374e-05 -0.00031873672 -1.2474642e-21)
(-4.6974749e-05 -0.00031627417 4.3412045e-22)
(-4.4638232e-05 -0.00031393103 -4.0659164e-23)
(-4.2353116e-05 -0.00031170483 3.3338064e-22)
(-4.0116823e-05 -0.0003095932 -5.0070857e-23)
(-3.792689e-05 -0.00030759384 -3.4839405e-22)
(-3.5780958e-05 -0.00030570461 8.7955632e-22)
(-3.3676772e-05 -0.00030392344 3.1198216e-24)
(-3.1612163e-05 -0.00030224839 5.1300279e-22)
(-2.9585055e-05 -0.00030067758 7.5536859e-22)
(-2.7593455e-05 -0.00029920926 -5.9606443e-22)
(-2.5635447e-05 -0.00029784176 1.176779e-21)
(-2.370919e-05 -0.0002965735 1.7162595e-21)
(-2.1812912e-05 -0.00029540296 -2.810365e-22)
(-1.9944906e-05 -0.00029432876 5.1491955e-23)
(-1.8103521e-05 -0.00029334956 1.593703e-21)
(-1.6287159e-05 -0.00029246412 8.7375012e-22)
(-1.4494269e-05 -0.00029167127 -7.3524155e-22)
(-1.2723344e-05 -0.00029096993 9.1347477e-22)
(-1.097292e-05 -0.0002903591 1.2533638e-21)
(-9.2415587e-06 -0.00028983782 1.1660385e-21)
(-7.5278609e-06 -0.00028940524 1.1489925e-21)
(-5.8304663e-06 -0.00028906052 -8.1697607e-22)
(-4.1476273e-06 -0.00028880271 -1.5921712e-22)
(-2.4770546e-06 -0.00028862962 8.2411082e-22)
(-8.203489e-07 -0.0002885358 1.6052995e-21)
(-0.00043943293 -0.00080006994 -2.7091941e-20)
(-0.00041926203 -0.00077943053 -1.7488399e-20)
(-0.00040022895 -0.00075960604 -6.1892965e-21)
(-0.00038225618 -0.00074056021 -1.5129431e-20)
(-0.00036527213 -0.00072225857 -5.0352896e-21)
(-0.00034921073 -0.00070466827 8.2999276e-21)
(-0.00033401091 -0.00068775806 -6.6477861e-21)
(-0.00031961621 -0.00067149824 -3.9583235e-21)
(-0.00030597436 -0.00065586057 -5.8010865e-22)
(-0.00029303696 -0.00064081817 -9.4599332e-21)
(-0.00028075912 -0.00062634554 2.6040084e-21)
(-0.00026909923 -0.00061241843 -7.789216e-21)
(-0.00025801865 -0.00059901378 -1.3017942e-20)
(-0.00024748147 -0.00058610968 3.4129795e-24)
(-0.00023745434 -0.00057368534 -2.5451763e-21)
(-0.0002279062 -0.00056172097 -5.3085476e-21)
(-0.00021880818 -0.00055019776 -7.9870347e-21)
(-0.00021013335 -0.00053909786 -7.3639968e-21)
(-0.00020185663 -0.00052840429 4.9172522e-21)
(-0.00019395462 -0.00051810091 4.9117474e-22)
(-0.00018640547 -0.00050817236 -3.4703129e-21)
(-0.00017918878 -0.00049860407 -5.0632501e-21)
(-0.00017228551 -0.00048938216 -5.0861467e-21)
(-0.00016567783 -0.00048049343 -4.9355139e-22)
(-0.00015934905 -0.00047192533 9.259094e-22)
(-0.00015328357 -0.00046366591 -1.3090633e-21)
(-0.00014746677 -0.0004557038 -3.5612695e-21)
(-0.00014188493 -0.0004480282 1.407439e-21)
(-0.0001365252 -0.00044062881 1.0363807e-22)
(-0.00013137552 -0.00043349582 2.0123969e-23)
(-0.00012642455 -0.0004266199 -1.218296e-21)
(-0.00012166165 -0.00041999215 -2.1916989e-22)
(-0.00011707682 -0.00041360412 1.9340661e-21)
(-0.00011266065 -0.00040744773 -3.73091e-22)
(-0.00010840428 -0.00040151529 -5.2198729e-22)
(-0.00010429937 -0.00039579948 -2.9243983e-21)
(-0.00010033807 -0.00039029332 1.6229929e-21)
(-9.6512967e-05 -0.00038499014 1.2067256e-21)
(-9.2817075e-05 -0.00037988361 -1.4833482e-21)
(-8.9243808e-05 -0.00037496766 4.4772777e-22)
(-8.5786938e-05 -0.00037023652 -7.6322217e-22)
(-8.2440579e-05 -0.00036568469 -1.6401524e-22)
(-7.9199174e-05 -0.00036130692 -5.9694468e-22)
(-7.6057466e-05 -0.00035709819 1.8983334e-23)
(-7.3010475e-05 -0.00035305372 -1.3303737e-22)
(-7.0053481e-05 -0.00034916897 -8.2247104e-22)
(-6.7182022e-05 -0.00034543956 3.5326383e-22)
(-6.4391863e-05 -0.00034186136 5.7666103e-23)
(-6.1678983e-05 -0.0003384304 8.150439e-22)
(-5.9039571e-05 -0.00033514289 6.5381683e-22)
(-5.6470001e-05 -0.00033199525 -2.5894515e-22)
(-5.3966826e-05 -0.00032898402 -9.6706382e-22)
(-5.1526768e-05 -0.00032610592 -8.2091976e-22)
(-4.9146713e-05 -0.00032335782 -4.0229887e-22)
(-4.6823694e-05 -0.00032073674 1.4864466e-22)
(-4.4554878e-05 -0.00031823982 -3.5773778e-22)
(-4.233756e-05 -0.00031586436 3.417796e-22)
(-4.0169158e-05 -0.00031360777 -1.9832676e-21)
(-3.804722e-05 -0.0003114676 -3.6446544e-23)
(-3.596939e-05 -0.00030944148 1.1838566e-21)
(-3.3933415e-05 -0.00030752719 4.2845673e-22)
(-3.1937145e-05 -0.0003057226 -1.9563506e-22)
(-2.997851e-05 -0.00030402569 -4.2316114e-22)
(-2.8055536e-05 -0.00030243455 -1.5539511e-21)
(-2.6166323e-05 -0.00030094735 -6.013719e-22)
(-2.430905e-05 -0.00029956237 1.5138347e-22)
(-2.2481969e-05 -0.00029827798 9.0353825e-22)
(-2.0683393e-05 -0.00029709263 -8.4787221e-22)
(-1.89117e-05 -0.00029600488 6.6941815e-22)
(-1.7165323e-05 -0.00029501336 6.1864909e-22)
(-1.5442744e-05 -0.0002941168 -1.6104509e-22)
(-1.37425e-05 -0.00029331401 -3.5597355e-22)
(-1.2063168e-05 -0.00029260387 -3.7769566e-24)
(-1.0403351e-05 -0.00029198536 8.4903983e-23)
(-8.7616858e-06 -0.00029145753 4.256016e-22)
(-7.1368494e-06 -0.0002910195 3.6986438e-22)
(-5.5275376e-06 -0.00029067044 9.9548315e-22)
(-3.9320894e-06 -0.00029040937 3.526238e-22)
(-2.3483133e-06 -0.00029023409 1.0293057e-21)
(-7.7770785e-07 -0.00029013906 1.6731175e-21)
(-0.00041791556 -0.00081508463 -1.4855344e-20)
(-0.00039860975 -0.00079359309 -1.9098338e-20)
(-0.0003804022 -0.00077297529 -2.7901081e-21)
(-0.00036321738 -0.00075319041 -4.5267706e-21)
(-0.0003469856 -0.0007341998 -1.9041956e-21)
(-0.00033164257 -0.0007159668 -2.6973531e-21)
(-0.00031712896 -0.00069845666 -1.7883012e-20)
(-0.00030338994 -0.00068163647 8.7836893e-21)
(-0.0002903748 -0.00066547506 1.3382445e-20)
(-0.0002780366 -0.00064994287 -1.1151337e-20)
(-0.00026633188 -0.00063501192 5.2511612e-22)
(-0.00025522035 -0.00062065568 -1.1891662e-21)
(-0.00024466463 -0.00060684903 -3.6574668e-21)
(-0.00023463003 -0.00059356812 3.380025e-21)
(-0.00022508431 -0.00058079038 -8.0864568e-22)
(-0.0002159975 -0.00056849441 -8.8356849e-22)
(-0.00020734175 -0.00055665989 -2.7619504e-21)
(-0.00019909108 -0.00054526759 -3.9173089e-21)
(-0.00019122134 -0.00053429924 2.8457037e-21)
(-0.00018370997 -0.00052373752 5.5525321e-21)
(-0.00017653596 -0.00051356598 -4.8780434e-22)
(-0.0001696797 -0.00050376904 -2.073737e-21)
(-0.00016312285 -0.00049433187 1.5474959e-21)
(-0.00015684828 -0.0004852404 -3.2963861e-22)
(-0.00015083998 -0.00047648129 -3.2889311e-22)
(-0.00014508296 -0.00046804183 3.6660879e-21)
(-0.00013956318 -0.00045990997 -3.8075748e-21)
(-0.00013426749 -0.00045207426 1.6315245e-22)
(-0.00012918356 -0.0004445238 1.2076458e-21)
(-0.00012429984 -0.00043724822 9.0242983e-22)
(-0.00011960546 -0.00043023768 7.1328083e-22)
(-0.00011509024 -0.00042348279 -1.7958793e-21)
(-0.00011074459 -0.00041697466 8.3912845e-22)
(-0.00010655952 -0.00041070479 4.4998683e-21)
(-0.00010252656 -0.00040466511 4.1010618e-21)
(-9.8637718e-05 -0.00039884792 -1.3979943e-21)
(-9.4885492e-05 -0.00039324591 3.6831928e-22)
(-9.1262805e-05 -0.0003878521 4.604699e-21)
(-8.7762984e-05 -0.00038265985 1.6321842e-21)
(-8.4379738e-05 -0.00037766282 4.2819634e-22)
(-8.1107122e-05 -0.00037285499 -9.4039201e-22)
(-7.7939522e-05 -0.00036823061 -2.263164e-21)
(-7.4871635e-05 -0.00036378421 1.2783488e-21)
(-7.1898439e-05 -0.00035951056 1.6218038e-21)
(-6.901519e-05 -0.00035540469 4.4415346e-22)
(-6.6217394e-05 -0.00035146187 8.5367809e-22)
(-6.3500795e-05 -0.00034767754 7.6753726e-22)
(-6.086136e-05 -0.0003440474 -1.5367423e-21)
(-5.829526e-05 -0.00034056736 -1.1917404e-21)
(-5.5798862e-05 -0.00033723347 2.6210336e-21)
(-5.3368719e-05 -0.00033404201 -1.6594537e-22)
(-5.1001547e-05 -0.00033098941 2.1921923e-22)
(-4.8694232e-05 -0.00032807227 1.000973e-21)
(-4.6443808e-05 -0.00032528734 -7.4037934e-22)
(-4.4247448e-05 -0.00032263155 -2.3454584e-22)
(-4.2102461e-05 -0.00032010195 -5.8258995e-22)
(-4.000628e-05 -0.00031769574 4.2384999e-22)
(-3.7956448e-05 -0.00031541025 9.523963e-22)
(-3.5950633e-05 -0.00031324294 -2.6611536e-22)
(-3.3986601e-05 -0.00031119137 3.1170492e-22)
(-3.2062214e-05 -0.00030925325 1.0016669e-21)
(-3.0175423e-05 -0.0003074264 8.0486798e-22)
(-2.832427e-05 -0.00030570873 -4.1697792e-22)
(-2.650688e-05 -0.00030409826 -1.3430006e-21)
(-2.4721453e-05 -0.00030259311 -2.1113147e-22)
(-2.2966264e-05 -0.00030119152 -3.7368714e-22)
(-2.1239653e-05 -0.0002998918 -1.057917e-21)
(-1.9540031e-05 -0.00029869236 7.8842452e-22)
(-1.7865864e-05 -0.00029759173 6.1400218e-22)
(-1.6215673e-05 -0.00029658849 7.0909544e-22)
(-1.4588034e-05 -0.00029568133 -5.0743316e-22)
(-1.2981569e-05 -0.00029486905 7.1882662e-23)
(-1.1394933e-05 -0.00029415051 6.0576505e-22)
(-9.8268148e-06 -0.00029352466 -3.6481456e-22)
(-8.2759289e-06 -0.00029299054 1.703999e-22)
(-6.7410256e-06 -0.00029254728 -1.6790714e-22)
(-5.2208745e-06 -0.00029219402 7.504966e-22)
(-3.7138901e-06 -0.0002919298 9.319907e-22)
(-2.2179793e-06 -0.0002917524 -2.7693915e-23)
(-7.3454068e-07 -0.00029165624 1.1465594e-21)
(-0.00039552775 -0.00082945452 -9.9806043e-22)
(-0.00037714775 -0.00080713958 -1.4585576e-20)
(-0.00035982171 -0.00078575582 -2.9912625e-20)
(-0.00034347644 -0.00076525793 -1.4513007e-20)
(-0.00032804454 -0.00074560312 1.1381256e-21)
(-0.00031346387 -0.00072675094 8.6433583e-21)
(-0.00029967712 -0.00070866323 -1.9194391e-22)
(-0.00028663138 -0.0006913039 7.2730239e-21)
(-0.00027427776 -0.00067463892 -3.0740394e-21)
(-0.00026257102 -0.00065863608 -5.7145556e-21)
(-0.00025146932 -0.00064326498 -1.028252e-20)
(-0.00024093389 -0.00062849687 5.5194879e-21)
(-0.0002309288 -0.00061430457 -4.6611288e-21)
(-0.0002214207 -0.00060066239 -9.6595398e-21)
(-0.00021237864 -0.000587546 -2.5116109e-21)
(-0.00020377387 -0.00057493241 -5.2783881e-22)
(-0.00019557965 -0.00056279986 5.0741908e-21)
(-0.0001877711 -0.00055112776 7.2663183e-22)
(-0.00018032507 -0.00053989659 -1.0799348e-20)
(-0.00017321997 -0.00052908789 -2.2289119e-21)
(-0.00016643569 -0.00051868414 2.6237268e-21)
(-0.00015995346 -0.00050866877 4.3864424e-22)
(-0.00015375575 -0.00049902604 -1.2687911e-22)
(-0.00014782621 -0.00048974107 -4.5669146e-21)
(-0.00014214952 -0.00048079969 3.8162662e-22)
(-0.00013671137 -0.00047218852 2.2368778e-21)
(-0.00013149838 -0.0004638948 5.3219395e-21)
(-0.00012649799 -0.00045590648 -7.0223376e-22)
(-0.00012169846 -0.00044821207 -4.9233211e-22)
(-0.00011708875 -0.00044080068 -2.1747162e-21)
(-0.00011265853 -0.00043366194 -2.442442e-21)
(-0.0001083981 -0.00042678604 2.9923523e-21)
(-0.00010429833 -0.00042016361 4.5689987e-23)
(-0.00010035065 -0.00041378578 -2.9855792e-22)
(-9.6547003e-05 -0.0004076441 1.8119084e-21)
(-9.28798e-05 -0.00040173052 7.981364e-23)
(-8.9341908e-05 -0.0003960374 -6.4995328e-22)
(-8.5926599e-05 -0.00039055745 -3.2765416e-22)
(-8.2627531e-05 -0.00038528376 -7.846711e-22)
(-7.9438726e-05 -0.00038020972 8.2591228e-24)
(-7.6354533e-05 -0.00037532907 1.1725773e-21)
(-7.3369628e-05 -0.00037063581 1.8184051e-21)
(-7.047898e-05 -0.00036612428 2.2602916e-21)
(-6.7677824e-05 -0.00036178903 -1.1438939e-21)
(-6.4961661e-05 -0.0003576249 8.5880805e-23)
(-6.2326233e-05 -0.00035362698 2.4611474e-21)
(-5.97675e-05 -0.00034979057 6.6518571e-22)
(-5.7281636e-05 -0.0003461112 -2.9985323e-22)
(-5.486502e-05 -0.00034258462 -3.2277473e-21)
(-5.2514212e-05 -0.00033920677 7.5456666e-23)
(-5.022594e-05 -0.00033597379 2.981481e-22)
(-4.7997099e-05 -0.00033288199 1.2758983e-21)
(-4.5824742e-05 -0.00032992787 1.1216802e-21)
(-4.3706058e-05 -0.00032710807 8.779806e-23)
(-4.1638379e-05 -0.00032441942 1.1672198e-21)
(-3.9619153e-05 -0.00032185888 6.869387e-22)
(-3.7645949e-05 -0.00031942356 1.7061452e-22)
(-3.5716451e-05 -0.00031711071 1.5930713e-21)
(-3.3828452e-05 -0.00031491772 3.8765315e-22)
(-3.1979838e-05 -0.00031284208 7.3702199e-23)
(-3.0168585e-05 -0.00031088143 2.7429536e-22)
(-2.8392764e-05 -0.00030903352 5.9967608e-22)
(-2.665052e-05 -0.00030729621 1.9392761e-22)
(-2.4940084e-05 -0.00030566747 -3.3888665e-23)
(-2.3259761e-05 -0.00030414535 -5.4042924e-22)
(-2.1607926e-05 -0.00030272805 7.212027e-23)
(-1.9983013e-05 -0.00030141383 2.1053017e-22)
(-1.8383528e-05 -0.00030020107 -4.9649058e-23)
(-1.6808033e-05 -0.00029908824 -3.6354087e-22)
(-1.5255144e-05 -0.00029807389 1.2571506e-21)
(-1.372353e-05 -0.00029715669 2.3780848e-22)
(-1.2211903e-05 -0.00029633538 1.2165976e-21)
(-1.0719008e-05 -0.00029560884 9.8840752e-22)
(-9.2436186e-06 -0.00029497598 1.326889e-22)
(-7.7845383e-06 -0.00029443585 7.4612704e-22)
(-6.3405934e-06 -0.00029398755 7.6217058e-22)
(-4.9106214e-06 -0.00029363026 5.3512086e-22)
(-3.4931215e-06 -0.00029336301 8.3421814e-23)
(-2.0860988e-06 -0.00029318356 4.5426938e-22)
(-6.9085588e-07 -0.0002930863 6.6324452e-22)
(-0.00037230112 -0.00084312764 1.9910694e-21)
(-0.00035490609 -0.00082002215 -1.2436951e-20)
(-0.00033851597 -0.00079790357 -2.3399175e-20)
(-0.0003230604 -0.00077672212 2.2643332e-23)
(-0.0003084746 -0.00075643097 2.5602206e-20)
(-0.00029469894 -0.00073698601 1.9328271e-20)
(-0.00028167844 -0.00071834569 1.7172271e-21)
(-0.0002693624 -0.00070047086 4.6869729e-21)
(-0.00025770396 -0.00068332466 -7.9010246e-21)
(-0.00024665985 -0.00066687233 5.9908557e-21)
(-0.00023619004 -0.0006510811 4.0464261e-21)
(-0.00022625749 -0.00063592006 -4.1723174e-21)
(-0.00021682786 -0.00062136005 -1.040055e-20)
(-0.00020786932 -0.00060737354 3.7353256e-21)
(-0.00019935235 -0.00059393457 5.5117309e-21)
(-0.00019124953 -0.00058101858 2.8175439e-21)
(-0.00018353538 -0.0005686024 1.8007625e-21)
(-0.0001761862 -0.00055666414 -1.7487726e-21)
(-0.00016917996 -0.00054518306 -1.246059e-21)
(-0.00016249612 -0.00053413962 3.2737823e-21)
(-0.00015611555 -0.00052351524 1.0224785e-21)
(-0.0001500204 -0.00051329243 1.8372564e-21)
(-0.00014419403 -0.00050345456 -2.2740744e-21)
(-0.0001386209 -0.00049398595 1.8771378e-21)
(-0.00013328648 -0.00048487168 7.3633553e-21)
(-0.00012817719 -0.00047609766 2.0671751e-21)
(-0.00012328032 -0.00046765051 2.8270811e-21)
(-0.00011858399 -0.00045951756 1.826001e-22)
(-0.00011407705 -0.00045168677 3.2260563e-22)
(-0.00010974907 -0.00044414675 2.1377707e-21)
(-0.00010559024 -0.00043688664 4.2603646e-21)
(-0.00010159138 -0.00042989619 5.0678157e-21)
(-9.7743853e-05 -0.00042316562 -1.6432762e-21)
(-9.403956e-05 -0.00041668566 -4.3235964e-22)
(-9.0470877e-05 -0.00041044752 4.1341151e-22)
(-8.7030633e-05 -0.00040444281 2.4435554e-21)
(-8.3712077e-05 -0.00039866355 3.115491e-22)
(-8.050886e-05 -0.00039310221 -3.3738517e-21)
(-7.7414989e-05 -0.00038775158 1.5528465e-21)
(-7.4424816e-05 -0.0003826048 1.1371972e-21)
(-7.1533018e-05 -0.00037765538 2.328755e-21)
(-6.8734559e-05 -0.00037289711 2.5543157e-21)
(-6.6024692e-05 -0.00036832409 9.0749347e-22)
(-6.339893e-05 -0.0003639307 -4.513567e-22)
(-6.0853028e-05 -0.00035971161 1.0181707e-21)
(-5.8382969e-05 -0.00035566173 1.2507849e-22)
(-5.5984953e-05 -0.00035177619 -1.1344709e-21)
(-5.3655373e-05 -0.0003480504 2.105843e-21)
(-5.1390811e-05 -0.00034447996 6.5291665e-22)
(-4.918803e-05 -0.00034106067 1.4259666e-22)
(-4.7043947e-05 -0.00033778857 4.2235608e-22)
(-4.4955647e-05 -0.00033465985 9.1767881e-22)
(-4.2920352e-05 -0.00033167089 3.3337218e-22)
(-4.0935416e-05 -0.00032881824 2.8316545e-22)
(-3.8998328e-05 -0.00032609865 2.1311988e-21)
(-3.7106687e-05 -0.00032350898 1.5854131e-21)
(-3.5258205e-05 -0.00032104626 1.5023504e-21)
(-3.3450712e-05 -0.00031870767 7.1480489e-22)
(-3.1682126e-05 -0.00031649051 9.5119501e-22)
(-2.9950458e-05 -0.00031439223 7.4998954e-22)
(-2.8253807e-05 -0.00031241039 -4.5631947e-22)
(-2.6590356e-05 -0.00031054268 2.9508079e-22)
(-2.4958371e-05 -0.00030878691 9.298485e-23)
(-2.3356189e-05 -0.00030714099 1.8751768e-22)
(-2.1782218e-05 -0.00030560292 3.1028379e-23)
(-2.023493e-05 -0.00030417086 1.9039415e-22)
(-1.8712866e-05 -0.00030284301 1.8172594e-21)
(-1.7214629e-05 -0.00030161772 -5.5060492e-22)
(-1.573888e-05 -0.00030049339 3.4001131e-22)
(-1.4284333e-05 -0.00029946858 8.263188e-22)
(-1.2849752e-05 -0.00029854188 6.2772323e-22)
(-1.1433946e-05 -0.00029771205 6.9195974e-22)
(-1.0035761e-05 -0.0002969779 6.3488444e-22)
(-8.6540674e-06 -0.00029633837 1.4328218e-21)
(-7.2877547e-06 -0.00029579249 3.1508377e-22)
(-5.9357288e-06 -0.00029533937 5.3786011e-22)
(-4.5969056e-06 -0.00029497818 1.2784688e-21)
(-3.2698703e-06 -0.00029470799 8.1669911e-22)
(-1.9527303e-06 -0.00029452656 5.3863402e-22)
(-6.4667827e-07 -0.00029442822 3.8958571e-22)
(-0.00034827161 -0.00085605345 -1.5498998e-20)
(-0.00033191869 -0.00083219433 -2.6033966e-20)
(-0.00031651706 -0.00080937571 1.4392375e-21)
(-0.00030199955 -0.00078754353 1.3001486e-20)
(-0.00028830441 -0.000766647 1.0560132e-20)
(-0.00027537483 -0.00074663844 1.5049637e-20)
(-0.00026315848 -0.00072747303 -1.2296408e-20)
(-0.00025160711 -0.00070910867 5.0121013e-21)
(-0.0002406762 -0.00069150576 8.0100312e-22)
(-0.00023032463 -0.00067462705 4.9363567e-21)
(-0.00022051441 -0.00065843751 1.5067646e-20)
(-0.00021121038 -0.00064290413 -3.9306014e-21)
(-0.00020237999 -0.00062799585 -5.4799734e-21)
(-0.00019399308 -0.00061368339 1.1637347e-20)
(-0.00018602169 -0.00059993918 5.3372071e-21)
(-0.00017843986 -0.00058673718 4.4749757e-21)
(-0.00017122348 -0.00057405286 -5.6302913e-21)
(-0.00016435016 -0.00056186308 -6.2118876e-22)
(-0.00015779904 -0.00055014594 4.7511308e-21)
(-0.00015155075 -0.00053888083 2.1193817e-21)
(-0.00014558721 -0.00052804822 1.953828e-21)
(-0.00013989158 -0.00051762968 -3.309248e-23)
(-0.00013444816 -0.00050760776 7.4290533e-23)
(-0.00012924229 -0.000497966 6.0039788e-21)
(-0.00012426027 -0.00048868878 5.0114616e-21)
(-0.00011948931 -0.00047976133 2.0659549e-21)
(-0.00011491745 -0.00047116966 -3.2382657e-21)
(-0.00011053349 -0.00046290053 2.0097671e-21)
(-0.00010632694 -0.00045494137 2.0262283e-21)
(-0.00010228798 -0.0004472803 1.3785388e-21)
(-9.8407397e-05 -0.00043990602 1.8056182e-21)
(-9.4676542e-05 -0.00043280783 9.1584745e-22)
(-9.1087315e-05 -0.00042597559 1.6265088e-22)
(-8.7632091e-05 -0.00041939963 7.8446132e-22)
(-8.4303717e-05 -0.00041307083 3.4143365e-22)
(-8.1095462e-05 -0.0004069805 7.1754806e-22)
(-7.8000984e-05 -0.00040112036 9.0268177e-22)
(-7.5014322e-05 -0.00039548259 -9.9931846e-23)
(-7.2129857e-05 -0.00039005972 1.8153197e-21)
(-6.9342285e-05 -0.00038484467 9.2304563e-22)
(-6.6646622e-05 -0.00037983072 3.9998446e-23)
(-6.4038153e-05 -0.00037501145 5.6652102e-22)
(-6.151242e-05 -0.00037038077 -8.0785343e-22)
(-5.906522e-05 -0.00036593287 1.3882168e-21)
(-5.6692578e-05 -0.00036166225 -1.149154e-22)
(-5.439073e-05 -0.00035756365 1.2235869e-21)
(-5.2156116e-05 -0.00035363208 9.6978081e-22)
(-4.9985365e-05 -0.0003498628 -4.0451027e-22)
(-4.7875278e-05 -0.00034625126 9.2102861e-22)
(-4.5822822e-05 -0.00034279317 -4.0454032e-22)
(-4.3825123e-05 -0.00033948443 2.8823416e-22)
(-4.1879443e-05 -0.00033632113 2.3456269e-23)
(-3.9983187e-05 -0.00033329956 -1.4759924e-21)
(-3.8133889e-05 -0.00033041618 2.687474e-22)
(-3.632919e-05 -0.00032766763 5.1657813e-23)
(-3.4566853e-05 -0.00032505071 1.5277274e-22)
(-3.2844743e-05 -0.00032256237 -6.9874895e-22)
(-3.116082e-05 -0.0003201997 5.3232022e-23)
(-2.9513147e-05 -0.00031795996 -8.4115381e-22)
(-2.7899865e-05 -0.00031584052 2.6394033e-22)
(-2.6319193e-05 -0.00031383888 -5.3730882e-22)
(-2.4769441e-05 -0.00031195268 5.2120502e-22)
(-2.3248985e-05 -0.00031017967 7.8039433e-22)
(-2.1756273e-05 -0.0003085177 8.1732653e-22)
(-2.0289815e-05 -0.00030696475 4.164926e-22)
(-1.8848195e-05 -0.0003055189 1.2057655e-21)
(-1.743006e-05 -0.00030417832 1.8290563e-22)
(-1.6034107e-05 -0.00030294132 2.7612176e-22)
(-1.4659097e-05 -0.00030180625 1.3686288e-21)
(-1.330385e-05 -0.00030077163 -1.1529463e-22)
(-1.1967231e-05 -0.00029983602 2.5693901e-22)
(-1.0648153e-05 -0.00029899815 1.3673198e-22)
(-9.3455657e-06 -0.00029825682 8.0628437e-22)
(-8.0584467e-06 -0.00029761095 4.999987e-22)
(-6.7857884e-06 -0.00029705956 5.2314539e-22)
(-5.5265842e-06 -0.00029660179 4.4111936e-22)
(-4.2798288e-06 -0.00029623684 -2.2012684e-22)
(-3.0441991e-06 -0.0002959638 3.1705538e-22)
(-1.8179039e-06 -0.00029578042 3.9169538e-22)
(-6.0201524e-07 -0.00029568103 -5.7564936e-22)
(-0.00032347932 -0.00086818319 2.318505e-20)
(-0.00030822334 -0.0008436113 -7.6603938e-21)
(-0.00029386053 -0.00082013107 2.2589166e-20)
(-0.00028032736 -0.00079768424 -2.6022456e-20)
(-0.00026756547 -0.00077621626 -2.1016818e-20)
(-0.00025552121 -0.00075567601 7.8662949e-22)
(-0.00024414517 -0.00073601553 -5.1016622e-21)
(-0.00023339185 -0.00071718987 1.5926864e-20)
(-0.00022321929 -0.00069915681 -6.9899224e-21)
(-0.00021358876 -0.00068187675 -1.3179274e-20)
(-0.00020446448 -0.00066531244 6.8756305e-21)
(-0.00019581337 -0.00064942891 -4.6202852e-21)
(-0.00018760483 -0.00063419327 4.4241652e-21)
(-0.00017981051 -0.00061957457 1.3443853e-22)
(-0.00017240414 -0.0006055437 -5.5530717e-21)
(-0.00016536136 -0.00059207321 -3.3165887e-21)
(-0.00015865954 -0.00057913729 -8.6513818e-21)
(-0.00015227767 -0.00056671159 1.8836327e-21)
(-0.00014619621 -0.00055477313 4.3744658e-21)
(-0.00014039699 -0.00054330026 -4.174323e-21)
(-0.0001348631 -0.00053227255 -1.8593658e-21)
(-0.00012957875 -0.0005216707 -2.3863784e-21)
(-0.00012452925 -0.00051147648 3.3249243e-21)
(-0.00011970088 -0.00050167267 -1.903753e-21)
(-0.00011508084 -0.00049224298 -1.6527152e-21)
(-0.00011065718 -0.00048317203 -2.3034292e-21)
(-0.0001064187 -0.00047444522 -3.6749254e-21)
(-0.00010235494 -0.00046604879 6.111975e-21)
(-9.8456123e-05 -0.00045796968 2.2124106e-21)
(-9.4713069e-05 -0.00045019553 -1.8248979e-21)
(-9.1117181e-05 -0.00044271462 -2.5320309e-21)
(-8.7660401e-05 -0.00043551585 -2.1954064e-21)
(-8.4335161e-05 -0.00042858869 1.3988015e-21)
(-8.1134361e-05 -0.00042192316 -1.9828502e-21)
(-7.8051327e-05 -0.00041550979 -2.5554518e-21)
(-7.5079785e-05 -0.00040933959 7.2447431e-23)
(-7.2213836e-05 -0.00040340402 1.7419346e-21)
(-6.9447925e-05 -0.000397695 1.9373098e-21)
(-6.6776818e-05 -0.00039220482 -3.1092986e-21)
(-6.4195585e-05 -0.00038692616 9.4073333e-23)
(-6.169958e-05 -0.00038185209 2.5268508e-21)
(-5.9284418e-05 -0.000376976 2.1954617e-21)
(-5.6945958e-05 -0.00037229162 4.1055867e-22)
(-5.4680288e-05 -0.00036779297 8.2208202e-22)
(-5.2483712e-05 -0.00036347439 -1.6395799e-22)
(-5.0352735e-05 -0.00035933046 1.5656573e-21)
(-4.8284046e-05 -0.00035535606 6.699357e-22)
(-4.6274515e-05 -0.00035154631 -5.8733615e-22)
(-4.4321169e-05 -0.00034789656 1.3339171e-21)
(-4.2421194e-05 -0.00034440238 -7.1636871e-22)
(-4.0571924e-05 -0.00034105958 -3.4830324e-22)
(-3.8770815e-05 -0.00033786415 -7.8627008e-22)
(-3.7015454e-05 -0.00033481227 8.5889961e-22)
(-3.5303557e-05 -0.00033190033 1.4333995e-21)
(-3.3632934e-05 -0.00032912489 -1.3996275e-21)
(-3.200151e-05 -0.00032648265 5.3816126e-22)
(-3.0407305e-05 -0.00032397052 -8.8226496e-22)
(-2.8848426e-05 -0.0003215855 -3.8553543e-22)
(-2.7323071e-05 -0.0003193248 -4.3963979e-22)
(-2.5829515e-05 -0.00031718572 6.29886e-22)
(-2.4366117e-05 -0.00031516572 1.7454407e-21)
(-2.2931299e-05 -0.00031326238 4.7371886e-22)
(-2.1523556e-05 -0.00031147338 1.7081436e-21)
(-2.0141451e-05 -0.00030979655 1.9504704e-21)
(-1.87836e-05 -0.00030822982 1.1993856e-21)
(-1.7448689e-05 -0.0003067712 1.1734444e-21)
(-1.6135476e-05 -0.00030541883 4.1262348e-22)
(-1.484276e-05 -0.00030417097 -2.4687561e-22)
(-1.3569402e-05 -0.00030302594 -2.0543039e-22)
(-1.2314325e-05 -0.0003019822 -5.4415445e-22)
(-1.1076509e-05 -0.00030103829 5.0028598e-22)
(-9.8549783e-06 -0.00030019289 4.5319781e-23)
(-8.6487936e-06 -0.00029944479 1.6597966e-21)
(-7.4570533e-06 -0.0002987929 6.284393e-22)
(-6.2788559e-06 -0.00029823624 9.5267597e-22)
(-5.1133056e-06 -0.00029777399 4.821359e-22)
(-3.9594854e-06 -0.00029740536 -1.1114951e-22)
(-2.8161623e-06 -0.0002971295 2.3388139e-22)
(-1.6816458e-06 -0.0002969442 3.2534905e-22)
(-5.5687504e-07 -0.00029684376 -2.4450105e-22)
(-0.00029796852 -0.00087947022 -1.211863e-20)
(-0.00028386154 -0.00085423026 8.3295029e-23)
(-0.00027058533 -0.00083013028 5.0847663e-21)
(-0.0002580804 -0.00080710806 -1.9242727e-20)
(-0.00024629213 -0.00078510544 5.4922682e-21)
(-0.00023517032 -0.00076406802 2.9828769e-21)
(-0.00022466882 -0.00074394487 7.893186e-21)
(-0.00021474511 -0.00072468832 1.8429096e-20)
(-0.00020536001 -0.00070625368 6.9135585e-21)
(-0.00019647741 -0.00068859908 -3.0792417e-21)
(-0.00018806393 -0.00067168524 2.7052132e-21)
(-0.00018008875 -0.00065547528 1.1522265e-20)
(-0.00017252335 -0.00063993458 3.9957289e-21)
(-0.00016534137 -0.00062503064 -4.3467296e-21)
(-0.00015851833 -0.00061073286 1.2348683e-21)
(-0.00015203159 -0.0005970125 3.5971038e-21)
(-0.00014586011 -0.00058384251 5.8743396e-21)
(-0.00013998437 -0.0005711974 1.2625532e-21)
(-0.00013438622 -0.00055905319 -5.424696e-23)
(-0.00012904878 -0.00054738725 5.9348166e-21)
(-0.00012395635 -0.00053617831 3.2446051e-21)
(-0.00011909431 -0.00052540623 6.7950734e-21)
(-0.00011444901 -0.00051505205 5.3821834e-21)
(-0.00011000775 -0.00050509785 -4.1724392e-21)
(-0.00010575866 -0.00049552672 2.6662027e-21)
(-0.00010169067 -0.00048632267 7.3678464e-21)
(-9.7793409e-05 -0.00047747057 3.854111e-21)
(-9.4057203e-05 -0.00046895616 2.0826095e-21)
(-9.0472986e-05 -0.0004607659 -1.1993298e-21)
(-8.7032275e-05 -0.00045288699 2.3227692e-21)
(-8.3727116e-05 -0.00044530733 2.7778323e-21)
(-8.0550063e-05 -0.00043801543 2.628946e-21)
(-7.7494131e-05 -0.00043100042 2.7365919e-21)
(-7.4552746e-05 -0.00042425199 3.4681512e-21)
(-7.1719745e-05 -0.00041776038 2.3400765e-21)
(-6.8989335e-05 -0.00041151632 -1.3374096e-22)
(-6.6356067e-05 -0.00040551101 1.3137394e-21)
(-6.3814817e-05 -0.00039973611 2.7311093e-21)
(-6.1360756e-05 -0.00039418371 -1.6003888e-22)
(-5.8989335e-05 -0.00038884627 1.7004649e-21)
(-5.6696266e-05 -0.00038371666 1.6573206e-21)
(-5.4477505e-05 -0.0003787881 -9.5656294e-23)
(-5.2329236e-05 -0.00037405413 1.6790247e-21)
(-5.0247859e-05 -0.00036950863 1.1995941e-22)
(-4.8229969e-05 -0.00036514576 9.6210906e-22)
(-4.6272339e-05 -0.00036096001 -1.9484881e-22)
(-4.4371919e-05 -0.00035694609 2.2298852e-21)
(-4.2525829e-05 -0.00035309902 9.9534769e-22)
(-4.0731336e-05 -0.00034941402 1.7940177e-21)
(-3.8985845e-05 -0.00034588656 2.0067279e-21)
(-3.7286898e-05 -0.00034251235 2.5606011e-22)
(-3.5632165e-05 -0.0003392873 1.0926437e-21)
(-3.4019427e-05 -0.00033620749 3.4549126e-21)
(-3.2446571e-05 -0.00033326924 -1.0228788e-22)
(-3.0911591e-05 -0.00033046902 5.3317214e-22)
(-2.9412574e-05 -0.00032780347 1.0999012e-21)
(-2.7947699e-05 -0.00032526943 1.71488e-21)
(-2.6515227e-05 -0.00032286385 8.6835311e-22)
(-2.5113497e-05 -0.00032058386 9.8456004e-22)
(-2.3740924e-05 -0.00031842672 1.5569411e-21)
(-2.2395996e-05 -0.00031638984 2.33596e-21)
(-2.1077259e-05 -0.00031447073 2.0099861e-21)
(-1.9783327e-05 -0.00031266706 1.6124669e-21)
(-1.8512874e-05 -0.00031097659 1.1465928e-21)
(-1.7264641e-05 -0.00030939719 6.1212845e-22)
(-1.6037412e-05 -0.00030792687 8.9063607e-22)
(-1.4830032e-05 -0.00030656369 1.3301347e-21)
(-1.3641418e-05 -0.00030530586 1.6460853e-21)
(-1.2470539e-05 -0.00030415168 -1.9975916e-22)
(-1.1316424e-05 -0.00030309954 1.7977055e-21)
(-1.0178158e-05 -0.00030214796 1.9559974e-21)
(-9.0548894e-06 -0.00030129556 1.6156241e-21)