/*--------------------------------*- C++ -*----------------------------------*\
| =========                 |                                                 |
| \\      /  F ield         | OpenFOAM: The Open Source CFD Toolbox           |
|  \\    /   O peration     | Version:  2306                                  |
|   \\  /    A nd           | Website:  www.openfoam.com                      |
|    \\/     M anipulation  |                                                 |
\*---------------------------------------------------------------------------*/
FoamFile
{
    version     2.0;
    format      ascii;
    arch        "LSB;label=32;scalar=64";
    class       surfaceScalarField;
    location    "0.43";
    object      phi_0;
}
// * * * * * * * * * * * * * * * * * * * * * * * * * * * * * * * * * * * * * //

dimensions      [0 3 -1 0 0 0 0];

oriented        oriented;

internalField   nonuniform List<scalar> 
12640
(
-6.219647e-10
-1.7741674e-08
-2.4871132e-09
-5.3208812e-08
-5.5911377e-09
-8.858271e-08
-9.9265054e-09
-1.2379405e-07
-1.5482002e-08
-1.5876344e-07
-2.22429e-08
-1.9341587e-07
-3.0191163e-08
-2.2767934e-07
-3.9305452e-08
-2.6148337e-07
-4.9561304e-08
-2.9475905e-07
-6.0931153e-08
-3.2743938e-07
-7.3384519e-08
-3.5945917e-07
-8.6888095e-08
-3.9075515e-07
-1.0140585e-07
-4.212662e-07
-1.1689904e-07
-4.5093355e-07
-1.3332673e-07
-4.7970069e-07
-1.5064548e-07
-5.0751375e-07
-1.6880974e-07
-5.3432168e-07
-1.8777205e-07
-5.6007592e-07
-2.0748303e-07
-5.8473104e-07
-2.2789174e-07
-6.0824459e-07
-2.4894561e-07
-6.3057728e-07
-2.7059098e-07
-6.516929e-07
-2.9277291e-07
-6.715584e-07
-3.1543557e-07
-6.9014433e-07
-3.3852236e-07
-7.0742435e-07
-3.619761e-07
-7.2337586e-07
-3.8573928e-07
-7.3797912e-07
-4.0975406e-07
-7.5121809e-07
-4.3396274e-07
-7.630801e-07
-4.5830762e-07
-7.7355628e-07
-4.8273133e-07
-7.826404e-07
-5.0717724e-07
-7.9032986e-07
-5.31589e-07
-7.9662561e-07
-5.5591128e-07
-8.0153171e-07
-5.8008987e-07
-8.0505503e-07
-6.0407137e-07
-8.072058e-07
-6.2780374e-07
-8.079974e-07
-6.5123645e-07
-8.0744553e-07
-6.7432054e-07
-8.0556938e-07
-6.9700836e-07
-8.0239033e-07
-7.1925434e-07
-7.9793238e-07
-7.4101471e-07
-7.9222201e-07
-7.6224741e-07
-7.8528817e-07
-7.8291277e-07
-7.7716174e-07
-8.029728e-07
-7.6787569e-07
-8.2239202e-07
-7.5746497e-07
-8.4113703e-07
-7.4596609e-07
-8.5917658e-07
-7.3341742e-07
-8.7648181e-07
-7.1985868e-07
-8.9302623e-07
-7.0533054e-07
-9.0878584e-07
-6.8987528e-07
-9.2373861e-07
-6.7353605e-07
-9.3786521e-07
-6.5635704e-07
-9.5114849e-07
-6.3838228e-07
-9.6357359e-07
-6.1965786e-07
-9.7512804e-07
-6.0022903e-07
-9.8580182e-07
-5.8014155e-07
-9.9558668e-07
-5.5944218e-07
-1.0044771e-06
-5.3817656e-07
-1.0124699e-06
-5.1639103e-07
-1.0195632e-06
-4.941315e-07
-1.0257577e-06
-4.7144327e-07
-1.0310557e-06
-4.4837144e-07
-1.0354621e-06
-4.2496064e-07
-1.0389831e-06
-4.0125495e-07
-1.0416269e-06
-3.7729708e-07
-1.0434029e-06
-3.531298e-07
-1.0443232e-06
-3.2879391e-07
-1.0444001e-06
-3.043302e-07
-1.0436483e-06
-2.7977801e-07
-1.0420837e-06
-2.5517541e-07
-1.0397229e-06
-2.3055948e-07
-1.0365844e-06
-2.0596601e-07
-1.0326875e-06
-1.8142929e-07
-1.0280523e-06
-1.5698286e-07
-1.0227005e-06
-1.3265733e-07
-1.0166538e-06
-1.0848524e-07
-1.0099347e-06
-8.4493528e-08
-1.0025662e-06
-6.0710961e-08
-3.7158899e-08
-5.9765628e-10
-1.7144019e-08
-2.3899167e-09
-5.141655e-08
-5.3726818e-09
-8.5599943e-08
-9.5388082e-09
-1.1962792e-07
-1.4877624e-08
-1.5342462e-07
-2.137517e-08
-1.8691832e-07
-2.9014265e-08
-2.2004025e-07
-3.7774654e-08
-2.5272296e-07
-4.7633084e-08
-2.8490063e-07
-5.8563393e-08
-3.1650908e-07
-7.0536602e-08
-3.4748598e-07
-8.352101e-08
-3.7777074e-07
-9.7482325e-08
-4.0730487e-07
-1.1238386e-07
-4.3603201e-07
-1.2818654e-07
-4.6389799e-07
-1.4484908e-07
-4.9085124e-07
-1.6232822e-07
-5.1684254e-07
-1.8057869e-07
-5.4182546e-07
-1.9955353e-07
-5.6575622e-07
-2.1920415e-07
-5.8859394e-07
-2.3948074e-07
-6.1030069e-07
-2.6033193e-07
-6.3084168e-07
-2.8170547e-07
-6.5018486e-07
-3.0354807e-07
-6.6830169e-07
-3.2580581e-07
-6.8516662e-07
-3.4842421e-07
-7.0075745e-07
-3.7134824e-07
-7.1505509e-07
-3.9452293e-07
-7.2804347e-07
-4.1789278e-07
-7.3971021e-07
-4.4140305e-07
-7.5004602e-07
-4.6499873e-07
-7.5904472e-07
-4.8862542e-07
-7.6670315e-07
-5.1222938e-07
-7.7302164e-07
-5.3575787e-07
-7.7800326e-07
-5.5915848e-07
-7.8165444e-07
-5.8238023e-07
-7.8398406e-07
-6.0537322e-07
-7.850044e-07
-6.2808876e-07
-7.8473003e-07
-6.5047981e-07
-7.8317841e-07
-6.7250056e-07
-7.8036957e-07
-6.9410722e-07
-7.7632576e-07
-7.1525727e-07
-7.710719e-07
-7.3591051e-07
-7.6463492e-07
-7.5602823e-07
-7.57044e-07
-7.7557391e-07
-7.4833009e-07
-7.9451294e-07
-7.3852595e-07
-8.1281283e-07
-7.276662e-07
-8.3044337e-07
-7.157869e-07
-8.4737631e-07
-7.0292573e-07
-8.6358581e-07
-6.8912105e-07
-8.790481e-07
-6.7441299e-07
-8.9374175e-07
-6.5884247e-07
-9.0764737e-07
-6.4245144e-07
-9.2074794e-07
-6.2528167e-07
-9.3302867e-07
-6.0737712e-07
-9.4447723e-07
-5.8878055e-07
-9.5508284e-07
-5.6953595e-07
-9.6483735e-07
-5.4968765e-07
-9.7373461e-07
-5.2927933e-07
-9.8177052e-07
-5.0835518e-07
-9.8894305e-07
-4.8695888e-07
-9.9525211e-07
-4.6513431e-07
-1.0006992e-06
-4.4292435e-07
-1.005288e-06
-4.2037177e-07
-1.0090243e-06
-3.9751866e-07
-1.0119149e-06
-3.7440645e-07
-1.0139688e-06
-3.5107597e-07
-1.0151956e-06
-3.2756704e-07
-1.0156078e-06
-3.0391799e-07
-1.0152185e-06
-2.8016734e-07
-1.0140419e-06
-2.5635198e-07
-1.012094e-06
-2.3250746e-07
-1.0093916e-06
-2.0866845e-07
-1.0059526e-06
-1.848683e-07
-1.001796e-06
-1.6113932e-07
-9.9694138e-07
-1.3751198e-07
-9.9140985e-07
-1.1401688e-07
-9.8522417e-07
-9.067911e-08
-9.7840383e-07
-6.753129e-08
-4.4591587e-08
-5.7442322e-10
-1.6569595e-08
-2.2970218e-09
-4.9693952e-08
-5.1639057e-09
-8.273306e-08
-9.168286e-09
-1.1562355e-07
-1.4300024e-08
-1.4829288e-07
-2.0545831e-08
-1.8067252e-07
-2.7889389e-08
-2.1269669e-07
-3.631149e-08
-2.4430087e-07
-4.5789993e-08
-2.7542213e-07
-5.6299992e-08
-3.0599906e-07
-6.7813995e-08
-3.3597199e-07
-8.0301816e-08
-3.652829e-07
-9.3730917e-08
-3.9387578e-07
-1.0806634e-07
-4.2169657e-07
-1.2327089e-07
-4.4869344e-07
-1.3930533e-07
-4.7481677e-07
-1.5612848e-07
-5.000194e-07
-1.7369727e-07
-5.2425668e-07
-1.91967e-07
-5.4748648e-07
-2.108914e-07
-5.6966956e-07
-2.3042289e-07
-5.9076927e-07
-2.5051269e-07
-6.1075189e-07
-2.7111084e-07
-6.2958672e-07
-2.9216671e-07
-6.4724585e-07
-3.1362875e-07
-6.6370458e-07
-3.3544496e-07
-6.7894126e-07
-3.5756298e-07
-6.9293704e-07
-3.7993008e-07
-7.0567637e-07
-4.0249346e-07
-7.1714681e-07
-4.2520062e-07
-7.2733891e-07
-4.4799901e-07
-7.3624628e-07
-4.7083673e-07
-7.4386548e-07
-4.9366219e-07
-7.5019616e-07
-5.1642469e-07
-7.5524071e-07
-5.3907431e-07
-7.5900479e-07
-5.6156203e-07
-7.6149635e-07
-5.8383987e-07
-7.6272663e-07
-6.0586123e-07
-7.6270867e-07
-6.2758071e-07
-7.6145887e-07
-6.4895454e-07
-7.5899574e-07
-6.6994004e-07
-7.5534023e-07
-6.9049669e-07
-7.5051524e-07
-7.1058521e-07
-7.4454639e-07
-7.3016848e-07
-7.3746077e-07
-7.4921105e-07
-7.2928747e-07
-7.6767936e-07
-7.2005759e-07
-7.8554201e-07
-7.0980359e-07
-8.0276944e-07
-6.9855946e-07
-8.1933427e-07
-6.863609e-07
-8.3521108e-07
-6.7324425e-07
-8.503764e-07
-6.5924762e-07
-8.648094e-07
-6.4440943e-07
-8.7849091e-07
-6.2876992e-07
-8.914037e-07
-6.1236896e-07
-9.0353359e-07
-5.9524723e-07
-9.1486752e-07
-5.7744653e-07
-9.2539479e-07
-5.5900866e-07
-9.3510716e-07
-5.3997534e-07
-9.4399801e-07
-5.2038847e-07
-9.5206228e-07
-5.0029087e-07
-9.5929781e-07
-4.7972334e-07
-9.6570371e-07
-4.5872836e-07
-9.7128111e-07
-4.3734698e-07
-9.7603239e-07
-4.1562055e-07
-9.7996254e-07
-3.9358845e-07
-9.8307777e-07
-3.7129114e-07
-9.8538559e-07
-3.4876816e-07
-9.8689546e-07
-3.2605716e-07
-9.8761786e-07
-3.0319557e-07
-9.8756487e-07
-2.8022032e-07
-9.8674977e-07
-2.5716703e-07
-9.8518728e-07
-2.3406992e-07
-9.8289315e-07
-2.1096259e-07
-9.7988387e-07
-1.8787756e-07
-9.7617704e-07
-1.648461e-07
-9.7179159e-07
-1.4189754e-07
-9.6674711e-07
-1.1906135e-07
-9.6106186e-07
-9.6364422e-08
-9.547595e-07
-7.3833703e-08
-5.1492892e-08
-5.5221564e-10
-1.601738e-08
-2.2082263e-09
-4.8037942e-08
-4.9643342e-09
-7.9976951e-08
-8.8140812e-09
-1.117738e-07
-1.3747848e-08
-1.4335912e-07
-1.9752984e-08
-1.7466738e-07
-2.6813995e-08
-2.0563567e-07
-3.4912608e-08
-2.3620226e-07
-4.4027734e-08
-2.6630699e-07
-5.4135792e-08
-2.9589102e-07
-6.5210519e-08
-3.2489726e-07
-7.7223284e-08
-3.5327014e-07
-9.014311e-08
-3.8095595e-07
-1.0393672e-07
-4.0790298e-07
-1.1856878e-07
-4.3406138e-07
-1.340019e-07
-4.5938367e-07
-1.5019686e-07
-4.8382443e-07
-1.6711271e-07
-5.0734082e-07
-1.8470681e-07
-5.298924e-07
-2.0293516e-07
-5.5144118e-07
-2.217524e-07
-5.7195201e-07
-2.4111195e-07
-5.913923e-07
-2.6096642e-07
-6.0973228e-07
-2.8126727e-07
-6.2694501e-07
-3.0196539e-07
-6.4300643e-07
-3.230113e-07
-6.5789535e-07
-3.4435476e-07
-6.7159357e-07
-3.6594552e-07
-6.8408565e-07
-3.8773324e-07
-6.9535908e-07
-4.0966757e-07
-7.0540453e-07
-4.3169842e-07
-7.1421541e-07
-4.5377591e-07
-7.2178796e-07
-4.7585083e-07
-7.2812124e-07
-4.9787455e-07
-7.3321704e-07
-5.1979909e-07
-7.3708023e-07
-5.4157753e-07
-7.3971794e-07
-5.6316387e-07
-7.4114027e-07
-5.8451325e-07
-7.4135929e-07
-6.0558215e-07
-7.4039001e-07
-6.2632815e-07
-7.3824972e-07
-6.4671051e-07
-7.3495788e-07
-6.666898e-07
-7.3053595e-07
-6.8622836e-07
-7.2500785e-07
-7.052902e-07
-7.183989e-07
-7.2384101e-07
-7.1073669e-07
-7.4184831e-07
-7.0205036e-07
-7.5928154e-07
-6.9237035e-07
-7.7611191e-07
-6.8172904e-07
-7.923128e-07
-6.7016003e-07
-8.0785927e-07
-6.5769777e-07
-8.2272863e-07
-6.4437821e-07
-8.3689993e-07
-6.3023827e-07
-8.503546e-07
-6.1531519e-07
-8.6307584e-07
-5.9964777e-07
-8.7504864e-07
-5.8327436e-07
-8.8626051e-07
-5.6623466e-07
-8.9670049e-07
-5.4856866e-07
-9.0636001e-07
-5.3031589e-07
-9.1523171e-07
-5.1151668e-07
-9.2331119e-07
-4.9221143e-07
-9.3059486e-07
-4.7243974e-07
-9.3708139e-07
-4.5224175e-07
-9.4277122e-07
-4.3165713e-07
-9.4766662e-07
-4.1072509e-07
-9.5177106e-07
-3.8948408e-07
-9.5508992e-07
-3.6797226e-07
-9.5763004e-07
-3.4622797e-07
-9.5939954e-07
-3.2428757e-07
-9.6040831e-07
-3.0218689e-07
-9.6066745e-07
-2.7996132e-07
-9.6018878e-07
-2.576457e-07
-9.589864e-07
-2.3527231e-07
-9.5707401e-07
-2.1287485e-07
-9.5446737e-07
-1.9048422e-07
-9.5118336e-07
-1.6813009e-07
-9.4723875e-07
-1.4584209e-07
-9.426523e-07
-1.2364774e-07
-9.374422e-07
-1.0157446e-07
-9.3162893e-07
-7.9647026e-08
-5.7890293e-08
-5.3098165e-10
-1.5486398e-08
-2.1233219e-09
-4.6445603e-08
-4.7735094e-09
-7.7326766e-08
-8.4754082e-09
-1.080719e-07
-1.3219847e-08
-1.3861468e-07
-1.8994843e-08
-1.6889239e-07
-2.5785636e-08
-1.9884487e-07
-3.3574796e-08
-2.2841309e-07
-4.2342403e-08
-2.5753938e-07
-5.2065865e-08
-2.8616755e-07
-6.2720322e-08
-3.1424282e-07
-7.4278486e-08
-3.4171198e-07
-8.6710864e-08
-3.6852354e-07
-9.9985846e-08
-3.9462797e-07
-1.1406973e-07
-4.1997747e-07
-1.2892702e-07
-4.445264e-07
-1.445203e-07
-4.6823115e-07
-1.6081056e-07
-4.9105059e-07
-1.7775725e-07
-5.1294574e-07
-1.9531837e-07
-5.3388005e-07
-2.1345065e-07
-5.5381972e-07
-2.3210992e-07
-5.7273305e-07
-2.5125074e-07
-5.9059146e-07
-2.7082685e-07
-6.0736889e-07
-2.9079153e-07
-6.2304176e-07
-3.1109738e-07
-6.3758948e-07
-3.3169658e-07
-6.509944e-07
-3.5254106e-07
-6.6324115e-07
-3.7358261e-07
-6.7431751e-07
-3.9477316e-07
-6.84214e-07
-4.1606484e-07
-6.9292378e-07
-4.3740982e-07
-7.0044301e-07
-4.5876109e-07
-7.0676993e-07
-4.80072e-07
-7.1190619e-07
-5.0129649e-07
-7.1585569e-07
-5.2238963e-07
-7.186248e-07
-5.4330731e-07
-7.2022263e-07
-5.6400626e-07
-7.2066035e-07
-5.8444455e-07
-7.1995169e-07
-6.0458161e-07
-7.1811263e-07
-6.2437814e-07
-7.1516134e-07
-6.4379604e-07
-7.1111809e-07
-6.6279906e-07
-7.0600478e-07
-6.8135222e-07
-6.9984578e-07
-6.9942243e-07
-6.9266642e-07
-7.1697833e-07
-6.8449446e-07
-7.3398995e-07
-6.753587e-07
-7.5042957e-07
-6.6528945e-07
-7.6627107e-07
-6.5431856e-07
-7.8149022e-07
-6.4247867e-07
-7.9606477e-07
-6.2980378e-07
-8.0997419e-07
-6.1632884e-07
-8.2320015e-07
-6.0208937e-07
-8.3572582e-07
-5.8712206e-07
-8.4753665e-07
-5.7146358e-07
-8.5861955e-07
-5.5515173e-07
-8.6896412e-07
-5.3822417e-07
-8.7856091e-07
-5.2071902e-07
-8.8740306e-07
-5.0267461e-07
-8.9548482e-07
-4.8412958e-07
-9.0280282e-07
-4.6512166e-07
-9.0935494e-07
-4.4568958e-07
-9.1514127e-07
-4.2587087e-07
-9.2016283e-07
-4.057035e-07
-9.2442298e-07
-3.852239e-07
-9.2792576e-07
-3.6446947e-07
-9.3067752e-07
-3.4347624e-07
-9.3268568e-07
-3.2227954e-07
-9.3395851e-07
-3.0091395e-07
-9.345064e-07
-2.7941347e-07
-9.3434061e-07
-2.5781151e-07
-9.3347341e-07
-2.3613945e-07
-9.319179e-07
-2.1443048e-07
-9.2968896e-07
-1.9271303e-07
-9.2680151e-07
-1.7101741e-07
-9.2327205e-07
-1.4937153e-07
-9.1911727e-07
-1.2780257e-07
-9.1435505e-07
-1.0633664e-07
-9.0900468e-07
-8.499745e-08
-6.3810795e-08
-5.1067328e-10
-1.4975725e-08
-2.0421196e-09
-4.4914157e-08
-4.5910024e-09
-7.4777882e-08
-8.1514866e-09
-1.0451141e-07
-1.2714845e-08
-1.3405131e-07
-1.8269683e-08
-1.6333756e-07
-2.4801948e-08
-1.9231261e-07
-3.2295126e-08
-2.2091992e-07
-4.0730128e-08
-2.4910437e-07
-5.0085628e-08
-2.7681206e-07
-6.0337862e-08
-3.0399057e-07
-7.1460918e-08
-3.3058891e-07
-8.3426646e-08
-3.5655782e-07
-9.6205012e-08
-3.8184964e-07
-1.0976394e-07
-4.0641855e-07
-1.2406967e-07
-4.3022068e-07
-1.3908644e-07
-4.5321438e-07
-1.5477717e-07
-4.7535984e-07
-1.7110328e-07
-4.9661961e-07
-1.8802463e-07
-5.1695871e-07
-2.0550019e-07
-5.3634418e-07
-2.2348748e-07
-5.5474574e-07
-2.4194337e-07
-5.7213554e-07
-2.6082391e-07
-5.8848838e-07
-2.8008416e-07
-6.0378144e-07
-2.9967902e-07
-6.1799466e-07
-3.1956281e-07
-6.3111065e-07
-3.3968954e-07
-6.4311442e-07
-3.6001322e-07
-6.5399381e-07
-3.8048788e-07
-6.6373933e-07
-4.0106755e-07
-6.7234409e-07
-4.2170682e-07
-6.7980373e-07
-4.4236026e-07
-6.8611648e-07
-4.6298327e-07
-6.9128317e-07
-4.8353195e-07
-6.9530704e-07
-5.0396278e-07
-6.9819391e-07
-5.2423361e-07
-6.9995179e-07
-5.4430295e-07
-7.0059098e-07
-5.6413049e-07
-7.0012415e-07
-5.8367691e-07
-6.9856624e-07
-6.0290447e-07
-6.9593381e-07
-6.2177645e-07
-6.9224611e-07
-6.4025782e-07
-6.8752344e-07
-6.5831494e-07
-6.8178867e-07
-6.7591573e-07
-6.7506563e-07
-6.9302973e-07
-6.6738053e-07
-7.0962784e-07
-6.5876054e-07
-7.2568318e-07
-6.4923421e-07
-7.4117017e-07
-6.3883147e-07
-7.5606532e-07
-6.2758352e-07
-7.7034662e-07
-6.1552246e-07
-7.8399433e-07
-6.0268108e-07
-7.9698983e-07
-5.8909384e-07
-8.0931721e-07
-5.7479471e-07
-8.209613e-07
-5.5981953e-07
-8.3190969e-07
-5.4420336e-07
-8.4215127e-07
-5.2798256e-07
-8.516768e-07
-5.1119353e-07
-8.6047856e-07
-4.9387282e-07
-8.6855149e-07
-4.7605677e-07
-8.7589076e-07
-4.5778238e-07
-8.8249469e-07
-4.3908579e-07
-8.8836187e-07
-4.2000372e-07
-8.9349364e-07
-4.0057177e-07
-8.9789182e-07
-3.8082563e-07
-9.0156038e-07
-3.6080089e-07
-9.0450458e-07
-3.4053197e-07
-9.0673103e-07
-3.2005312e-07
-9.0824739e-07
-2.9939746e-07
-9.0906251e-07
-2.7859842e-07
-9.0918682e-07
-2.5768724e-07
-9.0863149e-07
-2.3669486e-07
-9.0740977e-07
-2.1565215e-07
-9.0553407e-07
-1.9458872e-07
-9.0301942e-07
-1.7353209e-07
-8.9987998e-07
-1.5251085e-07
-8.9613252e-07
-1.3155014e-07
-8.9179357e-07
-1.1067566e-07
-8.8687931e-07
-8.9911755e-08
-6.9281995e-08
-4.9124686e-10
-1.4484479e-08
-1.9644399e-09
-4.3440963e-08
-4.4164103e-09
-7.2325915e-08
-7.8415908e-09
-1.0108623e-07
-1.2231714e-08
-1.2966119e-07
-1.7575895e-08
-1.5799338e-07
-2.386082e-08
-1.8602769e-07
-3.1070685e-08
-2.1371004e-07
-3.9187437e-08
-2.4098762e-07
-4.8190718e-08
-2.6780879e-07
-5.8057891e-08
-2.941234e-07
-6.8764289e-08
-3.1988252e-07
-8.0283254e-08
-3.4503886e-07
-9.2586019e-08
-3.6954687e-07
-1.0564212e-07
-3.9336243e-07
-1.1941927e-07
-4.1644352e-07
-1.3388368e-07
-4.3874999e-07
-1.4899983e-07
-4.602437e-07
-1.6473088e-07
-4.8088857e-07
-1.8103877e-07
-5.0065084e-07
-1.9788413e-07
-5.1949882e-07
-2.1522676e-07
-5.3740312e-07
-2.3302529e-07
-5.5433702e-07
-2.5123768e-07
-5.7027596e-07
-2.6982129e-07
-5.8519786e-07
-2.8873292e-07
-5.9908302e-07
-3.0792895e-07
-6.1191461e-07
-3.2736544e-07
-6.2367798e-07
-3.4699833e-07
-6.343609e-07
-3.6678386e-07
-6.4395384e-07
-3.8667783e-07
-6.5245006e-07
-4.066367e-07
-6.5984489e-07
-4.2661725e-07
-6.6613596e-07
-4.465765e-07
-6.7132391e-07
-4.6647238e-07
-6.7541119e-07
-4.8626321e-07
-6.7840309e-07
-5.059085e-07
-6.8030648e-07
-5.2536819e-07
-6.8113127e-07
-5.4460367e-07
-6.8088866e-07
-5.6357735e-07
-6.7959259e-07
-5.8225235e-07
-6.7725878e-07
-6.0059379e-07
-6.7390468e-07
-6.1856736e-07
-6.6954986e-07
-6.3614099e-07
-6.6421506e-07
-6.5328321e-07
-6.5792335e-07
-6.6996473e-07
-6.5069906e-07
-6.8615735e-07
-6.4256789e-07
-7.0183492e-07
-6.3355663e-07
-7.1697254e-07
-6.2369398e-07
-7.3154711e-07
-6.130089e-07
-7.4553772e-07
-6.0153192e-07
-7.5892404e-07
-5.8929476e-07
-7.7168851e-07
-5.7632931e-07
-7.8381489e-07
-5.6266834e-07
-7.952885e-07
-5.4834589e-07
-8.0609684e-07
-5.3339508e-07
-8.1622859e-07
-5.1785068e-07
-8.2567471e-07
-5.0174744e-07
-8.344274e-07
-4.8512018e-07
-8.4248046e-07
-4.6800375e-07
-8.4982969e-07
-4.5043313e-07
-8.5647204e-07
-4.3244338e-07
-8.6240646e-07
-4.1406934e-07
-8.6763281e-07
-3.9534539e-07
-8.7215304e-07
-3.7630542e-07
-8.7597025e-07
-3.5698382e-07
-8.7908878e-07
-3.3741349e-07
-8.8151436e-07
-3.1762751e-07
-8.83254e-07
-2.9765785e-07
-8.8431619e-07
-2.7753608e-07
-8.8471001e-07
-2.5729342e-07
-8.8444556e-07
-2.3695925e-07
-8.8353469e-07
-2.1656299e-07
-8.819896e-07
-1.9613389e-07
-8.7982336e-07
-1.7569827e-07
-8.7705059e-07
-1.5528361e-07
-8.7368667e-07
-1.349141e-07
-8.6974568e-07
-1.1461667e-07
-8.6524449e-07
-9.4412866e-08
-7.4326378e-08
-4.7265791e-10
-1.4011821e-08
-1.8901153e-09
-4.2023506e-08
-4.2493433e-09
-6.9966687e-08
-7.5450564e-09
-9.7790516e-08
-1.1769383e-08
-1.2543687e-07
-1.6911965e-08
-1.5285079e-07
-2.2960118e-08
-1.7997952e-07
-2.989886e-08
-2.0677131e-07
-3.7710914e-08
-2.3317555e-07
-4.6376949e-08
-2.5914277e-07
-5.5875451e-08
-2.8462488e-07
-6.6182876e-08
-3.0957509e-07
-7.7273821e-08
-3.3394795e-07
-8.9121026e-08
-3.5769967e-07
-1.0169536e-07
-3.8078807e-07
-1.149661e-07
-4.0317278e-07
-1.2890096e-07
-4.2481512e-07
-1.4346621e-07
-4.4567847e-07
-1.5862667e-07
-4.6572811e-07
-1.7434604e-07
-4.8493147e-07
-1.9058681e-07
-5.0325802e-07
-2.0731056e-07
-5.2067937e-07
-2.2447792e-07
-5.3716967e-07
-2.4204875e-07
-5.5270515e-07
-2.5998228e-07
-5.6726435e-07
-2.7823719e-07
-5.8082812e-07
-2.9677188e-07
-5.9337991e-07
-3.155444e-07
-6.0490546e-07
-3.3451269e-07
-6.1539264e-07
-3.5363444e-07
-6.2483208e-07
-3.7286784e-07
-6.3321669e-07
-3.9217103e-07
-6.4054167e-07
-4.1150244e-07
-6.4680456e-07
-4.3082114e-07
-6.5200522e-07
-4.5008655e-07
-6.5614578e-07
-4.6925898e-07
-6.5923068e-07
-4.8829906e-07
-6.6126637e-07
-5.0716889e-07
-6.6226147e-07
-5.2583076e-07
-6.6222675e-07
-5.4424859e-07
-6.6117478e-07
-5.6238724e-07
-6.5912015e-07
-5.8021267e-07
-6.5607932e-07
-5.9769226e-07
-6.520703e-07
-6.1479427e-07
-6.4711302e-07
-6.3148882e-07
-6.4122882e-07
-6.477473e-07
-6.3444053e-07
-6.6354252e-07
-6.267727e-07
-6.7884892e-07
-6.1825022e-07
-6.9364244e-07
-6.0890044e-07
-7.0790063e-07
-5.9875078e-07
-7.2160213e-07
-5.8783041e-07
-7.3472815e-07
-5.7616871e-07
-7.4726087e-07
-5.6379659e-07
-7.5918441e-07
-5.5074487e-07
-7.7048447e-07
-5.3704586e-07
-7.8114815e-07
-5.2273136e-07
-7.9116452e-07
-5.0783443e-07
-8.0052392e-07
-4.9238791e-07
-8.0921864e-07
-4.7642539e-07
-8.1724258e-07
-4.5997985e-07
-8.2459048e-07
-4.430851e-07
-8.3125947e-07
-4.2577442e-07
-8.3724771e-07
-4.080811e-07
-8.4255491e-07
-3.9003816e-07
-8.4718205e-07
-3.7167823e-07
-8.5113177e-07
-3.5303406e-07
-8.5440759e-07
-3.3413759e-07
-8.5701475e-07
-3.1502043e-07
-8.5895937e-07
-2.9571305e-07
-8.6024902e-07
-2.7624657e-07
-8.6089197e-07
-2.5665037e-07
-8.6089782e-07
-2.3695349e-07
-8.6027677e-07
-2.1718406e-07
-8.5904088e-07
-1.9736991e-07
-8.5720192e-07
-1.7753736e-07
-8.5477362e-07
-1.5771188e-07
-8.517688e-07
-1.3791883e-07
-8.4820365e-07
-1.1818174e-07
-8.4409249e-07
-9.8524122e-08
-7.8967993e-08
-4.5486722e-10
-1.3556953e-08
-1.8189691e-09
-4.0659404e-08
-4.089433e-09
-6.7696223e-08
-7.2612237e-09
-9.4618728e-08
-1.132684e-08
-1.2137125e-07
-1.6276452e-08
-1.4790119e-07
-2.2097937e-08
-1.7415803e-07
-2.8777039e-08
-2.0009222e-07
-3.6297386e-08
-2.2565519e-07
-4.4640456e-08
-2.507997e-07
-5.3785844e-08
-2.7547951e-07
-6.3711137e-08
-2.9964978e-07
-7.4392084e-08
-3.2326699e-07
-8.5802747e-08
-3.4628901e-07
-9.7915329e-08
-3.6867551e-07
-1.1070061e-07
-3.9038751e-07
-1.2412781e-07
-4.1138793e-07
-1.3816475e-07
-4.3164153e-07
-1.5277787e-07
-4.5111496e-07
-1.6793259e-07
-4.6977676e-07
-1.8359318e-07
-4.8759743e-07
-1.9972288e-07
-5.0454968e-07
-2.1628408e-07
-5.2060846e-07
-2.3323859e-07
-5.3575064e-07
-2.5054739e-07
-5.4995554e-07
-2.6817108e-07
-5.6320443e-07
-2.8606978e-07
-5.7548118e-07
-3.042035e-07
-5.8677174e-07
-3.2253188e-07
-5.9706427e-07
-3.4101455e-07
-6.0634938e-07
-3.5961145e-07
-6.1461979e-07
-3.7828239e-07
-6.2187071e-07
-3.9698787e-07
-6.2809906e-07
-4.156883e-07
-6.3330483e-07
-4.3434484e-07
-6.3748918e-07
-4.5291933e-07
-6.4065613e-07
-4.7137426e-07
-6.428115e-07
-4.8967265e-07
-6.4396305e-07
-5.0777882e-07
-6.4412058e-07
-5.2565779e-07
-6.4329581e-07
-5.4327562e-07
-6.4150227e-07
-5.6059953e-07
-6.387554e-07
-5.7759801e-07
-6.3507181e-07
-5.9424049e-07
-6.3047058e-07
-6.1049814e-07
-6.2497131e-07
-6.2634294e-07
-6.1859567e-07
-6.4174884e-07
-6.113668e-07
-6.5669082e-07
-6.0330832e-07
-6.7114541e-07
-5.9444579e-07
-6.8509069e-07
-5.848055e-07
-6.9850631e-07
-5.7441476e-07
-7.1137318e-07
-5.6330188e-07
-7.2367436e-07
-5.5149537e-07
-7.3539377e-07
-5.3902543e-07
-7.4651748e-07
-5.2592216e-07
-7.5703253e-07
-5.1221624e-07
-7.6692809e-07
-4.9793898e-07
-7.7619441e-07
-4.8312158e-07
-7.8482369e-07
-4.6779621e-07
-7.9280902e-07
-4.5199456e-07
-8.0014585e-07
-4.3574831e-07
-8.0683032e-07
-4.1909001e-07
-8.1286031e-07
-4.020511e-07
-8.1823496e-07
-3.846634e-07
-8.2295487e-07
-3.6695833e-07
-8.2702192e-07
-3.4896695e-07
-8.3043934e-07
-3.3072023e-07
-8.3321157e-07
-3.1224825e-07
-8.3534345e-07
-2.9358112e-07
-8.3684228e-07
-2.7474762e-07
-8.377157e-07
-2.5577686e-07
-8.3797216e-07
-2.3669703e-07
-8.3762144e-07
-2.1753469e-07
-8.3667403e-07
-1.9831735e-07
-8.3514171e-07
-1.7906968e-07
-8.3303624e-07
-1.5981728e-07
-8.3037081e-07
-1.405843e-07
-8.2715889e-07
-1.2139375e-07
-8.2341459e-07
-1.0226835e-07
-8.3228757e-08
-4.3783229e-10
-1.3119122e-08
-1.7508573e-09
-3.9346377e-08
-3.9363331e-09
-6.5510747e-08
-6.9894766e-09
-9.1565589e-08
-1.0903138e-08
-1.1745759e-07
-1.5667944e-08
-1.4313638e-07
-2.1272386e-08
-1.6855358e-07
-2.7702885e-08
-1.9366171e-07
-3.4943791e-08
-2.184143e-07
-4.2977533e-08
-2.4276594e-07
-5.1784655e-08
-2.666724e-07
-6.1343799e-08
-2.9009063e-07
-7.1631888e-08
-3.1297891e-07
-8.2624118e-08
-3.3529678e-07
-9.4294107e-08
-3.570055e-07
-1.0661396e-07
-3.7806766e-07
-1.195543e-07
-3.9844759e-07
-1.3308447e-07
-4.181114e-07
-1.471725e-07
-4.3702693e-07
-1.617854e-07
-4.5516385e-07
-1.7688903e-07
-4.7249382e-07
-1.924483e-07
-4.889904e-07
-2.0842746e-07
-5.0462932e-07
-2.2478972e-07
-5.1938835e-07
-2.4149813e-07
-5.3324717e-07
-2.5851493e-07
-5.4618766e-07
-2.7580194e-07
-5.5819417e-07
-2.9332078e-07
-5.6925289e-07
-3.1103313e-07
-5.793519e-07
-3.2890033e-07
-5.8848218e-07
-3.4688385e-07
-5.9663626e-07
-3.6494538e-07
-6.0380916e-07
-3.8304675e-07
-6.0999779e-07
-4.0115032e-07
-6.1520126e-07
-4.1921871e-07
-6.1942075e-07
-4.3721536e-07
-6.2265958e-07
-4.5510402e-07
-6.2492281e-07
-4.728494e-07
-6.2621768e-07
-4.9041716e-07
-6.2655285e-07
-5.0777334e-07
-6.2593969e-07
-5.2488542e-07
-6.2439016e-07
-5.4172197e-07
-6.2191882e-07
-5.582522e-07
-6.1854161e-07
-5.7444697e-07
-6.1427576e-07
-5.9027805e-07
-6.0914021e-07
-6.057186e-07
-6.0315511e-07
-6.2074317e-07
-5.9634226e-07
-6.3532729e-07
-5.8872414e-07
-6.4944856e-07
-5.8032464e-07
-6.630854e-07
-5.7116866e-07
-6.7621794e-07
-5.6128226e-07
-6.8882751e-07
-5.5069231e-07
-7.0089719e-07
-5.3942559e-07
-7.1241152e-07
-5.2751112e-07
-7.2335656e-07
-5.1497709e-07
-7.337197e-07
-5.0185315e-07
-7.434897e-07
-4.881689e-07
-7.5265698e-07
-4.739544e-07
-7.6121364e-07
-4.592395e-07
-7.691529e-07
-4.4405532e-07
-7.7646919e-07
-4.2843202e-07
-7.8315899e-07
-4.124003e-07
-7.8921926e-07
-3.9599082e-07
-7.9464919e-07
-3.7923356e-07
-7.9944865e-07
-3.6215882e-07
-8.036193e-07
-3.4479639e-07
-8.0716341e-07
-3.2717617e-07
-8.1008445e-07
-3.0932723e-07
-8.1238747e-07
-2.9127802e-07
-8.1407857e-07
-2.7305661e-07
-8.1516449e-07
-2.5469096e-07
-8.156534e-07
-2.3620815e-07
-8.1555384e-07
-2.1763434e-07
-8.1487594e-07
-1.9899524e-07
-8.1363004e-07
-1.8031554e-07
-8.1182746e-07
-1.6161987e-07
-8.0948059e-07
-1.4293111e-07
-8.066017e-07
-1.2427273e-07
-8.0320457e-07
-1.0566526e-07
-8.7130646e-08
-4.2152088e-10
-1.26976e-08
-1.685634e-09
-3.8082266e-08
-3.7897293e-09
-6.3406653e-08
-6.7292497e-09
-8.8626062e-08
-1.0497384e-08
-1.1368945e-07
-1.5085202e-08
-1.3854856e-07
-2.0481732e-08
-1.6315705e-07
-2.6674053e-08
-1.874694e-07
-3.3647282e-08
-2.1144107e-07
-4.1384677e-08
-2.3502855e-07
-4.986764e-08
-2.5818941e-07
-5.9075859e-08
-2.8088241e-07
-6.8987408e-08
-3.0306737e-07
-7.9578528e-08
-3.2470566e-07
-9.0824148e-08
-3.4575988e-07
-1.0269765e-07
-3.6619413e-07
-1.1517104e-07
-3.859742e-07
-1.2821502e-07
-4.0506739e-07
-1.4179923e-07
-4.2344273e-07
-1.5589205e-07
-4.4107102e-07
-1.7046089e-07
-4.5792494e-07
-1.8547238e-07
-4.7397889e-07
-2.0089223e-07
-4.8920946e-07
-2.1668553e-07
-5.0359503e-07
-2.3281675e-07
-5.1711592e-07
-2.4924979e-07
-5.2975462e-07
-2.659483e-07
-5.4149572e-07
-2.828755e-07
-5.5232564e-07
-2.9999465e-07
-5.6223271e-07
-3.1726893e-07
-5.7120793e-07
-3.3466129e-07
-5.7924387e-07
-3.5213514e-07
-5.8633533e-07
-3.6965374e-07
-5.9247919e-07
-3.8718111e-07
-5.9767389e-07
-4.0468134e-07
-6.0192054e-07
-4.2211927e-07
-6.0522162e-07
-4.3946017e-07
-6.075819e-07
-4.5667023e-07
-6.0900764e-07
-4.7371596e-07
-6.0950714e-07
-4.9056528e-07
-6.0909035e-07
-5.0718647e-07
-6.0776901e-07
-5.2354917e-07
-6.0555614e-07
-5.3962391e-07
-6.0246686e-07
-5.5538244e-07
-5.9851726e-07
-5.7079734e-07
-5.9372527e-07
-5.858427e-07
-5.8810978e-07
-6.0049378e-07
-5.8169119e-07
-6.1472716e-07
-5.7449081e-07
-6.2852052e-07
-5.6653122e-07
-6.4185322e-07
-5.5783594e-07
-6.5470552e-07
-5.4843e-07
-6.6705975e-07
-5.383381e-07
-6.7889876e-07
-5.2758661e-07
-6.9020752e-07
-5.1620231e-07
-7.0097215e-07
-5.0421248e-07
-7.1118024e-07
-4.9164503e-07
-7.2082077e-07
-4.7852835e-07
-7.2988405e-07
-4.6489109e-07
-7.3836192e-07
-4.5076162e-07
-7.4624715e-07
-4.3616995e-07
-7.535346e-07
-4.2114461e-07
-7.6021994e-07
-4.057149e-07
-7.6630045e-07
-3.8991027e-07
-7.7177432e-07
-3.737597e-07
-7.7664114e-07
-3.5729199e-07
-7.8090175e-07
-3.4053582e-07
-7.8455851e-07
-3.2351949e-07
-7.8761412e-07
-3.0627163e-07
-7.9007273e-07
-2.8881925e-07
-7.9193999e-07
-2.7118934e-07
-7.932219e-07
-2.5340899e-07
-7.9392588e-07
-2.3550415e-07
-7.9405985e-07
-2.1750041e-07
-7.9363307e-07
-1.9942204e-07
-7.9265485e-07
-1.8129372e-07
-7.911363e-07
-1.6313845e-07
-7.890882e-07
-1.4497933e-07
-7.8652263e-07
-1.2683824e-07
-7.834521e-07
-1.087358e-07
-9.0693151e-08
-4.0589723e-10
-1.2291704e-08
-1.6231576e-09
-3.6865001e-08
-3.6493019e-09
-6.1380509e-08
-6.479985e-09
-8.5795383e-08
-1.0108707e-08
-1.1006073e-07
-1.4526957e-08
-1.3413031e-07
-1.9724336e-08
-1.5795968e-07
-2.5688448e-08
-1.8150528e-07
-3.2405174e-08
-2.0472433e-07
-3.9858531e-08
-2.275752e-07
-4.8030823e-08
-2.5001713e-07
-5.6902716e-08
-2.7201052e-07
-6.6453178e-08
-2.9351691e-07
-7.6659725e-08
-3.144991e-07
-8.7498379e-08
-3.3492123e-07
-9.8943717e-08
-3.5474881e-07
-1.1096906e-07
-3.7394882e-07
-1.2354661e-07
-3.9248988e-07
-1.3664716e-07
-4.1034218e-07
-1.5024064e-07
-4.2747755e-07
-1.6429599e-07
-4.4386957e-07
-1.7878126e-07
-4.5949365e-07
-1.9366369e-07
-4.7432701e-07
-2.0891e-07
-4.8834874e-07
-2.2448609e-07
-5.0153983e-07
-2.4035765e-07
-5.1388302e-07
-2.5648984e-07
-5.2536354e-07
-2.7284769e-07
-5.359678e-07
-2.8939573e-07
-5.4568469e-07
-3.060987e-07
-5.5450497e-07
-3.2292127e-07
-5.6242134e-07
-3.3982818e-07
-5.6942842e-07
-3.5678452e-07
-5.7552284e-07
-3.7375553e-07
-5.8070288e-07
-3.9070686e-07
-5.8496917e-07
-4.0760468e-07
-5.8832383e-07
-4.2441568e-07
-5.907709e-07
-4.411072e-07
-5.9231607e-07
-4.5764737e-07
-5.9296696e-07
-4.7400494e-07
-5.9273277e-07
-4.9014963e-07
-5.9162432e-07
-5.060519e-07
-5.896539e-07
-5.2168343e-07
-5.8683528e-07
-5.3701685e-07
-5.8318389e-07
-5.5202577e-07
-5.7871635e-07
-5.6668503e-07
-5.7345054e-07
-5.8097067e-07
-5.6740554e-07
-5.9486e-07
-5.606015e-07
-6.0833129e-07
-5.5305998e-07
-6.2136403e-07
-5.4480311e-07
-6.3393978e-07
-5.358543e-07
-6.4604048e-07
-5.2623742e-07
-6.5764969e-07
-5.1597733e-07
-6.6875273e-07
-5.0509932e-07
-6.7933574e-07
-4.9362951e-07
-6.8938651e-07
-4.8159432e-07
-6.9889389e-07
-4.690209e-07
-7.0784842e-07
-4.5593659e-07
-7.162414e-07
-4.423687e-07
-7.2406641e-07
-4.283449e-07
-7.3131732e-07
-4.1389375e-07
-7.3798972e-07
-3.9904248e-07
-7.4408038e-07
-3.8381955e-07
-7.4958752e-07
-3.6825254e-07
-7.5451019e-07
-3.5236931e-07
-7.5884892e-07
-3.3619702e-07
-7.6260503e-07
-3.1976341e-07
-7.6578125e-07
-3.0309531e-07
-7.6838119e-07
-2.8621929e-07
-7.7040941e-07
-2.6916118e-07
-7.7187181e-07
-2.5194659e-07
-7.7277451e-07
-2.346015e-07
-7.7312531e-07
-2.1714964e-07
-7.7293192e-07
-1.9961549e-07
-7.7220405e-07
-1.8202162e-07
-7.7095087e-07
-1.6439177e-07
-7.6918307e-07
-1.4674709e-07
-7.6691228e-07
-1.2910906e-07
-7.6414952e-07
-1.1149871e-07
-9.3935326e-08
-3.9092656e-10
-1.1900777e-08
-1.5633052e-09
-3.5692627e-08
-3.5147572e-09
-5.9429056e-08
-6.241138e-09
-8.3069e-08
-9.7362781e-09
-1.0656559e-07
-1.3992063e-08
-1.2987452e-07
-1.8998553e-08
-1.529532e-07
-2.4744008e-08
-1.7575983e-07
-3.1214852e-08
-1.9825348e-07
-3.8395971e-08
-2.2039409e-07
-4.627045e-08
-2.4214266e-07
-5.4819813e-08
-2.6346115e-07
-6.4024076e-08
-2.8431263e-07
-7.3861749e-08
-3.0466145e-07
-8.4310027e-08
-3.2447295e-07
-9.5344595e-08
-3.4371424e-07
-1.0694009e-07
-3.6235333e-07
-1.1906979e-07
-3.8036017e-07
-1.3170602e-07
-3.9770593e-07
-1.4482009e-07
-4.143635e-07
-1.5838212e-07
-4.3030752e-07