/*--------------------------------*- C++ -*----------------------------------*\
| =========                 |                                                 |
| \\      /  F ield         | OpenFOAM: The Open Source CFD Toolbox           |
|  \\    /   O peration     | Version:  2306                                  |
|   \\  /    A nd           | Website:  www.openfoam.com                      |
|    \\/     M anipulation  |                                                 |
\*---------------------------------------------------------------------------*/
FoamFile
{
    version     2.0;
    format      ascii;
    arch        "LSB;label=32;scalar=64";
    class       surfaceScalarField;
    location    "0.52";
    object      phi;
}
// * * * * * * * * * * * * * * * * * * * * * * * * * * * * * * * * * * * * * //

dimensions      [0 3 -1 0 0 0 0];

oriented        oriented;

internalField   nonuniform List<scalar> 
12640
(
-3.9285863e-06
1.1921877e-05
-3.5218238e-06
1.1744247e-05
-3.1380859e-06
1.1560751e-05
-2.7763853e-06
1.1372542e-05
-2.4356885e-06
1.1180678e-05
-2.1150047e-06
1.0986096e-05
-1.8133373e-06
1.078963e-05
-1.5297142e-06
1.059201e-05
-1.2631906e-06
1.0393892e-05
-1.0128531e-06
1.0195802e-05
-7.778273e-07
9.9982434e-06
-5.5728829e-07
9.801615e-06
-3.5042062e-07
9.6062562e-06
-1.565463e-07
9.4124404e-06
2.5133537e-08
9.2204465e-06
1.9520525e-07
9.0304711e-06
3.5427504e-07
8.8426559e-06
5.0292898e-07
8.657105e-06
6.4169289e-07
8.4739465e-06
7.7105767e-07
8.2932602e-06
8.9147632e-07
8.1151143e-06
1.0033688e-06
7.9395607e-06
1.1071232e-06
7.7666408e-06
1.2031007e-06
7.5963885e-06
1.291635e-06
7.4288315e-06
1.3730378e-06
7.2639944e-06
1.4475991e-06
7.1018985e-06
1.5155891e-06
6.942564e-06
1.5772623e-06
6.7860116e-06
1.6328578e-06
6.6322604e-06
1.6826008e-06
6.4813302e-06
1.7267057e-06
6.333243e-06
1.7653754e-06
6.1880212e-06
1.7988045e-06
6.0456865e-06
1.8271774e-06
5.9062627e-06
1.8506738e-06
5.7697758e-06
1.8694649e-06
5.636249e-06
1.8837163e-06
5.5057092e-06
1.8935876e-06
5.3781809e-06
1.8992344e-06
5.2536912e-06
1.9008064e-06
5.1322644e-06
1.8984505e-06
5.0139269e-06
1.8923071e-06
4.8987036e-06
1.8825156e-06
4.7866181e-06
1.8692086e-06
4.6776956e-06
1.8525176e-06
4.5719581e-06
1.8325691e-06
4.469429e-06
1.8094864e-06
4.3701292e-06
1.7833895e-06
4.2740806e-06
1.7543955e-06
4.1813028e-06
1.7226174e-06
4.0918162e-06
1.6881655e-06
4.0056384e-06
1.6511476e-06
3.9227885e-06
1.6116665e-06
3.8432839e-06
1.5698237e-06
3.7671425e-06
1.5257184e-06
3.6943812e-06
1.4794448e-06
3.6250172e-06
1.4310946e-06
3.559067e-06
1.3807585e-06
3.4965474e-06
1.3285232e-06
3.437476e-06
1.274473e-06
3.3818692e-06
1.2186896e-06
3.3297454e-06
1.1612531e-06
3.2811212e-06
1.1022404e-06
3.2360183e-06
1.0417248e-06
3.1944545e-06
9.7978301e-07
3.1564512e-06
9.1648153e-07
3.1220291e-06
8.5189496e-07
3.0912128e-06
7.8608825e-07
3.0640262e-06
7.1913042e-07
3.0404915e-06
6.5108254e-07
3.0206429e-06
5.8201067e-07
3.0045021e-06
5.1197807e-07
2.9921007e-06
4.4104677e-07
2.9834655e-06
3.6927871e-07
2.9786225e-06
2.9673499e-07
2.9775801e-06
2.2347479e-07
2.9803295e-06
1.4956186e-07
2.9868169e-06
7.5051746e-08
2.9969144e-06
3.0105633e-06
-4.2529978e-06
1.1494319e-05
-3.8481744e-06
1.1339424e-05
-3.4652319e-06
1.1177809e-05
-3.1032973e-06
1.1010607e-05
-2.7614866e-06
1.0838867e-05
-2.4389127e-06
1.0663522e-05
-2.1346901e-06
1.0485408e-05
-1.8479462e-06
1.0305266e-05
-1.5777987e-06
1.0123744e-05
-1.3234533e-06
9.941457e-06
-1.0840952e-06
9.7588852e-06
-8.5895943e-07
9.5764792e-06
-6.4730873e-07
9.3946056e-06
-4.4847255e-07
9.2136043e-06
-2.6176768e-07
9.0337419e-06
-8.6550949e-08
8.8552544e-06
7.773376e-08
8.6783713e-06
2.3160766e-07
8.5032314e-06
3.7558731e-07
8.3299665e-06
5.1015604e-07
8.1586916e-06
6.3575394e-07
7.9895163e-06
7.5279096e-07
7.8225237e-06
8.6164962e-07
7.6577818e-06
9.6268719e-07
7.4953512e-06
1.0562349e-06
7.3352835e-06
1.1426039e-06
7.1776255e-06
1.2220839e-06
7.0224185e-06
1.2949469e-06
6.8697012e-06
1.3614488e-06
6.7195099e-06
1.4218309e-06
6.5718784e-06
1.4763207e-06
6.4268405e-06
1.5251341e-06
6.2844296e-06
1.5684769e-06
6.1446783e-06
1.6065455e-06
6.0076175e-06
1.6395272e-06
5.8732811e-06
1.6676026e-06
5.7417006e-06
1.6909444e-06
5.6129071e-06
1.7097203e-06
5.4869335e-06
1.7240907e-06
5.3638107e-06
1.7342121e-06
5.2435696e-06
1.7402354e-06
5.1262413e-06
1.7423066e-06
5.0118556e-06
1.7405688e-06
4.9004413e-06
1.73516e-06
4.792027e-06
1.7262145e-06
4.6866412e-06
1.713863e-06
4.5843099e-06
1.6982321e-06
4.48506e-06
1.6794456e-06
4.3889158e-06
1.6576236e-06
4.2959026e-06
1.6328831e-06
4.2060433e-06
1.6053372e-06
4.1193616e-06
1.575097e-06
4.0358785e-06
1.5422693e-06
3.9556162e-06
1.5069589e-06
3.8785941e-06
1.4692669e-06
3.8048342e-06
1.4292925e-06
3.7343556e-06
1.3871304e-06
3.6671789e-06
1.3428747e-06
3.6033227e-06
1.2966152e-06
3.542807e-06
1.2484403e-06
3.4856512e-06
1.1984348e-06
3.4318747e-06
1.1466812e-06
3.3814985e-06
1.0932615e-06
3.3345413e-06
1.0382536e-06
3.2910261e-06
9.8173409e-07
3.2509737e-06
9.2377813e-07
3.214407e-06
8.6445759e-07
3.1813496e-06
8.0384488e-07
3.1518258e-06
7.4200984e-07
3.1258613e-06
6.7901904e-07
3.1034824e-06
6.1494226e-07
3.0847201e-06
5.4984346e-07
3.0696008e-06
4.8378911e-07
3.0581555e-06
4.1684275e-07
3.0504116e-06
3.490693e-07
3.0463954e-06
2.8053528e-07
3.0461146e-06
2.1129692e-07
3.0495674e-06
1.4142248e-07
3.0566911e-06
7.097147e-08
3.0673656e-06
3.0815347e-06
-4.5494656e-06
1.1071128e-05
-4.1477487e-06
1.0937707e-05
-3.7667808e-06
1.0796841e-05
-3.4058126e-06
1.0649639e-05
-3.0640642e-06
1.0497118e-05
-2.7407529e-06
1.0340211e-05
-2.4350924e-06
1.0179747e-05
-2.1462972e-06
1.001647e-05
-1.8736067e-06
9.8510534e-06
-1.6162604e-06
9.6841109e-06
-1.3735294e-06
9.5161545e-06
-1.1447149e-06
9.3476649e-06
-9.2913952e-07
9.1790301e-06
-7.2614712e-07
9.0106117e-06
-5.3514135e-07
8.8427362e-06
-3.555419e-07
8.6756551e-06
-1.8674064e-07
8.5095696e-06
-2.8292952e-08
8.3447836e-06
1.2033868e-07
8.181335e-06
2.5956382e-07
8.0194664e-06
3.8982962e-07
7.8592507e-06
5.1153182e-07
7.7008217e-06
6.2504764e-07
7.5442654e-06
7.3072625e-07
7.3896724e-06
8.2889693e-07
7.2371134e-06
9.1986531e-07
7.0866573e-06
1.0039201e-06
6.9383637e-06
1.081332e-06
6.7922891e-06
1.152357e-06
6.6484848e-06
1.2172364e-06
6.5069991e-06
1.2761979e-06
6.3678789e-06
1.3294597e-06
6.2311681e-06
1.3772274e-06
6.0969104e-06
1.4196981e-06
5.9651469e-06
1.4570613e-06
5.8359185e-06
1.4894974e-06
5.7092639e-06
1.517181e-06
5.5852236e-06
1.5402795e-06
5.4638348e-06
1.5589549e-06
5.3451352e-06
1.5733636e-06
5.2291612e-06
1.5836566e-06
5.1159486e-06
1.5899812e-06
5.0055304e-06
1.5924802e-06
4.8979429e-06
1.5912908e-06
4.7932163e-06
1.5865481e-06
4.6913839e-06
1.5783826e-06
4.5924755e-06
1.5669212e-06
4.4965212e-06
1.5522875e-06
4.4035496e-06
1.5346013e-06
4.313589e-06
1.5139793e-06
4.2266651e-06
1.4905359e-06
4.1428055e-06
1.4643806e-06
4.0620336e-06
1.4356221e-06
3.9843747e-06
1.4043639e-06
3.9098525e-06
1.3707085e-06
3.8384899e-06
1.3347546e-06
3.7703098e-06
1.2965976e-06
3.7053357e-06
1.2563333e-06
3.6435875e-06
1.2140506e-06
3.5850895e-06
1.1698389e-06
3.5298624e-06
1.1237846e-06
3.4779294e-06
1.0759712e-06
3.4293119e-06
1.026481e-06
3.3840317e-06
9.7539387e-07
3.3421132e-06
9.2278684e-07
3.3035803e-06
8.6873757e-07
3.2684568e-06
8.1331928e-07
3.2367678e-06
7.5660538e-07
3.2085398e-06
6.9866629e-07
3.1838e-06
6.3957526e-07
3.1625739e-06
5.7939691e-07
3.1448978e-06
5.1820245e-07
3.1307955e-06
4.5605847e-07
3.1202996e-06
3.9303078e-07
3.1134393e-06
3.2918736e-07
3.1102387e-06
2.6459095e-07
3.1107111e-06
1.9931179e-07
3.1148463e-06
1.3341279e-07
3.1225905e-06
6.6955515e-08
3.1338228e-06
3.1484901e-06
-4.8192958e-06
1.0653324e-05
-4.4217341e-06
1.0540145e-05
-4.0438032e-06
1.041891e-05
-3.6848575e-06
1.0290693e-05
-3.3442306e-06
1.0156492e-05
-3.0212246e-06
1.0017205e-05
-2.715146e-06
9.8736686e-06
-2.4253112e-06
9.7266356e-06
-2.1510258e-06
9.576768e-06
-1.8916135e-06
9.4246988e-06
-1.6464126e-06
9.2709535e-06
-1.4147609e-06
9.1160129e-06
-1.1960578e-06
8.9603271e-06
-9.8970533e-07
8.8042594e-06
-7.9512146e-07
8.6481521e-06
-6.1177145e-07
8.4923051e-06
-4.3916544e-07
8.336964e-06
-2.7671193e-07
8.1823297e-06
-1.2405055e-07
8.0286734e-06
1.9310114e-08
7.8761059e-06
1.5374859e-07
7.7248122e-06
2.7964344e-07
7.5749267e-06
3.9737653e-07
7.4265327e-06
5.0728304e-07
7.279766e-06
6.0968689e-07
7.1347092e-06
7.0489e-07
6.991454e-06
7.931755e-07
6.8500781e-06
8.7481249e-07
6.7106527e-06
9.500542e-07
6.573243e-06
1.0191403e-06
6.437913e-06
1.0822983e-06
6.3047208e-06
1.139745e-06
6.1737213e-06
1.1916872e-06
6.0449682e-06
1.2383218e-06
5.9185124e-06
1.2798373e-06
5.7944025e-06
1.3164155e-06
5.6726861e-06
1.3482299e-06
5.553409e-06
1.375449e-06
5.4366162e-06
1.398234e-06
5.3223504e-06
1.4167415e-06
5.2106536e-06
1.4311236e-06
5.1015664e-06
1.4415258e-06
4.9951282e-06
1.4480914e-06
4.8913769e-06
1.4509572e-06
4.7903499e-06
1.4502591e-06
4.6920823e-06
1.4461263e-06
4.5966085e-06
1.4386851e-06
4.5039622e-06
1.4280602e-06
4.4141744e-06
1.4143705e-06
4.3272788e-06
1.3977327e-06
4.2433031e-06
1.3782604e-06
4.1622776e-06
1.3560646e-06
4.0842293e-06
1.3312524e-06
4.0091869e-06
1.3039284e-06
3.9371764e-06
1.2741946e-06
3.8682237e-06
1.24215e-06
3.8023544e-06
1.2078912e-06
3.7395941e-06
1.1715134e-06
3.6799654e-06
1.1331066e-06
3.6234963e-06
1.0927605e-06
3.5702085e-06
1.0505624e-06
3.5201273e-06
1.0065976e-06
3.4732764e-06
9.6094837e-07
3.4296811e-06
9.1369495e-07
3.3893665e-06
8.6491713e-07
3.3523579e-06
8.1469268e-07
3.3186816e-06
7.6309698e-07
3.2883636e-06
7.1020358e-07
3.2614328e-06
6.5608701e-07
3.2379167e-06
6.0081632e-07
3.2178449e-06
5.4446714e-07
3.2012469e-06
4.8710473e-07
3.188158e-06
4.2880127e-07
3.1786033e-06
3.6962323e-07
3.1726176e-06
3.0963988e-07
3.1702223e-06
2.4891841e-07
3.171432e-06
1.8752984e-07
3.1762357e-06
1.2553685e-07
3.1845831e-06
6.3006873e-08
3.1963529e-06
3.2114971e-06
-5.0637832e-06
1.0241792e-05
-4.6712932e-06
1.0147655e-05
-4.2973334e-06
1.004495e-05
-3.941357e-06
9.9347171e-06
-3.6027846e-06
9.8179191e-06
-3.2810259e-06
9.6954459e-06
-2.9754719e-06
9.5681145e-06
-2.6855073e-06
9.4366709e-06
-2.410522e-06
9.3017829e-06
-2.1498939e-06
9.1640705e-06
-1.9030355e-06
9.0240952e-06
-1.6693628e-06
8.8823401e-06
-1.4483013e-06
8.7392657e-06
-1.2393045e-06
8.5952629e-06
-1.0418465e-06
8.4506938e-06
-8.5540424e-07
8.3058628e-06
-6.7950727e-07
8.1610667e-06
-5.1370773e-07
8.0165306e-06
-3.575419e-07
7.8725076e-06
-2.1061009e-07
7.7291738e-06
-7.2499654e-08
7.5867016e-06
5.7140288e-08
7.4452869e-06
1.7866604e-07
7.3050068e-06
2.9238915e-07
7.1660426e-06
3.986445e-07
7.0284542e-06
4.977208e-07
6.8923779e-06
5.8989621e-07
6.7579026e-06
6.7543544e-07
6.6251137e-06
7.5458752e-07
6.4940908e-06
8.2758992e-07
6.3649103e-06
8.9466903e-07
6.2376417e-06
9.5603922e-07
6.1123511e-06
1.0119053e-06
5.9891018e-06
1.0624645e-06
5.8679535e-06
1.1079037e-06
5.7489633e-06
1.1484037e-06
5.6321859e-06
1.1841383e-06
5.5176748e-06
1.2152743e-06
5.40548e-06
1.2419734e-06
5.2956509e-06
1.2643921e-06
5.1882352e-06
1.28268e-06
5.0832781e-06
1.2969847e-06
4.9808238e-06
1.3074468e-06
4.8809148e-06
1.3142048e-06
4.7835923e-06
1.3173917e-06
4.6888956e-06
1.3171374e-06
4.5968627e-06
1.3135684e-06
4.5075309e-06
1.3068076e-06
4.4209351e-06
1.2969748e-06
4.3371116e-06
1.2841863e-06
4.2560915e-06
1.2685547e-06
4.177909e-06
1.2501908e-06
4.1025932e-06
1.2292024e-06
4.0301754e-06
1.2056935e-06
3.9606854e-06
1.179766e-06
3.8941512e-06
1.1515197e-06
3.8306009e-06
1.1210507e-06
3.7700625e-06
1.0884532e-06
3.7125629e-06
1.0538215e-06
3.6581278e-06
1.0172427e-06
3.6067875e-06
9.7880544e-07
3.5585646e-06
9.3859528e-07
3.5134866e-06
8.9669585e-07
3.4715805e-06
8.5318907e-07
3.432873e-06
8.0815518e-07
3.3973922e-06
7.6167247e-07
3.3651643e-06
7.1381687e-07
3.3362187e-06
6.6466608e-07
3.3105843e-06
6.1429325e-07
3.2882892e-06
5.6277126e-07
3.2693667e-06
5.1017235e-07
3.2538455e-06
4.5657054e-07
3.2417597e-06
4.0203437e-07
3.2331398e-06
3.4663448e-07
3.228017e-06
2.9044173e-07
3.2264149e-06
2.3352634e-07
3.2283478e-06
1.7595572e-07
3.233806e-06
1.1780057e-07
3.242738e-06
5.9128255e-08
3.2550252e-06
3.2706252e-06
-5.2842044e-06
9.8372983e-06
-4.8975849e-06
9.7610357e-06
-4.5284197e-06
9.6757848e-06
-4.1762521e-06
9.5825492e-06
-3.8405942e-06
9.4822613e-06
-3.5209331e-06
9.3757846e-06
-3.2167353e-06
9.2639172e-06
-2.9274604e-06
9.1473959e-06
-2.652577e-06
9.0268994e-06
-2.3915346e-06
8.903028e-06
-2.1437928e-06
8.7763533e-06
-1.9088285e-06
8.6473758e-06
-1.6861192e-06
8.5165564e-06
-1.4751665e-06
8.3843102e-06
-1.2754696e-06
8.250997e-06
-1.0865732e-06
8.1169662e-06
-9.0801911e-07
7.9825128e-06
-7.3938488e-07
7.8478961e-06
-5.8024746e-07
7.7133701e-06
-4.3022036e-07
7.5791469e-06
-2.8894933e-07
7.4454305e-06
-1.560016e-07
7.3123393e-06
-3.1133506e-08
7.1801388e-06
8.6046222e-08
7.0488631e-06
1.957836e-07
6.9187169e-06
2.9837754e-07
6.7897838e-06
3.9410626e-07
6.662174e-06
4.8322771e-07
6.5359923e-06
5.6598703e-07
6.4113316e-06
6.4261864e-07
6.2882791e-06
7.1334405e-07
6.1669162e-06
7.7837578e-07
6.0473198e-06
8.3791673e-07
5.9295608e-06
8.9216091e-07
5.8137092e-06
9.4129493e-07
5.6998292e-06
9.8549754e-07
5.5879834e-06
1.024941e-06
5.4782313e-06
1.0597921e-06
5.3706289e-06
1.0902101e-06
5.2652328e-06
1.1163508e-06
5.1620945e-06
1.1383638e-06
5.0612649e-06
1.1563947e-06
4.9627929e-06
1.1705842e-06
4.8667253e-06
1.1810695e-06
4.7731072e-06
1.187983e-06
4.681982e-06
1.1914542e-06
4.5933913e-06
1.1916084e-06
4.5073766e-06
1.1885684e-06
4.4239757e-06
1.1824528e-06
4.3432271e-06
1.1733774e-06
4.2651668e-06
1.1614558e-06
4.1898309e-06
1.1467972e-06
4.1172517e-06
1.1295092e-06
4.0474637e-06
1.1096959e-06
3.9804986e-06
1.087459e-06
3.9163876e-06
1.0628982e-06
3.8551621e-06
1.0361101e-06
3.7968505e-06
1.0071895e-06
3.7414836e-06
9.7622782e-07
3.6890897e-06
9.4331687e-07
3.6396985e-06
9.0854393e-07
3.5933374e-06
8.7199517e-07
3.5500356e-06
8.3375483e-07
3.5098211e-06
7.9390513e-07
3.4727227e-06
7.5252823e-07
3.4387693e-06
7.0970175e-07
3.4079904e-06
6.655057e-07
3.3804154e-06
6.200154e-07
3.3560744e-06
5.7330701e-07
3.3349977e-06
5.2545535e-07
3.3172184e-06
4.7653361e-07
3.3027674e-06
4.2661545e-07
3.2916779e-06
3.757731e-07
3.2839819e-06
3.2407835e-07
3.2797114e-06
2.716039e-07
3.2788897e-06
2.184197e-07
3.2815319e-06
1.6459941e-07
3.2876261e-06
1.1021131e-07
3.2971261e-06
5.5323121e-08
3.3099137e-06
3.3259484e-06
-5.4818152e-06
9.4405011e-06
-5.1017584e-06
9.3809791e-06
-4.7381095e-06
9.312136e-06
-4.3904907e-06
9.2349304e-06
-4.0584927e-06
9.1502634e-06
-3.7416807e-06
9.0589723e-06
-3.4395969e-06
8.9618336e-06
-3.1517773e-06
8.8595761e-06
-2.8777338e-06
8.752856e-06
-2.6169953e-06
8.6422899e-06
-2.3690769e-06
8.5284347e-06
-2.1335044e-06
8.4118036e-06
-1.9098097e-06
8.2928615e-06
-1.6975251e-06
8.1720259e-06
-1.4962177e-06
8.0496896e-06
-1.3054479e-06
7.9261963e-06
-1.1247885e-06
7.8018536e-06
-9.5384893e-07
7.6769565e-06
-7.9223926e-07
7.5517605e-06
-6.3958749e-07
7.4264952e-06
-4.9553479e-07
7.3013779e-06
-3.5977217e-07
7.1765769e-06
-2.3194015e-07
7.0523064e-06
-1.1175581e-07
6.9286786e-06
1.0920839e-09
6.8058688e-06
1.0685742e-07
6.6840184e-06
2.0580771e-07
6.5632234e-06
2.9819665e-07
6.4436035e-06
3.8426447e-07
6.3252635e-06
4.6424024e-07
6.2083034e-06
5.3834056e-07
6.0928159e-06
6.0677465e-07
5.9788851e-06
6.6974234e-07
5.8665933e-06
7.2743465e-07
5.7560168e-06
7.8003579e-07
5.6472282e-06
8.2772264e-07
5.5402965e-06
8.7066543e-07
5.4352879e-06
9.0902898e-07
5.3322656e-06
9.4297151e-07
5.2312902e-06
9.726471e-07
5.1324189e-06
9.9820411e-07
5.0357082e-06
1.0197866e-06
4.9412106e-06
1.0375339e-06
4.8489778e-06
1.051583e-06
4.7590583e-06
1.0620652e-06
4.6715e-06
1.0691085e-06
4.5863482e-06
1.0728377e-06
4.503647e-06
1.0733746e-06
4.4234389e-06
1.0708369e-06
4.3457647e-06
1.0653407e-06
4.2706635e-06
1.0569976e-06
4.1981739e-06
1.0459169e-06
4.1283324e-06
1.032206e-06
4.0611746e-06
1.0159688e-06
3.9967362e-06
9.9730612e-07
3.93505e-06
9.7631839e-07
3.8761493e-06
9.5310189e-07
3.8200674e-06
9.2775117e-07
3.7668342e-06
9.0035855e-07
3.7164824e-06
8.7101526e-07
3.669042e-06
8.398085e-07
3.6245439e-06
8.0682594e-07
3.5830179e-06
7.7215216e-07
3.5444949e-06
7.3586958e-07
3.5090041e-06
6.9806148e-07
3.4765779e-06
6.5880656e-07
3.4472454e-06
6.1818442e-07
3.4210374e-06
5.7627316e-07
3.3979857e-06
5.3314882e-07
3.3781222e-06
4.8888746e-07
3.3614794e-06
4.4356444e-07
3.3480903e-06
3.9725365e-07
3.3379888e-06
3.5002946e-07
3.3312062e-06
3.0196532e-07
3.3277755e-06
2.531334e-07
3.3277216e-06
2.0360881e-07
3.3310567e-06
1.534612e-07
3.3377736e-06
1.0276583e-07
3.3478216e-06
5.1590174e-08
3.3610896e-06
3.3775381e-06
-5.6578356e-06
9.0519547e-06
-5.2849393e-06
9.0080825e-06
-4.9274317e-06
8.9546284e-06
-4.5850113e-06
8.8925099e-06
-4.2573396e-06
8.8225916e-06
-3.9440525e-06
8.7456855e-06
-3.6447644e-06
8.6625453e-06
-3.3590625e-06
8.5738747e-06
-3.0865362e-06
8.4803294e-06
-2.8267629e-06
8.3825163e-06
-2.5793128e-06
8.2809848e-06
-2.3437646e-06
8.176255e-06
-2.1196921e-06
8.068789e-06
-1.9066829e-06
7.9590165e-06
-1.7043237e-06
7.8473303e-06
-1.5122203e-06
7.734093e-06
-1.3299897e-06
7.6196226e-06
-1.1572555e-06
7.5042224e-06
-9.9366095e-07
7.388166e-06
-8.388557e-07
7.2716899e-06
-6.9249594e-07
7.1550179e-06
-5.542892e-07
7.0383699e-06
-4.2389399e-07
6.9219113e-06
-3.010503e-07
6.8058351e-06
-1.854657e-07
6.6902843e-06
-7.6879383e-08
6.5754322e-06
2.4983417e-08
6.4613609e-06
1.2033155e-07
6.3482556e-06
2.0941377e-07
6.2361812e-06
2.9245406e-07
6.1252633e-06
3.696616e-07
6.0156079e-06
4.4124238e-07
5.9073043e-06
5.0739125e-07
5.8004446e-06
5.6829678e-07
5.6951111e-06
6.2413955e-07
5.5913852e-06
6.7509391e-07
5.4893421e-06
7.213278e-07
5.3890543e-06
7.6300313e-07
5.2905902e-06
8.0027684e-07
5.1940161e-06
8.3330074e-07
5.0993954e-06
8.6222151e-07
5.0067874e-06
8.8718147e-07
4.9162504e-06
9.0831998e-07
4.8278394e-06
9.2577009e-07
4.7416081e-06
9.3966283e-07
4.6576069e-06
9.5012557e-07
4.5758856e-06
9.5728195e-07
4.4964905e-06
9.6125237e-07
4.4194685e-06
9.6215421e-07
4.344863e-06
9.6010168e-07
4.2727158e-06
9.5520649e-07
4.2030687e-06
9.4757756e-07
4.1359613e-06
9.373205e-07
4.0714317e-06
9.2453972e-07
4.0095171e-06
9.0933614e-07
3.9502535e-06
8.9180889e-07
3.8936768e-06
8.7205415e-07
3.8398219e-06
8.50167e-07
3.7887212e-06
8.2623956e-07
3.74041e-06
8.0036253e-07
3.6949192e-06
7.7262446e-07
3.652282e-06
7.4311217e-07
3.6125303e-06
7.1191157e-07
3.5756957e-06
6.7910539e-07
3.5418106e-06
6.4477638e-07
3.5109068e-06
6.0900617e-07
3.4830155e-06
5.7187366e-07
3.4581699e-06
5.3345741e-07
3.4364022e-06
4.9383529e-07
3.4177441e-06
4.5308445e-07
3.4022305e-06
4.112809e-07
3.3898939e-06
3.6850042e-07
3.38077e-06
3.2481575e-07
3.37489e-06
2.803047e-07
3.3722868e-06
2.3504084e-07
3.3729853e-06
1.8909748e-07
3.3769998e-06
1.4254989e-07
3.3843209e-06
9.5471718e-08
3.3949001e-06
4.7932493e-08
3.408629e-06
3.4254706e-06
-5.8134613e-06
8.6721269e-06
-5.4482309e-06
8.6428523e-06
-5.097405e-06
8.6038025e-06
-4.7607472e-06
8.5558523e-06
-4.4379872e-06
8.4998315e-06
-4.1288201e-06
8.4365186e-06
-3.8329251e-06
8.3666502e-06
-3.5499552e-06
8.2909044e-06
-3.279551e-06
8.2099253e-06
-3.0213426e-06
8.1243082e-06
-2.774958e-06
8.0346001e-06
-2.5400068e-06
7.9413041e-06
-2.3161262e-06
7.8449083e-06
-2.1029336e-06
7.7458241e-06
-1.900061e-06
7.6444575e-06
-1.7071455e-06
7.541178e-06
-1.5238325e-06
7.4363097e-06
-1.349775e-06
7.3301647e-06
-1.1846443e-06
7.2230356e-06
-1.0281099e-06
7.1151556e-06
-8.7986963e-07
7.0067776e-06
-7.3961304e-07
6.8981133e-06
-6.0705137e-07
6.7893497e-06
-4.8191485e-07
6.6806984e-06
-3.6395392e-07
6.5723233e-06
-2.5285599e-07
6.4643344e-06
-1.4843836e-07
6.3569432e-06
-5.0409339e-08
6.2502264e-06
4.1411036e-08
6.1443606e-06
1.2724496e-07
6.0394297e-06
2.0729575e-07
5.9355574e-06
2.8177163e-07
5.8328284e-06
3.5085968e-07
5.7313566e-06
4.1474617e-07
5.6312245e-06
4.7360817e-07
5.5325233e-06
5.2761606e-07
5.4353344e-06
5.7693515e-07
5.339735e-06
6.2172424e-07
5.2458013e-06
6.621374e-07
5.1536031e-06
6.9832473e-07
5.0632081e-06
7.3043076e-07
4.9746812e-06
7.5859655e-07
4.8880848e-06
7.8295743e-07
4.8034783e-06
8.0364755e-07
4.7209182e-06
8.2079519e-07
4.6404594e-06
8.3452577e-07
4.5621545e-06
8.449623e-07
4.4860543e-06
8.5222389e-07
4.412207e-06
8.5642652e-07
4.3406602e-06
8.5768387e-07
4.2714586e-06
8.5610659e-07
4.2046463e-06
8.5180247e-07
4.1402653e-06
8.4487702e-07
4.0783573e-06
8.3543422e-07
4.0189603e-06
8.235726e-07
3.9621147e-06
8.0939263e-07
3.9078569e-06
7.9299046e-07
3.8562241e-06
7.7445959e-07
3.8072523e-06
7.5389316e-07
3.7609759e-06
7.3138147e-07
3.7174309e-06
7.070136e-07
3.67665e-06
6.808757e-07
3.6386681e-06
6.5305397e-07
3.6035175e-06
6.2363291e-07
3.5712321e-06
5.9269411e-07
3.5418455e-06
5.6031975e-07
3.5153898e-06
5.2659079e-07
3.4918996e-06
4.9158546e-07
3.4714072e-06
4.5538311e-07
3.4539469e-06
4.1806046e-07
3.4395534e-06
3.7969575e-07
3.4282584e-06
3.4036387e-07
3.4201015e-06
3.0014265e-07
3.4151115e-06
2.5910671e-07
3.4133224e-06
2.1733245e-07
3.4147598e-06
1.7489531e-07
3.4194373e-06
1.3187023e-07
3.4273462e-06
8.8331928e-08
3.4384383e-06
4.4352429e-08
3.4526085e-06
3.469823e-06
-5.9498486e-06
8.3014014e-06
-5.5927094e-06
8.285713e-06
-5.2490234e-06
8.2601165e-06
-4.9186161e-06
8.2254452e-06
-4.601275e-06
8.1824904e-06
-4.2967591e-06
8.1320026e-06
-4.0047948e-06
8.0746862e-06
-3.7250972e-06
8.0112068e-06
-3.4573581e-06
7.9421863e-06
-3.2012563e-06
7.8682064e-06
-2.9564658e-06
7.7898099e-06
-2.7226579e-06
7.7074958e-06
-2.4994833e-06
7.6217337e-06
-2.2866185e-06
7.5329596e-06
-2.083728e-06
7.4415669e-06
-1.8904752e-06
7.347925e-06
-1.7065469e-06
7.2523817e-06
-1.5316259e-06
7.1552436e-06
-1.3653807e-06
7.0567903e-06
-1.2075372e-06
6.9573119e-06
-1.057795e-06
6.8570357e-06
-9.1587195e-07
6.7561904e-06
-7.8150556e-07
6.6549834e-06
-6.5442583e-07
6.5536185e-06
-5.3435892e-07
6.4522565e-06
-4.2110844e-07
6.351084e-06
-3.1440254e-07
6.2502376e-06
-2.1404199e-07
6.1498656e-06
-1.1978453e-07
6.0501035e-06
-3.1435142e-08
5.9510802e-06
5.1214504e-08
5.8529077e-06
1.2834381e-07
5.755699e-06
2.0013152e-07
5.6595689e-06
2.6677188e-07
5.5645843e-06
3.2843397e-07
5.4708613e-06
3.8528485e-07
5.3784835e-06
4.3748489e-07
5.2875347e-06
4.8519172e-07
5.1980948e-06
5.2855586e-07
5.1102393e-06
5.6772351e-07
5.0240401e-06
6.0283856e-07
4.9395663e-06
6.3403825e-07
4.856885e-06
6.6145758e-07
4.7760589e-06
6.8522726e-07
4.6971485e-06
7.0547395e-07
4.6202123e-06
7.2232289e-07
4.5453062e-06
7.358932e-07
4.4724832e-06
7.4630476e-07
4.401796e-06
7.5367079e-07
4.3332938e-06
7.5810477e-07
4.2670247e-06
7.5971583e-07
4.2030355e-06
7.5861033e-07
4.1413702e-06
7.5489456e-07
4.0820734e-06
7.4866909e-07
4.0251858e-06
7.4003521e-07
3.9707487e-06
7.290903e-07
3.9188017e-06
7.1593052e-07
3.8693837e-06
7.0065024e-07
3.8225327e-06
6.8334092e-07
3.7782854e-06
6.6409314e-07
3.7366789e-06
6.4299569e-07
3.6977475e-06
6.2013576e-07
3.6615279e-06
5.9559885e-07
3.6280541e-06
5.6946928e-07
3.5973613e-06
5.4183098e-07
3.5694842e-06
5.1276433e-07
3.5444559e-06
4.8235162e-07
3.5223122e-06
4.5067192e-07
3.5030864e-06
4.1780472e-07
3.486814e-06
3.8382841e-07
3.4735299e-06
3.4881925e-07
3.4632672e-06
3.1285753e-07
3.4560638e-06
2.7601788e-07
3.4519507e-06
2.3837839e-07
3.4509618e-06
2.0001585e-07
3.4531227e-06
1.6100554e-07
3.4584468e-06
1.2142479e-07
3.4669268e-06
8.1349107e-08
3.4785139e-06
4.0850945e-08
3.4931067e-06
3.5106737e-06
-6.0681192e-06
7.9400875e-06
-5.7194226e-06
7.9370163e-06
-5.3832647e-06
7.9239583e-06
-5.0595237e-06
7.9017046e-06
-4.7480433e-06
7.8710098e-06
-4.448632e-06
7.8325911e-06
-4.1610753e-06
7.7871294e-06
-3.8851325e-06
7.7352641e-06
-3.6205442e-06
7.6775979e-06
-3.3670401e-06
7.6147023e-06
-3.1243351e-06
7.5471044e-06
-2.8921404e-06
7.4753014e-06
-2.670155e-06
7.3997485e-06
-2.4580829e-06
7.3208873e-06
-2.2556261e-06
7.2391102e-06
-2.0624882e-06
7.1547873e-06
-1.8783716e-06
7.0682649e-06
-1.7029864e-06
6.9798584e-06
-1.5360583e-06
6.8898622e-06
-1.3772954e-06
6.7985489e-06
-1.2264364e-06
6.7061768e-06
-1.0832167e-06
6.6129702e-06
-9.4738359e-07
6.5191506e-06
-8.1868579e-07
6.4249208e-06
-6.9689611e-07
6.3304667e-06
-5.8175994e-07
6.2359477e-06
-4.7307542e-07
6.1415529e-06
-3.7062499e-07
6.0474153e-06
-2.74198e-07
5.9536762e-06
-1.8359327e-07
5.8604758e-06
-9.8624318e-08
5.7679387e-06
-1.9097551e-08
5.6761721e-06
5.5175606e-08
5.5852955e-06
1.2435144e-07
5.4954084e-06
1.8859805e-07
5.4066147e-06
2.4808442e-07
5.3189973e-06
3.0296633e-07
5.2326525e-06
3.5339786e-07
5.1476635e-06
3.9952585e-07
5.064111e-06
4.4149477e-07
4.9820711e-06
4.7944356e-07
4.9016172e-06
5.1350893e-07
4.8228197e-06
5.4382266e-07
4.7457453e-06
5.7051363e-07
4.6704582e-06
5.9370645e-07
4.5970195e-06
6.1352377e-07
4.5254888e-06
6.3008456e-07
4.4559227e-06
6.4350489e-07
4.3883755e-06
6.538989e-07
4.3229001e-06
6.6137669e-07
4.259547e-06
6.6604734e-07
4.1983647e-06
6.6801644e-07
4.1394017e-06
6.6738734e-07
4.0827018e-06
6.6426234e-07
4.0283109e-06
6.5874005e-07
3.976271e-06
6.5091783e-07
3.9266235e-06
6.4089196e-07
3.8794099e-06
6.2875452e-07
3.8346699e-06
6.1459793e-07
3.7924416e-06
5.9851259e-07
3.752764e-06
5.8058683e-07
3.7156731e-06
5.6090802e-07
3.6812073e-06
5.395617e-07
3.6494e-06
5.1663158e-07
3.6202915e-06
4.922018e-07
3.5939137e-06
4.6635399e-07
3.5703036e-06
4.3917005e-07
3.5494963e-06
4.1072962e-07
3.5315267e-06
3.8111283e-07
3.5164311e-06
3.5039891e-07
3.5042438e-06
3.1866499e-07
3.4950012e-06
2.8598992e-07
3.4887386e-06
2.5245145e-07
3.4854889e-06
2.1812775e-07
3.4852856e-06
1.8309624e-07
3.4881544e-06
1.4743389e-07
3.4941097e-06
1.1121794e-07
3.5031429e-06
7.4525348e-08
3.5152067e-06
3.7428968e-08
3.5302029e-06
3.548103e-06
-6.1693563e-06
7.5884276e-06
-5.8293866e-06
7.5970465e-06
-5.5010763e-06
7.5956483e-06
-5.1843544e-06
7.5849825e-06
-4.8791113e-06
7.5657665e-06
-4.5852062e-06
7.5386861e-06
-4.3024669e-06
7.5043903e-06
-4.0307027e-06
7.4634995e-06
-3.7697009e-06
7.4165962e-06
-3.5192304e-06
7.3642318e-06
-3.2790501e-06
7.3069243e-06
-3.0489061e-06
7.2451571e-06
-2.8285438e-06
7.1793862e-06
-2.6176961e-06
7.1100394e-06
-2.4160978e-06
7.0375119e-06
-2.2234841e-06
6.9621733e-06
-2.0395839e-06
6.884365e-06
-1.8641399e-06
6.8044144e-06
-1.696889e-06
6.7226113e-06
-1.5375794e-06
6.6392394e-06
-1.385959e-06
6.5545564e-06
-1.2417837e-06
6.4687952e-06
-1.1048172e-06
6.3821837e-06
-9.7482837e-07
6.294932e-06
-8.515881e-07
6.2072262e-06
-7.3488903e-07
6.1192487e-06
-6.2451068e-07
6.0311747e-06
-5.202515e-07
5.9431563e-06
-4.2191548e-07
5.8553403e-06
-3.2930664e-07
5.767867e-06
-2.4224982e-07
5.6808817e-06
-1.6055807e-07
5.5944805e-06
-8.404405e-08
5.5087818e-06
-1.2558968e-08
5.4239232e-06
5.4071599e-08
5.3399844e-06
1.1599202e-07
5.2570767e-06
1.7335972e-07
5.1752847e-06
2.2632613e-07
5.0946968e-06
2.7503501e-07
5.0154027e-06
3.1962671e-07
4.9374793e-06
3.6023878e-07
4.8610059e-06
3.9700303e-07
4.7860549e-06
4.3005048e-07
4.7126981e-06
4.5950595e-07
4.641002e-06
4.8549325e-07
4.5710322e-06
5.0813189e-07
4.5028501e-06
5.2753986e-07
4.4365147e-06
5.4383119e-07
4.3720843e-06
5.5711738e-07
4.3096137e-06
5.6750839e-07
4.2491558e-06
5.7511068e-07
4.1907624e-06
5.8002961e-07
4.1344826e-06
5.8236718e-07
4.0803643e-06
5.8222418e-07
4.0284537e-06
5.7969899e-07
3.9787957e-06
5.7488792e-07
3.9314344e-06
5.6788601e-07
3.8864123e-06
5.5878553e-07
3.8437704e-06
5.4767791e-07
3.8035491e-06
5.3465418e-07
3.7657883e-06
5.1980079e-07
3.7305264e-06
5.0320609e-07
3.6978018e-06
4.8495377e-07
3.6676521e-06
4.6513071e-07
3.640115e-06
4.4381858e-07
3.615226e-06
4.2110043e-07
3.5930221e-06
3.9705686e-07
3.5735396e-06
3.7176875e-07
3.5568147e-06
3.4531749e-07
3.5428827e-06
3.1778088e-07
3.5317806e-06
2.8923825e-07
3.5235438e-06
2.5976844e-07
3.518208e-06
2.2945048e-07
3.5158078e-06
1.9836115e-07
3.5163746e-06
1.6657967e-07
3.5199355e-06
1.3418441e-07
3.5265047e-06
1.0125365e-07
3.5360735e-06
6.786305e-08
3.5485972e-06
3.4088397e-08
3.5639777e-06
3.582191e-06
-6.2546024e-06
7.2466027e-06
-5.9235831e-06
7.2660271e-06
-5.6033821e-06
7.2754473e-06
-5.2939713e-06
7.2755714e-06
-4.9952845e-06
7.2670801e-06
-4.7072233e-06
7.250625e-06
-4.4296635e-06
7.2268305e-06
-4.1624523e-06
7.1962884e-06
-3.9054185e-06
7.1595627e-06
-3.6583728e-06
7.1171859e-06
-3.4211103e-06
7.0696619e-06
-3.1934172e-06
7.0174643e-06
-2.9750698e-06
6.9610387e-06
-2.7658354e-06
6.9008054e-06
-2.5654803e-06
6.837157e-06
-2.3737684e-06
6.7704614e-06
-2.1904608e-06
6.7010573e-06
-2.0153185e-06
6.629272e-06
-1.8481085e-06
6.5554013e-06
-1.6885975e-06
6.4797282e-06
-1.5365476e-06
6.4025068e-06
-1.391743e-06
6.3239903e-06
-1.2539598e-06
6.2444006e-06
-1.1229817e-06
6.1639537e-06
-9.985983e-07
6.0828428e-06
-8.8060832e-07
6.0012588e-06
-7.6880676e-07
5.9193731e-06
-6.6300378e-07
5.8373534e-06
-5.6301345e-07
5.7553501e-06
-4.6865837e-07
5.6735115e-06
-3.7972777e-07
5.5919513e-06
-2.9608237e-07
5.5108352e-06
-2.1755677e-07
5.4302561e-06
-1.4397679e-07
5.3503431e-06
-7.5189476e-08
5.271197e-06
-1.1034204e-08
5.1929213e-06
4.8634965e-08
5.1156156e-06
1.0395306e-07
5.0393787e-06
1.550614e-07
4.9642944e-06
2.0210359e-07
4.8904371e-06
2.4520919e-07
4.8178999e-06
2.8451e-07
4.7467544e-06
3.2013126e-07
4.6770768e-06
3.5219746e-07
4.6089359e-06
3.8082948e-07
4.5424004e-06
4.0614481e-07
4.4775346e-06
4.2825845e-07
4.4144009e-06
4.4728268e-07
4.35306e-06
4.6332797e-07
4.2935684e-06
4.7650198e-07
4.235982e-06
4.8690988e-07
4.1803547e-06
4.9465553e-07
4.1267368e-06
4.9983996e-07
4.0751799e-06
5.0256215e-07
4.0257317e-06
5.0292028e-07
3.9784383e-06
5.0100925e-07
3.9333455e-06
4.9692244e-07
3.8904988e-06
4.9075305e-07
3.8499399e-06
4.8259172e-07
3.8117106e-06
4.7252706e-07
3.7758529e-06
4.6064739e-07
3.7424056e-06
4.4703953e-07
3.7114099e-06
4.3178828e-07
3.6829036e-06
4.1497774e-07
3.6569253e-06
3.9669178e-07
3.6335118e-06
3.7701221e-07
3.6127017e-06
3.5602156e-07
3.5945305e-06
3.3379961e-07
3.5790365e-06
3.1042705e-07
3.5662554e-06
2.859836e-07
3.5562242e-06
2.6054865e-07
3.5489786e-06
2.3420083e-07
3.5445557e-06
2.0701923e-07
3.542989e-06
1.7908311e-07
3.5443113e-06
1.5047079e-07
3.548548e-06
1.2126095e-07
3.5557144e-06
9.1533425e-08
3.565801e-06
6.1364449e-08
3.5787664e-06
3.0828897e-08
3.5945126e-06
3.6130203e-06