/*--------------------------------*- C++ -*----------------------------------*\
| =========                 |                                                 |
| \\      /  F ield         | OpenFOAM: The Open Source CFD Toolbox           |
|  \\    /   O peration     | Version:  2306                                  |
|   \\  /    A nd           | Website:  www.openfoam.com                      |
|    \\/     M anipulation  |                                                 |
\*---------------------------------------------------------------------------*/
FoamFile
{
    version     2.0;
    format      ascii;
    arch        "LSB;label=32;scalar=64";
    class       surfaceScalarField;
    location    "0.4";
    object      phi_0;
}
// * * * * * * * * * * * * * * * * * * * * * * * * * * * * * * * * * * * * * //

dimensions      [0 3 -1 0 0 0 0];

oriented        oriented;

internalField   nonuniform List<scalar> 
101920
(
3.7030555e-10
-3.7030556e-10
1.2406792e-09
-8.7037358e-10
2.4773726e-09
-1.2366937e-09
3.9170843e-09
-1.4397114e-09
5.5150492e-09
-1.5979648e-09
7.2706041e-09
-1.7555551e-09
9.1744943e-09
-1.9038898e-09
1.1209767e-08
-2.0352731e-09
1.3349705e-08
-2.1399378e-09
1.5558796e-08
-2.2090908e-09
1.7794591e-08
-2.2357953e-09
2.0009653e-08
-2.2150617e-09
2.2152678e-08
-2.1430258e-09
2.4168993e-08
-2.016314e-09
2.6000783e-08
-1.8317908e-09
2.7591465e-08
-1.5906819e-09
2.8878159e-08
-1.286694e-09
2.9802992e-08
-9.2483129e-10
3.0308957e-08
-5.05966e-10
3.0365466e-08
-5.6509021e-11
2.9836537e-08
5.2892821e-10
2.8695939e-08
1.1405984e-09
2.6892371e-08
1.8035673e-09
2.4372802e-08
2.519571e-09
2.1083487e-08
3.2893127e-09
1.6978897e-08
4.1045904e-09
1.2017901e-08
4.9609953e-09
6.1526673e-09
5.8652349e-09
-6.363672e-10
6.7890312e-09
-8.4001752e-09
7.76381e-09
-1.7169141e-08
8.7689653e-09
-2.6964397e-08
9.7952586e-09
-3.7802367e-08
1.0837968e-08
-4.9694576e-08
1.1892214e-08
-6.2647394e-08
1.2952815e-08
-7.6661818e-08
1.4014423e-08
-9.1733416e-08
1.50716e-08
-1.0785231e-07
1.6118894e-08
-1.2500322e-07
1.7150905e-08
-1.4316553e-07
1.8162322e-08
-1.6231349e-07
1.914796e-08
-1.8241631e-07
2.0102812e-08
-2.0343837e-07
2.1022065e-08
-2.2533951e-07
2.1901135e-08
-2.4807522e-07
2.2735712e-08
-2.7159698e-07
2.3521758e-08
-2.9585253e-07
2.4255549e-08
-3.2078621e-07
2.4933684e-08
-3.4633932e-07
2.5553105e-08
-3.7245044e-07
2.6111125e-08
-3.9905583e-07
2.6605388e-08
-4.2608977e-07
2.7033943e-08
-4.5348497e-07
2.7395193e-08
-4.811729e-07
2.7687932e-08
-5.090842e-07
2.7911305e-08
-5.3714904e-07
2.8064838e-08
-5.6529747e-07
2.8148424e-08
-5.9345975e-07
2.8162281e-08
-6.2156673e-07
2.8106978e-08
-6.4955014e-07
2.7983411e-08
-6.7734289e-07
2.7792754e-08
-7.0487939e-07
2.7536498e-08
-7.3209574e-07
2.7216349e-08
-7.5893006e-07
2.6834328e-08
-7.8532269e-07
2.6392624e-08
-8.1121633e-07
2.5893644e-08
-8.365563e-07
2.5339969e-08
-8.6129066e-07
2.473435e-08
-8.8537031e-07
2.4079656e-08
-9.0874918e-07
2.3378866e-08
-9.3138423e-07
2.2635057e-08
-9.5323561e-07
2.1851377e-08
-9.742666e-07
2.103099e-08
-9.944437e-07
2.0177097e-08
-1.0137366e-06
1.9292896e-08
-1.0321182e-06
1.8381558e-08
-1.0495644e-06
1.7446205e-08
-1.0660543e-06
1.6489957e-08
-1.0815702e-06
1.5515883e-08
-1.0960972e-06
1.4527045e-08
-1.1096237e-06
1.3526473e-08
-1.1221409e-06
1.251722e-08
-1.1336433e-06
1.1502311e-08
-1.144128e-06
1.0484753e-08
-1.1535954e-06
9.4673492e-09
-1.1620479e-06
8.4525566e-09
-1.16949e-06
7.4421101e-09
-1.1759269e-06
6.4368549e-09
-1.1813607e-06
5.4338276e-09
-1.1857873e-06
4.4266471e-09
-1.1892128e-06
3.4254647e-09
-1.1916592e-06
2.4464369e-09
-1.1931326e-06
1.473376e-09
-1.1936032e-06
4.7061201e-10
-1.1931483e-06
-4.548858e-10
-1.1918308e-06
-1.3175752e-09
-1.1896315e-06
-2.1993021e-09
-1.186558e-06
-3.0734491e-09
-1.1826262e-06
-3.9317993e-09
-1.1778549e-06
-4.7713269e-09
-1.1722641e-06
-5.590833e-09
-1.1658743e-06
-6.3897882e-09
-1.1587064e-06
-7.1678895e-09
-1.1507814e-06
-7.9250224e-09
-1.1421203e-06
-8.661075e-09
-1.1327442e-06
-9.3760814e-09
-1.1226741e-06
-1.0070112e-08
-1.1119308e-06
-1.0743268e-08
-1.1005351e-06
-1.1395751e-08
-1.0885073e-06
-1.2027784e-08
-1.0758676e-06
-1.2639625e-08
-1.062636e-06
-1.3231645e-08
-1.0488318e-06
-1.3804152e-08
-1.0344743e-06
-1.4357584e-08
-1.0195819e-06
-1.4892336e-08
-1.004173e-06
-1.5408885e-08
-9.8826536e-07
-1.5907691e-08
-9.7187611e-07
-1.638925e-08
-9.5502202e-07
-1.6854088e-08
-9.3771929e-07
-1.7302733e-08
-9.1998358e-07
-1.7735704e-08
-9.0183002e-07
-1.8153563e-08
-8.8327317e-07
-1.8556852e-08
-8.6432703e-07
-1.8946144e-08
-8.4500507e-07
-1.9321963e-08
-8.2532018e-07
-1.9684871e-08
-8.0528473e-07
-2.003546e-08
-7.8491048e-07
-2.037425e-08
-7.6420872e-07
-2.0701763e-08
-7.4319018e-07
-2.1018541e-08
-7.2186504e-07
-2.1325142e-08
-7.00243e-07
-2.1622046e-08
-6.7833322e-07
-2.1909784e-08
-6.5614439e-07
-2.2188835e-08
-6.3368473e-07
-2.2459663e-08
-6.1096197e-07
-2.2722755e-08
-5.8798338e-07
-2.2978588e-08
-5.6475583e-07
-2.3227544e-08
-5.4128574e-07
-2.3470075e-08
-5.1757914e-07
-2.3706603e-08
-4.9364167e-07
-2.3937482e-08
-4.6947862e-07
-2.4163037e-08
-4.4509501e-07
-2.4383632e-08
-4.204955e-07
-2.459951e-08
-3.9568464e-07
-2.4810843e-08
-3.7066684e-07
-2.5017796e-08
-3.4544641e-07
-2.5220448e-08
-3.2002777e-07
-2.5418643e-08
-2.9441584e-07
-2.5611938e-08
-2.6861665e-07
-2.5799193e-08
-2.4263867e-07
-2.5977988e-08
-2.1649519e-07
-2.6143468e-08
-1.9020916e-07
-2.6286021e-08
-1.6382151e-07
-2.6387633e-08
-1.3740377e-07
-2.641775e-08
-1.1106778e-07
-2.6335988e-08
-8.4931486e-08
-2.6136283e-08
-5.8896804e-08
-2.6034693e-08
-3.1803067e-08
-2.7093742e-08
-3.1803075e-08
-2.299863e-10
-1.4031938e-10
-1.1365784e-09
3.621841e-11
-2.8824588e-09
5.0918731e-10
-5.6666582e-09
1.3444876e-09
-9.576252e-09
2.3116284e-09
-1.4640625e-08
3.308818e-09
-2.0881792e-08
4.3372781e-09
-2.8325984e-08
5.4089176e-09
-3.7007462e-08
6.5415416e-09
-4.6969229e-08
7.7526749e-09
-5.8261807e-08
9.0567834e-09
-7.0941808e-08
1.0464939e-08
-8.5070435e-08
1.1985602e-08
-1.0071202e-07
1.3625267e-08
-1.1793254e-07
1.5388729e-08
-1.3680019e-07
1.727697e-08
-1.5738072e-07
1.9293839e-08
-1.797411e-07
2.1435553e-08
-2.0394694e-07
2.3699869e-08
-2.3008525e-07
2.6081804e-08
-2.5815496e-07
2.8598639e-08
-2.8823931e-07
3.1224949e-08
-3.2038901e-07
3.3953263e-08
-3.5464634e-07
3.6776908e-08
-3.9104525e-07
3.9688224e-08
-4.2961547e-07
4.2674806e-08
-4.7037994e-07
4.5725469e-08
-5.1334597e-07
4.8831263e-08
-5.5853101e-07
5.1974073e-08
-6.0591661e-07
5.5149407e-08
-6.5548747e-07
5.8339831e-08
-7.0722125e-07
6.152904e-08
-7.6108499e-07
6.4701712e-08
-8.1703548e-07
6.78427e-08
-8.7501955e-07
7.0936883e-08
-9.3497428e-07
7.3969151e-08
-9.968272e-07
7.6924524e-08
-1.0604966e-06
7.9788266e-08
-1.1258917e-06
8.2545996e-08
-1.1929131e-06
8.5183792e-08
-1.2614534e-06
8.7688266e-08
-1.3313973e-06
9.0046711e-08
-1.4026224e-06
9.224713e-08
-1.4749996e-06
9.4278338e-08
-1.548394e-06
9.6130055e-08
-1.6226651e-06
9.7792901e-08
-1.6976681e-06
9.9258517e-08
-1.7732539e-06
1.0051955e-07
-1.8492706e-06
1.0156974e-07
-1.9255634e-06
1.0240391e-07
-2.0019759e-06
1.0301794e-07
-2.0783509e-06
1.034089e-07
-2.1545306e-06
1.0357489e-07
-2.2303578e-06
1.0351515e-07
-2.3056764e-06
1.0322995e-07
-2.3803322e-06
1.0272063e-07
-2.4541734e-06
1.0198957e-07
-2.5270511e-06
1.0104006e-07
-2.5988205e-06
9.9876308e-08
-2.6693405e-06
9.8503463e-08
-2.7384752e-06
9.6927397e-08
-2.8060934e-06
9.5154781e-08
-2.87207e-06
9.3192936e-08
-2.9362856e-06
9.1049856e-08
-2.998627e-06
8.873401e-08
-3.0589877e-06
8.6254416e-08
-3.1172682e-06
8.3620447e-08
-3.1733757e-06
8.0841864e-08
-3.2272247e-06
7.7928676e-08
-3.278737e-06
7.4891118e-08
-3.3278415e-06
7.1739577e-08
-3.3744747e-06
6.8484523e-08
-3.4185801e-06
6.5136411e-08
-3.4601086e-06
6.1705669e-08
-3.4990183e-06
5.8202595e-08
-3.5352741e-06
5.4637338e-08
-3.5688478e-06
5.1019849e-08
-3.5997177e-06
4.7359885e-08
-3.6278688e-06
4.3667017e-08
-3.6532923e-06
3.9950559e-08
-3.6759855e-06
3.6219601e-08
-3.6959513e-06
3.2483028e-08
-3.7131983e-06
2.8749386e-08
-3.7277404e-06
2.502684e-08
-3.739596e-06
2.1322922e-08
-3.7487876e-06
1.7644115e-08
-3.7553399e-06
1.3994493e-08
-3.7592774e-06
1.0374272e-08
-3.7606105e-06
6.7669595e-09
-3.7593632e-06
3.1793043e-09
-3.7555359e-06
-4.0174513e-10
-3.7493649e-06
-3.724619e-09
-3.7408148e-06
-7.0767393e-09
-3.7299554e-06
-1.0388736e-08
-3.7167559e-06
-1.3654428e-08
-3.7012345e-06
-1.6838928e-08
-3.6834829e-06
-1.9950963e-08
-3.6635647e-06
-2.2991651e-08
-3.6415364e-06
-2.596007e-08
-3.6174527e-06
-2.8855058e-08
-3.5913679e-06
-3.167563e-08
-3.5633365e-06
-3.442118e-08
-3.533413e-06
-3.7091346e-08
-3.501652e-06
-3.9686104e-08
-3.4681074e-06
-4.2205625e-08
-3.4328331e-06
-4.4650365e-08
-3.3958823e-06
-4.7020941e-08
-3.3573074e-06
-4.931818e-08
-3.3171601e-06
-5.1543092e-08
-3.275491e-06
-5.3696793e-08
-3.2323501e-06
-5.5780591e-08
-3.1877858e-06
-5.7795882e-08
-3.1418458e-06
-5.9744195e-08
-3.0945763e-06
-6.1627132e-08
-3.0460222e-06
-6.3446389e-08
-2.9962273e-06
-6.5203771e-08
-2.9452339e-06
-6.6901065e-08
-2.893083e-06
-6.8540184e-08
-2.839814e-06
-7.0123055e-08
-2.7854651e-06
-7.1651604e-08
-2.730073e-06
-7.3127833e-08
-2.6736728e-06
-7.4553734e-08
-2.6162984e-06
-7.5931268e-08
-2.5579821e-06
-7.7262502e-08
-2.4987547e-06
-7.8549348e-08
-2.4386457e-06
-7.9793856e-08
-2.3776832e-06
-8.0997951e-08
-2.3158939e-06
-8.2163579e-08
-2.253303e-06
-8.3292667e-08
-2.1899345e-06
-8.4387066e-08
-2.125811e-06
-8.5448652e-08
-2.0609538e-06
-8.6479237e-08
-1.995383e-06
-8.7480569e-08
-1.9291174e-06
-8.8454393e-08
-1.8621747e-06
-8.9402345e-08
-1.7945714e-06
-9.0326126e-08
-1.7263227e-06
-9.1227256e-08
-1.657443e-06
-9.2107275e-08
-1.5879454e-06
-9.296768e-08
-1.5178421e-06
-9.380989e-08
-1.4471444e-06
-9.4635222e-08
-1.3758625e-06
-9.5444901e-08
-1.304006e-06
-9.6240072e-08
-1.2315842e-06
-9.7021289e-08
-1.1586058e-06
-9.7789312e-08
-1.0850786e-06
-9.8544962e-08
-1.0110104e-06
-9.9288698e-08
-9.364087e-07
-1.0002032e-07
-8.612818e-07
-1.0073883e-07
-7.8563929e-07
-1.0144168e-07
-7.0949354e-07
-1.0212373e-07
-6.3286177e-07
-1.0277523e-07
-5.5576866e-07
-1.0337912e-07
-4.7824803e-07
-1.0390827e-07
-4.0033834e-07
-1.0432745e-07
-3.2205782e-07
-1.046165e-07
-2.4332883e-07
-1.0486527e-07
-1.6381651e-07
-1.0554702e-07
-8.2856497e-08
-1.0805374e-07
-1.1465957e-07
-1.1074542e-09
9.6713481e-10
-4.4623649e-09
3.3911293e-09
-1.017175e-08
6.2185719e-09
-1.8331301e-08
9.5040393e-09
-2.9021875e-08
1.3002202e-08
-4.2297843e-08
1.6584786e-08
-5.819499e-08
2.0234426e-08
-7.6744229e-08
2.3958156e-08
-9.7976798e-08
2.7774111e-08
-1.2192659e-07
3.1702471e-08
-1.4863075e-07
3.5760941e-08
-1.7812929e-07
3.9963477e-08
-2.1046413e-07
4.4320441e-08
-2.4567788e-07
4.883902e-08
-2.8381255e-07
5.3523401e-08
-3.2491002e-07
5.8374435e-08
-3.6900783e-07
6.3391652e-08
-4.1614256e-07
6.8570288e-08
-4.6634706e-07
7.3904365e-08
-5.1965176e-07
7.9386507e-08
-5.7606422e-07
8.50111e-08
-6.3560086e-07
9.0761586e-08
-6.9826951e-07
9.6621912e-08
-7.6406832e-07
1.0257572e-07
-8.3298528e-07
1.0860518e-07
-9.0500046e-07
1.1468998e-07
-9.80084e-07
1.2080901e-07
-1.0581933e-06
1.2694062e-07
-1.1392798e-06
1.3306049e-07
-1.2232767e-06
1.3914634e-07
-1.3101092e-06
1.4517234e-07
-1.3996921e-06
1.5111198e-07
-1.4919291e-06
1.5693871e-07
-1.5867126e-06
1.6262611e-07
-1.6839236e-06
1.6814792e-07
-1.7834327e-06
1.7347825e-07
-1.8850998e-06
1.7859164e-07
-1.9887749e-06
1.8346337e-07
-2.0942985e-06
1.8806954e-07
-2.201502e-06
1.923873e-07
-2.3102087e-06
1.9639498e-07
-2.4202342e-06
2.0007224e-07
-2.5313873e-06
2.0340025e-07
-2.6434708e-06
2.0636177e-07
-2.7562819e-06
2.0894124e-07
-2.869614e-06
2.1112496e-07
-2.9832565e-06
2.1290104e-07
-3.0969965e-06
2.1425956e-07
-3.2106194e-06
2.1519257e-07
-3.3239096e-06
2.1569416e-07
-3.436652e-06
2.1576035e-07
-3.5486323e-06
2.1538924e-07
-3.6596383e-06
2.1458089e-07
-3.7694605e-06
2.1333727e-07
-3.8778928e-06
2.1166232e-07
-3.9847339e-06
2.0956173e-07
-4.0897874e-06
2.0704301e-07
-4.1928626e-06
2.0411533e-07
-4.2937757e-06
2.0078937e-07
-4.3923496e-06
1.9707736e-07
-4.488415e-06
1.9299282e-07
-4.5818108e-06
1.8855054e-07
-4.6723843e-06
1.8376641e-07
-4.7599917e-06
1.7865733e-07
-4.8444987e-06
1.7324101e-07
-4.9257803e-06
1.6753596e-07
-5.0037211e-06
1.6156122e-07
-5.0782156e-06
1.5533638e-07
-5.1491683e-06
1.4888135e-07
-5.2164934e-06
1.4221631e-07
-5.2801154e-06
1.3536151e-07
-5.3399681e-06
1.2833729e-07
-5.3959956e-06
1.2116381e-07
-5.4481509e-06
1.1386101e-07
-5.4963969e-06
1.0644854e-07
-5.5407051e-06
9.8945605e-08
-5.5810562e-06
9.1370955e-08
-5.6174392e-06
8.3742864e-08
-5.6498513e-06
7.6079082e-08
-5.6782975e-06
6.8396764e-08
-5.7027904e-06
6.0712499e-08
-5.7233496e-06
5.304229e-08
-5.7400017e-06
4.5401464e-08
-5.7527795e-06
3.7804622e-08
-5.7617219e-06
3.0265339e-08
-5.7668733e-06
2.2795519e-08
-5.7682834e-06
1.5404616e-08
-5.7660242e-06
8.114998e-09
-5.7601759e-06
9.1867398e-10
-5.7507045e-06
-6.2920674e-09
-5.7377606e-06
-1.3345643e-08
-5.7212602e-06
-2.0225046e-08
-5.7013733e-06
-2.696361e-08
-5.6781941e-06
-3.3567983e-08
-5.6518081e-06
-4.0040405e-08
-5.622275e-06
-4.6371977e-08
-5.5896679e-06
-5.2558083e-08
-5.5540638e-06
-5.8595786e-08
-5.5155408e-06
-6.4483001e-08
-5.4741777e-06
-7.0218209e-08
-5.430053e-06
-7.580033e-08
-5.3832452e-06
-8.122898e-08
-5.3338324e-06
-8.6504152e-08
-5.2818921e-06
-9.1626402e-08
-5.227501e-06
-9.659667e-08
-5.1707351e-06
-1.0141633e-07
-5.1116689e-06
-1.0608714e-07
-5.0503759e-06
-1.1061116e-07
-4.9869283e-06
-1.1499072e-07
-4.9213965e-06
-1.1922854e-07
-4.8538496e-06
-1.233275e-07
-4.7843548e-06
-1.2729067e-07
-4.7129776e-06
-1.3112141e-07
-4.6397816e-06
-1.3482313e-07
-4.5648285e-06
-1.3839947e-07
-4.4881781e-06
-1.4185416e-07
-4.4098882e-06
-1.4519103e-07
-4.3300144e-06
-1.4841395e-07
-4.2486105e-06
-1.5152696e-07
-4.1657281e-06
-1.5453403e-07
-4.0814167e-06
-1.5743923e-07
-3.9957238e-06
-1.6024662e-07
-3.9086948e-06
-1.6296026e-07
-3.8203731e-06
-1.6558419e-07
-3.7308e-06
-1.6812246e-07
-3.6400148e-06
-1.7057902e-07
-3.5480549e-06
-1.7295792e-07
-3.4549555e-06
-1.7526294e-07
-3.3607502e-06
-1.7749796e-07
-3.2654705e-06
-1.796668e-07
-3.1691461e-06
-1.8177308e-07
-3.0718048e-06
-1.8382045e-07
-2.9734729e-06
-1.8581246e-07
-2.8741748e-06
-1.877525e-07
-2.7739332e-06
-1.8964397e-07
-2.6727693e-06
-1.9149001e-07
-2.5707028e-06
-1.9329383e-07
-2.4677516e-06
-1.9505841e-07
-2.3639326e-06
-1.967867e-07
-2.2592611e-06
-1.9848141e-07
-2.1537511e-06
-2.0014519e-07
-2.0474155e-06
-2.0178049e-07
-1.9402661e-06
-2.0338949e-07
-1.8323132e-06
-2.0497415e-07
-1.7235664e-06
-2.0653618e-07
-1.6140343e-06
-2.0807704e-07
-1.5037253e-06
-2.0959773e-07
-1.3926471e-06
-2.1109842e-07
-1.2808078e-06
-2.1257812e-07
-1.1682156e-06
-2.1403392e-07
-1.0548796e-06
-2.1545975e-07
-9.4080994e-07
-2.1684488e-07
-8.2601683e-07
-2.1817225e-07
-7.1050616e-07
-2.1941894e-07
-5.9426792e-07
-2.2056567e-07
-4.7725214e-07
-2.2163232e-07
-3.5933772e-07
-2.2277969e-07
-2.4035249e-07
-2.2453225e-07
-1.2030088e-07
-2.2810535e-07
-2.3496046e-07
-1.8058463e-09
2.7729811e-09
-7.1322093e-09
8.7174921e-09
-1.5992294e-08
1.5078657e-08
-2.8392373e-08
2.1904118e-08
-4.4383734e-08
2.8993563e-08
-6.4023246e-08
3.6224299e-08
-8.7353736e-08
4.3564915e-08
-1.1440883e-07
5.1013248e-08
-1.4521666e-07
5.8581938e-08
-1.7980235e-07
6.6288165e-08
-2.1818952e-07
7.4148109e-08
-2.6040077e-07
8.2174731e-08
-3.064575e-07
9.0377174e-08
-3.5637924e-07
9.8760758e-08
-4.1018288e-07
1.0732704e-07
-4.6788232e-07
1.1607387e-07
-5.2948663e-07
1.2499596e-07
-5.950006e-07
1.3408426e-07
-6.6442318e-07
1.4332694e-07
-7.3774629e-07
1.5270962e-07
-8.149506e-07
1.6221542e-07
-8.9601154e-07
1.7182253e-07
-9.8089626e-07
1.8150663e-07
-1.069562e-06
1.9124147e-07
-1.1619555e-06
2.0099866e-07
-1.2580131e-06
2.107476e-07
-1.3576602e-06
2.2045607e-07
-1.46081e-06
2.3009046e-07
-1.5673651e-06
2.3961558e-07
-1.6772145e-06
2.4899576e-07
-1.790236e-06
2.5819379e-07
-1.9062958e-06
2.671718e-07
-2.0252488e-06
2.7589169e-07
-2.1469382e-06
2.8431558e-07
-2.2711963e-06
2.9240602e-07
-2.3978444e-06
3.0012628e-07
-2.5266933e-06
3.0744061e-07
-2.6575444e-06
3.1431448e-07
-2.7901898e-06
3.207149e-07
-2.924413e-06
3.2661055e-07
-3.0599902e-06
3.3197214e-07
-3.1966904e-06
3.3677248e-07
-3.334277e-06
3.4098676e-07
-3.4725079e-06
3.4459272e-07
-3.6111373e-06
3.4757067e-07
-3.7499162e-06
3.4990378e-07
-3.8885932e-06
3.5157805e-07
-4.026916e-06
3.525824e-07
-4.1646322e-06
3.5290876e-07
-4.3014901e-06
3.5255207e-07
-4.43724e-06
3.5151023e-07
-4.5716349e-06
3.4978415e-07
-4.7044316e-06
3.4737762e-07
-4.8353917e-06
3.4429732e-07
-4.964282e-06
3.4055267e-07
-5.090876e-06
3.3615575e-07
-5.2149542e-06
3.3112116e-07
-5.3363047e-06
3.2546589e-07
-5.4547245e-06
3.1920913e-07
-5.5700193e-06
3.1237219e-07
-5.6820047e-06
3.0497822e-07
-5.7905063e-06
2.9705208e-07
-5.89536e-06
2.8862016e-07
-5.9964129e-06
2.7971018e-07
-6.0935228e-06
2.7035097e-07
-6.1865592e-06
2.6057229e-07
-6.2754026e-06
2.504047e-07
-6.3599455e-06
2.3987925e-07
-6.4400916e-06
2.2902741e-07
-6.5157561e-06
2.1788085e-07
-6.5868658e-06
2.0647124e-07
-6.6533587e-06
1.9483014e-07
-6.7151837e-06
1.8298879e-07
-6.7723006e-06
1.7097793e-07
-6.8246797e-06
1.588277e-07
-6.8723016e-06
1.4656751e-07
-6.9151566e-06
1.3422595e-07
-6.9532445e-06
1.2183076e-07
-6.9865741e-06
1.094087e-07
-7.015163e-06
9.6985634e-08
-7.0390368e-06
8.4586331e-08
-7.0582291e-06
7.2234602e-08
-7.0727809e-06
5.9953227e-08
-7.0827403e-06
4.7763989e-08
-7.0881627e-06
3.5687726e-08
-7.0891112e-06
2.3744064e-08
-7.0856519e-06
1.1945313e-08
-7.0779352e-06
3.9830442e-10
-7.0657502e-06
-1.126637e-08
-7.0494297e-06
-2.2612554e-08
-7.0290277e-06
-3.3747623e-08
-7.0045923e-06
-4.4660435e-08
-6.9762016e-06
-5.5354348e-08
-6.9439455e-06
-6.582405e-08
-6.9079217e-06
-7.6064261e-08
-6.8682237e-06
-8.6069901e-08
-6.8249449e-06
-9.5836865e-08
-6.778179e-06
-1.0536175e-07
-6.7280199e-06
-1.146421e-07
-6.6745617e-06
-1.2367634e-07
-6.6178984e-06
-1.3246366e-07
-6.5581232e-06
-1.4100414e-07
-6.4953289e-06
-1.492985e-07
-6.4296071e-06
-1.5734824e-07
-6.3610483e-06
-1.6515544e-07
-6.2897419e-06
-1.7272278e-07
-6.2157755e-06
-1.8005353e-07
-6.1392352e-06
-1.8715139e-07
-6.0602054e-06
-1.9402054e-07
-5.9787684e-06
-2.0066554e-07
-5.8950046e-06
-2.0709131e-07
-5.8089922e-06
-2.1330307e-07
-5.7208073e-06
-2.1930634e-07
-5.6305236e-06
-2.2510685e-07
-5.5382125e-06
-2.3071051e-07
-5.4439432e-06
-2.3612349e-07
-5.3477823e-06
-2.4135195e-07
-5.2497939e-06
-2.4640229e-07
-5.15004e-06
-2.5128092e-07
-5.0485796e-06
-2.5599436e-07
-4.9454698e-06
-2.6054906e-07
-4.8407649e-06
-2.6495158e-07
-4.7345167e-06
-2.6920843e-07
-4.6267748e-06
-2.7332608e-07
-4.5175863e-06
-2.7731096e-07
-4.4069959e-06
-2.8116942e-07
-4.2950461e-06
-2.8490779e-07
-4.1817767e-06
-2.8853225e-07
-4.0672258e-06
-2.9204887e-07
-3.9514289e-06
-2.954637e-07
-3.8344195e-06
-2.9878252e-07
-3.7162288e-06
-3.0201112e-07
-3.5968862e-06
-3.0515504e-07
-3.476419e-06
-3.0821975e-07
-3.3548524e-06
-3.1121052e-07
-3.23221e-06
-3.1413244e-07
-3.1085134e-06
-3.1699045e-07
-2.9837824e-06
-3.1978937e-07
-2.8580354e-06
-3.2253373e-07
-2.7312889e-06
-3.2522792e-07
-2.603558e-06
-3.2787606e-07
-2.4748564e-06
-3.3048207e-07
-2.3451963e-06
-3.3304958e-07
-2.2145886e-06
-3.3558185e-07
-2.083043e-06
-3.380818e-07
-1.9505681e-06
-3.4055193e-07
-1.8171716e-06
-3.4299424e-07
-1.6828604e-06
-3.454097e-07
-1.5476403e-06
-3.4779817e-07
-1.4115166e-06
-3.5015765e-07
-1.2744928e-06
-3.5248346e-07
-1.1365702e-06
-3.5476756e-07
-9.9774393e-07
-3.569985e-07
-8.5799817e-07
-3.591647e-07
-7.1729669e-07
-3.6126715e-07
-5.755749e-07
-3.6335409e-07
-4.327536e-07
-3.6560101e-07
-2.8883758e-07
-3.6844827e-07
-1.4420222e-07
-3.727407e-07
-3.7916266e-07
-2.2281975e-09
5.0011786e-09
-8.7923817e-09
1.5281676e-08
-1.9644705e-08
2.5930981e-08
-3.4739603e-08
3.6999016e-08
-5.4097863e-08
4.8351823e-08
-7.7764942e-08
5.9891378e-08
-1.0578163e-07
7.1581604e-08
-1.3818103e-07
8.3412644e-08
-1.7498891e-07
9.5389823e-08
-2.1622518e-07
1.0752443e-07
-2.6190519e-07
1.1982812e-07
-3.1204059e-07
1.3231013e-07
-3.6663948e-07
1.4497607e-07
-4.2570621e-07
1.5782749e-07
-4.8924086e-07
1.7086169e-07
-5.5723873e-07
1.8407175e-07
-6.2968942e-07
1.9744665e-07
-7.0657638e-07
2.1097122e-07
-7.8787594e-07
2.246265e-07
-8.7355618e-07
2.3838986e-07
-9.6357578e-07
2.5223501e-07
-1.0578848e-06
2.6613155e-07
-1.1564239e-06
2.800457e-07
-1.2591232e-06
2.9394075e-07
-1.3659018e-06
3.0777734e-07
-1.4766678e-06
3.215136e-07
-1.5913174e-06
3.3510559e-07
-1.7097345e-06
3.4850761e-07
-1.8317913e-06
3.616724e-07
-1.9573473e-06
3.745517e-07
-2.0862497e-06
3.8709626e-07
-2.2183343e-06
3.9925631e-07
-2.3534246e-06
4.1098206e-07
-2.4913332e-06
4.2222413e-07
-2.6318611e-06
4.3293396e-07
-2.774799e-06
4.4306416e-07
-2.9199273e-06
4.5256887e-07
-3.0670169e-06
4.6140414e-07
-3.2158302e-06
4.6952819e-07
-3.3661215e-06
4.769018e-07
-3.5176379e-06
4.8348854e-07
-3.6701204e-06
4.8925503e-07
-3.8233049e-06
4.9417122e-07
-3.9769227e-06
4.9821054e-07
-4.1307021e-06
5.0135008e-07
-4.2843691e-06
5.0357078e-07
-4.4376485e-06
5.0485748e-07
-4.5902651e-06
5.05199e-07
-4.7419446e-06
5.0458822e-07
-4.8924146e-06
5.0302207e-07
-5.0414058e-06
5.0050146e-07
-5.188653e-06
4.9703132e-07
-5.3338958e-06
4.9262045e-07
-5.47688e-06
4.8728143e-07
-5.6173577e-06
4.8103045e-07
-5.7550892e-06
4.7388723e-07
-5.8898428e-06
4.6587477e-07
-6.0213961e-06
4.5701914e-07
-6.1495363e-06
4.4734933e-07
-6.2740611e-06
4.3689699e-07
-6.394779e-06
4.2569611e-07
-6.5115098e-06
4.1378288e-07
-6.624085e-06
4.0119537e-07
-6.7323481e-06
3.8797328e-07
-6.8361548e-06
3.7415769e-07
-6.9353732e-06
3.5979074e-07
-7.029884e-06
3.4491547e-07
-7.1195802e-06
3.2957548e-07
-7.2043675e-06
3.138147e-07
-7.2841639e-06
2.9767722e-07
-7.3588996e-06
2.8120696e-07
-7.428517e-06
2.6444753e-07
-7.4929702e-06
2.4744194e-07
-7.5522247e-06
2.3023242e-07
-7.6062573e-06
2.1286029e-07
-7.6550555e-06
1.9536571e-07
-7.6986172e-06
1.7778769e-07
-7.7369503e-06
1.6016388e-07
-7.7700722e-06
1.4253057e-07
-7.7980092e-06
1.2492262e-07
-7.8207963e-06
1.0737339e-07
-7.8384764e-06
8.9914746e-08
-7.8511005e-06
7.2577308e-08
-7.858727e-06
5.539046e-08
-7.8614222e-06
3.8382989e-08
-7.8592634e-06
2.1585223e-08
-7.8523889e-06
5.0708549e-09
-7.8406051e-06
-1.1385548e-08
-7.8242986e-06
-2.7572867e-08
-7.8034531e-06
-4.3458095e-08
-7.7781622e-06
-5.9038481e-08
-7.7485161e-06
-7.4306554e-08
-7.7146123e-06
-8.9258094e-08
-7.6765499e-06
-1.0388646e-07
-7.6344295e-06
-1.1818467e-07
-7.588353e-06
-1.321464e-07
-7.5384233e-06
-1.457666e-07
-7.4847435e-06
-1.5904153e-07
-7.4274171e-06
-1.7196854e-07
-7.3665471e-06
-1.8454629e-07
-7.3022363e-06
-1.9677446e-07
-7.2345867e-06
-2.0865379e-07
-7.1636992e-06
-2.2018599e-07
-7.0896736e-06
-2.313738e-07
-7.0126084e-06
-2.4222063e-07
-6.9326003e-06
-2.5273083e-07
-6.8497445e-06
-2.6290936e-07
-6.764134e-06
-2.7276187e-07
-6.67586e-06
-2.8229456e-07
-6.5850113e-06
-2.9151423e-07
-6.4916746e-06
-3.0042801e-07
-6.3959341e-06
-3.0904362e-07
-6.2978715e-06
-3.1736894e-07
-6.1975661e-06
-3.2541224e-07
-6.0950945e-06
-3.3318205e-07
-5.9905309e-06
-3.4068712e-07
-5.8839465e-06
-3.4793632e-07
-5.7754101e-06
-3.549387e-07
-5.6649877e-06
-3.6170338e-07
-5.5527425e-06
-3.6823956e-07
-5.4387351e-06
-3.7455643e-07
-5.3230235e-06
-3.8066317e-07
-5.2056629e-06
-3.86569e-07
-5.086706e-06
-3.92283e-07
-4.9662027e-06
-3.9781425e-07
-4.8442005e-06
-4.0317165e-07
-4.7207442e-06
-4.0836407e-07
-4.5958762e-06
-4.134002e-07
-4.4696366e-06
-4.1828855e-07
-4.3420627e-06
-4.2303755e-07
-4.2131899e-06
-4.2765535e-07
-4.083051e-06
-4.3214997e-07
-3.9516768e-06
-4.3652924e-07
-3.8190958e-06
-4.4080074e-07
-3.6853345e-06
-4.4497186e-07
-3.5504172e-06
-4.4904971e-07
-3.4143664e-06
-4.5304124e-07
-3.2772027e-06
-4.5695305e-07
-3.1389449e-06
-4.607916e-07
-2.9996098e-06
-4.6456295e-07
-2.859213e-06
-4.6827293e-07
-2.717768e-06
-4.7192703e-07
-2.5752872e-06
-4.755304e-07
-2.4317813e-06
-4.790878e-07
-2.2872596e-06
-4.826035e-07
-2.1417301e-06
-4.8608139e-07
-1.9951997e-06
-4.8952461e-07
-1.8476738e-06
-4.9293559e-07
-1.6991564e-06
-4.9631562e-07
-1.5496495e-06
-4.9966457e-07
-1.3991523e-06
-5.0298059e-07
-1.2476597e-06
-5.0626019e-07
-1.0951589e-06
-5.0949935e-07
-9.4162564e-07
-5.1269793e-07
-7.8702142e-07
-5.1587136e-07
-6.3129844e-07
-5.1907707e-07
-4.744353e-07
-5.2246415e-07
-3.1654528e-07
-5.2633829e-07
-1.580922e-07
-5.3119376e-07
-5.3725488e-07
-2.4358071e-09
7.4369857e-09
-9.6439037e-09
2.2489773e-08
-2.1558267e-08
3.7845344e-08
-3.8117735e-08
5.3558483e-08
-5.9322414e-08
6.9556502e-08
-8.5202558e-08
8.5771522e-08
-1.1579146e-07
1.021705e-07
-1.5111863e-07
1.1873982e-07
-1.9120754e-07
1.3547873e-07
-2.360755e-07
1.5239239e-07
-2.8573434e-07
1.6948696e-07
-3.4019091e-07
1.867667e-07
-3.9944731e-07
2.0423247e-07
-4.6350072e-07
2.218809e-07
-5.3234308e-07
2.3970405e-07
-6.0596052e-07
2.5768919e-07
-6.8433272e-07
2.7581884e-07
-7.6743225e-07
2.9407075e-07
-8.5522381e-07
3.1241806e-07
-9.4766335e-07
3.3082941e-07
-1.0446974e-06
3.4926905e-07
-1.1462627e-06
3.6769689e-07
-1.2522859e-06
3.8606886e-07
-1.3626825e-06
4.0433737e-07
-1.4773568e-06
4.224516e-07
-1.5962011e-06
4.4035791e-07
-1.7190957e-06
4.5800019e-07
-1.8459084e-06
4.7532035e-07
-1.9764947e-06
4.9225865e-07
-2.1106972e-06
5.0875421e-07
-2.2483463e-06
5.2474538e-07
-2.3892602e-06
5.401702e-07
-2.5332451e-06
5.5496694e-07
-2.6800956e-06
5.6907466e-07
-2.8295953e-06
5.8243361e-07
-2.9815169e-06
5.9498575e-07
-3.1356232e-06
6.0667519e-07
-3.2916677e-06
6.1744862e-07
-3.4493952e-06
6.2725573e-07
-3.6085429e-06
6.3604954e-07
-3.7688412e-06
6.4378679e-07
-3.9300144e-06
6.5042824e-07
-4.0917821e-06
6.5593895e-07
-4.2538601e-06
6.6028853e-07
-4.4159613e-06
6.6345129e-07
-4.577797e-06
6.6540647e-07
-4.7390778e-06
6.6613831e-07
-4.899515e-06
6.6563617e-07
-5.0588213e-06
6.6389451e-07
-5.2167121e-06
6.6091292e-07
-5.3729068e-06
6.5669607e-07
-5.5271291e-06
6.5125364e-07
-5.6791088e-06
6.4460018e-07
-5.8285823e-06
6.3675493e-07
-5.9752936e-06
6.2774172e-07
-6.118995e-06
6.1758866e-07
-6.2594482e-06
6.0632795e-07
-6.3964247e-06
5.9399561e-07
-6.5297065e-06
5.806312e-07
-6.659087e-06
5.6627746e-07
-6.784371e-06
5.5098009e-07
-6.9053755e-06
5.3478737e-07
-7.0219299e-06
5.1774979e-07
-7.1338764e-06
4.999198e-07
-7.2410701e-06
4.813514e-07
-7.3433792e-06
4.6209981e-07
-7.4406849e-06
4.4222123e-07
-7.5328819e-06
4.2177241e-07
-7.6198776e-06
4.0081039e-07
-7.7015925e-06
3.7939217e-07
-7.77796e-06
3.5757445e-07
-7.8489258e-06
3.3541336e-07
-7.914448e-06
3.1296416e-07
-7.9744966e-06
2.9028097e-07
-8.029053e-06
2.6741666e-07
-8.0781098e-06
2.4442255e-07
-8.1216704e-06
2.2134829e-07
-8.1597483e-06
1.9824179e-07
-8.1923668e-06
1.751491e-07
-8.2195585e-06
1.5211428e-07
-8.2413645e-06
1.2917944e-07
-8.2578345e-06
1.0638472e-07
-8.2690259e-06
8.3768738e-08
-8.2750047e-06
6.1369228e-08
-8.2758467e-06
3.9225022e-08
-8.2716495e-06
1.7387968e-08
-8.2623843e-06
-4.1943648e-09
-8.2482238e-06
-2.5546015e-08
-8.2292779e-06
-4.6518734e-08
-8.2056274e-06
-6.7108626e-08
-8.1773629e-06
-8.7302977e-08
-8.1445805e-06
-1.0708894e-07
-8.1073827e-06
-1.2645595e-07
-8.0658747e-06
-1.4539443e-07
-8.0201635e-06
-1.6389585e-07
-7.9703569e-06
-1.8195303e-07
-7.9165632e-06
-1.995603e-07
-7.8588911e-06
-2.1671356e-07
-7.7974494e-06
-2.3341024e-07
-7.7323464e-06
-2.4964931e-07
-7.6636898e-06
-2.6543106e-07
-7.5915864e-06
-2.8075718e-07
-7.5161419e-06
-2.9563051e-07
-7.4374606e-06
-3.1005512e-07
-7.3556451e-06
-3.2403609e-07
-7.2707965e-06
-3.3757942e-07
-7.1830138e-06
-3.506921e-07
-7.0923938e-06
-3.6338185e-07
-6.9990313e-06
-3.7565711e-07
-6.9030185e-06
-3.87527e-07
-6.8044453e-06
-3.9900119e-07
-6.7033991e-06
-4.1008982e-07
-6.5999646e-06
-4.208035e-07
-6.4942236e-06
-4.3115317e-07
-6.3862556e-06
-4.4115009e-07
-6.2761369e-06
-4.5080577e-07
-6.1639413e-06
-4.6013191e-07
-6.0497397e-06
-4.6914038e-07
-5.9335999e-06
-4.7784314e-07
-5.8155872e-06
-4.8625222e-07
-5.6957641e-06
-4.9437959e-07
-5.5741899e-06
-5.0223737e-07
-5.4509214e-06
-5.0983742e-07
-5.3260128e-06
-5.1719168e-07
-5.1995151e-06
-5.2431191e-07
-5.071477e-06
-5.3120974e-07
-4.9419444e-06
-5.3789665e-07
-4.8109607e-06
-5.4438393e-07
-4.6785666e-06
-5.5068267e-07
-4.5448004e-06
-5.5680374e-07
-4.409698e-06
-5.6275777e-07
-4.2732929e-06
-5.6855509e-07
-4.1356163e-06
-5.7420591e-07
-3.996697e-06
-5.7972002e-07
-3.8565618e-06
-5.8510701e-07
-3.7152354e-06
-5.903761e-07
-3.5727405e-06
-5.9553622e-07
-3.4290975e-06
-6.0059602e-07
-3.2843254e-06
-6.0556376e-07
-3.1384409e-06
-6.104474e-07
-2.9914593e-06
-6.1525449e-07
-2.8433942e-06
-6.1999219e-07
-2.6942573e-06
-6.2466726e-07
-2.544059e-06
-6.2928606e-07
-2.3928082e-06
-6.3385435e-07
-2.2405121e-06
-6.3837747e-07
-2.0871767e-06
-6.428601e-07
-1.932806e-06
-6.473062e-07
-1.7774027e-06
-6.5171895e-07
-1.6209667e-06
-6.5610055e-07
-1.4634949e-06
-6.6045235e-07
-1.3049797e-06
-6.647754e-07
-1.1454071e-06
-6.6907203e-07
-9.8475515e-07
-6.7334983e-07
-8.2299601e-07
-6.7763049e-07
-6.601069e-07
-6.819662e-07
-4.9610598e-07
-6.8646507e-07
-3.3113182e-07
-6.9131246e-07
-1.6556476e-07
-6.9676083e-07
-7.0281963e-07
-2.5156909e-09
9.9526766e-09
-9.9972473e-09
2.9971329e-08
-2.2386766e-08
5.0234863e-08
-3.9630227e-08
7.0801945e-08
-6.1718502e-08
9.1644777e-08
-8.8669534e-08
1.1272255e-07
-1.2050835e-07
1.3400932e-07
-1.5725984e-07
1.554913e-07
-1.9894519e-07
1.7716408e-07
-2.4558072e-07
1.9902792e-07
-2.9717763e-07
2.2108386e-07
-3.5374205e-07
2.4333112e-07
-4.15275e-07
2.6576541e-07
-4.8177212e-07
2.8837802e-07
-5.5322328e-07
3.1115522e-07
-6.2961207e-07
3.3407798e-07
-7.1091512e-07
3.5712189e-07
-7.9710144e-07
3.8025708e-07
-8.8813172e-07
4.0344834e-07
-9.8395755e-07
4.2665524e-07
-1.0845208e-06
4.4983228e-07
-1.189753e-06
4.729291e-07
-1.299575e-06
4.9589085e-07
-1.4138962e-06
5.1865855e-07
-1.5326141e-06
5.4116954e-07
-1.6556141e-06
5.6335796e-07
-1.7827691e-06
5.8515516e-07
-1.913939e-06
6.0649028e-07
-2.0489711e-06
6.272907e-07
-2.1876996e-06
6.4748268e-07
-2.3299459e-06
6.6699177e-07
-2.4755193e-06
6.857435e-07
-2.6242162e-06
7.036639e-07
-2.7758217e-06
7.2068015e-07
-2.9301092e-06
7.3672112e-07
-3.0868414e-06
7.5171794e-07
-3.2457707e-06
7.6560453e-07
-3.4066403e-06
7.7831817e-07
-3.5691844e-06
7.8979988e-07