/*--------------------------------*- C++ -*----------------------------------*\
| =========                 |                                                 |
| \\      /  F ield         | OpenFOAM: The Open Source CFD Toolbox           |
|  \\    /   O peration     | Version:  2306                                  |
|   \\  /    A nd           | Website:  www.openfoam.com                      |
|    \\/     M anipulation  |                                                 |
\*---------------------------------------------------------------------------*/
FoamFile
{
    version     2.0;
    format      ascii;
    arch        "LSB;label=32;scalar=64";
    class       surfaceScalarField;
    location    "0.1";
    object      phi_0;
}
// * * * * * * * * * * * * * * * * * * * * * * * * * * * * * * * * * * * * * //

dimensions      [0 3 -1 0 0 0 0];

oriented        oriented;

internalField   nonuniform List<scalar> 
12640
(
-1.2579562e-08
-1.37333e-07
-5.0207017e-08
-4.1110508e-07
-1.1227853e-07
-6.8003017e-07
-1.9777486e-07
-9.4073469e-07
-3.0523813e-07
-1.1895754e-06
-4.3283146e-07
-1.4233227e-06
-5.7839793e-07
-1.6391283e-06
-7.3951533e-07
-1.834475e-06
-9.1355584e-07
-2.0072274e-06
-1.0977474e-06
-2.1556528e-06
-1.2892347e-06
-2.2784324e-06
-1.4851383e-06
-2.3746653e-06
-1.6826106e-06
-2.4438625e-06
-1.8788877e-06
-2.4859331e-06
-2.0713346e-06
-2.5011625e-06
-2.2574856e-06
-2.4901846e-06
-2.4350768e-06
-2.4539487e-06
-2.6020724e-06
-2.3936824e-06
-2.7566836e-06
-2.3108521e-06
-2.8973803e-06
-2.2071222e-06
-3.0228965e-06
-2.0843135e-06
-3.1322307e-06
-1.9443637e-06
-3.2246398e-06
-1.7892884e-06
-3.299629e-06
-1.6211449e-06
-3.3569355e-06
-1.4419985e-06
-3.3965143e-06
-1.2538864e-06
-3.4185219e-06
-1.0588039e-06
-3.4232943e-06
-8.5867898e-07
-3.4113259e-06
-6.5534984e-07
-3.383248e-06
-4.5054819e-07
-3.3398177e-06
-2.4588449e-07
-3.2817494e-06
-4.2787754e-08
-3.2102999e-06
1.5703681e-07
-3.126209e-06
3.5256662e-07
-3.03053e-06
5.4277042e-07
-2.9243173e-06
7.2664614e-07
-2.8086339e-06
9.033419e-07
-2.684542e-06
1.0721364e-06
-2.5530922e-06
1.2324296e-06
-2.4153144e-06
1.3837359e-06
-2.2722092e-06
1.5256764e-06
-2.1247427e-06
1.6579723e-06
-1.9738402e-06
1.7804367e-06
-1.8203815e-06
1.8929658e-06
-1.6651973e-06
1.9955336e-06
-1.5090664e-06
2.0881831e-06
-1.3527159e-06
2.1710189e-06
-1.196818e-06
2.2442001e-06
-1.0419919e-06
2.307933e-06
-8.8880213e-07
2.3624653e-06
-7.3776191e-07
2.4080793e-06
-5.8933145e-07
2.4450853e-06
-4.4392277e-07
2.4738182e-06
-3.0189795e-07
2.4946301e-06
-1.6357596e-07
2.5078894e-06
-2.9236307e-08
2.5139705e-06
1.0091013e-07
2.5131593e-06
2.2665207e-07
2.5061747e-06
3.4784321e-07
2.4930727e-06
4.6435496e-07
2.4743409e-06
5.760939e-07
2.4503597e-06
6.8299454e-07
2.4214991e-06
7.850183e-07
2.388123e-06
8.8215044e-07
2.3505853e-06
9.7439728e-07
2.3092296e-06
1.0617848e-06
2.2643865e-06
1.1443565e-06
2.2163741e-06
1.2221707e-06
2.1654968e-06
1.2952995e-06
2.1120465e-06
1.3638265e-06
2.0563003e-06
1.4278453e-06
1.998521e-06
1.4874586e-06
1.938958e-06
1.5427757e-06
1.8778468e-06
1.5939123e-06
1.8154085e-06
1.6409888e-06
1.7518513e-06
1.6841292e-06
1.6873699e-06
1.7234604e-06
1.6221463e-06
1.7591115e-06
1.5563504e-06
1.7912122e-06
1.4901398e-06
1.4236607e-06
-1.1384986e-08
-1.2594801e-07
-4.5442824e-08
-3.7704724e-07
-1.0164609e-07
-6.2382691e-07
-1.79104e-07
-8.632768e-07
-2.7654015e-07
-1.0921393e-06
-3.923439e-07
-1.307519e-06
-5.2462036e-07
-1.5068518e-06
-6.7123627e-07
-1.6878591e-06
-8.2987087e-07
-1.8485928e-06
-9.9806846e-07
-1.9874552e-06
-1.1732908e-06
-2.1032101e-06
-1.3529686e-06
-2.1949874e-06
-1.5345504e-06
-2.2622807e-06
-1.7155478e-06
-2.3049357e-06
-1.8935765e-06
-2.3231338e-06
-2.066392e-06
-2.3173691e-06
-2.2319196e-06
-2.2884211e-06
-2.3882789e-06
-2.2373232e-06
-2.5338013e-06
-2.1653297e-06
-2.6670431e-06
-2.0738803e-06
-2.7867919e-06
-1.9645648e-06
-2.8920679e-06
-1.8390878e-06
-2.9821208e-06
-1.6992354e-06
-3.0564235e-06
-1.5468422e-06
-3.1146596e-06
-1.3837624e-06
-3.1567088e-06
-1.2118373e-06
-3.1826367e-06
-1.032876e-06
-3.1926755e-06
-8.4864011e-07
-3.1872061e-06
-6.6081925e-07
-3.1667381e-06
-4.7101615e-07
-3.1318919e-06
-2.8073076e-07
-3.0833487e-06
-9.1330979e-08
-3.0220691e-06
9.5757216e-08
-2.9487826e-06
2.7928009e-07
-2.864408e-06
4.5839586e-07
-2.7698821e-06
6.3212025e-07
-2.6661592e-06
7.9961905e-07
-2.5541991e-06
9.6017644e-07
-2.4349579e-06
1.1131883e-06
-2.3093782e-06
1.2581562e-06
-2.1783822e-06
1.3946803e-06
-2.0428641e-06
1.5224543e-06
-1.9036856e-06
1.6412581e-06
-1.7616706e-06
1.7509508e-06
-1.6176014e-06
1.8514645e-06
-1.472216e-06
1.9427976e-06
-1.3262059e-06
2.0250087e-06
-1.1802154e-06
2.0982096e-06
-1.034841e-06
2.1625585e-06
-8.9063031e-07
2.2182547e-06
-7.4808397e-07
2.265533e-06
-6.0765549e-07
2.3046567e-06
-4.697525e-07
2.3359153e-06
-3.34739e-07
2.3596166e-06
-2.0293489e-07
2.3760852e-06
-7.4615784e-08
2.3856516e-06
4.9937099e-08
2.3886063e-06
1.7060312e-07
2.3855088e-06
2.8714913e-07
2.3765267e-06
3.9945394e-07
2.362036e-06
5.0740838e-07
2.3424052e-06
6.1092856e-07
2.317979e-06
7.0995859e-07
2.289093e-06
8.0446564e-07
2.2560783e-06
8.9443813e-07
2.2192572e-06
9.7988356e-07
2.1789412e-06
1.0608267e-06
2.135431e-06
1.1373071e-06
2.0890163e-06
1.2093791e-06
2.0399746e-06
1.2771085e-06
1.9885708e-06
1.3405712e-06
1.9350582e-06
1.3998532e-06
1.8796763e-06
1.455047e-06
1.8226528e-06
1.5062527e-06
1.7642029e-06
1.5535755e-06
1.7045286e-06
1.5971245e-06
1.6438208e-06
1.637013e-06
1.5822577e-06
1.6733566e-06
1.5200068e-06
1.7062725e-06
1.457224e-06
1.3940539e-06
-1.0320038e-08
-1.1562798e-07
-4.1195096e-08
-3.4617218e-07
-9.2163244e-08
-5.7285876e-07
-1.6244371e-07
-7.9299633e-07
-2.5091614e-07
-1.0036668e-06
-3.5616472e-07
-1.2022704e-06
-4.765209e-07
-1.3864956e-06
-6.1010189e-07
-1.5542781e-06
-7.5485433e-07
-1.7038404e-06
-9.0859909e-07
-1.8337104e-06
-1.0690767e-06
-1.9427324e-06
-1.2339919e-06
-2.0300723e-06
-1.4010564e-06
-2.0952163e-06
-1.5680287e-06
-2.1379634e-06
-1.7327507e-06
-2.1584118e-06
-1.8931797e-06
-2.1569402e-06
-2.0474155e-06
-2.1341853e-06
-2.1937231e-06
-2.0910155e-06
-2.3305502e-06
-2.0285026e-06
-2.4565392e-06
-1.9478913e-06
-2.5705344e-06
-1.8505696e-06
-2.6715855e-06
-1.7380367e-06
-2.7589462e-06
-1.6118747e-06
-2.8320691e-06
-1.4737193e-06
-2.8905982e-06
-1.3252333e-06
-2.9343551e-06
-1.1680803e-06
-2.9633309e-06
-1.0039003e-06
-2.9776713e-06
-8.3429962e-07
-2.9776609e-06
-6.6082969e-07
-2.9637062e-06
-4.8497079e-07
-2.9363194e-06
-3.0811766e-07
-2.8960828e-06
-1.3156761e-07
-2.8438346e-06
4.3509091e-08
-2.7801653e-06
2.1561079e-07
-2.7059211e-06
3.8415161e-07
-2.62193e-06
5.4812919e-07
-2.5290456e-06
7.0673466e-07
-2.4281329e-06
8.5926365e-07
-2.3200592e-06
1.0051148e-06
-2.2056859e-06
1.1437828e-06
-2.0858598e-06
1.2748542e-06
-1.9614072e-06
1.3980018e-06
-1.8331282e-06
1.512979e-06
-1.701792e-06
1.6196146e-06
-1.5681332e-06
1.7178057e-06
-1.4328483e-06
1.8075127e-06
-1.2965937e-06
1.8887541e-06
-1.159984e-06
1.9616e-06
-1.0235916e-06
2.0261661e-06
-8.8794523e-07
2.0826083e-06
-7.5353143e-07
2.1311191e-06
-6.2079364e-07
2.171919e-06
-4.9013416e-07
2.2052558e-06
-3.6191454e-07
2.231397e-06
-2.3645771e-07
2.2506284e-06
-1.1405893e-07
2.2632528e-06
4.9583671e-09
2.2695891e-06
1.2067852e-07
2.2697885e-06
2.3263092e-07
2.2645743e-06
3.4073864e-07
2.2539284e-06
4.4488833e-07
2.2382556e-06
5.4498463e-07
2.2178827e-06
6.4095702e-07
2.1931206e-06
7.3275685e-07
2.1642786e-06
8.2035638e-07
2.1316577e-06
9.0374673e-07
2.0955508e-06
9.8293567e-07
2.056242e-06
1.0579469e-06
2.0140052e-06
1.1288177e-06
1.9691039e-06
1.1955973e-06
1.9217914e-06
1.2583463e-06
1.8723093e-06
1.3171342e-06
1.8208884e-06
1.3720388e-06
1.7677481e-06
1.4231457e-06
1.7130961e-06
1.4705452e-06
1.657129e-06
1.5143331e-06
1.6000329e-06
1.5546096e-06
1.5419813e-06
1.5914773e-06
1.4831391e-06
1.6250419e-06
1.4236594e-06
1.3636855e-06
-9.3687012e-09
-1.0625927e-07
-3.7400109e-08
-3.1814077e-07
-8.3688567e-08
-5.265703e-07
-1.4754794e-07
-7.2913697e-07
-2.2799237e-07
-9.2322241e-07
-3.2377442e-07
-1.1064884e-06
-4.3342159e-07
-1.2768485e-06
-5.5526877e-07
-1.4324309e-06
-6.8749578e-07
-1.5716134e-06
-8.2816586e-07
-1.6930404e-06
-9.7526476e-07
-1.7956335e-06
-1.1267396e-06
-1.8785974e-06
-1.2805361e-06
-1.9414197e-06
-1.4346342e-06
-1.9838654e-06
-1.5870795e-06
-2.0059664e-06
-1.736013e-06
-2.0080067e-06
-1.8796952e-06
-1.990503e-06
-2.0165274e-06
-1.9541834e-06
-2.1450675e-06
-1.8999625e-06
-2.2640424e-06
-1.8289164e-06
-2.3723558e-06
-1.7422561e-06
-2.4690919e-06
-1.6413005e-06
-2.5535162e-06
-1.5274505e-06
-2.6250718e-06
-1.4021637e-06
-2.6833742e-06
-1.2669308e-06
-2.7282014e-06
-1.1232531e-06
-2.7594841e-06
-9.7261759e-07
-2.7772968e-06
-8.1648697e-07
-2.781843e-06
-6.5628349e-07
-2.773442e-06
-4.9337185e-07
-2.7525118e-06
-3.2904784e-07
-2.7195466e-06
-1.6453278e-07
-2.6752194e-06
-8.1814867e-10
-2.6201177e-06
1.6050909e-07
-2.5549489e-06
3.1898272e-07
-2.4804474e-06
4.7362772e-07
-2.3973753e-06
6.2366248e-07
-2.3065112e-06
7.6839972e-07
-2.2086414e-06
9.0724488e-07
-2.1045506e-06
1.039692e-06
-1.9950152e-06
1.1653189e-06
-1.8807969e-06
1.2837834e-06
-1.7626368e-06
1.394819e-06
-1.6412513e-06
1.4982291e-06
-1.517328e-06
1.5938825e-06
-1.3915226e-06
1.6817072e-06
-1.2644558e-06
1.7616874e-06
-1.1367124e-06
1.8338566e-06
-1.0088393e-06
1.898293e-06
-8.8134541e-07
1.9551144e-06
-7.5470076e-07
2.0044745e-06
-6.2933688e-07
2.0465551e-06
-5.0564797e-07
2.0815668e-06
-3.8399036e-07
2.1097394e-06
-2.646841e-07
2.1313222e-06
-1.4801238e-07
2.146581e-06
-3.4210916e-08
2.1557877e-06
7.6440605e-08
2.159137e-06
1.8381898e-07
2.1571958e-06
2.8774864e-07
2.1499987e-06
3.8809296e-07
2.1379112e-06
4.8474424e-07
2.1212314e-06
5.77617e-07
2.1002479e-06
6.666496e-07
2.075246e-06
7.5179952e-07
2.0465077e-06
8.3304339e-07
2.0143068e-06
9.1037469e-07
1.9789108e-06
9.8380166e-07
1.9405782e-06
1.0533467e-06
1.8995587e-06
1.1190447e-06
1.8560933e-06
1.1809408e-06
1.8104131e-06
1.2390906e-06
1.7627385e-06
1.2935582e-06
1.7132805e-06
1.3444148e-06
1.6622397e-06
1.3917375e-06
1.6098062e-06
1.43561e-06
1.5561604e-06
1.4761192e-06
1.5014721e-06
1.5133566e-06
1.4459019e-06
1.5474158e-06
1.3896002e-06
1.3327082e-06
-8.5171898e-09
-9.7742084e-08
-3.4002999e-08
-2.9265496e-07
-7.6100282e-08
-4.8447302e-07
-1.3420454e-07
-6.710327e-07
-2.0744633e-07
-8.4998063e-07
-2.9472399e-07
-1.0192107e-06
-3.9473528e-07
-1.1768372e-06
-5.0600479e-07
-1.3211614e-06
-6.2691609e-07
-1.4507021e-06
-7.5574506e-07
-1.5642114e-06
-8.9069358e-07
-1.660685e-06
-1.0299233e-06
-1.7393677e-06
-1.1715885e-06
-1.7997546e-06
-1.3138667e-06
-1.8415871e-06
-1.4549879e-06
-1.8648452e-06
-1.5932599e-06
-1.8697347e-06
-1.727091e-06
-1.856672e-06
-1.8550089e-06
-1.8262655e-06
-1.9756761e-06
-1.7792952e-06
-2.0879018e-06
-1.7166908e-06
-2.1906494e-06
-1.6395085e-06
-2.2830416e-06
-1.5489084e-06
-2.3643613e-06
-1.4461308e-06
-2.4340507e-06
-1.3324744e-06
-2.4917064e-06
-1.2092751e-06
-2.5370735e-06
-1.077886e-06
-2.570035e-06
-9.3965605e-07
-2.5906067e-06
-7.9591529e-07
-2.5989244e-06
-6.4796577e-07
-2.595233e-06
-4.9706326e-07
-2.5798735e-06
-3.4440724e-07
-2.5532793e-06
-1.9112708e-07
-2.5158597e-06
-3.8237768e-08
-2.468396e-06
1.1304549e-07
-2.4113453e-06
2.6193202e-07
-2.3453783e-06
4.0766075e-07
-2.2711773e-06
5.4946155e-07
-2.1894426e-06
6.8666495e-07
-2.1008849e-06
8.1868725e-07
-2.0062181e-06
9.4502517e-07
-1.9061523e-06
1.0652532e-06
-1.8013881e-06
1.1790192e-06
-1.6926104e-06
1.2860413e-06
-1.5804849e-06
1.3861035e-06
-1.4656535e-06
1.4790509e-06
-1.3487316e-06
1.5647853e-06
-1.2303047e-06
1.6432606e-06
-1.1109273e-06
1.7144792e-06
-9.9112052e-07
1.7784862e-06
-8.7137174e-07
1.8353657e-06
-7.5213394e-07
1.8852365e-06
-6.3382543e-07
1.9282465e-06
-5.168298e-07
1.9645712e-06
-4.014975e-07
1.9944071e-06
-2.8814524e-07
2.0179701e-06
-1.7705438e-07
2.03549e-06
-6.8476137e-08
2.0472093e-06
3.7321901e-08
2.0533391e-06
1.4023886e-07
2.0542788e-06
2.4004052e-07
2.0501971e-06
3.3660267e-07
2.041349e-06
4.2980787e-07
2.0280262e-06
5.1955989e-07
2.0104959e-06
6.0578473e-07
1.9890211e-06
6.8842845e-07
1.963864e-06
7.6745474e-07
1.9352806e-06
8.4284376e-07
1.9035217e-06
9.1459097e-07
1.868831e-06
9.8270476e-07
1.8314449e-06
1.0472068e-06
1.7915914e-06
1.1081292e-06
1.7494907e-06
1.1655142e-06
1.7053534e-06
1.2194128e-06
1.6593819e-06
1.2698834e-06
1.6117687e-06
1.3169917e-06
1.5626981e-06
1.3608082e-06
1.5123438e-06
1.401409e-06
1.4608713e-06
1.4388739e-06
1.4084369e-06
1.4732863e-06
1.3551877e-06
1.3012623e-06
-7.753613e-09
-8.9988471e-08
-3.0956407e-08
-2.6945217e-07
-6.9293184e-08
-4.4613624e-07
-1.2223015e-07
-6.1809574e-07
-1.8899873e-07
-7.8321205e-07
-2.6862406e-07
-9.3958536e-07
-3.5995204e-07
-1.0855092e-06
-4.6167282e-07
-1.2194406e-06
-5.7234855e-07
-1.3400263e-06
-6.9044185e-07
-1.4461181e-06
-8.1434535e-07
-1.5367815e-06
-9.4241093e-07
-1.6113022e-06
-1.0729783e-06
-1.6691872e-06
-1.2044026e-06
-1.7101628e-06
-1.3350795e-06
-1.7341683e-06
-1.4634685e-06
-1.7413457e-06
-1.5881133e-06
-1.7320272e-06
-1.7076592e-06
-1.7067196e-06
-1.8208671e-06
-1.6660873e-06
-1.9266252e-06
-1.6109327e-06
-2.0239565e-06
-1.5421772e-06
-2.1120241e-06
-1.4608407e-06
-2.1901334e-06
-1.3680215e-06
-2.2577314e-06
-1.2648764e-06
-2.3144042e-06
-1.1526022e-06
-2.3598727e-06
-1.0324175e-06
-2.3939831e-06
-9.0554565e-07
-2.4167026e-06
-7.7319584e-07
-2.42811e-06
-6.365583e-07
-2.4283854e-06
-4.9678794e-07
-2.4177994e-06
-3.5499329e-07
-2.396702e-06
-2.1222447e-07
-2.3654869e-06
-6.9452804e-08
-2.3247465e-06
7.2305105e-08
-2.2749319e-06
2.1211738e-07
-2.2166259e-06
3.493547e-07
-2.1504341e-06
4.8326972e-07
-2.0769836e-06
6.1321442e-07
-1.9969151e-06
7.3861881e-07
-1.9108763e-06
8.5898638e-07
-1.8195153e-06
9.7389219e-07
-1.7234746e-06
1.0829785e-06
-1.6233864e-06
1.1859531e-06
-1.5198675e-06
1.2825846e-06
-1.4135158e-06
1.3726993e-06
-1.3049074e-06
1.456177e-06
-1.1945938e-06
1.5329469e-06
-1.0830983e-06
1.6029837e-06
-9.7091633e-07
1.6663043e-06
-8.5851332e-07
1.7229625e-06
-7.4632384e-07
1.7730471e-06
-6.347519e-07
1.8166747e-06
-5.2416989e-07
1.8539892e-06
-4.1491995e-07
1.8851572e-06
-3.0731364e-07
1.9103638e-06
-2.0163364e-07
1.9298101e-06
-9.8140864e-08
1.9437165e-06
2.8841023e-09
1.952314e-06
1.0145869e-07
1.9557043e-06
1.9720405e-07
1.9544516e-06
2.900238e-07
1.9485293e-06
3.7979835e-07
1.9382515e-06
4.6642459e-07
1.9238697e-06
5.4981907e-07
1.9056266e-06
6.2991775e-07
1.8837653e-06
7.0667291e-07
1.8585254e-06
7.8005322e-07
1.8301413e-06
8.5004221e-07
1.798842e-06
9.1663659e-07
1.7648504e-06
9.7984567e-07
1.7283824e-06
1.0396899e-06
1.6896465e-06
1.0961991e-06
1.6488442e-06
1.1494124e-06
1.6061686e-06
1.199377e-06
1.5618043e-06
1.2461462e-06
1.5159287e-06
1.2897803e-06
1.4687098e-06
1.3303441e-06
1.4203074e-06
1.3679074e-06
1.3708737e-06
1.4025432e-06
1.320552e-06
1.2694778e-06
-7.067672e-09
-8.2920799e-08
-2.8219322e-08
-2.4830052e-07
-6.3176156e-08
-4.111794e-07
-1.1146575e-07
-5.6980615e-07
-1.7240727e-07
-7.2227052e-07
-2.4513624e-07
-8.668564e-07
-3.2862784e-07
-1.0020176e-06
-4.2171718e-07
-1.1263513e-06
-5.2312297e-07
-1.2386205e-06
-6.3147236e-07
-1.3377687e-06
-7.4532646e-07
-1.4229274e-06
-8.6320582e-07
-1.4934228e-06
-9.8361569e-07
-1.5487773e-06
-1.1050701e-06
-1.5887085e-06
-1.2261141e-06
-1.6131242e-06
-1.3453452e-06
-1.6221146e-06
-1.4614309e-06
-1.6159415e-06
-1.5731251e-06
-1.5950254e-06
-1.6792814e-06
-1.559931e-06
-1.7788632e-06
-1.5113509e-06
-1.8709521e-06
-1.4500883e-06
-1.9547528e-06
-1.37704e-06
-2.0295962e-06
-1.2931782e-06
-2.0949393e-06
-1.1995333e-06
-2.1503642e-06
-1.0971773e-06
-2.1955744e-06
-9.8720734e-07
-2.2303886e-06
-8.7073139e-07
-2.2547347e-06
-7.4884971e-07
-2.268644e-06
-6.2264912e-07
-2.2722418e-06
-4.9319012e-07
-2.2657385e-06
-3.6149659e-07
-2.2494188e-06
-2.2854416e-07
-2.2236205e-06
-9.525109e-08
-2.1888572e-06
3.7541877e-08
-2.1454891e-06
1.6874925e-07
-2.0940543e-06
2.9791997e-07
-2.035087e-06
4.2430247e-07
-1.969147e-06
5.4727434e-07
-1.8968101e-06
6.662819e-07
-1.8186629e-06
7.8083914e-07
-1.7352952e-06
8.9052459e-07
-1.6472958e-06
9.9497917e-07
-1.5552465e-06
1.0939036e-06
-1.4597177e-06
1.1870559e-06
-1.3612658e-06
1.2742472e-06
-1.2604281e-06
1.3553394e-06
-1.1577224e-06
1.430241e-06
-1.0536424e-06
1.4989038e-06
-9.486574e-07
1.5613193e-06
-8.4321018e-07
1.6175154e-06
-7.3771681e-07
1.6675536e-06
-6.3256542e-07
1.7115233e-06
-5.2811636e-07
1.7495401e-06
-4.2470211e-07
1.7817429e-06
-3.2262725e-07
1.8082888e-06
-2.2216887e-07
1.8293518e-06
-1.2357573e-07
1.8451233e-06
-2.7060755e-08
1.8557992e-06
6.7124541e-08
1.8615188e-06
1.5886167e-07
1.8627145e-06
2.4798412e-07
1.8594069e-06
3.3435639e-07
1.8518791e-06
4.1786763e-07
1.8403585e-06
4.9842543e-07
1.8250688e-06
5.7595609e-07
1.8062347e-06
6.5040263e-07
1.7840788e-06
7.2172381e-07
1.7588201e-06
7.8989244e-07
1.7306733e-06
8.5489498e-07
1.6998479e-06
9.1672989e-07
1.6665475e-06
9.7540625e-07
1.6309702e-06
1.0309434e-06
1.5933072e-06
1.0833693e-06
1.5537426e-06
1.1327208e-06
1.5124529e-06
1.1790407e-06
1.4696088e-06
1.2223789e-06
1.4253716e-06
1.26279e-06
1.3798962e-06
1.3003341e-06
1.3333296e-06
1.3350744e-06
1.2858116e-06
1.2374735e-06
-6.4504225e-09
-7.6470376e-08
-2.575614e-08
-2.289948e-07
-5.7670015e-08
-3.7926553e-07
-1.0177307e-07
-5.257031e-07
-1.5746095e-07
-6.6658264e-07
-2.2396556e-07
-8.0035179e-07
-3.0037523e-07
-9.2560796e-07
-3.8565204e-07
-1.0410745e-06
-4.7865242e-07
-1.1456202e-06
-5.7814861e-07
-1.2382725e-06
-6.8285073e-07
-1.3182253e-06
-7.9142924e-07
-1.3848443e-06
-9.0253694e-07
-1.4376696e-06
-1.0148303e-06
-1.4764151e-06
-1.1269895e-06
-1.500965e-06
-1.2377366e-06
-1.5113675e-06
-1.3458529e-06
-1.5078252e-06
-1.4501923e-06
-1.4906859e-06
-1.549695e-06
-1.4604284e-06
-1.6433959e-06
-1.4176499e-06
-1.7304335e-06
-1.3630507e-06
-1.8100545e-06
-1.297419e-06
-1.8816173e-06
-1.2216153e-06
-1.944593e-06
-1.1365576e-06
-1.9985644e-06
-1.0432058e-06
-2.0432243e-06
-9.425474e-07
-2.0783707e-06
-8.3558505e-07
-2.1039001e-06
-7.2332035e-07
-2.1198052e-06
-6.0674408e-07
-2.1261653e-06
-4.8682993e-07
-2.12314e-06
-3.6452197e-07
-2.1109576e-06
-2.4072655e-07
-2.0899013e-06
-1.1630743e-07
-2.0603963e-06
8.0368702e-09
-2.022773e-06
1.3112598e-07
-1.9774995e-06
2.5264647e-07
-1.9250455e-06
3.7184846e-07
-1.8659091e-06
4.8813804e-07
-1.8006078e-06
6.009807e-07
-1.7296718e-06
7.0990306e-07
-1.6536376e-06
8.144904e-07
-1.5730434e-06
9.1438494e-07
-1.4884237e-06
1.0092839e-06
-1.4003055e-06
1.0989377e-06
-1.3092045e-06
1.1831463e-06
-1.2156219e-06
1.2617568e-06
-1.120042e-06
1.3346611e-06
-1.0229295e-06
1.4017913e-06
-9.2472783e-07
1.4631176e-06
-8.2585767e-07
1.5186452e-06
-7.2671543e-07
1.5684114e-06
-6.2767355e-07
1.6124813e-06
-5.290789e-07
1.6509455e-06
-4.3125336e-07
1.6839174e-06
-3.3449408e-07
1.7115295e-06
-2.3907258e-07
1.7339303e-06
-1.4523454e-07
1.7512852e-06
-5.3201401e-08
1.763766e-06
3.6788802e-08
1.7715287e-06
1.2463523e-07
1.7748681e-06
2.1012739e-07
1.7739146e-06
2.9314221e-07
1.7688643e-06
3.7356375e-07
1.7599369e-06
4.512921e-07
1.7473404e-06
5.2624633e-07
1.7312805e-06
5.9836147e-07
1.7119638e-06
6.6758748e-07
1.6895942e-06
7.3388826e-07
1.6643725e-06
7.97241e-07
1.6364953e-06
8.5763406e-07
1.6061544e-06
9.1506724e-07
1.5735371e-06
9.6954977e-07
1.5388246e-06
1.0211e-06
1.5021921e-06
1.0697446e-06
1.4638085e-06
1.1155169e-06
1.4238365e-06
1.1584573e-06
1.3824313e-06
1.1986112e-06
1.3397423e-06
1.2360292e-06
1.2959116e-06
1.2707665e-06
1.2510743e-06
1.2053588e-06
-5.8940814e-09
-7.0576293e-08
-2.3535857e-08
-2.1135303e-07
-5.2705802e-08
-3.5009558e-07
-9.3031573e-08
-4.8537733e-07
-1.4397569e-07
-6.1563852e-07
-2.0485441e-07
-7.3947306e-07
-2.7485517e-07
-8.5560719e-07
-3.5305173e-07
-9.6287792e-07
-4.3842175e-07
-1.0602501e-06
-5.2986557e-07
-1.1468287e-06
-6.2622539e-07
-1.2218654e-06
-7.2630503e-07
-1.2847647e-06
-8.2888899e-07
-1.3350856e-06
-9.3276155e-07
-1.3725425e-06
-1.0367245e-06
-1.3970021e-06
-1.1396135e-06
-1.4084785e-06
-1.240313e-06
-1.4071257e-06
-1.33777e-06
-1.3932289e-06
-1.4310045e-06
-1.3671939e-06
-1.5191197e-06
-1.3295348e-06
-1.6013085e-06
-1.2808619e-06
-1.6768595e-06
-1.221868e-06
-1.74516e-06
-1.1533149e-06
-1.8056976e-06
-1.0760201e-06
-1.8580603e-06
-9.9084304e-07
-1.9019349e-06
-8.986728e-07
-1.9371041e-06
-8.004158e-07
-1.9634413e-06
-6.9698314e-07
-1.9809064e-06
-5.8927901e-07
-1.9895412e-06
-4.7819515e-07
-1.9894618e-06
-3.6460131e-07
-1.9808526e-06
-2.4933578e-07
-1.9639639e-06
-1.3319619e-07
-1.9390258e-06
-1.6901198e-08
-1.9065404e-06
9.8640651e-08
-1.8667874e-06
2.128935e-07
-1.820198e-06
3.2525906e-07
-1.7672183e-06
4.351583e-07
-1.7083131e-06
5.4207549e-07
-1.6439609e-06
6.4555079e-07
-1.5746488e-06
7.4517836e-07
-1.5008678e-06
8.406041e-07
-1.4231085e-06
9.3152462e-07
-1.3418564e-06
1.0176856e-06
-1.2575889e-06
1.0988788e-06
-1.1707725e-06
1.1749404e-06
-1.0818592e-06
1.2457479e-06
-9.9128571e-07
1.3112177e-06
-8.994697e-07
1.3713017e-06
-8.068098e-07
1.4259853e-06
-7.1368311e-07
1.4752847e-06
-6.2044525e-07
1.5192436e-06
-5.2742991e-07
1.5579302e-06
-4.3494737e-07
1.5914348e-06
-3.4328572e-07
1.6198679e-06
-2.5271114e-07
1.6433558e-06
-1.6346541e-07
1.6620395e-06
-7.577598e-08
1.6760767e-06
1.0121083e-08
1.6856315e-06
9.4184007e-08
1.6908052e-06
1.7612537e-07
1.6919734e-06
2.558381e-07
1.6891516e-06
3.3320547e-07
1.6825695e-06
4.0812361e-07
1.6724223e-06
4.8050528e-07
1.6588987e-06
5.5027894e-07
1.6421902e-06
6.1738684e-07
1.6224862e-06
6.8178543e-07
1.599974e-06
7.4344325e-07
1.5748374e-06
8.023403e-07
1.5472573e-06
8.5846745e-07
1.5174098e-06
9.1182541e-07
1.4854667e-06
9.6242367e-07
1.451594e-06
1.0102797e-06
1.4159525e-06
1.0554182e-06
1.3786979e-06
1.0978705e-06
1.3399788e-06
1.1376737e-06
1.299939e-06
1.17487e-06
1.2587153e-06
1.209506e-06
1.2164382e-06
1.1732325e-06
-5.3918623e-09
-6.5184432e-08
-2.1531423e-08
-1.9521347e-07
-4.8223312e-08
-3.234037e-07
-8.5135984e-08
-4.4846465e-07
-1.3179053e-07
-5.6898397e-07
-1.8757719e-07
-6.8368643e-07
-2.5177052e-07
-7.9141386e-07
-3.2354252e-07
-8.9110591e-07
-4.0197788e-07
-9.8181478e-07
-4.8609021e-07
-1.0627163e-06
-5.74839e-07
-1.1331167e-06
-6.6714662e-07
-1.192457e-06
-7.6191548e-07
-1.2403167e-06
-8.580445e-07
-1.2764135e-06
-9.5444509e-07
-1.3006015e-06
-1.0500558e-06
-1.3128677e-06
-1.1438561e-06
-1.3133255e-06
-1.2348775e-06
-1.3022075e-06
-1.3222154e-06
-1.2798561e-06
-1.4050362e-06
-1.2467139e-06
-1.4825856e-06
-1.2033125e-06
-1.5541929e-06
-1.1502606e-06
-1.619275e-06
-1.0882328e-06
-1.6773382e-06
-1.0179569e-06
-1.7279786e-06
-9.4020252e-07
-1.7708816e-06
-8.5576984e-07
-1.8058193e-06
-7.6547816e-07
-1.8326467e-06
-6.701556e-07
-1.8512982e-06
-5.7062753e-07
-1.861783e-06
-4.6771032e-07
-1.8641803e-06
-3.6220405e-07
-1.8586319e-06
-2.5488414e-07
-1.845336e-06
-1.4649207e-07
-1.8245203e-06
-3.7716874e-08
-1.7965585e-06
7.0678859e-08
-1.7617318e-06
1.7806672e-07
-1.7204135e-06
2.839408e-07
-1.6729987e-06
3.8774346e-07
-1.6199026e-06
4.8897938e-07
-1.5615563e-06
5.8720438e-07
-1.4984007e-06
6.8202282e-07
-1.4308833e-06
7.7308664e-07
-1.3594531e-06
8.6009448e-07
-1.284557e-06
9.4278943e-07
-1.2066362e-06
1.020958e-06
-1.1261237e-06
1.094428e-06
-1.0434413e-06
1.1630656e-06
-9.5899768e-07
1.226774e-06
-8.7318611e-07
1.2854901e-06
-7.8638276e-07
1.339182e-06
-6.9894587e-07
1.3878478e-06
-6.1121457e-07
1.4315123e-06
-5.2350771e-07
1.4702233e-06
-4.3612465e-07
1.5040517e-06
-3.4934352e-07
1.5330868e-06
-2.6342208e-07
1.5574343e-06
-1.7859791e-07
1.5772152e-06
-9.5087802e-08
1.5925666e-06
-1.3086682e-08
1.6036305e-06
6.7217165e-08
1.6105014e-06
1.4567315e-07
1.6135173e-06
2.2214386e-07
1.6126808e-06
2.9650233e-07
1.608211e-06
3.6864012e-07
1.6002846e-06
4.3846447e-07
1.5890744e-06
5.0589778e-07
1.5747569e-06
5.7087652e-07
1.5575074e-06
6.333501e-07
1.5375005e-06
6.9327954e-07
1.5149077e-06
7.5063813e-07
1.4898988e-06
8.0540859e-07
1.4626394e-06
8.5758346e-07
1.4332917e-06
9.071648e-07
1.4020127e-06
9.5416155e-07
1.3689557e-06
9.9859066e-07
1.3342689e-06
1.0404753e-06
1.2980943e-06
1.0798446e-06
1.2605696e-06
1.1167332e-06
1.2218268e-06
1.1511796e-06
1.1819916e-06
1.1411848e-06
-4.9378219e-09
-6.0246609e-08
-1.9719164e-08
-1.8043212e-07
-4.416982e-08
-2.9895304e-07
-7.799403e-08
-4.1464044e-07
-1.2076431e-07
-5.2621368e-07
-1.7193594e-07
-6.325148e-07
-2.3086016e-07
-7.3248964e-07
-2.9679564e-07
-8.2517042e-07
-3.6892159e-07
-9.0968882e-07
-4.4635212e-07
-9.8528582e-07
-5.2815076e-07
-1.051318e-06
-6.1334575e-07
-1.107262e-06
-7.0094479e-07
-1.1527177e-06
-7.8994995e-07
-1.1874084e-06
-8.7937146e-07
-1.21118e-06
-9.6824135e-07
-1.2239978e-06
-1.0556252e-06
-1.2259416e-06
-1.1406334e-06
-1.2171993e-06
-1.22243e-06
-1.1980594e-06
-1.3002418e-06
-1.1689022e-06
-1.3733639e-06
-1.1301904e-06
-1.4411657e-06
-1.0824589e-06
-1.5030937e-06
-1.0263047e-06
-1.5586743e-06
-9.6237633e-07
-1.6075141e-06
-8.9136267e-07
-1.6493002e-06
-8.1398377e-07
-1.6837981e-06
-7.3098024e-07
-1.7108496e-06
-6.4310414e-07
-1.730368e-06
-5.5110917e-07
-1.7423365e-06
-4.5574179e-07
-1.7468022e-06
-3.5773837e-07
-1.7438713e-06
-2.5781504e-07
-1.733703e-06
-1.5666028e-07
-1.716495e-06
-5.4925001e-08
-1.6925527e-06
4.6736607e-08
-1.6621252e-06
1.4763929e-07
-1.6255423e-06
2.4735786e-07
-1.5831534e-06
3.4535464e-07
-1.5353294e-06
4.4115544e-07
-1.4824574e-06
5.3433233e-07
-1.4249361e-06
6.2450163e-07
-1.3631725e-06
7.1132312e-07
-1.297577e-06
7.9449877e-07
-1.2285597e-06
8.7377218e-07
-1.1565284e-06
9.4892669e-07
-1.0818841e-06
1.0197836e-06
-1.0050196e-06
1.0862011e-06
-9.2631668e-07
1.1480711e-06
-8.4614463e-07
1.205318e-06
-7.6485832e-07
1.2578957e-06
-6.8279684e-07
1.3057864e-06
-6.0028232e-07
1.3489977e-06
-5.1762011e-07
1.3875611e-06
-4.3509646e-07
1.4215281e-06
-3.5297976e-07
1.4509701e-06
-2.7152011e-07
1.4759747e-06
-1.9094823e-07
1.4966434e-06
-1.1147523e-07
1.5130935e-06
-3.3292953e-08
1.5254482e-06
4.3399162e-08
1.5338091e-06
1.1847332e-07
1.5384433e-06
1.9177487e-07
1.5393793e-06
2.6317959e-07
1.5368064e-06
3.325763e-07
1.5308879e-06
3.9986799e-07
1.5217826e-06
4.6497242e-07
1.5096524e-06
5.2782102e-07
1.4946589e-06
5.8835719e-07
1.4769643e-06
6.4653622e-07
1.4567287e-06
7.0232441e-07
1.4341106e-06
7.5569799e-07
1.4092659e-06
8.0664246e-07
1.382347e-06
8.5515233e-07
1.3535029e-06
9.0122964e-07
1.3228783e-06
9.4488406e-07
1.2906144e-06
9.8613115e-07
1.2568472e-06
1.0249931e-06
1.2217078e-06
1.0614969e-06
1.185323e-06
1.0956747e-06
1.1478139e-06
1.1092972e-06
-4.526755e-09
-5.5719854e-08
-1.8078324e-08
-1.6688055e-07
-4.0499086e-08
-2.7653228e-07
-7.1524739e-08
-3.8361479e-07
-1.1077305e-07
-4.8696538e-07
-1.5775658e-07
-5.8553127e-07
-2.1189424e-07
-6.7835197e-07
-2.7252123e-07
-7.6454344e-07
-3.3890053e-07
-8.4330953e-07
-4.1023529e-07
-9.1395105e-07
-4.856818e-07
-9.7587147e-07
-5.6436261e-07
-1.0285812e-06
-6.453798e-07
-1.0717005e-06
-7.2782806e-07
-1.1049601e-06
-8.1080707e-07
-1.128201e-06
-8.9343347e-07
-1.1413715e-06
-9.7485162e-07
-1.1445234e-06
-1.0542437e-06
-1.1378072e-06
-1.1308384e-06
-1.1214648e-06
-1.203918e-06
-1.0958225e-06
-1.2728253e-06
-1.0612831e-06
-1.3369678e-06
-1.0183164e-06
-1.3958216e-06
-9.6745098e-07
-1.4489339e-06
-9.0926405e-07
-1.4959237e-06
-8.4437284e-07
-1.5364823e-06
-7.7342522e-07
-1.5703722e-06
-6.9709028e-07
-1.5974253e-06
-6.1605101e-07
-1.6175393e-06
-5.3099517e-07
-1.6306751e-06
-4.4260605e-07
-1.6368534e-06
-3.5155999e-07
-1.6361503e-06
-2.5851814e-07
-1.6286907e-06
-1.6411994e-07
-1.614639e-06
-6.8976675e-08
-1.5942632e-06
2.6360712e-08
-1.5677562e-06
1.2113236e-07
-1.5354229e-06
2.1502458e-07
-1.49757e-06
3.0750171e-07
-1.4545272e-06
3.9811264e-07
-1.4066416e-06
4.8644669e-07
-1.3542732e-06
5.7213319e-07
-1.2977912e-06
6.5484115e-07
-1.2375702e-06
7.3427786e-07
-1.1739868e-06
8.1018873e-07
-1.1074162e-06
8.8235608e-07
-1.0382299e-06
9.5059737e-07
-9.6679271e-07
1.0147639e-06
-8.9346107e-07
1.0747395e-06
-8.1858081e-07
1.1304378e-06
-7.424861e-07
1.1818009e-06
-6.6549704e-07
1.2287973e-06
-5.8791982e-07
1.2714205e-06
-5.1004425e-07
1.3096856e-06
-4.3214525e-07
1.3436291e-06
-3.5448067e-07
1.3733056e-06
-2.7729167e-07
1.3987857e-06
-2.0080286e-07
1.4201546e-06
-1.2522034e-07
1.437511e-06
-5.0736761e-08
1.4509648e-06
2.2455232e-08
1.460617e-06
9.4251522e-08
1.466647e-06
1.6446555e-07
1.4691652e-06
2.329799e-07
1.468292e-06
2.9968309e-07
1.4641847e-06
3.644752e-07
1.4569906e-06
4.2727114e-07
1.4468564e-06
4.8799749e-07
1.4339325e-06
5.4659349e-07
1.4183683e-06
6.0300904e-07
1.4003133e-06
6.5720475e-07
1.379915e-06
7.0915086e-07
1.3573198e-06
7.5882684e-07
1.332671e-06
8.0622065e-07
1.3061092e-06
8.5132783e-07
1.2777712e-06
8.9415116e-07
1.2477912e-06
9.3470037e-07
1.2162981e-06
9.7299015e-07
1.1834181e-06
1.0090412e-06
1.1492717e-06
1.0428788e-06
1.1139763e-06
1.0776428e-06
-4.1540813e-09
-5.1565772e-08
-1.6590638e-08
-1.5444399e-07
-3.7170426e-08
-2.5595249e-07
-6.5656863e-08
-3.5512835e-07
-1.017076e-07
-4.5091464e-07
-1.4488573e-07
-5.4235313e-07
-1.9467001e-07
-6.285677e-07
-2.5046336e-07
-7.0875008e-07
-3.1160304e-07
-7.8216985e-07
-3.7737139e-07
-8.481827e-07
-4.4700726e-07
-9.0623562e-07
-5.1971753e-07
-9.5587095e-07
-5.9468894e-07
-9.9672911e-07
-6.7109931e-07
-1.0285497e-06
-7.4812921e-07
-1.0511711e-06
-8.2497205e-07
-1.0645286e-06
-9.0084414e-07
-1.0686513e-06
-9.7499365e-07
-1.0636577e-06
-1.0467087e-06
-1.0497498e-06
-1.1153237e-06
-1.0272074e-06
-1.1802262e-06
-9.9638059e-07
-1.2408605e-06
-9.5768214e-07
-1.2967317e-06
-9.1157978e-07
-1.347408e-06
-8.5858774e-07
-1.3925222e-06
-7.9925859e-07
-1.4317722e-06
-7.341752e-07
-1.4649198e-06
-6.6394265e-07
-1.4917902e-06
-5.8918059e-07
-1.5122692e-06
-5.1051614e-07
-1.5263002e-06
-4.2857505e-07
-1.5338821e-06
-3.4397808e-07
-1.5350651e-06
-2.5733519e-07
-1.5299457e-06
-1.6923935e-07
-1.5186603e-06
-8.0262141e-08
-1.5014132e-06
9.1137378e-09
-1.4784055e-06
9.8124568e-08
-1.4498854e-06
1.8650448e-07
-1.4161242e-06
2.7374042e-07
-1.3774146e-06
3.5940312e-07
-1.3340679e-06
4.4309995e-07
-1.2864086e-06
5.2447397e-07
-1.2347716e-06
6.0320416e-07
-1.1794984e-06
6.7900457e-07
-1.1209337e-06
7.5162401e-07
-1.0594228e-06
8.2084521e-07
-9.9530895e-07
8.864835e-07
-9.2893072e-07
9.483857e-07
-8.6062015e-07
1.006429e-06
-7.9070089e-07
1.0605186e-06
-7.1948659e-07
1.1105866e-06