/*--------------------------------*- C++ -*----------------------------------*\
| =========                 |                                                 |
| \\      /  F ield         | OpenFOAM: The Open Source CFD Toolbox           |
|  \\    /   O peration     | Version:  2306                                  |
|   \\  /    A nd           | Website:  www.openfoam.com                      |
|    \\/     M anipulation  |                                                 |
\*---------------------------------------------------------------------------*/
FoamFile
{
    version     2.0;
    format      ascii;
    arch        "LSB;label=32;scalar=64";
    class       surfaceScalarField;
    location    "0.52";
    object      phi;
}
// * * * * * * * * * * * * * * * * * * * * * * * * * * * * * * * * * * * * * //

dimensions      [0 3 -1 0 0 0 0];

oriented        oriented;

internalField   nonuniform List<scalar> 
101920
(
1.5749763e-09
-1.5749763e-09
6.3830828e-09
-4.8081063e-09
1.4271589e-08
-7.8885064e-09
2.5166942e-08
-1.0895353e-08
3.8986091e-08
-1.3819149e-08
5.5655642e-08
-1.6669551e-08
7.5111773e-08
-1.9456132e-08
9.7280938e-08
-2.2169165e-08
1.2207681e-07
-2.4795868e-08
1.493998e-07
-2.7322996e-08
1.7913775e-07
-2.9737952e-08
2.111669e-07
-3.2029144e-08
2.4535312e-07
-3.4186226e-08
2.8155295e-07
-3.619982e-08
3.1961462e-07
-3.806167e-08
3.5937901e-07
-3.9764391e-08
4.0068047e-07
-4.1301459e-08
4.4334779e-07
-4.2667322e-08
4.8720521e-07
-4.3857421e-08
5.3207318e-07
-4.4867972e-08
5.7776971e-07
-4.5696525e-08
6.2411048e-07
-4.6340771e-08
6.709106e-07
-4.6800118e-08
7.1798481e-07
-4.7074211e-08
7.6514932e-07
-4.7164511e-08
8.1222141e-07
-4.7072094e-08
8.5902107e-07
-4.6799651e-08
9.0537056e-07
-4.6349493e-08
9.510987e-07
-4.5728139e-08
9.9603693e-07
-4.4938231e-08
1.040026e-06
-4.3989059e-08
1.0829207e-06
-4.2894737e-08
1.1245931e-06
-4.1672405e-08
1.1648846e-06
-4.0291413e-08
1.2036468e-06
-3.8762229e-08
1.2407572e-06
-3.7110396e-08
1.2761018e-06
-3.5344644e-08
1.3095788e-06
-3.347703e-08
1.3410976e-06
-3.1518709e-08
1.3705741e-06
-2.9476539e-08
1.3979355e-06
-2.7361413e-08
1.4231206e-06
-2.5185082e-08
1.4460725e-06
-2.2951926e-08
1.466761e-06
-2.068849e-08
1.4851537e-06
-1.839266e-08
1.501209e-06
-1.6055323e-08
1.5149068e-06
-1.3697788e-08
1.5262524e-06
-1.1345659e-08
1.5352664e-06
-9.0139301e-09
1.5419519e-06
-6.6855756e-09
1.5463262e-06
-4.3742402e-09
1.5483959e-06
-2.0697034e-09
1.5481307e-06
2.6513691e-10
1.5458086e-06
2.322118e-09
1.5413951e-06
4.4135042e-09
1.5349289e-06
6.4662208e-09
1.5264756e-06
8.4533077e-09
1.5161028e-06
1.0372802e-08
1.5038929e-06
1.220994e-08
1.4899318e-06
1.3961089e-08
1.474304e-06
1.5627779e-08
1.4571034e-06
1.7200552e-08
1.4384216e-06
1.8681782e-08
1.4183506e-06
2.0071003e-08
1.3969892e-06
2.136147e-08
1.3744332e-06
2.2556004e-08
1.3507818e-06
2.3651337e-08
1.3261327e-06
2.4649116e-08
1.3005829e-06
2.5549774e-08
1.2742168e-06
2.6366123e-08
1.2471459e-06
2.7070951e-08
1.2194614e-06
2.7684478e-08
1.1912532e-06
2.8208188e-08
1.1626093e-06
2.864388e-08
1.133614e-06
2.8995368e-08
1.1043518e-06
2.9262158e-08
1.074903e-06
2.9448769e-08
1.0453445e-06
2.9558552e-08
1.0157438e-06
2.9600693e-08
9.8617569e-07
2.9568088e-08
9.5670422e-07
2.9471499e-08
9.273905e-07
2.93137e-08
8.9829268e-07
2.9097816e-08
8.6946421e-07
2.8828474e-08
8.4095387e-07
2.8510327e-08
8.1280753e-07
2.8146348e-08
7.8506883e-07
2.7738697e-08
7.5778062e-07
2.7288219e-08
7.3095198e-07
2.6828644e-08
7.0463763e-07
2.631435e-08
6.7886086e-07
2.577675e-08
6.5364305e-07
2.5217816e-08
6.2900372e-07
2.4639325e-08
6.0495947e-07
2.4044254e-08
5.81524e-07
2.3435467e-08
5.5870822e-07
2.2815771e-08
5.3652035e-07
2.2187863e-08
5.1496601e-07
2.1554346e-08
4.9404838e-07
2.0917649e-08
4.7376839e-07
2.0279975e-08
4.5412499e-07
1.964341e-08
4.3511519e-07
1.9009811e-08
4.1673437e-07
1.838081e-08
3.9897649e-07
1.7757874e-08
3.8183431e-07
1.7142185e-08
3.6529956e-07
1.6534741e-08
3.4936297e-07
1.5936597e-08
3.3401413e-07
1.5348841e-08
3.1924087e-07
1.4773253e-08
3.0502988e-07
1.4211008e-08
2.9136704e-07
1.3662837e-08
2.7823777e-07
1.3129266e-08
2.6562741e-07
1.2610361e-08
2.5352167e-07
1.2105733e-08
2.4190667e-07
1.1615004e-08
2.3076401e-07
1.1142656e-08
2.2007498e-07
1.0689037e-08
2.0982411e-07
1.0250868e-08
1.9999696e-07
9.8271414e-09
1.9057969e-07
9.4172715e-09
1.8155858e-07
9.0211134e-09
1.7291722e-07
8.6413717e-09
1.6464071e-07
8.2764989e-09
1.5671609e-07
7.9246326e-09
1.4913196e-07
7.5841273e-09
1.4187329e-07
7.2586762e-09
1.3490885e-07
6.9644291e-09
1.2822843e-07
6.6804109e-09
1.2182163e-07
6.4068365e-09
1.1567658e-07
6.145025e-09
1.0978099e-07
5.895596e-09
1.0412235e-07
5.6586439e-09
9.8688286e-08
5.4340388e-09
9.3466816e-08
5.2214742e-09
8.8446199e-08
5.0206401e-09
8.3615062e-08
4.8311138e-09
7.8962379e-08
4.6526941e-09
7.4476549e-08
4.4858319e-09
7.0147984e-08
4.3285373e-09
6.5965663e-08
4.1823458e-09
6.1920476e-08
4.045161e-09
5.8002914e-08
3.9175816e-09
5.4203428e-08
3.7994933e-09
5.0511834e-08
3.6916026e-09
4.6920023e-08
3.5917925e-09
4.3418548e-08
3.5014974e-09
3.9998494e-08
3.420057e-09
3.6650308e-08
3.3481584e-09
3.3363842e-08
3.2865016e-09
3.0127198e-08
3.236666e-09
2.6924794e-08
3.2023685e-09
2.37376e-08
3.1871919e-09
2.0536307e-08
3.2012837e-09
1.7276759e-08
3.2595435e-09
1.3896071e-08
3.3806951e-09
1.0321996e-08
3.5740795e-09
6.5252039e-09
3.7967948e-09
2.7048558e-09
3.8203349e-09
-9.703388e-11
2.8018715e-09
-9.7016885e-11
2.6822409e-09
-4.2572173e-09
1.0538424e-08
-1.2664289e-08
2.3408655e-08
-2.0758738e-08
4.1078429e-08
-2.8565127e-08
6.339441e-08
-3.6135129e-08
9.0236161e-08
-4.3511303e-08
1.2147621e-07
-5.0696182e-08
1.5697274e-07
-5.7665697e-08
1.9656238e-07
-6.4385507e-08
2.4005814e-07
-7.0818751e-08
2.8725021e-07
-7.6930025e-08
3.3790756e-07
-8.2686494e-08
3.9178008e-07
-8.8058745e-08
4.4860059e-07
-9.3020331e-08
5.080874e-07
-9.7548481e-08
5.6994557e-07
-1.0162257e-07
6.3386916e-07
-1.0522505e-07
6.9954296e-07
-1.0834112e-07
7.6664481e-07
-1.1095927e-07
8.3484652e-07
-1.1306968e-07
9.0381721e-07
-1.1466722e-07
9.7322367e-07
-1.1574723e-07
1.042733e-06
-1.1630944e-07
1.1120138e-06
-1.1635502e-07
1.1807392e-06
-1.1588995e-07
1.2485874e-06
-1.149203e-07
1.3152431e-06
-1.1345535e-07
1.3803992e-06
-1.1150554e-07
1.4437623e-06
-1.090913e-07
1.5050476e-06
-1.0622353e-07
1.5639869e-06
-1.029283e-07
1.6203137e-06
-9.9221565e-08
1.6737761e-06
-9.5134824e-08
1.7241595e-06
-9.0674774e-08
1.7712616e-06
-8.5864341e-08
1.8148927e-06
-8.0741512e-08
1.8548778e-06
-7.5329733e-08
1.8910669e-06
-6.9666125e-08
1.9233328e-06
-6.3784597e-08
1.9515622e-06
-5.7705952e-08
1.9756626e-06
-5.1461872e-08
1.9955634e-06
-4.5085836e-08
2.0112055e-06
-3.8594025e-08
2.0225718e-06
-3.2054774e-08
2.0296533e-06
-2.5474211e-08
2.0324681e-06
-1.8870039e-08
2.0310174e-06
-1.2247109e-08
2.0253823e-06
-5.7106307e-09
2.0156754e-06
6.9298471e-10
2.0017965e-06
7.1933552e-09
1.9839277e-06
1.3494541e-08
1.9622248e-06
1.9633182e-08
1.9368814e-06
2.5608592e-08
1.907799e-06
3.140452e-08
1.8752409e-06
3.6971603e-08
1.8393801e-06
4.2326952e-08
1.8003976e-06
4.7435855e-08
1.7584615e-06
5.2308836e-08
1.7137524e-06
5.6919116e-08
1.666473e-06
6.1240431e-08
1.6168114e-06
6.5289454e-08
1.5649648e-06
6.9047105e-08
1.5111326e-06
7.251403e-08
1.4555165e-06
7.5687027e-08
1.3983264e-06
7.8551629e-08
1.3397551e-06
8.1127353e-08
1.2800066e-06
8.3399804e-08
1.2192836e-06
8.5372129e-08
1.1577799e-06
8.7053468e-08
1.0956564e-06
8.8489656e-08
1.0331374e-06
8.9589932e-08
9.7039752e-07
9.042431e-08
9.0760618e-07
9.0999537e-08
8.4492971e-07
9.1320345e-08
7.8253423e-07
9.1390844e-08
7.2056704e-07
9.1229358e-08
6.5917186e-07
9.0843942e-08
5.9848735e-07
9.0243066e-08
5.38661e-07
8.942702e-08
4.7979397e-07
8.8435121e-08
4.2200087e-07
8.7264591e-08
3.65387e-07
8.5927584e-08
3.1004687e-07
8.4437946e-08
2.5606752e-07
8.2807832e-08
2.0352767e-07
8.1050162e-08
1.5249655e-07
7.917747e-08
1.0303188e-07
7.7203377e-08
5.5177509e-08
7.5142561e-08
9.0376974e-09
7.2968461e-08
-3.5406653e-08
7.0758703e-08
-7.8115564e-08
6.8485681e-08
-1.1905949e-07
6.616174e-08
-1.5821839e-07
6.3798234e-08
-1.9557919e-07
6.1405061e-08
-2.3113484e-07
5.8991119e-08
-2.6488378e-07
5.6564715e-08
-2.9682957e-07
5.4133658e-08
-3.2698043e-07
5.1705226e-08
-3.553489e-07
4.9286108e-08
-3.819515e-07
4.6882559e-08
-4.068083e-07
4.4500233e-08
-4.299427e-07
4.2144188e-08
-4.5138085e-07
3.9818958e-08
-4.7115146e-07
3.7528485e-08
-4.8928533e-07
3.5276065e-08
-5.05815e-07
3.3064411e-08
-5.207746e-07
3.089621e-08
-5.3419939e-07
2.877363e-08
-5.4612794e-07
2.6701807e-08
-5.5659988e-07
2.4682936e-08
-5.6565565e-07
2.271862e-08
-5.7333534e-07
2.0808965e-08
-5.7967923e-07
1.8954252e-08
-5.8472698e-07
1.715348e-08
-5.8851516e-07
1.5403188e-08
-5.9109167e-07
1.3719203e-08
-5.925044e-07
1.2101744e-08
-5.9279021e-07
1.0536705e-08
-5.9198716e-07
9.0241005e-09
-5.9013454e-07
7.564663e-09
-5.8727178e-07
6.1583409e-09
-5.8343454e-07
4.8041274e-09
-5.786583e-07
3.5002272e-09
-5.7297664e-07
2.2429772e-09
-5.6641563e-07
1.0230952e-09
-5.5901341e-07
-1.4356385e-10
-5.5084873e-07
-1.2002294e-09
-5.4192457e-07
-2.2437563e-09
-5.3226857e-07
-3.2491717e-09
-5.2191092e-07
-4.2125939e-09
-5.1088151e-07
-5.1338289e-09
-4.9920915e-07
-6.0137016e-09
-4.8692168e-07
-6.8534207e-09
-4.7404588e-07
-7.6543433e-09
-4.6060758e-07
-8.4176606e-09
-4.4663164e-07
-9.1448077e-09
-4.3214201e-07
-9.8369448e-09
-4.1716138e-07
-1.0494803e-08
-4.0171216e-07
-1.1120667e-08
-3.8581536e-07
-1.1714444e-08
-3.6949179e-07
-1.2278387e-08
-3.5276133e-07
-1.281289e-08
-3.356431e-07
-1.3318788e-08
-3.1815525e-07
-1.3796232e-08
-3.0031645e-07
-1.4247001e-08
-2.8214451e-07
-1.4670466e-08
-2.6365753e-07
-1.5066924e-08
-2.4487409e-07
-1.5435267e-08
-2.2581405e-07
-1.5773569e-08
-2.0649956e-07
-1.6077848e-08
-1.8695645e-07
-1.6340717e-08
-1.6721771e-07
-1.6551542e-08
-1.4732431e-07
-1.6692085e-08
-1.2732525e-07
-1.673956e-08
-1.0726915e-07
-1.66754e-08
-8.717519e-08
-1.6519868e-08
-6.6955101e-08
-1.6423297e-08
-4.6243996e-08
-1.6890775e-08
-2.4319237e-08
-1.9122882e-08
-2.4416259e-08
2.6552552e-09
-6.9124725e-09
1.0426169e-08
-2.0435204e-08
2.3178218e-08
-3.3510786e-08
4.0703136e-08
-4.6090045e-08
6.2836829e-08
-5.8268823e-08
8.9431931e-08
-7.0106406e-08
1.2032946e-07
-8.1593711e-08
1.5535438e-07
-9.2690613e-08
1.9430972e-07
-1.0334085e-07
2.3697448e-07
-1.1348351e-07
2.8310377e-07
-1.2305932e-07
3.3242981e-07
-1.3201254e-07
3.8466419e-07
-1.4029312e-07
4.3949986e-07
-1.47856e-07
4.9661409e-07
-1.546627e-07
5.5566952e-07
-1.60678e-07
6.1631738e-07
-1.6587291e-07
6.7819943e-07
-1.7022317e-07
7.4095075e-07
-1.7371059e-07
8.0420069e-07
-1.7631962e-07
8.6757706e-07
-1.7804359e-07
9.3070734e-07
-1.7887751e-07
9.9321997e-07
-1.7882208e-07
1.0547475e-06
-1.7788257e-07
1.11493e-06
-1.7607239e-07
1.1734149e-06
-1.7340522e-07
1.2298596e-06
-1.6990002e-07
1.2839311e-06
-1.6557707e-07
1.3353168e-06
-1.6047697e-07
1.3837116e-06
-1.5461834e-07
1.4288343e-06
-1.4805099e-07
1.4704095e-06
-1.4079681e-07
1.5081947e-06
-1.3291999e-07
1.5419633e-06
-1.2444344e-07
1.5715212e-06
-1.1542224e-07
1.5966845e-06
-1.0590478e-07
1.6172919e-06
-9.5937134e-08
1.6332148e-06
-8.5588977e-08
1.6443449e-06
-7.4914747e-08
1.6505954e-06
-6.3956404e-08
1.6518996e-06
-5.2766149e-08
1.6482259e-06
-4.1412054e-08
1.6395716e-06
-2.9939758e-08
1.6259601e-06
-1.8443302e-08
1.60749e-06
-7.0040414e-09
1.5841115e-06
4.5084647e-09
1.5557804e-06
1.6083907e-08
1.5226923e-06
2.7377529e-08
1.484951e-06
3.843426e-08
1.4428611e-06
4.9283298e-08
1.396484e-06
5.9871586e-08
1.34599e-06
7.0127166e-08
1.2915865e-06
8.0012165e-08
1.2334528e-06
8.9538126e-08
1.1717944e-06
9.8630044e-08
1.1068353e-06
1.0728608e-07
1.0388204e-06
1.1545074e-07
9.6798862e-07
1.2314061e-07
8.9455421e-07
1.3035352e-07
8.1881702e-07
1.3697763e-07
7.4102719e-07
1.4307926e-07
6.6142964e-07
1.4864467e-07
5.8028506e-07
1.536586e-07
4.9786102e-07
1.5811107e-07
4.1440644e-07
1.6200619e-07
3.3018335e-07
1.6535045e-07
2.4543376e-07
1.6814939e-07
1.604011e-07
1.7040479e-07
7.5323993e-08
1.7213059e-07
-9.478018e-09
1.7329167e-07
-9.3895084e-08
1.74007e-07
-1.7769048e-07
1.742197e-07
-2.6064667e-07
1.7395574e-07
-3.4256242e-07
1.7323609e-07
-4.2324902e-07
1.7207744e-07
-5.025278e-07
1.7050813e-07
-5.8023115e-07
1.685473e-07
-6.5620414e-07
1.6621605e-07
-7.3030592e-07
1.6352881e-07
-8.0239933e-07
1.6052853e-07
-8.7236238e-07
1.5722763e-07
-9.4008489e-07
1.5365011e-07
-1.0054675e-06
1.4982059e-07
-1.068422e-06
1.4576232e-07
-1.1288706e-06
1.4149877e-07
-1.1867459e-06
1.3705276e-07
-1.2419893e-06
1.3244678e-07
-1.2945482e-06
1.2770146e-07
-1.34441e-06
1.228303e-07
-1.3915207e-06
1.1786933e-07
-1.4358651e-06
1.1283008e-07
-1.4774333e-06
1.0772994e-07
-1.5162217e-06
1.0258663e-07
-1.5522335e-06
9.7416885e-08
-1.5854788e-06
9.2236412e-08
-1.615974e-06
8.7059853e-08
-1.6437413e-06
8.1900929e-08
-1.6688084e-06
7.6772323e-08
-1.6912079e-06
7.1685688e-08
-1.7109773e-06
6.665189e-08
-1.7281575e-06
6.1680511e-08
-1.7427936e-06
5.6780206e-08
-1.7549332e-06
5.1958604e-08
-1.7646272e-06
4.7222499e-08
-1.7719284e-06
4.2577242e-08
-1.7768902e-06
3.8026244e-08
-1.7795693e-06
3.3575272e-08
-1.7800199e-06
2.9224245e-08
-1.7783032e-06
2.4985114e-08
-1.7744802e-06
2.0859942e-08
-1.7686128e-06
1.685121e-08
-1.7607606e-06
1.2956686e-08
-1.7509822e-06
9.1759516e-09
-1.739333e-06
5.5042351e-09
-1.7258477e-06
1.9178592e-09
-1.7106586e-06
-1.4699193e-09
-1.6938101e-06
-4.7467416e-09
-1.6753371e-06
-7.9363336e-09
-1.6552936e-06
-1.1019388e-08
-1.6337357e-06
-1.3993208e-08
-1.6107186e-06
-1.6858729e-08
-1.5862964e-06
-1.9618065e-08
-1.5605219e-06
-2.2274312e-08
-1.5334477e-06
-2.4831152e-08
-1.5051331e-06
-2.7291548e-08
-1.4756259e-06
-2.9650751e-08
-1.4449288e-06
-3.189727e-08
-1.4131162e-06
-3.4056372e-08
-1.3802349e-06
-3.6130466e-08
-1.3463266e-06
-3.8120873e-08
-1.311431e-06
-4.002949e-08
-1.275586e-06
-4.1858671e-08
-1.2388284e-06
-4.3611075e-08
-1.2011933e-06
-4.5289413e-08
-1.1627145e-06
-4.6896388e-08
-1.1234246e-06
-4.8434708e-08
-1.0833546e-06
-4.9907011e-08
-1.0425337e-06
-5.1315703e-08
-1.0009908e-06
-5.2663585e-08
-9.5875248e-07
-5.395273e-08
-9.1584519e-07
-5.5185676e-08
-8.7229374e-07
-5.6364336e-08
-8.2812199e-07
-5.7490519e-08
-7.8335249e-07
-5.8565724e-08
-7.3800795e-07
-5.9591547e-08
-6.921098e-07
-6.0568626e-08
-6.4567965e-07
-6.1497078e-08
-5.9873897e-07
-6.2375935e-08
-5.5130998e-07
-6.3202533e-08
-5.0341617e-07
-6.3971652e-08
-4.5508272e-07
-6.4674185e-08
-4.0633769e-07
-6.5296527e-08
-3.5721e-07
-6.5819806e-08
-3.077243e-07
-6.6225231e-08
-2.5788802e-07
-6.6511691e-08
-2.076658e-07
-6.6742087e-08
-1.5694158e-07
-6.7147536e-08
-1.055076e-07
-6.8324713e-08
-5.3180829e-08
-7.144966e-08
-7.7597118e-08
2.2317512e-09
-9.1442236e-09
8.8726971e-09
-2.707615e-08
1.9837924e-08
-4.4476013e-08
3.4993648e-08
-6.1245769e-08
5.4195614e-08
-7.7470789e-08
7.7284164e-08
-9.3194954e-08
1.0408361e-07
-1.0839315e-07
1.3440136e-07
-1.2300837e-07
1.6802505e-07
-1.3696454e-07
2.0472146e-07
-1.5017992e-07
2.4423589e-07
-1.6257375e-07
2.8629286e-07
-1.7406951e-07
3.3059773e-07
-1.8459798e-07
3.768381e-07
-1.9409637e-07
4.2468656e-07
-2.0251116e-07
4.7380246e-07
-2.0979389e-07
5.2383422e-07
-2.1590467e-07
5.7442109e-07
-2.2081004e-07
6.2519722e-07
-2.2448672e-07
6.7579394e-07
-2.2691634e-07
7.2583963e-07
-2.2808928e-07
7.7496326e-07
-2.2800113e-07
8.2279972e-07
-2.2665853e-07
8.6898627e-07
-2.2406911e-07
9.1316979e-07
-2.2025591e-07
9.5501117e-07
-2.1524659e-07
9.9417585e-07
-2.090647e-07
1.0303483e-06
-2.0174955e-07
1.0632269e-06
-1.9335554e-07
1.0925226e-06
-1.8391409e-07
1.1179775e-06
-1.7350582e-07
1.139344e-06
-1.6216331e-07
1.1563995e-06
-1.4997555e-07
1.1689409e-06
-1.3698476e-07
1.176803e-06
-1.2328444e-07
1.1798221e-06
-1.0892388e-07
1.1778791e-06
-9.3994122e-08
1.1708889e-06
-7.8598774e-08
1.1587604e-06
-6.2786182e-08
1.1414481e-06
-4.6644116e-08
1.1189343e-06
-3.0252368e-08
1.0912298e-06
-1.3707512e-08
1.0583239e-06
2.9661384e-09
1.0202569e-06
1.9623696e-08
9.7707843e-07
3.6174384e-08
9.2898098e-07
5.2605921e-08
8.7613321e-07
6.8931671e-08
8.1866201e-07
8.4848737e-08
7.5666453e-07
1.0043174e-07
6.9033142e-07
1.156164e-07
6.1984547e-07
1.3035754e-07
5.4546397e-07
1.4450867e-07
4.6737143e-07
1.581047e-07
3.8590812e-07
1.7100144e-07
3.0126615e-07
1.8327201e-07
2.1373441e-07
1.9481782e-07
1.2353407e-07
2.0565109e-07
3.0986467e-08
2.156882e-07
-6.3566365e-08
2.2490635e-07
-1.5995346e-07
2.3336473e-07
-2.5785238e-07
2.4097817e-07
-3.5695876e-07
2.4775105e-07
-4.5697853e-07
2.5367838e-07
-5.576254e-07
2.5875794e-07
-6.5861406e-07
2.6299487e-07
-7.5966375e-07
2.6640014e-07
-8.604978e-07
2.6898343e-07
-9.6084989e-07
2.7075688e-07
-1.0604575e-06
2.717382e-07
-1.1591071e-06
2.7194128e-07
-1.2565128e-06
2.7141269e-07
-1.3524577e-06
2.701646e-07
-1.4467264e-06
2.6822445e-07
-1.5391127e-06
2.6562239e-07
-1.6294244e-06
2.6238912e-07
-1.7174772e-06
2.5856096e-07
-1.8031014e-06
2.5417145e-07
-1.88614e-06
2.4925467e-07
-1.9664552e-06
2.4384404e-07
-2.0439097e-06
2.3798306e-07
-2.1183867e-06
2.3170465e-07
-2.1897815e-06
2.250448e-07
-2.258001e-06
2.1804012e-07
-2.3229649e-06
2.1072625e-07
-2.3846046e-06
2.0313848e-07
-2.4428629e-06
1.9531112e-07
-2.4976937e-06
1.8727748e-07
-2.5490615e-06
1.7906931e-07
-2.5969477e-06
1.7071651e-07
-2.6413314e-06
1.6225299e-07
-2.6822072e-06
1.5370589e-07
-2.719579e-06
1.4510176e-07
-2.7534587e-06
1.3646631e-07
-2.7838656e-06
1.2782384e-07
-2.8108264e-06
1.1919713e-07
-2.8343742e-06
1.1060769e-07
-2.8545485e-06
1.0207518e-07
-2.871394e-06
9.3617898e-08
-2.8849613e-06
8.5252919e-08
-2.8953035e-06
7.6994097e-08
-2.9024799e-06
6.8856948e-08
-2.9065521e-06
6.0852387e-08
-2.9075852e-06
5.2991734e-08
-2.9056463e-06
4.5283629e-08
-2.9008066e-06
3.7737474e-08
-2.8931333e-06
3.0352952e-08
-2.8827046e-06
2.3146602e-08
-2.8695771e-06
1.6096793e-08
-2.8538355e-06
9.2434413e-09
-2.8355554e-06
2.5798281e-09
-2.814819e-06
-3.8850924e-09
-2.7916964e-06
-1.0165922e-08
-2.7662636e-06
-1.6256825e-08
-2.7385989e-06
-2.2160443e-08
-2.7088037e-06
-2.7877414e-08
-2.67689e-06
-3.33836e-08
-2.6429381e-06
-3.8698662e-08
-2.6070369e-06
-4.3837521e-08
-2.5692561e-06
-4.8800181e-08
-2.5296619e-06
-5.3587461e-08
-2.4883186e-06
-5.8201998e-08
-2.4452894e-06
-6.2647273e-08
-2.4006362e-06
-6.6927521e-08
-2.3544203e-06
-7.1047141e-08
-2.3067021e-06
-7.50097e-08
-2.2575362e-06
-7.8816657e-08
-2.2069641e-06
-8.2469369e-08
-2.1550422e-06
-8.597831e-08
-2.1018228e-06
-8.9349798e-08
-2.047355e-06
-9.258873e-08
-1.9916848e-06
-9.5699638e-08
-1.9348564e-06
-9.8687084e-08
-1.8769119e-06
-1.0155561e-07
-1.8178914e-06
-1.0430985e-07
-1.7578334e-06
-1.0695441e-07
-1.6967745e-06
-1.0949368e-07
-1.6347494e-06
-1.1193204e-07
-1.5717914e-06
-1.1427369e-07
-1.5079321e-06
-1.1652287e-07
-1.4432015e-06
-1.1868334e-07
-1.3776283e-06
-1.2075891e-07
-1.3112396e-06
-1.22753e-07
-1.2440614e-06
-1.2466873e-07
-1.1761182e-06
-1.2650889e-07
-1.107434e-06
-1.2827588e-07
-1.0380312e-06
-1.2997135e-07
-9.6793213e-07
-1.3159616e-07
-8.9715813e-07
-1.3314996e-07
-8.2573015e-07
-1.3463051e-07
-7.5366867e-07
-1.3603313e-07
-6.8099314e-07
-1.3734974e-07
-6.0772076e-07
-1.3856891e-07
-5.3386313e-07
-1.3967743e-07
-4.5942011e-07
-1.4066829e-07
-3.8437083e-07
-1.4156095e-07
-3.0866592e-07
-1.4244701e-07
-2.3223702e-07
-1.4357644e-07
-1.5507356e-07
-1.454882e-07
-7.7424424e-08
-1.4909881e-07
-1.5502153e-07
1.8225964e-09
-1.096682e-08
7.3250814e-09
-3.2578635e-08
1.6492031e-08
-5.3642962e-08
2.9261486e-08
-7.4015224e-08
4.5515832e-08
-9.3725133e-08
6.5096651e-08
-1.1277577e-07
8.7821889e-08
-1.3111839e-07
1.134909e-07
-1.4867738e-07
1.4188375e-07
-1.6535739e-07
1.7276233e-07
-1.810585e-07
2.058704e-07
-1.9568182e-07
2.4093175e-07
-2.0913085e-07
2.7765364e-07
-2.2131988e-07
3.1573051e-07
-2.3217325e-07
3.5483719e-07
-2.4161785e-07
3.9463974e-07
-2.4959644e-07
4.3479385e-07
-2.5605878e-07
4.7495211e-07
-2.609683e-07
5.1475072e-07
-2.6428534e-07
5.5383525e-07
-2.6600087e-07
5.9184345e-07
-2.6609748e-07
6.2842211e-07
-2.6457979e-07
6.6321227e-07
-2.6144869e-07
6.9587841e-07
-2.5673525e-07
7.2607168e-07
-2.5044918e-07
7.5347544e-07
-2.4265036e-07
7.7776434e-07
-2.3335359e-07
7.9865934e-07
-2.2264454e-07
8.1586549e-07
-2.105617e-07
8.2913644e-07
-1.9718504e-07
8.3821978e-07
-1.8258916e-07
8.4288079e-07
-1.6682431e-07
8.4294076e-07
-1.5003553e-07
8.3822525e-07
-1.3226925e-07
8.2859117e-07
-1.1365035e-07
8.1389308e-07
-9.4225791e-08
7.9406005e-07
-7.4161101e-08
7.6900055e-07
-5.3539266e-08
7.3869216e-07
-3.2477791e-08
7.0311342e-07
-1.1065373e-08
6.6228215e-07
1.0578898e-08
6.1615408e-07
3.2420573e-08
5.6487438e-07
5.4245826e-08
5.0848738e-07
7.6010691e-08
4.4713613e-07
9.7525645e-08
3.8085328e-07
1.1888876e-07
3.1002337e-07
1.3976159e-07
2.3465253e-07
1.6021958e-07
1.5496938e-07
1.8011488e-07
7.1193361e-08
1.9939243e-07
-1.6369545e-08
2.1792045e-07
-1.0759635e-07
2.3573546e-07
-2.021909e-07
2.5269928e-07
-2.9992064e-07
2.6873117e-07
-4.0046394e-07
2.8381531e-07
-5.0354152e-07
2.978954e-07
-6.0882997e-07
3.1093953e-07
-7.1604303e-07
3.2290126e-07
-8.2489317e-07
3.3375649e-07
-9.3502891e-07
3.4350047e-07
-1.0461551e-06
3.5210438e-07
-1.1579642e-06
3.5956015e-07
-1.2701499e-06
3.6586403e-07
-1.3824103e-06
3.7101836e-07
-1.4944481e-06
3.7503272e-07
-1.6059701e-06
3.779221e-07
-1.7166913e-06
3.7970458e-07
-1.8263366e-06
3.8040223e-07
-1.9346406e-06
3.8004223e-07
-2.0413547e-06
3.7865535e-07
-2.146224e-06
3.7628201e-07
-2.2490167e-06
3.7295733e-07
-2.3495135e-06
3.6872116e-07
-2.4475073e-06
3.6361621e-07
-2.5428054e-06
3.5768726e-07
-2.6352265e-06
3.5098204e-07
-2.7246036e-06
3.4354851e-07
-2.8107842e-06
3.3543537e-07
-2.8936321e-06
3.266919e-07
-2.9730196e-06
3.1737051e-07
-3.0488356e-06
3.075206e-07
-3.1209826e-06
2.9719191e-07
-3.1893765e-06
2.8643397e-07
-3.2539457e-06
2.7529547e-07
-3.3146314e-06
2.6382419e-07
-3.3713869e-06
2.5206661e-07
-3.4241771e-06
2.4006773e-07
-3.4729787e-06
2.2787089e-07
-3.5177801e-06
2.1551786e-07
-3.5585769e-06
2.0304979e-07
-3.5953756e-06
1.9050465e-07
-3.6281923e-06
1.7791842e-07
-3.6570512e-06
1.6532521e-07
-3.6819845e-06
1.5275716e-07
-3.7030316e-06
1.4024424e-07
-3.7202383e-06
1.2781435e-07
-3.7336566e-06
1.1549346e-07
-3.7433439e-06
1.0330526e-07
-3.7493626e-06
9.1271641e-08
-3.7517806e-06
7.9412053e-08
-3.750668e-06
6.7744374e-08
-3.7461e-06
5.6284342e-08
-3.7381527e-06
4.5044454e-08
-3.7269086e-06
3.4039536e-08
-3.7124575e-06
2.3286367e-08
-3.6948572e-06
1.2752645e-08
-3.6742268e-06
2.5162497e-09
-3.6505743e-06
-7.5557834e-09
-3.624042e-06
-1.7288818e-08
-3.5947174e-06
-2.6744797e-08
-3.5626771e-06
-3.5925388e-08
-3.5280098e-06
-4.4833223e-08
-3.4907987e-06
-5.3467964e-08
-3.4511286e-06
-6.1830517e-08
-3.4090852e-06
-6.9920799e-08
-3.3647335e-06
-7.7735284e-08
-3.3181503e-06
-8.5281859e-08
-3.2694185e-06
-9.2569294e-08
-3.2186159e-06
-9.9602784e-08
-3.1658165e-06
-1.0638694e-07
-3.1110916e-06
-1.1292686e-07
-3.0545107e-06
-1.1922813e-07
-2.9961414e-06
-1.2529687e-07
-2.9360493e-06
-1.3113926e-07
-2.8742978e-06
-1.3676117e-07
-2.8109463e-06
-1.4216816e-07
-2.7460492e-06
-1.4736643e-07
-2.679663e-06
-1.5236459e-07
-2.6118421e-06
-1.5717063e-07
-2.5426388e-06
-1.6179199e-07
-2.4721028e-06
-1.6623576e-07
-2.400281e-06
-1.7050877e-07
-2.3272187e-06
-1.7461794e-07
-2.2529586e-06
-1.7857002e-07
-2.1775414e-06
-1.8237155e-07
-2.101006e-06
-1.8602913e-07
-2.023389e-06
-1.8954903e-07
-1.9447253e-06
-1.9293737e-07
-1.8650481e-06
-1.9620007e-07
-1.7843886e-06
-1.9934284e-07
-1.7027765e-06
-2.0237101e-07
-1.6202399e-06
-2.0528964e-07
-1.5368053e-06
-2.0810336e-07
-1.4524978e-06
-2.1081637e-07
-1.3673413e-06
-2.134324e-07
-1.2813582e-06
-2.1595436e-07
-1.19457e-06
-2.1838439e-07
-1.1069967e-06
-2.2072329e-07
-1.0186568e-06
-2.2297043e-07
-9.2956684e-07
-2.2512305e-07
-8.3974028e-07
-2.2717631e-07
-7.4918538e-07
-2.2912378e-07
-6.5790211e-07
-2.3096075e-07
-5.6587811e-07
-2.3269221e-07
-4.7308701e-07
-2.3435208e-07
-3.7949589e-07
-2.3603813e-07
-2.8510208e-07
-2.3797024e-07
-1.9003348e-07
-2.4055677e-07
-9.472742e-08
-2.4440491e-07
-2.4974893e-07
1.5544821e-09
-1.2521302e-08
6.2871869e-09
-3.7311339e-08
1.4221833e-08
-6.1577608e-08
2.5340927e-08
-8.5134319e-08
3.9550174e-08
-1.0793438e-07
5.6700142e-08
-1.2992574e-07
7.6610625e-08
-1.5102888e-07
9.9077578e-08
-1.7114433e-07
1.2387821e-07
-1.9015803e-07
1.5077118e-07
-2.0795147e-07
1.7949783e-07
-2.2440847e-07
2.0978475e-07
-2.3941777e-07
2.4134002e-07
-2.5287514e-07
2.7385578e-07
-2.6468901e-07
3.0701507e-07
-2.7477714e-07
3.404872e-07
-2.8306857e-07
3.7393296e-07
-2.8950454e-07
4.0700411e-07
-2.9403944e-07
4.393618e-07
-2.9664303e-07
4.7064218e-07
-2.9728125e-07
5.0050136e-07
-2.9595666e-07
5.2858766e-07
-2.926661e-07
5.5456131e-07
-2.8742234e-07
5.7808092e-07
-2.8025485e-07
5.9883142e-07
-2.7119968e-07
6.1648157e-07
-2.6030051e-07
6.3075976e-07
-2.4763178e-07
6.4137813e-07
-2.3326292e-07
6.4804402e-07
-2.1722758e-07
6.505237e-07
-1.9966471e-07
6.4859394e-07
-1.806594e-07
6.4207497e-07
-1.6030534e-07
6.3076726e-07
-1.3872782e-07
6.1448103e-07
-1.1598302e-07
5.9313962e-07
-9.2308936e-08
5.66627e-07
-6.7713175e-08
5.3482067e-07
-4.2354772e-08
4.9772934e-07
-1.6447939e-08
4.5533451e-07
9.9170396e-09
4.0764393e-07
3.6625213e-08
3.5457064e-07
6.3652186e-08
2.963685e-07
9.062271e-08
2.3293968e-07
1.1767464e-07
1.6440313e-07
1.4454725e-07
9.0973386e-08
1.7095538e-07
1.2938526e-08
1.9692363e-07
-6.9682023e-08
2.2238213e-07
-1.5671836e-07
2.4725592e-07
-2.4794161e-07
2.7133813e-07
-3.4309802e-07
2.9454884e-07
-4.4196817e-07
3.1679059e-07
-5.4423595e-07
3.3800325e-07
-6.4963077e-07
3.580941e-07
-7.578805e-07
3.769809e-07
-8.6867903e-07
3.9461386e-07
-9.8171982e-07
4.1093617e-07
-1.0966838e-06
4.259035e-07
-1.2132568e-06
4.3947427e-07
-1.3311204e-06
4.5162013e-07
-1.4499424e-06
4.6232247e-07
-1.5694022e-06
4.7156414e-07
-1.6891797e-06
4.7933768e-07
-1.8089587e-06
4.8564301e-07
-1.9284279e-06
4.9048753e-07
-2.0472814e-06
4.9388624e-07
-2.1652201e-06
4.9586078e-07
-2.2819535e-06
4.9643806e-07
-2.3972017e-06
4.956504e-07
-2.5106953e-06
4.9353581e-07
-2.6221772e-06
4.9013722e-07
-2.7313983e-06
4.8550316e-07
-2.8381248e-06
4.7968386e-07
-2.9421367e-06
4.7273301e-07
-3.0432278e-06
4.6470728e-07
-3.1412063e-06
4.5566581e-07
-3.2358944e-06
4.4567014e-07
-3.3271288e-06
4.3478292e-07
-3.4147612e-06
4.2306774e-07
-3.4986583e-06
4.1058903e-07
-3.5787e-06
3.9741217e-07
-3.654781e-06
3.8360164e-07
-3.7268105e-06
3.6922135e-07
-3.7947111e-06
3.5433459e-07
-3.8584191e-06
3.3900344e-07
-3.9178835e-06
3.2328862e-07
-3.973066e-06
3.0724912e-07
-4.0239403e-06
2.9094199e-07
-4.0704916e-06
2.7442224e-07
-4.1127164e-06
2.5774263e-07
-4.1506205e-06
2.4095393e-07
-4.1842199e-06
2.2410406e-07
-4.2135397e-06
2.0723814e-07
-4.2386133e-06
1.9039885e-07
-4.2594823e-06
1.7362615e-07
-4.2761954e-06
1.5695727e-07
-4.2888077e-06
1.404267e-07
-4.2973805e-06
1.2406623e-07
-4.3019808e-06
1.0790558e-07
-4.3026798e-06
9.1970656e-08
-4.299554e-06
7.6286244e-08
-4.2926846e-06
6.0875001e-08
-4.2821551e-06
4.5754802e-08
-4.2680517e-06
3.0941093e-08
-4.2504482e-06
1.6435987e-08
-4.2294905e-06
2.3286805e-09
-4.2051161e-06
-1.1621737e-08
-4.1775077e-06
-2.5092209e-08
-4.1468291e-06
-3.8234365e-08
-4.1131093e-06
-5.1008581e-08
-4.076439e-06
-6.3415091e-08
-4.0369095e-06
-7.5454912e-08
-3.9946129e-06
-8.7129766e-08
-3.9496398e-06
-9.844112e-08
-3.9020793e-06
-1.0939105e-07
-3.8520183e-06
-1.199818e-07
-3.7995375e-06
-1.3021609e-07
-3.7447187e-06
-1.4010067e-07
-3.6876446e-06
-1.4964334e-07
-3.628396e-06
-1.5885143e-07
-3.5670506e-06
-1.6773227e-07
-3.503684e-06
-1.7629348e-07
-3.4383691e-06
-1.8454309e-07
-3.3711764e-06
-1.9248949e-07
-3.3021744e-06
-2.0014127e-07
-3.2314286e-06
-2.0750702e-07
-3.1590013e-06
-2.1459547e-07
-3.0849519e-06
-2.2141579e-07
-3.0093385e-06
-2.2797799e-07
-2.932217e-06
-2.342921e-07
-2.8536412e-06
-2.4036783e-07
-2.7736621e-06
-2.4621479e-07
-2.6923286e-06
-2.518423e-07
-2.609687e-06
-2.5725959e-07
-2.5257812e-06
-2.6247569e-07
-2.4406533e-06
-2.6749949e-07
-2.3543428e-06
-2.7233966e-07
-2.2668872e-06
-2.7700456e-07
-2.1783222e-06
-2.8150242e-07
-2.0886812e-06
-2.8584104e-07
-1.9979961e-06
-2.9002801e-07
-1.9062966e-06
-2.9407049e-07
-1.8136109e-06
-2.9797527e-07
-1.7199656e-06
-3.0174868e-07
-1.6253856e-06
-3.0539646e-07
-1.529894e-06
-3.0892389e-07
-1.4335129e-06
-3.1233549e-07
-1.3362624e-06
-3.156349e-07
-1.2381609e-06
-3.1882475e-07
-1.1392249e-06
-3.2190643e-07
-1.0394679e-06
-3.2488011e-07
-9.3889925e-07
-3.277449e-07
-8.3752299e-07
-3.3050007e-07
-7.3533533e-07
-3.3314838e-07
-6.3232401e-07
-3.3570359e-07
-5.2847177e-07
-3.3820433e-07
-4.23772e-07
-3.4073789e-07
-3.1826994e-07
-3.4347227e-07
-2.1214724e-07
-3.4667949e-07
-1.0583932e-07
-3.507128e-07
-3.5558828e-07
1.4292516e-09
-1.3950554e-08
5.7829214e-09
-4.1665009e-08
1.3094032e-08
-6.8888719e-08
2.3359983e-08
-9.540027e-08
3.6499656e-08
-1.2107405e-07
5.2374028e-08
-1.4580011e-07
7.0807497e-08
-1.6946235e-07
9.1595733e-08
-1.9193257e-07
1.1451486e-07
-2.1307715e-07
1.3932103e-07
-2.3275765e-07
1.6575249e-07
-2.5083992e-07
1.9353057e-07
-2.6719586e-07
2.2236186e-07
-2.8170644e-07
2.5193911e-07
-2.9426626e-07
2.8194061e-07
-3.0477863e-07
3.1203717e-07
-3.1316513e-07
3.4189309e-07
-3.1936046e-07
3.711547e-07
-3.2330106e-07
3.9947648e-07
-3.2496482e-07
4.2651708e-07
-3.2432184e-07
4.5191268e-07
-3.2135226e-07
4.7532709e-07
-3.1608049e-07
4.9641836e-07
-3.0851362e-07
5.1484941e-07
-2.986859e-07
5.3031138e-07
-2.8666165e-07
5.4248005e-07
-2.7246919e-07
5.5107428e-07
-2.5622601e-07
5.5579317e-07
-2.379818e-07
5.5642947e-07
-2.1786389e-07
5.5269139e-07
-1.9592664e-07
5.4438287e-07
-1.7235088e-07
5.3132503e-07
-1.472475e-07
5.133109e-07
-1.2071368e-07
4.9024992e-07
-9.2922048e-08
4.6195728e-07
-6.4016295e-08
4.2834933e-07
-3.410522e-08
3.8943138e-07
-3.4368212e-09
3.4515317e-07
2.7830263e-08
2.9544391e-07
5.96263e-08
2.4030774e-07
9.1761382e-08
1.7993891e-07
1.2402101e-07
1.1408947e-07
1.5647215e-07
4.3198969e-08
1.8856516e-07
-3.2549277e-08
2.2029549e-07
-1.1329849e-07
2.5170461e-07
-1.9884315e-07
2.8246829e-07
-2.8895398e-07
3.1249296e-07
-3.8336468e-07
3.4166661e-07
-4.818661e-07
3.6983955e-07
-5.8421196e-07
3.968947e-07
-6.901443e-07
4.2272293e-07
-7.9937152e-07
4.4723047e-07