/*--------------------------------*- C++ -*----------------------------------*\
| =========                 |                                                 |
| \\      /  F ield         | OpenFOAM: The Open Source CFD Toolbox           |
|  \\    /   O peration     | Version:  2106                                  |
|   \\  /    A nd           | Website:  www.openfoam.com                      |
|    \\/     M anipulation  |                                                 |
\*---------------------------------------------------------------------------*/
FoamFile
{
    version     2.0;
    format      ascii;
    arch        "LSB;label=32;scalar=64";
    class       volScalarField;
    location    "0.036";
    object      p;
}
// * * * * * * * * * * * * * * * * * * * * * * * * * * * * * * * * * * * * * //

dimensions      [1 -1 -2 0 0 0 0];

internalField   nonuniform List<scalar> 
4096
(
-4.8513064
-4.8045952
-4.7116222
-4.5732819
-4.3909054
-4.1662476
-3.9014704
-3.5991222
-3.2621131
-2.8936875
-2.4973923
-2.0770436
-1.636689
-1.1805695
-0.71307876
-0.23871849
0.2379427
0.71231199
1.1798208
1.6359661
2.0763543
2.4967435
2.8930848
3.2615609
3.5986227
3.9010241
4.1658526
4.3905576
4.5729749
4.7113478
4.8043434
4.8510662
4.8510662
4.8043434
4.7113477
4.5729749
4.3905575
4.1658526
3.9010241
3.5986227
3.2615608
2.8930848
2.4967435
2.0763542
1.6359661
1.1798208
0.71231192
0.23794262
-0.23871857
-0.71307884
-1.1805696
-1.6366891
-2.0770437
-2.4973924
-2.8936876
-3.2621132
-3.5991223
-3.9014706
-4.1662477
-4.3909055
-4.573282
-4.7116222
-4.8045952
-4.8513064
-4.8969206
-4.8497691
-4.7559199
-4.616276
-4.432181
-4.2054066
-3.9381353
-3.6329395
-3.2927571
-2.9208631
-2.5208381
-2.0965342
-1.6520374
-1.1916286
-0.71974253
-0.2409238
0.24021522
0.71903991
1.1909382
1.6513646
2.0958845
2.5202163
2.9202733
3.2922025
3.632422
3.9376554
4.2049633
4.4317714
4.6158957
4.7555631
4.8494286
4.8965885
4.8965885
4.8494286
4.755563
4.6158956
4.4317713
4.2049632
3.9376554
3.632422
3.2922025
2.9202733
2.5202163
2.0958844
1.6513646
1.1909381
0.71903986
0.24021516
-0.24092386
-0.7197426
-1.1916287
-1.6520375
-2.0965343
-2.5208382
-2.9208632
-3.2927572
-3.6329396
-3.9381354
-4.2054067
-4.4321811
-4.6162761
-4.75592
-4.8497692
-4.8969206
-4.9896053
-4.9415608
-4.8459342
-4.7036454
-4.5160638
-4.2849945
-4.0126614
-3.7016858
-3.3550612
-2.9761248
-2.5685252
-2.1361875
-1.6832753
-1.2141508
-0.73333265
-0.24545205
0.24479133
0.73267514
1.2134999
1.6826342
2.1355595
2.5679134
2.9755322
3.3544902
3.7011381
4.0121378
4.2844948
4.5155866
4.7031879
4.8454926
4.9411305
4.9891808
4.9891808
4.9411305
4.8454926
4.7031879
4.5155865
4.2844948
4.0121378
3.701138
3.3544901
2.9755322
2.5679134
2.1355594
1.6826342
1.2134999
0.73267512
0.24479131
-0.24545208
-0.73333267
-1.2141509
-1.6832754
-2.1361876
-2.5685253
-2.9761249
-3.3550613
-3.7016859
-4.0126615
-4.2849946
-4.5160639
-4.7036455
-4.8459342
-4.9415609
-4.9896053
-5.1301651
-5.0807669
-4.9824458
-4.8361479
-4.6432808
-4.4057005
-4.1256935
-3.805955
-3.4495629
-3.0599485
-2.6408632
-2.196343
-1.730669
-1.2483266
-0.75396198
-0.25233728
0.2517153
0.75334019
1.2477054
1.7300491
2.1957254
2.6402495
3.0593404
3.4489624
3.8053638
4.1251129
4.4051313
4.642723
4.8356007
4.9819074
5.0802349
5.1296364
5.1296363
5.0802349
4.9819074
4.8356007
4.642723
4.4051313
4.1251129
3.8053638
3.4489624
3.0593404
2.6402495
2.1957254
1.7300491
1.2477054
0.7533402
0.25171531
-0.25233726
-0.75396196
-1.2483266
-1.730669
-2.196343
-2.6408632
-3.0599485
-3.4495629
-3.8059551
-4.1256936
-4.4057005
-4.6432808
-4.8361479
-4.9824458
-5.0807669
-5.1301651
-5.3198923
-5.2686672
-5.16671
-5.0150013
-4.815001
-4.5686335
-4.2782698
-3.9467044
-3.5771293
-3.1731025
-2.7385145
-2.2775506
-1.7946508
-1.2944665
-0.78181629
-0.26163882
0.26105463
0.78122865
1.2938723
1.7940477
2.2769373
2.7378905
3.1724685
3.5764867
3.9460552
4.2776161
4.5679775
4.8143443
5.0143452
5.1660549
5.2680133
5.319239
5.319239
5.2680133
5.1660549
5.0143452
4.8143443
4.5679774
4.277616
3.9460552
3.5764867
3.1724685
2.7378905
2.2769373
1.7940477
1.2938724
0.78122868
0.26105467
-0.26163879
-0.78181625
-1.2944665
-1.7946507
-2.2775506
-2.7385145
-3.1731024
-3.5771292
-3.9467044
-4.2782697
-4.5686335
-4.815001
-5.0150013
-5.1667099
-5.2686672
-5.3198923
-5.5606041
-5.5070616
-5.4004915
-5.2419191
-5.0328698
-4.7753548
-4.4718522
-4.1252829
-3.7389829
-3.3166714
-2.862415
-2.3805886
-1.8758334
-1.353012
-0.81716147
-0.27344449
0.27290038
0.81660945
1.3524449
1.8752451
2.3799747
2.8617731
3.316001
3.738285
4.12456
4.4711076
4.7745922
5.0320931
5.2411319
5.399697
5.5062625
5.5598028
5.5598028
5.5062625
5.399697
5.2411319
5.0320931
4.7745922
4.4711076
4.12456
3.7382851
3.316001
2.8617731
2.3799747
1.8752451
1.3524449
0.81660946
0.2729004
-0.27344447
-0.81716145
-1.353012
-1.8758334
-2.3805886
-2.8624149
-3.3166713
-3.7389828
-4.1252828
-4.4718522
-4.7753548
-5.0328698
-5.2419191
-5.4004915
-5.5070616
-5.5606041
-5.8546101
-5.7982374
-5.686034
-5.5190791
-5.2989783
-5.027849
-4.7082998
-4.3434055
-3.9366785
-3.4920343
-3.0137548
-2.5064465
-1.9749964
-1.4245248
-0.86033593
-0.28786624
0.28736803
0.85982429
1.4239874
1.9744227
2.5058287
3.0130882
3.491317
3.9359113
4.3425918
4.7074444
5.026958
5.298058
5.5181359
5.6850743
5.7972669
5.8536344
5.8536344
5.7972669
5.6850743
5.5181359
5.298058
5.026958
4.7074444
4.3425918
3.9359113
3.4913169
3.0130881
2.5058287
1.9744226
1.4239873
0.85982427
0.28736801
-0.28786625
-0.86033594
-1.4245248
-1.9749964
-2.5064465
-3.0137548
-3.4920343
-3.9366784
-4.3434055
-4.7082997
-5.027849
-5.2989783
-5.519079
-5.686034
-5.7982374
-5.8546101
-6.2047275
-6.1449849
-6.0260739
-5.8491378
-5.6158778
-5.3285373
-4.9898801
-4.6031647
-4.1721127
-3.700874
-3.1939862
-2.6563317
-2.0930905
-1.5096899
-0.91175234
-0.30504039
0.3045988
0.91129039
1.5091888
2.0925344
2.6557086
3.1932885
3.7000987
4.171261
4.602241
4.9888916
5.3274927
5.6147869
5.8480104
6.0249197
6.1438132
6.2035473
6.2035473
6.1438132
6.0249197
5.8480104
5.6147869
5.3274927
4.9888915
4.6022409
4.171261
3.7000987
3.1932884
2.6557085
2.0925343
1.5091888
0.91129033
0.30459874
-0.30504044
-0.91175238
-1.50969
-2.0930905
-2.6563317
-3.1939862
-3.700874
-4.1721127
-4.6031647
-4.9898801
-5.3285373
-5.6158778
-5.8491377
-6.0260739
-6.1449849
-6.2047275
-6.6143102
-6.5506258
-6.4238691
-6.235258
-5.9866056
-5.6803023
-5.3192935
-4.907052
-4.4475444
-3.9451941
-3.4048384
-2.8316822
-2.2312482
-1.6093232
-0.97190197
-0.32512901
0.32476122
0.97150498
1.6088701
2.2307163
2.8310546
3.4041044
3.9443497
4.4465912
4.9059966
5.3181461
5.6790755
5.9853132
6.233914
6.4224872
6.5492192
6.6128913
6.6128913
6.5492192
6.4224872
6.233914
5.9853132
5.6790755
5.3181461
4.9059965
4.4465912
3.9443496
3.4041043
2.8310545
2.2307163
1.60887
0.9715049
0.32476115
-0.32512908
-0.97190203
-1.6093233
-2.2312483
-2.8316822
-3.4048384
-3.9451941
-4.4475444
-4.9070519
-5.3192935
-5.6803023
-5.9866056
-6.235258
-6.4238691
-6.5506258
-6.6143102
-7.0872812
-7.0190459
-6.8832306
-6.6811397
-6.414715
-6.0865165
-5.6996991
-5.2579827
-4.7656166
-4.2273397
-3.6483353
-3.0341808
-2.3907947
-1.7243792
-1.0413595
-0.34832139
0.34805295
1.0410504
1.7239922
2.3902986
3.0335524
3.6475607
4.226414
4.7645428
5.2567706
5.6983634
6.0850745
6.4131857
6.6795423
6.8815832
7.0173661
7.0855854
7.0855854
7.0173661
6.8815832
6.6795422
6.4131857
6.0850745
5.6983633
5.2567706
4.7645428
4.226414
3.6475606
3.0335523
2.3902985
1.7239921
1.0410503
0.34805289
-0.34832145
-1.0413595
-1.7243793
-2.3907948
-3.0341808
-3.6483353
-4.2273397
-4.7656166
-5.2579827
-5.6996991
-6.0865165
-6.414715
-6.6811397
-6.8832306
-7.0190459
-7.0872812
-7.62817
-7.5547312
-7.4085585
-7.1910551
-6.9043091
-6.5510747
-6.1347457
-5.659324
-5.1293821
-4.5500196
-3.9268148
-3.2657714
-2.5732609
-1.8559605
-1.1207883
-0.37483563
0.37470305
1.1206002
1.8556659
2.5728178
3.2651495
3.9259963
4.5489993
5.1281657
5.6579261
6.1331868
6.5493791
6.9025023
7.1891622
7.4066033
7.5527357
7.6261547
7.6261547
7.5527357
7.4066033
7.1891621
6.9025023
6.5493791
6.1331868
5.657926
5.1281657
4.5489992
3.9259962
3.2651494
2.5728178
1.8556658
1.1206001
0.37470301
-0.37483566
-1.1207884
-1.8559605
-2.5732609
-3.2657714
-3.9268148
-4.5500196
-5.1293822
-5.659324
-6.1347457
-6.5510747
-6.9043091
-7.1910551
-7.4085585
-7.5547312
-7.62817
-8.2421553
-8.1628114
-8.0048844
-7.7698892
-7.4600802
-7.0784311
-6.6286064
-6.1149279
-5.5423339
-4.9163331
-4.2429522
-3.5286787
-2.7803983
-2.0053283
-1.2109472
-0.40492051
0.40497447
1.2109257
2.0051628
2.7800329
3.5280739
4.2420866
4.9152022
5.540948
6.1133087
6.6267831
7.0764368
7.4579488
7.7676531
8.0025736
8.1604529
8.2397736
8.2397736
8.1604528
8.0025736
7.7676531
7.4579488
7.0764367
6.626783
6.1133086
5.540948
4.9152022
4.2420866
3.5280739
2.7800328
2.0051628
1.2109257
0.40497445
-0.40492053
-1.2109472
-2.0053284
-2.7803983
-3.5286787
-4.2429523
-4.9163331
-5.5423339
-6.1149279
-6.6286064
-7.0784311
-7.4600802
-7.7698892
-8.0048844
-8.1628114
-8.2421554
-8.9351146
-8.8491079
-8.6779185
-8.4231868
-8.0873547
-7.6736425
-7.1860197
-6.6291682
-6.0084387
-5.3298007
-4.5997867
-3.8254299
-3.0141969
-2.1739155
-1.3126973
-0.43885775
0.43916707
1.3129045
2.1739284
3.0139418
3.8248565
4.5988699
5.3285387
6.0068493
6.6272838
7.1838815
7.6712955
8.0848437
8.4205533
8.675199
8.8463345
8.9323152
8.9323152
8.8463344
8.675199
8.4205533
8.0848437
7.6712955
7.1838815
6.6272838
6.0068493
5.3285387
4.5988699
3.8248564
3.0139418
2.1739284
1.3129045
0.43916706
-0.43885777
-1.3126973
-2.1739155
-3.014197
-3.8254299
-4.5997867
-5.3298007
-6.0084387
-6.6291682
-7.1860197
-7.6736425
-8.0873547
-8.4231868
-8.6779185
-8.8491079
-8.9351146
-9.7136794
-9.6201896
-9.4341045
-9.1572055
-8.7921438
-8.3424166
-7.8123349
-7.2069839
-6.5321765
-5.7943991
-5.0007517
-4.1588805
-3.2769053
-2.3633404
-1.427011
-0.47696448
0.47762099
1.427529
2.3635962
3.2768018
4.1583547
4.9997757
5.7929772
6.5303384
7.2047777
7.8098188
8.3396518
8.7891887
9.1541122
9.4309172
9.6169446
9.7104073
9.7104073
9.6169446
9.4309172
9.1541122
8.7891887
8.3396518
7.8098188
7.2047777
6.5303384
5.7929772
4.9997757
4.1583547
3.2768018
2.3635962
1.427529
0.47762097
-0.4769645
-1.427011
-2.3633405
-3.2769053
-4.1588806
-5.0007518
-5.7943992
-6.5321765
-7.2069839
-7.8123349
-8.3424166
-8.7921438
-9.1572055
-9.4341045
-9.6201896
-9.7136794
-10.585298
-10.483434
-10.28068
-9.9789745
-9.5812017
-9.0911678
-8.5135645
-7.8539275
-7.1185852
-6.3146015
-5.4497104
-4.532244
-3.5710536
-2.5754242
-1.5549816
-0.51959602
0.52072071
1.5559175
2.5760046
3.5711514
4.531781
5.4486584
6.312976
7.1164351
7.851324
8.5105896
9.0879041
9.5777253
9.9753501
10.27696
10.479657
10.581495
10.581495
10.479657
10.27696
9.9753502
9.5777254
9.0879042
8.5105897
7.851324
7.1164351
6.312976
5.4486584
4.531781
3.5711514
2.5760046
1.5559175
0.5207207
-0.51959604
-1.5549816
-2.5754242
-3.5710537
-4.532244
-5.4497105
-6.3146016
-7.1185852
-7.8539275
-8.5135645
-9.0911678
-9.5812017
-9.9789745
-10.28068
-10.483434
-10.585298
-11.558307
-11.4471
-11.225748
-10.896363
-10.46209
-9.9270782
-9.2964429
-8.57622
-7.7733114
-6.8954232
-5.9509955
-4.9491253
-3.899481
-2.8122094
-1.6978345
-0.56714901
0.56889978
1.6993257
2.8132155
3.8998354
4.9487333
5.9498332
6.8935259
7.7707579
8.5731154
9.2929026
9.9232134
10.457999
10.892124
11.221421
11.442727
11.553913
11.553913
11.442727
11.221421
10.892124
10.457999
9.9232134
9.2929026
8.5731155
7.7707579
6.8935259
5.9498332
4.9487334
3.8998354
2.8132155
1.6993257
0.56889977
-0.56714903
-1.6978345
-2.8122094
-3.899481
-4.9491253
-5.9509955
-6.8954232
-7.7733114
-8.57622
-9.2964429
-9.9270782
-10.46209
-10.896363
-11.225748
-11.4471
-11.558307
-12.642006
-12.5204
-12.278346
-11.918152
-11.443249
-10.858168
-10.168492
-9.3808126
-8.5026671
-7.5424734
-6.5094555
-5.4135602
-4.2653662
-3.075983
-1.8569398
-0.62006459
0.62264649
1.859161
3.0775358
4.2660333
5.41323
6.5081169
7.5401958
8.4995753
9.3770614
10.164243
10.85357
11.438428
11.913203
12.273335
12.515364
12.636963
12.636963
12.515364
12.273336
11.913203
11.438428
10.85357
10.164243
9.3770615
8.4995754
7.5401959
6.5081169
5.4132301
4.2660333
3.0775358
1.859161
0.62264649
-0.62006459
-1.8569398
-3.075983
-4.2653662
-5.4135602
-6.5094555
-7.5424734
-8.5026671
-9.3808126
-10.168492
-10.858168
-11.443249
-11.918152
-12.278346
-12.5204
-12.642006
-13.846751
-13.713593
-13.448543
-13.054121
-12.53408
-11.893371
-11.138095
-10.275456
-9.3136948
-8.262015
-7.1305074
-5.9300605
-4.6722643
-3.3693015
-2.0338271
-0.67883132
0.68251163
2.0369991
3.371542
4.6732906
5.9297475
7.1288724
8.2591843
9.3098637
10.270851
11.13294
11.887867
12.528386
13.048349
13.44276
13.707827
13.841001
13.841001
13.707827
13.44276
13.048349
12.528386
11.887867
11.132941
10.270851
9.3098637
8.2591844
7.1288724
5.9297475
4.6732906
3.371542
2.0369991
0.68251164
-0.67883131
-2.0338271
-3.3693015
-4.6722642
-5.9300605
-7.1305074
-8.262015
-9.3136948
-10.275456
-11.138095
-11.893371
-12.53408
-13.054121
-13.448543
-13.713593
-13.846751
-15.184047
-15.038077
-14.747522
-14.31514
-13.745035
-13.042623
-12.214578
-11.26878
-10.21424
-9.0610313
-7.8201977
-6.5036672
-5.1241495
-3.6950223
-2.2302017
-0.74398744
0.74911903
2.2346047
3.6981087
5.1255542
6.503262
7.8180569
9.0573743
10.209369
11.263023
12.208248
13.035983
13.738285
14.308409
14.740873
15.031516
15.17754
15.17754
15.031516
14.740873
14.308409
13.738286
13.035983
12.208248
11.263023
10.209369
9.0573743
7.8180569
6.503262
5.1255542
3.6981087
2.2346047
0.74911905
-0.74398742
-2.2302017
-3.6950223
-5.1241495
-6.5036672
-7.8201977
-9.0610313
-10.21424
-11.26878
-12.214578
-13.042623
-13.745035
-14.31514
-14.747522
-15.038077
-15.184047
-16.666659
-16.506499
-16.187696
-15.713269
-15.087714
-14.316957
-13.408304
-12.370376
-11.213036
-9.9473042
-8.5852734
-7.140013
-5.6254671
-4.0563406
-2.4479639
-0.81612116
0.8231805
2.4539576
4.0604421
5.6272119
7.1392954
8.5822745
9.9423933
11.206675
12.36304
13.400421
14.308873
15.079675
15.705416
16.180075
16.499078
16.659353
16.659353
16.499078
16.180075
15.705416
15.079675
14.308873
13.400421
12.36304
11.206675
9.9423933
8.5822745
7.1392954
5.6272119
4.0604422
2.4539576
0.82318052
-0.81612114
-2.4479639
-4.0563405
-5.6254671
-7.140013
-8.5852734
-9.9473042
-11.213036
-12.370376
-13.408304
-14.316957
-15.087714
-15.713269
-16.187696
-16.506499
-16.666659
-18.308731
-18.132873
-17.782819
-17.26188
-16.57498
-15.728611
-14.730773
-13.590903
-12.319793
-10.929502
-9.4332658
-7.8453988
-6.1811978
-4.4568352
-2.6892308
-0.89586724
0.90551853
2.6972859
4.4621191
6.1831355
7.8439635
9.4288311
10.922677
12.311275
13.581372
14.720811
15.718665
16.565345
17.2527
17.774106
18.124532
18.300596
18.300596
18.124532
17.774106
17.2527
16.565345
15.718665
14.720811
13.581372
12.311275
10.922677
9.4288311
7.8439635
6.1831355
4.4621191
2.6972859
0.90551854
-0.89586723
-2.6892308
-4.4568352
-6.1811978
-7.8453988
-9.4332658
-10.929502
-12.319793
-13.590903
-14.730773
-15.728611
-16.57498
-17.26188
-17.782819
-18.132873
-18.308731
-20.125929
-19.93272
-19.548126
-18.97578
-18.22108
-17.291143
-16.194735
-14.942186
-13.545305
-12.017282
-10.372589
-8.6268869
-6.7969405
-4.9005299
-2.9563618
-0.98389495
0.99710323
2.9671125
4.9071342
6.7987282
8.6240256
10.365791
12.007533
13.53365
14.929582
16.181963
17.278768
18.209441
18.965008
19.538172
19.923392
20.116939
20.116939
19.923392
19.538172
18.965008
18.209441
17.278768
16.181963
14.929582
13.53365
12.007533
10.365791
8.6240256
6.7987282
4.9071342
2.9671125
0.99710325
-0.98389494
-2.9563618
-4.9005299
-6.7969405
-8.6268869
-10.372589
-12.017282
-13.545305
-14.942186
-16.194735
-17.291143
-18.22108
-18.97578
-19.548126
-19.93272
-20.125929
-22.13559
-21.923217
-21.500477
-20.871357
-20.041785
-19.019569
-17.814318
-16.437344
-14.901569
-13.221404
-11.412654
-9.4924182
-7.4790217
-5.3919769
-3.2519894
-1.0808786
1.099116
3.2663218
5.3999569
7.4799728
9.4869332
11.402031
13.207211
14.885346
16.420421
17.797718
19.003988
20.027594
20.858641
21.489084
21.91281
22.125707
22.125707
21.91281
21.489084
20.858641
20.027594
19.003988
17.797718
16.420421
14.885346
13.207211
11.402031
9.4869332
7.4799729
5.3999569
3.2663218
1.099116
-1.0808785
-3.2519894
-5.3919769
-7.4790217
-9.4924182
-11.412654
-13.221404
-14.901569
-16.437344
-17.814318
-19.019569
-20.041785
-20.871357
-21.500477
-21.923217
-22.13559
-24.356897
-24.12337
-23.658523
-22.966742
-22.054543
-20.930502
-19.605159
-18.090915
-16.401901
-14.553858
-12.564007
-10.450957
-8.234646
-5.9363778
-3.5790543
-1.1874287
1.2130648
3.5982627
5.9456021
8.2334806
10.440872
12.547292
14.532965
16.379059
18.067927
19.583334
20.910657
22.037051
22.951595
23.645406
24.111735
24.346042
24.346042
24.111735
23.645406
22.951595
22.037051
20.910657
19.583334
18.067927
16.379059
14.532965
12.547292
10.440872
8.2334807
5.9456022
3.5982628
1.2130648
-1.1874287
-3.5790543
-5.9363778
-8.234646
-10.450957
-12.564007
-14.553858
-16.401901
-18.090915
-19.605159
-20.930502
-22.054543
-22.966742
-23.658523
-24.12337
-24.356897
-26.811069
-26.5542
-26.042892
-25.281979
-24.278637
-23.042299
-21.584544
-19.918976
-18.061064
-16.027987
-13.838471
-11.512674
-9.0721088
-6.5397745
-3.9408488
-1.3039413
1.3410004
3.9669118
6.5497189
9.0665325
11.494793
13.812221
15.99712
18.028724
19.887537
21.555609
23.016773
24.256833
25.263721
26.027622
26.541078
26.799069
26.799069
26.541078
26.027622
25.263721
24.256833
23.016773
21.555609
19.887537
18.028724
15.99712
13.812222
11.494794
9.0665326
6.549719
3.9669119
1.3410005
-1.3039412
-3.9408487
-6.5397744
-9.0721088
-11.512674
-13.838471
-16.027987
-18.061064
-19.918976
-21.584544
-23.042299
-24.278637
-25.281979
-26.042892
-26.5542
-26.811069
-29.52157
-29.238943
-28.676377
-27.83921
-26.735356
-25.375217
-23.771536
-21.939268
-19.895368
-17.658605
-15.249301
-12.689173
-10.001136
-7.2094196
-4.3411224
-1.4303028
1.4859172
4.3771344
7.2186893
9.9870955
12.658422
15.208407
17.613139
19.849618
21.896218
23.733034
25.342167
26.707908
27.816913
28.658327
29.223906
29.508095
29.508095
29.223906
28.658327
27.816913
26.707908
25.342167
23.733034
21.896218
19.849618
17.613139
15.208407
12.658422
9.9870956
7.2186894
4.3771345
1.4859173
-1.4303027
-4.3411223
-7.2094195
-10.001136
-12.689173
-15.249301
-17.658604
-19.895368
-21.939268
-23.771536
-25.375216
-26.735356
-27.83921
-28.676377
-29.238943
-29.52157
-32.514378
-32.203327
-31.584201
-30.662915
-29.448217
-27.951605
-26.18714
-24.171317
-21.922778
-19.462094
-16.811324
-13.993782
-11.033449
-7.9545682
-4.7843549
-1.5652702
1.6525332
4.8350799
7.9596658
11.003724
13.942181
16.748385
19.395731
21.858535
24.112684
26.136041
27.908769
29.413468
30.635387
31.562516
32.185741
32.498907
32.498907
32.185741
31.562516
30.635387
29.413468
27.908769
26.136041
24.112684
21.858535
19.395731
16.748386
13.942181
11.003724
7.9596659
4.83508
1.6525333
-1.5652701
-4.7843548
-7.9545681
-11.033449
-13.993782
-16.811324
-19.462094
-21.922778
-24.171317
-26.18714
-27.951605
-29.448217
-30.662915
-31.584201
-32.203327
-32.514378
-35.818347
-35.47591
-34.79434
-33.780219
-32.443231
-30.796137
-28.854478
-26.636551
-24.162936
-21.456354
-18.540866
-15.441647
-12.183335
-8.7875005
-5.2757366
-1.7046583
1.8490548
5.3488084
8.7804386
12.125241
15.35694
18.445611
21.36105
24.074082
26.557749
28.787373
30.740993
32.399326
33.746092
34.767999
35.454979
35.800203
35.800203
35.454979
34.767999
33.746092
32.399326
30.740993
28.787373
26.557749
24.074082
21.36105
18.445611
15.35694
12.125241
8.7804387
5.3488085
1.8490549
-1.7046582
-5.2757365
-8.7875004
-12.183335
-15.441647
-18.540866
-21.456354
-24.162936
-26.636551
-28.854478
-30.796137
-32.443231
-33.780219
-34.79434
-35.47591
-35.818348
-39.464654
-39.087536
-38.336974
-37.220342
-35.748351
-33.935239
-31.798185
-29.357628
-26.636355
-23.659784
-20.454677
-17.049005
-13.467546
-9.7233871
-5.8195028
-1.8363578
2.0907847
5.9293687
9.6894765
13.360688
16.914374
20.314869
23.526763
26.51658
29.254151
31.711849
33.865455
35.693585
37.17835
38.305014
39.062499
39.44321
39.44321
39.062499
38.305014
37.17835
35.693585
33.865455
31.711849
29.254151
26.51658
23.526763
20.314869
16.914374
13.360688
9.6894765
5.9293687
2.0907848
-1.8363577
-5.8195028
-9.7233871
-13.467546
-17.049005
-20.454677
-23.659784
-26.636355
-29.357628
-31.798185
-33.935239
-35.748351
-37.220342
-38.336974
-39.087535
-39.464654
-43.483978
-43.068546
-42.241772
-41.011966
-39.390953
-37.394682
-35.042099
-32.356161
-29.362288
-26.089724
-22.569338
-18.83447
-14.910378
-10.788137
-6.4240971
-1.9376778
2.4024521
6.5916612
10.69579
14.717716
18.624489
22.369772
25.910144
29.20644
32.224857
34.934527
37.308965
39.324492
40.961567
42.203842
43.039168
43.459111
43.459111
43.039168
42.203842
40.961567
39.324492
37.308965
34.934527
32.224857
29.20644
25.910144
22.369772
18.624489
14.717716
10.69579
6.5916612
2.4024521
-1.9376778
-6.424097
-10.788137
-14.910378
-18.83447
-22.569338
-26.089724
-29.362288
-32.356161
-35.042099
-37.394682
-39.390953
-41.011966
-42.241772
-43.068546
-43.483978
-47.91473
-47.456957
-46.545884
-45.191089
-43.405382
-41.206889
-38.616052
-35.659286
-32.364893
-28.767697
-24.904827
-20.822408
-16.561126
-12.091964
-7.1602049
-2.0111495
2.8125088
7.3539627
11.803046
16.198605
20.497392
24.627917
28.534403
32.170801
35.500121
38.488117
41.10634
43.328612
45.133722
46.503503
47.424636
47.887482
47.887482
47.424636
46.503503
45.133722
43.328612
41.10634
38.488117
35.50012
32.170801
28.534403
24.627917
20.497392
16.198605
11.803046
7.3539627
2.8125088
-2.0111495
-7.1602049
-12.091964
-16.561126
-20.822408
-24.904827
-28.767697
-32.364893
-35.659286
-38.616052
-41.206889
-43.405382
-45.191089
-46.545884
-47.456957
-47.91473
-46.00963
-45.625794
-44.858396
-43.711212
-42.184627
-40.285742
-38.015617
-35.386895
-32.404434
-29.09096
-25.463288
-21.57269
-17.503103
-13.52808
-9.338538
-2.6992383
3.8200079
8.2652545
12.973039
17.790366
22.558588
27.136622
31.462257
35.480204
39.159171
42.456738
45.34809
47.799806
49.793478
51.305435
52.323311
52.834314
52.834314
52.323311
51.305435
49.793478
47.799806
45.34809
42.456738
39.159171
35.480204
31.462257
27.136622
22.558588
17.790366
12.973039
8.2652545
3.8200079
-2.6992383
-9.338538
-13.52808
-17.503103
-21.57269
-25.463288
-29.09096
-32.404434
-35.386895
-38.015617
-40.285742
-42.184627
-43.711212
-44.858396
-45.625794
-46.00963
52.789548
52.278991
51.261907
49.751224
47.759303
45.309488
42.420461
39.125596
35.449664
31.435045
27.113006
22.5388
17.774607
12.961491
8.2580265
3.8171786
-2.6977748
-9.3324335
-13.517531
-17.488265
-21.553656
-25.440228
-29.064096
-32.374027
-35.353243
-37.979048
-40.246596
-42.14328
-43.668128
-44.813992
-45.580445
-45.963852
-45.963852
-45.580445
-44.813992
-43.668128
-42.14328
-40.246596
-37.979048
-35.353243
-32.374027
-29.064096
-25.440228
-21.553656
-17.488265
-13.517531
-9.3324335
-2.6977748
3.8171786
8.2580265
12.961491
17.774607
22.5388
27.113006
31.435045
35.449664
39.125596
42.420461
45.309488
47.759303
49.751224
51.261907
52.278991
52.789548
47.842175
47.379757
46.459461
45.090929
43.287403
41.06724
38.451441
35.466204
32.139969
28.506953
24.604114
20.477472
16.182772
11.791455
7.3467492
2.8097482
-2.009419
-7.1539922
-12.081292
-16.54609
-20.803149
-24.881521
-28.740565
-32.334192
-35.625313
-38.57913
-41.167385
-43.363688
-45.147606
-46.501045
-47.411202
-47.868524
-47.868524
-47.411202
-46.501045
-45.147606
-43.363688
-41.167386
-38.57913
-35.625313
-32.334192
-28.740565
-24.881521
-20.803149
-16.54609
-12.081292
-7.1539922
-2.0094191
2.8097482
7.3467492
11.791455
16.182772
20.477472
24.604114
28.506953
32.139969
35.466204
38.451441
41.06724
43.287403
45.090929
46.459461
47.379757
47.842175
43.41284
42.993332
42.158866
40.917871
39.282483
37.269066
34.897112
32.190276
29.175023
25.882193
22.345558
18.604249
14.701652
10.684065
6.5844002
2.3997324
-1.9358261
-6.4176651
-10.777173
-14.894982
-18.814784
-22.545546
-26.06205
-29.330996
-32.321552
-35.004509
-37.354476
-39.348525
-40.967731
-42.196166
-43.022016
-43.436987
-43.436987
-43.022016
-42.196166
-40.967731
-39.348525
-37.354476
-35.004509
-32.321552
-29.330996
-26.06205
-22.545546
-18.814784
-14.894982
-10.777173
-6.4176651
-1.9358262
2.3997324
6.5844002
10.684065
14.701652
18.604249
22.345558
25.882193
29.175023
32.190276
34.897112
37.269066
39.282483
40.917871
42.158866
42.993332
43.41284
39.395543
39.015281
38.258689
37.133355
35.650344
33.824389
31.673347
29.218579
26.484278
23.498041
20.290006
16.893612
13.344234
9.6774947
5.9219832
2.0880739
-1.8343608
-5.8128027
-9.7120377
-13.451651
-17.028711
-20.430174
-23.631305
-26.604173
-29.322052
-31.759559
-33.893938
-35.704778
-37.174923
-38.290154
-39.039771
-39.416417
-39.416417
-39.039771
-38.290154
-37.174923
-35.704778
-33.893938
-31.759559
-29.322052
-26.604173
-23.631305
-20.430174
-17.028711
-13.451651
-9.7120377
-5.8128028
-1.8343608
2.0880739
5.9219832
9.6774947
13.344234
16.893612
20.290006
23.498041
26.484278
29.218579
31.673347
33.824389
35.650344
37.133355
38.258689
39.015281
39.395543
35.750694
35.405939
34.719892
33.699373
32.354439
30.69837
28.747421
26.520849
24.040587
21.331282
18.419858
15.335454
12.108233
8.768077
5.3412191
1.8463173
-1.7025109
-5.2687156
-8.7756655
-12.166795
-15.420555
-18.515422
-21.426799
-24.129554
-26.599663
-28.814441
-30.753339
-32.398088
-33.733171
-34.745846
-35.426444
-35.768393
-35.768393
-35.426444
-34.745846
-33.733171
-32.398088
-30.753339
-28.814441
-26.599663
-24.129555
-21.426799
-18.515422
-15.420555
-12.166795
-8.7756656
-5.2687157
-1.7025109
1.8463172
5.3412191
8.768077
12.108233
15.335454
18.419858
21.331282
24.040587
26.520849
28.747421
30.69837
32.354439
33.699373
34.719892
35.405939
35.750694
32.447092
32.134418
31.512174
30.586503
29.36651
27.864186
26.094259
24.074104
21.823526
19.364631
16.721494
13.91976
10.985993
7.9467989
4.8272066
1.6497346
-1.5629614
-4.7769543
-7.942141
-11.01611
-13.971695
-16.784697
-19.431181
-21.887876
-24.132762
-26.145305
-27.906895
-29.401065
-30.61378
-31.533561
-32.151676
-32.462219
-32.462219
-32.151676
-31.533561
-30.61378
-29.401066
-27.906895
-26.145305
-24.132762
-21.887876
-19.431181
-16.784697
-13.971695
-11.016111
-7.942141
-4.7769543
-1.5629615
1.6497346
4.8272065
7.9467989
10.985993
13.91976
16.721494
19.364631
21.823526
24.074104
26.094259
27.864186
29.36651
30.586503
31.512174
32.134418
32.447092
29.453485
29.169817
28.605274
27.765402
26.658432
25.2952
23.689025
21.855589
19.81276
17.580407
15.180117
12.634847
9.9684662
7.2051881
4.3688954
1.483024
-1.4278177
-4.3332779
-7.1962867
-9.9828369
-12.665881
-15.221238
-17.626039
-19.858612
-21.898676
-23.7275
-25.328162
-26.685739
-27.787512
-28.623099
-29.184604
-29.466697
-29.466697
-29.184604
-28.623099
-27.787512
-26.685739
-25.328162
-23.7275
-21.898676
-19.858612
-17.626039
-15.221238
-12.665881
-9.9828369
-7.1962867
-4.3332779
-1.4278177
1.483024
4.3688953
7.2051881
9.9684662
12.634847
15.180117
17.580407
19.81276
21.855589
23.689025
25.2952
26.658432
27.765402
28.605274
29.169817
29.453485
26.741147
26.48371
25.971355
25.209095
24.204369
22.966975
21.508954
19.844473
17.989665
15.962441
13.782259
11.469836
9.0468227
6.5354493
3.958223
1.3379794
-1.3012617
-3.9324907
-6.5258148
-9.052679
-11.487958
-13.808706
-15.993457
-18.022101
-19.875956
-21.537882
-22.992445
-24.226075
-25.227217
-25.98646
-26.496646
-26.752952
-26.752952
-26.496646
-25.98646
-25.227217
-24.226075
-22.992445
-21.537882
-19.875956
-18.022101
-15.993457
-13.808706
-11.487958
-9.0526789
-6.5258148
-3.9324907
-1.3012617
1.3379794
3.958223
6.5354493
9.0468227
11.469836
13.782259
15.962441
17.989665
19.844473
21.508954
22.966975
24.204369
25.209095
25.971355
26.48371
26.741147
24.284259
24.050544
23.585392
22.893334
21.9811
20.857553
19.533588
18.022016
16.337424
14.496007
12.515368
10.41429
8.2124982
5.9304234
3.5890363
1.2098823
-1.1845339
-3.5701071
-5.9214617
-8.2139023
-10.424584
-12.532256
-14.517034
-16.360358
-18.045053
-19.555422
-20.877369
-21.998528
-22.908386
-23.598391
-24.062045
-24.294972
-24.294972
-24.062045
-23.598391
-22.908386
-21.998528
-20.877369
-19.555422
-18.045054
-16.360358
-14.517034
-12.532256
-10.424584
-8.2139023
-5.9214617
-3.5701071
-1.1845339
1.2098822
3.5890363
5.9304234
8.2124982
10.41429
12.515368
14.496007
16.337424
18.022016
19.533588
20.857553
21.9811
22.893334
23.585392
24.050544
24.284259
22.059476
21.847214
21.424752
20.79619
19.967622
18.947072
17.744405
16.371223
14.840737
13.167619
11.367838
9.4584696
7.4575138
5.3837201
3.2564657
1.0957375
-1.0777446
-3.2423711
-5.3759649
-7.4567683
-9.464136
-11.378614
-13.181934
-14.857048
-16.388202
-17.761027
-18.962645
-19.981777
-20.808844
-21.436065
-21.857528
-22.069259
-22.069259
-21.857528
-21.436065
-20.808844
-19.981777
-18.962645
-17.761027
-16.388202
-14.857048
-13.181934
-11.378614
-9.464136
-7.4567683
-5.3759649
-3.2423711
-1.0777447
1.0957375
3.2564657
5.3837201
7.4575138
9.4584696
11.367838
13.167619
14.840737
16.371223
17.744405
18.947072
19.967622
20.79619
21.424752
21.847214
22.059476
20.045628
19.852765
19.468908
18.897771
18.144877
17.217497
16.124574
14.876627
13.485638
11.964927
10.329
8.5934058
6.7745748
4.8896809
2.956529
0.99349309
-0.98049529
-2.9459835
-4.8832715
-6.7729667
-8.5964273
-10.335936
-11.974788
-13.49738
-14.88929
-16.137379
-17.22988
-18.156501
-18.908509
-19.478814
-19.862035
-20.054554
-20.054554
-19.862035
-19.478814
-18.908509
-18.156501
-17.22988
-16.137379
-14.88929
-13.49738
-11.974788
-10.335936
-8.5964273
-6.7729667
-4.8832715
-2.9459835
-0.98049528
0.9934931
2.956529
4.8896809
6.7745748
8.5934058
10.329
11.964927
13.485639
14.876627
16.124574
17.217497
18.144877
18.897771
19.468908
19.852765
20.045628
18.223525
18.048202
17.699249
17.180035
16.495571
15.652453
14.658798
13.524153
12.259401
10.876647
9.3890891
7.8108924
6.1570543
4.4432796
2.6858709
0.90163927
-0.89217213
-2.6779958
-4.4381675
-6.1552762
-7.8124716
-9.3936495
-10.883578
-12.268003
-13.533746
-14.668801
-15.66242
-16.50521
-17.189204
-17.707939
-18.05651
-18.231624
-18.231624
-18.05651
-17.707939
-17.189204