/*--------------------------------*- C++ -*----------------------------------*\
| =========                 |                                                 |
| \\      /  F ield         | OpenFOAM: The Open Source CFD Toolbox           |
|  \\    /   O peration     | Version:  2106                                  |
|   \\  /    A nd           | Website:  www.openfoam.com                      |
|    \\/     M anipulation  |                                                 |
\*---------------------------------------------------------------------------*/
FoamFile
{
    version     2.0;
    format      ascii;
    arch        "LSB;label=32;scalar=64";
    class       volVectorField;
    location    "0.036";
    object      U;
}
// * * * * * * * * * * * * * * * * * * * * * * * * * * * * * * * * * * * * * //

dimensions      [0 1 -1 0 0 0 0];

internalField   nonuniform List<vector> 
4096
(
(-0.0011772264 0.0011741273 0)
(-0.0035207262 0.0011631989 0)
(-0.0058314561 0.001141431 0)
(-0.008087866 0.0011090017 0)
(-0.010268851 0.0010661781 0)
(-0.012353928 0.0010133158 0)
(-0.014323415 0.00095085865 0)
(-0.016158603 0.00087933744 0)
(-0.017841933 0.0007993679 0)
(-0.019357161 0.00071164806 0)
(-0.020689516 0.00061695426 0)
(-0.021825862 0.00051613617 0)
(-0.022754828 0.00041011052 0)
(-0.023466943 0.00029985354 0)
(-0.02395475 0.00018639162 0)
(-0.024212874 7.0801374e-05 0)
(-0.024238159 -4.5822775e-05 0)
(-0.024029641 -0.00016235335 0)
(-0.023588643 -0.00027765574 0)
(-0.022918757 -0.00039059547 0)
(-0.022025839 -0.00050004987 0)
(-0.020917975 -0.00060491959 0)
(-0.019605421 -0.0007041403 0)
(-0.01810052 -0.00079669451 0)
(-0.016417601 -0.00088162329 0)
(-0.014572846 -0.00095803784 0)
(-0.01258414 -0.0010251308 0)
(-0.010470896 -0.001082187 0)
(-0.0082538636 -0.0011285933 0)
(-0.0059549101 -0.0011638479 0)
(-0.003596794 -0.0011875671 0)
(-0.0012029191 -0.0011994921 0)
(0.0012029191 -0.0011994921 0)
(0.003596794 -0.0011875671 0)
(0.0059549101 -0.0011638479 0)
(0.0082538636 -0.0011285933 0)
(0.010470896 -0.001082187 0)
(0.01258414 -0.0010251308 0)
(0.014572846 -0.00095803784 0)
(0.016417601 -0.00088162329 0)
(0.01810052 -0.00079669451 0)
(0.019605421 -0.0007041403 0)
(0.020917975 -0.00060491959 0)
(0.022025839 -0.00050004987 0)
(0.022918757 -0.00039059547 0)
(0.023588643 -0.00027765574 0)
(0.024029641 -0.00016235335 0)
(0.024238159 -4.5822775e-05 0)
(0.024212874 7.0801374e-05 0)
(0.02395475 0.00018639162 0)
(0.023466943 0.00029985354 0)
(0.022754828 0.00041011052 0)
(0.021825862 0.00051613617 0)
(0.020689516 0.00061695426 0)
(0.019357161 0.00071164806 0)
(0.017841933 0.0007993679 0)
(0.016158603 0.00087933744 0)
(0.014323415 0.00095085865 0)
(0.012353928 0.0010133158 0)
(0.010268851 0.0010661781 0)
(0.008087866 0.0011090017 0)
(0.0058314561 0.001141431 0)
(0.0035207262 0.0011631989 0)
(0.0011772264 0.0011741273 0)
(-0.001182826 0.0035273291 0)
(-0.0035374804 0.0034945038 0)
(-0.0058592304 0.0034291202 0)
(-0.008126436 0.0033317124 0)
(-0.010317902 0.0032030814 0)
(-0.012413055 0.0030442945 0)
(-0.014392122 0.0028566835 0)
(-0.016236307 0.0026418414 0)
(-0.017927963 0.0024016167 0)
(-0.01945076 0.0021381053 0)
(-0.020789851 0.0018536387 0)
(-0.021932025 0.0015507687 0)
(-0.022865848 0.0012322491 0)
(-0.02358179 0.000901013 0)
(-0.024072346 0.00056014745 0)
(-0.024332115 0.00021287011 0)
(-0.024357896 -0.00013750764 0)
(-0.024148722 -0.0004876111 0)
(-0.023705908 -0.00083403 0)
(-0.023033052 -0.0011733559 0)
(-0.022136027 -0.0015022158 0)
(-0.021022947 -0.0018173067 0)
(-0.019704107 -0.0021154304 0)
(-0.0181919 -0.0023935293 0)
(-0.016500717 -0.0026487213 0)
(-0.014646815 -0.0028783347 0)
(-0.012648165 -0.0030799422 0)
(-0.010524279 -0.0032513934 0)
(-0.0082960154 -0.0033908446 0)
(-0.0059853615 -0.003496786 0)
(-0.0036152033 -0.0035680641 0)
(-0.0012090788 -0.0036038995 0)
(0.0012090788 -0.0036038995 0)
(0.0036152033 -0.0035680641 0)
(0.0059853615 -0.003496786 0)
(0.0082960154 -0.0033908446 0)
(0.010524279 -0.0032513934 0)
(0.012648165 -0.0030799422 0)
(0.014646815 -0.0028783347 0)
(0.016500717 -0.0026487213 0)
(0.0181919 -0.0023935293 0)
(0.019704107 -0.0021154304 0)
(0.021022947 -0.0018173067 0)
(0.022136027 -0.0015022158 0)
(0.023033052 -0.0011733559 0)
(0.023705908 -0.00083403 0)
(0.024148722 -0.0004876111 0)
(0.024357896 -0.00013750764 0)
(0.024332115 0.00021287011 0)
(0.024072346 0.00056014745 0)
(0.02358179 0.000901013 0)
(0.022865848 0.0012322491 0)
(0.021932025 0.0015507687 0)
(0.020789851 0.0018536387 0)
(0.01945076 0.0021381053 0)
(0.017927963 0.0024016167 0)
(0.016236307 0.0026418414 0)
(0.014392122 0.0028566835 0)
(0.012413055 0.0030442945 0)
(0.010317902 0.0032030814 0)
(0.008126436 0.0033317124 0)
(0.0058592304 0.0034291202 0)
(0.0035374804 0.0034945038 0)
(0.001182826 0.0035273291 0)
(-0.0011898074 0.0058943721 0)
(-0.003558368 0.0058395391 0)
(-0.005893855 0.0057303179 0)
(-0.008174515 0.0055675979 0)
(-0.010379038 0.0053527139 0)
(-0.012486738 0.0050874445 0)
(-0.014477727 0.0047740102 0)
(-0.016333096 0.0044150683 0)
(-0.018035087 0.0040137035 0)
(-0.019567268 0.0035734144 0)
(-0.020914692 0.0030980946 0)
(-0.022064059 0.0025920069 0)
(-0.023003853 0.0020597522 0)
(-0.023724479 0.0015062323 0)
(-0.024218374 0.00093660766 0)
(-0.0244801 0.00035625225 0)
(-0.024506423 -0.00022929992 0)
(-0.024296365 -0.00081440649 0)
(-0.023851237 -0.0013933704 0)
(-0.023174649 -0.0019604965 0)
(-0.022272497 -0.0025101486 0)
(-0.021152928 -0.0030368065 0)
(-0.019826286 -0.0035351248 0)
(-0.018305025 -0.0039999913 0)
(-0.01660361 -0.0044265861 0)
(-0.014738387 -0.0048104394 0)
(-0.012727432 -0.0051474891 0)
(-0.010590376 -0.0054341347 0)
(-0.0083482104 -0.0056672888 0)
(-0.0060230711 -0.0058444218 0)
(-0.0036380019 -0.0059636007 0)
(-0.0012167073 -0.0060235193 0)
(0.0012167073 -0.0060235193 0)
(0.0036380019 -0.0059636007 0)
(0.0060230711 -0.0058444218 0)
(0.0083482104 -0.0056672888 0)
(0.010590376 -0.0054341347 0)
(0.012727432 -0.0051474891 0)
(0.014738387 -0.0048104394 0)
(0.01660361 -0.0044265861 0)
(0.018305025 -0.0039999913 0)
(0.019826286 -0.0035351248 0)
(0.021152928 -0.0030368065 0)
(0.022272497 -0.0025101486 0)
(0.023174649 -0.0019604965 0)
(0.023851237 -0.0013933704 0)
(0.024296365 -0.00081440649 0)
(0.024506423 -0.00022929992 0)
(0.0244801 0.00035625225 0)
(0.024218374 0.00093660766 0)
(0.023724479 0.0015062323 0)
(0.023003853 0.0020597522 0)
(0.022064059 0.0025920069 0)
(0.020914692 0.0030980946 0)
(0.019567268 0.0035734144 0)
(0.018035087 0.0040137035 0)
(0.016333096 0.0044150683 0)
(0.014477727 0.0047740102 0)
(0.012486738 0.0050874445 0)
(0.010379038 0.0053527139 0)
(0.008174515 0.0055675979 0)
(0.005893855 0.0057303179 0)
(0.003558368 0.0058395391 0)
(0.0011898074 0.0058943721 0)
(-0.0011988348 0.0082773363 0)
(-0.0035853763 0.0082003658 0)
(-0.0059386221 0.0080470468 0)
(-0.0082366699 0.0078186238 0)
(-0.010458061 0.0075169644 0)
(-0.012581958 0.0071445589 0)
(-0.014588324 0.0067045176 0)
(-0.016458104 0.0062005645 0)
(-0.018173396 0.0056370251 0)
(-0.019717631 0.0050188078 0)
(-0.021075736 0.004351377 0)
(-0.022234295 0.0036407177 0)
(-0.023181693 0.0028932914 0)
(-0.02390825 0.002115983 0)
(-0.024406337 0.0013160411 0)
(-0.024670468 0.00050101234 0)
(-0.024697379 -0.00032133094 0)
(-0.024486079 -0.0011430651 0)
(-0.02403788 -0.0019561914 0)
(-0.023356413 -0.0027527145 0)
(-0.022447604 -0.0035247214 0)
(-0.021319651 -0.0042644616 0)
(-0.019982955 -0.0049644281 0)
(-0.018450049 -0.0056174394 0)
(-0.016735493 -0.0062167217 0)
(-0.014855744 -0.0067559905 0)
(-0.012829009 -0.0072295314 0)
(-0.010675071 -0.0076322775 0)
(-0.0084150903 -0.0079598813 0)
(-0.0060713894 -0.0082087795 0)
(-0.003667214 -0.0083762484 0)
(-0.0012264818 -0.0084604469 0)
(0.0012264818 -0.0084604469 0)
(0.003667214 -0.0083762484 0)
(0.0060713894 -0.0082087795 0)
(0.0084150903 -0.0079598813 0)
(0.010675071 -0.0076322775 0)
(0.012829009 -0.0072295314 0)
(0.014855744 -0.0067559905 0)
(0.016735493 -0.0062167217 0)
(0.018450049 -0.0056174394 0)
(0.019982955 -0.0049644281 0)
(0.021319651 -0.0042644616 0)
(0.022447604 -0.0035247214 0)
(0.023356413 -0.0027527145 0)
(0.02403788 -0.0019561914 0)
(0.024486079 -0.0011430651 0)
(0.024697379 -0.00032133094 0)
(0.024670468 0.00050101234 0)
(0.024406337 0.0013160411 0)
(0.02390825 0.002115983 0)
(0.023181693 0.0028932914 0)
(0.022234295 0.0036407177 0)
(0.021075736 0.004351377 0)
(0.019717631 0.0050188078 0)
(0.018173396 0.0056370251 0)
(0.016458104 0.0062005645 0)
(0.014588324 0.0067045176 0)
(0.012581958 0.0071445589 0)
(0.010458061 0.0075169644 0)
(0.0082366699 0.0078186238 0)
(0.0059386221 0.0080470468 0)
(0.0035853763 0.0082003658 0)
(0.0011988348 0.0082773363 0)
(-0.0012100291 0.010680513 0)
(-0.0036188669 0.010581238 0)
(-0.0059941319 0.010383487 0)
(-0.0083137358 0.010088858 0)
(-0.010556033 0.0096997516 0)
(-0.012699998 0.0092193695 0)
(-0.014725409 0.0086517135 0)
(-0.016613023 0.008001578 0)
(-0.018344762 0.0072745357 0)
(-0.019903886 0.0064769138 0)
(-0.021275163 0.0056157604 0)
(-0.022445034 0.0046987981 0)
(-0.023401763 0.0037343664 0)
(-0.024135568 0.0027313532 0)
(-0.024638741 0.0016991158 0)
(-0.024905743 0.00064739449 0)
(-0.024933277 -0.00041378056 0)
(-0.024720343 -0.001474186 0)
(-0.024268263 -0.0025235042 0)
(-0.023580694 -0.0035514232 0)
(-0.022663607 -0.004547738 0)
(-0.021525258 -0.0055024521 0)
(-0.020176125 -0.0064058808 0)
(-0.018628837 -0.0072487556 0)
(-0.016898065 -0.0080223295 0)
(-0.015000402 -0.008718483 0)
(-0.012954214 -0.0093298281 0)
(-0.010779467 -0.0098498097 0)
(-0.0084975286 -0.0102728 0)
(-0.0061309493 -0.010594184 0)
(-0.0037032232 -0.010810431 0)
(-0.0012385307 -0.010919157 0)
(0.0012385307 -0.010919157 0)
(0.0037032232 -0.010810431 0)
(0.0061309493 -0.010594184 0)
(0.0084975286 -0.0102728 0)
(0.010779467 -0.0098498097 0)
(0.012954214 -0.0093298281 0)
(0.015000402 -0.008718483 0)
(0.016898065 -0.0080223295 0)
(0.018628837 -0.0072487556 0)
(0.020176125 -0.0064058808 0)
(0.021525258 -0.0055024521 0)
(0.022663607 -0.004547738 0)
(0.023580694 -0.0035514232 0)
(0.024268263 -0.0025235042 0)
(0.024720343 -0.001474186 0)
(0.024933277 -0.00041378056 0)
(0.024905743 0.00064739449 0)
(0.024638741 0.0016991158 0)
(0.024135568 0.0027313532 0)
(0.023401763 0.0037343664 0)
(0.022445034 0.0046987981 0)
(0.021275163 0.0056157604 0)
(0.019903886 0.0064769138 0)
(0.018344762 0.0072745357 0)
(0.016613023 0.008001578 0)
(0.014725409 0.0086517135 0)
(0.012699998 0.0092193695 0)
(0.010556033 0.0096997516 0)
(0.0083137358 0.010088858 0)
(0.0059941319 0.010383487 0)
(0.0036188669 0.010581238 0)
(0.0012100291 0.010680513 0)
(-0.00122303 0.013108149 0)
(-0.0036577629 0.012986367 0)
(-0.0060586024 0.012743778 0)
(-0.0084032451 0.012382333 0)
(-0.010669828 0.011904964 0)
(-0.012837107 0.011315584 0)
(-0.01488464 0.010619087 0)
(-0.016792969 0.0098213436 0)
(-0.018543804 0.0089291803 0)
(-0.020120203 0.0079503554 0)
(-0.02150675 0.0068935159 0)
(-0.022689718 0.005768142 0)
(-0.023657227 0.0045844745 0)
(-0.024399379 0.0033534292 0)
(-0.024908379 0.0020864985 0)
(-0.02517863 0.00079564247 0)
(-0.025206804 -0.00050682629 0)
(-0.024991897 -0.0018083624 0)
(-0.024535249 -0.0030963092 0)
(-0.023840553 -0.00435802 0)
(-0.022913834 -0.0055809809 0)
(-0.021763418 -0.0067529325 0)
(-0.020399872 -0.0078619945 0)
(-0.018835927 -0.0088967915 0)
(-0.017086384 -0.0098465814 0)
(-0.015167986 -0.010701385 0)
(-0.01309928 -0.011452114 0)
(-0.010900439 -0.0120907 0)
(-0.0085930675 -0.012610208 0)
(-0.0061999812 -0.013004948 0)
(-0.0037449621 -0.013270567 0)
(-0.0012524973 -0.013404119 0)
(0.0012524973 -0.013404119 0)
(0.0037449621 -0.013270567 0)
(0.0061999812 -0.013004948 0)
(0.0085930675 -0.012610208 0)
(0.010900439 -0.0120907 0)
(0.01309928 -0.011452114 0)
(0.015167986 -0.010701385 0)
(0.017086384 -0.0098465814 0)
(0.018835927 -0.0088967915 0)
(0.020399872 -0.0078619945 0)
(0.021763418 -0.0067529325 0)
(0.022913834 -0.0055809809 0)
(0.023840553 -0.00435802 0)
(0.024535249 -0.0030963092 0)
(0.024991897 -0.0018083624 0)
(0.025206804 -0.00050682629 0)
(0.02517863 0.00079564247 0)
(0.024908379 0.0020864985 0)
(0.024399379 0.0033534292 0)
(0.023657227 0.0045844745 0)
(0.022689718 0.005768142 0)
(0.02150675 0.0068935159 0)
(0.020120203 0.0079503554 0)
(0.018543804 0.0089291803 0)
(0.016792969 0.0098213436 0)
(0.01488464 0.010619087 0)
(0.012837107 0.011315584 0)
(0.010669828 0.011904964 0)
(0.0084032451 0.012382333 0)
(0.0060586024 0.012743778 0)
(0.0036577629 0.012986367 0)
(0.00122303 0.013108149 0)
(-0.0012370966 0.015563296 0)
(-0.0036998497 0.015418782 0)
(-0.0061283687 0.015130902 0)
(-0.0085001204 0.014701961 0)
(-0.010793008 0.014135416 0)
(-0.012985551 0.013435893 0)
(-0.015057069 0.012609179 0)
(-0.016987864 0.011662222 0)
(-0.018759413 0.010603112 0)
(-0.020354551 0.0094410507 0)
(-0.021757653 0.008186303 0)
(-0.022954806 0.0068501296 0)
(-0.023933973 0.0054447007 0)
(-0.024685129 0.0039829908 0)
(-0.025200387 0.0024786589 0)
(-0.025474092 0.00094591634 0)
(-0.025502892 -0.000600613 0)
(-0.025285787 -0.0021460364 0)
(-0.024824144 -0.0036753365 0)
(-0.024121701 -0.0051735136 0)
(-0.023184549 -0.0066257282 0)
(-0.022021086 -0.0080174422 0)
(-0.020641972 -0.0093345617 0)
(-0.019060046 -0.010563584 0)
(-0.017290237 -0.011691749 0)
(-0.015349445 -0.012707188 0)
(-0.013256403 -0.013599085 0)
(-0.011031503 -0.014357824 0)
(-0.0086966043 -0.014975134 0)
(-0.0062748081 -0.015444222 0)
(-0.0037902118 -0.015759886 0)
(-0.00126764 -0.015918606 0)
(0.00126764 -0.015918606 0)
(0.0037902118 -0.015759886 0)
(0.0062748081 -0.015444222 0)
(0.0086966043 -0.014975134 0)
(0.011031503 -0.014357824 0)
(0.013256403 -0.013599085 0)
(0.015349445 -0.012707188 0)
(0.017290237 -0.011691749 0)
(0.019060046 -0.010563584 0)
(0.020641972 -0.0093345617 0)
(0.022021086 -0.0080174422 0)
(0.023184549 -0.0066257282 0)
(0.024121701 -0.0051735136 0)
(0.024824144 -0.0036753364 0)
(0.025285787 -0.0021460364 0)
(0.025502892 -0.000600613 0)
(0.025474092 0.00094591634 0)
(0.025200387 0.0024786589 0)
(0.024685129 0.0039829908 0)
(0.023933973 0.0054447007 0)
(0.022954806 0.0068501296 0)
(0.021757653 0.008186303 0)
(0.020354551 0.0094410507 0)
(0.018759413 0.010603112 0)
(0.016987864 0.011662222 0)
(0.015057069 0.012609179 0)
(0.012985551 0.013435893 0)
(0.010793008 0.014135416 0)
(0.0085001204 0.014701961 0)
(0.0061283687 0.015130902 0)
(0.0036998497 0.015418782 0)
(0.0012370966 0.015563296 0)
(-0.0012512651 0.018047192 0)
(-0.0037422454 0.017879716 0)
(-0.0061986614 0.017546086 0)
(-0.008597755 0.017048951 0)
(-0.010917199 0.016392295 0)
(-0.013135274 0.015581448 0)
(-0.015231057 0.01462309 0)
(-0.017184605 0.013525248 0)
(-0.018977149 0.012297282 0)
(-0.020591288 0.010949851 0)
(-0.022011175 0.0094948552 0)
(-0.023222702 0.0079453637 0)
(-0.024213663 0.0063155072 0)
(-0.024973902 0.0046203546 0)
(-0.025495442 0.0028757693 0)
(-0.025772576 0.0010982496 0)
(-0.025801939 -0.00069523698 0)
(-0.025582548 -0.0024874231 0)
(-0.02511581 -0.0042609095 0)
(-0.024405521 -0.0059983272 0)
(-0.02345784 -0.0076824981 0)
(-0.022281243 -0.0092965926 0)
(-0.020886473 -0.010824289 0)
(-0.01928647 -0.01224994 0)
(-0.017496279 -0.01355874 0)
(-0.015532945 -0.014736906 0)
(-0.013415376 -0.015771859 0)
(-0.011164177 -0.016652398 0)
(-0.0088014593 -0.01736888 0)
(-0.0063506153 -0.017913377 0)
(-0.0038360661 -0.018279812 0)
(-0.001282987 -0.018464068 0)
(0.001282987 -0.018464068 0)
(0.0038360661 -0.018279812 0)
(0.0063506153 -0.017913377 0)
(0.0088014593 -0.01736888 0)
(0.011164177 -0.016652398 0)
(0.013415376 -0.015771859 0)
(0.015532945 -0.014736906 0)
(0.017496279 -0.01355874 0)
(0.01928647 -0.01224994 0)
(0.020886473 -0.010824289 0)
(0.022281243 -0.0092965926 0)
(0.02345784 -0.0076824981 0)
(0.024405521 -0.0059983272 0)
(0.02511581 -0.0042609095 0)
(0.025582548 -0.0024874231 0)
(0.025801939 -0.00069523698 0)
(0.025772576 0.0010982496 0)
(0.025495442 0.0028757693 0)
(0.024973902 0.0046203546 0)
(0.024213663 0.0063155072 0)
(0.023222702 0.0079453637 0)
(0.022011175 0.0094948552 0)
(0.020591288 0.010949851 0)
(0.018977149 0.012297282 0)
(0.017184605 0.013525248 0)
(0.015231057 0.01462309 0)
(0.013135274 0.015581448 0)
(0.010917199 0.016392295 0)
(0.008597755 0.017048951 0)
(0.0061986614 0.017546086 0)
(0.0037422454 0.017879716 0)
(0.0012512651 0.018047192 0)
(-0.0012645863 0.020559026 0)
(-0.0037821136 0.020368377 0)
(-0.0062647876 0.019988569 0)
(-0.0086896506 0.019422592 0)
(-0.011034166 0.018674948 0)
(-0.013276393 0.017751662 0)
(-0.015395177 0.0166603 0)
(-0.017370334 0.015409967 0)
(-0.019182851 0.014011295 0)
(-0.020815087 0.012476409 0)
(-0.022250968 0.010818867 0)
(-0.023476179 0.0090535731 0)
(-0.024478342 0.0071966532 0)
(-0.025247173 0.0052653118 0)
(-0.025774606 0.0032776588 0)
(-0.026054899 0.0012525211 0)
(-0.02608469 -0.0007907544 0)
(-0.025863031 -0.0028324978 0)
(-0.025391392 -0.004852909 0)
(-0.02467364 -0.0068322385 0)
(-0.023716008 -0.0087509634 0)
(-0.022527046 -0.010589958 0)
(-0.02111757 -0.012330664 0)
(-0.019500598 -0.013955276 0)
(-0.017691266 -0.015446923 0)
(-0.015706735 -0.016789879 0)
(-0.013566058 -0.017969762 0)
(-0.01129003 -0.018973751 0)
(-0.0089009938 -0.019790789 0)
(-0.006422617 -0.020411772 0)
(-0.0038796361 -0.020829714 0)
(-0.0012975725 -0.02103988 0)
(0.0012975725 -0.02103988 0)
(0.0038796361 -0.020829714 0)
(0.006422617 -0.020411772 0)
(0.0089009938 -0.019790789 0)
(0.01129003 -0.018973751 0)
(0.013566058 -0.017969762 0)
(0.015706735 -0.016789879 0)
(0.017691266 -0.015446923 0)
(0.019500598 -0.013955276 0)
(0.02111757 -0.012330664 0)
(0.022527046 -0.010589958 0)
(0.023716008 -0.0087509634 0)
(0.02467364 -0.0068322385 0)
(0.025391392 -0.004852909 0)
(0.025863031 -0.0028324978 0)
(0.02608469 -0.0007907544 0)
(0.026054899 0.0012525211 0)
(0.025774606 0.0032776588 0)
(0.025247173 0.0052653118 0)
(0.024478342 0.0071966532 0)
(0.023476179 0.0090535731 0)
(0.022250968 0.010818867 0)
(0.020815087 0.012476409 0)
(0.019182851 0.014011295 0)
(0.017370334 0.015409967 0)
(0.015395177 0.0166603 0)
(0.013276393 0.017751662 0)
(0.011034166 0.018674948 0)
(0.0086896506 0.019422592 0)
(0.0062647876 0.019988569 0)
(0.0037821136 0.020368377 0)
(0.0012645863 0.020559026 0)
(-0.0012764761 0.023096254 0)
(-0.0038177088 0.022882257 0)
(-0.0063238628 0.022455918 0)
(-0.0087718199 0.021820558 0)
(-0.011138868 0.02098118 0)
(-0.013402874 0.019944494 0)
(-0.015542471 0.018718938 0)
(-0.017537248 0.017314684 0)
(-0.019367952 0.015743634 0)
(-0.021016699 0.014019386 0)
(-0.022467179 0.012157172 0)
(-0.023704866 0.010173757 0)
(-0.024717202 0.0080873036 0)
(-0.025493769 0.0059171964 0)
(-0.026026426 0.003683843 0)
(-0.026309409 0.0014084462 0)
(-0.026339384 -0.00088722708 0)
(-0.026115474 -0.0031810757 0)
(-0.025639236 -0.0054508834 0)
(-0.024914634 -0.0076745167 0)
(-0.023947988 -0.0098301121 0)
(-0.022747918 -0.011896254 0)
(-0.021325299 -0.013852153 0)
(-0.019693197 -0.015677838 0)
(-0.017866804 -0.01735436 0)
(-0.015863353 -0.018864018 0)
(-0.013702004 -0.020190595 0)
(-0.0114037 -0.021319602 0)
(-0.0089909824 -0.022238522 0)
(-0.0064877664 -0.022937031 0)
(-0.0039190823 -0.023407197 0)
(-0.0013107815 -0.02364364 0)
(0.0013107815 -0.02364364 0)
(0.0039190823 -0.023407197 0)
(0.0064877664 -0.022937031 0)
(0.0089909824 -0.022238522 0)
(0.0114037 -0.021319602 0)
(0.013702004 -0.020190595 0)
(0.015863353 -0.018864018 0)
(0.017866804 -0.01735436 0)
(0.019693197 -0.015677838 0)
(0.021325299 -0.013852153 0)
(0.022747918 -0.011896254 0)
(0.023947988 -0.0098301121 0)
(0.024914634 -0.0076745167 0)
(0.025639236 -0.0054508834 0)
(0.026115474 -0.0031810757 0)
(0.026339384 -0.00088722708 0)
(0.026309409 0.0014084462 0)
(0.026026426 0.003683843 0)
(0.025493769 0.0059171964 0)
(0.024717202 0.0080873036 0)
(0.023704866 0.010173757 0)
(0.022467179 0.012157172 0)
(0.021016699 0.014019386 0)
(0.019367952 0.015743634 0)
(0.017537248 0.017314684 0)
(0.015542471 0.018718938 0)
(0.013402874 0.019944494 0)
(0.011138868 0.02098118 0)
(0.0087718199 0.021820558 0)
(0.0063238628 0.022455918 0)
(0.0038177088 0.022882257 0)
(0.0012764761 0.023096254 0)
(-0.0012872071 0.025655737 0)
(-0.0038498491 0.025418266 0)
(-0.0063772499 0.024945135 0)
(-0.0088461688 0.024239982 0)
(-0.011233751 0.023308294 0)
(-0.013517696 0.022157443 0)
(-0.015676442 0.020796715 0)
(-0.017689353 0.019237334 0)
(-0.019536934 0.017492457 0)
(-0.021201043 0.015577156 0)
(-0.022665113 0.013508348 0)
(-0.02391438 0.011304688 0)
(-0.024936087 0.0089864163 0)
(-0.02571967 0.006575155 0)
(-0.026256915 0.0040936697 0)
(-0.026542053 0.001565599 0)
(-0.026571817 -0.00098482157 0)
(-0.026345441 -0.0035330273 0)
(-0.025864623 -0.0060543739 0)
(-0.025133461 -0.0085243507 0)
(-0.024158388 -0.010918772 0)
(-0.022948107 -0.013213956 0)
(-0.021513539 -0.0153869 0)
(-0.019867774 -0.017415476 0)
(-0.018026022 -0.019278647 0)
(-0.016005545 -0.020956715 0)
(-0.013825565 -0.022431587 0)
(-0.011507133 -0.023687062 0)
(-0.009072954 -0.024709107 0)
(-0.0065471647 -0.025486127 0)
(-0.0039550693 -0.026009202 0)
(-0.001322836 -0.026272272 0)
(0.001322836 -0.026272272 0)
(0.0039550693 -0.026009202 0)
(0.0065471647 -0.025486127 0)
(0.009072954 -0.024709107 0)
(0.011507133 -0.023687062 0)
(0.013825565 -0.022431587 0)
(0.016005545 -0.020956715 0)
(0.018026022 -0.019278647 0)
(0.019867774 -0.017415476 0)
(0.021513539 -0.0153869 0)
(0.022948107 -0.013213956 0)
(0.024158388 -0.010918772 0)
(0.025133461 -0.0085243507 0)
(0.025864623 -0.0060543739 0)
(0.026345441 -0.0035330273 0)
(0.026571817 -0.00098482157 0)
(0.026542053 0.001565599 0)
(0.026256915 0.0040936697 0)
(0.02571967 0.006575155 0)
(0.024936087 0.0089864163 0)
(0.02391438 0.011304688 0)
(0.022665113 0.013508348 0)
(0.021201043 0.015577156 0)
(0.019536934 0.017492457 0)
(0.017689353 0.019237334 0)
(0.015676442 0.020796715 0)
(0.013517696 0.022157443 0)
(0.011233751 0.023308294 0)
(0.0088461688 0.024239982 0)
(0.0063772499 0.024945135 0)
(0.0038498491 0.025418266 0)
(0.0012872071 0.025655737 0)
(-0.0012985698 0.028236022 0)
(-0.0038838917 0.027974987 0)
(-0.0064338306 0.027454875 0)
(-0.0089250338 0.02667962 0)
(-0.011334508 0.025655169 0)
(-0.013639783 0.024389524 0)
(-0.015819084 0.022892789 0)
(-0.017851531 0.021177205 0)
(-0.019717343 0.019257165 0)
(-0.021398071 0.017149202 0)
(-0.022876833 0.014871924 0)
(-0.024138564 0.012445907 0)
(-0.025170251 0.00989352 0)
(-0.025961147 0.0072386904 0)
(-0.026502945 0.0045066241 0)
(-0.026789892 0.0017234763 0)
(-0.026818827 -0.0010839824 0)
(-0.026589168 -0.0038886817 0)
(-0.026102826 -0.0066635382 0)
(-0.025364107 -0.0093816819 0)
(-0.024379617 -0.012016642 0)
(-0.023158174 -0.014542511 0)
(-0.021710759 -0.016934113 0)
(-0.02005048 -0.019167187 0)
(-0.01819254 -0.021218608 0)
(-0.016154208 -0.023066661 0)
(-0.013954741 -0.02469134 0)
(-0.011615279 -0.026074671 0)
(-0.0091586769 -0.027201051 0)
(-0.0066092942 -0.028057553 0)
(-0.0039927174 -0.028634215 0)
(-0.0013354482 -0.028924261 0)
(0.0013354482 -0.028924261 0)
(0.0039927174 -0.028634215 0)
(0.0066092942 -0.028057553 0)
(0.0091586769 -0.027201051 0)
(0.011615279 -0.026074671 0)
(0.013954741 -0.02469134 0)
(0.016154208 -0.023066661 0)
(0.01819254 -0.021218608 0)
(0.02005048 -0.019167187 0)
(0.021710759 -0.016934113 0)
(0.023158174 -0.014542511 0)
(0.024379617 -0.012016642 0)
(0.025364107 -0.0093816819 0)
(0.026102826 -0.0066635382 0)
(0.026589168 -0.0038886817 0)
(0.026818827 -0.0010839824 0)
(0.026789892 0.0017234763 0)
(0.026502945 0.0045066241 0)
(0.025961147 0.0072386904 0)
(0.025170251 0.00989352 0)
(0.024138564 0.012445907 0)
(0.022876833 0.014871924 0)
(0.021398071 0.017149202 0)
(0.019717343 0.019257165 0)
(0.017851531 0.021177205 0)
(0.015819084 0.022892789 0)
(0.013639783 0.024389524 0)
(0.011334508 0.025655169 0)
(0.0089250338 0.02667962 0)
(0.0064338306 0.027454875 0)
(0.0038838917 0.027974987 0)
(0.0012985698 0.028236022 0)
(-0.0013147118 0.03084112 0)
(-0.0039322436 0.030556422 0)
(-0.0065141643 0.029989119 0)
(-0.0090369488 0.02914342 0)
(-0.011477401 0.028025697 0)
(-0.013812805 0.026644542 0)
(-0.016021098 0.025010832 0)
(-0.018081055 0.023137783 0)
(-0.019972505 0.021040987 0)
(-0.021676567 0.018738415 0)
(-0.023175914 0.016250371 0)
(-0.024455047 0.013599379 0)
(-0.025500574 0.010810002 0)
(-0.026301469 0.0079085692 0)
(-0.026849282 0.0049228441 0)
(-0.027138275 0.0018816175 0)
(-0.027165453 -0.0011857032 0)
(-0.026930512 -0.0042494775 0)
(-0.026435705 -0.0072801657 0)
(-0.025685671 -0.010248565 0)
(-0.024687294 -0.013125975 0)
(-0.023449597 -0.015884333 0)
(-0.021983678 -0.018496349 0)
(-0.020302694 -0.020935669 0)
(-0.018421872 -0.023177093 0)
(-0.016358502 -0.02519687 0)
(-0.014131903 -0.026973032 0)
(-0.011763339 -0.028485776 0)
(-0.0092758687 -0.029717851 0)
(-0.0066941361 -0.03065493 0)
(-0.0040440889 -0.031285948 0)
(-0.0013526511 -0.031603365 0)
(0.0013526511 -0.031603365 0)
(0.0040440889 -0.031285948 0)
(0.0066941361 -0.03065493 0)
(0.0092758687 -0.029717851 0)
(0.011763339 -0.028485776 0)
(0.014131903 -0.026973032 0)
(0.016358502 -0.02519687 0)
(0.018421872 -0.023177093 0)
(0.020302694 -0.020935669 0)
(0.021983678 -0.018496349 0)
(0.023449597 -0.015884333 0)
(0.024687294 -0.013125975 0)
(0.025685671 -0.010248565 0)
(0.026435705 -0.0072801657 0)
(0.026930512 -0.0042494775 0)
(0.027165453 -0.0011857032 0)
(0.027138275 0.0018816175 0)
(0.026849282 0.0049228441 0)
(0.026301469 0.0079085692 0)
(0.025500574 0.010810002 0)
(0.024455047 0.013599379 0)
(0.023175914 0.016250371 0)
(0.021676567 0.018738415 0)
(0.019972505 0.021040987 0)
(0.018081055 0.023137783 0)
(0.016021098 0.025010832 0)
(0.013812805 0.026644542 0)
(0.011477401 0.028025697 0)
(0.0090369488 0.02914342 0)
(0.0065141643 0.029989119 0)
(0.0039322436 0.030556422 0)
(0.0013147118 0.03084112 0)
(-0.0013431412 0.033486135 0)
(-0.0040173619 0.033177569 0)
(-0.0066554559 0.032562652 0)
(-0.0092335338 0.031645841 0)
(-0.011728002 0.030433897 0)
(-0.014115704 0.028935953 0)
(-0.016374079 0.027163604 0)
(-0.018481348 0.025130984 0)
(-0.020416717 0.022854834 0)
(-0.022160634 0.020354531 0)
(-0.02369507 0.017652065 0)
(-0.025003841 0.014771951 0)
(-0.026072943 0.011741032 0)
(-0.02689088 0.0085881808 0)
(-0.027448942 0.0053438955 0)
(-0.027741382 0.0020397919 0)
(-0.027765437 -0.0012919199 0)
(-0.027521229 -0.0046189206 0)
(-0.027011551 -0.0079091767 0)
(-0.026241582 -0.011131184 0)
(-0.025218681 -0.014254089 0)
(-0.023952235 -0.017247772 0)
(-0.022453598 -0.020082915 0)
(-0.020736092 -0.022731127 0)
(-0.018815065 -0.025165151 0)
(-0.016707942 -0.027359177 0)
(-0.014434226 -0.029289221 0)
(-0.012015446 -0.03093357 0)
(-0.0094750313 -0.032273237 0)
(-0.006838099 -0.033292407 0)
(-0.004131164 -0.033978835 0)
(-0.001381794 -0.034324167 0)
(0.001381794 -0.034324167 0)
(0.004131164 -0.033978835 0)
(0.006838099 -0.033292407 0)
(0.0094750313 -0.032273237 0)
(0.012015446 -0.03093357 0)
(0.014434226 -0.029289221 0)
(0.016707942 -0.027359177 0)
(0.018815065 -0.025165151 0)
(0.020736092 -0.022731127 0)
(0.022453598 -0.020082915 0)
(0.023952235 -0.017247772 0)
(0.025218681 -0.014254089 0)
(0.026241582 -0.011131184 0)
(0.027011551 -0.0079091767 0)
(0.027521229 -0.0046189206 0)
(0.027765437 -0.0012919199 0)
(0.027741382 0.0020397919 0)
(0.027448942 0.0053438955 0)
(0.02689088 0.0085881808 0)
(0.026072943 0.011741032 0)
(0.025003841 0.014771951 0)
(0.02369507 0.017652065 0)
(0.022160634 0.020354531 0)
(0.020416717 0.022854834 0)
(0.018481348 0.025130984 0)
(0.016374079 0.027163604 0)
(0.014115704 0.028935953 0)
(0.011728002 0.030433897 0)
(0.0092335338 0.031645841 0)
(0.0066554559 0.032562652 0)
(0.0040173619 0.033177569 0)
(0.0013431412 0.033486135 0)
(-0.0013958354 0.036205045 0)
(-0.0041750694 0.035872129 0)
(-0.0069170468 0.03520862 0)
(-0.0095971081 0.034219201 0)
(-0.01219086 0.032910979 0)
(-0.014674306 0.031293583 0)
(-0.017023994 0.02937926 0)
(-0.01921718 0.027182998 0)
(-0.021232039 0.02472262 0)
(-0.023047918 0.02201886 0)
(-0.024645648 0.01909539 0)
(-0.02600792 0.015978762 0)
(-0.027119713 0.012698231 0)
(-0.027968721 0.0092854224 0)
(-0.02854575 0.0057738504 0)
(-0.028844971 0.0021982633 0)
(-0.028863935 -0.0014060494 0)
(-0.028603416 -0.005003901 0)
(-0.028067048 -0.0085606857 0)
(-0.027260885 -0.012042624 0)
(-0.026193078 -0.015416812 0)
(-0.024873667 -0.018651199 0)
(-0.023314513 -0.021714552 0)
(-0.021529332 -0.024576515 0)
(-0.019533831 -0.02720779 0)
(-0.01734582 -0.029580468 0)
(-0.014985267 -0.031668474 0)
(-0.012474289 -0.033448075 0)
(-0.0098370361 -0.034898432 0)
(-0.0070994884 -0.036002131 0)
(-0.0042891435 -0.036745652 0)
(-0.0014346468 -0.037119757 0)
(0.0014346468 -0.037119757 0)
(0.0042891435 -0.036745652 0)
(0.0070994884 -0.036002131 0)
(0.0098370361 -0.034898432 0)
(0.012474289 -0.033448075 0)
(0.014985267 -0.031668474 0)
(0.01734582 -0.029580468 0)
(0.019533831 -0.02720779 0)
(0.021529332 -0.024576515 0)
(0.023314513 -0.021714552 0)
(0.024873667 -0.018651199 0)
(0.026193078 -0.015416812 0)
(0.027260885 -0.012042624 0)
(0.028067048 -0.0085606857 0)
(0.028603416 -0.005003901 0)
(0.028863935 -0.0014060494 0)
(0.028844971 0.0021982633 0)
(0.02854575 0.0057738504 0)
(0.027968721 0.0092854224 0)
(0.027119713 0.012698231 0)
(0.02600792 0.015978763 0)
(0.024645648 0.01909539 0)
(0.023047918 0.02201886 0)
(0.021232039 0.02472262 0)
(0.01921718 0.027182998 0)
(0.017023994 0.02937926 0)
(0.014674306 0.031293583 0)
(0.01219086 0.032910979 0)
(0.0095971081 0.034219201 0)
(0.0069170468 0.03520862 0)
(0.0041750694 0.035872129 0)
(0.0013958354 0.036205045 0)
(-0.0014903395 0.039060756 0)
(-0.0044578395 0.038702465 0)
(-0.0073858541 0.037988306 0)
(-0.010248231 0.036923169 0)
(-0.01301907 0.035514478 0)
(-0.015672842 0.033772309 0)
(-0.018184523 0.031709508 0)
(-0.020529733 0.029341838 0)
(-0.022684935 0.026688133 0)
(-0.024627686 0.023770424 0)
(-0.026336971 0.020614051 0)
(-0.027793657 0.017247672 0)
(-0.028981041 0.013703138 0)
(-0.029885442 0.010015155 0)
(-0.030496793 0.0062206923 0)
(-0.030809027 0.0023581336 0)
(-0.030820123 -0.0015336912 0)
(-0.030531835 -0.0054164015 0)
(-0.029949108 -0.0092526683 0)
(-0.029079387 -0.013006452 0)
(-0.02793211 -0.016642927 0)
(-0.026518424 -0.020128275 0)