/*--------------------------------*- C++ -*----------------------------------*\
| =========                 |                                                 |
| \\      /  F ield         | OpenFOAM: The Open Source CFD Toolbox           |
|  \\    /   O peration     | Version:  2306                                  |
|   \\  /    A nd           | Website:  www.openfoam.com                      |
|    \\/     M anipulation  |                                                 |
\*---------------------------------------------------------------------------*/
FoamFile
{
    version     2.0;
    format      ascii;
    arch        "LSB;label=32;scalar=64";
    class       surfaceScalarField;
    location    "0.53";
    object      phi;
}
// * * * * * * * * * * * * * * * * * * * * * * * * * * * * * * * * * * * * * //

dimensions      [0 3 -1 0 0 0 0];

oriented        oriented;

internalField   nonuniform List<scalar> 
12640
(
-2.3734723e-06
-3.2361687e-07
-2.365497e-06
-2.7259121e-07
-2.3562649e-06
-2.2170737e-07
-2.3458084e-06
-1.7100881e-07
-2.3341618e-06
-1.205349e-07
-2.3213579e-06
-7.0323524e-08
-2.3074368e-06
-2.0404823e-08
-2.2924277e-06
2.9162667e-08
-2.2763671e-06
7.8375292e-08
-2.2592902e-06
1.2719295e-07
-2.2412327e-06
1.7558797e-07
-2.2222293e-06
2.2353464e-07
-2.2023154e-06
2.7100817e-07
-2.1815254e-06
3.1798638e-07
-2.1598939e-06
3.6444942e-07
-2.1374552e-06
4.1037789e-07
-2.1142428e-06
4.5575572e-07
-2.0902905e-06
5.0056716e-07
-2.0656296e-06
5.4479863e-07
-2.0402936e-06
5.8843793e-07
-2.0143135e-06
6.3147438e-07
-1.9877202e-06
6.7389944e-07
-1.9605433e-06
7.1570506e-07
-1.9328123e-06
7.5688484e-07
-1.9045565e-06
7.9743406e-07
-1.8758031e-06
8.3734842e-07
-1.8465792e-06
8.7662569e-07
-1.8169101e-06
9.1526414e-07
-1.786822e-06
9.5326352e-07
-1.7563386e-06
9.9062367e-07
-1.7254836e-06
1.027347e-06
-1.694279e-06
1.0634351e-06
-1.6627462e-06
1.0988918e-06
-1.6309062e-06
1.1337199e-06
-1.5987786e-06
1.1679249e-06
-1.5663815e-06
1.2015125e-06
-1.5337331e-06
1.2344878e-06
-1.5008499e-06
1.2668583e-06
-1.4677478e-06
1.2986299e-06
-1.4344412e-06
1.3298107e-06
-1.4009446e-06
1.360409e-06
-1.3672701e-06
1.3904325e-06
-1.3334307e-06
1.41989e-06
-1.2994367e-06
1.4487904e-06
-1.2652984e-06
1.4771424e-06
-1.2310248e-06
1.5049561e-06
-1.1966251e-06
1.5322413e-06
-1.1621055e-06
1.5590062e-06
-1.1274742e-06
1.585262e-06
-1.0927357e-06
1.6110166e-06
-1.0578955e-06
1.6362808e-06
-1.022958e-06
1.6610643e-06
-9.8792619e-07
1.685377e-06
-9.528023e-07
1.7092271e-06
-9.1758815e-07
1.7326246e-06
-8.8228537e-07
1.7555784e-06
-8.4689418e-07
1.7780982e-06
-8.1141322e-07
1.8001911e-06
-7.7584235e-07
1.8218673e-06
-7.4017945e-07
1.8431333e-06
-7.0442246e-07
1.8639985e-06
-6.6856803e-07
1.8844686e-06
-6.3261314e-07
1.904552e-06
-5.9655282e-07
1.9242543e-06
-5.6038238e-07
1.9435821e-06
-5.2409704e-07
1.9625413e-06
-4.8769104e-07
1.981137e-06
-4.5115723e-07
1.9993739e-06
-4.144893e-07
2.0172564e-06
-3.7768083e-07
2.0347883e-06
-3.4072298e-07
2.0519717e-06
-3.036089e-07
2.0688098e-06
-2.66329e-07
2.0853034e-06
-2.2887558e-07
2.1014531e-06
-1.9123942e-07
2.1172576e-06
-1.5341113e-07
2.1327121e-06
-1.1538193e-07
2.1478122e-06
-7.7143097e-08
2.1625546e-06
-3.8685163e-08
2.1769508e-06
2.1910388e-06
-2.3187253e-06
-3.2951781e-07
-2.3115612e-06
-2.7975524e-07
-2.3031642e-06
-2.301045e-07
-2.2935653e-06
-1.8060762e-07
-2.2827965e-06
-1.3130366e-07
-2.2708903e-06
-8.2229532e-08
-2.2578785e-06
-3.3416696e-08
-2.243798e-06
1.5082283e-08
-2.2286779e-06
6.3255416e-08
-2.2125529e-06
1.1106803e-07
-2.1954565e-06
1.5849182e-07
-2.1774225e-06
2.0550049e-07
-2.1584839e-06
2.5206962e-07
-2.1386739e-06
2.9817659e-07
-2.118026e-06
3.4380142e-07
-2.0965728e-06
3.8892469e-07
-2.0743463e-06
4.3352938e-07
-2.0513788e-06
4.7759952e-07
-2.0277015e-06
5.2112092e-07
-2.003345e-06
5.640814e-07
-1.9783401e-06
6.0646964e-07
-1.9527163e-06
6.4827589e-07
-1.926503e-06
6.8949159e-07
-1.8997281e-06
7.3010999e-07
-1.8724195e-06
7.701252e-07
-1.8446041e-06
8.0953302e-07
-1.8163076e-06
8.4832945e-07
-1.7875563e-06
8.8651268e-07
-1.7583739e-06
9.2408117e-07
-1.7287839e-06
9.6103403e-07
-1.6988095e-06
9.9737262e-07
-1.6684731e-06
1.0330986e-06
-1.6377941e-06
1.0682128e-06
-1.6067939e-06
1.1027196e-06
-1.5754914e-06
1.1366226e-06
-1.5439045e-06
1.1699259e-06
-1.5120512e-06
1.2026346e-06
-1.4799477e-06
1.2347548e-06
-1.4476099e-06
1.266292e-06
-1.4150523e-06
1.2972529e-06
-1.3822877e-06
1.3276446e-06
-1.3493301e-06
1.3574749e-06
-1.3161917e-06
1.3867514e-06
-1.2828822e-06
1.4154808e-06
-1.2494133e-06
1.4436735e-06
-1.2157932e-06
1.4713361e-06
-1.1820306e-06
1.4984787e-06
-1.1481338e-06
1.5251089e-06
-1.1141085e-06
1.5512369e-06
-1.0799619e-06
1.57687e-06
-1.0456983e-06
1.6020176e-06
-1.011323e-06
1.6266891e-06
-9.7683831e-07
1.6508925e-06
-9.4224805e-07
1.6746368e-06
-9.0755442e-07
1.6979306e-06
-8.7275821e-07
1.7207822e-06
-8.3786026e-07
1.7432003e-06
-8.028613e-07
1.765192e-06
-7.6776001e-07
1.7867658e-06
-7.3255554e-07
1.8079291e-06
-6.9724552e-07
1.8286881e-06
-6.6182708e-07
1.8490506e-06
-6.2629808e-07
1.8690227e-06
-5.9065486e-07
1.8886111e-06
-5.5489271e-07
1.90782e-06
-5.1900739e-07
1.9266558e-06
-4.8299284e-07
1.9451224e-06
-4.4684471e-07
1.9632258e-06
-4.105561e-07
1.9809674e-06
-3.7411984e-07
1.9983521e-06
-3.3753005e-07
2.015382e-06
-3.0077851e-07
2.0320582e-06
-2.6385855e-07
2.0483833e-06
-2.2676119e-07
2.0643559e-06
-1.894791e-07
2.0799751e-06
-1.5200298e-07
2.0952363e-06
-1.1432541e-07
2.110134e-06
-7.6437823e-08
2.1246672e-06
-3.8332119e-08
2.138845e-06
2.1527064e-06
-2.2651618e-06
-3.34678e-07
-2.2587641e-06
-2.8615295e-07
-2.2511574e-06
-2.3771109e-07
-2.2423715e-06
-1.8939372e-07
-2.2324364e-06
-1.4123889e-07
-2.2213821e-06
-9.32837e-08
-2.2092369e-06
-4.5561971e-08
-2.1960415e-06
1.8865913e-09
-2.1818189e-06
4.9032663e-08
-2.1666029e-06
9.5852131e-08
-2.1504256e-06
1.4231452e-07
-2.1333192e-06
1.8839407e-07
-2.1153154e-06
2.3406559e-07
-2.0964459e-06
2.7930719e-07
-2.0767425e-06
3.2409798e-07
-2.0562361e-06
3.6841846e-07
-2.034958e-06
4.1225128e-07
-2.012939e-06
4.5558036e-07
-1.990209e-06
4.9839099e-07
-1.9667979e-06
5.4067032e-07
-1.9427348e-06
5.824064e-07
-1.9180481e-06
6.2358935e-07
-1.8927665e-06
6.6421018e-07
-1.8669172e-06
7.042606e-07
-1.8405263e-06
7.4373452e-07
-1.8136209e-06
7.8262752e-07
-1.7862255e-06
8.2093396e-07
-1.7583651e-06
8.5865208e-07
-1.730063e-06
8.9577916e-07
-1.7013431e-06
9.3231378e-07
-1.6722268e-06
9.6825634e-07
-1.6427356e-06
1.0036072e-06
-1.6128905e-06
1.0383676e-06
-1.5827105e-06
1.0725394e-06
-1.5522142e-06
1.1061264e-06
-1.5214204e-06
1.139132e-06
-1.490346e-06
1.1715602e-06
-1.459007e-06
1.2034157e-06
-1.4274188e-06
1.2347038e-06
-1.3955959e-06
1.2654301e-06
-1.3635526e-06
1.2956013e-06
-1.3313005e-06
1.3252229e-06
-1.2988521e-06
1.3543029e-06
-1.2662184e-06
1.3828474e-06
-1.2334096e-06
1.4108645e-06
-1.2004357e-06
1.4383623e-06
-1.1673043e-06
1.4653474e-06
-1.1340235e-06
1.4918284e-06
-1.1006006e-06
1.5178138e-06
-1.0670413e-06
1.5433111e-06
-1.0333515e-06
1.5683274e-06
-9.9953518e-07
1.5928729e-06
-9.6559682e-07
1.616954e-06
-9.315392e-07
1.6405792e-06
-8.973653e-07
1.6637567e-06
-8.6307623e-07
1.6864936e-06
-8.2867351e-07
1.7087974e-06
-7.9415754e-07
1.7306761e-06
-7.5952801e-07
1.7521364e-06
-7.2478418e-07
1.7731848e-06
-6.899248e-07
1.7938287e-06
-6.5494742e-07
1.8140732e-06
-6.1984956e-07
1.833925e-06
-5.8462832e-07
1.8533897e-06
-5.4927987e-07
1.8724713e-06
-5.1379996e-07
1.8911762e-06
-4.7818446e-07
1.9095071e-06
-4.4242778e-07
1.9274688e-06
-4.0652483e-07
1.9450644e-06
-3.7046908e-07
1.9622967e-06
-3.3425456e-07
1.9791674e-06
-2.9787482e-07
1.9956783e-06
-2.6132246e-07
2.0118313e-06
-2.245903e-07
2.027624e-06
-1.8767126e-07
2.0430558e-06
-1.5055708e-07
2.0581222e-06
-1.1324061e-07
2.0728179e-06
-7.571344e-08
2.0871399e-06
-3.7969243e-08
2.1011009e-06
2.1147374e-06
-2.2127654e-06
-3.3914074e-07
-2.2070914e-06
-2.9182708e-07
-2.2002325e-06
-2.4456984e-07
-2.1922166e-06
-1.9740945e-07
-2.1830715e-06
-1.5038404e-07
-2.172826e-06
-1.0352932e-07
-2.161509e-06
-5.6878728e-08
-2.1491555e-06
-1.046697e-08
-2.1357878e-06
3.5664985e-08
-2.1214399e-06
8.1503884e-08
-2.1061413e-06
1.2701613e-07
-2.0899229e-06
1.7217543e-07
-2.0728146e-06
2.1695755e-07
-2.054847e-06
2.6133951e-07
-2.0360501e-06
3.0530094e-07
-2.0164539e-06
3.4882226e-07
-1.9960881e-06
3.9188551e-07
-1.9749821e-06
4.3447455e-07
-1.953165e-06
4.7657381e-07
-1.9306652e-06
5.1817092e-07
-1.9075112e-06
5.5925248e-07
-1.8837306e-06
5.9980845e-07
-1.85935e-06
6.3982949e-07
-1.8343957e-06
6.793062e-07
-1.8088947e-06
7.1823346e-07
-1.7828708e-06
7.5660413e-07
-1.75635e-06
7.944132e-07
-1.7293548e-06
8.3165683e-07
-1.701909e-06
8.6833349e-07
-1.674035e-06
9.0443978e-07
-1.6457546e-06
9.3997574e-07
-1.6170876e-06
9.749404e-07
-1.5880549e-06
1.0093349e-06
-1.5586756e-06
1.0431603e-06
-1.5289684e-06
1.0764191e-06
-1.4989501e-06
1.1091138e-06
-1.4686383e-06
1.1412483e-06
-1.4380483e-06
1.1728257e-06
-1.4071961e-06
1.2038518e-06
-1.3760956e-06
1.2343294e-06
-1.3447597e-06
1.2642655e-06
-1.3132019e-06
1.293665e-06
-1.2814331e-06
1.3225345e-06
-1.2494658e-06
1.3508797e-06
-1.2173094e-06
1.3787078e-06
-1.184973e-06
1.4060259e-06
-1.1524656e-06
1.4328402e-06
-1.1197951e-06
1.4591576e-06
-1.0869687e-06
1.4849873e-06
-1.0539923e-06
1.5103345e-06
-1.0208723e-06
1.5352076e-06
-9.8761304e-07
1.5596135e-06
-9.542183e-07
1.5835592e-06
-9.2069221e-07
1.6070531e-06
-8.8703707e-07
1.6301015e-06
-8.5325509e-07
1.6527114e-06
-8.1934818e-07
1.6748906e-06
-7.8531653e-07
1.6966443e-06
-7.5116063e-07
1.7179805e-06
-7.1688008e-07
1.7389046e-06
-6.8247427e-07
1.7594226e-06
-6.47941e-07
1.7795398e-06
-6.1327831e-07
1.7992622e-06
-5.7848366e-07
1.8185953e-06
-5.4355367e-07
1.8375417e-06
-5.0848508e-07
1.8561074e-06
-4.7327396e-07
1.8742959e-06
-4.3791515e-07
1.89211e-06
-4.0240459e-07
1.9095537e-06
-3.6673616e-07
1.9266281e-06
-3.3090412e-07
1.9433355e-06
-2.9490334e-07
1.9596777e-06
-2.5872711e-07
1.9756551e-06
-2.2236832e-07
1.9912652e-06
-1.8582005e-07
2.0065078e-06
-1.4907636e-07
2.021378e-06
-1.1212908e-07
2.0358705e-06
-7.4971726e-08
2.0499824e-06
-3.7597997e-08
2.0637265e-06
2.0771395e-06
-2.1615191e-06
-3.4294661e-07
-2.1565277e-06
-2.9681841e-07
-2.1503755e-06
-2.5072211e-07
-2.1430885e-06
-2.0469631e-07
-2.1346936e-06
-1.5877903e-07
-2.1252174e-06
-1.1300543e-07
-2.114687e-06
-6.74093e-08
-2.1031325e-06
-2.2021431e-08
-2.0905822e-06
2.3114675e-08
-2.0770631e-06
6.7984957e-08
-2.0626045e-06
1.1255765e-07
-2.0472354e-06
1.5680642e-07
-2.0309848e-06
2.0070672e-07
-2.0138816e-06
2.4423655e-07
-1.9959549e-06
2.873742e-07
-1.9772329e-06
3.3010046e-07
-1.9577444e-06
3.7239698e-07
-1.9375173e-06
4.1424725e-07
-1.91658e-06
4.5563624e-07
-1.8949594e-06
4.9655007e-07
-1.8726827e-06
5.3697584e-07
-1.8497766e-06
5.769024e-07
-1.8262667e-06
6.1631965e-07
-1.8021794e-06
6.552194e-07
-1.7775396e-06
6.9359336e-07
-1.7523712e-06
7.3143541e-07
-1.7266983e-06
7.6874026e-07
-1.7005435e-06
8.0550244e-07
-1.6739299e-06
8.4171952e-07
-1.6468787e-06
8.7738871e-07
-1.6194111e-06
9.1250832e-07
-1.5915478e-06
9.4707665e-07
-1.5633076e-06
9.8109507e-07
-1.53471e-06
1.0145626e-06
-1.505773e-06
1.047482e-06
-1.4765134e-06
1.0798541e-06
-1.4469477e-06
1.1116827e-06
-1.4170924e-06
1.1429702e-06
-1.386961e-06
1.1737203e-06
-1.3565689e-06
1.2039374e-06
-1.325929e-06
1.2336256e-06
-1.2950538e-06
1.2627895e-06
-1.263955e-06
1.2914356e-06
-1.2326437e-06
1.3195688e-06
-1.2011302e-06
1.3471945e-06
-1.169424e-06
1.3743197e-06
-1.1375333e-06
1.4009495e-06
-1.1054669e-06
1.4270914e-06
-1.0732313e-06
1.4527519e-06
-1.0408334e-06
1.477937e-06
-1.0082787e-06
1.5026529e-06
-9.7557282e-07
1.5269074e-06
-9.4271942e-07
1.550706e-06
-9.0972304e-07
1.5740564e-06
-8.7658585e-07
1.5969643e-06
-8.4331064e-07
1.6194365e-06
-8.0989909e-07
1.6414791e-06
-7.7635289e-07
1.6630981e-06
-7.4267197e-07
1.6842996e-06
-7.0885664e-07
1.7050891e-06
-6.7490628e-07
1.7254721e-06
-6.4081995e-07
1.7454539e-06
-6.0659561e-07
1.7650381e-06
-5.7223111e-07
1.7842307e-06
-5.377244e-07
1.8030348e-06
-5.0307207e-07
1.8214548e-06
-4.6826998e-07
1.8394939e-06
-4.3331549e-07
1.8571554e-06
-3.9820301e-07
1.8744415e-06
-3.629281e-07
1.8913531e-06
-3.2748612e-07
1.9078934e-06
-2.9187116e-07
1.9240627e-06
-2.5607737e-07
1.9398609e-06
-2.200991e-07
1.955287e-06
-1.8393002e-07
1.9703385e-06
-1.4756357e-07
1.9850118e-06
-1.1099303e-07
1.9993002e-06
-7.4213486e-08
2.013203e-06
-3.7217833e-08
2.0267309e-06
2.0399217e-06
-2.1114051e-06
-3.4613379e-07
-2.1070578e-06
-3.01166e-07
-2.1015732e-06
-2.5620644e-07
-2.0949764e-06
-2.1129319e-07
-2.0872921e-06
-1.6646336e-07
-2.0785458e-06
-1.2175184e-07
-2.0687631e-06
-7.7191879e-08
-2.0579717e-06
-3.2812711e-08
-2.0461993e-06
1.134219e-08
-2.0334707e-06
5.525647e-08
-2.0198145e-06
9.8901186e-08
-2.0052579e-06
1.4224976e-07
-1.9898286e-06
1.8527742e-07
-1.9735541e-06
2.2796201e-07
-1.9564622e-06
2.7028225e-07
-1.93858e-06
3.1221818e-07
-1.9199347e-06
3.5375169e-07
-1.9005537e-06
3.9486616e-07
-1.880463e-06
4.3554564e-07
-1.8596897e-06
4.7577704e-07
-1.8382595e-06
5.1554575e-07
-1.8161983e-06
5.5484086e-07
-1.7935308e-06
5.9365241e-07
-1.7702818e-06
6.319702e-07
-1.7464758e-06
6.6978736e-07
-1.7221359e-06
7.0709563e-07
-1.6972853e-06
7.4388962e-07
-1.6719465e-06
7.8016349e-07
-1.6461411e-06
8.1591428e-07
-1.6198904e-06
8.5113811e-07
-1.5932145e-06
8.8583244e-07
-1.5661338e-06
9.1999591e-07
-1.5386666e-06
9.5362787e-07
-1.5108317e-06
9.8672768e-07
-1.4826468e-06
1.019297e-06
-1.4541288e-06
1.0513361e-06
-1.4252936e-06
1.0828473e-06
-1.3961567e-06
1.1138334e-06
-1.366733e-06
1.1442966e-06
-1.3370359e-06
1.1742401e-06
-1.3070792e-06
1.2036686e-06
-1.2768749e-06
1.2325855e-06
-1.2464348e-06
1.2609958e-06
-1.2157699e-06
1.2889039e-06
-1.1848908e-06
1.3163153e-06
-1.153806e-06
1.3432349e-06
-1.1225251e-06
1.3696685e-06
-1.0910561e-06
1.3956223e-06
-1.0594057e-06
1.4211015e-06
-1.0275809e-06
1.4461121e-06
-9.9558767e-07
1.4706598e-06
-9.6343139e-07
1.4947509e-06
-9.3111666e-07
1.5183913e-06
-8.9864696e-07
1.5415867e-06
-8.660259e-07
1.5643433e-06
-8.3325648e-07
1.586667e-06
-8.0034085e-07
1.6085632e-06
-7.6727973e-07
1.6300371e-06
-7.3407473e-07
1.6510946e-06
-7.0072619e-07
1.6717403e-06
-6.6723323e-07
1.6919794e-06
-6.3359585e-07
1.711816e-06
-5.9981309e-07
1.7312552e-06
-5.6588268e-07
1.7503e-06
-5.3180245e-07
1.7689548e-06
-4.9756996e-07
1.7872226e-06
-4.6318289e-07
1.8051066e-06
-4.2863658e-07
1.8226091e-06
-3.9392766e-07
1.8397323e-06
-3.59052e-07
1.8564776e-06
-3.2400527e-07
1.8728465e-06
-2.8878208e-07
1.8888394e-06
-2.5337743e-07
1.904456e-06
-2.1778618e-07
1.9196957e-06
-1.820024e-07
1.9345548e-06
-1.4602054e-07
1.9490298e-06
-1.0983481e-07
1.9631144e-06
-7.3440242e-08
1.976808e-06
-3.6830501e-08
1.9901216e-06
2.0030912e-06
-2.0624062e-06
-3.4873942e-07
-2.0586654e-06
-3.0490693e-07
-2.0538117e-06
-2.6106023e-07
-2.0478676e-06
-2.1723717e-07
-2.0408568e-06
-1.7347401e-07
-2.0328034e-06
-1.2980538e-07
-2.0237312e-06
-8.6263987e-08
-2.0136639e-06
-4.288002e-08
-2.0026343e-06
3.1251769e-10
-1.9906602e-06
4.3282376e-08
-1.9777701e-06
8.601135e-08
-1.9639905e-06
1.2847016e-07
-1.9493474e-06
1.7063431e-07
-1.933867e-06
2.1248167e-07
-1.9175759e-06
2.5399103e-07
-1.9004998e-06
2.9514216e-07
-1.8826652e-06
3.3591711e-07
-1.8640976e-06
3.7629875e-07
-1.844823e-06
4.1627101e-07
-1.8248663e-06
4.5582032e-07
-1.8042527e-06
4.949322e-07
-1.7830072e-06
5.3359522e-07
-1.7611531e-06
5.7179842e-07
-1.7387153e-06
6.0953252e-07
-1.7157163e-06
6.4678826e-07
-1.6921793e-06
6.8355864e-07
-1.6681264e-06
7.1983696e-07
-1.6435796e-06
7.5561642e-07
-1.6185594e-06
7.9089423e-07
-1.5930866e-06
8.2566518e-07
-1.5671811e-06
8.5992664e-07
-1.5408622e-06
8.936772e-07
-1.5141485e-06
9.2691395e-07
-1.4870577e-06
9.5963681e-07
-1.4596074e-06
9.9184673e-07
-1.4318137e-06
1.0235426e-06
-1.403693e-06
1.0547267e-06
-1.3752597e-06
1.0854002e-06
-1.3465288e-06
1.1155657e-06
-1.3175139e-06
1.1452253e-06
-1.2882277e-06
1.1743823e-06
-1.258683e-06
1.2030407e-06
-1.2288913e-06
1.2312038e-06
-1.198863e-06
1.2588756e-06
-1.1686083e-06
1.2860606e-06
-1.1381374e-06
1.3127639e-06
-1.1074581e-06
1.3389896e-06
-1.0765795e-06
1.3647436e-06
-1.0455082e-06
1.3900303e-06
-1.014251e-06
1.4148552e-06
-9.828145e-07
1.4392233e-06
-9.5120425e-07
1.4631403e-06
-9.1942437e-07
1.4866116e-06
-8.8747931e-07
1.5096419e-06
-8.5537288e-07
1.5322368e-06
-8.231077e-07
1.554402e-06
-7.9068612e-07
1.5761419e-06
-7.581105e-07
1.5974613e-06
-7.2538128e-07
1.6183655e-06
-6.9250021e-07
1.6388592e-06
-6.5946627e-07
1.6589458e-06
-6.2628044e-07
1.67863e-06
-5.9294115e-07
1.6979161e-06
-5.5944738e-07
1.7168063e-06
-5.2579747e-07
1.7353047e-06
-4.9198878e-07
1.753414e-06
-4.5801964e-07
1.7711374e-06
-4.2388629e-07
1.7884759e-06
-3.8958549e-07
1.8054317e-06
-3.551141e-07
1.8220061e-06
-3.2046759e-07
1.8382001e-06
-2.8564176e-07
1.8540135e-06
-2.506322e-07
1.8694465e-06
-2.1543367e-07
1.8844972e-06
-1.8004188e-07
1.8991632e-06
-1.4445121e-07
1.9134394e-06
-1.0865698e-07
1.92732e-06
-7.2653379e-08
1.9408048e-06
-3.6436257e-08
1.9539045e-06
1.966655e-06
-2.0145039e-06
-3.5079833e-07
-2.0113348e-06
-3.0807588e-07
-2.0070763e-06
-2.6531869e-07
-2.0017494e-06
-2.2256401e-07
-1.9953759e-06
-1.7984736e-07
-1.9879794e-06
-1.3720219e-07
-1.9795817e-06
-9.4661579e-08
-1.9702059e-06
-5.2256059e-08
-1.9598832e-06
-1.0010136e-08
-1.9486279e-06
3.2027059e-08
-1.9364695e-06
7.3852653e-08
-1.9234324e-06
1.1543281e-07
-1.9095415e-06
1.5674352e-07
-1.8948219e-06
1.9776209e-07
-1.8792985e-06
2.3846766e-07
-1.8629969e-06
2.7884025e-07
-1.8459409e-06
3.1886139e-07
-1.8281563e-06
3.5851376e-07
-1.8096666e-06
3.9778187e-07
-1.7904969e-06
4.3665043e-07
-1.7706709e-06
4.7510618e-07
-1.7502124e-06
5.1313685e-07
-1.7291452e-06
5.5073115e-07
-1.7074913e-06
5.8787856e-07
-1.6852738e-06
6.2457071e-07
-1.6625141e-06
6.6079893e-07
-1.6392345e-06
6.9655738e-07
-1.6154559e-06
7.3183794e-07
-1.5911983e-06
7.6663651e-07
-1.5664817e-06
8.009486e-07
-1.5413257e-06
8.3477095e-07
-1.5157489e-06
8.6810024e-07
-1.4897689e-06
9.0093404e-07
-1.4634042e-06
9.3327231e-07
-1.4366707e-06
9.6511328e-07
-1.4095851e-06
9.9645708e-07
-1.3821625e-06
1.0273042e-06
-1.3544183e-06
1.0576559e-06
-1.3263663e-06
1.0875135e-06
-1.2980197e-06
1.1168789e-06
-1.2693921e-06
1.1457546e-06
-1.2404948e-06
1.1741435e-06
-1.2113401e-06
1.2020489e-06
-1.1819383e-06
1.229474e-06
-1.1522998e-06
1.2564219e-06
-1.1224332e-06
1.2828974e-06
-1.0923484e-06
1.3089046e-06
-1.0620529e-06
1.3344482e-06
-1.0315544e-06
1.3595316e-06
-1.0008598e-06
1.3841602e-06
-9.6997491e-07
1.4083386e-06
-9.3890594e-07
1.4320712e-06
-9.076573e-07
1.4553633e-06
-8.7623431e-07
1.4782184e-06
-8.4463939e-07
1.5006421e-06
-8.1287687e-07
1.5226394e-06
-7.8094873e-07
1.5442137e-06
-7.4885758e-07
1.5653702e-06
-7.1660483e-07
1.5861126e-06
-6.841911e-07
1.6064457e-06
-6.5161771e-07
1.6263722e-06
-6.1888404e-07
1.6458965e-06
-5.8599022e-07
1.665022e-06
-5.5293515e-07
1.6837513e-06
-5.1971788e-07
1.7020872e-06
-4.863364e-07
1.7200326e-06
-4.5278789e-07
1.7375893e-06
-4.1907163e-07
1.7547592e-06
-3.8518347e-07
1.7715437e-06
-3.5112006e-07
1.7879428e-06
-3.1687905e-07
1.8039587e-06
-2.8245576e-07
1.8195907e-06
-2.4784631e-07
1.8348373e-06
-2.1304644e-07
1.8496977e-06
-1.7805232e-07
1.8641686e-06
-1.4285807e-07
1.8782453e-06
-1.0746088e-07
1.8919225e-06
-7.1854723e-08
1.9051984e-06
-3.6035986e-08
1.9180856e-06
1.930619e-06
-1.9676803e-06
-3.5234432e-07
-1.9650491e-06
-3.1070687e-07
-1.9613518e-06
-2.6901603e-07
-1.9566082e-06
-2.2730783e-07
-1.9508391e-06
-1.8561669e-07
-1.944065e-06
-1.439762e-07
-1.9363083e-06
-1.0241814e-07
-1.9275915e-06
-6.0972814e-08
-1.9179366e-06
-1.9665155e-08
-1.9073688e-06
2.1459171e-08
-1.8959094e-06
6.2393417e-08
-1.8835822e-06
1.0310584e-07
-1.8704111e-06
1.435726e-07
-1.8564203e-06
1.8377113e-07
-1.8416334e-06
2.2368082e-07
-1.8260741e-06
2.6328111e-07
-1.8097666e-06
3.0255368e-07
-1.7927342e-06
3.4148151e-07
-1.7750003e-06
3.8004786e-07
-1.7565888e-06
4.1823892e-07
-1.7375223e-06
4.5603992e-07
-1.7178237e-06
4.9343851e-07
-1.6975157e-06
5.3042283e-07
-1.6766198e-06
5.6698295e-07
-1.6551582e-06
6.0310922e-07
-1.6331522e-06
6.3879276e-07
-1.6106218e-06
6.7402704e-07
-1.5875883e-06
7.0880446e-07
-1.5640713e-06
7.4311941e-07
-1.5400897e-06
7.7696718e-07
-1.5156624e-06
8.1034364e-07
-1.4908074e-06
8.4324534e-07
-1.465543e-06
8.756697e-07
-1.4398856e-06
9.0761485e-07
-1.4138519e-06
9.3907966e-07
-1.387458e-06
9.7006278e-07
-1.3607185e-06
1.000565e-06
-1.3336483e-06
1.0305857e-06
-1.3062608e-06
1.0601259e-06
-1.2785697e-06
1.0891881e-06
-1.2505881e-06
1.1177728e-06
-1.2223269e-06
1.1458825e-06
-1.1937981e-06
1.1735204e-06
-1.1650125e-06
1.2006883e-06
-1.13598e-06
1.2273896e-06
-1.1067099e-06
1.2536276e-06
-1.0772113e-06
1.279406e-06
-1.0474921e-06
1.3047286e-06
-1.0175595e-06
1.3295994e-06
-9.8742106e-07
1.354022e-06
-9.5708334e-07
1.3780005e-06
-9.265511e-07
1.401539e-06
-8.9583005e-07
1.4246419e-06
-8.6492503e-07
1.4473134e-06
-8.3383977e-07
1.4695567e-06
-8.025775e-07
1.4913769e-06
-7.711414e-07
1.5127777e-06
-7.3953319e-07
1.5337622e-06
-7.0775556e-07
1.5543353e-06
-6.758102e-07
1.5744999e-06
-6.436971e-07
1.594259e-06
-6.1141698e-07
1.6136163e-06
-5.789698e-07
1.632575e-06
-5.463553e-07
1.6511369e-06
-5.1357252e-07
1.6693044e-06
-4.806199e-07
1.6870801e-06
-4.4749651e-07
1.7044656e-06
-4.1419964e-07
1.7214623e-06
-3.8072746e-07
1.7380711e-06
-3.4707713e-07
1.7542922e-06
-3.1324499e-07
1.770127e-06
-2.7922862e-07
1.7855742e-06
-2.4502415e-07
1.8006327e-06
-2.1062763e-07
1.8153013e-06
-1.7603554e-07
1.8295765e-06
-1.4124327e-07
1.843453e-06
-1.0624801e-07
1.8569273e-06
-7.104472e-08
1.8699951e-06
-3.5630214e-08
1.8826711e-06
1.8949888e-06
-1.9219173e-06
-3.5340808e-07
-1.9197921e-06
-3.1283201e-07
-1.9166239e-06
-2.7218424e-07
-1.9124311e-06
-2.3150065e-07
-1.9072328e-06
-1.9081485e-07
-1.9010494e-06
-1.5015955e-07
-1.8939014e-06
-1.0956614e-07
-1.8858095e-06
-6.9064501e-08
-1.8767926e-06
-2.8681935e-08
-1.8668791e-06
1.1545746e-08
-1.8560865e-06
5.1600568e-08
-1.8444375e-06
9.1456957e-08
-1.831955e-06
1.3109018e-07
-1.8186618e-06
1.7047809e-07
-1.8045805e-06
2.0959947e-07
-1.789734e-06
2.4843457e-07
-1.7741451e-06
2.8696478e-07
-1.7578359e-06
3.2517253e-07
-1.7408297e-06
3.6304164e-07
-1.7231481e-06
4.0055733e-07
-1.704814e-06
4.3770536e-07
-1.6858484e-06
4.7447295e-07
-1.6662737e-06
5.1084814e-07
-1.6461105e-06
5.468197e-07
-1.6253802e-06
5.8237903e-07
-1.6041035e-06
6.1751618e-07
-1.5822998e-06
6.5222317e-07
-1.5599888e-06
6.8649344e-07
-1.5371905e-06
7.2032098e-07
-1.5139227e-06
7.5369977e-07
-1.4902044e-06
7.8662495e-07
-1.4660526e-06
8.1909398e-07
-1.4414847e-06
8.5110182e-07
-1.4165173e-06
8.8264752e-07
-1.3911662e-06
9.1372849e-07
-1.3654476e-06
9.4434409e-07
-1.3393749e-06
9.744923e-07
-1.3129635e-06
1.0041743e-06
-1.2862272e-06
1.0333896e-06
-1.2591787e-06
1.0621394e-06
-1.2318298e-06
1.0904242e-06
-1.2041938e-06
1.1182465e-06
-1.1762804e-06
1.145607e-06
-1.1481005e-06
1.1725087e-06
-1.1196648e-06
1.1989536e-06
-1.0909823e-06
1.2249448e-06
-1.0620619e-06
1.2504854e-06
-1.0329114e-06
1.2755783e-06
-1.0035382e-06
1.3002265e-06
-9.7394992e-07
1.3244338e-06
-9.4415319e-07
1.3482034e-06
-9.1415304e-07
1.3715391e-06
-8.8395561e-07
1.3944443e-06
-8.5356503e-07
1.4169227e-06
-8.2298555e-07
1.4389774e-06
-7.9222087e-07
1.4606126e-06
-7.6127434e-07
1.4818311e-06
-7.3014889e-07
1.5026366e-06
-6.9884602e-07
1.5230324e-06
-6.6736736e-07
1.5430215e-06
-6.3571457e-07
1.5626063e-06
-6.0388847e-07
1.5817902e-06
-5.7188905e-07
1.6005758e-06
-5.3971625e-07
1.6189643e-06
-5.0737024e-07
1.636958e-06
-4.7484936e-07
1.6545592e-06
-4.4215269e-07
1.6717687e-06
-4.0927881e-07
1.6885881e-06
-3.7622505e-07
1.7050176e-06
-3.4299049e-07
1.7210576e-06
-3.0957129e-07
1.7367079e-06
-2.7596525e-07
1.751968e-06
-2.4216921e-07
1.7668369e-06
-2.0818035e-07
1.7813122e-06
-1.7399498e-07
1.795391e-06
-1.396098e-07
1.8090679e-06
-1.0502068e-07
1.8223383e-06
-7.0225276e-08
1.8351997e-06
-3.521957e-08
1.8476652e-06
1.8597694e-06
-1.8771962e-06
-3.5402082e-07
-1.8755467e-06
-3.1448148e-07
-1.872877e-06
-2.7485405e-07
-1.8692039e-06
-2.3517356e-07
-1.8645459e-06
-1.9547263e-07
-1.8589217e-06
-1.5578392e-07
-1.85235e-06
-1.1613758e-07
-1.8448515e-06
-7.6563232e-08
-1.8364447e-06
-3.7088905e-08
-1.8271541e-06
2.2552546e-09
-1.816997e-06
4.1443654e-08
-1.8059957e-06
8.0455374e-08
-1.7941714e-06
1.1926608e-07
-1.7815459e-06
1.5785251e-07
-1.7681411e-06
1.9619441e-07
-1.7539781e-06
2.342717e-07
-1.7390792e-06
2.7206585e-07
-1.7234654e-06
3.0955873e-07
-1.7071587e-06
3.4673491e-07
-1.6901806e-06
3.8357916e-07
-1.6725518e-06
4.2007662e-07
-1.6542936e-06
4.5621492e-07
-1.6354271e-06
4.9198134e-07
-1.6159722e-06
5.2736503e-07
-1.5959492e-06
5.6235575e-07
-1.5753782e-06
5.9694498e-07
-1.5542784e-06
6.3112352e-07
-1.5326684e-06
6.6488382e-07
-1.5105673e-06
6.9821962e-07
-1.4879932e-06
7.3112542e-07
-1.4649641e-06
7.63596e-07
-1.441496e-06
7.9562594e-07
-1.4176066e-06
8.2721227e-07
-1.3933113e-06
8.5835214e-07
-1.3686262e-06
8.8904362e-07
-1.3435661e-06
9.1928422e-07
-1.3181459e-06
9.4907223e-07
-1.2923794e-06
9.7840786e-07
-1.2662801e-06
1.00729e-06
-1.2398603e-06
1.0357196e-06
-1.2131328e-06
1.0636966e-06
-1.186109e-06
1.0912225e-06
-1.1588e-06
1.1182979e-06
-1.131216e-06
1.1449245e-06
-1.1033675e-06
1.1711049e-06
-1.0752638e-06
1.1968411e-06
-1.046913e-06
1.2221349e-06
-1.0183234e-06
1.2469887e-06
-9.8950343e-07
1.2714065e-06
-9.6045911e-07
1.2953896e-06
-9.311975e-07
1.3189417e-06
-9.0172446e-07
1.3420661e-06
-8.7204548e-07
1.3647657e-06
-8.4216546e-07
1.3870427e-06
-8.1208905e-07
1.4089012e-06
-7.8181942e-07
1.4303429e-06
-7.5136045e-07
1.4513723e-06
-7.2071526e-07
1.4719912e-06
-6.8988533e-07
1.4922023e-06
-6.5887336e-07
1.5120094e-06
-6.2768065e-07
1.5314138e-06
-5.96309e-07
1.5504183e-06
-5.6475717e-07
1.5690246e-06
-5.3302764e-07
1.5872342e-06
-5.0111839e-07
1.6050493e-06
-4.6903062e-07
1.6224711e-06
-4.367626e-07
1.639501e-06
-4.0431384e-07
1.656139e-06
-3.7168162e-07
1.6723855e-06
-3.3886522e-07
1.6882409e-06
-3.0586195e-07
1.7037045e-06
-2.7267004e-07
1.718776e-06
-2.3928613e-07
1.733453e-06
-2.0570844e-07
1.7477347e-06
-1.7193354e-07
1.761616e-06
-1.3795879e-07
1.775093e-06
-1.0378056e-07
1.7881603e-06
-6.9396942e-08
1.800816e-06
-3.4804244e-08
1.8130727e-06
1.8249651e-06
-1.8334992e-06
-3.5421055e-07
-1.8322962e-06
-3.1568437e-07
-1.8300952e-06
-2.7705501e-07
-1.8269127e-06
-2.3835627e-07
-1.8227652e-06
-1.9962012e-07
-1.8176705e-06
-1.6087864e-07
-1.8116464e-06
-1.2216179e-07
-1.804711e-06
-8.3498465e-08
-1.7968832e-06
-4.4916753e-08
-1.7881869e-06
-6.4410923e-09
-1.7786359e-06
3.1892401e-08
-1.7682528e-06
7.0072571e-08
-1.757058e-06
1.0807107e-07
-1.7450716e-06
1.4586646e-07
-1.7323146e-06
1.8343735e-07
-1.7188073e-06
2.2076443e-07
-1.7045706e-06
2.5782893e-07
-1.6896252e-06
2.9461331e-07
-1.6739918e-06
3.3110157e-07
-1.6576902e-06
3.672775e-07
-1.640742e-06
4.0312837e-07
-1.6231659e-06
4.3863898e-07
-1.6049827e-06
4.7379824e-07
-1.5862122e-06
5.0859458e-07
-1.5668737e-06
5.4301712e-07
-1.5469855e-06
5.7705697e-07
-1.5265673e-06
6.1070503e-07
-1.505637e-06
6.4395362e-07
-1.4842131e-06
6.7679581e-07
-1.4623125e-06
7.0922501e-07
-1.4399522e-06
7.4123551e-07
-1.4171494e-06
7.728231e-07
-1.3939205e-06
8.039832e-07
-1.3702804e-06
8.3471239e-07
-1.3462448e-06
8.6500789e-07
-1.3218281e-06
8.9486735e-07
-1.2970449e-06
9.2428895e-07
-1.2719084e-06
9.5327141e-07
-1.2464321e-06
9.8181393e-07
-1.2206287e-06
1.009916e-06
-1.1945097e-06
1.0375778e-06
-1.1680871e-06
1.0647997e-06
-1.1413712e-06
1.0915823e-06
-1.114373e-06
1.1179263e-06
-1.0871018e-06
1.1438338e-06
-1.0595673e-06
1.1693067e-06
-1.0317782e-06
1.1943456e-06
-1.0037426e-06
1.2189532e-06
-9.7546748e-07
1.2431314e-06
-9.4696098e-07
1.266883e-06
-9.1822909e-07
1.29021e-06
-8.8927803e-07
1.3131151e-06
-8.601128e-07
1.3356008e-06
-8.3073954e-07
1.3576689e-06
-8.0116173e-07
1.3793232e-06
-7.71384e-07
1.4005653e-06
-7.4141027e-07
1.4213983e-06
-7.1124243e-07
1.4418237e-06
-6.8088418e-07
1.4618442e-06
-6.5033778e-07
1.4814628e-06
-6.1960438e-07
1.5006804e-06
-5.8868581e-07
1.5194996e-06
-5.5758281e-07
1.5379215e-06
-5.2629617e-07
1.5559478e-06
-4.9482589e-07
1.5735788e-06
-4.6317205e-07
1.5908175e-06
-4.3133442e-07
1.6076634e-06
-3.9931176e-07
1.6241163e-06
-3.6710288e-07
1.6401769e-06
-3.3470724e-07
1.6558449e-06
-3.0212267e-07
1.6711201e-06
-2.6934705e-07
1.6860004e-06
-2.3637894e-07
1.7004848e-06
-2.0321559e-07
1.7145714e-06
-1.6985428e-07
1.7282549e-06
-1.3629294e-07
1.7415319e-06
-1.0252958e-07
1.7543965e-06
-6.8561435e-08
1.7668475e-06
-3.4385649e-08
1.7788972e-06
1.7905795e-06
-1.7908074e-06
-3.540048e-07
-1.7900233e-06
-3.1646843e-07
-1.7882636e-06
-2.7881453e-07
-1.7855436e-06
-2.4107641e-07
-1.7818784e-06
-2.0328523e-07
-1.7772845e-06
-1.6547246e-07
-1.7717791e-06
-1.2766732e-07
-1.7653791e-06
-8.9898497e-08
-1.7581036e-06
-5.2192303e-08
-1.7499695e-06
-1.4575168e-08
-1.7409973e-06
2.29205e-08
-1.7312049e-06
6.0280101e-08
-1.7206115e-06
9.7477803e-08
-1.7092368e-06
1.3449167e-07
-1.6971002e-06
1.7130079e-07
-1.6842217e-06
2.07886e-07
-1.6706209e-06
2.4422815e-07
-1.6563174e-06
2.803099e-07
-1.6413308e-06
3.1611526e-07
-1.6256814e-06
3.5162807e-07
-1.609388e-06
3.8683467e-07
-1.59247e-06
4.2172114e-07
-1.5749467e-06
4.5627509e-07
-1.5568372e-06
4.9048496e-07
-1.5381598e-06
5.2433997e-07
-1.5189332e-06
5.5783022e-07
-1.499175e-06
5.9094722e-07
-1.4789038e-06
6.2368231e-07
-1.4581362e-06
6.5602827e-07
-1.4368892e-06
6.8797812e-07
-1.4151802e-06
7.1952654e-07
-1.3930245e-06
7.5066757e-07
-1.3704377e-06
7.8139645e-07
-1.3474357e-06
8.1171041e-07
-1.3240332e-06
8.4160522e-07
-1.3002444e-06
8.710787e-07
-1.2760835e-06
9.001281e-07
-1.2515631e-06
9.2875097e-07
-1.2266965e-06
9.5694749e-07
-1.201496e-06
9.8471509e-07
-1.1759735e-06
1.0120555e-06
-1.1501405e-06
1.0389664e-06
-1.1240069e-06
1.0654486e-06
-1.0975838e-06
1.0915033e-06
-1.0708807e-06
1.1171308e-06
-1.0439069e-06
1.1423325e-06
-1.0166705e-06
1.1671094e-06
-9.8918018e-07
1.1914629e-06
-9.6144372e-07
1.2153946e-06
-9.3346763e-07
1.2389073e-06
-9.0525945e-07
1.2620015e-06
-8.7682415e-07
1.2846798e-06
-8.4816851e-07
1.306945e-06