/*--------------------------------*- C++ -*----------------------------------*\
| =========                 |                                                 |
| \\      /  F ield         | OpenFOAM: The Open Source CFD Toolbox           |
|  \\    /   O peration     | Version:  2306                                  |
|   \\  /    A nd           | Website:  www.openfoam.com                      |
|    \\/     M anipulation  |                                                 |
\*---------------------------------------------------------------------------*/
FoamFile
{
    version     2.0;
    format      ascii;
    arch        "LSB;label=32;scalar=64";
    class       surfaceScalarField;
    location    "0.53";
    object      phi_0;
}
// * * * * * * * * * * * * * * * * * * * * * * * * * * * * * * * * * * * * * //

dimensions      [0 3 -1 0 0 0 0];

oriented        oriented;

internalField   nonuniform List<scalar> 
12640
(
-2.3720749e-06
-3.2326888e-07
-2.3640964e-06
-2.7227085e-07
-2.3548619e-06
-2.2141512e-07
-2.3444037e-06
-1.7074486e-07
-2.3327563e-06
-1.2029938e-07
-2.3199521e-06
-7.0116598e-08
-2.3060318e-06
-2.0226702e-08
-2.2910237e-06
2.9311983e-08
-2.274965e-06
7.8495616e-08
-2.2578909e-06
1.2728406e-07
-2.2398364e-06
1.7565003e-07
-2.2208372e-06
2.2356732e-07
-2.2009279e-06
2.7101172e-07
-2.1801432e-06
3.1796064e-07
-2.1585177e-06
3.643944e-07
-2.1360855e-06
4.102937e-07
-2.1128805e-06
4.5564238e-07
-2.0889358e-06
5.0042476e-07
-2.0642836e-06
5.4462695e-07
-2.0389567e-06
5.8823741e-07
-2.0129862e-06
6.3124513e-07
-1.9864031e-06
6.7364146e-07
-1.9592372e-06
7.1541826e-07
-1.9315175e-06
7.5656967e-07
-1.9032738e-06
7.9709042e-07
-1.8745327e-06
8.3697677e-07
-1.845322e-06
8.762259e-07
-1.8156666e-06
9.1483648e-07
-1.7855923e-06
9.528084e-07
-1.7551236e-06
9.9014102e-07
-1.7242838e-06
1.0268371e-06
-1.6930947e-06
1.062898e-06
-1.6615781e-06
1.0983278e-06
-1.6297547e-06
1.1331295e-06
-1.597644e-06
1.1673083e-06
-1.5652645e-06
1.20087e-06
-1.532634e-06
1.2338195e-06
-1.4997692e-06
1.2661643e-06
-1.466686e-06
1.2979106e-06
-1.4333986e-06
1.3290664e-06
-1.3999217e-06
1.3596401e-06
-1.3662674e-06
1.3896391e-06
-1.3324483e-06
1.4190726e-06
-1.2984752e-06
1.4479493e-06
-1.2643584e-06
1.4762778e-06
-1.2301063e-06
1.5040685e-06
-1.1957286e-06
1.5313308e-06
-1.1612313e-06
1.5580732e-06
-1.1266229e-06
1.5843068e-06
-1.0919074e-06
1.6100398e-06
-1.0570909e-06
1.6352824e-06
-1.0221769e-06
1.660045e-06
-9.8716936e-07
1.6843368e-06
-9.5206968e-07
1.7081664e-06
-9.1688051e-07
1.7315437e-06
-8.8160259e-07
1.754478e-06
-8.4623687e-07
1.7769784e-06
-8.107816e-07
1.7990522e-06
-7.7523663e-07
1.8207098e-06
-7.396e-07
1.8419578e-06
-7.0386978e-07
1.862805e-06
-6.6804199e-07
1.8832578e-06
-6.3211441e-07
1.903324e-06
-5.9608138e-07
1.9230098e-06
-5.599387e-07
1.9423213e-06
-5.2368124e-07
1.9612648e-06
-4.8730302e-07
1.9798452e-06
-4.5079791e-07
1.9980669e-06
-4.1415856e-07
2.0159348e-06
-3.773793e-07
2.0334526e-06
-3.4045041e-07
2.0506226e-06
-3.0336568e-07
2.0674473e-06
-2.6611549e-07
2.0839281e-06
-2.2869182e-07
2.1000655e-06
-1.9108593e-07
2.1158579e-06
-1.5328778e-07
2.131301e-06
-1.1528913e-07
2.14639e-06
-7.7080918e-08
2.1611219e-06
-3.8654089e-08
2.1755079e-06
2.1895861e-06
-2.3173597e-06
-3.2917354e-07
-2.3101925e-06
-2.7943824e-07
-2.3017929e-06
-2.2981472e-07
-2.2921921e-06
-1.8034543e-07
-2.2814222e-06
-1.3106934e-07
-2.2695157e-06
-8.2023055e-08
-2.2565042e-06
-3.3238297e-08
-2.2424246e-06
1.5232386e-08
-2.2273063e-06
6.3377257e-08
-2.2111835e-06
1.1116148e-07
-2.1940902e-06
1.5855678e-07
-2.1760598e-06
2.055369e-07
-2.1571256e-06
2.5207736e-07
-2.1373206e-06
2.9815579e-07
-2.1166783e-06
3.4375202e-07
-2.0952313e-06
3.8884681e-07
-2.0730118e-06
4.3342287e-07
-2.0500518e-06
4.7746452e-07
-2.0263825e-06
5.2095759e-07
-2.0020347e-06
5.6388975e-07
-1.9770392e-06
6.0624957e-07
-1.9514255e-06
6.4802762e-07
-1.9252223e-06
6.8921541e-07
-1.8984587e-06
7.2980582e-07
-1.8711615e-06
7.6979341e-07
-1.8433582e-06
8.0917348e-07
-1.8150744e-06
8.4794224e-07
-1.7863361e-06
8.8609823e-07
-1.7571674e-06
9.2363961e-07
-1.7275918e-06
9.6056537e-07
-1.6976321e-06
9.9687733e-07
-1.6673108e-06
1.0325767e-06
-1.6366474e-06
1.0676646e-06
-1.6056633e-06
1.1021454e-06
-1.5743774e-06
1.1360225e-06
-1.5428078e-06
1.1693002e-06
-1.5109719e-06
1.2019836e-06
-1.4788864e-06
1.2340787e-06
-1.446567e-06
1.2655912e-06
-1.4140281e-06
1.2965275e-06
-1.3812828e-06
1.326895e-06
-1.3483448e-06
1.3567013e-06
-1.3152264e-06
1.3859543e-06
-1.2819373e-06
1.4146603e-06
-1.2484893e-06
1.4428297e-06
-1.2148904e-06
1.4704696e-06
-1.1811494e-06
1.4975899e-06
-1.1472743e-06
1.524198e-06
-1.1132715e-06
1.550304e-06
-1.0791475e-06
1.5759157e-06
-1.044907e-06
1.601042e-06
-1.010555e-06
1.6256929e-06
-9.7609395e-07
1.6498758e-06
-9.4152771e-07
1.6736e-06
-9.0685818e-07
1.6968742e-06
-8.7208674e-07
1.7197065e-06
-8.3721375e-07
1.7421054e-06
-8.0223998e-07
1.7640785e-06
-7.6716395e-07
1.785634e-06
-7.3198569e-07
1.8067791e-06
-6.9670157e-07
1.8275208e-06
-6.6130961e-07
1.8478662e-06
-6.2580727e-07
1.8678216e-06
-5.9019095e-07
1.8873937e-06
-5.5445602e-07
1.9065866e-06
-5.1859807e-07
1.925407e-06
-4.8261121e-07
1.9438584e-06
-4.4649108e-07
1.9619469e-06
-4.1023053e-07
1.9796742e-06
-3.7382278e-07
1.9970451e-06
-3.3726193e-07
2.0140614e-06
-3.0053898e-07
2.0307248e-06
-2.6364837e-07
2.0470373e-06
-2.2658053e-07
2.0629978e-06
-1.8932778e-07
2.0786052e-06
-1.5188169e-07
2.093855e-06
-1.1423398e-07
2.108742e-06
-7.6376753e-08
2.1232646e-06
-3.8301719e-08
2.1374325e-06
2.1512847e-06
-2.2638276e-06
-3.3433797e-07
-2.2574264e-06
-2.8583928e-07
-2.2498171e-06
-2.37424e-07
-2.2410292e-06
-1.8913346e-07
-2.2310927e-06
-1.4100576e-07
-2.2200379e-06
-9.3077912e-08
-2.2078927e-06
-4.5383407e-08
-2.194698e-06
2.0375021e-09
-2.1804769e-06
4.9155933e-08
-2.1652629e-06
9.5947642e-08
-2.1490884e-06
1.4238229e-07
-2.1319854e-06
1.8843382e-07
-2.1139856e-06
2.3407753e-07
-2.0951208e-06
2.7929116e-07
-2.0754227e-06
3.2405394e-07
-2.0549223e-06
3.6834642e-07
-2.0336507e-06
4.1215141e-07
-2.0116389e-06
4.5545262e-07
-1.9889166e-06
4.9823542e-07
-1.965514e-06
5.4048699e-07
-1.9414597e-06
5.8219539e-07
-1.9167826e-06
6.2335046e-07
-1.891511e-06
6.6394395e-07
-1.8656724e-06
7.0396697e-07
-1.8392928e-06
7.4341359e-07
-1.8123991e-06
7.8227966e-07
-1.7850158e-06
8.2055909e-07
-1.7571682e-06
8.5825044e-07
-1.7288795e-06
8.9535086e-07
-1.7001732e-06
9.3185913e-07
-1.6710713e-06
9.6777532e-07
-1.6415949e-06
1.0031003e-06
-1.6117649e-06
1.0378349e-06
-1.5816006e-06
1.0719811e-06
-1.5511206e-06
1.1055425e-06
-1.5203434e-06
1.1385231e-06
-1.4892861e-06
1.1709264e-06
-1.4579646e-06
1.2027572e-06
-1.4263943e-06
1.2340209e-06
-1.3945898e-06
1.2647231e-06
-1.3625654e-06
1.2948704e-06
-1.3303324e-06
1.3244685e-06
-1.2979036e-06
1.3535252e-06
-1.2652901e-06
1.3820466e-06
-1.2325015e-06
1.4100411e-06
-1.1995484e-06
1.4375165e-06
-1.1664382e-06
1.4644796e-06
-1.1331788e-06
1.4909387e-06
-1.0997777e-06
1.5169027e-06
-1.0662408e-06
1.5423789e-06
-1.0325734e-06
1.5673747e-06
-9.9877999e-07
1.5918995e-06
-9.648648e-07
1.6159605e-06
-9.3083067e-07
1.639566e-06
-8.9668056e-07
1.6627241e-06
-8.6241585e-07
1.6854418e-06
-8.2803762e-07
1.7077271e-06
-7.9354637e-07
1.7295873e-06
-7.5894188e-07
1.7510298e-06
-7.2422337e-07
1.7720606e-06
-6.8938966e-07
1.7926872e-06
-6.5443822e-07
1.8129148e-06
-6.1936664e-07
1.8327501e-06
-5.8417191e-07
1.8521988e-06
-5.4884999e-07
1.871265e-06
-5.1339726e-07
1.8899542e-06
-4.7780912e-07
1.9082702e-06
-4.4207965e-07
1.9262175e-06
-4.0620442e-07
1.943799e-06
-3.7017686e-07
1.9610175e-06
-3.3399044e-07
1.9778751e-06
-2.9763909e-07
1.9943733e-06
-2.6111565e-07
2.0105137e-06
-2.2441247e-07
2.0262946e-06
-1.8752251e-07
2.041715e-06
-1.5043759e-07
2.0567702e-06
-1.1315082e-07
2.0714553e-06
-7.5653336e-08
2.0857671e-06
-3.7939005e-08
2.0997183e-06
2.1133456e-06
-2.2114616e-06
-3.388049e-07
-2.205784e-06
-2.9151692e-07
-2.1989224e-06
-2.4428571e-07
-2.1909044e-06
-1.9715146e-07
-2.1817577e-06
-1.5015239e-07
-2.1715113e-06
-1.0332426e-07
-2.1601944e-06
-5.6700444e-08
-2.1478413e-06
-1.0315439e-08
-2.1344748e-06
3.5789438e-08
-2.1201287e-06
8.1601335e-08
-2.1048327e-06
1.2708632e-07
-2.0886172e-06
1.7221844e-07
-2.0715129e-06
2.169731e-07
-2.0535496e-06
2.6132782e-07
-2.0347577e-06
3.0526194e-07
-2.0151671e-06
3.4875593e-07
-1.9948076e-06
3.9179174e-07
-1.9737084e-06
4.3435346e-07
-1.9518986e-06
4.7642545e-07
-1.9294071e-06
5.1799523e-07
-1.9062618e-06
5.5904978e-07
-1.8824901e-06
5.9957898e-07
-1.8581193e-06
6.3957294e-07
-1.8331753e-06
6.7902287e-07
-1.8076849e-06
7.1792331e-07
-1.7816727e-06
7.5626729e-07
-1.7551635e-06
7.9405016e-07
-1.7281807e-06
8.3126766e-07
-1.7007478e-06
8.6791795e-07
-1.6728873e-06
9.0399844e-07
-1.6446206e-06
9.3950865e-07
-1.615968e-06
9.7444761e-07
-1.5869502e-06
1.0088169e-06
-1.5575862e-06
1.0426171e-06
-1.5278947e-06
1.0758509e-06
-1.4978927e-06
1.108521e-06
-1.4675976e-06
1.1406311e-06
-1.4370247e-06
1.1721843e-06
-1.4061899e-06
1.2031864e-06
-1.3751074e-06
1.2336404e-06
-1.3437899e-06
1.263553e-06
-1.3122507e-06
1.2929293e-06
-1.2805014e-06
1.3217759e-06
-1.2485536e-06
1.3500988e-06
-1.2164168e-06
1.3779047e-06
-1.1841009e-06
1.4052006e-06
-1.1516145e-06
1.431993e-06
-1.1189648e-06
1.4582892e-06
-1.0861599e-06
1.4840978e-06
-1.0532052e-06
1.5094243e-06
-1.0201075e-06
1.5342768e-06
-9.8687046e-07
1.5586626e-06
-9.5349852e-07
1.5825885e-06
-9.1999546e-07
1.6060629e-06
-8.8636381e-07
1.6290922e-06
-8.5260554e-07
1.6516835e-06
-8.1872277e-07
1.6738442e-06
-7.8471524e-07
1.69558e-06
-7.5058415e-07
1.7168983e-06
-7.1632851e-07
1.7378051e-06
-6.8194785e-07
1.7583063e-06
-6.4744013e-07
1.7784069e-06
-6.1280299e-07
1.7981132e-06
-5.7803441e-07
1.8174302e-06
-5.4313111e-07
1.8363612e-06
-5.0808887e-07
1.854912e-06
-4.7290451e-07
1.8730859e-06
-4.3757264e-07
1.8908859e-06
-4.0208948e-07
1.9083158e-06
-3.6644845e-07
1.9253767e-06
-3.306442e-07
1.9420709e-06
-2.9467146e-07
1.9584006e-06
-2.585235e-07
1.9743657e-06
-2.2219331e-07
1.9899642e-06
-1.8567382e-07
2.0051955e-06
-1.4895878e-07
2.0200551e-06
-1.1204071e-07
2.0345373e-06
-7.4912656e-08
2.0486392e-06
-3.7568064e-08
2.0623739e-06
2.0757775e-06
-2.1602451e-06
-3.4261512e-07
-2.15525e-06
-2.9651201e-07
-2.1490948e-06
-2.5044088e-07
-2.1418057e-06
-2.0444063e-07
-2.1334091e-06
-1.5854901e-07
-2.1239318e-06
-1.1280133e-07
-2.1134011e-06
-6.7231276e-08
-2.1018469e-06
-2.1869612e-08
-2.0892975e-06
2.3240046e-08
-2.0757801e-06
6.8083863e-08
-2.0613238e-06
1.1262998e-07
-2.0459576e-06
1.5685227e-07
-2.0297103e-06
2.0072592e-07
-2.0126113e-06
2.442289e-07
-1.9946893e-06
2.8733994e-07
-1.9759727e-06
3.300394e-07
-1.9564902e-06
3.7230921e-07
-1.9362695e-06
4.1413285e-07
-1.9153393e-06
4.5549514e-07
-1.8937264e-06
4.9638234e-07
-1.8714579e-06
5.367815e-07
-1.8485607e-06
5.7668151e-07
-1.8250601e-06
6.1607251e-07
-1.800983e-06
6.5494583e-07
-1.7763535e-06
6.9329379e-07
-1.7511959e-06
7.3110984e-07
-1.7255345e-06
7.6838875e-07
-1.699392e-06
8.05125e-07
-1.6727906e-06
8.4131674e-07
-1.6457526e-06
8.7696036e-07
-1.6182986e-06
9.1205469e-07
-1.5904489e-06
9.465981e-07
-1.5622233e-06
9.8059153e-07
-1.5336407e-06
1.0140345e-06
-1.504719e-06
1.0469293e-06
-1.4754751e-06
1.0792772e-06
-1.4459258e-06
1.1110817e-06
-1.4160871e-06
1.1423456e-06
-1.3859728e-06
1.1730721e-06
-1.3555984e-06
1.2032658e-06
-1.3249764e-06
1.232931e-06
-1.2941193e-06
1.2620723e-06
-1.2630394e-06
1.2906959e-06
-1.2317473e-06
1.3188068e-06
-1.2002534e-06
1.3464106e-06
-1.168567e-06
1.3735142e-06
-1.1366966e-06
1.4001226e-06
-1.1046508e-06
1.4262435e-06
-1.0724361e-06
1.4518833e-06
-1.0400598e-06
1.4770479e-06
-1.0075267e-06
1.5017438e-06
-9.7484279e-07
1.5259784e-06
-9.4201172e-07
1.5497576e-06
-9.0903792e-07
1.573089e-06
-8.7592368e-07
1.595978e-06
-8.4267191e-07
1.6184317e-06
-8.0928395e-07
1.6404563e-06
-7.7576165e-07
1.6620576e-06
-7.42105e-07
1.6832417e-06
-7.08314e-07
1.7040142e-06
-6.7438841e-07
1.7243806e-06
-6.4032718e-07
1.7443459e-06
-6.0612832e-07
1.7639142e-06
-5.717892e-07
1.7830912e-06
-5.3730858e-07
1.8018803e-06
-5.0268216e-07
1.8202856e-06
-4.6790646e-07
1.8383102e-06
-4.3297843e-07
1.8559577e-06
-3.9789304e-07
1.8732301e-06
-3.6264512e-07
1.8901288e-06
-3.2723029e-07
1.9066564e-06
-2.9164316e-07
1.9228132e-06
-2.5587689e-07
1.9385995e-06
-2.1992693e-07
1.9540141e-06
-1.8378594e-07
1.9690546e-06
-1.4744778e-07
1.9837172e-06
-1.1090612e-07
1.9979953e-06
-7.4155268e-08
2.0118884e-06
-3.7188619e-08
2.0254073e-06
2.0385891e-06
-2.1101602e-06
-3.4580673e-07
-2.1058089e-06
-3.0086331e-07
-2.1003214e-06
-2.5592846e-07
-2.0937222e-06
-2.1103997e-07
-2.086036e-06
-1.6623512e-07
-2.0772884e-06
-1.2154886e-07
-2.0675053e-06
-7.7014347e-08
-2.0567142e-06
-3.2660799e-08
-2.0449424e-06
1.1468414e-08
-2.0322153e-06
5.5356899e-08
-2.018561e-06
9.8975774e-08
-2.0040071e-06
1.4229825e-07
-1.9885811e-06
1.8529986e-07
-1.9723103e-06
2.279584e-07
-1.955223e-06
2.7025237e-07
-1.9373458e-06
3.121622e-07
-1.9187061e-06
3.5366959e-07
-1.8993313e-06
3.9475791e-07
-1.8792474e-06
4.3541127e-07
-1.8584816e-06
4.756166e-07
-1.8370593e-06
5.1535934e-07
-1.8150064e-06
5.5462853e-07
-1.7923482e-06
5.9341414e-07
-1.7691087e-06
6.3170629e-07
-1.7453127e-06
6.6949776e-07
-1.7209834e-06
7.0678061e-07
-1.696144e-06
7.4354921e-07
-1.6708168e-06
7.7979776e-07
-1.6450236e-06
8.1552349e-07
-1.6187856e-06
8.5072237e-07
-1.5921227e-06
8.8539195e-07
-1.5650556e-06
9.1953088e-07
-1.5376024e-06
9.5313841e-07
-1.5097822e-06
9.8621394e-07
-1.4816122e-06
1.0187594e-06
-1.4531097e-06
1.0507747e-06
-1.4242902e-06
1.0822624e-06
-1.3951697e-06
1.113225e-06
-1.3657627e-06
1.1436651e-06
-1.3360827e-06
1.1735858e-06
-1.3061433e-06
1.2029917e-06
-1.275957e-06
1.2318861e-06
-1.2455354e-06
1.2602743e-06
-1.2148893e-06
1.2881606e-06
-1.1840292e-06
1.3155506e-06
-1.152964e-06
1.3424488e-06
-1.1217029e-06
1.3688616e-06
-1.090254e-06
1.3947947e-06
-1.0586242e-06
1.4202535e-06
-1.0268204e-06
1.445244e-06
-9.9484854e-07
1.4697719e-06
-9.6271363e-07
1.4938436e-06
-9.3042084e-07
1.517465e-06
-8.9797343e-07
1.5406415e-06
-8.653748e-07
1.5633797e-06
-8.3262832e-07
1.5856853e-06
-7.997359e-07
1.6075637e-06
-7.6669825e-07
1.6290201e-06
-7.3351703e-07
1.6500606e-06
-7.0019245e-07
1.6706896e-06
-6.6672397e-07
1.6909123e-06
-6.3311125e-07
1.7107329e-06
-5.9935339e-07
1.7301565e-06
-5.6544791e-07
1.749186e-06
-5.3139324e-07
1.7678257e-06
-4.9718649e-07
1.786079e-06
-4.6282527e-07
1.8039489e-06
-4.2830502e-07
1.8214377e-06
-3.9362251e-07
1.8385476e-06
-3.5877362e-07
1.8552799e-06
-3.2375366e-07
1.8716363e-06
-2.8855769e-07
1.8876172e-06
-2.5318026e-07
1.9032221e-06
-2.1761663e-07
1.9184504e-06
-1.8186075e-07
1.9332987e-06
-1.459067e-07
1.9477634e-06
-1.097492e-07
1.9618379e-06
-7.3382662e-08
1.9755222e-06
-3.6801757e-08
1.9888264e-06
2.0017872e-06
-2.0611895e-06
-3.4841674e-07
-2.0574448e-06
-3.0460792e-07
-2.0525879e-06
-2.6078537e-07
-2.0466413e-06
-2.1698656e-07
-2.0396287e-06
-1.7324783e-07
-2.0315738e-06
-1.2960379e-07
-2.022501e-06
-8.6087123e-08
-2.0124337e-06
-4.2728177e-08
-2.0014045e-06
4.3919161e-10
-1.9894316e-06
4.3383939e-08
-1.9765434e-06
8.6087538e-08
-1.9627662e-06
1.2852105e-07
-1.9481261e-06
1.706598e-07
-1.9326493e-06
2.1248164e-07
-1.9163623e-06
2.5396549e-07
-1.899291e-06
2.9509096e-07
-1.8814618e-06
3.3584034e-07
-1.8629002e-06
3.7619641e-07
-1.843632e-06
4.1614329e-07
-1.8236824e-06
4.5566692e-07
-1.8030766e-06
4.9475338e-07
-1.781839e-06
5.3339109e-07
-1.7599937e-06
5.7156888e-07
-1.7375652e-06
6.0927777e-07
-1.7145758e-06
6.4650847e-07
-1.6910492e-06
6.8325377e-07
-1.6670072e-06
7.195073e-07
-1.6424715e-06
7.5526209e-07
-1.6174631e-06
7.9051521e-07
-1.5920027e-06
8.2526173e-07
-1.5661098e-06
8.5949903e-07
-1.5398043e-06
8.9322533e-07
-1.5131042e-06
9.264382e-07
-1.4860276e-06
9.5913727e-07
-1.4585917e-06
9.9132369e-07
-1.4308132e-06
1.0229961e-06
-1.4027079e-06
1.0541571e-06
-1.3742905e-06
1.0848078e-06
-1.3455758e-06
1.1149505e-06
-1.3165778e-06
1.1445877e-06
-1.2873086e-06
1.1737225e-06
-1.2577816e-06
1.2023589e-06
-1.2280078e-06
1.2305003e-06
-1.1979977e-06
1.2581507e-06
-1.1677619e-06
1.2853144e-06
-1.1373098e-06
1.311997e-06
-1.1066502e-06
1.338202e-06
-1.0757912e-06
1.3639358e-06
-1.0447402e-06
1.3892024e-06
-1.0135036e-06
1.4140074e-06
-9.8208789e-07
1.4383563e-06
-9.5049861e-07
1.4622542e-06
-9.1874038e-07
1.4857067e-06
-8.8681704e-07
1.5087184e-06
-8.547328e-07
1.5312952e-06
-8.2248997e-07
1.5534427e-06
-7.9009136e-07
1.5751651e-06
-7.575386e-07
1.5964675e-06
-7.2483276e-07
1.6173547e-06
-6.9197532e-07
1.6378319e-06
-6.5896549e-07
1.6579023e-06
-6.258037e-07
1.6775709e-06
-5.9248899e-07
1.6968416e-06
-5.5901996e-07
1.7157169e-06
-5.2539489e-07
1.7342006e-06
-4.9161149e-07
1.7522957e-06
-4.576678e-07
1.7700052e-06
-4.2356013e-07
1.7873301e-06
-3.892854e-07
1.8042729e-06
-3.5484012e-07
1.8208347e-06
-3.2022e-07
1.8370164e-06
-2.8542098e-07
1.8528181e-06
-2.504383e-07
1.8682396e-06
-2.1526685e-07
1.8832793e-06
-1.799024e-07
1.8979343e-06
-1.4433936e-07
1.9122003e-06
-1.0857256e-07
1.9260712e-06
-7.2596957e-08
1.9395465e-06
-3.6407886e-08
1.9526373e-06
1.9653793e-06
-2.0133148e-06
-3.5048032e-07
-2.0101419e-06
-3.0778098e-07
-2.00588e-06
-2.6504708e-07
-2.0005504e-06
-2.2231612e-07
-1.9941749e-06
-1.7962324e-07
-1.9867767e-06
-1.3700195e-07
-1.9783784e-06
-9.4485606e-08
-1.9690023e-06
-5.2104311e-08
-1.9586801e-06
-9.8829937e-09
-1.9474257e-06
3.212959e-08
-1.9352688e-06
7.393061e-08
-1.9222339e-06
1.15486e-07
-1.9083459e-06
1.567718e-07
-1.8936296e-06
1.9776541e-07
-1.8781103e-06
2.3844604e-07
-1.8618129e-06
2.7879374e-07
-1.8447622e-06
3.1878969e-07
-1.8269831e-06
3.5841717e-07
-1.8084999e-06
3.976601e-07
-1.7893368e-06
4.3650395e-07
-1.7695182e-06
4.749347e-07
-1.7490676e-06
5.1294064e-07
-1.7280087e-06
5.5051015e-07
-1.7063637e-06
5.8763292e-07
-1.6841556e-06
6.2430042e-07
-1.6614058e-06
6.6050408e-07
-1.6381367e-06
6.9623815e-07
-1.6143691e-06
7.3149448e-07
-1.5901229e-06
7.6626898e-07
-1.5654181e-06
8.0055713e-07
-1.5402747e-06
8.3435556e-07
-1.5147107e-06
8.6766137e-07
-1.488744e-06
9.0047161e-07
-1.4623931e-06
9.327866e-07
-1.4356738e-06
9.6460441e-07
-1.4086028e-06
9.9592521e-07
-1.3811955e-06
1.0267498e-06
-1.3534667e-06
1.057079e-06
-1.3254305e-06
1.0869143e-06
-1.2971004e-06
1.1162576e-06
-1.2684894e-06
1.1451116e-06
-1.2396094e-06
1.1734789e-06
-1.2104721e-06
1.2013631e-06
-1.1810884e-06
1.228767e-06
-1.1514681e-06
1.2556942e-06
-1.1216202e-06
1.2821491e-06
-1.0915544e-06
1.3081361e-06
-1.0612783e-06
1.3336598e-06
-1.0307997e-06
1.3587237e-06
-1.000125e-06
1.3833329e-06
-9.692607e-07
1.4074919e-06
-9.382123e-07
1.431206e-06
-9.0698499e-07
1.4544794e-06
-8.7558322e-07
1.4773165e-06
-8.4401005e-07
1.4997223e-06
-8.1226959e-07
1.5217021e-06
-7.8036374e-07
1.5432593e-06
-7.4829537e-07
1.564399e-06
-7.1606549e-07
1.5851249e-06
-6.8367504e-07
1.6054416e-06
-6.5112507e-07
1.6253525e-06
-6.1841526e-07
1.6448612e-06
-5.8554542e-07
1.6639717e-06
-5.5251472e-07
1.6826862e-06
-5.1932194e-07
1.7010078e-06
-4.8596521e-07
1.7189391e-06
-4.5244192e-07
1.736482e-06
-4.1875075e-07
1.7536388e-06
-3.8488817e-07
1.7704104e-06
-3.508505e-07
1.786797e-06
-3.166354e-07
1.8028012e-06
-2.8223852e-07
1.8184212e-06
-2.4765549e-07
1.8336565e-06
-2.1288257e-07
1.8485061e-06
-1.7791509e-07
1.8629667e-06
-1.4274799e-07
1.8770334e-06
-1.073779e-07
1.8907011e-06
-7.1799217e-08
1.9039678e-06
-3.6008026e-08
1.9168463e-06
1.9293712e-06
-1.9665182e-06
-3.5203083e-07
-1.963883e-06
-3.1041596e-07
-1.9601824e-06
-2.6874789e-07
-1.9554357e-06
-2.2706257e-07
-1.9496645e-06
-1.8539463e-07
-1.9428888e-06
-1.437776e-07
-1.9351312e-06
-1.0224313e-07
-1.9264141e-06
-6.082149e-08
-1.9167594e-06
-1.9537717e-08
-1.9061922e-06
2.156261e-08
-1.8947343e-06
6.2472605e-08
-1.8824091e-06
1.0316094e-07
-1.8692407e-06
1.4360343e-07
-1.8552529e-06
1.837776e-07
-1.8404697e-06
2.2366284e-07
-1.8249148e-06
2.6323877e-07
-1.8086119e-06
3.0248696e-07
-1.7915852e-06
3.4139025e-07
-1.773857e-06
3.7993223e-07
-1.755452e-06
4.1809881e-07
-1.7363926e-06
4.5587538e-07
-1.7167016e-06
4.9324971e-07
-1.6964015e-06
5.3020985e-07
-1.6755144e-06
5.6674572e-07
-1.6540619e-06
6.0284796e-07
-1.6320654e-06
6.3850754e-07
-1.6095452e-06
6.7371783e-07
-1.5865223e-06
7.0847158e-07
-1.5630163e-06
7.4276293e-07
-1.5390463e-06
7.765872e-07
-1.5146311e-06
8.0994029e-07
-1.4897887e-06
8.4281888e-07
-1.4645372e-06
8.7522016e-07
-1.4388933e-06
9.0714253e-07
-1.4128735e-06
9.3858465e-07
-1.3864936e-06
9.6954529e-07
-1.3597691e-06
1.0000252e-06
-1.332714e-06
1.0300239e-06
-1.3053419e-06
1.0595422e-06
-1.2776669e-06
1.0885827e-06
-1.2497016e-06
1.1171461e-06
-1.2214572e-06
1.1452346e-06
-1.1929457e-06
1.1728515e-06
-1.1641775e-06
1.1999988e-06
-1.1351629e-06
1.2266796e-06
-1.1059112e-06
1.2528974e-06
-1.0764311e-06
1.2786561e-06
-1.0467309e-06
1.3039593e-06
-1.0168179e-06
1.3288106e-06
-9.8669916e-07
1.3532142e-06
-9.5638123e-07
1.377174e-06
-9.2586944e-07
1.4006941e-06
-8.9516898e-07
1.4237789e-06
-8.6428507e-07
1.4464325e-06
-8.3322121e-07
1.4686584e-06
-8.019803e-07
1.4904615e-06
-7.7056617e-07
1.5118451e-06
-7.3898043e-07
1.5328129e-06
-7.0722537e-07
1.5533699e-06
-6.7530257e-07
1.5735188e-06
-6.4321272e-07
1.5932623e-06
-6.1095594e-07
1.6126044e-06
-5.7853236e-07
1.6315484e-06
-5.4594174e-07
1.6500957e-06
-5.1318311e-07
1.668249e-06
-4.8025495e-07
1.686011e-06
-4.4715608e-07
1.7033831e-06
-4.1388409e-07
1.7203668e-06
-3.8043691e-07
1.7369632e-06
-3.4681175e-07
1.753172e-06
-3.130055e-07
1.7689948e-06
-2.7901503e-07
1.7844305e-06
-2.4483638e-07
1.7994781e-06
-2.1046617e-07
1.814136e-06
-1.7590056e-07
1.828401e-06
-1.4113496e-07
1.8422678e-06
-1.0616636e-07
1.8557328e-06
-7.0990052e-08
1.8687914e-06
-3.5602782e-08
1.8814588e-06
1.8937684e-06
-1.9207815e-06
-3.5309937e-07
-1.9186522e-06
-3.1254517e-07
-1.9154805e-06
-2.7191955e-07
-1.9112847e-06
-2.3125833e-07
-1.9060842e-06
-1.905952e-07
-1.8998991e-06
-1.4996274e-07
-1.8927499e-06
-1.0939233e-07
-1.8846576e-06
-6.8913926e-08
-1.8756407e-06
-2.8554638e-08
-1.8657278e-06
1.1649721e-08
-1.8549362e-06
5.1681166e-08
-1.8432891e-06
9.1513727e-08
-1.8308091e-06
1.3112332e-07
-1.8175189e-06
1.7048744e-07
-1.8034409e-06
2.0958495e-07
-1.7885985e-06
2.4839626e-07
-1.7730141e-06
2.8690262e-07
-1.7567102e-06
3.2508644e-07
-1.7397096e-06
3.629317e-07
-1.7220343e-06
4.004235e-07
-1.7037067e-06
4.3754782e-07
-1.6847486e-06
4.7429149e-07
-1.6651817e-06
5.1064292e-07
-1.6450268e-06
5.4659091e-07
-1.6243053e-06
5.8212653e-07
-1.6030379e-06
6.1724021e-07
-1.5812439e-06
6.5192397e-07
-1.5589432e-06
6.8617099e-07
-1.5361557e-06
7.1997518e-07
-1.5128992e-06
7.5333102e-07
-1.4891925e-06
7.8623332e-07
-1.4650531e-06
8.1867961e-07
-1.4404977e-06
8.5066483e-07
-1.4155434e-06
8.8218808e-07
-1.3902058e-06
9.1324693e-07
-1.364501e-06
9.4384065e-07
-1.3384428e-06
9.7396688e-07
-1.3120462e-06
1.0036273e-06
-1.2853251e-06
1.032821e-06
-1.2582921e-06
1.0615497e-06
-1.2309593e-06
1.0898134e-06
-1.2033397e-06
1.1176148e-06
-1.1754431e-06
1.1449549e-06
-1.1472804e-06
1.1718363e-06
-1.1188622e-06
1.1982612e-06
-1.0901974e-06
1.2242328e-06
-1.0612953e-06
1.2497538e-06
-1.0321635e-06
1.2748273e-06
-1.0028095e-06
1.2994567e-06
-9.7324041e-07
1.3236454e-06
-9.4346307e-07
1.3473967e-06
-9.1348303e-07
1.3707141e-06
-8.8330592e-07
1.3936016e-06
-8.5293579e-07
1.4160624e-06
-8.2237747e-07
1.4380998e-06
-7.91634e-07
1.4597181e-06
-7.6070894e-07
1.4809202e-06
-7.296054e-07
1.5017093e-06
-6.9832448e-07
1.5220892e-06
-6.6686829e-07
1.5420626e-06
-6.3523824e-07
1.5616322e-06
-6.034349e-07
1.5808011e-06
-5.7145901e-07
1.5995723e-06
-5.3930968e-07
1.6179465e-06
-5.0698728e-07
1.6359265e-06
-4.7449038e-07
1.6535141e-06
-4.4181778e-07
1.6707106e-06
-4.0896829e-07
1.6875172e-06
-3.7593931e-07
1.7039343e-06
-3.4272963e-07
1.7199623e-06
-3.0933574e-07
1.7356009e-06
-2.7575495e-07
1.7508498e-06
-2.4198468e-07
1.7657079e-06
-2.0802149e-07
1.7801729e-06
-1.7386207e-07
1.7942416e-06
-1.3950316e-07
1.8079088e-06
-1.049405e-07
1.82117e-06
-7.0171531e-08
1.8340227e-06
-3.5192576e-08
1.8464797e-06
1.8585759e-06
-1.876086e-06
-3.5371689e-07
-1.8744324e-06
-3.1419882e-07
-1.871759e-06
-2.74593e-07
-1.868083e-06
-2.3493441e-07
-1.8634226e-06
-1.9525553e-07
-1.8577966e-06
-1.5558897e-07
-1.8512237e-06
-1.1596509e-07
-1.8437245e-06
-7.641325e-08
-1.8353174e-06
-3.6961547e-08
-1.8260273e-06
2.3596673e-09
-1.8158714e-06
4.152511e-08
-1.8048715e-06
8.0513861e-08
-1.7930495e-06
1.1930135e-07
-1.7804268e-06
1.5786474e-07
-1.7670251e-06
1.9618333e-07
-1.752866e-06
2.342372e-07
-1.7379714e-06
2.7200792e-07
-1.7223626e-06
3.0947757e-07
-1.7060612e-06
3.4663041e-07
-1.6890891e-06
3.8345127e-07
-1.6714668e-06
4.1992545e-07
-1.6532157e-06
4.5604057e-07
-1.6343566e-06
4.9178373e-07
-1.6149099e-06
5.2714425e-07
-1.5948952e-06
5.6211194e-07
-1.5743332e-06
5.9667812e-07
-1.5532429e-06
6.3083365e-07
-1.531643e-06
6.6457121e-07
-1.5095522e-06
6.9788452e-07
-1.4869891e-06
7.3076768e-07
-1.4639714e-06
7.6321572e-07
-1.4405153e-06
7.9522331e-07
-1.416638e-06
8.2678762e-07
-1.3923554e-06
8.5790562e-07
-1.3676836e-06
8.8857511e-07
-1.3426371e-06
9.1879404e-07
-1.3172309e-06
9.4856071e-07
-1.2914789e-06
9.7787515e-07
-1.2653943e-06
1.0067364e-06
-1.2389898e-06
1.035145e-06
-1.212278e-06
1.0631015e-06
-1.1852701e-06
1.090607e-06
-1.1579776e-06
1.1176625e-06
-1.1304105e-06
1.144269e-06
-1.1025789e-06
1.1704298e-06
-1.0744927e-06
1.1961465e-06
-1.0461599e-06
1.2214211e-06
-1.0175885e-06
1.246256e-06
-9.8878721e-07
1.2706551e-06
-9.597618e-07
1.29462e-06
-9.3051934e-07
1.3181541e-06
-9.0106586e-07
1.3412607e-06
-8.7140696e-07
1.3639429e-06
-8.4154708e-07
1.3862025e-06
-8.1149123e-07
1.4080442e-06
-7.8124248e-07
1.4294693e-06
-7.5080476e-07
1.4504823e-06
-7.2018082e-07
1.4710855e-06
-6.893727e-07
1.491281e-06
-6.5838255e-07
1.5110727e-06
-6.272123e-07
1.5304621e-06
-5.9586294e-07
1.5494519e-06
-5.6433432e-07
1.5680437e-06
-5.3262764e-07
1.5862397e-06
-5.0074187e-07
1.604041e-06
-4.6867743e-07
1.6214498e-06
-4.3643336e-07
1.6384668e-06
-4.0400834e-07
1.6550924e-06
-3.7140072e-07
1.6713267e-06
-3.3860873e-07
1.6871701e-06
-3.0563015e-07
1.7026224e-06
-2.7246309e-07
1.7176829e-06
-2.3910451e-07
1.7323491e-06
-2.055523e-07
1.7466207e-06
-1.7180284e-07
1.7604922e-06
-1.3785394e-07
1.7739597e-06
-1.0370163e-07
1.7870179e-06
-6.9344089e-08
1.799665e-06
-3.4777773e-08
1.8119135e-06
1.823798e-06
-1.832414e-06
-3.5391137e-07
-1.8312069e-06
-3.1540606e-07
-1.8290023e-06
-2.7679766e-07
-1.8258166e-06
-2.3812017e-07
-1.8216666e-06
-1.9940545e-07
-1.81657e-06
-1.6068567e-07
-1.8105445e-06
-1.2199069e-07
-1.8036083e-06
-8.334933e-08
-1.7957802e-06
-4.478967e-08
-1.7870842e-06
-6.3363012e-09
-1.777534e-06
3.1974806e-08
-1.7671524e-06
7.0132312e-08
-1.7559595e-06
1.0810838e-07
-1.7439759e-06
1.4588104e-07
-1.7312218e-06
1.8342931e-07
-1.7177182e-06
2.2073359e-07
-1.7034854e-06
2.5777535e-07
-1.6885448e-06
2.9453682e-07
-1.6729167e-06
3.3100228e-07
-1.6566207e-06
3.6715537e-07
-1.6396786e-06
4.0298338e-07
-1.6221094e-06
4.3847125e-07
-1.6039334e-06
4.7360788e-07
-1.5851707e-06
5.0838148e-07
-1.5658403e-06
5.4278152e-07
-1.5459608e-06
5.7679875e-07
-1.5255517e-06
6.1042461e-07
-1.5046312e-06
6.4365066e-07
-1.4832174e-06
6.7647066e-07
-1.4613276e-06
7.0887779e-07
-1.4389782e-06
7.4086641e-07
-1.4161871e-06
7.7243215e-07
-1.39297e-06
8.0357063e-07
-1.3693425e-06
8.3427816e-07
-1.3453197e-06
8.6455233e-07
-1.3209161e-06
8.9439072e-07
-1.2961466e-06
9.2379125e-07
-1.2710243e-06
9.5275275e-07
-1.2455625e-06
9.8127471e-07
-1.2197739e-06
1.0093564e-06
-1.1936703e-06
1.036998e-06
-1.1672631e-06
1.0641999e-06
-1.1405635e-06
1.0909626e-06
-1.1135817e-06
1.1172872e-06
-1.0863272e-06
1.1431754e-06
-1.0588099e-06
1.1686292e-06
-1.0310382e-06
1.1936493e-06
-1.0030205e-06
1.2182384e-06
-9.7476366e-07
1.2423983e-06
-9.4627574e-07
1.266132e-06
-9.1756271e-07
1.2894411e-06
-8.886307e-07
1.3123289e-06
-8.5948538e-07
1.3347973e-06
-8.3013166e-07
1.3568488e-06
-8.0057405e-07
1.3784864e-06
-7.7081692e-07
1.3997122e-06
-7.4086382e-07
1.4205293e-06
-7.1071707e-07
1.440939e-06
-6.8038019e-07
1.4609441e-06
-6.4985522e-07
1.4805476e-06
-6.1914389e-07
1.4997505e-06
-5.8824733e-07
1.5185554e-06
-5.5716674e-07
1.5369632e-06
-5.25903e-07
1.5549757e-06
-4.9445538e-07
1.5725936e-06
-4.6282471e-07
1.5898192e-06
-4.3101049e-07
1.6066526e-06
-3.9901138e-07
1.6230932e-06
-3.6682671e-07
1.6391418e-06
-3.3445494e-07
1.6547984e-06
-3.0189471e-07
1.6700622e-06
-2.6914362e-07
1.6849316e-06
-2.3620024e-07
1.6994057e-06
-2.0306194e-07
1.7134822e-06
-1.6972582e-07
1.7271562e-06
-1.361899e-07
1.7404241e-06
-1.0245193e-07
1.7532798e-06
-6.8509327e-08
1.7657223e-06
-3.435963e-08
1.7777639e-06
1.7894384e-06
-1.7897466e-06
-3.5371033e-07
-1.7889582e-06
-3.161943e-07
-1.7871949e-06
-2.7856089e-07
-1.7844717e-06
-2.4084341e-07
-1.7808039e-06
-2.030732e-07
-1.776208e-06
-1.6528152e-07
-1.770701e-06
-1.2749758e-07
-1.7643001e-06
-8.9750195e-08
-1.7570242e-06
-5.2065609e-08
-1.7488902e-06
-1.4470261e-08
-1.7399189e-06
2.3003534e-08
-1.7301276e-06
6.0341151e-08
-1.719536e-06
9.7516787e-08
-1.7081637e-06
1.3450857e-07
-1.69603e-06
1.7129554e-07
-1.6831548e-06
2.0785844e-07
-1.669558e-06
2.4417837e-07
-1.6552589e-06
2.8023782e-07
-1.6402775e-06
3.1602084e-07
-1.6246334e-06
3.5151144e-07
-1.6083458e-06
3.866958e-07
-1.5914345e-06
4.2155979e-07
-1.5739182e-06
4.5609161e-07
-1.5558161e-06
4.9027933e-07
-1.5371468e-06
5.2411215e-07
-1.5179282e-06
5.5758047e-07
-1.4981792e-06
5.9067534e-07
-1.4779173e-06
6.2338871e-07
-1.4571596e-06
6.5571293e-07
-1.435923e-06
6.8764112e-07
-1.4142247e-06
7.1916806e-07
-1.3920803e-06
7.5028766e-07
-1.3695051e-06
7.8099543e-07
-1.3465153e-06
8.1128841e-07
-1.3231251e-06
8.4116227e-07
-1.2993493e-06
8.7061495e-07
-1.2752018e-06
8.9964377e-07
-1.2506951e-06
9.2824626e-07
-1.2258427e-06
9.5642242e-07
-1.2006566e-06
9.8417013e-07
-1.1751492e-06
1.0114906e-06
-1.1493313e-06
1.038382e-06
-1.1232135e-06
1.0648447e-06
-1.0968066e-06
1.0908804e-06
-1.0701199e-06
1.1164889e-06
-1.0431627e-06
1.1416719e-06
-1.0159436e-06
1.1664302e-06
-9.8847075e-07
1.1907656e-06
-9.6075203e-07
1.2146794e-06
-9.3279439e-07
1.2381744e-06
-9.0460445e-07
1.2612514e-06
-8.7618812e-07
1.2839125e-06
-8.4755157e-07