/*--------------------------------*- C++ -*----------------------------------*\
| =========                 |                                                 |
| \\      /  F ield         | OpenFOAM: The Open Source CFD Toolbox           |
|  \\    /   O peration     | Version:  2106                                  |
|   \\  /    A nd           | Website:  www.openfoam.com                      |
|    \\/     M anipulation  |                                                 |
\*---------------------------------------------------------------------------*/
FoamFile
{
    version     2.0;
    format      ascii;
    arch        "LSB;label=32;scalar=64";
    class       volScalarField;
    location    "0.004";
    object      p;
}
// * * * * * * * * * * * * * * * * * * * * * * * * * * * * * * * * * * * * * //

dimensions      [1 -1 -2 0 0 0 0];

internalField   nonuniform List<scalar> 
4096
(
22.116081
21.896639
21.459955
20.810404
19.954489
18.900768
17.659757
16.24382
14.667031
12.945019
11.094807
9.1346309
7.0837605
4.9622555
2.7904905
0.5899869
-1.6177614
-3.8121095
-5.9717764
-8.0760895
-10.10504
-12.039409
-13.860938
-15.5525
-17.098242
-18.483727
-19.696053
-20.723958
-21.557918
-22.190219
-22.615021
-22.828406
-22.828406
-22.615021
-22.190219
-21.557918
-20.723958
-19.696053
-18.483727
-17.098242
-15.5525
-13.860938
-12.039409
-10.10504
-8.0760895
-5.9717765
-3.8121095
-1.6177614
0.5899868
2.7904904
4.9622553
7.0837604
9.1346308
11.094807
12.945019
14.667031
16.24382
17.659757
18.900768
19.954489
20.810404
21.459955
21.896639
22.116081
22.35264
22.130879
21.68958
21.033165
20.168203
19.103343
17.849211
16.4183
14.824831
13.084599
11.214804
9.2338695
7.161253
5.0172187
2.8225714
0.59886184
-1.6324928
-3.8501296
-6.0327076
-8.1593637
-10.20987
-12.164799
-14.005697
-15.715253
-17.277444
-18.677677
-19.902912
-20.941765
-21.784609
-22.423647
-22.852976
-23.068635
-23.068635
-22.852976
-22.423647
-21.784609
-20.941765
-19.902912
-18.677677
-17.277444
-15.715253
-14.005697
-12.164799
-10.20987
-8.1593637
-6.0327076
-3.8501296
-1.6324928
0.59886176
2.8225713
5.0172186
7.1612529
9.2338694
11.214804
13.084599
14.824831
16.4183
17.849211
19.103343
20.168204
21.033165
21.68958
22.130879
22.35264
22.79847
22.572333
22.122325
21.452955
20.570921
19.485039
18.206145
16.746977
15.122034
13.34742
11.440675
9.4205826
7.3069784
5.1205346
2.8825425
0.61481069
-1.6607687
-3.9223147
-6.1481163
-8.3169068
-10.408053
-12.401739
-14.279144
-16.02261
-17.615797
-19.043818
-20.293373
-21.35285
-22.21243
-22.864158
-23.302013
-23.521955
-23.521955
-23.302013
-22.864158
-22.21243
-21.35285
-20.293373
-19.043818
-17.615797
-16.02261
-14.279144
-12.401739
-10.408053
-8.3169069
-6.1481163
-3.9223147
-1.6607687
0.61481068
2.8825425
5.1205347
7.3069784
9.4205826
11.440675
13.34742
15.122034
16.746977
18.206145
19.485039
20.570921
21.452955
22.122325
22.572333
22.79847
23.462453
23.229793
22.766806
22.078128
21.170648
20.053437
18.73764
17.236359
15.56451
13.738661
11.776852
9.6984093
7.5237386
5.274112
2.9714513
0.63813889
-1.7032702
-4.0302406
-6.3204479
-8.5520117
-10.703699
-12.755119
-14.686903
-16.48088
-18.120232
-19.589641
-20.875417
-21.96561
-22.850112
-23.520738
-23.971291
-24.197611
-24.197611
-23.971291
-23.520738
-22.850112
-21.96561
-20.875417
-19.589641
-18.120232
-16.48088
-14.686903
-12.755119
-10.703699
-8.5520117
-6.3204479
-4.0302406
-1.7032702
0.63813894
2.9714514
5.2741121
7.5237387
9.6984094
11.776852
13.738661
15.564511
17.23636
18.73764
20.053437
21.170649
22.078128
22.766806
23.229793
23.462453
24.352779
24.111368
23.630964
22.916377
21.974755
20.815506
19.450192
17.892406
16.157622
14.263028
12.227341
10.070614
7.814017
5.4796246
3.0901868
0.66891157
-1.7607893
-4.1755212
-6.552121
-8.867883
-11.100772
-13.229624
-15.234339
-17.096056
-18.797321
-20.322232
-21.65658
-22.787962
-23.705885
-24.401853
-24.869431
-25.104304
-25.104304
-24.869431
-24.401853
-23.705885
-22.787962
-21.65658
-20.322232
-18.797321
-17.096056
-15.234339
-13.229624
-11.100772
-8.8678831
-6.552121
-4.1755212
-1.7607893
0.66891162
3.0901869
5.4796246
7.8140171
10.070614
12.227341
14.263028
16.157622
17.892407
19.450192
20.815506
21.974756
22.916377
23.630964
24.111368
24.352779
25.477627
25.22515
24.722723
23.975375
22.990581
21.778177
20.350253
18.721022
16.906664
14.925153
12.796063
10.540363
8.1801943
5.7386422
3.2395014
0.70703813
-1.8342596
-4.3599179
-6.8457099
-9.267886
-11.603397
-13.830105
-15.926983
-17.874301
-19.653798
-21.248841
-22.644562
-23.827987
-24.788136
-25.516121
-26.005212
-26.250891
-26.250891
-26.005212
-25.516121
-24.788136
-23.827987
-22.644562
-21.248841
-19.653798
-17.874301
-15.926983
-13.830105
-11.603397
-9.2678861
-6.8457099
-4.359918
-1.8342596
0.70703814
3.2395015
5.7386423
8.1801944
10.540363
12.796064
14.925153
16.906664
18.721022
20.350253
21.778177
22.990581
23.975375
24.722723
25.22515
25.477627
26.8473
26.581333
26.052062
25.264783
24.227368
22.950176
21.445941
19.729632
17.818294
15.730856
13.487938
11.111627
8.6252481
6.0531196
3.420308
0.75237442
-1.9248826
-4.5856779
-7.2044876
-9.7562909
-12.216804
-14.562702
-16.771831
-18.823402
-20.698176
-22.378626
-23.849086
-25.095885
-26.107454
-26.874427
-27.389712
-27.648549
-27.648549
-27.389712
-26.874427
-26.107454
-25.095885
-23.849086
-22.378626
-20.698176
-18.823402
-16.771831
-14.562702
-12.216804
-9.756291
-7.2044876
-4.5856779
-1.9248826
0.7523744
3.420308
6.0531196
8.6252482
11.111627
13.487938
15.730856
17.818294
19.729633
21.445941
22.950176
24.227368
25.264783
26.052062
26.581333
26.8473
28.474499
28.192487
27.631286
26.796511
25.696507
24.342255
22.747258
20.927385
18.900706
16.687294
14.309012
11.789279
9.1528254
6.4254397
3.6337007
0.80471167
-2.0341712
-4.8556049
-7.6325243
-10.338398
-12.947474
-15.43502
-17.777543
-19.952999
-21.940984
-23.722913
-25.282174
-26.604266
-27.676926
-28.490217
-29.036621
-29.31109
-29.31109
-29.036621
-28.490217
-27.676926
-26.604266
-25.282174
-23.722913
-21.940984
-19.952999
-17.777543
-15.43502
-12.947474
-10.338398
-7.6325243
-4.8556049
-2.0341712
0.80471165
3.6337007
6.4254397
9.1528254
11.789279
14.309012
16.687294
18.900706
20.927385
22.747258
24.342255
25.696507
26.796511
27.631286
28.192487
28.474499
30.374309
30.073538
29.475005
28.584698
27.411517
25.967173
24.266065
22.32512
20.163608
17.80294
15.266431
12.579063
9.7672113
6.8583821
3.8809236
0.86374261
-2.1639839
-5.1730934
-8.1347205
-11.020569
-13.803176
-16.456163
-18.954477
-21.274608
-23.394797
-25.295223
-26.958171
-28.368177
-29.512162
-30.379533
-30.962268
-31.254987
-31.254987
-30.962268
-30.379533
-29.512162
-28.368177
-26.958171
-25.295223
-23.394797
-21.274608
-18.954477
-16.456163
-13.803176
-11.020569
-8.1347204
-5.1730934
-2.1639839
0.86374263
3.8809236
6.8583821
9.7672114
12.579063
15.266432
17.80294
20.163608
22.32512
24.266065
25.967173
27.411517
28.584698
29.475005
30.073538
30.374309
32.564295
32.241863
31.600225
30.645801
29.388131
27.83977
26.016156
23.935436
21.61827
19.087615
16.368469
13.487614
10.473333
7.3551134
4.163348
0.92902649
-2.3165729
-5.5421886
-8.716879
-11.810314
-14.793057
-17.636836
-20.314799
-22.801748
-25.074365
-27.111408
-28.89389
-30.405243
-31.631449
-32.561155
-33.18577
-33.499525
-33.499525
-33.18577
-32.561155
-31.631448
-30.405243
-28.89389
-27.111408
-25.074365
-22.801748
-20.314798
-17.636836
-14.793057
-11.810314
-8.7168789
-5.5421885
-2.3165728
0.92902657
4.1633481
7.3551134
10.473333
13.487614
16.368469
19.087615
21.61827
23.935436
26.016156
27.83977
29.388131
30.645801
31.600225
32.241863
32.564295
35.064652
34.717442
34.026499
32.998734
31.644424
29.977091
28.013361
25.772781
23.277606
20.55256
17.624572
14.522489
11.276773
7.9191826
4.4824502
0.99994818
-2.494643
-5.9676628
-9.3857982
-12.716396
-15.927769
-18.989483
-21.872634
-24.550102
-26.996789
-29.189834
-31.108805
-32.735872
-34.05595
-35.056824
-35.729249
-36.067019
-36.067019
-35.729249
-35.056824
-34.05595
-32.735872
-31.108805
-29.189834
-26.996789
-24.550102
-21.872633
-18.989482
-15.927769
-12.716396
-9.3857981
-5.9676627
-2.4946429
0.99994829
4.4824503
7.9191826
11.276773
14.522489
17.624572
20.55256
23.277606
25.772781
28.013361
29.977091
31.644424
32.998734
34.026499
34.717442
35.064652
37.898368
37.523018
36.776077
35.66502
34.200958
32.398514
30.27567
27.853563
25.156262
22.210507
19.04542
15.692197
12.183781
8.5545131
4.8397828
1.0756688
-2.701421
-6.4551049
-10.149381
-13.748963
-17.219613
-20.528449
-23.644246
-26.537708
-29.181723
-31.5516
-33.625273
-35.383486
-36.809949
-37.891475
-38.61808
-38.983064
-38.983064
-38.61808
-37.891475
-36.809949
-35.383486
-33.625273
-31.5516
-29.181723
-26.537707
-23.644246
-20.528449
-17.219613
-13.748963
-10.149381
-6.4551048
-2.7014209
1.0756689
4.8397828
8.5545131
12.183781
15.692197
19.04542
22.210507
25.156262
27.853563
30.27567
32.398514
34.200958
35.66502
36.776077
37.523018
37.898368
41.091412
40.684279
39.87409
38.668958
37.080939
35.125903
32.823364
30.196261
27.270717
24.075752
20.642974
17.006237
13.201289
9.2653918
5.2369397
1.1550681
-2.9407368
-7.0110233
-11.016757
-14.919688
-18.682703
-22.270166
-25.648238
-28.785175
-31.651605
-34.220777
-36.468788
-38.374782
-39.921119
-41.093517
-41.881165
-42.276809
-42.276809
-41.881165
-41.093517
-39.921119
-38.374782
-36.468788
-34.220777
-31.651605
-28.785175
-25.648238
-22.270166
-18.682703
-14.919688
-11.016757
-7.0110232
-2.9407368
1.1550681
5.2369397
9.2653918
13.201289
17.006237
20.642974
24.075752
27.270717
30.196261
32.823363
35.125903
37.080939
38.668958
39.87409
40.684279
41.091412
44.672939
44.230061
43.348745
42.037817
40.3104
38.183771
35.679167
32.821562
29.639394
26.164255
22.430552
18.475139
14.336923
10.056458
5.6755193
1.2366804
-3.2171126
-7.6429606
-11.998428
-16.241935
-20.333151
-24.233353
-27.905774
-31.31593
-34.431917
-37.224682
-39.66827
-41.740035
-43.420827
-44.695145
-45.551255
-45.981286
-45.981286
-45.551255
-44.695145
-43.420827
-41.740035
-39.66827
-37.224682
-34.431917
-31.31593
-27.905774
-24.233353
-20.333151
-16.241936
-11.998428
-7.6429607
-3.2171127
1.2366803
5.6755192
10.056458
14.336923
18.475139
22.430552
26.164255
29.639394
32.821562
35.679167
38.183771
40.3104
42.037816
43.348744
44.230061
44.672939
48.675522
48.192583
47.231548
45.802049
43.918405
41.59947
38.868421
35.752516
32.282793
28.493737
24.422903
20.110514
15.59903
10.932697
6.1570875
1.3186288
-3.5358584
-8.3596177
-13.106409
-17.730938
-22.189274
-26.439251
-30.440836
-34.156489
-37.551482
-40.594197
-43.256392
-45.513431
-47.344486
-48.732699
-49.665311
-50.133764
-50.133764
-49.665311
-48.732699
-47.344487
-45.513432
-43.256392
-40.594197
-37.551482
-34.156489
-30.440836
-26.439251
-22.189274
-17.730938
-13.106409
-8.3596178
-3.5358585
1.3186287
6.1570874
10.932697
15.59903
20.110514
24.422903
28.493737
32.282793
35.752516
38.868421
41.599469
43.918405
45.802049
47.231548
48.192583
48.675522
53.135418
52.607702
51.557564
49.995539
47.937284
45.403416
42.419287
39.014714
35.223651
31.083822
26.636316
21.925133
16.996716
11.89945
6.6831552
1.3985695
-3.9031598
-9.1709733
-14.354391
-19.403978
-24.271802
-28.911861
-33.280492
-37.336754
-41.042779
-44.364101
-47.269939
-49.733449
-51.731942
-53.247057
-54.264904
-54.776165
-54.776165
-54.264904
-53.247057
-51.731942
-49.733449
-47.269939
-44.364101
-41.042779
-37.336754
-33.280492
-28.911861
-24.271802
-19.403978
-14.354391
-9.1709734
-3.9031599
1.3985694
6.6831551
11.89945
16.996716
21.925133
26.636316
31.083822
35.223651
39.014714
42.419287
45.403416
47.937284
49.995539
51.557564
52.607702
53.135418
58.092867
57.515216
56.365712
54.655892
52.402909
49.629352
46.362998
42.636523
38.487144
33.956212
29.088767
23.93304
18.539932
12.962458
7.2551866
1.4736643
-4.3261411
-10.088383
-15.757867
-21.280561
-26.604087
-31.678188
-36.455169
-40.890316
-44.942282
-48.573438
-51.750192
-54.443258
-56.62789
-58.28407
-59.396656
-59.955497
-59.955497
-59.396656
-58.28407
-56.62789
-54.443258
-51.750192
-48.573438
-44.942282
-40.890316
-36.455169
-31.678188
-26.604087
-21.280561
-15.757867
-10.088383
-4.326141
1.4736643
7.2551866
12.962458
18.539932
23.93304
29.088767
33.956212
38.487144
42.636523
46.362998
49.629352
52.402909
54.655892
56.365712
57.515216
58.092867
63.592455
62.959221
61.699111
59.82478
57.355042
54.314678
50.73417
46.649382
42.10117
37.134937
31.800141
26.149741
20.239624
14.12798
7.8746766
1.5406194
-4.8128659
-11.12462
-17.334219
-23.382535
-29.212267
-34.768445
-39.998907
-44.854757
-49.29079
-53.265882
-56.743329
-59.691148
-62.082326
-63.895019
-65.112713
-65.724337
-65.724337
-65.112713
-63.895019
-62.082326
-59.691148
-56.743329
-53.265882
-49.29079
-44.854757
-39.998907
-34.768445
-29.212267
-23.382535
-17.334219
-11.124619
-4.8128658
1.5406194
7.8746767
14.12798
20.239624
26.149741
31.800141
37.134938
42.10117
46.649382
50.73417
54.314678
57.355042
59.82478
61.699111
62.959221
63.592455
69.683544
68.988545
67.605527
65.548379
62.837759
59.500881
55.57123
51.088214
46.096743
40.646737
34.792581
28.592522
22.108013
15.403029
8.5433497
1.5958433
-5.3722211
-12.293801
-19.102688
-25.734114
-32.125342
-38.216187
-43.949542
-49.271879
-54.133723
-58.490077
-62.300802
-65.530941
-68.150983
-70.137083
-71.471218
-72.141314
-72.141314
-71.471218
-70.137083
-68.150983
-65.530941
-62.300802
-58.490077
-54.133723
-49.271879
-43.949542
-38.216187
-32.125342
-25.734114
-19.102688
-12.293801
-5.372221
1.5958434
8.5433498
15.403029
22.108013
28.592522
34.792581
40.646737
46.096743
51.088215
55.57123
59.500881
62.83776
65.548379
67.605527
68.988545
69.683544
76.420823
75.6573
74.13792
71.877932
68.90003
65.234114
60.916995
55.992012
50.508572
44.521621
38.091039
31.280968
24.159083
16.795822
9.2635674
1.6358129
-6.0135909
-13.611107
-21.084151
-28.361718
-35.375077
-42.058286
-48.348761
-54.187841
-59.521315
-64.299901
-68.479664
-72.022364
-74.89575
-77.073776
-78.536777
-79.271578
-79.271578
-78.536777
-77.073776
-74.89575
-72.022364
-68.479664
-64.299901
-59.521315
-54.187841
-48.348761
-42.058286
-35.375077
-28.361718
-21.084151
-13.611107
-6.0135909
1.635813
9.2635674
16.795822
24.159083
31.280968
38.091039
44.521621
50.508572
55.992012
60.916995
65.234114
68.90003
71.877932
74.13792
75.6573
76.420823
83.86502
83.025603
81.355182
78.870503
75.596489
71.565998
66.819502
61.404679
55.375916
48.793734
41.724123
34.237798
26.409383
18.316545
10.039055
1.6577736
-6.7461904
-15.092172
-23.300595
-31.293515
-38.99563
-46.334652
-53.241922
-59.653076
-65.508641
-70.754581
-75.342755
-79.23131
-82.384977
-84.775307
-86.380837
-87.1872
-87.1872
-86.380837
-84.775307
-82.384977
-79.23131
-75.342755
-70.754581
-65.508641
-59.653076
-53.241922
-46.334652
-38.99563
-31.293515
-23.300595
-15.092172
-6.7461904
1.6577736
10.039054
18.316545
26.409383
34.237798
41.724123
48.793734
55.375916
61.404679
66.819502
71.565998
75.596489
78.870503
81.355182
83.025603
83.86502
92.083844
91.160527
89.323118
86.589991
82.988498
78.554728
73.33316
67.376237
60.743831
53.502627
45.725387
37.490142
28.879267
19.978534
10.876051
1.6608826
-7.5779937
-16.752158
-25.774226
-34.558553
-43.022762
-51.087568
-58.677531
-65.721911
-72.155367
-77.918563
-82.958697
-87.229916
-90.693641
-93.318789
-95.08194
-95.967434
-95.967434
-95.08194
-93.318789
-90.693641
-87.229916
-82.958697
-77.918563
-72.155367
-65.721911
-58.677531
-51.087568
-43.022762
-34.558553
-25.774226
-16.752158
-7.5779938
1.6608825
10.876051
19.978534
28.879267
37.490141
45.725387
53.502627
60.743831
67.376237
73.33316
78.554728
82.988499
86.589991
89.323118
91.160527
92.083844
101.15322
100.13736
98.115746
95.108493
91.145581
86.266589
80.520351
73.964503
66.664924
58.695068
50.13518
41.071389
31.594686
21.799973
11.784953
1.6477102
-8.5145247
-18.604839
-28.526106
-38.185246
-47.492469
-56.360509
-64.706245
-72.451765
-79.525127
-85.861064
-91.401576
-96.096381
-99.903252
-102.78823
-104.72576
-105.69879
-105.69879
-104.72576
-102.78823
-99.903252
-96.096381
-91.401576
-85.861064
-79.525127
-72.451765
-64.706245
-56.360509
-47.492469
-38.185246
-28.526106
-18.604839
-8.5145248
1.6477101
11.784953
21.799973
31.594686
41.071389
50.13518
58.695068
66.664924
73.964503
80.520351
86.266589
91.145581
95.108493
98.115746
100.13736
101.15322
111.15886
110.04122
107.81696
104.50805
100.14727
94.777927
88.453527
81.237317
73.20169
64.427493
55.00317
45.023752
34.589777
23.806611
12.782958
1.6262913
-9.5559014
-20.656255
-31.570719
-42.198214
-52.438774
-62.196316
-71.379337
-79.901861
-87.684481
-94.655236
-100.7503
-105.91447
-110.10148
-113.27424
-115.40488
-116.47482
-116.47482
-115.40488
-113.27424
-110.10148
-105.91447
-100.7503
-94.655236
-87.684481
-79.901861
-71.379337
-62.196316
-52.438774
-42.198213
-31.570719
-20.656255
-9.5559014
1.6262913
12.782958
23.806611
34.589777
45.023752
55.00317
64.427493
73.20169
81.237317
88.453527
94.777927
100.14727
104.50805
107.81696
110.04122
111.15886
122.19816
120.96896
118.52253
114.88277
110.08537
104.17756
97.217782
89.275274
80.429419
70.769052
60.391544
49.40174
37.910958
26.037049
13.899416
1.6170744
-10.691159
-22.908052
-34.920707
-46.618399
-57.891804
-68.635048
-78.746738
-88.131553
-96.701509
-104.37701
-111.08766
-116.77275
-121.38157
-124.87356
-127.21835
-128.39576
-128.39576
-127.21835
-124.87356
-121.38157
-116.77275
-111.08766
-104.37701
-96.701509
-88.131553
-78.746738
-68.635048
-57.891804
-46.618399
-34.920707
-22.908052
-10.691159
1.6170745
13.899416
26.037049
37.910958
49.401741
60.391545
70.769052
80.429419
89.275274
97.217782
104.17756
110.08537
114.88277
118.52253
120.96896
122.19816
134.38221
133.03126
130.34229
126.34113
121.06641
114.56941
106.91369
98.174747
88.439375
77.804939
66.37845
54.275672
41.620305
28.54069
15.169491
1.6431024
-11.905566
-25.351766
-38.575342
-51.456236
-63.874024
-75.711273
-86.854883
-97.198586
-106.64442
-115.10401
-122.49948
-128.76393
-133.84175
-137.68858
-140.27135
-141.56812
-141.56812
-140.27135
-137.68858
-133.84175
-128.76393
-122.49948
-115.10401
-106.64442
-97.198586
-86.854883
-75.711273
-63.874024
-51.456236
-38.575342
-25.351765
-11.905566
1.6431024
15.169491
28.54069
41.620305
54.275672
66.37845
77.804939
88.439375
98.174747
106.91369
114.56941
121.06641
126.34113
130.34229
133.03126
134.38221
147.83784
146.35471
143.40228
139.00824
133.21411
126.07513
117.66003
108.05078
97.341822
85.639471
73.060822
59.732713
45.791252
31.379247
16.648383
1.751895
-13.161939
-27.961125
-42.520147
-56.710502
-70.398307
-83.452467
-95.745553
-107.15834
-117.58113
-126.91531
-135.07457
-141.98495
-147.58547
-151.8276
-154.67538
-156.10493
-156.10493
-154.67538
-151.8276
-147.58547
-141.98495
-135.07457
-126.91531
-117.58113
-107.15834
-95.745553
-83.452467
-70.398307
-56.710502
-42.520147
-27.961125
-13.161939
1.7518951
16.648383
31.379247
45.791252
59.732713
73.060822
85.639471
97.341822
108.05078
117.66003
126.07513
133.21411
139.00824
143.40228
146.35471
147.83784
162.70868
161.08294
157.84598
153.02721
146.67071
138.83555
129.59537
119.0387
107.26772
94.398079
80.557325
65.883418
50.526055
34.642452
18.406568
1.9961202
-14.415353
-30.697393
-46.726951
-62.368239
-77.468495
-91.880084
-105.45715
-118.06514
-129.58048
-139.89261
-148.90568
-156.53769
-162.72188
-167.40515
-170.54839
-172.12557
-172.12557
-170.54839
-167.40515
-162.72188
-156.53769
-148.90568
-139.89261
-129.58048
-118.06514
-105.45715
-91.880084
-77.468495
-62.368239
-46.726951
-30.697393
-14.415353
1.9961203
18.406568
34.642452
50.526055
65.883418
80.557325
94.398079
107.26772
119.0387
129.59537
138.83555
146.67071
153.02721
157.84598
161.08294
162.70868
179.1516
177.37299
173.83067
168.55544
161.59335
153.0069
142.87405
131.28994
118.36435
104.22269
89.003416
72.854739
55.940562
38.427925
20.517516
2.4236651
-15.615911
-33.509783
-51.15489
-68.407009
-85.082103
-101.01228
-116.02697
-129.97399
-142.71335
-154.12054
-164.08918
-172.52801
-179.36432
-184.53996
-188.01271
-189.75378
-189.75378
-188.01271
-184.53996
-179.36432
-172.52801
-164.08918
-154.12054
-142.71335
-129.97399
-116.02697
-101.01228
-85.082103
-68.407009
-51.15489
-33.509783
-15.615911
2.4236652
20.517516
38.427925
55.940562
72.854739
89.003416
104.22269
118.36435
131.28994
142.87405
153.0069
161.59335
168.55544
173.83067
177.37299
179.1516
197.326
195.38465
191.51668
185.75378
178.14294
168.74945
157.65443
144.95976
130.78251
115.25851
98.538292
80.778657
62.158558
42.842172
23.050429
3.0434224
-16.710509
-36.32376
-55.739216
-74.787389
-93.225466
-110.86147
-127.49081
-142.94243
-157.05685
-169.69326
-180.73377
-190.07617
-197.64217
-203.3682
-207.21011
-209.13718
-209.13718
-207.21011
-203.3682
-197.64217
-190.07617
-180.73377
-169.69326
-157.05685
-142.94243
-127.49081
-110.86147
-93.225466
-74.787389
-55.739216
-36.32376
-16.710509
3.0434224
23.050429
42.842172
62.158558
80.778657
98.538292
115.25851
130.78251
144.95976
157.65443
168.74945
178.14294
185.75378
191.51668
195.38465
197.326
217.42479
215.31152
211.09807
204.81713
196.51407
186.25699
174.12661
160.23358
144.69983
127.67374
109.32251
89.803939
69.329697
48.019735
26.092592
3.7257789
-17.602511
-38.992605
-60.363643
-81.457734
-101.88729
-121.46727
-139.92659
-157.08762
-172.76368
-186.79255
-199.04861
-209.41035
-217.80086
-224.14582
-228.40348
-230.53913
-230.53913
-228.40348
-224.14582
-217.80086
-209.41035
-199.04861
-186.79255
-172.76368
-157.08762
-139.92659
-121.46727
-101.88729
-81.457733
-60.363643
-38.992605
-17.602511
3.7257789
26.092592
48.019735
69.329697
89.803939
109.32251
127.67374
144.69983
160.23358
174.12661
186.25699
196.51407
204.81713
211.09807
215.31152
217.42479
239.84008
237.54995
232.96932
226.14139
217.09708
205.91902
192.66499
177.47562
160.45751
141.77828
121.6554
100.16252
77.727978
54.182549
29.94163
3.730782
-17.662795
-38.217374
-56.374911
-71.876698
-84.334352
-94.092963
-101.24434
-106.15246
-109.15131
-110.6276
-110.98213
-110.59226
-109.81303
-108.94675
-108.23215
-107.83353
-107.83353
-108.23215
-108.94675
-109.81303
-110.59226
-110.98213
-110.6276
-109.15131
-106.15246
-101.24434
-94.092963
-84.334352
-71.876698
-56.374911
-38.217374
-17.662795
3.730782
29.941629
54.182549
77.727978
100.16252
121.6554
141.77828
160.45751
177.47562
192.66499
205.91902
217.09708
226.14139
232.96932
237.54995
239.84008
-107.53884
-107.94044
-108.66028
-109.53293
-110.32029
-110.71817
-110.37277
-108.90484
-105.91559
-101.01525
-93.868975
-84.102124
-71.588082
-55.893795
-37.011964
-13.556953
7.9362811
31.131081
54.561974
77.862266
100.17145
121.60929
141.68394
160.32436
177.30846
192.46276
205.69051
216.84224
225.87003
232.68318
237.25666
239.54305
239.54305
237.25666
232.68318
225.87003
216.84224
205.69051
192.46276
177.30846
160.32436
141.68394
121.60929
100.17145
77.862266
54.561974
31.131081
7.936281
-13.556954
-37.011964
-55.893795
-71.588082
-84.102124
-93.868975
-101.01525
-105.91559
-108.90484
-110.37277
-110.71817
-110.32029
-109.53293
-108.66028
-107.94044
-107.53884
-230.22486
-228.09041
-223.83454
-217.49047
-209.10106
-198.73823
-186.4806
-172.44737
-156.76438
-139.58904
-121.10022
-101.45802
-80.893041
-59.51693
-37.568308
-15.215746
6.1177946
27.471099
48.757917
69.726498
90.006048
109.40799
127.6784
144.6439
160.12907
173.98102
186.07793
196.30715
204.5892
210.85448
215.05836
217.16718
217.16718
215.05836
210.85448
204.5892
196.30715
186.07793
173.98102
160.12907
144.6439
127.6784
109.40799
90.006048
69.726498
48.757917
27.471099
6.1177945
-15.215746
-37.568309
-59.51693
-80.893041
-101.45802
-121.10022
-139.58904
-156.76438
-172.44737
-186.4806
-198.73823
-209.10106
-217.49047
-223.83454
-228.09041
-230.22486
-208.77675
-206.8501
-203.00851
-197.28208
-189.71475
-180.36905
-169.32283
-156.67656
-142.54598
-127.06694
-110.39058
-92.673418
-74.096134
-54.820356
-35.068311
-15.095308
4.6417448
24.240642
43.639751
62.671169
81.095335
98.719755
115.34211
130.79193
144.9107
157.55788
168.61447
177.977
185.56403
191.3095
195.1663
197.1023
197.1023
195.1663
191.3095
185.56403
177.977
168.61447
157.55788
144.9107
130.79193
115.34211
98.719755
81.095335
62.671169
43.63975
24.240642
4.6417447
-15.095308
-35.068311
-54.820356
-74.096134
-92.673418
-110.39058
-127.06694
-142.54598
-156.67656
-169.32283
-180.36905
-189.71475
-197.28208
-203.00851
-206.8501
-208.77675
-189.34668
-187.60564
-184.13241
-178.95536
-172.11629
-163.67244
-153.69564
-142.27535
-129.51552
-115.53643
-100.4719
-84.465439
-67.677456
-50.270364
-32.441763
-14.40218
3.613111
21.508735
39.179682
56.480325
73.225206
89.243307
104.36142
118.42346
131.28527
142.81762
152.90859
161.46149
168.39765
173.65391
177.1839
178.95647
178.95647
177.1839
173.65391
168.39765
161.46149
152.90859
142.81762
131.28527
118.42346
104.36142
89.243307
73.225206
56.480325
39.179682
21.508735
3.613111
-14.40218
-32.441763
-50.270364
-67.677456
-84.465439
-100.4719
-115.53643
-129.51552
-142.27535
-153.69564
-163.67244
-172.11629
-178.95536
-184.13241
-187.60564
-189.34668
-171.67196
-170.0945
-166.95036
-162.2652
-156.07764
-148.43997
-139.41798
-129.09212
-117.55618
-104.91775
-91.296709
-76.823696
-61.642199
-45.903532
-29.77709
-13.436405
2.9471182
19.241924
35.3227
51.050496
66.269112
80.826144
94.570393
107.36071
119.06643
129.56938
138.76569
146.56558
152.89467
157.69332
160.91711
162.53635
162.53635
160.91711
157.69332
152.89467
146.56558
138.76569
129.56938
119.06643
107.36071
94.570393
80.826144
66.269112
51.050496
35.3227
19.241924
2.9471182
-13.436405
-29.77709
-45.903532
-61.642199
-76.823696
-91.296709
-104.91775
-117.55618
-129.09212
-139.41798
-148.43997
-156.07764
-162.2652
-166.95036
-170.0945
-171.67196
-155.60482
-154.1749
-151.3262
-147.08224
-141.47854
-134.56294
-126.39556
-117.04917
-106.60862
-95.170755
-82.843494
-69.74502
-56.003833
-41.756626
-27.149909
-12.332381
2.5508921
17.367694
31.989396
46.28355
60.111931
73.338248
85.828256
97.454757
108.09949
117.65485
126.02534
133.12815
138.89398
143.26714
146.20583
147.68214
147.68214
146.20583
143.26714
138.89398
133.12815
126.02534
117.65485
108.09949
97.454757
85.828256
73.338248
60.111931
46.28355
31.989396
17.367694
2.5508922
-12.332381
-27.149909
-41.756626
-56.003833
-69.74502
-82.843494
-95.170755
-106.60862
-117.04917
-126.39556
-134.56294
-141.47854
-147.08224
-151.3262
-154.1749
-155.60482
-141.02143
-139.72444
-137.14106
-133.29297
-128.21286
-121.94455
-114.54298
-106.07424
-96.615304
-86.253663
-75.086745
-63.221189
-50.772241
-37.862325
-24.62029
-11.176993
2.3387528
15.802269
29.08961
42.075757
54.637223
66.651409
77.997493
88.560756
98.234252
106.92025
114.53152
120.9921
126.23809
130.21794
132.89282
134.23676
134.23676
132.89282
130.21794
126.23809
120.9921
114.53152
106.92025
98.234252
88.560756
77.997493
66.65141
54.637223
42.075757
29.08961
15.802269
2.3387529
-11.176993
-24.62029
-37.862325
-50.772241
-63.221189
-75.086745
-86.253663
-96.615304
-106.07424
-114.54298
-121.94455
-128.21286
-133.29297
-137.14106
-139.72444
-141.02143
-127.80227
-126.62493
-124.28013
-120.78787
-116.17822
-110.49135
-103.77749
-96.096866
-87.519391
-78.124363
-67.999891
-57.242215
-45.954898
-34.247621
-22.235075
-10.033862
2.238988
14.466442
26.53428
38.33003
49.740359
60.651906
70.956233
80.550086
89.336828
97.227871
104.14383
110.01538
114.78395
118.4022
120.83434
122.05642
122.05642
120.83434
118.4022
114.78395
110.01538
104.14383
97.227871
89.336828
80.550086
70.956233
60.651906
49.740359
38.33003
26.53428
14.466442
2.238988
-10.033862
-22.235075
-34.247621
-45.954898
-57.242215
-67.999891
-78.124363
-87.519391
-96.096866
-103.77749
-110.49135
-116.17822
-120.78787
-124.28013
-126.62493
-127.80227
-115.83399
-114.7645
-112.6347
-109.463
-105.27706
-100.1137
-94.018895
-87.047574
-79.263379
-70.738298
-61.552152
-51.791926
-41.550939
-30.927992
-20.026382
-8.9504742
2.1936434
13.298888
24.260422
34.974753
45.33722
55.245872
64.602704
73.314371
81.293471
88.459756
94.741151
100.07457
104.40659
107.69392
109.90379
111.01425
111.01425
109.90379
107.69392
104.40659
100.07457
94.741151
88.459756
81.293471
73.314371
64.602704
55.245872
45.33722
34.974753
24.260422
13.298888
2.1936433
-8.9504743
-20.026382
-30.927992
-41.550939
-51.791926
-61.552152
-70.738298
-79.263379
-87.047574
-94.018895
-100.1137
-105.27706
-109.463
-112.6347
-114.7645
-115.83399
-105.00961
-104.03753
-102.10186
-99.219532
-95.415954
-90.724913
-85.18847
-78.856781
-71.787832
-64.04707
-55.706918
-46.846186
-37.549385
-27.905606
-18.006697
-7.9476085
2.1735583
12.260249
22.216935
31.948106
41.358874
50.356925
58.853386
66.763731
74.008851
80.51607
86.220028
91.063432
94.997674
97.98332
99.990487
100.99911
100.99911
99.990487
97.98332
94.997674
91.063432
86.220028
80.51607
74.008851
66.763731
58.853386
50.356924
41.358874
31.948106
22.216934
12.260249
2.1735582
-7.9476086
-18.006697
-27.905606
-37.549385
-46.846186
-55.706918
-64.04707
-71.787832
-78.856781
-85.18847
-90.724913
-95.415954
-99.219532
-102.10186
-104.03753
-105.00961
-95.228402
-94.344436
-92.584302
-89.963585
-86.505608
-82.241344
-77.209287
-71.45525
-65.0321
-57.999388
-50.422895
-42.374068
-33.929334
-25.169173
-16.177218
-7.0401022
2.1543747
11.318194
20.363597
29.203323
37.75131
45.923791
53.640151
60.823809
67.403132
73.312292
78.492046
82.890413
86.463248
89.174699
90.997573
91.9136
91.9136
90.997573
89.174699
86.463248
82.890413
78.492045
73.312292
67.403132
60.823809
53.640151
45.923791
37.75131
29.203323
20.363597
11.318194
2.1543747
-7.0401022
-16.177218
-25.169173
-33.929334
-42.374068
-50.422895
-57.999387
-65.0321
-71.45525
-77.209286
-82.241344
-86.505608
-89.963585
-92.584302
-94.344436
-95.228402
-86.396229
-85.592023
-83.99078
-81.606813
-78.461517
-74.583274
-70.007304
-64.775461
-58.935961
-52.543036
-45.656496
-38.341212
-30.666496
-22.705373
-14.533848
-6.230342
2.1254902
10.453428
18.67333
26.705703
34.472349
41.8972
48.907116
55.432678
61.408976
66.776363
71.481138
75.476158
78.72136
81.184186
82.839926
83.671969
83.671969
82.839926
81.184186
78.72136
75.476158
71.481138
66.776363
61.408976
55.432678
48.907116
41.8972
34.472349
26.705703
18.67333
10.453428