/*--------------------------------*- C++ -*----------------------------------*\
| =========                 |                                                 |
| \\      /  F ield         | OpenFOAM: The Open Source CFD Toolbox           |
|  \\    /   O peration     | Version:  2106                                  |
|   \\  /    A nd           | Website:  www.openfoam.com                      |
|    \\/     M anipulation  |                                                 |
\*---------------------------------------------------------------------------*/
FoamFile
{
    version     2.0;
    format      ascii;
    arch        "LSB;label=32;scalar=64";
    class       surfaceScalarField;
    location    "0.004";
    object      phi_0;
}
// * * * * * * * * * * * * * * * * * * * * * * * * * * * * * * * * * * * * * //

dimensions      [0 3 -1 0 0 0 0];

oriented        oriented;

internalField   nonuniform List<scalar> 
8064
(
-0.00076677527
0.00076677527
-0.0015261731
0.00075939784
-0.002270887
0.00074471393
-0.0029937518
0.00072286474
-0.0036878121
0.00069406034
-0.0043463898
0.00065857764
-0.0049631475
0.00061675772
-0.00553215
0.00056900247
-0.0060479207
0.00051577073
-0.0065054946
0.00045757389
-0.0069004655
0.00039497091
-0.0072290286
0.00032856312
-0.007488017
0.00025898843
-0.0076749298
0.00018691281
-0.0077879427
0.00011301284
-0.0078259866
3.8043924e-05
-0.0077886829
-3.7303755e-05
-0.0076763732
-0.00011230966
-0.0074901253
-0.00018624791
-0.0072317207
-0.00025840461
-0.0069036364
-0.0003280843
-0.0065090214
-0.00039461496
-0.0060516672
-0.00045735421
-0.0055359716
-0.00051569563
-0.0049668969
-0.00056907471
-0.0043499224
-0.00061697444
-0.003690992
-0.00065893044
-0.0029964564
-0.0006945356
-0.0022730122
-0.00072344415
-0.0015276371
-0.00074537517
-0.00076752161
-0.00076011545
9.3331809e-13
-0.00076752161
0.00076752161
-0.00076752161
0.0015276371
-0.00076011545
0.0022730122
-0.00074537517
0.0029964564
-0.00072344415
0.003690992
-0.0006945356
0.0043499224
-0.00065893044
0.0049668969
-0.00061697444
0.0055359716
-0.00056907471
0.0060516672
-0.00051569563
0.0065090214
-0.00045735421
0.0069036364
-0.00039461496
0.0072317207
-0.0003280843
0.0074901253
-0.00025840461
0.0076763732
-0.00018624791
0.0077886829
-0.00011230966
0.0078259866
-3.7303754e-05
0.0077879427
3.8043924e-05
0.0076749298
0.00011301284
0.007488017
0.00018691281
0.0072290286
0.00025898843
0.0069004655
0.00032856312
0.0065054946
0.00039497091
0.0060479207
0.00045757389
0.0055321499
0.00051577073
0.0049631475
0.00056900247
0.0043463898
0.00061675772
0.0036878121
0.00065857764
0.0029937518
0.00069406034
0.002270887
0.00072286474
0.0015261731
0.00074471393
0.00076677527
0.00075939784
0.00076677527
-0.00077732184
0.0015440971
-0.0015471645
0.0015292405
-0.0023021205
0.00149967
-0.003034926
0.0014556702
-0.0037385299
0.0013976642
-0.0044061619
0.0013262096
-0.0050313976
0.0012419935
-0.0056082203
0.0011458252
-0.0061310784
0.0010386288
-0.0065949386
0.00092143411
-0.0069953345
0.00079536681
-0.0073284088
0.00066163749
-0.0075909503
0.00052152985
-0.0077804244
0.00037638699
-0.0078950101
0.00022759847
-0.0079335819
7.6615758e-05
-0.0078957639
-7.5121788e-05
-0.00778191
-0.00022616354
-0.0075931039
-0.00037505396
-0.0073311507
-0.00052035785
-0.0069985605
-0.00066067453
-0.006598525
-0.00079465048
-0.0061348872
-0.000920992
-0.005612105
-0.0010384778
-0.0050352086
-0.0011459711
-0.0044097524
-0.0012424306
-0.0037417617
-0.0013269211
-0.0030376748
-0.0013986225
-0.0023042804
-0.0014568385
-0.0015486523
-0.0015010033
-0.00077808035
-0.0015306874
9.5445681e-13
-0.001545602
0.00077808036
-0.001545602
0.0015486523
-0.0015306874
0.0023042804
-0.0015010033
0.0030376748
-0.0014568385
0.0037417617
-0.0013986225
0.0044097524
-0.0013269211
0.0050352086
-0.0012424306
0.005612105
-0.0011459711
0.0061348872
-0.0010384778
0.006598525
-0.000920992
0.0069985605
-0.00079465048
0.0073311507
-0.00066067453
0.0075931039
-0.00052035784
0.00778191
-0.00037505396
0.0078957639
-0.00022616354
0.0079335819
-7.5121787e-05
0.0078950101
7.6615759e-05
0.0077804244
0.00022759847
0.0075909503
0.00037638699
0.0073284088
0.00052152985
0.0069953345
0.00066163749
0.0065949386
0.00079536681
0.0061310784
0.00092143411
0.0056082203
0.0010386288
0.0050313976
0.0011458252
0.0044061619
0.0012419935
0.0037385299
0.0013262096
0.003034926
0.0013976642
0.0023021205
0.0014556702
0.0015471644
0.00149967
0.00077732184
0.0015292405
0.0015440971
-0.00079477271
0.0023388698
-0.0015818977
0.0023163655
-0.002353801
0.0022715733
-0.0031030549
0.0022049241
-0.0038224499
0.0021170592
-0.0045050636
0.0020088234
-0.0051443275
0.0018812574
-0.00573409
0.0017355877
-0.0062686753
0.001573214
-0.0067429378
0.0013956966
-0.0071523113
0.0012047404
-0.007492853
0.0010021792
-0.0077612808
0.00078995765
-0.0079550064
0.00057011252
-0.0080721625
0.00034475456
-0.0081116045
0.00011605781
-0.0080729426
-0.00011378368
-0.0079565395
-0.00034256661
-0.0077635038
-0.00056808969
-0.0074956807
-0.00078818092
-0.0071556361
-0.0010007191
-0.0067466325
-0.0012036541
-0.0062725983
-0.0013950262
-0.0057380905
-0.0015729856
-0.0051482518
-0.0017358099
-0.0045087606
-0.0018819218
-0.0038257775
-0.0020099042
-0.0031058851
-0.0021185149
-0.0023560248
-0.0022066988
-0.0015834296
-0.0022735985
-0.00079555368
-0.0023185633
9.8303523e-13
-0.0023411556
0.00079555368
-0.0023411556
0.0015834296
-0.0023185633
0.0023560248
-0.0022735985
0.0031058851
-0.0022066988
0.0038257775
-0.0021185149
0.0045087606
-0.0020099042
0.0051482518
-0.0018819218
0.0057380905
-0.0017358099
0.0062725983
-0.0015729856
0.0067466325
-0.0013950262
0.0071556361
-0.0012036541
0.0074956807
-0.0010007191
0.0077635038
-0.00078818092
0.0079565395
-0.00056808969
0.0080729426
-0.00034256661
0.0081116045
-0.00011378368
0.0080721625
0.00011605781
0.0079550064
0.00034475456
0.0077612808
0.00057011252
0.007492853
0.00078995765
0.0071523113
0.0010021792
0.0067429378
0.0012047404
0.0062686753
0.0013956966
0.00573409
0.001573214
0.0051443275
0.0017355877
0.0045050636
0.0018812574
0.0038224499
0.0020088234
0.0031030549
0.0021170592
0.002353801
0.0022049241
0.0015818977
0.0022715733
0.0007947727
0.0023163655
0.0023388698
-0.00081929465
0.0031581645
-0.001630705
0.0031277758
-0.0024264226
0.0030672909
-0.0031987904
0.0029772919
-0.0039403759
0.0028586447
-0.0046440432
0.0027124906
-0.0053030213
0.0025402355
-0.0059109691
0.0023435355
-0.0064620364
0.0021242814
-0.0069509198
0.00188458
-0.0073729133
0.0016267339
-0.0077239536
0.0013532194
-0.0080006586
0.0010666627
-0.008200361
0.0007698149
-0.0083211332
0.00046552672
-0.0083618
0.00015672462
-0.0083219578
-0.00015362591
-0.0082019789
-0.00046254551
-0.0080030053
-0.00076706327
-0.0077269385
-0.0010642477
-0.0073764222
-0.0013512354
-0.0069548184
-0.0016252579
-0.0064661752
-0.0018836694
-0.0059151893
-0.0021239715
-0.0053071608
-0.0023438384
-0.0046479429
-0.0025411396
-0.0039438858
-0.0027139613
-0.0032017756
-0.0028606252
-0.0024287683
-0.0029797061
-0.0016323208
-0.003070046
-0.00082011839
-0.0031307657
1.0190763e-12
-0.003161274
0.00082011839
-0.003161274
0.0016323208
-0.0031307657
0.0024287683
-0.003070046
0.0032017756
-0.0029797061
0.0039438858
-0.0028606252
0.0046479429
-0.0027139613
0.0053071608
-0.0025411396
0.0059151893
-0.0023438384
0.0064661753
-0.0021239715
0.0069548184
-0.0018836694
0.0073764222
-0.0016252579
0.0077269385
-0.0013512354
0.0080030053
-0.0010642477
0.0082019789
-0.00076706327
0.0083219578
-0.00046254551
0.0083618
-0.00015362591
0.0083211332
0.00015672462
0.008200361
0.00046552673
0.0080006586
0.0007698149
0.0077239536
0.0010666627
0.0073729133
0.0013532194
0.0069509198
0.0016267339
0.0064620364
0.00188458
0.0059109691
0.0021242814
0.0053030212
0.0023435355
0.0046440432
0.0025402355
0.0039403759
0.0027124906
0.0031987904
0.0028586447
0.0024264226
0.0029772919
0.001630705
0.0030672909
0.00081929465
0.0031277758
0.0031581645
-0.00085116865
0.0040093331
-0.0016941455
0.0039707527
-0.0025208178
0.0038939632
-0.00332323
0.003779704
-0.0040936602
0.0036290749
-0.0048246949
0.0034435254
-0.0055093
0.0032248406
-0.0061408885
0.0029751239
-0.0067133833
0.0026967762
-0.0072212759
0.0023924725
-0.0076596785
0.0020651366
-0.0080243712
0.0017179121
-0.0083118417
0.0013541332
-0.008519319
0.00097729227
-0.0086448001
0.00059100776
-0.0086870659
0.00019899042
-0.0086456968
-0.00019499499
-0.0085210778
-0.00058716452
-0.0083143935
-0.00097374753
-0.0080276177
-0.0013510236
-0.007663495
-0.001715358
-0.007225516
-0.0020632369
-0.0067178845
-0.0023913009
-0.006145478
-0.002696378
-0.0055138017
-0.0029755148
-0.0048289357
-0.0032260056
-0.0040974771
-0.0034454199
-0.0033264763
-0.0036316261
-0.0025233686
-0.0037828138
-0.0016959026
-0.003897512
-0.00085206443
-0.0039746038
1.0635472e-12
-0.0040133385
0.00085206444
-0.0040133385
0.0016959026
-0.0039746038
0.0025233686
-0.003897512
0.0033264763
-0.0037828138
0.0040974771
-0.0036316261
0.0048289357
-0.0034454199
0.0055138017
-0.0032260056
0.006145478
-0.0029755148
0.0067178845
-0.002696378
0.007225516
-0.0023913009
0.007663495
-0.0020632369
0.0080276177
-0.001715358
0.0083143935
-0.0013510236
0.0085210778
-0.00097374753
0.0086456968
-0.00058716452
0.0086870659
-0.00019499499
0.0086448001
0.00019899042
0.008519319
0.00059100776
0.0083118417
0.00097729227
0.0080243712
0.0013541332
0.0076596785
0.0017179121
0.0072212759
0.0020651366
0.0067133833
0.0023924725
0.0061408885
0.0026967762
0.0055093
0.0029751239
0.0048246949
0.0032248406
0.0040936602
0.0034435254
0.00332323
0.0036290749
0.0025208178
0.003779704
0.0016941455
0.0038939632
0.00085116865
0.0039707527
0.0040093331
-0.00089077136
0.0049001045
-0.001772969
0.0048529503
-0.0026381021
0.0047590963
-0.0034778443
0.0046194462
-0.0042841143
0.004435345
-0.0050491539
0.004208565
-0.0057656021
0.0039412888
-0.0064265662
0.003636088
-0.0070256877
0.0032958977
-0.0075572031
0.002923988
-0.0080159992
0.0025239326
-0.0083976609
0.0020995738
-0.008698514
0.0016549862
-0.0089156593
0.0011944377
-0.0090470005
0.00072234896
-0.0090912626
0.00024325251
-0.009048006
-0.00023825163
-0.0089176313
-0.00071753919
-0.008701376
-0.0011900029
-0.0084013026
-0.001651097
-0.0080202806
-0.00209638
-0.0075619601
-0.0025215574
-0.0070307376
-0.0029225234
-0.0064317153
-0.0032954003
-0.0057706527
-0.0036365774
-0.0050539118
-0.0039427464
-0.0042883967
-0.004210935
-0.0034814865
-0.0044385364
-0.0026409639
-0.0046233363
-0.0017749404
-0.0047635355
-0.0008917764
-0.0048577679
1.11597e-12
-0.0049051149
0.0008917764
-0.0049051149
0.0017749404
-0.0048577679
0.0026409639
-0.0047635355
0.0034814865
-0.0046233363
0.0042883967
-0.0044385364
0.0050539118
-0.004210935
0.0057706527
-0.0039427464
0.0064317153
-0.0036365774
0.0070307376
-0.0032954003
0.0075619601
-0.0029225234
0.0080202806
-0.0025215574
0.0084013026
-0.00209638
0.008701376
-0.001651097
0.0089176313
-0.0011900029
0.009048006
-0.00071753918
0.0090912626
-0.00023825163
0.0090470005
0.00024325251
0.0089156593
0.00072234896
0.008698514
0.0011944377
0.0083976609
0.0016549862
0.0080159992
0.0020995738
0.0075572031
0.0025239326
0.0070256877
0.002923988
0.0064265662
0.0032958977
0.0057656021
0.003636088
0.0050491539
0.0039412888
0.0042841143
0.004208565
0.0034778443
0.004435345
0.0026381021
0.0046194462
0.001772969
0.0047590963
0.00089077136
0.0048529503
0.0049001045
-0.00093855903
0.0058386635
-0.0018680836
0.0057824749
-0.0027796265
0.0056706392
-0.0036644143
0.005504234
-0.004513932
0.0052848627
-0.0053200053
0.0050146383
-0.006074879
0.0046961625
-0.0067712918
0.0043325008
-0.0074025455
0.0039271514
-0.0079625695
0.003484012
-0.0084459781
0.0030073411
-0.0088481214
0.0025017171
-0.0091651296
0.0019719945
-0.0093939493
0.0014232574
-0.0095323717
0.00086077138
-0.0095790536
0.00028993439
-0.0095335306
-0.00028377465
-0.0093962223
-0.00085484747
-0.009168429
-0.0014177962
-0.0088523202
-0.0019672058
-0.0084509151
-0.0024977851
-0.0079680553
-0.0030044173
-0.0074083694
-0.0034822093
-0.0067772302
-0.0039265395
-0.0060807039
-0.0043331037
-0.0053254928
-0.0046979575
-0.0045188712
-0.0050175566
-0.0036686151
-0.0052887924
-0.0027829273
-0.0055090241
-0.0018703574
-0.0056761054
-0.00093971826
-0.005788407
1.1765067e-12
-0.0058448331
0.00093971826
-0.0058448331
0.0018703574
-0.005788407
0.0027829273
-0.0056761054
0.0036686151
-0.0055090241
0.0045188712
-0.0052887924
0.0053254928
-0.0050175566
0.0060807039
-0.0046979575
0.0067772302
-0.0043331037
0.0074083694
-0.0039265395
0.0079680553
-0.0034822093
0.0084509151
-0.0030044173
0.0088523202
-0.0024977851
0.009168429
-0.0019672058
0.0093962223
-0.0014177962
0.0095335306
-0.00085484747
0.0095790536
-0.00028377465
0.0095323717
0.00028993439
0.0093939493
0.00086077139
0.0091651296
0.0014232574
0.0088481214
0.0019719945
0.0084459781
0.0025017171
0.0079625695
0.0030073411
0.0074025455
0.003484012
0.0067712918
0.0039271514
0.006074879
0.0043325008
0.0053200053
0.0046961625
0.004513932
0.0050146383
0.0036644143
0.0052848627
0.0027796265
0.005504234
0.0018680836
0.0056706392
0.00093855903
0.0057824749
0.0058386635
-0.00099505816
0.0068337217
-0.001980537
0.0067679537
-0.00294695
0.0066370521
-0.0038849949
0.0064422789
-0.004785644
0.0061855119
-0.0056402312
0.0058692254
-0.0064405353
0.0054964666
-0.0071788593
0.0050708247
-0.0078481038
0.0045963959
-0.008441835
0.0040777433
-0.0089543456
0.0035198517
-0.0093807084
0.00292808
-0.0097168229
0.002308109
-0.0099594531
0.0016658876
-0.010106258
0.0010075762
-0.010155813
0.0003394892
-0.010107623
-0.0003319639
-0.0099621317
-0.0010003392
-0.0097207114
-0.0016592164
-0.0093856575
-0.0023022597
-0.0089601652
-0.0029232774
-0.0084483018
-0.0035162807
-0.0078549695
-0.0040755416
-0.0071858603
-0.0045956487
-0.0064474028
-0.0050715613
-0.0056467011
-0.0054986592
-0.0047914675
-0.0058727902
-0.003889948
-0.006190312
-0.002950842
-0.0064481301
-0.0019832181
-0.0066437293
-0.00099642502
-0.0067752001
1.2470658e-12
-0.0068412581
0.00099642502
-0.0068412581
0.0019832181
-0.0067752001
0.002950842
-0.0066437293
0.003889948
-0.0064481301
0.0047914675
-0.006190312
0.0056467011
-0.0058727901
0.0064474028
-0.0054986592
0.0071858603
-0.0050715613
0.0078549695
-0.0045956487
0.0084483018
-0.0040755416
0.0089601652
-0.0035162807
0.0093856575
-0.0029232774
0.0097207114
-0.0023022597
0.0099621317
-0.0016592164
0.010107623
-0.0010003392
0.010155813
-0.0003319639
0.010106258
0.00033948921
0.0099594531
0.0010075762
0.0097168229
0.0016658876
0.0093807084
0.002308109
0.0089543456
0.00292808
0.008441835
0.0035198517
0.0078481038
0.0040777433
0.0071788593
0.0045963959
0.0064405353
0.0050708247
0.0056402312
0.0054964666
0.004785644
0.0058692254
0.0038849949
0.0061855119
0.00294695
0.0064422789
0.001980537
0.0066370521
0.00099505816
0.0067679537
0.0068337217
-0.0010608601
0.0078945818
-0.0021115063
0.0078185999
-0.0031418237
0.0076673695
-0.0041418942
0.0074423495
-0.005102093
0.0071457106
-0.0060131811
0.0067803135
-0.0068663947
0.0063496802
-0.0076535296
0.0058579596
-0.0083670194
0.0053098858
-0.0090000079
0.0047107318
-0.0095464136
0.0040662574
-0.010000987
0.0033826533
-0.010359359
0.002666481
-0.010618082
0.0019246104
-0.01077466
0.0011641546
-0.010827575
0.00039240384
-0.010776296
-0.00038324233
-0.010621291
-0.0011553443
-0.010364019
-0.0019164891
-0.010006918
-0.0026593604
-0.0095533882
-0.003376807
-0.0090077585
-0.0040619104
-0.0083752484
-0.0047080516
-0.0076619211
-0.0053089761
-0.0068746263
-0.0058588561
-0.0060209363
-0.0063523492
-0.0051090736
-0.0067846528
-0.0041478316
-0.007151554
-0.0031464892
-0.0074494725
-0.0021147203
-0.0076754982
-0.0010624987
-0.0078274217
1.3294459e-12
-0.0079037568
0.0010624987
-0.0079037568
0.0021147203
-0.0078274217
0.0031464892
-0.0076754982
0.0041478316
-0.0074494725
0.0051090736
-0.007151554
0.0060209363
-0.0067846528
0.0068746263
-0.0063523491
0.0076619211
-0.0058588561
0.0083752484
-0.0053089761
0.0090077585
-0.0047080516
0.0095533882
-0.0040619104
0.010006918
-0.003376807
0.010364019
-0.0026593604
0.010621291
-0.0019164891
0.010776296
-0.0011553443
0.010827575
-0.00038324233
0.01077466
0.00039240384
0.010618082
0.0011641546
0.010359359
0.0019246104
0.010000987
0.002666481
0.0095464136
0.0033826533
0.0090000079
0.0040662574
0.0083670194
0.0047107318
0.0076535296
0.0053098858
0.0068663947
0.0058579596
0.0060131811
0.0063496802
0.005102093
0.0067803135
0.0041418942
0.0071457106
0.0031418237
0.0074423495
0.0021115063
0.0076673695
0.0010608601
0.0078185999
0.0078945818
-0.0011366165
0.0090311983
-0.0022622883
0.0089442717
-0.0033661769
0.0087712581
-0.0044376553
0.0085138278
-0.0054664108
0.0081744661
-0.0064425451
0.0077564479
-0.00735667
0.0072638051
-0.0081999973
0.0067012869
-0.0089644235
0.006074312
-0.0096426065
0.0053889148
-0.010228035
0.0046516859
-0.010715089
0.0038697071
-0.011099091
0.003050483
-0.01137635
0.0022018694
-0.011544194
0.0013319984
-0.011600993
0.00044920353
-0.011546179
-0.00043805696
-0.011380244
-0.0013212792
-0.011104744
-0.0021919886
-0.010722285
-0.0030418198
-0.010236498
-0.0038625942
-0.009652011
-0.004646397
-0.0089744088
-0.0053856538
-0.0082101799
-0.006073205
-0.0073666587
-0.0067023773
-0.006451956
-0.0072670519
-0.0054748818
-0.0077617271
-0.0044448603
-0.0081815755
-0.0033718386
-0.0085224942
-0.0022661885
-0.0087811483
-0.0011386049
-0.0089550052
1.4245279e-12
-0.0090423617
0.0011386049
-0.0090423617
0.0022661885
-0.0089550052
0.0033718386
-0.0087811483
0.0044448603
-0.0085224942
0.0054748818
-0.0081815754
0.006451956
-0.0077617271
0.0073666587
-0.0072670519
0.0082101799
-0.0067023773
0.0089744088
-0.006073205
0.009652011
-0.0053856538
0.010236498
-0.004646397
0.010722285
-0.0038625942
0.011104744
-0.0030418198
0.011380244
-0.0021919886
0.011546179
-0.0013212792
0.011600993
-0.00043805696
0.011544194
0.00044920353
0.01137635
0.0013319984
0.011099091
0.0022018694
0.010715089
0.003050483
0.010228035
0.0038697071
0.0096426065
0.0046516859
0.0089644235
0.0053889148
0.0081999972
0.006074312
0.00735667
0.0067012869
0.0064425451
0.0072638051
0.0054664108
0.0077564479
0.0044376553
0.0081744661
0.0033661769
0.0085138278
0.0022622883
0.0087712581
0.0011366165
0.0089442717
0.0090311983
-0.0012230303
0.010254229
-0.0024342822
0.010155524
-0.0036220916
0.0099590675
-0.0047750225
0.0096667587
-0.0058819777
0.0092814213
-0.0069323068
0.0088067769
-0.007915909
0.0082474072
-0.0088233307
0.0076087086
-0.0096458561
0.0068968374
-0.01037559
0.0061186484
-0.011005531
0.0052816268
-0.011529637
0.0043938135
-0.011942882
0.0034637276
-0.012241296
0.0025002839
-0.012422007
0.0015127092
-0.01248326
0.000510457
-0.012424439
-0.00049687857
-0.012246067
-0.0014996515
-0.011949808
-0.0024882474
-0.011538453
-0.0034531744
-0.011015898
-0.0043851489
-0.010387112
-0.005275184
-0.0096580895
-0.0061146758
-0.0088358059
-0.0068954886
-0.0079281466
-0.0076100365
-0.0069438365
-0.0082513621
-0.0058923559
-0.0088132076
-0.0047838498
-0.0092900816
-0.0036290281
-0.0096773159
-0.0024390606
-0.0099711158
-0.0012254665
-0.010168599
1.5324995e-12
-0.010267828
0.0012254665
-0.010267828
0.0024390606
-0.010168599
0.0036290281
-0.0099711158
0.0047838498
-0.0096773159
0.0058923559
-0.0092900816
0.0069438365
-0.0088132076
0.0079281466
-0.0082513621
0.0088358059
-0.0076100365
0.0096580895
-0.0068954886
0.010387112
-0.0061146758
0.011015898
-0.005275184
0.011538453
-0.0043851489
0.011949808
-0.0034531744
0.012246067
-0.0024882474
0.012424439
-0.0014996515
0.01248326
-0.00049687857
0.012422007
0.000510457
0.012241296
0.0015127092
0.011942882
0.0025002839
0.011529637
0.0034637276
0.011005531
0.0043938135
0.01037559
0.0052816268
0.0096458561
0.0061186484
0.0088233307
0.0068968374
0.007915909
0.0076087086
0.0069323068
0.0082474072
0.0058819777
0.0088067769
0.0047750225
0.0092814213
0.0036220916
0.0096667587
0.0024342822
0.0099590675
0.0012230303
0.010155524
0.010254229
-0.0013208384
0.011575067
-0.0026289544
0.01146364
-0.0039117497
0.011241863
-0.0051568722
0.010911881
-0.0063523368
0.010476886
-0.0074866416
0.0099410816
-0.0085488796
0.0093096453
-0.0095288443
0.0085886733
-0.010417127
0.0077851204
-0.011205208
0.0069067289
-0.011885532
0.0059619509
-0.012451582
0.0049598638
-0.012897936
0.0039100811
-0.013220312
0.0028226602
-0.01341561
0.0017080073
-0.013481935
0.00057678179
-0.013418614
-0.00056019941
-0.013226205
-0.0016920609
-0.012906491
-0.0028079611
-0.012462472
-0.0038971934
-0.011898339
-0.0049492825
-0.011219439
-0.0059540831
-0.010432237
-0.0069018778
-0.0095442526
-0.0077834734
-0.008563994
-0.0085902951
-0.0075008812
-0.0093144749
-0.0063651541
-0.0099489348
-0.0051677739
-0.010487462
-0.0039203161
-0.010924774
-0.0026348556
-0.011256576
-0.001323847
-0.011479608
1.6536667e-12
-0.011591675
0.001323847
-0.011591675
0.0026348556
-0.011479608
0.0039203161
-0.011256576
0.0051677739
-0.010924774
0.0063651541
-0.010487462
0.0075008812
-0.0099489348
0.008563994
-0.0093144749
0.0095442526
-0.0085902951
0.010432237
-0.0077834734
0.011219439
-0.0069018778
0.011898339
-0.0059540831
0.012462472
-0.0049492825
0.012906491
-0.0038971934
0.013226205
-0.002807961
0.013418614
-0.0016920609
0.013481935
-0.00056019941
0.01341561
0.00057678179
0.013220312
0.0017080073
0.012897936
0.0028226602
0.012451582
0.0039100811
0.011885532
0.0049598638
0.011205208
0.0059619509
0.010417127
0.0069067289
0.0095288443
0.0077851204
0.0085488796
0.0085886733
0.0074866416
0.0093096453
0.0063523368
0.0099410817
0.0051568722
0.010476886
0.0039117497
0.010911881
0.0026289544
0.011241863
0.0013208384
0.01146364
0.011575067
-0.0014307751
0.013005842
-0.002847767
0.012880632
-0.0042373269
0.012631423
-0.0055860733
0.012260628
-0.0068810228
0.011771835
-0.0081097164
0.011169775
-0.0092603413
0.01046027
-0.010321845
0.0096501768
-0.011284041
0.0087473165
-0.012137707
0.0077603948
-0.012874668
0.0066989125
-0.013487875
0.0055730704
-0.013971461
0.0043936671
-0.014320796
0.0031719954
-0.014532524
0.0019197356
-0.014604592
0.00064884901
-0.014536263
-0.0006285283
-0.014328129
-0.0019001944
-0.013982107
-0.0031539829
-0.013501426
-0.0043778747
-0.012890604
-0.0055601049
-0.012155414
-0.0066892726
-0.01130284
-0.0077544517
-0.010341014
-0.0087452997
-0.0092791438
-0.0096521652
-0.0081274297
-0.010466189
-0.0068969659
-0.011179399
-0.0055996332
-0.011784794
-0.0042479818
-0.012276425
-0.0028551068
-0.012649451
-0.0014345171
-0.012900198
1.7895964e-12
-0.013026192
0.0014345171
-0.013026192
0.0028551068
-0.012900198
0.0042479818
-0.012649451
0.0055996332
-0.012276425
0.0068969659
-0.011784794
0.0081274297
-0.011179399
0.0092791438
-0.010466189
0.010341014
-0.0096521652
0.01130284
-0.0087452997
0.012155414
-0.0077544517
0.012890604
-0.0066892726
0.013501426
-0.0055601049
0.013982107
-0.0043778747
0.014328129
-0.0031539829
0.014536263
-0.0019001944
0.014604592
-0.0006285283
0.014532524
0.00064884901
0.014320796
0.0019197356
0.013971461
0.0031719954
0.013487875
0.0043936671
0.012874668
0.0055730704
0.012137707
0.0066989126
0.011284041
0.0077603948
0.010321845
0.0087473165
0.0092603413
0.0096501768
0.0081097164
0.01046027
0.0068810228
0.011169775
0.0055860733
0.011771835
0.0042373269
0.012260628
0.002847767
0.012631423
0.0014307751
0.012880632
0.013005842
-0.0015535082
0.01455935
-0.0030920492
0.014419173
-0.0046008018
0.014140175
-0.0060652355
0.013725061
-0.0074712524
0.013177852
-0.0088053252
0.012503848
-0.01005463
0.011709575
-0.011207169
0.010802716
-0.012251889
0.009792037
-0.013178786
0.008687291
-0.013978993
0.0074991199
-0.014644867
0.0062389442
-0.015170049
0.0049188493
-0.01554952
0.0035514667
-0.01577964
0.0021498558
-0.015858177
0.00072738562
-0.015784323
-0.00070238201
-0.015558706
-0.0021258116
-0.015183385
-0.0035293042
-0.01466184
-0.0048994197
-0.01399895
-0.0062229942
-0.01320096
-0.0074872628
-0.012275429
-0.0086799831
-0.011231169
-0.0097895598
-0.010078168
-0.010805166
-0.0088274977
-0.011716859
-0.0074912075
-0.012515689
-0.0060822065
-0.013193795
-0.0046141364
-0.013744495
-0.0031012346
-0.014162353
-0.001558191
-0.014443241
1.9424297e-12
-0.014584383
0.001558191
-0.014584383
0.0031012346
-0.014443241
0.0046141364
-0.014162353
0.0060822065
-0.013744495
0.0074912075
-0.013193795
0.0088274977
-0.012515689
0.010078168
-0.011716859
0.011231169
-0.010805166
0.012275429
-0.0097895598
0.01320096
-0.0086799831
0.01399895
-0.0074872628
0.01466184
-0.0062229942
0.015183385
-0.0048994197
0.015558706
-0.0035293042
0.015784323
-0.0021258116
0.015858177
-0.00070238201
0.01577964
0.00072738562
0.01554952
0.0021498558
0.015170049
0.0035514667
0.014644867
0.0049188493
0.013978993
0.0062389442
0.013178786
0.0074991199
0.012251889
0.008687291
0.011207169
0.009792037
0.01005463
0.010802716
0.0088053252
0.011709575
0.0074712523
0.012503848
0.0060652355
0.013177852
0.0046008018
0.013725061
0.0030920492
0.014140175
0.0015535082
0.014419173
0.01455935
-0.0016895292
0.01624888
-0.00336278
0.016092423
-0.0050036325
0.015781028
-0.0065962835
0.015317712
-0.0081254002
0.014706969
-0.0095762717
0.01395472
-0.010934953
0.013068256
-0.0121884
0.012056164
-0.0133246
0.010928237
-0.01433268
0.0096953709
-0.015203011
0.008369451
-0.015927293
0.0069632259
-0.016498623
0.005490179
-0.016911551
0.0039643951
-0.017162124
0.0024004283
-0.017247909
0.00081317117
-0.017168019
-0.00078227219
-0.016923115
-0.0023707158
-0.016515409
-0.0039370096
-0.015948656
-0.005466173
-0.015228128
-0.0069435226
-0.014360583
-0.0083548078
-0.013354215
-0.0096863504
-0.01221859
-0.010925185
-0.010964557
-0.012059199
-0.0096041544
-0.013077262
-0.0081504914
-0.013969352
-0.0066176204
-0.014726666
-0.0050203962
-0.015341719
-0.0033743268
-0.015808423
-0.0016954157
-0.016122152
2.1139719e-12
-0.016279799
0.0016954157
-0.016279799
0.0033743268
-0.016122152
0.0050203962
-0.015808423
0.0066176204
-0.015341719
0.0081504914
-0.014726666
0.0096041544
-0.013969352
0.010964557
-0.013077262
0.01221859
-0.012059199
0.013354215
-0.010925185
0.014360583
-0.0096863504
0.015228128
-0.0083548078
0.015948656
-0.0069435226
0.016515409
-0.005466173
0.016923115
-0.0039370096
0.017168019
-0.0023707158
0.017247909
-0.00078227218
0.017162124
0.00081317118
0.016911551
0.0024004283
0.016498623
0.0039643951
0.015927293
0.005490179
0.015203011
0.0069632259
0.01433268
0.008369451
0.0133246
0.0096953709
0.0121884
0.010928237
0.010934953
0.012056164
0.0095762717
0.013068256
0.0081254002
0.01395472
0.0065962835
0.014706969
0.0050036325
0.015317712
0.00336278
0.015781028
0.0016895292
0.016092423
0.01624888
-0.0018389796
0.018087859
-0.0036602418
0.017913685
-0.0054462417
0.017567028
-0.0071797783
0.017051249
-0.0088441636
0.016371354
-0.010423386
0.015533942
-0.011902269
0.014547138
-0.01326662
0.013420515
-0.014503368
0.012164985
-0.015600692
0.010792694
-0.016548122
0.0093168815
-0.017336639
0.007751743
-0.017958744
0.0061122835
-0.018408515
0.0044141661
-0.018681652
0.0026735652
-0.018775504
0.00090702332
-0.018689089
-0.00086868711
-0.018423102
-0.0026367025
-0.017979918
-0.0043801936
-0.017363583
-0.0060825087
-0.016579794
-0.0077273117
-0.015635869
-0.0092987323
-0.014540696
-0.010781523
-0.013304663
-0.012161219
-0.011939566
-0.013424295
-0.010458508
-0.01455832
-0.0088757642
-0.015552096
-0.0072066471
-0.016395784
-0.0054673493
-0.017081017
-0.0036747797
-0.017600992
-0.0018463906
-0.017950542
2.3064955e-12
-0.01812619
0.0018463906
-0.01812619
0.0036747797
-0.017950542
0.0054673493
-0.017600992
0.0072066471
-0.017081017
0.0088757642
-0.016395784
0.010458508
-0.015552096
0.011939567
-0.01455832
0.013304663
-0.013424295
0.014540696
-0.012161219
0.015635869
-0.010781523
0.016579794
-0.0092987323
0.017363583
-0.0077273117
0.017979918
-0.0060825087
0.018423102
-0.0043801936
0.018689089
-0.0026367025
0.018775504
-0.00086868711
0.018681652
0.00090702332
0.018408515
0.0026735652
0.017958744
0.0044141662
0.017336639
0.0061122835
0.016548122
0.007751743
0.015600692
0.0093168815
0.014503368
0.010792694
0.01326662
0.012164985
0.011902269
0.013420515
0.010423386
0.014547138
0.0088441636
0.015533942
0.0071797783
0.016371354
0.0054462416
0.017051249
0.0036602418
0.017567028
0.0018389796
0.017913685
0.018087859
-0.0020013885
0.020089248
-0.0039834987
0.019895796
-0.0059272396
0.019510769
-0.0078138938
0.018937903
-0.0096253009
0.018182761
-0.011344037
0.017252678
-0.012953588
0.016156689
-0.014438511
0.014905438
-0.015784589
0.013511063
-0.016978964
0.01198707
-0.018010257
0.010348175
-0.018868667
0.0086101531
-0.019546047
0.006789663
-0.020035962
0.0049040815
-0.020333736
0.0029713389
-0.020436476
0.0010097633
-0.020343094
-0.00096206874
-0.020054317
-0.0029254798
-0.019572687
-0.0048618236
-0.018902559
-0.0067526362
-0.018050087
-0.0085797837
-0.017023191
-0.010325629
-0.015831506
-0.011973208
-0.014486314
-0.013506411
-0.013000441
-0.014910168
-0.011388147
-0.016170615
-0.0096649796
-0.017275263
-0.0078476252
-0.018213138
-0.005953735
-0.018974907
-0.0040017458
-0.019552981
-0.0020106898
-0.019941597
2.522742e-12
-0.020136879
0.0020106898
-0.020136879
0.0040017458
-0.019941597
0.005953735
-0.019552981
0.0078476252
-0.018974907
0.0096649796
-0.018213138
0.011388147
-0.017275263
0.013000441
-0.016170615
0.014486314
-0.014910168
0.015831506
-0.013506411
0.017023191
-0.011973208
0.018050087
-0.010325629
0.018902559
-0.0085797837
0.019572687
-0.0067526362
0.020054317
-0.0048618236
0.020343094
-0.0029254798
0.020436476
-0.00096206873
0.020333736
0.0010097634
0.020035962
0.0029713389
0.019546047
0.0049040815
0.018868667
0.006789663
0.018010257
0.0086101531
0.016978964
0.010348175
0.015784589
0.01198707
0.014438511
0.013511063
0.012953588
0.014905438
0.011344037
0.016156689
0.0096253009
0.017252678
0.0078138938
0.018182761
0.0059272396
0.018937903
0.0039834987
0.019510769
0.0020013885
0.019895796
0.020089248
-0.0021752974
0.022264545
-0.0043296493
0.022050148
-0.0064423129
0.021623432
-0.0084929498
0.02098854
-0.010461825
0.020151637
-0.012330004
0.019120857
-0.014079539
0.017906223
-0.015693648
0.016519547
-0.017156883
0.014974299
-0.018455279
0.013285466
-0.01957648
0.011469376
-0.020509846
0.0095435187
-0.021246534
0.0075263516
-0.021779562
0.0054371095
-0.022103846
0.003295623
-0.022216232
0.0011221493
-0.022115515
-0.0010627865
-0.021802446
-0.0032385483