/*--------------------------------*- C++ -*----------------------------------*\
| =========                 |                                                 |
| \\      /  F ield         | OpenFOAM: The Open Source CFD Toolbox           |
|  \\    /   O peration     | Version:  2306                                  |
|   \\  /    A nd           | Website:  www.openfoam.com                      |
|    \\/     M anipulation  |                                                 |
\*---------------------------------------------------------------------------*/
FoamFile
{
    version     2.0;
    format      ascii;
    arch        "LSB;label=32;scalar=64";
    class       volVectorField;
    location    "0.06";
    object      U;
}
// * * * * * * * * * * * * * * * * * * * * * * * * * * * * * * * * * * * * * //

dimensions      [0 1 -1 0 0 0 0];

internalField   nonuniform List<vector> 
6400
(
(-0.0025347564 0.083221972 -2.4469894e-17)
(-0.0058195294 0.083126558 4.4045616e-17)
(-0.0095675752 0.082621395 -4.2821428e-18)
(-0.0131943 0.081773607 -7.4510926e-17)
(-0.016903949 0.080530593 -1.7539819e-17)
(-0.020546669 0.078880949 1.2856426e-17)
(-0.024093824 0.076816261 1.2720323e-17)
(-0.0275032 0.074328886 -9.8286036e-19)
(-0.030723369 0.071418364 1.5104122e-17)
(-0.033697627 0.068094995 1.5209837e-17)
(-0.036367424 0.064382657 9.2606907e-18)
(-0.038676144 0.060320406 5.6953714e-18)
(-0.040573363 0.055962672 1.5856776e-18)
(-0.042018709 0.051377807 -6.1201214e-18)
(-0.042985308 0.046645391 -7.9797266e-18)
(-0.043462768 0.041852356 1.4426864e-17)
(-0.043458673 0.037087874 3.6637788e-18)
(-0.042998312 0.032437903 1.3504538e-18)
(-0.042122692 0.027980092 -2.4225452e-18)
(-0.040885181 0.023779695 -1.048515e-17)
(-0.039347316 0.019886928 -2.4236403e-18)
(-0.037574386 0.016335902 1.3025354e-18)
(-0.035631478 0.013144975 -1.9327282e-18)
(-0.033580165 0.010318116 7.3019522e-19)
(-0.031475899 0.0078471638 3.4984698e-18)
(-0.029366327 0.0057145112 -1.1045445e-19)
(-0.027290519 0.0038958538 -1.7953544e-18)
(-0.025278862 0.002362865 -4.9198766e-18)
(-0.023353518 0.0010856472 -2.5915153e-18)
(-0.021531342 3.1337472e-05 6.15495e-19)
(-0.019822015 -0.00082954284 9.6020009e-20)
(-0.018228314 -0.0015234007 2.9405003e-19)
(-0.016750407 -0.0020747121 -1.3319179e-18)
(-0.01538642 -0.0025061654 -4.3299075e-19)
(-0.014132134 -0.0028374234 3.2042531e-19)
(-0.012981948 -0.0030854846 -3.1205528e-19)
(-0.011929454 -0.0032649085 -1.0475178e-18)
(-0.010967841 -0.00338805 -1.7653411e-18)
(-0.010090201 -0.0034653191 -5.938387e-19)
(-0.0092897386 -0.0035054353 -5.9966845e-19)
(-0.0085599177 -0.003515667 -6.2090174e-19)
(-0.0078945519 -0.0035020477 3.5767913e-19)
(-0.0072878571 -0.0034695679 2.1482596e-19)
(-0.0067344752 -0.003422342 2.1595145e-19)
(-0.0062294776 -0.0033637517 -6.49299e-19)
(-0.0057683554 -0.0032965688 -1.3433391e-18)
(-0.0053470011 -0.0032230573 -6.2671283e-19)
(-0.0049616846 -0.0031450612 1.5484214e-19)
(-0.0046090266 -0.0030640764 3.3722183e-19)
(-0.0042859712 -0.0029813113 -5.5964132e-19)
(-0.0039897583 -0.0028977372 -3.5601607e-19)
(-0.0037178973 -0.00281413 -1.2898399e-19)
(-0.0034681419 -0.0027311047 -3.0295781e-19)
(-0.0032384666 -0.0026491442 -2.0327441e-20)
(-0.0030270452 -0.0025686231 1.9105837e-20)
(-0.0028322308 -0.002489827 -1.7580043e-19)
(-0.0026525378 -0.0024129691 -1.5694816e-19)
(-0.0024866254 -0.0023382032 -3.8283482e-20)
(-0.0023332832 -0.0022656354 2.97591e-21)
(-0.0021914175 -0.0021953324 3.1513681e-20)
(-0.0020600395 -0.0021273299 7.2835205e-21)
(-0.0019382547 -0.0020616383 -5.5661604e-20)
(-0.0018252531 -0.0019982481 -1.1960849e-19)
(-0.0017203007 -0.0019371339 4.6461271e-20)
(-0.0016227317 -0.001878258 2.0633711e-20)
(-0.0015319419 -0.0018215733 -3.6626671e-20)
(-0.0014473823 -0.0017670256 1.5011113e-21)
(-0.0013685535 -0.0017145555 9.6679511e-21)
(-0.0012950012 -0.0016640999 -9.1648987e-21)
(-0.0012263112 -0.0016155933 -1.6226543e-20)
(-0.0011621062 -0.0015689689 -6.0696116e-20)
(-0.0011020415 -0.0015241593 -4.9596598e-20)
(-0.0010458025 -0.0014810975 3.7974266e-20)
(-0.00099310131 -0.0014397168 3.5096276e-20)
(-0.00094367459 -0.0013999517 3.7771182e-20)
(-0.00089728109 -0.0013617382 -1.9471213e-20)
(-0.00085369967 -0.0013250137 -2.4794191e-20)
(-0.00081272736 -0.0012897177 3.6982397e-20)
(-0.0007741778 -0.0012557913 2.8139321e-20)
(-0.00073787969 -0.0012231778 1.9492045e-20)
(-0.0027488608 0.091030671 -1.4683324e-17)
(-0.0063379673 0.090946541 1.2774916e-16)
(-0.010437408 0.090442483 4.1987619e-17)
(-0.014420233 0.08958198 5.3184506e-17)
(-0.018519678 0.088298041 4.9220319e-17)
(-0.022572695 0.086568502 -2.4034468e-17)
(-0.026549348 0.084372905 2.7682818e-17)
(-0.030400156 0.081691483 8.8214605e-19)
(-0.034062387 0.078513466 -1.7270726e-17)
(-0.037464728 0.074841963 7.8311104e-18)
(-0.040531702 0.070698064 -2.7128468e-18)
(-0.043188823 0.066123388 2.0898147e-17)
(-0.045368526 0.06118067 1.658411e-17)
(-0.047015692 0.055952236 8.3417679e-18)
(-0.048092513 0.050536373 9.8054772e-18)
(-0.048582851 0.045042205 2.90642e-18)
(-0.048494686 0.039582595 2.8580422e-18)
(-0.047859845 0.034266455 7.9232791e-18)
(-0.046731201 0.029191524 5.6350876e-18)
(-0.045177833 0.024438691 5.7633242e-18)
(-0.043279039 0.020068487 -3.2633146e-18)
(-0.04111817 0.016119924 1.6181102e-18)
(-0.038777258 0.012611264 -6.8269448e-19)
(-0.036332614 0.0095422739 2.2808191e-18)
(-0.033851484 0.0068976268 2.4976112e-18)
(-0.031390144 0.004650743 -1.8826154e-18)
(-0.028993127 0.0027677107 -1.2810967e-18)
(-0.02669335 0.0012111571 -2.8286246e-18)
(-0.024516405 -6.1800005e-05 -1.6997994e-18)
(-0.022476858 -0.0010892679 8.558874e-19)
(-0.020579628 -0.0019058601 -6.7098867e-19)
(-0.018826197 -0.0025442331 -1.8705783e-19)
(-0.017214496 -0.0030341675 -2.1268247e-19)
(-0.015739169 -0.0034013879 -2.5706442e-19)
(-0.014392913 -0.0036679782 -6.053693e-19)
(-0.013167293 -0.0038526691 7.4898191e-20)
(-0.012053339 -0.003971186 9.4125422e-20)
(-0.011041987 -0.0040366228 -7.0903458e-19)
(-0.010124372 -0.004059809 -8.1736566e-19)
(-0.0092920273 -0.0040496515 -1.1240814e-18)
(-0.0085370002 -0.0040134425 -3.6148509e-19)
(-0.0078519152 -0.0039571276 8.686141e-20)
(-0.0072299949 -0.0038855374 -2.1369311e-19)
(-0.0066650556 -0.0038025826 2.6927921e-19)
(-0.006151485 -0.003711418 -3.4487945e-19)
(-0.0056842098 -0.0036145792 -1.0000569e-18)
(-0.0052586574 -0.0035140955 -1.151055e-18)
(-0.0048707154 -0.0034115827 -2.4823962e-19)
(-0.0045166905 -0.0033083204 -2.7734264e-21)
(-0.0041932697 -0.0032053138 -2.9729956e-19)
(-0.0038974824 -0.0031033459 -2.5671359e-19)
(-0.0036266659 -0.0030030192 -3.9975636e-19)
(-0.0033784336 -0.0029047901 -2.3186994e-19)
(-0.0031506455 -0.0028089968 -2.6460275e-19)
(-0.0029413824 -0.0027158825 -2.4457777e-19)
(-0.0027489221 -0.0026256141 -1.714016e-19)
(-0.0025717178 -0.002538297 -1.762355e-19)
(-0.0024083801 -0.0024539885 -9.5286649e-21)
(-0.002257659 -0.002372707 -1.2768642e-19)
(-0.0021184295 -0.0022944408 -1.1981542e-19)
(-0.0019896782 -0.0022191547 6.330492e-20)
(-0.0018704911 -0.0021467952 -3.4674836e-20)
(-0.0017600432 -0.0020772956 -1.082821e-19)
(-0.0016575889 -0.0020105786 -7.2578707e-20)
(-0.001562454 -0.0019465601 -1.1232409e-19)
(-0.001474028 -0.001885151 -1.357308e-20)
(-0.0013917576 -0.0018262593 -5.2414816e-20)
(-0.0013151408 -0.0017697914 4.7130584e-20)
(-0.0012437217 -0.0017156534 -1.7286165e-20)
(-0.0011770857 -0.0016637522 -5.9933022e-20)
(-0.0011148557 -0.0016139956 -2.755478e-20)
(-0.001056688 -0.0015662938 -1.4996074e-20)
(-0.0010022694 -0.0015205589 4.2542312e-20)
(-0.00095131365 -0.0014767057 -4.2578624e-20)
(-0.00090355957 -0.0014346519 -9.6517894e-21)
(-0.00085876813 -0.0013943181 1.5626197e-20)
(-0.00081672052 -0.0013556278 -2.5213554e-20)
(-0.00077721627 -0.0013185077 9.8057898e-21)
(-0.0007400715 -0.0012828877 -3.4080011e-21)
(-0.00070511745 -0.0012487004 -2.6418477e-20)
(-0.0029619982 0.099518772 -8.9679397e-17)
(-0.0068610582 0.099452603 -1.0288343e-16)
(-0.011321541 0.098972959 -1.0024385e-16)
(-0.015678353 0.098132301 -3.9276493e-17)
(-0.020198262 0.09684558 3.0946901e-18)
(-0.024706085 0.095075121 -1.7295323e-17)
(-0.029171681 0.092782742 -1.1719288e-17)
(-0.033537095 0.089930699 6.9398216e-18)
(-0.037725428 0.086492394 -1.3666515e-19)
(-0.041646418 0.082459159 -1.6388529e-17)
(-0.045202043 0.077846101 -1.5549873e-17)
(-0.048293526 0.072696057 -1.1037458e-17)
(-0.050829503 0.067080984 3.4568693e-19)
(-0.052734025 0.061100509 -3.4822493e-18)
(-0.053953515 0.054877129 4.6993809e-18)
(-0.054463126 0.048549372 -4.2249077e-18)
(-0.054270765 0.042261917 -4.0430735e-19)
(-0.053416916 0.036154549 -8.4404351e-19)
(-0.051970625 0.030351789 2.7286814e-18)
(-0.050022416 0.024954894 6.8715712e-18)
(-0.047675594 0.02003718 -1.6306069e-18)
(-0.045037572 0.015642896 -7.3154234e-18)
(-0.042212503 0.011788719 4.0061004e-18)
(-0.039295368 0.0084674649 8.9842054e-18)
(-0.036367784 0.0056532021 6.1266275e-18)
(-0.033495795 0.0033068989 2.1180951e-18)
(-0.03072914 0.0013824384 3.1361052e-19)
(-0.028107206 -0.00017607283 2.9183337e-18)
(-0.025652619 -0.0014184565 4.8193639e-18)
(-0.023374176 -0.0023906575 2.5841383e-18)
(-0.021275804 -0.0031367579 1.2182714e-18)
(-0.019355518 -0.0036964925 8.3021123e-19)
(-0.017606562 -0.004104074 1.3454599e-18)
(-0.016019339 -0.0043886483 1.4961533e-18)
(-0.01458262 -0.0045746774 8.3094075e-19)
(-0.013284449 -0.0046824463 2.0554239e-18)
(-0.012112779 -0.0047286166 2.1202495e-18)
(-0.011055904 -0.0047267674 1.1983508e-18)
(-0.01010273 -0.0046878949 1.3456371e-18)
(-0.0092429244 -0.0046208571 9.6621462e-19)
(-0.0084669917 -0.0045327561 9.0121727e-19)
(-0.0077662846 -0.0044292626 3.549041e-19)
(-0.0071329847 -0.0043148855 9.6669661e-20)
(-0.0065600591 -0.0041931943 8.674813e-19)
(-0.0060412046 -0.0040670011 1.0060358e-18)
(-0.0055707873 -0.0039385089 2.0630232e-19)
(-0.0051437805 -0.0038094313 -7.0870058e-19)
(-0.0047557045 -0.0036810897 3.3264878e-20)
(-0.0044025698 -0.0035544918 5.3082087e-19)
(-0.0040808243 -0.0034303944 5.5022232e-19)
(-0.0037873054 -0.0033093545 2.9474217e-19)
(-0.0035191958 -0.0031917701 -2.9970997e-21)
(-0.0032739854 -0.0030779133 -6.6714487e-20)
(-0.0030494354 -0.0029679569 4.6513438e-20)
(-0.0028435483 -0.0028619954 1.6843296e-19)
(-0.0026545399 -0.0027600627 1.0402387e-19)
(-0.0024808147 -0.0026621456 1.6515225e-19)
(-0.0023209451 -0.0025681945 8.0682875e-20)
(-0.0021736519 -0.0024781329 -1.4459967e-20)
(-0.0020377877 -0.0023918639 8.7992805e-20)
(-0.0019123221 -0.002309276 4.6511207e-20)
(-0.0017963289 -0.0022302478 7.115365e-20)
(-0.0016889745 -0.0021546514 -5.2997972e-20)
(-0.0015895076 -0.0020823549 1.8568449e-21)
(-0.0014972506 -0.0020132253 4.7802175e-20)
(-0.0014115913 -0.0019471294 8.4482405e-20)
(-0.0013319763 -0.0018839359 5.968275e-20)
(-0.0012579044 -0.0018235158 4.2460258e-20)
(-0.0011889217 -0.0017657433 2.0021826e-20)
(-0.0011246159 -0.0017104965 6.5297604e-20)
(-0.0010646128 -0.0016576577 -1.6217858e-21)
(-0.0010085721 -0.0016071134 5.6486002e-21)
(-0.00095618388 -0.001558755 6.1165755e-20)
(-0.00090716581 -0.0015124783 -2.936819e-20)
(-0.00086126027 -0.0014681838 1.1612208e-21)
(-0.00081823202 -0.0014257764 -1.3583863e-20)
(-0.00077786601 -0.0013851658 3.5420339e-20)
(-0.00073996543 -0.0013462658 2.0365221e-20)
(-0.00070435004 -0.0013089947 -1.3668405e-20)
(-0.00067085457 -0.0012732747 -7.1397352e-21)
(-0.0031664669 0.10868244 -7.5048442e-17)
(-0.007367752 0.10864363 -2.4562359e-17)
(-0.012186062 0.10822255 8.9653456e-18)
(-0.016926365 0.10745039 -1.4659793e-17)
(-0.021893311 0.1062197 1.416274e-18)
(-0.026902235 0.10447078 3.3206754e-17)
(-0.031924587 0.10213993 -7.5060845e-19)
(-0.036892713 0.099163087 -1.8268651e-18)
(-0.041711972 0.095490075 -4.3282534e-18)
(-0.046267525 0.091093797 -4.8258937e-18)
(-0.050431386 0.085978453 7.1447128e-18)
(-0.054071708 0.080185543 2.8272757e-18)
(-0.057063953 0.073796819 5.8563113e-18)
(-0.059302567 0.066933241 6.5034968e-18)
(-0.060711032 0.059748841 -6.1538585e-18)
(-0.061251261 0.052421547 2.1152054e-18)
(-0.060930194 0.045139336 5.0687187e-18)
(-0.059799961 0.038084108 1.7002368e-18)
(-0.057952007 0.031416548 1.8838111e-18)
(-0.055506561 0.025264682 -7.7846937e-19)
(-0.05259978 0.019717652 1.1593919e-18)
(-0.049371436 0.014824887 -3.8870885e-18)
(-0.045954742 0.010598883 6.9348969e-19)
(-0.04246836 0.0070212724 -1.8563774e-18)
(-0.039011117 0.0040506662 -3.1209501e-18)
(-0.035659261 0.0016317168 -2.8635357e-18)
(-0.0324742 -0.0003078386 -1.8617791e-18)
(-0.029492151 -0.001833665 -2.4691601e-18)
(-0.026729076 -0.0030074665 -2.5371877e-18)
(-0.024193382 -0.0038895584 -2.1034496e-18)
(-0.021883843 -0.0045339063 1.0370505e-19)
(-0.019792079 -0.0049868499 3.4839705e-19)
(-0.017905399 -0.005287555 -6.0929709e-19)
(-0.016208679 -0.0054685201 -2.0642367e-19)
(-0.014685758 -0.005556324 -1.0058762e-18)
(-0.0133204 -0.0055724558 4.7890708e-19)
(-0.012096931 -0.0055341293 5.4322261e-19)
(-0.011000625 -0.0054550308 -2.6482894e-19)
(-0.010017896 -0.0053459742 1.5146934e-19)
(-0.009136386 -0.0052154575 -1.564897e-19)
(-0.0083449579 -0.0050701253 5.5820018e-19)
(-0.0076336437 -0.0049151461 7.1341489e-19)
(-0.0069935664 -0.0047545177 7.4293886e-19)
(-0.0064168464 -0.0045913116 5.7365848e-19)
(-0.0058965057 -0.0044278686 4.7673337e-19)
(-0.0054263733 -0.0042659536 6.1042748e-20)
(-0.0050009956 -0.0041068789 -5.6254614e-19)
(-0.0046155547 -0.0039516015 -1.1148322e-19)
(-0.0042657933 -0.0038008001 2.5143589e-19)
(-0.0039479477 -0.0036549368 1.6697793e-19)
(-0.0036586889 -0.003514305 3.596212e-19)
(-0.0033950695 -0.0033790681 3.555046e-19)
(-0.0031544777 -0.0032492895 -1.3721855e-21)
(-0.0029345963 -0.0031249566 -7.6510731e-20)
(-0.0027333674 -0.0030059994 -1.7573917e-19)
(-0.0025489608 -0.0028923059 -4.8057037e-20)
(-0.0023797467 -0.0027837329 2.1131502e-19)
(-0.0022242723 -0.0026801162 2.07465e-19)
(-0.0020812404 -0.0025812766 -1.2140768e-19)
(-0.0019494913 -0.0024870268 -1.9434444e-19)
(-0.0018279869 -0.0023971743 -3.118616e-20)
(-0.0017157967 -0.002311526 1.7559569e-19)
(-0.0016120855 -0.0022298899 1.430674e-20)
(-0.0015161027 -0.0021520771 -7.281469e-20)
(-0.0014271727 -0.0020779036 -2.8175644e-20)
(-0.0013446868 -0.0020071909 1.79016e-20)
(-0.0012680958 -0.0019397669 2.0580578e-19)
(-0.0011969033 -0.0018754662 1.0022962e-19)
(-0.0011306606 -0.0018141305 -1.235918e-19)
(-0.0010689612 -0.0017556086 -9.8195793e-20)
(-0.0010114364 -0.0016997564 4.9677346e-20)
(-0.00095775161 -0.0016464369 3.2537385e-20)
(-0.00090760271 -0.0015955203 6.0811195e-21)
(-0.00086071293 -0.0015468831 -5.8670503e-20)
(-0.00081683014 -0.0015004085 -4.5136548e-20)
(-0.00077572444 -0.001455986 -4.1855121e-20)
(-0.00073718592 -0.0014135111 4.5687182e-20)
(-0.00070102273 -0.0013728849 4.9447231e-20)
(-0.00066705937 -0.001334014 -1.4271299e-20)
(-0.00063513511 -0.0012968102 -3.2306131e-20)
(-0.0033496896 0.11848402 -1.4279668e-16)
(-0.0078264295 0.11848609 -1.4878539e-16)
(-0.012980083 0.11817228 6.6844924e-17)
(-0.018099688 0.11753922 -3.3968547e-17)
(-0.023532162 0.11645201 -2.9008693e-17)
(-0.029088371 0.11482006 7.6071248e-18)
(-0.034744363 0.11254368 3.8083033e-18)
(-0.040421589 0.1095205 -1.9652025e-17)
(-0.046003141 0.10566611 -8.7874877e-18)
(-0.051342463 0.10092539 -2.5033389e-17)
(-0.056271916 0.095284275 -3.4138762e-17)
(-0.060614715 0.0887784 -2.3369558e-17)
(-0.064199956 0.081498943 -2.3968739e-17)
(-0.066879679 0.073592867 -5.4650515e-18)
(-0.068543682 0.065255492 -1.8607309e-17)
(-0.069133589 0.05671811 -2.1077165e-17)
(-0.068653728 0.048228467 1.3808999e-18)
(-0.06717214 0.040026781 2.5232848e-18)
(-0.064811833 0.032323219 6.8031879e-18)
(-0.061734808 0.025281317 -5.6100868e-18)
(-0.05812274 0.019009718 -7.6300132e-18)
(-0.054159369 0.013562135 2.3211688e-18)
(-0.05001629 0.0089424725 -5.2451579e-18)
(-0.045841978 0.0051148667 -4.8073266e-18)
(-0.041754685 0.0020166215 -4.9561178e-18)
(-0.037851295 -0.00044368377 -1.4485972e-17)
(-0.034191245 -0.0023529381 -9.0332941e-18)
(-0.030803871 -0.003794867 -5.0965888e-18)
(-0.027705829 -0.0048530495 -5.9296701e-18)
(-0.024898229 -0.0056021808 -3.9719944e-18)
(-0.02237103 -0.0061063271 -5.3728324e-18)
(-0.020107401 -0.0064192207 -3.2691154e-18)
(-0.018086725 -0.0065849095 8.4296213e-20)
(-0.01628682 -0.0066388632 -1.7447228e-18)
(-0.014685453 -0.0066092403 -3.0884172e-18)
(-0.013261305 -0.006518142 -2.5816243e-18)
(-0.011994533 -0.0063827565 -2.5663507e-18)
(-0.010867034 -0.0062163502 -1.3943042e-18)
(-0.0098625299 -0.0060290942 -2.3104918e-18)
(-0.0089665234 -0.0058287374 -2.4532444e-18)
(-0.0081661908 -0.005621143 5.9281526e-20)
(-0.0074502407 -0.005410713 1.4510087e-18)
(-0.0068087597 -0.0052007197 1.0381909e-18)
(-0.006233059 -0.0049935648 -1.8888192e-19)
(-0.0057155301 -0.004790979 3.5889837e-19)
(-0.0052495114 -0.0045941782 -8.7896574e-20)
(-0.0048291689 -0.0044039843 -5.0462533e-19)
(-0.0044493898 -0.004220919 -9.9978224e-20)
(-0.0041056902 -0.0040452762 -1.1748758e-19)
(-0.0037941331 -0.0038771785 1.7037749e-20)
(-0.0035112574 -0.0037166203 2.0169187e-19)
(-0.003254016 -0.0035635021 8.7921276e-20)
(-0.0030197231 -0.0034176559 -6.390042e-20)
(-0.0028060068 -0.0032788656 5.827986e-21)
(-0.0026107703 -0.0031468822 -7.4280781e-20)
(-0.0024321561 -0.003021436 -1.9319405e-19)
(-0.002268517 -0.002902245 -8.7356807e-20)
(-0.0021183892 -0.0027890224 9.0256805e-20)
(-0.0019804705 -0.0026814813 -4.4970929e-20)
(-0.0018536003 -0.0025793385 -6.7653484e-20)
(-0.0017367427 -0.0024823175 -2.1178774e-20)
(-0.0016289716 -0.0023901502 8.8226821e-20)
(-0.0015294581 -0.0023025782 -5.6486297e-20)
(-0.0014374589 -0.0022193542 -3.6403468e-20)
(-0.0013523065 -0.0021402415 -7.2097018e-22)
(-0.0012734008 -0.0020650154 -1.0971887e-19)
(-0.0012002016 -0.0019934622 4.2531169e-20)
(-0.0011322216 -0.0019253795 3.0438417e-20)
(-0.0010690208 -0.001860576 -3.6126445e-20)
(-0.0010102015 -0.0017988709 -6.7834564e-20)
(-0.00095540377 -0.0017400938 -3.3627364e-20)
(-0.00090430116 -0.001684084 1.2728431e-22)
(-0.00085659752 -0.0016306902 6.234964e-21)
(-0.00081202372 -0.0015797698 -3.2859876e-20)
(-0.00077033494 -0.0015311889 -7.6171362e-21)
(-0.0007313082 -0.0014848215 -2.5961106e-20)
(-0.00069474017 -0.0014405488 -6.8589162e-21)
(-0.00066044523 -0.0013982595 1.6110566e-20)
(-0.00062825378 -0.0013578488 1.4069213e-20)
(-0.00059801066 -0.0013192181 -2.0380325e-20)
(-0.0034922535 0.12883702 -1.3265738e-16)
(-0.0081913664 0.12889857 -1.5230866e-16)
(-0.013629522 0.12875964 -2.018303e-17)
(-0.019102885 0.1283661 -3.3442841e-17)
(-0.025005441 0.12754911 -8.875538e-17)
(-0.031151805 0.12617531 -5.1289305e-18)
(-0.037527741 0.12409543 4.0748669e-17)
(-0.044042745 0.12115115 9.0922476e-17)
(-0.050551752 0.11720971 4.0934507e-17)
(-0.056867671 0.11217409 5.4800017e-17)
(-0.062770717 0.10600141 8.1746292e-17)
(-0.068023513 0.098713728 2.8908272e-17)
(-0.072390273 0.090409186 3.3170469e-17)
(-0.075661771 0.081265605 -6.1609166e-18)
(-0.07767774 0.071532497 -7.9222131e-19)
(-0.078348384 0.061514219 6.2372663e-18)
(-0.077672401 0.051542271 8.8983581e-18)
(-0.075739944 0.041938941 8.8207073e-18)
(-0.072719306 0.032983089 -5.4940098e-18)
(-0.068832128 0.024885765 -2.4710393e-17)
(-0.064324035 0.017779394 -2.5996785e-17)
(-0.059439099 0.011719458 4.0757648e-18)
(-0.054399552 0.0066941408 3.614867e-18)
(-0.049390102 0.0026414459 -4.6243356e-18)
(-0.044565009 -0.00054928125 2.3345941e-18)
(-0.040023717 -0.0029924052 -8.4333005e-18)
(-0.035820787 -0.0048022217 -5.9457903e-18)
(-0.03198819 -0.0060958225 1.4862661e-18)
(-0.028532848 -0.0069786364 -2.7309773e-18)
(-0.02544366 -0.0075412499 1.2365807e-18)
(-0.022698375 -0.0078591445 -2.4979642e-18)
(-0.02026857 -0.007993438 -1.8607591e-18)
(-0.018123295 -0.0079925111 3.6717198e-18)
(-0.016231546 -0.0078939717 1.9663778e-19)
(-0.014563802 -0.0077266291 -1.9017289e-19)
(-0.013092866 -0.0075122931 -1.6387305e-18)
(-0.011794239 -0.0072673125 -2.395286e-18)
(-0.010646184 -0.0070038362 1.1986751e-19)
(-0.0096296043 -0.0067308147 -1.6846879e-18)
(-0.0087278389 -0.0064547782 -1.2175656e-18)
(-0.007926407 -0.0061804352 1.4786879e-18)
(-0.0072127528 -0.0059111255 1.3401428e-18)
(-0.0065760008 -0.0056491628 1.5314826e-19)
(-0.0060067315 -0.0053960951 1.1585977e-19)
(-0.0054967826 -0.0051529001 6.1620719e-19)
(-0.005039075 -0.0049201335 8.7550206e-20)
(-0.0046274617 -0.0046980405 -3.3183165e-19)
(-0.0042565973 -0.0044866399 -1.1065376e-19)
(-0.0039218258 -0.0042857882 1.7505061e-19)
(-0.0036190849 -0.0040952274 3.0557373e-19)
(-0.0033448235 -0.0039146206 4.5481945e-19)
(-0.0030959322 -0.0037435798 2.5029736e-19)
(-0.0028696828 -0.0035816858 9.4383299e-20)
(-0.0026636774 -0.0034285032 1.9857494e-19)
(-0.0024758044 -0.003283592 -1.6675225e-20)
(-0.0023042009 -0.0031465151 -1.259e-19)
(-0.0021472203 -0.0030168443 1.611918e-19)
(-0.0020034047 -0.0028941647 3.7233242e-19)
(-0.0018714606 -0.0027780768 7.9413168e-20)
(-0.001750239 -0.0026681986 -2.7321282e-20)
(-0.0016387167 -0.0025641666 7.0311022e-20)
(-0.0015359818 -0.002465636 1.3536479e-19)
(-0.0014412196 -0.0023722808 1.2768007e-19)
(-0.0013537013 -0.0022837937 8.1932736e-20)
(-0.001272774 -0.0021998852 -7.6635534e-20)
(-0.0011978518 -0.0021202833 -5.1335934e-20)
(-0.0011284082 -0.0020447327 8.852334e-20)
(-0.0010639692 -0.001972994 1.652911e-19)
(-0.0010041075 -0.0019048427 -7.4999744e-21)
(-0.00094843761 -0.0018400685 -6.751819e-20)
(-0.00089661096 -0.0017784747 -2.3797001e-20)
(-0.00084831209 -0.001719877 4.7125433e-20)
(-0.0008032551 -0.0016641029 1.264749e-19)
(-0.00076118055 -0.0016109911 5.7404712e-21)
(-0.00072185274 -0.0015603904 -5.4626297e-21)
(-0.00068505723 -0.0015121597 -1.7387438e-20)
(-0.00065059872 -0.0014661665 2.3769113e-20)
(-0.00061829911 -0.0014222869 8.3825201e-20)
(-0.00058799585 -0.001380405 6.7933939e-21)
(-0.00055954035 -0.0013404119 -3.2140325e-20)
(-0.0035663185 0.13958545 -1.2877207e-16)
(-0.0083984694 0.13973115 -4.0205789e-17)
(-0.014028959 0.13985765 -5.0834247e-17)
(-0.019798104 0.13984493 3.0324913e-17)
(-0.026153065 0.13947808 -3.2651046e-17)
(-0.032923811 0.13856627 -3.5233943e-17)
(-0.040115159 0.1368942 -1.0822477e-16)
(-0.047623756 0.13422009 -4.2111227e-17)
(-0.055268208 0.1303453 -2.6874696e-17)
(-0.062810383 0.12511098 -6.9398996e-17)
(-0.069962527 0.118431 -2.0509462e-17)
(-0.076406946 0.11030111 1.5059894e-17)
(-0.0818172 0.10081955 2.1568598e-17)
(-0.085894665 0.090198824 1.3906696e-17)
(-0.088403564 0.078759374 -1.0843634e-17)
(-0.089204739 0.066906714 2.9193391e-17)
(-0.088285738 0.055091636 -1.9022462e-17)
(-0.085767974 0.043754021 1.8290038e-17)
(-0.081885953 0.033269583 3.8748107e-17)
(-0.076947924 0.023913465 2.0747716e-17)
(-0.071290634 0.01584657 -2.1529042e-18)
(-0.06524132 0.0091209281 -5.476183e-18)
(-0.059088193 0.0036973629 2.8659505e-18)
(-0.053078321 -0.00054629924 -1.0562751e-17)
(-0.047380604 -0.0037568284 -4.7728055e-18)
(-0.042097062 -0.0060900889 -7.5126555e-18)
(-0.037288422 -0.0077112001 -1.0938876e-17)
(-0.032974964 -0.0087717976 -5.1560007e-18)
(-0.029146845 -0.0094030682 -6.4427353e-18)
(-0.025775136 -0.0097139102 -3.0580746e-18)
(-0.022820291 -0.0097914831 -4.6890986e-18)
(-0.020238386 -0.0097035373 -3.8347106e-18)
(-0.017985311 -0.0095014899 -7.2641736e-19)
(-0.016019331 -0.0092236033 -2.2510411e-18)
(-0.014302434 -0.0088978911 -2.681043e-18)
(-0.012800858 -0.0085445832 -2.5498069e-18)
(-0.011485112 -0.0081781033 -1.7666814e-18)
(-0.010329706 -0.0078086043 -1.0791513e-18)
(-0.0093127504 -0.0074431226 -1.5852816e-18)
(-0.0084155121 -0.0070864322 -1.3958057e-18)
(-0.0076219812 -0.0067416708 -3.2021147e-19)
(-0.0069184747 -0.0064107986 5.3160868e-20)
(-0.0062932896 -0.0060949308 -1.7697787e-19)
(-0.0057364028 -0.0057945801 6.1877894e-19)
(-0.0052392149 -0.0055098334 1.0808364e-19)
(-0.0047943328 -0.0052404819 -5.6731978e-19)
(-0.0043953866 -0.0049861141 -7.5368189e-19)
(-0.0040368758 -0.0047461854 7.0155356e-20)
(-0.0037140397 -0.0045200677 1.0158098e-19)
(-0.0034227487 -0.0043070862 -1.2328063e-19)
(-0.003159412 -0.0041065451 -1.6457988e-20)
(-0.0029209004 -0.0039177471 -2.9992298e-19)
(-0.0027044811 -0.0037400054 -5.1132663e-20)
(-0.0025077615 -0.0035726535 1.3637908e-19)
(-0.0023286431 -0.0034150508 3.9544216e-19)
(-0.0021652807 -0.003266586 2.9043123e-20)
(-0.0020160492 -0.0031266798 -2.9218493e-19)
(-0.0018795136 -0.0029947851 9.7497522e-20)
(-0.0017544049 -0.0028703872 8.4393107e-20)
(-0.0016395984 -0.0027530033 2.8766863e-19)
(-0.0015340954 -0.0026421816 1.5345165e-19)
(-0.0014370076 -0.0025374998 -1.7529029e-19)
(-0.0013475435 -0.0024385637 -8.2677435e-21)
(-0.0012649963 -0.0023450058 5.9309365e-20)
(-0.0011887342 -0.0022564837 1.566447e-19)
(-0.0011181911 -0.0021726786 5.8780887e-20)
(-0.0010528591 -0.0020932935 -1.2801458e-19)
(-0.00099228217 -0.0020180523 8.1855271e-20)
(-0.00093604948 -0.0019466977 4.8684964e-20)
(-0.000883791 -0.0018789904 1.23652e-19)
(-0.00083517266 -0.0018147077 1.5200508e-20)
(-0.00078989254 -0.0017536421 -7.0179901e-20)
(-0.00074767734 -0.0016956006 4.9928516e-20)
(-0.00070827938 -0.0016404031 -1.1412479e-20)
(-0.00067147385 -0.0015878822 9.4383777e-20)
(-0.00063705652 -0.0015378814 4.0583423e-20)
(-0.00060484152 -0.0014902551 -7.1342556e-20)
(-0.00057465957 -0.0014448673 3.6464924e-21)
(-0.00054635628 -0.0014015912 1.1313432e-20)
(-0.0005197907 -0.0013603082 9.0266384e-20)
(-0.0035338497 0.1504766 -2.4711452e-16)
(-0.0083608974 0.1507391 -3.9910579e-16)
(-0.01403122 0.15124443 -3.1112435e-16)
(-0.019989393 0.15181231 -1.7016579e-16)
(-0.026745876 0.1521457 -5.0598927e-17)
(-0.0341575 0.1519846 -3.7880366e-17)
(-0.042267742 0.15102957 -3.0980542e-17)
(-0.050958987 0.14890824 -1.315833e-16)
(-0.060000664 0.14533892 -6.9294488e-17)
(-0.069092186 0.14007058 -4.2646936e-17)
(-0.077857885 0.13295627 -1.0802789e-16)
(-0.085877109 0.12394495 -2.5420853e-17)
(-0.092697539 0.11311952 -3.9083746e-17)
(-0.097888714 0.1007267 -1.6977983e-17)
(-0.1010989 0.087178711 -8.4604608e-18)
(-0.10210994 0.073022827 -2.0068097e-17)
(-0.10088811 0.058882826 1.088229e-17)
(-0.097599797 0.045370546 7.547365e-18)
(-0.092578469 0.033000507 4.6139486e-18)
(-0.086260241 0.022135163 -5.1508869e-18)
(-0.079113004 0.012968307 -1.6651166e-17)
(-0.071579709 0.0055371758 -2.8677068e-18)
(-0.064056297 -0.00026549266 2.9587578e-18)
(-0.056832049 -0.0046168474 1.8099037e-18)
(-0.05009751 -0.0077257559 3.8372361e-18)
(-0.04396839 -0.0098247875 5.8969806e-18)
(-0.038494362 -0.011135441 6.0725661e-18)
(-0.033673454 -0.011852336 1.3113131e-18)
(-0.029469706 -0.012137217 4.2256164e-19)
(-0.025827926 -0.01211837 -1.1931853e-18)
(-0.022684727 -0.01189372 7.4051706e-19)
(-0.019975975 -0.011535649 4.5846135e-19)
(-0.01764127 -0.011096206 -1.6725033e-18)
(-0.015626242 -0.010611938 -2.7928356e-19)
(-0.01388337 -0.010107962 -1.7540589e-18)
(-0.012371893 -0.0096011864 1.7336908e-18)
(-0.011057253 -0.0091027373 1.6054976e-18)
(-0.0099103368 -0.0086197142 -6.3612023e-19)
(-0.008906681 -0.0081564451 2.5464987e-19)
(-0.0080257302 -0.0077153618 -6.9555626e-19)
(-0.0072501948 -0.0072976046 -1.0564208e-18)
(-0.0065654998 -0.0069034423 -5.7759533e-19)
(-0.0059593247 -0.0065325638 -8.7060059e-19)
(-0.0054212243 -0.0061842793 1.2703813e-19)
(-0.0049423159 -0.0058576614 8.8322257e-19)
(-0.0045150231 -0.005551644 2.3033564e-19)
(-0.0041328643 -0.0052650903 -8.9411102e-19)
(-0.003790278 -0.0049968406 -4.3999055e-19)
(-0.0034824786 -0.0047457444 -7.0435093e-20)
(-0.0032053366 -0.0045106819 3.1485723e-19)
(-0.0029552786 -0.0042905779 2.367337e-19)
(-0.0027292045 -0.00408441 -2.4945043e-19)
(-0.0025244173 -0.0038912132 -3.085702e-19)
(-0.0023385654 -0.0037100818 1.1263846e-19)
(-0.0021695927 -0.003540169 4.0480087e-19)
(-0.0020156976 -0.0033806856 -3.3333679e-19)
(-0.0018752978 -0.0032308984 -1.8450499e-19)
(-0.0017470002 -0.0030901266 5.511895e-20)
(-0.0016295759 -0.0029577396 4.8878161e-20)
(-0.0015219386 -0.0028331536 2.0948606e-19)
(-0.0014231258 -0.0027158283 -2.5433838e-19)
(-0.0013322832 -0.0026052643 -1.0061562e-19)
(-0.001248651 -0.0025009998 -2.1796678e-20)
(-0.0011715524 -0.0024026078 4.0302741e-20)
(-0.001100383 -0.0023096937 1.4338857e-19)
(-0.0010346026 -0.0022218925 -9.9504438e-20)
(-0.00097372726 -0.0021388665 -3.8103767e-20)
(-0.00091732265 -0.0020603036 5.8152403e-21)
(-0.00086499863 -0.0019859147 4.4445786e-20)
(-0.00081640399 -0.001915432 1.4212882e-19)
(-0.00077122214 -0.0018486076 -1.1688013e-19)
(-0.00072916729 -0.0017852116 -4.8133607e-20)
(-0.00068998105 -0.0017250309 5.7592562e-20)
(-0.00065342951 -0.0016678676 -3.7904943e-21)
(-0.00061930061 -0.0016135381 3.471485e-20)
(-0.00058740185 -0.0015618717 -7.3145857e-20)
(-0.00055755825 -0.0015127099 -7.1133443e-21)
(-0.00052961059 -0.0014659052 2.0197651e-20)
(-0.00050341376 -0.0014213201 -7.550556e-21)
(-0.0004788354 -0.0013788269 4.0441393e-20)
(-0.0033421999 0.1611261 -1.3117268e-16)
(-0.0079689199 0.16155433 -1.1010055e-16)
(-0.013433731 0.16255457 -4.0696789e-16)
(-0.01940073 0.16399867 -1.7094227e-16)
(-0.026462744 0.16536818 -6.536152e-17)
(-0.034497148 0.16636073 2.4579435e-16)
(-0.043635809 0.16657162 1.3740259e-16)
(-0.053740274 0.16540957 1.1140227e-16)
(-0.064507549 0.16250513 1.4007386e-16)
(-0.07556545 0.15746528 7.0341733e-17)
(-0.086424089 0.1500658 4.4155115e-17)
(-0.096539263 0.14017716 3.172014e-17)
(-0.10528637 0.12783524 2.8606921e-17)
(-0.11203871 0.11330867 -5.5211534e-18)
(-0.11626238 0.09712508 1.706387e-17)
(-0.11760992 0.080033234 -3.7768055e-18)
(-0.1160076 0.062912858 8.0745712e-18)
(-0.11168793 0.046633244 2.1397458e-19)
(-0.10513544 0.031911607 -1.4816549e-17)
(-0.096978472 0.019230208 -1.5382526e-17)
(-0.087877521 0.0088156529 1.8098628e-17)
(-0.078460104 0.00064790534 9.6224406e-18)
(-0.069223617 -0.0054569169 2.7562147e-18)
(-0.060520638 -0.009765075 1.7422132e-17)
(-0.052573215 -0.012600122 1.1667868e-17)
(-0.045494051 -0.01428814 1.773691e-17)
(-0.039305857 -0.015124179 2.0310407e-17)
(-0.033968906 -0.015355783 5.1168522e-18)
(-0.029406894 -0.015178526 6.0580642e-18)
(-0.025527081 -0.014739358 7.3172779e-18)
(-0.022234075 -0.014143982 9.6534672e-18)
(-0.01943815 -0.013465495 8.7678879e-18)
(-0.01705944 -0.012752602 3.4922191e-18)
(-0.015029339 -0.012036604 4.2682131e-18)
(-0.013290241 -0.011336827 3.4649488e-18)