/*--------------------------------*- C++ -*----------------------------------*\
| =========                 |                                                 |
| \\      /  F ield         | OpenFOAM: The Open Source CFD Toolbox           |
|  \\    /   O peration     | Version:  2306                                  |
|   \\  /    A nd           | Website:  www.openfoam.com                      |
|    \\/     M anipulation  |                                                 |
\*---------------------------------------------------------------------------*/
FoamFile
{
    version     2.0;
    format      ascii;
    arch        "LSB;label=32;scalar=64";
    class       volVectorField;
    location    "0.33";
    object      U_0;
}
// * * * * * * * * * * * * * * * * * * * * * * * * * * * * * * * * * * * * * //

dimensions      [0 1 -1 0 0 0 0];

internalField   nonuniform List<vector> 
6400
(
(-2.0853201e-06 6.2307504e-05 1.2164643e-20)
(7.8945275e-07 6.2511944e-05 7.0412933e-21)
(3.6204038e-06 6.2586335e-05 -6.0623909e-21)
(6.4030691e-06 6.2534877e-05 9.3718733e-22)
(9.1346215e-06 6.2360271e-05 5.7846449e-21)
(1.1811116e-05 6.2065563e-05 -2.4104372e-21)
(1.4428796e-05 6.1653935e-05 -3.3727006e-21)
(1.6984066e-05 6.1128666e-05 -2.0933981e-21)
(1.9473574e-05 6.0493225e-05 4.4462386e-21)
(2.1894116e-05 5.9751141e-05 4.9220225e-21)
(2.4242589e-05 5.8906059e-05 -8.5389659e-22)
(2.6516182e-05 5.7961853e-05 -4.8433297e-22)
(2.8712364e-05 5.6922216e-05 -6.0695165e-21)
(3.0828679e-05 5.579124e-05 -3.0403112e-22)
(3.2862942e-05 5.4572727e-05 3.8005702e-21)
(3.4813113e-05 5.3270905e-05 -1.4066749e-21)
(3.6677272e-05 5.1889806e-05 -1.3476164e-21)
(3.8453832e-05 5.0433647e-05 -2.8597371e-21)
(4.0141354e-05 4.8906589e-05 2.3939885e-21)
(4.1738571e-05 4.7312796e-05 1.437111e-21)
(4.3244474e-05 4.5656488e-05 -1.6773081e-21)
(4.4658122e-05 4.3941749e-05 -1.7922255e-21)
(4.59787e-05 4.2172941e-05 -2.5505159e-21)
(4.7205701e-05 4.0354172e-05 5.597063e-22)
(4.8338749e-05 3.8489544e-05 2.2146716e-22)
(4.9377623e-05 3.6583345e-05 -2.4372281e-21)
(5.0322253e-05 3.4639579e-05 -2.0670917e-21)
(5.1172664e-05 3.2662348e-05 -8.3039458e-22)
(5.1929106e-05 3.0655732e-05 1.973597e-21)
(5.2591957e-05 2.8623441e-05 -5.1771466e-22)
(5.3161653e-05 2.65698e-05 -2.8023583e-21)
(5.3638911e-05 2.4498396e-05 -3.3675205e-23)
(5.4024543e-05 2.2413083e-05 3.7712639e-21)
(5.4319358e-05 2.0317435e-05 5.5437946e-22)
(5.4524302e-05 1.8215208e-05 -2.400131e-21)
(5.464051e-05 1.6109871e-05 -2.413884e-21)
(5.4669358e-05 1.4005148e-05 7.5112268e-22)
(5.4611924e-05 1.1904331e-05 1.7888337e-21)
(5.4469686e-05 9.8107158e-06 -2.1129702e-22)
(5.4244143e-05 7.7275998e-06 -4.3622194e-21)
(5.3936849e-05 5.657965e-06 -1.4310866e-21)
(5.354993e-05 3.6048674e-06 1.6514501e-21)
(5.3084616e-05 1.5718038e-06 1.3298637e-21)
(5.2542593e-05 -4.3899859e-07 -2.8907988e-22)
(5.1926182e-05 -2.4244398e-06 -2.843336e-21)
(5.1237198e-05 -4.3819128e-06 -3.2233177e-21)
(5.0477585e-05 -6.3086743e-06 1.0915487e-21)
(4.9649413e-05 -8.2023604e-06 3.1355217e-21)
(4.8754871e-05 -1.0060526e-05 5.9682442e-22)
(4.7796074e-05 -1.188093e-05 -4.0603141e-22)
(4.6775172e-05 -1.366124e-05 -2.2359643e-21)
(4.5694475e-05 -1.5399301e-05 -4.9696689e-22)
(4.4556268e-05 -1.7093213e-05 3.178695e-21)
(4.336285e-05 -1.874104e-05 2.0364025e-22)
(4.2116485e-05 -2.0340857e-05 -2.6666099e-21)
(4.0819588e-05 -2.1891066e-05 -1.7011613e-21)
(3.9474609e-05 -2.3389837e-05 1.005547e-21)
(3.8083887e-05 -2.4835716e-05 3.2387956e-21)
(3.6649869e-05 -2.6227315e-05 -1.6500395e-21)
(3.5175e-05 -2.7563045e-05 -4.3494497e-21)
(3.3661715e-05 -2.8841652e-05 -2.2595513e-21)
(3.2112461e-05 -3.0062167e-05 1.1372508e-22)
(3.0529696e-05 -3.1223372e-05 3.9720008e-21)
(2.8915953e-05 -3.2324218e-05 8.0773235e-22)
(2.7273705e-05 -3.3363804e-05 -3.4078642e-21)
(2.560541e-05 -3.4341161e-05 -2.6664992e-21)
(2.3913529e-05 -3.5255714e-05 -1.0809896e-21)
(2.2200514e-05 -3.610676e-05 2.9142855e-21)
(2.0468851e-05 -3.6893692e-05 4.1266386e-22)
(1.8721031e-05 -3.7615822e-05 -3.0196963e-21)
(1.6959482e-05 -3.8272979e-05 -4.9330903e-22)
(1.5186623e-05 -3.8864722e-05 4.5388767e-22)
(1.3404872e-05 -3.9390761e-05 2.2647733e-21)
(1.1616669e-05 -3.9850975e-05 -1.1880126e-22)
(9.8244322e-06 -4.0245434e-05 -2.5969093e-21)
(8.0305749e-06 -4.057458e-05 -6.9416626e-22)
(6.2374621e-06 -4.0839162e-05 2.1068236e-22)
(4.4464936e-06 -4.1041677e-05 1.9692562e-22)
(2.6583443e-06 -4.1185912e-05 -3.1322734e-21)
(8.8002858e-07 -4.1273542e-05 -4.803061e-21)
(-1.8239843e-06 5.9507408e-05 1.1629285e-21)
(9.2600329e-07 5.971477e-05 1.2362068e-21)
(3.6316131e-06 5.9799149e-05 -4.9313994e-22)
(6.2924365e-06 5.9763107e-05 -4.6831856e-21)
(8.9050339e-06 5.960927e-05 -6.8884001e-22)
(1.1465642e-05 5.9340517e-05 -3.1657615e-21)
(1.3970567e-05 5.8959834e-05 -4.891902e-21)
(1.6416313e-05 5.8470267e-05 2.7014057e-21)
(1.8799671e-05 5.7875047e-05 -1.0925677e-21)
(2.1117558e-05 5.7177567e-05 1.6060748e-21)
(2.3367035e-05 5.6381336e-05 2.0687987e-21)
(2.5545421e-05 5.5489868e-05 9.5637654e-22)
(2.7650141e-05 5.4506785e-05 -3.7763534e-22)
(2.9678858e-05 5.3435882e-05 -3.7349394e-21)
(3.1629477e-05 5.2280731e-05 1.1101673e-21)
(3.3499951e-05 5.1045516e-05 -2.9446189e-22)
(3.5288463e-05 4.9733968e-05 2.1682092e-22)
(3.6993433e-05 4.8350016e-05 2.3555125e-21)
(3.8613444e-05 4.6897671e-05 -3.1073115e-21)
(4.0147287e-05 4.53809e-05 -1.8842626e-22)
(4.159389e-05 4.3803695e-05 -4.3154242e-22)
(4.2952287e-05 4.2170095e-05 -2.0580988e-21)
(4.4221756e-05 4.0484043e-05 1.7045328e-21)
(4.5401747e-05 3.8749568e-05 -2.1266599e-21)
(4.649186e-05 3.6970639e-05 6.758004e-22)
(4.7491812e-05 3.5151251e-05 -4.2084421e-22)
(4.8401483e-05 3.3295306e-05 3.9303915e-22)
(4.922091e-05 3.1406683e-05 2.0481785e-21)
(4.9950223e-05 2.9489328e-05 -1.4853815e-21)
(5.0589824e-05 2.7546806e-05 1.7950366e-21)
(5.1140174e-05 2.5583224e-05 2.9973229e-21)
(5.1601768e-05 2.3602047e-05 1.0126046e-21)
(5.1975343e-05 2.1606945e-05 -4.7506975e-22)
(5.2261782e-05 1.9601394e-05 -3.4746812e-21)
(5.2461863e-05 1.7588993e-05 2.4562713e-21)
(5.2576713e-05 1.5573e-05 3.1012311e-21)
(5.2607517e-05 1.3557122e-05 3.6404192e-22)
(5.255547e-05 1.154453e-05 -1.1777454e-21)
(5.2421859e-05 9.538277e-06 -2.0729242e-21)
(5.2207907e-05 7.5417456e-06 7.7696423e-23)
(5.1915327e-05 5.5578865e-06 1.0311129e-21)
(5.1545956e-05 3.5893195e-06 1.6965647e-21)
(5.1101127e-05 1.6393107e-06 1.4802444e-22)
(5.0582546e-05 -2.8991241e-07 -1.2841668e-21)
(4.9992227e-05 -2.1949789e-06 9.1441022e-22)
(4.9331893e-05 -4.0734802e-06 3.3223321e-21)
(4.8603405e-05 -5.9228309e-06 4.4771304e-21)
(4.7808798e-05 -7.7408579e-06 9.2112092e-22)
(4.6950199e-05 -9.5251097e-06 -1.4570521e-21)
(4.6029542e-05 -1.1273234e-05 3.4270079e-21)
(4.5048865e-05 -1.298324e-05 3.0639126e-21)
(4.4010454e-05 -1.4652924e-05 1.2679475e-21)
(4.2916435e-05 -1.628043e-05 1.6227182e-21)
(4.1769037e-05 -1.7863873e-05 4.3393058e-22)
(4.0570581e-05 -1.9401342e-05 6.088504e-22)
(3.9323263e-05 -2.0891419e-05 1.7941061e-21)
(3.8029395e-05 -2.2332246e-05 2.3629656e-21)
(3.6691299e-05 -2.3722368e-05 2.4194897e-21)
(3.5311277e-05 -2.5060399e-05 -6.0351152e-22)
(3.3891719e-05 -2.6344947e-05 -3.2837731e-22)
(3.2434998e-05 -2.7574646e-05 1.1338858e-21)
(3.0943437e-05 -2.8748555e-05 4.4206745e-22)
(2.9419404e-05 -2.9865577e-05 1.9336646e-21)
(2.7865318e-05 -3.092463e-05 1.9866466e-21)
(2.6283611e-05 -3.1924835e-05 1.4329843e-21)
(2.4676643e-05 -3.2865205e-05 8.4263904e-22)
(2.3046777e-05 -3.3745266e-05 -1.787267e-22)
(2.1396443e-05 -3.4564224e-05 9.619416e-22)
(1.9728031e-05 -3.5321556e-05 2.331464e-22)
(1.8043909e-05 -3.601658e-05 1.7296882e-22)
(1.6346435e-05 -3.6649091e-05 2.2681112e-21)
(1.4637939e-05 -3.7218622e-05 2.4748649e-21)
(1.292078e-05 -3.7724995e-05 2.5933805e-21)
(1.1197346e-05 -3.8167992e-05 1.5401052e-21)
(9.469906e-06 -3.8547775e-05 4.5341811e-22)
(7.7408149e-06 -3.8864658e-05 6.06264e-24)
(6.0124426e-06 -3.9119376e-05 9.9851163e-22)
(4.2861369e-06 -3.9314372e-05 8.235058e-22)
(2.5624675e-06 -3.945337e-05 -1.7884688e-21)
(8.4826607e-07 -3.9537934e-05 -3.4919311e-21)
(-1.5594472e-06 5.6828873e-05 3.0122721e-21)
(1.0674637e-06 5.7039231e-05 6.1107804e-21)
(3.6551087e-06 5.7132161e-05 7.0213594e-21)
(6.1994298e-06 5.711024e-05 5.2619545e-21)
(8.6982347e-06 5.6975712e-05 2.6954428e-21)
(1.114786e-05 5.6731205e-05 -7.4885447e-22)
(1.3544775e-05 5.6379607e-05 2.2129423e-22)
(1.588565e-05 5.592362e-05 6.2994455e-21)
(1.8167303e-05 5.5366457e-05 4.5557638e-21)
(2.0386738e-05 5.4711168e-05 3.7343368e-21)
(2.2541219e-05 5.3961145e-05 4.6550779e-21)
(2.4628119e-05 5.3119706e-05 3.7639459e-21)
(2.6644943e-05 5.21903e-05 3.8069119e-21)
(2.8589443e-05 5.117645e-05 4.9476802e-21)
(3.0459562e-05 5.0081596e-05 6.0024944e-21)
(3.2253297e-05 4.8909765e-05 1.9393214e-21)
(3.396891e-05 4.7664416e-05 1.0136429e-21)
(3.5604848e-05 4.6349285e-05 3.4188228e-21)
(3.71597e-05 4.4968212e-05 3.3159668e-21)
(3.8632291e-05 4.3524888e-05 4.9481131e-21)
(4.0021603e-05 4.2023235e-05 9.7489396e-23)
(4.1326667e-05 4.0467081e-05 -9.5677693e-22)
(4.2546721e-05 3.8860128e-05 7.8868338e-22)
(4.3681138e-05 3.7206322e-05 2.419888e-21)
(4.4729475e-05 3.5509352e-05 5.1688362e-21)
(4.5691518e-05 3.3773104e-05 1.1821637e-21)
(4.6567099e-05 3.2001231e-05 -3.513755e-22)
(4.7356272e-05 3.0197494e-05 6.1345548e-22)
(4.8059136e-05 2.8365763e-05 3.5301648e-22)
(4.8675917e-05 2.6509279e-05 1.8616948e-21)
(4.9207067e-05 2.4631976e-05 -1.5053474e-21)
(4.9653075e-05 2.2737412e-05 -4.1043262e-22)
(5.0014594e-05 2.0828807e-05 1.2119401e-21)
(5.0292496e-05 1.8909647e-05 2.1825603e-21)
(5.0487464e-05 1.6983439e-05 3.4910197e-21)
(5.060044e-05 1.5053529e-05 -2.2196448e-22)
(5.0632622e-05 1.3123155e-05 -1.7768651e-21)
(5.0585166e-05 1.1195365e-05 3.1428387e-22)
(5.0459352e-05 9.2731092e-06 1.5817028e-22)
(5.0256214e-05 7.359543e-06 1.9309813e-21)
(4.9977168e-05 5.4577386e-06 -4.0393717e-22)
(4.9624376e-05 3.5704501e-06 -1.0785244e-21)
(4.9198688e-05 1.7002224e-06 1.6363944e-22)
(4.8701959e-05 -1.495739e-07 1.4666726e-21)
(4.8136494e-05 -1.9769495e-06 2.152168e-21)
(4.7503346e-05 -3.7792875e-06 1.3980377e-22)
(4.680447e-05 -5.5540301e-06 -2.0065255e-23)
(4.604183e-05 -7.2991238e-06 3.080714e-22)
(4.5217328e-05 -9.0119981e-06 2.3799988e-23)
(4.4332953e-05 -1.0690447e-05 2.4042132e-21)
(4.33907e-05 -1.2332579e-05 5.604127e-22)
(4.2392637e-05 -1.393625e-05 -1.9174503e-21)
(4.1340951e-05 -1.5499643e-05 -5.3918302e-22)
(4.0237711e-05 -1.7020929e-05 9.106493e-22)
(3.9085078e-05 -1.8498305e-05 1.9554738e-21)
(3.7885148e-05 -1.99302e-05 6.0694686e-22)
(3.6640173e-05 -2.1315028e-05 -1.0089706e-21)
(3.5352495e-05 -2.2651274e-05 -3.2270819e-22)
(3.4024263e-05 -2.3937499e-05 -3.1134619e-22)
(3.2657698e-05 -2.5172565e-05 1.0796059e-21)
(3.1255117e-05 -2.6355009e-05 1.7761683e-22)
(2.9818911e-05 -2.7483904e-05 -3.3564492e-21)
(2.8351347e-05 -2.8558194e-05 -7.3457377e-22)
(2.6854642e-05 -2.957675e-05 4.4356039e-22)
(2.5331074e-05 -3.0538856e-05 1.504924e-21)
(2.3783052e-05 -3.1443478e-05 3.6311244e-22)
(2.2212853e-05 -3.2290134e-05 -2.9786958e-21)
(2.0622771e-05 -3.3078044e-05 -1.0688122e-21)
(1.9015149e-05 -3.3806723e-05 -5.9498881e-22)
(1.7392207e-05 -3.4475511e-05 7.9438212e-22)
(1.5756318e-05 -3.5084182e-05 1.4992824e-21)
(1.4109782e-05 -3.5632254e-05 -3.5055995e-23)
(1.2454858e-05 -3.6119596e-05 -2.3801252e-22)
(1.0793755e-05 -3.6545904e-05 8.601505e-23)
(9.128707e-06 -3.6911439e-05 6.5244913e-22)
(7.4620221e-06 -3.7216407e-05 -2.968223e-22)
(5.7959309e-06 -3.7461616e-05 -1.6114079e-21)
(4.1318367e-06 -3.7649389e-05 -1.5325914e-21)
(2.4702522e-06 -3.7783289e-05 -2.7048945e-21)
(8.177367e-07 -3.7864826e-05 -3.1065806e-21)
(-1.2937182e-06 5.4264616e-05 -9.6399743e-21)
(1.2160306e-06 5.4478897e-05 -5.994509e-21)
(3.6893407e-06 5.4579812e-05 -2.9962686e-21)
(6.1225711e-06 5.4570884e-05 -1.3114693e-20)
(8.5126554e-06 5.4454379e-05 -1.655989e-20)
(1.085607e-05 5.423257e-05 -1.4325816e-20)
(1.3149531e-05 5.3908273e-05 -7.4539544e-21)
(1.5389867e-05 5.3483955e-05 -1.7182738e-21)
(1.7574008e-05 5.2962721e-05 -8.2703292e-21)
(1.9699117e-05 5.2347403e-05 -1.140141e-20)
(2.1762447e-05 5.1641157e-05 -7.656505e-21)
(2.3761487e-05 5.0847169e-05 -4.0343859e-21)
(2.5693907e-05 4.9968717e-05 -3.1094562e-21)
(2.7557486e-05 4.90091e-05 -6.4437614e-21)
(2.9350149e-05 4.797168e-05 -7.2280081e-21)
(3.1070006e-05 4.6860149e-05 -6.1468307e-21)
(3.2715418e-05 4.5677806e-05 -2.5637377e-21)
(3.428483e-05 4.4428311e-05 -1.5696812e-21)
(3.5776945e-05 4.3115139e-05 -4.7627244e-21)
(3.7190516e-05 4.1741994e-05 -4.6769654e-21)
(3.8524362e-05 4.03125e-05 -4.2730204e-21)
(3.9777698e-05 3.8830297e-05 -1.4941841e-21)
(4.0949809e-05 3.7298956e-05 -2.775962e-21)
(4.2040028e-05 3.5722298e-05 -3.7206924e-21)
(4.3047891e-05 3.4103741e-05 -1.1677501e-21)
(4.3973115e-05 3.2447093e-05 -5.0596851e-22)
(4.4815598e-05 3.075569e-05 4.7541366e-22)
(4.557525e-05 2.9033322e-05 -9.8200129e-22)
(4.6252185e-05 2.728352e-05 -3.5275263e-21)
(4.6846641e-05 2.5509608e-05 -2.0522604e-22)
(4.7358897e-05 2.3715103e-05 2.7272368e-21)
(4.7789492e-05 2.1903513e-05 3.0600371e-21)
(4.8138946e-05 2.0078087e-05 -3.3229224e-21)
(4.8407912e-05 1.8242003e-05 -1.9222278e-21)
(4.8597468e-05 1.6398735e-05 3.5643322e-21)
(4.8708344e-05 1.455141e-05 3.845635e-21)
(4.8741311e-05 1.2703158e-05 5.307565e-22)
(4.869763e-05 1.0856885e-05 -2.584426e-21)
(4.8578577e-05 9.0154773e-06 -2.1138753e-21)
(4.8385269e-05 7.1819101e-06 2.6591601e-21)
(4.8119314e-05 5.3593166e-06 4.1989998e-21)
(4.7781783e-05 3.5503632e-06 1.1740069e-21)
(4.7374614e-05 1.7570558e-06 -2.0932517e-21)
(4.6899175e-05 -1.6769364e-08 -6.0524197e-22)
(4.6356473e-05 -1.7694434e-06 3.352954e-21)
(4.5748861e-05 -3.4984134e-06 3.6082763e-21)
(4.5078024e-05 -5.2012986e-06 1.3773925e-21)
(4.434573e-05 -6.876e-06 -1.3887439e-21)
(4.3553721e-05 -8.520021e-06 -6.700365e-22)
(4.2703968e-05 -1.0131369e-05 2.7079967e-21)
(4.1798365e-05 -1.1707941e-05 3.4379523e-21)
(4.0838876e-05 -1.3247908e-05 8.6379696e-22)
(3.9827575e-05 -1.474948e-05 -2.2136181e-21)
(3.8766442e-05 -1.6210698e-05 4.8470867e-22)
(3.7657558e-05 -1.7630021e-05 5.181486e-21)
(3.6503046e-05 -1.9005709e-05 4.8173689e-21)
(3.5304984e-05 -2.0336398e-05 2.0439453e-21)
(3.4065545e-05 -2.1620621e-05 -1.2001581e-21)
(3.2786966e-05 -2.2856915e-05 -1.7595865e-22)
(3.1471348e-05 -2.4044012e-05 4.7164114e-21)
(3.0120884e-05 -2.5180793e-05 4.8236518e-21)
(2.8737794e-05 -2.6266196e-05 -7.3634983e-22)
(2.7324251e-05 -2.7299134e-05 -2.563039e-21)
(2.5882544e-05 -2.8278574e-05 4.8525839e-22)
(2.44149e-05 -2.9203827e-05 3.8624204e-21)
(2.2923545e-05 -3.007388e-05 3.2506688e-21)
(2.1410679e-05 -3.0888186e-05 -5.0614132e-22)
(1.9878531e-05 -3.1646093e-05 -1.34798e-21)
(1.8329342e-05 -3.2346988e-05 1.104658e-21)
(1.6765304e-05 -3.2990405e-05 3.298784e-21)
(1.5188684e-05 -3.3576015e-05 3.5597076e-21)
(1.3601705e-05 -3.410335e-05 1.1782851e-21)
(1.2006515e-05 -3.4572219e-05 -1.1362845e-21)
(1.0405319e-05 -3.4982436e-05 1.4843427e-21)
(8.8003154e-06 -3.5334137e-05 2.9491248e-21)
(7.1936607e-06 -3.5627548e-05 1.6851033e-21)
(5.5875713e-06 -3.5863556e-05 1.7552556e-22)
(3.9833135e-06 -3.6044332e-05 -1.3923285e-21)
(2.3814389e-06 -3.6173302e-05 -1.4240502e-21)
(7.8834e-07 -3.6251875e-05 -1.4051853e-21)
(-1.0290427e-06 5.1812188e-05 -1.6736116e-20)
(1.3697744e-06 5.2028284e-05 -1.6986284e-20)
(3.7341976e-06 5.2136745e-05 -1.1227528e-20)
(6.0609558e-06 5.2139975e-05 -1.3103385e-20)
(8.3468894e-06 5.2040259e-05 -1.7825758e-20)
(1.0588668e-05 5.1839779e-05 -1.6528527e-20)
(1.2783088e-05 5.1541122e-05 -1.4063272e-20)
(1.4927135e-05 5.1146713e-05 -4.018556e-21)
(1.7017842e-05 5.0659398e-05 -1.3992496e-21)
(1.9052424e-05 5.0081931e-05 -1.2563533e-20)
(2.102831e-05 4.9417208e-05 -1.4881203e-20)
(2.2943069e-05 4.8668224e-05 -1.3300163e-20)
(2.4794383e-05 4.7838201e-05 -7.5633548e-21)
(2.6580115e-05 4.6930146e-05 -3.4687398e-21)
(2.8298303e-05 4.5947374e-05 -8.8461293e-21)
(2.9947158e-05 4.4893227e-05 -9.3682302e-21)
(3.1525008e-05 4.3770966e-05 -8.658788e-21)
(3.3030304e-05 4.2584031e-05 -5.2964997e-21)
(3.4461772e-05 4.1335601e-05 2.0884537e-23)
(3.5818301e-05 4.0029435e-05 -5.5633191e-21)
(3.7098734e-05 3.866892e-05 -6.8372782e-21)
(3.830219e-05 3.7257362e-05 -6.3634211e-21)
(3.9427879e-05 3.5798413e-05 -4.0274051e-21)
(4.0475182e-05 3.4295453e-05 1.8002057e-21)
(4.1443777e-05 3.275193e-05 -9.0206887e-22)
(4.2333294e-05 3.1171454e-05 -2.3878249e-21)
(4.3143456e-05 2.9557164e-05 -3.9748076e-21)
(4.3874265e-05 2.7912725e-05 -3.5724248e-21)
(4.452585e-05 2.6241464e-05 1.3804911e-21)
(4.5098266e-05 2.4546747e-05 -1.2413526e-22)
(4.5591876e-05 2.283176e-05 -2.2088779e-21)
(4.6007196e-05 2.109983e-05 -3.9850282e-21)
(4.634467e-05 1.9354244e-05 -8.7321961e-22)
(4.6604872e-05 1.7597948e-05 5.2822098e-21)
(4.6788663e-05 1.5834361e-05 3.1743103e-21)
(4.6896887e-05 1.4066264e-05 4.4789644e-22)
(4.693032e-05 1.2296822e-05 -1.9985558e-21)
(4.6889969e-05 1.0528711e-05 -1.2261141e-21)
(4.6777093e-05 8.7650885e-06 3.278388e-21)
(4.6593007e-05 7.0089144e-06 3.7190331e-21)
(4.6338981e-05 5.2627972e-06 2.1990755e-21)
(4.6015824e-05 3.5287146e-06 -2.973866e-21)
(4.5625465e-05 1.8103475e-06 -1.6187324e-21)
(4.5169497e-05 1.0915037e-07 4.2205174e-21)
(4.4648971e-05 -1.5716814e-06 3.9419901e-21)
(4.4065828e-05 -3.2300099e-06 -6.0258798e-23)
(4.3421665e-05 -4.8636673e-06 -1.8548834e-21)
(4.2718158e-05 -6.4704702e-06 8.8477744e-22)
(4.1957054e-05 -8.0480892e-06 3.6118845e-21)
(4.1140236e-05 -9.5947122e-06 4.5936607e-21)
(4.0269553e-05 -1.1108053e-05 2.0086038e-21)
(3.9346881e-05 -1.2586579e-05 -9.4378285e-22)
(3.8374114e-05 -1.402842e-05 1.0507743e-22)
(3.7353232e-05 -1.5431681e-05 3.516182e-21)
(3.6286253e-05 -1.6794872e-05 6.0419196e-21)
(3.5175184e-05 -1.8116374e-05 3.912106e-21)
(3.4022071e-05 -1.939482e-05 7.3622201e-22)
(3.2828982e-05 -2.0628726e-05 5.5847656e-22)
(3.1597949e-05 -2.1816726e-05 2.261038e-21)
(3.0331051e-05 -2.295757e-05 4.8949608e-21)
(2.9030498e-05 -2.4050185e-05 4.6717663e-21)
(2.7698396e-05 -2.5093479e-05 6.8856648e-22)
(2.6336801e-05 -2.6086419e-05 -3.4387044e-22)
(2.4947905e-05 -2.7028082e-05 1.3981731e-21)
(2.3533881e-05 -2.791773e-05 3.5912242e-21)
(2.2096852e-05 -2.8754295e-05 3.0985376e-21)
(2.0639023e-05 -2.9537348e-05 1.5796879e-22)
(1.9162565e-05 -3.0266237e-05 6.6520064e-22)
(1.7669592e-05 -3.0940306e-05 2.6843232e-21)
(1.6162248e-05 -3.1559128e-05 3.6752446e-21)
(1.4642631e-05 -3.2122379e-05 3.2161533e-21)
(1.3112859e-05 -3.2629606e-05 6.0256017e-22)
(1.1575171e-05 -3.3080634e-05 -8.1223654e-22)
(1.0031647e-05 -3.3475276e-05 1.602261e-21)
(8.4843784e-06 -3.381362e-05 4.1470948e-21)
(6.9355039e-06 -3.409585e-05 3.2029079e-21)
(5.3870817e-06 -3.4322958e-05 3.3755245e-22)
(3.8404276e-06 -3.4496954e-05 -1.2236442e-21)
(2.2960427e-06 -3.4621114e-05 -1.8749017e-21)
(7.6005545e-07 -3.469686e-05 -1.5549622e-21)
(-7.6527969e-07 4.9465292e-05 -8.6261222e-21)
(1.5280865e-06 4.9683046e-05 -5.4284199e-21)
(3.7885486e-06 4.9798185e-05 -5.7393412e-21)
(6.0134846e-06 4.9812679e-05 -4.3867172e-21)
(8.1997975e-06 4.9728609e-05 -3.9677688e-21)
(1.034423e-05 4.9548183e-05 -6.6671114e-21)
(1.2443805e-05 4.9273625e-05 -4.0262983e-21)
(1.449559e-05 4.8907453e-05 1.9557613e-21)
(1.6496679e-05 4.8452246e-05 1.8225945e-21)
(1.844447e-05 4.7910608e-05 -1.6496951e-21)
(2.0336477e-05 4.7285206e-05 -3.8693719e-21)
(2.2170331e-05 4.6579004e-05 -3.637062e-21)
(2.3943773e-05 4.5795013e-05 -3.6910482e-21)
(2.5654735e-05 4.4936045e-05 -1.7114289e-21)
(2.7301345e-05 4.4005235e-05 -1.1578838e-21)
(2.888183e-05 4.3005757e-05 -2.3769971e-21)
(3.0394583e-05 4.1940786e-05 -2.4810088e-21)
(3.1838199e-05 4.0813463e-05 -7.8820539e-22)
(3.3211272e-05 3.9626921e-05 3.3696377e-22)
(3.4512628e-05 3.8384644e-05 -2.1327023e-21)
(3.5741336e-05 3.7089992e-05 -5.6566657e-22)
(3.6896465e-05 3.5745972e-05 -1.1519117e-21)
(3.7977307e-05 3.4356181e-05 -1.3849042e-22)
(3.8983218e-05 3.2923824e-05 7.9923222e-22)
(3.9913682e-05 3.1452094e-05 2.756298e-22)
(4.076847e-05 2.9944467e-05 6.8371446e-22)
(4.1547345e-05 2.840412e-05 -2.2303391e-21)
(4.2250087e-05 2.6834377e-05 -1.008653e-21)
(4.2876853e-05 2.5238463e-05 2.0297751e-21)
(4.3427774e-05 2.361962e-05 1.3014186e-21)
(4.3903068e-05 2.1980851e-05 1.2681644e-21)
(4.4303209e-05 2.032547e-05 -1.6023151e-21)
(4.4628674e-05 1.8656438e-05 1.9251406e-21)
(4.4880026e-05 1.6976695e-05 1.1671e-21)
(4.5057899e-05 1.5289517e-05 2.5178738e-22)
(4.5163087e-05 1.359766e-05 2.4474516e-21)
(4.5196291e-05 1.1904024e-05 1.8417359e-22)
(4.5158833e-05 1.0211314e-05 -5.3617051e-22)
(4.5051844e-05 8.5225123e-06 -5.469337e-22)
(4.4876074e-05 6.8403771e-06 -8.2649837e-22)
(4.4632548e-05 5.1673159e-06 2.6969941e-21)
(4.4323171e-05 3.5059565e-06 -2.5391043e-22)
(4.3949175e-05 1.8590346e-06 -1.1486291e-21)
(4.3511314e-05 2.284918e-07 -4.0835073e-22)
(4.3011496e-05 -1.3830623e-06 -3.4022927e-22)
(4.2451378e-05 -2.9733327e-06 -2.65761e-22)
(4.1832481e-05 -4.5402449e-06 -2.2839679e-21)
(4.115639e-05 -6.0815558e-06 -1.8011188e-22)
(4.0424796e-05 -7.5952111e-06 5.0228767e-22)
(3.9639386e-05 -9.0793227e-06 1.0626104e-21)
(3.8801996e-05 -1.0531747e-05 5.6120633e-22)
(3.791448e-05 -1.1950964e-05 -2.5918768e-21)
(3.697857e-05 -1.3335132e-05 3.7228454e-23)
(3.5996137e-05 -1.4682399e-05 7.7133823e-22)
(3.4969203e-05 -1.5991483e-05 6.5589354e-22)
(3.3899715e-05 -1.7260685e-05 1.5839344e-21)
(3.2789601e-05 -1.8488674e-05 -7.3472781e-22)
(3.1640794e-05 -1.9673939e-05 -2.9128421e-22)
(3.0455302e-05 -2.0815224e-05 -1.355726e-21)
(2.9235165e-05 -2.1911429e-05 -1.5222861e-21)
(2.7982467e-05 -2.296139e-05 4.9736183e-22)
(2.6699259e-05 -2.3963967e-05 -1.7572101e-21)
(2.5387521e-05 -2.4918232e-05 3.8846621e-23)
(2.4049373e-05 -2.5823382e-05 -9.13597e-23)
(2.2686862e-05 -2.6678512e-05 -1.3852856e-21)
(2.1302075e-05 -2.7482748e-05 -2.6539844e-22)
(1.9897172e-05 -2.823564e-05 -2.7846659e-21)
(1.8474176e-05 -2.8936417e-05 -3.4662217e-22)
(1.703514e-05 -2.9584565e-05 -2.4201535e-22)
(1.5582157e-05 -3.0179562e-05 -1.0576295e-21)
(1.4117287e-05 -3.0721185e-05 6.6085273e-22)
(1.2642669e-05 -3.1208947e-05 -1.7193024e-21)
(1.11603e-05 -3.1642774e-05 -1.7420744e-21)
(9.6722203e-06 -3.2022301e-05 -8.2498718e-22)
(8.1804901e-06 -3.2347736e-05 -6.8296457e-22)
(6.687146e-06 -3.2619147e-05 2.8541258e-22)
(5.1942305e-06 -3.2837594e-05 -1.4686551e-21)
(3.7029618e-06 -3.300503e-05 -2.2750394e-21)
(2.2138269e-06 -3.3124541e-05 -2.9321476e-21)
(7.3281637e-07 -3.3197572e-05 -3.0027815e-21)
(-5.0187172e-07 4.7219147e-05 4.3407844e-21)
(1.6905599e-06 4.7438328e-05 -2.5950627e-21)
(3.8516085e-06 4.7559506e-05 -5.4267149e-21)
(5.9791125e-06 4.7584352e-05 -4.2021828e-21)
(8.0700629e-06 4.7514914e-05 -3.0074717e-21)
(1.01214e-05 4.7353268e-05 1.8948972e-21)
(1.2130159e-05 4.710147e-05 -6.2515833e-21)
(1.4093511e-05 4.6761971e-05 -1.8483387e-21)
(1.6008735e-05 4.6337144e-05 -4.4999169e-22)
(1.7873284e-05 4.5829426e-05 2.3867948e-22)
(1.968478e-05 4.5241358e-05 4.6344168e-21)
(2.1440932e-05 4.4575777e-05 -2.4264922e-21)
(2.313959e-05 4.3835524e-05 -2.7642085e-21)
(2.4778785e-05 4.302327e-05 -1.4704447e-21)
(2.63566e-05 4.2141955e-05 -5.8782769e-22)
(2.7871314e-05 4.1194628e-05 2.3197521e-21)
(2.9321443e-05 4.0184202e-05 -2.6610664e-21)
(3.0705535e-05 3.911377e-05 -1.2773813e-21)
(3.2022336e-05 3.7986337e-05 -1.5283571e-21)
(3.3270627e-05 3.6805186e-05 -1.4869968e-21)
(3.4449427e-05 3.5573334e-05 3.2022241e-21)
(3.5557961e-05 3.4293909e-05 -1.7601882e-21)
(3.659535e-05 3.2970262e-05 5.4817594e-22)
(3.7561036e-05 3.1605402e-05 8.3608063e-22)
(3.8454617e-05 3.0202402e-05 -5.0486737e-22)
(3.9275687e-05 2.8764572e-05 1.0008368e-21)
(4.0023967e-05 2.7295059e-05 -2.0908846e-21)
(4.0699358e-05 2.5796889e-05 2.1097108e-22)
(4.1301898e-05 2.4273154e-05 2.2353792e-21)
(4.1831775e-05 2.2727029e-05 1.2726915e-21)
(4.2289205e-05 2.1161411e-05 2.6090804e-21)
(4.2674457e-05 1.9579383e-05 -1.0992687e-21)
(4.2987957e-05 1.7983915e-05 -1.3168353e-22)
(4.3230267e-05 1.6377789e-05 -1.2010874e-22)
(4.3402066e-05 1.4764032e-05 1.0889122e-21)
(4.3504052e-05 1.314533e-05 1.9647059e-21)
(4.3536837e-05 1.1524599e-05 -1.3501192e-21)
(4.3501587e-05 9.9046712e-06 -4.2511859e-22)
(4.3399437e-05 8.2878323e-06 1.3565357e-21)
(4.3231186e-05 6.6768427e-06 6.7113014e-22)
(4.2998199e-05 5.0743686e-06 9.9700781e-22)
(4.2701507e-05 3.4830535e-06 4.302344e-22)
(4.2342155e-05 1.9047003e-06 1.004696e-21)
(4.1921649e-05 3.4199973e-07 1.3866333e-21)
(4.1441542e-05 -1.2029112e-06 9.1014062e-22)
(4.0903324e-05 -2.7275911e-06 1.8880081e-21)
(4.0308411e-05 -4.2301616e-06 1.1916432e-21)
(3.9658347e-05 -5.7083567e-06 1.062788e-21)
(3.8954734e-05 -7.1603577e-06 1.3676226e-21)
(3.8199235e-05 -8.5841152e-06 2.2544859e-21)
(3.7393579e-05 -9.9778402e-06 3.5043108e-22)
(3.653954e-05 -1.1339819e-05 -1.1874624e-21)
(3.5638811e-05 -1.2668312e-05 1.7572976e-21)
(3.4693209e-05 -1.3961588e-05 2.7063684e-21)
(3.3704601e-05 -1.5218439e-05 1.6221164e-21)
(3.267487e-05 -1.6437128e-05 6.6822626e-22)
(3.1605826e-05 -1.761631e-05 1.2805445e-21)
(3.0499381e-05 -1.8754622e-05 2.9980206e-21)
(2.9357571e-05 -1.985086e-05 1.4297054e-21)
(2.8182277e-05 -2.0903899e-05 -4.0184423e-23)
(2.6975446e-05 -2.191262e-05 2.3022021e-23)
(2.5739064e-05 -2.2875866e-05 -9.8581081e-22)
(2.4475172e-05 -2.3792801e-05 1.9067441e-21)
(2.3185734e-05 -2.4662613e-05 2.6865152e-21)
(2.1872674e-05 -2.5484343e-05 1.3942128e-21)
(2.0538091e-05 -2.6257377e-05 -8.6813497e-23)
(1.9183964e-05 -2.6981038e-05 -5.2985713e-22)
(1.7812283e-05 -2.7654708e-05 2.1006191e-21)
(1.6425115e-05 -2.8277727e-05 1.8304338e-21)
(1.5024429e-05 -2.884973e-05 7.4012226e-22)
(1.3612267e-05 -2.937044e-05 5.2324592e-22)
(1.2190585e-05 -2.9839417e-05 1.3340534e-21)
(1.0761324e-05 -3.0256484e-05 2.6763289e-21)
(9.3265433e-06 -3.0621477e-05 2.2745347e-21)
(7.8882108e-06 -3.0934353e-05 7.8897714e-22)
(6.4482837e-06 -3.1195354e-05 -8.1668718e-22)
(5.0087097e-06 -3.1405395e-05 3.0835505e-22)
(3.570713e-06 -3.1566462e-05 7.1571813e-22)
(2.1347961e-06 -3.16815e-05 -1.6310585e-21)
(7.066649e-07 -3.1751887e-05 -3.1666457e-21)
(-2.3945483e-07 4.506915e-05 6.7244154e-21)
(1.8566735e-06 4.5289582e-05 1.0082698e-20)
(3.9226776e-06 4.54162e-05 -2.618722e-21)
(5.9570139e-06 4.5450605e-05 1.5999869e-21)
(7.9567715e-06 4.5394828e-05 2.7240309e-21)
(9.9189611e-06 4.5250814e-05 6.0558153e-21)
(1.1840731e-05 4.5020525e-05 5.2025472e-21)
(1.3719377e-05 4.4706209e-05 -1.9171892e-21)
(1.5552318e-05 4.4310122e-05 2.4860177e-21)
(1.73371e-05 4.3834542e-05 2.5917534e-21)
(1.9071397e-05 4.3281992e-05 7.8880555e-21)
(2.0752988e-05 4.2655011e-05 8.0604006e-21)
(2.2379788e-05 4.1956371e-05 -1.6750275e-21)
(2.3949866e-05 4.1188535e-05 1.435465e-21)
(2.5461481e-05 4.0354376e-05 1.044308e-21)
(2.6913009e-05 3.9456698e-05 4.400007e-21)
(2.8302878e-05 3.8498366e-05 5.7311554e-21)
(2.962973e-05 3.7482212e-05 -1.1209693e-21)
(3.0892317e-05 3.6411175e-05 3.9699915e-22)
(3.2089463e-05 3.5288417e-05 6.7317614e-22)
(3.3220128e-05 3.4116669e-05 4.3727299e-21)
(3.4283486e-05 3.2899015e-05 6.3041045e-21)
(3.5278899e-05 3.163869e-05 -9.8621487e-23)
(3.6205759e-05 3.0338314e-05 1.0890078e-21)
(3.706352e-05 2.9001144e-05 -9.8048162e-22)
(3.7851813e-05 2.763023e-05 1.3851525e-21)
(3.8570419e-05 2.6228547e-05 3.9237887e-21)
(3.9219222e-05 2.479889e-05 2.8657275e-22)
(3.9798213e-05 2.3344421e-05 4.5718069e-22)
(4.0307498e-05 2.1867982e-05 -3.2938678e-21)
(4.074724e-05 2.0372522e-05 -1.9581948e-21)
(4.1117622e-05 1.886083e-05 4.4505152e-21)
(4.1419213e-05 1.7335974e-05 3.2499715e-21)
(4.1652571e-05 1.5800602e-05 1.2745758e-21)
(4.181811e-05 1.4257389e-05 -3.0330499e-21)
(4.1916468e-05 1.2709186e-05 -2.524784e-21)
(4.1948638e-05 1.1158535e-05 2.179568e-21)
(4.1915377e-05 9.6081537e-06 3.9711618e-21)
(4.1817459e-05 8.0605285e-06 2.0470112e-21)
(4.1656204e-05 6.5181157e-06 -2.818394e-21)
(4.1432561e-05 4.9839324e-06 -2.2264906e-21)
(4.1147552e-05 3.4594522e-06 4.2318426e-21)
(4.0802342e-05 1.9475143e-06 5.1006337e-21)
(4.0398172e-05 4.5010279e-07 1.8053803e-21)
(3.9936627e-05 -1.030589e-06 -2.943325e-21)
(3.9419062e-05 -2.4921068e-06 -8.2311086e-22)
(3.8846873e-05 -3.9326206e-06 4.3369799e-21)
(3.822161e-05 -5.350056e-06 4.388093e-21)
(3.7544638e-05 -6.7424927e-06 5.8349984e-22)
(3.6817564e-05 -8.108078e-06 -2.5212409e-21)
(3.6042147e-05 -9.4451802e-06 -2.1302242e-21)
(3.522002e-05 -1.0751929e-05 6.8740245e-22)
(3.4352895e-05 -1.2026757e-05 3.3011309e-21)
(3.3442478e-05 -1.326797e-05 1.2791855e-21)
(3.2490484e-05 -1.4474321e-05 -2.0089671e-21)
(3.1498732e-05 -1.5644249e-05 -9.1116177e-22)
(3.0469045e-05 -1.6776285e-05 2.079735e-21)
(2.9403284e-05 -1.7869324e-05 4.5514264e-21)
(2.8303319e-05 -1.8922054e-05 9.4684531e-22)
(2.7170939e-05 -1.9933328e-05 -1.9822956e-21)
(2.6008067e-05 -2.0902199e-05 -1.0117995e-21)
(2.4816644e-05 -2.1827463e-05 -3.494055e-22)
(2.3598607e-05 -2.2708371e-05 3.0967518e-21)
(2.2355849e-05 -2.354399e-05 6.7840616e-22)
(2.1090281e-05 -2.4333525e-05 -1.6294855e-21)
(1.980388e-05 -2.5076323e-05 -4.1612236e-22)
(1.8498542e-05 -2.5771725e-05 2.5207344e-22)
(1.7176189e-05 -2.6419111e-05 3.2790425e-21)
(1.5838783e-05 -2.7017888e-05 5.2646876e-22)
(1.4488307e-05 -2.7567659e-05 -1.5688347e-21)
(1.312673e-05 -2.8068176e-05 2.1794112e-22)
(1.1755911e-05 -2.8518954e-05 1.5941112e-21)
(1.0377775e-05 -2.8919821e-05 3.5797115e-21)
(8.9942304e-06 -2.9270694e-05 1.3935097e-21)
(7.6071594e-06 -2.957146e-05 -8.596891e-22)
(6.2185337e-06 -2.9822371e-05 -8.1284762e-22)
(4.8302931e-06 -3.0024342e-05 1.8340111e-22)
(3.4435528e-06 -3.0179238e-05 1.619845e-21)
(2.0587404e-06 -3.0289937e-05 -1.7786903e-21)
(6.8147653e-07 -3.0357759e-05 -3.9152836e-21)
(2.1837775e-08 4.3011568e-05 -5.9316487e-21)
(2.026088e-06 4.3232586e-05 9.3266917e-21)
(4.0010914e-06 4.3363981e-05 -1.6627691e-22)
(5.9463353e-06 4.340725e-05 -6.3074888e-21)
(7.8587823e-06 4.3364233e-05 -1.2947997e-22)
(9.7355737e-06 4.3236783e-05 1.3521337e-21)
(1.1574045e-05 4.3026768e-05 8.3571018e-21)
(1.3371629e-05 4.2736256e-05 7.7979628e-22)
(1.5125727e-05 4.2367397e-05 -5.599384e-21)
(1.6834003e-05 4.1922348e-05 -4.0068823e-22)
(1.8494228e-05 4.1403491e-05 2.4543019e-21)
(2.0104234e-05 4.0813279e-05 8.6305247e-21)
(2.1662095e-05 4.0154224e-05 -2.325807e-22)