/*--------------------------------*- C++ -*----------------------------------*\
| =========                 |                                                 |
| \\      /  F ield         | OpenFOAM: The Open Source CFD Toolbox           |
|  \\    /   O peration     | Version:  2106                                  |
|   \\  /    A nd           | Website:  www.openfoam.com                      |
|    \\/     M anipulation  |                                                 |
\*---------------------------------------------------------------------------*/
FoamFile
{
    version     2.0;
    format      ascii;
    arch        "LSB;label=32;scalar=64";
    class       volScalarField;
    location    "0.039";
    object      p;
}
// * * * * * * * * * * * * * * * * * * * * * * * * * * * * * * * * * * * * * //

dimensions      [1 -1 -2 0 0 0 0];

internalField   nonuniform List<scalar> 
256
(
0.38794374
0.32811558
0.21810769
0.075862415
-0.077630086
-0.21859625
-0.32696623
-0.38564167
-0.38571967
-0.32736622
-0.21959076
-0.078835705
0.074721018
0.2173528
0.3278266
0.38793009
0.50092881
0.42327186
0.28095114
0.097459927
-0.10071815
-0.28276536
-0.42317722
-0.49916203
-0.49910948
-0.42340192
-0.28391222
-0.10236608
0.095945774
0.28011222
0.42318186
0.50107783
0.62402404
0.52629754
0.34818252
0.12042613
-0.12578979
-0.35168699
-0.52779239
-0.62326943
-0.6229347
-0.52770492
-0.35332447
-0.12849147
0.11807043
0.34705279
0.5265787
0.62450705
0.93203822
0.78377419
0.51596386
0.17717499
-0.18896739
-0.5261774
-0.79105029
-0.93408914
-0.93274193
-0.78941325
-0.52815135
-0.19454275
0.1723493
0.51457956
0.78570927
0.93368096
1.2223191
1.0215472
0.6644338
0.22529921
-0.24808104
-0.68415032
-1.0385716
-1.2309746
-1.2275105
-1.0333018
-0.68591279
-0.25783641
0.21841087
0.66422918
1.0276378
1.226257
1.9799825
1.6458479
1.0597214
0.35510267
-0.40088294
-1.1134146
-1.693748
-2.0015223
-1.9934446
-1.6794646
-1.1150263
-0.42692396
0.33159157
1.0574921
1.6609479
1.9893203
2.57908
2.1039023
1.2944796
0.40925604
-0.50590917
-1.4106446
-2.219384
-2.6513798
-2.6307402
-2.1748145
-1.4013281
-0.56426149
0.37193585
1.3090591
2.152332
2.6014601
4.2431614
3.453915
2.094104
0.64376217
-0.82308707
-2.3320346
-3.6818254
-4.3757734
-4.3408882
-3.5955536
-2.3086338
-0.92720342
0.54312859
2.1086361
3.5480567
4.2835765
-4.3015185
-3.5702223
-2.3092039
-0.92903853
0.52695662
2.0860262
3.5249379
4.2658109
4.2328832
3.436477
2.064209
0.63165252
-0.83043486
-2.3266673
-3.6628167
-4.3421369
-2.5475417
-2.1080594
-1.3586829
-0.53203539
0.35138293
1.2535232
2.0816818
2.5255519
2.5047933
2.0353311
1.244344
0.40852143
-0.49481934
-1.3762793
-2.1573745
-2.5701416
-2.0157693
-1.7010205
-1.1337738
-0.43369027
0.33165734
1.0663791
1.6791078
2.0131622
2.0052486
1.6660437
1.0703824
0.35947412
-0.40896098
-1.1305718
-1.714935
-2.0242871
-1.0447834
-0.87815784
-0.58087242
-0.21738299
0.18348498
0.55926685
0.87234405
1.0437394
1.0394037
0.86475271
0.55816022
0.18983218
-0.21448236
-0.58423741
-0.88681806
-1.0494769
-0.99684331
-0.84488726
-0.56675332
-0.20923744
0.18146134
0.54736101
0.83697464
0.995674
0.99485158
0.83718834
0.5518656
0.19004645
-0.2012773
-0.56280262
-0.84504039
-0.99781077
-0.31823792
-0.26891327
-0.17943703
-0.066562083
0.058748112
0.17417901
0.26758876
0.31838439
0.31723897
0.26519231
0.17256686
0.057443016
-0.068370542
-0.1818515
-0.2716263
-0.31956622
-0.42992806
-0.3651337
-0.24538274
-0.089884272
0.080192194
0.23854867
0.36262573
0.43042102
0.43050661
0.36328498
0.2404209
0.082691272
-0.087469499
-0.2437566
-0.36453044
-0.42990083
-0.27053148
-0.23001021
-0.15501394
-0.057135961
0.051389736
0.15148741
0.22986045
0.27259182
0.27239463
0.22950253
0.15144599
0.051192315
-0.057453521
-0.15557389
-0.23063769
-0.27086253
)
;

boundaryField
{
    leftWall
    {
        type            cyclic;
    }
    rightWall
    {
        type            cyclic;
    }
    lowerWall
    {
        type            calculated;
        value           nonuniform List<scalar> 
16
(
0.38794374
0.32811558
0.21810769
0.075862415
-0.077630086
-0.21859625
-0.32696623
-0.38564167
-0.38571967
-0.32736622
-0.21959076
-0.078835705
0.074721018
0.2173528
0.3278266
0.38793009
)
;
    }
    atmosphere
    {
        type            calculated;
        value           nonuniform List<scalar> 
16
(
-0.00016276858
-0.0013327945
-0.0029933857
-0.0041727978
0
0
0
0
0
0
0
0
-0.0041773519
-0.0030043809
-0.0013436337
-0.00016721419
)
;
    }
    defaultFaces
    {
        type            empty;
    }
}


// ************************************************************************* //
