/*--------------------------------*- C++ -*----------------------------------*\
| =========                 |                                                 |
| \\      /  F ield         | OpenFOAM: The Open Source CFD Toolbox           |
|  \\    /   O peration     | Version:  2106                                  |
|   \\  /    A nd           | Website:  www.openfoam.com                      |
|    \\/     M anipulation  |                                                 |
\*---------------------------------------------------------------------------*/
FoamFile
{
    version     2.0;
    format      ascii;
    arch        "LSB;label=32;scalar=64";
    class       surfaceScalarField;
    location    "0.039";
    object      phi;
}
// * * * * * * * * * * * * * * * * * * * * * * * * * * * * * * * * * * * * * //

dimensions      [0 3 -1 0 0 0 0];

oriented        oriented;

internalField   nonuniform List<scalar> 
480
(
-0.0013072014
0.0013107143
-0.0024183534
0.001111152
-0.003160733
0.00074237968
-0.0034214552
0.00026072216
-0.0031623986
-0.00025905655
-0.0024216582
-0.0007407404
-0.0013124035
-0.0011092548
-3.409276e-06
-0.0013089942
0.0013060553
-0.0013094646
0.0024165949
-0.0011105395
0.0031593145
-0.00074271969
0.0034213681
-0.00026205352
0.0031635602
0.00025780784
0.0024234783
0.00074008191
0.0013137414
0.001109737
0.0013102284
-0.0014520053
0.0027667363
-0.0026861178
0.0023452645
-0.0035104918
0.0015667536
-0.003799688
0.0005499184
-0.0035124368
-0.00054630778
-0.0026898474
-0.0015633298
-0.0014578728
-0.0023412294
-3.8766265e-06
-0.0027629903
0.001450646
-0.0027639872
0.0026840108
-0.0023439043
0.0035086985
-0.0015674073
0.0037995439
-0.00055289896
0.0035138603
0.00054349138
0.0026920692
0.0015618731
0.0014595115
0.0023422947
0.0027657233
-0.0017812728
0.004552961
-0.0032947625
0.0038587542
-0.0043052251
0.0025772162
-0.0046589549
0.00090364818
-0.0043080945
-0.00089716814
-0.003299395
-0.0025720293
-0.001788378
-0.0038522464
-4.7397331e-06
-0.0045466286
0.001779543
-0.00454827
0.0032920686
-0.0038564299
0.0043028878
-0.0025782265
0.004658661
-0.00090867224
0.0043098147
0.00089233775
0.0033023439
0.0025693438
0.0017905981
0.0038540405
0.0045513694
-0.0023591146
0.0069186507
-0.0043626516
0.0058622912
-0.0056993711
0.0039139358
-0.0061660463
0.0013703234
-0.0057046271
-0.0013585874
-0.0043700042
-0.0039066521
-0.0023693733
-0.0058528773
-6.2292862e-06
-0.0069097727
0.0023578037
-0.006912303
0.0043601914
-0.0058588175
0.0056968194
-0.0039148545
0.0061652637
-0.0013771166
0.0057061818
0.0013514197
0.0043730418
0.0039024837
0.0023716168
0.0058554656
0.0069164112
-0.003559832
0.010487065
-0.0065807156
0.0088831748
-0.0085949349
0.005928155
-0.0092959557
0.0020713442
-0.008607254
-0.0020472891
-0.0065927266
-0.0059211795
-0.0035736285
-0.0088719755
-8.073301e-06
-0.010475328
0.0035587801
-0.010479156
0.0065793131
-0.0088793505
0.0085938737
-0.0059294151
0.0092936515
-0.0020768944
0.0086068097
0.0020382615
0.006595601
0.0059136925
0.00357655
0.0088745165
0.010484379
-0.005283511
0.015782785
-0.0097677007
0.013367364
-0.012759421
0.0089198754
-0.013799105
0.0031110282
-0.012785891
-0.0030605036
-0.0097960754
-0.0089109946
-0.0053121977
-0.013355853
-1.1355982e-05
-0.01577617
0.0052918979
-0.01578241
0.0097781155
-0.013365568
0.012765475
-0.0089167743
0.013792777
-0.0031041971
0.012777557
0.0030534819
0.0097885524
0.008902697
0.0053074046
0.013355664
0.015779575
-0.0070391771
0.022838307
-0.013017462
0.019345649
-0.017019429
0.012921843
-0.01839986
0.0044914588
-0.017070914
-0.0043894499
-0.013047521
-0.012934387
-0.0070621581
-0.019341216
-1.5289253e-05
-0.022823038
0.007035863
-0.022833562
0.013024806
-0.019354511
0.01703179
-0.012923759
0.018379754
-0.0044521611
0.017056731
0.0043765049
0.013049854
0.012909575
0.0070727928
0.019332725
0.022836022
-0.0043958286
0.027256252
-0.0081681578
0.023117979
-0.010743241
0.015496926
-0.011639902
0.0053881199
-0.010784991
-0.0052443617
-0.0082047587
-0.015514619
-0.0044378659
-0.023108109
-2.0068297e-05
-0.027240836
0.0044034586
-0.027257089
0.0081874733
-0.023138526
0.010761983
-0.015498268
0.011617295
-0.0053074731
0.01076133
0.0052324697
0.0081964276
0.015474478
0.0044389696
0.023090183
0.027252875
0.0043573208
0.022877154
0.008092897
0.019382402
0.010639175
0.012950648
0.011520415
0.0045068804
0.010668549
-0.0043924957
0.0081118732
-0.012957944
0.0043854294
-0.019381665
1.9989583e-05
-0.022875396
-0.0043511291
-0.022885971
-0.0080946268
-0.019395028
-0.010645796
-0.012947099
-0.011497791
-0.0044554782
-0.010657141
0.0043918197
-0.0081205033
0.01293784
-0.0043996372
0.019369317
0.022875016
0.0070144055
0.01584644
0.012978042
0.013418765
0.016969399
0.0089592913
0.018344046
0.0031322334
0.017017739
-0.0030661884
0.013007976
-0.008948181
0.0070444415
-0.01341813
1.5263593e-05
-0.015846218
-0.0070181373
-0.01585257
-0.012985163
-0.013428002
-0.016978231
-0.0089540307
-0.018323683
-0.0031100262
-0.017006548
0.0030746844
-0.013010545
0.0089418368
-0.0070480579
0.01340683
0.015843266
0.0051898078
0.01064487
0.0095884321
0.009020141
0.012519143
0.0060285806
0.013534456
0.0021169203
0.01253733
-0.0020690625
0.0096011653
-0.0060120162
0.0052035345
-0.0090204996
1.0957936e-05
-0.010653642
-0.0051839722
-0.01065764
-0.0095839254
-0.0090280491
-0.012517299
-0.0060206572
-0.013528238
-0.0020990868
-0.012536702
0.0020831477
-0.0096085528
0.0060136879
-0.0052128704
0.0090111473
0.010642158
0.0035435784
0.0070924833
0.0065511902
0.0060125292
0.0085583259
0.0040214449
0.0092578387
0.0014174075
0.0085729817
-0.0013842056
0.0065674823
-0.0040065168
0.0035599443
-0.0060129616
8.3272266e-06
-0.0071020246
-0.0035446324
-0.00710468
-0.0065535846
-0.0060190969
-0.0085592251
-0.0040150168
-0.0092553402
-0.0014029717
-0.0085704814
0.0013982889
-0.0065665212
0.0040097278
-0.003560798
0.0060054241
0.0070901683
0.0020908718
0.0049963427
0.0038655234
0.0042378776
0.0050504012
0.0028365671
0.0054653566
0.0010024521
0.0050588035
-0.00097765246
0.0038759528
-0.0028236661
0.0021011837
-0.0042381925
4.9523586e-06
-0.0050057932
-0.0020920163
-0.0050077114
-0.0038680549
-0.0042430583
-0.0050520934
-0.0028309783
-0.0054646033
-0.00099046177
-0.0050560814
0.00098976706
-0.0038739431
0.0028275894
-0.0021009367
0.0042324177
0.0049945004
0.0017595651
0.0032306853
0.0032565875
0.0027408552
0.0042579392
0.0018352153
0.0046108389
0.00064955239
0.0042663515
-0.00063316499
0.003269248
-0.0018265626
0.0017729824
-0.0027419269
5.884012e-06
-0.0032386948
-0.001762029
-0.0032397984
-0.0032602395
-0.0027448477
-0.0042602036
-0.0018310143
-0.0046104974
-0.00064016792
-0.0042634419
0.00064271159
-0.0032658205
0.001829968
-0.0017710199
0.0027376171
0.0032295728
0.0010436236
0.0021866368
0.0019289912
0.0018554876
0.0025216321
0.0012425744
0.0027310628
0.00044012171
0.0025256428
-0.00042774509
0.0019343266
-0.0012352464
0.0010474516
-0.0018550519
3.6003548e-07
-0.0021916033
-0.0010467647
-0.0021926736
-0.0019335837
-0.0018580288
-0.0025247934
-0.0012398046
-0.0027309756
-0.00043398568
-0.0025222195
0.00043395543
-0.0019298046
0.0012375531
-0.0010444736
0.0018522861
0.0021855241
0.0021793278
0.0040351201
0.005277897
0.0057180893
0.0052902758
0.0040548275
0.0021994693
7.5028235e-06
-0.0021855338
-0.0040438683
-0.0052838747
-0.0057179286
-0.0052839022
-0.0040461458
-0.0021935541
)
;

boundaryField
{
    leftWall
    {
        type            cyclic;
        value           nonuniform List<scalar> 
16
(
-3.5129478e-06
-4.016653e-06
-4.9519541e-06
-6.5749918e-06
-8.582297e-06
-1.2208542e-05
-1.6345515e-05
-2.2116762e-05
2.1777718e-05
1.6308301e-05
1.1762231e-05
8.8085122e-06
5.2688134e-06
6.09229e-06
4.2496172e-07
7.6692918e-06
)
;
    }
    rightWall
    {
        type            cyclic;
        value           nonuniform List<scalar> 
16
(
3.5129478e-06
4.016653e-06
4.9519541e-06
6.5749918e-06
8.582297e-06
1.2208542e-05
1.6345515e-05
2.2116762e-05
-2.1777718e-05
-1.6308301e-05
-1.1762231e-05
-8.8085122e-06
-5.2688134e-06
-6.09229e-06
-4.2496172e-07
-7.6692918e-06
)
;
    }
    lowerWall
    {
        type            calculated;
        value           uniform 0;
    }
    atmosphere
    {
        type            calculated;
        value           nonuniform List<scalar> 
16
(
-3.602661e-07
-3.0471249e-07
-2.0256729e-07
-7.0573385e-08
6.8476795e-08
2.0185687e-07
3.0628888e-07
3.6322839e-07
3.6296564e-07
3.0581195e-07
2.0180168e-07
6.8213732e-08
-7.0990466e-08
-2.0329877e-07
-3.0553417e-07
-3.6070131e-07
)
;
    }
    defaultFaces
    {
        type            empty;
        value           nonuniform List<scalar> 0();
    }
}


// ************************************************************************* //
