/*--------------------------------*- C++ -*----------------------------------*\
| =========                 |                                                 |
| \\      /  F ield         | OpenFOAM: The Open Source CFD Toolbox           |
|  \\    /   O peration     | Version:  2106                                  |
|   \\  /    A nd           | Website:  www.openfoam.com                      |
|    \\/     M anipulation  |                                                 |
\*---------------------------------------------------------------------------*/
FoamFile
{
    version     2.0;
    format      ascii;
    arch        "LSB;label=32;scalar=64";
    class       volVectorField;
    location    "0.039";
    object      U_0;
}
// * * * * * * * * * * * * * * * * * * * * * * * * * * * * * * * * * * * * * //

dimensions      [0 1 -1 0 0 0 0];

internalField   nonuniform List<vector> 
256
(
(-0.010839442 0.0099011754 0)
(-0.030973103 0.008394335 0)
(-0.046382487 0.0056089063 0)
(-0.05471266 0.0019720379 0)
(-0.05472619 -0.0019551244 0)
(-0.046418821 -0.0055928211 0)
(-0.031039379 -0.0083765056 0)
(-0.010937538 -0.0098854262 0)
(0.010828664 -0.0098891908 0)
(0.030945726 -0.0083868733 0)
(0.046349296 -0.0056088417 0)
(0.054699078 -0.0019784661 0)
(0.054736512 0.001949249 0)
(0.046448964 0.0055905998 0)
(0.031070066 0.0083829572 0)
(0.010951536 0.0098972611 0)
(-0.012041106 0.032191845 0)
(-0.034407366 0.02728982 0)
(-0.051521123 0.018232321 0)
(-0.060766686 0.0064006575 0)
(-0.060781343 -0.0063648958 0)
(-0.051563751 -0.01819666 0)
(-0.034480964 -0.027247275 0)
(-0.012151972 -0.032152512 0)
(0.012028317 -0.03216382 0)
(0.034374503 -0.027278017 0)
(0.051480841 -0.018243893 0)
(0.060747363 -0.0064374879 0)
(0.060795781 0.0063301207 0)
(0.051599421 0.018177129 0)
(0.034519313 0.027255919 0)
(0.012169108 0.032180205 0)
(-0.014773457 0.056081746 0)
(-0.042207869 0.047537867 0)
(-0.063192614 0.031757811 0)
(-0.074507106 0.011146704 0)
(-0.074530833 -0.01106362 0)
(-0.063251194 -0.031680023 0)
(-0.042296534 -0.047448384 0)
(-0.01490794 -0.056000322 0)
(0.014757014 -0.056021337 0)
(0.042166954 -0.047504088 0)
(0.063139605 -0.031763635 0)
(0.074480416 -0.011200919 0)
(0.074548655 0.011012413 0)
(0.063295972 0.031656607 0)
(0.04234851 0.047475854 0)
(0.014931012 0.056060485 0)
(-0.019572037 0.090028034 0)
(-0.055901897 0.076295389 0)
(-0.083678309 0.050951223 0)
(-0.098610222 0.017853291 0)
(-0.098658969 -0.017728907 0)
(-0.083783231 -0.050865845 0)
(-0.056034406 -0.076177433 0)
(-0.019756106 -0.089904982 0)
(0.019558256 -0.089936638 0)
(0.055867666 -0.076255866 0)
(0.083620278 -0.050980514 0)
(0.098574923 -0.017960798 0)
(0.098675109 0.017623292 0)
(0.083827654 0.050799735 0)
(0.056091645 0.076206138 0)
(0.019780692 0.089998356 0)
(-0.029550776 0.13065179 0)
(-0.084338002 0.11069416 0)
(-0.12621942 0.073895313 0)
(-0.14864751 0.025859272 0)
(-0.14877921 -0.02560355 0)
(-0.12644258 -0.073730805 0)
(-0.084525246 -0.11049798 0)
(-0.029790954 -0.13048946 0)
(0.029535176 -0.13053987 0)
(0.084317612 -0.11061211 0)
(0.12618077 -0.073878678 0)
(0.14861378 -0.025955612 0)
(0.14876802 0.025497113 0)
(0.12646107 0.07368319 0)
(0.084596212 0.11056294 0)
(0.029822595 0.13060826 0)
(-0.043876979 0.20605136 0)
(-0.12520472 0.17452691 0)
(-0.18742153 0.11646962 0)
(-0.22064309 0.040665518 0)
(-0.2209405 -0.040134278 0)
(-0.18795377 -0.11641177 0)
(-0.12562814 -0.17435834 0)
(-0.044297693 -0.2058153 0)
(0.043938679 -0.20589068 0)
(0.12536805 -0.17448886 0)
(0.18756041 -0.1165336 0)
(0.22064013 -0.040732446 0)
(0.22083886 0.039948932 0)
(0.18779827 0.11620438 0)
(0.12556071 0.17437042 0)
(0.044262478 0.20600691 0)
(-0.058469379 0.29721288 0)
(-0.16684103 0.25170312 0)
(-0.24998445 0.16793044 0)
(-0.29425225 0.0585229 0)
(-0.29495003 -0.057452378 0)
(-0.25086026 -0.16767794 0)
(-0.16715288 -0.25148362 0)
(-0.058846229 -0.29724248 0)
(0.058364009 -0.29736328 0)
(0.16687748 -0.25165897 0)
(0.2501979 -0.16773565 0)
(0.29421899 -0.058242241 0)
(0.29462801 0.057457279 0)
(0.25074869 0.16767157 0)
(0.16733387 0.25149193 0)
(0.058984971 0.29715519 0)
(-0.036396256 0.43593644 0)
(-0.10449773 0.36943386 0)
(-0.15754008 0.2472198 0)
(-0.18604336 0.085791832 0)
(-0.18669393 -0.083753996 0)
(-0.15834133 -0.24790746 0)
(-0.10497487 -0.36950893 0)
(-0.037088541 -0.43544656 0)
(0.036454918 -0.43568171 0)
(0.10468629 -0.36986609 0)
(0.15797249 -0.24757523 0)
(0.18605618 -0.084879413 0)
(0.1861821 0.083217859 0)
(0.15812895 0.24696566 0)
(0.10499491 0.36912073 0)
(0.037093385 0.43590506 0)
(0.036087421 0.43439415 0)
(0.10351635 0.36846961 0)
(0.15600477 0.24680336 0)
(0.18419673 0.085861993 0)
(0.18471244 -0.083164879 0)
(0.15664229 -0.24685102 0)
(0.10378728 -0.36829926 0)
(0.036645838 -0.43445271 0)
(-0.036013388 -0.43468788 0)
(-0.10350901 -0.36865293 0)
(-0.15627108 -0.24651357 0)
(-0.18407908 -0.084280727 0)
(-0.18433879 0.083299479 0)
(-0.15658835 0.24655612 0)
(-0.10401368 0.36816102 0)
(-0.036773669 0.43436598 0)
(0.058217456 0.30021246 0)
(0.1662723 0.2540601 0)
(0.24922029 0.16946408 0)
(0.29337143 0.059102884 0)
(0.29402884 -0.058033997 0)
(0.2500996 -0.1694505 0)
(0.166708 -0.25404723 0)
(0.058744831 -0.30003317 0)
(-0.058263265 -0.30015688 0)
(-0.16643287 -0.25422865 0)
(-0.24943193 -0.16951181 0)
(-0.29329395 -0.058831159 0)
(-0.29375077 0.058019757 0)
(-0.2499883 0.16919119 0)
(-0.16676515 0.25384269 0)
(-0.058731994 0.30015546 0)
(0.043107132 0.20476597 0)
(0.12292204 0.17351907 0)
(0.18393995 0.11597435 0)
(0.216444 0.040660783 0)
(0.21668683 -0.039713144 0)
(0.18426764 -0.11568696 0)
(0.1231254 -0.17353311 0)
(0.043389114 -0.20493426 0)
(-0.043042979 -0.20500843 0)
(-0.12287684 -0.17365637 0)
(-0.18388257 -0.11580009 0)
(-0.21639163 -0.040300468 0)
(-0.21663516 0.039951201 0)
(-0.18430497 0.11571818 0)
(-0.12326539 0.17336737 0)
(-0.043478735 0.20472468 0)
(0.029410242 0.13750151 0)
(0.083936188 0.11653346 0)
(0.12564982 0.077910745 0)
(0.14800993 0.027433049 0)
(0.14816865 -0.026812961 0)
(0.12594652 -0.077639964 0)
(0.084202876 -0.11651666 0)
(0.029677029 -0.13762372 0)
(-0.029413275 -0.13768236 0)
(-0.083988446 -0.11665013 0)
(-0.12567776 -0.077818727 0)
(-0.14799729 -0.027201071 0)
(-0.1481325 0.027035465 0)
(-0.12589861 0.077667925 0)
(-0.084201268 0.11638089 0)
(-0.029689356 0.13745117 0)
(0.017353779 0.088078489 0)
(0.049538315 0.074691466 0)
(0.074148784 0.049980163 0)
(0.087397307 0.017634765 0)
(0.087482328 -0.017228219 0)
(0.074328624 -0.049798161 0)
(0.049714698 -0.074734087 0)
(0.017520014 -0.088262445 0)
(-0.017362985 -0.088286696 0)
(-0.049582461 -0.074790229 0)
(-0.074190411 -0.049880334 0)
(-0.087408506 -0.017422048 0)
(-0.087452629 0.017441083 0)
(-0.074272383 0.049861433 0)
(-0.049691985 0.074623967 0)
(-0.017520873 0.088056883 0)
(0.01457672 0.072972324 0)
(0.041688536 0.061914551 0)
(0.062454161 0.041459887 0)
(0.073687707 0.014683729 0)
(0.073765384 -0.014279471 0)
(0.062643249 -0.04121674 0)
(0.0419103 -0.061875788 0)
(0.01478657 -0.073091081 0)
(-0.01459917 -0.073130502 0)
(-0.041749967 -0.061982085 0)
(-0.06250974 -0.041377824 0)
(-0.073706124 -0.014507655 0)
(-0.073736939 0.014458435 0)
(-0.062579034 0.041280894 0)
(-0.041860198 0.061800284 0)
(-0.014770634 0.072932582 0)
(0.0086801766 0.029563101 0)
(0.024730873 0.025073668 0)
(0.037028054 0.016784118 0)
(0.043696786 0.0059290908 0)
(0.043735838 -0.0058204902 0)
(0.0371186 -0.016758599 0)
(0.024816725 -0.025150634 0)
(0.0087209036 -0.029700531 0)
(-0.0087096111 -0.029695136 0)
(-0.024806065 -0.025133884 0)
(-0.037102275 -0.016733989 0)
(-0.043726509 -0.005808302 0)
(-0.043703124 0.0059437698 0)
(-0.037040768 0.016801803 0)
(-0.024745542 0.025088497 0)
(-0.0086935081 0.029568651 0)
(0.018047067 0.040879878 0)
(0.051642011 0.034701814 0)
(0.077393213 0.023246684 0)
(0.091376631 0.0082504562 0)
(0.09148739 -0.0079577186 0)
(0.077678792 -0.023033323 0)
(0.051989352 -0.034607604 0)
(0.018346065 -0.040899641 0)
(-0.018106418 -0.040940339 0)
(-0.051784338 -0.034722503 0)
(-0.077532286 -0.02320776 0)
(-0.091431794 -0.0081747852 0)
(-0.091426492 0.0080329909 0)
(-0.077535245 0.023063536 0)
(-0.051851609 0.034581215 0)
(-0.018291891 0.040837485 0)
)
;

boundaryField
{
    leftWall
    {
        type            cyclic;
    }
    rightWall
    {
        type            cyclic;
    }
    lowerWall
    {
        type            slip;
    }
    atmosphere
    {
        type            slip;
    }
    defaultFaces
    {
        type            empty;
    }
}


// ************************************************************************* //
