/*--------------------------------*- C++ -*----------------------------------*\
| =========                 |                                                 |
| \\      /  F ield         | OpenFOAM: The Open Source CFD Toolbox           |
|  \\    /   O peration     | Version:  2106                                  |
|   \\  /    A nd           | Website:  www.openfoam.com                      |
|    \\/     M anipulation  |                                                 |
\*---------------------------------------------------------------------------*/
FoamFile
{
    version     2.0;
    format      ascii;
    arch        "LSB;label=32;scalar=64";
    class       surfaceScalarField;
    location    "0.006";
    object      phi_0;
}
// * * * * * * * * * * * * * * * * * * * * * * * * * * * * * * * * * * * * * //

dimensions      [0 3 -1 0 0 0 0];

oriented        oriented;

internalField   nonuniform List<scalar> 
480
(
-0.003493973
0.003493973
-0.0064437562
0.0029497832
-0.0084087688
0.0019650126
-0.0090961866
0.00068741783
-0.0084079883
-0.00068819829
-0.0064441205
-0.0019638678
-0.0034941735
-0.002949947
-5.6992557e-13
-0.0034941735
0.0034941735
-0.0034941735
0.0064441205
-0.002949947
0.0084079883
-0.0019638678
0.0090961866
-0.00068819829
0.0084087688
0.00068741783
0.0064437562
0.0019650126
0.003493973
0.0029497832
0.003493973
-0.0043267786
0.0078207516
-0.007977275
0.0066002796
-0.010407394
0.0043951317
-0.01125079
0.0015308139
-0.010384647
-0.0015543416
-0.0079498542
-0.0043986605
-0.0043076737
-0.0065921275
4.7482505e-13
-0.0078018472
0.0043076737
-0.0078018472
0.0079498542
-0.0065921275
0.010384647
-0.0043986605
0.01125079
-0.0015543416
0.010407394
0.0015308139
0.007977275
0.0043951317
0.0043267786
0.0066002796
0.0078207516
-0.0052182656
0.013039017
-0.0095954623
0.010977476
-0.012501384
0.007301053
-0.013523985
0.0025534157
-0.012502887
-0.00257544
-0.0096012806
-0.0073002668
-0.0052172499
-0.010976158
2.2607766e-13
-0.013019097
0.0052172499
-0.013019097
0.0096012806
-0.010976158
0.012502887
-0.0073002668
0.013523985
-0.00257544
0.012501384
0.0025534157
0.0095954623
0.007301053
0.0052182656
0.010977476
0.013039017
-0.0069468249
0.019985842
-0.012768811
0.016799462
-0.016618149
0.011150391
-0.017921581
0.0038568482
-0.01644631
-0.0040507113
-0.012529967
-0.01121661
-0.0067728125
-0.016733313
2.0027784e-13
-0.01979191
0.0067728125
-0.01979191
0.012529967
-0.016733313
0.01644631
-0.01121661
0.017921581
-0.0040507113
0.016618149
0.0038568482
0.012768811
0.011150391
0.0069468249
0.016799462
0.019985842
-0.0059843242
0.025970166
-0.01082735
0.021642488
-0.013936867
0.014259908
-0.014981567
0.0049015491
-0.013653574
-0.0053787044
-0.010372574
-0.01449761
-0.005604803
-0.021501084
-2.3285602e-13
-0.025396713
0.005604803
-0.025396713
0.010372574
-0.021501084
0.013653574
-0.01449761
0.014981567
-0.0053787044
0.013936867
0.0049015491
0.01082735
0.014259908
0.0059843242
0.021642488
0.025970166
-0.0032451386
0.029215305
-0.005692307
0.024089656
-0.007128041
0.015695642
-0.0072505566
0.0050240647
-0.0056642604
-0.0069650006
-0.0034925214
-0.016669349
-0.0015715767
-0.023422028
3.2318244e-13
-0.026968289
0.0015715767
-0.026968289
0.0034925214
-0.023422028
0.0056642604
-0.016669349
0.0072505566
-0.0069650006
0.007128041
0.0050240647
0.005692307
0.015695642
0.0032451386
0.024089656
0.029215305
0.016302011
0.012913294
0.031132364
0.0092593033
0.041661634
0.0051663711
0.045050782
0.0016349171
0.042549273
-0.0044634916
0.03305012
-0.0071701957
0.018039932
-0.0084118403
-3.1698186e-13
-0.0089283578
-0.018039932
-0.0089283578
-0.03305012
-0.0084118403
-0.042549273
-0.0071701957
-0.045050782
-0.0044634916
-0.041661634
0.0016349171
-0.031132364
0.0051663711
-0.016302011
0.0092593034
0.012913294
0.028069431
-0.015156137
0.051887101
-0.014558367
0.06690619
-0.0098527183
0.069364693
-0.00082358539
0.061892632
0.0030085691
0.045539557
0.0091828791
0.023921836
0.013205881
8.1838344e-14
0.014993478
-0.023921836
0.014993478
-0.045539557
0.013205881
-0.061892632
0.0091828791
-0.069364693
0.0030085691
-0.06690619
-0.00082358539
-0.051887101
-0.0098527183
-0.028069431
-0.014558367
-0.015156137
-0.023980535
0.0088243986
-0.046028539
0.0074896368
-0.062656016
0.0067747591
-0.069038699
0.0055590971
-0.065581725
-0.00044840466
-0.050957437
-0.0054414091
-0.027806556
-0.0099449993
2.2096031e-13
-0.012813079
0.027806556
-0.012813079
0.050957437
-0.0099449993
0.065581725
-0.0054414091
0.069038699
-0.00044840466
0.062656016
0.0055590971
0.046028539
0.0067747591
0.023980535
0.0074896368
0.0088243986
-0.018554926
0.027379325
-0.034516568
0.023451279
-0.044584216
0.016842407
-0.046398764
0.0073736459
-0.042073702
-0.0047734665
-0.031542764
-0.015972348
-0.016789466
-0.024698298
-8.8858734e-14
-0.029602544
0.016789466
-0.029602544
0.031542764
-0.024698298
0.042073702
-0.015972348
0.046398764
-0.0047734665
0.044584216
0.0073736459
0.034516568
0.016842407
0.018554926
0.023451279
0.027379325
0.0024016004
0.024977724
0.0048547061
0.020998173
0.0074095927
0.01428752
0.0092840826
0.005499156
0.0091395447
-0.0046289287
0.0072098127
-0.014042615
0.0039852828
-0.021473768
4.6032848e-13
-0.025617262
-0.0039852828
-0.025617262
-0.0072098127
-0.021473768
-0.0091395447
-0.014042615
-0.0092840826
-0.0046289287
-0.0074095927
0.005499156
-0.0048547061
0.01428752
-0.0024016004
0.020998173
0.024977724
0.004203574
0.02077415
0.0076722382
0.017529509
0.010124129
0.011835629
0.011256017
0.0043672684
0.010582106
-0.0039550181
0.0082527995
-0.011713309
0.0045372487
-0.017758217
-3.0924271e-13
-0.021080013
-0.0045372487
-0.021080013
-0.0082527995
-0.017758217
-0.010582106
-0.011713309
-0.011256017
-0.0039550181
-0.010124129
0.0043672684
-0.0076722382
0.011835629
-0.004203574
0.017529509
0.02077415
0.0092702323
0.011503918
0.017112048
0.0096876936
0.022431737
0.0065159399
0.024409364
0.0023896419
0.022612509
-0.0021581638
0.017340276
-0.0064410758
0.0093967466
-0.0098146875
1.4394439e-13
-0.011683266
-0.0093967466
-0.011683266
-0.017340276
-0.0098146875
-0.022612509
-0.0064410758
-0.024409364
-0.0021581638
-0.022431737
0.0023896419
-0.017112048
0.0065159399
-0.0092702323
0.0096876936
0.011503918
0.0026263679
0.00887755
0.0047903765
0.007523685
0.0062220196
0.0050842968
0.0067431424
0.0018685192
0.0062564986
-0.00167152
0.0048248023
-0.0050093795
0.0026285192
-0.0076184043
-7.3424532e-14
-0.0090547471
-0.0026285192
-0.0090547471
-0.0048248023
-0.0076184043
-0.0062564986
-0.0050093795
-0.0067431424
-0.00167152
-0.0062220196
0.0018685192
-0.0047903765
0.0050842968
-0.0026263679
0.007523685
0.00887755
0.01217342
-0.0032958696
0.022489393
-0.0027922887
0.029403462
-0.0018297724
0.0318684
-0.00059641825
0.029495684
0.00070119551
0.022615544
0.0018707606
0.012255222
0.0027419179
3.5539775e-13
0.0032004749
-0.012255222
0.0032004749
-0.022615544
0.0027419179
-0.029495684
0.0018707606
-0.0318684
0.00070119551
-0.029403462
-0.00059641825
-0.022489393
-0.0018297724
-0.01217342
-0.0027922887
-0.0032958696
-0.0031571343
-0.0058319717
-0.0075835543
-0.0081528538
-0.0074794924
-0.005687207
-0.0030624273
-7.4971026e-13
0.0030624273
0.005687207
0.0074794924
0.0081528538
0.0075835543
0.0058319717
0.0031571343
)
;

boundaryField
{
    leftWall
    {
        type            cyclic;
        value           nonuniform List<scalar> 
16
(
-3.1976066e-13
-4.6884957e-13
-2.3556025e-13
4.87104e-13
2.4673731e-15
6.0245544e-14
-1.0534556e-12
2.5119301e-13
4.2605513e-13
-6.0710469e-13
3.0760664e-13
-1.5975705e-14
5.0091385e-13
-3.2543911e-13
-6.4883499e-13
-3.3498119e-13
)
;
    }
    rightWall
    {
        type            cyclic;
        value           nonuniform List<scalar> 
16
(
3.1976066e-13
4.6884957e-13
2.3556025e-13
-4.87104e-13
-2.4673731e-15
-6.0245544e-14
1.0534556e-12
-2.5119301e-13
-4.2605513e-13
6.0710469e-13
-3.0760664e-13
1.5975705e-14
-5.0091385e-13
3.2543911e-13
6.4883499e-13
3.3498119e-13
)
;
    }
    lowerWall
    {
        type            calculated;
        value           uniform 0;
    }
    atmosphere
    {
        type            calculated;
        value           nonuniform List<scalar> 
16
(
-0.00013873532
-0.00011745124
-7.8189855e-05
-2.7118724e-05
2.783412e-05
7.8475195e-05
0.00011713827
0.00013804756
0.00013804756
0.00011713827
7.8475195e-05
2.783412e-05
-2.7118725e-05
-7.8189856e-05
-0.00011745124
-0.00013873532
)
;
    }
    defaultFaces
    {
        type            empty;
        value           nonuniform List<scalar> 0();
    }
}


// ************************************************************************* //
