/*--------------------------------*- C++ -*----------------------------------*\
| =========                 |                                                 |
| \\      /  F ield         | OpenFOAM: The Open Source CFD Toolbox           |
|  \\    /   O peration     | Version:  2306                                  |
|   \\  /    A nd           | Website:  www.openfoam.com                      |
|    \\/     M anipulation  |                                                 |
\*---------------------------------------------------------------------------*/
FoamFile
{
    version     2.0;
    format      ascii;
    arch        "LSB;label=32;scalar=64";
    class       volVectorField;
    location    "0.08";
    object      U_0;
}
// * * * * * * * * * * * * * * * * * * * * * * * * * * * * * * * * * * * * * //

dimensions      [0 1 -1 0 0 0 0];

internalField   nonuniform List<vector> 
6400
(
(-6.2179743e-07 -1.4218591e-05 1.1292834e-20)
(-1.3882959e-06 -1.4186272e-05 7.8126958e-21)
(-2.272768e-06 -1.407852e-05 -2.252075e-20)
(-3.1289231e-06 -1.3910564e-05 -2.8908604e-21)
(-3.9979424e-06 -1.3679037e-05 -1.8382141e-20)
(-4.853543e-06 -1.3385904e-05 9.1371405e-21)
(-5.6944133e-06 -1.3032856e-05 -1.6573829e-20)
(-6.5178904e-06 -1.2621413e-05 -1.5913513e-20)
(-7.3212883e-06 -1.2152984e-05 -4.2279911e-21)
(-8.1019577e-06 -1.1629182e-05 -1.2180286e-20)
(-8.8573e-06 -1.1051537e-05 -1.4647358e-20)
(-9.5848217e-06 -1.0421826e-05 -1.6330381e-20)
(-1.028206e-05 -9.7419541e-06 -1.3562444e-20)
(-1.0946747e-05 -9.0141216e-06 -1.1480106e-20)
(-1.1577008e-05 -8.2404612e-06 -1.2618162e-20)
(-1.2170934e-05 -7.4229077e-06 -1.2797916e-20)
(-1.2726464e-05 -6.5640656e-06 -8.701772e-21)
(-1.3241567e-05 -5.6659794e-06 -7.8840896e-21)
(-1.3714639e-05 -4.731372e-06 -5.9256722e-21)
(-1.4145073e-05 -3.7635068e-06 -4.8604783e-21)
(-1.4531506e-05 -2.7652838e-06 -6.6935168e-21)
(-1.4872362e-05 -1.7385219e-06 -1.0332309e-21)
(-1.5166012e-05 -6.8576808e-07 -1.7063432e-21)
(-1.5413022e-05 3.8883054e-07 -4.2540083e-21)
(-1.5612254e-05 1.4826988e-06 -2.0696663e-21)
(-1.576195e-05 2.5937678e-06 -3.1024451e-22)
(-1.5862702e-05 3.7185889e-06 2.4713286e-21)
(-1.591389e-05 4.8544091e-06 -1.8355299e-21)
(-1.5915441e-05 5.9981515e-06 -4.564639e-21)
(-1.5867488e-05 7.1468407e-06 -8.5584406e-22)
(-1.5770164e-05 8.2975547e-06 1.5964031e-21)
(-1.5623783e-05 9.4473017e-06 2.509905e-21)
(-1.5428775e-05 1.05933e-05 -1.5176841e-21)
(-1.518572e-05 1.173293e-05 -4.4216747e-21)
(-1.4895316e-05 1.2863301e-05 7.5356237e-23)
(-1.455833e-05 1.3981806e-05 2.6606143e-21)
(-1.4175693e-05 1.5085659e-05 3.4999656e-21)
(-1.3748498e-05 1.6172407e-05 -1.5410721e-21)
(-1.3277946e-05 1.7239452e-05 -1.6806448e-21)
(-1.2765284e-05 1.828446e-05 3.1824494e-21)
(-1.2211851e-05 1.930536e-05 4.6818468e-21)
(-1.1619146e-05 2.0299764e-05 2.6297058e-21)
(-1.0988644e-05 2.1265639e-05 1.2550864e-21)
(-1.0321933e-05 2.220094e-05 -1.6519634e-22)
(-9.620656e-06 2.3103863e-05 -4.4057988e-21)
(-8.8865518e-06 2.3972668e-05 -7.4551176e-22)
(-8.1215141e-06 2.4805573e-05 2.237079e-22)
(-7.3273819e-06 2.5601134e-05 1.5745131e-22)
(-6.5060059e-06 2.6357794e-05 -8.1277188e-22)
(-5.6592977e-06 2.7074317e-05 -3.6633427e-21)
(-4.7892886e-06 2.7749588e-05 -1.0560625e-21)
(-3.8978704e-06 2.8382475e-05 1.3383314e-21)
(-2.9872631e-06 2.8972074e-05 -1.9868861e-21)
(-2.0593852e-06 2.9517245e-05 -3.8102324e-22)
(-1.1158539e-06 3.0017816e-05 2.1465609e-21)
(-1.586757e-07 3.0472873e-05 2.2135817e-21)
(8.0980176e-07 3.0882195e-05 7.1117491e-22)
(1.7876827e-06 3.12449e-05 -2.106422e-21)
(2.7728962e-06 3.156088e-05 -6.5377869e-23)
(3.7631792e-06 3.1829905e-05 2.7692402e-21)
(4.7568845e-06 3.2052095e-05 -1.6669801e-22)
(5.7520345e-06 3.2227406e-05 -1.1608164e-21)
(6.7467814e-06 3.2355926e-05 -2.8137446e-21)
(7.7393397e-06 3.243798e-05 5.5752396e-22)
(8.7278025e-06 3.2473935e-05 3.1368039e-21)
(9.710449e-06 3.2463998e-05 -5.2445004e-22)
(1.0685608e-05 3.24088e-05 -6.807739e-22)
(1.1651651e-05 3.2308666e-05 -9.1658516e-22)
(1.2606918e-05 3.2164607e-05 1.0078198e-21)
(1.3549789e-05 3.1977115e-05 3.6686948e-21)
(1.4478779e-05 3.1747054e-05 -1.1088352e-22)
(1.5392487e-05 3.1475256e-05 -1.8809147e-21)
(1.6289532e-05 3.1162533e-05 -1.8900387e-21)
(1.7168517e-05 3.0809931e-05 1.0248384e-21)
(1.8028186e-05 3.0418467e-05 3.5674413e-21)
(1.8867407e-05 2.998914e-05 -5.4503373e-22)
(1.9685029e-05 2.9523099e-05 -1.1639925e-21)
(2.0479893e-05 2.9021475e-05 -6.2220932e-22)
(2.1250931e-05 2.8485438e-05 1.2564706e-21)
(2.199729e-05 2.7916348e-05 3.1911393e-21)
(-5.8114491e-07 -1.2495959e-05 -6.5642144e-22)
(-1.2969522e-06 -1.2465925e-05 -2.2611892e-20)
(-2.122568e-06 -1.2364865e-05 -7.7074126e-20)
(-2.921852e-06 -1.2206814e-05 -6.4988311e-22)
(-3.7329802e-06 -1.1989323e-05 -3.6004115e-20)
(-4.5315937e-06 -1.1713986e-05 -6.0197561e-21)
(-5.3166031e-06 -1.1382255e-05 -1.4015136e-20)
(-6.0852337e-06 -1.0995539e-05 9.4785847e-21)
(-6.8348852e-06 -1.0555182e-05 4.3341879e-21)
(-7.5631233e-06 -1.0062869e-05 -2.0286729e-21)
(-8.2676374e-06 -9.5200512e-06 6.9314884e-21)
(-8.9461108e-06 -8.9282747e-06 5.6264483e-21)
(-9.5961042e-06 -8.2895451e-06 7.6814716e-21)
(-1.0215519e-05 -7.6055699e-06 6.3741767e-21)
(-1.0802556e-05 -6.8783223e-06 1.0616239e-20)
(-1.1355293e-05 -6.1097581e-06 6.6183763e-21)
(-1.1871627e-05 -5.3018434e-06 6.1142277e-21)
(-1.235025e-05 -4.4576408e-06 8.3162173e-21)
(-1.279031e-05 -3.5795093e-06 6.3691659e-21)
(-1.3189901e-05 -2.6701009e-06 1.2005113e-20)
(-1.3547304e-05 -1.7314443e-06 4.6227326e-21)
(-1.3861745e-05 -7.6558259e-07 -1.3671648e-22)
(-1.4133417e-05 2.2383426e-07 4.9347284e-21)
(-1.4360525e-05 1.2338929e-06 9.0683908e-22)
(-1.4541395e-05 2.2634047e-06 2.4879683e-21)
(-1.4676397e-05 3.3082255e-06 6.4381228e-21)
(-1.476518e-05 4.3664122e-06 -6.368038e-22)
(-1.480727e-05 5.4348688e-06 -9.7597904e-22)
(-1.480259e-05 6.5108632e-06 -1.6181137e-21)
(-1.4751239e-05 7.5916518e-06 1.713276e-21)
(-1.4653299e-05 8.6744391e-06 5.4399052e-21)
(-1.4509154e-05 9.7563986e-06 -1.025776e-21)
(-1.4319193e-05 1.0834841e-05 -1.7048827e-21)
(-1.4083868e-05 1.190731e-05 -2.1956873e-21)
(-1.3803785e-05 1.2971059e-05 1.6138834e-21)
(-1.3479663e-05 1.4023632e-05 3.6151094e-21)
(-1.3112481e-05 1.5062553e-05 -1.5328841e-21)
(-1.2703201e-05 1.608534e-05 -2.0467377e-21)
(-1.2252837e-05 1.7089707e-05 -2.7313244e-21)
(-1.1762657e-05 1.807335e-05 -2.7914093e-21)
(-1.1233936e-05 1.9034329e-05 8.4688383e-22)
(-1.0667975e-05 1.9970267e-05 -1.0488152e-21)
(-1.0066202e-05 2.0879285e-05 -4.1163401e-21)
(-9.4300727e-06 2.1759467e-05 -3.4540109e-21)
(-8.761148e-06 2.2609114e-05 -1.305149e-21)
(-8.0611616e-06 2.3426516e-05 1.3910718e-21)
(-7.3317733e-06 2.4210094e-05 -2.6220217e-21)
(-6.5746726e-06 2.4958355e-05 -4.4469901e-21)
(-5.7916647e-06 2.5669887e-05 -3.7820083e-21)
(-4.9846104e-06 2.6343438e-05 -1.0382327e-21)
(-4.1553353e-06 2.6977988e-05 7.1192357e-23)
(-3.3057342e-06 2.7572325e-05 -2.1488212e-21)
(-2.4378067e-06 2.8125566e-05 -1.8445255e-21)
(-1.553108e-06 2.8637029e-05 8.9597152e-22)
(-6.5357814e-07 2.910593e-05 2.5552523e-21)
(2.589542e-07 2.9531924e-05 -5.1974304e-22)
(1.1825135e-06 2.9913975e-05 -2.7560327e-21)
(2.1150915e-06 3.0252391e-05 -2.037998e-21)
(3.0547125e-06 3.0546297e-05 -3.4238815e-22)
(3.9992631e-06 3.0795635e-05 2.3341863e-21)
(4.9472058e-06 3.1000454e-05 -4.1237883e-22)
(5.8967098e-06 3.1160793e-05 -2.9632572e-21)
(6.8459216e-06 3.1276537e-05 -2.7003814e-21)
(7.7931939e-06 3.1347952e-05 -1.5128588e-21)
(8.7368337e-06 3.1375583e-05 2.0556808e-21)
(9.6750522e-06 3.135946e-05 1.791813e-22)
(1.0606275e-05 3.1300193e-05 -2.0675648e-21)
(1.1528924e-05 3.1198156e-05 -1.4145548e-21)
(1.2441398e-05 3.1054157e-05 -1.0677296e-21)
(1.3342234e-05 3.0868777e-05 2.291009e-21)
(1.4230004e-05 3.0642758e-05 5.2670856e-22)
(1.5103379e-05 3.0376729e-05 -1.2265421e-21)
(1.5960987e-05 3.0071808e-05 -2.2552042e-21)
(1.680148e-05 2.9728671e-05 -2.336056e-21)
(1.7623622e-05 2.9348357e-05 2.3679458e-21)
(1.8426368e-05 2.8931781e-05 1.1761978e-21)
(1.9208594e-05 2.8480195e-05 -7.1177114e-22)
(1.9969178e-05 2.7994573e-05 -1.6761832e-21)
(2.0707139e-05 2.7475894e-05 -3.1790256e-21)
(2.1421597e-05 2.6925492e-05 -9.9983902e-22)
(-5.4276523e-07 -1.0886512e-05 4.9663464e-21)
(-1.2108438e-06 -1.0859255e-05 6.9501243e-21)
(-1.9813756e-06 -1.0764986e-05 -2.5016553e-20)
(-2.7269732e-06 -1.0616461e-05 -1.6034256e-21)
(-3.4839104e-06 -1.0412001e-05 -1.6868085e-20)
(-4.2292302e-06 -1.0153235e-05 -3.2019095e-20)
(-4.9615684e-06 -9.841535e-06 -1.5344098e-20)
(-5.6785728e-06 -9.4782213e-06 -1.1264953e-20)
(-6.3778374e-06 -9.0644853e-06 -1.6508116e-20)
(-7.0569535e-06 -8.6018365e-06 -4.743585e-21)
(-7.7136968e-06 -8.0916712e-06 -2.2516187e-21)
(-8.34587e-06 -7.5355838e-06 4.4214926e-21)
(-8.9514403e-06 -6.9353224e-06 -5.3538159e-22)
(-9.5283255e-06 -6.2925023e-06 5.0379646e-21)
(-1.00747e-05 -5.6085039e-06 5.4890823e-21)
(-1.0588282e-05 -4.8854454e-06 2.6676205e-22)
(-1.1068312e-05 -4.1265807e-06 6.009062e-21)
(-1.1513481e-05 -3.3336675e-06 3.0221926e-21)
(-1.192167e-05 -2.50844e-06 3.4783619e-21)
(-1.2291809e-05 -1.6533155e-06 5.995724e-21)
(-1.2621928e-05 -7.6988235e-07 3.4105794e-21)
(-1.2912376e-05 1.371e-07 5.8700695e-21)
(-1.3162356e-05 1.0668739e-06 5.2896321e-21)
(-1.3369566e-05 2.0176766e-06 1.2033921e-21)
(-1.3534105e-05 2.9857106e-06 4.8244302e-21)
(-1.3655351e-05 3.9685317e-06 8.1789334e-21)
(-1.3732692e-05 4.9638594e-06 6.8944087e-21)
(-1.376619e-05 5.9689229e-06 2.4131549e-21)
(-1.3755721e-05 6.9810942e-06 -1.7973562e-21)
(-1.3701209e-05 7.997806e-06 1.9745081e-21)
(-1.3602718e-05 9.0164905e-06 4.7940876e-21)
(-1.3460541e-05 1.0034444e-05 3.8443864e-21)
(-1.3275063e-05 1.1049205e-05 8.3664002e-23)
(-1.3046832e-05 1.2058369e-05 -3.506892e-21)
(-1.2776446e-05 1.3059322e-05 -7.5114522e-22)
(-1.2464502e-05 1.404974e-05 1.9184715e-21)
(-1.2111794e-05 1.5027378e-05 1.3396437e-21)
(-1.1719309e-05 1.5989857e-05 -1.1499494e-21)
(-1.1288034e-05 1.6935052e-05 -4.3111735e-21)
(-1.081908e-05 1.7860718e-05 -8.9855746e-22)
(-1.0313631e-05 1.8764944e-05 1.8552988e-22)
(-9.7728704e-06 1.9645571e-05 -2.214876e-21)
(-9.1981273e-06 2.0500847e-05 -2.0768802e-21)
(-8.5908539e-06 2.132891e-05 -2.3816514e-21)
(-7.9525554e-06 2.2128135e-05 -7.7959693e-22)
(-7.2847638e-06 2.2896926e-05 -4.4208035e-21)
(-6.5890581e-06 2.3633711e-05 -5.3555875e-21)
(-5.8670371e-06 2.433712e-05 -4.0904852e-21)
(-5.1203697e-06 2.5005765e-05 -3.5580719e-21)
(-4.350795e-06 2.563853e-05 -1.3220416e-21)
(-3.5600307e-06 2.6234324e-05 -3.4033147e-21)
(-2.7500568e-06 2.6792095e-05 -5.184326e-21)
(-1.9224685e-06 2.7310857e-05 -3.5771693e-21)
(-1.0787884e-06 2.7790427e-05 -4.9265747e-21)
(-2.207813e-07 2.8229005e-05 -2.1421712e-21)
(6.4946764e-07 2.862737e-05 -1.342079e-21)
(1.5301594e-06 2.8983911e-05 -8.510233e-22)
(2.4195984e-06 2.9298963e-05 -1.1695291e-21)
(3.3157038e-06 2.9571741e-05 -3.2198939e-21)
(4.2168314e-06 2.9802186e-05 -1.9037927e-21)
(5.1213485e-06 2.9990287e-05 -1.8167734e-21)
(6.0274826e-06 3.0136212e-05 -2.7663964e-21)
(6.9335475e-06 3.0239684e-05 -2.0039681e-21)
(7.8378584e-06 3.0300939e-05 -3.0374613e-21)
(8.7387623e-06 3.032051e-05 -1.4489738e-21)
(9.6346672e-06 3.0298484e-05 -1.613131e-21)
(1.052401e-05 3.0235265e-05 -2.3312139e-21)
(1.1405317e-05 3.0131346e-05 -8.4455083e-22)
(1.2277077e-05 2.9987346e-05 -1.9869646e-21)
(1.3137887e-05 2.9803893e-05 -6.4727573e-22)
(1.3986375e-05 2.9581654e-05 -8.4922118e-22)
(1.4821091e-05 2.9321263e-05 -2.1499306e-21)
(1.5640844e-05 2.9023646e-05 -1.4055576e-21)
(1.6444459e-05 2.8689538e-05 -1.7351813e-21)
(1.7230741e-05 2.8319853e-05 -6.1063142e-22)
(1.7998555e-05 2.7915447e-05 -1.6601906e-21)
(1.874684e-05 2.7477551e-05 -2.3438906e-21)
(1.9474692e-05 2.7007062e-05 -9.8811382e-22)
(2.0181037e-05 2.6504879e-05 -7.790728e-23)
(2.0864926e-05 2.5972284e-05 8.0848637e-22)
(-5.0616492e-07 -9.3851047e-06 -2.2607673e-21)
(-1.1290332e-06 -9.3602059e-06 -2.1096508e-20)
(-1.8480886e-06 -9.2721753e-06 1.8848622e-21)
(-2.5438186e-06 -9.1327395e-06 1.2444089e-20)
(-3.2499693e-06 -8.9405721e-06 9.5405066e-21)
(-3.945036e-06 -8.6970927e-06 -1.2395258e-20)
(-4.6279435e-06 -8.4040415e-06 -8.7458628e-21)
(-5.296425e-06 -8.0627937e-06 -9.8077286e-21)
(-5.9482044e-06 -7.6743038e-06 -1.2766232e-20)
(-6.581123e-06 -7.2395921e-06 -7.1245957e-21)
(-7.1930705e-06 -6.7600957e-06 -3.6314646e-21)
(-7.781853e-06 -6.2374241e-06 -3.6664798e-21)
(-8.3456546e-06 -5.6728697e-06 -6.6336287e-21)
(-8.8820048e-06 -5.0680284e-06 -3.0121435e-21)
(-9.3895396e-06 -4.4254248e-06 -6.5275656e-21)
(-9.8678105e-06 -3.7462791e-06 -1.8358889e-21)
(-1.0314362e-05 -3.0334189e-06 -5.8075106e-21)
(-1.0726861e-05 -2.2874579e-06 -5.304348e-21)
(-1.1104876e-05 -1.5117484e-06 -6.8012729e-22)
(-1.1446516e-05 -7.0743802e-07 1.4594632e-21)
(-1.1752342e-05 1.2203973e-07 3.9158637e-21)
(-1.2020662e-05 9.7459239e-07 -4.6518834e-22)
(-1.2248903e-05 1.8493505e-06 -2.3309478e-21)
(-1.243801e-05 2.743087e-06 -3.427176e-21)
(-1.2586943e-05 3.6531686e-06 -1.046806e-21)
(-1.2694783e-05 4.5777029e-06 3.9115042e-21)
(-1.2761534e-05 5.5139349e-06 -4.681901e-22)
(-1.2786953e-05 6.4593082e-06 -4.5281103e-21)
(-1.2770846e-05 7.411383e-06 -4.144503e-21)
(-1.2713237e-05 8.3675879e-06 -5.0300168e-22)
(-1.2614162e-05 9.325828e-06 3.6596989e-21)
(-1.247393e-05 1.028345e-05 5.2859852e-22)
(-1.2292878e-05 1.1238131e-05 -2.6602159e-21)
(-1.2071395e-05 1.2187523e-05 -3.0039188e-21)
(-1.1809988e-05 1.3129201e-05 -1.4899121e-21)
(-1.1509445e-05 1.406107e-05 3.4862984e-21)
(-1.1170437e-05 1.4980866e-05 1.9330283e-21)
(-1.0793742e-05 1.5886438e-05 -9.7997891e-22)
(-1.0380375e-05 1.6775728e-05 -3.1525377e-21)
(-9.9313658e-06 1.7646492e-05 -2.2741173e-21)
(-9.4478083e-06 1.8497052e-05 2.9310651e-21)
(-8.9307935e-06 1.9325368e-05 1.6382869e-21)
(-8.3815715e-06 2.0129841e-05 2.0970913e-21)
(-7.8015984e-06 2.0908604e-05 4.4749663e-21)
(-7.1922191e-06 2.1660088e-05 4.7081027e-21)
(-6.5548051e-06 2.2382856e-05 1.9882917e-21)
(-5.8908985e-06 2.3075306e-05 1.2176604e-21)
(-5.2020326e-06 2.3736221e-05 2.7076718e-21)
(-4.4897281e-06 2.4364204e-05 4.8304101e-21)
(-3.7556927e-06 2.4958319e-05 6.0431498e-21)
(-3.0015564e-06 2.5517256e-05 4.2201362e-21)
(-2.2289716e-06 2.6040166e-05 2.226728e-21)
(-1.4393878e-06 2.6526343e-05 1.9565824e-21)
(-6.3498834e-07 2.6975135e-05 -1.0733694e-21)
(1.834868e-07 2.7385748e-05 -1.1058658e-21)
(1.0140854e-06 2.7757409e-05 2.1673071e-22)
(1.8540769e-06 2.8089941e-05 2.4978873e-21)
(2.7025289e-06 2.838254e-05 2.8055855e-21)
(3.5575186e-06 2.8635209e-05 -1.3574844e-22)
(4.41739e-06 2.8847645e-05 -1.6400977e-21)
(5.2805502e-06 2.9019779e-05 -1.1563231e-21)
(6.1454149e-06 2.9151831e-05 5.3528129e-22)
(7.0103292e-06 2.9243566e-05 1.1830543e-21)
(7.8736106e-06 2.9295143e-05 -2.3044148e-22)
(8.7338047e-06 2.9307035e-05 -7.3383799e-22)
(9.5893944e-06 2.9279285e-05 -2.0454695e-22)
(1.0438827e-05 2.9212234e-05 1.3113563e-21)
(1.1280692e-05 2.9106434e-05 1.8108026e-21)
(1.2113571e-05 2.8962421e-05 1.9407207e-22)
(1.2936084e-05 2.8780767e-05 -1.6718836e-22)
(1.374693e-05 2.8562079e-05 3.8400975e-22)
(1.4544844e-05 2.8307023e-05 1.4510858e-21)
(1.5328602e-05 2.8016275e-05 7.3221058e-22)
(1.6097027e-05 2.7690767e-05 -2.7762018e-22)
(1.6849041e-05 2.7331182e-05 -1.1802769e-22)
(1.7583493e-05 2.6938396e-05 -5.4451959e-22)
(1.8299371e-05 2.6513499e-05 3.8581862e-22)
(1.8995802e-05 2.605741e-05 5.05674e-22)
(1.967174e-05 2.5570931e-05 6.9908563e-22)
(2.0326313e-05 2.5055346e-05 -3.0312749e-23)
(-4.7170514e-07 -7.9861349e-06 5.4824147e-21)
(-1.0521394e-06 -7.9626557e-06 9.0938594e-21)
(-1.7229248e-06 -7.8796797e-06 4.4592604e-20)
(-2.3717811e-06 -7.7485385e-06 1.5160419e-20)
(-3.0301887e-06 -7.568025e-06 3.498378e-20)
(-3.6780124e-06 -7.3393077e-06 1.8453431e-20)
(-4.3144794e-06 -7.0640208e-06 3.7415833e-20)
(-4.9374322e-06 -6.7433607e-06 2.7174033e-20)
(-5.5445623e-06 -6.3784104e-06 2.6017623e-20)
(-6.1339442e-06 -5.9696827e-06 2.6486439e-20)
(-6.7037082e-06 -5.5188319e-06 2.0471999e-20)
(-7.2514326e-06 -5.0272827e-06 1.1171106e-20)
(-7.7753981e-06 -4.4966808e-06 1.3351846e-20)
(-8.2747036e-06 -3.9284734e-06 9.0968144e-21)
(-8.7471187e-06 -3.3248903e-06 1.0310153e-20)
(-9.1907947e-06 -2.6874075e-06 8.6658484e-21)
(-9.6043374e-06 -2.0170163e-06 1.0122846e-20)
(-9.9871243e-06 -1.3157147e-06 9.4043456e-21)
(-1.0337179e-05 -5.8647415e-07 6.9217767e-21)
(-1.0653807e-05 1.6918159e-07 3.1741013e-21)
(-1.0935757e-05 9.4840896e-07 -1.131455e-21)
(-1.1181027e-05 1.7509928e-06 -4.0293688e-22)
(-1.1390066e-05 2.5733964e-06 -2.7162197e-21)
(-1.1561998e-05 3.4135871e-06 9.571463e-22)
(-1.1695874e-05 4.2695547e-06 3.8526311e-21)
(-1.179133e-05 5.138907e-06 -6.8319381e-22)
(-1.1848098e-05 6.0194286e-06 -7.4908574e-22)
(-1.1865869e-05 6.9084415e-06 -9.7000326e-22)
(-1.1844429e-05 7.8038451e-06 1.5796098e-22)
(-1.1783854e-05 8.7031627e-06 2.5029097e-21)
(-1.1684324e-05 9.6044757e-06 -5.3927528e-22)
(-1.1545926e-05 1.0505259e-05 -6.523567e-22)
(-1.1368937e-05 1.1403182e-05 -5.1208025e-22)
(-1.1153779e-05 1.2296193e-05 5.7346016e-22)
(-1.0900962e-05 1.3181883e-05 1.15424e-21)
(-1.0611081e-05 1.4058467e-05 -1.1216809e-21)
(-1.0284864e-05 1.4923597e-05 -4.0115056e-22)
(-9.9230746e-06 1.5775333e-05 -1.7798534e-22)
(-9.5265794e-06 1.6611736e-05 -1.2941768e-22)
(-9.0963521e-06 1.7430698e-05 1.8208088e-21)
(-8.6334333e-06 1.8230527e-05 4.3378754e-21)
(-8.1388676e-06 1.9009447e-05 6.1685204e-22)
(-7.6138386e-06 1.9765815e-05 -1.0410667e-21)
(-7.0596734e-06 2.0497877e-05 -1.8183747e-22)
(-6.4775892e-06 2.1204189e-05 -8.3078127e-23)
(-5.868903e-06 2.1883301e-05 1.6641263e-21)
(-5.2350535e-06 2.2533759e-05 -8.6306211e-22)
(-4.5775375e-06 2.31544e-05 -3.5637967e-22)
(-3.8977649e-06 2.3743923e-05 -1.3138118e-21)
(-3.1973179e-06 2.4301423e-05 4.842931e-22)
(-2.4778623e-06 2.4825375e-05 2.1976462e-21)
(-1.7407596e-06 2.5315379e-05 1.1281582e-21)
(-9.8743912e-07 2.5770563e-05 1.0531194e-21)
(-2.1959338e-07 2.6190082e-05 -1.2406397e-21)
(5.6135095e-07 2.6573975e-05 -8.7778041e-22)
(1.3536034e-06 2.6920391e-05 1.1559856e-22)
(2.1553148e-06 2.7229753e-05 8.1120963e-22)
(2.9649381e-06 2.7501149e-05 2.334353e-21)
(3.7808244e-06 2.7734711e-05 -4.0052745e-22)
(4.6015121e-06 2.7930056e-05 -1.8304497e-21)
(5.4253538e-06 2.8087138e-05 -1.8102866e-21)
(6.2508406e-06 2.8205977e-05 -1.1452671e-22)
(7.0765623e-06 2.8286495e-05 1.5978033e-21)
(7.9008745e-06 2.832883e-05 -7.8925325e-22)
(8.72233e-06 2.8333275e-05 -7.8181068e-22)
(9.5394632e-06 2.830006e-05 -9.2045098e-22)
(1.0350806e-05 2.8229385e-05 4.226019e-22)
(1.1155057e-05 2.8121719e-05 1.925328e-21)
(1.1950822e-05 2.7977686e-05 3.2657042e-23)
(1.2736813e-05 2.7797659e-05 -7.4493922e-22)
(1.351184e-05 2.7582348e-05 -7.877829e-22)
(1.4274608e-05 2.7332223e-05 -8.7523882e-23)
(1.5023881e-05 2.7048027e-05 6.5145317e-22)
(1.5758666e-05 2.6730583e-05 1.5071176e-22)
(1.647789e-05 2.6380614e-05 -1.0834775e-22)
(1.7180379e-05 2.5998878e-05 -1.652125e-21)
(1.7865179e-05 2.5586423e-05 -3.9080381e-22)
(1.8531516e-05 2.5144119e-05 8.2101219e-22)
(1.9178411e-05 2.467269e-05 -3.8629453e-22)
(1.9804884e-05 2.417333e-05 -1.6739193e-21)
(-4.3949278e-07 -6.6829237e-06 1.3856107e-20)
(-9.8011881e-07 -6.6601764e-06 3.8464201e-20)
(-1.6054207e-06 -6.5816906e-06 2.1253487e-20)
(-2.210098e-06 -6.4584133e-06 -9.4936018e-21)
(-2.8235449e-06 -6.2889579e-06 -2.0800712e-21)
(-3.42708e-06 -6.0741488e-06 1.4608158e-20)
(-4.0199866e-06 -5.8154522e-06 9.7285292e-22)
(-4.6002097e-06 -5.5136622e-06 -3.2879071e-21)
(-5.1651856e-06 -5.1698926e-06 6.1980755e-21)
(-5.7132735e-06 -4.7857218e-06 -8.2729935e-21)
(-6.2431608e-06 -4.362348e-06 -1.3169599e-20)
(-6.7528926e-06 -3.9010561e-06 -1.3165953e-20)
(-7.2405467e-06 -3.402722e-06 -1.2473094e-20)
(-7.7043821e-06 -2.8695578e-06 -1.1627249e-20)
(-8.1429893e-06 -2.3020687e-06 -1.00307e-20)
(-8.5546988e-06 -1.7026431e-06 -7.6553727e-21)
(-8.9378351e-06 -1.0723094e-06 -7.388798e-21)
(-9.2918919e-06 -4.141794e-07 -1.0112293e-20)
(-9.6158014e-06 2.712226e-07 -7.181076e-21)
(-9.9077718e-06 9.81197e-07 -5.3562944e-21)
(-1.0166646e-05 1.7150222e-06 -5.3838343e-21)
(-1.0391915e-05 2.4693693e-06 -4.6227632e-22)
(-1.0582775e-05 3.2425466e-06 1.177871e-21)
(-1.0738272e-05 4.0326748e-06 -4.3125935e-22)
(-1.085814e-05 4.83753e-06 3.7163166e-21)
(-1.0941904e-05 5.6549501e-06 2.6455856e-21)
(-1.0989142e-05 6.4828762e-06 2.7559294e-22)
(-1.0999599e-05 7.3188286e-06 -2.14566e-21)
(-1.0973198e-05 8.1607804e-06 -2.3669299e-21)
(-1.0909923e-05 9.0065368e-06 2.622732e-21)
(-1.08098e-05 9.8541598e-06 2.3353994e-21)
(-1.0673002e-05 1.0701219e-05 -1.4257248e-22)
(-1.0499798e-05 1.1545678e-05 -1.7422737e-21)
(-1.0290575e-05 1.2385476e-05 -2.2709373e-21)
(-1.0045853e-05 1.3218426e-05 2.017793e-21)
(-9.7661512e-06 1.4042762e-05 2.030633e-21)
(-9.4520098e-06 1.4856253e-05 6.5614924e-22)
(-9.1042444e-06 1.5657178e-05 -1.1274471e-21)
(-8.7237267e-06 1.6443553e-05 -2.6652659e-21)
(-8.3112774e-06 1.7213598e-05 5.6844479e-22)
(-7.8677936e-06 1.7965482e-05 6.0861809e-22)
(-7.3943749e-06 1.8697687e-05 3.0587621e-21)
(-6.8921865e-06 1.940855e-05 4.6312897e-21)
(-6.3624146e-06 2.0096425e-05 8.7653551e-23)
(-5.8061276e-06 2.0760006e-05 3.5601875e-22)
(-5.2245919e-06 2.139778e-05 4.2321496e-22)
(-4.6192281e-06 2.2008473e-05 1.7511708e-21)
(-3.9913937e-06 2.2590934e-05 3.6420859e-21)
(-3.3424133e-06 2.3144037e-05 -1.6060304e-22)
(-2.6738782e-06 2.3666666e-05 7.8574976e-22)
(-1.9871503e-06 2.4157575e-05 7.0157643e-22)
(-1.2835861e-06 2.4616497e-05 1.8334968e-21)
(-5.6451769e-07 2.5042034e-05 2.1377483e-21)
(1.6844842e-07 2.5434364e-05 8.0644138e-22)
(9.1364858e-07 2.5792018e-05 7.0672199e-22)
(1.6697035e-06 2.6114713e-05 1.8556012e-22)
(2.4348788e-06 2.6401957e-05 3.0641108e-21)
(3.2075565e-06 2.6653394e-05 2.8493848e-21)
(3.9862906e-06 2.6868767e-05 4.0787831e-22)
(4.769671e-06 2.7047797e-05 5.8062283e-22)
(5.556204e-06 2.7190515e-05 -3.237584e-22)
(6.3444242e-06 2.7296738e-05 2.0072433e-21)
(7.1328481e-06 2.7366539e-05 2.3329131e-21)
(7.9200083e-06 2.7400058e-05 5.5449995e-22)
(8.7044709e-06 2.7397384e-05 5.7245398e-22)
(9.4849838e-06 2.7358932e-05 -5.3556318e-22)
(1.0260121e-05 2.7284807e-05 1.7986075e-21)
(1.1028464e-05 2.717537e-05 3.2242883e-21)
(1.1788874e-05 2.7031215e-05 1.1453997e-21)
(1.2540078e-05 2.6852777e-05 3.6861336e-22)
(1.3280842e-05 2.6640521e-05 7.0433069e-23)
(1.4009968e-05 2.6395173e-05 8.504385e-22)
(1.4726344e-05 2.6117254e-05 1.4508973e-21)
(1.5428978e-05 2.5807418e-05 5.8303867e-22)
(1.6116807e-05 2.5466617e-05 6.1532911e-22)
(1.6788761e-05 2.5095433e-05 5.2144784e-22)
(1.7443853e-05 2.4694881e-05 1.1321067e-21)
(1.8081361e-05 2.4265647e-05 1.3965109e-21)
(1.8700341e-05 2.3808595e-05 -3.6692715e-23)
(1.9299942e-05 2.3324711e-05 -5.1515578e-22)
(-4.0960624e-07 -5.4688937e-06 4.793604e-21)
(-9.1295518e-07 -5.4466181e-06 2.450055e-21)
(-1.4951908e-06 -5.3721731e-06 3.2759725e-21)
(-2.0583339e-06 -5.2561299e-06 1.0160805e-20)
(-2.6292941e-06 -5.0964686e-06 2.7112039e-21)
(-3.1908496e-06 -4.8946073e-06 1.1626716e-21)
(-3.742406e-06 -4.6515246e-06 -8.5742124e-22)
(-4.2818646e-06 -4.3681062e-06 1.228333e-20)
(-4.8079291e-06 -4.04516e-06 -3.4215076e-21)
(-5.3186509e-06 -3.6844054e-06 -2.1200577e-21)
(-5.8118988e-06 -3.2867312e-06 4.9428005e-21)
(-6.2854309e-06 -2.8532038e-06 4.3281385e-21)
(-6.7379761e-06 -2.3851654e-06 6.762155e-21)
(-7.1684303e-06 -1.8839122e-06 5.909686e-21)
(-7.5751203e-06 -1.351158e-06 9.7600309e-21)
(-7.9562704e-06 -7.8741322e-07 1.4448542e-21)
(-8.3114368e-06 -1.9553828e-07 1.69294e-21)
(-8.6392435e-06 4.230016e-07 3.0581383e-21)
(-8.9375734e-06 1.0670588e-06 5.3358844e-21)
(-9.2059731e-06 1.7347808e-06 1.0815349e-20)
(-9.4438128e-06 2.4241514e-06 4.3888625e-21)
(-9.6499832e-06 3.1332753e-06 6.847404e-22)
(-9.8234531e-06 3.8603023e-06 1.1283306e-21)
(-9.9637441e-06 4.6031808e-06 -9.8701576e-22)
(-1.0070478e-05 5.359873e-06 -4.6995891e-23)
(-1.0143203e-05 6.1284311e-06 7.5646331e-22)
(-1.0181542e-05 6.9067432e-06 -2.1116992e-21)
(-1.0185189e-05 7.69273e-06 -1.0711198e-21)
(-1.0154024e-05 8.4843573e-06 -8.8352309e-22)
(-1.0088129e-05 9.2795923e-06 3.5793316e-22)
(-9.9874647e-06 1.0076497e-05 1.0339474e-21)
(-9.8521803e-06 1.0872912e-05 -1.2168374e-21)
(-9.6825962e-06 1.1666972e-05 -1.1695995e-21)
(-9.4789932e-06 1.2456592e-05 -3.3647934e-22)
(-9.2418826e-06 1.3239787e-05 1.5045468e-21)
(-8.9716859e-06 1.4014754e-05 1.2450809e-21)
(-8.6689489e-06 1.4779471e-05 -2.9389703e-22)
(-8.3344411e-06 1.553241e-05 -4.4306775e-22)
(-7.9689134e-06 1.6271593e-05 6.4625323e-22)
(-7.5732067e-06 1.6995335e-05 1.5103982e-22)
(-7.1481654e-06 1.7701952e-05 1.2069453e-22)
(-6.6948332e-06 1.8389947e-05 3.7879816e-22)
(-6.2142371e-06 1.9057768e-05 -3.3524029e-21)
(-5.7074498e-06 1.9703865e-05 -1.9163053e-21)
(-5.1755432e-06 2.0326981e-05 1.7302882e-21)
(-4.6196909e-06 2.0925607e-05 1.2114591e-21)
(-4.0412756e-06 2.1498674e-05 1.451182e-21)
(-3.4415276e-06 2.2044996e-05 -2.3963389e-21)
(-2.8217294e-06 2.2563524e-05 -1.3663672e-21)
(-2.1834594e-06 2.3053001e-05 1.0781177e-21)
(-1.5276557e-06 2.3512768e-05 5.8734833e-22)
(-8.5616133e-07 2.3941911e-05 1.3797253e-21)
(-1.6952435e-07 2.433975e-05 1.1829551e-21)
(5.3057747e-07 2.4705917e-05 3.8829448e-22)
(1.2418806e-06 2.5038952e-05 -2.0543829e-21)
(1.9635925e-06 2.5339005e-05 -7.6473146e-22)
(2.69386e-06 2.5605309e-05 2.0443626e-21)
(3.4314665e-06 2.5837644e-05 9.0423719e-22)
(4.1750204e-06 2.6035732e-05 3.3704018e-22)
(4.9229835e-06 2.6199272e-05 -9.2173333e-22)
(5.6739361e-06 2.6328228e-05 -5.4508051e-22)
(6.426593e-06 2.6422416e-05 7.3339901e-22)
(7.1794935e-06 2.6482083e-05 -3.1569449e-22)
(7.9312785e-06 2.6507126e-05 3.5459445e-22)
(8.6806581e-06 2.6497762e-05 -6.8795636e-22)
(9.4262658e-06 2.6454213e-05 -4.2195624e-22)
(1.0166799e-05 2.6376771e-05 5.0032245e-22)
(1.0900996e-05 2.6265681e-05 6.2793333e-22)
(1.1627649e-05 2.6121367e-05 4.7287124e-22)
(1.234558e-05 2.5944377e-05 2.662238e-22)
(1.3053624e-05 2.5735082e-05 6.3497472e-22)
(1.3750664e-05 2.5494258e-05 1.7594771e-22)
(1.4435667e-05 2.5222308e-05 -1.0027658e-21)
(1.510755e-05 2.4919807e-05 1.0108352e-22)
(1.5765319e-05 2.4587711e-05 6.5169113e-22)
(1.6408035e-05 2.4226636e-05 7.586272e-22)
(1.7034729e-05 2.3837391e-05 -4.5781284e-22)
(1.7644639e-05 2.3420573e-05 -9.6905607e-22)
(1.8236881e-05 2.2977242e-05 -3.0011885e-22)
(1.8810704e-05 2.2508109e-05 8.9495519e-22)
(-3.8164235e-07 -4.3374203e-06 -3.7830605e-21)
(-8.4986792e-07 -4.3157264e-06 -1.8934764e-20)
(-1.3911593e-06 -4.245383e-06 -1.7889853e-21)
(-1.9147084e-06 -4.1364929e-06 1.0665823e-21)
(-2.4460849e-06 -3.9866746e-06 2.0425924e-21)
(-2.9690647e-06 -3.7971362e-06 3.2705986e-22)
(-3.4824573e-06 -3.5689027e-06 3.7698259e-21)
(-3.9844152e-06 -3.3032396e-06 9.6729585e-22)
(-4.4733293e-06 -3.000454e-06 -1.398888e-21)
(-4.9476015e-06 -2.6617062e-06 3.9793901e-21)
(-5.405298e-06 -2.2878354e-06 2.4082968e-21)
(-5.845398e-06 -1.8799749e-06 4.3330271e-21)
(-6.2658425e-06 -1.439845e-06 6.0146101e-22)
(-6.6651259e-06 -9.6858538e-07 3.1099269e-21)
(-7.0415491e-06 -4.6789917e-07 -1.4762554e-21)
(-7.3946136e-06 6.1010868e-08 -3.6497041e-21)
(-7.7232217e-06 6.1682873e-07 2.4645489e-21)
(-8.025154e-06 1.1987126e-06 1.2477646e-22)
(-8.2999951e-06 1.8042366e-06 1.6925457e-21)
(-8.5467856e-06 2.4317966e-06 -1.8304911e-21)
(-8.7645705e-06 3.0796827e-06 -7.8230636e-21)
(-8.9524187e-06 3.7463554e-06 -5.0165138e-21)
(-9.1095912e-06 4.4297158e-06 -2.4452128e-21)
(-9.2355993e-06 5.1279971e-06 -8.4683695e-22)
(-9.3300381e-06 5.8393707e-06 8.1354934e-22)
(-9.392377e-06 6.561855e-06 -1.8036259e-21)
(-9.4222268e-06 7.29344e-06 -4.0420749e-21)
(-9.4194368e-06 8.0323287e-06 -1.723522e-21)
(-9.383873e-06 8.7764794e-06 7.7631902e-22)
(-9.3154976e-06 9.5241237e-06 1.9981203e-21)
(-9.2143599e-06 1.0273201e-05 -6.0767537e-22)
(-9.0805812e-06 1.1021914e-05 -2.7169019e-21)
(-8.9143784e-06 1.1768352e-05 -1.5723344e-21)
(-8.71606e-06 1.2510635e-05 1.528737e-21)
(-8.4860574e-06 1.3246808e-05 2.9399159e-21)
(-8.22477e-06 1.3975202e-05 9.2719274e-22)
(-7.9328376e-06 1.4693913e-05 -9.2598288e-22)
(-7.610917e-06 1.5401469e-05 -9.2386027e-22)
(-7.2596417e-06 1.6096075e-05 1.2444698e-21)
(-6.8797286e-06 1.6776063e-05 6.0503118e-22)
(-6.472052e-06 1.7439933e-05 8.0807606e-22)
(-6.037723e-06 1.8086107e-05 9.751345e-22)
(-5.5775381e-06 1.8713193e-05 8.9919497e-22)
(-5.0924626e-06 1.9319752e-05 1.1967161e-23)
(-4.5836464e-06 1.9904535e-05 -3.0594653e-21)
(-4.0521705e-06 2.0466136e-05 -1.2832127e-21)
(-3.4992596e-06 2.1003606e-05 9.928577e-22)
(-2.9261266e-06 2.1515719e-05 5.3547142e-22)
(-2.3341265e-06 2.200137e-05 -2.3095134e-22)
(-1.724327e-06 2.2459589e-05 -2.5519947e-21)
(-1.0978711e-06 2.2889779e-05 -5.9039507e-22)
(-4.5645785e-07 2.3290594e-05 1.7876642e-21)
(1.9936272e-07 2.3662394e-05 1.6602395e-21)
(8.6770457e-07 2.4003359e-05 1.518664e-21)
(1.5469525e-06 2.4313401e-05 2.5137352e-21)
(2.236118e-06 2.4591849e-05 2.1411709e-21)
(2.9334057e-06 2.4838242e-05 1.5174036e-21)
(3.6377384e-06 2.5052419e-05 7.5650571e-22)
(4.3476778e-06 2.5234089e-05 1.4426662e-21)
(5.0619394e-06 2.5382854e-05 1.8963951e-21)
(5.7791524e-06 2.5498778e-05 1.1592382e-21)
(6.4979548e-06 2.5581536e-05 1.0741005e-21)
(7.217097e-06 2.5631518e-05 7.7934158e-22)
(7.9352408e-06 2.5648514e-05 1.0415645e-21)
(8.6510934e-06 2.5632738e-05 1.6118078e-21)
(9.3634277e-06 2.5584369e-05 1.1134107e-21)
(1.0070988e-05 2.550374e-05 2.0668454e-21)
(1.0772595e-05 2.5391016e-05 1.2946678e-21)
(1.1467081e-05 2.5246603e-05 1.1763806e-21)
(1.2153314e-05 2.5070937e-05 1.8080155e-21)
(1.2830148e-05 2.4864593e-05 9.6745032e-22)
(1.3496529e-05 2.4628e-05 1.9178852e-21)
(1.415149e-05 2.4361679e-05 7.853337e-22)
(1.4793944e-05 2.406627e-05 1.0065911e-21)
(1.5422979e-05 2.374244e-05 1.1868585e-21)
(1.6037693e-05 2.339097e-05 4.948918e-23)
(1.663723e-05 2.301253e-05 1.6296817e-21)
(1.7220755e-05 2.2607707e-05 9.6539968e-22)
(1.7787441e-05 2.2177482e-05 6.3169818e-22)
(1.8336403e-05 2.1722598e-05 5.6293203e-23)
(-3.5507101e-07 -3.2847304e-06 -6.1884996e-21)
(-7.908233e-07 -3.2643668e-06 -1.8645812e-20)
(-1.2942305e-06 -3.1981395e-06 -2.5180467e-21)
(-1.7812715e-06 -3.0960465e-06 -5.7050312e-22)
(-2.2751218e-06 -2.9557184e-06 8.9509371e-21)
(-2.7610727e-06 -2.7777993e-06 -1.6082207e-22)