/*--------------------------------*- C++ -*----------------------------------*\
| =========                 |                                                 |
| \\      /  F ield         | OpenFOAM: The Open Source CFD Toolbox           |
|  \\    /   O peration     | Version:  2306                                  |
|   \\  /    A nd           | Website:  www.openfoam.com                      |
|    \\/     M anipulation  |                                                 |
\*---------------------------------------------------------------------------*/
FoamFile
{
    version     2.0;
    format      ascii;
    arch        "LSB;label=32;scalar=64";
    class       surfaceScalarField;
    location    "0.55";
    object      phi;
}
// * * * * * * * * * * * * * * * * * * * * * * * * * * * * * * * * * * * * * //

dimensions      [0 3 -1 0 0 0 0];

oriented        oriented;

internalField   nonuniform List<scalar> 
12640
(
-1.4599006e-07
-1.6755637e-06
-5.8102975e-07
-5.0126549e-06
-1.2912959e-06
-8.2758385e-06
-2.255497e-06
-1.1419747e-05
-3.4461619e-06
-1.4401456e-05
-4.8319944e-06
-1.7188911e-05
-6.3796635e-06
-1.9758364e-05
-8.0551743e-06
-2.2092249e-05
-9.8252493e-06
-2.4179274e-05
-1.1658517e-05
-2.601416e-05
-1.3526407e-05
-2.7597e-05
-1.5403706e-05
-2.8932369e-05
-1.7268788e-05
-3.0028336e-05
-1.9103585e-05
-3.0895498e-05
-2.0893361e-05
-3.1546104e-05
-2.2626367e-05
-3.1993321e-05
-2.429343e-05
-3.2250653e-05
-2.5887526e-05
-3.2331503e-05
-2.7403374e-05
-3.2248872e-05
-2.8837065e-05
-3.2015174e-05
-3.0185747e-05
-3.1642139e-05
-3.1447365e-05
-3.1140781e-05
-3.2620449e-05
-3.0521426e-05
-3.3703956e-05
-2.9793755e-05
-3.4697151e-05
-2.8966872e-05
-3.5599536e-05
-2.8049387e-05
-3.641079e-05
-2.7049485e-05
-3.7130753e-05
-2.5975001e-05
-3.7759416e-05
-2.4833493e-05
-3.8296925e-05
-2.3632291e-05
-3.8743601e-05
-2.2378538e-05
-3.9099951e-05
-2.1079227e-05
-3.9366696e-05
-1.9741215e-05
-3.9544786e-05
-1.8371242e-05
-3.9635424e-05
-1.697593e-05
-3.9640083e-05
-1.5561781e-05
-3.9560512e-05
-1.4135166e-05
-3.9398752e-05
-1.2702308e-05
-3.9157133e-05
-1.1269265e-05
-3.8838276e-05
-9.8419038e-06
-3.8445087e-05
-8.4258825e-06
-3.7980747e-05
-7.0266239e-06
-3.7448698e-05
-5.6492943e-06
-3.6852613e-05
-4.2987684e-06
-3.6196401e-05
-2.9796087e-06
-3.548415e-05
-1.6960587e-06
-3.4720151e-05
-4.5200666e-07
-3.390877e-05
7.4890746e-07
-3.3054544e-05
1.9036153e-06
-3.2162073e-05
3.0092913e-06
-3.1236005e-05
4.0635314e-06
-3.0281005e-05
5.0643238e-06
-2.9301721e-05
6.0100439e-06
-2.8302756e-05
6.8994546e-06
-2.7288635e-05
7.7316991e-06
-2.6263779e-05
8.5062913e-06
-2.5232474e-05
9.2231039e-06
-2.4198849e-05
9.8823526e-06
-2.3166853e-05
1.048458e-05
-2.2140228e-05
1.1030633e-05
-2.1122498e-05
1.1521645e-05
-2.0116949e-05
1.195901e-05
-1.9126615e-05
1.2344358e-05
-1.8154271e-05
1.267953e-05
-1.7202423e-05
1.296655e-05
-1.6273302e-05
1.3207602e-05
-1.5368868e-05
1.3404997e-05
-1.4490805e-05
1.3561148e-05
-1.3640524e-05
1.3678548e-05
-1.2819177e-05
1.3759739e-05
-1.2027654e-05
1.3807288e-05
-1.1266604e-05
1.3823766e-05
-1.0536439e-05
1.3811723e-05
-9.8373544e-06
1.3773672e-05
-9.1693393e-06
1.3712065e-05
-8.5321966e-06
1.3629279e-05
-7.9255579e-06
1.3527604e-05
-7.348903e-06
1.3409225e-05
-6.8015775e-06
1.3276217e-05
1.3130536e-05
-1.3014919e-07
-1.5454145e-06
-5.1826454e-07
-4.6245396e-06
-1.153042e-06
-7.6410611e-06
-2.016937e-06
-1.0555852e-05
-3.0871394e-06
-1.3331254e-05
-4.3375005e-06
-1.593855e-05
-5.7399697e-06
-1.8355895e-05
-7.2656778e-06
-2.0566541e-05
-8.8860162e-06
-2.2558936e-05
-1.0573598e-05
-2.4326579e-05
-1.2303019e-05
-2.5867578e-05
-1.4051379e-05
-2.7184009e-05
-1.5798558e-05
-2.8281158e-05
-1.7527286e-05
-2.916677e-05
-1.9223051e-05
-2.9850338e-05
-2.0873891e-05
-3.0342482e-05
-2.2470108e-05
-3.0654436e-05
-2.4003964e-05
-3.0797647e-05
-2.5469364e-05
-3.0783472e-05
-2.6861563e-05
-3.0622976e-05
-2.8176896e-05
-3.0326806e-05
-2.9412556e-05
-2.9905121e-05
-3.0566407e-05
-2.9367576e-05
-3.1636828e-05
-2.8723333e-05
-3.2622604e-05
-2.7981096e-05
-3.3522841e-05
-2.7149151e-05
-3.4336903e-05
-2.6235422e-05
-3.5064384e-05
-2.5247521e-05
-3.5705081e-05
-2.4192796e-05
-3.6258995e-05
-2.3078377e-05
-3.6726326e-05
-2.1911206e-05
-3.7107488e-05
-2.0698065e-05
-3.7403111e-05
-1.9445591e-05
-3.7614064e-05
-1.8160288e-05
-3.774146e-05
-1.6848534e-05
-3.7786668e-05
-1.5516573e-05
-3.7751324e-05
-1.417051e-05
-3.7637332e-05
-1.28163e-05
-3.7446868e-05
-1.1459729e-05
-3.7182375e-05
-1.0106397e-05
-3.6846559e-05
-8.7616981e-06
-3.6442381e-05
-7.430802e-06
-3.5973042e-05
-6.1186337e-06
-3.5441959e-05
-4.8298514e-06
-3.4852755e-05
-3.5688123e-06
-3.4209235e-05
-2.3395793e-06
-3.3515365e-05
-1.1458763e-06
-3.2775293e-05
8.835581e-09
-3.199313e-05
1.1214519e-06
-3.1173186e-05
2.189347e-06
-3.0319791e-05
3.2101372e-06
-2.9437294e-05
4.181826e-06
-2.8530028e-05
5.1027781e-06
-2.7602292e-05
5.971719e-06
-2.6658319e-05
6.7877256e-06
-2.5702248e-05
7.5502202e-06
-2.4738102e-05
8.2589584e-06
-2.3769765e-05
8.9140155e-06
-2.2800957e-05
9.515772e-06
-2.1835218e-05
1.0064894e-05
-2.0875889e-05
1.0562316e-05
-1.9926096e-05
1.1009217e-05
-1.8988741e-05
1.1407002e-05
-1.8066488e-05
1.1757277e-05
-1.7161759e-05
1.2061822e-05
-1.6276728e-05
1.232257e-05
-1.5413316e-05
1.2541585e-05
-1.4573196e-05
1.2721029e-05
-1.3757795e-05
1.2863147e-05
-1.2968293e-05
1.2970237e-05
-1.2205638e-05
1.3044632e-05
-1.1470547e-05
1.3088675e-05
-1.0763524e-05
1.31047e-05
-1.0084867e-05
1.3095015e-05
-9.4346834e-06
1.3061881e-05
-8.8129044e-06
1.30075e-05
-8.2192988e-06
1.2933998e-05
-7.6534921e-06
1.2843419e-05
-7.1149797e-06
1.2737705e-05
1.26187e-05
-1.1649896e-07
-1.4289156e-06
-4.6412332e-07
-4.2769152e-06
-1.033601e-06
-7.0715834e-06
-1.8104302e-06
-9.7790224e-06
-2.7755987e-06
-1.2366085e-05
-3.9071523e-06
-1.4806996e-05
-5.1813566e-06
-1.7081691e-05
-6.5735667e-06
-1.9174331e-05
-8.0590885e-06
-2.1073414e-05
-9.6139633e-06
-2.2771704e-05
-1.1215616e-05
-2.4265926e-05
-1.2843325e-05
-2.5556299e-05
-1.4478517e-05
-2.6645966e-05
-1.6104891e-05
-2.7540396e-05
-1.7708413e-05
-2.8246817e-05
-1.92772e-05
-2.8773695e-05
-2.0801344e-05
-2.9130292e-05
-2.2272689e-05
-2.9326302e-05
-2.3684595e-05
-2.9371565e-05
-2.5031711e-05
-2.927586e-05
-2.6309753e-05
-2.9048764e-05
-2.7515315e-05
-2.8699559e-05
-2.8645705e-05
-2.8237186e-05
-2.9698808e-05
-2.767023e-05
-3.0672978e-05
-2.7006926e-05
-3.1566953e-05
-2.6255176e-05
-3.2379794e-05
-2.5422581e-05
-3.3110841e-05
-2.4516473e-05
-3.3759688e-05
-2.3543948e-05
-3.4326167e-05
-2.2511899e-05
-3.4810336e-05
-2.1427037e-05
-3.5212488e-05
-2.0295914e-05
-3.5533143e-05
-1.9124936e-05
-3.5773061e-05
-1.792037e-05
-3.5933249e-05
-1.6688347e-05
-3.6014958e-05
-1.5434864e-05
-3.6019696e-05
-1.4165772e-05
-3.5949227e-05
-1.288677e-05
-3.5805567e-05
-1.1603389e-05
-3.5590985e-05
-1.0320979e-05
-3.5307993e-05
-9.0446903e-06
-3.4959338e-05
-7.7794569e-06
-3.4547991e-05
-6.5299804e-06
-3.407713e-05
-5.3007125e-06
-3.3550113e-05
-4.0958289e-06
-3.2970476e-05
-2.9192165e-06
-3.2341884e-05
-1.7744681e-06
-3.1668233e-05
-6.6481595e-07
-3.0953351e-05
4.0657051e-07
-3.0201188e-05
1.4371841e-06
-2.9415807e-05
2.4247555e-06
-2.8601258e-05
3.3672779e-06
-2.7761589e-05
4.2631084e-06
-2.6900811e-05
5.1109416e-06
-2.6022885e-05
5.9097996e-06
-2.513169e-05
6.6590244e-06
-2.4231001e-05
7.3582695e-06
-2.3324471e-05
8.0074856e-06
-2.2415608e-05
8.606909e-06
-2.1507758e-05
9.1570439e-06
-2.0604088e-05
9.6586458e-06
-1.9707573e-05
1.0112703e-05
-1.8820986e-05
1.0520415e-05
-1.7946882e-05
1.0883174e-05
-1.70876e-05
1.1202539e-05
-1.624525e-05
1.1480221e-05
-1.5421716e-05
1.1718051e-05
-1.4618653e-05
1.1917965e-05
-1.3837487e-05
1.2081981e-05
-1.3079424e-05
1.2212174e-05
-1.2345452e-05
1.231066e-05
-1.1636347e-05
1.237957e-05
-1.0952688e-05
1.2421041e-05
-1.0294861e-05
1.2437188e-05
-9.6630733e-06
1.2430093e-05
-9.0573686e-06
1.2401795e-05
-8.4776369e-06
1.2354266e-05
-7.9236298e-06
1.2289411e-05
-7.3949758e-06
1.2209051e-05
1.2114919e-05
-1.0468688e-07
-1.3242287e-06
-4.1723032e-07
-3.9643718e-06
-9.2998935e-07
-6.5588244e-06
-1.6309248e-06
-9.078087e-06
-2.5041222e-06
-1.1492888e-05
-3.5310623e-06
-1.3780056e-05
-4.6915662e-06
-1.5921187e-05
-5.9644993e-06
-1.7901398e-05
-7.3284691e-06
-1.9709444e-05
-8.7624727e-06
-2.13377e-05
-1.0246446e-05
-2.2781952e-05
-1.1761688e-05
-2.4041057e-05
-1.3291144e-05
-2.511651e-05
-1.4819565e-05
-2.6011975e-05
-1.6333552e-05
-2.673283e-05
-1.7821513e-05
-2.7285733e-05
-1.9273557e-05
-2.7678249e-05
-2.068134e-05
-2.7918519e-05
-2.2037898e-05
-2.8015007e-05
-2.3337468e-05
-2.797629e-05
-2.4575313e-05
-2.7810918e-05
-2.5747568e-05
-2.7527304e-05
-2.6851096e-05
-2.7133659e-05
-2.7883367e-05
-2.6637959e-05
-2.8842362e-05
-2.6047931e-05
-2.9726492e-05
-2.5371046e-05
-3.0534532e-05
-2.4614541e-05
-3.126558e-05
-2.3785425e-05
-3.1919024e-05
-2.2890505e-05
-3.2494515e-05
-2.1936408e-05
-3.299196e-05
-2.0929591e-05
-3.3411513e-05
-1.9876361e-05
-3.375357e-05
-1.8782879e-05
-3.4018769e-05
-1.7655171e-05
-3.4207991e-05
-1.6499125e-05
-3.4322364e-05
-1.5320491e-05
-3.4363259e-05
-1.4124877e-05
-3.4332292e-05
-1.2917736e-05
-3.4231323e-05
-1.1704358e-05
-3.4062444e-05
-1.0489858e-05
-3.382798e-05
-9.2791545e-06
-3.3530474e-05
-8.0769634e-06
-3.3172677e-05
-6.8877772e-06
-3.2757537e-05
-5.7158531e-06
-3.228817e-05
-4.5651952e-06
-3.1767856e-05
-3.4395312e-06
-3.1200007e-05
-2.3423167e-06
-3.058811e-05
-1.2767125e-06
-2.993608e-05
-2.4545967e-07
-2.9247209e-05
7.4831269e-07
-2.8525451e-05
1.702998e-06
-2.7774564e-05
2.6163905e-06
-2.6998318e-05
3.4868625e-06
-2.6200464e-05
4.3130873e-06
-2.5384705e-05
5.0940409e-06
-2.4554677e-05
5.8289966e-06
-2.3713926e-05
6.5175178e-06
-2.2865886e-05
7.1594461e-06
-2.2013866e-05
7.7548888e-06
-2.1161028e-05
8.3042058e-06
-2.0310375e-05
8.8079925e-06
-1.9464736e-05
9.2670641e-06
-1.8626758e-05
9.6824367e-06
-1.7798893e-05
1.0055308e-05
-1.6983394e-05
1.038704e-05
-1.6182307e-05
1.0679134e-05
-1.5397474e-05
1.0933217e-05
-1.4630524e-05
1.1151015e-05
-1.388288e-05
1.1334337e-05
-1.3155761e-05
1.1485055e-05
-1.2450185e-05
1.1605084e-05
-1.1766977e-05
1.1696362e-05
-1.1106775e-05
1.1760839e-05
-1.047004e-05
1.1800453e-05
-9.8570668e-06
1.1817121e-05
-9.267995e-06
1.1812723e-05
-8.7028194e-06
1.1789091e-05
-8.1614036e-06
1.1747996e-05
-7.6434937e-06
1.1691141e-05
1.1620153e-05
-9.441815e-08
-1.2298105e-06
-3.7643287e-07
-3.682357e-06
-8.397131e-07
-6.0955442e-06
-1.4742143e-06
-8.4435858e-06
-2.2665529e-06
-1.0700549e-05
-3.2010354e-06
-1.2845574e-05
-4.2604286e-06
-1.4861794e-05
-5.4265337e-06
-1.6735292e-05
-6.6807572e-06
-1.8455221e-05
-8.0046483e-06
-2.0013809e-05
-9.3803669e-06
-2.1406234e-05
-1.0791058e-05
-2.2630366e-05
-1.2221125e-05
-2.3686444e-05
-1.3656392e-05
-2.4576708e-05
-1.508419e-05
-2.5305031e-05
-1.6493357e-05
-2.5876566e-05
-1.7874184e-05
-2.6297422e-05
-1.9218317e-05
-2.6574386e-05
-2.051864e-05
-2.6714684e-05
-2.1769138e-05
-2.6725792e-05
-2.2964768e-05
-2.6615289e-05
-2.4101325e-05
-2.6390747e-05
-2.5175327e-05
-2.6059657e-05
-2.6183912e-05
-2.5629374e-05
-2.7124748e-05
-2.5107095e-05
-2.7995958e-05
-2.4499836e-05
-2.8796064e-05
-2.3814435e-05
-2.9523937e-05
-2.3057552e-05
-3.0178762e-05
-2.223568e-05
-3.0760016e-05
-2.1355154e-05
-3.1267447e-05
-2.042216e-05
-3.1701064e-05
-1.9442744e-05
-3.2061127e-05
-1.8422816e-05
-3.2348144e-05
-1.7368155e-05
-3.2562865e-05
-1.6284404e-05
-3.2706283e-05
-1.5177073e-05
-3.2779631e-05
-1.4051529e-05
-3.2784375e-05
-1.2912992e-05
-3.2722215e-05
-1.1766519e-05
-3.2595072e-05
-1.0617e-05
-3.2405089e-05
-9.4691383e-06
-3.215461e-05
-8.3274415e-06
-3.1846181e-05
-7.1962065e-06
-3.1482527e-05
-6.0795073e-06
-3.106654e-05
-4.9811822e-06
-3.0601256e-05
-3.904815e-06
-3.0089849e-05
-2.8537242e-06
-2.9535595e-05
-1.8309659e-06
-2.8941844e-05
-8.392111e-07
-2.8312184e-05
1.1865258e-07
-2.7649941e-05
1.0407554e-06
-2.6958674e-05
1.9251236e-06
-2.6241915e-05
2.7701032e-06
-2.550317e-05
3.5743424e-06
-2.4745905e-05
4.3367766e-06
-2.3973529e-05
5.0566206e-06
-2.318937e-05
5.7333589e-06
-2.2396661e-05
6.3667361e-06
-2.1598518e-05
6.9567465e-06
-2.0797932e-05
7.50362e-06
-1.999775e-05
8.0078098e-06
-1.920066e-05
8.4699748e-06
-1.8409189e-05
8.8909657e-06
-1.7625686e-05
9.2718054e-06
-1.685232e-05
9.6136739e-06
-1.6091073e-05
9.9178874e-06
-1.5343739e-05
1.0185882e-05
-1.4611918e-05
1.0419194e-05
-1.3897024e-05
1.0619443e-05
-1.320028e-05
1.0788311e-05
-1.2522726e-05
1.092753e-05
-1.1865223e-05
1.1038859e-05
-1.1228459e-05
1.1124075e-05
-1.0612958e-05
1.1184952e-05
-1.0019088e-05
1.1223251e-05
-9.4470711e-06
1.1240706e-05
-8.8969932e-06
1.1239013e-05
-8.3688166e-06
1.1219819e-05
-7.8623893e-06
1.1184714e-05
1.1135223e-05
-8.5449197e-08
-1.1443613e-06
-3.4077608e-07
-3.4270302e-06
-7.6070496e-07
-5.6756153e-06
-1.3368114e-06
-7.8674794e-06
-2.0577859e-06
-9.9795748e-06
-2.9102689e-06
-1.1993091e-05
-3.8794799e-06
-1.3892583e-05
-4.9496879e-06
-1.5665084e-05
-6.1046815e-06
-1.7300227e-05
-7.328218e-06
-1.8790273e-05
-8.6044221e-06
-2.013003e-05
-9.9181164e-06
-2.1316672e-05
-1.1255072e-05
-2.2349489e-05
-1.2602177e-05
-2.3229603e-05
-1.3947537e-05
-2.3959671e-05
-1.5280508e-05
-2.4543595e-05
-1.6591679e-05
-2.4986251e-05
-1.7872819e-05
-2.5293247e-05
-1.9116792e-05
-2.5470711e-05
-2.0317466e-05
-2.5525118e-05
-2.1469607e-05
-2.5463147e-05
-2.2568779e-05
-2.5291575e-05
-2.3611247e-05
-2.5017189e-05
-2.4593888e-05
-2.4646733e-05
-2.5514117e-05
-2.4186866e-05
-2.6369816e-05
-2.3644137e-05
-2.7159282e-05
-2.3024968e-05
-2.7881183e-05
-2.2335652e-05
-2.8534517e-05
-2.1582346e-05
-2.9118591e-05
-2.077108e-05
-2.9632997e-05
-1.9907754e-05
-3.0077598e-05
-1.8998143e-05
-3.0452515e-05
-1.8047899e-05
-3.075812e-05
-1.7062549e-05
-3.0995031e-05
-1.6047494e-05
-3.1164101e-05
-1.5008002e-05
-3.1266422e-05
-1.3949209e-05
-3.130331e-05
-1.2876103e-05
-3.1276307e-05
-1.1793522e-05
-3.1187169e-05
-1.0706138e-05
-3.1037858e-05
-9.6184498e-06
-3.0830532e-05
-8.5347671e-06
-3.0567537e-05
-7.4592019e-06
-3.0251389e-05
-6.3956552e-06
-2.9884763e-05
-5.3478074e-06
-2.9470474e-05
-4.3191039e-06
-2.9011459e-05
-3.3127401e-06
-2.851076e-05
-2.3316647e-06
-2.7971453e-05
-1.3785182e-06
-2.7396966e-05
-4.5583408e-07
-2.6790336e-05
4.3412541e-07
-2.6154871e-05
1.2896582e-06
-2.5493879e-05
2.1091114e-06
-2.4810638e-05
2.8911012e-06
-2.4108391e-05
3.6345295e-06
-2.3390331e-05
4.3385612e-06
-2.2659585e-05
5.0026125e-06
-2.1919193e-05
5.6263437e-06
-2.1172094e-05
6.2096479e-06
-2.0421114e-05
6.7526407e-06
-1.966895e-05
7.2556458e-06
-1.891816e-05
7.7191842e-06
-1.817115e-05
8.1439559e-06
-1.7430171e-05
8.5308268e-06
-1.6697309e-05
8.8808118e-06
-1.597448e-05
9.1950582e-06
-1.5263428e-05
9.4748297e-06
-1.4565721e-05
9.7214883e-06
-1.3882757e-05
9.9364786e-06
-1.3215757e-05
1.0121311e-05
-1.2565775e-05
1.0277548e-05
-1.1933699e-05
1.0406783e-05
-1.1320257e-05
1.0510633e-05
-1.0726025e-05
1.0590719e-05
-1.0151432e-05
1.0648658e-05
-9.5967708e-06
1.0686045e-05
-9.0622074e-06
1.0704449e-05
-8.5477886e-06
1.07054e-05
-8.0534536e-06
1.0690378e-05
1.0660813e-05
-7.7579564e-08
-1.0667818e-06
-3.0947208e-07
-3.1951377e-06
-6.9125611e-07
-5.2938312e-06
-1.2158283e-06
-7.3429072e-06
-1.8735853e-06
-9.3218177e-06
-2.6531033e-06
-1.1213573e-05
-3.5416527e-06
-1.3004033e-05
-4.525586e-06
-1.4681151e-05
-5.5907267e-06
-1.6235087e-05
-6.7227454e-06
-1.7658254e-05
-7.9075013e-06
-1.8945274e-05
-9.1313311e-06
-2.0092842e-05
-1.0381278e-05
-2.1099542e-05
-1.1645256e-05
-2.1965625e-05
-1.2912158e-05
-2.2692769e-05
-1.4171909e-05
-2.3283843e-05
-1.5415477e-05
-2.3742683e-05
-1.6634846e-05
-2.4073878e-05
-1.7822966e-05
-2.4282591e-05
-1.8973688e-05
-2.4374395e-05
-2.008169e-05
-2.4355146e-05
-2.1142392e-05
-2.4230873e-05
-2.2151885e-05
-2.4007696e-05
-2.3106854e-05
-2.3691764e-05
-2.4004515e-05
-2.3289205e-05
-2.4842555e-05
-2.2806097e-05
-2.5619082e-05
-2.2248441e-05
-2.6332582e-05
-2.1622152e-05
-2.6981886e-05
-2.0933042e-05
-2.7566142e-05
-2.0186824e-05
-2.8084793e-05
-1.9389103e-05
-2.8537558e-05
-1.8545377e-05
-2.8924423e-05
-1.7661035e-05
-2.9245623e-05
-1.6741349e-05
-2.9501641e-05
-1.5791475e-05
-2.9693195e-05
-1.4816448e-05
-2.9821232e-05
-1.3821171e-05
-2.9886923e-05
-1.2810412e-05
-2.9891654e-05
-1.1788792e-05
-2.9837016e-05
-1.0760776e-05
-2.9724801e-05
-9.7306644e-06
-2.9556988e-05
-8.7025804e-06
-2.9335731e-05
-7.6804589e-06
-2.906335e-05
-6.6680368e-06
-2.8742313e-05
-5.6688439e-06
-2.8375226e-05
-4.6861914e-06
-2.7964806e-05
-3.72316e-06
-2.7513878e-05
-2.7825924e-06
-2.702531e-05
-1.8670865e-06
-2.650213e-05
-9.7901393e-07
-2.5947534e-05
-1.204705e-07
-2.5364259e-05
7.063834e-07
-2.4755526e-05
1.5003781e-06
-2.4124381e-05
2.2599565e-06
-2.3473859e-05
2.9840073e-06
-2.2806953e-05
3.6716545e-06
-2.2126597e-05
4.3222567e-06
-2.1435652e-05
4.9353989e-06
-2.073689e-05
5.5108858e-06
-2.0032979e-05
6.0487302e-06
-1.9326476e-05
6.5491425e-06
-1.8619809e-05
7.0125171e-06
-1.7915274e-05
7.4394205e-06
-1.7215022e-05
7.8305755e-06
-1.6521059e-05
8.1868484e-06
-1.5835234e-05
8.5092326e-06
-1.5159238e-05
8.7988345e-06
-1.4494607e-05
9.0568575e-06
-1.3842715e-05
9.2845862e-06
-1.3204778e-05
9.4833738e-06
-1.2581854e-05
9.6546247e-06
-1.1974853e-05
9.7997816e-06
-1.1384533e-05
9.9203127e-06
-1.081151e-05
1.0017697e-05
-1.0256268e-05
1.0093415e-05
-9.7191582e-06
1.0148935e-05
-9.2004141e-06
1.0185705e-05
-8.7001569e-06
1.0205143e-05
-8.2184056e-06
1.0208627e-05
1.0197492e-05
-7.0644026e-08
-9.9613775e-07
-2.8187022e-07
-2.9839115e-06
-6.2995233e-07
-4.9457491e-06
-1.1088694e-06
-6.8639901e-06
-1.7104277e-06
-8.7202594e-06
-2.424815e-06
-1.0499186e-05
-3.2410243e-06
-1.2187824e-05
-4.1471742e-06
-1.3775001e-05
-5.1308312e-06
-1.525143e-05
-6.1793273e-06
-1.6609758e-05
-7.2800516e-06
-1.7844549e-05
-8.4207028e-06
-1.8952191e-05
-9.5894962e-06
-1.9930749e-05
-1.077532e-05
-2.0779801e-05
-1.1967845e-05
-2.1500244e-05
-1.315759e-05
-2.2094099e-05
-1.4335948e-05
-2.2564324e-05
-1.5495188e-05
-2.2914638e-05
-1.6628423e-05
-2.3149356e-05
-1.7729568e-05
-2.327325e-05
-1.8793289e-05
-2.3291424e-05
-1.9814941e-05
-2.3209221e-05
-2.0790508e-05
-2.3032129e-05
-2.1716543e-05
-2.2765729e-05
-2.2590115e-05
-2.2415634e-05
-2.3408755e-05
-2.1987456e-05
-2.4170417e-05
-2.148678e-05
-2.4873433e-05
-2.0919136e-05
-2.5516486e-05
-2.0289989e-05
-2.6098581e-05
-1.9604729e-05
-2.6619021e-05
-1.8868663e-05
-2.707739e-05
-1.8087008e-05
-2.7473542e-05
-1.7264884e-05
-2.780758e-05
-1.6407311e-05
-2.8079853e-05
-1.5519202e-05
-2.8290945e-05
-1.4605356e-05
-2.8441665e-05
-1.3670452e-05
-2.8533037e-05
-1.271904e-05
-2.8566297e-05
-1.1755531e-05
-2.854288e-05
-1.0784193e-05
-2.8464411e-05
-9.8091329e-06
-2.8332697e-05
-8.8342945e-06
-2.8149712e-05
-7.8634441e-06
-2.7917587e-05
-6.900162e-06
-2.7638597e-05
-5.9478336e-06
-2.7315147e-05
-5.0096412e-06
-2.6949753e-05
-4.0885537e-06
-2.654503e-05
-3.1873158e-06
-2.6103662e-05
-2.3084544e-06
-2.5628445e-05
-1.4542306e-06
-2.5122162e-05
-6.2675402e-07
-2.4587775e-05
1.7199667e-07
-2.4028004e-05
9.4060736e-07
-2.3445736e-05
1.6776882e-06
-2.2843821e-05
2.3820921e-06
-2.2225067e-05
3.0529002e-06
-2.1592229e-05
3.6894187e-06
-2.0947998e-05
4.2911678e-06
-2.0294986e-05
4.8578738e-06
-1.9635715e-05
5.389459e-06
-1.8972604e-05
5.8860316e-06
-1.8307961e-05
6.3478741e-06
-1.7643972e-05
6.7754316e-06
-1.6982695e-05
7.1692988e-06
-1.6326053e-05
7.5302067e-06
-1.567583e-05
7.8590096e-06
-1.5033666e-05
8.1566704e-06
-1.4401056e-05
8.4242474e-06
-1.377935e-05
8.6628801e-06
-1.3169751e-05
8.8737753e-06
-1.2573321e-05
9.0581943e-06
-1.1990978e-05
9.2174389e-06
-1.1423506e-05
9.3528402e-06
-1.0871554e-05
9.4657454e-06
-1.0335647e-05
9.5575083e-06
-9.8161888e-06
9.6294771e-06
-9.3134701e-06
9.6829867e-06
-8.8276764e-06
9.7193491e-06
-8.3588955e-06
9.7398463e-06
9.7457228e-06
-6.4506092e-08
-9.3163166e-07
-2.5743212e-07
-2.7909854e-06
-5.7562075e-07
-4.6275605e-06
-1.0139425e-06
-6.4256683e-06
-1.5653732e-06
-8.1688288e-06
-2.2214483e-06
-9.8431104e-06
-2.9726137e-06
-1.1436659e-05
-3.8084896e-06
-1.2939125e-05
-4.7181408e-06
-1.4341778e-05
-5.6903442e-06
-1.5637554e-05
-6.713838e-06
-1.6821056e-05
-7.7775433e-06
-1.7888485e-05
-8.8707486e-06
-1.8837543e-05
-9.9832562e-06
-1.9667294e-05
-1.110549e-05
-2.0378011e-05
-1.2228567e-05
-2.0971022e-05
-1.3344336e-05
-2.1448555e-05
-1.4445392e-05
-2.1813582e-05
-1.5525067e-05
-2.2069682e-05
-1.6577403e-05
-2.2220914e-05
-1.7597117e-05
-2.227171e-05
-1.857956e-05
-2.2226778e-05
-1.9520666e-05
-2.2091024e-05
-2.0416908e-05
-2.1869487e-05
-2.1265254e-05
-2.1567288e-05
-2.206312e-05
-2.118959e-05
-2.2808335e-05
-2.0741564e-05
-2.3499108e-05
-2.0228363e-05
-2.4133992e-05
-1.9655105e-05
-2.4711865e-05
-1.9026856e-05
-2.5231904e-05
-1.8348624e-05
-2.5693569e-05
-1.7625343e-05
-2.6096586e-05
-1.6861866e-05
-2.6440935e-05
-1.6062962e-05
-2.6726836e-05
-1.5233301e-05
-2.6954741e-05
-1.4377451e-05
-2.7125325e-05
-1.3499869e-05
-2.7239473e-05
-1.2604892e-05
-2.7298275e-05
-1.1696729e-05
-2.7303014e-05
-1.0779453e-05
-2.7255159e-05
-9.8569886e-06
-2.7156348e-05
-8.9331048e-06
-2.7008387e-05
-8.0114057e-06
-2.6813228e-05
-7.0953211e-06
-2.6572963e-05
-6.1880988e-06
-2.6289808e-05
-5.292796e-06
-2.5966089e-05
-4.4122724e-06
-2.5604224e-05
-3.5491804e-06
-2.5206717e-05
-2.7059621e-06
-2.4776104e-05
-1.8848432e-06
-2.4315019e-05
-1.0878397e-06
-2.3826263e-05
-3.1675895e-07
-2.331232e-05
4.2666442e-07
-2.2775875e-05
1.1412436e-06
-2.2219613e-05
1.8258297e-06
-2.1646164e-05
2.4794516e-06
-2.1058114e-05
3.1013688e-06
-2.0457993e-05
3.6910467e-06
-1.9848262e-05
4.2481428e-06
-1.9231303e-05
4.7724994e-06
-1.8609405e-05
5.2641343e-06
-1.7984761e-05
5.7232297e-06
-1.7359451e-05
6.1501217e-06
-1.6735441e-05
6.5452891e-06
-1.6114576e-05
6.9093411e-06
-1.5498572e-05
7.2430056e-06
-1.4889016e-05
7.5471148e-06
-1.4287364e-05
7.822595e-06
-1.3694936e-05
8.0704521e-06
-1.311292e-05
8.2917599e-06
-1.2542373e-05
8.4876469e-06
-1.1984219e-05
8.6592854e-06
-1.1439259e-05
8.8078796e-06
-1.0908167e-05
8.9346542e-06
-1.0391504e-05
9.0408449e-06
-9.8897151e-06
9.1276879e-06
-9.4031401e-06
9.1964117e-06
-8.9320198e-06
9.248229e-06
-8.4765022e-06
9.2843287e-06
9.3058702e-06
-5.9052573e-08
-8.7257908e-07
-2.3571071e-07
-2.6143273e-06
-5.2728525e-07
-4.335986e-06
-9.2938471e-07
-6.0235689e-06
-1.4359597e-06
-7.6622538e-06
-2.039678e-06
-9.2393922e-06
-2.7322149e-06
-1.0744122e-05
-3.5044729e-06
-1.2166868e-05
-4.3468077e-06
-1.3499444e-05
-5.2492547e-06
-1.4735107e-05
-6.2017432e-06
-1.5868567e-05
-7.1942885e-06
-1.689594e-05
-8.2171575e-06
-1.7814674e-05
-9.2610036e-06
-1.8623448e-05
-1.0316969e-05
-1.9322045e-05
-1.1376761e-05
-1.9911231e-05
-1.2432694e-05
-2.0392622e-05
-1.347772e-05
-2.0768557e-05
-1.4505425e-05
-2.1041976e-05
-1.5510024e-05
-2.1216314e-05
-1.6486337e-05
-2.1295397e-05
-1.7429756e-05
-2.1283359e-05
-1.8336216e-05
-2.1184564e-05
-1.9202154e-05
-2.1003549e-05
-2.0024475e-05
-2.0744967e-05
-2.0800518e-05
-2.0413548e-05
-2.1528018e-05
-2.0014064e-05
-2.2205082e-05
-1.9551298e-05
-2.2830159e-05
-1.9030028e-05
-2.3402017e-05
-1.8454999e-05
-2.3919719e-05
-1.7830922e-05
-2.4382613e-05
-1.7162449e-05
-2.4790307e-05
-1.6454172e-05
-2.5142664e-05
-1.5710605e-05
-2.5439783e-05
-1.4936182e-05
-2.5681992e-05
-1.4135243e-05
-2.5869834e-05
-1.3312026e-05
-2.6004062e-05
-1.2470663e-05
-2.6085628e-05
-1.1615164e-05
-2.6115668e-05
-1.0749413e-05
-2.60955e-05
-9.8771566e-06
-2.6026608e-05
-9.0019971e-06
-2.5910632e-05
-8.1273816e-06
-2.5749358e-05
-7.2565954e-06
-2.5544704e-05
-6.3927528e-06
-2.5298709e-05
-5.538791e-06
-2.5013518e-05
-4.697463e-06
-2.4691368e-05
-3.8713307e-06
-2.4334571e-05
-3.062759e-06
-2.3945504e-05
-2.2739102e-06
-2.3526597e-05
-1.5067467e-06
-2.3080296e-05
-7.6306008e-07
-2.2609337e-05
-4.429448e-08
-2.2115814e-05
6.477209e-07
-2.160241e-05
1.3124255e-06
-2.1071569e-05
1.9486103e-06
-2.0525714e-05
2.5555141e-06
-1.9967224e-05
3.1325564e-06
-1.9398417e-05
3.6793357e-06
-1.8821541e-05
4.1956242e-06
-1.8238766e-05
4.6813588e-06
-1.7652168e-05
5.1366321e-06
-1.706373e-05
5.5616834e-06
-1.6475327e-05
5.9568864e-06
-1.5888727e-05
6.3227404e-06
-1.5305579e-05
6.659858e-06
-1.4727418e-05
6.9689541e-06
-1.4155657e-05
7.2508335e-06
-1.3591585e-05
7.50638e-06
-1.303637e-05
7.7365457e-06
-1.2491061e-05
7.9423371e-06
-1.1956582e-05
8.1248069e-06
-1.1433745e-05
8.2850419e-06
-1.0923243e-05
8.4241529e-06
-1.0425664e-05
8.5432662e-06
-9.9414892e-06
8.6435126e-06
-9.4710989e-06
8.7260214e-06
-9.014781e-06
8.791911e-06
-8.5727352e-06
8.8422828e-06
8.878215e-06
-5.4189134e-08
-8.1838995e-07
-2.16333e-07
-2.4521834e-06
-4.8412981e-07
-4.0681891e-06
-8.5380203e-07
-5.6538967e-06
-1.3201169e-06
-7.1959389e-06
-1.8766972e-06
-8.6828119e-06
-2.5162631e-06
-1.0104556e-05
-3.2308153e-06
-1.1452315e-05
-4.0118252e-06
-1.2718434e-05
-4.8504266e-06
-1.3896506e-05
-5.7376e-06
-1.4981394e-05
-6.66434e-06
-1.59692e-05
-7.6218026e-06
-1.6857212e-05
-8.6014279e-06
-1.7643822e-05
-9.5950378e-06
-1.8328435e-05
-1.0594909e-05
-1.8911359e-05
-1.1593825e-05
-1.9393706e-05
-1.2585104e-05
-1.9777277e-05
-1.3562617e-05
-2.0064464e-05
-1.4520782e-05
-2.0258149e-05
-1.5454557e-05
-2.0361623e-05
-1.6359419e-05
-2.0378497e-05
-1.7231338e-05
-2.0312645e-05
-1.8066755e-05
-2.0168132e-05
-1.8862547e-05
-1.9949174e-05
-1.9616004e-05
-1.9660091e-05
-2.0324799e-05
-1.9305269e-05
-2.098696e-05
-1.8889137e-05
-2.1600851e-05
-1.8416137e-05
-2.2165147e-05
-1.7890703e-05
-2.2678815e-05
-1.7317253e-05
-2.3141101e-05
-1.6700164e-05
-2.3551507e-05
-1.6043765e-05
-2.3909787e-05
-1.5352326e-05
-2.4215925e-05
-1.4630043e-05
-2.4470133e-05
-1.3881035e-05
-2.4672832e-05
-1.3109327e-05
-2.4824649e-05
-1.2318847e-05
-2.49264e-05
-1.1513413e-05
-2.4979087e-05
-1.0696726e-05
-2.4983883e-05
-9.8723607e-06
-2.4942123e-05
-9.0437568e-06
-2.4855295e-05
-8.2142101e-06
-2.4725024e-05
-7.3868658e-06
-2.4553068e-05
-6.5647098e-06
-2.4341296e-05
-5.750563e-06
-2.4091684e-05
-4.9470749e-06
-2.3806297e-05
-4.1567175e-06
-2.3487277e-05
-3.3817786e-06
-2.3136826e-05
-2.6243614e-06
-2.27572e-05
-1.8863725e-06
-2.2350704e-05
-1.1695566e-06
-2.1919611e-05
-4.7538755e-07
-2.1466408e-05
1.9451828e-07
-2.099324e-05
8.3925719e-07
-2.0502452e-05
1.4578221e-06
-1.9996329e-05
2.0493917e-06
-1.947711e-05
2.6133369e-06
-1.8946978e-05
3.1492038e-06
-1.8408056e-05
3.6567021e-06
-1.7862394e-05
4.1356974e-06
-1.7311965e-05
4.5862027e-06
-1.6758651e-05
5.0083696e-06
-1.6204243e-05
5.4024784e-06
-1.5650432e-05
5.7689287e-06
-1.5098803e-05
6.1082293e-06
-1.4550836e-05
6.4209873e-06
-1.4007901e-05
6.7078978e-06
-1.3471253e-05
6.9697329e-06
-1.294204e-05
7.2073326e-06
-1.2421295e-05
7.4215916e-06
-1.190994e-05
7.6134524e-06
-1.1408792e-05
7.7838931e-06
-1.0918558e-05
7.9339195e-06
-1.0439847e-05
8.0645548e-06
-9.9731669e-06
8.1768327e-06
-9.5189339e-06
8.2717884e-06
-9.0774754e-06
8.3504524e-06
-8.6490356e-06
8.4138431e-06
8.4629612e-06
-4.9836763e-08
-7.6855319e-07
-1.9898629e-07
-2.3030339e-06
-4.4546907e-07
-3.8217064e-06
-7.86021e-07
-5.3133447e-06
-1.2160965e-06
-6.7658634e-06
-1.7301274e-06
-8.168781e-06
-2.3217251e-06
-9.5129579e-06
-2.9838343e-06
-1.0790206e-05
-3.7088929e-06
-1.1993375e-05
-4.4889953e-06
-1.3116403e-05
-5.316051e-06
-1.4154338e-05
-6.18193e-06
-1.5103321e-05
-7.0785942e-06
-1.5960548e-05
-7.9982081e-06
-1.6724208e-05
-8.9332302e-06
-1.7393413e-05
-9.8764839e-06
-1.7968106e-05
-1.082121e-05
-1.844898e-05
-1.1761102e-05
-1.8837385e-05
-1.2690326e-05
-1.913524e-05
-1.3603527e-05
-1.9344948e-05
-1.4495829e-05
-1.9469321e-05
-1.536282e-05
-1.9511505e-05
-1.6200543e-05
-1.9474922e-05
-1.7005469e-05
-1.9363206e-05
-1.7774479e-05
-1.9180165e-05
-1.850484e-05
-1.8929729e-05
-1.9194186e-05
-1.8615923e-05
-1.9840492e-05
-1.8242832e-05
-2.0442054e-05
-1.7814574e-05
-2.0997472e-05
-1.7335285e-05
-2.1505632e-05
-1.6809093e-05
-2.1965689e-05
-1.6240107e-05
-2.2377052e-05
-1.5632402e-05
-2.2739373e-05
-1.4990004e-05
-2.3052536e-05
-1.4316881e-05
-2.3316638e-05
-1.3616932e-05
-2.353199e-05
-1.2893975e-05
-2.3699096e-05
-1.2151741e-05
-2.3818649e-05
-1.1393859e-05
-2.3891521e-05
-1.0623854e-05
-2.3918748e-05
-9.8451329e-06
-2.3901528e-05
-9.0609776e-06
-2.38412e-05
-8.2745379e-06
-2.3739242e-05
-7.4888233e-06
-2.3597257e-05
-6.7066955e-06
-2.3416957e-05
-5.9308626e-06
-2.3200159e-05
-5.1638729e-06
-2.2948766e-05
-4.4081103e-06
-2.2664756e-05
-3.6657885e-06
-2.2350171e-05
-2.9389465e-06
-2.2007094e-05
-2.2294496e-06
-2.1637668e-05
-1.5389824e-06
-2.1243999e-05
-8.6905651e-07
-2.0828473e-05
-2.210078e-07
-2.0393011e-05
4.0379501e-07
-1.9939845e-05
1.0046566e-06
-1.9471115e-05
1.580661e-06
-1.898892e-05
2.1311427e-06
-1.8495319e-05
2.6556023e-06
-1.7992313e-05
3.1536957e-06
-1.7481841e-05
3.6252255e-06
-1.6965772e-05
4.0701337e-06
-1.6445896e-05
4.4884941e-06
-1.592392e-05
4.8805024e-06
-1.540146e-05
5.246469e-06
-1.488004e-05
5.5868085e-06
-1.4361083e-05
5.9020303e-06
-1.3845914e-05
6.1927292e-06
-1.3335757e-05
6.4595758e-06
-1.2831731e-05
6.7033069e-06
-1.2334855e-05
6.9247152e-06
-1.1846043e-05
7.1246412e-06
-1.1366113e-05
7.3039625e-06
-1.089578e-05
7.4635871e-06
-1.0435669e-05
7.6044437e-06
-9.9863108e-06
7.7274741e-06
-9.5481483e-06
7.833626e-06
-9.1215431e-06
7.9238471e-06
-8.706777e-06
7.9990771e-06
8.0602432e-06
-4.5928996e-08
-7.2262419e-07
-1.8340733e-07
-2.1655556e-06
-4.1072503e-07
-3.5943887e-06
-7.2504948e-07
-4.9990203e-06
-1.122416e-06
-6.3684969e-06
-1.5979446e-06
-7.6932525e-06
-2.1460101e-06
-8.9648924e-06
-2.7603708e-06
-1.0175846e-05
-3.4343044e-06
-1.1319441e-05
-4.1607472e-06
-1.2389961e-05
-4.9324299e-06
-1.3382655e-05
-5.7420058e-06
-1.4293745e-05
-6.5821655e-06
-1.5120388e-05
-7.4457382e-06
-1.5860636e-05
-8.3257756e-06
-1.6513375e-05
-9.2156193e-06
-1.7078262e-05
-1.0108954e-05
-1.7555646e-05
-1.0999843e-05
-1.7946495e-05
-1.1882757e-05
-1.8252326e-05
-1.2752581e-05
-1.8475124e-05
-1.3604624e-05
-1.8617278e-05
-1.443461e-05
-1.8681519e-05
-1.5238674e-05
-1.8670858e-05
-1.6013344e-05
-1.8588536e-05
-1.675553e-05
-1.8437979e-05
-1.7462502e-05
-1.8222757e-05
-1.8131875e-05
-1.794655e-05
-1.8761588e-05
-1.7613118e-05
-1.9349893e-05
-1.722627e-05
-1.9895328e-05
-1.678985e-05
-2.039671e-05
-1.630771e-05
-2.085312e-05
-1.5783698e-05
-2.1263882e-05
-1.5221639e-05
-2.1628561e-05