/*--------------------------------*- C++ -*----------------------------------*\
| =========                 |                                                 |
| \\      /  F ield         | OpenFOAM: The Open Source CFD Toolbox           |
|  \\    /   O peration     | Version:  2106                                  |
|   \\  /    A nd           | Website:  www.openfoam.com                      |
|    \\/     M anipulation  |                                                 |
\*---------------------------------------------------------------------------*/
FoamFile
{
    version     2.0;
    format      ascii;
    arch        "LSB;label=32;scalar=64";
    class       surfaceScalarField;
    location    "0.041";
    object      phi_0;
}
// * * * * * * * * * * * * * * * * * * * * * * * * * * * * * * * * * * * * * //

dimensions      [0 3 -1 0 0 0 0];

oriented        oriented;

internalField   nonuniform List<scalar> 
8064
(
2.2502924e-05
-2.2500107e-05
4.4789889e-05
-2.2286965e-05
6.6652514e-05
-2.1862625e-05
8.7883422e-05
-2.1230908e-05
0.00010828093
-2.0397508e-05
0.00012765089
-1.9369959e-05
0.00014580846
-1.8157574e-05
0.00016257985
-1.6771383e-05
0.00017780389
-1.5224048e-05
0.00019133366
-1.3529765e-05
0.00020303782
-1.1704159e-05
0.00021280197
-9.7641574e-06
0.00022052983
-7.7278526e-06
0.00022614418
-5.6143504e-06
0.00022958778
-3.4436056e-06
0.00023082403
-1.2362462e-06
0.00022983741
9.8661453e-07
0.00022663384
3.2035743e-06
0.00022124066
5.3931811e-06
0.00021370661
7.5340469e-06
0.00020410143
9.6051782e-06
0.0001925153
1.1586132e-05
0.00017905806
1.3457239e-05
0.00016385824
1.5199823e-05
0.00014706184
1.6796399e-05
0.00012883096
1.8230878e-05
0.00010934222
1.9488742e-05
8.8785007e-05
2.0557214e-05
6.7359601e-05
2.1425406e-05
4.5275155e-05
2.2084446e-05
2.2747567e-05
2.2527588e-05
-2.719724e-09
2.2750286e-05
-2.2752977e-05
2.2750257e-05
-4.5280478e-05
2.2527501e-05
-6.7364781e-05
2.2084304e-05
-8.8789991e-05
2.142521e-05
-0.00010934696
2.0556969e-05
-0.00012883541
1.948845e-05
-0.00014706595
1.8230543e-05
-0.00016386198
1.6796025e-05
-0.00017906139
1.5199414e-05
-0.00019251819
1.3456802e-05
-0.00020410386
1.1585669e-05
-0.00021370856
9.6046957e-06
-0.00022124211
7.5335488e-06
-0.00022663478
5.3926716e-06
-0.00022983784
3.2030574e-06
-0.00023082393
9.8609404e-07
-0.00022958716
-1.2367665e-06
-0.00022614304
-3.444122e-06
-0.00022052818
-5.6148593e-06
-0.00021279983
-7.7283501e-06
-0.00020303519
-9.7646394e-06
-0.00019133057
-1.1704621e-05
-0.00017780037
-1.3530202e-05
-0.00016257591
-1.5224456e-05
-0.00014580416
-1.6771758e-05
-0.00012764625
-1.8157911e-05
-0.00010827599
-1.9370253e-05
-8.7878238e-05
-2.0397755e-05
-6.6647135e-05
-2.1231103e-05
-4.4784369e-05
-2.1862766e-05
-2.2497319e-05
-2.228705e-05
-2.2500136e-05
2.2882364e-05
-4.5379613e-05
4.5545166e-05
-4.4949767e-05
6.7776536e-05
-4.4093995e-05
8.9365629e-05
-4.282e-05
0.00011010738
-4.1139264e-05
0.0001298044
-3.9066972e-05
0.00014826873
-3.6621905e-05
0.00016532364
-3.3826298e-05
0.00018080528
-3.0705682e-05
0.00019456419
-2.7288681e-05
0.00020646684
-2.3606801e-05
0.00021639685
-1.9694176e-05
0.00022425629
-1.5587288e-05
0.00022996661
-1.1324666e-05
0.00023346955
-6.946553e-06
0.00023472786
-2.4945484e-06
0.0002337257
1.988768e-06
0.00023046904
6.4602387e-06
0.00022498567
1.0876548e-05
0.0002173251
1.5194614e-05
0.00020755822
1.9372066e-05
0.00019577668
2.3367664e-05
0.00018209219
2.7141734e-05
0.00016663542
3.0656595e-05
0.00014955484
3.3876979e-05
0.00013101529
3.6770421e-05
0.0001111964
3.9307634e-05
9.0290777e-05
4.1462838e-05
6.8502117e-05
4.3214067e-05
4.6043143e-05
4.454342e-05
2.3133446e-05
4.5437285e-05
-2.760998e-09
4.5886493e-05
-2.3138938e-05
4.5886434e-05
-4.6048546e-05
4.5437109e-05
-6.8507375e-05
4.4543132e-05
-9.0295836e-05
4.3213671e-05
-0.00011120121
4.1462342e-05
-0.0001310198
3.9307044e-05
-0.00014955901
3.6769745e-05
-0.0001666392
3.3876224e-05
-0.00018209556
3.0655772e-05
-0.00019577961
2.7140852e-05
-0.00020756067
2.3366733e-05
-0.00021732707
1.9371094e-05
-0.00022498714
1.5193611e-05
-0.00023046999
1.0875523e-05
-0.00023372613
6.4591989e-06
-0.00023472776
1.987721e-06
-0.00023346893
-2.495595e-06
-0.00022996546
-6.947592e-06
-0.00022425463
-1.132569e-05
-0.00021639469
-1.5588289e-05
-0.00020646418
-1.9695146e-05
-0.00019456107
-2.3607732e-05
-0.00018080171
-2.7289563e-05
-0.00016531966
-3.0706505e-05
-0.00014826436
-3.3827055e-05
-0.00012979969
-3.6622584e-05
-0.00011010238
-3.9067565e-05
-8.9360372e-05
-4.1139761e-05
-6.777108e-05
-4.2820394e-05
-4.5539566e-05
-4.4094281e-05
-2.2876677e-05
-4.4949939e-05
-4.5379671e-05
2.3561657e-05
-6.8938345e-05
4.6897265e-05
-6.8285374e-05
6.978866e-05
-6.698539e-05
9.2018749e-05
-6.5050089e-05
0.0001133764
-6.249691e-05
0.00013365834
-5.9348919e-05
0.00015267107
-5.5634636e-05
0.00017023261
-5.1387836e-05
0.00018617422
-4.6647294e-05
0.00020034203
-4.145649e-05
0.00021259851
-3.5863278e-05
0.00022282384
-2.9919506e-05
0.00023091714
-2.3680591e-05
0.00023679754
-1.720506e-05
0.00024040502
-1.0554041e-05
0.0002417012
-3.7907274e-06
0.00024066977
3.0201982e-06
0.00023731684
9.8131714e-06
0.00023167101
1.6522374e-05
0.00022378326
2.3082372e-05
0.00021372653
2.9428788e-05
0.00020159523
3.5498963e-05
0.00018750435
4.123262e-05
0.00017158844
4.6572508e-05
0.00015400038
5.1465038e-05
0.00013490991
5.5860886e-05
0.000114502
5.9715547e-05
9.2974986e-05
6.2989851e-05
7.0538633e-05
6.5650419e-05
4.7412e-05
6.7670054e-05
2.3821215e-05
6.902807e-05
-2.8278219e-09
6.9710536e-05
-2.382684e-05
6.9710446e-05
-4.7417534e-05
6.9027803e-05
-7.0544018e-05
6.7669616e-05
-9.2980164e-05
6.5649818e-05
-0.00011450692
6.2989096e-05
-0.00013491452
5.9714649e-05
-0.00015400464
5.5859857e-05
-0.0001715923
5.1463892e-05
-0.00018750779
4.6571258e-05
-0.00020159822
4.1231282e-05
-0.00021372904
3.5497552e-05
-0.00022378526
2.9427317e-05
-0.00023167251
2.3080855e-05
-0.00023731781
1.6520824e-05
-0.00024067021
9.8115994e-06
-0.0002417011
3.0186156e-06
-0.00024040439
-3.7923096e-06
-0.00023679637
-1.0555612e-05
-0.00023091545
-1.7206609e-05
-0.00022282163
-2.3682107e-05
-0.0002125958
-2.9920975e-05
-0.00020033885
-3.5864689e-05
-0.00018617058
-4.1457827e-05
-0.00017022854
-4.6648543e-05
-0.00015266661
-5.1388984e-05
-0.00013365353
-5.5635667e-05
-0.00011337128
-5.9349819e-05
-9.2013373e-05
-6.2497666e-05
-6.9783078e-05
-6.5050689e-05
-4.6891534e-05
-6.6985825e-05
-2.3555836e-05
-6.8285637e-05
-6.8938433e-05
2.4552067e-05
-9.3487391e-05
4.8868605e-05
-9.2601913e-05
7.2722249e-05
-9.0839034e-05
9.5886775e-05
-8.8214615e-05
0.00011814217
-8.4752304e-05
0.00013927663
-8.0483376e-05
0.00015908849
-7.5446505e-05
0.00017738815
-6.968749e-05
0.00019399976
-6.3258907e-05
0.00020876299
-5.6219719e-05
0.00022153453
-4.8634817e-05
0.00023218953
-4.0574508e-05
0.00024062288
-3.2113941e-05
0.0002467503
-2.333248e-05
0.00025050928
-1.431302e-05
0.00025185981
-5.1412546e-06
0.0002507849
4.0951036e-06
0.00024729093
1.330714e-05
0.00024140771
2.2405595e-05
0.00023318835
3.1301736e-05
0.00022270888
3.9908257e-05
0.00021006766
4.8140183e-05
0.00019538452
5.5915766e-05
0.00017879966
6.3157363e-05
0.0001604724
6.97923e-05
0.00014057961
7.5753678e-05
0.00011931401
8.0981141e-05
9.6882301e-05
8.5421563e-05
7.3503046e-05
8.9029674e-05
4.940451e-05
9.176859e-05
2.4822323e-05
9.3610257e-05
-2.921057e-09
9.453578e-05
-2.4828133e-05
9.4535659e-05
-4.9410225e-05
9.3609895e-05
-7.3508605e-05
9.1767996e-05
-9.6887644e-05
8.9028857e-05
-0.00011931908
8.5420537e-05
-0.00014058436
8.0979921e-05
-0.00016047678
7.5752282e-05
-0.00017880364
6.9790746e-05
-0.00019538805
6.3155672e-05
-0.00021007072
5.5913957e-05
-0.00022271145
4.8138278e-05
-0.00023319041
3.9906273e-05
-0.00024140924
3.1299691e-05
-0.00024729192
2.2403507e-05
-0.00025078535
1.3305024e-05
-0.00025185971
4.0929733e-06
-0.00025050863
-5.1433845e-06
-0.00024674911
-1.4315136e-05
-0.00024062115
-2.3334567e-05
-0.00023218727
-3.2115984e-05
-0.00022153176
-4.0576491e-05
-0.00020875972
-4.8636721e-05
-0.00019399602
-5.6221526e-05
-0.00017738397
-6.3260598e-05
-0.00015908391
-6.9689044e-05
-0.00013927167
-7.5447903e-05
-0.0001181369
-8.0484597e-05
-9.5881233e-05
-8.475333e-05
-7.2716492e-05
-8.821543e-05
-4.8862691e-05
-9.0839626e-05
-2.4546058e-05
-9.2602271e-05
-9.3487511e-05
2.5852332e-05
-0.00011933658
5.1456676e-05
-0.00011820626
7.6573568e-05
-0.00011595593
0.00010096479
-0.00011260583
0.00012439865
-0.00010818617
0.00014665212
-0.00010273685
0.00016751287
-9.6307253e-05
0.00018678122
-8.8955839e-05
0.00020427204
-8.0749725e-05
0.0002198165
-7.1764179e-05
0.00023326372
-6.2082039e-05
0.00024448226
-5.1793052e-05
0.00025336147
-4.0993148e-05
0.00025981262
-2.9783634e-05
0.00026376993
-1.8270326e-05
0.00026519128
-6.5626098e-06
0.00026405883
5.2275517e-06
0.00026037931
1.6986661e-05
0.00025418413
2.8600779e-05
0.00024552922
3.9956642e-05
0.00023449467
5.0942807e-05
0.00022118405
6.1450805e-05
0.00020572353
7.1376282e-05
0.00018826076
8.0620133e-05
0.00016896348
8.9089587e-05
0.00014801791
9.6699248e-05
0.00012562698
0.00010337207
0.0001020083
0.00010904024
7.7392013e-05
0.00011364597
5.2018432e-05
0.00011714217
2.6135645e-05
0.00011949304
-3.0430142e-09
0.00012067447
-2.6141697e-05
0.00012067431
-5.2024384e-05
0.00011949258
-7.7397799e-05
0.00011714141
-0.00010201386
0.00011364492
-0.00012563225
0.00010903892
-0.00014802284
0.00010337051
-0.00016896802
9.6697465e-05
-0.00018826488
8.9087605e-05
-0.00020572719
8.061798e-05
-0.00022118721
7.1373983e-05
-0.00023449732
6.1448385e-05
-0.00024553134
5.0940292e-05
-0.0002541857
3.9954053e-05
-0.00026038033
2.8598137e-05
-0.00026405929
1.6983984e-05
-0.00026519118
5.2248588e-06
-0.00026376926
-6.5653023e-06
-0.00025981139
-1.8273001e-05
-0.00025335969
-2.9786275e-05
-0.00024447994
-4.0995735e-05
-0.00023326086
-5.1795565e-05
-0.00021981313
-6.2084456e-05
-0.00020426818
-7.1766477e-05
-0.0001867769
-8.0751877e-05
-0.00016750812
-8.8957819e-05
-0.00014664699
-9.6309036e-05
-0.00012439318
-0.00010273841
-0.00010095903
-0.00010818748
-7.6567581e-05
-0.00011260688
-5.1450522e-05
-0.00011595668
-2.5846077e-05
-0.00011820672
-0.00011933673
2.744975e-05
-0.00014678303
5.4636191e-05
-0.0001453927
8.1304991e-05
-0.00014262473
0.00010720318
-0.00013850402
0.00013208473
-0.00013306772
0.00015571282
-0.00012636494
0.00017786197
-0.0001184564
0.00019832017
-0.00010941404
0.00021689086
-9.9320416e-05
0.0002333948
-8.8268116e-05
0.0002476718
-7.6359042e-05
0.00025958234
-6.3703592e-05
0.00026900896
-5.0419767e-05
0.00027585751
-3.6632177e-05
0.00028005816
-2.2470976e-05
0.00028156625
-8.0707054e-06
0.00028036288
6.4309245e-06
0.00027645522
2.0894319e-05
0.00026987666
3.517934e-05
0.00026068662
4.9146684e-05
0.00024897014
6.2659284e-05
0.00023483721
7.5583732e-05
0.00021842181
8.7791682e-05
0.0001998807
9.9161243e-05
0.00017939198
0.00010957831
0.00015715336
0.00011893786
0.0001333803
0.00012714513
0.00010830382
0.00013411672
8.2168242e-05
0.00013978154
5.5228708e-05
0.00014408171
2.7748589e-05
0.00014697316
-3.1967669e-09
0.00014842625
-2.7754947e-05
0.00014842606
-5.5234956e-05
0.00014697259
-8.2174311e-05
0.00014408077
-0.00010830964
0.00013978025
-0.00013338581
0.0001341151
-0.00015715851
0.00012714321
-0.00017939672
0.00011893567
-0.00019988499
0.00010957588
-0.00021842561
9.9158601e-05
-0.0002348405
8.7788867e-05
-0.00024897288
7.5580775e-05
-0.00026068881
6.2656215e-05
-0.00026987828
4.9143529e-05
-0.00027645627
3.5176125e-05
-0.00028036335
2.0891064e-05
-0.00028156614
6.4276516e-06
-0.00028005747
-8.0739779e-06
-0.00027585624
-2.2474229e-05
-0.00026900713
-3.6635391e-05
-0.00025957994
-5.0422919e-05
-0.00024766885
-6.3706659e-05
-0.00023339131
-7.6361996e-05
-0.00021688685
-8.8270929e-05
-0.00019831568
-9.9323055e-05
-0.00017785702
-0.00010941648
-0.00015570746
-0.0001184586
-0.00013207901
-0.00012636686
-0.00010719715
-0.00013306934
-8.1298716e-05
-0.00013850531
-5.4629736e-05
-0.00014262566
-2.7443186e-05
-0.00014539327
-0.00014678322
2.9322729e-05
-0.00017610227
5.8364171e-05
-0.00017443414
8.6852563e-05
-0.00017111312
0.00011451763
-0.00016616909
0.00014109655
-0.00015964663
0.00016633628
-0.00015160467
0.00018999598
-0.0001421161
0.00021184916
-0.00013126722
0.00023168586
-0.00011915711
0.00024931462
-0.00010589688
0.00026456438
-9.1608803e-05
0.00027728614
-7.6425344e-05
0.00028735445
-6.0488086e-05
0.00029466882
-4.3946539e-05
0.00029915469
-2.6956855e-05
0.00030076444
-9.6804468e-06
0.00029947788
7.717477e-06
0.00029530275
2.506945e-05
0.00028827473
4.220736e-05
0.00027845733
5.896409e-05
0.0002659414
7.5175214e-05
0.00025084444
9.068069e-05
0.00023330957
0.00010532655
0.00021350424
0.00011896657
0.00019161869
0.00013146387
0.0001678641
0.00014269245
0.0001424706
0.00015253863
0.00011568495
0.00016090237
8.7768111e-05
0.00016769838
5.8992585e-05
0.00017285723
2.9639679e-05
0.00017632607
-3.3857655e-09
0.00017806932
-2.9646411e-05
0.00017806909
-5.8999198e-05
0.00017632538
-8.7774527e-05
0.00017285609
-0.0001156911
0.00016769682
-0.00014247641
0.00016090041
-0.00016786952
0.00015253632
-0.00019162366
0.00014268981
-0.00021350873
0.00013146095
-0.00023331354
0.00011896341
-0.00025084786
0.00010532319
-0.00026594425
9.0677166e-05
-0.0002784596
7.5171564e-05
-0.00028827642
5.8960346e-05
-0.00029530384
4.2203549e-05
-0.00029947837
2.5065598e-05
-0.00030076433
7.7136044e-06
-0.00029915398
-9.684319e-06
-0.00029466751
-2.6960706e-05
-0.00028735255
-4.3950347e-05
-0.00027728364
-6.0491827e-05
-0.00026456131
-7.6428991e-05
-0.00024931098
-9.1612324e-05
-0.00023168167
-0.00010590024
-0.00021184445
-0.00011916027
-0.00018999079
-0.00013127014
-0.00016633065
-0.00014211874
-0.00014109052
-0.00015160699
-0.00011451127
-0.00015964858
-8.6845935e-05
-0.00016617065
-5.8357347e-05
-0.00017111425
-2.9315786e-05
-0.00017443483
-0.0001761025
3.1444792e-05
-0.00020754333
6.2587909e-05
-0.00020557726
9.313785e-05
-0.00020166306
0.00012280474
-0.00019583598
0.00015130669
-0.00018814858
0.00017837235
-0.00017867033
0.00020374341
-0.00016748716
0.00022717701
-0.00015470082
0.000248448
-0.00014042811
0.00026735113
-0.00012480001
0.00028370297
-0.00010796065
0.0002973438
-9.0066173e-05
0.00030813917
-7.1283464e-05
0.00031598137
-5.1788732e-05
0.00032079052
-3.1766006e-05
0.00032251558
-1.1405509e-05
0.00032113499
9.0980724e-06
0.00031665704
2.9547396e-05
0.00030912004
4.974436e-05
0.00029859209
6.9492039e-05
0.00028517063
8.8596675e-05
0.00026898165
0.00010686967
0.0002501786
0.0001241296
0.00022894103
0.00014020414
0.00020547292
0.00015493198
0.00018000072
0.00016816465
0.00015277117
0.00017976818
0.00012404887
0.00018962466
9.4113638e-05
0.00019763362
6.3257666e-05
0.0002037132
3.1782589e-05
0.00020780115
-3.6138762e-09
0.00020985552
-3.1789773e-05
0.00020985525
-6.3264717e-05
0.00020780032
-9.4120472e-05
0.00020371185
-0.00012405541
0.00019763176
-0.00015277734
0.00018962234
-0.00018000646
0.00017976543
-0.00020547817
0.00016816153
-0.00022894576
0.00015492853
-0.00025018276
0.00014020041
-0.00026898522
0.00012412565
-0.00028517361
0.00010686555
-0.00029859446
8.8592413e-05
-0.00030912179
6.9487677e-05
-0.00031665817
4.9739929e-05
-0.00032113549
2.9542923e-05
-0.00032251547
9.0935792e-06
-0.00032078978
-1.1410002e-05
-0.00031598001
-3.1770478e-05
-0.0003081372
-5.179316e-05
-0.0002973412
-7.1287823e-05
-0.00028369976
-9.0070432e-05
-0.00026734732
-0.00010796477
-0.00024844361
-0.00012480395
-0.00022717206
-0.00014043183
-0.00020373793
-0.00015470427
-0.00017836639
-0.00016749028
-0.0001513003
-0.00017867307
-0.00012279799
-0.0001881509
-9.3130798e-05
-0.00019583784
-6.258064e-05
-0.00020166441
-3.1437391e-05
-0.00020557808
-0.00020754361
3.3790489e-05
-0.00024132983
6.7256743e-05
-0.00023904351
0.00010008546
-0.00023449178
0.0001319651
-0.00022771562
0.0001625927
-0.00021877618
0.00019167666
-0.00020775428
0.00021893938
-0.00019474989
0.00024411991
-0.00017988135
0.00026697634
-0.00016328453
0.00028728812
-0.00014511179
0.00030485824
-0.00012553076
0.00031951511
-0.00010472304
0.00033111434
-8.2882693e-05
0.00033954023
-6.0214624e-05
0.00034470704
-3.6932815e-05
0.00034655996
-1.3258432e-05
0.00034507586
1.0582178e-05
0.00034026366
3.4359588e-05
0.00033216453
5.7843488e-05
0.00032085164
8.0804939e-05
0.00030642964
0.00010301867
0.00028903388
0.00012426543
0.00026882924
0.00014433425
0.00024600859
0.00016302478
0.0002207911
0.00018014947
0.00019342008
0.00019553567
0.00016416064
0.00020902761
0.00013329711
0.00022048819
0.00010113016
0.00022980057
6.797379e-05
0.00023686958
3.4152121e-05
0.00024162281
-3.8856343e-09
0.00024401153
-3.4159842e-05
0.0002440112
-6.7981363e-05
0.00024162184
-0.00010113749
0.00023686798
-0.00013330411
0.00022979838
-0.00016416723
0.00022048546
-0.00019342619
0.00020902439
-0.00022079668
0.00019553202
-0.00024601359
0.00018014544
-0.00026883362
0.00016302045
-0.00028903764
0.00014432967
-0.00030643275
0.00012426066
-0.0003208541
0.00010301376
-0.00033216635
8.0799928e-05
-0.00034026483
5.7838412e-05
-0.00034507638
3.4354471e-05
-0.00034655984
1.0577043e-05
-0.00034470628
-1.3263567e-05
-0.00033953883
-3.693793e-05
-0.00033111229
-6.0219699e-05
-0.00031951241
-8.28877e-05
-0.00030485489
-0.00010472795
-0.00028728414
-0.00012553553
-0.00026697172
-0.00014511637
-0.00024411468
-0.00016328886
-0.00021893358
-0.00017988537
-0.00019167032
-0.00019475354
-0.00016258589
-0.0002077575
-0.00013195788
-0.00021877891
-0.00010007791
-0.00022771781
-6.7248947e-05
-0.00023449337
-3.3782544e-05
-0.00023904448
-0.00024133015
3.6343778e-05
-0.00027766928
7.2338734e-05
-0.00027503847
0.00010764786
-0.0002698009
0.00014193602
-0.00026200379
0.00017487734
-0.0002517175
0.00020615815
-0.00023903509
0.00023547989
-0.00022407163
0.00026256191
-0.00020696337
0.00028714406
-0.00018786669
0.00030898921
-0.00016695694
0.00032788552
-0.00014442707
0.00034364854
-0.00012048606
0.00035612306
-9.5357209e-05
0.00036518472
-6.9276284e-05
0.00037074136
-4.2489462e-05
0.0003727341
-1.5251168e-05
0.00037113805
1.217823e-05
0.00036596281
3.9534825e-05
0.0003572526
6.6553698e-05
0.00034508605
9.2971496e-05
0.00032957564
0.00011852908
0.00031086685
0.00014297421
0.00028913693
0.00016606418
0.00026459325
0.00018756846
0.00023747146
0.00020727126
0.00020803322
0.00022497391
0.00017656367
0.00024049717
0.0001433686
0.00025368326
0.00010877141
0.00026439775
7.3109879e-05
0.00027253111
3.6732666e-05
0.00027800003
-4.2065704e-09
0.0002807484
-3.6741022e-05
0.00028074802
-7.3118067e-05
0.00027799889
-0.00010877932
0.00027252924
-0.00014337613
0.00026439519
-0.00017657074
0.00025368007
-0.00020803976
0.00024049341
-0.0002374774
0.00022496966
-0.00026459855
0.00020726659
-0.00028914156
0.00018756345
-0.0003108708
0.00016605891
-0.00032957889
0.00014296875
-0.00034508861
0.00011852348
-0.00035725448
9.2965803e-05
-0.00036596402
6.6547947e-05
-0.00037113859
3.9529042e-05
-0.00037273398
1.2172433e-05
-0.00037074058
-1.5256964e-05
-0.00036518327
-4.2495244e-05
-0.00035612093
-6.9282032e-05
-0.00034364574
-9.5362898e-05
-0.00032788203
-0.00012049165
-0.00030898503
-0.00014443253
-0.00028713919
-0.0001669622
-0.00026255637
-0.00018787169
-0.00023547371
-0.00020696803
-0.00020615137
-0.00022407588
-0.00017487003
-0.00023903884
-0.00014192825
-0.00025172069
-0.00010763972
-0.00026200634
-7.2330316e-05
-0.00026980277
-3.6335191e-05
-0.0002750396
-0.00027766966
3.9109408e-05
-0.00031677399
7.7843326e-05
-0.00031377238
0.00011583909
-0.00030779666
0.00015273601
-0.00029890071
0.00018818337
-0.00028716486
0.00022184362
-0.00027269535
0.00025339552
-0.00025562353
0.00028253707
-0.00023610492
0.00030898842
-0.00021431803
0.00033249446
-0.00019046299
0.00035282737
-0.00016475997
0.00036978876
-0.00013744745
0.00038321174
-0.00010878019
0.0003929626
-7.9027143e-05
0.00039894224
-4.8469104e-05
0.00040108732
-1.7396247e-05
0.00039937106
1.3894494e-05
0.00039380372
4.5102164e-05
0.00038443277
7.5924641e-05
0.00037134269
0.00010606158
0.00035465436
0.00013521741
0.00033452416
0.00016310441
0.00031114266
0.00018944568
0.00028473289
0.00021397823
0.00025554833
0.00023645582
0.00022387049
0.00025665175
0.00019000618
0.00027436147
0.00015428451
0.00028940494
0.00011705354
0.00030162872
7.8676832e-05
0.00031090782
3.9529708e-05
0.00031714715
-4.5834919e-09
0.00032028269
-3.953881e-05
0.00032028224
-7.8685739e-05
0.00031714582
-0.00011706213
0.00031090563
-0.00015429267
0.00030162573
-0.00019001382
0.00028940122
-0.00022387751
0.0002743571
-0.00025555468
0.00025664682
-0.00028473852
0.00023645043
-0.00031114755
0.00021397248
-0.0003345283
0.00018943966
-0.00035465775
0.0001630982
-0.00037134534
0.00013521108
-0.00038443471
0.00010605517
-0.00039380496
7.5918191e-05
-0.00039937161
4.5095695e-05
-0.0004010872
1.3888019e-05
-0.00039894144
-1.7402722e-05
-0.00039296111
-4.8475571e-05
-0.00038320955
-7.9033591e-05
-0.00036978585
-0.0001087866
-0.00035282373
-0.00013745378
-0.00033249008
-0.00016476618
-0.00030898328
-0.000190469
-0.00028253119
-0.00021432377
-0.00025338893
-0.0002361103
-0.00022183636
-0.00025562845
-0.00018817549
-0.00027269971
-0.00015272761
-0.00028716857
-0.00011583026
-0.00029890369
-7.7834181e-05
-0.00030779885
-3.910007e-05
-0.00031377372
-0.00031677444
4.2127703e-05
-0.00035889655
8.3850765e-05
-0.00035549545
0.00012477854
-0.00034872443
0.00016452244
-0.00033864461
0.00020270464
-0.00032534706
0.00023896155
-0.00030895226
0.00027294714
-0.00028960912
0.00030433619
-0.00026749397
0.00033282733
-0.00024280917
0.00035814592
-0.00021578158
0.00038004669
-0.00018666074
0.00039831613
-0.00015571689
0.00041277464
-0.00012323869
0.00042327831
-8.9530813e-05
0.00042972049
-5.4911291e-05
0.00043203299
-1.9708744e-05
0.0004301869
1.5740585e-05
0.00042419316
5.1095904e-05
0.0004141027
8.6015095e-05
0.00040000627
0.00012015801
0.00038203382
0.00015318987
0.00036035351
0.00018478471
0.00033517036
0.00021462883
0.00030672443
0.00024242417
0.00027528859
0.00026789166
0.000241166
0.00029077434
0.00020468714
0.00031084033
0.00016620656
0.00032788552
0.00012609933
0.00034173595
8.4757224e-05
0.00035224992
4.2584749e-05
0.00035931963
-5.0247897e-09
0.00036287247
-4.2594723e-05
0.00036287194
-8.4766971e-05
0.00035931806
-0.00012610871
0.00035224737
-0.00016621544
0.00034173247
-0.00020469541
0.00032788118
-0.00024117357
0.00031083526
-0.00027529539
0.00029076864
-0.00030673042
0.00026788546
-0.00033517552
0.00024241759
-0.00036035784
0.00021462198
-0.00038203734
0.00018477769
-0.00040000901
0.00015318275
-0.00041410468
0.00012015085
-0.00042419442
8.6007922e-05
-0.00043018746
5.1088736e-05
-0.00043203286
1.5733423e-05
-0.00042971968
-1.9715906e-05
-0.00042327679
-5.4918458e-05
-0.0004127724
-8.9537983e-05
-0.00039831314
-0.00012324585
-0.00038004291
-0.00015572401
-0.00035814133
-0.00018666776
-0.00033282191
-0.00021578842
-0.00030432995
-0.00024281574
-0.00027294009
-0.00026750016
-0.00023895373
-0.00028961481
-0.00020269612
-0.00030895732
-0.00016451331
-0.00032535139
-0.00012476891
-0.00033864809
-8.3840774e-05
-0.00034872699
-4.2117486e-05
-0.000355497
-0.00035889707
4.5492736e-05
-0.00040438362
9.0548284e-05
-0.00040055099
0.0001347448
-0.00039292095
0.00017766258
-0.00038156239
0.00021889358
-0.00036657806
0.00025804515
-0.00034810383
0.00029474367
-0.00032630764
0.00032863802
-0.00030138833
0.00035940293
-0.00027357407
0.00038674199
-0.00024312064
0.00041039058
-0.00021030934
0.00043011839
-0.0001754447
0.00044573168
-0.00013885199
0.00045707527
-0.0001008744
0.00046403411
-6.1870135e-05
0.00046653459
-2.2209216e-05
0.00046454539
1.7729778e-05
0.00045807814
5.756316e-05
0.00044718752
9.6905717e-05
0.00043197113
0.0001353744
0.00041256887
0.00017259213
0.00038916194
0.00020819165
0.00036197133
0.00024181944
0.00033125596
0.00027313954
0.00029731029
0.00030183733
0.00026046157
0.00032762305
0.00022106669
0.00035023521
0.00017950861
0.0003694436
0.00013619254
0.00038505202
9.1541838e-05
0.00039690062
4.5993664e-05
0.0004048678
-5.5408276e-09
0.00040887167
-4.6004656e-05
0.00040887106
-9.1552565e-05
0.00040486597
-0.00013620283
0.00039689763
-0.00017951832
0.00038504795
-0.00022107569
0.00036943856
-0.00026046976
0.00035022932
-0.00029731758
0.00032761647
-0.00033126232
0.0003018302
-0.00036197676
0.00027313202
-0.00038916644
0.00024181167
-0.00041257249
0.00020818374
-0.00043197391
0.00017258417
-0.00044718951
0.00013536645
-0.00045807939
9.6897805e-05
-0.00046454595
5.7555288e-05
-0.00046653446
1.7721932e-05
-0.0004640333
-2.2217063e-05
-0.00045707375
-6.1878006e-05
-0.00044572942
-0.00010088231
-0.00043011534
-0.00013885993
-0.0004103867
-0.00017545265
-0.00038673722
-0.00021031724
-0.00035939723
-0.00024312841
-0.00032863139
-0.00027358158
-0.00029473611
-0.00030139544
-0.00025803671
-0.00032631421
-0.00021888432
-0.0003481097
-0.00017765261
-0.0003665831
-0.00013473425
-0.00038156645
-9.0537307e-05
-0.00039292393
-4.5481495e-05
-0.00040055282
-0.00040438423
4.93733e-05
-0.00045375064
9.8271832e-05
-0.00044944953
0.00014623775
-0.00044088687
0.00019281545
-0.00042814009
0.000237562
-0.00041132462
0.00028005126
-0.00039059308
0.00031987779
-0.00036613416
0.00035666065
-0.00033817119
0.00039004701
-0.00030696044
0.00041971548
-0.00027278911
0.00044537918
-0.00023597303
0.00046678849
-0.00019685401
0.00048373352
-0.00015579701
0.00049604611
-0.000113187
0.00050360162
-6.9425641e-05
0.00050632017
-2.4927766e-05
0.00050416767
1.9882274e-05
0.00049715642
6.4574412e-05
0.00048534532
0.00010871682
0.00046883971
0.00015188001
0.00044779081
0.00019364102
0.00042239465
0.00023358781
0.00039289052
0.00027132356
0.00035955898
0.00030647109
0.00032271928
0.00033867702
0.00028272646
0.00036761588
0.00023996781
0.00039299386
0.00019485913
0.00041455228
0.00014784048
0.00043207067
9.9371739e-05
0.00044536936
4.9927837e-05
0.0004543117
-6.1443825e-09
0.00045880565
-4.9940019e-05
0.00045880493
-9.9383607e-05
0.00045430956
-0.00014785184
0.00044536586
-0.00019486979
0.00043206591
-0.00023997763
0.0004145464
-0.00028273532
0.00039298701
-0.00032272712
0.00036760826
-0.00035956573
0.00033866882
-0.00039289621
0.0003064625
-0.0004223993
0.00027131476
-0.00044779449
0.00023357893
-0.00046884249
0.00019363217
-0.00048534728
0.00015187124
-0.00049715764
0.00010870817
-0.0005041682
6.4565848e-05
-0.00050632003
1.9873764e-05
-0.00050360082
-2.4936276e-05
-0.00049604462
-6.9434204e-05
-0.00048373128
-0.00011319566
-0.00046678544
-0.00015580577
-0.00044537523
-0.00019686286
-0.00041971056
-0.00023598191
-0.00039004105
-0.00027279791
-0.00035665362
-0.00030696901
-0.00031986969
-0.00033817937
-0.00028004213
-0.00036614177
-0.00023755191
-0.00039059991
-0.00019280452
-0.00041133049
-0.00014622614
-0.00042814483
-9.8259708e-05
-0.00044089036
-4.9360863e-05
-0.00044945166
-0.00045375136
5.4035091e-05
-0.00050777876
0.00010755024
-0.00050296468
0.00016004429
-0.00049338092
0.00021101845
-0.00047911425
0.00025998789
-0.00046029405
0.00030648617
-0.00043709137
0.00035006966
-0.00040971765
0.00039032162
-0.00037842315
0.00042685617
-0.00034349499
0.00045932195
-0.0003052549
0.00048740545
-0.00026405653
0.00051083399
-0.00022028255
0.00052937834
-0.00017434137
0.00054285494
-0.0001266636
0.00055112764
-7.7698336e-05
0.00055410912
-2.7909249e-05
0.00055176193
2.2229467e-05
0.00054409909
7.2237245e-05
0.00053118444
0.00012163147
0.00051313247
0.00016993198
0.00049010778
0.00021666571
0.00046232406
0.00026137153
0.00043004241
0.00030360521
0.00039356926
0.00034294424
0.00035325361
0.00037899268
0.00030948376
0.00041138573
0.0002626836
0.00043979401
0.0002133084
0.00046392749
0.00016184015
0.00048353892
0.0001087827
0.00049842681
5.4656491e-05
0.00050843791
-6.8511907e-09
0.00051346899
-5.4670066e-05
0.00051346815
-0.0001087959
0.0005084354
-0.00016185274
0.0004984227
-0.00021332016
0.00048353333
-0.00026269437
0.0004639206
-0.00030949338
0.00043978603
-0.00035326201
0.00041137688
-0.00039357641
0.00037898322
-0.00043004832
0.00034293441
-0.00046232879
0.00030359523
-0.00049011145
0.00026136158
-0.00051313517
0.0002166559
-0.00053118631
0.00016992238
-0.00054410023
0.00012162209
-0.00055176241
7.2228025e-05
-0.00055410898
2.222034e-05
-0.00055112688
-2.7918377e-05
-0.00054285353
-7.7707558e-05
-0.0005293762
-0.00012667299
-0.000510831
-0.00017435097
-0.0004874015
-0.00022029236
-0.00045931694
-0.00026406648
-0.00042684998
-0.00030526486
-0.00039031419
-0.0003435048
-0.00035006098
-0.00037843259
-0.00030647627
-0.00040972647
-0.00025997685
-0.00043709933
-0.00021100642
-0.00046030092
-0.00016003144
-0.00047911982
-0.00010753678
-0.00049338502
-5.4021257e-05
-0.00050296719
-0.0005077796
5.9861274e-05
-0.00056763222
0.00011914614
-0.00056224955
0.00017729921
-0.00055153398
0.00023376766
-0.0005355827
0.00028801423
-0.00051454062
0.00033952214
-0.00048859928
0.00038779998
-0.00045799548
0.00043238627
-0.00042300944
0.0004728539
-0.00038396262
0.00050881409
-0.00034121509
0.00053992015
-0.00029516259
0.00056587071
-0.00024623311
0.00058641256
-0.00019488321
0.00060134295
-0.00014159399
0.00061051154
-8.6866929e-05
0.0006138218
-3.1219508e-05
0.00061123206
2.4819206e-05
0.00060275624
8.0713068e-05
0.00058846418
0.00013592353
0.00056848166
0.00018991451
0.00054298984
0.00024215752
0.00051222429
0.00029213709
0.00047647324
0.00033935625
0.00043607535
0.00038334213
0.00039141668
0.00042365135
0.00034292714
0.00045987527
0.00029107633
0.00049164482
0.00023636885
0.00051863497
0.00017933919
0.00054056858
0.00012054619
0.00055721981
6.0567273e-05
0.00056841683
-7.680673e-09
0.00057404395
-6.0582483e-05
0.00057404295
-0.00012056095
0.00056841387
-0.00017935321
0.00055721496
-0.00023638188
0.000540562
-0.00029108816
0.00051862687
-0.0003429376
0.00049163547
-0.00039142567
0.00045986496
-0.00043608286
0.0004236404
-0.0004764793
0.00038333086
-0.00051222901
0.00033934494
-0.00054299338
0.00029212595
-0.00056848418
0.0002421467
-0.00058846586
0.00018990406
-0.00060275722
0.00013591345
-0.00061123245
8.0703261e-05
-0.00061382166
2.4809549e-05
-0.00061051087
-3.1229167e-05
-0.00060134169
-8.6876741e-05
-0.0005864106
-0.00014160408
-0.00056586791
-0.00019489366
-0.00053991633
-0.00024624394
-0.00050880907
-0.00029517373
-0.00047284754
-0.00034122639
-0.00043237847
-0.00038397387