/*--------------------------------*- C++ -*----------------------------------*\
| =========                 |                                                 |
| \\      /  F ield         | OpenFOAM: The Open Source CFD Toolbox           |
|  \\    /   O peration     | Version:  2106                                  |
|   \\  /    A nd           | Website:  www.openfoam.com                      |
|    \\/     M anipulation  |                                                 |
\*---------------------------------------------------------------------------*/
FoamFile
{
    version     2.0;
    format      ascii;
    arch        "LSB;label=32;scalar=64";
    class       volVectorField;
    location    "0.041";
    object      U;
}
// * * * * * * * * * * * * * * * * * * * * * * * * * * * * * * * * * * * * * //

dimensions      [0 1 -1 0 0 0 0];

internalField   nonuniform List<vector> 
4096
(
(0.00072270981 -0.00071917929 0)
(0.0021609243 -0.00071236624 0)
(0.0035786698 -0.00069880232 0)
(0.0049625062 -0.00067860965 0)
(0.0062992987 -0.00065197032 0)
(0.0075763372 -0.00061912514 0)
(0.0087814523 -0.00058037189 0)
(0.0099031274 -0.00053606318 0)
(0.010930607 -0.00048660377 0)
(0.011853996 -0.00043244753 0)
(0.012664359 -0.00037409395 0)
(0.013353805 -0.00031208413 0)
(0.013915565 -0.00024699644 0)
(0.014344067 -0.00017944159 0)
(0.014634993 -0.00011005746 0)
(0.014785326 -3.9503345e-05 0)
(0.014793389 3.1546184e-05 0)
(0.014658879 0.0001024052 0)
(0.014382852 0.00017239106 0)
(0.013967757 0.0002408183 0)
(0.013417394 0.00030701622 0)
(0.012736898 0.00037033153 0)
(0.011932691 0.00043013565 0)
(0.011012428 0.00048583164 0)
(0.009984923 0.00053686078 0)
(0.0088600716 0.00058270884 0)
(0.0076487509 0.0006229119 0)
(0.0063627155 0.00065706163 0)
(0.0050144798 0.00068481009 0)
(0.0036171935 0.00070587379 0)
(0.0021845079 0.00072003708 0)
(0.00073043714 0.00072715477 0)
(-0.00073078518 0.00072715383 0)
(-0.0021848521 0.0007200343 0)
(-0.0036175303 0.00070586923 0)
(-0.0050148058 0.00068480385 0)
(-0.0063630273 0.00065705381 0)
(-0.0076490455 0.00062290259 0)
(-0.008860346 0.00058269816 0)
(-0.0099851747 0.00053684885 0)
(-0.011012654 0.00048581861 0)
(-0.011932891 0.00043012168 0)
(-0.012737069 0.00037031677 0)
(-0.013417534 0.00030700082 0)
(-0.013967866 0.0002408024 0)
(-0.014382928 0.00017237479 0)
(-0.014658923 0.0001023887 0)
(-0.0147934 3.1529569e-05 0)
(-0.014785303 -3.9519954e-05 0)
(-0.014634937 -0.00011007394 0)
(-0.014343978 -0.00017945784 0)
(-0.013915444 -0.00024701231 0)
(-0.013353652 -0.00031209952 0)
(-0.012664176 -0.0003741087 0)
(-0.011853784 -0.0004324615 0)
(-0.010930368 -0.00048661681 0)
(-0.0099028633 -0.00053607514 0)
(-0.0087811653 -0.00058038263 0)
(-0.00757603 -0.00061913451 0)
(-0.0062989742 -0.00065197818 0)
(-0.0049621674 -0.00067861587 0)
(-0.0035783203 -0.00069880681 0)
(-0.0021605675 -0.00071236895 0)
(-0.00072234938 -0.0007191802 0)
(0.00073490494 -0.0021668528 0)
(0.0021973899 -0.0021463264 0)
(0.0036390636 -0.0021054609 0)
(0.005046261 -0.0020446242 0)
(0.0064056273 -0.0019643648 0)
(0.0077042394 -0.0018654079 0)
(0.0089297233 -0.0017486508 0)
(0.010070369 -0.0016151553 0)
(0.011115238 -0.001466141 0)
(0.012054271 -0.0013029751 0)
(0.012878378 -0.0011271621 0)
(0.013579533 -0.00094033225 0)
(0.014150853 -0.00074422793 0)
(0.014586669 -0.00054068908 0)
(0.014882587 -0.00033163742 0)
(0.015035537 -0.00011905945 0)
(0.015043813 9.501133e-05 0)
(0.014907095 0.00030851492 0)
(0.014626466 0.00051938296 0)
(0.014204407 0.00072555794 0)
(0.013644782 0.00092501731 0)
(0.01295281 0.0011157922 0)
(0.012135021 0.0012959886 0)
(0.011199196 0.0014638076 0)
(0.010154301 0.0016175655 0)
(0.0090103962 0.0017557127 0)
(0.007778545 0.0018768511 0)
(0.0064707015 0.0019797501 0)
(0.0050995936 0.0020633613 0)
(0.0036785957 0.0021268301 0)
(0.0022215924 0.0021695069 0)
(0.0007428377 0.0021909538 0)
(-0.00074319101 0.002190951 0)
(-0.0022219418 0.0021694985 0)
(-0.0036789376 0.0021268164 0)
(-0.0050999245 0.0020633425 0)
(-0.0064710179 0.0019797265 0)
(-0.0077788439 0.001876823 0)
(-0.0090106745 0.0017556805 0)
(-0.010154556 0.0016175295 0)
(-0.011199426 0.0014637683 0)
(-0.012135223 0.0012959465 0)
(-0.012952983 0.0011157478 0)
(-0.013644924 0.00092497096 0)
(-0.014204517 0.0007255101 0)
(-0.014626544 0.00051933402 0)
(-0.014907139 0.00030846527 0)
(-0.015043823 9.496134e-05 0)
(-0.015035514 -0.00011910943 0)
(-0.01488253 -0.00033168702 0)
(-0.014586579 -0.00054073797 0)
(-0.01415073 -0.00074427573 0)
(-0.013579378 -0.00094037856 0)
(-0.012878192 -0.0011272065 0)
(-0.012054056 -0.0013030171 0)
(-0.011114996 -0.0014661803 0)
(-0.010070101 -0.0016151914 0)
(-0.0089294324 -0.0017486831 0)
(-0.0077039279 -0.0018654362 0)
(-0.0064052982 -0.0019643884 0)
(-0.0050459174 -0.002044643 0)
(-0.003638709 -0.0021054745 0)
(-0.0021970279 -0.0021463346 0)
(-0.00073453919 -0.0021668555 0)
(0.00075671233 -0.0036503342 0)
(0.0022625973 -0.0036157572 0)
(0.0037470547 -0.0035469189 0)
(0.0051960149 -0.0034444386 0)
(0.0065957275 -0.00330924 0)
(0.0079328864 -0.0031425447 0)
(0.0091947509 -0.0029458632 0)
(0.010369263 -0.0027209844 0)
(0.011445162 -0.0024699618 0)
(0.012412086 -0.0021950982 0)
(0.013260678 -0.0018989277 0)
(0.013982673 -0.0015841961 0)
(0.014570982 -0.0012538381 0)
(0.015019767 -0.00091095302 0)
(0.015324502 -0.00055877789 0)
(0.015482025 -0.00020065899 0)
(0.015490579 0.00015997858 0)
(0.015349833 0.00051966337 0)
(0.0150609 0.0008749105 0)
(0.014626334 0.001222255 0)
(0.014050113 0.0015582886 0)
(0.01333761 0.0018796939 0)
(0.012495548 0.0021832793 0)
(0.011531939 0.0024660141 0)
(0.010456014 0.0027250611 0)
(0.0092781336 0.002957809 0)
(0.0080096883 0.0031619019 0)
(0.0066629882 0.003335266 0)
(0.0052511401 0.0034761344 0)
(0.0037879164 0.0035830673 0)
(0.0022876151 0.0036549695 0)
(0.00076491465 0.0036911037 0)
(-0.0007652765 0.003691099 0)
(-0.002287973 0.0036549554 0)
(-0.0037882666 0.0035830441 0)
(-0.0052514789 0.0034761026 0)
(-0.006663312 0.0033352262 0)
(-0.008009994 0.0031618545 0)
(-0.0092784181 0.0029577547 0)
(-0.010456275 0.0027250005 0)
(-0.011532173 0.002465948 0)
(-0.012495754 0.0021832085 0)
(-0.013337786 0.0018796191 0)
(-0.014050258 0.0015582107 0)
(-0.014626446 0.0012221747 0)
(-0.015060979 0.00087482833 0)
(-0.015349877 0.00051958003 0)
(-0.015490589 0.00015989467 0)
(-0.015482002 -0.00020074287 0)
(-0.015324444 -0.00055886117 0)
(-0.015019675 -0.0009110351 0)
(-0.014570857 -0.0012539184 0)
(-0.013982515 -0.0015842739 0)
(-0.01326049 -0.0018990023 0)
(-0.012411868 -0.0021951689 0)
(-0.011444915 -0.002470028 0)
(-0.01036899 -0.0027210451 0)
(-0.0091944538 -0.0029459177 0)
(-0.0079325681 -0.0031425922 0)
(-0.006595391 -0.0033092799 0)
(-0.0051956635 -0.0034444702 0)
(-0.0037466919 -0.0035469418 0)
(-0.0022622268 -0.0036157711 0)
(-0.00075633791 -0.0036503388 0)
(0.00078850608 -0.0051871864 0)
(0.0023576652 -0.0051380538 0)
(0.003904496 -0.0050402369 0)
(0.0054143373 -0.0048946156 0)
(0.0068728608 -0.0047025026 0)
(0.0082662011 -0.0044656331 0)
(0.0095810821 -0.0041861536 0)
(0.01080494 -0.0038666053 0)
(0.011926038 -0.003509906 0)
(0.012933583 -0.0031193275 0)
(0.013817821 -0.0026984707 0)
(0.014570143 -0.0022512368 0)
(0.015183161 -0.0017817959 0)
(0.015650792 -0.0012945518 0)
(0.015968322 -0.00079410404 0)
(0.016132455 -0.00028520759 0)
(0.01614136 0.00022727063 0)
(0.015994693 0.00073839732 0)
(0.015693615 0.00124322 0)
(0.015240787 0.0017368153 0)
(0.014640353 0.0022143394 0)
(0.013897913 0.0026710778 0)
(0.013020472 0.0031024949 0)
(0.012016379 0.0035042832 0)
(0.010895254 0.0038724108 0)
(0.0096678899 0.0042031663 0)
(0.008346158 0.0044932012 0)
(0.0069428848 0.0047395683 0)
(0.0054717277 0.0049397561 0)
(0.0039470375 0.0050917185 0)
(0.0023837126 0.0051938989 0)
(0.00079704805 0.0052452493 0)
(-0.00079742183 0.0052452426 0)
(-0.0023840823 0.0051938789 0)
(-0.0039473991 0.0050916856 0)
(-0.0054720774 0.0049397109 0)
(-0.0069432188 0.0047395116 0)
(-0.008346473 0.0044931337 0)
(-0.0096681828 0.004203089 0)
(-0.010895522 0.0038723248 0)
(-0.01201662 0.0035041895 0)
(-0.013020683 0.0031023945 0)
(-0.013898094 0.002670972 0)
(-0.014640501 0.0022142292 0)
(-0.015240901 0.0017367017 0)
(-0.015693696 0.0012431039 0)
(-0.015994739 0.0007382796 0)
(-0.016141371 0.00022715213 0)
(-0.016132431 -0.00028532606 0)
(-0.015968263 -0.00079422169 0)
(-0.015650699 -0.0012946678 0)
(-0.015183033 -0.0017819095 0)
(-0.014569982 -0.002251347 0)
(-0.013817628 -0.0026985764 0)
(-0.012933358 -0.0031194278 0)
(-0.011925784 -0.0035099998 0)
(-0.010804659 -0.0038666915 0)
(-0.0095807764 -0.004186231 0)
(-0.0082658733 -0.0044657008 0)
(-0.006872514 -0.0047025594 0)
(-0.0054139749 -0.0048946607 0)
(-0.0039041216 -0.0050402696 0)
(-0.0023572828 -0.0051380736 0)
(-0.00078811955 -0.0051871931 0)
(0.0008302462 -0.0067974221 0)
(0.0024824738 -0.0067330378 0)
(0.0041111889 -0.0066048568 0)
(0.0057009532 -0.0064140323 0)
(0.0072366786 -0.006162284 0)
(0.0087037649 -0.0058518861 0)
(0.010088233 -0.005485651 0)
(0.011376852 -0.0050669089 0)
(0.012557267 -0.0045994831 0)
(0.01361811 -0.004087661 0)
(0.014549116 -0.0035361613 0)
(0.015341217 -0.0029500963 0)
(0.015986638 -0.0023349303 0)
(0.016478975 -0.001696434 0)
(0.016813265 -0.0010406349 0)
(0.01698604 -0.00037376369 0)
(0.016995374 0.00029780196 0)
(0.016840907 0.00096759731 0)
(0.016523862 0.0016291324 0)
(0.016047041 0.0022759557 0)
(0.015414811 0.0029017197 0)
(0.014633068 0.0035002461 0)
(0.013709188 0.0040655913 0)
(0.012651962 0.0045921106 0)
(0.011471519 0.0050745201 0)
(0.010179225 0.005507956 0)
(0.0087875759 0.0058880303 0)
(0.0073100782 0.0062108806 0)
(0.0057611106 0.0064732155 0)
(0.0041557821 0.0066723538 0)
(0.0025097784 0.0068062556 0)
(0.00083920216 0.0068735475 0)
(-0.00083959155 0.0068735387 0)
(-0.0025101634 0.0068062294 0)
(-0.0041561586 0.0066723106 0)
(-0.0057614744 0.0064731562 0)
(-0.0073104254 0.006210806 0)
(-0.008787903 0.0058879417 0)
(-0.010179528 0.0055078547 0)
(-0.011471797 0.0050744074 0)
(-0.012652211 0.004591988 0)
(-0.013709406 0.0040654603 0)
(-0.014633254 0.0035001081 0)
(-0.015414964 0.0029015761 0)
(-0.016047159 0.0022758079 0)
(-0.016523945 0.0016289814 0)
(-0.016840954 0.00096744434 0)
(-0.016995385 0.00029764801 0)
(-0.016986015 -0.00037391762 0)
(-0.016813204 -0.0010407878 0)
(-0.016478879 -0.0016965849 0)
(-0.015986506 -0.002335078 0)
(-0.015341051 -0.0029502397 0)
(-0.014548917 -0.0035362992 0)
(-0.013617879 -0.0040877919 0)
(-0.012557005 -0.0045996056 0)
(-0.011376561 -0.0050670216 0)
(-0.010087916 -0.0054857524 0)
(-0.0087034248 -0.0058519747 0)
(-0.0072363185 -0.0061623585 0)
(-0.0057005765 -0.0064140915 0)
(-0.0041107996 -0.0066048998 0)
(-0.0024820758 -0.0067330639 0)
(-0.00082984385 -0.0067974308 0)
(0.00088152603 -0.0085007421 0)
(0.0026358065 -0.0084202227 0)
(0.004365119 -0.0082599187 0)
(0.0060530692 -0.0080212725 0)
(0.0076836357 -0.0077064351 0)
(0.0092413149 -0.0073182507 0)
(0.010711263 -0.0068602369 0)
(0.012079433 -0.0063365586 0)
(0.013332705 -0.0057519975 0)
(0.014459011 -0.0051119161 0)
(0.015447452 -0.0044222156 0)
(0.016288403 -0.0036892898 0)
(0.016973611 -0.0029199726 0)
(0.017496278 -0.0021214808 0)
(0.017851138 -0.0013013522 0)
(0.018034512 -0.00046737894 0)
(0.018044357 0.00037246351 0)
(0.017880294 0.0012100906 0)
(0.017543622 0.0020373863 0)
(0.017037321 0.0028462829 0)
(0.016366026 0.0036288425 0)
(0.015536 0.0043773389 0)
(0.014555074 0.0050843395 0)
(0.013432584 0.0057427852 0)
(0.012179282 0.0063460685 0)
(0.010807236 0.0068881069 0)
(0.0093297134 0.0073634129 0)
(0.0077610529 0.0077671565 0)
(0.0061165197 0.0080952219 0)
(0.0044121535 0.0083442559 0)
(0.0026646066 0.0085117079 0)
(0.00089097374 0.0085958603 0)
(-0.0008913828 0.0085958492 0)
(-0.002665011 0.008511675 0)
(-0.0044125487 0.0083442017 0)
(-0.0061169011 0.0080951474 0)
(-0.0077614166 0.007767063 0)
(-0.0093300554 0.0073633019 0)
(-0.010807553 0.0068879801 0)
(-0.012179571 0.0063459276 0)
(-0.013432843 0.0057426323 0)
(-0.014555301 0.0050841764 0)
(-0.015536193 0.0043771674 0)
(-0.016366184 0.0036286643 0)
(-0.017037443 0.0028460996 0)
(-0.017543708 0.0020371993 0)
(-0.017880342 0.0012099013 0)
(-0.018044369 0.00037227306 0)
(-0.018034487 -0.00046756936 0)
(-0.017851075 -0.0013015414 0)
(-0.017496179 -0.0021216676 0)
(-0.016973475 -0.0029201557 0)
(-0.016288231 -0.0036894678 0)
(-0.015447245 -0.004422387 0)
(-0.01445877 -0.0051120791 0)
(-0.013332432 -0.0057521503 0)
(-0.01207913 -0.0063366993 0)
(-0.010710932 -0.0068603637 0)
(-0.0092409595 -0.0073183617 0)
(-0.0076832588 -0.0077065285 0)
(-0.0060526745 -0.0080213469 0)
(-0.0043647107 -0.0082599727 0)
(-0.0026353889 -0.0084202555 0)
(-0.00088110375 -0.0085007531 0)
(0.00094165404 -0.010315623 0)
(0.002815595 -0.010217909 0)
(0.0046628605 -0.010023373 0)
(0.0064659355 -0.0097337661 0)
(0.0082077034 -0.0093516984 0)
(0.0098716015 -0.0088806224 0)
(0.011441772 -0.0083248075 0)
(0.01290321 -0.0076893089 0)
(0.014241901 -0.0069799301 0)
(0.015444955 -0.0062031794 0)
(0.016500731 -0.005366219 0)
(0.01739895 -0.0044768086 0)
(0.018130799 -0.0035432417 0)
(0.018689022 -0.0025742763 0)
(0.019067994 -0.0015790597 0)
(0.019263791 -0.00056704728 0)
(0.019274232 0.00045208296 0)
(0.019098916 0.001468521 0)
(0.018739235 0.0024724188 0)
(0.01819837 0.0034539868 0)
(0.017481277 0.0044035933 0)
(0.016594644 0.0053118632 0)
(0.015546838 0.0061697779 0)
(0.014347832 0.0069687718 0)
(0.013009109 0.0077008273 0)
(0.01154356 0.0083585641 0)
(0.0099653556 0.0089353236 0)
(0.0082898109 0.0094252451 0)
(0.00653323 0.0098233346 0)
(0.0047127446 0.010125523 0)
(0.0028461402 0.010328717 0)
(0.0009516747 0.010430831 0)
(-0.00095210795 0.010430818 0)
(-0.0028465683 0.010328677 0)
(-0.0047131626 0.010125457 0)
(-0.0065336331 0.0098232437 0)
(-0.0082901946 0.0094251311 0)
(-0.0099657159 0.0089351885 0)
(-0.011543893 0.00835841 0)
(-0.013009412 0.0077006565 0)
(-0.014348103 0.0069685867 0)
(-0.015547075 0.0061695808 0)
(-0.016594845 0.0053116565 0)
(-0.017481441 0.0044033789 0)
(-0.018198497 0.0034537667 0)
(-0.018739323 0.0024721945 0)
(-0.019098967 0.0014682942 0)
(-0.019274244 0.00045185484 0)
(-0.019263764 -0.00056727539 0)
(-0.019067929 -0.0015792865 0)
(-0.018688919 -0.0025745005 0)
(-0.018130659 -0.0035434618 0)
(-0.017398772 -0.0044770229 0)
(-0.016500516 -0.0053664256 0)
(-0.015444704 -0.0062033762 0)
(-0.014241616 -0.006980115 0)
(-0.012902893 -0.0076894795 0)
(-0.011441425 -0.0083249615 0)
(-0.0098712275 -0.0088807574 0)
(-0.0082073061 -0.0093518122 0)
(-0.0064655189 -0.0097338568 0)
(-0.004662429 -0.010023439 0)
(-0.0028151534 -0.010217949 0)
(-0.00094120726 -0.010315637 0)
(0.0010097823 -0.012258911 0)
(0.0030193032 -0.012142782 0)
(0.0050002135 -0.011911586 0)
(0.0069337282 -0.011567404 0)
(0.0088014897 -0.011113338 0)
(0.010585735 -0.010553493 0)
(0.012269459 -0.0098929448 0)
(0.013836569 -0.0091377014 0)
(0.015272038 -0.0082946618 0)
(0.016562046 -0.0073715621 0)
(0.017694112 -0.0063769155 0)
(0.018657217 -0.0053199445 0)
(0.019441914 -0.0042105062 0)
(0.020040424 -0.003059009 0)
(0.020446722 -0.0018763234 0)
(0.020656603 -0.00067368573 0)
(0.020667732 0.00053740358 0)
(0.020479681 0.0017452876 0)
(0.020093943 0.0029382641 0)
(0.019513933 0.004104701 0)
(0.018744964 0.0052331532 0)
(0.017794208 0.0063124808 0)
(0.016670637 0.0073319674 0)
(0.015384942 0.0082814347 0)
(0.013949438 0.0091513558 0)
(0.012377945 0.0099329608 0)
(0.010685659 0.010618337 0)
(0.0088890005 0.011200522 0)
(0.0070054508 0.011673579 0)
(0.0050533798 0.012032676 0)
(0.0030518577 0.012274134 0)
(0.0010204618 0.012395478 0)
(-0.0010209243 0.012395462 0)
(-0.0030523145 0.012274086 0)
(-0.0050538253 0.012032597 0)
(-0.0070058798 0.011673471 0)
(-0.0088894081 0.011200385 0)
(-0.010686041 0.010618176 0)
(-0.012378298 0.0099327771 0)
(-0.013949758 0.0091511526 0)
(-0.015385227 0.0082812151 0)
(-0.016670885 0.0073317342 0)
(-0.017794418 0.0063122368 0)
(-0.018745135 0.0052329007 0)
(-0.019514065 0.0041044423 0)
(-0.020094035 0.0029380011 0)
(-0.020479733 0.0017450218 0)
(-0.020667744 0.00053713647 0)
(-0.020656576 -0.00067395282 0)
(-0.020446655 -0.0018765891 0)
(-0.020040317 -0.0030592719 0)
(-0.019441768 -0.0042107648 0)
(-0.018657032 -0.0053201968 0)
(-0.017693888 -0.0063771593 0)
(-0.016561784 -0.0073717951 0)
(-0.015271739 -0.0082948812 0)
(-0.013836235 -0.0091379043 0)
(-0.012269092 -0.0098931283 0)
(-0.010585339 -0.010553655 0)
(-0.008801068 -0.011113474 0)
(-0.0069332852 -0.011567512 0)
(-0.0049997541 -0.011911665 0)
(-0.0030188325 -0.01214283 0)
(-0.001009306 -0.012258927 0)
(0.0010850964 -0.014345682 0)
(0.0032444947 -0.014209776 0)
(0.0053731431 -0.013939206 0)
(0.0074508521 -0.013536408 0)
(0.0094578924 -0.013005017 0)
(0.011375175 -0.012349836 0)
(0.013184424 -0.011576807 0)
(0.014868348 -0.010692964 0)
(0.0164108 -0.009706383 0)
(0.017796933 -0.0086261191 0)
(0.019013336 -0.0074621372 0)
(0.020048174 -0.0062252317 0)
(0.0208913 -0.0049269386 0)
(0.02153436 -0.0035794389 0)
(0.021970884 -0.0021954533 0)
(0.022196357 -0.00078812986 0)
(0.022208273 0.00062907481 0)
(0.022006173 0.0020425213 0)
(0.021591663 0.0034385177 0)
(0.020968411 0.0048034537 0)
(0.020142124 0.006123938 0)
(0.019120507 0.0073869362 0)
(0.017913198 0.0085799088 0)
(0.016531684 0.0096909464 0)
(0.014989193 0.010708901 0)
(0.013300576 0.01162351 0)
(0.011482159 0.012425516 0)
(0.0095515858 0.013106768 0)
(0.007527641 0.013660325 0)
(0.0054300641 0.014080528 0)
(0.0032793474 0.014363074 0)
(0.0010965285 0.014505066 0)
(-0.0010970257 0.014505047 0)
(-0.0032798382 0.014363017 0)
(-0.0054305423 0.014080434 0)
(-0.0075281007 0.013660196 0)
(-0.0095520216 0.013106607 0)
(-0.011482567 0.012425325 0)
(-0.013300951 0.011623294 0)
(-0.014989532 0.010708662 0)
(-0.016531984 0.0096906894 0)
(-0.017913459 0.0085796369 0)
(-0.019120727 0.0073866525 0)
(-0.020142302 0.0061236453 0)
(-0.020968547 0.0048031546 0)
(-0.021591758 0.0034382142 0)
(-0.022006227 0.0020422151 0)
(-0.022208286 0.00062876733 0)
(-0.022196329 -0.0007884373 0)
(-0.021970815 -0.0021957594 0)
(-0.02153425 -0.0035797423 0)
(-0.020891148 -0.0049272376 0)
(-0.020047981 -0.0062255242 0)
(-0.019013102 -0.0074624207 0)
(-0.017796657 -0.0086263908 0)
(-0.016410485 -0.0097066396 0)
(-0.014867994 -0.010693202 0)
(-0.013184034 -0.011577023 0)
(-0.011374753 -0.012350026 0)
(-0.0094574422 -0.013005178 0)
(-0.007450378 -0.013536537 0)
(-0.0053726505 -0.013939299 0)
(-0.0032439896 -0.014209833 0)
(-0.0010845849 -0.014345701 0)
(0.0011670841 -0.016589535 0)
(0.003489637 -0.016432359 0)
(0.0057791107 -0.016119444 0)
(0.0080137867 -0.015653609 0)
(0.010172443 -0.015039059 0)
(0.012234545 -0.014281351 0)
(0.014180436 -0.013387361 0)
(0.015991521 -0.012365225 0)
(0.017650433 -0.011224286 0)
(0.019141206 -0.0099750206 0)
(0.020449424 -0.0086289538 0)
(0.02156236 -0.0071985713 0)
(0.022469107 -0.0056972148 0)
(0.023160687 -0.0041389709 0)
(0.023630145 -0.002538549 0)
(0.023872628 -0.00091115196 0)
(0.023885444 0.00072766179 0)
(0.0236681 0.0023621228 0)
(0.023222319 0.0039764008 0)
(0.022552044 0.00555476 0)
(0.021663408 0.0070817172 0)
(0.020564692 0.0085422013 0)
(0.019266256 0.0099217126 0)
(0.017780448 0.01120648 0)
(0.016121494 0.012383611 0)
(0.014305362 0.013441239 0)
(0.012349609 0.014368657 0)
(0.01027321 0.015156441 0)
(0.0080963728 0.015796561 0)
(0.0058403276 0.016282474 0)
(0.0035271187 0.016609204 0)
(0.0011793762 0.016773401 0)
(-0.0011799145 0.016773378 0)
(-0.0035276496 0.016609137 0)
(-0.0058408443 0.016282364 0)
(-0.0080968685 0.01579641 0)
(-0.010273679 0.015156253 0)
(-0.012350045 0.014368435 0)
(-0.014305762 0.013440987 0)
(-0.016121855 0.012383334 0)
(-0.017780766 0.011206182 0)
(-0.01926653 0.0099213986 0)
(-0.020564922 0.0085418749 0)
(-0.021663594 0.0070813818 0)
(-0.022552186 0.0055544184 0)
(-0.023222418 0.0039760551 0)
(-0.023668156 0.0023617747 0)
(-0.023885458 0.00072731261 0)
(-0.023872599 -0.00091150111 0)
(-0.023630073 -0.002538897 0)
(-0.023160573 -0.0041393165 0)
(-0.02246895 -0.0056975563 0)
(-0.021562159 -0.0071989064 0)
(-0.020449178 -0.0086292799 0)
(-0.019140916 -0.0099753343 0)
(-0.0176501 -0.011224584 0)
(-0.015991145 -0.012365502 0)
(-0.014180021 -0.013387612 0)
(-0.012234093 -0.014281574 0)
(-0.010171959 -0.015039247 0)
(-0.0080132762 -0.01565376 0)
(-0.0057785793 -0.016119554 0)
(-0.0034890913 -0.016432426 0)
(-0.0011665311 -0.016589557 0)
(0.0012559006 -0.019003504 0)
(0.0037551938 -0.018823441 0)
(0.0062188834 -0.018464963 0)
(0.0086235947 -0.0179313 0)
(0.010946487 -0.017227273 0)
(0.013165463 -0.016359252 0)
(0.015259371 -0.015335115 0)
(0.017208198 -0.014164189 0)
(0.018993264 -0.012857183 0)
(0.020597391 -0.011426098 0)
(0.022005072 -0.0098841444 0)
(0.02320262 -0.0082456253 0)
(0.024178307 -0.0065258257 0)
(0.024922476 -0.0047408814 0)
(0.025427652 -0.0029076401 0)
(0.025688616 -0.0010435131 0)
(0.025702471 0.00083368235 0)
(0.025468682 0.0027058876 0)
(0.024989102 0.0045549744 0)
(0.024267962 0.0063629221 0)
(0.023311853 0.008111998 0)
(0.022129676 0.0097849402 0)
(0.020732569 0.01136514 0)
(0.019133809 0.012836822 0)
(0.017348697 0.014185217 0)
(0.015394411 0.01539673 0)
(0.013289843 0.016459092 0)
(0.011055412 0.017361506 0)
(0.0087128641 0.018094772 0)
(0.0062850527 0.018651394 0)
(0.0037957056 0.01902567 0)
(0.0012691836 0.01921376 0)
(-0.00126977 0.019213733 0)
(-0.0037962837 0.019025591 0)
(-0.0062856143 0.018651265 0)
(-0.0087134017 0.018094596 0)
(-0.011055918 0.017361286 0)
(-0.013290313 0.016458833 0)
(-0.01539484 0.015396437 0)
(-0.017349081 0.014184897 0)
(-0.019134146 0.012836479 0)
(-0.020732857 0.01136478 0)
(-0.022129917 0.0097845679 0)
(-0.023312047 0.0081116171 0)
(-0.024268109 0.0063625358 0)
(-0.024989203 0.0045545848 0)
(-0.025468739 0.0027054962 0)
(-0.025702484 0.00083329028 0)
(-0.025688587 -0.0010439051 0)
(-0.025427579 -0.0029080314 0)
(-0.024922359 -0.0047412709 0)
(-0.024178144 -0.0065262119 0)
(-0.023202411 -0.0082460058 0)
(-0.022004815 -0.0098845163 0)
(-0.020597086 -0.011426458 0)
(-0.018992911 -0.012857525 0)
(-0.017207799 -0.014164509 0)
(-0.015258926 -0.015335407 0)
(-0.013164978 -0.01635951 0)
(-0.010945965 -0.017227493 0)
(-0.0086230419 -0.017931477 0)
(-0.0062183066 -0.018465092 0)
(-0.0037546005 -0.01882352 0)
(-0.001255299 -0.019003531 0)
(0.001352843 -0.021601808 0)
(0.004045042 -0.021397105 0)
(0.0066988809 -0.020989574 0)
(0.0092891763 -0.020382892 0)
(0.011791321 -0.019582539 0)
(0.014181511 -0.018595765 0)
(0.016436962 -0.017431529 0)
(0.01853612 -0.016100441 0)
(0.020458868 -0.014614678 0)
(0.022186709 -0.012987892 0)
(0.023702949 -0.011235102 0)
(0.024992856 -0.0093725704 0)
(0.026043807 -0.0074176739 0)
(0.026845411 -0.0053887524 0)
(0.027389622 -0.0033049528 0)
(0.027670822 -0.00118606 0)
(0.027685892 0.00094768068 0)
(0.027434249 0.0030757509 0)
(0.026917878 0.0051775525 0)
(0.026141323 0.0072326078 0)
(0.025111666 0.0092207645 0)
(0.023838477 0.011122403 0)
(0.022333736 0.012918643 0)
(0.020611731 0.014591551 0)
(0.018688933 0.016124333 0)
(0.016583837 0.017501529 0)
(0.014316789 0.018709191 0)
(0.011909789 0.019735037 0)
(0.0093862648 0.020568605 0)
(0.0067708442 0.021201368 0)
(0.0040890989 0.021626844 0)
(0.001367285 0.021840664 0)
(-0.0013679279 0.021840633 0)
(-0.0040897321 0.021626752 0)
(-0.0067714582 0.021201217 0)
(-0.0093868509 0.020568398 0)
(-0.011910339 0.019734781 0)
(-0.014317297 0.01870889 0)
(-0.016584297 0.017501191 0)
(-0.018689343 0.016123964 0)
(-0.020612088 0.014591158 0)
(-0.022334039 0.012918233 0)
(-0.023838728 0.011121981 0)
(-0.025111865 0.0092203352 0)
(-0.026141473 0.0072321745 0)
(-0.026917981 0.0051771173 0)
(-0.027434307 0.0030753152 0)
(-0.027685905 0.00094724487 0)
(-0.027670792 -0.0011864958 0)
(-0.027389548 -0.0033053884 0)
(-0.026845291 -0.0053891874 0)
(-0.02604364 -0.007418107 0)
(-0.02499264 -0.0093729995 0)
(-0.023702682 -0.011235523 0)
(-0.022186389 -0.012988302 0)
(-0.020458495 -0.01461507 0)
(-0.018535694 -0.016100809 0)
(-0.016436485 -0.017431866 0)
(-0.014180987 -0.018596065 0)
(-0.011790755 -0.019582795 0)
(-0.0092885745 -0.020383098 0)
(-0.0066982513 -0.020989725 0)
(-0.0040443933 -0.021397197 0)
(-0.0013521846 -0.021601839 0)
(0.0014609329 -0.024402654 0)
(0.0043682161 -0.024171384 0)
(0.0072340635 -0.023710965 0)
(0.010031274 -0.023025554 0)
(0.01273327 -0.02212135 0)
(0.015314343 -0.021006545 0)
(0.01774989 -0.019691271 0)
(0.020016641 -0.018187523 0)
(0.022092876 -0.016509066 0)
(0.023958634 -0.014671329 0)
(0.0255959 -0.012691284 0)
(0.026988781 -0.010587309 0)
(0.02812366 -0.0083790315 0)
(0.028989331 -0.006087167 0)
(0.029577116 -0.0037333369 0)
(0.029880955 -0.00133988 0)
(0.029897474 0.0010703476 0)
(0.029626038 0.0034741817 0)
(0.029068771 0.005848367 0)
(0.028230559 0.0081697815 0)
(0.027119023 0.010415666 0)
(0.025744468 0.012563861 0)
(0.024119807 0.014593034 0)
(0.022260446 0.016482921 0)
(0.020184153 0.018214543 0)
(0.017910892 0.019770425 0)
(0.015462631 0.021134797 0)
(0.012863129 0.022293778 0)
(0.010137697 0.023235538 0)
(0.0073129439 0.023950436 0)
(0.0044165059 0.024431142 0)
(0.0014767597 0.024672719 0)
(-0.0014774686 0.024672682 0)
(-0.0044172033 0.024431034 0)
(-0.0073136189 0.02395026 0)
(-0.010138339 0.023235297 0)
(-0.012863729 0.02229348 0)
(-0.015463182 0.021134448 0)
(-0.017911388 0.019770034 0)
(-0.020184591 0.018214118 0)
(-0.022260823 0.016482472 0)
(-0.024120124 0.014592569 0)
(-0.025744727 0.012563385 0)
(-0.027119227 0.010415185 0)
(-0.028230711 0.008169299 0)
(-0.029068875 0.0058478851 0)
(-0.029626095 0.003473701 0)
(-0.029897487 0.0010698678 0)
(-0.029880924 -0.0013403599 0)
(-0.029577042 -0.0037338176 0)
(-0.028989211 -0.0060876489 0)
(-0.028123491 -0.0083795138 0)
(-0.02698856 -0.01058779 0)
(-0.025595624 -0.01269176 0)
(-0.0239583 -0.014671794 0)
(-0.022092482 -0.016509514 0)
(-0.020016186 -0.018187947 0)
(-0.017749377 -0.019691662 0)
(-0.015313776 -0.021006893 0)
(-0.012732653 -0.022121647 0)
(-0.010030615 -0.023025794 0)
(-0.0072333725 -0.023711141 0)
(-0.0043675027 -0.024171491 0)
(-0.0014602081 -0.024402691 0)
(0.0015855887 -0.027432317 0)
(0.0047409181 -0.0271723 0)
(0.007851261 -0.026654656 0)
(0.010887087 -0.025884063 0)
(0.013819545 -0.024867496 0)
(0.016620732 -0.023614176 0)
(0.019263945 -0.022135503 0)
(0.021723934 -0.020444974 0)
(0.023977139 -0.018558074 0)
(0.026001909 -0.016492161 0)
(0.027778712 -0.014266323 0)
(0.029290322 -0.011901224 0)
(0.030521982 -0.0094189293 0)
(0.031461552 -0.0068427185 0)
(0.032099629 -0.0041968851 0)
(0.032429643 -0.0015065226 0)
(0.032447933 0.0012026972 0)
(0.032153793 0.0039047576 0)
(0.031549504 0.0065735369 0)
(0.030640335 0.0091830585 0)
(0.029434518 0.011707747 0)
(0.027943198 0.014122693 0)
(0.026180349 0.016403911 0)
(0.02416266 0.018528609 0)
(0.02190939 0.020475438 0)
(0.019442192 0.022224734 0)
(0.016784902 0.023758751 0)
(0.013963312 0.025061867 0)
(0.011004906 0.026120764 0)
(0.0079385872 0.026924594 0)
(0.0047943775 0.027465103 0)
(0.0016031092 0.027736734 0)
(-0.0016038953 0.027736691 0)
(-0.00479515 0.027464976 0)
(-0.007939333 0.026924387 0)
(-0.011005613 0.026120483 0)
(-0.013963969 0.025061519 0)
(-0.016785502 0.023758346 0)
(-0.019442727 0.022224282 0)
(-0.021909857 0.02047495 0)
(-0.024163058 0.018528097 0)
(-0.026180679 0.016403383 0)
(-0.027943463 0.014122157 0)
(-0.029434724 0.011707211 0)
(-0.030640486 0.0091825247 0)
(-0.031549605 0.0065730074 0)
(-0.032153848 0.003904232 0)
(-0.032447945 0.001202174 0)
(-0.032429614 -0.0015070459 0)
(-0.032099556 -0.0041974106 0)
(-0.031461434 -0.006843248 0)
(-0.030521814 -0.009419463 0)
(-0.029290099 -0.011901761 0)
(-0.027778429 -0.014266858 0)
(-0.026001561 -0.016492689 0)
(-0.023976723 -0.018558586 0)
(-0.02172345 -0.020445461 0)
(-0.019263392 -0.022135955 0)
(-0.016620115 -0.02361458 0)
(-0.013818871 -0.024867843 0)
(-0.010886363 -0.025884344 0)
(-0.0078504987 -0.026654862 0)
(-0.0047401293 -0.027172426 0)
(-0.0015847864 -0.027432359 0)
(0.0017353374 -0.030730624 0)
(0.0051886448 -0.030439299 0)
(0.0085926956 -0.029859333 0)
(0.011915158 -0.028995974 0)
(0.01512445 -0.027857045 0)
(0.018190025 -0.02645289 0)
(0.021082663 -0.024796296 0)
(0.023774735 -0.022902399 0)
(0.02624047 -0.020788565 0)
(0.028456194 -0.018474255 0)
(0.030400557 -0.015980865 0)
(0.032054736 -0.013331549 0)
(0.033402616 -0.010551027 0)
(0.03443094 -0.0076653674 0)
(0.035129442 -0.0047017633 0)
(0.035490945 -0.0016882973 0)
(0.03551144 0.0013463073 0)
(0.035190137 0.0043729413 0)
(0.034529497 0.0073623745 0)
(0.033535239 0.010285531 0)
(0.032216318 0.013113774 0)
(0.030584873 0.015819198 0)
(0.028656146 0.018374927 0)
(0.026448355 0.020755408 0)
(0.023982547 0.022936698 0)
(0.021282395 0.024896743 0)
(0.018373983 0.026615633 0)
(0.015285543 0.028075836 0)
(0.012047177 0.029262409 0)
(0.0086905468 0.030163177 0)
(0.0052485488 0.030768877 0)
(0.0017549733 0.03107327 0)
(-0.0017558497 0.03107322 0)
(-0.0052494091 0.030768728 0)
(-0.0086913754 0.030162935 0)
(-0.01204796 0.02926208 0)
(-0.015286267 0.028075429 0)
(-0.018374637 0.026615161 0)
(-0.021282973 0.024896219 0)
(-0.023983044 0.022936136 0)
(-0.026448772 0.020754821 0)
(-0.028656485 0.018374329 0)
(-0.03058514 0.015818598 0)
(-0.032216519 0.013113178 0)
(-0.033535383 0.010284944 0)
(-0.034529591 0.0073617975 0)
(-0.035190187 0.0043723722 0)
(-0.035511451 0.0013457427 0)
(-0.035490917 -0.0016888619 0)
(-0.035129374 -0.0047023325 0)
(-0.034430828 -0.0076659446 0)
(-0.033402453 -0.010551614 0)
(-0.032054516 -0.013332145 0)
(-0.030400272 -0.015981465 0)
(-0.028455836 -0.018474852 0)
(-0.026240035 -0.02078915 0)
(-0.02377422 -0.02290296 0)
(-0.021082067 -0.024796819 0)
(-0.018189354 -0.02645336 0)
(-0.015123709 -0.02785745 0)
(-0.011914359 -0.028996302 0)
(-0.0085918504 -0.029859575 0)
(-0.005187768 -0.030439447 0)
(-0.0017344445 -0.030730673 0)
(0.0019224731 -0.034357873 0)
(0.0057481583 -0.034032101 0)
(0.0095192447 -0.033383565 0)
(0.013199898 -0.032418143 0)
(0.016755115 -0.031144596 0)
(0.020151051 -0.029574508 0)
(0.023355331 -0.027722198 0)
(0.026337359 -0.025604612 0)
(0.0290686 -0.023241193 0)
(0.031522855 -0.020653721 0)
(0.033676507 -0.017866137 0)
(0.035508748 -0.01490434 0)