/*--------------------------------*- C++ -*----------------------------------*\
| =========                 |                                                 |
| \\      /  F ield         | OpenFOAM: The Open Source CFD Toolbox           |
|  \\    /   O peration     | Version:  2306                                  |
|   \\  /    A nd           | Website:  www.openfoam.com                      |
|    \\/     M anipulation  |                                                 |
\*---------------------------------------------------------------------------*/
FoamFile
{
    version     2.0;
    format      ascii;
    arch        "LSB;label=32;scalar=64";
    class       surfaceScalarField;
    location    "0.36";
    object      phi;
}
// * * * * * * * * * * * * * * * * * * * * * * * * * * * * * * * * * * * * * //

dimensions      [0 3 -1 0 0 0 0];

oriented        oriented;

internalField   nonuniform List<scalar> 
12640
(
2.7600189e-06
6.2294043e-06
2.9526823e-06
6.0468247e-06
3.1315122e-06
5.8608895e-06
3.2970174e-06
5.6722189e-06
3.4497014e-06
5.4813826e-06
3.5900621e-06
5.288904e-06
3.7185885e-06
5.0952613e-06
3.8357597e-06
4.9008941e-06
3.9420432e-06
4.7062026e-06
4.0378955e-06
4.5115524e-06
4.1237599e-06
4.3172772e-06
4.2000668e-06
4.1236796e-06
4.2672331e-06
3.9310351e-06
4.3256631e-06
3.7395933e-06
4.3757465e-06
3.5495797e-06
4.4178599e-06
3.3611979e-06
4.452367e-06
3.1746314e-06
4.4796181e-06
2.9900452e-06
4.4999492e-06
2.8075858e-06
4.5136853e-06
2.6273847e-06
4.5211376e-06
2.4495579e-06
4.5226059e-06
2.2742079e-06
4.518377e-06
2.1014256e-06
4.5087262e-06
1.9312886e-06
4.4939171e-06
1.7638645e-06
4.4742034e-06
1.5992107e-06
4.4498267e-06
1.4373784e-06
4.421019e-06
1.278405e-06
4.3880028e-06
1.1223227e-06
4.3509843e-06
9.6915909e-07
4.3101719e-06
8.1893539e-07
4.2657545e-06
6.7165994e-07
4.217914e-06
5.2734499e-07
4.1668313e-06
3.8599291e-07
4.1126522e-06
2.4759098e-07
4.0555737e-06
1.1215865e-07
3.995727e-06
-2.0311475e-08
3.9332404e-06
-1.4984698e-07
3.8682577e-06
-2.7647111e-07
3.8009094e-06
-4.0019084e-07
3.7313155e-06
-5.2102394e-07
3.6595912e-06
-6.3899099e-07
3.5858441e-06
-7.5411339e-07
3.5101763e-06
-8.6641464e-07
3.4326848e-06
-9.7591973e-07
3.3534591e-06
-1.0826525e-06
3.2725847e-06
-1.1866399e-06
3.1901421e-06
-1.2879062e-06
3.1062061e-06
-1.38648e-06
3.0208464e-06
-1.482385e-06
2.9341288e-06
-1.5756485e-06
2.8461144e-06
-1.6662954e-06
2.7568608e-06
-1.7543514e-06
2.6664204e-06
-1.8398402e-06
2.5748424e-06
-1.9227856e-06
2.4821723e-06
-2.0032108e-06
2.388453e-06
-2.0811371e-06
2.2937219e-06
-2.1565845e-06
2.1980152e-06
-2.2295727e-06
2.1013652e-06
-2.3001203e-06
2.003802e-06
-2.3682424e-06
1.9053524e-06
-2.4339555e-06
1.8060404e-06
-2.4972712e-06
1.7058884e-06
-2.5582028e-06
1.6049162e-06
-2.6167593e-06
1.503141e-06
-2.6729483e-06
1.4005795e-06
-2.7267759e-06
1.2972444e-06
-2.7782462e-06
1.1931479e-06
-2.8273611e-06
1.0883015e-06
-2.8741201e-06
9.8271286e-07
-2.9185205e-06
8.7639066e-07
-2.9605568e-06
7.6934119e-07
-3.0002232e-06
6.6156935e-07
-3.0375101e-06
5.5308084e-07
-3.0724091e-06
4.4387824e-07
-3.1049155e-06
3.3396607e-07
-3.1350336e-06
2.2334693e-07
-3.1627978e-06
1.1202432e-07
-3.1882893e-06
-3.2115759e-06
2.5013221e-06
6.0232402e-06
2.6937858e-06
5.8543609e-06
2.8729991e-06
5.6816763e-06
3.0394144e-06
5.5058035e-06
3.1934842e-06
5.3273129e-06
3.3356578e-06
5.1467305e-06
3.4663799e-06
4.9645396e-06
3.5860885e-06
4.7811855e-06
3.6952139e-06
4.597077e-06
3.7941782e-06
4.4125884e-06
3.8833928e-06
4.2280627e-06
3.9632595e-06
4.0438131e-06
4.0341685e-06
3.860126e-06
4.0964994e-06
3.6772623e-06
4.1506204e-06
3.4954589e-06
4.1968872e-06
3.3149308e-06
4.2356454e-06
3.1358737e-06
4.2672272e-06
2.958463e-06
4.2919549e-06
2.7828584e-06
4.3101383e-06
2.6092013e-06
4.3220761e-06
2.4376203e-06
4.3280551e-06
2.268229e-06
4.328353e-06
2.1011278e-06
4.3232346e-06
1.9364068e-06
4.312956e-06
1.7741434e-06
4.2977609e-06
1.6144062e-06
4.277886e-06
1.457253e-06
4.2535561e-06
1.3027349e-06
4.2249856e-06
1.1508934e-06
4.1923806e-06
1.0017643e-06
4.1559395e-06
8.5537643e-07
4.1158527e-06
7.1174635e-07
4.0722956e-06
5.7090227e-07
4.0254425e-06
4.3284562e-07
3.9754489e-06
2.9758506e-07
3.9224722e-06
1.6513607e-07
3.8667171e-06
3.5443491e-08
3.8082303e-06
-9.1360387e-08
3.7471966e-06
-2.1543695e-07
3.6837372e-06
-3.3673131e-07
3.6179716e-06
-4.5525862e-07
3.5500141e-06
-5.7103339e-07
3.4799728e-06
-6.8407172e-07
3.4079492e-06
-7.9439101e-07
3.3340407e-06
-9.0201125e-07
3.2583377e-06
-1.0069498e-06
3.1809267e-06
-1.1092284e-06
3.101888e-06
-1.2088683e-06
3.0212981e-06
-1.3058894e-06
2.9392277e-06
-1.4003143e-06
2.8557439e-06
-1.4921645e-06
2.7709099e-06
-1.5814608e-06
2.6847822e-06
-1.6682244e-06
2.597418e-06
-1.7524755e-06
2.5088664e-06
-1.8342345e-06
2.4191751e-06
-1.9135196e-06
2.3283885e-06
-1.9903505e-06
2.2365464e-06
-2.0647429e-06
2.1436873e-06
-2.1367135e-06
2.0498457e-06
-2.2062781e-06
1.9550521e-06
-2.2734494e-06
1.8593374e-06
-2.3382402e-06
1.7627273e-06
-2.4006617e-06
1.6652468e-06
-2.4607221e-06
1.5669169e-06
-2.5184298e-06
1.467759e-06
-2.5737903e-06
1.3677902e-06
-2.6268077e-06
1.2670277e-06
-2.6774836e-06
1.1654857e-06
-2.7258193e-06
1.0631773e-06
-2.7718116e-06
9.6011435e-07
-2.8154573e-06
8.5630724e-07
-2.8567494e-06
7.5176448e-07
-2.8956806e-06
6.4649576e-07
-2.9322412e-06
5.4050756e-07
-2.9664211e-06
4.3380674e-07
-2.9982146e-06
3.2640009e-07
-3.027627e-06
2.18293e-07
-3.0546906e-06
1.094912e-07
-3.0794873e-06
-3.1020847e-06
2.2588238e-06
5.8185688e-06
2.4504426e-06
5.662742e-06
2.6294018e-06
5.5027171e-06
2.7961002e-06
5.3391051e-06
2.9509401e-06
5.172473e-06
3.0943246e-06
5.0033457e-06
3.2266555e-06
4.8322087e-06
3.3483308e-06
4.6595101e-06
3.4597443e-06
4.4856633e-06
3.561284e-06
4.3110488e-06
3.6533298e-06
4.1360168e-06
3.7362548e-06
3.9608882e-06
3.810423e-06
3.785958e-06
3.8761891e-06
3.611496e-06
3.9338989e-06
3.4377489e-06
3.9838881e-06
3.2649415e-06
4.0264824e-06
3.0932791e-06
4.061998e-06
2.9229478e-06
4.0907402e-06
2.7541159e-06
4.1130048e-06
2.5869367e-06
4.1290767e-06
2.4215484e-06
4.1392318e-06
2.2580739e-06
4.1437353e-06
2.0966244e-06
4.1428431e-06
1.9372992e-06
4.136801e-06
1.7801851e-06
4.1258461e-06
1.625361e-06
4.110205e-06
1.4728943e-06
4.0900979e-06
1.3228417e-06
4.0657341e-06
1.1752575e-06
4.03731e-06
1.030188e-06
4.0050227e-06
8.876637e-07
3.9690524e-06
7.4771676e-07
3.9295784e-06
6.1037634e-07
3.8867704e-06
4.7565398e-07
3.840784e-06
3.4357083e-07
3.7917826e-06
2.1413714e-07
3.7398764e-06
8.7349663e-08
3.6852674e-06
-3.6751375e-08
3.6280434e-06
-1.5821295e-07
3.5683376e-06
-2.7702569e-07
3.506272e-06
-3.9319259e-07
3.4419602e-06
-5.0672139e-07
3.3755098e-06
-6.176215e-07
3.3070231e-06
-7.2590451e-07
3.2365963e-06
-8.3158415e-07
3.1643213e-06
-9.3467459e-07
3.0902836e-06
-1.0351908e-06
3.0145653e-06
-1.1331496e-06
2.9372427e-06
-1.228567e-06
2.8583882e-06
-1.3214602e-06
2.7780698e-06
-1.4118461e-06
2.6963511e-06
-1.4997424e-06
2.6132918e-06
-1.5851649e-06
2.5289478e-06
-1.6681317e-06
2.4433714e-06
-1.7486576e-06
2.3566117e-06
-1.82676e-06
2.2687142e-06
-1.9024526e-06
2.1797214e-06
-1.97575e-06
2.0896728e-06
-2.0466648e-06
1.9986042e-06
-2.1152097e-06
1.9065502e-06
-2.1813953e-06
1.8135415e-06
-2.2452319e-06
1.7196074e-06
-2.3067274e-06
1.6247741e-06
-2.3658889e-06
1.5290662e-06
-2.4227217e-06
1.4325056e-06
-2.4772297e-06
1.3351134e-06
-2.5294152e-06
1.2369077e-06
-2.5792784e-06
1.1379062e-06
-2.6268178e-06
1.038124e-06
-2.6720293e-06
9.3757546e-07
-2.7149085e-06
8.3627307e-07
-2.7554477e-06
7.3422972e-07
-2.7936377e-06
6.31456e-07
-2.8294671e-06
5.2796165e-07
-2.8629266e-06
4.2375622e-07
-2.894009e-06
3.188492e-07
-2.9227199e-06
2.1324848e-07
-2.94909e-06
1.06963e-07
-2.9732023e-06
-2.995122e-06
2.0318579e-06
5.6159701e-06
2.222052e-06
5.472548e-06
2.4001801e-06
5.3245892e-06
2.5665902e-06
5.1726951e-06
2.7216365e-06
5.0174263e-06
2.8656786e-06
4.859304e-06
2.9990756e-06
4.6988117e-06
3.1221878e-06
4.5363978e-06
3.2353729e-06
4.3724782e-06
3.3389851e-06
4.2074366e-06
3.4333747e-06
4.0416273e-06
3.5188851e-06
3.8753777e-06
3.5958547e-06
3.7089886e-06
3.664614e-06
3.5427367e-06
3.7254859e-06
3.3768766e-06
3.7787859e-06
3.2116417e-06
3.8248204e-06
3.0472445e-06
3.8638883e-06
2.8838799e-06
3.8962784e-06
2.721726e-06
3.9222716e-06
2.5609434e-06
3.9421403e-06
2.4016797e-06
3.9561469e-06
2.2440673e-06
3.9645457e-06
2.0882255e-06
3.9675817e-06
1.9342631e-06
3.9654919e-06
1.7822752e-06
3.9585042e-06
1.6323486e-06
3.9468383e-06
1.48456e-06
3.9307036e-06
1.3389764e-06
3.9103036e-06
1.1956573e-06
3.8858356e-06
1.054656e-06
3.8574849e-06
9.1601458e-07
3.8254296e-06
7.797724e-07
3.7898435e-06
6.4596249e-07
3.7508886e-06
5.1460885e-07
3.7087286e-06
3.8573077e-07
3.663504e-06
2.5936207e-07
3.6153587e-06
1.3549448e-07
3.5644502e-06
1.4157569e-08
3.5108853e-06
-1.046481e-07
3.4547965e-06
-2.209368e-07
3.3963016e-06
-3.3469805e-07
3.3355137e-06
-4.4593349e-07
3.2725392e-06
-5.5464722e-07
3.2074806e-06
-6.6084574e-07
3.1404335e-06
-7.6453702e-07
3.0714892e-06
-8.657305e-07
3.0007352e-06
-9.6443644e-07
2.9282518e-06
-1.0606663e-06
2.8541167e-06
-1.1544324e-06
2.7784032e-06
-1.2457463e-06
2.7011803e-06
-1.3346228e-06
2.6225114e-06
-1.4210734e-06
2.5424581e-06
-1.5051119e-06
2.4610777e-06
-1.5867508e-06
2.3784236e-06
-1.6660037e-06
2.294546e-06
-1.7428823e-06
2.2094919e-06
-1.8173986e-06
2.123305e-06
-1.889563e-06
2.0360272e-06
-1.9593869e-06
1.9476961e-06
-2.0268786e-06
1.8583476e-06
-2.0920466e-06
1.7680146e-06
-2.1548991e-06
1.6767283e-06
-2.2154407e-06
1.5845163e-06
-2.273677e-06
1.4914053e-06
-2.3296114e-06
1.3974212e-06
-2.3832449e-06
1.3025852e-06
-2.4345793e-06
1.2069186e-06
-2.4836115e-06
1.1104405e-06
-2.5303396e-06
1.0131695e-06
-2.5747589e-06
9.1512177e-07
-2.6168609e-06
8.1631257e-07
-2.6566385e-06
7.1675671e-07
-2.6940814e-06
6.1646712e-07
-2.729178e-06
5.1545718e-07
-2.7619162e-06
4.1373808e-07
-2.7922904e-06
3.1132201e-07
-2.8203036e-06
2.0821953e-07
-2.8459882e-06
1.0444291e-07
-2.8694249e-06
-2.8906792e-06
1.819751e-06
5.4159564e-06
2.0080033e-06
5.2842959e-06
2.1847815e-06
5.1478109e-06
2.3503861e-06
5.0070906e-06
2.5051264e-06
4.8626862e-06
2.6493183e-06
4.7151121e-06
2.7832824e-06
4.5648476e-06
2.9073411e-06
4.4123391e-06
3.0218177e-06
4.2580016e-06
3.1270342e-06
4.10222e-06
3.2233105e-06
3.9453513e-06
3.3109624e-06
3.7877256e-06
3.3903024e-06
3.6296486e-06
3.4616366e-06
3.4714024e-06
3.525266e-06
3.3132474e-06
3.5814858e-06
3.1554223e-06
3.6305825e-06
2.9981473e-06
3.6728378e-06
2.8416247e-06
3.708525e-06
2.6860386e-06
3.737909e-06
2.5315592e-06
3.7612487e-06
2.37834e-06
3.7787945e-06
2.2265218e-06
3.7907876e-06
2.0762323e-06
3.7974641e-06
1.9275867e-06
3.7990493e-06
1.7806897e-06
3.7957633e-06
1.6356347e-06
3.7878172e-06
1.4925062e-06
3.775414e-06
1.3513797e-06
3.7587497e-06
1.2123215e-06
3.7380142e-06
1.0753917e-06
3.7133882e-06
9.4064017e-07
3.6850455e-06
8.0811504e-07
3.6531559e-06
6.7785173e-07
3.6178754e-06
5.4988941e-07
3.5793549e-06
4.2425141e-07
3.5377515e-06
3.0096531e-07
3.4931992e-06
1.8004681e-07
3.4458393e-06
6.1517187e-08
3.3957959e-06
-5.4604156e-08
3.3431883e-06
-1.683295e-07
3.2881362e-06
-2.7964601e-07
3.2307505e-06
-3.8854793e-07
3.1711378e-06
-4.9503392e-07
3.1093976e-06
-5.9910591e-07
3.0456274e-06
-7.0076667e-07
2.9799176e-06
-8.000208e-07
2.9123547e-06
-8.9687337e-07
2.8430203e-06
-9.9133217e-07
2.771992e-06
-1.0834041e-06
2.6993435e-06
-1.1730979e-06
2.6251437e-06
-1.260423e-06
2.5494579e-06
-1.3453875e-06
2.4723479e-06
-1.4280014e-06
2.393872e-06
-1.5082751e-06
2.3140848e-06
-1.5862165e-06
2.2330377e-06
-1.661835e-06
2.1507784e-06
-1.7351396e-06
2.0673535e-06
-1.806138e-06
1.9828048e-06
-1.8748378e-06
1.8971723e-06
-1.9412461e-06
1.8104934e-06
-2.0053681e-06
1.7228025e-06
-2.0672084e-06
1.6341329e-06
-2.1267711e-06
1.5445143e-06
-2.1840584e-06
1.4539753e-06
-2.239072e-06
1.3625427e-06
-2.2918123e-06
1.2702401e-06
-2.3422767e-06
1.1770922e-06
-2.3904639e-06
1.083119e-06
-2.4363666e-06
9.8834161e-07
-2.4799811e-06
8.9277831e-07
-2.5212975e-06
7.9644717e-07
-2.5603071e-06
6.9936441e-07
-2.5969985e-06
6.0154627e-07
-2.6313595e-06
5.0300762e-07
-2.6633779e-06
4.0376311e-07
-2.6930457e-06
3.0382652e-07
-2.7203671e-06
2.0321235e-07
-2.7453735e-06
1.0193284e-07
-2.7681455e-06
-2.7887466e-06
1.6218296e-06
5.2189779e-06
1.8076811e-06
5.0984442e-06
1.9826464e-06
4.972846e-06
2.1469799e-06
4.8427569e-06
2.3009486e-06
4.7087174e-06
2.4448284e-06
4.5712321e-06
2.5789022e-06
4.430774e-06
2.7034561e-06
4.2877849e-06
2.8187807e-06
4.1426773e-06
2.9251662e-06
3.9958345e-06
3.0229034e-06
3.8476138e-06
3.1122815e-06
3.6983476e-06
3.1935866e-06
3.5483435e-06
3.2671019e-06
3.3978871e-06
3.3331065e-06
3.2472426e-06
3.3918744e-06
3.0966541e-06
3.4436747e-06
2.9463471e-06
3.4887704e-06
2.796529e-06
3.5274183e-06
2.6473907e-06
3.5598697e-06
2.4991081e-06
3.5863683e-06
2.3518415e-06
3.6071518e-06
2.2057383e-06
3.6224503e-06
2.0609337e-06
3.6324884e-06
1.9175489e-06
3.637482e-06
1.775696e-06
3.6376414e-06
1.6354754e-06
3.6331684e-06
1.4969791e-06
3.6242615e-06
1.3602868e-06
3.6111059e-06
1.2254773e-06
3.5938861e-06
1.0926109e-06
3.5727762e-06
9.6175042e-07
3.5479506e-06
8.3294098e-07
3.5195637e-06
7.0623846e-07
3.487775e-06
5.8167825e-07
3.4527341e-06
4.592926e-07
3.4145848e-06
3.3911448e-07
3.3734655e-06
2.2116635e-07
3.3295081e-06
1.0547466e-07
3.2828431e-06
-7.9390475e-09
3.2335823e-06
-1.1906936e-07
3.1818446e-06
-2.2790792e-07
3.1277398e-06
-3.3444312e-07
3.0713725e-06
-4.3866705e-07
3.0128432e-06
-5.4057663e-07
2.9522467e-06
-6.4017039e-07
2.889674e-06
-7.3744792e-07
2.8252105e-06
-8.3240996e-07
2.7589385e-06
-9.2505969e-07
2.6909347e-06
-1.0154005e-06
2.6212735e-06
-1.1034366e-06
2.550024e-06
-1.1891734e-06
2.4772522e-06
-1.2726161e-06
2.4030214e-06
-1.3537705e-06
2.3273892e-06
-1.4326428e-06
2.2504122e-06
-1.5092393e-06
2.1721418e-06
-1.5835651e-06
2.0926285e-06
-1.6556262e-06
2.0119187e-06
-1.7254278e-06
1.930056e-06
-1.7929753e-06
1.8470815e-06
-1.8582718e-06
1.7630342e-06
-1.9213205e-06
1.6779504e-06
-1.9821246e-06
1.5918644e-06
-2.0406852e-06
1.5048087e-06
-2.0970027e-06
1.4168128e-06
-2.1510764e-06
1.3279051e-06
-2.2029044e-06
1.2381122e-06
-2.2524841e-06
1.147459e-06
-2.2998099e-06
1.0559691e-06
-2.344877e-06
9.6366497e-07
-2.387677e-06
8.7056738e-07
-2.4282e-06
7.7669688e-07
-2.4664362e-06
6.8207094e-07
-2.5023726e-06
5.8670847e-07
-2.5359973e-06
4.9062627e-07
-2.5672959e-06
3.9384225e-07
-2.5962615e-06
2.9637177e-07
-2.6228968e-06
1.982312e-07
-2.647233e-06
9.9435677e-08
-2.6693496e-06
-2.6893106e-06
1.4374217e-06
5.0254266e-06
1.6204699e-06
4.9153962e-06
1.7932107e-06
4.800105e-06
1.9558574e-06
4.6801106e-06
2.108636e-06
4.5559385e-06
2.2517849e-06
4.4280833e-06
2.3855506e-06
4.2970082e-06
2.5101866e-06
4.1631494e-06
2.6259499e-06
4.0269138e-06
2.7331018e-06
3.8886827e-06
2.8319046e-06
3.7488112e-06
2.9226208e-06
3.6076312e-06
3.0055121e-06
3.465452e-06
3.0808389e-06
3.3225603e-06
3.1488583e-06
3.1792232e-06
3.2098247e-06
3.035688e-06
3.2639877e-06
2.8921837e-06
3.311594e-06
2.748923e-06
3.3528832e-06
2.6061013e-06
3.3880927e-06
2.4638989e-06
3.4174514e-06
2.322483e-06
3.441184e-06
2.1820056e-06
3.4595102e-06
2.0426075e-06
3.4726418e-06
1.9044173e-06
3.4807857e-06
1.7675521e-06
3.4841417e-06
1.6321193e-06
3.4829056e-06
1.4982155e-06
3.4772617e-06
1.3659305e-06
3.4673967e-06
1.2353421e-06
3.4534823e-06
1.106526e-06
3.4356899e-06
9.7954277e-07
3.414178e-06
8.5445256e-07
3.3891153e-06
7.3130129e-07
3.3606434e-06
6.1015043e-07
3.3289084e-06
4.9102728e-07
3.2940529e-06
3.7397017e-07
3.2562093e-06
2.590098e-07
3.2155098e-06
1.4617407e-07
3.172086e-06
3.5484701e-08
3.126038e-06
-7.3020984e-08
3.0774879e-06
-1.7935767e-07
3.0265432e-06
-2.8349843e-07
2.9733075e-06
-3.8543134e-07
2.9178796e-06
-4.8514914e-07
2.8603539e-06
-5.8264476e-07
2.8008202e-06
-6.7791376e-07
2.7393635e-06
-7.7095377e-07
2.6760656e-06
-8.6176177e-07
2.6110036e-06
-9.5033874e-07
2.5442517e-06
-1.0366849e-06
2.4758796e-06
-1.120801e-06
2.4059525e-06
-1.2026893e-06
2.3345343e-06
-1.2823521e-06
2.2616846e-06
-1.359793e-06
2.187459e-06
-1.4350135e-06
2.1119117e-06
-1.5080177e-06
2.0350928e-06
-1.5788072e-06
1.9570496e-06
-1.6473851e-06
1.8778274e-06
-1.7137531e-06
1.7974682e-06
-1.7779128e-06
1.716013e-06
-1.8398654e-06
1.6334996e-06
-1.8996107e-06
1.5499626e-06
-1.9571483e-06
1.4654361e-06
-2.0124764e-06
1.3799527e-06
-2.0655922e-06
1.293541e-06
-2.1164931e-06
1.2062304e-06
-2.1651737e-06
1.1180478e-06
-2.2116272e-06
1.029018e-06
-2.2558468e-06
9.3916478e-07
-2.2978241e-06
8.4851231e-07
-2.3375472e-06
7.5708136e-07
-2.3750054e-06
6.6489347e-07
-2.4101847e-06
5.7196862e-07
-2.4430718e-06
4.7832612e-07
-2.4736537e-06
3.839855e-07
-2.5019205e-06
2.8896473e-07
-2.5278761e-06
1.9328202e-07
-2.5515504e-06
9.6954951e-08
-2.5730229e-06
-2.5923556e-06
1.2658631e-06
4.8356391e-06
1.4457566e-06
4.7355028e-06
1.6159116e-06
4.6299503e-06
1.7765014e-06
4.5195208e-06
1.9277155e-06
4.4047246e-06
2.069756e-06
4.2860424e-06
2.2028359e-06
4.1639283e-06
2.327176e-06
4.0388093e-06
2.4430034e-06
3.9110863e-06
2.5505507e-06
3.7811353e-06
2.650053e-06
3.6493091e-06
2.7417472e-06
3.5159369e-06
2.8258716e-06
3.3813278e-06
2.9026634e-06
3.2457686e-06
2.9723591e-06
3.1095273e-06
3.0351936e-06
2.9728536e-06
3.0913982e-06
2.8359792e-06
3.1412018e-06
2.6991195e-06
3.1848297e-06
2.5624732e-06
3.2225022e-06
2.4262265e-06
3.254436e-06
2.2905489e-06
3.2808426e-06
2.1555989e-06
3.301929e-06
2.0215212e-06
3.3178972e-06
1.888449e-06
3.3289423e-06
1.7565067e-06
3.3352563e-06
1.6258055e-06
3.3370238e-06
1.4964478e-06
3.3344259e-06
1.3685287e-06
3.3276346e-06
1.2421333e-06
3.3168211e-06
1.1173392e-06
3.3021481e-06
9.9421597e-07
3.283772e-06
8.7282847e-07
3.2618418e-06
7.5323126e-07
3.2365102e-06
6.3548183e-07
3.2079215e-06
5.196161e-07
3.1762005e-06
4.0569084e-07
3.141486e-06
2.9372473e-07
3.1039012e-06
1.837586e-07
3.0635671e-06
7.58188e-08
3.0206059e-06
-3.0059592e-08
2.9751187e-06
-1.3387083e-07
2.927215e-06
-2.3559458e-07
2.8769974e-06
-3.3521342e-07
2.8245633e-06
-4.3271497e-07
2.7700052e-06
-5.2808675e-07
2.7134127e-06
-6.2132122e-07
2.6548702e-06
-7.1241075e-07
2.5944586e-06
-8.0135062e-07
2.5322557e-06
-8.881354e-07
2.468334e-06
-9.7276318e-07
2.4027632e-06
-1.0552304e-06
2.3356109e-06
-1.1355365e-06
2.2669391e-06
-1.2136808e-06
2.1968085e-06
-1.2896622e-06
2.1252756e-06
-1.3634809e-06
2.0523949e-06
-1.4351368e-06
1.9782173e-06
-1.5046295e-06
1.9027912e-06
-1.5719587e-06
1.8261627e-06
-1.6371245e-06
1.7483754e-06
-1.7001257e-06
1.6694706e-06
-1.7609605e-06
1.5894872e-06
-1.8196275e-06
1.5084633e-06
-1.8761238e-06
1.4264321e-06
-1.9304453e-06
1.3434282e-06
-1.982589e-06
1.2594833e-06
-2.0325479e-06
1.174626e-06
-2.0803164e-06
1.0888859e-06
-2.1258872e-06
1.0022899e-06
-2.169251e-06
9.1486378e-07
-2.2103979e-06
8.2663294e-07
-2.2493161e-06
7.3762005e-07
-2.2859924e-06
6.4784889e-07
-2.3204137e-06
5.5734112e-07
-2.3525646e-06
4.6611845e-07
-2.3824307e-06
3.7420191e-07
-2.4100039e-06
2.816121e-07
-2.4352863e-06
1.8836928e-07
-2.4583073e-06
9.4492392e-08
-2.479146e-06
-2.4978638e-06
1.1064996e-06
4.6499014e-06
1.2829361e-06
4.5590665e-06
1.450189e-06
4.4626972e-06
1.6083967e-06
4.3613135e-06
1.7577127e-06
4.2554081e-06
1.8983069e-06
4.1454483e-06
2.0303597e-06
4.0318758e-06
2.1540614e-06
3.9151074e-06
2.2696112e-06
3.7955363e-06
2.3772136e-06
3.673533e-06
2.4770778e-06
3.5494448e-06
2.5694168e-06
3.4235982e-06
2.6544452e-06
3.2962992e-06
2.7323795e-06
3.1678344e-06
2.8034351e-06
3.0384718e-06
2.8678278e-06
2.9084611e-06
2.9257711e-06
2.7780356e-06
2.9774775e-06
2.6474131e-06
3.0231553e-06
2.5167954e-06
3.0630116e-06
2.3863699e-06
3.0972491e-06
2.2563118e-06
3.1260662e-06
2.1267818e-06
3.1496581e-06
1.9979289e-06
3.1682153e-06
1.8698922e-06
3.1819237e-06
1.7427984e-06
3.1909648e-06
1.6167646e-06
3.1955148e-06
1.4918978e-06
3.1957457e-06
1.3682978e-06
3.1918244e-06
1.2460548e-06
3.1839125e-06
1.125251e-06
3.1721665e-06
1.0059617e-06
3.1567392e-06
8.8825591e-07
3.1377744e-06
7.7219649e-07
3.1154181e-06
6.5783841e-07
3.0898005e-06
5.4523335e-07
3.0610612e-06
4.3443023e-07
3.029326e-06
3.254598e-07
2.9947117e-06
2.1837315e-07
2.9573428e-06
1.1318745e-07
2.9173359e-06
9.9474336e-09
2.8747852e-06
-9.1319753e-08
2.8298036e-06
-1.9061283e-07
2.7824911e-06
-2.8790106e-07
2.7329426e-06
-3.831662e-07
2.6812503e-06
-4.7639425e-07
2.6275014e-06
-5.6757268e-07
2.5717807e-06
-6.5669006e-07
2.514168e-06
-7.4373764e-07
2.45474e-06
-8.2870741e-07
2.393569e-06
-9.1159254e-07
2.3307257e-06
-9.9238729e-07
2.2662762e-06
-1.0710872e-06
2.200284e-06
-1.1476883e-06
2.1328086e-06
-1.2221868e-06
2.0639079e-06
-1.2945804e-06
1.9936365e-06
-1.3648653e-06
1.9220457e-06
-1.4330387e-06
1.8491858e-06
-1.4990988e-06
1.775103e-06
-1.5630415e-06
1.6998417e-06
-1.6248646e-06
1.6234447e-06
-1.6845633e-06
1.5459516e-06
-1.7421344e-06
1.4674009e-06
-1.7975733e-06
1.3878293e-06
-1.8508742e-06
1.3072714e-06
-1.9020308e-06
1.2257592e-06
-1.9510361e-06
1.1433252e-06
-1.9978822e-06
1.059999e-06
-2.042561e-06
9.7580894e-07
-2.0850614e-06
8.907832e-07
-2.1253725e-06
8.0494838e-07
-2.1634808e-06
7.1832972e-07
-2.1993737e-06
6.3095151e-07
-2.2330357e-06
5.4283863e-07
-2.2644514e-06
4.540143e-07
-2.2936062e-06
3.6450086e-07
-2.3204903e-06
2.7432078e-07
-2.345106e-06
1.8349691e-07
-2.3674834e-06
9.2049806e-08
-2.3876994e-06
-2.4058136e-06
9.5868947e-07
4.4684531e-06
1.1314113e-06
4.3863447e-06
1.2954904e-06
4.2986182e-06
1.451031e-06
4.2057729e-06
1.5981556e-06
4.1082837e-06
1.7370023e-06
4.0066018e-06
1.8677215e-06
3.9011563e-06
1.9904762e-06
3.7923528e-06
2.1054374e-06
3.6805753e-06
2.2127839e-06
3.5661867e-06
2.3127005e-06
3.4495282e-06
2.4053767e-06
3.330922e-06
2.4910053e-06
3.2106706e-06
2.5697818e-06
3.0890583e-06
2.6419018e-06
2.9663516e-06
2.7075625e-06
2.8428001e-06
2.7669607e-06
2.7186377e-06
2.8202912e-06
2.5940823e-06
2.8677483e-06
2.4693384e-06
2.9095239e-06
2.3445944e-06
2.9458067e-06
2.2200288e-06
2.9767835e-06
2.095805e-06
3.0026374e-06
1.9720754e-06
3.0235477e-06
1.8489818e-06
3.0396906e-06
1.7266554e-06
3.0512374e-06
1.6052178e-06
3.0583562e-06
1.4847792e-06
3.0612104e-06
1.3654435e-06
3.059959e-06
1.247306e-06
3.0547567e-06
1.1304534e-06
3.0457535e-06
1.0149651e-06
3.0330943e-06
9.0091489e-07
3.0169225e-06
7.8836791e-07
2.9973753e-06
6.7738604e-07
2.9745796e-06
5.6802889e-07
2.9486697e-06
4.6034039e-07
2.9197627e-06
3.5436707e-07
2.8879848e-06
2.5015093e-07
2.8534431e-06
1.4772915e-07
2.8162554e-06
4.7135287e-08
2.7765245e-06
-5.1588722e-08
2.7343496e-06
-1.4843837e-07
2.6898304e-06
-2.4338193e-07
2.6430617e-06
-3.3639771e-07
2.5941335e-06
-4.2746603e-07
2.5431325e-06
-5.1657169e-07
2.4901408e-06
-6.0369885e-07
2.4352395e-06
-6.8883614e-07
2.3785021e-06
-7.7197011e-07
2.320003e-06
-8.5309303e-07
2.2598112e-06
-9.3219553e-07
2.1979933e-06
-1.0092688e-06
2.134612e-06
-1.0843071e-06
2.069727e-06
-1.1573023e-06
2.0033977e-06
-1.2282506e-06
1.9356775e-06
-1.2971451e-06
1.8666193e-06
-1.3639813e-06
1.7962728e-06
-1.4287525e-06
1.7246859e-06
-1.4914547e-06
1.6519041e-06
-1.5520822e-06
1.5779699e-06
-1.6106294e-06
1.5029249e-06
-1.6670892e-06
1.4268085e-06
-1.7214569e-06
1.3496578e-06
-1.7737238e-06
1.2715094e-06
-1.8238825e-06
1.1923971e-06
-1.8719234e-06
1.1123532e-06
-1.9178387e-06
1.0314097e-06
-1.9616173e-06
9.4959678e-07
-2.0032481e-06
8.669434e-07
-2.0427188e-06
7.8347699e-07
-2.0800149e-06
6.9922611e-07
-2.1151227e-06
6.1421652e-07
-2.1480259e-06
5.2847386e-07
-2.1787083e-06
4.4202336e-07
-2.2071555e-06
3.5488954e-07
-2.2333569e-06
2.6709675e-07
-2.2573137e-06
1.7866924e-07
-2.2790554e-06
8.9629718e-08
-2.2986601e-06
-2.3161838e-06
8.2180668e-07
4.2914897e-06
9.9059823e-07
4.217553e-06
1.1512711e-06
4.1379454e-06
1.3038989e-06
4.053145e-06
1.4485747e-06
3.963608e-06
1.5854078e-06
3.8697687e-06
1.7145211e-06
3.7720428e-06
1.8360511e-06
3.670823e-06
1.9501427e-06
3.5664837e-06
2.0569512e-06
3.4593783e-06
2.1566371e-06
3.3498421e-06
2.2493684e-06
3.2381904e-06
2.3353169e-06
3.1247223e-06
2.4146573e-06
3.0097178e-06
2.487567e-06
2.8934417e-06
2.5542252e-06
2.7761419e-06
2.6148116e-06
2.6580515e-06
2.6695055e-06
2.5393885e-06
2.718486e-06
2.4203577e-06
2.7619304e-06
2.3011502e-06
2.8000148e-06
2.1819443e-06
2.8329139e-06
2.0629062e-06
2.8607981e-06
1.9441908e-06
2.8838371e-06
1.825943e-06
2.9021956e-06
1.7082968e-06
2.9160365e-06
1.5913768e-06
2.9255185e-06
1.4752969e-06
2.9307968e-06
1.3601654e-06
2.9320232e-06
1.2460798e-06
2.9293447e-06
1.1331317e-06
2.9229056e-06
1.0214043e-06
2.9128449e-06
9.1097537e-07
2.8992979e-06
8.0191488e-07
2.8823959e-06
6.9428778e-07
2.8622692e-06
5.8815528e-07
2.8390383e-06
4.8357148e-07
2.8128214e-06
3.8058404e-07
2.7837394e-06
2.7923259e-07
2.7518921e-06
1.7957623e-07
2.717413e-06
8.1614473e-08
2.6803736e-06
-1.4549457e-08
2.6408884e-06
-1.0895326e-07
2.599053e-06
-2.0154609e-07
2.5549581e-06
-2.9230311e-07
2.5086935e-06
-3.8120174e-07
2.4603438e-06
-4.6822173e-07
2.4099902e-06
-5.5334538e-07
2.3577116e-06
-6.3655735e-07
2.3035831e-06
-7.1784158e-07
2.2476761e-06
-7.9718649e-07
2.1900606e-06
-8.7457951e-07
2.1308016e-06
-9.5001007e-07
2.0699623e-06
-1.0234678e-06
2.007604e-06
-1.0949438e-06
1.943783e-06
-1.16443e-06
1.8785551e-06
-1.2319177e-06
1.8119736e-06
-1.2973993e-06
1.7440881e-06
-1.360867e-06
1.674947e-06
-1.4223132e-06
1.6045959e-06
-1.4817313e-06
1.533079e-06
-1.5391128e-06
1.4604393e-06
-1.5944495e-06
1.3867155e-06
-1.6477334e-06
1.3119475e-06
-1.6989549e-06
1.2361708e-06
-1.7481056e-06
1.1594215e-06
-1.7951743e-06
1.0817345e-06
-1.8401511e-06
1.0031413e-06
-1.8830245e-06
9.2367355e-07
-1.9237804e-06
8.433623e-07
-1.9624073e-06
7.6223681e-07
-1.9988896e-06
6.8032589e-07
-2.0332116e-06
5.9765715e-07
-2.0653575e-06
5.142587e-07
-2.0953097e-06
4.3015621e-07
-2.1230534e-06
3.4537718e-07
-2.1485774e-06
2.5994665e-07
-2.1718832e-06
1.7389091e-07
-2.193e-06
8.7234257e-08
-2.2120035e-06
-2.2289495e-06
6.9524191e-07
4.1191677e-06
8.5992637e-07
4.0528687e-06
1.0169976e-06
3.980874e-06
1.1665025e-06
3.9036401e-06
1.3085069e-06
3.8216035e-06
1.4430935e-06
3.7351821e-06
1.5703603e-06
3.6447761e-06
1.6904176e-06
3.5507659e-06
1.8033877e-06
3.4535134e-06
1.9094019e-06
3.3533639e-06
2.0086002e-06
3.2506438e-06
2.1011285e-06
3.1456622e-06
2.1871388e-06
3.038712e-06
2.2667866e-06
2.9300699e-06
2.3402316e-06
2.8199966e-06
2.4076356e-06
2.7087382e-06
2.4691616e-06
2.5965251e-06
2.524974e-06
2.4835761e-06
2.5752375e-06
2.3700943e-06
2.6201155e-06
2.2562722e-06
2.6597713e-06
2.1422885e-06
2.6943668e-06
2.0283106e-06
2.724062e-06
1.9144957e-06
2.7490148e-06
1.8009901e-06
2.769381e-06
1.6879307e-06
2.7853132e-06
1.5754443e-06
2.7969616e-06
1.4636486e-06
2.8044739e-06
1.3526535e-06
2.807993e-06
1.2425603e-06
2.8076601e-06
1.1334649e-06
2.8036108e-06
1.0254533e-06
2.7959809e-06
9.1860573e-07
2.7848971e-06
8.1299845e-07
2.7704907e-06
7.0869409e-07
2.7528813e-06
6.057649e-07
2.7321849e-06
5.0426776e-07
2.7085223e-06
4.0424671e-07
2.681999e-06
3.0575592e-07
2.6527337e-06
2.0884186e-07
2.6208075e-06
1.1354029e-07
2.5863557e-06
1.9902908e-08
2.5494493e-06
-7.2047179e-08
2.5101889e-06
-1.6228575e-07
2.4686648e-06
-2.5077897e-07
2.4249641e-06
-3.3750075e-07
2.3791702e-06
-4.2242811e-07
2.331364e-06
-5.0553921e-07
2.2816216e-06
-5.8681509e-07
2.2300183e-06
-6.6623837e-07
2.1766249e-06
-7.4379314e-07
2.1215093e-06
-8.1946428e-07
2.0647375e-06
-8.9323811e-07
2.0063721e-06
-9.6510237e-07
1.9464736e-06
-1.0350453e-06
1.8850991e-06
-1.1030554e-06
1.8223045e-06
-1.1691231e-06
1.7581426e-06
-1.233237e-06
1.6926639e-06
-1.2953883e-06
1.6259166e-06
-1.3555668e-06
1.5579485e-06
-1.4137627e-06
1.4888026e-06
-1.469967e-06
1.4185225e-06
-1.5241695e-06
1.3471494e-06
-1.5763599e-06
1.2747225e-06
-1.6265286e-06
1.2012793e-06
-1.6746625e-06
1.1268573e-06
-1.7207522e-06
1.0514904e-06
-1.7647846e-06
9.7521343e-07
-1.8067469e-06
8.980588e-07
-1.8466261e-06
8.200583e-07
-1.8844067e-06
7.4124262e-07
-1.9200744e-06
6.6164206e-07
-1.9536112e-06
5.8128604e-07
-1.9850012e-06
5.002031e-07
-2.0142269e-06
4.1842219e-07
-2.0412719e-06
3.3597056e-07
-2.0661256e-06
2.5287539e-07
-2.0887884e-06
1.6916539e-07
-2.1092894e-06
8.4864858e-08
-2.1277028e-06
-2.1440847e-06
5.7840664e-07
3.9516095e-06
7.3884074e-07
3.8924345e-06
8.921498e-07
3.8275651e-06
1.0383548e-06
3.7574349e-06
1.1774971e-06
3.6824613e-06
1.309635e-06
3.6030442e-06
1.434843e-06
3.519568e-06
1.5532088e-06
3.4324001e-06
1.6648316e-06
3.3418904e-06
1.7698224e-06
3.2483732e-06
1.8682998e-06
3.1521664e-06
1.96039e-06
3.0535719e-06
2.046226e-06
2.9528761e-06
2.1259456e-06
2.8503503e-06
2.1996909e-06
2.7462515e-06
2.2676074e-06
2.6408216e-06
2.3298423e-06
2.5342905e-06
2.3865451e-06
2.4268731e-06
2.4378662e-06
2.3187732e-06
2.4839563e-06
2.210182e-06
2.5249663e-06
2.1012786e-06
2.5610458e-06
1.9922312e-06
2.5923433e-06
1.8831983e-06
2.6190068e-06
1.7743269e-06
2.641182e-06
1.6657554e-06
2.6590125e-06
1.5576138e-06
2.6726397e-06
1.4500213e-06
2.6822027e-06
1.3430904e-06
2.6878375e-06
1.2369255e-06
2.6896777e-06
1.1316245e-06
2.6878537e-06
1.0272772e-06
2.6824925e-06
9.2396683e-07
2.6737203e-06
8.2177077e-07
2.6616526e-06
7.2076162e-07
2.6464117e-06
6.2100594e-07
2.6281131e-06
5.2256633e-07
2.6068628e-06
4.2549669e-07
2.5827801e-06
3.2983889e-07
2.5559477e-06
2.3567405e-07
2.5264952e-06
1.4299263e-07
2.494497e-06
5.1901297e-08
2.4600566e-06
-3.7606914e-08
2.4232645e-06
-1.2549356e-07
2.3842082e-06
-2.117228e-07
2.3429738e-06
-2.9626615e-07
2.2996415e-06
-3.7909616e-07
2.2542921e-06
-4.6018951e-07
2.2070005e-06
-5.3952328e-07
2.1578398e-06
-6.1707772e-07
2.1068804e-06
-6.9283365e-07
2.0541901e-06
-7.6677366e-07
1.9998331e-06
-8.3888161e-07
1.9438727e-06
-9.0914218e-07
1.8863685e-06
-9.7754101e-07
1.8273786e-06
-1.0440652e-06
1.766957e-06
-1.1087016e-06
1.7051574e-06
-1.1714378e-06
1.6420305e-06
-1.2322614e-06
1.5776253e-06
-1.2911617e-06
1.5119891e-06
-1.3481265e-06
1.4451669e-06
-1.4031446e-06
1.377202e-06
-1.4562041e-06
1.3081353e-06
-1.5072936e-06
1.2380082e-06
-1.5564013e-06
1.166859e-06
-1.6035133e-06
1.0947249e-06
-1.648618e-06
1.0216423e-06
-1.691702e-06
9.4764592e-07
-1.7327511e-06
8.7276991e-07
-1.77175e-06
7.9704689e-07
-1.808684e-06
7.2050946e-07
-1.8435361e-06
6.4318804e-07
-1.8762902e-06
5.6511419e-07
-1.9069275e-06
4.8631796e-07