/*--------------------------------*- C++ -*----------------------------------*\
| =========                 |                                                 |
| \\      /  F ield         | OpenFOAM: The Open Source CFD Toolbox           |
|  \\    /   O peration     | Version:  2106                                  |
|   \\  /    A nd           | Website:  www.openfoam.com                      |
|    \\/     M anipulation  |                                                 |
\*---------------------------------------------------------------------------*/
FoamFile
{
    version     2.0;
    format      ascii;
    arch        "LSB;label=32;scalar=64";
    class       volScalarField;
    location    "0.02";
    object      p;
}
// * * * * * * * * * * * * * * * * * * * * * * * * * * * * * * * * * * * * * //

dimensions      [1 -1 -2 0 0 0 0];

internalField   nonuniform List<scalar> 
4096
(
0.50187242
0.49663387
0.48626422
0.47088323
0.450668
0.42585015
0.39671229
0.36358367
0.3268352
0.28687398
0.24413737
0.19908675
0.15220129
0.10397177
0.054894445
0.005460992
-0.043856787
-0.092538888
-0.14014121
-0.18625463
-0.23044286
-0.27231763
-0.31152207
-0.34772935
-0.3806447
-0.41000646
-0.43558642
-0.45718984
-0.47465528
-0.4878543
-0.49669107
-0.50110207
-0.50105582
-0.49655275
-0.48762515
-0.4743374
-0.45678611
-0.43510054
-0.4094429
-0.38000868
-0.34702681
-0.3107596
-0.27150244
-0.22958272
-0.18535777
-0.13921628
-0.091594848
-0.04290282
0.0064155803
0.055840322
0.10489968
0.15310216
0.19995178
0.24495811
0.28764248
0.327544
0.36422593
0.39728185
0.42634155
0.45107657
0.47120509
0.48649631
0.49677401
0.50191928
0.50043774
0.49520281
0.4848411
0.46947287
0.44927595
0.42448288
0.39537729
0.36228957
0.3255918
0.28569217
0.24302905
0.19806466
0.1512787
0.10316205
0.054210478
0.0049172405
-0.044235147
-0.092763427
-0.14020297
-0.18613357
-0.23013666
-0.27182633
-0.31084775
-0.34687721
-0.37962336
-0.40882794
-0.43426603
-0.45574594
-0.47310896
-0.48622892
-0.49501182
-0.49939537
-0.4993487
-0.49487225
-0.4859977
-0.47278818
-0.45533852
-0.43377568
-0.40825917
-0.37898142
-0.34616807
-0.31007807
-0.27100338
-0.22926828
-0.18522807
-0.13926908
-0.091810205
-0.04327187
0.005881164
0.055165615
0.10409905
0.15218838
0.19893813
0.24385779
0.28646812
0.32630745
0.36293802
0.39595231
0.42497898
0.44968842
0.46979778
0.48507539
0.49534427
0.50048504
0.50587305
0.50056834
0.4900691
0.47449787
0.45403578
0.42891968
0.39943841
0.36592829
0.32876801
0.28837281
0.24518843
0.19968464
0.15234865
0.10367856
0.054176909
0.0043441524
-0.045327806
-0.094356454
-0.14227637
-0.18865249
-0.23306833
-0.27513647
-0.31450041
-0.35083566
-0.38385075
-0.41328778
-0.43892246
-0.46056401
-0.47805465
-0.49126917
-0.50011434
-0.50452845
-0.50448095
-0.49997227
-0.49103379
-0.47772808
-0.46014919
-0.43842316
-0.41270855
-0.38319693
-0.3501133
-0.31371627
-0.27429795
-0.2321834
-0.18772963
-0.14132448
-0.093384783
-0.044345823
0.005326836
0.055150656
0.10463381
0.15327604
0.20057508
0.24603323
0.28916375
0.32949742
0.36658917
0.4000244
0.42942521
0.45445605
0.47482892
0.4903078
0.50071246
0.50592124
0.51664475
0.51121053
0.50045553
0.48450612
0.46354904
0.43782845
0.40764202
0.37333628
0.3353012
0.29396428
0.2497841
0.20324368
0.1548436
0.1050952
0.054513814
0.0036122775
-0.047105128
-0.097146689
-0.14603993
-0.19333797
-0.23861848
-0.28148877
-0.32158791
-0.35858815
-0.39219574
-0.42215135
-0.44822998
-0.4702406
-0.48802561
-0.50146009
-0.51045121
-0.51493757
-0.51488881
-0.51030536
-0.50121844
-0.4876903
-0.46981463
-0.44771717
-0.42155635
-0.39152398
-0.35784582
-0.32078193
-0.28062672
-0.23770854
-0.19238886
-0.14506083
-0.096147104
-0.046094838
0.004623353
0.055515726
0.10607808
0.15579778
0.20415978
0.25065317
0.29477786
0.33605142
0.37401591
0.40824457
0.4383482
0.46398109
0.48484641
0.50070088
0.51135865
0.51669428
0.53228489
0.52666477
0.51554248
0.49904975
0.47738123
0.45079135
0.41959026
0.38413884
0.34484305
0.30214767
0.25652953
0.20849048
0.15855017
0.10723883
0.055090228
0.0026349033
-0.049606101
-0.10112648
-0.15144064
-0.20008857
-0.24663794
-0.29068764
-0.33186994
-0.36985186
-0.40433583
-0.43505992
-0.46179758
-0.48435698
-0.50258028
-0.51634269
-0.52555163
-0.53014598
-0.53009553
-0.52540072
-0.51609264
-0.50223326
-0.48391605
-0.46126664
-0.43444373
-0.40363996
-0.36908267
-0.33103456
-0.28979388
-0.24569429
-0.19910407
-0.15042481
-0.10008922
-0.048557592
0.0036843164
0.056130169
0.10825901
0.15954051
0.20944122
0.25743135
0.30299178
0.34562129
0.38484373
0.4202151
0.45133024
0.47782911
0.49940246
0.51579676
0.52681827
0.53233622
0.55297517
0.54710972
0.53550261
0.51829257
0.49568461
0.46794666
0.43540517
0.39843989
0.35747776
0.31298629
0.2654663
0.21544443
0.16346544
0.11008454
0.055859851
0.0013452642
-0.052916232
-0.10639846
-0.15859779
-0.20903781
-0.25727254
-0.30288952
-0.34551182
-0.38479936
-0.42044936
-0.45219632
-0.47981145
-0.50310177
-0.52190901
-0.53610843
-0.54560774
-0.55034611
-0.55029354
-0.54545047
-0.53584779
-0.52154723
-0.50264197
-0.47925764
-0.45155338
-0.41972302
-0.3839962
-0.34463921
-0.3019556
-0.25628615
-0.20800839
-0.15753532
-0.10531335
-0.051819169
0.002443388
0.05694811
0.1111521
0.1645017
0.21643913
0.26640966
0.31386911
0.3582915
0.39917676
0.4360582
0.46850972
0.49615249
0.51866095
0.53576815
0.54727001
0.55302876
0.57894365
0.5727696
0.5605525
0.54243991
0.51864986
0.48946722
0.45523897
0.41636858
0.37330943
0.32655761
0.2766442
0.22412707
0.16958266
0.11359766
0.05676094
-0.00034419492
-0.057147119
-0.11309635
-0.16766541
-0.22035761
-0.27070976
-0.31829508
-0.3627252
-0.4036512
-0.4407639
-0.47379347
-0.50250848
-0.52671467
-0.5462534
-0.56100015
-0.57086309
-0.57578185
-0.5757267
-0.57069811
-0.56072671
-0.54587376
-0.52623202
-0.50192693
-0.47311804
-0.44000052
-0.40280669
-0.36180724
-0.31731218
-0.26967118
-0.2192733
-0.16654591
-0.11195268
-0.055990625
0.0008135627
0.05790835
0.11472321
0.17067509
0.22517551
0.2776383
0.32748766
0.37416644
0.41714439
0.45592629
0.49005967
0.51914202
0.54282733
0.5608317
0.57293812
0.57899999
0.61042401
0.60387372
0.59091285
0.57169974
0.54646837
0.51552432
0.47923973
0.4380471
0.39243217
0.3429261
0.29009698
0.23454098
0.17687337
0.1177194
0.057705559
-0.0025488289
-0.062439384
-0.12138365
-0.17882733
-0.23424928
-0.28716552
-0.33713215
-0.38374719
-0.42665144
-0.46552839
-0.50010347
-0.5301426
-0.55545046
-0.57586843
-0.59127269
-0.60157227
-0.60670761
-0.60664944
-0.60139823
-0.59098416
-0.57546774
-0.55494085
-0.5295283
-0.49938964
-0.46472116
-0.4257579
-0.38277539
-0.33609101
-0.28606482
-0.23309956
-0.1776398
-0.12017007
-0.061211902
-0.0013198289
0.058923629
0.1189142
0.17803284
0.23565351
0.29115153
0.34391236
0.39334063
0.43886915
0.47996771
0.51615157
0.54698925
0.57210965
0.59120818
0.60405195
0.61048359
0.64769377
0.6406943
0.62684537
0.60631832
0.57936623
0.54631963
0.50758088
0.46361739
0.41495382
0.36216349
0.30585904
0.2466827
0.18529641
0.12237177
0.05858048
-0.0054149945
-0.068969859
-0.13146467
-0.19231204
-0.25096199
-0.30690616
-0.35968079
-0.40886838
-0.45409827
-0.49504615
-0.53143271
-0.56302166
-0.58961732
-0.61106196
-0.62723327
-0.63804191
-0.64342968
-0.64336802
-0.63785743
-0.62692735
-0.61063696
-0.58907655
-0.56236943
-0.53067434
-0.49418798
-0.45314769
-0.4078338
-0.35857162
-0.30573278
-0.24973564
-0.19104473
-0.13016904
-0.067659011
-0.0041023078
0.059881543
0.12364788
0.18653453
0.24787034
0.30698435
0.36321545
0.41592231
0.4644933
0.50835617
0.54698732
0.57992045
0.60675429
0.6271594
0.64088377
0.6477571
0.69108137
0.68355336
0.66865941
0.64658625
0.61760968
0.58208981
0.54046488
0.49324377
0.44099738
0.38434909
0.32396446
0.26054045
0.19479438
0.12745289
0.059241189
-0.0091271635
-0.076959703
-0.14359348
-0.20840244
-0.27080312
-0.33025919
-0.3862844
-0.43844411
-0.48635543
-0.52968623
-0.56815307
-0.60151849
-0.62958776
-0.65220545
-0.6692521
-0.68064116
-0.68631657
-0.68625097
-0.68044482
-0.66892643
-0.65175282
-0.62901151
-0.60082301
-0.56734381
-0.52876974
-0.4853394
-0.43733734
-0.38509685
-0.3290019
-0.26948814
-0.20704272
-0.14220271
-0.075552114
-0.0077173374
0.060638575
0.1288233
0.19612365
0.26181502
0.32517154
0.38547684
0.442035
0.4941816
0.54129444
0.5828038
0.618202
0.64705198
0.66899475
0.68375564
0.69114897
0.74096484
0.73282129
0.71671021
0.69283643
0.66150249
0.62310332
0.57811939
0.52710838
0.47069564
0.40956353
0.34443993
0.27608622
0.20528495
0.13282747
0.059501885
-0.013918395
-0.086685175
-0.15808489
-0.22744675
-0.29414899
-0.35762365
-0.41735955
-0.47290364
-0.52386055
-0.56989095
-0.61070864
-0.6460768
-0.67580375
-0.69973849
-0.71776637
-0.7298053
-0.73580253
-0.73573251
-0.72959569
-0.71741858
-0.69925486
-0.67518765
-0.64533263
-0.60984195
-0.56890846
-0.52277023
-0.47171473
-0.41608259
-0.3562704
-0.29273245
-0.22598094
-0.15658474
-0.085166282
-0.012396765
0.061010118
0.13430634
0.20671893
0.2774605
0.34574062
0.41077785
0.47181204
0.52811659
0.57901049
0.62386971
0.66213786
0.69333572
0.71706956
0.73303798
0.74103724
0.79777094
0.78891578
0.77139749
0.74544208
0.71138335
0.66965694
0.62079273
0.56540554
0.50418443
0.43788081
0.36729553
0.29326541
0.21664934
0.13831433
0.059121961
-0.020084614
-0.098492477
-0.17532957
-0.24987384
-0.32146003
-0.3894849
-0.45341019
-0.51276357
-0.56713769
-0.6161875
-0.65962632
-0.69722081
-0.72878541
-0.75417662
-0.77328744
-0.7860425
-0.79239405
-0.79231914
-0.78581824
-0.77291517
-0.75365863
-0.72812501
-0.69642239
-0.65869546
-0.61513104
-0.56596384
-0.511482
-0.45203202
-0.38802275
-0.3199279
-0.24828703
-0.17370446
-0.096846288
-0.018435061
0.060756993
0.13991716
0.21820281
0.29475326
0.36870259
0.43919325
0.50538985
0.56649306
0.62175298
0.67048204
0.71206683
0.74597881
0.77178357
0.7891485
0.79784869
0.86197331
0.85229973
0.83316289
0.80481347
0.76762163
0.72207047
0.66874742
0.60833388
0.54159321
0.4693573
0.39251217
0.31198262
0.22871656
0.14366921
0.057787646
-0.028003989
-0.1128179
-0.19581473
-0.27621396
-0.35330141
-0.42643486
-0.4950471
-0.55864642
-0.61681479
-0.66920407
-0.71553062
-0.75556871
-0.78914332
-0.81612269
-0.83641135
-0.84994379
-0.85667948
-0.85659924
-0.84970351
-0.83601229
-0.81556704
-0.78843423
-0.75471048
-0.71452874
-0.66806543
-0.61554778
-0.55726107
-0.49355515
-0.42484979
-0.35163841
-0.27448979
-0.19404748
-0.11102671
-0.026208648
0.059567144
0.14541312
0.23040579
0.31359918
0.39403943
0.47078023
0.54289852
0.60951007
0.6697847
0.72296075
0.76835837
0.80539152
0.83357842
0.85255008
0.86205693
0.93408805
0.92347656
0.90248472
0.87139179
0.83061022
0.78067818
0.72225
0.65608447
0.58303132
0.50401613
0.42002398
0.33208211
0.24124206
0.14856168
0.055087365
-0.038162841
-0.13021467
-0.22015152
-0.30712645
-0.39037044
-0.46919872
-0.54301376
-0.61130514
-0.6736467
-0.72969126
-0.77916339
-0.82185081
-0.85759506
-0.88628201
-0.90783289
-0.92219634
-0.929342
-0.92925601
-0.92193876
-0.90740486
-0.8856855
-0.856833
-0.82092723
-0.7780836
-0.72846203
-0.67227649
-0.60980427
-0.54139455
-0.46747557
-0.38855984
-0.30524683
-0.21822301
-0.12825872
-0.036201738
0.057031059
0.15046571
0.24308503
0.33384398
0.42168644
0.50556284
0.58444805
0.65735909
0.72337243
0.78164021
0.83140534
0.87201501
0.90293235
0.92374611
0.93417806
1.0146655
1.0029817
0.97986866
0.94563894
0.90075391
0.84581567
0.78155612
0.70882387
0.62856894
0.54182577
0.44969457
0.35332174
0.2538794
0.15254472
0.050479486
-0.051189422
-0.15138789
-0.24911069
-0.34343551
-0.43353217
-0.51866984
-0.59821989
-0.67165508
-0.73854524
-0.79855009
-0.85140967
-0.8969332
-0.93498702
-0.96548245
-0.98836443
-1.0036013
-1.011177
-1.0110849
-1.0033253
-0.98790543
-0.96484215
-0.93416795
-0.89593898
-0.8502452
-0.79722183
-0.73706153
-0.67002638
-0.59645903
-0.51679214
-0.43155556
-0.34138034
-0.2469995
-0.14924492
-0.049040021
0.052609607
0.15463024
0.25589613
0.35524723
0.45150855
0.54351047
0.6301092
0.71020702
0.7827719
0.84685595
0.90161243
0.946311
0.98035091
1.0032719
1.0147624
1.1042768
1.0913685
1.0658332
1.0280218
0.97845231
0.91780098
0.84688963
0.76667098
0.67821147
0.58267186
0.48128624
0.37533955
0.2661442
0.15501624
0.043251628
-0.067896473
-0.1772385
-0.28366746
-0.38617546
-0.48386429
-0.57595368
-0.66178405
-0.74081471
-0.81261767
-0.87686797
-0.93333115
-0.98184877
-1.022323
-1.0547011
-1.0789608
-1.0950979
-1.1031154
-1.1030168
-1.0948024
-1.0784692
-1.0540144
-1.0214433
-0.980779
-0.93207551
-0.87543236
-0.81101002
-0.73904538
-0.65986621
-0.57390355
-0.48170133
-0.38392223
-0.28134937
-0.1748832
-0.065533092
0.045593463
0.15730742
0.26835712
0.37744888
0.48326951
0.58450975
0.67988789
0.76817294
0.84820691
0.9189258
0.97937891
1.028746
1.0663523
1.0916806
1.104381
1.2034934
1.1891879
1.1608882
1.1189895
1.0640758
0.99690893
0.91841488
0.82966713
0.73186707
0.62632219
0.51442208
0.3976129
0.27737048
0.15517268
0.032471728
-0.089332359
-0.2089162
-0.32505563
-0.43664538
-0.54271161
-0.64242144
-0.73508569
-0.82015558
-0.89721417
-0.96596344
-1.026208
-1.0778362
-1.1208006
-1.1550982
-1.1807518
-1.1977939
-1.2062538
-1.2061487
-1.1974784
-1.1802263
-1.1543632
-1.1198573
-1.0766866
-1.0248553
-0.96441254
-0.8954722
-0.81823246
-0.73299465
-0.64017947
-0.54033974
-0.43416871
-0.32250299
-0.20631948
-0.086725411
0.035054343
0.15769711
0.27980489
0.39992853
0.51659393
0.62832934
0.73369268
0.83129811
0.91984145
0.99812405
1.0650746
1.1197688
1.1614459
1.1895229
1.2036051
1.3128587
1.2969593
1.2655054
1.2189438
1.1579344
1.0833384
0.99620246
0.89773983
0.7893084
0.67238588
0.54854264
0.41941245
0.28666168
0.15195711
0.016933338
-0.11683836
-0.24787892
-0.37482871
-0.4964712
-0.61174831
-0.71977171
-0.81982542
-0.91136058
-0.99398363
-1.0674392
-1.1315889
-1.1863871
-1.2318558
-1.2680597
-1.2950821
-1.3130053
-1.3218934
-1.3217815
-1.3126695
-1.2945222
-1.2672753
-1.2308471
-1.1851545
-1.1301342
-1.0657659
-0.99209743
-0.90927044
-0.81754418
-0.71731686
-0.60914247
-0.4937423
-0.37200971
-0.24500696
-0.11395334
0.019790535
0.15474658
0.28934632
0.42195936
0.55092397
0.67457915
0.79129628
0.89950963
0.99774539
1.0846487
1.1590087
1.2197801
1.266103
1.2973179
1.3129783
1.4328517
1.4151342
1.380082
1.3282014
1.2602403
1.1771747
1.0801907
0.97066345
0.85013204
0.72027152
0.58286215
0.43975612
0.29284213
0.14400796
-0.0048985357
-0.15210575
-0.2959527
-0.43492216
-0.56766963
-0.69304275
-0.81009516
-0.91808898
-1.0164866
-1.1049344
-1.1832406
-1.2513472
-1.3092997
-1.3572143
-1.3952461
-1.4235595
-1.4423024
-1.4515853
-1.4514668
-1.4419466
-1.4229654
-1.3944123
-1.3561394
-1.3079825
-1.2497872
-1.181439
-1.102895
-1.0142165
-0.91560009
-0.80740485
-0.69017503
-0.56465559
-0.43179973
-0.29276564
-0.14890184
-0.0017269093
0.14709954
0.29580987
0.44256213
0.58547546
0.72266824
0.85229491
0.97258091
1.0818557
1.1785836
1.2613919
1.3290956
1.3807197
1.4155164
1.432979
1.563845
1.5440549
1.5048997
1.4469546
1.3710692
1.2783517
1.1701494
1.0480242
0.91372445
0.76915351
0.61633487
0.45737459
0.29442089
0.12962069
-0.034928464
-0.19722005
-0.35537932
-0.50770448
-0.65270214
-0.78911355
-0.915932
-1.0324051
-1.138022
-1.2324914
-1.3157117
-1.3877361
-1.4487329
-1.4989437
-1.538644
-1.5681047
-1.5875596
-1.5971798
-1.597055
-1.5871846
-1.5674777
-1.5377623
-1.4978039
-1.4473312
-1.3860695
-1.3137782
-1.2302916
-1.1355604
-1.0296911
-0.91298223
-0.78595295
-0.64936509
-0.5042349
-0.35182951
-0.19364816
-0.031394717
0.13305811
0.29770962
0.46047069
0.61920404
0.77177096
0.91607392
1.0500964
1.1719402
1.2798606
1.3722979
1.447906
1.5055767
1.54446
1.5639798
1.7060658
1.683916
1.6400885
1.5752379
1.4903305
1.3866269
1.2656594
1.1292042
0.97925061
0.81796466
0.64765062
0.47070857
0.28958927
0.1067442
-0.075436437
-0.25467025
-0.42882983
-0.59599532
-0.7544979
-0.90295676
-1.0403024
-1.1657788
-1.2789228
-1.3795335
-1.4676346
-1.5434287
-1.6072468
-1.6594962
-1.7006089
-1.7309945
-1.7509987
-1.7608706
-1.7607401
-1.7506063
-1.7303375
-1.6996827
-1.658295
-1.6057639
-1.5416573
-1.4655687
-1.3771691
-1.2762599
-1.1628232
-1.0370682
-0.89946896
-0.75079401
-0.59212639
-0.42485925
-0.25067024
-0.07148247
0.11057978
0.29324289
0.47412907
0.65080045
0.82081916
0.98179604
1.1314352
1.2675764
1.3882341
1.4916337
1.5762434
1.6408021
1.6843422
1.7062075
1.8595756
1.8347464
1.7856126
1.7129198
1.6177675
1.5015901
1.3661307
1.2134105
1.0456929
0.8654446
0.67529131
0.47797154
0.27628757
0.073050493
-0.1290095
-0.32728572
-0.51934771
-0.70301559
-0.87641107
-1.0380105
-1.1866779
-1.3216693
-1.4425963
-1.5493846
-1.6422259
-1.7215199
-1.7878105
-1.8417191
-1.8838798
-1.91488
-1.9352086
-1.9452147
-1.9450795
-1.9348017
-1.9141973
-1.8829149
-1.8404632
-1.7862532
-1.7196497
-1.6400313
-1.5468556
-1.4397263
-1.318458
-1.1831345
-1.034158
-0.87228941
-0.69868408
-0.51488429
-0.32278222
-0.12456307
0.077347737
0.28035725
0.481754
0.67874649
0.86854996
1.0484397
1.2157998
1.36817
1.5032897
1.6191388
1.7139737
1.7863585
1.8351911
1.8597234
2.0242975
1.99644
1.941308
1.8597505
1.7530177
1.6227396
1.470897
1.2997867
1.1119818
0.91028797
0.69769488
0.47732579
0.25238987
0.026132678
-0.19833798
-0.41804071
-0.63016723
-0.83222007
-1.0220658
-1.1980106
-1.358848
-1.5038683
-1.6327924
-1.7457162
-1.8430516
-1.9254536
-1.9937389
-2.0488021
-2.0915339
-2.1227469
-2.1431106
-2.1531003
-2.1529617
-2.1426931
-2.122045
-2.0905389
-2.0475018
-1.9921186
-1.9234961
-1.8407385
-1.7430292
-1.6297157
-1.500392
-1.3549726
-1.1937535
-1.0174671
-0.82734821
-0.62511933
-0.41293679
-0.1933071
0.030969901
0.25693527
0.48151032
0.70147805
0.91365297
1.114929
1.3023272
1.473048
1.6245202
1.7544464
1.8608437
1.9420791
1.9968987
2.0244498
2.2001281
2.1688724
2.1070106
2.0155071
1.8957791
1.7496732
1.5794331
1.3876608
1.1772722
0.95144899
0.71358452
0.46722723
0.21604389
-0.036159326
-0.28585293
-0.52967631
-0.76434865
-0.9869617
-1.1950454
-1.3866944
-1.5606288
-1.7162215
-1.8533435
-1.9723083
-2.0738087
-2.1588233
-2.2285126
-2.2841134
-2.3268373
-2.3577773
-2.3778275
-2.3876197
-2.3874796
-2.3774047
-2.357065
-2.3258242
-2.2827837
-2.2268464
-2.1567969
-2.0713953
-1.9694791
-1.85007
-1.7124795
-1.5564042
-1.3819925
-1.1899017
-0.98145256
-0.75859655
-0.5238432
-0.28011716
-0.030684031
0.22113411
0.47185442
0.71771263
0.95507343
1.1804086
1.3903357
1.5816769
1.7515163
1.8972487
2.0166262
2.1077971
2.1693393
2.2002829
2.3871811
2.3521524
2.282823
2.180284
2.0461314
1.8824455
1.6917528
1.4769848
1.2414267
0.98866602
0.72253139
0.44702091
0.16624827
-0.11535296
-0.39338581
-0.66423116
-0.92422285
-1.1699231
-1.3983609
-1.6072999
-1.7953615
-1.9621344
-2.1076936
-2.2326084
-2.337915
-2.424992
-2.4954253
-2.5508729
-2.5929397
-2.6230616
-2.6424072
-2.6517989
-2.6516595
-2.6419861
-2.6223503
-2.5919242
-2.5495334
-2.4937368
-2.4229235
-2.3354301
-2.2296655
-2.1042477
-1.9581407
-1.7907824
-1.6021179
-1.392596
-1.1636545
-0.91760516
-0.65749096
-0.38678222
-0.10911507
0.17196145
0.45212704
0.72700924
0.99253446
1.244726
1.4797635
1.6940593
1.8843238
2.047619
2.181411
2.2836123
2.3526198
2.3873358
2.5862037
2.547049
2.4695658
2.3549767
2.2050612
2.0221414
1.8090366
1.5690208
1.3057624
1.0232739
0.72584739
0.41800056
0.10441228
-0.2102989
-0.52090187
-0.82236491
-1.110615
-1.3820777
-1.633367
-1.8615887
-2.0650686
-2.2437968
-2.3981695
-2.5290466
-2.6378674
-2.726493
-2.7970245
-2.8516273
-2.8923797
-2.9211276
-2.9393683
-2.9481516
-2.9480156
-2.9389571
-2.9204311
-2.8913811
-2.8503033
-2.7953445
-2.7244189
-2.6353525
-2.5260351
-2.3945961
-2.2395887
-2.0601526
-1.8559067
-1.6269019
-1.3748955
-1.102906
-0.81445927
-0.51320171
-0.20313938
0.11083114
0.42360721
0.73065643
1.0273463
1.3091763
1.5718549
1.8113619
2.0240177
2.2065369
2.3560888
2.4703419
2.5475075
2.5863553
2.7992138
2.7556346
2.6694453
2.5419904
2.3752207
2.1716939
1.9345139
1.6672919
1.3740706
1.0592833
0.72767833
0.38427961
0.034320803
-0.31691638
-0.66376601
-1.0000644
-1.3203305
-1.6206844
-1.8974887
-2.147662
-2.3689999
-2.5610611
-2.7250066
-2.8621359
-2.9744005
-3.0642408
-3.1343715
-3.1875555
-3.2264277
-3.2533129
-3.2700936
-3.278084
-3.2779548
-3.2697021
-3.2526476
-3.2254693
-3.1862771
-3.132738
-3.0622075
-2.9719118
-2.8591213
-2.7213783
-2.5567115
-2.3638051
-2.1414961
-1.8902575
-1.6123987
-1.3112023
-0.9905927
-0.65463439
-0.3086351
0.041517838
0.39037274
0.73275812
1.0634818
1.3775206
1.6701108
1.9367983
2.17352
2.3766471
2.5430604
2.6701897
2.7560736
2.7993589
3.0303216
2.9820501
2.8868163
2.7460395
2.5617811
2.336804
2.0744553
1.7786525
1.4537619
1.1046014
0.73631671
0.35437597
-0.035445406
-0.42727308
-0.81479534
-1.1912924
-1.5490188
-1.8825757
-2.1874139
-2.4613225
-2.7026653
-2.9103733
-3.0853115
-3.2294687
-3.345524
-3.4366142
-3.5061732
-3.5576434
-3.594301
-3.6190113
-3.6340998
-3.641179
-3.6410605
-3.6337393
-3.618396
-3.5934093
-3.5564456
-3.5046305
-3.4346779
-3.343132
-3.2265391
-3.0817361
-2.9060062
-2.6973172
-2.4547651
-2.1794056
-1.8729742
-1.537977
-1.1795746
-0.80372162
-0.4176356
-0.027448303
0.36086562
0.741536
1.1087932
1.4571311
1.7813594
2.0766225
2.3385217
2.5631151
2.7470367
2.8875087
2.982458
3.0304564
3.2860778
3.2327122
3.1283988
2.9744185
2.7727708
2.526355
2.2386727
1.9138855
1.5565726
1.1718633
0.76518159
0.34230994
-0.090580975
-0.52737012
-0.9607652
-1.3830527
-1.7833102
-2.1557686
-2.4941142
-2.7957589
-3.0592368
-3.2844454
-3.4720765
-3.6245942
-3.74539
-3.8383398
-3.9076886
-3.9576168
-3.9921196
-4.0146479
-4.0280257
-4.0341881
-4.0340845
-4.027709
-4.0141037
-3.991324
-3.9565376
-3.9062853
-3.8365625
-3.743177
-3.6218589
-3.4687001
-3.2802499
-3.0539638
-2.7890475
-2.4854706
-2.1446929
-1.7696039
-1.3677775
-0.94695304
-0.51617154
-0.081911129
0.34895873
0.7702987
1.1758437
1.5597001
1.9163587
2.2406327
2.5278984
2.7739657
2.9753108
3.1290185
3.2330777
3.2861987
3.5737782
3.515227
3.4026452
3.2365253
3.0186753
2.7520706
2.4402447
2.0874919
1.6984319
1.278385
0.83286821
0.36781764
-0.11040442
-0.59594696
-1.080818
-1.5564282
-2.0049065
-2.4215909
-2.7989562
-3.1339324
-3.4241239
-3.6700475
-3.8730743
-4.03618
-4.1635267
-4.2597587
-4.3300101
-4.3792357
-4.4122051
-4.4329788
-4.4449063
-4.450251
-4.4501668
-4.4446471
-4.4325284
-4.4115364
-4.3783142
-4.328795
-4.2582034
-4.1615788
-4.0337608
-3.8700747
-3.6662822
-3.4192919
-3.1275498
-2.7901807
-2.409211
-1.9875156
-1.5345835
-1.0630958
-0.58327508
-0.10155466
0.3741305
0.83749086
1.2818694
1.7011179
2.0895912
2.4419005
2.7533725
3.0196853
3.2372827
3.4031737
3.5155402
3.573882
3.8990766
3.8401959
3.7224871
3.5466639
3.3151574
3.0311475
2.6980096
2.3200643
1.9016421
1.4481602
0.96489094
0.45776726
-0.066817013
-0.60440829
-1.1473672
-1.6900266
-2.1931368
-2.6603318
-3.0832026
-3.4579973
-3.7805783
-4.0521463
-4.2747451
-4.4519488
-4.5888992
-4.690953
-4.7642678
-4.8145283
-4.8473484
-4.8673391
-4.878403
-4.8831107
-4.8830516
-4.8782173
-4.8670084
-4.8468401
-4.8138041
-4.763286
-4.6896743
-4.5872936
-4.4499594
-4.2723072
-4.0491115
-3.7766822
-3.4527688
-3.075521
-2.6479736
-2.171563
-1.6531324
-1.1247256
-0.59149826
-0.059049622
0.4628827
0.96847126
1.4508073
1.903672
2.3216493
2.6992701
3.0321472
3.3159434
3.5472623
3.7229107
3.84045
3.899161
4.2974106
4.237777
4.1147592
3.9317704
3.689931
3.3930809
3.0427633
2.6445874
2.2004206
1.7172022
1.1986118
0.6496519
0.080820505
-0.51453196
-1.116608
-1.7706764
-2.3229792
-2.855835
-3.328098
-3.7515026
-4.1081047
-4.4072688
-4.6499761
-4.8404104
-4.9863588
-5.0924775
-5.1677416
-5.2173209
-5.2489751
-5.2668841
-5.2765021
-5.2809408
-5.2809189
-5.2764081
-5.2667158
-5.2486701
-5.2168483
-5.1670422
-5.0915149
-4.9851666
-4.8389225
-4.6482586
-4.4052485
-4.1056039
-3.7485846
-3.3236971
-2.8481472
-2.3032234
-1.6890901
-1.0936674
-0.50590921
0.084967716
0.65247721
1.2005282
1.7186983
2.2016235
2.6455321
3.0435675
3.3937285
3.6904669
3.9321973
4.1150723
4.2379732
4.2974748
-5.3121775
-5.3071099
-5.2962966
-5.2767167
-5.2428974
-5.1908193
-5.1125636
-5.0033943
-4.8539081
-4.659851
-4.4135263
-4.1096004
-3.748852
-3.3166058
-2.8261116
-2.227716
-1.6727928
-1.079171
-0.49030478
0.10111847
0.67053941
1.2192568
1.7384919
2.2220388
2.6662783
3.0646354
3.4147862
3.7115304
3.9531425
4.1359309
4.2587378
4.3182126
4.3181899
4.2586562
4.1357727
3.9528593
3.7110763
3.4141149
3.0636978
2.6651192
2.2205825
1.7368127
1.2172759
0.66808311
0.098246119
-0.49465834
-1.0868178
-1.6925215
-2.3092025
-2.8489626
-3.3251465
-3.7529215
-4.1123515
-4.4153748
-4.6612803
-4.8550525
-5.0042822
-5.1133216
-5.1914223
-5.2434011
-5.277113
-5.2965928
-5.3072907
-5.3122408
-4.9136479
-4.9082842
-4.8960536
-4.8744155
-4.8394935
-4.7867233
-4.7105051
-4.6052335
-4.4646929
-4.2835623
-4.0565751
-3.7797618
-3.450664
-3.0660668
-2.6275728
-2.1368052
-1.6310951
-1.10686
-0.57445181
-0.041713071
0.48113087
0.98757317
1.4707559
1.92431
2.3427992
2.7208058
3.0539115
3.3378458
3.5692255
3.7448968
3.8624393
3.9211725
3.9211169
3.8622636
3.7445826
3.56874
3.3371503
3.0529638
2.7195663
2.3412371
1.922368
1.4683684
0.98459154
0.47729023
-0.046885164
-0.58207593
-1.1191589
-1.6526039
-2.1736203
-2.6501369
-3.0789021
-3.4583603
-3.7848111
-4.0600934
-4.2861521
-4.4666704
-4.6067714
-4.7117243
-4.7876876
-4.8402505
-4.8749914
-4.8964611
-4.9085287
-4.9137292
-4.4805075
-4.4744876
-4.4613967
-4.4389899
-4.4039373
-4.3522077
-4.2790463
-4.1795305
-4.0484938
-3.8812683
-3.6735723
-3.4221544
-3.1253383
-2.7818389
-2.3939119
-1.9663642
-1.5152459
-1.0452491
-0.56576746
-0.083707457
0.39275689
0.85696231
1.3021942
1.7221967
2.1112938
2.4641061
2.775949
3.0425327
3.2603147
3.42633
3.5387778
3.5971834
3.5971027
3.538529
3.4258968
3.2596698
3.0416411
2.7747694
2.4625915
2.1093912
1.7198267
1.2992473
0.85325255
0.3879828
-0.090030038
-0.57448126
-1.0575643
-1.532568
-1.9881355
-2.41156
-2.7944376
-3.134118
-3.4284007
-3.6781327
-3.884695
-4.051127
-4.1815825
-4.2806605
-4.353474
-4.4049179
-4.4397244
-4.4619089
-4.4747909
-4.4806079
-4.064577
-4.0577168
-4.0431653
-4.0189996
-3.9824107
-3.9299681
-3.8576897
-3.761412
-3.6368717
-3.4801689
-3.2878384
-3.0572768
-2.7877044
-2.4790869
-2.133334
-1.7544164
-1.3514462
-0.93022012
-0.49891476
-0.063921264
0.36787932
0.79018166
1.1966726
1.5813882
1.9387902
2.2636889
2.5514534
2.7979104
2.9995464
3.1534635
3.2576627
3.3108676
3.3107676
3.2573568
3.1529372
2.9987756
2.7968623
2.5500872
2.2619542
1.9366247
1.5787045
1.1933516
0.78604476
0.36266761
-0.070568953
-0.50749246
-0.94122751
-1.3650818
-1.7696185
-2.1470725
-2.4902127
-2.7963038
-3.0638584
-3.2928923
-3.4840906
-3.6399455
-3.7638369
-3.8596073
-3.9314752
-3.9835755
-4.0198684
-4.0437682
-4.0580722
-4.0646944
-3.6720735
-3.664274
-3.647995
-3.6216327
-3.5828745
-3.5288719
-3.4563635
-3.3619208
-3.2421092
-3.0937859
-2.9142483
-2.7014798
-2.4546391
-2.1749137
-1.8643789
-1.5260513
-1.1655161
-0.78819657
-0.40085654
-0.0094713475
0.38004781
0.76188614
1.1302474
1.4795888
1.8047
2.1007188
2.3632434
2.5883404
2.7726515
2.9134102
3.0085523
3.0566572
3.0565424
3.0082032
2.9128136
2.7717857
2.587175
2.3617395
2.0988269
1.8023578
1.4767136
1.1267305
0.75758093
0.37476455
-0.015961162
-0.40879496
-0.79772619
-1.1764842
-1.5376941
-1.8753776
-2.1844773
-2.4625644
-2.7079007
-2.9194028
-3.0979174
-3.2454231
-3.364578
-3.4584869
-3.530552
-3.5841774
-3.6226055
-3.6486699
-3.6646715
-3.6722048
-3.3098393
-3.3011081
-3.2831168
-3.2545585
-3.2135635
-3.1578241
-3.084723
-2.9915163
-2.8755039
-2.7342612
-2.5658546
-2.3690168
-2.1426647
-1.8874094
-1.6057947
-1.3013528
-0.97815318
-0.6401052
-0.2923079
0.059484249
0.40986315
0.7536668
1.0856971
1.4009157
1.6945478
1.9621351
2.1996136
2.403359
2.5702587
2.6977498
2.7838776
2.8272942
2.8271689
2.7834979
2.6971039
2.5693273
2.4021147
2.1980207
1.9601487
1.6921115
1.3979585
1.0821307
0.74938287
0.40473722
0.053389998
-0.29946504
-0.64831498
-0.98720413
-1.3107465
-1.6148487
-1.8956143
-2.1497876
-2.3750389
-2.5708672
-2.738397
-2.8788965
-2.9942833
-3.0869617
-3.159611
-3.2149575
-3.255603
-3.2838429
-3.3015361
-3.3099807
-2.9811142
-2.9715724
-2.9520991
-2.9216523
-2.8787488
-2.8215613
-2.7480339
-2.6560265
-2.5434658
-2.4085238
-2.2498041
-2.0665097
-1.8583446
-1.6254711
-1.3698007
-1.094495
-0.80315289
-0.49938066
-0.18709809
0.12889038
0.4435135
0.75225219
1.0504786
1.333689
1.5975876
1.8381526
2.051705
2.2349628
2.3851003
2.4997913
2.5772525
2.6162573
2.6161255
2.5768536
2.4991152
2.38413
2.2336745
2.0500678
1.8361279
1.5951282
1.3307383
1.0469707
0.74811376
0.43867082
0.12328454
-0.19348457
-0.50648245
-0.81078031
-1.1023188
-1.3774195
-1.6325507
-1.8646859
-2.072042
-2.2545427
-2.4125305
-2.5468194
-2.6588062
-2.7503111
-2.8233963
-2.8801902
-2.9227376
-2.9528558
-2.9720193
-2.981262
-2.6863159
-2.6761503
-2.6555487
-2.6236977
-2.5794442
-2.5213743
-2.4479096
-2.357424
-2.2483689
-2.1194107
-1.9695699
-1.7983514
-1.6057809
-1.3924008
-1.1597558
-0.91025051
-0.64697981
-0.3734129
-0.093154997
0.19027652
0.47259983
0.74945056
1.0167599
1.2705518
1.507005
1.7225319
1.913844
2.0780063
2.2124887
2.315208
2.3845649
2.4194649
2.4193298
2.3841568
2.3145183
2.211503
2.0767047
1.9122008
1.7205157
1.5045789
1.2676735
1.0133838
0.74553111
0.46809895
0.18517591
-0.098836094
-0.37959597
-0.65351098
-0.91690402
-1.1662734
-1.3985543
-1.6114122
-1.803379
-1.9739733
-2.1232096
-2.2516043
-2.3601448
-2.450165
-2.5232087
-2.5808954
-2.624796
-2.6563173
-2.6766052
-2.6864665
-2.4240461
-2.4134665
-2.3921349
-2.3594302
-2.3144757
-2.2562033
-2.1834321
-2.0949625
-1.9896781
-1.8666527
-1.7252567
-1.5652534
-1.3868656
-1.190831
-0.97855267
-0.7520521
-0.51388467
-0.2669918
-0.014635589
0.2398708
0.49306105
0.74117656
0.98058481
1.2077582
1.4193141
1.6120752
1.7831265
1.9298651
2.050046
2.1418207
2.2037698
2.234926
2.2347905
2.2033609
2.1411314
2.0490646
1.9285756
1.7815085
1.6101046
1.4169634
1.204998
0.97738592
0.73751398
0.4889201
0.23525598
-0.019689661
-0.27240955
-0.51954442
-0.7577928
-0.98419688
-1.1962165
-1.3918687
-1.569797
-1.7293056
-1.8702031
-1.9927463
-2.0975757
-2.1856213
-2.2579994
-2.3159063
-2.3605186
-2.3928994
-2.4139201
-2.4241965
-2.1918061
-2.1810164
-2.1593429
-2.1263226
-2.0813057
-2.0235071
-1.9520702
-1.8661418
-1.7649539
-1.6479082
-1.5146585
-1.3651846
-1.1998521