/*--------------------------------*- C++ -*----------------------------------*\
| =========                 |                                                 |
| \\      /  F ield         | OpenFOAM: The Open Source CFD Toolbox           |
|  \\    /   O peration     | Version:  2306                                  |
|   \\  /    A nd           | Website:  www.openfoam.com                      |
|    \\/     M anipulation  |                                                 |
\*---------------------------------------------------------------------------*/
FoamFile
{
    version     2.0;
    format      ascii;
    arch        "LSB;label=32;scalar=64";
    class       volVectorField;
    location    "0.53";
    object      U;
}
// * * * * * * * * * * * * * * * * * * * * * * * * * * * * * * * * * * * * * //

dimensions      [0 1 -1 0 0 0 0];

internalField   nonuniform List<vector> 
51200
(
(3.5923234e-05 -2.7814502e-05 -8.2232053e-20)
(8.3876338e-05 -3.2409072e-05 -4.9658541e-21)
(0.00013734883 -3.1816126e-05 1.8949254e-20)
(0.00018853339 -3.163582e-05 -1.0202143e-20)
(0.00024014722 -3.1417038e-05 -2.6617206e-20)
(0.00029086775 -3.1108829e-05 7.5404924e-21)
(0.00034077669 -3.0807579e-05 9.776155e-21)
(0.00038991325 -3.0488396e-05 -1.7432771e-20)
(0.0004382404 -3.0141504e-05 -7.5420908e-21)
(0.00048568787 -2.9762869e-05 3.9512478e-20)
(0.00053217239 -2.9350629e-05 4.0154513e-20)
(0.00057760459 -2.8904421e-05 -4.1931832e-21)
(0.00062189349 -2.8424928e-05 3.3583631e-20)
(0.00066495063 -2.7913204e-05 3.5750994e-20)
(0.00070669172 -2.737056e-05 1.9136475e-20)
(0.00074703741 -2.6798455e-05 1.3351336e-20)
(0.00078591336 -2.6198442e-05 -5.3679084e-22)
(0.00082325051 -2.5572212e-05 2.3144818e-20)
(0.00085898545 -2.4921445e-05 1.6543802e-20)
(0.00089306032 -2.4247811e-05 -1.348924e-20)
(0.00092542328 -2.3553123e-05 9.6628897e-21)
(0.00095602809 -2.2838868e-05 2.4671616e-20)
(0.00098483434 -2.2106765e-05 6.2671082e-21)
(0.0010118075 -2.1358227e-05 -2.9106391e-20)
(0.0010369189 -2.0594897e-05 -9.9456062e-20)
(0.0010601462 -1.9817826e-05 -3.6878175e-20)
(0.001081472 -1.9027824e-05 8.8475102e-20)
(0.0011008843 -1.8224984e-05 -1.4447354e-20)
(0.0011183779 -1.7409541e-05 -7.6371454e-20)
(0.0011339544 -1.6579674e-05 1.0212939e-20)
(0.0011476284 -1.5735477e-05 6.6399529e-21)
(0.0011594275 -1.4888969e-05 -5.2106855e-20)
(0.0011693636 -1.4068655e-05 -1.0739641e-19)
(0.0011774401 -1.3280171e-05 5.0284459e-20)
(0.0011836755 -1.2518232e-05 1.6628733e-19)
(0.0011881027 -1.1779299e-05 -5.7872796e-20)
(0.0011907601 -1.1060266e-05 -1.086188e-19)
(0.0011916884 -1.0361101e-05 4.7888097e-20)
(0.0011909348 -9.6823757e-06 -4.0403549e-20)
(0.0011885494 -9.0237323e-06 -1.5107535e-19)
(0.0011845841 -8.3858078e-06 -2.9849833e-20)
(0.0011790953 -7.7693402e-06 1.3426855e-19)
(0.0011721395 -7.1740797e-06 3.1896496e-19)
(0.0011637789 -6.6041744e-06 2.9722781e-19)
(0.0011540791 -6.0605457e-06 -1.2268774e-19)
(0.0011431047 -5.5472616e-06 -5.1946283e-19)
(0.0011309252 -5.0683595e-06 -2.0214175e-19)
(0.0011175988 -4.6204231e-06 1.6120148e-19)
(0.0011031837 -4.2010338e-06 1.7104232e-19)
(0.0010877544 -3.803977e-06 1.0608026e-19)
(0.0010713853 -3.3931402e-06 -1.1936225e-19)
(0.0010541427 -2.9925356e-06 3.8953882e-20)
(0.0010360864 -2.6078721e-06 1.5279139e-19)
(0.0010172531 -2.2159658e-06 -1.0724656e-19)
(0.00099776582 -1.7557513e-06 -3.9425355e-20)
(0.00097773856 -1.3053713e-06 -2.3342731e-20)
(0.00095719904 -8.8200536e-07 -1.3659495e-19)
(0.0009362046 -4.8786927e-07 -1.1106481e-21)
(0.00091482023 -1.2192333e-07 5.7030814e-20)
(0.00089310876 2.1848215e-07 -1.8381635e-20)
(0.00087113142 5.3449056e-07 -4.1822141e-21)
(0.00084894644 8.2914761e-07 9.10167e-20)
(0.00082661099 1.1006065e-06 -1.6584371e-20)
(0.00080418119 1.3518307e-06 -2.4586368e-19)
(0.00078170872 1.5826534e-06 -1.9147163e-19)
(0.00075924615 1.7934235e-06 1.4160582e-19)
(0.00073684248 1.9862133e-06 2.3873345e-19)
(0.00071454173 2.1616948e-06 -3.3845368e-23)
(0.00069238683 2.3195672e-06 -1.3035784e-19)
(0.00067041661 2.4616521e-06 -1.4799414e-19)
(0.00064866793 2.588232e-06 3.4914807e-20)
(0.00062717679 2.7003424e-06 1.7996826e-19)
(0.00060597493 2.7985028e-06 5.3165727e-20)
(0.00058509145 2.8835396e-06 -4.9731937e-21)
(0.00056455225 2.956907e-06 1.7654949e-20)
(0.00054438116 3.0180828e-06 6.121839e-20)
(0.00052460089 3.067333e-06 2.7384932e-21)
(0.00050523199 3.1062287e-06 -1.0081785e-19)
(0.00048628893 3.1378502e-06 -7.0530001e-20)
(0.00046778626 3.1580191e-06 -4.4448871e-20)
(0.0004497379 3.1702539e-06 -1.014055e-19)
(0.00043215259 3.1750572e-06 8.2573038e-20)
(0.0004150385 3.1726159e-06 1.1603435e-19)
(0.00039840176 3.163769e-06 -2.6067079e-20)
(0.00038224663 3.1492116e-06 1.1635369e-20)
(0.00036657565 3.1293006e-06 -2.4222859e-20)
(0.00035138981 3.1040132e-06 7.8234404e-20)
(0.00033668925 3.0739686e-06 5.0598942e-20)
(0.00032247021 3.0446593e-06 -1.6551161e-19)
(0.00030872963 3.0072991e-06 -1.0564508e-19)
(0.00029546467 2.9676283e-06 -1.0513873e-19)
(0.00028266902 2.9256148e-06 -3.2685894e-20)
(0.00027033572 2.8828351e-06 1.3517616e-19)
(0.00025845733 2.8368636e-06 9.1779762e-20)
(0.00024702612 2.7896639e-06 -1.6047006e-20)
(0.00023603272 2.741948e-06 -1.2315253e-19)
(0.00022546753 2.6928864e-06 9.278964e-20)
(0.00021532056 2.6433511e-06 1.7707956e-19)
(0.00020558129 2.5934e-06 -2.9308992e-20)
(0.00019623882 2.5434054e-06 -1.2322345e-19)
(0.00018728184 2.4934994e-06 -1.3746512e-19)
(0.00017869883 2.4438496e-06 8.5446214e-20)
(0.00017047814 2.3946145e-06 1.2930882e-19)
(0.00016260803 2.3459225e-06 9.3455291e-21)
(0.00015507668 2.2978948e-06 -6.0581788e-20)
(0.00014787234 2.2506072e-06 -1.7230851e-19)
(0.00014098333 2.2041353e-06 6.565346e-20)
(0.00013439808 2.158527e-06 1.7268809e-19)
(0.00012810513 2.1138454e-06 3.7860701e-20)
(0.00012209317 2.0701109e-06 3.1688857e-20)
(0.00011635105 2.0273925e-06 -1.4722197e-19)
(0.00011086769 1.9857978e-06 -1.2927013e-19)
(0.00010563218 1.9453522e-06 1.0732652e-19)
(0.00010063372 1.9060664e-06 6.5943366e-20)
(9.5861862e-05 1.8678165e-06 -1.1468591e-21)
(9.1306561e-05 1.8305415e-06 -3.6104489e-20)
(8.6958104e-05 1.7941371e-06 -5.4813475e-21)
(8.2807096e-05 1.7585344e-06 7.6103086e-20)
(7.884443e-05 1.7238614e-06 -1.6943692e-20)
(7.5060668e-05 1.6909347e-06 -5.0776319e-20)
(7.1446374e-05 1.6600277e-06 -2.5136649e-20)
(6.7993066e-05 1.6306268e-06 3.5628598e-20)
(6.4692964e-05 1.6025294e-06 5.6763723e-20)
(6.1538565e-05 1.5756953e-06 -3.3053591e-20)
(5.8522588e-05 1.5501373e-06 -5.1997851e-20)
(5.5637975e-05 1.5258599e-06 -3.8971421e-20)
(5.2877919e-05 1.5028643e-06 4.1245258e-20)
(5.0235884e-05 1.4811655e-06 7.4944132e-20)
(4.7705624e-05 1.460771e-06 5.7243407e-21)
(4.5281229e-05 1.4417134e-06 -2.1824329e-20)
(4.2957196e-05 1.4240285e-06 -3.7937938e-20)
(4.0728546e-05 1.4078133e-06 2.4376149e-20)
(3.8590341e-05 1.3937769e-06 7.3693877e-20)
(3.6535938e-05 1.3819987e-06 6.4854414e-21)
(3.4559346e-05 1.3700649e-06 -4.6307116e-20)
(3.2656648e-05 1.3581601e-06 -3.626102e-20)
(3.0823837e-05 1.346567e-06 1.0832044e-20)
(2.905711e-05 1.3355176e-06 1.8625374e-20)
(2.7352486e-05 1.3249028e-06 7.9842083e-21)
(2.5706205e-05 1.3149255e-06 3.144485e-21)
(2.4114737e-05 1.3054062e-06 -1.7657455e-20)
(2.2574446e-05 1.296413e-06 8.3506512e-21)
(2.1082005e-05 1.2879836e-06 1.7093608e-20)
(1.9634438e-05 1.280186e-06 -1.2731367e-20)
(1.8228642e-05 1.2727875e-06 -1.4446042e-20)
(1.6861539e-05 1.2659196e-06 -2.2680133e-20)
(1.5530353e-05 1.2595142e-06 7.181674e-21)
(1.4232189e-05 1.2535866e-06 3.662461e-20)
(1.2964174e-05 1.2481525e-06 7.3776226e-23)
(1.1723207e-05 1.2432845e-06 -1.5158977e-20)
(1.0506023e-05 1.2391935e-06 -1.0646207e-20)
(9.3084579e-06 1.2360146e-06 5.1992352e-21)
(8.124832e-06 1.2344954e-06 1.4717999e-20)
(6.9474487e-06 1.2359643e-06 3.2889652e-21)
(5.7654024e-06 1.2425869e-06 6.8494998e-22)
(4.5642343e-06 1.2568882e-06 -3.0807544e-21)
(3.3306467e-06 1.2785238e-06 -2.3482397e-21)
(2.0819356e-06 1.289461e-06 3.7867194e-21)
(8.6130744e-07 1.1951276e-06 3.4483041e-21)
(9.0922474e-08 8.9564258e-07 2.5132877e-21)
(6.4685926e-05 -0.00018807611 3.8762415e-20)
(0.00014433796 -0.0001886847 -2.6255482e-21)
(0.00023331969 -0.00018610164 -2.1047187e-20)
(0.00031842516 -0.00018371331 -5.9092693e-20)
(0.00040384498 -0.00018131063 -5.2277871e-20)
(0.00048760323 -0.00017901045 -7.7770097e-21)
(0.00056981578 -0.00017681395 -4.0911945e-20)
(0.00065054164 -0.00017461517 -1.9022942e-20)
(0.00072970877 -0.00017233087 3.6318019e-20)
(0.00080718525 -0.00016990751 7.1270073e-20)
(0.00088281583 -0.00016731458 5.9390496e-20)
(0.00095643411 -0.00016453698 7.0400882e-20)
(0.001027871 -0.00016156983 6.825831e-20)
(0.0010969621 -0.00015841406 -3.0704747e-20)
(0.001163551 -0.00015507477 2.8529023e-20)
(0.0012274915 -0.00015155899 4.4426248e-20)
(0.0012886477 -0.00014787535 -3.1159572e-20)
(0.0013468943 -0.00014403366 1.8235259e-20)
(0.0014021175 -0.00014004471 5.790167e-20)
(0.0014542151 -0.00013591942 4.0400201e-20)
(0.0015030975 -0.00013167003 2.7564417e-20)
(0.0015486863 -0.00012730768 4.901754e-20)
(0.0015909152 -0.00012284494 6.2635259e-20)
(0.0016297298 -0.00011829369 5.2288242e-21)
(0.0016650883 -0.00011366695 -1.7279613e-19)
(0.0016969608 -0.00010897586 -1.7885424e-19)
(0.0017253291 -0.00010423212 -3.6157086e-21)
(0.0017501851 -9.9445607e-05 -1.5068143e-20)
(0.0017715362 -9.4629785e-05 3.4065233e-22)
(0.0017893994 -8.9791417e-05 8.4360652e-20)
(0.0018037955 -8.4943414e-05 -5.0851771e-20)
(0.0018147504 -8.0103338e-05 -1.659058e-19)
(0.001822314 -7.5307419e-05 -1.6535995e-19)
(0.0018265584 -7.0570615e-05 6.6580525e-20)
(0.0018275504 -6.5898783e-05 2.6396117e-19)
(0.0018253643 -6.1300762e-05 4.8671896e-20)
(0.0018200819 -5.6777905e-05 -8.5197285e-20)
(0.0018117912 -5.2338234e-05 -9.79752e-20)
(0.001800595 -4.7989835e-05 -2.8332715e-19)
(0.0017866024 -4.3737024e-05 -2.4464726e-19)
(0.0017699242 -3.9587848e-05 2.6670588e-19)
(0.0017506806 -3.5549262e-05 2.8467365e-19)
(0.0017289893 -3.1622541e-05 2.3999523e-19)
(0.0017049774 -2.7824672e-05 4.403399e-19)
(0.0016787781 -2.4150986e-05 -1.4814588e-19)
(0.0016505216 -2.0606387e-05 -5.3399937e-19)
(0.0016203543 -1.7191596e-05 -1.80731e-19)
(0.00158841 -1.3860625e-05 2.0883495e-22)
(0.0015548197 -1.0665906e-05 1.5280499e-19)
(0.0015197595 -7.6371248e-06 7.6648383e-21)
(0.0014833388 -4.8049573e-06 -1.0287863e-19)
(0.001445652 -2.1445745e-06 3.1262345e-19)
(0.0014068773 3.6104434e-07 2.3396072e-19)
(0.001367184 2.7374824e-06 -1.6335002e-19)
(0.0013266559 5.0120357e-06 -2.0488125e-19)
(0.0012853937 7.1501097e-06 -1.5401187e-19)
(0.0012435625 9.141107e-06 -1.1098106e-19)
(0.0012012977 1.09833e-05 -8.2670655e-20)
(0.0011587251 1.2676934e-05 3.9541592e-21)
(0.0011159579 1.4228357e-05 4.4414172e-20)
(0.0010731091 1.5643892e-05 3.5588962e-21)
(0.0010302848 1.6928037e-05 8.6430959e-20)
(0.00098758863 1.8078126e-05 -8.8758736e-20)
(0.0009451211 1.9107312e-05 -3.4948986e-19)
(0.00090296782 2.0007733e-05 -2.797476e-19)
(0.00086122203 2.0792817e-05 2.4208939e-19)
(0.00081997067 2.1465055e-05 5.1150338e-19)
(0.00077928494 2.2029661e-05 -2.2435106e-20)
(0.00073923643 2.2492628e-05 -3.8422662e-19)
(0.00069989102 2.2865226e-05 -5.1060589e-19)
(0.00066130758 2.3141302e-05 -1.2528964e-20)
(0.0006235414 2.332916e-05 4.9842603e-19)
(0.0005866416 2.3438418e-05 2.1972702e-19)
(0.00055065361 2.3473169e-05 1.10867e-19)
(0.00051561232 2.3435546e-05 -2.9918298e-20)
(0.00048154987 2.3335381e-05 1.0273771e-19)
(0.00044850033 2.3170943e-05 6.1534909e-20)
(0.00041649198 2.2951418e-05 -4.2720492e-19)
(0.00038553203 2.2681121e-05 -1.8798262e-19)
(0.00035563647 2.2366384e-05 1.7032078e-19)
(0.00032682585 2.2010708e-05 3.4325876e-20)
(0.00029910148 2.1618055e-05 2.3550834e-20)
(0.00027246612 2.119266e-05 -6.1329648e-20)
(0.00024691965 2.0738643e-05 -3.6105421e-19)
(0.00022245797 2.0260043e-05 -4.2973389e-20)
(0.00019907378 1.9760396e-05 2.7583754e-19)
(0.00017675823 1.9243093e-05 9.6445061e-20)
(0.00015550566 1.8711222e-05 3.145984e-19)
(0.00013528848 1.8167829e-05 4.1873242e-20)
(0.00011609087 1.7616367e-05 -5.8821558e-19)
(9.7906076e-05 1.7059159e-05 -3.92171e-19)
(8.0708421e-05 1.6498599e-05 1.3091434e-19)
(6.4472489e-05 1.593694e-05 2.4233702e-19)
(4.917551e-05 1.537641e-05 -9.477092e-20)
(3.4797061e-05 1.481887e-05 -4.4232364e-20)
(2.1308426e-05 1.4266035e-05 1.116999e-19)
(8.6835073e-06 1.3719466e-05 2.1051354e-19)
(-3.1034902e-06 1.318058e-05 1.9671774e-19)
(-1.4080361e-05 1.2650651e-05 -2.9334038e-19)
(-2.4274658e-05 1.2130772e-05 -3.3772563e-19)
(-3.3714562e-05 1.1621899e-05 3.4526659e-20)
(-4.2428074e-05 1.1124849e-05 2.7921417e-19)
(-5.0443182e-05 1.0640311e-05 1.9339741e-19)
(-5.7787756e-05 1.0168824e-05 -1.4590352e-19)
(-6.4489449e-05 9.7108112e-06 -1.797908e-19)
(-7.0575563e-05 9.2665353e-06 -5.6446132e-20)
(-7.6072965e-05 8.8361863e-06 1.6936729e-19)
(-8.1008028e-05 8.4199258e-06 3.385619e-19)
(-8.5406689e-05 8.0179371e-06 3.1571486e-20)
(-8.9294291e-05 7.6301955e-06 -1.8274029e-19)
(-9.2695558e-05 7.2567539e-06 -1.275161e-19)
(-9.5634809e-05 6.8977387e-06 -1.4190862e-19)
(-9.8135804e-05 6.5530868e-06 1.6726542e-19)
(-0.00010022177 6.2228616e-06 2.9196504e-19)
(-0.00010191507 5.9064908e-06 -7.9553098e-20)
(-0.00010323709 5.6037567e-06 -2.8444288e-19)
(-0.00010420843 5.3145243e-06 -8.3657213e-20)
(-0.00010484867 5.0387966e-06 2.4727475e-19)
(-0.00010517609 4.7770538e-06 5.3753775e-20)
(-0.00010520957 4.5329363e-06 -3.1300903e-19)
(-0.00010496898 4.3021658e-06 -8.8291346e-20)
(-0.00010447185 4.0815302e-06 3.1965318e-19)
(-0.00010373363 3.8709335e-06 2.49248e-19)
(-0.00010276937 3.6704635e-06 -1.9939951e-19)
(-0.0001015937 3.480091e-06 -3.861825e-19)
(-0.00010022068 3.2996272e-06 -1.7013259e-20)
(-9.8663742e-05 3.1288263e-06 3.0296729e-19)
(-9.693566e-05 2.9674097e-06 1.5936566e-19)
(-9.5048555e-05 2.8150666e-06 -6.0490716e-20)
(-9.3013856e-05 2.6714678e-06 -1.4046581e-19)
(-9.0842218e-05 2.536167e-06 -6.9071436e-20)
(-8.8542894e-05 2.4083556e-06 1.5928004e-19)
(-8.6125531e-05 2.2858673e-06 2.0395803e-19)
(-8.3604208e-05 2.1667633e-06 4.5997685e-21)
(-8.0988688e-05 2.0547007e-06 -1.5700145e-19)
(-7.8283891e-05 1.9499863e-06 -6.1633131e-20)
(-7.5497336e-05 1.8523834e-06 6.3050403e-20)
(-7.2636407e-05 1.7616388e-06 3.0899067e-20)
(-6.9708202e-05 1.677132e-06 1.1117488e-20)
(-6.6719391e-05 1.5987901e-06 -9.24928e-21)
(-6.3676239e-05 1.5260437e-06 -3.2073878e-20)
(-6.0584738e-05 1.4587332e-06 -1.6471477e-20)
(-5.7450508e-05 1.3966478e-06 2.8351674e-20)
(-5.4278813e-05 1.3396903e-06 -1.0655105e-20)
(-5.1074734e-05 1.2874066e-06 -6.4878093e-20)
(-4.784317e-05 1.239866e-06 -2.018519e-20)
(-4.4588799e-05 1.1969171e-06 6.0699645e-20)
(-4.1316282e-05 1.1586371e-06 6.6809206e-20)
(-3.8030305e-05 1.1252377e-06 -2.1931254e-20)
(-3.4735834e-05 1.0972436e-06 -6.1271429e-20)
(-3.1438304e-05 1.0757639e-06 -1.946105e-21)
(-2.8144156e-05 1.0623619e-06 4.5918336e-20)
(-2.4861324e-05 1.0601054e-06 2.6087697e-20)
(-2.1599453e-05 1.0732942e-06 -6.2240882e-21)
(-1.8369432e-05 1.1065026e-06 -1.1455385e-20)
(-1.5179986e-05 1.1594806e-06 -9.904626e-22)
(-1.2027501e-05 1.2127459e-06 1.0206564e-20)
(-8.86892e-06 1.1874435e-06 1.366082e-20)
(-5.6226534e-06 8.6709041e-07 1.0720131e-20)
(-1.9878211e-06 2.4122442e-08 1.0768281e-20)
(6.6532731e-05 -0.00039468311 5.561561e-20)
(0.00014738294 -0.00039052803 3.0757593e-20)
(0.00023853022 -0.00038503912 -5.515042e-20)
(0.00032563654 -0.00037903675 -8.2006145e-20)
(0.00041312841 -0.00037332825 -3.5706519e-20)
(0.00049880253 -0.00036806312 -1.3099288e-20)
(0.0005827145 -0.00036302554 -7.2212795e-20)
(0.00066486143 -0.00035798359 2.2515377e-21)
(0.00074513191 -0.00035276103 2.6948818e-20)
(0.0008233681 -0.00034724148 1.2559641e-20)
(0.00089939476 -0.00034135713 7.9276768e-20)
(0.00097302681 -0.00033507292 7.1254979e-20)
(0.0010440768 -0.00032837653 1.1082965e-19)
(0.0011123623 -0.0003212694 3.5332331e-20)
(0.0011777097 -0.00031376335 2.587027e-20)
(0.0012399571 -0.00030587376 7.6234502e-20)
(0.0012989547 -0.00029762103 1.2006749e-20)
(0.001354565 -0.00028902812 4.6665523e-20)
(0.0014066634 -0.00028012071 4.5778278e-20)
(0.0014551397 -0.00027092357 -1.3002379e-20)
(0.0014998998 -0.0002614666 3.5835195e-20)
(0.0015408619 -0.00025177709 5.9403578e-20)
(0.0015779591 -0.00024188348 4.8771192e-20)
(0.0016111398 -0.000231815 -3.1272018e-20)
(0.0016403669 -0.00022160298 -1.6801205e-19)
(0.0016656177 -0.00021127513 -1.2166752e-19)
(0.0016868835 -0.00020086163 -2.5751306e-20)
(0.0017041666 -0.00019038897 -1.9596258e-20)
(0.0017174898 -0.00017989417 -4.5854762e-20)
(0.0017268847 -0.00016939948 6.3898993e-20)
(0.0017323941 -0.00015893912 7.5436112e-20)
(0.0017340718 -0.00014852924 -2.0962233e-19)
(0.0017319877 -0.00013819999 -1.9046593e-19)
(0.0017262315 -0.00012796801 1.9711368e-20)
(0.0017168916 -0.00011786224 1.4448086e-19)
(0.001704075 -0.00010791116 1.9454068e-19)
(0.0016878956 -9.8129567e-05 -2.9439817e-20)
(0.0016684694 -8.8543383e-05 -1.5218204e-19)
(0.0016459284 -7.9176946e-05 -2.066927e-19)
(0.0016204103 -7.0041529e-05 -3.1302608e-19)
(0.0015920573 -6.1154738e-05 -6.1392267e-20)
(0.0015610252 -5.2531946e-05 3.790949e-19)
(0.0015274581 -4.4176963e-05 4.8363744e-19)
(0.0014915224 -3.6118446e-05 3.4266378e-19)
(0.0014533926 -2.8336794e-05 -9.489961e-20)
(0.0014132288 -2.0871799e-05 -7.6171827e-19)
(0.0013712469 -1.3742889e-05 -3.1410232e-19)
(0.0013275494 -7.0135923e-06 1.7827408e-19)
(0.001282221 -6.3232013e-07 3.920608e-19)
(0.0012354589 5.4091021e-06 5.3737051e-19)
(0.0011874941 1.1079589e-05 -3.7533566e-19)
(0.0011385353 1.6394593e-05 -2.533297e-19)
(0.001088732 2.1360367e-05 3.3576939e-19)
(0.0010382277 2.5995573e-05 -3.6677877e-20)
(0.00098718046 3.024564e-05 -1.2084462e-19)
(0.00093574869 3.4164467e-05 -1.4426092e-19)
(0.00088406985 3.7762851e-05 -1.6725302e-19)
(0.00083228926 4.1031413e-05 7.1113981e-20)
(0.00078055611 4.3987457e-05 -1.5690378e-20)
(0.0007290065 4.663414e-05 -2.9496735e-19)
(0.00067776544 4.8977979e-05 -5.1889815e-20)
(0.00062694716 5.1067136e-05 1.878603e-19)
(0.00057667537 5.2840134e-05 -1.8534224e-19)
(0.00052705417 5.4369062e-05 -1.3827985e-19)
(0.00047818205 5.561145e-05 3.4648779e-19)
(0.00043016679 5.6612628e-05 2.4839317e-19)
(0.00038309313 5.737916e-05 -2.3033199e-19)
(0.00033704274 5.7920527e-05 -3.4484601e-19)
(0.00029209473 5.8250655e-05 -8.5749312e-20)
(0.00024830344 5.8381004e-05 -2.7034248e-19)
(0.00020572647 5.8322695e-05 -1.4588895e-19)
(0.00016443359 5.8087967e-05 1.6009802e-19)
(0.00012446766 5.769062e-05 5.9101813e-20)
(8.586242e-05 5.7142199e-05 2.4827026e-19)
(4.8655984e-05 5.6452664e-05 1.5193801e-19)
(1.2872076e-05 5.5637374e-05 3.2319443e-19)
(-2.1465106e-05 5.4706739e-05 9.2176237e-20)
(-5.4331332e-05 5.3670705e-05 -6.6737857e-19)
(-8.5723292e-05 5.2536169e-05 -1.9148326e-19)
(-0.00011563523 5.1323569e-05 4.8144012e-19)
(-0.00014406399 5.0037598e-05 1.1475485e-19)
(-0.00017101442 4.8687607e-05 -4.8195536e-19)
(-0.0001964942 4.7283568e-05 -3.4586274e-19)
(-0.0002205152 4.5834189e-05 -1.6306384e-19)
(-0.00024309305 4.4347934e-05 -1.1137179e-19)
(-0.00026424669 4.2832835e-05 1.3241145e-19)
(-0.00028399823 4.1296878e-05 2.0625265e-20)
(-0.00030237192 3.9746616e-05 2.5184388e-19)
(-0.00031939688 3.8182464e-05 4.7197618e-19)
(-0.00033510265 3.6622387e-05 -2.3481671e-19)
(-0.00034951943 3.5065095e-05 -4.8948071e-19)
(-0.00036268137 3.3516007e-05 -7.6941733e-21)
(-0.00037462382 3.1978412e-05 1.2332763e-19)
(-0.00038538298 3.0459914e-05 -1.7552023e-19)
(-0.00039499558 2.8962375e-05 2.8695568e-20)
(-0.00040350011 2.7488674e-05 3.934384e-19)
(-0.00041093526 2.6043113e-05 3.3639272e-20)
(-0.00041734 2.4627654e-05 -2.2569262e-19)
(-0.00042275367 2.3244798e-05 -3.0827948e-19)
(-0.00042721569 2.1896319e-05 -1.0020461e-19)
(-0.0004307655 2.0583899e-05 3.2590792e-19)
(-0.0004334423 1.93089e-05 2.3902145e-19)
(-0.00043528492 1.8072395e-05 3.8127783e-21)
(-0.00043633172 1.6875206e-05 -2.5902225e-19)
(-0.00043662053 1.5717904e-05 -4.5624709e-20)
(-0.00043618845 1.4600775e-05 3.0708155e-19)
(-0.00043507171 1.3523875e-05 8.8486203e-20)
(-0.0004333056 1.2487095e-05 6.8232244e-21)
(-0.00043092477 1.1490549e-05 -5.9699287e-20)
(-0.00042796294 1.0533611e-05 -2.0848829e-19)
(-0.0004244526 9.6157859e-06 4.3128743e-22)
(-0.00042042557 8.7374935e-06 7.3356237e-20)
(-0.00041591269 7.8979593e-06 7.8118017e-20)
(-0.00041094434 7.0980066e-06 2.1386547e-19)
(-0.00040554951 6.3343838e-06 -5.5939845e-20)
(-0.00039975526 5.6067888e-06 -3.4177084e-19)
(-0.00039358775 4.9145145e-06 -1.6955163e-19)
(-0.00038707163 4.256436e-06 1.1396125e-19)
(-0.00038022757 3.6305026e-06 9.7382277e-20)
(-0.00037308423 3.030411e-06 -6.1781273e-20)
(-0.00036567132 2.4581187e-06 3.0298428e-20)
(-0.00035800585 1.9162885e-06 1.4855957e-19)
(-0.00035010442 1.4042932e-06 5.8701677e-20)
(-0.00034198599 9.2097523e-07 -1.6504925e-19)
(-0.00033366891 4.6512994e-07 -1.851925e-19)
(-0.00032517061 3.5546737e-08 7.7149129e-20)
(-0.00031650751 -3.6895514e-07 1.8086569e-19)
(-0.00030769515 -7.4951846e-07 9.8799707e-20)
(-0.00029874817 -1.1073012e-06 -6.6269323e-20)
(-0.00028968043 -1.4434911e-06 -7.306963e-20)
(-0.00028050518 -1.759397e-06 2.4685553e-20)
(-0.00027123589 -2.0566909e-06 4.8544899e-20)
(-0.00026188489 -2.3382118e-06 1.1206613e-19)
(-0.00025245881 -2.6058297e-06 9.6074721e-20)
(-0.00024296677 -2.8562488e-06 -2.643887e-20)
(-0.00023342149 -3.0897115e-06 -8.3529938e-20)
(-0.00022383214 -3.3070137e-06 -2.5254514e-20)
(-0.00021420693 -3.5090056e-06 1.9035205e-20)
(-0.00020455355 -3.6965886e-06 -1.4554691e-21)
(-0.00019487919 -3.8704471e-06 -1.0361172e-20)
(-0.00018519059 -4.0313663e-06 -1.484735e-20)
(-0.0001754941 -4.1799463e-06 -4.7294087e-20)
(-0.0001657956 -4.3167605e-06 7.3406772e-21)
(-0.00015610061 -4.4422824e-06 2.2016205e-20)
(-0.00014641432 -4.557005e-06 -2.0583963e-20)
(-0.00013674168 -4.661212e-06 1.1880171e-20)
(-0.0001270874 -4.7550862e-06 1.4278028e-20)
(-0.00011745605 -4.838586e-06 2.9006084e-21)
(-0.00010785214 -4.9113257e-06 5.4260095e-21)
(-9.8280295e-05 -4.9724147e-06 2.5145719e-21)
(-8.8745363e-05 -5.0201469e-06 2.9459021e-20)
(-7.9252593e-05 -5.0518415e-06 2.8337322e-20)
(-6.9807624e-05 -5.0635683e-06 5.8308101e-21)
(-6.0415848e-05 -5.0510134e-06 -1.0852826e-20)
(-5.1080774e-05 -5.012665e-06 -1.2195137e-21)
(-4.1800329e-05 -4.9589428e-06 1.6042126e-20)
(-3.2559774e-05 -4.9334715e-06 1.0121783e-20)
(-2.3319229e-05 -5.0569065e-06 1.4639293e-20)
(-1.402921e-05 -5.5776795e-06 2.3526951e-20)
(-4.6683573e-06 -6.7324425e-06 2.8450567e-20)
(5.7753815e-05 -0.00057426855 3.084137e-19)
(0.00012946169 -0.00056718097 7.689818e-21)
(0.00021106697 -0.00055947088 -1.4271586e-19)
(0.00028936615 -0.00055085613 -6.8499226e-20)
(0.00036834937 -0.00054253659 -1.5395785e-19)
(0.00044570695 -0.00053466268 -1.0017968e-19)
(0.00052135739 -0.00052693383 -5.7623024e-20)
(0.00059518518 -0.00051907181 1.3582995e-20)
(0.00066702783 -0.00051086035 3.2444516e-20)
(0.00073670863 -0.00050215387 5.1482671e-20)
(0.00080404925 -0.00049286593 1.0014128e-19)
(0.00086886778 -0.00048295138 6.0086641e-20)
(0.00093098179 -0.00047239632 1.1507327e-19)
(0.00099021403 -0.00046120579 1.0986374e-19)
(0.0010463974 -0.00044939968 6.0791163e-20)
(0.0010993759 -0.00043700338 9.070441e-20)
(0.0011490047 -0.00042405016 3.8604088e-20)
(0.0011951516 -0.00041057724 6.7389836e-20)
(0.0012376993 -0.00039662582 8.4696291e-20)
(0.0012765421 -0.00038223749 7.0426239e-21)
(0.0013115917 -0.00036745837 5.4967218e-20)
(0.0013427765 -0.00035233296 6.697558e-20)
(0.0013700373 -0.00033690788 -7.2084331e-20)
(0.0013933298 -0.00032122947 -7.29922e-20)
(0.0014126277 -0.00030534814 1.081933e-19)
(0.001427918 -0.00028931161 6.1165307e-20)
(0.0014392035 -0.00027316352 -1.8020201e-19)
(0.0014464954 -0.00025695043 -9.2516899e-20)
(0.0014498307 -0.0002407278 9.5353076e-20)
(0.0014492555 -0.00022453025 6.5019995e-20)
(0.0014448293 -0.00020841538 -1.6196653e-19)
(0.0014366159 -0.00019241036 -2.2942373e-19)
(0.0014247017 -0.00017657081 7.8881024e-20)
(0.0014091948 -0.00016092252 2.1121641e-19)
(0.0013901916 -0.00014551481 -8.5417758e-20)
(0.0013678202 -0.00013037651 -3.4583931e-19)
(0.0013422059 -0.00011554496 -4.0227757e-20)
(0.001313472 -0.00010106638 1.705169e-19)
(0.0012817746 -8.696465e-05 -2.4019695e-19)
(0.0012472741 -7.326609e-05 -2.42683e-19)
(0.0012101252 -5.999531e-05 -2.6594889e-21)
(0.0011705033 -4.7179104e-05 1.0189381e-19)
(0.0011285584 -3.4830387e-05 2.0567033e-19)
(0.0010844832 -2.2981485e-05 2.0622601e-19)
(0.0010384412 -1.1652325e-05 7.8065757e-20)
(0.00099057155 -8.6359026e-07 -2.1694487e-19)
(0.00094103916 9.3878554e-06 -1.4242486e-19)
(0.00089009306 1.8983243e-05 1.2560112e-19)
(0.00083796949 2.8014718e-05 2.8566095e-19)
(0.00078480212 3.65039e-05 4.2526572e-19)
(0.00073074586 4.4490439e-05 -2.6650308e-20)
(0.00067596707 5.1940792e-05 -4.8681446e-19)
(0.00062067858 5.8844658e-05 -4.8992723e-20)
(0.00056502199 6.5204916e-05 2.6416203e-19)
(0.00050914837 7.1029892e-05 -5.1072611e-20)
(0.00045324795 7.6315752e-05 -2.6521937e-19)
(0.00039744703 8.1135153e-05 -2.0281948e-19)
(0.00034190769 8.5371317e-05 -1.0954178e-20)
(0.00028678966 8.9123278e-05 2.8396528e-21)
(0.00023221239 9.239138e-05 -1.4793109e-19)
(0.00017834806 9.5188486e-05 1.6622657e-20)
(0.0001252487 9.7537018e-05 1.8425768e-19)
(7.305373e-05 9.9444758e-05 -1.6693481e-20)
(2.1889348e-05 0.00010093142 -1.1083182e-19)
(-2.8178207e-05 0.00010201706 1.7546809e-20)
(-7.7004289e-05 0.00010272181 1.5766537e-19)
(-0.00012453366 0.00010306615 -1.2257171e-19)
(-0.00017068993 0.00010306866 -3.2664033e-19)
(-0.00021540238 0.00010274969 -1.4793322e-19)
(-0.00025861141 0.00010212318 -1.1483546e-19)
(-0.00030026353 0.0001012213 5.5744291e-20)
(-0.00034030932 0.00010006103 7.2165935e-20)
(-0.00037871011 9.8658823e-05 -1.0055863e-19)
(-0.00041543451 9.7035462e-05 -9.5480947e-20)
(-0.00045045697 9.5212678e-05 1.6647831e-19)
(-0.00048375944 9.3206544e-05 4.1200227e-19)
(-0.000515328 9.1042158e-05 -1.9541624e-19)
(-0.00054515369 8.8732342e-05 -5.4027215e-19)
(-0.00057323762 8.6293415e-05 5.2617718e-20)
(-0.00059958423 8.374521e-05 1.1976771e-19)
(-0.00062420163 8.1102515e-05 -2.6165351e-19)
(-0.00064710439 7.8380748e-05 -2.6699689e-19)
(-0.0006683108 7.5594835e-05 -1.9521078e-20)
(-0.00068784322 7.2758659e-05 1.6218159e-19)
(-0.0007057277 6.9885359e-05 5.8510066e-20)
(-0.00072199364 6.6987216e-05 -1.1813808e-19)
(-0.00073667348 6.4075779e-05 -2.6848088e-19)
(-0.00074980213 6.1161641e-05 -1.2171722e-19)
(-0.00076141814 5.8253911e-05 3.5560554e-19)
(-0.00077156118 5.5363435e-05 3.5298746e-19)
(-0.00078027199 5.2497603e-05 -1.1905096e-19)
(-0.00078759407 4.9663992e-05 -3.765977e-19)
(-0.00079357205 4.6869373e-05 -1.7852975e-19)
(-0.00079825142 4.4120342e-05 1.7410315e-19)
(-0.00080167825 4.1422153e-05 2.2849994e-19)
(-0.00080389953 3.8779558e-05 5.3112486e-20)
(-0.00080496249 3.6196999e-05 -1.9544108e-19)
(-0.00080491446 3.3678059e-05 -1.6424213e-19)
(-0.00080380275 3.1225868e-05 -1.6206619e-20)
(-0.00080167444 2.8843019e-05 -4.2929501e-21)
(-0.00079857629 2.6531578e-05 1.8180722e-19)
(-0.00079455457 2.4293151e-05 1.049646e-19)
(-0.00078965489 2.2128949e-05 -1.3315342e-19)
(-0.00078392208 2.0039731e-05 3.0162562e-20)
(-0.00077740017 1.802582e-05 2.4693454e-19)
(-0.00077013222 1.6086961e-05 1.2419402e-19)
(-0.00076216025 1.422248e-05 -7.625032e-20)
(-0.00075352462 1.2431215e-05 -1.0472236e-19)
(-0.00074426511 1.0713827e-05 -6.1580448e-20)
(-0.00073442046 9.0680109e-06 -1.0982977e-19)
(-0.00072402652 7.4928106e-06 -3.3518842e-20)
(-0.00071311941 5.9899842e-06 7.8102429e-20)
(-0.00070173351 4.5573282e-06 5.3947753e-20)
(-0.00068990492 3.1907637e-06 1.1021795e-19)
(-0.00067766687 1.8910789e-06 2.8808314e-20)
(-0.00066504741 6.5568188e-07 -1.4592996e-19)
(-0.00065207666 -5.1793151e-07 -1.8102749e-19)
(-0.0006387837 -1.6324558e-06 -6.9600738e-20)
(-0.00062519952 -2.6915165e-06 5.4244455e-20)
(-0.0006113461 -3.7024512e-06 1.1388473e-19)
(-0.00059724097 -4.6621904e-06 5.3427917e-20)
(-0.00058291046 -5.5683542e-06 -5.9017044e-20)
(-0.0005683796 -6.4226098e-06 -2.2985843e-20)
(-0.00055366933 -7.2272389e-06 6.9508052e-20)
(-0.00053879915 -7.9845077e-06 8.5838292e-20)
(-0.00052378749 -8.6966232e-06 2.3590075e-20)
(-0.00050865179 -9.3657155e-06 -3.7323335e-20)
(-0.00049340847 -9.9938349e-06 -9.3826543e-21)
(-0.000478073 -1.0583011e-05 5.0602559e-21)
(-0.00046265997 -1.1135224e-05 4.6565648e-20)
(-0.00044718319 -1.1652415e-05 5.4154539e-20)
(-0.00043165577 -1.2136332e-05 2.7667658e-22)
(-0.00041608963 -1.2587694e-05 3.2645803e-20)
(-0.00040049452 -1.3007202e-05 6.0164657e-20)
(-0.00038488017 -1.3399144e-05 9.4762151e-21)
(-0.00036925689 -1.3764922e-05 -5.2696561e-20)
(-0.00035363393 -1.4105647e-05 -3.9159818e-20)
(-0.00033801958 -1.4422466e-05 -1.8604682e-20)
(-0.00032242149 -1.4716559e-05 -1.2304869e-20)
(-0.00030684669 -1.4989024e-05 -1.5966877e-21)
(-0.00029130166 -1.524098e-05 9.8393154e-21)
(-0.00027579241 -1.5473434e-05 -5.0362435e-21)
(-0.00026032444 -1.5687319e-05 8.9685767e-23)
(-0.00024490284 -1.5883473e-05 7.0014055e-21)
(-0.00022953231 -1.6062664e-05 1.3693767e-20)
(-0.00021421723 -1.6225477e-05 2.6163583e-20)
(-0.00019896168 -1.6372292e-05 -1.0889609e-20)
(-0.00018376947 -1.6503246e-05 -7.1296694e-21)
(-0.00016864423 -1.6618031e-05 2.9032364e-20)
(-0.0001535894 -1.6715795e-05 4.0156625e-20)
(-0.00013860819 -1.6794883e-05 2.5761504e-20)
(-0.00012370349 -1.6852788e-05 7.8162988e-21)
(-0.00010887739 -1.6886374e-05 8.586886e-21)
(-9.4130224e-05 -1.689344e-05 -1.0146553e-20)
(-7.9459075e-05 -1.6877021e-05 6.2592561e-21)
(-6.4856065e-05 -1.6855265e-05 2.3258038e-20)
(-5.0307059e-05 -1.6881073e-05 1.1985258e-20)
(-3.5791407e-05 -1.7073825e-05 1.9769837e-20)
(-2.1305388e-05 -1.7643307e-05 2.8207208e-20)
(-7.0104456e-06 -1.874296e-05 3.7428904e-20)
(4.8833372e-05 -0.00072675 2.8706619e-19)
(0.00011031949 -0.00071941072 -9.2177332e-20)
(0.00018127549 -0.00071089667 -2.6168224e-19)
(0.00024989107 -0.00070100693 -3.2299948e-19)
(0.00031950868 -0.00069100128 -2.3415583e-19)
(0.00038780343 -0.00068106769 -9.532029e-20)
(0.00045455327 -0.00067096594 5.0855953e-21)
(0.00051953103 -0.00066045663 2.097634e-20)
(0.00058251952 -0.00064934064 7.6526007e-20)
(0.00064331877 -0.00063748159 1.1290149e-19)