/*--------------------------------*- C++ -*----------------------------------*\
| =========                 |                                                 |
| \\      /  F ield         | OpenFOAM: The Open Source CFD Toolbox           |
|  \\    /   O peration     | Version:  2106                                  |
|   \\  /    A nd           | Website:  www.openfoam.com                      |
|    \\/     M anipulation  |                                                 |
\*---------------------------------------------------------------------------*/
FoamFile
{
    version     2.0;
    format      ascii;
    arch        "LSB;label=32;scalar=64";
    class       volScalarField;
    location    "1.2";
    object      p;
}
// * * * * * * * * * * * * * * * * * * * * * * * * * * * * * * * * * * * * * //

dimensions      [1 -1 -2 0 0 0 0];

internalField   nonuniform List<scalar> 
90000
(
0
6.70867e-09
2.0324e-08
4.07295e-08
6.80357e-08
1.0219e-07
1.4305e-07
1.90511e-07
2.4452e-07
3.05008e-07
3.71863e-07
4.44948e-07
5.2412e-07
6.09235e-07
7.00142e-07
7.9668e-07
8.98674e-07
1.00594e-06
1.11829e-06
1.23553e-06
1.35745e-06
1.48385e-06
1.61452e-06
1.74922e-06
1.88772e-06
2.02977e-06
2.17512e-06
2.32352e-06
2.4747e-06
2.62842e-06
2.7844e-06
2.94238e-06
3.10207e-06
3.26319e-06
3.42546e-06
3.58859e-06
3.7523e-06
3.91631e-06
4.08032e-06
4.24402e-06
4.40713e-06
4.56935e-06
4.73038e-06
4.88996e-06
5.04782e-06
5.20366e-06
5.35723e-06
5.50824e-06
5.65644e-06
5.80155e-06
5.94335e-06
6.0816e-06
6.21605e-06
6.34647e-06
6.47263e-06
6.59432e-06
6.71132e-06
6.82345e-06
6.93051e-06
7.03231e-06
7.12868e-06
7.21942e-06
7.30439e-06
7.38341e-06
7.45635e-06
7.5231e-06
7.58352e-06
7.63751e-06
7.68496e-06
7.72578e-06
7.75991e-06
7.78728e-06
7.80785e-06
7.82158e-06
7.82844e-06
7.82841e-06
7.82149e-06
7.80768e-06
7.78702e-06
7.75956e-06
7.72533e-06
7.68442e-06
7.63688e-06
7.58282e-06
7.52232e-06
7.4555e-06
7.38247e-06
7.30337e-06
7.21833e-06
7.12749e-06
7.03103e-06
6.9291e-06
6.8219e-06
6.7096e-06
6.59241e-06
6.47054e-06
6.3442e-06
6.2136e-06
6.07898e-06
5.94057e-06
5.7986e-06
5.65332e-06
5.50499e-06
5.35387e-06
5.2002e-06
5.04424e-06
4.88628e-06
4.72659e-06
4.56547e-06
4.40319e-06
4.24004e-06
4.07629e-06
3.91224e-06
3.74819e-06
3.58445e-06
3.42129e-06
3.25899e-06
3.09784e-06
2.93811e-06
2.78012e-06
2.62415e-06
2.47045e-06
2.31927e-06
2.17086e-06
2.02549e-06
1.88344e-06
1.74495e-06
1.61026e-06
1.47958e-06
1.35313e-06
1.23114e-06
1.11386e-06
1.00149e-06
8.94211e-07
7.92207e-07
6.95651e-07
6.04723e-07
5.19591e-07
4.40409e-07
3.67309e-07
3.00417e-07
2.39853e-07
1.85728e-07
1.38145e-07
9.71865e-08
6.29286e-08
3.54366e-08
1.47642e-08
9.46252e-10
-5.99385e-09
-0.00666667
-0.00666667
-0.00666665
-0.00666663
-0.00666661
-0.00666657
-0.00666653
-0.00666648
-0.00666643
-0.00666637
-0.0066663
-0.00666623
-0.00666615
-0.00666606
-0.00666597
-0.00666588
-0.00666577
-0.00666567
-0.00666555
-0.00666544
-0.00666531
-0.00666519
-0.00666506
-0.00666492
-0.00666478
-0.00666464
-0.00666449
-0.00666435
-0.00666419
-0.00666404
-0.00666388
-0.00666373
-0.00666357
-0.0066634
-0.00666324
-0.00666308
-0.00666291
-0.00666275
-0.00666259
-0.00666242
-0.00666226
-0.0066621
-0.00666193
-0.00666178
-0.00666162
-0.00666146
-0.00666131
-0.00666116
-0.00666101
-0.00666086
-0.00666072
-0.00666058
-0.00666045
-0.00666032
-0.00666019
-0.00666007
-0.00665995
-0.00665984
-0.00665973
-0.00665963
-0.00665953
-0.00665944
-0.00665936
-0.00665928
-0.0066592
-0.00665914
-0.00665908
-0.00665902
-0.00665898
-0.00665893
-0.0066589
-0.00665887
-0.00665885
-0.00665884
-0.00665883
-0.00665883
-0.00665884
-0.00665885
-0.00665887
-0.0066589
-0.00665893
-0.00665898
-0.00665902
-0.00665908
-0.00665914
-0.0066592
-0.00665928
-0.00665936
-0.00665944
-0.00665953
-0.00665963
-0.00665973
-0.00665984
-0.00665995
-0.00666007
-0.00666019
-0.00666032
-0.00666045
-0.00666058
-0.00666072
-0.00666086
-0.00666101
-0.00666116
-0.00666131
-0.00666146
-0.00666162
-0.00666178
-0.00666194
-0.0066621
-0.00666226
-0.00666243
-0.00666259
-0.00666275
-0.00666292
-0.00666308
-0.00666325
-0.00666341
-0.00666357
-0.00666373
-0.00666389
-0.00666404
-0.0066642
-0.00666435
-0.0066645
-0.00666464
-0.00666479
-0.00666493
-0.00666506
-0.00666519
-0.00666532
-0.00666544
-0.00666556
-0.00666567
-0.00666578
-0.00666588
-0.00666598
-0.00666607
-0.00666615
-0.00666623
-0.00666631
-0.00666637
-0.00666643
-0.00666649
-0.00666654
-0.00666658
-0.00666661
-0.00666664
-0.00666666
-0.00666667
-0.00666668
-0.0133334
-0.0133333
-0.0133333
-0.0133333
-0.0133333
-0.0133333
-0.0133332
-0.0133332
-0.0133331
-0.013333
-0.013333
-0.0133329
-0.0133328
-0.0133327
-0.0133327
-0.0133326
-0.0133325
-0.0133323
-0.0133322
-0.0133321
-0.013332
-0.0133319
-0.0133317
-0.0133316
-0.0133315
-0.0133313
-0.0133312
-0.013331
-0.0133309
-0.0133307
-0.0133306
-0.0133304
-0.0133302
-0.0133301
-0.0133299
-0.0133297
-0.0133296
-0.0133294
-0.0133293
-0.0133291
-0.0133289
-0.0133288
-0.0133286
-0.0133284
-0.0133283
-0.0133281
-0.013328
-0.0133278
-0.0133277
-0.0133275
-0.0133274
-0.0133272
-0.0133271
-0.013327
-0.0133268
-0.0133267
-0.0133266
-0.0133265
-0.0133264
-0.0133263
-0.0133262
-0.0133261
-0.013326
-0.0133259
-0.0133259
-0.0133258
-0.0133257
-0.0133257
-0.0133256
-0.0133256
-0.0133256
-0.0133255
-0.0133255
-0.0133255
-0.0133255
-0.0133255
-0.0133255
-0.0133255
-0.0133255
-0.0133256
-0.0133256
-0.0133256
-0.0133257
-0.0133257
-0.0133258
-0.0133259
-0.0133259
-0.013326
-0.0133261
-0.0133262
-0.0133263
-0.0133264
-0.0133265
-0.0133266
-0.0133267
-0.0133268
-0.013327
-0.0133271
-0.0133272
-0.0133274
-0.0133275
-0.0133277
-0.0133278
-0.013328
-0.0133281
-0.0133283
-0.0133284
-0.0133286
-0.0133288
-0.0133289
-0.0133291
-0.0133293
-0.0133294
-0.0133296
-0.0133298
-0.0133299
-0.0133301
-0.0133302
-0.0133304
-0.0133306
-0.0133307
-0.0133309
-0.013331
-0.0133312
-0.0133313
-0.0133315
-0.0133316
-0.0133317
-0.0133319
-0.013332
-0.0133321
-0.0133322
-0.0133323
-0.0133325
-0.0133326
-0.0133327
-0.0133327
-0.0133328
-0.0133329
-0.013333
-0.0133331
-0.0133331
-0.0133332
-0.0133332
-0.0133333
-0.0133333
-0.0133333
-0.0133333
-0.0133334
-0.0133334
-0.02
-0.02
-0.02
-0.02
-0.02
-0.0199999
-0.0199999
-0.0199998
-0.0199998
-0.0199997
-0.0199997
-0.0199996
-0.0199995
-0.0199994
-0.0199993
-0.0199992
-0.0199991
-0.019999
-0.0199989
-0.0199988
-0.0199987
-0.0199985
-0.0199984
-0.0199983
-0.0199981
-0.019998
-0.0199978
-0.0199977
-0.0199975
-0.0199974
-0.0199972
-0.0199971
-0.0199969
-0.0199967
-0.0199966
-0.0199964
-0.0199962
-0.0199961
-0.0199959
-0.0199958
-0.0199956
-0.0199954
-0.0199953
-0.0199951
-0.0199949
-0.0199948
-0.0199946
-0.0199945
-0.0199943
-0.0199942
-0.019994
-0.0199939
-0.0199938
-0.0199936
-0.0199935
-0.0199934
-0.0199933
-0.0199931
-0.019993
-0.0199929
-0.0199928
-0.0199927
-0.0199927
-0.0199926
-0.0199925
-0.0199924
-0.0199924
-0.0199923
-0.0199923
-0.0199922
-0.0199922
-0.0199922
-0.0199922
-0.0199921
-0.0199921
-0.0199921
-0.0199921
-0.0199922
-0.0199922
-0.0199922
-0.0199922
-0.0199923
-0.0199923
-0.0199924
-0.0199924
-0.0199925
-0.0199926
-0.0199927
-0.0199927
-0.0199928
-0.0199929
-0.019993
-0.0199931
-0.0199933
-0.0199934
-0.0199935
-0.0199936
-0.0199938
-0.0199939
-0.019994
-0.0199942
-0.0199943
-0.0199945
-0.0199946
-0.0199948
-0.0199949
-0.0199951
-0.0199953
-0.0199954
-0.0199956
-0.0199958
-0.0199959
-0.0199961
-0.0199963
-0.0199964
-0.0199966
-0.0199967
-0.0199969
-0.0199971
-0.0199972
-0.0199974
-0.0199975
-0.0199977
-0.0199978
-0.019998
-0.0199981
-0.0199983
-0.0199984
-0.0199985
-0.0199987
-0.0199988
-0.0199989
-0.019999
-0.0199991
-0.0199992
-0.0199993
-0.0199994
-0.0199995
-0.0199996
-0.0199997
-0.0199997
-0.0199998
-0.0199999
-0.0199999
-0.0199999
-0.02
-0.02
-0.02
-0.02
-0.02
-0.0266667
-0.0266667
-0.0266667
-0.0266667
-0.0266667
-0.0266666
-0.0266666
-0.0266665
-0.0266665
-0.0266664
-0.0266664
-0.0266663
-0.0266662
-0.0266661
-0.026666
-0.0266659
-0.0266658
-0.0266657
-0.0266656
-0.0266655
-0.0266654
-0.0266652
-0.0266651
-0.026665
-0.0266648
-0.0266647
-0.0266645
-0.0266644
-0.0266642
-0.0266641
-0.0266639
-0.0266637
-0.0266636
-0.0266634
-0.0266632
-0.0266631
-0.0266629
-0.0266628
-0.0266626
-0.0266624
-0.0266623
-0.0266621
-0.0266619
-0.0266618
-0.0266616
-0.0266614
-0.0266613
-0.0266611
-0.026661
-0.0266608
-0.0266607
-0.0266605
-0.0266604
-0.0266603
-0.0266601
-0.02666
-0.0266599
-0.0266598
-0.0266597
-0.0266596
-0.0266595
-0.0266594
-0.0266593
-0.0266592
-0.0266591
-0.0266591
-0.026659
-0.026659
-0.0266589
-0.0266589
-0.0266588
-0.0266588
-0.0266588
-0.0266588
-0.0266588
-0.0266588
-0.0266588
-0.0266588
-0.0266588
-0.0266588
-0.0266589
-0.0266589
-0.026659
-0.026659
-0.0266591
-0.0266591
-0.0266592
-0.0266593
-0.0266594
-0.0266595
-0.0266596
-0.0266597
-0.0266598
-0.0266599
-0.02666
-0.0266602
-0.0266603
-0.0266604
-0.0266605
-0.0266607
-0.0266608
-0.026661
-0.0266611
-0.0266613
-0.0266614
-0.0266616
-0.0266618
-0.0266619
-0.0266621
-0.0266623
-0.0266624
-0.0266626
-0.0266628
-0.0266629
-0.0266631
-0.0266633
-0.0266634
-0.0266636
-0.0266637
-0.0266639
-0.0266641
-0.0266642
-0.0266644
-0.0266645
-0.0266647
-0.0266648
-0.026665
-0.0266651
-0.0266652
-0.0266654
-0.0266655
-0.0266656
-0.0266657
-0.0266658
-0.0266659
-0.026666
-0.0266661
-0.0266662
-0.0266663
-0.0266664
-0.0266664
-0.0266665
-0.0266665
-0.0266666
-0.0266666
-0.0266667
-0.0266667
-0.0266667
-0.0266667
-0.0266667
-0.0333334
-0.0333334
-0.0333334
-0.0333334
-0.0333334
-0.0333333
-0.0333333
-0.0333332
-0.0333332
-0.0333331
-0.0333331
-0.033333
-0.0333329
-0.0333328
-0.0333327
-0.0333326
-0.0333325
-0.0333324
-0.0333323
-0.0333322
-0.033332
-0.0333319
-0.0333318
-0.0333316
-0.0333315
-0.0333314
-0.0333312
-0.0333311
-0.0333309
-0.0333307
-0.0333306
-0.0333304
-0.0333303
-0.0333301
-0.0333299
-0.0333298
-0.0333296
-0.0333294
-0.0333292
-0.0333291
-0.0333289
-0.0333287
-0.0333286
-0.0333284
-0.0333283
-0.0333281
-0.0333279
-0.0333278
-0.0333276
-0.0333275
-0.0333273
-0.0333272
-0.0333271
-0.0333269
-0.0333268
-0.0333267
-0.0333265
-0.0333264
-0.0333263
-0.0333262
-0.0333261
-0.033326
-0.0333259
-0.0333259
-0.0333258
-0.0333257
-0.0333257
-0.0333256
-0.0333255
-0.0333255
-0.0333255
-0.0333254
-0.0333254
-0.0333254
-0.0333254
-0.0333254
-0.0333254
-0.0333254
-0.0333254
-0.0333255
-0.0333255
-0.0333255
-0.0333256
-0.0333257
-0.0333257
-0.0333258
-0.0333259
-0.0333259
-0.033326
-0.0333261
-0.0333262
-0.0333263
-0.0333264
-0.0333265
-0.0333267
-0.0333268
-0.0333269
-0.0333271
-0.0333272
-0.0333273
-0.0333275
-0.0333276
-0.0333278
-0.0333279
-0.0333281
-0.0333283
-0.0333284
-0.0333286
-0.0333288
-0.0333289
-0.0333291
-0.0333293
-0.0333294
-0.0333296
-0.0333298
-0.0333299
-0.0333301
-0.0333303
-0.0333304
-0.0333306
-0.0333307
-0.0333309
-0.0333311
-0.0333312
-0.0333314
-0.0333315
-0.0333316
-0.0333318
-0.0333319
-0.033332
-0.0333322
-0.0333323
-0.0333324
-0.0333325
-0.0333326
-0.0333327
-0.0333328
-0.0333329
-0.033333
-0.0333331
-0.0333331
-0.0333332
-0.0333332
-0.0333333
-0.0333333
-0.0333334
-0.0333334
-0.0333334
-0.0333334
-0.0333334
-0.0400001
-0.0400001
-0.0400001
-0.0400001
-0.0400001
-0.04
-0.04
-0.0399999
-0.0399999
-0.0399998
-0.0399998
-0.0399997
-0.0399996
-0.0399995
-0.0399994
-0.0399993
-0.0399992
-0.0399991
-0.039999
-0.0399989
-0.0399987
-0.0399986
-0.0399985
-0.0399983
-0.0399982
-0.039998
-0.0399979
-0.0399977
-0.0399976
-0.0399974
-0.0399973
-0.0399971
-0.0399969
-0.0399968
-0.0399966
-0.0399964
-0.0399963
-0.0399961
-0.0399959
-0.0399957
-0.0399956
-0.0399954
-0.0399952
-0.0399951
-0.0399949
-0.0399947
-0.0399946
-0.0399944
-0.0399943
-0.0399941
-0.039994
-0.0399938
-0.0399937
-0.0399936
-0.0399934
-0.0399933
-0.0399932
-0.0399931
-0.039993
-0.0399929
-0.0399928
-0.0399927
-0.0399926
-0.0399925
-0.0399924
-0.0399923
-0.0399923
-0.0399922
-0.0399922
-0.0399921
-0.0399921
-0.0399921
-0.039992
-0.039992
-0.039992
-0.039992
-0.039992
-0.039992
-0.0399921
-0.0399921
-0.0399921
-0.0399922
-0.0399922
-0.0399923
-0.0399923
-0.0399924
-0.0399925
-0.0399926
-0.0399927
-0.0399928
-0.0399929
-0.039993
-0.0399931
-0.0399932
-0.0399933
-0.0399934
-0.0399936
-0.0399937
-0.0399938
-0.039994
-0.0399941
-0.0399943
-0.0399944
-0.0399946
-0.0399948
-0.0399949
-0.0399951
-0.0399952
-0.0399954
-0.0399956
-0.0399957
-0.0399959
-0.0399961
-0.0399963
-0.0399964
-0.0399966
-0.0399968
-0.0399969
-0.0399971
-0.0399973
-0.0399974
-0.0399976
-0.0399977
-0.0399979
-0.039998
-0.0399982
-0.0399983
-0.0399985
-0.0399986
-0.0399987
-0.0399989
-0.039999
-0.0399991
-0.0399992
-0.0399993
-0.0399994
-0.0399995
-0.0399996
-0.0399997
-0.0399998
-0.0399998
-0.0399999
-0.04
-0.04
-0.04
-0.0400001
-0.0400001
-0.0400001
-0.0400001
-0.0400002
-0.0466669
-0.0466669
-0.0466668
-0.0466668
-0.0466668
-0.0466668
-0.0466667
-0.0466667
-0.0466666
-0.0466665
-0.0466665
-0.0466664
-0.0466663
-0.0466662
-0.0466661
-0.046666
-0.0466659
-0.0466658
-0.0466657
-0.0466656
-0.0466654
-0.0466653
-0.0466652
-0.046665
-0.0466649
-0.0466647
-0.0466646
-0.0466644
-0.0466643
-0.0466641
-0.0466639
-0.0466638
-0.0466636
-0.0466634
-0.0466633
-0.0466631
-0.0466629
-0.0466628
-0.0466626
-0.0466624
-0.0466622
-0.0466621
-0.0466619
-0.0466617
-0.0466616
-0.0466614
-0.0466612
-0.0466611
-0.0466609
-0.0466608
-0.0466606
-0.0466605
-0.0466603
-0.0466602
-0.0466601
-0.0466599
-0.0466598
-0.0466597
-0.0466596
-0.0466595
-0.0466594
-0.0466593
-0.0466592
-0.0466591
-0.046659
-0.046659
-0.0466589
-0.0466588
-0.0466588
-0.0466588
-0.0466587
-0.0466587
-0.0466587
-0.0466587
-0.0466586
-0.0466586
-0.0466587
-0.0466587
-0.0466587
-0.0466587
-0.0466588
-0.0466588
-0.0466588
-0.0466589
-0.046659
-0.046659
-0.0466591
-0.0466592
-0.0466593
-0.0466594
-0.0466595
-0.0466596
-0.0466597
-0.0466598
-0.0466599
-0.0466601
-0.0466602
-0.0466603
-0.0466605
-0.0466606
-0.0466608
-0.0466609
-0.0466611
-0.0466612
-0.0466614
-0.0466616
-0.0466617
-0.0466619
-0.0466621
-0.0466622
-0.0466624
-0.0466626
-0.0466628
-0.0466629
-0.0466631
-0.0466633
-0.0466634
-0.0466636
-0.0466638
-0.0466639
-0.0466641
-0.0466643
-0.0466644
-0.0466646
-0.0466647
-0.0466649
-0.046665
-0.0466652
-0.0466653
-0.0466654
-0.0466656
-0.0466657
-0.0466658
-0.0466659
-0.046666
-0.0466661
-0.0466662
-0.0466663
-0.0466664
-0.0466665
-0.0466665
-0.0466666
-0.0466667
-0.0466667
-0.0466668
-0.0466668
-0.0466668
-0.0466668
-0.0466669
-0.0466669
-0.0533336
-0.0533336
-0.0533336
-0.0533335
-0.0533335
-0.0533335
-0.0533334
-0.0533334
-0.0533333
-0.0533333
-0.0533332
-0.0533331
-0.053333
-0.0533329
-0.0533328
-0.0533327
-0.0533326
-0.0533325
-0.0533324
-0.0533323
-0.0533321
-0.053332
-0.0533319
-0.0533317
-0.0533316
-0.0533314
-0.0533313
-0.0533311
-0.053331
-0.0533308
-0.0533306
-0.0533305
-0.0533303
-0.0533301
-0.0533299
-0.0533298
-0.0533296
-0.0533294
-0.0533292
-0.0533291
-0.0533289
-0.0533287
-0.0533286
-0.0533284
-0.0533282
-0.053328
-0.0533279
-0.0533277
-0.0533276
-0.0533274
-0.0533273
-0.0533271
-0.053327
-0.0533268
-0.0533267
-0.0533266
-0.0533264
-0.0533263
-0.0533262
-0.0533261
-0.053326
-0.0533259
-0.0533258
-0.0533257
-0.0533257
-0.0533256
-0.0533255
-0.0533255
-0.0533254
-0.0533254
-0.0533253
-0.0533253
-0.0533253
-0.0533253
-0.0533253
-0.0533253
-0.0533253
-0.0533253
-0.0533253
-0.0533253
-0.0533254
-0.0533254
-0.0533255
-0.0533255
-0.0533256
-0.0533257
-0.0533257
-0.0533258
-0.0533259
-0.053326
-0.0533261
-0.0533262
-0.0533263
-0.0533264
-0.0533266
-0.0533267
-0.0533268
-0.053327
-0.0533271
-0.0533273
-0.0533274
-0.0533276
-0.0533277
-0.0533279
-0.0533281
-0.0533282
-0.0533284
-0.0533286
-0.0533287
-0.0533289
-0.0533291
-0.0533292
-0.0533294
-0.0533296
-0.0533298
-0.0533299
-0.0533301
-0.0533303
-0.0533305
-0.0533306
-0.0533308
-0.053331
-0.0533311
-0.0533313
-0.0533314
-0.0533316
-0.0533317
-0.0533319
-0.053332
-0.0533321
-0.0533323
-0.0533324
-0.0533325
-0.0533326
-0.0533327
-0.0533328
-0.0533329
-0.053333
-0.0533331
-0.0533332
-0.0533333
-0.0533333
-0.0533334
-0.0533334
-0.0533335
-0.0533335
-0.0533335
-0.0533336
-0.0533336
-0.0533336
-0.0600003
-0.0600003
-0.0600003
-0.0600003
-0.0600002
-0.0600002
-0.0600002
-0.0600001
-0.06
-0.06
-0.0599999
-0.0599998
-0.0599997
-0.0599997
-0.0599996
-0.0599995
-0.0599993
-0.0599992
-0.0599991
-0.059999
-0.0599988
-0.0599987
-0.0599986
-0.0599984
-0.0599983
-0.0599981
-0.059998
-0.0599978
-0.0599976
-0.0599975
-0.0599973
-0.0599971
-0.059997
-0.0599968
-0.0599966
-0.0599964
-0.0599963
-0.0599961
-0.0599959
-0.0599957
-0.0599956
-0.0599954
-0.0599952
-0.059995
-0.0599949
-0.0599947
-0.0599945
-0.0599944
-0.0599942
-0.059994
-0.0599939
-0.0599937
-0.0599936
-0.0599935
-0.0599933
-0.0599932
-0.0599931
-0.0599929
-0.0599928
-0.0599927
-0.0599926
-0.0599925
-0.0599924
-0.0599923
-0.0599923
-0.0599922
-0.0599921
-0.0599921
-0.059992
-0.059992
-0.0599919
-0.0599919
-0.0599919
-0.0599919
-0.0599919
-0.0599919
-0.0599919
-0.0599919
-0.0599919
-0.0599919
-0.059992
-0.059992
-0.0599921
-0.0599921
-0.0599922
-0.0599923
-0.0599923
-0.0599924
-0.0599925
-0.0599926
-0.0599927
-0.0599928
-0.0599929
-0.0599931
-0.0599932
-0.0599933
-0.0599935
-0.0599936
-0.0599937
-0.0599939
-0.059994
-0.0599942
-0.0599944
-0.0599945
-0.0599947
-0.0599949
-0.059995
-0.0599952
-0.0599954
-0.0599956
-0.0599957
-0.0599959
-0.0599961
-0.0599963
-0.0599964
-0.0599966
-0.0599968
-0.059997
-0.0599971
-0.0599973
-0.0599975
-0.0599976
-0.0599978
-0.059998
-0.0599981
-0.0599983
-0.0599984
-0.0599986
-0.0599987
-0.0599989
-0.059999
-0.0599991
-0.0599992
-0.0599993
-0.0599995
-0.0599996
-0.0599997
-0.0599998
-0.0599998
-0.0599999
-0.06
-0.0600001
-0.0600001
-0.0600002
-0.0600002
-0.0600002
-0.0600003
-0.0600003
-0.0600003
-0.0600003
-0.066667
-0.066667
-0.066667
-0.066667
-0.066667
-0.0666669
-0.0666669
-0.0666668
-0.0666668
-0.0666667
-0.0666666
-0.0666666
-0.0666665
-0.0666664
-0.0666663
-0.0666662
-0.0666661
-0.0666659
-0.0666658
-0.0666657
-0.0666656
-0.0666654
-0.0666653
-0.0666651
-0.066665
-0.0666648
-0.0666647
-0.0666645
-0.0666643
-0.0666642
-0.066664
-0.0666638
-0.0666636
-0.0666635
-0.0666633
-0.0666631
-0.0666629
-0.0666628
-0.0666626
-0.0666624
-0.0666622
-0.066662
-0.0666619
-0.0666617
-0.0666615
-0.0666613
-0.0666612
-0.066661
-0.0666608
-0.0666607
-0.0666605
-0.0666604
-0.0666602
-0.0666601
-0.0666599
-0.0666598
-0.0666597
-0.0666596
-0.0666594
-0.0666593
-0.0666592
-0.0666591
-0.066659
-0.0666589
-0.0666589
-0.0666588
-0.0666587
-0.0666587
-0.0666586
-0.0666586
-0.0666585
-0.0666585
-0.0666585
-0.0666585
-0.0666585
-0.0666585
-0.0666585
-0.0666585
-0.0666585
-0.0666585
-0.0666586
-0.0666586
-0.0666587
-0.0666587
-0.0666588
-0.0666589
-0.0666589
-0.066659
-0.0666591
-0.0666592
-0.0666593
-0.0666594
-0.0666596
-0.0666597
-0.0666598
-0.0666599
-0.0666601
-0.0666602
-0.0666604
-0.0666605
-0.0666607
-0.0666608
-0.066661
-0.0666612
-0.0666613
-0.0666615
-0.0666617
-0.0666619
-0.066662
-0.0666622
-0.0666624
-0.0666626
-0.0666628
-0.0666629
-0.0666631
-0.0666633
-0.0666635
-0.0666636
-0.0666638
-0.066664
-0.0666642
-0.0666643
-0.0666645
-0.0666647
-0.0666648
-0.066665
-0.0666651
-0.0666653
-0.0666654
-0.0666656
-0.0666657
-0.0666658
-0.066666
-0.0666661
-0.0666662
-0.0666663
-0.0666664
-0.0666665
-0.0666666
-0.0666666
-0.0666667
-0.0666668
-0.0666668
-0.0666669
-0.0666669
-0.066667
-0.066667
-0.066667
-0.066667
-0.0666671
-0.0733338
-0.0733338
-0.0733338
-0.0733337
-0.0733337
-0.0733337
-0.0733336
-0.0733336
-0.0733335
-0.0733335
-0.0733334
-0.0733333
-0.0733332
-0.0733331
-0.073333
-0.0733329
-0.0733328
-0.0733327
-0.0733325
-0.0733324
-0.0733323
-0.0733321
-0.073332
-0.0733318
-0.0733317
-0.0733315
-0.0733314
-0.0733312
-0.073331
-0.0733309
-0.0733307
-0.0733305
-0.0733303
-0.0733301
-0.07333
-0.0733298
-0.0733296
-0.0733294
-0.0733292
-0.0733291
-0.0733289
-0.0733287
-0.0733285
-0.0733283
-0.0733282
-0.073328
-0.0733278
-0.0733276
-0.0733275
-0.0733273
-0.0733272
-0.073327
-0.0733268
-0.0733267
-0.0733266
-0.0733264
-0.0733263
-0.0733262
-0.073326
-0.0733259
-0.0733258
-0.0733257
-0.0733256
-0.0733255
-0.0733255
-0.0733254
-0.0733253
-0.0733253
-0.0733252
-0.0733252
-0.0733251
-0.0733251
-0.0733251
-0.0733251
-0.073325
-0.073325
-0.0733251
-0.0733251
-0.0733251
-0.0733251
-0.0733252
-0.0733252
-0.0733253
-0.0733253
-0.0733254
-0.0733255
-0.0733255
-0.0733256
-0.0733257
-0.0733258
-0.0733259
-0.073326
-0.0733262
-0.0733263
-0.0733264
-0.0733266
-0.0733267
-0.0733268
-0.073327
-0.0733272
-0.0733273
-0.0733275
-0.0733276
-0.0733278
-0.073328
-0.0733282
-0.0733283
-0.0733285
-0.0733287
-0.0733289
-0.0733291
-0.0733292
-0.0733294
-0.0733296
-0.0733298
-0.07333
-0.0733302
-0.0733303
-0.0733305
-0.0733307
-0.0733309
-0.073331
-0.0733312
-0.0733314
-0.0733315
-0.0733317
-0.0733318
-0.073332
-0.0733321
-0.0733323
-0.0733324
-0.0733325
-0.0733327
-0.0733328
-0.0733329
-0.073333
-0.0733331
-0.0733332
-0.0733333
-0.0733334
-0.0733335
-0.0733335
-0.0733336
-0.0733336
-0.0733337
-0.0733337
-0.0733338
-0.0733338
-0.0733338
-0.0733338
-0.0800005
-0.0800005
-0.0800005
-0.0800005
-0.0800005
-0.0800004
-0.0800004
-0.0800003
-0.0800003
-0.0800002
-0.0800001
-0.08
-0.0799999
-0.0799999
-0.0799997
-0.0799996
-0.0799995
-0.0799994
-0.0799993
-0.0799991
-0.079999
-0.0799989
-0.0799987
-0.0799986
-0.0799984
-0.0799982
-0.0799981
-0.0799979
-0.0799977
-0.0799976
-0.0799974
-0.0799972
-0.079997
-0.0799968
-0.0799966
-0.0799965
-0.0799963
-0.0799961
-0.0799959
-0.0799957
-0.0799955
-0.0799953
-0.0799952
-0.079995
-0.0799948
-0.0799946
-0.0799944
-0.0799943
-0.0799941
-0.0799939
-0.0799938
-0.0799936
-0.0799935
-0.0799933
-0.0799932
-0.079993
-0.0799929
-0.0799928
-0.0799926
-0.0799925
-0.0799924
-0.0799923
-0.0799922
-0.0799921
-0.079992
-0.079992
-0.0799919
-0.0799918
-0.0799918
-0.0799917
-0.0799917
-0.0799917
-0.0799916
-0.0799916
-0.0799916
-0.0799916
-0.0799916
-0.0799916
-0.0799917
-0.0799917
-0.0799917
-0.0799918
-0.0799918
-0.0799919
-0.079992
-0.079992
-0.0799921
-0.0799922
-0.0799923
-0.0799924
-0.0799925
-0.0799926
-0.0799928
-0.0799929
-0.079993
-0.0799932
-0.0799933
-0.0799935
-0.0799936
-0.0799938
-0.0799939
-0.0799941
-0.0799943
-0.0799944
-0.0799946
-0.0799948
-0.079995
-0.0799952
-0.0799953
-0.0799955
-0.0799957
-0.0799959
-0.0799961
-0.0799963
-0.0799965
-0.0799966
-0.0799968
-0.079997
-0.0799972
-0.0799974
-0.0799976
-0.0799977
-0.0799979
-0.0799981
-0.0799982
-0.0799984
-0.0799986
-0.0799987
-0.0799989
-0.079999
-0.0799991
-0.0799993
-0.0799994
-0.0799995
-0.0799996
-0.0799998
-0.0799999
-0.08
-0.08
-0.0800001
-0.0800002
-0.0800003
-0.0800003
-0.0800004
-0.0800004
-0.0800005
-0.0800005
-0.0800005
-0.0800005
-0.0800006
-0.0866673
-0.0866673
-0.0866673
-0.0866673
-0.0866672
-0.0866672
-0.0866671
-0.0866671
-0.086667
-0.086667
-0.0866669
-0.0866668
-0.0866667
-0.0866666
-0.0866665
-0.0866664
-0.0866663
-0.0866661
-0.086666
-0.0866659
-0.0866657
-0.0866656
-0.0866654
-0.0866653
-0.0866651
-0.0866649
-0.0866648
-0.0866646
-0.0866644
-0.0866642
-0.0866641
-0.0866639
-0.0866637
-0.0866635
-0.0866633
-0.0866631
-0.0866629
-0.0866628
-0.0866626
-0.0866624
-0.0866622
-0.086662
-0.0866618
-0.0866616
-0.0866614
-0.0866613
-0.0866611
-0.0866609
-0.0866607
-0.0866606
-0.0866604
-0.0866602
-0.0866601
-0.0866599
-0.0866598
-0.0866596
-0.0866595
-0.0866594
-0.0866592
-0.0866591
-0.086659
-0.0866589
-0.0866588
-0.0866587
-0.0866586
-0.0866586
-0.0866585
-0.0866584
-0.0866584
-0.0866583
-0.0866583
-0.0866582
-0.0866582
-0.0866582
-0.0866582
-0.0866582
-0.0866582
-0.0866582
-0.0866582
-0.0866583
-0.0866583
-0.0866584
-0.0866584
-0.0866585
-0.0866586
-0.0866586
-0.0866587
-0.0866588
-0.0866589
-0.086659
-0.0866591
-0.0866592
-0.0866594
-0.0866595
-0.0866596
-0.0866598
-0.0866599
-0.0866601
-0.0866602
-0.0866604
-0.0866606
-0.0866607
-0.0866609
-0.0866611
-0.0866613
-0.0866614
-0.0866616
-0.0866618
-0.086662
-0.0866622
-0.0866624
-0.0866626
-0.0866628
-0.0866629
-0.0866631
-0.0866633
-0.0866635
-0.0866637
-0.0866639
-0.0866641
-0.0866643
-0.0866644
-0.0866646
-0.0866648
-0.0866649
-0.0866651
-0.0866653
-0.0866654
-0.0866656
-0.0866657
-0.0866659
-0.086666
-0.0866661
-0.0866663
-0.0866664
-0.0866665
-0.0866666
-0.0866667
-0.0866668
-0.0866669
-0.086667
-0.086667
-0.0866671
-0.0866671
-0.0866672
-0.0866672
-0.0866673
-0.0866673
-0.0866673
-0.0866673
-0.0933341
-0.0933341
-0.0933341
-0.093334
-0.093334
-0.093334
-0.0933339
-0.0933338
-0.0933338
-0.0933337
-0.0933336
-0.0933335
-0.0933335
-0.0933333
-0.0933332
-0.0933331
-0.093333
-0.0933329
-0.0933327
-0.0933326
-0.0933325
-0.0933323
-0.0933322
-0.093332
-0.0933318
-0.0933317
-0.0933315
-0.0933313
-0.0933311
-0.0933309
-0.0933308
-0.0933306
-0.0933304
-0.0933302
-0.09333
-0.0933298
-0.0933296
-0.0933294
-0.0933292
-0.093329
-0.0933288
-0.0933286
-0.0933284
-0.0933283
-0.0933281
-0.0933279
-0.0933277
-0.0933275
-0.0933273
-0.0933272
-0.093327
-0.0933268
-0.0933267
-0.0933265
-0.0933264
-0.0933262
-0.0933261
-0.093326
-0.0933258
-0.0933257
-0.0933256
-0.0933255
-0.0933254
-0.0933253
-0.0933252
-0.0933251
-0.0933251
-0.093325
-0.0933249
-0.0933249
-0.0933248
-0.0933248
-0.0933248
-0.0933248
-0.0933248
-0.0933248
-0.0933248
-0.0933248
-0.0933248
-0.0933248
-0.0933249
-0.0933249
-0.093325
-0.0933251
-0.0933251
-0.0933252
-0.0933253
-0.0933254
-0.0933255
-0.0933256
-0.0933257
-0.0933258
-0.093326
-0.0933261
-0.0933262
-0.0933264
-0.0933265
-0.0933267
-0.0933268
-0.093327
-0.0933272
-0.0933273
-0.0933275
-0.0933277
-0.0933279
-0.0933281
-0.0933283
-0.0933285
-0.0933286
-0.0933288
-0.093329
-0.0933292
-0.0933294
-0.0933296
-0.0933298
-0.09333
-0.0933302
-0.0933304
-0.0933306
-0.0933308
-0.093331
-0.0933311
-0.0933313
-0.0933315
-0.0933317
-0.0933318
-0.093332
-0.0933322
-0.0933323
-0.0933325
-0.0933326
-0.0933328
-0.0933329
-0.093333
-0.0933331
-0.0933332
-0.0933334
-0.0933335
-0.0933336
-0.0933336
-0.0933337
-0.0933338
-0.0933339
-0.0933339
-0.093334
-0.093334
-0.093334
-0.0933341
-0.0933341
-0.0933341
-0.100001
-0.100001
-0.100001
-0.100001
-0.100001
-0.100001
-0.100001
-0.100001
-0.100001
-0.1
-0.1
-0.1
-0.1
-0.1
-0.1
-0.0999999
-0.0999998
-0.0999996
-0.0999995
-0.0999993
-0.0999992
-0.099999
-0.0999989
-0.0999987
-0.0999986
-0.0999984
-0.0999982
-0.099998
-0.0999978
-0.0999977
-0.0999975
-0.0999973
-0.0999971
-0.0999969
-0.0999967
-0.0999965
-0.0999963
-0.0999961
-0.0999959
-0.0999957
-0.0999955
-0.0999953
-0.0999951
-0.0999949
-0.0999947
-0.0999945
-0.0999943
-0.0999941
-0.099994
-0.0999938
-0.0999936
-0.0999934
-0.0999933
-0.0999931
-0.099993
-0.0999928
-0.0999927
-0.0999925
-0.0999924
-0.0999923
-0.0999922
-0.0999921
-0.099992
-0.0999919
-0.0999918
-0.0999917
-0.0999916
-0.0999916
-0.0999915
-0.0999914
-0.0999914
-0.0999914
-0.0999913
-0.0999913
-0.0999913
-0.0999913
-0.0999913
-0.0999913
-0.0999914
-0.0999914
-0.0999914
-0.0999915
-0.0999916
-0.0999916
-0.0999917
-0.0999918
-0.0999919
-0.099992
-0.0999921
-0.0999922
-0.0999923
-0.0999924
-0.0999925
-0.0999927
-0.0999928
-0.099993
-0.0999931
-0.0999933
-0.0999934
-0.0999936
-0.0999938
-0.099994
-0.0999941
-0.0999943
-0.0999945
-0.0999947
-0.0999949
-0.0999951
-0.0999953
-0.0999955
-0.0999957
-0.0999959
-0.0999961
-0.0999963
-0.0999965
-0.0999967
-0.0999969
-0.0999971
-0.0999973
-0.0999975
-0.0999977
-0.0999978
-0.099998
-0.0999982
-0.0999984
-0.0999986
-0.0999987
-0.0999989
-0.0999991
-0.0999992
-0.0999994
-0.0999995
-0.0999996
-0.0999998
-0.0999999
-0.1
-0.1
-0.1
-0.1
-0.1
-0.1
-0.100001
-0.100001
-0.100001
-0.100001
-0.100001
-0.100001
-0.100001
-0.100001
-0.100001
-0.106668
-0.106668
-0.106668
-0.106668
-0.106668
-0.106668
-0.106667
-0.106667
-0.106667
-0.106667
-0.106667
-0.106667
-0.106667
-0.106667
-0.106667
-0.106667
-0.106667
-0.106666
-0.106666
-0.106666
-0.106666
-0.106666
-0.106666
-0.106665
-0.106665
-0.106665
-0.106665
-0.106665
-0.106665
-0.106664
-0.106664
-0.106664
-0.106664
-0.106664
-0.106663
-0.106663
-0.106663
-0.106663
-0.106663
-0.106662
-0.106662
-0.106662
-0.106662
-0.106662
-0.106661
-0.106661
-0.106661
-0.106661
-0.106661
-0.10666
-0.10666
-0.10666
-0.10666
-0.10666
-0.10666
-0.106659
-0.106659
-0.106659
-0.106659
-0.106659
-0.106659
-0.106659
-0.106659
-0.106658
-0.106658
-0.106658
-0.106658
-0.106658
-0.106658
-0.106658
-0.106658
-0.106658
-0.106658
-0.106658
-0.106658
-0.106658
-0.106658
-0.106658
-0.106658
-0.106658
-0.106658
-0.106658
-0.106658
-0.106658
-0.106658
-0.106658
-0.106658
-0.106659
-0.106659
-0.106659
-0.106659
-0.106659
-0.106659
-0.106659
-0.106659
-0.10666
-0.10666
-0.10666
-0.10666
-0.10666
-0.10666
-0.106661
-0.106661
-0.106661
-0.106661
-0.106661
-0.106662
-0.106662
-0.106662
-0.106662
-0.106662
-0.106663
-0.106663
-0.106663
-0.106663
-0.106663
-0.106664
-0.106664
-0.106664
-0.106664
-0.106664
-0.106665
-0.106665
-0.106665
-0.106665
-0.106665
-0.106665
-0.106666
-0.106666
-0.106666
-0.106666
-0.106666
-0.106666
-0.106667
-0.106667
-0.106667
-0.106667
-0.106667
-0.106667
-0.106667
-0.106667
-0.106667
-0.106667
-0.106667
-0.106668
-0.106668
-0.106668
-0.106668
-0.106668
-0.106668
-0.113334
-0.113334
-0.113334
-0.113334
-0.113334
-0.113334
-0.113334
-0.113334
-0.113334
-0.113334
-0.113334
-0.113334
-0.113334
-0.113334
-0.113334
-0.113333
-0.113333
-0.113333
-0.113333
-0.113333
-0.113333
-0.113333
-0.113332
-0.113332
-0.113332
-0.113332
-0.113332
-0.113331
-0.113331
-0.113331
-0.113331
-0.113331
-0.11333
-0.11333
-0.11333
-0.11333
-0.11333
-0.113329
-0.113329
-0.113329
-0.113329
-0.113329
-0.113328
-0.113328
-0.113328
-0.113328
-0.113328
-0.113327
-0.113327
-0.113327
-0.113327
-0.113327
-0.113326
-0.113326
-0.113326
-0.113326
-0.113326
-0.113326
-0.113326
-0.113325
-0.113325
-0.113325
-0.113325
-0.113325
-0.113325
-0.113325
-0.113325
-0.113325
-0.113325
-0.113325
-0.113324
-0.113324
-0.113324
-0.113324
-0.113324
-0.113324
-0.113324
-0.113324
-0.113324
-0.113324
-0.113325
-0.113325
-0.113325
-0.113325
-0.113325
-0.113325
-0.113325
-0.113325
-0.113325
-0.113325
-0.113325
-0.113326
-0.113326
-0.113326
-0.113326
-0.113326
-0.113326
-0.113326
-0.113327
-0.113327
-0.113327
-0.113327
-0.113327
-0.113328
-0.113328
-0.113328
-0.113328
-0.113328
-0.113329
-0.113329
-0.113329
-0.113329
-0.113329
-0.11333
-0.11333
-0.11333
-0.11333
-0.11333
-0.113331
-0.113331
-0.113331
-0.113331
-0.113331
-0.113332
-0.113332
-0.113332
-0.113332
-0.113332
-0.113333
-0.113333
-0.113333
-0.113333
-0.113333