/*--------------------------------*- C++ -*----------------------------------*\
| =========                 |                                                 |
| \\      /  F ield         | OpenFOAM: The Open Source CFD Toolbox           |
|  \\    /   O peration     | Version:  2106                                  |
|   \\  /    A nd           | Website:  www.openfoam.com                      |
|    \\/     M anipulation  |                                                 |
\*---------------------------------------------------------------------------*/
FoamFile
{
    version     2.0;
    format      ascii;
    arch        "LSB;label=32;scalar=64";
    class       surfaceScalarField;
    location    "1.2";
    object      phi;
}
// * * * * * * * * * * * * * * * * * * * * * * * * * * * * * * * * * * * * * //

dimensions      [0 3 -1 0 0 0 0];

oriented        oriented;

internalField   nonuniform List<scalar> 
179250
(
-2.49056e-09
2.4905e-09
-4.97505e-09
2.48448e-09
-7.4496e-09
2.47455e-09
-9.9103e-09
2.46068e-09
-1.2353e-08
2.44272e-09
-1.47737e-08
2.42064e-09
-1.71681e-08
2.39442e-09
-1.95322e-08
2.36409e-09
-2.18619e-08
2.32968e-09
-2.41531e-08
2.29123e-09
-2.64019e-08
2.24879e-09
-2.86043e-08
2.20244e-09
-3.07566e-08
2.15223e-09
-3.28548e-08
2.09826e-09
-3.48954e-08
2.04062e-09
-3.68749e-08
1.97941e-09
-3.87896e-08
1.91473e-09
-4.06363e-08
1.84669e-09
-4.24117e-08
1.77542e-09
-4.41127e-08
1.70103e-09
-4.57364e-08
1.62366e-09
-4.72798e-08
1.54344e-09
-4.87403e-08
1.46051e-09
-5.01153e-08
1.37503e-09
-5.14025e-08
1.28713e-09
-5.25994e-08
1.19697e-09
-5.37042e-08
1.10472e-09
-5.47147e-08
1.01052e-09
-5.56292e-08
9.14558e-10
-5.64462e-08
8.16988e-10
-5.71642e-08
7.17984e-10
-5.77819e-08
6.17721e-10
-5.82983e-08
5.16374e-10
-5.87124e-08
4.14122e-10
-5.90236e-08
3.11143e-10
-5.92312e-08
2.07617e-10
-5.93349e-08
1.03727e-10
-5.93346e-08
-3.44581e-13
-5.92301e-08
-1.04416e-10
-5.90218e-08
-2.08305e-10
-5.871e-08
-3.11829e-10
-5.82952e-08
-4.14806e-10
-5.77781e-08
-5.17056e-10
-5.71597e-08
-6.184e-10
-5.64411e-08
-7.18659e-10
-5.56234e-08
-8.17657e-10
-5.47082e-08
-9.15222e-10
-5.3697e-08
-1.01118e-09
-5.25916e-08
-1.10537e-09
-5.1394e-08
-1.19761e-09
-5.01063e-08
-1.28776e-09
-4.87306e-08
-1.37565e-09
-4.72695e-08
-1.46113e-09
-4.57254e-08
-1.54404e-09
-4.41012e-08
-1.62424e-09
-4.23996e-08
-1.7016e-09
-4.06236e-08
-1.77597e-09
-3.87764e-08
-1.84723e-09
-3.68611e-08
-1.91524e-09
-3.48812e-08
-1.9799e-09
-3.28402e-08
-2.04109e-09
-3.07415e-08
-2.09869e-09
-2.85889e-08
-2.15261e-09
-2.63861e-08
-2.20276e-09
-2.4137e-08
-2.24904e-09
-2.18457e-08
-2.29138e-09
-1.9516e-08
-2.3297e-09
-1.7152e-08
-2.36394e-09
-1.4758e-08
-2.39402e-09
-1.23381e-08
-2.41991e-09
-9.89654e-09
-2.44155e-09
-7.43763e-09
-2.45891e-09
-4.96567e-09
-2.47196e-09
-2.485e-09
-2.48067e-09
2.59332e-14
-2.48503e-09
2.48505e-09
-2.48503e-09
4.96572e-09
-2.48067e-09
7.43768e-09
-2.47196e-09
9.89659e-09
-2.45891e-09
1.23381e-08
-2.44155e-09
1.4758e-08
-2.41991e-09
1.71521e-08
-2.39402e-09
1.9516e-08
-2.36394e-09
2.18457e-08
-2.3297e-09
2.41371e-08
-2.29138e-09
2.63861e-08
-2.24905e-09
2.85889e-08
-2.20276e-09
3.07415e-08
-2.15262e-09
3.28402e-08
-2.09869e-09
3.48813e-08
-2.04109e-09
3.68612e-08
-1.9799e-09
3.87764e-08
-1.91525e-09
4.06237e-08
-1.84723e-09
4.23996e-08
-1.77597e-09
4.41012e-08
-1.7016e-09
4.57255e-08
-1.62425e-09
4.72695e-08
-1.54404e-09
4.87307e-08
-1.46113e-09
5.01063e-08
-1.37565e-09
5.13941e-08
-1.28776e-09
5.25917e-08
-1.19762e-09
5.36971e-08
-1.10537e-09
5.47082e-08
-1.01118e-09
5.56235e-08
-9.15222e-10
5.64411e-08
-8.17657e-10
5.71598e-08
-7.18659e-10
5.77782e-08
-6.184e-10
5.82952e-08
-5.17057e-10
5.871e-08
-4.14807e-10
5.90219e-08
-3.11829e-10
5.92302e-08
-2.08305e-10
5.93346e-08
-1.04416e-10
5.93349e-08
-3.4423e-13
5.92312e-08
1.03728e-10
5.90236e-08
2.07617e-10
5.87124e-08
3.11143e-10
5.82983e-08
4.14122e-10
5.7782e-08
5.16375e-10
5.71642e-08
6.17722e-10
5.64462e-08
7.17984e-10
5.56293e-08
8.16987e-10
5.47147e-08
9.14558e-10
5.37042e-08
1.01052e-09
5.25995e-08
1.10472e-09
5.14025e-08
1.19697e-09
5.01154e-08
1.28713e-09
4.87403e-08
1.37503e-09
4.72798e-08
1.46051e-09
4.57364e-08
1.54344e-09
4.41127e-08
1.62366e-09
4.24117e-08
1.70103e-09
4.06363e-08
1.77542e-09
3.87896e-08
1.84669e-09
3.68749e-08
1.91473e-09
3.48955e-08
1.97941e-09
3.28548e-08
2.04062e-09
3.07566e-08
2.09827e-09
2.86043e-08
2.15223e-09
2.64019e-08
2.20244e-09
2.41531e-08
2.2488e-09
2.18619e-08
2.29123e-09
1.95322e-08
2.32968e-09
1.71681e-08
2.36409e-09
1.47737e-08
2.39442e-09
1.2353e-08
2.42063e-09
9.91031e-09
2.44272e-09
7.44961e-09
2.46069e-09
4.97503e-09
2.47459e-09
2.49053e-09
2.48449e-09
2.49053e-09
-2.49657e-09
4.98707e-09
-4.98709e-09
4.97498e-09
-7.46761e-09
4.95508e-09
-9.93416e-09
4.92724e-09
-1.23827e-08
4.89125e-09
-1.48091e-08
4.84702e-09
-1.72092e-08
4.79453e-09
-1.95789e-08
4.73382e-09
-2.19142e-08
4.66492e-09
-2.42109e-08
4.58793e-09
-2.6465e-08
4.50295e-09
-2.86727e-08
4.41013e-09
-3.08301e-08
4.3096e-09
-3.29334e-08
4.20154e-09
-3.49788e-08
4.08612e-09
-3.6963e-08
3.96355e-09
-3.88823e-08
3.83403e-09
-4.07334e-08
3.69779e-09
-4.2513e-08
3.55507e-09
-4.42181e-08
3.40612e-09
-4.58457e-08
3.2512e-09
-4.73928e-08
3.09057e-09
-4.88568e-08
2.92452e-09
-5.02351e-08
2.75334e-09
-5.15253e-08
2.57734e-09
-5.27252e-08
2.39681e-09
-5.38325e-08
2.21208e-09
-5.48455e-08
2.02347e-09
-5.57622e-08
1.8313e-09
-5.65811e-08
1.63593e-09
-5.73008e-08
1.43769e-09
-5.792e-08
1.23692e-09
-5.84376e-08
1.03398e-09
-5.88528e-08
8.29235e-10
-5.91646e-08
6.2303e-10
-5.93728e-08
4.15732e-10
-5.94767e-08
2.07705e-10
-5.94764e-08
-6.87906e-13
-5.93717e-08
-2.0908e-10
-5.91629e-08
-4.17106e-10
-5.88503e-08
-6.24401e-10
-5.84345e-08
-8.30602e-10
-5.79162e-08
-1.03535e-09
-5.72964e-08
-1.23828e-09
-5.6576e-08
-1.43903e-09
-5.57564e-08
-1.63727e-09
-5.4839e-08
-1.83263e-09
-5.38254e-08
-2.02478e-09
-5.27173e-08
-2.21338e-09
-5.15169e-08
-2.39809e-09
-5.0226e-08
-2.5786e-09
-4.88471e-08
-2.75459e-09
-4.73825e-08
-2.92574e-09
-4.58347e-08
-3.09177e-09
-4.42066e-08
-3.25237e-09
-4.25009e-08
-3.40727e-09
-4.07207e-08
-3.55619e-09
-3.88691e-08
-3.69887e-09
-3.69493e-08
-3.83507e-09
-3.49646e-08
-3.96454e-09
-3.29187e-08
-4.08705e-09
-3.08149e-08
-4.2024e-09
-2.86572e-08
-4.31037e-09
-2.64492e-08
-4.41079e-09
-2.41947e-08
-4.50347e-09
-2.18979e-08
-4.58824e-09
-1.95626e-08
-4.66498e-09
-1.7193e-08
-4.73352e-09
-1.47933e-08
-4.79377e-09
-1.23676e-08
-4.8456e-09
-9.92019e-09
-4.88894e-09
-7.4554e-09
-4.9237e-09
-4.97754e-09
-4.94982e-09
-2.49094e-09
-4.96727e-09
2.59723e-14
-4.97599e-09
2.49099e-09
-4.97599e-09
4.97759e-09
-4.96727e-09
7.45546e-09
-4.94982e-09
9.92024e-09
-4.9237e-09
1.23676e-08
-4.88894e-09
1.47933e-08
-4.8456e-09
1.71931e-08
-4.79377e-09
1.95627e-08
-4.73352e-09
2.18979e-08
-4.66498e-09
2.41948e-08
-4.58825e-09
2.64492e-08
-4.50347e-09
2.86572e-08
-4.41079e-09
3.0815e-08
-4.31038e-09
3.29187e-08
-4.2024e-09
3.49647e-08
-4.08705e-09
3.69493e-08
-3.96454e-09
3.88691e-08
-3.83507e-09
4.07208e-08
-3.69888e-09
4.2501e-08
-3.55619e-09
4.42067e-08
-3.40727e-09
4.58348e-08
-3.25237e-09
4.73825e-08
-3.09177e-09
4.88471e-08
-2.92575e-09
5.02261e-08
-2.75459e-09
5.15169e-08
-2.5786e-09
5.27174e-08
-2.39809e-09
5.38254e-08
-2.21338e-09
5.4839e-08
-2.02478e-09
5.57564e-08
-1.83263e-09
5.6576e-08
-1.63727e-09
5.72964e-08
-1.43903e-09
5.79163e-08
-1.23828e-09
5.84346e-08
-1.03535e-09
5.88504e-08
-8.30604e-10
5.91629e-08
-6.24403e-10
5.93717e-08
-4.17107e-10
5.94764e-08
-2.09081e-10
5.94768e-08
-6.88973e-13
5.93728e-08
2.07704e-10
5.91647e-08
4.15732e-10
5.88528e-08
6.2303e-10
5.84377e-08
8.29235e-10
5.79201e-08
1.03398e-09
5.73009e-08
1.23692e-09
5.65812e-08
1.43769e-09
5.57622e-08
1.63593e-09
5.48455e-08
1.8313e-09
5.38325e-08
2.02346e-09
5.27252e-08
2.21208e-09
5.15253e-08
2.39681e-09
5.02351e-08
2.57734e-09
4.88568e-08
2.75334e-09
4.73928e-08
2.92452e-09
4.58457e-08
3.09057e-09
4.42182e-08
3.2512e-09
4.25131e-08
3.40612e-09
4.07334e-08
3.55507e-09
3.88823e-08
3.69779e-09
3.6963e-08
3.83403e-09
3.49789e-08
3.96355e-09
3.29334e-08
4.08612e-09
3.08301e-08
4.20154e-09
2.86727e-08
4.30961e-09
2.6465e-08
4.41013e-09
2.42109e-08
4.50296e-09
2.19142e-08
4.58793e-09
1.95789e-08
4.66492e-09
1.72092e-08
4.73382e-09
1.48091e-08
4.79454e-09
1.23827e-08
4.84702e-09
9.93415e-09
4.89125e-09
7.46759e-09
4.92725e-09
4.98707e-09
4.9551e-09
2.49656e-09
4.975e-09
4.98709e-09
-2.50649e-09
7.49355e-09
-5.00695e-09
7.47541e-09
-7.49737e-09
7.44549e-09
-9.97375e-09
7.40363e-09
-1.2432e-08
7.34952e-09
-1.48681e-08
7.28305e-09
-1.72777e-08
7.20419e-09
-1.96569e-08
7.11295e-09
-2.20014e-08
7.00943e-09
-2.43072e-08
6.89375e-09
-2.65703e-08
6.76608e-09
-2.87868e-08
6.6266e-09
-3.09527e-08
6.47555e-09
-3.30644e-08
6.31318e-09
-3.5118e-08
6.13976e-09
-3.71101e-08
5.95558e-09
-3.9037e-08
5.76097e-09
-4.08955e-08
5.55626e-09
-4.26822e-08
5.34181e-09
-4.43941e-08
5.118e-09
-4.60281e-08
4.88521e-09
-4.75814e-08
4.64385e-09
-4.90512e-08
4.39435e-09
-5.0435e-08
4.13714e-09
-5.17303e-08
3.87268e-09
-5.29349e-08
3.60142e-09
-5.40467e-08
3.32384e-09
-5.50637e-08
3.04044e-09
-5.59841e-08
2.7517e-09
-5.68063e-08
2.45813e-09
-5.75288e-08
2.16025e-09
-5.81505e-08
1.85858e-09
-5.86701e-08
1.55365e-09
-5.90869e-08
1.246e-09
-5.94e-08
9.3616e-10
-5.9609e-08
6.24676e-10
-5.97134e-08
3.12096e-10
-5.9713e-08
-1.03232e-12
-5.96079e-08
-3.1416e-10
-5.93983e-08
-6.26738e-10
-5.90845e-08
-9.38217e-10
-5.8667e-08
-1.24805e-09
-5.81467e-08
-1.5557e-09
-5.75243e-08
-1.86062e-09
-5.68011e-08
-2.16227e-09
-5.59782e-08
-2.46014e-09
-5.50572e-08
-2.75369e-09
-5.40395e-08
-3.04241e-09
-5.29271e-08
-3.32579e-09
-5.17218e-08
-3.60334e-09
-5.04259e-08
-3.87458e-09
-4.90414e-08
-4.13901e-09
-4.7571e-08
-4.39619e-09
-4.60171e-08
-4.64566e-09
-4.43825e-08
-4.88698e-09
-4.267e-08
-5.11972e-09
-4.08827e-08
-5.34349e-09
-3.90237e-08
-5.55788e-09
-3.70963e-08
-5.76253e-09
-3.51037e-08
-5.95707e-09
-3.30496e-08
-6.14116e-09
-3.09376e-08
-6.31448e-09
-2.87712e-08
-6.47672e-09
-2.65544e-08
-6.6276e-09
-2.4291e-08
-6.76686e-09
-2.1985e-08
-6.89424e-09
-1.96404e-08
-7.00954e-09
-1.72614e-08
-7.11254e-09
-1.48521e-08
-7.20306e-09
-1.24168e-08
-7.28095e-09
-9.95967e-09
-7.34607e-09
-7.48507e-09
-7.3983e-09
-4.99734e-09
-7.43755e-09
-2.50085e-09
-7.46376e-09
2.59558e-14
-7.47687e-09
2.5009e-09
-7.47687e-09
4.9974e-09
-7.46376e-09
7.48512e-09
-7.43755e-09
9.95972e-09
-7.3983e-09
1.24168e-08
-7.34607e-09
1.48522e-08
-7.28095e-09
1.72615e-08
-7.20306e-09
1.96405e-08
-7.11254e-09
2.19851e-08
-7.00954e-09
2.42911e-08
-6.89425e-09
2.65545e-08
-6.76686e-09
2.87713e-08
-6.6276e-09
3.09376e-08
-6.47672e-09
3.30497e-08
-6.31448e-09
3.51038e-08
-6.14116e-09
3.70963e-08
-5.95707e-09
3.90238e-08
-5.76253e-09
4.08828e-08
-5.55789e-09
4.26701e-08
-5.34349e-09
4.43826e-08
-5.11973e-09
4.60172e-08
-4.88698e-09
4.7571e-08
-4.64566e-09
4.90415e-08
-4.39619e-09
5.04259e-08
-4.13901e-09
5.17219e-08
-3.87458e-09
5.29271e-08
-3.60335e-09
5.40396e-08
-3.32579e-09
5.50572e-08
-3.04241e-09
5.59783e-08
-2.75369e-09
5.68011e-08
-2.46014e-09
5.75244e-08
-2.16228e-09
5.81467e-08
-1.86062e-09
5.86671e-08
-1.5557e-09
5.90845e-08
-1.24805e-09
5.93983e-08
-9.3822e-10
5.9608e-08
-6.2674e-10
5.97131e-08
-3.14162e-10
5.97134e-08
-1.03446e-12
5.9609e-08
3.12094e-10
5.94001e-08
6.24675e-10
5.90869e-08
9.36159e-10
5.86702e-08
1.246e-09
5.81505e-08
1.55365e-09
5.75288e-08
1.85858e-09
5.68063e-08
2.16025e-09
5.59841e-08
2.45813e-09
5.50637e-08
2.7517e-09
5.40467e-08
3.04044e-09
5.2935e-08
3.32384e-09
5.17303e-08
3.60142e-09
5.0435e-08
3.87268e-09
4.90512e-08
4.13714e-09
4.75814e-08
4.39435e-09
4.60281e-08
4.64385e-09
4.43941e-08
4.88521e-09
4.26822e-08
5.118e-09
4.08955e-08
5.34181e-09
3.9037e-08
5.55626e-09
3.71101e-08
5.76097e-09
3.5118e-08
5.95558e-09
3.30644e-08
6.13976e-09
3.09528e-08
6.31318e-09
2.87868e-08
6.47556e-09
2.65703e-08
6.62661e-09
2.43072e-08
6.76608e-09
2.20014e-08
6.89376e-09
1.96569e-08
7.00944e-09
1.72777e-08
7.11296e-09
1.48681e-08
7.2042e-09
1.2432e-08
7.28306e-09
9.97373e-09
7.34953e-09
7.49734e-09
7.40364e-09
5.00692e-09
7.44552e-09
2.50647e-09
7.47544e-09
7.49356e-09
-2.5204e-09
1.0014e-08
-5.03481e-09
9.98981e-09
-7.53915e-09
9.94982e-09
-1.00294e-08
9.89384e-09
-1.25014e-08
9.82152e-09
-1.4951e-08
9.73268e-09
-1.73741e-08
9.62728e-09
-1.97665e-08
9.50536e-09
-2.21241e-08
9.36702e-09
-2.44428e-08
9.21243e-09
-2.67185e-08
9.04182e-09
-2.89473e-08
8.85543e-09
-3.11254e-08
8.65358e-09
-3.32488e-08
8.4366e-09
-3.53139e-08
8.20484e-09
-3.7317e-08
7.95872e-09
-3.92547e-08
7.69865e-09
-4.11235e-08
7.42509e-09
-4.29202e-08
7.13852e-09
-4.46416e-08
6.83942e-09
-4.62848e-08
6.52834e-09
-4.78467e-08
6.2058e-09
-4.93247e-08
5.87238e-09
-5.07162e-08
5.52866e-09
-5.20188e-08
5.17524e-09
-5.32301e-08
4.81274e-09
-5.43481e-08
4.44181e-09
-5.53707e-08
4.06308e-09
-5.62963e-08
3.67722e-09
-5.7123e-08
3.28492e-09
-5.78496e-08
2.88685e-09
-5.84748e-08
2.48371e-09
-5.89973e-08
2.07622e-09
-5.94164e-08
1.66509e-09
-5.97313e-08
1.25104e-09
-5.99414e-08
8.34786e-10
-6.00464e-08
4.17071e-10
-6.0046e-08
-1.37797e-12
-5.99404e-08
-4.19825e-10
-5.97296e-08
-8.37538e-10
-5.9414e-08
-1.25378e-09
-5.89942e-08
-1.66783e-09
-5.84709e-08
-2.07895e-09
-5.78451e-08
-2.48643e-09
-5.71179e-08
-2.88955e-09
-5.62904e-08
-3.2876e-09
-5.53642e-08
-3.67988e-09
-5.43409e-08
-4.06571e-09
-5.32223e-08
-4.44441e-09
-5.20103e-08
-4.81532e-09
-5.07071e-08
-5.17778e-09
-4.93149e-08
-5.53116e-09
-4.78363e-08
-5.87483e-09
-4.62737e-08
-6.20821e-09
-4.463e-08
-6.5307e-09
-4.2908e-08
-6.84173e-09
-4.11108e-08
-7.14076e-09
-3.92414e-08
-7.42726e-09
-3.73032e-08
-7.70074e-09
-3.52995e-08
-7.96071e-09
-3.3234e-08
-8.20672e-09
-3.11101e-08
-8.43833e-09
-2.89317e-08
-8.65514e-09
-2.67025e-08
-8.85678e-09
-2.44265e-08
-9.04287e-09
-2.21076e-08
-9.2131e-09
-1.975e-08
-9.36718e-09
-1.73577e-08
-9.50482e-09
-1.4935e-08
-9.62579e-09
-1.2486e-08
-9.72988e-09
-1.00152e-08
-9.8169e-09
-7.52681e-09
-9.88669e-09
-5.02521e-09
-9.93915e-09
-2.5148e-09
-9.97417e-09
2.58517e-14
-9.9917e-09
2.51485e-09
-9.9917e-09
5.02527e-09
-9.97417e-09
7.52687e-09
-9.93915e-09
1.00153e-08
-9.88669e-09
1.24861e-08
-9.8169e-09
1.4935e-08
-9.72988e-09
1.73577e-08
-9.62579e-09
1.975e-08
-9.50482e-09
2.21077e-08
-9.36718e-09
2.44265e-08
-9.21311e-09
2.67025e-08
-9.04287e-09
2.89317e-08
-8.85678e-09
3.11101e-08
-8.65515e-09
3.3234e-08
-8.43834e-09
3.52996e-08
-8.20672e-09
3.73032e-08
-7.96072e-09
3.92414e-08
-7.70075e-09
4.11108e-08
-7.42727e-09
4.29081e-08
-7.14076e-09
4.46301e-08
-6.84173e-09
4.62738e-08
-6.5307e-09
4.78363e-08
-6.20821e-09
4.9315e-08
-5.87484e-09
5.07071e-08
-5.53116e-09
5.20103e-08
-5.17778e-09
5.32223e-08
-4.81532e-09
5.43409e-08
-4.44441e-09
5.53642e-08
-4.06571e-09
5.62904e-08
-3.67988e-09
5.71179e-08
-3.2876e-09
5.78452e-08
-2.88955e-09
5.8471e-08
-2.48643e-09
5.89942e-08
-2.07895e-09
5.9414e-08
-1.66783e-09
5.97296e-08
-1.25379e-09
5.99404e-08
-8.37541e-10
6.00461e-08
-4.19829e-10
6.00464e-08
-1.38098e-12
5.99414e-08
4.17068e-10
5.97313e-08
8.34784e-10
5.94164e-08
1.25103e-09
5.89974e-08
1.66509e-09
5.84748e-08
2.07622e-09
5.78497e-08
2.48371e-09
5.71231e-08
2.88685e-09
5.62963e-08
3.28492e-09
5.53708e-08
3.67722e-09
5.43481e-08
4.06308e-09
5.32301e-08
4.44181e-09
5.20188e-08
4.81274e-09
5.07163e-08
5.17524e-09
4.93247e-08
5.52866e-09
4.78467e-08
5.87238e-09
4.62848e-08
6.2058e-09
4.46416e-08
6.52833e-09
4.29202e-08
6.83942e-09
4.11235e-08
7.13852e-09
3.92547e-08
7.4251e-09
3.7317e-08
7.69866e-09
3.53139e-08
7.95872e-09
3.32488e-08
8.20485e-09
3.11254e-08
8.4366e-09
2.89473e-08
8.65359e-09
2.67185e-08
8.85544e-09
2.44428e-08
9.04182e-09
2.21241e-08
9.21244e-09
1.97665e-08
9.36703e-09
1.73741e-08
9.50537e-09
1.4951e-08
9.62729e-09
1.25014e-08
9.73269e-09
1.00293e-08
9.82153e-09
7.53913e-09
9.89385e-09
5.03481e-09
9.94984e-09
2.52041e-09
9.98983e-09
1.0014e-08
-2.53853e-09
1.25525e-08
-5.07102e-09
1.25223e-08
-7.59339e-09
1.24722e-08
-1.01015e-08
1.2402e-08
-1.25914e-08
1.23113e-08
-1.50586e-08
1.22e-08
-1.74992e-08
1.20678e-08
-1.99088e-08
1.1915e-08
-2.22834e-08
1.17416e-08
-2.46188e-08
1.15478e-08
-2.69109e-08
1.13339e-08
-2.91558e-08
1.11003e-08
-3.13495e-08
1.08473e-08
-3.34882e-08
1.05753e-08
-3.55681e-08
1.02848e-08
-3.75857e-08
9.97628e-09
-3.95373e-08
9.65029e-09
-4.14196e-08
9.30738e-09
-4.32292e-08
8.94816e-09
-4.49631e-08
8.57324e-09
-4.6618e-08
8.18329e-09
-4.81912e-08
7.77899e-09
-4.96799e-08
7.36105e-09
-5.10814e-08
6.93019e-09
-5.23933e-08
6.48718e-09
-5.36134e-08
6.03279e-09
-5.47394e-08
5.56782e-09
-5.57694e-08
5.09309e-09
-5.67016e-08
4.60941e-09
-5.75343e-08
4.11766e-09
-5.82662e-08
3.61868e-09
-5.88958e-08
3.11335e-09
-5.94221e-08
2.60256e-09
-5.98442e-08
2.0872e-09
-6.01614e-08
1.56818e-09
-6.0373e-08
1.04641e-09
-6.04787e-08
5.22802e-10
-6.04784e-08
-1.72521e-12
-6.03719e-08
-5.26251e-10
-6.01596e-08
-1.04985e-09
-5.98418e-08
-1.57162e-09
-5.9419e-08
-2.09063e-09
-5.8892e-08
-2.60597e-09
-5.82616e-08
-3.11675e-09
-5.75291e-08
-3.62205e-09
-5.66957e-08
-4.12101e-09
-5.57628e-08
-4.61274e-09
-5.47322e-08
-5.09638e-09
-5.36055e-08
-5.57108e-09
-5.23848e-08
-6.03602e-09
-5.10722e-08
-6.49036e-09
-4.967e-08
-6.93332e-09
-4.81808e-08
-7.36413e-09
-4.66069e-08
-7.78201e-09
-4.49514e-08
-8.18625e-09
-4.3217e-08
-8.57613e-09
-4.14068e-08
-8.95097e-09
-3.95239e-08
-9.3101e-09
-3.75718e-08
-9.65291e-09
-3.55537e-08
-9.97878e-09
-3.34733e-08
-1.02872e-08
-3.13341e-08
-1.05775e-08
-2.914e-08
-1.08493e-08
-2.68948e-08
-1.1102e-08
-2.46024e-08
-1.13353e-08
-2.22668e-08
-1.15487e-08
-1.98922e-08
-1.17418e-08
-1.74827e-08
-1.19143e-08
-1.50425e-08
-1.2066e-08
-1.2576e-08
-1.21964e-08
-1.00873e-08
-1.23055e-08
-7.58101e-09
-1.2393e-08
-5.0614e-09
-1.24588e-08
-2.53291e-09
-1.25027e-08
2.57473e-14
-1.25246e-08
2.53296e-09
-1.25246e-08
5.06145e-09
-1.25027e-08
7.58106e-09
-1.24588e-08
1.00874e-08
-1.2393e-08
1.2576e-08
-1.23055e-08
1.50426e-08
-1.21964e-08
1.74827e-08
-1.2066e-08
1.98922e-08
-1.19143e-08
2.22669e-08
-1.17418e-08
2.46024e-08
-1.15487e-08
2.68948e-08
-1.13353e-08
2.91401e-08
-1.1102e-08
3.13342e-08
-1.08493e-08
3.34733e-08
-1.05775e-08
3.55537e-08
-1.02872e-08
3.75718e-08
-9.97879e-09
3.9524e-08
-9.65291e-09
4.14068e-08
-9.31011e-09
4.3217e-08
-8.95097e-09
4.49514e-08
-8.57613e-09
4.6607e-08
-8.18625e-09
4.81808e-08
-7.78202e-09
4.96701e-08
-7.36413e-09
5.10723e-08
-6.93333e-09
5.23848e-08
-6.49037e-09
5.36055e-08
-6.03602e-09
5.47322e-08
-5.57109e-09
5.57629e-08
-5.09639e-09
5.66958e-08
-4.61275e-09
5.75292e-08
-4.12102e-09
5.82617e-08
-3.62206e-09
5.8892e-08
-3.11675e-09
5.9419e-08
-2.60598e-09
5.98418e-08
-2.09063e-09
6.01597e-08
-1.57162e-09
6.0372e-08
-1.04986e-09
6.04784e-08
-5.26255e-10
6.04788e-08
-1.7288e-12
6.0373e-08
5.22798e-10
6.01614e-08
1.04641e-09
5.98443e-08
1.56818e-09
5.94222e-08
2.0872e-09
5.88958e-08
2.60256e-09
5.82662e-08
3.11335e-09
5.75344e-08
3.61868e-09
5.67016e-08
4.11766e-09
5.57694e-08
4.60941e-09
5.47394e-08
5.09308e-09
5.36134e-08
5.56782e-09
5.23934e-08
6.03279e-09
5.10814e-08
6.48718e-09
4.96799e-08
6.93019e-09
4.81912e-08
7.36105e-09
4.6618e-08
7.77899e-09
4.49631e-08
8.18329e-09
4.32293e-08
8.57324e-09
4.14196e-08
8.94816e-09
3.95373e-08
9.30738e-09
3.75857e-08
9.65029e-09
3.55681e-08
9.97629e-09
3.34882e-08
1.02848e-08
3.13495e-08
1.05753e-08
2.91558e-08
1.08473e-08
2.69109e-08
1.11003e-08
2.46188e-08
1.13339e-08
2.22834e-08
1.15478e-08
1.99088e-08
1.17416e-08
1.74992e-08
1.1915e-08
1.50586e-08
1.20678e-08
1.25914e-08
1.22e-08
1.01015e-08
1.23113e-08
7.59339e-09
1.2402e-08
5.07103e-09
1.24722e-08
2.53854e-09
1.25223e-08
1.25525e-08
-2.56095e-09
1.51134e-08
-5.11579e-09
1.50771e-08
-7.66042e-09
1.50168e-08
-1.01907e-08
1.49323e-08
-1.27025e-08
1.48231e-08
-1.51916e-08
1.4689e-08
-1.76537e-08
1.45299e-08
-2.00846e-08
1.43459e-08
-2.24802e-08
1.41371e-08
-2.48362e-08
1.39038e-08
-2.71486e-08
1.36463e-08
-2.94133e-08
1.3365e-08
-3.16263e-08
1.30604e-08
-3.37839e-08
1.27329e-08
-3.58822e-08
1.23831e-08
-3.79176e-08
1.20117e-08
-3.98865e-08
1.16192e-08
-4.17854e-08
1.12063e-08
-4.3611e-08
1.07738e-08
-4.53602e-08
1.03224e-08
-4.70297e-08
9.85287e-09
-4.86168e-08
9.36608e-09
-5.01186e-08
8.86287e-09
-5.15325e-08
8.34411e-09
-5.28561e-08
7.81071e-09
-5.40869e-08
7.26362e-09
-5.52229e-08
6.70379e-09
-5.6262e-08
6.13219e-09
-5.72024e-08
5.54984e-09
-5.80425e-08
4.95775e-09
-5.87808e-08
4.35697e-09
-5.9416e-08
3.74854e-09
-5.99469e-08
3.13354e-09
-6.03728e-08
2.51304e-09
-6.06927e-08
1.88813e-09
-6.09062e-08
1.2599e-09
-6.10129e-08
6.29468e-10
-6.10125e-08
-2.07424e-12
-6.09052e-08
-6.33615e-10
-6.0691e-08
-1.26405e-09
-6.03703e-08
-1.89226e-09
-5.99438e-08
-2.51716e-09
-5.94121e-08
-3.13765e-09
-5.87762e-08
-3.75263e-09
-5.80373e-08
-4.36103e-09
-5.71965e-08
-4.96179e-09
-5.62554e-08
-5.55384e-09
-5.52156e-08
-6.13616e-09
-5.4079e-08
-6.70771e-09
-5.28475e-08
-7.2675e-09
-5.15233e-08
-7.81454e-09
-5.01088e-08
-8.34787e-09
-4.86063e-08
-8.86657e-09
-4.70186e-08
-9.36972e-09
-4.53484e-08
-9.85643e-09
-4.35987e-08
-1.03259e-08
-4.17725e-08
-1.07772e-08
-3.9873e-08
-1.12096e-08
-3.79036e-08
-1.16223e-08
-3.58677e-08
-1.20147e-08
-3.37689e-08
-1.2386e-08
-3.16109e-08
-1.27355e-08
-2.93974e-08
-1.30627e-08
-2.71323e-08
-1.33671e-08
-2.48197e-08
-1.36479e-08
-2.24635e-08
-1.39048e-08
-2.00679e-08
-1.41374e-08
-1.76371e-08
-1.43451e-08
-1.51754e-08
-1.45277e-08
-1.2687e-08
-1.46848e-08
-1.01764e-08
-1.48161e-08
-7.64798e-09
-1.49215e-08
-5.10611e-09
-1.50006e-08
-2.55528e-09
-1.50535e-08
2.57563e-14
-1.50799e-08
2.55533e-09
-1.50799e-08
5.10616e-09
-1.50535e-08
7.64803e-09
-1.50006e-08
1.01765e-08
-1.49215e-08
1.26871e-08
-1.48161e-08
1.51754e-08
-1.46848e-08
1.76372e-08
-1.45277e-08
2.0068e-08
-1.43451e-08
2.24635e-08
-1.41374e-08
2.48197e-08
-1.39049e-08
2.71324e-08
-1.36479e-08
2.93974e-08
-1.33671e-08
3.16109e-08
-1.30628e-08
3.3769e-08
-1.27355e-08
3.58678e-08
-1.2386e-08
3.79037e-08
-1.20147e-08
3.98731e-08
-1.16223e-08
4.17726e-08
-1.12096e-08
4.35988e-08
-1.07772e-08
4.53485e-08
-1.03259e-08
4.70187e-08
-9.85643e-09
4.86064e-08
-9.36972e-09
5.01088e-08
-8.86658e-09
5.15234e-08
-8.34788e-09
5.28475e-08
-7.81454e-09
5.4079e-08
-7.2675e-09
5.52156e-08
-6.70771e-09
5.62554e-08
-6.13616e-09
5.71965e-08
-5.55385e-09
5.80373e-08
-4.96179e-09
5.87763e-08
-4.36104e-09
5.94122e-08
-3.75263e-09
5.99438e-08
-3.13765e-09
6.03704e-08
-2.51717e-09
6.0691e-08
-1.89227e-09
6.09052e-08
-1.26405e-09
6.10126e-08
-6.33619e-10
6.10129e-08
-2.0782e-12
6.09063e-08
6.29464e-10
6.06928e-08
1.2599e-09
6.03728e-08
1.88813e-09
5.9947e-08
2.51304e-09
5.9416e-08
3.13354e-09
5.87808e-08
3.74854e-09
5.80425e-08
4.35697e-09
5.72024e-08
4.95775e-09
5.6262e-08
5.54984e-09
5.52229e-08
6.13219e-09
5.40869e-08
6.70378e-09
5.28561e-08
7.26362e-09
5.15326e-08
7.81071e-09
5.01187e-08
8.34411e-09
4.86168e-08
8.86286e-09
4.70297e-08
9.36608e-09
4.53602e-08
9.85287e-09
4.3611e-08
1.03224e-08
4.17854e-08
1.07738e-08
3.98865e-08
1.12063e-08
3.79176e-08
1.16192e-08
3.58823e-08
1.20117e-08
3.37839e-08
1.23831e-08
3.16263e-08
1.27329e-08
2.94133e-08
1.30604e-08
2.71486e-08
1.3365e-08
2.48362e-08
1.36463e-08
2.24802e-08
1.39038e-08
2.00846e-08
1.41371e-08
1.76537e-08
1.43459e-08
1.51916e-08
1.453e-08
1.27025e-08
1.4689e-08
1.01907e-08
1.48231e-08
7.66042e-09
1.49323e-08
5.11579e-09
1.50168e-08
2.56095e-09
1.50772e-08
1.51135e-08
-2.58773e-09
1.77012e-08
-5.16928e-09
1.76587e-08
-7.74052e-09
1.75881e-08
-1.02973e-08
1.74891e-08
-1.28354e-08
1.73612e-08
-1.53505e-08
1.72041e-08
-1.78383e-08
1.70178e-08
-2.02947e-08
1.68023e-08
-2.27153e-08
1.65577e-08
-2.50959e-08
1.62845e-08
-2.74325e-08
1.59829e-08
-2.97209e-08
1.56534e-08
-3.19571e-08
1.52966e-08
-3.41372e-08
1.4913e-08
-3.62575e-08
1.45034e-08
-3.83142e-08
1.40683e-08
-4.03036e-08
1.36086e-08
-4.22224e-08
1.31251e-08
-4.40671e-08
1.26185e-08
-4.58345e-08
1.20898e-08
-4.75216e-08
1.15399e-08
-4.91253e-08
1.09698e-08
-5.06428e-08
1.03804e-08
-5.20715e-08
9.77281e-09
-5.34089e-08
9.14809e-09
-5.46526e-08
8.50732e-09
-5.58004e-08
7.85163e-09
-5.68504e-08
7.18217e-09
-5.78006e-08
6.5001e-09
-5.86495e-08
5.80664e-09
-5.93955e-08
5.10299e-09
-6.00374e-08
4.39038e-09
-6.05739e-08
3.67008e-09
-6.10042e-08
2.94333e-09
-6.13275e-08
2.21142e-09
-6.15432e-08
1.47563e-09
-6.1651e-08
7.37251e-10
-6.16506e-08
-2.4252e-12
-6.15422e-08
-7.421e-10
-6.13257e-08
-1.48047e-09
-6.10017e-08
-2.21626e-09
-6.05707e-08
-2.94815e-09
-6.00335e-08
-3.67488e-09
-5.9391e-08
-4.39516e-09
-5.86443e-08
-5.10774e-09
-5.77947e-08
-5.81135e-09
-5.68437e-08
-6.50478e-09
-5.57931e-08
-7.1868e-09
-5.46446e-08
-7.85622e-09
-5.34002e-08
-8.51185e-09
-5.20622e-08
-9.15256e-09
-5.06329e-08
-9.77722e-09
-4.91147e-08
-1.03847e-08
-4.75104e-08
-1.0974e-08
-4.58227e-08
-1.15441e-08
-4.40547e-08
-1.20939e-08
-4.22094e-08
-1.26225e-08
-4.02901e-08
-1.31289e-08
-3.83001e-08
-1.36123e-08
-3.62429e-08
-1.40719e-08
-3.41221e-08
-1.45067e-08
-3.19415e-08
-1.49161e-08
-2.97049e-08
-1.52994e-08
-2.74161e-08
-1.56558e-08
-2.50793e-08
-1.59848e-08
-2.26984e-08
-1.62857e-08
-2.02778e-08
-1.6558e-08
-1.78216e-08
-1.68013e-08
-1.53341e-08
-1.70152e-08
-1.28197e-08
-1.71992e-08
-1.02829e-08
-1.7353e-08
-7.72797e-09
-1.74764e-08
-5.15951e-09
-1.75691e-08
-2.58201e-09
-1.7631e-08
2.58938e-14
-1.7662e-08
2.58206e-09
-1.7662e-08
5.15957e-09
-1.7631e-08
7.72802e-09
-1.75691e-08
1.02829e-08
-1.74764e-08
1.28198e-08
-1.7353e-08
1.53342e-08
-1.71992e-08
1.78216e-08
-1.70152e-08
2.02779e-08
-1.68013e-08
2.26985e-08
-1.6558e-08
2.50793e-08
-1.62857e-08
2.74162e-08
-1.59848e-08
2.97049e-08
-1.56558e-08
3.19416e-08
-1.52994e-08
3.41222e-08
-1.49161e-08
3.62429e-08
-1.45067e-08
3.83001e-08
-1.40719e-08
4.02901e-08
-1.36123e-08
4.22095e-08
-1.31289e-08
4.40548e-08
-1.26225e-08
4.58228e-08
-1.20939e-08
4.75104e-08
-1.15441e-08
4.91147e-08
-1.0974e-08
5.06329e-08
-1.03847e-08
5.20622e-08
-9.77723e-09
5.34003e-08
-9.15257e-09
5.46446e-08
-8.51186e-09
5.57931e-08
-7.85622e-09
5.68438e-08
-7.18681e-09
5.77947e-08
-6.50479e-09
5.86443e-08
-5.81136e-09
5.9391e-08
-5.10774e-09
6.00335e-08
-4.39517e-09
6.05708e-08
-3.67488e-09
6.10018e-08
-2.94816e-09
6.13258e-08
-2.21626e-09
6.15422e-08
-1.48048e-09
6.16507e-08
-7.42105e-10
6.1651e-08
-2.42958e-12
6.15433e-08
7.37247e-10
6.13275e-08
1.47563e-09
6.10042e-08
2.21142e-09
6.05739e-08
2.94333e-09
6.00374e-08
3.67008e-09
5.93956e-08
4.39038e-09
5.86495e-08
5.10299e-09
5.78007e-08
5.80664e-09
5.68504e-08
6.5001e-09
5.58004e-08
7.18216e-09
5.46526e-08
7.85163e-09
5.34089e-08
8.50732e-09
5.20715e-08
9.14809e-09
5.06428e-08
9.77281e-09
4.91253e-08
1.03804e-08
4.75216e-08
1.09698e-08
4.58346e-08
1.15399e-08
4.40671e-08
1.20898e-08
4.22224e-08
1.26185e-08
4.03037e-08
1.31251e-08
3.83142e-08
1.36086e-08
3.62575e-08
1.40683e-08
3.41373e-08
1.45034e-08
3.19571e-08
1.4913e-08
2.97209e-08
1.52966e-08
2.74325e-08
1.56534e-08
2.50959e-08
1.59829e-08
2.27153e-08
1.62845e-08
2.02947e-08
1.65577e-08
1.78383e-08
1.68023e-08
1.53505e-08
1.70178e-08
1.28354e-08
1.72041e-08
1.02973e-08
1.73612e-08
7.74052e-09
1.74891e-08
5.16928e-09
1.75881e-08
2.58773e-09
1.76587e-08
1.77012e-08
-2.61895e-09
2.03201e-08
-5.23165e-09
2.02714e-08
-7.83392e-09
2.01903e-08
-1.04215e-08
2.00767e-08
-1.29902e-08
1.99299e-08
-1.55357e-08
1.97496e-08
-1.80536e-08
1.95357e-08
-2.05396e-08
1.92883e-08
-2.29894e-08
1.90075e-08
-2.53988e-08
1.86938e-08
-2.77635e-08
1.83476e-08
-3.00795e-08
1.79694e-08
-3.23427e-08
1.75598e-08
-3.45492e-08
1.71195e-08
-3.66951e-08
1.66492e-08
-3.87766e-08
1.61498e-08
-4.079e-08
1.56221e-08
-4.27319e-08
1.5067e-08
-4.45989e-08
1.44855e-08
-4.63877e-08
1.38786e-08
-4.80951e-08
1.32473e-08
-4.97181e-08
1.25928e-08
-5.1254e-08
1.19162e-08
-5.26999e-08
1.12188e-08
-5.40534e-08
1.05016e-08
-5.53121e-08
9.76603e-09
-5.64738e-08
9.01333e-09
-5.75365e-08
8.24481e-09
-5.84982e-08
7.46184e-09
-5.93573e-08
6.66577e-09
-6.01123e-08
5.85801e-09
-6.07619e-08
5.03997e-09
-6.13049e-08
4.21309e-09
-6.17404e-08
3.37882e-09
-6.20676e-08
2.53862e-09
-6.2286e-08
1.69397e-09
-6.2395e-08
8.46338e-10
-6.23947e-08
-2.77829e-12
-6.22849e-08
-8.51892e-10
-6.20658e-08
-1.69951e-09
-6.17379e-08
-2.54416e-09
-6.13017e-08
-3.38434e-09
-6.0758e-08
-4.21859e-09
-6.01077e-08
-5.04544e-09
-5.9352e-08
-5.86345e-09
-5.84922e-08
-6.67117e-09
-5.75298e-08
-7.4672e-09
-5.64665e-08
-8.25013e-09
-5.53041e-08
-9.01859e-09
-5.40447e-08
-9.77123e-09
-5.26905e-08
-1.05067e-08
-5.12439e-08
-1.12238e-08
-4.97075e-08
-1.19212e-08
-4.80838e-08
-1.25977e-08
-4.63758e-08
-1.32521e-08
-4.45864e-08
-1.38832e-08
-4.27189e-08
-1.449e-08
-4.07764e-08
-1.50714e-08
-3.87623e-08
-1.56263e-08
-3.66803e-08
-1.61539e-08
-3.4534e-08
-1.66531e-08
-3.2327e-08
-1.71231e-08
-3.00634e-08
-1.7563e-08
-2.7747e-08
-1.79722e-08
-2.5382e-08
-1.83498e-08
-2.29724e-08
-1.86952e-08
-2.05225e-08
-1.90079e-08
-1.80367e-08
-1.92872e-08
-1.55192e-08
-1.95327e-08
-1.29745e-08
-1.97439e-08
-1.0407e-08
-1.99205e-08
-7.82124e-09
-2.00621e-08
-5.22179e-09
-2.01685e-08
-2.61317e-09
-2.02396e-08
2.60379e-14
-2.02752e-08
2.61322e-09
-2.02752e-08
5.22184e-09
-2.02396e-08
7.82129e-09
-2.01685e-08
1.0407e-08
-2.00621e-08
1.29745e-08
-1.99205e-08
1.55192e-08
-1.97439e-08
1.80367e-08
-1.95327e-08
2.05226e-08
-1.92872e-08
2.29725e-08
-1.90079e-08
2.5382e-08
-1.86952e-08
2.77471e-08
-1.83498e-08
3.00634e-08
-1.79722e-08
3.23271e-08
-1.7563e-08
3.4534e-08
-1.71231e-08
3.66804e-08
-1.66531e-08
3.87624e-08
-1.61539e-08
4.07764e-08
-1.56264e-08
4.27189e-08
-1.50714e-08
4.45865e-08
-1.449e-08
4.63758e-08
-1.38832e-08
4.80838e-08
-1.32521e-08
4.97075e-08
-1.25977e-08
5.1244e-08
-1.19212e-08
5.26906e-08
-1.12238e-08
5.40448e-08
-1.05067e-08
5.53041e-08
-9.77124e-09
5.64665e-08
-9.01859e-09
5.75298e-08
-8.25013e-09
5.84922e-08
-7.46721e-09
5.93521e-08
-6.67118e-09
6.01078e-08
-5.86346e-09
6.07581e-08
-5.04545e-09
6.13018e-08
-4.2186e-09
6.1738e-08
-3.38435e-09
6.20659e-08
-2.54416e-09
6.22849e-08
-1.69952e-09
6.23947e-08
-8.51897e-10
6.23951e-08
-2.78332e-12
6.2286e-08
8.46333e-10
6.20677e-08
1.69396e-09
6.17405e-08
2.53862e-09
6.1305e-08
3.37882e-09
6.0762e-08
4.21309e-09
6.01124e-08
5.03997e-09
5.93573e-08
5.85801e-09
5.84982e-08
6.66577e-09
5.75365e-08
7.46183e-09
5.64738e-08
8.24481e-09
5.53121e-08
9.01333e-09
5.40534e-08
9.76603e-09
5.26999e-08
1.05016e-08