/*--------------------------------*- C++ -*----------------------------------*\
| =========                 |                                                 |
| \\      /  F ield         | OpenFOAM: The Open Source CFD Toolbox           |
|  \\    /   O peration     | Version:  2106                                  |
|   \\  /    A nd           | Website:  www.openfoam.com                      |
|    \\/     M anipulation  |                                                 |
\*---------------------------------------------------------------------------*/
FoamFile
{
    version     2.0;
    format      ascii;
    arch        "LSB;label=32;scalar=64";
    class       volScalarField;
    location    "0.048";
    object      p;
}
// * * * * * * * * * * * * * * * * * * * * * * * * * * * * * * * * * * * * * //

dimensions      [1 -1 -2 0 0 0 0];

internalField   nonuniform List<scalar> 
4096
(
-1.8681485
-1.8501624
-1.8143633
-1.7610954
-1.6908712
-1.6043662
-1.5024126
-1.3859914
-1.256223
-1.1143561
-0.96175619
-0.79989221
-0.63032242
-0.45467945
-0.27465498
-0.091982129
0.091580025
0.27426274
0.45430666
0.62997749
0.7995829
0.96148896
1.1141358
1.2560528
1.3858726
1.5023442
1.6043456
1.6908938
1.7611549
1.8144519
1.8502711
1.8682674
1.8682674
1.8502711
1.8144519
1.7611549
1.6908938
1.6043456
1.5023442
1.3858726
1.2560528
1.1141358
0.96148896
0.7995829
0.62997749
0.45430666
0.27426274
0.091580025
-0.091982129
-0.27465498
-0.45467945
-0.63032242
-0.79989221
-0.96175619
-1.1143561
-1.256223
-1.3859914
-1.5024126
-1.6043662
-1.6908712
-1.7610954
-1.8143633
-1.8501624
-1.8681485
-1.8853383
-1.8671865
-1.8310576
-1.777299
-1.706428
-1.6191263
-1.5162338
-1.3987407
-1.2677774
-1.1246044
-0.9705998
-0.80724603
-0.63611574
-0.45885666
-0.27717578
-0.092822437
0.092427746
0.27679036
0.45848962
0.63577528
0.80693947
0.97033325
1.1243825
1.267603
1.398615
1.5161561
1.6190939
1.7064365
1.7773424
1.8311285
1.8672764
1.8854378
1.8854378
1.8672764
1.8311285
1.7773424
1.7064365
1.6190939
1.5161561
1.398615
1.267603
1.1243825
0.97033325
0.80693947
0.63577528
0.45848962
0.27679036
0.092427746
-0.092822437
-0.27717578
-0.45885666
-0.63611574
-0.80724603
-0.9705998
-1.1246044
-1.2677774
-1.3987407
-1.5162338
-1.6191263
-1.706428
-1.777299
-1.8310576
-1.8671865
-1.8853383
-1.9207574
-1.9022646
-1.8654569
-1.8106883
-1.7384858
-1.6495438
-1.5447181
-1.4250174
-1.2915936
-1.1457306
-0.98883255
-0.82240972
-0.64806435
-0.46747515
-0.28238113
-0.094564716
0.094165139
0.28199058
0.4671024
0.64771743
0.82209576
0.98855748
1.1454989
1.2914081
1.4248793
1.5446267
1.6494964
1.7384782
1.8107148
1.8655101
1.9023363
1.9208385
1.9208385
1.9023363
1.8655101
1.8107148
1.7384782
1.6494964
1.5446267
1.4248793
1.2914081
1.1454989
0.98855748
0.82209576
0.64771743
0.4671024
0.28199058
0.094165139
-0.094564716
-0.28238113
-0.46747515
-0.64806435
-0.82240972
-0.98883255
-1.1457306
-1.2915936
-1.4250174
-1.5447181
-1.6495438
-1.7384858
-1.8106883
-1.8654569
-1.9022646
-1.9207574
-1.9746327
-1.9556213
-1.9177814
-1.8614769
-1.7872494
-1.695813
-1.5880474
-1.4649895
-1.3278234
-1.1778693
-1.0165704
-0.84547955
-0.66624391
-0.4805893
-0.29030354
-0.097219188
0.096804059
0.28989733
0.48020062
0.66588074
0.84514895
1.0162783
1.17762
1.32762
1.464833
1.5879371
1.6957465
1.7872224
1.8614837
1.9178148
1.9556731
1.9746938
1.9746938
1.9556731
1.9178148
1.8614837
1.7872224
1.6957465
1.5879371
1.464833
1.32762
1.17762
1.0162783
0.84514895
0.66588074
0.48020062
0.28989733
0.096804059
-0.097219188
-0.29030354
-0.4805893
-0.66624391
-0.84547955
-1.0165704
-1.1778693
-1.3278234
-1.4649895
-1.5880474
-1.695813
-1.7872494
-1.8614769
-1.9177814
-1.9556213
-1.9746327
-2.047427
-2.027715
-1.9884805
-1.930101
-1.8531378
-1.7583314
-1.6465939
-1.5190001
-1.376778
-1.2212962
-1.0540514
-0.87665335
-0.69081017
-0.49831131
-0.30101056
-0.10080812
0.10036767
0.300579
0.49789723
0.69042154
0.87629726
1.0537337
1.2210216
1.3765493
1.5188186
1.6464588
1.7582405
1.8530868
1.930084
1.9884904
2.0277434
2.0474649
2.0474649
2.0277434
1.9884904
1.930084
1.8530868
1.7582405
1.6464588
1.5188186
1.3765493
1.2210216
1.0537337
0.87629726
0.69042154
0.49789723
0.300579
0.10036767
-0.10080812
-0.30101056
-0.49831131
-0.69081017
-0.87665335
-1.0540514
-1.2212962
-1.376778
-1.5190001
-1.6465939
-1.7583314
-1.8531378
-1.930101
-1.9884805
-2.027715
-2.047427
-2.1398391
-2.1192377
-2.0782331
-2.0172195
-1.9367838
-1.8376995
-1.7209198
-1.5875682
-1.4389277
-1.2764289
-1.1016357
-0.91623087
-0.72199942
-0.52081169
-0.31460524
-0.10536616
0.10489009
0.31413811
0.52036214
0.72157552
0.91583982
1.1012836
1.2761204
1.4386659
1.5873543
1.7207534
1.8375782
1.9367033
2.017174
2.0782152
2.1192389
2.13985
2.13985
2.1192389
2.0782152
2.017174
1.9367033
1.8375782
1.7207534
1.5873543
1.4386659
1.2761204
1.1012836
0.91583982
0.72157552
0.52036214
0.31413811
0.10489009
-0.10536616
-0.31460524
-0.52081169
-0.72199942
-0.91623087
-1.1016357
-1.2764289
-1.4389277
-1.5875682
-1.7209198
-1.8376995
-1.9367838
-2.0172195
-2.0782331
-2.1192377
-2.1398391
-2.2527579
-2.2310699
-2.1879025
-2.1236707
-2.0389921
-1.934681
-1.8117407
-1.6713539
-1.5148711
-1.3437983
-1.159782
-0.96459354
-0.76011233
-0.54830745
-0.33121882
-0.11093748
0.11041459
0.33070499
0.54781147
0.75964244
0.96415714
1.1593854
1.3434464
1.5145673
1.6710996
1.8115356
1.9345227
2.0388763
2.1235913
2.187852
2.2310394
2.2527375
2.2527375
2.2310394
2.187852
2.1235913
2.0388763
1.9345227
1.8115356
1.6710996
1.5145673
1.3434464
1.1593854
0.96415714
0.75964244
0.54781147
0.33070499
0.11041459
-0.11093748
-0.33121882
-0.54830745
-0.76011233
-0.96459354
-1.159782
-1.3437983
-1.5148711
-1.6713539
-1.8117407
-1.934681
-2.0389921
-2.1236707
-2.1879025
-2.2310699
-2.2527579
-2.3872653
-2.3642831
-2.3185397
-2.2504747
-2.1607425
-2.0502058
-1.9199276
-1.7711609
-1.6053369
-1.4240511
-1.2290483
-1.0222058
-0.80551499
-0.58106279
-0.35101105
-0.11757585
0.11699393
0.35043837
0.58050835
0.80498727
1.0217125
1.2285961
1.4236453
1.6049811
1.7708571
1.9196754
2.050003
2.1605847
2.2503556
2.3184512
2.3642159
2.387209
2.387209
2.3642159
2.3184512
2.2503556
2.1605847
2.050003
1.9196754
1.7708571
1.6049811
1.4236453
1.2285961
1.0217125
0.80498727
0.58050835
0.35043837
0.11699393
-0.11757585
-0.35101105
-0.58106279
-0.80551499
-1.0222058
-1.2290483
-1.4240511
-1.6053369
-1.7711609
-1.9199276
-2.0502058
-2.1607425
-2.2504747
-2.3185397
-2.3642831
-2.3872653
-2.5446496
-2.5201533
-2.4713961
-2.3988465
-2.3032017
-2.1853812
-2.0465176
-1.8879464
-1.7111928
-1.5179573
-1.3100996
-1.0896207
-0.85864345
-0.61939242
-0.37417223
-0.12534531
0.12469091
0.37352727
0.61876615
0.85804469
1.0890576
1.3095793
1.5174855
1.7107738
1.8875825
2.0462089
2.1851253
2.3029943
2.3986808
2.4712636
2.5200439
2.544552
2.544552
2.5200439
2.4712636
2.3986808
2.3029943
2.1851253
2.0462089
1.8875825
1.7107738
1.5174855
1.3095793
1.0890576
0.85804469
0.61876615
0.37352727
0.12469091
-0.12534532
-0.37417223
-0.61939242
-0.85864345
-1.0896207
-1.3100996
-1.5179573
-1.7111928
-1.8879464
-2.0465176
-2.1853812
-2.3032017
-2.3988465
-2.4713961
-2.5201533
-2.5446496
-2.7264181
-2.7001733
-2.6479358
-2.5702074
-2.4677349
-2.3415028
-2.1927246
-2.0228305
-1.8334544
-1.6264181
-1.4037139
-1.1674857
-0.92000812
-0.66366474
-0.40092514
-0.13432088
0.13357902
0.40019293
0.66295169
0.91932343
1.1668381
1.4031111
1.6258667
1.8329593
2.0223945
2.1923483
2.3411842
2.4674692
2.5699877
2.6477527
2.7000157
2.7262736
2.7262736
2.7000157
2.6477527
2.5699877
2.4674692
2.3411842
2.1923483
2.0223945
1.8329593
1.6258667
1.4031111
1.1668381
0.91932343
0.66295169
0.40019293
0.13357902
-0.13432088
-0.40092514
-0.66366474
-0.92000812
-1.1674857
-1.4037139
-1.6264181
-1.8334544
-2.0228305
-2.1927246
-2.3415028
-2.4677349
-2.5702074
-2.6479358
-2.7001733
-2.7264181
-2.9343116
-2.9060674
-2.84985
-2.7661993
-2.6559186
-2.5200672
-2.3599504
-2.177107
-1.973295
-1.7504748
-1.5107904
-1.256549
-0.99019879
-0.71430545
-0.43152723
-0.14458921
0.14374316
0.43069094
0.71348868
0.9894112
1.2557999
1.5100886
1.7498277
1.9727086
2.176585
2.359494
2.5196747
2.6555851
2.7659172
2.849609
2.905855
2.934114
2.934114
2.905855
2.849609
2.7659172
2.6555851
2.5196747
2.359494
2.176585
1.9727086
1.7498277
1.5100886
1.2557999
0.9894112
0.71348868
0.43069094
0.14374316
-0.14458921
-0.43152723
-0.71430545
-0.99019879
-1.256549
-1.5107904
-1.7504748
-1.973295
-2.177107
-2.3599504
-2.5200672
-2.6559186
-2.7661993
-2.84985
-2.9060674
-2.9343116
-3.1703207
-3.139807
-3.0790724
-2.9886997
-2.8695564
-2.7227862
-2.5497988
-2.3522561
-2.132057
-1.8913188
-1.6323578
-1.3576665
-1.0698904
-0.77180174
-0.46627314
-0.15624956
0.15528041
0.46531369
0.77086188
1.0689803
1.3567963
1.6315374
1.8905572
2.1313614
2.3516317
2.5492475
2.7223067
2.8691439
2.9883458
3.0787656
3.1395331
3.1700637
3.1700637
3.1395331
3.0787656
2.9883458
2.8691439
2.7223067
2.5492475
2.3516317
2.1313614
1.8905572
1.6315374
1.3567963
1.0689803
0.77086188
0.46531369
0.15528041
-0.15624956
-0.46627314
-0.77180174
-1.0698904
-1.3576665
-1.6323578
-1.8913188
-2.132057
-2.3522561
-2.5497988
-2.7227862
-2.8695564
-2.9886997
-3.0790724
-3.139807
-3.1703207
-3.4367048
-3.4036302
-3.3377982
-3.2398399
-3.1106952
-2.9516031
-2.7640907
-2.5499587
-2.3112646
-2.0503031
-1.7695846
-1.4718109
-1.1598498
-0.8367072
-0.50549775
-0.16941483
0.16830089
0.50439311
0.83562166
1.158794
1.470796
1.7686222
2.0494041
2.3104383
2.5492119
2.7634268
2.9510215
3.1101909
3.2394038
3.3374169
3.4032875
3.436382
3.436382
3.4032875
3.3374169
3.2394038
3.1101909
2.9510215
2.7634268
2.5492119
2.3104383
2.0494041
1.7686222
1.470796
1.158794
0.83562166
0.50439311
0.16830089
-0.16941483
-0.50549775
-0.8367072
-1.1598498
-1.4718109
-1.7695846
-2.0503031
-2.3112646
-2.5499587
-2.7640907
-2.9516031
-3.1106952
-3.2398399
-3.3377982
-3.4036302
-3.4367048
-3.7360139
-3.7000626
-3.6285046
-3.5220255
-3.3816458
-3.2087116
-3.0048817
-2.7721125
-2.5126393
-2.228956
-1.9237908
-1.6000808
-1.2609435
-0.90964745
-0.54957962
-0.1842128
0.18292872
0.54830383
0.9083893
1.259714
1.5988925
1.9226576
2.2278915
2.5116556
2.771219
3.0040838
3.2080097
3.3810349
3.5214952
3.6280396
3.6996436
3.7356186
3.7356186
3.6996436
3.6280396
3.5214952
3.3810349
3.2080097
3.0040838
2.771219
2.5116556
2.2278915
1.9226576
1.5988925
1.259714
0.9083893
0.54830383
0.18292872
-0.1842128
-0.54957962
-0.90964745
-1.2609435
-1.6000808
-1.9237908
-2.228956
-2.5126393
-2.7721125
-3.0048817
-3.2087116
-3.3816458
-3.5220255
-3.6285046
-3.7000626
-3.7360139
-4.0711123
-4.0319416
-3.9539751
-3.8379591
-3.6850047
-3.4965771
-3.2744824
-3.0208508
-2.7381167
-2.4289962
-2.0964613
-1.7437122
-1.3741466
-0.99132668
-0.59894499
-0.20078764
0.19930303
0.59746666
0.98986283
1.3727085
1.7423144
2.0951205
2.4277301
2.7369416
3.0197798
3.2735235
3.4957323
3.6842691
3.8373208
3.953416
4.0314384
4.0706381
4.0706381
4.0314384
3.953416
3.8373208
3.6842691
3.4957323
3.2735235
3.0197798
2.7369416
2.4277301
2.0951205
1.7423144
1.3727085
0.98986283
0.59746666
0.19930303
-0.20078764
-0.59894499
-0.99132668
-1.3741466
-1.7437122
-2.0964613
-2.4289962
-2.7381167
-3.0208508
-3.2744824
-3.4965771
-3.6850047
-3.8379591
-3.9539751
-4.0319416
-4.0711123
-4.4452065
-4.4024431
-4.3173252
-4.1906666
-4.023679
-3.8179603
-3.5754807
-3.2985637
-2.9898655
-2.6523498
-2.2892607
-1.9040916
-1.5005527
-1.0825351
-0.65407246
-0.2193017
0.21757908
0.65235245
1.0808236
1.4988611
1.9024369
2.2876643
2.650835
2.9884545
3.297275
3.5743262
3.8169442
4.0227964
4.1899038
4.3166603
4.4018475
4.4446467
4.4446467
4.4018475
4.3166603
4.1899038
4.0227964
3.8169442
3.5743262
3.297275
2.9884545
2.650835
2.2876643
1.9024369
1.4988611
1.0808236
0.65235245
0.21757908
-0.2193017
-0.65407246
-1.0825351
-1.5005527
-1.9040916
-2.2892607
-2.6523498
-2.9898655
-3.2985637
-3.5754807
-3.8179603
-4.023679
-4.1906666
-4.3173252
-4.4024431
-4.4452065
-4.8618753
-4.8151124
-4.722033
-4.583526
-4.4009146
-4.1759443
-3.910767
-3.6079213
-3.2703095
-2.9011705
-2.5040505
-2.0827697
-1.6413862
-1.1841574
-0.71549833
-0.23993748
0.23792944
0.71348646
1.1821436
1.6393816
2.080795
2.5021338
2.8993435
3.268603
3.6063614
3.9093712
4.1747197
4.3998565
4.582618
4.7212481
4.8144148
4.861223
4.861223
4.8144148
4.7212481
4.582618
4.3998565
4.1747197
3.9093712
3.6063614
3.268603
2.8993435
2.5021338
2.080795
1.6393816
1.1821436
0.71348646
0.23792944
-0.23993748
-0.71549833
-1.1841574
-1.6413862
-2.0827697
-2.5040505
-2.9011705
-3.2703095
-3.6079213
-3.910767
-4.1759443
-4.4009146
-4.583526
-4.722033
-4.8151124
-4.8618753
-5.325104
-5.2738973
-5.1719718
-5.0202997
-4.8203276
-4.5739643
-4.2835632
-3.9519009
-3.5821521
-3.1778612
-2.7429093
-2.2814789
-1.7980151
-1.297183
-0.78382274
-0.26290004
0.26054541
0.78145322
1.2947937
1.7956165
2.2790974
2.7405831
3.1756345
3.5800683
3.9499966
4.281864
4.5724813
4.8190562
5.0192197
5.1710491
5.2730862
5.3243509
5.3243509
5.2730862
5.1710491
5.0192197
4.8190562
4.5724813
4.281864
3.9499966
3.5800683
3.1756345
2.7405831
2.2790974
1.7956165
1.2947937
0.78145322
0.26054541
-0.26290004
-0.78382274
-1.297183
-1.7980151
-2.2814789
-2.7429093
-3.1778612
-3.5821521
-3.9519009
-4.2835632
-4.5739643
-4.8203276
-5.0202997
-5.1719718
-5.2738973
-5.325104
-5.8393226
-5.7831863
-5.671448
-5.5051712
-5.2859394
-5.0158416
-4.697454
-4.3338161
-3.9284042
-3.4850996
-3.0081543
-2.502152
-1.9719669
-1.4227172
-0.85971669
-0.28841953
0.28563866
0.85690213
1.4198526
1.969062
2.4992424
3.0052938
3.4823509
3.925829
4.3314665
4.6953661
5.014032
5.284403
5.5038826
5.6703632
5.7822462
5.8384575
5.8384575
5.7822462
5.6703632
5.5038826
5.284403
5.014032
4.6953661
4.3314665
3.925829
3.4823509
3.0052938
2.4992424
1.969062
1.4198526
0.85690213
0.28563866
-0.28841953
-0.85971669
-1.4227172
-1.9719669
-2.502152
-3.0081543
-3.4850996
-3.9284042
-4.3338161
-4.697454
-5.0158416
-5.2859394
-5.5051712
-5.671448
-5.7831863
-5.8393226
-6.409448
-6.3478509
-6.2252416
-6.0427851
-5.8022155
-5.5058209
-5.1564229
-4.7573513
-4.3124145
-3.8258662
-3.3023671
-2.7469443
-2.1649463
-1.5619946
-0.94393013
-0.31675381
0.31344358
0.94055408
1.5585176
2.161378
2.7433352
3.2987958
3.8224234
4.3091883
4.7544152
5.1538276
5.5035896
5.8003424
6.0412368
6.2239602
6.3467588
6.4084541
6.4084541
6.3467588
6.2239602
6.0412368
5.8003424
5.5035896
5.1538276
4.7544152
4.3091883
3.8224234
3.2987958
2.7433352
2.161378
1.5585176
0.94055408
0.31344358
-0.31675381
-0.94393013
-1.5619946
-2.1649463
-2.7469443
-3.3023671
-3.8258662
-4.3124145
-4.7573513
-5.1564229
-5.5058209
-5.8022155
-6.0427851
-6.2252416
-6.3478509
-6.409448
-7.0409317
-6.9732919
-6.8386535
-6.6382926
-6.3741097
-6.0486121
-5.6648918
-5.2265982
-4.7379055
-4.2034767
-3.6284227
-3.0182586
-2.3788564
-1.7163942
-1.0373009
-0.34819082
0.34422078
1.0332096
1.7121162
2.3744032
3.013707
3.6238903
4.1990964
4.7338036
5.2228779
5.6616231
6.0458261
6.3717983
6.6364107
6.8371239
6.972012
7.0397811
7.0397811
6.972012
6.8371239
6.6364107
6.3717983
6.0458261
5.6616231
5.2228779
4.7338036
4.1990964
3.6238903
3.013707
2.3744032
1.7121162
1.0332096
0.34422078
-0.34819082
-1.0373009
-1.7163942
-2.3788564
-3.0182586
-3.6284227
-4.2034767
-4.7379055
-5.2265982
-5.6648918
-6.0486121
-6.3741097
-6.6382926
-6.8386535
-6.9732919
-7.0409317
-7.7398121
-7.6654924
-7.5175557
-7.2974011
-7.007112
-6.6494368
-6.2277652
-5.7460979
-5.2090114
-4.6216179
-3.9895223
-3.3187749
-2.6158228
-1.8874582
-1.1407646
-0.38304964
0.37826297
1.1357595
1.8821206
2.6101729
3.3129358
3.9836743
4.6159576
5.2037195
5.7413181
6.2235918
6.6459099
7.0042185
7.2950787
7.5157002
7.6639671
7.7384576
7.7384576
7.6639671
7.5157002
7.2950787
7.0042185
6.6459099
6.2235918
5.7413181
5.2037195
4.6159576
3.9836743
3.3129358
2.6101729
1.8821206
1.1357595
0.37826297
-0.38304964
-1.1407646
-1.8874582
-2.6158228
-3.3187749
-3.9895223
-4.6216179
-5.2090114
-5.7460979
-6.2277652
-6.6494368
-7.007112
-7.2974011
-7.5175557
-7.6654924
-7.7398121
-8.5127732
-8.431075
-8.2684492
-8.0264301
-7.707302
-7.3140792
-6.8504784
-6.3208864
-5.7303211
-5.0843873
-4.3892297
-3.6514835
-2.8782231
-2.0769134
-1.2553652
-0.42167867
0.41590547
1.2491997
2.0701645
2.8709382
3.6438696
4.381568
5.0769691
5.7234039
6.3146674
6.8450816
7.3095534
7.703624
8.0235124
8.2661507
8.4292131
8.5111368
8.5111368
8.4292131
8.2661507
8.0235124
7.703624
7.3095534
6.8450816
6.3146674
5.7234039
5.0769691
4.381568
3.6438696
2.8709382
2.0701645
1.2491997
0.41590547
-0.42167867
-1.2553652
-2.0769134
-2.8782231
-3.6514835
-4.3892297
-5.0843873
-5.7303211
-6.3208864
-6.8504784
-7.3140792
-7.707302
-8.0264301
-8.2684492
-8.431075
-8.5127732
-9.3672085
-9.2773658
-9.0985257
-8.8323711
-8.4814078
-8.0489418
-7.5390499
-6.9565433
-6.3069238
-5.5963358
-4.8315124
-4.0197235
-3.1687216
-2.2866978
-1.3822652
-0.46444709
0.45754563
1.3746533
2.2780655
3.1591899
4.0096524
4.8213452
5.5865036
6.2977893
6.9483712
7.5319986
8.0430652
8.4766649
8.8286382
9.0956111
9.2750262
9.3651654
9.3651654
9.2750262
9.0956111
8.8286382
8.4766649
8.0430652
7.5319986
6.9483712
6.2977893
5.5865036
4.8213452
4.0096524
3.1591899
2.2780655
1.3746533
0.45754563
-0.46444709
-1.3822652
-2.2866978
-3.1687216
-4.0197235
-4.8315124
-5.5963358
-6.3069238
-6.9565433
-7.5390499
-8.0489418
-8.4814078
-8.8323711
-9.0985257
-9.2773658
-9.3672085
-10.311289
-10.212461
-10.015733
-9.7229516
-9.3368654
-8.8611022
-8.3001347
-7.659241
-6.9444548
-6.1625108
-5.3207827
-4.427225
-3.4903114
-2.5189961
-1.5227557
-0.51172282
0.50367961
1.5134057
2.507854
3.4776833
4.4137523
5.3071666
6.1493843
6.9323186
7.6484409
8.2908629
8.8534102
9.3306817
9.7181008
10.011956
10.209436
10.30865
10.30865
10.209436
10.011956
9.7181008
9.3306817
8.8534102
8.2908629
7.6484409
6.9323186
6.1493843
5.3071666
4.4137523
3.4776833
2.507854
1.5134057
0.50367961
-0.51172282
-1.5227557
-2.5189961
-3.4903114
-4.427225
-5.3207827
-6.1625108
-6.9444548
-7.659241
-8.3001347
-8.8611022
-9.3368654
-9.7229516
-10.015733
-10.212461
-10.311289
-11.354035
-11.2453
-11.028847
-10.706703
-10.281884
-9.7583737
-9.1410794
-8.4357949
-7.6491399
-6.7884983
-5.8619409
-4.8781584
-3.8463767
-2.7763026
-1.6782728
-0.5638217
0.55497377
1.6669574
2.761804
3.8294617
4.8599883
5.843618
6.7709336
7.6330028
8.4215166
9.1288767
9.7482799
10.273779
10.700339
11.023877
11.241302
11.350536
11.350536
11.241302
11.023877
10.700339
10.273779
9.7482799
9.1288767
8.4215166
7.6330028
6.7709336
5.843618
4.8599883
3.8294617
2.761804
1.6669574
0.55497377
-0.5638217
-1.6782728
-2.7763026
-3.8463767
-4.8781584
-5.8619409
-6.7884983
-7.6491399
-8.4357949
-9.1410794
-9.7583737
-10.281884
-10.706703
-11.028847
-11.2453
-11.354035
-12.505423
-12.385766
-12.147568
-11.793055
-11.325537
-10.749388
-10.069997
-9.2937288
-8.427853
-7.4804738
-6.4604246
-5.3771941
-4.2407782
-3.061527
-1.8504171
-0.6208907
0.61239909
1.8370939
3.0424509
4.2178635
5.3525608
6.435773
7.4570534
8.4065121
9.2749682
10.054031
10.736204
11.314939
11.784699
12.140996
12.380432
12.500725
12.500725
12.380432
12.140996
11.784699
11.314939
10.736204
10.054031
9.2749682
8.4065121
7.4570534
6.435773
5.3525608
4.2178635
3.0424509
1.8370939
0.61239908
-0.6208907
-1.8504171
-3.061527
-4.2407782
-5.3771941
-6.4604246
-7.4804738
-8.427853
-9.2937288
-10.069997
-10.749388
-11.325537
-11.793055
-12.147568
-12.385766
-12.505423
-13.776496
-13.6448
-13.382633
-12.992441
-12.477856
-11.843684
-11.095843
-10.241338
-9.2881595
-8.2452262
-7.1222165
-5.9295124
-4.6778844
-3.3780313
-2.0408901
-0.68268171
0.67744228
2.0260194
3.3527267
4.6466933
5.8962293
7.0893217
8.2143404
9.2602982
10.217026
11.075241
11.826689
12.464164
12.981583
13.374014
13.63773
13.770223
13.770223
13.63773
13.374014
12.981583
12.464164
11.826689
11.075241
10.217026
9.2602982
8.2143404
7.0893217
5.8962293
4.6466933
3.3527267
2.0260194
0.67744228
-0.68268171
-2.0408901
-3.3780313
-4.6778844
-5.9295124
-7.1222165
-8.2452262
-9.2881595
-10.241338
-11.095843
-11.843684
-12.477856
-12.992441
-13.382633
-13.6448
-13.776496
-15.179071
-15.034108
-14.745526
-14.316016
-13.749557
-13.05144
-12.228154
-11.287428
-10.238051
-9.0898707
-7.8535631
-6.5405954
-5.1624937
-3.729597
-2.2513898
-0.74828795
0.75236829
2.2365152
3.69585
5.1198665
6.4959146
7.8103085
9.0499265
10.202452
11.256625
12.202171
13.030027
13.732264
14.302219
14.734473
15.024951
15.170901
15.170901
15.024951
14.734473
14.302219
13.732264
13.030027
12.202171
11.256625
10.202452
9.0499265
7.8103085
6.4959146
5.1198665
3.69585
2.2365152
0.75236829
-0.74828795
-2.2513898
-3.729597
-5.1624937
-6.5405954
-7.8535631
-9.0898707
-10.238051
-11.287428
-12.228154
-13.05144
-13.749557
-14.316016
-14.745526
-15.034108
-15.179071
-16.724756
-16.565189
-16.247524
-15.774728
-15.151152
-14.382624
-13.476251
-12.440569
-11.285248
-10.0213
-8.6606548
-7.2163372
-5.7009914
-4.1225923
-2.4848879
-0.8155783
0.84095778
2.4722986
4.075315
5.6412949
7.1565692
8.6048782
9.9710436
11.241162
12.402788
13.444546
14.356532
15.130047
15.75781
16.233872
16.553786
16.714552
16.714552
16.553786
16.233872
15.75781
15.130047
14.356532
13.444546
12.402788
11.241162
9.9710436
8.6048782
7.1565692
5.6412949
4.075315
2.4722986
0.84095778
-0.8155783
-2.4848879
-4.1225923
-5.7009914
-7.2163372
-8.6606548
-10.0213
-11.285248
-12.440569
-13.476251
-14.382624
-15.151152
-15.774728
-16.247524
-16.565189
-16.724756
-18.429253
-18.253601
-17.903884
-17.383395
-16.696859
-15.850729
-14.852732
-13.712352
-12.440222
-11.048813
-9.5516892
-7.9646883
-6.3045449
-4.5786938
-2.7523299
-0.87286913
0.95658333
2.7392549
4.494347
6.2152611
7.8846533
9.4814585
10.987727
12.387767
13.668002
14.815765
15.820371
16.672354
17.363708
17.887955
18.2402
18.417128
18.417128
18.2402
17.887955
17.363708
16.672354
15.820371
14.815765
13.668002
12.387767
10.987727
9.4814585
7.8846533
6.2152611
4.494347
2.7392549
0.95658333
-0.87286913
-2.7523299
-4.5786938
-6.3045449
-7.9646883
-9.5516892
-11.048813
-12.440222
-13.712352
-14.852732
-15.850729
-16.696859
-17.383395
-17.903884
-18.253601
-18.429253
-19.332898
-19.157809
-18.808575
-18.287793
-17.598267
-16.745211
-15.733403
-14.570884
-13.264796
-11.82666
-10.267241
-8.6035581
-6.8564863
-5.0776591
-3.2416285
-1.0412584
1.1446403
3.0377811
4.9506598
6.8483582
8.6956926
10.461054
12.125663
13.67103
15.083848
16.349659
17.457889
18.396995
19.159415
19.737216
20.125639
20.320605
20.320605
20.125639
19.737216
19.159415
18.396995
17.457889
16.349659
15.083848
13.67103
12.125663
10.461054
8.6956926
6.8483582
4.9506598
3.0377811
1.1446403
-1.0412584
-3.2416285
-5.0776591
-6.8564863
-8.6035581
-10.267241
-11.82666
-13.264796
-14.570884
-15.733403
-16.745211
-17.598267
-18.287793
-18.808575
-19.157809
-19.332898
20.30656
20.111736
19.723577
19.146173
18.384284
17.445829
16.338402
15.073561
13.661587
12.117227
10.453767
8.6896206
6.8435463
4.9471701
3.0356805
1.1440056
-1.0405884
-3.2396178
-5.074306
-6.8518115
-8.5975948
-10.260048
-11.818308
-13.25535
-14.560431
-15.722076
-16.733117
-17.585513
-18.274503
-18.794879
-19.143832
-19.318788
-19.318788
-19.143832
-18.794879
-18.274503
-17.585513
-16.733117
-15.722076
-14.560431
-13.25535
-11.818308
-10.260048
-8.5975948
-6.8518115
-5.074306
-3.2396178
-1.0405884
1.1440056
3.0356805
4.9471701
6.8435463
8.6896206
10.453767
12.117227
13.661587
15.073561
16.338402
17.445829
18.384284
19.146173
19.723577
20.111736
20.30656
18.402933
18.226141
17.874162
17.350319
16.659494
15.808167
14.804317
13.657363
12.378182
10.979226
9.4740945
7.8785076
6.2104045
4.4908238
2.7370908
0.95576214
-0.87225192
-2.7503102
-4.5753032
-6.2998149
-7.9586614
-9.5444216
-11.040371
-12.430688
-13.701823
-14.841306
-15.838521
-16.683989
-17.369986
-17.890065
-18.239504
-18.415019
-18.415019
-18.239504
-17.890065
-17.369986
-16.683989
-15.838521
-14.841306
-13.701823
-12.430688
-11.040371
-9.5444216
-7.9586614
-6.2998149
-4.5753032
-2.7503102
-0.87225192
0.95576214
2.7370908
4.4908238
6.2104045
7.8785076
9.4740945
10.979226
12.378182
13.657363
14.804317
15.808167
16.659494
17.350319
17.874162
18.226141
18.402933
16.700073
16.539445
16.219805
15.744152
15.11693
14.344079
13.432869
12.391994
11.231383
9.9623666
8.5973758
7.150314
5.6363498
4.0717267
2.4700963
0.8401595
-0.81494041
-2.4828251
-4.1191299
-5.6961629
-7.2101882
-8.6532434
-10.012697
-11.275536
-12.429842
-13.464615
-14.370192
-15.138045
-15.761073
-16.233452
-16.550837
-16.710264
-16.710264
-16.550837
-16.233452
-15.761073
-15.138045
-14.370192
-13.464615
-12.429842
-11.275536
-10.012697
-8.6532434
-7.2101882
-5.6961629
-4.1191299
-2.4828251
-0.81494041
0.8401595
2.4700963
4.0717267
5.6363498
7.150314
8.5973758
9.9623666
11.231383
12.391994
13.432869
14.344079
15.11693
15.744152
16.219805
16.539445
16.700073
15.156
15.010192
14.719998
14.288165
13.718766
13.017213
12.190163
11.245535
10.192398
9.0410023
7.8025961
6.4894878
5.1147878
3.6921677
2.2342628
0.75156675
-0.74761996
-2.2492604
-3.7260288
-5.1575213
-6.5342663
-7.8459379
-9.0810224
-10.228065
-11.276401
-12.216194
-13.038662
-13.736086
-14.301982
-14.731065
-15.01936
-15.164179
-15.164179
-15.01936
-14.731065
-14.301982
-13.736086
-13.038662
-12.216194
-11.276401
-10.228065
-9.0810224
-7.8459379
-6.5342663
-5.1575213
-3.7260288
-2.2492604
-0.74761996
0.75156675
2.2342628
3.6921677
5.1147878
6.4894878
7.8025961
9.0410023
10.192398
11.245535
12.190163
13.017213
13.718766
14.288165
14.719998
15.010192
15.156
13.754759
13.622414
13.358993
12.967001
12.45016
11.813396
11.062785
10.205527
9.2498725
8.2050864
7.0813265
5.8895693
4.6414328
3.3489159
2.0236943
0.67662513
-0.68197834
-2.0386732
-3.374323
-4.6727207
-5.922943
-7.1143045
-8.2360479
-9.2778034
-10.229904
-11.083443
-11.830438
-12.463891
-12.977894
-13.367644
-13.629513
-13.76106
-13.76106
-13.629513
-13.367644
-12.977894
-12.463891
-11.830438
-11.083443
-10.229904
-9.2778034
-8.2360479
-7.1143045
-5.922943
-4.6727207
-3.374323
-2.0386732
-0.68197834
0.67662513
2.0236943
3.3489159
4.6414328
5.8895693
7.0813265
8.2050864
9.2498725
10.205527
11.062785
11.813396
12.45016
12.967001
13.358993
13.622414
13.754759
12.484553
12.364415
12.125287
11.76945
11.300295
10.722305
10.04101
9.2629508
8.3956155
7.447382
6.4274189
5.3456041
4.2123709
3.038475
1.8346726
0.61155585
-0.62014597
-1.8480915
-3.0576432
-4.2353738
-5.3703214
-6.4521499
-7.4708769
-8.4170266
-9.2817777
-10.057037
-10.735544
-11.310944
-11.777853
-12.131904
-12.369792
-12.489294
-12.489294
-12.369792
-12.131904
-11.777853
-11.310944
-10.735544
-10.057037
-9.2817777
-8.4170266
-7.4708769
-6.4521499
-5.3703214
-4.2353738
-3.0576432
-1.8480915
-0.62014597
0.61155585
1.8346726
3.038475
4.2123709
5.3456041
6.4274189
7.447382
8.3956155
9.2629508
10.04101
10.722305
11.300295
11.76945
12.125287
12.364415
12.484553
11.333502
11.224431
11.007331
10.684277
10.258356
9.7336429
9.1151663
8.4088644
7.6215313
6.7607529
5.8348255
4.8526683
3.8236844
2.7576246
1.664416
0.55409475
-0.56302923
-1.6758165
-2.7722062
-3.8406801
-4.8709167
-5.8532241
-6.7783905
-7.6377389
-8.4232109
-9.127434
-9.743799
-10.266521
-10.690699
-11.012358
-11.228485
-11.337056
-11.337056
-11.228485
-11.012358
-10.690699
-10.266521
-9.743799
-9.127434
-8.4232109
-7.6377389
-6.7783905
-5.8532241
-4.8709167
-3.8406801
-2.7722062
-1.6758165
-0.56302923
0.55409475
1.664416
2.7576246
3.8236844
4.8526683
5.8348255
6.7607529
7.6215313
8.4088644
9.1151663
9.7336429
10.258356
10.684277
11.007331
11.224431
11.333502
10.290593
10.191551
9.994417
9.7010752
9.3143333
8.837896
8.2763319
7.6350329
6.9201626
6.1385971
5.2978516
4.4059989
3.4715657
2.5034308
1.5107192
0.50275548
-0.5108756
-1.5201454
-2.5146483
-3.4842682
-4.4195449
-5.3115401
-6.151795
-6.9323694
-7.6459028
-8.2856726
-8.8456559
-9.3205841
-9.7059924
-9.9982599
-10.194642
-10.293296
-10.293296
-10.194642
-9.9982599
-9.7059924
-9.3205841
-8.8456559
-8.2856726
-7.6459028
-6.9323694
-6.151795
-5.3115401
-4.4195449
-3.4842682
-2.5146483
-1.5201454
-0.5108756
0.50275548
1.5107192
2.5034308
3.4715657
4.4059989
5.2978516
6.1385971
6.9201626
7.6350329
8.2763319
8.837896
9.3143333
9.7010752
9.994417
10.191551
10.290593
9.3459119
9.2559578
9.0769111
8.8104863
8.4592356
8.026526
7.5165085
6.9340791
6.2848326
5.5750069
4.8114187
4.0013914
3.1526733
2.2733559
1.3717956
0.45656695
-0.46353749
-1.3794763
-2.2820571
-3.1622739
-4.0115316
-4.8216554
-5.584909
-6.2940378
-6.9423225
-7.5236317
-8.032475
-8.4640514
-8.8142926
-9.0798994
-9.2583714
-9.3480291
-9.3480291
-9.2583714
-9.0798994
-8.8142926
-8.4640514
-8.032475
-7.5236317
-6.9423225
-6.2940378
-5.584909
-4.8216554
-4.0115316
-3.1622739
-2.2820571
-1.3794763
-0.46353749
0.45656695
1.3717956
2.2733559
3.1526733
4.0013914
4.8114187
5.5750069
6.2848326
6.9340791
7.5165085
8.026526
8.4592356
8.8104863
9.0769111
9.2559578
9.3459119
8.4905044
8.4087791
8.2461118
8.0040612
7.6849476
7.2918314
6.8284845
6.2993546
5.7095227
5.0646529
4.3709349
3.6350217
2.8639602
2.065123
1.2461429
0.41486243
-0.42069837
-1.2523714
-2.0719355
-2.8713095
-3.6427012
-4.3786637
-5.0721398
-5.7165105
-6.3056462
-6.8339556
-7.2964334
-7.6887034
-8.007058
-8.2484904
-8.410722
-8.4922221
-8.4922221
-8.410722
-8.2484904
-8.007058
-7.6887034
-7.2964334
-6.8339556
-6.3056462
-5.7165105
-5.0721398
-4.3786637
-3.6427012
-2.8713095
-2.0719355
-1.2523714
-0.42069837
0.41486243
1.2461429
2.065123
2.8639602
3.6350217
4.3709349
5.0646529
5.7095227
6.2993546
6.8284845
7.2918314
7.6849476
8.0040612
8.2461118
8.4087791
8.4905044
7.7162496
7.6419728
7.4941313
7.2741427
6.9841168
6.626836
6.2057291
5.7248384
5.1887811
4.6027041
3.9722329
3.3034162
2.6026663
1.8766988
1.1324742
0.37714523
-0.38198957
-1.1375374
-1.8820956
-2.6083769
-3.309318
-3.978146
-4.6084323
-5.1941437
-5.7296919
-6.2099791
-6.6304422
-6.9870922
-7.2765491
-7.4960724
-7.6435848
-7.7176914
-7.7176914
-7.6435848
-7.4960724
-7.2765491
-6.9870922
-6.6304422
-6.2099791
-5.7296919
-5.1941437
-4.6084323
-3.978146
-3.309318
-2.6083769
-1.8820956
-1.1375374
-0.38198957
0.37714523
1.1324742
1.8766988
2.6026663
3.3034162
3.9722329
4.6027041
5.1887811
5.7248384
6.2057291
6.626836
6.9841168
7.2741427
7.4941313
7.6419728
7.7162496
7.0157855
6.9482474
6.8138191
6.61379
6.3500794
6.025218
5.6423241
5.2050736
4.7176651