/*--------------------------------*- C++ -*----------------------------------*\
| =========                 |                                                 |
| \\      /  F ield         | OpenFOAM: The Open Source CFD Toolbox           |
|  \\    /   O peration     | Version:  2106                                  |
|   \\  /    A nd           | Website:  www.openfoam.com                      |
|    \\/     M anipulation  |                                                 |
\*---------------------------------------------------------------------------*/
FoamFile
{
    version     2.0;
    format      ascii;
    arch        "LSB;label=32;scalar=64";
    class       surfaceScalarField;
    location    "0.048";
    object      phi_0;
}
// * * * * * * * * * * * * * * * * * * * * * * * * * * * * * * * * * * * * * //

dimensions      [0 3 -1 0 0 0 0];

oriented        oriented;

internalField   nonuniform List<scalar> 
8064
(
-2.6361077e-05
2.6361077e-05
-5.2470972e-05
2.6109896e-05
-7.808081e-05
2.5609837e-05
-0.0001029463
2.4865494e-05
-0.00012683002
2.3883713e-05
-0.00014950356
2.2673545e-05
-0.00017074974
2.1246182e-05
-0.00019036461
1.9614867e-05
-0.0002081594
1.7794788e-05
-0.00022396236
1.5802961e-05
-0.00023762044
1.3658078e-05
-0.00024900079
1.1380352e-05
-0.00025799212
8.9913331e-06
-0.00026450583
6.5137106e-06
-0.00026847692
3.9710894e-06
-0.00026986477
1.3878471e-06
-0.00026865353
-1.211243e-06
-0.00026485239
-3.8011381e-06
-0.00025849559
-6.3567949e-06
-0.00024964217
-8.8534204e-06
-0.00023837546
-1.1266716e-05
-0.00022480234
-1.3573115e-05
-0.00020905232
-1.5750018e-05
-0.0001912763
-1.7776023e-05
-0.00017164516
-1.9631142e-05
-0.00015034815
-2.1297013e-05
-0.00012759105
-2.2757096e-05
-0.0001035942
-2.3996851e-05
-7.8590301e-05
-2.5003898e-05
-5.2822143e-05
-2.5768159e-05
-2.6540173e-05
-2.628197e-05
5.8701196e-15
-2.6540173e-05
2.6540173e-05
-2.6540173e-05
5.2822143e-05
-2.628197e-05
7.8590301e-05
-2.5768159e-05
0.0001035942
-2.5003898e-05
0.00012759105
-2.3996851e-05
0.00015034815
-2.2757096e-05
0.00017164516
-2.1297013e-05
0.0001912763
-1.9631142e-05
0.00020905232
-1.7776023e-05
0.00022480234
-1.5750018e-05
0.00023837546
-1.3573115e-05
0.00024964217
-1.1266716e-05
0.00025849559
-8.8534204e-06
0.00026485239
-6.3567949e-06
0.00026865353
-3.8011381e-06
0.00026986477
-1.211243e-06
0.00026847692
1.3878471e-06
0.00026450583
3.9710894e-06
0.00025799212
6.5137106e-06
0.00024900079
8.9913331e-06
0.00023762044
1.1380352e-05
0.00022396236
1.3658078e-05
0.0002081594
1.5802961e-05
0.00019036461
1.7794788e-05
0.00017074974
1.9614867e-05
0.00014950356
2.1246182e-05
0.00012683002
2.2673545e-05
0.0001029463
2.3883713e-05
7.808081e-05
2.4865494e-05
5.2470972e-05
2.5609837e-05
2.6361077e-05
2.6109896e-05
2.6361077e-05
-2.6602788e-05
5.2963864e-05
-5.2952127e-05
5.2459235e-05
-7.8796891e-05
5.1454601e-05
-0.00010389058
4.9959185e-05
-0.0001279936
4.7986735e-05
-0.00015087549
4.555543e-05
-0.00017231705
4.2687743e-05
-0.00019211246
3.9410273e-05
-0.0002100712
3.5753531e-05
-0.00022601993
3.1751694e-05
-0.00023980417
2.7442318e-05
-0.00025128983
2.2866008e-05
-0.00026036456
1.8066063e-05
-0.00026693892
1.3088073e-05
-0.00027094733
7.9794939e-06
-0.00027234871
2.7892345e-06
-0.00027112708
-2.4328747e-06
-0.0002672917
-7.6365215e-06
-0.0002608771
-1.2771395e-05
-0.00025194284
-1.7787684e-05
-0.00024057298
-2.2636571e-05
-0.00022687539
-2.7270704e-05
-0.00021098073
-3.1644678e-05
-0.00019304127
-3.5715487e-05
-0.00017322944
-3.9442968e-05
-0.00015173623
-4.2790224e-05
-0.00012876932
-4.5724012e-05
-0.00010455106
-4.8215106e-05
-7.9316333e-05
-5.0238625e-05
-5.3310185e-05
-5.1774307e-05
-2.6785405e-05
-5.2806749e-05
5.750386e-15
-5.3325578e-05
2.6785405e-05
-5.3325578e-05
5.3310185e-05
-5.2806749e-05
7.9316333e-05
-5.1774307e-05
0.00010455106
-5.0238625e-05
0.00012876932
-4.8215106e-05
0.00015173623
-4.5724012e-05
0.00017322944
-4.2790224e-05
0.00019304127
-3.9442968e-05
0.00021098073
-3.5715487e-05
0.00022687539
-3.1644678e-05
0.00024057298
-2.7270704e-05
0.00025194284
-2.2636571e-05
0.0002608771
-1.7787684e-05
0.0002672917
-1.2771395e-05
0.00027112708
-7.6365215e-06
0.00027234871
-2.4328747e-06
0.00027094733
2.7892345e-06
0.00026693892
7.9794939e-06
0.00026036456
1.3088073e-05
0.00025128983
1.8066063e-05
0.00023980417
2.2866008e-05
0.00022601993
2.7442318e-05
0.0002100712
3.1751694e-05
0.00019211246
3.5753531e-05
0.00017231705
3.9410273e-05
0.00015087549
4.2687743e-05
0.0001279936
4.555543e-05
0.00010389058
4.7986735e-05
7.8796891e-05
4.9959185e-05
5.2952127e-05
5.1454601e-05
2.6602788e-05
5.2459235e-05
5.2963864e-05
-2.6979744e-05
7.9943608e-05
-5.3702477e-05
7.9181968e-05
-7.9913542e-05
7.7665667e-05
-0.00010536297
7.5408611e-05
-0.00012980778
7.2431544e-05
-0.00015301424
6.8761888e-05
-0.00017476004
6.4433552e-05
-0.00019483644
5.948667e-05
-0.00021305019
5.3967284e-05
-0.00022922548
4.7926977e-05
-0.00024320559
4.1422431e-05
-0.00025485452
3.4514939e-05
-0.00026405832
2.7269862e-05
-0.00027072627
1.9756021e-05
-0.00027479184
1.2045064e-05
-0.0002762134
4.2107955e-06
-0.00027497472
-3.6715513e-06
-0.00027108521
-1.1526029e-05
-0.0002645799
-1.9276704e-05
-0.00025551919
-2.68484e-05
-0.00024398832
-3.4167436e-05
-0.00023009668
-4.116235e-05
-0.00021397674
-4.7764609e-05
-0.00019578293
-5.3909304e-05
-0.00017569008
-5.9535811e-05
-0.00015389188
-6.4588426e-05
-0.00013059894
-6.901696e-05
-0.00010603676
-7.2777286e-05
-8.0443552e-05
-7.5831828e-05
-5.406787e-05
-7.8149989e-05
-2.7166118e-05
-7.9708501e-05
5.413889e-15
-8.0491696e-05
2.7166118e-05
-8.0491696e-05
5.406787e-05
-7.9708501e-05
8.0443552e-05
-7.8149989e-05
0.00010603676
-7.5831828e-05
0.00013059894
-7.2777286e-05
0.00015389188
-6.901696e-05
0.00017569008
-6.4588426e-05
0.00019578293
-5.9535811e-05
0.00021397674
-5.3909304e-05
0.00023009668
-4.7764609e-05
0.00024398832
-4.116235e-05
0.00025551919
-3.4167436e-05
0.0002645799
-2.68484e-05
0.00027108521
-1.9276704e-05
0.00027497472
-1.1526029e-05
0.0002762134
-3.6715513e-06
0.00027479184
4.2107955e-06
0.00027072627
1.2045064e-05
0.00026405832
1.9756021e-05
0.00025485452
2.7269862e-05
0.00024320559
3.4514939e-05
0.00022922548
4.1422431e-05
0.00021305019
4.7926977e-05
0.00019483644
5.3967284e-05
0.00017476004
5.948667e-05
0.00015301424
6.4433552e-05
0.00012980778
6.8761888e-05
0.00010536297
7.2431544e-05
7.9913542e-05
7.5408611e-05
5.3702477e-05
7.7665667e-05
2.6979744e-05
7.9181968e-05
7.9943608e-05
-2.7503437e-05
0.00010744704
-5.47449e-05
0.00010642343
-8.1464812e-05
0.00010438558
-0.00010740836
0.00010135216
-0.00013232786
9.7351044e-05
-0.00015598504
9.2419061e-05
-0.00017815325
8.6601767e-05
-0.00019861967
7.9953085e-05
-0.00021718727
7.2534888e-05
-0.00023367679
6.4416497e-05
-0.00024792846
5.5674098e-05
-0.0002598036
4.6390084e-05
-0.00026918606
3.6652312e-05
-0.00027598334
2.6553305e-05
-0.00028012765
1.6189378e-05
-0.00028157659
5.6597347e-06
-0.00028031365
-4.9344969e-06
-0.00027634844
-1.5491236e-05
-0.00026971671
-2.5908432e-05
-0.00026048005
-3.6085062e-05
-0.00024872537
-4.5922115e-05
-0.00023456416
-5.5323563e-05
-0.00021813145
-6.4197312e-05
-0.00019958463
-7.2456133e-05
-0.00017910189
-8.0018548e-05
-0.00015688063
-8.6809681e-05
-0.00013313553
-9.2762064e-05
-0.00010809645
-9.7816365e-05
-8.2006224e-05
-0.00010192205
-5.5118233e-05
-0.00010503798
-2.7693885e-05
-0.00010713285
4.9230515e-15
-0.00010818558
2.7693885e-05
-0.00010818558
5.5118233e-05
-0.00010713285
8.2006224e-05
-0.00010503798
0.00010809645
-0.00010192205
0.00013313553
-9.7816365e-05
0.00015688063
-9.2762064e-05
0.00017910189
-8.6809681e-05
0.00019958463
-8.0018548e-05
0.00021813145
-7.2456133e-05
0.00023456416
-6.4197312e-05
0.00024872537
-5.5323563e-05
0.00026048005
-4.5922115e-05
0.00026971671
-3.6085062e-05
0.00027634844
-2.5908432e-05
0.00028031365
-1.5491236e-05
0.00028157659
-4.9344969e-06
0.00028012765
5.6597347e-06
0.00027598334
1.6189378e-05
0.00026918606
2.6553305e-05
0.0002598036
3.6652312e-05
0.00024792846
4.6390084e-05
0.00023367679
5.5674098e-05
0.00021718727
6.4416497e-05
0.00019861967
7.2534888e-05
0.00017815325
7.9953085e-05
0.00015598504
8.6601767e-05
0.00013232786
9.2419061e-05
0.00010740836
9.7351044e-05
8.1464812e-05
0.00010135216
5.47449e-05
0.00010438558
2.7503437e-05
0.00010642343
0.00010744704
-2.8179816e-05
0.00013562686
-5.6091241e-05
0.00013433486
-8.3468333e-05
0.00013176267
-0.00011005003
0.00012793386
-0.00013558254
0.00012288356
-0.00015982172
0.00011665824
-0.00018253533
0.00010931538
-0.00020350527
0.00010092302
-0.00022252962
9.1559241e-05
-0.00023942467
8.1311546e-05
-0.00025402668
7.0276111e-05
-0.00026619356
5.855696e-05
-0.00027580627
4.6265024e-05
-0.00028277009
3.3517125e-05
-0.00028701559
2.0434877e-05
-0.00028849938
7.1435247e-06
-0.00028720461
-6.2292634e-06
-0.00028314122
-1.9554629e-05
-0.00027634588
-3.2703774e-05
-0.00026688173
-4.5549207e-05
-0.00025483786
-5.7965984e-05
-0.00024032849
-6.9832933e-05
-0.00022349196
-8.1033845e-05
-0.00020448946
-9.1458637e-05
-0.00018350353
-0.00010100448
-0.00016073636
-0.00010957685
-0.00013640786
-0.00011709057
-0.0001107535
-0.00012347072
-8.4022078e-05
-0.00012865348
-5.6473191e-05
-0.00013258687
-2.8374696e-05
-0.00013523134
4.3227776e-15
-0.00013656028
2.8374696e-05
-0.00013656028
5.6473191e-05
-0.00013523134
8.4022078e-05
-0.00013258687
0.0001107535
-0.00012865348
0.00013640786
-0.00012347072
0.00016073636
-0.00011709057
0.00018350353
-0.00010957685
0.00020448946
-0.00010100448
0.00022349196
-9.1458637e-05
0.00024032849
-8.1033845e-05
0.00025483786
-6.9832933e-05
0.00026688173
-5.7965984e-05
0.00027634588
-4.5549207e-05
0.00028314122
-3.2703774e-05
0.00028720461
-1.9554629e-05
0.00028849938
-6.2292634e-06
0.00028701559
7.1435247e-06
0.00028277009
2.0434877e-05
0.00027580627
3.3517125e-05
0.00026619356
4.6265024e-05
0.00025402668
5.855696e-05
0.00023942467
7.0276111e-05
0.00022252962
8.1311546e-05
0.00020350527
9.1559241e-05
0.00018253533
0.00010092302
0.00015982172
0.00010931538
0.00013558254
0.00011665824
0.00011005003
0.00012288356
8.3468333e-05
0.00012793386
5.6091241e-05
0.00013176267
2.8179816e-05
0.00013433486
0.00013562686
-2.9010092e-05
0.00016463695
-5.7743914e-05
0.00016306868
-8.5927708e-05
0.00015994646
-0.00011329273
0.00015529888
-0.00013957771
0.00014916854
-0.00016453127
0.00014161181
-0.00018791431
0.00013269842
-0.00020950222
0.00012251093
-0.0002290871
0.00011114412
-0.00024647975
9.8704195e-05
-0.00026151157
8.530793e-05
-0.00027403624
7.1081633e-05
-0.00028393124
5.6160019e-05
-0.00029109907
4.0684958e-05
-0.00029546833
2.4804137e-05
-0.00029699444
8.6696367e-06
-0.00029566017
-7.5635359e-06
-0.00029147584
-2.3738956e-05
-0.00028447932
-3.9700296e-05
-0.00027473569
-5.5292842e-05
-0.00026233668
-7.0364987e-05
-0.00024739991
-8.4769709e-05
-0.00023006775
-9.8366005e-05
-0.00021050609
-0.0001110203
-0.00018890278
-0.00012260778
-0.00016546589
-0.00013301374
-0.00014042172
-0.00014213474
-0.00011401263
-0.00014987981
-8.64947e-05
-0.00015617141
-5.813516e-05
-0.00016094641
-2.9209765e-05
-0.00016415674
3.6556463e-15
-0.00016577004
2.9209765e-05
-0.00016577004
5.813516e-05
-0.00016415674
8.64947e-05
-0.00016094641
0.00011401263
-0.00015617141
0.00014042172
-0.00014987981
0.00016546589
-0.00014213474
0.00018890278
-0.00013301374
0.00021050609
-0.00012260778
0.00023006775
-0.0001110203
0.00024739991
-9.8366005e-05
0.00026233668
-8.4769709e-05
0.00027473569
-7.0364987e-05
0.00028447932
-5.5292842e-05
0.00029147584
-3.9700296e-05
0.00029566017
-2.3738956e-05
0.00029699444
-7.5635359e-06
0.00029546833
8.6696367e-06
0.00029109907
2.4804137e-05
0.00028393124
4.0684958e-05
0.00027403624
5.6160019e-05
0.00026151157
7.1081633e-05
0.00024647975
8.530793e-05
0.0002290871
9.8704195e-05
0.00020950222
0.00011114412
0.00018791431
0.00012251093
0.00016453127
0.00013269842
0.00013957771
0.00014161181
0.00011329273
0.00014916854
8.5927708e-05
0.00015529888
5.7743914e-05
0.00015994646
2.9010092e-05
0.00016306868
0.00016463695
-2.9992599e-05
0.00019462955
-5.9699608e-05
0.00019277569
-8.8838027e-05
0.00018908488
-0.00011713002
0.00018359087
-0.00014430546
0.00017634397
-0.00017010443
0.00016741078
-0.00019427965
0.00015687364
-0.00021659886
0.00014483014
-0.00023684702
0.00013139227
-0.00025482843
0.00011668561
-0.00027036872
0.00010084822
-0.00028331658
8.402949e-05
-0.00029354532
6.6388759e-05
-0.00030095419
4.8093838e-05
-0.00030546947
2.9319414e-05
-0.00030704519
1.0245355e-05
-0.00030566368
-8.9450435e-06
-0.00030133579
-2.8066849e-05
-0.0002941008
-4.6935288e-05
-0.00028402611
-6.5367529e-05
-0.00027120665
-8.3184446e-05
-0.00025576402
-0.00010021234
-0.0002378454
-0.00011628463
-0.00021762222
-0.00013124348
-0.0001952886
-0.0001449414
-0.00017105954
-0.0001572428
-0.0001451689
-0.00016802538
-0.00011786717
-0.00017718153
-8.9419035e-05
-0.00018461955
-6.0100744e-05
-0.0001902647
-3.0197387e-05
-0.00019406009
2.9626197e-15
-0.00019596743
3.0197387e-05
-0.00019596743
6.0100744e-05
-0.00019406009
8.9419035e-05
-0.0001902647
0.00011786717
-0.00018461955
0.0001451689
-0.00017718153
0.00017105954
-0.00016802538
0.0001952886
-0.0001572428
0.00021762222
-0.0001449414
0.0002378454
-0.00013124348
0.00025576402
-0.00011628463
0.00027120665
-0.00010021234
0.00028402611
-8.3184446e-05
0.0002941008
-6.5367529e-05
0.00030133579
-4.6935288e-05
0.00030566368
-2.8066849e-05
0.00030704519
-8.9450435e-06
0.00030546947
1.0245355e-05
0.00030095419
2.9319414e-05
0.00029354532
4.8093838e-05
0.00028331658
6.6388759e-05
0.00027036872
8.402949e-05
0.00025482843
0.00010084822
0.00023684702
0.00011668561
0.00021659886
0.00013139227
0.00019427965
0.00014483014
0.00017010443
0.00015687364
0.00014430546
0.00016741078
0.00011713002
0.00017634397
8.8838027e-05
0.00018359087
5.9699608e-05
0.00018908488
2.9992599e-05
0.00019277569
0.00019462955
-3.112572e-05
0.00022575527
-6.1955115e-05
0.00022360508
-9.2194534e-05
0.0002193243
-0.00012155566
0.000212952
-0.00014975817
0.00020454648
-0.00017653226
0.00019418487
-0.00020162126
0.00018196264
-0.00022478401
0.00016799289
-0.00024579723
0.00015240549
-0.00026445772
0.0001353461
-0.00028058441
0.00011697491
-0.00029402019
9.7465277e-05
-0.00030463359
7.7002157e-05
-0.0003123201
5.5780344e-05
-0.0003170033
3.4002612e-05
-0.00031863566
1.1877723e-05
-0.00031719908
-1.0381632e-05
-0.00031270501
-3.2560918e-05
-0.00030519444
-5.4445853e-05
-0.0002947375
-7.5824471e-05
-0.0002814328
-9.6489142e-05
-0.00026540659
-0.00011623856
-0.00024681157
-0.00013487965
-0.00022582557
-0.00015222947
-0.00020264992
-0.00016811705
-0.0001775076
-0.00018238512
-0.00015064116
-0.00019489182
-0.00012231043
-0.00020551226
-9.2790008e-05
-0.00021413998
-6.2366534e-05
-0.00022068817
-3.133585e-05
-0.00022509078
2.2507505e-15
-0.00022730328
3.133585e-05
-0.00022730328
6.2366534e-05
-0.00022509078
9.2790008e-05
-0.00022068817
0.00012231043
-0.00021413998
0.00015064116
-0.00020551226
0.0001775076
-0.00019489182
0.00020264992
-0.00018238512
0.00022582557
-0.00016811705
0.00024681157
-0.00015222947
0.00026540659
-0.00013487965
0.0002814328
-0.00011623856
0.0002947375
-9.6489142e-05
0.00030519444
-7.5824471e-05
0.00031270501
-5.4445853e-05
0.00031719908
-3.2560918e-05
0.00031863566
-1.0381632e-05
0.0003170033
1.1877723e-05
0.0003123201
3.4002612e-05
0.00030463359
5.5780344e-05
0.00029402019
7.7002157e-05
0.00028058441
9.7465277e-05
0.00026445772
0.00011697491
0.00024579723
0.0001353461
0.00022478401
0.00015240549
0.00020162126
0.00016799289
0.00017653226
0.00018196264
0.00014975817
0.00019418487
0.00012155566
0.00020454648
9.2194534e-05
0.000212952
6.1955115e-05
0.0002193243
3.112572e-05
0.00022360508
0.00022575527
-3.2412129e-05
0.0002581674
-6.4515766e-05
0.00025570872
-9.600519e-05
0.00025081373
-0.00012658021
0.00024352702
-0.0001559489
0.00023391516
-0.00018383027
0.00022206625
-0.00020995694
0.00020808931
-0.00023407764
0.00019211359
-0.00025595971
0.00017428756
-0.00027539136
0.00015477775
-0.00029218389
0.00013376743
-0.00030617358
0.00011145497
-0.00031722345
8.8052036e-05
-0.00032522474
6.378163e-05
-0.00033009799
3.8875864e-05
-0.00033179394
1.3573673e-05
-0.000330294
-1.1881572e-05
-0.00032561044
-3.7244485e-05
-0.00031778622
-6.2270067e-05
-0.00030689463
-8.6716061e-05
-0.00029303853
-0.00011034524
-0.00027634946
-0.00013292763
-0.00025698641
-0.00015424269
-0.00023513446
-0.00017408142
-0.0002110031
-0.00019224841
-0.00018482433
-0.00020856388
-0.00015685056
-0.00022286559
-0.00012735219
-0.00023501063
-9.6615034e-05
-0.00024487714
-6.493751e-05
-0.0002523657
-3.2627655e-05
-0.00025740063
1.5172732e-15
-0.00025993094
3.2627655e-05
-0.00025993094
6.493751e-05
-0.00025740063
9.6615034e-05
-0.0002523657
0.00012735219
-0.00024487714
0.00015685056
-0.00023501063
0.00018482433
-0.00022286559
0.0002110031
-0.00020856388
0.00023513446
-0.00019224841
0.00025698641
-0.00017408142
0.00027634946
-0.00015424269
0.00029303853
-0.00013292763
0.00030689463
-0.00011034524
0.00031778622
-8.6716061e-05
0.00032561044
-6.2270067e-05
0.000330294
-3.7244485e-05
0.00033179394
-1.1881572e-05
0.00033009799
1.3573673e-05
0.00032522474
3.8875864e-05
0.00031722345
6.378163e-05
0.00030617358
8.8052036e-05
0.00029218389
0.00011145497
0.00027539136
0.00013376743
0.00025595971
0.00015477775
0.00023407764
0.00017428756
0.00020995694
0.00019211359
0.00018383027
0.00020808931
0.0001559489
0.00022206625
0.00012658021
0.00023391516
9.600519e-05
0.00024352702
6.4515766e-05
0.00025081373
3.2412129e-05
0.00025570872
0.0002581674
-3.3864631e-05
0.00029203203
-6.7407065e-05
0.00028925115
-0.00010030798
0.00028371464
-0.0001322538
0.00027547284
-0.00016293952
0.00026460088
-0.00019207151
0.00025119824
-0.00021937028
0.00023538808
-0.00024457313
0.00021731644
-0.00026743671
0.00019715114
-0.00028773952
0.00017508056
-0.00030528414
0.00015131204
-0.00031989931
0.00012607014
-0.00033144184
9.9594564e-05
-0.00033979808
7.2137863e-05
-0.00034488516
4.3962951e-05
-0.00034665192
1.5340425e-05
-0.00034507929
-1.3454192e-05
-0.00034018055
-4.2143227e-05
-0.00033200103
-7.0449593e-05
-0.00032061764
-9.809945e-05
-0.00030613812
-0.00012482475
-0.00028870004
-0.00015036572
-0.00026846951
-0.00017447322
-0.00024563979
-0.00019691114
-0.00022042955
-0.00021745865
-0.00019308096
-0.00023591247
-0.00016385748
-0.00025208906
-0.00013304143
-0.00026582669
-0.00010093125
-0.00027698732
-6.7838621e-05
-0.00028545832
-3.4085336e-05
-0.00029115392
7.4161292e-16
-0.00029401627
3.4085336e-05
-0.00029401627
6.7838621e-05
-0.00029115392
0.00010093125
-0.00028545832
0.00013304143
-0.00027698732
0.00016385748
-0.00026582669
0.00019308096
-0.00025208906
0.00022042955
-0.00023591247
0.00024563979
-0.00021745865
0.00026846951
-0.00019691114
0.00028870004
-0.00017447322
0.00030613812
-0.00015036572
0.00032061764
-0.00012482475
0.00033200103
-9.809945e-05
0.00034018055
-7.0449593e-05
0.00034507929
-4.2143227e-05
0.00034665192
-1.3454192e-05
0.00034488516
1.5340425e-05
0.00033979808
4.3962951e-05
0.00033144184
7.2137863e-05
0.00031989931
9.9594564e-05
0.00030528414
0.00012607014
0.00028773952
0.00015131204
0.00026743671
0.00017508056
0.00024457313
0.00019715114
0.00021937028
0.00021731644
0.00019207151
0.00023538808
0.00016293952
0.00025119824
0.0001322538
0.00026460088
0.00010030798
0.00027547284
6.7407065e-05
0.00028371464
3.3864631e-05
0.00028925115
0.00029203203
-3.5513858e-05
0.00032754589
-7.0690003e-05
0.0003244273
-0.00010519371
0.00031821836
-0.00013869624
0.00030897536
-0.00017087775
0.00029678239
-0.00020143027
0.00028175076
-0.00023006054
0.00026401835
-0.00025649282
0.00024374872
-0.00028047161
0.00022112993
-0.00030176423
0.00019637318
-0.00032016329
0.0001697111
-0.00033548888
0.00014139574
-0.00034759062
0.00011169631
-0.0003563493
8.0896542e-05
-0.0003616782
4.9291848e-05
-0.00036352399
1.7186218e-05
-0.00036186724
-1.5110942e-05
-0.00035672246
-4.7288009e-05
-0.00034813781
-7.9034244e-05
-0.00033619449
-0.00011004276
-0.0003210059
-0.00014001335
-0.00030271648
-0.00016865514
-0.00028150048
-0.00019568922
-0.00025756043
-0.00022085119
-0.00023112542
-0.00024389366
-0.00020244911
-0.00026458879
-0.00017180745
-0.00028273072
-0.00013949623
-0.00029813791
-0.00010582819
-0.00031065535
-7.1130039e-05
-0.00032015648
-3.573912e-05
-0.00032654484
-1.1745098e-16
-0.00032975539
3.573912e-05
-0.00032975539
7.1130039e-05
-0.00032654484
0.00010582819
-0.00032015648
0.00013949623
-0.00031065535
0.00017180745
-0.00029813791
0.00020244911
-0.00028273072
0.00023112542
-0.00026458879
0.00025756043
-0.00024389366
0.00028150048
-0.00022085119
0.00030271648
-0.00019568922
0.0003210059
-0.00016865514
0.00033619449
-0.00014001335
0.00034813781
-0.00011004276
0.00035672246
-7.9034244e-05
0.00036186724
-4.7288009e-05
0.00036352399
-1.5110942e-05
0.0003616782
1.7186218e-05
0.0003563493
4.9291848e-05
0.00034759062
8.0896542e-05
0.00033548888
0.00011169631
0.00032016329
0.00014139574
0.00030176423
0.0001697111
0.00028047161
0.00019637318
0.00025649282
0.00022112993
0.00023006054
0.00024374872
0.00020143027
0.00026401835
0.00017087775
0.00028175076
0.00013869624
0.00029678239
0.00010519371
0.00030897536
7.0690003e-05
0.00031821836
3.5513858e-05
0.0003244273
0.00032754589
-3.7417909e-05
0.0003649638
-7.4480247e-05
0.00036148964
-0.00011083456
0.00035457267
-0.00014613463
0.00034427543
-0.00018004354
0.0003306913
-0.00021223676
0.00031394397
-0.00024240511
0.0002941867
-0.00027025777
0.00027160138
-0.00029552509
0.00024639726
-0.00031796142
0.00021880951
-0.00033734767
0.00018909735
-0.00035349382
0.00015754189
-0.00036624107
0.00012444356
-0.0003754637
9.0119165e-05
-0.00038107049
5.4898646e-05
-0.00038300575
1.9121478e-05
-0.00038124971
-1.6866988e-05
-0.00037581851
-5.2719204e-05
-0.00036676381
-8.8088952e-05
-0.00035417193
-0.00012263464
-0.00033816293
-0.00015602235
-0.00031888935
-0.00018792872
-0.00029653484
-0.00021804373
-0.00027131267
-0.00024607336
-0.00024346389
-0.00027174244
-0.00021325536
-0.00029479732
-0.00018097743
-0.00031500864
-0.00014694135
-0.00033217399
-0.00011147631
-0.00034612039
-7.4926285e-05
-0.0003567065
-3.7646538e-05
-0.00036382458
-1.1010449e-15
-0.00036740193
3.7646538e-05
-0.00036740193
7.4926285e-05
-0.00036382458
0.00011147631
-0.0003567065
0.00014694135
-0.00034612039
0.00018097743
-0.00033217399
0.00021325536
-0.00031500864
0.00024346389
-0.00029479732
0.00027131267
-0.00027174244
0.00029653484
-0.00024607336
0.00031888935
-0.00021804373
0.00033816293
-0.00018792872
0.00035417193
-0.00015602235
0.00036676381
-0.00012263464
0.00037581851
-8.8088952e-05
0.00038124971
-5.2719204e-05
0.00038300575
-1.6866988e-05
0.00038107049
1.9121478e-05
0.0003754637
5.4898646e-05
0.00036624107
9.0119165e-05
0.00035349382
0.00012444356
0.00033734767
0.00015754189
0.00031796142
0.00018909735
0.00029552509
0.00021880951
0.00027025777
0.00024639726
0.00024240511
0.00027160138
0.00021223676
0.0002941867
0.00018004354
0.00031394397
0.00014613463
0.0003306913
0.00011083456
0.00034427543
7.4480247e-05
0.00035457267
3.7417909e-05
0.00036148964
0.0003649638
-3.9673754e-05
0.00040463755
-7.8970838e-05
0.00040078672
-0.00011751785
0.00039311969
-0.00015494793
0.00038170551
-0.00019090395
0.00036664733
-0.00022504179
0.00034808181
-0.00025703343
0.00032617834
-0.0002865701
0.00030113805
-0.00031336534
0.00027319249
-0.00033715793
0.0002426021
-0.0003577148
0.00020965423
-0.00037483372
0.00017466081
-0.00038834572
0.00013795556
-0.00039811725
9.9890692e-05
-0.00040405175
6.083315e-05
-0.00040609076
2.1160484e-05
-0.00040421429
-1.8743453e-05
-0.00039844071
-5.8492784e-05
-0.00038882604
-9.770362e-05
-0.00037546298
-0.0001359977
-0.00035847967
-0.00017300566
-0.00033803835
-0.00020837004
-0.00031433392
-0.00024174816
-0.00028759232
-0.00027281496
-0.00025806878
-0.00030126598
-0.00022604575
-0.00032682036
-0.00019183053
-0.00034922386
-0.00015575262
-0.0003682519
-0.00011816062
-0.00038371239
-7.941888e-05
-0.00039544825
-3.9903805e-05
-0.00040333966
-2.2485348e-15
-0.00040730573
3.9903805e-05
-0.00040730573
7.941888e-05
-0.00040333966
0.00011816062
-0.00039544825
0.00015575262
-0.00038371239
0.00019183053
-0.0003682519
0.00022604575
-0.00034922386
0.00025806878
-0.00032682036
0.00028759232
-0.00030126598
0.00031433392
-0.00027281496
0.00033803835
-0.00024174816
0.00035847967
-0.00020837004
0.00037546298
-0.00017300566
0.00038882604
-0.0001359977
0.00039844071
-9.770362e-05
0.00040421429
-5.8492784e-05
0.00040609076
-1.8743453e-05
0.00040405175
2.1160484e-05
0.00039811725
6.083315e-05
0.00038834572
9.9890692e-05
0.00037483372
0.00013795556
0.0003577148
0.00017466081
0.00033715793
0.00020965423
0.00031336534
0.0002426021
0.0002865701
0.00027319249
0.00025703343
0.00030113805
0.00022504179
0.00032617834
0.00019090395
0.00034808181
0.00015494793
0.00036664733
0.00011751785
0.00038170551
7.8970838e-05
0.00039311969
3.9673754e-05
0.00040078672
0.00040463755
-4.2429749e-05
0.0004470673
-8.4457109e-05
0.00044281408
-0.00012568314
0.00043434572
-0.00016571581
0.00042173818
-0.00020417339
0.00040510491
-0.00024068783
0.00038459625
-0.00027490811
0.00036039863
-0.00030650354
0.00033273348
-0.00033516698
0.00030185593
-0.0003606181
0.00026805321
-0.00038260649
0.00023164261
-0.00040091473
0.00019296905
-0.00041536122
0.00015240205
-0.00042580261
0.00011033208
-0.00043213575
6.7166288e-05
-0.00043429886
2.3323598e-05
-0.00043227194
-2.0770373e-05
-0.00042607635
-6.4688372e-05
-0.00041577385
-0.00010800613
-0.0004014652
-0.00015030635
-0.00038328869
-0.00019118217
-0.00036141859
-0.00023024015
-0.00033606357
-0.00026710318
-0.0003074651
-0.00030141342
-0.00027589568
-0.00033283541
-0.00024165673
-0.00036105931
-0.00020507621
-0.00038580437
-0.00016650583
-0.00040682228
-0.0001263178
-0.00042390042
-8.4901254e-05
-0.0004368648
-4.2658334e-05
-0.00044558258
-3.5734876e-15
-0.00044996407
4.2658334e-05
-0.00044996407
8.4901254e-05
-0.00044558258
0.0001263178
-0.0004368648
0.00016650583
-0.00042390042
0.00020507621
-0.00040682228
0.00024165673
-0.00038580437
0.00027589568
-0.00036105931
0.0003074651
-0.00033283541
0.00033606357
-0.00030141342
0.00036141859
-0.00026710318
0.00038328869
-0.00023024015
0.0004014652
-0.00019118217
0.00041577385
-0.00015030635
0.00042607635
-0.00010800613
0.00043227194
-6.4688372e-05
0.00043429886
-2.0770373e-05
0.00043213575
2.3323598e-05
0.00042580261
6.7166288e-05
0.00041536122
0.00011033208
0.00040091473
0.00015240205
0.00038260649
0.00019296905
0.0003606181
0.00023164261
0.00033516698
0.00026805321
0.00030650354
0.00030185593
0.00027490811
0.00033273348
0.00024068783
0.00036039863
0.00020417339
0.00038459625
0.00016571581
0.00040510491
0.00012568314
0.00042173818
8.4457109e-05
0.00043434572
4.2429749e-05
0.00044281408
0.0004470673
-4.589798e-05
0.00049296528
-9.1361242e-05
0.00048827734
-0.00013595876
0.00047894324
-0.00017926689
0.00046504631
-0.00022087298
0.000446711
-0.00026037897
0.00042410225
-0.00029740495
0.0003974246
-0.00033159261
0.00036692114
-0.00036260879
0.0003328721
-0.00039014889
0.00029559332
-0.00041394049
0.00025543421
-0.00043374672
0.00021277529
-0.00044936973
0.00016802505
-0.00046065356
0.00012161592
-0.00046748663
7.3999352e-05
-0.00046980306
2.5640028e-05
-0.00046758307
-2.2990364e-05
-0.00046085221
-7.1419229e-05
-0.00044967987
-0.00011917846
-0.00043417738
-0.00016580884
-0.00041449608
-0.00021086347
-0.00039082551
-0.00025391072
-0.00036339176
-0.00029453693
-0.00033245585
-0.00033234933
-0.00029831194
-0.00036697932
-0.00026128529
-0.00039808596
-0.0002217298
-0.00042535987
-0.00018002502
-0.00044852706
-0.0001365728
-0.00046735264
-9.1793366e-05
-0.00048164423
-4.6121103e-05
-0.00049125484
-5.0169028e-15
-0.00049608517
4.6121103e-05
-0.00049608517
9.1793366e-05
-0.00049125484
0.0001365728
-0.00048164423
0.00018002502
-0.00046735264
0.0002217298
-0.00044852706
0.00026128529
-0.00042535987
0.00029831194
-0.00039808596
0.00033245585
-0.00036697932
0.00036339176
-0.00033234933
0.00039082551
-0.00029453693
0.00041449608
-0.00025391072
0.00043417738
-0.00021086347
0.00044967987
-0.00016580884
0.00046085221
-0.00011917846
0.00046758307
-7.1419229e-05
0.00046980306
-2.2990364e-05
0.00046748663
2.5640028e-05
0.00046065356
7.3999352e-05
0.00044936973
0.00012161592
0.00043374672
0.00016802505
0.00041394049
0.00021277529
0.00039014889
0.00025543421
0.00036260879
0.00029559332
0.00033159261
0.0003328721
0.00029740495
0.00036692114
0.00026037897
0.0003974246
0.00022087298
0.00042410225
0.00017926689
0.000446711
0.00013595876
0.00046504631
9.1361242e-05
0.00047894324
4.589798e-05
0.00048827734
0.00049296528
-5.0364259e-05
0.00054332954
-0.00010025218
0.00053816527
-0.00014919145
0.00052788251
-0.00019671776
0.00051257261
-0.00024237872
0.00049237196
-0.00028573774
0.00046746127
-0.00032637778
0.00043806464
-0.00036390507
0.00040444843
-0.00039795289
0.00036691993
-0.00042818535
0.00032582577
-0.00045430132
0.00028155018
-0.00047603857
0.00023451254
-0.00049317781
0.00018516428
-0.00050554648
0.00013398459
-0.00051302186
8.1474732e-05
-0.00051553287
2.8151035e-05
-0.00051306032
-2.5462909e-05
-0.00050563567
-7.8843878e-05
-0.00049333868
-0.00013147546
-0.0004762947
-0.00018285281
-0.00045467218
-0.00023248599
-0.00042868048
-0.00027990242
-0.00039856815
-0.00032464926
-0.00036462131
-0.00036629617
-0.00032716202
-0.00040443861
-0.00028654618
-0.0004387018
-0.00024316099
-0.00046874506
-0.00019742188
-0.00049426617
-0.00014976875
-0.00051500577
-0.00010066178
-0.0005307512
-5.0576748e-05
-0.00054133988
-6.470733e-15
-0.00054666192
5.0576748e-05
-0.00054666192
0.00010066178
-0.00054133988
0.00014976875
-0.0005307512
0.00019742188
-0.00051500577
0.00024316099
-0.00049426617
0.00028654618
-0.00046874506
0.00032716202
-0.0004387018
0.00036462131
-0.00040443861
0.00039856815
-0.00036629617
0.00042868048
-0.00032464926
0.00045467218
-0.00027990242
0.0004762947
-0.00023248599
0.00049333868
-0.00018285281
0.00050563567
-0.00013147546
0.00051306032
-7.8843878e-05
0.00051553287
-2.5462909e-05
0.00051302186
2.8151035e-05
0.00050554648
8.1474732e-05
0.00049317781
0.00013398459
0.00047603857
0.00018516428
0.00045430132
0.00023451254
0.00042818535
0.00028155018
0.00039795289
0.00032582577
0.00036390507
0.00036691993