/*--------------------------------*- C++ -*----------------------------------*\
| =========                 |                                                 |
| \\      /  F ield         | OpenFOAM: The Open Source CFD Toolbox           |
|  \\    /   O peration     | Version:  2306                                  |
|   \\  /    A nd           | Website:  www.openfoam.com                      |
|    \\/     M anipulation  |                                                 |
\*---------------------------------------------------------------------------*/
FoamFile
{
    version     2.0;
    format      ascii;
    arch        "LSB;label=32;scalar=64";
    class       surfaceScalarField;
    location    "0.39";
    object      phi;
}
// * * * * * * * * * * * * * * * * * * * * * * * * * * * * * * * * * * * * * //

dimensions      [0 3 -1 0 0 0 0];

oriented        oriented;

internalField   nonuniform List<scalar> 
12640
(
6.3271649e-08
3.236358e-08
2.5242385e-07
9.5058897e-08
5.5352123e-07
1.1154861e-07
9.4193968e-07
4.2118009e-08
1.3834361e-06
-1.5789217e-07
1.830759e-06
-5.1289488e-07
2.2452549e-06
-1.0357422e-06
2.5853174e-06
-1.7261788e-06
2.817009e-06
-2.5725683e-06
2.9126666e-06
-3.5536989e-06
2.8524454e-06
-4.6414379e-06
2.6249556e-06
-5.8041306e-06
2.227075e-06
-7.0075165e-06
1.6626758e-06
-8.2172558e-06
9.4181489e-07
-9.4006216e-06
7.9181691e-08
-1.0527551e-05
-9.0545445e-07
-1.1574289e-05
-1.9937287e-06
-1.2512728e-05
-3.1607878e-06
-1.3330693e-05
-4.3847142e-06
-1.4012985e-05
-5.6429001e-06
-1.4551491e-05
-6.9132024e-06
-1.4940899e-05
-8.1756264e-06
-1.5179769e-05
-9.4114497e-06
-1.5270017e-05
-1.0604257e-05
-1.5215993e-05
-1.173963e-05
-1.5024458e-05
-1.2805307e-05
-1.4703837e-05
-1.3791165e-05
-1.4263884e-05
-1.4689168e-05
-1.3715475e-05
-1.5493239e-05
-1.3070121e-05
-1.6199125e-05
-1.233968e-05
-1.6804247e-05
-1.1536135e-05
-1.7307539e-05
-1.0671369e-05
-1.7709283e-05
-9.7569929e-06
-1.8010949e-05
-8.8041975e-06
-1.821503e-05
-7.8236432e-06
-1.8324896e-05
-6.8253696e-06
-1.8344648e-05
-5.8187302e-06
-1.8278981e-05
-4.8123485e-06
-1.8133064e-05
-3.8140887e-06
-1.7912417e-05
-2.8310414e-06
-1.7622816e-05
-1.8695198e-06
-1.7270179e-05
-9.3509173e-07
-1.6860659e-05
-3.2359784e-08
-1.6400211e-05
8.3380109e-07
-1.5894748e-05
1.6606711e-06
-1.5350123e-05
2.4453747e-06
-1.4772012e-05
3.1857407e-06
-1.4165885e-05
3.8801736e-06
-1.3536964e-05
4.5276085e-06
-1.2890205e-05
5.1274635e-06
-1.2230269e-05
5.679595e-06
-1.156151e-05
6.1842499e-06
-1.0887965e-05
6.6420244e-06
-1.0213345e-05
7.053819e-06
-9.5410378e-06
7.4207984e-06
-8.8741054e-06
7.7443495e-06
-8.2152918e-06
8.0260461e-06
-7.5670312e-06
8.2676129e-06
-6.9314573e-06
8.4708912e-06
-6.3104174e-06
8.6378103e-06
-5.7054862e-06
8.7703578e-06
-5.117982e-06
8.8705558e-06
-4.5489841e-06
8.9404374e-06
-3.9993499e-06
8.9820256e-06
-3.469729e-06
8.9973152e-06
-2.9605934e-06
8.9882687e-06
-2.4722388e-06
8.9567829e-06
-2.0048149e-06
8.9046955e-06
-1.558354e-06
8.8337725e-06
-1.1327464e-06
8.7457004e-06
-7.2775164e-07
8.6420534e-06
-3.4315952e-07
8.5244178e-06
2.1602031e-08
8.3940868e-06
3.6674148e-07
8.2527329e-06
6.927786e-07
8.1012662e-06
1.0002393e-06
7.9409355e-06
1.2896678e-06
7.7728398e-06
1.5616275e-06
7.5979844e-06
7.4172958e-06
4.8753111e-08
-1.6389531e-08
1.9469617e-07
-5.088416e-08
4.272981e-07
-1.2105333e-07
7.2763726e-07
-2.5822115e-07
1.0664719e-06
-4.9672681e-07
1.4126372e-06
-8.5906016e-07
1.7320187e-06
-1.3551237e-06
1.9925093e-06
-1.9866694e-06
2.1650625e-06
-2.7451214e-06
2.225792e-06
-3.6144285e-06
2.1577175e-06
-4.5733634e-06
1.9499811e-06
-5.5963942e-06
1.5981625e-06
-6.6556978e-06
1.1040044e-06
-7.7230978e-06
4.7453144e-07
-8.7711486e-06
-2.7795526e-07
-9.7750644e-06
-1.1428175e-06
-1.0709426e-05
-2.0990161e-06
-1.155653e-05
-3.129806e-06
-1.2299903e-05
-4.2150415e-06
-1.2927749e-05
-5.3356036e-06
-1.3430929e-05
-6.4727876e-06
-1.3803715e-05
-7.6085694e-06
-1.4043987e-05
-8.7264517e-06
-1.4152134e-05
-9.811393e-06
-1.4131051e-05
-1.085012e-05
-1.3985731e-05
-1.1831117e-05
-1.3722841e-05
-1.274467e-05
-1.3350331e-05
-1.3582878e-05
-1.2877267e-05
-1.4339559e-05
-1.231344e-05
-1.5010153e-05
-1.1669086e-05
-1.5591613e-05
-1.0954675e-05
-1.6082276e-05
-1.0180707e-05
-1.648173e-05
-9.3575386e-06
-1.6790679e-05
-8.4952486e-06
-1.7010805e-05
-7.6035177e-06
-1.7144636e-05
-6.6915385e-06
-1.719542e-05
-5.7679456e-06
-1.7167006e-05
-4.8407633e-06
-1.7063725e-05
-3.917369e-06
-1.6890293e-05
-3.0044734e-06
-1.6651707e-05
-2.1081061e-06
-1.635318e-05
-1.2336184e-06
-1.5999888e-05
-3.8565274e-07
-1.5597644e-05
4.3155777e-07
-1.5151388e-05
1.2144151e-06
-1.4666492e-05
1.9604791e-06
-1.4148135e-05
2.6673833e-06
-1.3601327e-05
3.3333653e-06
-1.3030882e-05
3.9571642e-06
-1.2441394e-05
4.5379754e-06
-1.1837209e-05
5.0754101e-06
-1.1222413e-05
5.5694535e-06
-1.0600815e-05
6.0204268e-06
-9.9759437e-06
6.4289475e-06
-9.3510378e-06
6.7958925e-06
-8.7290498e-06
7.1223614e-06
-8.1126462e-06
7.4096425e-06
-7.5042129e-06
7.6591797e-06
-6.9058654e-06
7.8725437e-06
-6.3194557e-06
8.0514008e-06
-5.7465857e-06
8.1974878e-06
-5.1886201e-06
8.3125902e-06
-4.6467007e-06
8.3985183e-06
-4.1217616e-06
8.4570863e-06
-3.6145435e-06
8.490097e-06
-3.1256133e-06
8.4993388e-06
-2.6553699e-06
8.4865395e-06
-2.2040739e-06
8.4533995e-06
-1.7718608e-06
8.4015593e-06
-1.3587312e-06
8.3325709e-06
-9.6462125e-07
8.2479435e-06
-5.893338e-07
8.1491302e-06
-2.3261873e-07
8.0373719e-06
1.0599605e-07
7.9141181e-06
4.2663072e-07
7.7806317e-06
7.2979288e-07
7.6377732e-06
1.0159352e-06
7.4866973e-06
1.2855302e-06
7.3283893e-06
7.1637541e-06
3.7389397e-08
-5.3778928e-08
1.4908492e-07
-1.6257968e-07
3.27156e-07
-2.991244e-07
5.5697687e-07
-4.8804202e-07
8.1676037e-07
-7.5651031e-07
1.0811696e-06
-1.1234694e-06
1.323797e-06
-1.5977512e-06
1.51777e-06
-2.1806424e-06
1.6394726e-06
-2.866824e-06
1.6692039e-06
-3.6441598e-06
1.5917208e-06
-4.4958803e-06
1.3970071e-06
-5.4016805e-06
1.0803724e-06
-6.3390631e-06
6.4193768e-07
-7.2846631e-06
8.6390185e-08
-8.2156011e-06
-5.7724264e-07
-9.1114315e-06
-1.3392411e-06
-9.9474278e-06
-2.1846581e-06
-1.0711113e-05
-3.0979929e-06
-1.1386569e-05
-4.0632411e-06
-1.1962501e-05
-5.0641039e-06
-1.2430066e-05
-6.0839892e-06
-1.2783829e-05
-7.1073298e-06
-1.3020646e-05
-8.1193353e-06
-1.3140129e-05
-9.1064729e-06
-1.3143914e-05
-1.0056596e-05
-1.3035608e-05
-1.0959002e-05
-1.2820435e-05
-1.1804499e-05
-1.2504834e-05
-1.2585448e-05
-1.2096318e-05
-1.3295707e-05
-1.1603181e-05
-1.3930567e-05
-1.1034226e-05
-1.4486674e-05
-1.0398569e-05
-1.4961927e-05
-9.7054531e-06
-1.5355379e-05
-8.9640867e-06
-1.5667117e-05
-8.1835106e-06
-1.5898152e-05
-7.372483e-06
-1.6050303e-05
-6.5393875e-06
-1.6126088e-05
-5.6921605e-06
-1.6128616e-05
-4.8382346e-06
-1.6061488e-05
-3.9844977e-06
-1.5928695e-05
-3.1372663e-06
-1.5734536e-05
-2.302265e-06
-1.5483534e-05
-1.4846199e-06
-1.5180302e-05
-6.888852e-07
-1.4829952e-05
8.1207561e-08
-1.4436862e-05
8.2132497e-07
-1.4005955e-05
1.5295719e-06
-1.3541901e-05
2.2033302e-06
-1.3049274e-05
2.8407378e-06
-1.2532494e-05
3.4403846e-06
-1.1995805e-05
4.0012863e-06
-1.1443247e-05
4.5228521e-06
-1.087864e-05
5.0048458e-06
-1.0305565e-05
5.4473527e-06
-9.7273626e-06
5.8507447e-06
-9.1471164e-06
6.2156465e-06
-8.5676585e-06
6.5429035e-06
-7.9915652e-06
6.8335491e-06
-7.4211619e-06
7.0887762e-06
-6.8585277e-06
7.3099096e-06
-6.3055032e-06
7.4983762e-06
-5.7636996e-06
7.6556843e-06
-5.2345102e-06
7.7834007e-06
-4.7191208e-06
7.8831289e-06
-4.2185216e-06
7.9564873e-06
-3.7335271e-06
8.0051025e-06
-3.2647738e-06
8.0305856e-06
-2.8127618e-06
8.0345274e-06
-2.3778398e-06
8.0184775e-06
-1.9602185e-06
7.9839382e-06
-1.5600275e-06
7.9323798e-06
-1.1772667e-06
7.8651826e-06
-8.1186762e-07
7.7837313e-06
-4.637267e-07
7.6892307e-06
-1.3250252e-07
7.5828941e-06
1.8209927e-07
7.46603e-06
4.8023895e-07
7.3396333e-06
7.6235848e-07
7.2045777e-06
1.0288443e-06
7.0619034e-06
6.9124866e-06
2.8444024e-08
-8.2222953e-08
1.1330187e-07
-2.4743753e-07
2.4850617e-07
-4.3432871e-07
4.2278729e-07
-6.6232313e-07
6.1941387e-07
-9.5313691e-07
8.1835982e-07
-1.3224153e-06
9.9787672e-07
-1.7772681e-06
1.1371078e-06
-2.3198734e-06
1.2162891e-06
-2.9460054e-06
1.2188579e-06
-3.6467286e-06
1.1316664e-06
-4.4086888e-06
9.4576514e-07
-5.2157793e-06
6.5634656e-07
-6.0496445e-06
2.6247297e-07
-6.8907895e-06
-2.3093361e-07
-7.7221945e-06
-8.2208427e-07
-8.5202809e-06
-1.4980285e-06
-9.2714836e-06
-2.2490468e-06
-9.9600943e-06
-3.0622861e-06
-1.0573329e-05
-3.9241292e-06
-1.1100658e-05
-4.8204457e-06
-1.153375e-05
-5.7372313e-06
-1.1867044e-05
-6.6607162e-06
-1.2097162e-05
-7.5779206e-06
-1.2222924e-05
-8.4766671e-06
-1.2245167e-05
-9.3458933e-06
-1.2166381e-05
-1.0175747e-05
-1.1990582e-05
-1.0957625e-05
-1.1722956e-05
-1.1684238e-05
-1.1369704e-05
-1.2349594e-05
-1.0937825e-05
-1.2948955e-05
-1.0434864e-05
-1.3478791e-05
-9.8687339e-06
-1.3936698e-05
-9.2475457e-06
-1.4321323e-05
-8.5794619e-06
-1.4632268e-05
-7.8725663e-06
-1.4869995e-05
-7.134756e-06
-1.5035732e-05
-6.3736499e-06
-1.5131377e-05
-5.5965154e-06
-1.5159403e-05
-4.8102095e-06
-1.5122765e-05
-4.0211348e-06
-1.5024824e-05
-3.2352075e-06
-1.4869256e-05
-2.4578336e-06
-1.4659978e-05
-1.693897e-06
-1.4401105e-05
-9.4775867e-07
-1.4096694e-05
-2.2320347e-07
-1.375146e-05
4.7609134e-07
-1.3369308e-05
1.1474195e-06
-1.2954537e-05
1.7885588e-06
-1.2511319e-05
2.3975204e-06
-1.2043709e-05
2.9727744e-06
-1.1555617e-05
3.5131941e-06
-1.1050786e-05
4.018021e-06
-1.0532775e-05
4.4868345e-06
-1.0004941e-05
4.9195197e-06
-9.4704331e-06
5.3162363e-06
-8.9321764e-06
5.6773898e-06
-8.3928745e-06
6.0036016e-06
-7.8550045e-06
6.2956791e-06
-7.3208192e-06
6.5545909e-06
-6.792349e-06
6.7814394e-06
-6.2714089e-06
6.9774361e-06
-5.7596048e-06
7.1438803e-06
-5.2583417e-06
7.2821374e-06
-4.7688313e-06
7.3936185e-06
-4.29211e-06
7.4797659e-06
-3.829041e-06
7.5420334e-06
-3.3803302e-06
7.5818747e-06
-2.9465357e-06
7.600733e-06
-2.5280889e-06
7.6000306e-06
-2.1252998e-06
7.5811489e-06
-1.7383598e-06
7.54544e-06
-1.3673806e-06
7.4942036e-06
-1.012338e-06
7.4286885e-06
-6.7321183e-07
7.3501047e-06
-3.4990352e-07
7.2595857e-06
-4.2057445e-08
7.1581838e-06
2.5051038e-07
7.0470654e-06
5.2797302e-07
6.9271153e-06
7.9069508e-07
6.7991813e-06
6.6641559e-06
2.134119e-08
-1.0356414e-07
8.5071181e-08
-3.1116752e-07
1.8645826e-07
-5.357158e-07
3.1674715e-07
-7.9261201e-07
4.6295404e-07
-1.0993438e-06
6.0899139e-07
-1.4684526e-06
7.3773962e-07
-1.9060163e-06
8.3196335e-07
-2.4140971e-06
8.7569914e-07
-2.9897412e-06
8.5500746e-07
-3.6260369e-06
7.5877348e-07
-4.3124548e-06
5.7899991e-07
-5.0360057e-06
3.1124626e-07
-5.7818909e-06
-4.4882471e-08
-6.5346607e-06
-4.912022e-07
-7.2758747e-06
-1.0195048e-06
-7.9919783e-06
-1.6234967e-06
-8.6674917e-06
-2.2941992e-06
-9.2893919e-06
-3.0212729e-06
-9.8462557e-06
-3.7934808e-06
-1.032845e-05
-4.5986429e-06
-1.0728588e-05
-5.4246885e-06
-1.1040998e-05
-6.2597098e-06
-1.126214e-05
-7.0921497e-06
-1.1390485e-05
-7.9111804e-06
-1.1426137e-05
-8.7067837e-06
-1.1370778e-05
-9.4699446e-06
-1.1227421e-05
-1.0192678e-05
-1.1000222e-05
-1.0868104e-05
-1.0694279e-05
-1.1490455e-05
-1.0315474e-05
-1.2055062e-05
-9.8702571e-06
-1.2558318e-05
-9.3654784e-06
-1.2997625e-05
-8.8082384e-06
-1.3371335e-05
-8.2057518e-06
-1.3678674e-05
-7.5652278e-06
-1.3919664e-05
-6.8937657e-06
-1.4095046e-05
-6.1982684e-06
-1.4206192e-05
-5.4853689e-06
-1.425503e-05
-4.7613712e-06
-1.4243961e-05
-4.0322042e-06
-1.4175783e-05
-3.3033858e-06
-1.4053617e-05
-2.5799989e-06
-1.3880841e-05
-1.8666728e-06
-1.3661027e-05
-1.1675733e-06
-1.3397835e-05
-4.8639557e-07
-1.3095334e-05
1.7359072e-07
-1.2757064e-05
8.0914918e-07
-1.2386923e-05
1.4184177e-06
-1.1988688e-05
1.9992856e-06
-1.1566059e-05
2.5501458e-06
-1.1122627e-05
3.0697617e-06
-1.0661848e-05
3.5572421e-06
-1.0187028e-05
4.0120148e-06
-9.7013041e-06
4.4337956e-06
-9.2076321e-06
4.8225643e-06
-8.7087783e-06
5.1785361e-06
-8.2073132e-06
5.5021364e-06
-7.7056077e-06
5.7939737e-06
-7.2058325e-06
6.0548157e-06
-6.7099602e-06
6.2855671e-06
-6.2197679e-06
6.4872438e-06
-5.7368426e-06
6.6609551e-06
-5.2625876e-06
6.8078823e-06
-4.7982309e-06
6.9292619e-06
-4.3448326e-06
7.0263676e-06
-3.9032956e-06
7.1004965e-06
-3.4743761e-06
7.1529553e-06
-3.0586921e-06
7.1850487e-06
-2.6567342e-06
7.198073e-06
-2.2688733e-06
7.1932879e-06
-1.8953877e-06
7.1719542e-06
-1.5364467e-06
7.1352625e-06
-1.1921203e-06
7.0843621e-06
-8.6245876e-07
7.0204429e-06
-5.4736994e-07
6.9444971e-06
-2.4676979e-07
6.8575838e-06
3.9599508e-08
6.7606959e-06
3.1182686e-07
6.6548877e-06
5.702085e-07
6.5407998e-06
6.4193458e-06
1.5762037e-08
-1.1932618e-07
6.2820455e-08
-3.5822594e-07
1.3750572e-07
-6.1040107e-07
2.3289464e-07
-8.8800093e-07
3.3875982e-07
-1.205209e-06
4.4225251e-07
-1.5719453e-06
5.2983128e-07
-1.9935951e-06
5.8744129e-07
-2.4717072e-06
6.0196829e-07
-3.0042681e-06
5.6178966e-07
-3.5858583e-06
4.5751707e-07
-4.2081823e-06
2.8217839e-07
-4.860667e-06
3.1637805e-08
-5.5313503e-06
-2.9615475e-07
-6.2068682e-06
-6.9964232e-07
-6.8723871e-06
-1.1759267e-06
-7.515694e-06
-1.7187259e-06
-8.1246925e-06
-2.3209925e-06
-8.6871252e-06
-2.9741203e-06
-9.1931279e-06
-3.6684174e-06
-9.6341525e-06
-4.3939932e-06
-1.0003012e-05
-5.1403283e-06
-1.0294663e-05
-5.8969212e-06
-1.0505547e-05
-6.6536733e-06
-1.0633733e-05
-7.4009294e-06
-1.0678881e-05
-8.1296997e-06
-1.0642008e-05
-8.8317635e-06
-1.0525357e-05
-9.4997577e-06
-1.0332228e-05
-1.0127245e-05
-1.0066792e-05
-1.0708739e-05
-9.7339795e-06
-1.1239705e-05
-9.339291e-06
-1.171654e-05
-8.8886433e-06
-1.213654e-05
-8.3882388e-06
-1.2497851e-05
-7.8444405e-06
-1.2799417e-05
-7.2636621e-06
-1.3040912e-05
-6.6522705e-06
-1.3222678e-05
-6.0165029e-06
-1.334565e-05
-5.3623963e-06
-1.3411293e-05
-4.695728e-06
-1.3421527e-05
-4.0219701e-06
-1.3378662e-05
-3.3462511e-06
-1.3285332e-05
-2.6733295e-06
-1.3144432e-05
-2.007572e-06
-1.2959065e-05
-1.3529409e-06
-1.273246e-05
-7.1300013e-07
-1.24681e-05
-9.0769334e-08
-1.2169355e-05
5.1040429e-07
-1.1839602e-05
1.0886643e-06
-1.1482274e-05
1.6419576e-06
-1.1100742e-05
2.1686141e-06
-1.0698296e-05
2.6673153e-06
-1.0278119e-05
3.1370661e-06
-9.843275e-06
3.5771701e-06
-9.3966839e-06
3.9872043e-06
-8.9411142e-06
4.3669947e-06
-8.4791719e-06
4.7165938e-06
-8.0132916e-06
5.0362561e-06
-7.5457335e-06
5.3264156e-06
-7.0785807e-06
5.5876629e-06
-6.6137385e-06
5.820725e-06
-6.1529374e-06
6.0264425e-06
-5.6977347e-06
6.2057525e-06
-5.2495219e-06
6.3596695e-06
-4.8095281e-06
6.489268e-06
-4.3788292e-06
6.5956687e-06
-3.9583543e-06
6.6800214e-06
-3.5488933e-06
6.7434944e-06
-3.1511119e-06
6.7872671e-06
-2.765544e-06
6.8125051e-06
-2.3926317e-06
6.8203758e-06
-2.0326983e-06
6.8120209e-06
-1.6859818e-06
6.7885461e-06
-1.3526565e-06
6.7510368e-06
-1.0327516e-06
6.7005383e-06
-7.2632936e-07
6.6380748e-06
-4.3331889e-07
6.5645735e-06
-1.5368397e-07
6.481061e-06
1.1295495e-07
6.3882487e-06
3.6651023e-07
6.2872446e-06
6.1785632e-06
1.1326647e-08
-1.3065283e-07
4.5156865e-08
-3.9205615e-07
9.8578486e-08
-6.6382269e-07
1.6621731e-07
-9.5563976e-07
2.3985589e-07
-1.2788475e-06
3.0941632e-07
-1.6415058e-06
3.6377394e-07
-2.0479527e-06
3.9168494e-07
-2.4996182e-06
3.8237366e-07
-2.9949569e-06
3.2624186e-07
-3.5297265e-06
2.1531941e-07
-4.0972598e-06
4.3585108e-08
-4.6889327e-06
-1.9256394e-07
-5.2952012e-06
-4.959894e-07
-5.9034427e-06
-8.6494663e-07
-6.50343e-06
-1.296723e-06
-7.0839176e-06
-1.7875557e-06
-7.6338598e-06
-2.3311128e-06
-8.1435682e-06
-2.920261e-06
-8.6039797e-06
-3.5472587e-06
-9.0071548e-06
-4.2032278e-06
-9.3470429e-06
-4.879278e-06
-9.6186127e-06
-5.5663604e-06
-9.818465e-06
-6.2555524e-06
-9.9445405e-06
-6.9382879e-06
-9.996145e-06
-7.6065026e-06
-9.9737933e-06
-8.2527414e-06
-9.8791184e-06
-8.8702544e-06
-9.7147148e-06
-9.453061e-06
-9.4839854e-06
-9.9959888e-06
-9.1910517e-06
-1.0494685e-05
-8.8405945e-06
-1.0945612e-05
-8.437716e-06
-1.1346027e-05
-7.9878241e-06
-1.1693947e-05
-7.4965207e-06
-1.1988108e-05
-6.9695006e-06
-1.2227917e-05
-6.4124618e-06
-1.2413393e-05
-5.8310272e-06
-1.2545111e-05
-5.2306781e-06
-1.2624144e-05
-4.6166952e-06
-1.2652e-05
-3.9941139e-06
-1.2630565e-05
-3.3676857e-06
-1.2562047e-05
-2.7418482e-06
-1.2448914e-05
-2.1207049e-06
-1.2293847e-05
-1.5080074e-06
-1.2099697e-05
-9.0714991e-07
-1.1869342e-05
-3.2112447e-07
-1.1606149e-05
2.4721055e-07
-1.1312887e-05
7.9540321e-07
-1.0992706e-05
1.3217766e-06
-1.0648673e-05
1.8245801e-06
-1.0283791e-05
2.302434e-06
-9.9009886e-06
2.7542636e-06
-9.5030925e-06
3.179274e-06
-9.0928159e-06
3.5769279e-06
-8.6727443e-06
3.9469232e-06
-8.2453238e-06
4.2891732e-06
-7.8128534e-06
4.6037857e-06
-7.3774795e-06
4.8910417e-06
-6.9411926e-06
5.1513759e-06
-6.505825e-06
5.3853573e-06
-6.0730526e-06
5.5936704e-06
-5.6443962e-06
5.7770959e-06
-5.2212237e-06
5.9364971e-06
-4.8047566e-06
6.0728009e-06
-4.3960747e-06
6.1869867e-06
-3.9961222e-06
6.2800691e-06
-3.6057164e-06
6.3530885e-06
-3.22555e-06
6.4071009e-06
-2.8562093e-06
6.4431644e-06
-2.4981703e-06
6.4623366e-06
-2.1518069e-06
6.4656573e-06
-1.8174165e-06
6.4541558e-06
-1.4952093e-06
6.4288297e-06
-1.1853336e-06
6.3906625e-06
-8.8784833e-07
6.3405894e-06
-6.0279804e-07
6.2795232e-06
-3.3004051e-07
6.2083035e-06
-6.9622511e-08
6.1278309e-06
1.7873811e-07
6.0388838e-06
5.9422428e-06
7.8206522e-09
-1.3847348e-07
3.116237e-08
-4.1539787e-07
6.7742639e-08
-7.0040296e-07
1.1327528e-07
-1.0011724e-06
1.6127036e-07
-1.3268426e-06
2.0359842e-07
-1.6838338e-06
2.3133279e-07
-2.0756871e-06
2.35353e-07
-2.5036384e-06
2.0681925e-07
-2.9664231e-06
1.3773517e-07
-3.4606424e-06
2.1719603e-08
-3.9812442e-06
-1.4648543e-07
-4.5207276e-06
-3.7158142e-07
-5.0701052e-06
-6.5382047e-07
-5.6212037e-06
-9.9305416e-07
-6.1641963e-06
-1.3874908e-06
-6.6894809e-06
-1.8335869e-06
-7.1877636e-06
-2.3264477e-06
-7.6507074e-06
-2.8604156e-06
-8.0700118e-06
-3.4285748e-06
-8.4389956e-06
-4.0235993e-06
-8.7520184e-06
-4.6377648e-06
-9.0044473e-06
-5.2631906e-06
-9.193039e-06
-5.89209e-06
-9.3156412e-06
-6.5168579e-06
-9.371377e-06
-7.1302742e-06
-9.360377e-06
-7.7256081e-06
-9.2837845e-06
-8.2966982e-06
-9.1436248e-06
-8.8380198e-06
-8.9426638e-06
-9.3447321e-06
-8.6843394e-06
-9.812698e-06
-8.3726286e-06
-1.0238489e-05
-8.0119249e-06
-1.0619376e-05
-7.6069373e-06
-1.0953306e-05
-7.1625902e-06
-1.1238875e-05
-6.6839323e-06
-1.1475282e-05
-6.1760543e-06
-1.1662293e-05
-5.6440159e-06
-1.1800189e-05
-5.0927828e-06
-1.1889713e-05
-4.5271712e-06
-1.1932024e-05
-3.9518026e-06
-1.1928643e-05
-3.3710665e-06
-1.1881402e-05
-2.7890901e-06
-1.1792391e-05
-2.209715e-06
-1.1663918e-05
-1.6364811e-06
-1.1498454e-05
-1.0726133e-06
-1.1298554e-05
-5.210245e-07
-1.1067246e-05
1.5902083e-08
-1.0806873e-05
5.3502974e-07
-1.0520379e-05
1.0352826e-06
-1.0210517e-05
1.5147192e-06
-9.8800254e-06
1.9719419e-06
-9.5315826e-06
2.4058208e-06
-9.1677942e-06
2.8154856e-06
-8.7911733e-06
3.200307e-06
-8.4041273e-06
3.5598771e-06
-8.0089463e-06
3.8939921e-06
-7.6077945e-06
4.2026338e-06
-7.2027034e-06
4.4859504e-06
-6.7955676e-06
4.7442402e-06
-6.3881428e-06
4.9779328e-06
-5.9820443e-06
5.1875718e-06
-5.5787479e-06
5.3737997e-06
-5.1795923e-06
5.5373414e-06
-4.7857827e-06
5.6789913e-06
-4.3983932e-06
5.7995973e-06
-4.0183746e-06
5.9000504e-06
-3.6465585e-06
5.9812723e-06
-3.2836633e-06
6.0442057e-06
-2.9303018e-06
6.0898031e-06
-2.5869876e-06
6.1190224e-06
-2.2541428e-06
6.1328125e-06
-1.932105e-06
6.1321178e-06
-1.6211349e-06
6.1178598e-06
-1.3214093e-06
6.0909368e-06
-1.0330577e-06
6.0522379e-06
-7.5614002e-07
6.0026055e-06
-4.9070009e-07
5.9428636e-06
-2.3667134e-07
5.8738023e-06
6.064551e-09
5.7961481e-06
5.7107705e-06
5.0373866e-09
-1.4351087e-07
2.0060506e-08
-4.3042098e-07
4.3277354e-08
-7.2361981e-07
7.1269421e-08
-1.0291645e-06
9.8802055e-08
-1.3543752e-06
1.1941089e-07
-1.7044426e-06
1.259224e-07
-2.0821986e-06
1.1086691e-07
-2.4885829e-06
6.7033227e-08
-2.9225894e-06
-1.1791448e-08
-3.3818177e-06
-1.320905e-07
-3.8609452e-06
-2.981538e-07
-4.3546643e-06
-5.1244661e-07
-4.8558124e-06
-7.7653945e-07
-5.3571109e-06
-1.0902666e-06
-5.8504691e-06
-1.4524227e-06
-6.3273249e-06
-1.8599351e-06
-6.7802512e-06
-2.3091775e-06
-7.2014649e-06
-2.7950331e-06
-7.5841563e-06
-3.3117892e-06
-7.9222395e-06
-3.8532825e-06
-8.2105251e-06
-4.4128028e-06
-8.4449269e-06
-4.9835345e-06
-8.6223074e-06
-5.5585889e-06
-8.7405869e-06
-6.1312756e-06
-8.7986903e-06
-6.6951401e-06
-8.7965125e-06
-7.2441206e-06
-8.734804e-06
-7.7726106e-06
-8.6151349e-06
-8.2755309e-06
-8.4397435e-06
-8.7483778e-06
-8.2114926e-06
-9.1872493e-06
-7.9337571e-06
-9.5888577e-06
-7.6103165e-06
-9.9505277e-06
-7.2452673e-06
-1.0270184e-05
-6.8429339e-06
-1.054633e-05
-6.407786e-06
-1.0778019e-05
-5.9443659e-06
-1.0964815e-05
-5.4572195e-06
-1.1106761e-05
-4.9508372e-06
-1.1204329e-05
-4.429603e-06
-1.1258382e-05
-3.8977497e-06
-1.1270126e-05
-3.3593225e-06
-1.1241067e-05
-2.8181488e-06
-1.1172968e-05
-2.2778137e-06
-1.1067806e-05
-1.7416431e-06
-1.0927733e-05
-1.212687e-06
-1.0755042e-05
-6.937155e-07
-1.0551998e-05
-1.8714187e-07
-1.0321407e-05
3.0443934e-07
-1.0065466e-05
7.7934167e-07
-9.7867272e-06
1.23598e-06
-9.487687e-06
1.6729016e-06
-9.1707997e-06
2.0889335e-06
-8.8384613e-06
2.4831471e-06
-8.4929939e-06
2.8548397e-06
-8.1366344e-06
3.2035176e-06
-7.7715213e-06
3.528879e-06
-7.3996854e-06
3.8307979e-06
-7.0230439e-06
4.109309e-06
-6.6433946e-06
4.3645911e-06
-6.2624129e-06
4.596951e-06
-5.8816495e-06
4.8068084e-06
-5.5025304e-06
4.9946806e-06
-5.1263586e-06
5.1611695e-06
-4.7543144e-06
5.3069471e-06
-4.387461e-06
5.4327438e-06
-4.0267466e-06
5.5393359e-06
-3.6730093e-06
5.6275351e-06
-3.3269831e-06
5.6981793e-06
-2.9893035e-06
5.7521235e-06
-2.6605096e-06
5.7902285e-06
-2.3410596e-06
5.8133627e-06
-2.0313259e-06
5.8223842e-06
-1.731605e-06
5.8181387e-06
-1.4421228e-06
5.8014547e-06
-1.1630637e-06
5.7731789e-06
-8.9452807e-07
5.7340699e-06
-6.3654938e-07
5.6848851e-06
-3.8918645e-07
5.6264392e-06
-1.524015e-07
5.5593631e-06
5.4844172e-06
2.8353794e-09
-1.4634624e-07
1.1273356e-08
-4.3885896e-07
2.3891031e-08
-7.3623748e-07
3.7941917e-08
-1.0432154e-06
4.9285581e-08
-1.3657189e-06
5.2689742e-08
-1.7078468e-06
4.2295864e-08
-2.0718047e-06
1.2239996e-08
-2.458527e-06
-4.340874e-08
-2.8669407e-06
-1.3074214e-07
-3.2944843e-06
-2.5386487e-07
-3.7378225e-06
-4.1671897e-07
-4.1918102e-06
-6.2143187e-07
-4.6510995e-06
-8.696975e-07
-5.1088453e-06
-1.161514e-06
-5.5586527e-06
-1.4955876e-06
-5.9932512e-06
-1.8698246e-06
-6.4060141e-06
-2.2809114e-06
-6.7903781e-06
-2.7247587e-06
-7.1403089e-06
-3.1965693e-06
-7.4504291e-06
-3.6909128e-06
-7.7161816e-06
-4.2021099e-06
-7.9337298e-06
-4.7241907e-06
-8.1002265e-06
-5.2511421e-06
-8.2136355e-06
-5.7770271e-06
-8.2728053e-06
-6.2961026e-06
-8.2774368e-06
-6.8029127e-06
-8.227994e-06
-7.2923729e-06
-8.1256747e-06
-7.7598306e-06
-7.9722857e-06
-8.2011158e-06
-7.7702074e-06
-8.6125719e-06
-7.522301e-06
-8.9910719e-06
-7.2318166e-06
-9.3340243e-06
-6.902315e-06
-9.6393675e-06
-6.5375905e-06
-9.9055556e-06
-6.1415981e-06
-1.0131537e-05
-5.7183851e-06
-1.0316725e-05
-5.2720308e-06
-1.0460971e-05
-4.806591e-06
-1.0564526e-05
-4.3260488e-06
-1.0628001e-05
-3.8342743e-06
-1.0652337e-05
-3.334987e-06
-1.0638757e-05
-2.8317282e-06
-1.0588736e-05
-2.3278352e-06
-1.0503955e-05
-1.8264231e-06
-1.0386272e-05
-1.3303707e-06
-1.0237679e-05
-8.4230867e-07
-1.0060224e-05
-3.6459629e-07
-9.8563422e-06
1.0055763e-07
-9.6280297e-06
5.5102901e-07
-9.3775879e-06
9.8553836e-07
-9.1072787e-06
1.4025923e-06
-8.81934e-06
1.8009949e-06
-8.5159695e-06
2.1797765e-06
-8.1993086e-06
2.5381789e-06
-7.8714295e-06
2.8756387e-06
-7.5343241e-06
3.1917735e-06
-7.1898936e-06
3.4863673e-06
-6.8399423e-06
3.7593577e-06
-6.4861707e-06
4.0108194e-06
-6.1301724e-06
4.2409525e-06
-5.7734304e-06
4.4500663e-06
-5.417317e-06
4.6385672e-06
-5.063094e-06
4.8069466e-06
-4.711913e-06
4.955766e-06
-4.3648175e-06
5.0856485e-06
-4.0227472e-06
5.1972658e-06
-3.686541e-06
5.2913288e-06
-3.3569395e-06
5.368578e-06
-3.0345908e-06
5.4297747e-06
-2.7200608e-06
5.4756986e-06
-2.4138242e-06
5.5071261e-06
-2.1162848e-06
5.5248447e-06
-1.8277776e-06
5.5296315e-06
-1.548575e-06
5.5222522e-06
-1.278863e-06
5.5034666e-06
-1.0188066e-06
5.4740136e-06
-7.6852602e-07
5.4346046e-06
-5.2802298e-07
5.3859362e-06
-2.9738623e-07
5.3287263e-06
5.2635036e-06
1.0810071e-09
-1.4742725e-07
4.2999909e-09
-4.4207795e-07
8.5404083e-09
-7.404779e-07
1.1603414e-08
-1.0462784e-06
1.0161696e-08
-1.3642772e-06
2.3084409e-11
-1.6977082e-06
-2.3448982e-08
-2.0483327e-06
-6.5550436e-08
-2.4164256e-06
-1.309114e-07
-2.8015797e-06
-2.2399319e-07
-3.2014025e-06
-3.4877569e-07
-3.61304e-06
-5.0805356e-07
-4.0325323e-06
-7.04362e-07
-4.4547911e-06
-9.3854681e-07
-4.8746605e-06
-1.2109558e-06
-5.2862436e-06
-1.5205993e-06
-5.6836078e-06
-1.8656316e-06
-6.0609818e-06
-2.2434605e-06
-6.4125492e-06
-2.6505047e-06
-6.7332647e-06
-3.0827004e-06
-7.0182334e-06
-3.5354688e-06
-7.2634133e-06
-4.0038227e-06
-7.4653758e-06
-4.482591e-06
-7.6214582e-06
-4.9665078e-06
-7.7297186e-06
-5.4503163e-06
-7.788997e-06
-5.9289049e-06
-7.7988482e-06
-6.3973704e-06
-7.7595284e-06
-6.8511115e-06
-7.6719336e-06
-7.2858796e-06
-7.5375177e-06
-7.6978286e-06
-7.3582583e-06
-8.0835489e-06
-7.1365807e-06
-8.4400872e-06
-6.8752781e-06
-8.7649567e-06
-6.5774454e-06
-9.0561366e-06
-6.2464107e-06
-9.3120642e-06
-5.8856704e-06
-9.53162e-06
-5.4988292e-06
-9.7141073e-06
-5.0895438e-06
-9.8592257e-06
-4.6614725e-06
-9.9670443e-06
-4.2182303e-06
-1.0037969e-05
-3.7633495e-06
-1.0072711e-05
-3.3002448e-06
-1.0072254e-05
-2.8321858e-06
-1.0037817e-05
-2.3622719e-06
-9.9708257e-06
-1.8934144e-06
-9.872876e-06
-1.4283205e-06
-9.7457031e-06
-9.6948145e-07
-9.591127e-06
-5.1917243e-07
-9.4112759e-06
-7.9293698e-08
-9.2079499e-06
3.477032e-07
-8.9832215e-06
7.6080991e-07
-8.7391356e-06
1.1585065e-06
-8.4777303e-06
1.5395896e-06
-8.2010172e-06
1.9030632e-06
-7.9109652e-06
2.2481272e-06
-7.6094912e-06
2.5741646e-06
-7.2984456e-06
2.8807278e-06
-6.9796042e-06
3.1675261e-06
-6.6546602e-06
3.4344138e-06
-6.3252181e-06
3.6813772e-06
-5.9927885e-06
3.908523e-06
-5.6587856e-06
4.1160634e-06
-5.3245251e-06
4.3043067e-06
-4.9912237e-06
4.4736452e-06
-4.6599993e-06
4.6245418e-06
-4.3318715e-06
4.7575207e-06
-4.0077656e-06
4.8731597e-06
-3.6885133e-06
4.9720765e-06
-3.3748581e-06
5.0549228e-06
-3.0674579e-06
5.1223745e-06
-2.7668832e-06
5.1751237e-06
-2.4736392e-06
5.2138822e-06
-2.1881482e-06
5.2393539e-06
-1.9107727e-06
5.2522559e-06
-1.6418051e-06
5.2532844e-06
-1.3814843e-06
5.2431459e-06
-1.1299884e-06
5.2225176e-06
-8.8745834e-07
5.1920746e-06
-6.5400909e-07
5.1524868e-06
-4.2961697e-07
5.1043342e-06
5.0482709e-06
-3.1446494e-10
-1.4711278e-07
-1.1882078e-09
-4.4120421e-07
-3.6175508e-09
-7.3804855e-07
-9.1961747e-09
-1.0406997e-06
-2.0636288e-08
-1.3528371e-06
-4.1442746e-08
-1.6769017e-06
-7.5474025e-08
-2.0143014e-06
-1.2660632e-07
-2.3652932e-06
-1.9909024e-07
-2.7290958e-06
-2.9624105e-07
-3.1042518e-06
-4.2149742e-07
-3.4877836e-06
-5.7733016e-07
-3.8766996e-06
-7.6555304e-07
-4.2665682e-06
-9.871835e-07
-4.65303e-06
-1.242424e-06
-5.0310032e-06
-1.5304948e-06
-5.3955369e-06
-1.8499268e-06
-5.7415499e-06
-2.1983947e-06
-6.0640813e-06
-2.5730356e-06
-6.3586237e-06
-2.9702878e-06
-6.6209811e-06
-3.386196e-06
-6.847505e-06
-3.8164794e-06
-7.0350924e-06
-4.2566289e-06
-7.1813088e-06
-4.7019954e-06
-7.2843521e-06
-5.1479458e-06
-7.3430466e-06
-5.5899194e-06
-7.3568746e-06
-6.0235237e-06
-7.3259241e-06
-6.4445983e-06
-7.250859e-06
-6.8492721e-06
-7.132844e-06
-7.2340091e-06
-6.9735213e-06
-7.5956437e-06
-6.7749461e-06
-7.9314018e-06
-6.53952e-06
-8.2389148e-06
-6.2699326e-06
-8.5162231e-06
-5.9691024e-06
-8.7617734e-06
-5.6401202e-06
-8.9744078e-06
-5.2861946e-06
-9.1533502e-06
-4.9106014e-06
-9.298185e-06
-4.5166375e-06
-9.408835e-06
-4.1075804e-06
-9.4855354e-06
-3.6866492e-06
-9.5288051e-06
-3.256975e-06
-9.53942e-06
-2.8215708e-06
-9.5183824e-06
-2.3833096e-06
-9.4668918e-06
-1.9449049e-06
-9.3863174e-06
-1.508895e-06
-9.2781681e-06
-1.0776307e-06
-9.1440733e-06
-6.5326717e-07
-8.9856477e-06
-2.3771938e-07
-8.8049794e-06
1.670349e-07
-8.6036133e-06
5.5944388e-07
-8.3834506e-06
9.3834376e-07
-8.1463484e-06
1.3024874e-06
-7.8941453e-06
1.6508601e-06
-7.6286512e-06
1.9826331e-06
-7.3516344e-06
2.2971478e-06
-7.0648115e-06
2.5939048e-06
-6.7698369e-06
2.8725516e-06
-6.4682963e-06
3.1328732e-06
-6.1616994e-06
3.3747801e-06
-5.8514742e-06
3.598298e-06
-5.5389652e-06
3.8035543e-06
-5.22543e-06
3.9907714e-06
-4.9120368e-06
4.1602519e-06
-4.5998659e-06
4.3123708e-06
-4.2899106e-06
4.4475653e-06
-3.9830755e-06
4.5663247e-06
-3.6801817e-06
4.6691828e-06
-3.3819679e-06
4.7567091e-06
-3.0890939e-06
4.8295003e-06
-2.8021438e-06
4.8881736e-06
-2.5216274e-06
4.933366e-06
-2.2479921e-06
4.9657184e-06
-1.9816098e-06
4.9858734e-06
-1.7228088e-06
4.9944836e-06
-1.471851e-06
4.9921882e-06
-1.2289518e-06
4.9796184e-06
-9.9427804e-07
4.9574008e-06
-7.6791373e-07
4.9261225e-06
-5.4999347e-07
4.8864138e-06
4.8388246e-06
-1.3493059e-09
-1.4576348e-07
-5.4240662e-09
-4.3712944e-07
-1.2946754e-08
-7.3052587e-07
-2.5292358e-08
-1.0283541e-06
-4.4629432e-08
-1.3335e-06
-7.3741767e-08
-1.6477894e-06
-1.1573908e-07
-1.9723041e-06
-1.7389366e-07
-2.3071387e-06
-2.5135091e-07
-2.6516385e-06
-3.5129093e-07
-3.0043118e-06
-4.7613021e-07
-3.3629443e-06
-6.2821331e-07
-3.7246165e-06
-8.0889499e-07
-4.0858866e-06
-1.0191405e-06
-4.4427845e-06
-1.2590264e-06
-4.7911172e-06
-1.527957e-06
-5.1266063e-06
-1.8246873e-06
-5.4448196e-06
-2.1472402e-06
-5.7415284e-06
-2.4931691e-06
-6.0126949e-06
-2.8594261e-06
-6.2547241e-06
-3.2426071e-06
-6.464324e-06
-3.6389797e-06
-6.6387198e-06
-4.0445859e-06
-6.7757026e-06
-4.4553655e-06
-6.8735725e-06
-4.8672072e-06
-6.931205e-06
-5.2760488e-06
-6.948033e-06
-5.6779516e-06
-6.9240214e-06
-6.0691603e-06
-6.8596503e-06
-6.4461531e-06
-6.7558513e-06
-6.8056876e-06
-6.6139868e-06
-7.1448341e-06
-6.4357997e-06
-7.460999e-06
-6.223355e-06
-7.7519401e-06
-5.9789914e-06
-8.0157733e-06
-5.7052692e-06
-8.2509735e-06
-5.40492e-06
-8.4563691e-06
-5.080799e-06
-8.6311307e-06
-4.7358397e-06
-8.7747562e-06
-4.3730121e-06
-8.8870524e-06
-3.9952843e-06
-8.9681134e-06
-3.6055881e-06
-9.0182983e-06