/*--------------------------------*- C++ -*----------------------------------*\
| =========                 |                                                 |
| \\      /  F ield         | OpenFOAM: The Open Source CFD Toolbox           |
|  \\    /   O peration     | Version:  2306                                  |
|   \\  /    A nd           | Website:  www.openfoam.com                      |
|    \\/     M anipulation  |                                                 |
\*---------------------------------------------------------------------------*/
FoamFile
{
    version     2.0;
    format      ascii;
    arch        "LSB;label=32;scalar=64";
    class       volVectorField;
    location    "0.39";
    object      U;
}
// * * * * * * * * * * * * * * * * * * * * * * * * * * * * * * * * * * * * * //

dimensions      [0 1 -1 0 0 0 0];

internalField   nonuniform List<vector> 
6400
(
(0.0012857575 0.0037945224 -1.1587718e-16)
(0.0031325173 0.0037428218 -2.0025398e-16)
(0.005110558 0.0030683182 -7.0748e-17)
(0.0068039859 0.0019034444 1.9650255e-17)
(0.0083123195 0.00023523234 1.4939103e-16)
(0.0094401653 -0.0018457306 1.0281153e-16)
(0.010148507 -0.0042177717 9.8737757e-17)
(0.010432407 -0.0067474571 3.9807678e-17)
(0.010298673 -0.0093251569 -1.3826645e-17)
(0.0097751789 -0.011854643 1.2405308e-17)
(0.0089007173 -0.014254874 -4.1877213e-18)
(0.0077235411 -0.016459978 -3.0132484e-18)
(0.0062982385 -0.018420613 -7.4135677e-19)
(0.0046814895 -0.020102408 -9.2277365e-18)
(0.0029288708 -0.02148501 1.5866258e-18)
(0.0010918802 -0.02255995 -1.9997915e-18)
(-0.00078100278 -0.023332475 6.856517e-18)
(-0.0026424763 -0.02380433 3.0376629e-18)
(-0.0044574355 -0.023997421 9.660584e-19)
(-0.0061985874 -0.023932046 8.5870372e-18)
(-0.0078404677 -0.023632561 8.1084012e-18)
(-0.0093638449 -0.023123866 6.2185238e-18)
(-0.010754131 -0.022433108 3.0691013e-18)
(-0.0120018 -0.021586797 4.057877e-18)
(-0.013101375 -0.020610982 8.7829812e-18)
(-0.014050904 -0.019530486 6.8153783e-18)
(-0.014851395 -0.018368495 8.4791087e-19)
(-0.015506127 -0.017146375 2.2653819e-18)
(-0.016020205 -0.015883741 5.9767012e-18)
(-0.016400324 -0.014598192 9.3522148e-18)
(-0.016654324 -0.013305317 5.4968746e-18)
(-0.0167908 -0.012018794 9.1704585e-19)
(-0.016818855 -0.010750447 6.8558186e-19)
(-0.016747873 -0.0095103606 3.4617572e-18)
(-0.01658732 -0.0083069932 6.3822926e-18)
(-0.016346591 -0.0071473046 5.1349037e-19)
(-0.01603488 -0.0060368864 -1.4977775e-18)
(-0.015661084 -0.0049800919 6.3570078e-19)
(-0.015233721 -0.0039801621 1.8859269e-18)
(-0.014760877 -0.003039348 4.7090553e-18)
(-0.014250167 -0.0021590243 3.1380053e-18)
(-0.013708692 -0.0013397988 4.2805009e-19)
(-0.013143001 -0.000581647 -2.9166152e-18)
(-0.012559318 0.00011604821 -1.9545454e-18)
(-0.011963162 0.00075455652 2.9200132e-19)
(-0.01135949 0.0013352465 -2.33617e-19)
(-0.010752892 0.001859992 -2.0939449e-18)
(-0.010147426 0.0023309337 -2.3705646e-18)
(-0.0095467037 0.0027504143 -2.3040753e-18)
(-0.0089538947 0.0031209364 -1.8581548e-19)
(-0.0083717539 0.0034451187 1.0971757e-18)
(-0.0078026469 0.0037256546 3.8241713e-20)
(-0.0072485757 0.0039652756 -1.012437e-19)
(-0.006711205 0.0041667212 -6.717483e-19)
(-0.0061918884 0.0043327106 -1.6126206e-19)
(-0.0056916944 0.0044659199 1.0562946e-18)
(-0.0052114314 0.0045689622 1.1032832e-18)
(-0.0047516726 0.0046443713 1.1317904e-19)
(-0.00431278 0.0046945885 -8.2179831e-19)
(-0.003894927 0.0047219514 -1.6669153e-19)
(-0.0034981201 0.0047286866 6.5013169e-19)
(-0.0031222202 0.0047169027 2.5906331e-19)
(-0.0027669619 0.0046885876 -9.0103517e-19)
(-0.0024319706 0.0046456052 -9.6413404e-19)
(-0.0021167808 0.0045896949 6.9940899e-20)
(-0.0018208528 0.0045224731 5.0105144e-19)
(-0.0015435844 0.0044454365 4.970539e-19)
(-0.0012843251 0.0043599615 1.1581019e-19)
(-0.0010423864 0.0042673095 -3.196137e-19)
(-0.00081706011 0.004168632 3.7487934e-19)
(-0.00060760834 0.00406498 6.0346062e-19)
(-0.00041330952 0.0039572986 -4.2532241e-20)
(-0.00023339214 0.0038464494 -2.9168652e-19)
(-6.7202387e-05 0.0037332004 -5.3048637e-19)
(8.5972611e-05 0.0036182927 7.4398114e-20)
(0.00022694785 0.0035022415 8.3968724e-20)
(0.00035637518 0.0033856161 -2.1878498e-20)
(0.00047490705 0.0032688978 -2.2802983e-19)
(0.0005831854 0.0031525041 -3.0443983e-19)
(0.00068182693 0.0030367992 -1.6048702e-19)
(0.00098789704 0.00029352405 6.0053083e-18)
(0.0024141052 0.00025565018 9.4996598e-17)
(0.0039414369 -0.00026757991 2.5194032e-17)
(0.0052519914 -0.001176596 2.7280337e-17)
(0.0064122088 -0.0024853679 1.1853194e-17)
(0.0072815252 -0.004130326 2.8941248e-17)
(0.0078314388 -0.0060036702 6.1238367e-17)
(0.0080472372 -0.0080151447 -1.1893409e-17)
(0.0079311754 -0.010077716 -9.9943564e-18)
(0.0074979798 -0.012115108 6.2808199e-18)
(0.0067758658 -0.014060895 -1.2775114e-17)
(0.0058017035 -0.015860108 -6.2390026e-18)
(0.0046165775 -0.01746975 -3.7636184e-18)
(0.0032645763 -0.018858729 -5.3344257e-18)
(0.0017904294 -0.020007109 -6.6056623e-19)
(0.00023346694 -0.020905325 3.8543045e-19)
(-0.0013602282 -0.021551409 7.0741573e-18)
(-0.0029529953 -0.02194687 1.6118132e-18)
(-0.0045185939 -0.022107461 4.0080156e-18)
(-0.0060291915 -0.022047113 1.9696322e-18)
(-0.0074630586 -0.021784549 3.5386209e-18)
(-0.0088019024 -0.021339587 8.404895e-18)
(-0.010032018 -0.020733868 6.0347326e-18)
(-0.011143692 -0.019989295 9.3028174e-18)
(-0.012130729 -0.019127462 5.4440543e-18)
(-0.01299003 -0.018169389 5.1449984e-18)
(-0.013721159 -0.017134976 6.5084233e-18)
(-0.014325806 -0.01604274 6.839186e-18)
(-0.014807365 -0.014909877 1.1695567e-17)
(-0.015170724 -0.013752002 2.1427199e-18)
(-0.015421948 -0.012583109 1.5156636e-18)
(-0.015567896 -0.011415604 5.0319932e-18)
(-0.015616009 -0.010260345 5.1176525e-18)
(-0.015574097 -0.0091267023 8.5070713e-18)
(-0.015450163 -0.008022643 -1.278821e-18)
(-0.015252248 -0.0069548231 -7.209575e-20)
(-0.014988308 -0.0059286882 1.9187441e-18)
(-0.014666118 -0.0049485763 2.8740994e-18)
(-0.01429319 -0.0040178209 4.6300547e-18)
(-0.013876712 -0.0031388519 -1.3215425e-18)
(-0.013423504 -0.0023132927 -2.4311974e-18)
(-0.012939982 -0.0015420525 -1.8157626e-18)
(-0.01243212 -0.00082542979 -3.4688819e-18)
(-0.011905424 -0.00016320607 -2.0035068e-18)
(-0.011365254 0.00044550669 -4.4611957e-19)
(-0.010816096 0.0010016612 -4.6594983e-19)
(-0.010262189 0.0015067624 -2.1812144e-18)
(-0.0097073659 0.0019625361 -3.0049533e-18)
(-0.0091550533 0.0023709262 -2.2620241e-18)
(-0.0086082765 0.0027340486 -4.0857768e-19)
(-0.0080696874 0.0030541471 3.0869444e-19)
(-0.0075415864 0.0033335563 -5.6276317e-19)
(-0.0070259439 0.0035746657 -5.089743e-19)
(-0.0065244216 0.0037798915 -1.0615283e-18)
(-0.0060383951 0.0039516489 -7.8294282e-19)
(-0.0055689759 0.0040923306 1.600581e-19)
(-0.0051170338 0.0042042858 3.4310087e-19)
(-0.0046832182 0.0042898057 2.6365273e-19)
(-0.0042679791 0.0043511087 -1.0344956e-18)
(-0.0038715879 0.00439033 -1.1827285e-18)
(-0.0034941568 0.0044095125 -2.7161409e-19)
(-0.0031356571 0.0044106001 -5.2535238e-19)
(-0.0027959373 0.0043954341 -1.0926468e-18)
(-0.0024747391 0.004365749 -1.0490039e-18)
(-0.002171713 0.00432317 -4.5389389e-19)
(-0.001886434 0.0042692149 -8.1572834e-21)
(-0.0016184134 0.0042052978 1.2012398e-20)
(-0.0013671115 0.0041327209 -1.4528949e-19)
(-0.0011319466 0.0040526886 -4.2547757e-19)
(-0.00091231285 0.0039663058 -4.8547412e-20)
(-0.00070757361 0.0038745793 2.3496222e-19)
(-0.00051708894 0.0037784226 -6.828308e-20)
(-0.00034019405 0.0036786888 -4.0846764e-19)
(-0.00017626112 0.0035760798 -5.4617983e-19)
(-2.4699267e-05 0.0034713757 -1.4410206e-19)
(0.00011518215 0.003365128 -9.696544e-20)
(0.00024404611 0.0032578326 -2.2062897e-19)
(0.00036247106 0.0031499984 -3.725666e-19)
(0.00047103878 0.003042052 -3.5084771e-19)
(0.00057031592 0.0029343665 -2.4519224e-19)
(0.0007553082 -0.0024066778 4.5318375e-17)
(0.0018481229 -0.0024335776 1.0911943e-16)
(0.0030159974 -0.0028423487 -1.1565814e-17)
(0.0040187809 -0.0035574404 -6.6109605e-17)
(0.0049098206 -0.004591489 -6.0569221e-17)
(0.0055756873 -0.0058864977 -3.2273577e-18)
(0.0059921199 -0.0073698005 -9.1611894e-18)
(0.0061438373 -0.0089709537 -3.3337816e-17)
(0.0060285113 -0.010622768 -3.8219523e-17)
(0.0056570179 -0.012263965 -1.1834665e-17)
(0.0050490615 -0.013839352 -1.4639734e-17)
(0.0042310584 -0.015303698 -7.5732034e-18)
(0.0032347648 -0.016620353 -1.0561078e-18)
(0.0020945812 -0.017761638 -6.4105337e-19)
(0.00084528827 -0.018708977 4.7644375e-18)
(-0.00047893761 -0.019453578 -2.2271829e-18)
(-0.0018403485 -0.019984023 1.9143848e-18)
(-0.0032092674 -0.02030945 -2.4407672e-19)
(-0.0045624892 -0.020435269 -1.4753556e-18)
(-0.0058756997 -0.020373075 -6.6538299e-18)
(-0.0071291064 -0.020136293 -4.3142608e-18)
(-0.0083063315 -0.019740867 1.2089692e-18)
(-0.0093946598 -0.019204057 6.8403247e-19)
(-0.010384484 -0.018543799 1.8173379e-18)
(-0.01126932 -0.017778027 1.6854597e-18)
(-0.012045387 -0.016924436 -5.0852163e-19)
(-0.012711229 -0.016000046 -2.310382e-18)
(-0.013267358 -0.015020863 1.0373683e-19)
(-0.013715853 -0.014001882 2.4811806e-18)
(-0.014060169 -0.012956893 3.9713666e-18)
(-0.014304922 -0.011898388 1.9805088e-18)
(-0.014455536 -0.010837558 -1.3457797e-18)
(-0.014518048 -0.0097843024 3.0550379e-19)
(-0.014498927 -0.0087472628 1.0305924e-18)
(-0.014404905 -0.0077338756 3.2765451e-18)
(-0.014242836 -0.0067504396 3.7623168e-18)
(-0.014019582 -0.0058021889 -2.2232121e-18)
(-0.013741914 -0.0048933742 -1.8027007e-19)
(-0.013416431 -0.0040273453 -6.323068e-19)
(-0.013049502 -0.0032066333 9.1045411e-19)
(-0.012647216 -0.0024330319 4.4049599e-18)
(-0.012215339 -0.0017076761 -1.5698797e-20)
(-0.011759282 -0.0010311175 -2.4440526e-18)
(-0.011284073 -0.00040341994 -1.1251533e-18)
(-0.010794595 0.00017580883 -4.0775905e-19)
(-0.010295025 0.00070746921 -2.8001333e-19)
(-0.0097892717 0.0011925685 -1.556682e-18)
(-0.0092809469 0.0016324816 -1.8030292e-18)
(-0.0087732701 0.002028819 -1.1776506e-18)
(-0.0082691104 0.0023833568 2.6376023e-19)
(-0.007771005 0.0026980075 4.3473565e-19)
(-0.0072811756 0.0029747849 -2.1686071e-19)
(-0.0068015446 0.0032157714 -4.4044259e-19)
(-0.0063337536 0.0034230902 -5.3320666e-19)
(-0.0058791819 0.0035988801 7.3142981e-19)
(-0.0054389656 0.0037452735 -1.9611275e-19)
(-0.0050140166 0.0038643777 -1.2944967e-19)
(-0.0046050413 0.0039582585 5.4919711e-19)
(-0.0042125594 0.0040289272 -9.822397e-20)
(-0.0038369217 0.0040783294 -3.4570347e-20)
(-0.0034783276 0.004108335 -6.9115753e-19)
(-0.0031368415 0.0041207319 -7.5582396e-19)
(-0.0028124093 0.0041172214 -3.050096e-19)
(-0.0025048729 0.0040994135 -2.4841055e-19)
(-0.0022139842 0.0040688231 2.8847554e-19)
(-0.0019394188 0.0040268722 -2.8739385e-19)
(-0.0016807893 0.0039748904 -1.70547e-19)
(-0.0014376541 0.0039141091 3.6449138e-19)
(-0.0012095257 0.0038456726 1.2496787e-19)
(-0.00099589306 0.0037706343 2.2240176e-19)
(-0.00079620996 0.0036899605 -1.9307742e-19)
(-0.00060991225 0.003604534 -2.4969769e-19)
(-0.00043643581 0.0035151787 -1.3969836e-19)
(-0.00027520157 0.0034225865 -3.8343728e-20)
(-0.00012565112 0.0033274617 1.6061665e-19)
(1.2751582e-05 0.0032304469 -4.0480535e-19)
(0.00014060996 0.0031320087 -4.3472916e-19)
(0.00025850919 0.0030326171 -1.66664e-19)
(0.00036695591 0.0029327241 -6.0310873e-20)
(0.00046646652 0.002832707 1.4404848e-20)
(0.00057297281 -0.0044861899 -2.0806198e-17)
(0.001404519 -0.0045057816 -5.4585943e-17)
(0.0022899928 -0.0048232257 -4.0854693e-17)
(0.0030501823 -0.0053818746 -2.0962567e-17)
(0.0037257141 -0.0061935418 -1.2077027e-17)
(0.0042259566 -0.0072160995 1.1287517e-18)
(0.0045286409 -0.0083929031 2.6439572e-18)
(0.0046207765 -0.0096698942 -3.1393624e-17)
(0.0044996768 -0.010993446 -1.0217898e-17)
(0.0041709118 -0.012313984 1.2143982e-17)
(0.0036482697 -0.013587625 1.6691847e-17)
(0.0029513933 -0.014776336 5.4709284e-18)
(0.0021045563 -0.015848975 -2.9520245e-18)
(0.0011343852 -0.016781365 -6.1783247e-18)
(6.7292908e-05 -0.017558866 -1.1845793e-17)
(-0.0010639213 -0.018166378 4.937322e-18)
(-0.0022313853 -0.018597906 2.869354e-18)
(-0.0034134302 -0.018858031 -5.3420147e-18)
(-0.0045864017 -0.018949764 -7.9135631e-18)
(-0.0057302705 -0.018881108 -1.1267858e-17)
(-0.0068275787 -0.018662097 -4.9477683e-18)
(-0.0078637458 -0.018305393 3.6548089e-18)
(-0.0088269605 -0.017824649 6.3991291e-18)
(-0.0097081105 -0.017234524 9.2383851e-18)
(-0.010500682 -0.016549922 5.3818971e-18)
(-0.01120055 -0.015785688 -1.1732962e-18)
(-0.011805591 -0.014956326 1.6560988e-18)
(-0.01231545 -0.014075629 4.1374981e-18)
(-0.012731213 -0.013156629 6.0174302e-18)
(-0.013055214 -0.012211454 7.0934019e-18)
(-0.013290899 -0.011251206 -5.9147177e-19)
(-0.01344251 -0.010285927 -3.7055063e-19)
(-0.013514912 -0.0093245925 2.1742322e-18)
(-0.013513434 -0.008375119 2.1475714e-18)
(-0.013443714 -0.0074443968 5.5876203e-18)
(-0.013311576 -0.0065383334 -1.1806426e-18)
(-0.013122914 -0.0056619064 -2.6312448e-18)
(-0.012883606 -0.0048192257 -2.2204286e-19)
(-0.012599435 -0.0040135971 7.5438681e-19)
(-0.012276026 -0.0032475902 3.4001773e-18)
(-0.011918796 -0.0025231045 4.5482005e-19)
(-0.011532917 -0.0018414356 -1.0116336e-18)
(-0.011123285 -0.001203339 -5.5105375e-20)
(-0.010694475 -0.0006091154 -6.025077e-19)
(-0.010250754 -5.8654354e-05 -1.3353039e-18)
(-0.0097962541 0.00044871669 -1.2699835e-18)
(-0.0093345229 0.00091365189 -4.1429147e-19)
(-0.0088688636 0.0013372522 4.2313111e-20)
(-0.0084022947 0.0017208273 -5.1913275e-19)
(-0.0079375379 0.0020658543 -4.6051607e-19)
(-0.0074770107 0.0023739513 -6.7072185e-19)
(-0.0070228455 0.0026468464 -4.0536834e-20)
(-0.0065769045 0.0028863462 -7.9134072e-20)
(-0.0061407953 0.0030943098 3.5856518e-19)
(-0.005715886 0.0032726246 8.669093e-19)
(-0.0053033213 0.0034231861 -1.3538112e-18)
(-0.0049040392 0.0035478791 -6.7747322e-19)
(-0.0045187867 0.003648562 1.2030471e-19)
(-0.0041481364 0.0037270539 2.8075103e-19)
(-0.0037925025 0.0037851232 3.1700832e-19)
(-0.0034521555 0.0038244779 -1.1958455e-18)
(-0.0031272378 0.0038467588 -1.1076891e-18)
(-0.0028177777 0.0038535342 -3.9130729e-19)
(-0.002523703 0.0038462943 1.3363346e-20)
(-0.0022448534 0.0038264489 4.9750051e-19)
(-0.0019809925 0.0037953263 -5.0531158e-19)
(-0.0017318217 0.0037541722 -3.4571183e-19)
(-0.001496987 0.00370415 2.6428612e-19)
(-0.001276087 0.0036463423 7.8407912e-20)
(-0.0010686925 0.0035817485 2.6871949e-19)
(-0.00087433819 0.0035112969 -3.2544615e-19)
(-0.00069253239 0.0034358342 -4.4562153e-19)
(-0.0005227953 0.0033561469 -2.9716737e-19)
(-0.00036461899 0.0032729347 -7.1955683e-20)
(-0.00021746964 0.0031868435 2.3957834e-19)
(-8.0886041e-05 0.003098488 -4.0387893e-19)
(4.5617956e-05 0.0030084085 -5.5387094e-19)
(0.00016260342 0.0029170368 -3.1275436e-19)
(0.00027056266 0.0028248051 -2.1749522e-19)
(0.00036994447 0.0027321035 1.3963678e-19)
(0.00042736853 -0.0060571703 -3.0634307e-17)
(0.0010540344 -0.0060708017 -4.7139233e-17)
(0.0017177628 -0.0063176011 1.3256679e-17)
(0.0022858187 -0.0067546924 6.2625074e-17)
(0.002788605 -0.0073934307 3.301204e-17)
(0.0031532379 -0.0082026311 5.07079e-17)
(0.0033619439 -0.0091386485 2.3347032e-17)
(0.00340256 -0.01015733 8.3348626e-18)
(0.0032715659 -0.011217396 1.5014001e-17)
(0.0029722756 -0.012278999 4.1086418e-18)
(0.0025143121 -0.01330659 -4.7869106e-18)
(0.0019122784 -0.014268607 1.5756088e-19)
(0.0011847035 -0.015138889 6.4463035e-20)
(0.00034985498 -0.015897108 7.2052038e-19)
(-0.00056579985 -0.016527647 2.0798497e-18)
(-0.0015368451 -0.017017226 3.4559285e-18)
(-0.0025449303 -0.017363492 8.3917589e-18)
(-0.003568916 -0.017564919 3.8780938e-18)
(-0.0045890963 -0.017624131 3.4940137e-18)
(-0.0055880168 -0.017546517 1.1242893e-18)
(-0.0065505065 -0.01733974 2.4272925e-18)
(-0.0074636843 -0.017013468 -7.1934497e-19)
(-0.0083167773 -0.016578606 2.121663e-18)
(-0.0091013401 -0.016047102 1.814742e-18)
(-0.0098110356 -0.01543132 -2.7940823e-18)
(-0.0104416 -0.014743717 1.0053103e-18)
(-0.010990496 -0.013996592 1.1579484e-18)
(-0.011456766 -0.013201808 1.3532614e-18)
(-0.011840758 -0.012370663 2.1582254e-18)
(-0.012143941 -0.011513785 -9.6558215e-19)
(-0.012368828 -0.010641003 -1.0648451e-18)
(-0.012518695 -0.0097612898 -1.8307767e-19)
(-0.012597433 -0.0088827437 7.8375986e-19)
(-0.012609407 -0.0080125782 1.9464625e-18)
(-0.012559322 -0.0071571366 4.6760186e-19)
(-0.012452107 -0.0063219184 -3.6370842e-18)
(-0.012292812 -0.0055116158 -2.6368625e-18)
(-0.012086525 -0.0047301587 -9.6638983e-19)
(-0.011838297 -0.0039807646 2.6874209e-18)
(-0.011553084 -0.0032659913 -3.0717018e-19)
(-0.011235693 -0.0025877922 -2.1933028e-18)
(-0.010890747 -0.0019475701 -1.5334848e-18)
(-0.010522649 -0.0013462321 -3.0046727e-18)
(-0.01013555 -0.00078424463 -1.9571054e-18)
(-0.0097333325 -0.00026169659 -1.0095922e-18)
(-0.0093197957 0.00022170103 5.0164638e-19)
(-0.0088981914 0.00066652666 2.7379618e-19)
(-0.0084715936 0.0010735871 -1.2137393e-18)
(-0.0080428298 0.0014439167 -1.2897707e-18)
(-0.0076144584 0.0017787345 -6.0691224e-19)
(-0.007188767 0.0020794 1.2764139e-20)
(-0.0067677902 0.0023473872 3.2755724e-19)
(-0.0063533203 0.0025842569 -6.5838839e-20)
(-0.0059469195 0.0027916305 2.5750696e-19)
(-0.0055499325 0.0029711686 -3.966655e-20)
(-0.0051634997 0.0031245509 -4.0719431e-19)
(-0.0047885714 0.003253459 5.8538525e-20)
(-0.0044259212 0.0033595603 -1.7674615e-20)
(-0.0040761604 0.0034444964 2.6677098e-19)
(-0.0037397522 0.0035098712 1.2778771e-19)
(-0.0034170248 0.0035572413 -4.881092e-19)
(-0.0031081842 0.0035881093 -6.0659295e-19)
(-0.0028133282 0.0036039173 -7.7210897e-19)
(-0.0025324575 0.0036060422 -6.9296795e-20)
(-0.0022654875 0.0035957927 3.1201517e-19)
(-0.002012259 0.0035744064 -1.3392353e-19)
(-0.0017725504 0.0035430483 -4.8267121e-20)
(-0.0015460843 0.0035028132 1.7133061e-19)
(-0.0013325374 0.003454723 1.1337429e-19)
(-0.0011315533 0.0033997248 3.7732295e-19)
(-0.00094273951 0.0033387058 -3.7376841e-20)
(-0.00076567535 0.003272474 -2.4224865e-19)
(-0.00059994369 0.0032017766 -3.3145616e-19)
(-0.00044510424 0.0031273153 -5.2840135e-20)
(-0.00030068796 0.0030497 2.3133779e-19)
(-0.00016626287 0.0029695042 -2.573398e-19)
(-4.1405174e-05 0.00288728 -4.0981217e-19)
(7.4355888e-05 0.0028035058 -2.9811239e-19)
(0.00018148753 0.0027185455 -8.9574704e-20)
(0.00028041418 0.0026328067 2.3858044e-19)
(0.00031349311 -0.0072263417 2.1316822e-17)
(0.00077831778 -0.0072347915 6.7524935e-17)
(0.001266827 -0.0074267646 4.8281483e-18)
(0.0016824901 -0.0077696988 4.1580575e-17)
(0.0020463374 -0.0082735123 2.4962653e-17)
(0.0023003993 -0.008915009 1.7819523e-17)
(0.0024311037 -0.0096592638 8.3422611e-18)
(0.0024276221 -0.010472287 1.0523949e-17)
(0.002285884 -0.011320675 1.1494677e-17)
(0.0020074136 -0.012172759 -8.5586845e-18)
(0.0015989805 -0.012999414 -1.5035553e-17)
(0.001071513 -0.013774911 -2.2517182e-18)
(0.0004385759 -0.014477602 -2.0881042e-18)
(-0.00028334622 -0.015089976 -2.4877469e-18)
(-0.0010746123 -0.015594359 -1.1732565e-18)
(-0.0019156532 -0.015985316 -3.6647315e-18)
(-0.0027898805 -0.016256919 -1.1796632e-19)
(-0.0036805724 -0.016406638 -4.1768551e-18)
(-0.0045708706 -0.016435943 -5.1891567e-18)
(-0.005445745 -0.016348452 -3.9957659e-18)
(-0.0062919245 -0.016149897 -3.9960428e-18)
(-0.0070979866 -0.015847749 -5.3114398e-18)
(-0.0078543665 -0.015450733 -5.9748763e-18)
(-0.0085533496 -0.01496853 -8.6965743e-18)
(-0.0091888942 -0.014411367 -7.5954331e-18)
(-0.0097567513 -0.013789686 -4.0149479e-18)
(-0.010254158 -0.013113905 -7.2716347e-18)
(-0.010679763 -0.012394203 -6.7242685e-18)
(-0.01103338 -0.011640356 -4.9039107e-18)
(-0.011315821 -0.010861652 -3.6273673e-18)
(-0.011528857 -0.010066765 -4.4325765e-18)
(-0.011674984 -0.0092636841 -4.9222254e-18)
(-0.011757289 -0.008459686 -2.5031895e-18)
(-0.011779328 -0.0076613127 -8.3223067e-20)
(-0.011745012 -0.0068743732 -1.1166163e-18)
(-0.011658499 -0.006103955 -3.1333591e-18)
(-0.011524104 -0.0053544485 -2.8327851e-18)
(-0.01134622 -0.0046295782 -1.1582947e-18)
(-0.011129249 -0.0039324395 6.3779072e-19)
(-0.010877546 -0.0032655413 4.7966262e-19)
(-0.010595367 -0.0026308493 1.1649352e-18)
(-0.010286833 -0.0020298306 -1.6123681e-18)
(-0.0099558996 -0.001463499 -3.2229103e-18)
(-0.0096063203 -0.00093246058 -1.8342999e-18)
(-0.0092416256 -0.00043697459 -5.4161576e-19)
(-0.0088652197 2.3025881e-05 1.2399633e-18)
(-0.0084802004 0.00044801588 -7.4825805e-19)
(-0.0080893714 0.00083849209 -1.9051686e-18)
(-0.0076953591 0.0011952838 -6.8454393e-19)
(-0.0073005564 0.0015193896 -3.4688101e-20)
(-0.0069071236 0.001811943 6.2042356e-19)
(-0.0065169938 0.0020741943 3.5221951e-20)
(-0.0061318829 0.0023074852 -3.8438462e-19)
(-0.0057532995 0.0025132248 -5.9784296e-19)
(-0.005382555 0.0026928692 -2.2512101e-19)
(-0.0050207748 0.0028479026 7.6685285e-19)
(-0.0046689101 0.002979821 2.2713895e-19)
(-0.004327749 0.0030901175 -1.5348821e-19)
(-0.0039979298 0.0031802695 -5.1956684e-19)
(-0.0036799522 0.0032517287 -5.8732996e-20)
(-0.0033741895 0.0033059108 1.4372741e-19)
(-0.0030808998 0.0033441889 -6.3161169e-19)
(-0.0028002381 0.0033678865 -9.9251814e-19)
(-0.0025322669 0.0033782731 -6.0683657e-19)
(-0.0022769661 0.0033765604 1.5485768e-19)
(-0.0020342432 0.0033638991 5.8331772e-20)
(-0.0018039443 0.0033413774 -2.760193e-19)
(-0.0015858594 0.0033100215 -1.4194492e-19)
(-0.0013797336 0.0032707928 -8.3753048e-20)
(-0.0011852753 0.0032245895 4.3064016e-19)
(-0.0010021589 0.0031722527 1.4979296e-19)
(-0.00083002989 0.0031145536 -2.2196437e-19)
(-0.00066852015 0.0030522067 -4.1937356e-19)
(-0.0005172563 0.0029858888 -2.3419353e-19)
(-0.00037583206 0.0029161926 2.1560301e-19)
(-0.00024384963 0.0028436728 -1.2171107e-19)
(-0.00012091285 0.0027688633 -3.743037e-19)
(-6.6489191e-06 0.0026922172 -3.177429e-19)
(9.9358045e-05 0.0026141613 -5.3025601e-20)
(0.00019753988 0.0025350355 1.1821686e-19)
(0.00022298263 -0.0080758601 1.5602309e-17)
(0.0005595465 -0.0080807226 2.0322261e-17)
(0.00090885276 -0.0082303631 -8.469712e-18)
(0.0012031298 -0.0084998803 -1.4602026e-17)
(0.0014559508 -0.0088982448 -2.4988357e-17)
(0.0016213955 -0.0094071289 -7.9182904e-18)
(0.0016886207 -0.0099988789 -1.3240265e-18)
(0.0016479332 -0.010647023 -1.4979448e-17)
(0.0014957572 -0.011324883 -8.3567785e-18)
(0.0012325876 -0.012007033 -1.6214468e-18)
(0.00086302125 -0.012669861 -5.340314e-18)
(0.0003947583 -0.013291984 -1.2330538e-18)
(-0.00016144742 -0.013856031 -5.2135592e-19)
(-0.00079087564 -0.01434443 -1.8437331e-18)
(-0.0014793803 -0.014745436 -1.5319255e-18)
(-0.0022126248 -0.015052013 -4.2063486e-18)
(-0.0029752083 -0.015259019 1.5790211e-18)
(-0.003753292 -0.015363642 1.7611886e-19)
(-0.0045331819 -0.015366142 -2.7702751e-19)
(-0.0053016753 -0.015268753 -1.333795e-18)
(-0.0060473703 -0.015075806 -2.5116411e-18)
(-0.0067603363 -0.014793085 1.1933627e-18)
(-0.0074319775 -0.014427589 -2.6794991e-19)
(-0.0080552997 -0.013987125 5.4772892e-19)
(-0.0086246857 -0.013480148 2.7172723e-19)
(-0.0091360264 -0.012915392 1.2588932e-18)
(-0.0095864826 -0.012301685 1.2946239e-18)
(-0.0099744529 -0.01164775 6.6550549e-19)
(-0.010299374 -0.010962028 2.5930526e-18)
(-0.010561566 -0.010252619 -1.8383736e-19)
(-0.010762222 -0.0095271582 -1.1857731e-18)
(-0.010903209 -0.0087927381 1.1125913e-18)
(-0.010986954 -0.0080558742 1.6630075e-18)
(-0.011016341 -0.007322477 2.9498153e-18)
(-0.010994607 -0.0065978414 -2.6708568e-19)
(-0.010925249 -0.0058866495 3.6503582e-20)
(-0.010811947 -0.0051929834 1.1153582e-18)
(-0.010658483 -0.0045203464 1.4696581e-18)
(-0.010468687 -0.0038716894 2.5611273e-18)
(-0.010246376 -0.003249443 2.7653641e-18)
(-0.0099953125 -0.0026555527 1.7423143e-18)
(-0.0097191627 -0.0020915139 -1.9526772e-18)
(-0.0094214689 -0.0015584104 -2.8937393e-18)
(-0.0091056205 -0.0010569521 -1.4578239e-18)
(-0.0087748238 -0.00058752287 7.9300714e-19)
(-0.0084320905 -0.00015020968 1.0395609e-18)
(-0.0080803982 0.00025527067 -1.412036e-18)
(-0.0077223026 0.00062923682 -1.5673e-18)
(-0.0073602013 0.00097234947 -3.7724785e-19)
(-0.0069963379 0.0012854037 1.0168146e-18)
(-0.0066327468 0.001569334 1.063652e-18)
(-0.0062712565 0.0018251932 3.1292977e-19)
(-0.0059135017 0.0020541285 1.581528e-22)
(-0.0055609309 0.0022573596 -4.3582346e-19)
(-0.0052148148 0.0024361584 1.3331897e-18)
(-0.0048762551 0.0025918329 1.0944395e-18)
(-0.0045461944 0.0027257104 2.2542972e-19)
(-0.0042254258 0.0028391244 6.0268774e-19)
(-0.0039146034 0.002933402 -1.7772778e-19)
(-0.0036142533 0.0030098541 5.8152296e-19)
(-0.0033247829 0.0030697658 4.1489895e-19)
(-0.003046492 0.003114389 -4.8680808e-19)
(-0.0027795826 0.0031449362 -3.2298489e-19)
(-0.0025241686 0.0031625754 -2.1481749e-19)
(-0.0022802847 0.0031684263 7.422115e-19)
(-0.0020478958 0.0031635564 3.4197188e-19)
(-0.0018269064 0.0031489799 -2.132229e-19)
(-0.0016171665 0.0031256568 3.1597474e-19)
(-0.0014184801 0.0030944894 2.5701077e-19)
(-0.0012306137 0.0030563272 6.522904e-19)
(-0.0010533017 0.0030119633 3.8577897e-19)
(-0.00088624775 0.002962135 3.2596922e-20)
(-0.00072913505 0.0029075269 4.0447099e-20)
(-0.00058164246 0.002848778 7.6198374e-21)
(-0.00044341947 0.0027864726 3.9932149e-19)
(-0.00031410119 0.0027211444 8.0181509e-20)
(-0.00019336182 0.0026533012 -2.6363385e-19)
(-8.0835026e-05 0.0025833738 -7.3496786e-20)
(2.3828193e-05 0.0025118252 2.5848231e-20)
(0.00012099048 0.0024389791 7.9661734e-20)
(0.00015182884 -0.0086756718 -8.5512434e-18)
(0.00038646555 -0.008677537 -1.9340426e-17)
(0.00062552989 -0.0087939282 -1.2011796e-17)
(0.00082309909 -0.0090049832 -2.9658742e-17)
(0.00098701727 -0.0093193699 -7.8862702e-18)
(0.0010811269 -0.0097225133 6.0807155e-18)
(0.0010967922 -0.010192685 -2.4366098e-17)
(0.0010255973 -0.010708402 -1.5623218e-17)
(0.00086425607 -0.011248568 -5.7350356e-18)
(0.00061243584 -0.011792754 -9.2139818e-18)
(0.00027360702 -0.01232227 1.714338e-18)
(-0.00014711757 -0.012818694 2.3118976e-18)
(-0.00063948966 -0.01326652 -7.6059777e-19)
(-0.0011926684 -0.013652175 1.2374523e-18)
(-0.0017972849 -0.013966646 3.8426619e-19)
(-0.0024401658 -0.014202346 5.0057317e-18)
(-0.0031088682 -0.014354091 3.8379892e-18)
(-0.00379201 -0.014419841 3.4781566e-18)
(-0.0044777063 -0.01439863 4.3640853e-18)
(-0.0051549365 -0.0142919 1.510746e-19)
(-0.0058139324 -0.014103004 -6.0534087e-19)
(-0.0064459364 -0.013836266 -1.5788219e-19)
(-0.0070433628 -0.0134973 7.6648409e-19)
(-0.0075999102 -0.01309243 1.338952e-18)
(-0.0081104217 -0.012628656 -7.3223617e-19)
(-0.0085710019 -0.012113278 1.0413375e-19)
(-0.0089788451 -0.01155377 -1.0970409e-18)
(-0.0093322101 -0.010957595 5.8076952e-19)
(-0.0096302767 -0.010332036 2.4538472e-18)
(-0.009873007 -0.0096841467 -8.4327424e-19)
(-0.010061147 -0.0090206319 -6.8521481e-19)
(-0.010196063 -0.0083477744 -1.3390025e-18)
(-0.010279644 -0.007671392 4.6756255e-19)
(-0.010314216 -0.0069968066 1.8614857e-18)
(-0.010302448 -0.0063288263 -1.8619194e-19)
(-0.010247277 -0.0056717408 9.1284763e-19)
(-0.010151828 -0.0050293256 -1.3859008e-18)
(-0.010019357 -0.0044048552 3.7182133e-20)
(-0.0098531856 -0.0038011209 1.7090469e-19)
(-0.0096566563 -0.003220455 -2.1793275e-18)
(-0.0094330867 -0.002664757 -2.245987e-18)
(-0.0091857337 -0.0021355233 -4.9392199e-19)
(-0.008917763 -0.001633878 8.2509975e-19)
(-0.0086322219 -0.001160604 -5.10961e-19)
(-0.0083320114 -0.00071617691 -6.8274275e-19)
(-0.0080198731 -0.00030080359 -1.2078969e-18)
(-0.0076985418 8.5561536e-05 2.335025e-19)
(-0.0073703575 0.00044328157 1.0371032e-18)
(-0.0070375236 0.00077272892 -1.747801e-19)
(-0.0067021513 0.0010745386 1.7485557e-19)
(-0.0063661424 0.0013494835 -1.2985606e-19)
(-0.0060312172 0.001598445 5.1902263e-19)
(-0.0056989256 0.0018223989 2.1069668e-19)
(-0.0053706518 0.0020223965 4.0846533e-19)
(-0.0050476197 0.0021995454 1.5995282e-18)
(-0.0047309008 0.0023549943 -6.3596809e-20)
(-0.0044214214 0.002489918 5.4098452e-19)
(-0.004119971 0.0026055044 9.1334026e-19)
(-0.0038272113 0.0027029432 6.5174951e-19)
(-0.0035436851 0.0027834158 6.6613553e-19)
(-0.0032698255 0.0028480861 -3.6403556e-19)
(-0.0030059643 0.0028980934 -8.5379839e-20)
(-0.0027523412 0.0029345465 8.1601491e-20)
(-0.0025091127 0.0029585178 2.5745424e-19)
(-0.0022763596 0.0029710399 6.1054045e-19)
(-0.0020540956 0.0029731015 -1.1076593e-19)
(-0.0018422756 0.0029656455 3.0831733e-20)
(-0.0016408017 0.002949568 4.9282417e-19)
(-0.0014495302 0.0029257151 3.6700266e-19)
(-0.0012682797 0.0028948861 4.3776883e-19)
(-0.0010968362 0.0028578289 3.884745e-20)
(-0.00093495404 0.0028152457 -1.105101e-20)
(-0.00078236617 0.002767789 1.0855873e-19)
(-0.00063879859 0.0027160655 1.7283674e-19)
(-0.00050394854 0.0026606414 3.0777553e-19)
(-0.00037749839 0.0026020328 -1.2319893e-19)
(-0.00025915406 0.0025407144 -2.9240433e-19)
(-0.00014858634 0.0024771394 -8.7685572e-20)
(-4.548798e-05 0.0024117009 -1.3759742e-20)
(5.0449872e-05 0.0023448019 7.0955592e-20)
(9.5572391e-05 -0.0090755405 -3.1695402e-18)
(0.0002492482 -0.0090753284 -6.2640368e-18)
(0.00040101383 -0.0091654951 4.0075456e-18)
(0.00052196225 -0.0093304973 2.014511e-17)
(0.00061477155 -0.0095783534 1.003718e-17)
(0.00065151601 -0.0098972291 1.0062351e-18)
(0.00062581502 -0.010269798 -1.002121e-17)
(0.00053001714 -0.010679143 -3.7312324e-19)
(0.00036102966 -0.011108031 -4.9074231e-18)
(0.00011786329 -0.011540781 4.3878068e-18)
(-0.00019614476 -0.01196054 7.5284975e-18)
(-0.00057618029 -0.012353138 2.6940324e-18)
(-0.0010160537 -0.012704634 -7.9872492e-19)
(-0.0015074526 -0.013006035 -3.6442359e-19)
(-0.0020419627 -0.01324818 -3.8443265e-18)
(-0.0026090328 -0.013423932 -2.2347902e-18)
(-0.0031986901 -0.013529258 8.2499779e-19)
(-0.0038012095 -0.013561621 -3.5589824e-19)
(-0.0044064458 -0.013519847 -1.8985715e-18)
(-0.0050053942 -0.013404882 -5.111157e-18)
(-0.0055895019 -0.013219049 -4.4216511e-18)
(-0.0061510973 -0.012965725 -5.3124471e-18)
(-0.0066835432 -0.012649371 -3.0207054e-18)
(-0.0071812187 -0.012275129 -8.928968e-19)
(-0.007639444 -0.011848782 -2.3879111e-18)
(-0.0080545656 -0.011376447 -3.654793e-18)
(-0.0084238773 -0.010864438 -3.0672964e-18)
(-0.0087455872 -0.010319143 -1.8943405e-18)
(-0.0090187129 -0.009746842 -6.9533596e-19)
(-0.0092429625 -0.0091536676 -9.7114091e-20)
(-0.0094187413 -0.0085455014 -2.5664403e-18)
(-0.0095470201 -0.0079278969 -2.461546e-18)