/*--------------------------------*- C++ -*----------------------------------*\
| =========                 |                                                 |
| \\      /  F ield         | OpenFOAM: The Open Source CFD Toolbox           |
|  \\    /   O peration     | Version:  2106                                  |
|   \\  /    A nd           | Website:  www.openfoam.com                      |
|    \\/     M anipulation  |                                                 |
\*---------------------------------------------------------------------------*/
FoamFile
{
    version     2.0;
    format      ascii;
    arch        "LSB;label=32;scalar=64";
    class       volScalarField;
    location    "0.016";
    object      p_rgh;
}
// * * * * * * * * * * * * * * * * * * * * * * * * * * * * * * * * * * * * * //

dimensions      [1 -1 -2 0 0 0 0];

internalField   nonuniform List<scalar> 
4096
(
14.916107
14.772242
14.485905
14.059867
13.498249
12.806487
11.991272
11.060486
10.023128
8.8892222
7.6697207
6.3763993
5.0217434
3.6188195
2.1811063
0.72252779
-0.74283087
-2.2009579
-3.6377829
-5.0394758
-6.3925586
-7.6840249
-8.9014642
-10.033181
-11.068307
-11.996903
-12.810056
-13.499962
-14.060001
-14.4848
-14.770284
-14.913714
-14.913714
-14.770285
-14.484803
-14.060005
-13.499968
-12.810063
-11.996911
-11.068316
-10.033191
-8.9014756
-7.6840372
-6.3925718
-5.0394898
-3.6377975
-2.2009731
-0.74284645
0.72251197
2.1810904
3.6188037
5.0217279
6.3763842
7.6697062
8.8892084
10.023116
11.060475
11.991262
12.806478
13.498242
14.059861
14.485901
14.77224
14.916106
15.06681
14.921492
14.632261
14.201917
13.634624
12.93587
12.112415
11.172219
10.124372
8.9789985
7.7471615
6.4407545
5.0723858
3.6552526
2.203003
0.72967144
-0.75056319
-2.2234688
-3.6748584
-5.0907663
-6.4575765
-7.7621497
-8.9919489
-10.135159
-11.1808
-12.118833
-12.940251
-13.637171
-14.202905
-14.632024
-14.920411
-15.0653
-15.065301
-14.920413
-14.632027
-14.202909
-13.637177
-12.940258
-12.118841
-11.18081
-10.13517
-8.9919604
-7.7621622
-6.4575898
-5.0907804
-3.6748732
-2.2234842
-0.75057895
0.72965543
2.2029869
3.6552366
5.0723701
6.4407392
7.7471468
8.9789846
10.124359
11.172207
12.112404
12.935861
13.634616
14.201911
14.632257
14.921489
15.066809
15.35963
15.21149
14.916644
14.477943
13.899633
13.187306
12.347852
11.389387
10.321172
9.1535286
7.8977329
6.5659074
5.1709034
3.7261747
2.2456463
0.74359785
-0.76550791
-2.2671465
-3.7468623
-5.1904184
-6.5839314
-7.9140038
-9.1678516
-10.333427
-11.399534
-12.355932
-13.193438
-13.904011
-14.480831
-14.918361
-15.212402
-15.360131
-15.360132
-15.212404
-14.918365
-14.480836
-13.904017
-13.193445
-12.35594
-11.399543
-10.333438
-9.1678633
-7.9140164
-6.583945
-5.1904328
-3.7468774
-2.2671622
-0.765524
0.7435815
2.2456298
3.7261584
5.1708873
6.5658917
7.8977178
9.1535144
10.321159
11.389374
12.347842
13.187297
13.899625
14.477937
14.916639
15.211487
15.359629
15.798488
15.646121
15.342859
14.891638
14.296819
13.564155
12.700729
11.714886
10.616151
9.4151349
8.1234346
6.7535161
5.3185953
3.8325093
2.3095821
0.76449208
-0.78788023
-2.332591
-3.8547721
-5.3397778
-6.7733244
-8.1416274
-9.4315327
-10.630643
-11.727436
-12.711373
-13.573004
-14.304053
-14.897498
-15.347641
-15.65016
-15.802149
-15.80215
-15.650162
-15.347645
-14.897503
-14.304059
-13.573011
-12.711382
-11.727445
-10.630654
-9.4315446
-8.1416403
-6.7733383
-5.3397926
-3.8547876
-2.3326071
-0.7878968
0.76447522
2.3095651
3.8324923
5.3185786
6.7534999
8.123419
9.4151202
10.616137
11.714874
12.700718
13.564145
14.296811
14.891631
15.342855
15.646118
15.798487
16.388252
16.230205
15.915637
15.44759
14.830589
14.070597
13.174959
12.152328
11.012579
9.7667179
8.4267687
7.0056595
5.5170965
3.9754307
2.3955196
0.79258587
-0.81793354
-2.4205343
-3.9997916
-5.5405094
-7.0278665
-8.4475577
-9.7859315
-11.03012
-12.168164
-13.189123
-14.083186
-14.84176
-15.457555
-15.924656
-16.238572
-16.396288
-16.396289
-16.238574
-15.924659
-15.45756
-14.841765
-14.083193
-13.189131
-12.168173
-11.030131
-9.7859437
-8.447571
-7.0278808
-5.5405247
-3.9998076
-2.420551
-0.81795076
0.79256833
2.3955019
3.975413
5.5170791
7.0056426
8.4267524
9.7667024
11.012565
12.152314
13.174947
14.070587
14.83058
15.447583
15.915632
16.230202
16.388251
17.13454
16.969305
16.640431
16.151096
15.506028
14.711458
13.775062
12.705882
11.514239
10.211633
8.8106315
7.3247471
5.7683054
4.1563076
2.5042856
0.82815244
-0.85595164
-2.5318142
-4.1833055
-5.7945332
-7.349995
-8.8347273
-10.234448
-11.535695
-12.725953
-13.793775
-14.728891
-15.522308
-16.166397
-16.654963
-16.983308
-17.148274
-17.148275
-16.98331
-16.654966
-16.166402
-15.522314
-14.728898
-13.793783
-12.725963
-11.535707
-10.234461
-8.834741
-7.3500099
-5.794549
-4.1833223
-2.5318317
-0.85596967
0.82813402
2.504267
4.156289
5.768287
7.3247292
8.8106143
10.211616
11.514223
12.705868
13.77505
14.711448
15.506019
16.151089
16.640426
16.969302
17.134539
18.044419
17.870421
17.524107
17.008819
16.329534
15.49281
14.506725
13.380796
12.125886
10.754099
9.278666
7.7138088
6.0746095
4.3768613
2.6369177
0.87153437
-0.90229163
-2.6674853
-4.4070569
-6.1042652
-7.7427774
-9.3068267
-10.781363
-12.152196
-13.406134
-14.53111
-15.516298
-16.352213
-17.030812
-17.54556
-17.891504
-18.065313
-18.065314
-17.891506
-17.545564
-17.030816
-16.35222
-15.516305
-14.531119
-13.406144
-12.152207
-10.781376
-9.306841
-7.742793
-6.1042818
-4.4070745
-2.6675037
-0.90231067
0.8715149
2.636898
4.3768416
6.07459
7.7137898
9.2786476
10.754082
12.125869
13.380781
14.506712
15.492798
16.329524
17.008811
17.524101
17.870418
18.044417
19.126554
18.942137
18.575081
18.028929
17.308952
16.422098
15.376921
14.183503
12.853352
11.399292
9.8353376
8.1765584
6.438934
4.6391996
2.7946851
0.92314834
-0.95739496
-2.8288442
-4.6731872
-6.4726726
-8.2099801
-9.8683866
-11.431927
-12.885547
-14.215249
-15.408227
-16.45299
-17.339472
-18.059132
-18.605035
-18.97192
-19.156252
-19.156252
-18.971922
-18.605039
-18.059137
-17.339478
-16.452998
-15.408237
-14.21526
-12.885559
-11.43194
-9.8684016
-8.2099964
-6.4726901
-4.6732058
-2.8288637
-0.95741518
0.92312761
2.7946641
4.6391786
6.4389132
8.176538
9.835318
11.399273
12.853334
14.183487
15.376906
16.422085
17.308942
18.028921
18.575075
18.942133
19.126553
20.391258
20.194663
19.803369
19.221149
18.453618
17.508177
16.393943
15.121654
13.703573
12.153362
10.485955
8.717409
6.8647539
4.9458246
2.9790916
0.98348382
-1.0217931
-3.0174405
-4.984251
-6.9032929
-8.7560912
-10.524805
-12.192399
-13.742808
-15.161092
-16.433579
-17.548
-18.493609
-19.261283
-19.843616
-20.234989
-20.431624
-20.431625
-20.234991
-19.843619
-19.261287
-18.493615
-17.548008
-16.433588
-15.161103
-13.742821
-12.192413
-10.524821
-8.7561083
-6.9033114
-4.9842707
-3.0174613
-1.0218148
0.98346159
2.979069
4.9458019
6.8647314
8.717387
10.485933
12.153342
13.703554
15.121637
16.393927
17.508164
18.453606
19.22114
19.803362
20.194659
20.391257
21.850571
21.639926
21.220664
20.596827
19.774427
18.761388
17.567472
16.204179
14.684639
13.023485
11.236708
9.3415056
7.3561179
5.2996483
3.1918833
1.0531018
-1.0961178
-3.2350947
-5.3432431
-7.400269
-9.3863649
-11.282399
-13.070102
-14.732238
-16.252778
-17.617053
-18.811894
-19.825764
-20.648873
-21.273267
-21.692912
-21.903755
-21.903755
-21.692914
-21.27327
-20.648877
-19.825771
-18.811902
-17.617062
-16.25279
-14.732251
-13.070116
-11.282416
-9.386383
-7.4002887
-5.3432641
-3.2351169
-1.096141
1.0530778
3.1918588
5.2996238
7.3560935
9.3414817
11.236684
13.023463
14.684619
16.20416
17.567455
18.761374
19.774414
20.596817
21.220657
21.639922
21.85057
23.518376
23.291673
22.840448
22.169048
21.28394
20.193646
18.908665
17.441366
15.805874
14.017925
12.094723
10.054767
7.9176798
5.7040134
3.4350572
1.1326327
-1.1811141
-3.4839235
-5.7536346
-7.9683967
-10.106879
-12.148474
-14.073498
-15.86338
-17.500845
-18.970077
-20.256879
-21.348812
-22.235315
-22.907811
-23.359792
-23.586881
-23.586882
-23.359793
-22.907814
-22.23532
-21.348819
-20.256887
-18.970086
-17.500856
-15.863394
-14.073513
-12.148491
-10.106898
-7.9684177
-5.7536572
-3.4839475
-1.1811392
1.1326067
3.4350307
5.7039867
7.9176531
10.054741
12.094697
14.017901
15.805851
17.441346
18.908646
20.19363
21.283926
22.169038
22.84044
23.291668
23.518375
25.410522
25.1656
24.678111
23.952748
22.996493
21.818549
20.43025
18.844952
17.077905
15.146102
13.068119
10.863933
8.554733
6.1627148
3.7108712
1.2227726
-1.2776574
-3.7663691
-6.2194151
-8.6131789
-10.924601
-13.131398
-15.212283
-17.147167
-18.917355
-20.505733
-21.896934
-23.07749
-24.035966
-24.763075
-25.251767
-25.497304
-25.497304
-25.251769
-24.763078
-24.035971
-23.077496
-21.896942
-20.505742
-18.917366
-17.14718
-15.212299
-13.131417
-10.924621
-8.6132014
-6.2194394
-3.766395
-1.2776847
1.2227443
3.7108422
6.1626855
8.5547039
10.863905
13.068091
15.146076
17.07788
18.844929
20.430229
21.818531
22.996478
23.952736
24.678102
25.165594
25.41052
27.544968
27.279491
26.75109
25.964847
24.928326
23.651497
22.146639
20.42822
18.51276
16.418671
14.166075
11.776616
9.2732487
6.6800234
4.021853
1.3242786
-1.3867727
-4.085233
-6.7451409
-9.3408884
-11.847465
-14.240698
-16.497488
-18.596028
-20.516026
-22.238897
-23.747949
-25.028552
-26.068283
-26.857048
-27.387188
-27.653552
-27.653552
-27.387189
-26.857051
-26.068287
-25.028558
-23.747956
-22.238906
-20.516038
-18.596043
-16.497504
-14.240718
-11.847487
-9.3409125
-6.7451672
-4.0852612
-1.3868025
1.3242476
4.0218212
6.6799912
9.2732166
11.776584
14.166044
16.418642
18.512733
20.428194
22.146616
23.651477
24.92831
25.964834
26.75108
27.279485
27.544966
29.941943
29.653379
29.079024
28.2244
27.097724
25.709829
24.074053
22.206117
20.123968
17.847608
15.3989
12.801356
10.079918
7.260714
4.3708113
1.437963
-1.5096562
-4.4437143
-7.3359897
-10.158638
-12.884459
-15.487156
-17.941591
-20.22403
-22.312377
-24.186392
-25.827895
-27.220945
-28.352004
-29.210073
-29.786802
-30.076577
-30.076578
-29.786803
-29.210075
-28.352008
-27.22095
-25.827902
-24.186401
-22.312388
-20.224044
-17.941608
-15.487177
-12.884483
-10.158664
-7.3360182
-4.4437451
-1.5096888
1.4379289
4.3707763
7.2606784
10.079883
12.801321
15.398866
17.847576
20.123938
22.206089
24.074027
25.709807
27.097706
28.224385
29.079013
29.653372
29.941941
32.624125
32.309719
31.683927
30.752764
29.525178
28.012968
26.230661
24.195379
21.926668
19.446312
16.778119
13.947696
10.982204
7.9100968
4.7608508
1.5646906
-1.6476971
-4.8454497
-7.9978189
-11.07446
-14.04572
-16.882925
-19.558655
-22.047012
-24.323881
-26.367165
-28.15701
-29.676005
-30.909361
-31.845059
-32.473975
-32.789975
-32.789976
-32.473976
-31.84506
-30.909364
-29.676009
-28.157016
-26.367174
-24.323893
-22.047027
-19.558673
-16.882947
-14.045745
-11.074488
-7.9978499
-4.8454834
-1.6477329
1.564653
4.760812
7.9100574
10.982165
13.947657
16.778081
19.446275
21.926634
24.195348
26.230633
28.012943
29.525158
30.752747
31.683915
32.309712
32.624123
35.616844
35.273592
34.590385
33.573787
32.233566
30.582598
28.63674
26.414679
23.937746
21.229716
18.31657
15.226253
11.9884
8.6340597
5.1953936
1.7053802
-1.8024957
-5.2945523
-8.7372253
-12.097381
-15.342633
-18.441651
-21.364464
-24.082758
-26.570155
-28.802482
-30.75801
-32.417682
-33.765306
-34.787722
-35.474938
-35.820234
-35.820234
-35.474938
-34.787723
-33.765308
-32.417686
-30.758015
-28.80249
-26.570166
-24.082772
-21.364482
-18.441673
-15.34266
-12.097412
-8.7372591
-5.2945893
-1.8025352
1.7053386
5.1953506
8.6340159
11.988357
15.226209
18.316528
21.229675
23.937708
26.414644
28.636708
30.58257
32.233543
33.573768
34.590371
35.273584
35.616841
38.948302
38.572923
37.825769
36.71402
35.248355
33.442853
31.314854
28.88479
26.175983
23.214426
20.028522
16.648819
13.107709
9.4391247
5.6782153
1.8610186
-1.9758719
-5.7956431
-9.5616005
-13.23751
-16.787939
-20.178599
-23.376678
-26.351162
-29.073149
-31.516144
-33.656323
-35.472789
-36.947779
-38.066857
-38.81906
-39.197014
-39.197014
-38.819059
-38.066857
-36.94778
-35.472791
-33.656327
-31.51615
-29.07316
-26.351176
-23.376697
-20.178623
-16.787967
-13.237542
-9.5616376
-5.7956838
-1.9759157
1.8609724
5.6781673
9.4390758
13.10766
16.64877
20.028475
23.214381
26.175941
28.884751
31.314819
33.442822
35.248328
36.713999
37.825754
38.572914
38.948299
42.649832
42.238736
41.420491
40.202959
38.597837
36.620545
34.29007
31.628788
28.66224
25.418883
21.929819
18.228486
14.350345
10.332529
6.2135028
2.032696
-2.1698543
-6.3538649
-10.479171
-14.506096
-18.395826
-22.110781
-25.614985
-28.874415
-31.857356
-34.534717
-36.880341
-38.87127
-40.48799
-41.714636
-42.53916
-42.953458
-42.953457
-42.539158
-41.714633
-40.487987
-38.871269
-36.880342
-34.534722
-31.857364
-28.874429
-25.615004
-22.110806
-18.395856
-14.506132
-10.479212
-6.35391
-2.169903
2.0326444
6.2134492
10.332474
14.35029
18.228432
21.929766
25.418832
28.662192
31.628744
34.290031
36.62051
38.597808
40.202935
41.420474
42.238726
42.649829
46.756189
46.305445
45.408283
44.073328
42.313405
40.145424
37.590207
34.67229
31.419676
27.863569
24.038063
19.979812
15.727676
11.322345
6.8059509
2.221677
-2.3866343
-6.9748649
-11.499012
-15.915584
-20.182013
-24.257067
-28.101247
-31.677183
-34.95002
-37.887777
-40.461686
-42.646493
-44.420727
-45.766928
-46.671837
-47.126533
-47.126532
-46.671834
-45.766924
-44.420722
-42.646489
-40.461684
-37.887779
-34.950027
-31.677196
-28.101266
-24.257093
-20.182046
-15.915623
-11.499057
-6.974915
-2.3866887
2.2216193
6.8058908
11.322283
15.727614
19.979751
24.038004
27.863512
31.419623
34.67224
37.590163
40.145385
42.313372
44.073301
45.408264
46.305433
46.756185
51.305894
50.811194
49.826544
48.36141
46.429876
44.050501
41.246146
38.043744
34.474035
30.571269
26.372864
21.919039
17.252426
12.417653
7.460913
2.4295282
-2.6284643
-7.6647208
-12.631009
-17.479607
-22.163787
-26.638265
-30.859627
-34.786772
-38.381346
-41.608144
-44.435486
-46.835552
-48.784687
-50.263651
-51.257828
-51.757387
-51.757385
-51.257822
-50.263643
-48.784678
-46.835543
-44.435479
-41.608142
-38.38135
-34.786783
-30.859646
-26.638293
-22.163823
-17.479651
-12.631059
-7.6647767
-2.6285251
2.4294634
7.4608453
12.417584
17.252356
21.91897
26.372797
30.571206
34.473976
38.043689
41.246096
44.050457
46.429838
48.36138
49.826522
50.81118
51.30589
56.341642
55.798267
54.716738
53.107455
50.985889
48.372437
45.292212
41.774808
37.854
33.567414
28.956154
24.064394
18.938943
13.628793
8.1846249
2.6583226
-2.8974792
-8.4298045
-13.88577
-19.212943
-24.359994
-29.277161
-33.91667
-38.233261
-42.184677
-45.732114
-48.840638
-51.479567
-53.622802
-55.249113
-56.342372
-56.891727
-56.891724
-56.342363
-55.2491
-53.622786
-51.479551
-48.840624
-45.732106
-42.184677
-38.23327
-33.916689
-29.27719
-24.360032
-19.212991
-13.885825
-8.4298672
-2.8975477
2.6582495
8.1845486
13.628714
18.938864
24.064316
28.956079
33.567343
37.853933
41.774746
45.292156
48.372387
50.985847
53.10742
54.716713
55.798252
56.341636
61.910792
61.313579
60.12489
58.35616
56.024397
53.152023
49.76665
45.900812
41.591646
36.880518
31.812614
26.436483
20.803557
14.967686
8.9845147
2.910913
-3.1954926
-9.2766698
-15.27453
-21.131373
-26.790942
-32.198482
-37.301334
-42.049593
-46.396642
-50.299654
-53.720059
-56.623972
-58.982562
-60.772373
-61.975581
-62.580196
-62.580191
-61.975568
-60.772353
-58.982538
-56.623946
-53.720036
-50.299637
-46.396636
-42.049598
-37.301352
-32.198513
-26.790985
-21.131427
-15.274593
-9.2767403
-3.1955697
2.9108305
8.9844283
14.967598
20.803468
26.436395
31.81253
36.880437
41.591571
45.900743
49.766587
53.151967
56.024349
58.35612
60.124861
61.313561
61.910786
68.06596
67.409261
66.102173
64.157267
61.593247
58.434771
54.712205
50.461334
45.723005
40.542725
34.970194
29.058793
22.865083
16.448349
9.8696679
3.1912618
-3.5237117
-10.211486
-16.808268
-23.251181
-29.478175
-35.428781
-41.044951
-46.271608
-51.057258
-55.354571
-59.120906
-62.318791
-64.916332
-66.887579
-68.212809
-68.878752
-68.878745
-68.21279
-66.88755
-64.916296
-62.318752
-59.120871
-55.354544
-51.057244
-46.271609
-41.044968
-35.428814
-29.478223
-23.251242
-16.808339
-10.211566
-3.5237989
3.1911683
9.8695698
16.448249
22.864982
29.058694
34.970099
40.542635
45.722921
50.461256
54.712134
58.434707
61.593192
64.157221
66.102139
67.40924
68.065953
74.865701
74.143353
72.705593
70.566244
67.745875
64.271597
60.17681
55.500874
50.288732
44.590463
38.460766
31.958394
25.14573
18.087843
10.851692
3.5055202
-3.8813978
-11.239245
-18.498308
-25.589501
-32.44437
-38.996296
-45.181152
-50.938045
-56.21001
-60.944662
-65.094793
-68.618904
-71.481667
-73.654326
-75.115023
-75.849053
-75.849043
-75.114996
-73.654284
-71.481614
-68.618848
-65.094741
-60.94462
-56.209984
-50.93804
-45.181169
-38.996334
-32.444425
-25.58957
-18.498389
-11.239335
-3.8814964
3.5054143
10.85158
18.087728
25.145614
31.958281
38.460658
44.590363
50.288639
55.500788
60.176731
64.271525
67.745811
70.566191
72.705552
74.143327
74.865692
82.375252
81.580539
79.998736
77.645036
74.542045
70.719566
66.214318
61.069586
55.334814
49.065123
42.320772
35.166554
27.670989
19.905418
11.943554
3.8607719
-4.2671388
-12.364485
-20.355286
-28.163225
-35.71292
-42.930764
-49.745787
-56.090557
-61.901945
-67.121885
-71.698031
-75.584356
-78.741665
-81.138047
-82.749232
-83.558891
-83.558878
-82.749194
-81.137987
-78.741591
-75.584276
-71.697955
-67.121823
-61.901906
-56.090545
-49.745805
-42.930808
-35.712985
-28.163305
-20.355378
-12.364587
-4.26725
3.8606519
11.943426
19.905286
27.670857
35.166425
42.320651
49.065012
55.334712
61.069492
66.21423
70.719485
74.541972
77.644973
79.998687
81.580508
82.375241
90.667296
89.792917
88.052528
85.462814
82.048605
77.842632
72.885233
67.223979
60.913237
54.013654
46.591589
38.718372
30.469504
21.923761
13.162413
4.2681888
-4.6765507
-13.589803
-22.38863
-30.989062
-39.3078
-47.263346
-54.776973
-61.773865
-68.183932
-73.942706
-78.992051
-83.280837
-86.765512
-89.410598
-91.189084
-92.082776
-92.082758
-91.18903
-89.410515
-86.765407
-83.280723
-78.991941
-73.942616
-68.183874
-61.773846
-54.776994
-47.2634
-39.30788
-30.989157
-22.388736
-13.589918
-4.6766754
4.2680532
13.162267
21.923608
30.46935
38.718224
46.591453
54.013532
60.913126
67.223877
72.885138
77.842541
82.04852
85.462738
88.052467
89.792877
90.667283
99.82279
98.860814
96.94604
94.09677
90.340249
85.712376
80.257418
74.027588
67.082619
59.48919
51.32038
42.654776
33.575812
24.170506
14.528569
4.7409936
-5.1029886
-14.91556
-24.60667
-34.083524
-43.253804
-52.027035
-60.315614
-68.036389
-75.111374
-81.468885
-87.044252
-91.780592
-95.629426
-98.551249
-100.51589
-101.50291
-101.50288
-100.51581
-98.551133
-95.629279
-91.78043
-87.044095
-81.468755
-75.111291
-68.036362
-60.315644
-52.027108
-43.253905
-34.083639
-24.606792
-14.915688
-5.1031266
4.7408416
14.528402
24.170327
33.575631
42.654603
51.320225
59.489057
67.082502
74.027483
80.257315
85.712274
90.340147
94.096675
96.945962
98.860762
99.822772
109.93166
108.87346
106.76713
103.63271
99.500066
94.408503
88.406518
81.551323
73.90847
65.551162
56.559916
47.021259
37.027623
26.675264
16.06352
5.2936409
-5.5384349
-16.341226
-27.017724
-37.46421
-47.577892
-57.258049
-66.406777
-74.931578
-82.745458
-89.768638
-95.929069
-101.16339
-105.41758
-108.64758
-110.8197
-111.91092
-111.91088
-110.8196
-108.64742
-105.41737
-101.16317
-95.928846
-89.768452
-82.745341
-74.931543
-66.406827
-57.258155
-47.578026
-37.46435
-27.017863
-16.341366
-5.5385843
5.2934731
16.06333
26.67505
37.027406
47.021053
56.55974
65.551023
73.908351
81.55122
88.406411
94.408389
99.499944
103.63259
106.76702
108.87339
109.93164
121.09089
119.92706
117.61046
114.16303
109.61749
104.01672
97.413811
89.871269
81.46095
72.262993
62.36622
51.865596
40.863984
29.467992
17.788122
5.9397889
-5.9750683
-17.8666
-29.631622
-41.151212
-52.310356
-62.99672
-73.100182
-82.518027
-91.152868
-98.915985
-105.72699
-111.51528
-116.22054
-119.79375
-122.19736
-123.40588
-123.40584
-122.19722
-119.79353
-116.22026
-111.51496
-105.72667
-98.915715
-91.152707
-82.517986
-73.100274
-62.996885
-52.310541
-41.151382
-29.631777
-17.866747
-5.9752241
5.9396088
17.787909
29.467731
40.863714
51.865339
62.366018
72.262855
81.460839
89.871182
97.413707
104.0166
109.61733
114.16287
117.61032
119.92696
121.09085
133.39715
132.11821
129.57103
125.78026
120.78178
114.62228
107.35977
99.062322
89.80864
79.68603
68.792714
57.23226
45.119908
32.573832
19.717857
6.6898649
-6.4033313
-19.486052
-32.453057
-45.16015
-57.477945
-69.281259
-80.444775
-90.855174
-100.4027
-108.98898
-116.52406
-122.9292
-128.13685
-132.09213
-134.75281
-136.09268
-136.09263
-134.75263
-132.09184
-128.13646
-122.92875
-116.52359
-108.98858
-100.40248
-90.855133
-80.444952
-69.281527
-57.478208
-45.160351
-32.453221
-19.486196
-6.4034854
6.6896819
19.717629
32.573507
45.119558
57.231924
68.792475
79.685908
89.808551
99.062279
107.35968
114.62214
120.78158
125.78003
129.57082
132.11806
133.3971
146.97368
145.56775
142.76804
138.60047
133.10485
126.3319
118.34495
109.21785
99.036684
87.895922
75.904544
63.174355
49.835499
36.018685
21.864441
7.5575687
-6.7912698
-21.164151
-35.464371
-49.491842
-63.102076
-76.154673
-88.503569
-100.02658
-110.59749
-120.10831
-128.4573
-135.5566
-141.32993
-145.71608
-148.66645
-150.14885
-150.14882
-148.66621
-145.71572
-141.32939
-135.55595
-128.45661
-120.1077
-110.5972
-100.02655
-88.50392
-76.155128
-63.102465
-49.492053
-35.464522
-21.164279
-6.7914122
7.5574052
21.864232
36.018273
49.835013
63.173879
75.904253
87.895841
99.036651
109.2179
118.3449
126.33176
133.10459
138.60014
142.76771
145.5675
146.9736
162.10707
160.56017
157.48055
152.89545
146.85068
139.39864
130.6106
120.56328
109.35519
97.079429
83.87025
69.828708
55.11955
39.880338
24.230512
8.5360075
-6.9464564
-21.53244
-34.97222
-46.999667
-57.608295
-66.819761
-74.655144
-81.218343
-86.598021
-90.923641
-94.319356
-96.914855
-98.82822
-100.16475
-101.00633
-101.40999
-101.41013
-101.00602
-100.16463
-98.827647
-96.914432
-94.318588
-90.923118
-86.597635
-81.218382
-74.655555
-66.820413
-57.608717
-46.999803
-34.972279
-21.532527
-6.9465787
8.5359002
24.230489
39.879691
55.118852
69.827906
83.869873
97.079578
109.35515
120.56364
130.61053
139.39856
146.8503
152.89494
157.48004
160.55972
162.10701
-101.21386
-100.81209
-99.974365
-98.64335
-96.737612
-94.1512
-90.766414
-86.452603
-81.086136
-74.537083
-66.716957
-57.522175
-46.931051
-34.922164
-21.500789
-6.9338521
8.5293876
24.204537
39.834661
55.055537
69.74633
83.770406
96.96234
109.222
120.41565
130.44979
139.22723
146.66991
152.7076
157.28677
160.36267
161.90763
161.90763
160.36239
157.28638
152.70693
146.66911
139.22633
130.44891
120.41531
109.22191
96.962984
83.771122
69.746896
55.055673
39.834761
24.204628
8.5295143
-6.9337477
-21.500768
-34.921595
-46.930454
-57.52151
-66.716729
-74.537189
-81.086259
-86.452829
-90.766537
-94.151085
-96.73752
-98.64292
-99.974176
-100.81169
-101.21395
-149.95189
-148.47138
-145.52482
-141.1442
-135.37841
-128.28812
-119.94989
-110.4509
-99.89316
-88.384478
-76.051098
-63.015321
-49.42282
-35.413969
-21.132642
-6.7790678
7.5502361
21.837524
35.972271
49.770178
63.090616
75.803092
87.777506
98.902379
109.06906
118.18322
126.15909
132.92271
138.41084
142.57261
145.36845
146.77245
146.77239
145.36824
142.57228
138.41037
132.92214
126.15849
118.1827
109.06879
98.902357
87.777794
75.803491
63.090967
49.770387
35.972421
21.837656
7.5503782
-6.7789062
-21.132436
-35.413524
-49.42231
-63.014805
-76.0508
-88.384443
-99.893143
-110.45103
-119.94984
-128.28801
-135.37813
-141.14382
-145.52445
-148.47107
-149.95182
-135.89189
-134.55389
-131.89706
-127.94747
-122.74737
-116.35143
-108.82721
-100.25315
-90.719203
-80.323633
-69.176148
-57.390014
-45.090333
-32.402146
-19.454468
-6.391457
6.6817996
19.689861
32.526064
45.052858
57.146457
68.688938
79.565135
89.671772
98.910848
107.19521
114.44641
120.59635
125.58712
129.372
131.91523
133.19213
133.19208
131.91507
129.37174
125.58678
120.59595
114.44601
107.19487
98.910656
89.671736
79.565289
68.689178
57.146701
45.053052
32.526225
19.690003
6.6819526
-6.3912743
-19.454237
-32.401806
-45.089969
-57.38966
-69.175907
-80.323529
-90.719134
-100.25314
-108.82713
-116.3513
-122.74716
-127.94722
-131.89682
-134.5537
-135.89183
-123.19927
-121.99271
-119.59304
-116.02568
-111.32814
-105.54931
-98.74946
-90.998998
-82.378239
-72.975791
-62.888947
-52.220311
-41.079828
-29.579673
-17.834592
-5.9633628
5.9310028
17.758849
29.418446
40.794615
51.776996
62.259193
72.138496
81.32016
89.715573
97.244753
103.83603
109.42695
113.96453
117.4059
119.71843
120.88021
120.88017
119.71831
117.40571
113.96428
109.42667
103.83575
97.244524
89.715435
81.320127
72.13858
62.259345
51.777171
40.79478
29.418598
17.758994
5.9311579
-5.963182
-17.834375
-29.579405
-41.07955
-52.220047
-62.888745
-72.975663
-82.378142
-90.998929
-98.749365
-105.54919
-111.32798
-116.02551
-119.59288
-121.99259
-123.19923
-111.69651
-110.60733
-108.43929
-105.21534
-100.96916
-95.744664
-89.59581
-82.585817
-74.786629
-66.277899
-57.146498
-47.48479
-37.390504
-26.964186
-16.308408
-5.5267019
5.2841163
16.032765
26.623519
36.955342
46.929081
56.448681
65.421898
73.762403
81.389879
88.231279
94.221209
99.302562
103.42693
106.55506
108.65717
109.71325
109.71322
108.65708
106.55492
103.42675
99.302365
94.221018
88.231122
81.389782
73.762378
65.421948
56.448783
46.92921
36.955478
26.623656
16.032904
5.2842656
-5.526533
-16.308215
-26.963968
-37.390282
-47.484581
-57.146325
-66.277767
-74.786521
-82.585725
-89.595709
-95.744552
-100.96903
-105.21522
-108.43918
-110.60725
-111.69648
-101.27863
-100.29375
-98.333375
-95.417894
-91.577419
-86.851369
-81.288125
-74.944448
-67.884883
-60.180981
-51.910585
-43.156693
-34.006729
-24.550977
-14.881551
-5.0910388
4.7307161
14.49611
24.116125
33.499989
42.558193
51.203924
59.35395
66.929883
73.858833
80.074287
85.516664
90.133867
93.881731
96.724433
98.634793
99.59455
99.594528
98.634728
96.724333
93.881604
90.133728
85.516531
80.074179
73.858766
66.929866
59.353984
51.203998
42.558293
33.500103
24.116247
14.496238
4.7308547
-5.0908857
-14.881382
-24.550796
-34.006546
-43.156519
-51.910433
-60.180853
-67.884773
-74.944349
-81.288027
-86.851268
-91.577316
-95.417795
-98.333292
-100.29369
-101.27861
-91.846487
-90.955052
-89.181057
-86.542652
-83.066787
-78.78885
-73.752292
-68.008121
-61.614338
-54.635266
-47.140838
-39.205698
-30.908385
-22.330197
-13.554219
-4.6642067
4.2571253
13.127999
21.866281
30.389471
38.616509
46.468838
53.87117
60.752378
67.046294
72.692444
77.636614
81.831362
85.23646
87.819261
89.555003
90.427046
90.42703
89.554956
87.819189
85.23637
81.831266
77.636523
72.692371
67.04625
60.752369
53.871197
46.468895
38.61659
30.389567
21.866388
13.128115
4.2572508
-4.66407
-13.554072
-22.330042
-30.90823
-39.205551
-47.140703
-54.635148
-61.614232
-68.008024
-73.7522
-78.78876
-83.066701
-86.542574
-89.180993
-90.95501
-91.846473
-83.308319
-82.501053
-80.894631
-78.505337
-75.357374
-71.482564
-66.919991
-61.715558
-55.921466
-49.595624
-42.800989
-35.604808
-28.077848
-20.293506
-12.326937
-4.2542308
3.848871
11.90691
19.844339
27.586019
35.058467
42.190579
48.914052
55.164305
60.881275
66.010024
70.501268
74.311861
77.4052
79.751578
81.328458
82.120697
82.120686
81.328425
79.751527
77.405138
74.311794
70.501206
66.009975
60.881247
55.164302
48.914076
42.190626
35.058534
27.586101
19.844433
11.907013
3.8489832
-4.2541097
-12.326809
-20.293373
-28.077715
-35.60468
-42.80087
-49.595515
-55.921367
-61.715467
-66.919906
-71.482484
-75.357301
-78.505274
-80.894581
-82.501021
-83.308308
-75.581783
-74.850307
-73.394692
-71.229596
-68.376807
-64.864986
-60.729346
-56.01125
-50.757754
-45.021072
-38.857984
-32.32918
-25.498573
-18.432554
-11.199341
-3.8677707
3.4926974
10.812499
18.022609
25.055035
31.843076
38.321908
44.429377
50.106951
55.30014
59.959058
64.038932
67.500549
70.310637
72.442184
73.8747
74.594413
74.594405
73.874677
72.442149
70.310594
67.500504
64.03889
59.959027
55.300124
50.106954
44.429399
38.32195
31.843134
25.055107
18.022691
10.81259
3.4927971
-3.8676638
-11.199229
-18.432439
-25.498458
-32.329068
-38.857878
-45.020974
-50.757664
-56.011166
-60.729269
-64.864916
-68.376744
-71.229543
-73.394651
-74.850281
-75.581774
-68.592207
-67.929003
-66.609225
-64.646091
-62.059249
-58.874549
-55.12376
-50.844212
-46.078378
-40.873405
-35.280588
-29.354784
-23.153811
-16.737893
-10.168821
-3.5092065
3.1774198
9.8275669
16.378349
22.767816
28.935162
34.821359
40.370092
45.52822
50.246262
54.478917
58.185517
61.330439
63.883449
65.820002
67.121475
67.775353
67.775347
67.121459
65.819978
63.88342
61.330409
58.18549
54.478898
50.246255
45.528227
40.370115
34.821397
28.935213
22.767879
16.378422
9.827648
3.1775081
-3.5091121
-10.168723
-16.737792
-23.15371
-29.354686
-35.280494
-40.873317
-46.078296
-50.844136
-55.123691
-58.874487
-62.059194
-64.646046
-66.609191
-67.928981
-68.592199
-62.27161
-61.669948
-60.472614
-58.691545
-56.344484
-53.454778
-50.051126
-46.167258
-41.841563
-37.11667
-32.038979
-26.658159
-21.026617
-15.198845
-9.2308193
-3.1799641
2.8959263
8.9391134
14.892264
20.6988
26.303364
31.652383
36.694693
41.381998
45.669349
49.515597
52.883801
55.741599
58.061522
59.821268
61.003918
61.598098
61.598094
61.003907
59.821252
58.061503
55.74158
52.883785
49.515588
45.669349
41.382008
36.694715
31.652418
26.303409
20.698856
14.892329
8.9391855
2.8960046
-3.1798807
-9.2307324
-15.198756
-21.026529
-26.658072
-32.038895
-37.116591
-41.841489
-46.16719
-50.051064
-53.454723
-56.344436
-58.691506
-60.472585
-61.66993
-62.271604
-56.55812
-56.011959
-54.925056
-53.308202
-51.177439
-48.55388
-45.463479
-41.93675
-38.008433
-33.717115
-29.104818
-24.216545
-19.099798
-13.804053
-8.3803399
-2.8807849
2.6420428
8.1354845
13.547222
18.825687
23.920508
28.782993
33.366618
37.627484
41.524742
45.020998
48.082689
50.680406
52.78919
54.388776
55.463786
56.003886
56.003883
55.463779
54.388766
52.789179
50.680395
48.082681
45.020995
41.524746
37.627497
33.366641
28.783025
23.92055
18.825737
13.54728
8.1355487