/*--------------------------------*- C++ -*----------------------------------*\
| =========                 |                                                 |
| \\      /  F ield         | OpenFOAM: The Open Source CFD Toolbox           |
|  \\    /   O peration     | Version:  2106                                  |
|   \\  /    A nd           | Website:  www.openfoam.com                      |
|    \\/     M anipulation  |                                                 |
\*---------------------------------------------------------------------------*/
FoamFile
{
    version     2.0;
    format      ascii;
    arch        "LSB;label=32;scalar=64";
    class       volVectorField;
    location    "0.024";
    object      U;
}
// * * * * * * * * * * * * * * * * * * * * * * * * * * * * * * * * * * * * * //

dimensions      [0 1 -1 0 0 0 0];

internalField   nonuniform List<vector> 
4096
(
(-0.0014417718 0.0014413824 0)
(-0.0043128963 0.0014289459 0)
(-0.0071468199 0.0014041296 0)
(-0.0099189306 0.0013670498 0)
(-0.012604908 0.0013178884 0)
(-0.015180857 0.0012569011 0)
(-0.01762347 0.0011844251 0)
(-0.019910197 0.0011008887 0)
(-0.02201943 0.0010068198 0)
(-0.02393072 0.00090285268 0)
(-0.025624982 0.000789733 0)
(-0.027084733 0.00066831911 0)
(-0.02829432 0.00053957866 0)
(-0.029240123 0.00040458609 0)
(-0.02991077 0.00026451432 0)
(-0.030297323 0.00012062734 0)
(-0.030393466 -2.572235e-05 0)
(-0.030195621 -0.00017313999 0)
(-0.02970307 -0.00032016061 0)
(-0.028918079 -0.00046528826 0)
(-0.027845924 -0.00060699817 0)
(-0.026494936 -0.00074376257 0)
(-0.024876505 -0.00087406273 0)
(-0.023005032 -0.00099641084 0)
(-0.020897846 -0.0011093711 0)
(-0.018575087 -0.0012115821 0)
(-0.016059532 -0.0013017806 0)
(-0.01337638 -0.0013788258 0)
(-0.010552975 -0.0014417236 0)
(-0.0076184896 -0.0014896476 0)
(-0.0046035727 -0.0015219602 0)
(-0.0015399594 -0.0015382266 0)
(0.0015399594 -0.0015382266 0)
(0.0046035727 -0.0015219602 0)
(0.0076184896 -0.0014896476 0)
(0.010552975 -0.0014417236 0)
(0.01337638 -0.0013788258 0)
(0.016059532 -0.0013017806 0)
(0.018575087 -0.0012115821 0)
(0.020897846 -0.0011093711 0)
(0.023005032 -0.00099641083 0)
(0.024876505 -0.00087406273 0)
(0.026494936 -0.00074376257 0)
(0.027845924 -0.00060699817 0)
(0.028918079 -0.00046528826 0)
(0.02970307 -0.00032016061 0)
(0.030195621 -0.00017313999 0)
(0.030393466 -2.572235e-05 0)
(0.030297323 0.00012062735 0)
(0.02991077 0.00026451432 0)
(0.029240123 0.00040458609 0)
(0.02829432 0.00053957866 0)
(0.027084733 0.00066831911 0)
(0.025624982 0.000789733 0)
(0.02393072 0.00090285268 0)
(0.02201943 0.0010068198 0)
(0.019910197 0.0011008887 0)
(0.01762347 0.0011844251 0)
(0.015180857 0.0012569011 0)
(0.012604908 0.0013178884 0)
(0.0099189306 0.0013670498 0)
(0.0071468199 0.0014041296 0)
(0.0043128963 0.0014289459 0)
(0.0014417718 0.0014413824 0)
(-0.0014313396 0.0043178702 0)
(-0.0042817424 0.0042806557 0)
(-0.0070953681 0.0042063936 0)
(-0.0098478751 0.0040954279 0)
(-0.012515194 0.0039482958 0)
(-0.015073659 0.0037657542 0)
(-0.017500162 0.0035488043 0)
(-0.019772322 0.0032987201 0)
(-0.02186867 0.0030170737 0)
(-0.023768867 0.0027057563 0)
(-0.025453909 0.0023669953 0)
(-0.026906367 0.0020033579 0)
(-0.028110621 0.0016177391 0)
(-0.029053054 0.0012133547 0)
(-0.029722285 0.00079372294 0)
(-0.03010935 0.00036262521 0)
(-0.030207858 -7.5911402e-05 0)
(-0.030014168 -0.00051767384 0)
(-0.029527487 -0.00095828836 0)
(-0.028749952 -0.0013932664 0)
(-0.027686708 -0.0018180404 0)
(-0.026345941 -0.0022280303 0)
(-0.024738881 -0.002618681 0)
(-0.022879769 -0.0029855284 0)
(-0.020785772 -0.0033242618 0)
(-0.018476874 -0.0036307912 0)
(-0.015975709 -0.00390132 0)
(-0.013307348 -0.0041324181 0)
(-0.010499026 -0.004321094 0)
(-0.0075798268 -0.0044648615 0)
(-0.0045803269 -0.0045618002 0)
(-0.0015322032 -0.0046106012 0)
(0.0015322032 -0.0046106012 0)
(0.0045803269 -0.0045618002 0)
(0.0075798268 -0.0044648615 0)
(0.010499026 -0.004321094 0)
(0.013307348 -0.0041324181 0)
(0.015975709 -0.00390132 0)
(0.018476874 -0.0036307912 0)
(0.020785772 -0.0033242618 0)
(0.022879769 -0.0029855284 0)
(0.024738881 -0.002618681 0)
(0.026345941 -0.0022280303 0)
(0.027686708 -0.0018180404 0)
(0.028749952 -0.0013932664 0)
(0.029527487 -0.00095828836 0)
(0.030014168 -0.00051767384 0)
(0.030207858 -7.5911401e-05 0)
(0.03010935 0.00036262521 0)
(0.029722285 0.00079372294 0)
(0.029053054 0.0012133547 0)
(0.028110621 0.0016177391 0)
(0.026906367 0.0020033579 0)
(0.025453909 0.0023669953 0)
(0.023768867 0.0027057563 0)
(0.02186867 0.0030170737 0)
(0.019772322 0.0032987201 0)
(0.017500162 0.0035488043 0)
(0.015073659 0.0037657542 0)
(0.012515194 0.0039482958 0)
(0.0098478751 0.0040954279 0)
(0.0070953681 0.0042063936 0)
(0.0042817424 0.0042806557 0)
(0.0014313396 0.0043178702 0)
(-0.0014066384 0.0071581699 0)
(-0.0042079322 0.0070966329 0)
(-0.0069733231 0.0069738264 0)
(-0.0096790319 0.0067903005 0)
(-0.012301521 0.0065469174 0)
(-0.014817616 0.0062448978 0)
(-0.017204656 0.0058858657 0)
(-0.019440653 0.0054718961 0)
(-0.021504483 0.0050055606 0)
(-0.023376095 0.0044899639 0)
(-0.025036723 0.0039287723 0)
(-0.026469131 0.003326225 0)
(-0.027657842 0.0026871073 0)
(-0.028589338 0.0020167398 0)
(-0.029252292 0.001320953 0)
(-0.029637751 0.00060601137 0)
(-0.029739289 -0.00012141521 0)
(-0.029553177 -0.00085434861 0)
(-0.029078483 -0.0015855228 0)
(-0.028317161 -0.0023074961 0)
(-0.02727412 -0.0030126911 0)
(-0.025957268 -0.0036935011 0)
(-0.024377514 -0.0043423542 0)
(-0.022548754 -0.0049518223 0)
(-0.020487795 -0.0055147211 0)
(-0.01821425 -0.0060242249 0)
(-0.015750389 -0.0064739906 0)
(-0.013120932 -0.0068582792 0)
(-0.010352781 -0.0071720801 0)
(-0.0074747053 -0.0074112246 0)
(-0.0045169937 -0.0075724904 0)
(-0.0015110491 -0.0076536801 0)
(0.0015110491 -0.0076536801 0)
(0.0045169937 -0.0075724904 0)
(0.0074747053 -0.0074112246 0)
(0.010352781 -0.0071720801 0)
(0.013120932 -0.0068582792 0)
(0.015750389 -0.0064739906 0)
(0.01821425 -0.0060242249 0)
(0.020487795 -0.0055147211 0)
(0.022548754 -0.0049518223 0)
(0.024377514 -0.0043423542 0)
(0.025957268 -0.0036935011 0)
(0.02727412 -0.0030126911 0)
(0.028317161 -0.0023074961 0)
(0.029078483 -0.0015855228 0)
(0.029553177 -0.00085434861 0)
(0.029739289 -0.00012141521 0)
(0.029637751 0.00060601137 0)
(0.029252292 0.001320953 0)
(0.028589338 0.0020167398 0)
(0.027657842 0.0026871073 0)
(0.026469131 0.003326225 0)
(0.025036723 0.0039287723 0)
(0.023376095 0.0044899639 0)
(0.021504483 0.0050055606 0)
(0.019440653 0.0054718961 0)
(0.017204656 0.0058858657 0)
(0.014817616 0.0062448978 0)
(0.012301521 0.0065469174 0)
(0.0096790319 0.0067903005 0)
(0.0069733231 0.0069738264 0)
(0.0042079322 0.0070966329 0)
(0.0014066384 0.0071581699 0)
(-0.0013686093 0.0099360928 0)
(-0.0040942814 0.0098509587 0)
(-0.0067853524 0.0096810434 0)
(-0.0094188841 0.0094270746 0)
(-0.011972134 0.0090901964 0)
(-0.014422667 0.0086720415 0)
(-0.016748496 0.0081747982 0)
(-0.018928238 0.0076012808 0)
(-0.020941297 0.0069549966 0)
(-0.022768075 0.006240202 0)
(-0.024390186 0.005461941 0)
(-0.025790706 0.0046260682 0)
(-0.026954415 0.003739203 0)
(-0.027867968 0.0028087154 0)
(-0.028520159 0.0018426922 0)
(-0.028902087 0.00084982136 0)
(-0.029007309 -0.0001606414 0)
(-0.028831999 -0.0011790055 0)
(-0.028375053 -0.0021951907 0)
(-0.027638169 -0.0031988667 0)
(-0.026625924 -0.0041795047 0)
(-0.025345817 -0.0051265264 0)
(-0.02380828 -0.0060293848 0)
(-0.022026692 -0.0068777217 0)
(-0.020017298 -0.0076614983 0)
(-0.017799139 -0.0083711558 0)
(-0.01539391 -0.0089977989 0)
(-0.012825764 -0.0095333644 0)
(-0.010121063 -0.0099707999 0)
(-0.0073080611 -0.01030423 0)
(-0.00441656 -0.010529109 0)
(-0.0014774972 -0.010642336 0)
(0.0014774972 -0.010642336 0)
(0.00441656 -0.010529109 0)
(0.0073080611 -0.01030423 0)
(0.010121063 -0.0099707999 0)
(0.012825764 -0.0095333644 0)
(0.01539391 -0.0089977989 0)
(0.017799139 -0.0083711558 0)
(0.020017298 -0.0076614983 0)
(0.022026692 -0.0068777217 0)
(0.02380828 -0.0060293848 0)
(0.025345817 -0.0051265264 0)
(0.026625924 -0.0041795047 0)
(0.027638169 -0.0031988667 0)
(0.028375053 -0.0021951907 0)
(0.028831999 -0.0011790055 0)
(0.029007309 -0.0001606414 0)
(0.028902087 0.00084982136 0)
(0.028520159 0.0018426922 0)
(0.027867968 0.0028087154 0)
(0.026954415 0.003739203 0)
(0.025790706 0.0046260682 0)
(0.024390186 0.005461941 0)
(0.022768075 0.006240202 0)
(0.020941297 0.0069549966 0)
(0.018928238 0.0076012808 0)
(0.016748496 0.0081747982 0)
(0.014422667 0.0086720415 0)
(0.011972134 0.0090901964 0)
(0.0094188841 0.0094270746 0)
(0.0067853524 0.0096810434 0)
(0.0040942814 0.0098509587 0)
(0.0013686093 0.0099360928 0)
(-0.0013168188 0.012625115 0)
(-0.0039394957 0.012517395 0)
(-0.006529318 0.012302372 0)
(-0.0090644772 0.011980912 0)
(-0.0115233 0.011554385 0)
(-0.013884342 0.011024765 0)
(-0.016126527 0.010394726 0)
(-0.018229287 0.009667737 0)
(-0.020172745 0.008848156 0)
(-0.021937923 0.0079413084 0)
(-0.023506948 0.006953534 0)
(-0.024863342 0.0058922279 0)
(-0.025992247 0.0047657685 0)
(-0.026880577 0.0035835013 0)
(-0.027517315 0.0023556936 0)
(-0.027893664 0.0010933801 0)
(-0.028003183 -0.00019168351 0)
(-0.027841952 -0.00148719 0)
(-0.027408663 -0.002780336 0)
(-0.026704693 -0.0040579989 0)
(-0.025734181 -0.0053067909 0)
(-0.024504087 -0.0065132476 0)
(-0.023024205 -0.0076639148 0)
(-0.021307205 -0.0087455561 0)
(-0.019368562 -0.0097453135 0)
(-0.017226525 -0.010650905 0)
(-0.014901993 -0.011450882 0)
(-0.012418329 -0.012134838 0)
(-0.0098011319 -0.012693652 0)
(-0.0070779342 -0.013119711 0)
(-0.0042778495 -0.013407118 0)
(-0.0014311555 -0.013551844 0)
(0.0014311555 -0.013551844 0)
(0.0042778495 -0.013407118 0)
(0.0070779342 -0.013119711 0)
(0.0098011319 -0.012693652 0)
(0.012418329 -0.012134838 0)
(0.014901993 -0.011450882 0)
(0.017226525 -0.010650905 0)
(0.019368562 -0.0097453135 0)
(0.021307205 -0.0087455561 0)
(0.023024205 -0.0076639148 0)
(0.024504087 -0.0065132476 0)
(0.025734181 -0.0053067909 0)
(0.026704693 -0.0040579989 0)
(0.027408663 -0.002780336 0)
(0.027841952 -0.00148719 0)
(0.028003183 -0.00019168351 0)
(0.027893664 0.0010933801 0)
(0.027517315 0.0023556936 0)
(0.026880577 0.0035835013 0)
(0.025992247 0.0047657685 0)
(0.024863342 0.0058922279 0)
(0.023506948 0.006953534 0)
(0.021937923 0.0079413084 0)
(0.020172745 0.008848156 0)
(0.018229287 0.009667737 0)
(0.016126527 0.010394726 0)
(0.013884342 0.011024765 0)
(0.0115233 0.011554385 0)
(0.0090644772 0.011980912 0)
(0.006529318 0.012302372 0)
(0.0039394957 0.012517395 0)
(0.0013168188 0.012625115 0)
(-0.0012495841 0.015196645 0)
(-0.0037385455 0.015067662 0)
(-0.0061968974 0.014810147 0)
(-0.008604283 0.014425055 0)
(-0.010940404 0.013913905 0)
(-0.013185091 0.013278928 0)
(-0.015318438 0.012523175 0)
(-0.017320928 0.011650666 0)
(-0.01917361 0.010666496 0)
(-0.020858307 0.0095769565 0)
(-0.022357821 0.0083895786 0)
(-0.023656251 0.007113204 0)
(-0.02473923 0.0057578764 0)
(-0.025594026 0.0043348274 0)
(-0.026209894 0.0028564056 0)
(-0.0265782 0.0013358985 0)
(-0.02669255 -0.00021255238 0)
(-0.026548935 -0.0017741507 0)
(-0.026145815 -0.0033334925 0)
(-0.025484183 -0.0048747966 0)
(-0.024567636 -0.0063819432 0)
(-0.023402444 -0.0078387031 0)
(-0.021997576 -0.0092288132 0)
(-0.020364786 -0.010536234 0)
(-0.018518534 -0.01174534 0)
(-0.016476026 -0.012841147 0)
(-0.014257107 -0.013809649 0)
(-0.011884094 -0.014638076 0)
(-0.0093815713 -0.015315204 0)
(-0.00677611 -0.015831639 0)
(-0.00409591 -0.016180097 0)
(-0.0013703693 -0.016355593 0)
(0.0013703693 -0.016355593 0)
(0.00409591 -0.016180097 0)
(0.00677611 -0.015831639 0)
(0.0093815713 -0.015315204 0)
(0.011884094 -0.014638076 0)
(0.014257107 -0.013809649 0)
(0.016476026 -0.012841147 0)
(0.018518534 -0.01174534 0)
(0.020364786 -0.010536234 0)
(0.021997576 -0.0092288132 0)
(0.023402444 -0.0078387031 0)
(0.024567636 -0.0063819432 0)
(0.025484183 -0.0048747966 0)
(0.026145815 -0.0033334925 0)
(0.026548935 -0.0017741507 0)
(0.02669255 -0.00021255238 0)
(0.0265782 0.0013358985 0)
(0.026209894 0.0028564056 0)
(0.025594026 0.0043348274 0)
(0.02473923 0.0057578764 0)
(0.023656251 0.007113204 0)
(0.022357821 0.0083895786 0)
(0.020858307 0.0095769565 0)
(0.01917361 0.010666496 0)
(0.017320928 0.011650666 0)
(0.015318438 0.012523175 0)
(0.013185091 0.013278928 0)
(0.010940404 0.013913905 0)
(0.008604283 0.014425055 0)
(0.0061968974 0.014810147 0)
(0.0037385455 0.015067662 0)
(0.0012495841 0.015196645 0)
(-0.0011641502 0.017617633 0)
(-0.0034831953 0.017469065 0)
(-0.00577446 0.017172382 0)
(-0.0080194181 0.016728562 0)
(-0.010199503 0.016139176 0)
(-0.012296153 0.015406597 0)
(-0.014290938 0.014534124 0)
(-0.016165664 0.013526195 0)
(-0.017902549 0.0123885 0)
(-0.019484429 0.011128164 0)
(-0.020894957 0.0097537889 0)
(-0.022118974 0.0082755462 0)
(-0.023142745 0.0067050262 0)
(-0.023954015 0.0050552513 0)
(-0.024542409 0.0033405142 0)
(-0.024899536 0.0015762547 0)
(-0.025019119 -0.00022115138 0)
(-0.024897074 -0.0020345715 0)
(-0.024531612 -0.0038461695 0)
(-0.023923276 -0.0056376855 0)
(-0.023075009 -0.0073904354 0)
(-0.021992224 -0.009085591 0)
(-0.020682848 -0.010704215 0)
(-0.019157466 -0.012227579 0)
(-0.017429239 -0.013637347 0)
(-0.015514022 -0.014915876 0)
(-0.013430303 -0.016046605 0)
(-0.011199035 -0.017014366 0)
(-0.0088434885 -0.017805787 0)
(-0.0063889852 -0.018409647 0)
(-0.0038625364 -0.01881722 0)
(-0.0012923967 -0.019022527 0)
(0.0012923967 -0.019022527 0)
(0.0038625364 -0.01881722 0)
(0.0063889852 -0.018409647 0)
(0.0088434885 -0.017805787 0)
(0.011199035 -0.017014366 0)
(0.013430303 -0.016046605 0)
(0.015514022 -0.014915876 0)
(0.017429239 -0.013637347 0)
(0.019157466 -0.012227579 0)
(0.020682848 -0.010704215 0)
(0.021992224 -0.009085591 0)
(0.023075009 -0.0073904354 0)
(0.023923276 -0.0056376855 0)
(0.024531612 -0.0038461695 0)
(0.024897074 -0.0020345715 0)
(0.025019119 -0.00022115138 0)
(0.024899536 0.0015762547 0)
(0.024542409 0.0033405142 0)
(0.023954015 0.0050552513 0)
(0.023142745 0.0067050262 0)
(0.022118974 0.0082755462 0)
(0.020894957 0.0097537889 0)
(0.019484429 0.011128164 0)
(0.017902549 0.0123885 0)
(0.016165664 0.013526195 0)
(0.014290938 0.014534124 0)
(0.012296153 0.015406597 0)
(0.010199503 0.016139176 0)
(0.0080194181 0.016728562 0)
(0.00577446 0.017172382 0)
(0.0034831953 0.017469065 0)
(0.0011641502 0.017617633 0)
(-0.0010569572 0.019848567 0)
(-0.0031628022 0.019682517 0)
(-0.0052443907 0.019350829 0)
(-0.0072854821 0.01885443 0)
(-0.0092696689 0.018194809 0)
(-0.011180389 0.017374337 0)
(-0.013001043 0.016396415 0)
(-0.014715094 0.015265716 0)
(-0.016306209 0.013988358 0)
(-0.017758481 0.012572136 0)
(-0.019056626 0.011026547 0)
(-0.020186419 0.009362993 0)
(-0.02113492 0.0075944622 0)
(-0.021890504 0.0057356463 0)
(-0.02244328 0.0038026012 0)
(-0.022785204 0.0018128529 0)
(-0.022910217 -0.0002152181 0)
(-0.022814191 -0.0022623327 0)
(-0.02249509 -0.0043084193 0)
(-0.021952948 -0.0063329781 0)
(-0.021189925 -0.0083149909 0)
(-0.020210394 -0.010233251 0)
(-0.019020984 -0.012066334 0)
(-0.017630811 -0.01379297 0)
(-0.016051384 -0.015392199 0)
(-0.014296855 -0.016843774 0)
(-0.012383965 -0.018128598 0)
(-0.010331922 -0.019229066 0)
(-0.008162315 -0.020129592 0)
(-0.0058988636 -0.020817061 0)
(-0.0035670529 -0.021281248 0)
(-0.001193669 -0.02151513 0)
(0.001193669 -0.02151513 0)
(0.0035670529 -0.021281248 0)
(0.0058988636 -0.020817061 0)
(0.008162315 -0.020129592 0)
(0.010331922 -0.019229066 0)
(0.012383965 -0.018128598 0)
(0.014296855 -0.016843774 0)
(0.016051384 -0.015392199 0)
(0.017630811 -0.01379297 0)
(0.019020984 -0.012066334 0)
(0.020210394 -0.010233251 0)
(0.021189925 -0.0083149909 0)
(0.021952948 -0.0063329781 0)
(0.02249509 -0.0043084193 0)
(0.022814191 -0.0022623327 0)
(0.022910217 -0.00021521809 0)
(0.022785204 0.0018128529 0)
(0.02244328 0.0038026012 0)
(0.021890504 0.0057356463 0)
(0.02113492 0.0075944622 0)
(0.020186419 0.009362993 0)
(0.019056626 0.011026547 0)
(0.017758481 0.012572136 0)
(0.016306209 0.013988358 0)
(0.014715094 0.015265716 0)
(0.013001043 0.016396415 0)
(0.011180389 0.017374337 0)
(0.0092696689 0.018194809 0)
(0.0072854821 0.01885443 0)
(0.0052443907 0.019350829 0)
(0.0031628022 0.019682517 0)
(0.0010569572 0.019848567 0)
(-0.0009240597 0.02184219 0)
(-0.0027655726 0.021661264 0)
(-0.0045871702 0.021299737 0)
(-0.0063754453 0.020758379 0)
(-0.0081166577 0.020038448 0)
(-0.0097966844 0.019142119 0)
(-0.011401194 0.018072736 0)
(-0.012915691 0.016834973 0)
(-0.014325617 0.015435153 0)
(-0.015616622 0.013881533 0)
(-0.016774689 0.012184287 0)
(-0.017786733 0.010355945 0)
(-0.018640826 0.0084107317 0)
(-0.019326174 0.0063648538 0)
(-0.01983344 0.0042358878 0)
(-0.020155074 0.0020434592 0)
(-0.020285438 -0.00019235737 0)
(-0.020220351 -0.0024503958 0)
(-0.01995756 -0.0047086008 0)
(-0.019496564 -0.0069445008 0)
(-0.018838614 -0.0091350769 0)
(-0.017986829 -0.011257028 0)
(-0.016946248 -0.013286713 0)
(-0.015724152 -0.015200467 0)
(-0.014329993 -0.016974887 0)
(-0.012775806 -0.018587172 0)
(-0.01107611 -0.020015703 0)
(-0.009247888 -0.021240405 0)
(-0.0073106091 -0.022243408 0)
(-0.0052859734 -0.023009611 0)
(-0.0031975288 -0.023527216 0)
(-0.0010701975 -0.023788087 0)
(0.0010701975 -0.023788087 0)
(0.0031975288 -0.023527216 0)
(0.0052859734 -0.023009611 0)
(0.0073106091 -0.022243408 0)
(0.009247888 -0.021240405 0)
(0.01107611 -0.020015703 0)
(0.012775806 -0.018587172 0)
(0.014329993 -0.016974887 0)
(0.015724152 -0.015200467 0)
(0.016946248 -0.013286713 0)
(0.017986829 -0.011257028 0)
(0.018838614 -0.0091350769 0)
(0.019496564 -0.0069445008 0)
(0.01995756 -0.0047086008 0)
(0.020220351 -0.0024503958 0)
(0.020285438 -0.00019235737 0)
(0.020155074 0.0020434592 0)
(0.01983344 0.0042358878 0)
(0.019326174 0.0063648538 0)
(0.018640826 0.0084107317 0)
(0.017786733 0.010355945 0)
(0.016774689 0.012184287 0)
(0.015616622 0.013881533 0)
(0.014325617 0.015435153 0)
(0.012915691 0.016834973 0)
(0.011401194 0.018072736 0)
(0.0097966844 0.019142119 0)
(0.0081166577 0.020038448 0)
(0.0063754453 0.020758379 0)
(0.0045871702 0.021299737 0)
(0.0027655726 0.021661264 0)
(0.0009240597 0.02184219 0)
(-0.00076177746 0.023543219 0)
(-0.0022805023 0.023350605 0)
(-0.0037845947 0.022965598 0)
(-0.0052641105 0.022388634 0)
(-0.0067085733 0.021620633 0)
(-0.0081067771 0.020663218 0)
(-0.0094471493 0.019519513 0)
(-0.010717723 0.018193952 0)
(-0.011906061 0.016692706 0)
(-0.0129997 0.015024257 0)
(-0.01398607 0.013199416 0)
(-0.01485343 0.011231421 0)
(-0.015591126 0.009135584 0)
(-0.016189457 0.0069295798 0)
(-0.016639616 0.004632192 0)
(-0.016934717 0.0022651371 0)
(-0.017069926 -0.00015006473 0)
(-0.017040981 -0.0025908354 0)
(-0.016845434 -0.0050334619 0)
(-0.016482277 -0.0074536719 0)
(-0.015951763 -0.0098268969 0)
(-0.015255528 -0.012128264 0)
(-0.014396653 -0.014332083 0)
(-0.013380202 -0.016412639 0)
(-0.012213124 -0.018344309 0)
(-0.01090479 -0.020101765 0)
(-0.0094669848 -0.021660912 0)
(-0.0079139067 -0.022999156 0)
(-0.0062623782 -0.024096281 0)
(-0.0045315837 -0.024935083 0)
(-0.0027426579 -0.025502074 0)
(-0.00091820185 -0.025787944 0)
(0.00091820186 -0.025787944 0)
(0.0027426579 -0.025502074 0)
(0.0045315837 -0.024935083 0)
(0.0062623782 -0.024096281 0)
(0.0079139068 -0.022999156 0)
(0.0094669848 -0.021660912 0)
(0.01090479 -0.020101765 0)
(0.012213124 -0.018344309 0)
(0.013380202 -0.016412639 0)
(0.014396653 -0.014332083 0)
(0.015255528 -0.012128264 0)
(0.015951763 -0.0098268969 0)
(0.016482277 -0.0074536719 0)
(0.016845434 -0.0050334619 0)
(0.017040981 -0.0025908354 0)
(0.017069926 -0.00015006473 0)
(0.016934717 0.0022651371 0)
(0.016639616 0.004632192 0)
(0.016189457 0.0069295798 0)
(0.015591126 0.009135584 0)
(0.01485343 0.011231421 0)
(0.01398607 0.013199416 0)
(0.0129997 0.015024257 0)
(0.011906061 0.016692706 0)
(0.010717723 0.018193952 0)
(0.0094471493 0.019519513 0)
(0.0081067771 0.020663218 0)
(0.0067085733 0.021620633 0)
(0.0052641105 0.022388634 0)
(0.0037845947 0.022965598 0)
(0.0022805023 0.023350605 0)
(0.00076177746 0.023543219 0)
(-0.00056766404 0.024889613 0)
(-0.0017002402 0.024689189 0)
(-0.0028245096 0.024288433 0)
(-0.0039346599 0.023687169 0)
(-0.0050241959 0.022885903 0)
(-0.0060853775 0.021885323 0)
(-0.0071097675 0.020687997 0)
(-0.008088571 0.019297882 0)
(-0.0090118581 0.017720559 0)
(-0.0098691029 0.015964462 0)
(-0.010649617 0.014041149 0)
(-0.011343355 0.011963661 0)
(-0.011940806 0.0097483243 0)
(-0.012433737 0.007414555 0)
(-0.012813893 0.004982064 0)
(-0.013075127 0.0024741216 0)
(-0.01321407 -8.6346049e-05 0)
(-0.01322644 -0.0026753309 0)
(-0.013109336 -0.0052684852 0)
(-0.012861377 -0.00784009 0)
(-0.012482085 -0.010364131 0)
(-0.011971183 -0.012815017 0)
(-0.011329391 -0.015165105 0)
(-0.010559309 -0.017387532 0)
(-0.0096647104 -0.019454187 0)
(-0.0086517402 -0.021337535 0)
(-0.0075288872 -0.023011185 0)
(-0.006306946 -0.024449751 0)
(-0.0049995018 -0.025630694 0)
(-0.0036226349 -0.026534509 0)
(-0.0021945584 -0.027145861 0)
(-0.00073504985 -0.027454264 0)
(0.00073504986 -0.027454264 0)
(0.0021945584 -0.027145861 0)
(0.0036226349 -0.026534509 0)
(0.0049995018 -0.025630694 0)
(0.006306946 -0.024449751 0)
(0.0075288872 -0.023011185 0)
(0.0086517402 -0.021337535 0)
(0.0096647104 -0.019454187 0)
(0.010559309 -0.017387532 0)
(0.011329391 -0.015165105 0)
(0.011971183 -0.012815017 0)
(0.012482085 -0.010364131 0)
(0.012861377 -0.00784009 0)
(0.013109336 -0.0052684852 0)
(0.01322644 -0.0026753309 0)
(0.01321407 -8.6346045e-05 0)
(0.013075127 0.0024741216 0)
(0.012813893 0.004982064 0)
(0.012433737 0.007414555 0)
(0.011940806 0.0097483243 0)
(0.011343355 0.011963661 0)
(0.010649617 0.014041149 0)
(0.0098691029 0.015964462 0)
(0.0090118581 0.017720559 0)
(0.008088571 0.019297882 0)
(0.0071097675 0.020687997 0)
(0.0060853775 0.021885323 0)
(0.0050241958 0.022885903 0)
(0.0039346599 0.023687169 0)
(0.0028245096 0.024288433 0)
(0.0017002402 0.024689189 0)
(0.00056766404 0.024889613 0)
(-0.00034182762 0.025816132 0)
(-0.0010251145 0.025612632 0)
(-0.00170756 0.025205266 0)
(-0.0023881002 0.024593024 0)
(-0.0030648832 0.02377582 0)
(-0.0037343408 0.022753517 0)
(-0.0043914985 0.021527198 0)
(-0.0050313238 0.020099826 0)
(-0.0056467812 0.018476574 0)
(-0.0062290624 0.016665329 0)
(-0.0067701695 0.014677397 0)
(-0.007262132 0.012525611 0)
(-0.007695636 0.010227006 0)
(-0.008064347 0.0078033407 0)
(-0.0083612994 0.0052752333 0)
(-0.0085809775 0.0026659958 0)
(-0.0087212694 3.1752502e-07 0)
(-0.0087788276 -0.0026964061 0)
(-0.0087507121 -0.0053989527 0)
(-0.0086343378 -0.0080828735 0)
(-0.0084290093 -0.010719829 0)
(-0.0081324277 -0.013283694 0)
(-0.0077427737 -0.01574672 0)
(-0.0072595921 -0.018081086 0)
(-0.0066825903 -0.020255729 0)
(-0.0060147078 -0.022241721 0)
(-0.0052601129 -0.024010496 0)
(-0.004425515 -0.025533352 0)
(-0.0035207959 -0.026785721 0)
(-0.0025581999 -0.027745446 0)
(-0.0015526437 -0.028395051 0)
(-0.00052055524 -0.02872301 0)
(0.00052055524 -0.02872301 0)
(0.0015526437 -0.028395051 0)
(0.0025581999 -0.027745446 0)
(0.0035207959 -0.026785721 0)
(0.0044255151 -0.025533352 0)
(0.0052601129 -0.024010496 0)
(0.0060147078 -0.022241721 0)
(0.0066825903 -0.020255729 0)
(0.0072595921 -0.018081086 0)
(0.0077427737 -0.01574672 0)
(0.0081324277 -0.013283694 0)
(0.0084290093 -0.010719829 0)
(0.0086343378 -0.0080828735 0)
(0.0087507121 -0.0053989527 0)
(0.0087788276 -0.0026964061 0)
(0.0087212694 3.1752967e-07 0)
(0.0085809775 0.0026659958 0)
(0.0083612994 0.0052752333 0)
(0.008064347 0.0078033407 0)
(0.007695636 0.010227006 0)
(0.007262132 0.012525611 0)
(0.0067701695 0.014677397 0)
(0.0062290624 0.016665329 0)
(0.0056467812 0.018476574 0)
(0.0050313238 0.020099826 0)
(0.0043914985 0.021527198 0)
(0.0037343408 0.022753517 0)
(0.0030648832 0.02377582 0)
(0.0023881002 0.024593024 0)
(0.00170756 0.025205266 0)
(0.0010251145 0.025612632 0)
(0.00034182762 0.025816132 0)
(-8.8666088e-05 0.026261193 0)
(-0.00026853126 0.026059925 0)
(-0.0004562743 0.02565637 0)
(-0.00065589513 0.025049027 0)
(-0.00087037854 0.024236099 0)
(-0.0011014601 0.023216465 0)
(-0.0013484939 0.021989454 0)
(-0.0016096213 0.020556409 0)
(-0.0018809619 0.018921548 0)
(-0.0021565601 0.017091723 0)
(-0.0024309648 0.015076969 0)
(-0.0026978306 0.012891374 0)
(-0.0029471893 0.010552576 0)
(-0.003174584 0.0080811861 0)
(-0.0033763711 0.005500939 0)
(-0.0035472686 0.002835318 0)
(-0.0036855542 0.00011039361 0)
(-0.0037889799 -0.0026479636 0)
(-0.0038570276 -0.0054139055 0)
(-0.0038855101 -0.0081627978 0)
(-0.0038714195 -0.010868385 0)
(-0.0038129552 -0.013503506 0)
(-0.0037056274 -0.016040963 0)
(-0.0035436482 -0.018451047 0)
(-0.0033228948 -0.020702726 0)
(-0.0030433763 -0.022764651 0)
(-0.00270326 -0.024605123 0)
(-0.0023048874 -0.026193512 0)
(-0.0018541295 -0.02750289 0)
(-0.0013582741 -0.02850788 0)
(-0.00082892052 -0.029188761 0)
(-0.00027875509 -0.029532827 0)
(0.00027875509 -0.029532827 0)
(0.00082892052 -0.029188761 0)
(0.0013582741 -0.02850788 0)
(0.0018541295 -0.02750289 0)
(0.0023048874 -0.026193512 0)
(0.00270326 -0.024605123 0)
(0.0030433763 -0.022764651 0)
(0.0033228948 -0.020702726 0)
(0.0035436482 -0.018451047 0)
(0.0037056274 -0.016040963 0)
(0.0038129552 -0.013503506 0)
(0.0038714195 -0.010868385 0)
(0.0038855101 -0.0081627978 0)
(0.0038570276 -0.0054139055 0)
(0.0037889799 -0.0026479636 0)
(0.0036855542 0.00011039361 0)
(0.0035472686 0.002835318 0)
(0.0033763711 0.005500939 0)
(0.003174584 0.0080811861 0)
(0.0029471893 0.010552576 0)
(0.0026978306 0.012891374 0)
(0.0024309648 0.015076969 0)
(0.0021565601 0.017091723 0)
(0.0018809619 0.018921548 0)
(0.0016096213 0.020556409 0)
(0.0013484939 0.021989454 0)
(0.0011014601 0.023216465 0)
(0.00087037854 0.024236099 0)
(0.00065589513 0.025049027 0)
(0.0004562743 0.02565637 0)
(0.00026853126 0.026059925 0)
(8.8666085e-05 0.026261193 0)
(0.00018049424 0.026178316 0)
(0.00053580839 0.025985133 0)
(0.00087421151 0.025597194 0)
(0.0011855487 0.025012143 0)
(0.0014612435 0.024226182 0)
(0.0016947726 0.023236225 0)
(0.0018819964 0.02203979 0)
(0.0020210345 0.02063611 0)
(0.0021126337 0.019027248 0)
(0.0021599005 0.017218551 0)
(0.0021671219 0.015218991 0)
(0.0021397805 0.013043009 0)
(0.0020847152 0.01070862 0)
(0.0020066042 0.0082353386 0)
(0.0019088483 0.0056493034 0)
(0.0017941662 0.0029757942 0)
(0.0016631555 0.00024159236 0)
(0.0015161691 -0.0025273358 0)
(0.0013531846 -0.0053058872 0)
(0.0011764897 -0.008068549 0)
(0.00098966718 -0.01079288 0)
(0.0007975199 -0.013452477 0)
(0.00060738594 -0.016020381 0)
(0.00042817846 -0.018466269 0)
(0.00026836359 -0.020759883 0)
(0.00013432555 -0.02286735 0)
(3.2087158e-05 -0.024754059 0)
(-3.663456e-05 -0.02638767 0)
(-7.1572045e-05 -0.027736806 0)
(-7.478316e-05 -0.028774614 0)
(-5.4787115e-05 -0.029479397 0)
(-2.0130123e-05 -0.029835629 0)
(2.0130126e-05 -0.029835629 0)
(5.4787118e-05 -0.029479397 0)
(7.4783163e-05 -0.028774614 0)
(7.1572047e-05 -0.027736806 0)
(3.6634562e-05 -0.02638767 0)
(-3.2087155e-05 -0.024754059 0)
(-0.00013432555 -0.02286735 0)
(-0.00026836358 -0.020759883 0)
(-0.00042817845 -0.018466269 0)
(-0.00060738594 -0.016020381 0)
(-0.0007975199 -0.013452477 0)
(-0.00098966717 -0.01079288 0)
(-0.0011764897 -0.0080685489 0)
(-0.0013531846 -0.0053058872 0)
(-0.0015161691 -0.0025273358 0)
(-0.0016631555 0.00024159237 0)
(-0.0017941662 0.0029757942 0)
(-0.0019088483 0.0056493034 0)
(-0.0020066042 0.0082353387 0)
(-0.0020847152 0.01070862 0)
(-0.0021397805 0.013043009 0)
(-0.002167122 0.015218991 0)
(-0.0021599005 0.017218551 0)
(-0.0021126337 0.019027248 0)
(-0.0020210345 0.02063611 0)
(-0.0018819964 0.02203979 0)
(-0.0016947726 0.023236225 0)
(-0.0014612435 0.024226182 0)
(-0.0011855487 0.025012143 0)
(-0.00087421152 0.025597194 0)
(-0.00053580839 0.025985133 0)
(-0.00018049424 0.026178316 0)
(0.00044519063 0.025550743 0)
(0.0013266909 0.025372071 0)
(0.0021819094 0.025012387 0)
(0.0029946055 0.024467689 0)
(0.0037505143 0.023732526 0)
(0.0044380918 0.022801112 0)
(0.0050486541 0.021668275 0)
(0.0055765933 0.020330459 0)
(0.0060197949 0.018786922 0)
(0.0063792561 0.017040731 0)
(0.0066582535 0.015099494 0)
(0.0068618329 0.012976227 0)
(0.0069958878 0.010688906 0)
(0.007065201 0.008259417 0)
(0.0070727753 0.0057143094 0)
(0.0070194486 0.0030811644 0)
(0.0069037091 0.00038785411 0)
(0.0067231868 -0.0023394234 0)
(0.0064758299 -0.0050766384 0)
(0.0061618111 -0.0078009779 0)
(0.0057844913 -0.010491411 0)
(0.0053506557 -0.013124723 0)
(0.004870495 -0.015675798 0)
(0.0043565577 -0.018115881 0)
(0.0038220499 -0.020413623 0)
(0.0032792586 -0.022533996 0)
(0.0027390588 -0.024440543 0)
(0.0022091886 -0.026097563 0)
(0.0016942711 -0.027469757 0)
(0.0011957543 -0.02852813 0)
(0.00071119426 -0.029248565 0)
(0.0002359484 -0.029612984 0)
(-0.0002359484 -0.029612984 0)
(-0.00071119426 -0.029248565 0)
(-0.0011957543 -0.02852813 0)
(-0.0016942711 -0.027469757 0)
(-0.0022091886 -0.026097563 0)
(-0.0027390588 -0.024440543 0)
(-0.0032792586 -0.022533996 0)
(-0.0038220499 -0.020413623 0)
(-0.0043565576 -0.018115881 0)
(-0.004870495 -0.015675798 0)
(-0.0053506557 -0.013124723 0)
(-0.0057844913 -0.010491411 0)
(-0.0061618111 -0.0078009779 0)
(-0.0064758299 -0.0050766384 0)
(-0.0067231868 -0.0023394234 0)
(-0.0069037091 0.00038785411 0)
(-0.0070194486 0.0030811645 0)
(-0.0070727753 0.0057143094 0)
(-0.007065201 0.008259417 0)
(-0.0069958878 0.010688906 0)
(-0.0068618329 0.012976227 0)
(-0.0066582535 0.015099494 0)
(-0.0063792561 0.017040731 0)
(-0.0060197949 0.018786922 0)
(-0.0055765933 0.020330459 0)
(-0.0050486541 0.021668275 0)
(-0.0044380919 0.022801112 0)
(-0.0037505143 0.023732526 0)
(-0.0029946055 0.024467689 0)
(-0.0021819094 0.025012387 0)
(-0.0013266909 0.025372071 0)
(-0.00044519063 0.025550743 0)
(0.00067268369 0.024413115 0)
(0.0020061191 0.024255191 0)
(0.0033044451 0.023935972 0)
(0.0045459605 0.023449701 0)
(0.0057111523 0.022788744 0)
(0.0067838172 0.021944106 0)
(0.007751308 0.020907078 0)
(0.0086048607 0.019670359 0)
(0.0093402621 0.018229565 0)
(0.0099575163 0.016584475 0)
(0.010459961 0.014740351 0)
(0.010853489 0.012708712 0)
(0.011145087 0.010507473 0)
(0.011340675 0.0081603189 0)
(0.011443416 0.0056959868 0)