/*--------------------------------*- C++ -*----------------------------------*\
| =========                 |                                                 |
| \\      /  F ield         | OpenFOAM: The Open Source CFD Toolbox           |
|  \\    /   O peration     | Version:  2106                                  |
|   \\  /    A nd           | Website:  www.openfoam.com                      |
|    \\/     M anipulation  |                                                 |
\*---------------------------------------------------------------------------*/
FoamFile
{
    version     2.0;
    format      ascii;
    arch        "LSB;label=32;scalar=64";
    class       volVectorField;
    location    "0.024";
    object      U_0;
}
// * * * * * * * * * * * * * * * * * * * * * * * * * * * * * * * * * * * * * //

dimensions      [0 1 -1 0 0 0 0];

internalField   nonuniform List<vector> 
4096
(
(-0.0014384726 0.0014380977 0)
(-0.0043030307 0.001425693 0)
(-0.0071304833 0.00140094 0)
(-0.0098962814 0.0013639544 0)
(-0.012576165 0.0013149172 0)
(-0.0151463 0.0012540828 0)
(-0.017583432 0.0011817868 0)
(-0.019865065 0.001098456 0)
(-0.021969642 0.0010046162 0)
(-0.023876756 0.00090089924 0)
(-0.025567365 0.00078804858 0)
(-0.027024018 0.00066691985 0)
(-0.028231095 0.00053847792 0)
(-0.029174996 0.00040379434 0)
(-0.029844371 0.00026403904 0)
(-0.030230292 0.00012047287 0)
(-0.030326448 -2.5554736e-05 0)
(-0.030129262 -0.00017265198 0)
(-0.029638008 -0.00031935712 0)
(-0.02885494 -0.00046417726 0)
(-0.027785316 -0.00060559052 0)
(-0.02643744 -0.00074207197 0)
(-0.024822672 -0.00087210557 0)
(-0.022955379 -0.00099420602 0)
(-0.020852851 -0.0011069398 0)
(-0.018535179 -0.0012089478 0)
(-0.016025094 -0.0012989685 0)
(-0.013347742 -0.001375863 0)
(-0.010530412 -0.0014386384 0)
(-0.0076022167 -0.0014864696 0)
(-0.0045937461 -0.0015187198 0)
(-0.0015366734 -0.0015349549 0)
(0.0015366734 -0.0015349549 0)
(0.0045937461 -0.0015187198 0)
(0.0076022167 -0.0014864696 0)
(0.010530412 -0.0014386384 0)
(0.013347742 -0.001375863 0)
(0.016025094 -0.0012989685 0)
(0.018535179 -0.0012089478 0)
(0.020852851 -0.0011069398 0)
(0.022955379 -0.00099420602 0)
(0.024822672 -0.00087210557 0)
(0.02643744 -0.00074207197 0)
(0.027785316 -0.00060559052 0)
(0.02885494 -0.00046417726 0)
(0.029638008 -0.00031935712 0)
(0.030129262 -0.00017265198 0)
(0.030326448 -2.5554736e-05 0)
(0.030230292 0.00012047287 0)
(0.029844371 0.00026403904 0)
(0.029174996 0.00040379434 0)
(0.028231095 0.00053847792 0)
(0.027024018 0.00066691985 0)
(0.025567365 0.00078804858 0)
(0.023876756 0.00090089924 0)
(0.021969642 0.0010046162 0)
(0.019865065 0.001098456 0)
(0.017583432 0.0011817868 0)
(0.0151463 0.0012540828 0)
(0.012576165 0.0013149172 0)
(0.0098962814 0.0013639544 0)
(0.0071304833 0.00140094 0)
(0.0043030307 0.001425693 0)
(0.0014384726 0.0014380977 0)
(-0.0014279974 0.0043079827 0)
(-0.004271748 0.0042708639 0)
(-0.0070788184 0.0041967925 0)
(-0.0098249303 0.0040861102 0)
(-0.012486076 0.0039393519 0)
(-0.015038651 0.0037572705 0)
(-0.017459602 0.0035408628 0)
(-0.019726601 0.0032913974 0)
(-0.021818233 0.0030104403 0)
(-0.023714199 0.0026998763 0)
(-0.02539554 0.002361925 0)
(-0.026844861 0.001999146 0)
(-0.028046571 0.0016144258 0)
(-0.02898708 0.0012109715 0)
(-0.029655022 0.00079229239 0)
(-0.030041447 0.00036216047 0)
(-0.030139968 -7.5406424e-05 0)
(-0.029946946 -0.00051620458 0)
(-0.02946158 -0.00095586956 0)
(-0.028685993 -0.0013899219 0)
(-0.027625313 -0.0018138031 0)
(-0.026287698 -0.0022229413 0)
(-0.02468435 -0.0026127896 0)
(-0.022829472 -0.0029788916 0)
(-0.020740193 -0.0033169435 0)
(-0.018436449 -0.0036228618 0)
(-0.015940825 -0.0038928555 0)
(-0.013278339 -0.0041234998 0)
(-0.010476171 -0.0043118073 0)
(-0.007563343 -0.0044552954 0)
(-0.0045703731 -0.0045520463 0)
(-0.0015288746 -0.004600753 0)
(0.0015288746 -0.004600753 0)
(0.0045703731 -0.0045520463 0)
(0.0075633431 -0.0044552954 0)
(0.010476171 -0.0043118073 0)
(0.013278339 -0.0041234998 0)
(0.015940825 -0.0038928555 0)
(0.018436449 -0.0036228618 0)
(0.020740193 -0.0033169435 0)
(0.022829472 -0.0029788916 0)
(0.02468435 -0.0026127896 0)
(0.026287698 -0.0022229413 0)
(0.027625313 -0.0018138031 0)
(0.028685993 -0.0013899219 0)
(0.02946158 -0.00095586956 0)
(0.029946946 -0.00051620458 0)
(0.030139968 -7.5406424e-05 0)
(0.030041447 0.00036216047 0)
(0.029655022 0.00079229239 0)
(0.02898708 0.0012109715 0)
(0.028046571 0.0016144258 0)
(0.026844861 0.001999146 0)
(0.02539554 0.002361925 0)
(0.023714199 0.0026998763 0)
(0.021818233 0.0030104403 0)
(0.019726601 0.0032913974 0)
(0.017459602 0.0035408628 0)
(0.015038651 0.0037572705 0)
(0.012486076 0.0039393519 0)
(0.0098249303 0.0040861102 0)
(0.0070788184 0.0041967925 0)
(0.004271748 0.0042708639 0)
(0.0014279974 0.0043079827 0)
(-0.0014032254 0.0071415572 0)
(-0.0041977264 0.0070801812 0)
(-0.0069564232 0.0069576949 0)
(-0.0096556018 0.0067746455 0)
(-0.012271787 0.0065318903 0)
(-0.014781867 0.0062306439 0)
(-0.017163238 0.0058725227 0)
(-0.019393966 0.0054595929 0)
(-0.021452979 0.0049944158 0)
(-0.023320272 0.0044800847 0)
(-0.02497712 0.0039202537 0)
(-0.026406325 0.0033191487 0)
(-0.027592439 0.0026815409 0)
(-0.02852197 0.0020127361 0)
(-0.029183608 0.00131855 0)
(-0.029568413 0.00060523113 0)
(-0.029669966 -0.00012056608 0)
(-0.029484536 -0.00085187943 0)
(-0.029011186 -0.0015814583 0)
(-0.028251853 -0.0023018765 0)
(-0.027211431 -0.0030055713 0)
(-0.025897799 -0.0036849506 0)
(-0.024321835 -0.0043324557 0)
(-0.022497399 -0.0049406716 0)
(-0.020441256 -0.0055024256 0)
(-0.018172974 -0.0060109027 0)
(-0.015714771 -0.0064597696 0)
(-0.013091313 -0.0068432958 0)
(-0.010329444 -0.0071564779 0)
(-0.0074578748 -0.0073951529 0)
(-0.0045068306 -0.0075561032 0)
(-0.0015076506 -0.0076371345 0)
(0.0015076506 -0.0076371345 0)
(0.0045068306 -0.0075561032 0)
(0.0074578748 -0.0073951529 0)
(0.010329444 -0.0071564779 0)
(0.013091313 -0.0068432958 0)
(0.015714771 -0.0064597696 0)
(0.018172974 -0.0060109027 0)
(0.020441256 -0.0055024256 0)
(0.022497399 -0.0049406716 0)
(0.024321835 -0.0043324557 0)
(0.025897799 -0.0036849506 0)
(0.027211431 -0.0030055713 0)
(0.028251853 -0.0023018765 0)
(0.029011186 -0.0015814583 0)
(0.029484536 -0.00085187943 0)
(0.029669966 -0.00012056608 0)
(0.029568413 0.00060523113 0)
(0.029183608 0.00131855 0)
(0.02852197 0.0020127361 0)
(0.027592439 0.0026815409 0)
(0.026406325 0.0033191487 0)
(0.02497712 0.0039202537 0)
(0.023320272 0.0044800847 0)
(0.021452979 0.0049944158 0)
(0.019393966 0.0054595929 0)
(0.017163238 0.0058725227 0)
(0.014781867 0.0062306439 0)
(0.012271787 0.0065318903 0)
(0.0096556018 0.0067746455 0)
(0.0069564232 0.0069576949 0)
(0.0041977264 0.0070801812 0)
(0.0014032254 0.0071415572 0)
(-0.001365097 0.0099125858 0)
(-0.0040837785 0.0098276794 0)
(-0.0067679607 0.0096582173 0)
(-0.009394772 0.0094049227 0)
(-0.011941535 0.009068933 0)
(-0.014385877 0.0086518723 0)
(-0.016705872 0.008155918 0)
(-0.018880192 0.0075838719 0)
(-0.020888294 0.006939227 0)
(-0.022710628 0.0062262232 0)
(-0.024328849 0.0054498875 0)
(-0.025726073 0.0046160557 0)
(-0.02688711 0.0037313271 0)
(-0.02779864 0.002803051 0)
(-0.028449477 0.0018392927 0)
(-0.028830734 0.00084871818 0)
(-0.028935972 -0.00015943901 0)
(-0.028761365 -0.0011755107 0)
(-0.028305802 -0.0021894386 0)
(-0.027570967 -0.0031909141 0)
(-0.026561416 -0.0041694297 0)
(-0.025284623 -0.005114427 0)
(-0.023750987 -0.0060153784 0)
(-0.021973849 -0.0068619436 0)
(-0.019969412 -0.0076441007 0)
(-0.017756668 -0.0083523057 0)
(-0.01535726 -0.0089776772 0)
(-0.012795287 -0.0095121641 0)
(-0.010097051 -0.009948724 0)
(-0.0072907434 -0.01028149 0)
(-0.0044061026 -0.010505923 0)
(-0.0014740002 -0.010618925 0)
(0.0014740002 -0.010618925 0)
(0.0044061026 -0.010505923 0)
(0.0072907434 -0.01028149 0)
(0.010097051 -0.009948724 0)
(0.012795287 -0.0095121641 0)
(0.01535726 -0.0089776772 0)
(0.017756668 -0.0083523057 0)
(0.019969412 -0.0076441007 0)
(0.021973849 -0.0068619436 0)
(0.023750988 -0.0060153784 0)
(0.025284623 -0.005114427 0)
(0.026561416 -0.0041694297 0)
(0.027570967 -0.0031909141 0)
(0.028305802 -0.0021894386 0)
(0.028761365 -0.0011755107 0)
(0.028935972 -0.00015943901 0)
(0.028830734 0.00084871818 0)
(0.028449477 0.0018392927 0)
(0.02779864 0.002803051 0)
(0.02688711 0.0037313271 0)
(0.025726073 0.0046160557 0)
(0.024328849 0.0054498875 0)
(0.022710628 0.0062262232 0)
(0.020888294 0.006939227 0)
(0.018880192 0.0075838719 0)
(0.016705872 0.008155918 0)
(0.014385877 0.0086518723 0)
(0.011941535 0.009068933 0)
(0.009394772 0.0094049227 0)
(0.0067679607 0.0096582173 0)
(0.0040837785 0.0098276794 0)
(0.001365097 0.0099125858 0)
(-0.0013131771 0.012594486 0)
(-0.0039286056 0.012487063 0)
(-0.0065112852 0.012272631 0)
(-0.0090394762 0.01195205 0)
(-0.011491573 0.01152668 0)
(-0.013846197 0.010998486 0)
(-0.016082332 0.010370126 0)
(-0.01817947 0.0096450544 0)
(-0.020117789 0.0088276092 0)
(-0.021878358 0.0079230953 0)
(-0.023443351 0.0069378295 0)
(-0.024796327 0.0058791828 0)
(-0.025922462 0.0047555075 0)
(-0.026808695 0.0035761219 0)
(-0.027444031 0.0023512655 0)
(-0.027819683 0.0010919441 0)
(-0.02792922 -0.00019011535 0)
(-0.027768719 -0.0014826349 0)
(-0.027336865 -0.0027728398 0)
(-0.02663502 -0.0040476358 0)
(-0.025667303 -0.0052936626 0)
(-0.024440645 -0.006497482 0)
(-0.022964809 -0.007645665 0)
(-0.021252423 -0.0087249985 0)
(-0.019318919 -0.0097226462 0)
(-0.017182496 -0.010626346 0)
(-0.014864 -0.011424666 0)
(-0.012386735 -0.012107217 0)
(-0.0097762389 -0.012664891 0)
(-0.0070599811 -0.013090084 0)
(-0.0042670084 -0.013376909 0)
(-0.0014275302 -0.013521344 0)
(0.0014275302 -0.013521344 0)
(0.0042670084 -0.013376909 0)
(0.0070599811 -0.013090084 0)
(0.0097762389 -0.012664891 0)
(0.012386735 -0.012107217 0)
(0.014864 -0.011424666 0)
(0.017182496 -0.010626346 0)
(0.019318919 -0.0097226462 0)
(0.021252423 -0.0087249985 0)
(0.022964809 -0.007645665 0)
(0.024440645 -0.006497482 0)
(0.025667303 -0.0052936626 0)
(0.02663502 -0.0040476358 0)
(0.027336865 -0.0027728398 0)
(0.027768719 -0.0014826349 0)
(0.02792922 -0.00019011535 0)
(0.027819683 0.0010919441 0)
(0.027444031 0.0023512655 0)
(0.026808695 0.0035761219 0)
(0.025922462 0.0047555075 0)
(0.024796327 0.0058791828 0)
(0.023443351 0.0069378295 0)
(0.021878358 0.0079230953 0)
(0.020117789 0.0088276092 0)
(0.01817947 0.0096450544 0)
(0.016082332 0.010370126 0)
(0.013846197 0.010998486 0)
(0.011491573 0.01152668 0)
(0.0090394762 0.01195205 0)
(0.0065112852 0.012272631 0)
(0.0039286056 0.012487063 0)
(0.0013131771 0.012594486 0)
(-0.0012457807 0.015158606 0)
(-0.0037271721 0.015029992 0)
(-0.006178064 0.01477321 0)
(-0.0085781722 0.014389209 0)
(-0.010907268 0.013879497 0)
(-0.013145252 0.01324629 0)
(-0.015272281 0.012492623 0)
(-0.017268899 0.011622495 0)
(-0.019116213 0.010640978 0)
(-0.020796098 0.0095543372 0)
(-0.022291401 0.008370075 0)
(-0.023586261 0.0070970034 0)
(-0.024666347 0.0057451339 0)
(-0.025518953 0.0043256639 0)
(-0.026133357 0.0028509078 0)
(-0.026500937 0.0013341171 0)
(-0.026615307 -0.00021060248 0)
(-0.026472455 -0.0017684911 0)
(-0.026070836 -0.0033241801 0)
(-0.025411425 -0.0048619239 0)
(-0.024497797 -0.0063656366 0)
(-0.023336196 -0.0078191218 0)
(-0.021935554 -0.0092061474 0)
(-0.020307583 -0.010510703 0)
(-0.018466698 -0.011717189 0)
(-0.016430051 -0.012810648 0)
(-0.014217435 -0.013777093 0)
(-0.011851103 -0.014603775 0)
(-0.0093555781 -0.015279486 0)
(-0.0067573635 -0.015794847 0)
(-0.0040845897 -0.016142582 0)
(-0.0013665838 -0.016317715 0)
(0.0013665838 -0.016317715 0)
(0.0040845897 -0.016142582 0)
(0.0067573635 -0.015794847 0)
(0.0093555781 -0.015279486 0)
(0.011851103 -0.014603775 0)
(0.014217435 -0.013777093 0)
(0.016430051 -0.012810648 0)
(0.018466698 -0.011717189 0)
(0.020307583 -0.010510703 0)
(0.021935554 -0.0092061474 0)
(0.023336196 -0.0078191218 0)
(0.024497797 -0.0063656366 0)
(0.025411425 -0.0048619239 0)
(0.026070836 -0.0033241801 0)
(0.026472455 -0.0017684911 0)
(0.026615307 -0.00021060248 0)
(0.026500937 0.0013341171 0)
(0.026133357 0.0028509078 0)
(0.025518953 0.0043256639 0)
(0.024666347 0.0057451339 0)
(0.023586261 0.0070970034 0)
(0.022291401 0.008370075 0)
(0.020796098 0.0095543372 0)
(0.019116213 0.010640978 0)
(0.017268899 0.011622495 0)
(0.015272281 0.012492623 0)
(0.013145252 0.01324629 0)
(0.010907268 0.013879497 0)
(0.0085781722 0.014389209 0)
(0.006178064 0.01477321 0)
(0.0037271721 0.015029992 0)
(0.0012457807 0.015158606 0)
(-0.0011601501 0.017571828 0)
(-0.0034712337 0.017423703 0)
(-0.0057546527 0.017127903 0)
(-0.007991957 0.016685398 0)
(-0.010164654 0.016097743 0)
(-0.012254254 0.015367295 0)
(-0.014242393 0.014497335 0)
(-0.016110944 0.013492273 0)
(-0.017842183 0.012357772 0)
(-0.019419001 0.011100927 0)
(-0.0208251 0.0097303036 0)
(-0.022045362 0.0082560387 0)
(-0.023066091 0.0066896832 0)
(-0.023875059 0.0050442186 0)
(-0.024461913 0.0033338962 0)
(-0.024818279 0.0015741124 0)
(-0.024937883 -0.00021880005 0)
(-0.024816643 -0.0020277527 0)
(-0.024452759 -0.0038349521 0)
(-0.023846762 -0.0056221812 0)
(-0.023001568 -0.0073707964 0)
(-0.02192256 -0.0090620097 0)
(-0.020617629 -0.01067692 0)
(-0.019097316 -0.012196835 0)
(-0.017374734 -0.013603451 0)
(-0.015465681 -0.014879153 0)
(-0.013388588 -0.016007406 0)
(-0.011164345 -0.016973066 0)
(-0.0088161565 -0.017762781 0)
(-0.0063692729 -0.018365346 0)
(-0.003850633 -0.018772049 0)
(-0.0012884162 -0.01897692 0)
(0.0012884162 -0.01897692 0)
(0.003850633 -0.018772049 0)
(0.0063692729 -0.018365346 0)
(0.0088161565 -0.017762781 0)
(0.011164345 -0.016973066 0)
(0.013388588 -0.016007406 0)
(0.015465681 -0.014879153 0)
(0.017374734 -0.013603451 0)
(0.019097316 -0.012196835 0)
(0.020617629 -0.01067692 0)
(0.02192256 -0.0090620097 0)
(0.023001568 -0.0073707964 0)
(0.023846762 -0.0056221812 0)
(0.024452759 -0.003834952 0)
(0.024816643 -0.0020277527 0)
(0.024937883 -0.00021880004 0)
(0.024818279 0.0015741124 0)
(0.024461913 0.0033338962 0)
(0.023875059 0.0050442186 0)
(0.023066091 0.0066896832 0)
(0.022045362 0.0082560387 0)
(0.0208251 0.0097303036 0)
(0.019419001 0.011100927 0)
(0.017842183 0.012357772 0)
(0.016110944 0.013492273 0)
(0.014242393 0.014497335 0)
(0.012254254 0.015367295 0)
(0.010164654 0.016097743 0)
(0.007991957 0.016685398 0)
(0.0057546527 0.017127903 0)
(0.0034712337 0.017423703 0)
(0.0011601501 0.017571828 0)
(-0.0010527216 0.019794565 0)
(-0.0031501363 0.019629038 0)
(-0.0052234169 0.019298392 0)
(-0.0072564037 0.018803542 0)
(-0.0092327675 0.018145962 0)
(-0.011136021 0.017328003 0)
(-0.012949639 0.016353043 0)
(-0.01465715 0.015225724 0)
(-0.016242287 0.013952132 0)
(-0.017689198 0.012540025 0)
(-0.018982652 0.010998859 0)
(-0.020108468 0.0093399956 0)
(-0.021053747 0.007576375 0)
(-0.021806894 0.0057226419 0)
(-0.022358041 0.0037948017 0)
(-0.022699159 0.0018103312 0)
(-0.022824196 -0.00021244122 0)
(-0.022729024 -0.0022542886 0)
(-0.022411598 -0.0042951893 0)
(-0.021871934 -0.0063146944 0)
(-0.021112169 -0.0082918334 0)
(-0.020136639 -0.010205447 0)
(-0.018951938 -0.012034154 0)
(-0.017567133 -0.013756726 0)
(-0.015993682 -0.01535224 0)
(-0.01424568 -0.016800485 0)
(-0.012339804 -0.018082391 0)
(-0.010295197 -0.019180382 0)
(-0.0081333788 -0.020078897 0)
(-0.0058779944 -0.020764839 0)
(-0.0035544511 -0.021228001 0)
(-0.001189455 -0.021461368 0)
(0.001189455 -0.021461368 0)
(0.0035544511 -0.021228001 0)
(0.0058779944 -0.020764839 0)
(0.0081333788 -0.020078897 0)
(0.010295197 -0.019180382 0)
(0.012339804 -0.018082391 0)
(0.01424568 -0.016800485 0)
(0.015993682 -0.01535224 0)
(0.017567133 -0.013756726 0)
(0.018951938 -0.012034154 0)
(0.020136639 -0.010205447 0)
(0.021112169 -0.0082918334 0)
(0.021871934 -0.0063146944 0)
(0.022411598 -0.0042951893 0)
(0.022729024 -0.0022542886 0)
(0.022824196 -0.00021244122 0)
(0.022699159 0.0018103312 0)
(0.022358041 0.0037948017 0)
(0.021806894 0.0057226419 0)
(0.021053747 0.007576375 0)
(0.020108468 0.0093399956 0)
(0.018982652 0.010998859 0)
(0.017689198 0.012540025 0)
(0.016242287 0.013952132 0)
(0.01465715 0.015225724 0)
(0.012949639 0.016353043 0)
(0.011136021 0.017328003 0)
(0.0092327675 0.018145962 0)
(0.0072564037 0.018803542 0)
(0.0052234169 0.019298392 0)
(0.0031501363 0.019629038 0)
(0.0010527216 0.019794565 0)
(-0.0009195445 0.021779482 0)
(-0.0027520708 0.021599163 0)
(-0.0045648119 0.021238845 0)
(-0.0063444473 0.020699285 0)
(-0.0080773202 0.019981725 0)
(-0.0097493873 0.019088314 0)
(-0.011346394 0.01802237 0)
(-0.012853919 0.016788532 0)
(-0.01425747 0.015393085 0)
(-0.01554276 0.013844244 0)
(-0.016695825 0.012152134 0)
(-0.017703629 0.01032924 0)
(-0.018554288 0.0083897292 0)
(-0.019237037 0.0063497552 0)
(-0.019742567 0.0042268333 0)
(-0.020063342 0.002040536 0)
(-0.020193735 -0.00018912592 0)
(-0.020129561 -0.0024410471 0)
(-0.019868559 -0.0046932296 0)
(-0.019410208 -0.0069232611 0)
(-0.018755734 -0.0091081784 0)
(-0.017908218 -0.011224735 0)
(-0.01687266 -0.013249342 0)
(-0.015656288 -0.015158378 0)
(-0.014268499 -0.016928489 0)
(-0.012721267 -0.018536908 0)
(-0.011029046 -0.019962055 0)
(-0.0092087464 -0.021183881 0)
(-0.0072797675 -0.022184545 0)
(-0.0052637304 -0.022948974 0)
(-0.0031840981 -0.023465389 0)
(-0.0010657065 -0.023725663 0)
(0.0010657065 -0.023725663 0)
(0.0031840981 -0.023465389 0)
(0.0052637304 -0.022948974 0)
(0.0072797675 -0.022184545 0)
(0.0092087464 -0.021183881 0)
(0.011029046 -0.019962055 0)
(0.012721267 -0.018536908 0)
(0.014268499 -0.016928489 0)
(0.015656288 -0.015158378 0)
(0.01687266 -0.013249342 0)
(0.017908218 -0.011224735 0)
(0.018755734 -0.0091081784 0)
(0.019410208 -0.0069232611 0)
(0.019868559 -0.0046932296 0)
(0.020129561 -0.0024410471 0)
(0.020193735 -0.00018912591 0)
(0.020063342 0.002040536 0)
(0.019742567 0.0042268333 0)
(0.019237037 0.0063497552 0)
(0.018554288 0.0083897292 0)
(0.017703629 0.01032924 0)
(0.016695825 0.012152134 0)
(0.01554276 0.013844244 0)
(0.01425747 0.015393085 0)
(0.012853919 0.016788532 0)
(0.011346394 0.01802237 0)
(0.0097493873 0.019088314 0)
(0.0080773202 0.019981725 0)
(0.0063444473 0.020699285 0)
(0.0045648119 0.021238845 0)
(0.0027520708 0.021599163 0)
(0.0009195445 0.021779482 0)
(-0.00075693186 0.023471198 0)
(-0.0022660125 0.023279281 0)
(-0.0037605999 0.022895662 0)
(-0.0052308435 0.022320764 0)
(-0.0066663565 0.021555485 0)
(-0.008056017 0.020601421 0)
(-0.009388336 0.019461665 0)
(-0.010651426 0.018140612 0)
(-0.011832921 0.016644388 0)
(-0.012920426 0.014981428 0)
(-0.013901426 0.013162487 0)
(-0.014764232 0.011200749 0)
(-0.01549824 0.0091114626 0)
(-0.016093785 0.0069122419 0)
(-0.01654208 0.0046217952 0)
(-0.016836258 0.0022617861 0)
(-0.016971502 -0.00014634214 0)
(-0.016943542 -0.0025800865 0)
(-0.016749918 -0.0050157972 0)
(-0.016389605 -0.0074292667 0)
(-0.015862825 -0.0097959928 0)
(-0.015171178 -0.012091167 0)
(-0.014317697 -0.014289156 0)
(-0.013307392 -0.016364298 0)
(-0.012147151 -0.018291024 0)
(-0.010846279 -0.020044047 0)
(-0.0094164891 -0.021599311 0)
(-0.0078719058 -0.022934252 0)
(-0.006229281 -0.024028682 0)
(-0.0045077162 -0.024865445 0)
(-0.0027282484 -0.025431072 0)
(-0.00091338392 -0.025716259 0)
(0.00091338392 -0.025716259 0)
(0.0027282484 -0.025431072 0)
(0.0045077162 -0.024865445 0)
(0.006229281 -0.024028682 0)
(0.0078719058 -0.022934252 0)
(0.0094164891 -0.021599311 0)
(0.010846279 -0.020044047 0)
(0.012147151 -0.018291024 0)
(0.013307392 -0.016364298 0)
(0.014317697 -0.014289156 0)
(0.015171178 -0.012091167 0)
(0.015862825 -0.0097959928 0)
(0.016389605 -0.0074292667 0)
(0.016749918 -0.0050157971 0)
(0.016943542 -0.0025800865 0)
(0.016971502 -0.00014634214 0)
(0.016836258 0.0022617861 0)
(0.01654208 0.0046217952 0)
(0.016093785 0.0069122419 0)
(0.01549824 0.0091114626 0)
(0.014764232 0.011200749 0)
(0.013901426 0.013162487 0)
(0.012920426 0.014981428 0)
(0.01183292 0.016644388 0)
(0.010651426 0.018140612 0)
(0.009388336 0.019461665 0)
(0.008056017 0.020601421 0)
(0.0066663565 0.021555485 0)
(0.0052308435 0.022320764 0)
(0.0037605999 0.022895663 0)
(0.0022660125 0.023279281 0)
(0.00075693186 0.023471198 0)
(-0.00056242868 0.024807564 0)
(-0.001684584 0.024607933 0)
(-0.0027985825 0.024208759 0)
(-0.003898713 0.023609846 0)
(-0.004978579 0.022811684 0)
(-0.006030529 0.021814918 0)
(-0.007046214 0.020622089 0)
(-0.0080169288 0.019237112 0)
(-0.0089328208 0.017665509 0)
(-0.0097834354 0.015915662 0)
(-0.010558143 0.013999076 0)
(-0.011246958 0.011928717 0)
(-0.011840421 0.0097208419 0)
(-0.012330343 0.0073948046 0)
(-0.012708484 0.0049702232 0)
(-0.012968717 0.0024703115 0)
(-0.013107704 -8.2093826e-05 0)
(-0.013121148 -0.0026630662 0)
(-0.013006127 -0.0052483449 0)
(-0.012761244 -0.0078122718 0)
(-0.012385994 -0.010328907 0)
(-0.011880057 -0.012772742 0)
(-0.011244098 -0.015116188 0)
(-0.010480662 -0.017332455 0)
(-0.0095934542 -0.019393485 0)
(-0.0085885442 -0.021271792 0)
(-0.007474342 -0.022941032 0)
(-0.0062615614 -0.024375837 0)
(-0.0049637332 -0.025553681 0)
(-0.0035968501 -0.026455173 0)
(-0.002178997 -0.02706498 0)
(-0.0007298477 -0.027372612 0)
(0.0007298477 -0.027372612 0)
(0.002178997 -0.02706498 0)
(0.0035968501 -0.026455173 0)
(0.0049637332 -0.025553681 0)
(0.0062615614 -0.024375837 0)
(0.007474342 -0.022941032 0)
(0.0085885442 -0.021271792 0)
(0.0095934542 -0.019393485 0)
(0.010480662 -0.017332455 0)
(0.011244098 -0.015116188 0)
(0.011880057 -0.012772742 0)
(0.012385994 -0.010328907 0)
(0.012761244 -0.0078122718 0)
(0.013006127 -0.0052483449 0)
(0.013121148 -0.0026630661 0)
(0.013107704 -8.2093822e-05 0)
(0.012968717 0.0024703115 0)
(0.012708484 0.0049702232 0)
(0.012330343 0.0073948046 0)
(0.011840421 0.0097208419 0)
(0.011246958 0.011928717 0)
(0.010558143 0.013999076 0)
(0.0097834354 0.015915662 0)
(0.0089328208 0.017665509 0)
(0.0080169288 0.019237112 0)
(0.007046214 0.020622089 0)
(0.006030529 0.021814918 0)
(0.004978579 0.022811684 0)
(0.003898713 0.023609846 0)
(0.0027985825 0.024208759 0)
(0.001684584 0.024607933 0)
(0.00056242867 0.024807564 0)
(-0.0003361322 0.025723206 0)
(-0.0010080801 0.025520606 0)
(-0.0016793497 0.025115033 0)
(-0.0023489866 0.02450545 0)
(-0.0030152486 0.023691757 0)
(-0.0036746629 0.022673777 0)
(-0.0043223436 0.02145255 0)
(-0.0049533655 0.020030992 0)
(-0.0055607784 0.01841422 0)
(-0.0061358358 0.016610058 0)
(-0.0066706193 0.014629751 0)
(-0.0071572295 0.012486036 0)
(-0.0075863885 0.010195867 0)
(-0.0079518231 0.0077809662 0)
(-0.0082465834 0.0052618345 0)
(-0.0084651697 0.0026616933 0)
(-0.0086055107 5.1441746e-06 0)
(-0.0086642493 -0.0026824996 0)
(-0.0086384139 -0.0053761086 0)
(-0.0085253877 -0.00805135 0)
(-0.0083244681 -0.01067992 0)
(-0.0080332958 -0.013235793 0)
(-0.0076499938 -0.015691297 0)
(-0.0071740553 -0.018018704 0)
(-0.0066050993 -0.020186981 0)
(-0.0059459895 -0.022167278 0)
(-0.0052007939 -0.023931094 0)
(-0.0043761123 -0.025449717 0)
(-0.0034818482 -0.026698466 0)
(-0.0025301566 -0.027655576 0)
(-0.0015357329 -0.028303463 0)
(-0.00051490359 -0.028630562 0)
(0.0005149036 -0.028630562 0)
(0.0015357329 -0.028303463 0)
(0.0025301566 -0.027655576 0)
(0.0034818482 -0.026698466 0)
(0.0043761123 -0.025449717 0)
(0.005200794 -0.023931094 0)
(0.0059459895 -0.022167278 0)
(0.0066050993 -0.020186981 0)
(0.0071740553 -0.018018704 0)
(0.0076499938 -0.015691297 0)
(0.0080332958 -0.013235793 0)
(0.0083244681 -0.01067992 0)
(0.0085253877 -0.00805135 0)
(0.0086384139 -0.0053761086 0)
(0.0086642493 -0.0026824996 0)
(0.0086055107 5.1441793e-06 0)
(0.0084651697 0.0026616933 0)
(0.0082465834 0.0052618345 0)
(0.0079518231 0.0077809662 0)
(0.0075863885 0.010195867 0)
(0.0071572295 0.012486036 0)
(0.0066706193 0.014629751 0)
(0.0061358358 0.016610058 0)
(0.0055607784 0.01841422 0)
(0.0049533655 0.020030992 0)
(0.0043223436 0.02145255 0)
(0.0036746629 0.022673777 0)
(0.0030152486 0.023691757 0)
(0.0023489866 0.02450545 0)
(0.0016793497 0.025115033 0)
(0.0010080801 0.025520606 0)
(0.00033613219 0.025723206 0)
(-8.2424154e-05 0.026156388 0)
(-0.00024986379 0.025956137 0)
(-0.00042536718 0.025554601 0)
(-0.0006130445 0.02495026 0)
(-0.00081599229 0.024141288 0)
(-0.0010360658 0.023126528 0)
(-0.0012727189 0.021905259 0)
(-0.0015241955 0.020478765 0)
(-0.00178671 0.018851211 0)
(-0.0020543841 0.017029375 0)
(-0.0023218635 0.015023211 0)
(-0.0025828829 0.012846724 0)
(-0.0028274675 0.010517469 0)
(-0.0030512427 0.0080559565 0)
(-0.0032506337 0.0054858424 0)
(-0.0034203501 0.0028304821 0)
(-0.0035586929 0.0001158564 0)
(-0.003663403 -0.0026322622 0)
(-0.0037339758 -0.0053881228 0)
(-0.0037661514 -0.0081272037 0)
(-0.0037568764 -0.01082334 0)
(-0.0037043454 -0.013449449 0)
(-0.0036040067 -0.015978437 0)
(-0.003449973 -0.018380665 0)
(-0.003238036 -0.02062518 0)
(-0.0029681585 -0.022680711 0)
(-0.0026383419 -0.024515641 0)
(-0.002250668 -0.026099446 0)
(-0.0018113525 -0.02740428 0)
(-0.0013275989 -0.02840647 0)
(-0.00081044454 -0.029085501 0)
(-0.00027258084 -0.029428615 0)
(0.00027258085 -0.029428615 0)
(0.00081044454 -0.029085501 0)
(0.0013275989 -0.02840647 0)
(0.0018113525 -0.02740428 0)
(0.002250668 -0.026099446 0)
(0.002638342 -0.024515641 0)
(0.0029681585 -0.022680711 0)
(0.003238036 -0.02062518 0)
(0.003449973 -0.018380665 0)
(0.0036040067 -0.015978437 0)
(0.0037043454 -0.013449449 0)
(0.0037568764 -0.01082334 0)
(0.0037661514 -0.0081272037 0)
(0.0037339758 -0.0053881228 0)
(0.003663403 -0.0026322622 0)
(0.0035586929 0.0001158564 0)
(0.0034203501 0.0028304821 0)
(0.0032506337 0.0054858424 0)
(0.0030512427 0.0080559565 0)
(0.0028274675 0.010517469 0)
(0.0025828829 0.012846724 0)
(0.0023218635 0.015023211 0)
(0.0020543841 0.017029375 0)
(0.00178671 0.018851211 0)
(0.0015241955 0.020478765 0)
(0.0012727189 0.021905259 0)
(0.0010360658 0.023126528 0)
(0.00081599228 0.024141288 0)
(0.00061304449 0.02495026 0)
(0.00042536718 0.025554601 0)
(0.00024986379 0.025956137 0)
(8.2424151e-05 0.026156388 0)
(0.00018738069 0.02606046 0)
(0.0005564017 0.025868419 0)
(0.00090831207 0.025482749 0)
(0.0012328266 0.024901078 0)
(0.0015212435 0.024119565 0)
(0.0017669194 0.023135084 0)
(0.0019655984 0.021945101 0)
(0.002115288 0.020548786 0)
(0.0022166317 0.018948136 0)
(0.002272641 0.017148418 0)
(0.0022875131 0.015158511 0)
(0.0022666556 0.012992783 0)
(0.0022168501 0.010669151 0)
(0.0021427172 0.0082069816 0)
(0.0020476119 0.0056323396 0)
(0.0019342266 0.0029703783 0)
(0.0018031474 0.00024776846 0)
(0.0016547298 -0.0025096404 0)
(0.0014889688 -0.0052768624 0)
(0.0013081906 -0.0080284667 0)
(0.0011160219 -0.010742167 0)
(0.00091731379 -0.01339164 0)
(0.00071947034 -0.015950026 0)
(0.00053148523 -0.018387067 0)
(0.00036190543 -0.020672622 0)
(0.00021719178 -0.022772876 0)
(0.00010344152 -0.024653267 0)
(2.3483428e-05 -0.026281533 0)
(-2.402943e-05 -0.027626333 0)
(-4.1187545e-05 -0.028660856 0)
(-3.4529261e-05 -0.029363437 0)
(-1.3343912e-05 -0.029718562 0)
(1.3343915e-05 -0.029718562 0)
(3.4529264e-05 -0.029363437 0)
(4.1187548e-05 -0.028660856 0)
(2.4029433e-05 -0.027626333 0)
(-2.3483425e-05 -0.026281533 0)
(-0.00010344151 -0.024653267 0)
(-0.00021719178 -0.022772876 0)
(-0.00036190543 -0.020672622 0)
(-0.00053148522 -0.018387067 0)
(-0.00071947034 -0.015950026 0)
(-0.00091731379 -0.01339164 0)
(-0.0011160219 -0.010742167 0)
(-0.0013081906 -0.0080284667 0)
(-0.0014889688 -0.0052768624 0)
(-0.0016547298 -0.0025096404 0)
(-0.0018031474 0.00024776847 0)
(-0.0019342266 0.0029703783 0)
(-0.0020476119 0.0056323396 0)
(-0.0021427172 0.0082069816 0)
(-0.0022168501 0.010669151 0)
(-0.0022666556 0.012992783 0)
(-0.0022875131 0.015158511 0)
(-0.002272641 0.017148418 0)
(-0.0022166317 0.018948136 0)
(-0.002115288 0.020548786 0)
(-0.0019655984 0.021945101 0)
(-0.0017669194 0.023135084 0)
(-0.0015212435 0.024119565 0)
(-0.0012328266 0.024901078 0)
(-0.00090831208 0.025482749 0)
(-0.0005564017 0.025868419 0)
(-0.00018738069 0.02606046 0)
(0.00045283805 0.025418445 0)
(0.0013495586 0.025241056 0)
(0.0022197753 0.024883923 0)
(0.0030471022 0.024343016 0)
(0.0038171356 0.023612844 0)
(0.0045182008 0.022687572 0)
(0.0051414855 0.021561972 0)
(0.0056812576 0.020232419 0)
(0.0061352874 0.018698096 0)
(0.006504466 0.016961982 0)
(0.006791971 0.015031592 0)
(0.0070027631 0.012919837 0)
(0.0071426638 0.010644581 0)
(0.0072163943 0.008227586 0)
(0.0072269106 0.0056952784 0)
(0.0071750194 0.0030751116 0)
(0.007059196 0.00039482726 0)
(0.0068770755 -0.0023195079 0)
(0.0066266277 -0.0050439907 0)
(0.0063080615 -0.0077559325 0)
(0.005924788 -0.010434428 0)
(0.0054836545 -0.013056374 0)
(0.0049949272 -0.01559676 0)
(0.0044712427 -0.018026928 0)
(0.0039259044 -0.020315614 0)
(0.0033713123 -0.022427863 0)
(0.0028184932 -0.02432726 0)
(0.0022754636 -0.025978112 0)
(0.0017465407 -0.027346134 0)
(0.0012332668 -0.028400704 0)
(0.00073379597 -0.029118556 0)
(0.00024350343 -0.029481699 0)
(-0.00024350342 -0.029481699 0)
(-0.00073379596 -0.029118556 0)
(-0.0012332668 -0.028400704 0)
(-0.0017465407 -0.027346134 0)
(-0.0022754636 -0.025978112 0)
(-0.0028184932 -0.02432726 0)
(-0.0033713123 -0.022427863 0)
(-0.0039259044 -0.020315614 0)
(-0.0044712427 -0.018026928 0)
(-0.0049949272 -0.01559676 0)
(-0.0054836545 -0.013056374 0)
(-0.005924788 -0.010434428 0)
(-0.0063080615 -0.0077559325 0)
(-0.0066266277 -0.0050439907 0)
(-0.0068770755 -0.0023195079 0)
(-0.007059196 0.00039482727 0)
(-0.0071750194 0.0030751117 0)
(-0.0072269106 0.0056952784 0)
(-0.0072163943 0.008227586 0)
(-0.0071426638 0.010644581 0)
(-0.0070027632 0.012919837 0)
(-0.006791971 0.015031592 0)
(-0.006504466 0.016961982 0)
(-0.0061352874 0.018698096 0)
(-0.0056812576 0.020232419 0)
(-0.0051414855 0.021561972 0)
(-0.0045182008 0.022687572 0)
(-0.0038171356 0.023612844 0)
(-0.0030471022 0.024343016 0)
(-0.0022197753 0.024883923 0)
(-0.0013495586 0.025241056 0)
(-0.00045283805 0.025418445 0)
(0.00068122503 0.024264729 0)
(0.0020316578 0.024108247 0)
(0.0033467294 0.023791891 0)
(0.0046045782 0.02330987 0)
(0.0057855384 0.022654507 0)
(0.0068732627 0.021816752 0)
(0.0078549629 0.020787832 0)
(0.0087217353 0.019560374 0)
(0.0094692378 0.018129906 0)
(0.010097356 0.016496116 0)
(0.010609315 0.014664158 0)
(0.01101091 0.012645436 0)
(0.011309044 0.010457737 0)
(0.01150957 0.0081246102 0)
(0.011615596 0.005674651 0)