/*--------------------------------*- C++ -*----------------------------------*\
| =========                 |                                                 |
| \\      /  F ield         | OpenFOAM: The Open Source CFD Toolbox           |
|  \\    /   O peration     | Version:  2106                                  |
|   \\  /    A nd           | Website:  www.openfoam.com                      |
|    \\/     M anipulation  |                                                 |
\*---------------------------------------------------------------------------*/
FoamFile
{
    version     2.0;
    format      ascii;
    arch        "LSB;label=32;scalar=64";
    class       volScalarField;
    location    "0.029";
    object      p;
}
// * * * * * * * * * * * * * * * * * * * * * * * * * * * * * * * * * * * * * //

dimensions      [1 -1 -2 0 0 0 0];

internalField   nonuniform List<scalar> 
65536
(
7.9800692
7.9752613
7.9656485
7.9512365
7.9320339
7.9080525
7.8793065
7.8458135
7.8075934
7.7646694
7.7170674
7.664816
7.6079468
7.5464939
7.4804945
7.4099883
7.3350178
7.2556282
7.1718673
7.0837857
6.9914364
6.894875
6.7941598
6.6893515
6.5805132
6.4677105
6.3510115
6.2304864
6.1062079
5.9782509
5.8466925
5.711612
5.5730908
5.4312124
5.2860623
5.137728
4.9862989
4.8318663
4.6745232
4.5143644
4.3514865
4.1859877
4.0179676
3.8475276
3.6747704
3.4998
3.322722
3.143643
2.962671
2.779915
2.5954851
2.4094926
2.2220494
2.0332686
1.843264
1.6521499
1.4600415
1.2670547
1.0733058
0.87891133
0.68398859
0.488655
0.29302824
0.097226194
-0.098633163
-0.2944318
-0.49005177
-0.68537534
-0.88028481
-1.0746628
-1.2683921
-1.461356
-1.6534383
-1.8445233
-2.0344958
-2.2232415
-2.4106468
-2.5965987
-2.7809852
-2.9636953
-3.144619
-3.3236473
-3.5006725
-3.6755879
-3.8482882
-4.0186694
-4.186629
-4.3520658
-4.5148803
-4.6749744
-4.8322517
-4.9866176
-5.1379792
-5.2862454
-5.4313269
-5.5731364
-5.7115886
-5.8466001
-5.9780897
-6.1059784
-6.230189
-6.350647
-6.4672797
-6.5800171
-6.6887913
-6.7935369
-6.8941909
-6.9906926
-7.0829842
-7.1710099
-7.254717
-7.334055
-7.4089763
-7.4794357
-7.5453909
-7.6068022
-7.6636327
-7.7158482
-7.7634173
-7.8063114
-7.8445047
-7.8779742
-7.9066999
-7.9306643
-7.9498532
-7.964255
-7.973861
-7.9786655
-7.9786655
-7.973861
-7.964255
-7.9498532
-7.9306643
-7.9066999
-7.8779742
-7.8445047
-7.8063114
-7.7634173
-7.7158482
-7.6636327
-7.6068022
-7.5453909
-7.4794357
-7.4089763
-7.334055
-7.254717
-7.1710099
-7.0829842
-6.9906926
-6.8941909
-6.7935369
-6.6887913
-6.5800171
-6.4672797
-6.350647
-6.230189
-6.1059784
-5.9780898
-5.8466001
-5.7115886
-5.5731364
-5.4313269
-5.2862454
-5.1379792
-4.9866176
-4.8322517
-4.6749744
-4.5148803
-4.3520658
-4.186629
-4.0186694
-3.8482882
-3.6755879
-3.5006725
-3.3236474
-3.144619
-2.9636953
-2.7809852
-2.5965987
-2.4106468
-2.2232416
-2.0344958
-1.8445233
-1.6534383
-1.461356
-1.2683921
-1.0746628
-0.88028482
-0.68537534
-0.49005178
-0.2944318
-0.098633166
0.097226191
0.29302824
0.488655
0.68398859
0.87891132
1.0733057
1.2670547
1.4600415
1.6521499
1.8432639
2.0332686
2.2220494
2.4094926
2.5954851
2.779915
2.962671
3.143643
3.322722
3.4998
3.6747704
3.8475276
4.0179676
4.1859877
4.3514865
4.5143644
4.6745232
4.8318663
4.9862989
5.137728
5.2860623
5.4312124
5.5730908
5.711612
5.8466925
5.9782509
6.1062079
6.2304864
6.3510115
6.4677105
6.5805132
6.6893515
6.7941598
6.894875
6.9914364
7.0837857
7.1718673
7.2556282
7.3350178
7.4099883
7.4804945
7.5464939
7.6079468
7.664816
7.7170674
7.7646694
7.8075934
7.8458134
7.8793065
7.9080525
7.9320339
7.9512365
7.9656485
7.9752613
7.9800692
7.9848857
7.9800749
7.9704563
7.9560357
7.9368217
7.9128259
7.8840628
7.8505497
7.8123068
7.7693572
7.7217268
7.6694442
7.6125409
7.5510513
7.4850125
7.4144641
7.3394488
7.2600117
7.1762007
7.0880664
6.9956618
6.8990427
6.7982672
6.6933961
6.5844927
6.4716225
6.3548535
6.2342562
6.1099032
5.9818695
5.8502322
5.7150707
5.5764664
5.4345029
5.2892657
5.1408424
4.9893223
4.8347969
4.6773593
4.5171043
4.3541285
4.1885301
4.020409
3.8498664
3.6770052
3.5019295
3.3247448
3.1455579
2.9644768
2.7816106
2.5970696
2.4109648
2.2234086
2.0345138
1.8443944
1.6531649
1.4609405
1.267837
1.0739709
0.87945893
0.68441827
0.48896647
0.29322129
0.097300665
-0.098677358
-0.29459473
-0.49033335
-0.68577525
-0.88080304
-1.0752989
-1.2691457
-1.4622267
-1.6544256
-1.8456266
-2.0357146
-2.2245751
-2.4120943
-2.5981592
-2.7826579
-2.9654792
-3.1465131
-3.3256504
-3.5027834
-3.6778053
-3.8506108
-4.0210959
-4.1891579
-4.3546956
-4.5176094
-4.6778012
-4.8351745
-4.9896346
-5.1410887
-5.2894454
-5.4346155
-5.5765116
-5.7150484
-5.8501425
-5.9817125
-6.1096793
-6.2339659
-6.3544976
-6.4712017
-6.5840081
-6.6928489
-6.7976586
-6.8983742
-6.994935
-7.0872831
-7.1753627
-7.2591211
-7.3385077
-7.4134749
-7.4839774
-7.5499731
-7.611422
-7.6682873
-7.7205349
-7.7681331
-7.8110535
-7.8492703
-7.8827603
-7.9115036
-7.9354827
-7.9546834
-7.969094
-7.9787059
-7.9835133
-7.9835133
-7.9787059
-7.969094
-7.9546834
-7.9354827
-7.9115036
-7.8827603
-7.8492703
-7.8110535
-7.7681331
-7.7205349
-7.6682873
-7.611422
-7.5499731
-7.4839774
-7.4134749
-7.3385077
-7.2591211
-7.1753628
-7.0872831
-6.994935
-6.8983742
-6.7976586
-6.6928489
-6.5840081
-6.4712017
-6.3544976
-6.233966
-6.1096793
-5.9817125
-5.8501425
-5.7150484
-5.5765116
-5.4346155
-5.2894454
-5.1410887
-4.9896346
-4.8351745
-4.6778012
-4.5176094
-4.3546956
-4.1891579
-4.0210959
-3.8506109
-3.6778053
-3.5027834
-3.3256504
-3.1465131
-2.9654793
-2.7826579
-2.5981593
-2.4120943
-2.2245751
-2.0357146
-1.8456267
-1.6544256
-1.4622267
-1.2691457
-1.0752989
-0.88080305
-0.68577525
-0.49033335
-0.29459473
-0.098677361
0.097300662
0.29322129
0.48896647
0.68441827
0.87945893
1.0739709
1.267837
1.4609405
1.6531649
1.8443944
2.0345138
2.2234086
2.4109648
2.5970696
2.7816106
2.9644768
3.1455579
3.3247448
3.5019295
3.6770052
3.8498664
4.020409
4.1885301
4.3541285
4.5171043
4.6773593
4.8347969
4.9893223
5.1408424
5.2892657
5.4345029
5.5764664
5.7150707
5.8502322
5.9818695
6.1099032
6.2342562
6.3548535
6.4716225
6.5844927
6.6933961
6.7982672
6.8990427
6.9956618
7.0880664
7.1762007
7.2600117
7.3394488
7.4144641
7.4850125
7.5510513
7.6125409
7.6694442
7.7217268
7.7693572
7.8123068
7.8505497
7.8840628
7.9128259
7.9368217
7.9560357
7.9704563
7.9800749
7.9848857
7.99453
7.9897134
7.9800833
7.9656453
7.9464082
7.9223835
7.8935858
7.8600324
7.8217435
7.7787423
7.7310545
7.678709
7.6217373
7.5601737
7.4940554
7.4234221
7.3483165
7.2687838
7.184872
7.0966316
7.0041158
6.9073803
6.8064835
6.7014862
6.5924516
6.4794455
6.3625359
6.2417933
6.1172906
5.9891026
5.8573067
5.7219824
5.5832111
5.4410765
5.2956642
5.147062
4.9953593
4.8406476
4.6830201
4.5225718
4.3593994
4.1936013
4.0252774
3.854529
3.6814592
3.5061722
3.3287737
3.1493705
2.9680708
2.7849838
2.6002199
2.4138904
2.2261076
2.0369847
1.8466356
1.655175
1.4627183
1.2693815
1.075281
0.88053387
0.6852574
0.48956925
0.29358734
0.097429735
-0.098785374
-0.29493979
-0.49091533
-0.68659387
-0.88185756
-1.0765887
-1.2706702
-1.4639849
-1.6564165
-1.8478491
-2.0381673
-2.2272565
-2.4150028
-2.6012931
-2.7860154
-2.9690582
-3.1503114
-3.3296658
-3.5070135
-3.6822476
-3.8552626
-4.0259544
-4.1942201
-4.3599585
-4.5230699
-4.6834559
-4.8410201
-4.9956676
-5.1473054
-5.2958421
-5.4411883
-5.5832566
-5.7219615
-5.8572195
-5.9889492
-6.1170713
-6.2415088
-6.3621867
-6.4790325
-6.5919758
-6.7009488
-6.8058857
-6.9067236
-7.0034017
-7.0958618
-7.1840485
-7.2679085
-7.3473916
-7.4224498
-7.493038
-7.5591137
-7.6206373
-7.6775717
-7.7298827
-7.7775388
-7.8205113
-7.8587745
-7.8923052
-7.9210834
-7.9450917
-7.9643157
-7.9787438
-7.9883673
-7.9931806
-7.9931806
-7.9883673
-7.9787438
-7.9643157
-7.9450917
-7.9210834
-7.8923052
-7.8587745
-7.8205113
-7.7775388
-7.7298827
-7.6775717
-7.6206373
-7.5591137
-7.493038
-7.4224498
-7.3473916
-7.2679085
-7.1840485
-7.0958618
-7.0034017
-6.9067236
-6.8058857
-6.7009488
-6.5919758
-6.4790325
-6.3621867
-6.2415088
-6.1170713
-5.9889492
-5.8572195
-5.7219615
-5.5832566
-5.4411883
-5.2958421
-5.1473054
-4.9956676
-4.8410201
-4.6834559
-4.5230699
-4.3599585
-4.1942201
-4.0259544
-3.8552626
-3.6822476
-3.5070135
-3.3296658
-3.1503114
-2.9690582
-2.7860154
-2.6012932
-2.4150028
-2.2272565
-2.0381673
-1.8478491
-1.6564165
-1.4639849
-1.2706702
-1.0765887
-0.88185756
-0.68659388
-0.49091533
-0.29493979
-0.098785377
0.097429732
0.29358733
0.48956925
0.68525739
0.88053387
1.075281
1.2693815
1.4627183
1.655175
1.8466356
2.0369847
2.2261076
2.4138904
2.6002199
2.7849838
2.9680708
3.1493705
3.3287737
3.5061722
3.6814592
3.854529
4.0252774
4.1936013
4.3593994
4.5225718
4.6830201
4.8406476
4.9953593
5.147062
5.2956642
5.4410765
5.5832111
5.7219824
5.8573067
5.9891026
6.1172906
6.2417933
6.3625359
6.4794455
6.5924516
6.7014862
6.8064835
6.9073803
7.0041158
7.0966316
7.184872
7.2687838
7.3483165
7.4234221
7.4940554
7.5601737
7.6217373
7.678709
7.7310545
7.7787423
7.8217435
7.8600324
7.8935858
7.9223835
7.9464082
7.9656453
7.9800833
7.9897134
7.99453
8.0089847
8.0041594
7.9945119
7.9800479
7.9607761
7.9367081
7.9078584
7.8742445
7.8358866
7.7928077
7.7450339
7.692594
7.6355195
7.5738448
7.5076072
7.4368465
7.3616054
7.2819292
7.197866
7.1094663
7.0167836
6.9198735
6.8187947
6.7136078
6.6043764
6.4911663
6.3740457
6.2530852
6.1283576
5.9999382
5.8679044
5.7323357
5.5933138
5.4509225
5.3052477
5.156377
5.0044003
4.8494092
4.6914969
4.5307588
4.3672916
4.2011939
4.0325658
3.8615089
3.6881263
3.5125225
3.3348033
3.1550759
2.9734484
2.7900305
2.6049325
2.4182661
2.2301437
2.0406788
1.8499854
1.6581785
1.4653737
1.2716872
1.0772356
0.88213611
0.68650632
0.49046409
0.29412753
0.097614945
-0.098955275
-0.29546471
-0.49179496
-0.68782774
-0.88344487
-1.0785286
-1.2729614
-1.4666261
-1.6594062
-1.8511853
-2.0418482
-2.2312798
-2.4193662
-2.6059939
-2.7910507
-2.9744251
-3.1560066
-3.335686
-3.5133549
-3.6889065
-3.8622349
-4.033236
-4.2018066
-4.3678453
-4.5312522
-4.6919289
-4.8497786
-5.0047064
-5.156619
-5.3054249
-5.4510345
-5.5933603
-5.7323166
-5.8678198
-5.9997883
-6.1281426
-6.2528057
-6.3737024
-6.49076
-6.603908
-6.7130785
-6.8182057
-6.9192264
-7.0160797
-7.1087076
-7.1970541
-7.2810662
-7.3606933
-7.4358876
-7.5066038
-7.5727994
-7.6344345
-7.6914721
-7.743878
-7.7916205
-7.8346709
-7.8730034
-7.906595
-7.9354253
-7.9594772
-7.978736
-7.9931903
-8.0028313
-8.0076533
-8.0076533
-8.0028313
-7.9931903
-7.978736
-7.9594772
-7.9354253
-7.906595
-7.8730034
-7.8346709
-7.7916205
-7.743878
-7.6914721
-7.6344345
-7.5727994
-7.5066038
-7.4358876
-7.3606933
-7.2810662
-7.1970541
-7.1087076
-7.0160798
-6.9192264
-6.8182057
-6.7130785
-6.603908
-6.49076
-6.3737024
-6.2528057
-6.1281426
-5.9997883
-5.8678198
-5.7323166
-5.5933604
-5.4510345
-5.3054249
-5.156619
-5.0047064
-4.8497787
-4.6919289
-4.5312522
-4.3678453
-4.2018066
-4.033236
-3.8622349
-3.6889065
-3.5133549
-3.335686
-3.1560066
-2.9744251
-2.7910507
-2.6059939
-2.4193662
-2.2312798
-2.0418482
-1.8511854
-1.6594062
-1.4666261
-1.2729614
-1.0785286
-0.88344487
-0.68782774
-0.49179496
-0.29546471
-0.098955278
0.097614943
0.29412753
0.49046408
0.68650631
0.8821361
1.0772356
1.2716872
1.4653737
1.6581785
1.8499854
2.0406788
2.2301437
2.4182661
2.6049325
2.7900305
2.9734484
3.1550759
3.3348033
3.5125225
3.6881263
3.8615089
4.0325658
4.2011939
4.3672916
4.5307588
4.6914969
4.8494092
5.0044003
5.156377
5.3052477
5.4509225
5.5933138
5.7323357
5.8679044
5.9999382
6.1283576
6.2530852
6.3740457
6.4911663
6.6043764
6.7136078
6.8187947
6.9198735
7.0167836
7.1094663
7.197866
7.2819292
7.3616054
7.4368465
7.5076072
7.5738448
7.6355195
7.692594
7.7450339
7.7928077
7.8358866
7.8742445
7.9078584
7.9367081
7.9607761
7.9800479
7.9945119
8.0041594
8.0089847
8.0282612
8.0234244
8.0137537
7.9992549
7.9799368
7.955811
7.926892
7.8931973
7.8547472
7.8115648
7.7636762
7.7111103
7.6538986
7.5920758
7.525679
7.4547482
7.3793263
7.2994586
7.2151934
7.1265812
7.0336757
6.9365328
6.8352109
6.7297712
6.6202772
6.506795
6.3893928
6.2681414
6.143114
6.0143859
5.8820346
5.7461399
5.6067837
5.46405
5.3180248
5.1687961
5.0164539
4.8610899
4.7027978
4.541673
4.3778126
4.2113153
4.0422815
3.870813
3.6970132
3.5209869
3.34284
3.16268
2.9806154
2.796756
2.6112125
2.4240968
2.2355216
2.0456006
1.8544481
1.6621794
1.4689104
1.2747575
1.0798377
0.88426838
0.68816748
0.49165312
0.29484371
0.097857817
-0.099185866
-0.29616863
-0.49297179
-0.68947677
-0.88556517
-1.0811189
-1.2760201
-1.4701515
-1.663396
-1.8556373
-2.0467595
-2.2366476
-2.4251872
-2.6122647
-2.7977675
-2.9815838
-3.1636029
-3.3437153
-3.5218124
-3.6977871
-3.8715333
-4.0429465
-4.2119235
-4.3783625
-4.5421633
-4.7032273
-4.8614575
-5.0167587
-5.1690375
-5.3182021
-5.4641628
-5.6068317
-5.746123
-5.8819529
-6.0142395
-6.1429033
-6.2678669
-6.3890551
-6.5063949
-6.6198158
-6.7292494
-6.8346301
-6.9358943
-7.0329812
-7.1258324
-7.2143919
-7.2986066
-7.3784257
-7.4538013
-7.524688
-7.5910432
-7.6528269
-7.7100021
-7.7625342
-7.8103919
-7.8535461
-7.8919711
-7.9256436
-7.9545435
-7.9786533
-7.9979586
-8.0124477
-8.022112
-8.0269456
-8.0269456
-8.022112
-8.0124477
-7.9979586
-7.9786533
-7.9545435
-7.9256436
-7.8919711
-7.8535461
-7.8103919
-7.7625342
-7.7100021
-7.6528269
-7.5910432
-7.524688
-7.4538013
-7.3784257
-7.2986066
-7.2143919
-7.1258324
-7.0329812
-6.9358943
-6.8346301
-6.7292494
-6.6198158
-6.5063949
-6.3890551
-6.2678669
-6.1429033
-6.0142395
-5.8819529
-5.746123
-5.6068317
-5.4641628
-5.3182021
-5.1690375
-5.0167587
-4.8614575
-4.7032273
-4.5421633
-4.3783625
-4.2119235
-4.0429465
-3.8715333
-3.6977871
-3.5218124
-3.3437153
-3.1636029
-2.9815838
-2.7977675
-2.6122647
-2.4251872
-2.2366476
-2.0467595
-1.8556373
-1.663396
-1.4701515
-1.2760201
-1.0811189
-0.88556518
-0.68947677
-0.49297179
-0.29616863
-0.099185869
0.097857814
0.2948437
0.49165312
0.68816748
0.88426838
1.0798377
1.2747575
1.4689104
1.6621794
1.8544481
2.0456006
2.2355216
2.4240968
2.6112125
2.796756
2.9806154
3.16268
3.34284
3.5209869
3.6970132
3.870813
4.0422815
4.2113153
4.3778126
4.541673
4.7027978
4.8610899
5.0164539
5.1687961
5.3180248
5.46405
5.6067837
5.7461399
5.8820346
6.0143859
6.143114
6.2681414
6.3893928
6.506795
6.6202772
6.7297712
6.8352109
6.9365327
7.0336757
7.1265812
7.2151934
7.2994586
7.3793263
7.4547482
7.525679
7.5920758
7.6538986
7.7111103
7.7636762
7.8115648
7.8547472
7.8931973
7.926892
7.955811
7.9799368
7.9992549
8.0137537
8.0234244
8.0282612
8.0523729
8.0475215
8.0378218
8.0232796
8.0039035
7.9797053
7.9506996
7.9169038
7.8783384
7.8350265
7.7869943
7.7342707
7.6768874
7.6148791
7.5482831
7.4771396
7.4014914
7.3213842
7.2368661
7.1479881
7.0548039
6.9573694
6.8557436
6.7499875
6.640165
6.5263422
6.4085878
6.2869726
6.16157
6.0324555
5.899707
5.7634044
5.62363
5.4804679
5.3340044
5.1843277
5.0315282
4.8756978
4.7169305
4.555322
4.3909696
4.2239724
4.0544311
3.8824477
3.7081261
3.5315711
3.3528893
3.1721882
2.9895768
2.8051652
2.6190644
2.4313867
2.242245
2.0517535
1.8600268
1.6671805
1.4733308
1.2785946
1.0830891
0.88693221
0.69024208
0.49313722
0.2957364
0.098158558
-0.099477269
-0.29705201
-0.49444662
-0.69154217
-0.88821994
-1.0843614
-1.2798485
-1.4745633
-1.6683887
-1.8612078
-2.0529046
-2.2433635
-2.4324699
-2.6201098
-2.8061702
-2.9905391
-3.1731054
-3.3537593
-3.5323919
-3.7088956
-3.8831642
-4.0550928
-4.2245778
-4.3915172
-4.5558105
-4.7173587
-4.8760647
-5.0318329
-5.1845695
-5.3341827
-5.4805822
-5.6236801
-5.7633902
-5.8996285
-6.0323129
-6.1613636
-6.2867029
-6.4082555
-6.5259481
-6.63971
-6.7494728
-6.8551703
-6.956739
-7.0541178
-7.1472482
-7.236074
-7.3205419
-7.400601
-7.4762032
-7.5473031
-7.6138578
-7.6758273
-7.7331744
-7.7858645
-7.833866
-7.87715
-7.9156905
-7.9494643
-7.9784511
-8.0026334
-8.0219967
-8.0365294
-8.0462227
-8.0510709
-8.0510709
-8.0462227
-8.0365294
-8.0219967
-8.0026334
-7.9784511
-7.9494643
-7.9156905
-7.87715
-7.833866
-7.7858645
-7.7331744
-7.6758273
-7.6138578
-7.5473031
-7.4762032
-7.400601
-7.3205419
-7.236074
-7.1472482
-7.0541178
-6.956739
-6.8551703
-6.7494728
-6.63971
-6.5259481
-6.4082555
-6.2867029
-6.1613636
-6.0323129
-5.8996285
-5.7633902
-5.6236801
-5.4805822
-5.3341827
-5.1845695
-5.0318329
-4.8760647
-4.7173587
-4.5558105
-4.3915172
-4.2245778
-4.0550928
-3.8831642
-3.7088956
-3.5323919
-3.3537593
-3.1731054
-2.9905391
-2.8061702
-2.6201098
-2.4324699
-2.2433635
-2.0529046
-1.8612078
-1.6683887
-1.4745633
-1.2798485
-1.0843614
-0.88821994
-0.69154217
-0.49444662
-0.29705201
-0.09947727
0.098158558
0.2957364
0.49313722
0.69024208
0.88693221
1.0830891
1.2785946
1.4733308
1.6671805
1.8600268
2.0517535
2.242245
2.4313867
2.6190644
2.8051652
2.9895768
3.1721882
3.3528893
3.5315711
3.7081261
3.8824477
4.0544311
4.2239724
4.3909696
4.555322
4.7169305
4.8756978
5.0315282
5.1843277
5.3340044
5.4804679
5.62363
5.7634044
5.899707
6.0324555
6.16157
6.2869726
6.4085878
6.5263422
6.640165
6.7499875
6.8557436
6.9573694
7.0548039
7.1479881
7.2368661
7.3213842
7.4014914
7.4771396
7.5482831
7.6148791
7.6768874
7.7342707
7.7869943
7.8350265
7.8783384
7.9169038
7.9506996
7.9797053
8.0039035
8.0232796
8.0378218
8.0475215
8.0523729
8.0813341
8.0764654
8.0667308
8.0521363
8.0326906
8.0084055
7.9792956
7.9453784
7.9066744
7.8632069
7.8150021
7.762089
7.7044996
7.6422685
7.5754332
7.5040341
7.4281141
7.3477189
7.2628971
7.1736998
7.0801807
6.9823961
6.880405
6.7742689
6.6640517
6.5498198
6.4316421
6.3095898
6.1837365
6.0541579
5.9209322
5.7841397
5.6438628
5.500186
5.353196
5.2029812
5.0496323
4.8932417
4.7339035
4.5717139
4.4067706
4.2391729
4.0690219
3.8964201
3.7214715
3.5442816
3.3649571
3.1836061
3.0003379
2.815263
2.6284928
2.44014
2.2503179
2.0591411
1.8667247
1.6731846
1.4786375
1.2832007
1.0869918
0.89012912
0.69273128
0.4949172
0.29680608
0.098517276
-0.099829735
-0.29811545
-0.49622041
-0.69402525
-0.89141082
-1.0882582
-1.2844488
-1.4798644
-1.6743874
-1.8679005
-2.0602872
-2.2514316
-2.4412186
-2.6295339
-2.816264
-3.0012965
-3.18452
-3.3658241
-3.5450997
-3.7222387
-3.8971346
-4.069682
-4.2397771
-4.4073174
-4.5722021
-4.7343318
-4.8936091
-5.049938
-5.2032244
-5.353376
-5.5003026
-5.6439156
-5.7841286
-5.9208572
-6.0540192
-6.1835344
-6.3093249
-6.431315
-6.5494313
-6.6636027
-6.7737605
-6.8798385
-6.9817728
-7.0795021
-7.1729676
-7.2621132
-7.3468851
-7.4272324
-7.5031067
-7.5744625
-7.6412567
-7.7034493
-7.7610028
-7.8138826
-7.8620568
-7.9054966
-7.9441758
-7.9780712
-8.0071623
-8.0314316
-8.0508647
-8.0654497
-8.0751779
-8.0800435
-8.0800435
-8.0751779
-8.0654497
-8.0508647
-8.0314316
-8.0071623
-7.9780712
-7.9441758
-7.9054966
-7.8620568
-7.8138826
-7.7610028
-7.7034493
-7.6412567
-7.5744625
-7.5031067
-7.4272324
-7.3468851
-7.2621132
-7.1729676
-7.0795021
-6.9817728
-6.8798385
-6.7737605
-6.6636027
-6.5494313
-6.431315
-6.3093249
-6.1835344
-6.0540192
-5.9208572
-5.7841286
-5.6439156
-5.5003026
-5.353376
-5.2032244
-5.049938
-4.8936091
-4.7343318
-4.5722021
-4.4073174
-4.2397771
-4.069682
-3.8971346
-3.7222387
-3.5450997
-3.3658241
-3.18452
-3.0012965
-2.816264
-2.6295339
-2.4412186
-2.2514316
-2.0602872
-1.8679005
-1.6743874
-1.4798644
-1.2844488
-1.0882582
-0.89141082
-0.69402525
-0.49622041
-0.29811545
-0.099829734
0.098517276
0.29680608
0.4949172
0.69273128
0.89012912
1.0869918
1.2832007
1.4786375
1.6731846
1.8667247
2.0591411
2.2503179
2.44014
2.6284928
2.815263
3.0003379
3.1836061
3.3649571
3.5442816
3.7214715
3.8964201
4.0690219
4.2391729
4.4067706
4.5717139
4.7339035
4.8932417
5.0496323
5.2029812
5.353196
5.500186
5.6438628
5.7841397
5.9209322
6.0541579
6.1837365
6.3095898
6.4316421
6.5498198
6.6640517
6.7742689
6.880405
6.9823961
7.0801807
7.1736998
7.2628971
7.3477189
7.4281141
7.5040341
7.5754332
7.6422685
7.7044996
7.762089
7.8150021
7.8632069
7.9066744
7.9453784
7.9792956
8.0084055
8.0326906
8.0521363
8.0667308
8.0764654
8.0813341
8.1151623
8.1102732
8.1004979
8.0858424
8.0663154
8.0419287
8.012697
7.978638
7.9397721
7.8961228
7.8477164
7.794582
7.7367517
7.6742603
7.6071455
7.5354477
7.4592101
7.3784787
7.2933021
7.2037317
7.1098213
7.0116277
6.90921
6.8026299
6.6919516
6.5772418
6.4585697
6.3360067
6.2096268
6.0795061
5.945723
5.8083581
5.6674942
5.5232162
5.3756111
5.2247678
5.0707771
4.913732
4.753727
4.5908586
4.4252249
4.2569258
4.0860626
3.9127383
3.7370574
3.5591258
3.3790507
3.1969406
3.0129052
2.8270554
2.6395033
2.4503619
2.2597451
2.0677679
1.8745458
1.6801954
1.4848337
1.2885785
1.0915481
0.89386103
0.69563658
0.49699413
0.29805338
0.098934184
-0.10024347
-0.2993596
-0.49829422
-0.69692748
-0.89513972
-1.0928115
-1.2898238
-1.4860579
-1.6813956
-1.8757192
-2.0689117
-2.2608567
-2.4514386
-2.6405427
-2.8280549
-3.0138624
-3.1978534
-3.3799169
-3.5599434
-3.7378244
-3.9134528
-4.086723
-4.2575305
-4.4257725
-4.5913478
-4.7541567
-4.9141011
-5.0710848
-5.2250132
-5.3757938
-5.5233357
-5.6675502
-5.8083505
-5.9456518
-6.0793715
-6.2094291
-6.3357465
-6.4582475
-6.5768584
-6.691508
-6.8021272
-6.9086494
-7.0110106
-7.1091492
-7.2030062
-7.2925251
-7.377652
-7.4583358
-7.5345279
-7.6061825
-7.6732564
-7.7357095
-7.793504
-7.8466052
-7.8949812
-7.9386029
-7.9774441
-8.0114814
-8.0406943
-8.0650653
-8.0845797
-8.0992258
-8.1089947
-8.1138807
-8.1138807
-8.1089947
-8.0992258
-8.0845797
-8.0650653
-8.0406943
-8.0114814
-7.9774441
-7.9386029
-7.8949812
-7.8466052
-7.793504
-7.7357095
-7.6732564
-7.6061825
-7.5345279
-7.4583358
-7.377652
-7.2925251
-7.2030062
-7.1091492
-7.0110106
-6.9086494
-6.8021272
-6.691508
-6.5768584
-6.4582475
-6.3357465
-6.2094291
-6.0793715
-5.9456518
-5.8083505
-5.6675502
-5.5233357
-5.3757938
-5.2250132
-5.0710847
-4.9141011
-4.7541567
-4.5913478
-4.4257725
-4.2575305
-4.086723
-3.9134528
-3.7378244
-3.5599433
-3.3799169
-3.1978534
-3.0138624
-2.8280549
-2.6405427
-2.4514386
-2.2608567
-2.0689117
-1.8757192
-1.6813956
-1.4860579
-1.2898238
-1.0928115
-0.89513972
-0.69692748
-0.49829421
-0.2993596
-0.10024347
0.098934186
0.29805338
0.49699413
0.69563658
0.89386104
1.0915481
1.2885785
1.4848337
1.6801954
1.8745458
2.0677679
2.2597451
2.4503619
2.6395033
2.8270554
3.0129052
3.1969406
3.3790507
3.5591258
3.7370574
3.9127383
4.0860626
4.2569258
4.4252249
4.5908586
4.753727
4.913732
5.0707771
5.2247678
5.3756111
5.5232162
5.6674942
5.8083581
5.945723
6.0795061
6.2096268
6.3360067
6.4585697
6.5772418
6.6919516
6.8026299
6.90921
7.0116277
7.1098213
7.2037317
7.2933021
7.3784787
7.4592101
7.5354477
7.6071455
7.6742603
7.7367517
7.794582
7.8477164
7.8961228
7.9397721
7.978638
8.012697
8.0419287
8.0663154
8.0858424
8.1004979
8.1102732
8.1151623
8.1538778
8.1489654
8.1391435
8.1244181
8.104798
8.080295
8.050924
8.0167026
7.9776514
7.933794
7.8851569
7.8317692
7.7736631
7.7108738
7.643439
7.5713994
7.4947983
7.413682
7.3280993
7.2381018
7.1437437
7.0450819
6.9421758
6.8350875
6.7238814
6.6086246
6.4893866
6.3662392
6.2392566
6.1085153
5.9740942
5.8360742
5.6945385
5.5495724
5.4012633
5.2497005
5.0949753
4.9371811
4.7764129
4.6127676
4.4463438
4.2772418
4.1055635
3.9314124
3.7548934
3.5761129
3.3951786
3.2121996
3.0272861
2.8405496
2.6521026
2.4620587
2.2705324
2.0776391
1.883495
1.6882171
1.4919232
1.2947314
1.0967607
0.89813021
0.69895974
0.49936928
0.29947906
0.099409549
-0.10071872
-0.30078518
-0.50066928
-0.70025059
-0.89940889
-1.0980242
-1.2959768
-1.4931475
-1.6894176
-1.8846687
-2.0787834
-2.2716446
-2.4631361
-2.6531428
-2.8415501
-3.0282445
-3.2131136
-3.3960461
-3.5769319
-3.755662
-3.9321287
-4.1062259
-4.2778487
-4.4468938
-4.6132593
-4.7768453
-4.9375531
-5.095286
-5.2499491
-5.4014493
-5.5496954
-5.6945982
-5.8360705
-5.9740271
-6.108385
-6.2390633
-6.3659835
-6.4890691
-6.6082461
-6.7234428
-6.8345899
-6.9416205
-7.0444702
-7.1430771
-7.237382
-7.327328
-7.4128612
-7.49393
-7.5704856
-7.6424821
-7.7098762
-7.7726272
-7.8306975
-7.8840521
-7.9326589
-7.9764888
-8.0155153
-8.049715
-8.0790673
-8.1035546
-8.1231621
-8.1378781
-8.1476936
-8.1526029
-8.1526029
-8.1476936
-8.1378781
-8.1231621
-8.1035546
-8.0790673
-8.049715
-8.0155153
-7.9764888
-7.9326589
-7.8840521
-7.8306975
-7.7726272
-7.7098762
-7.6424821
-7.5704856
-7.49393
-7.4128612
-7.327328
-7.237382
-7.1430771
-7.0444702
-6.9416205
-6.8345899
-6.7234428
-6.6082461
-6.4890691
-6.3659835
-6.2390633
-6.1083849
-5.974027
-5.8360705
-5.6945982
-5.5496954
-5.4014493
-5.2499491
-5.095286
-4.937553
-4.7768452
-4.6132593
-4.4468937
-4.2778487
-4.1062259
-3.9321287
-3.755662
-3.5769319
-3.3960461
-3.2131136
-3.0282445
-2.84155
-2.6531428
-2.4631361
-2.2716445
-2.0787834
-1.8846687
-1.6894176
-1.4931475
-1.2959768
-1.0980242
-0.89940888
-0.70025059
-0.50066927
-0.30078518
-0.10071872
0.099409553
0.29947907
0.49936928
0.69895975
0.89813021
1.0967607
1.2947314
1.4919232
1.6882171
1.883495
2.0776391
2.2705324
2.4620587
2.6521027
2.8405496
3.0272861
3.2121996
3.3951786
3.5761129
3.7548934
3.9314124
4.1055635
4.2772418
4.4463438
4.6127676
4.7764129
4.9371811
5.0949753
5.2497005
5.4012633
5.5495724
5.6945385
5.8360742
5.9740942
6.1085153
6.2392566
6.3662392
6.4893866
6.6086246
6.7238814
6.8350875
6.9421758
7.0450819
7.1437437
7.2381018
7.3280993
7.413682
7.4947983
7.5713994
7.643439
7.7108738
7.7736631
7.8317692
7.8851568
7.933794
7.9776514
8.0167026
8.050924
8.080295
8.104798
8.1244181
8.1391435
8.1489654
8.1538778
8.1975038
8.1925651
8.1826907
8.1678866
8.1481616
8.1235276
8.0939996
8.0595952
8.0203352
7.9762433
7.927346
7.8736729
7.8152562
7.7521311
7.6843357
7.6119108
7.5349002
7.4533501
7.3673097
7.2768309
7.1819682
7.0827787
6.9793223
6.8716612
6.7598604
6.6439873
6.5241115
6.4003054
6.2726437
6.1412031
6.006063
5.8673047
5.7250119
5.5792704
5.4301679
5.2777943
5.1222415
4.9636031
4.8019749
4.6374541
4.4701399
4.3001332
4.1275364
3.9524535
3.77499
3.5952529
3.4133505
3.2293924
3.0434895
2.8557538
2.6662984
2.4752375
2.2826862
2.0887606
1.8935775
1.6972546
1.4999101
1.301663
1.1026328
0.90293923
0.70270279
0.50204408
0.30108401
0.099943669
-0.10125576
-0.30239305
-0.50334701
-0.70399658
-0.90422087
-1.1038993
-1.3029114
-1.5011376
-1.6984582
-1.8947544
-2.0899081
-2.2838016
-2.4763181
-2.6673418
-2.8567575
-3.0444512
-3.2303099
-3.4142216
-3.5960755
-3.7757622
-3.9531735
-4.1282025
-4.3007439
-4.4706937
-4.6379497
-4.8024112
-4.9639791
-5.1225562
-5.2780471
-5.4303581
-5.5793976
-5.7250759
-5.8673053
-6.0060002
-6.1410771
-6.2724548
-6.4000542
-6.5237984
-6.6436132
-6.7594264
-6.8711682
-6.9787715
-7.0821715
-7.1813061
-7.2761156
-7.3665429
-7.4525337
-7.5340363
-7.6110016
-7.6833833
-7.7511379
-7.8142247
-7.8726057
-7.9262458
-7.9751127
-8.019177
-8.0584124
-8.092795
-8.1223044
-8.1469227
-8.1666351
-8.1814298
-8.1912979
-8.1962334
-8.1962334
-8.1912979
-8.1814298
-8.1666351
-8.1469227
-8.1223044
-8.092795
-8.0584124
-8.019177
-7.9751127
-7.9262458
-7.8726057
-7.8142247
-7.7511379
-7.6833833
-7.6110016
-7.5340363
-7.4525337
-7.3665429
-7.2761156
-7.1813061
-7.0821715
-6.9787715
-6.8711682
-6.7594263
-6.6436132
-6.5237984
-6.4000541
-6.2724548
-6.1410771
-6.0060002
-5.8673053
-5.7250759
-5.5793976
-5.4303581
-5.2780471
-5.1225562
-4.9639791
-4.8024112
-4.6379497
-4.4706937
-4.3007439
-4.1282025
-3.9531735
-3.7757622
-3.5960755
-3.4142216
-3.2303099
-3.0444512
-2.8567575
-2.6673418
-2.4763181
-2.2838016
-2.0899081
-1.8947544
-1.6984582
-1.5011376
-1.3029114
-1.1038993
-0.90422087
-0.70399658
-0.50334701
-0.30239305
-0.10125576
0.099943672
0.30108402
0.50204408
0.70270279
0.90293924
1.1026328
1.301663
1.4999101
1.6972546
1.8935775
2.0887606
2.2826862
2.4752375
2.6662984
2.8557538
3.0434895
3.2293924
3.4133505
3.5952529
3.77499
3.9524535
4.1275364
4.3001332
4.4701399
4.6374541
4.8019749
4.9636031
5.1222415
5.2777943
5.4301679
5.5792704
5.7250119
5.8673047
6.006063
6.1412031
6.2726437
6.4003054
6.5241115
6.6439873
6.7598604
6.8716613
6.9793223
7.0827787
7.1819682
7.2768309
7.3673097
7.4533501
7.5349002
7.6119108
7.6843357
7.7521311
7.8152562
7.8736729
7.927346
7.9762433
8.0203352
8.0595952
8.0939996
8.1235276
8.1481616
8.1678866
8.1826907
8.1925651
8.1975038
8.2460667
8.2410988
8.2311659
8.2162741
8.1964323
8.1716525
8.1419496
8.1073415
8.0678491
8.0234961
7.9743093
7.9203184
7.8615558
7.7980569
7.7298601
7.6570064
7.5795397
7.4975067
7.4109569
7.3199423
7.2245178
7.124741
7.0206719
6.9123733
6.7999104
6.683351
6.5627653
6.438226
6.3098081
6.1775891
6.0416486
5.9020685
5.7589329
5.6123281
5.4623425
5.3090663
5.1525921
4.993014
4.8304283
4.6649329
4.4966276
4.3256138
4.1519944
3.9758743
3.7973595
3.6165575
3.4335774
3.2485294
3.061525
2.872677
2.682099
2.4899061
2.2962139
2.1011392
1.9047996
1.7073133
1.5087995
1.3093776
1.1091679
0.90829101
0.70686798
0.50502016
0.30286919
0.10053687
-0.1018549
-0.30418417
-0.50632903
-0.7081677
-0.90957858
-1.1104403
-1.3106319
-1.5100328
-1.7085228
-1.9059823
-2.1022925
-2.2973351
-2.4909926
-2.6831483
-2.8736865
-3.0624926
-3.2494526
-3.4344542
-3.6173858
-3.7981373
-3.9765999
-4.1526661
-4.3262299
-4.4971869
-4.665434
-4.8308699
-4.9933952
-5.152912
-5.3093242
-5.4625377
-5.6124603
-5.7590017
-5.9020738
-6.0415904
-6.1774676
-6.3096237
-6.437979
-6.5624564
-6.682981
-6.7994803
-6.9118841
-7.0201249
-7.1241374
-7.2238593
-7.3192304
-7.4101934
-7.4966936
-7.578679
-7.6561002
-7.7289107
-7.7970666
-7.8605271
-7.9192539
-7.9732117
-8.022368
-8.0666934
-8.1061611
-8.1407474
-8.1704316
-8.1951957
-8.2150248
-8.2299072
-8.2398337
-8.2447985
-8.2447985
-8.2398337
-8.2299072
-8.2150248
-8.1951957
-8.1704316
-8.1407474
-8.1061611
-8.0666934
-8.022368
-7.9732117
-7.9192539
-7.8605271
-7.7970666
-7.7289106
-7.6561002
-7.578679
-7.4966936
-7.4101934
-7.3192304
-7.2238593
-7.1241374
-7.0201249
-6.9118841
-6.7994803
-6.682981
-6.5624564
-6.437979
-6.3096237
-6.1774676
-6.0415904
-5.9020738
-5.7590017
-5.6124603
-5.4625377
-5.3093242
-5.152912
-4.9933952
-4.8308699
-4.6654339
-4.4971869
-4.3262299
-4.1526661
-3.9765999
-3.7981373
-3.6173858
-3.4344542
-3.2494526
-3.0624925
-2.8736865
-2.6831483
-2.4909926
-2.2973351
-2.1022925
-1.9059823
-1.7085228
-1.5100328
-1.3106319
-1.1104403
-0.90957858
-0.7081677
-0.50632903
-0.30418416
-0.1018549
0.10053687
0.3028692
0.50502017
0.70686798
0.90829102
1.1091679
1.3093776
1.5087995
1.7073133
1.9047996
2.1011392
2.2962139
2.4899061
2.682099
2.872677
3.061525
3.2485294
3.4335774
3.6165575
3.7973595
3.9758743
4.1519944