/*--------------------------------*- C++ -*----------------------------------*\
| =========                 |                                                 |
| \\      /  F ield         | OpenFOAM: The Open Source CFD Toolbox           |
|  \\    /   O peration     | Version:  2106                                  |
|   \\  /    A nd           | Website:  www.openfoam.com                      |
|    \\/     M anipulation  |                                                 |
\*---------------------------------------------------------------------------*/
FoamFile
{
    version     2.0;
    format      ascii;
    arch        "LSB;label=32;scalar=64";
    class       surfaceScalarField;
    location    "0.029";
    object      phi_0;
}
// * * * * * * * * * * * * * * * * * * * * * * * * * * * * * * * * * * * * * //

dimensions      [0 3 -1 0 0 0 0];

oriented        oriented;

internalField   nonuniform List<scalar> 
130560
(
-1.6946226e-06
1.6946226e-06
-3.3885194e-06
1.6938968e-06
-5.0809642e-06
1.6924449e-06
-6.7712305e-06
1.6902663e-06
-8.4585907e-06
1.6873602e-06
-1.0142316e-05
1.6837255e-06
-1.1821677e-05
1.6793607e-06
-1.3495941e-05
1.6742644e-06
-1.5164376e-05
1.6684345e-06
-1.6826245e-05
1.6618691e-06
-1.848081e-05
1.6545657e-06
-2.0127332e-05
1.6465218e-06
-2.1765067e-05
1.6377349e-06
-2.3393269e-05
1.6282019e-06
-2.5011189e-05
1.6179201e-06
-2.6618075e-05
1.6068862e-06
-2.8213172e-05
1.595097e-06
-2.9795722e-05
1.5825495e-06
-3.1364962e-05
1.5692402e-06
-3.2920128e-05
1.5551659e-06
-3.4460451e-05
1.5403234e-06
-3.5985161e-05
1.5247094e-06
-3.7493482e-05
1.508321e-06
-3.8984637e-05
1.4911551e-06
-4.0457846e-05
1.473209e-06
-4.1912326e-05
1.4544799e-06
-4.3347291e-05
1.4349655e-06
-4.4761955e-05
1.4146637e-06
-4.6155528e-05
1.3935727e-06
-4.7527218e-05
1.3716909e-06
-4.8876236e-05
1.3490172e-06
-5.0201786e-05
1.3255508e-06
-5.1503078e-05
1.3012915e-06
-5.2779318e-05
1.2762395e-06
-5.4029713e-05
1.2503955e-06
-5.5253474e-05
1.2237606e-06
-5.644981e-05
1.1963368e-06
-5.7617937e-05
1.1681263e-06
-5.8757069e-05
1.1391323e-06
-5.9866428e-05
1.1093586e-06
-6.0945237e-05
1.0788095e-06
-6.1992728e-05
1.0474903e-06
-6.3008134e-05
1.0154069e-06
-6.39907e-05
9.8256598e-07
-6.4939676e-05
9.4897513e-07
-6.5854318e-05
9.1464274e-07
-6.6733896e-05
8.7957804e-07
-6.7577687e-05
8.4379116e-07
-6.8384981e-05
8.0729314e-07
-6.9155077e-05
7.7009593e-07
-6.9887289e-05
7.3221242e-07
-7.0580945e-05
6.9365645e-07
-7.1235388e-05
6.5444281e-07
-7.1849975e-05
6.1458728e-07
-7.2424082e-05
5.7410663e-07
-7.2957101e-05
5.3301858e-07
-7.3448443e-05
4.9134189e-07
-7.3897539e-05
4.4909628e-07
-7.4303841e-05
4.0630247e-07
-7.4666824e-05
3.6298219e-07
-7.4985982e-05
3.1915813e-07
-7.5260836e-05
2.74854e-07
-7.549093e-05
2.3009443e-07
-7.5675835e-05
1.8490506e-07
-7.5815148e-05
1.3931241e-07
-7.5908491e-05
9.3343789e-08
-7.5955518e-05
4.7026954e-08
-7.5955919e-05
4.0085367e-10
-7.5909392e-05
-4.6527462e-08
-7.5815688e-05
-9.3703986e-08
-7.5674582e-05
-1.4110618e-07
-7.5485881e-05
-1.8870064e-07
-7.5249427e-05
-2.3645373e-07
-7.4965096e-05
-2.843312e-07
-7.4632798e-05
-3.3229811e-07
-7.4252479e-05
-3.8031884e-07
-7.3824122e-05
-4.2835716e-07
-7.3347746e-05
-4.7637623e-07
-7.2823407e-05
-5.2433865e-07
-7.22512e-05
-5.7220652e-07
-7.1631259e-05
-6.1994145e-07
-7.0963754e-05
-6.6750463e-07
-7.0248898e-05
-7.1485687e-07
-6.9486939e-05
-7.6195864e-07
-6.8678169e-05
-8.0877015e-07
-6.7822917e-05
-8.5525135e-07
-6.6921555e-05
-9.0136202e-07
-6.5974494e-05
-9.4706182e-07
-6.4982183e-05
-9.9231032e-07
-6.3945116e-05
-1.0370671e-06
-6.2863824e-05
-1.0812917e-06
-6.1738881e-05
-1.1249438e-06
-6.0570897e-05
-1.1679833e-06
-5.9360527e-05
-1.2103703e-06
-5.8108462e-05
-1.2520649e-06
-5.6815434e-05
-1.2930278e-06
-5.5482214e-05
-1.3332201e-06
-5.4109611e-05
-1.3726031e-06
-5.2698473e-05
-1.4111387e-06
-5.1249683e-05
-1.4487895e-06
-4.9764164e-05
-1.4855186e-06
-4.8242875e-05
-1.5212896e-06
-4.6686808e-05
-1.5560671e-06
-4.5096992e-05
-1.5898162e-06
-4.3474488e-05
-1.6225031e-06
-4.1820394e-05
-1.6540947e-06
-4.0135835e-05
-1.684559e-06
-3.842197e-05
-1.7138647e-06
-3.6679988e-05
-1.7419818e-06
-3.4911107e-05
-1.7688814e-06
-3.3116571e-05
-1.7945355e-06
-3.1297654e-05
-1.8189175e-06
-2.9455652e-05
-1.842002e-06
-2.7591887e-05
-1.8637647e-06
-2.5707704e-05
-1.8841828e-06
-2.380447e-05
-1.9032347e-06
-2.1883569e-05
-1.9209003e-06
-1.9946409e-05
-1.9371608e-06
-1.7994409e-05
-1.9519991e-06
-1.602901e-05
-1.9653991e-06
-1.4051664e-05
-1.9773467e-06
-1.2063834e-05
-1.9878291e-06
-1.0066999e-05
-1.996835e-06
-8.0626447e-06
-2.0043548e-06
-6.0522644e-06
-2.0103803e-06
-4.0373593e-06
-2.0149051e-06
-2.0194349e-06
-2.0179244e-06
-1.9454748e-15
-2.0194349e-06
2.0194348e-06
-2.0194349e-06
4.0373593e-06
-2.0179244e-06
6.0522644e-06
-2.0149051e-06
8.0626447e-06
-2.0103803e-06
1.0066999e-05
-2.0043548e-06
1.2063834e-05
-1.996835e-06
1.4051664e-05
-1.9878291e-06
1.602901e-05
-1.9773467e-06
1.7994409e-05
-1.9653991e-06
1.9946409e-05
-1.9519991e-06
2.1883569e-05
-1.9371608e-06
2.380447e-05
-1.9209003e-06
2.5707704e-05
-1.9032347e-06
2.7591887e-05
-1.8841828e-06
2.9455652e-05
-1.8637647e-06
3.1297654e-05
-1.842002e-06
3.3116571e-05
-1.8189175e-06
3.4911107e-05
-1.7945355e-06
3.6679988e-05
-1.7688814e-06
3.842197e-05
-1.7419818e-06
4.0135835e-05
-1.7138647e-06
4.1820394e-05
-1.684559e-06
4.3474488e-05
-1.6540947e-06
4.5096992e-05
-1.6225031e-06
4.6686808e-05
-1.5898162e-06
4.8242875e-05
-1.5560671e-06
4.9764164e-05
-1.5212896e-06
5.1249683e-05
-1.4855186e-06
5.2698473e-05
-1.4487895e-06
5.4109611e-05
-1.4111387e-06
5.5482214e-05
-1.3726031e-06
5.6815434e-05
-1.3332201e-06
5.8108462e-05
-1.2930278e-06
5.9360527e-05
-1.2520649e-06
6.0570897e-05
-1.2103703e-06
6.1738881e-05
-1.1679833e-06
6.2863824e-05
-1.1249438e-06
6.3945116e-05
-1.0812917e-06
6.4982183e-05
-1.0370671e-06
6.5974494e-05
-9.9231032e-07
6.6921555e-05
-9.4706182e-07
6.7822917e-05
-9.0136202e-07
6.8678169e-05
-8.5525135e-07
6.9486939e-05
-8.0877015e-07
7.0248898e-05
-7.6195864e-07
7.0963754e-05
-7.1485687e-07
7.1631259e-05
-6.6750463e-07
7.22512e-05
-6.1994145e-07
7.2823407e-05
-5.7220652e-07
7.3347746e-05
-5.2433865e-07
7.3824122e-05
-4.7637623e-07
7.4252479e-05
-4.2835716e-07
7.4632798e-05
-3.8031884e-07
7.4965096e-05
-3.3229811e-07
7.5249427e-05
-2.843312e-07
7.5485881e-05
-2.3645373e-07
7.5674582e-05
-1.8870064e-07
7.5815688e-05
-1.4110618e-07
7.5909392e-05
-9.3703986e-08
7.5955919e-05
-4.6527462e-08
7.5955518e-05
4.0085357e-10
7.5908491e-05
4.7026954e-08
7.5815148e-05
9.3343789e-08
7.5675835e-05
1.3931241e-07
7.549093e-05
1.8490506e-07
7.5260836e-05
2.3009443e-07
7.4985982e-05
2.74854e-07
7.4666824e-05
3.1915813e-07
7.4303841e-05
3.6298219e-07
7.3897539e-05
4.0630247e-07
7.3448443e-05
4.4909628e-07
7.2957101e-05
4.9134189e-07
7.2424082e-05
5.3301858e-07
7.1849975e-05
5.7410663e-07
7.1235388e-05
6.1458728e-07
7.0580945e-05
6.5444281e-07
6.9887289e-05
6.9365644e-07
6.9155077e-05
7.3221242e-07
6.8384981e-05
7.7009593e-07
6.7577687e-05
8.0729314e-07
6.6733896e-05
8.4379116e-07
6.5854318e-05
8.7957804e-07
6.4939676e-05
9.1464274e-07
6.39907e-05
9.4897513e-07
6.3008134e-05
9.8256598e-07
6.1992728e-05
1.0154069e-06
6.0945237e-05
1.0474903e-06
5.9866428e-05
1.0788095e-06
5.8757069e-05
1.1093586e-06
5.7617937e-05
1.1391323e-06
5.644981e-05
1.1681263e-06
5.5253474e-05
1.1963368e-06
5.4029713e-05
1.2237606e-06
5.2779318e-05
1.2503955e-06
5.1503078e-05
1.2762395e-06
5.0201786e-05
1.3012915e-06
4.8876236e-05
1.3255508e-06
4.7527218e-05
1.3490172e-06
4.6155528e-05
1.3716909e-06
4.4761955e-05
1.3935727e-06
4.3347291e-05
1.4146637e-06
4.1912326e-05
1.4349655e-06
4.0457846e-05
1.4544799e-06
3.8984637e-05
1.473209e-06
3.7493482e-05
1.4911551e-06
3.5985161e-05
1.508321e-06
3.4460451e-05
1.5247094e-06
3.2920128e-05
1.5403234e-06
3.1364962e-05
1.5551659e-06
2.9795722e-05
1.5692402e-06
2.8213172e-05
1.5825495e-06
2.6618075e-05
1.595097e-06
2.5011189e-05
1.6068862e-06
2.3393269e-05
1.6179201e-06
2.1765067e-05
1.6282019e-06
2.0127332e-05
1.6377349e-06
1.848081e-05
1.6465218e-06
1.6826245e-05
1.6545657e-06
1.5164376e-05
1.6618691e-06
1.3495941e-05
1.6684345e-06
1.1821677e-05
1.6742644e-06
1.0142316e-05
1.6793607e-06
8.4585907e-06
1.6837255e-06
6.7712305e-06
1.6873602e-06
5.0809642e-06
1.6902663e-06
3.3885194e-06
1.6924449e-06
1.6946226e-06
1.6938968e-06
1.6946226e-06
-1.6939546e-06
3.3885772e-06
-3.3871844e-06
3.3871266e-06
-5.0789642e-06
3.3842246e-06
-6.7685682e-06
3.3798703e-06
-8.4552699e-06
3.3740619e-06
-1.0138342e-05
3.3667971e-06
-1.1817054e-05
3.3580733e-06
-1.3490677e-05
3.3478872e-06
-1.5158477e-05
3.3362349e-06
-1.681972e-05
3.3231122e-06
-1.8473669e-05
3.3085146e-06
-2.0119585e-05
3.292437e-06
-2.1756724e-05
3.2748739e-06
-2.3384341e-05
3.2558197e-06
-2.500169e-05
3.2352683e-06
-2.6608017e-05
3.2132137e-06
-2.8202569e-05
3.1896493e-06
-2.9784589e-05
3.1645687e-06
-3.1353314e-05
3.1379653e-06
-3.290798e-05
3.1098325e-06
-3.4447821e-05
3.080164e-06
-3.5972065e-05
3.0489531e-06
-3.7479937e-05
3.0161938e-06
-3.8970662e-05
2.98188e-06
-4.0443459e-05
2.9460061e-06
-4.1897546e-05
2.9085669e-06
-4.3332138e-05
2.8695574e-06
-4.4746448e-05
2.8289734e-06
-4.6139686e-05
2.7868112e-06
-4.7511063e-05
2.7430678e-06
-4.8859787e-05
2.6977407e-06
-5.0185065e-05
2.6508286e-06
-5.1486104e-05
2.6023308e-06
-5.2762112e-05
2.5522477e-06
-5.4012297e-05
2.5005805e-06
-5.5235868e-05
2.4473317e-06
-5.6432036e-05
2.3925049e-06
-5.7600015e-05
2.3361048e-06
-5.873902e-05
2.2781377e-06
-5.9848273e-05
2.2186109e-06
-6.0926996e-05
2.1575333e-06
-6.1974421e-05
2.0949152e-06
-6.2989783e-05
2.0307685e-06
-6.3972323e-05
1.9651065e-06
-6.4921293e-05
1.8979444e-06
-6.5835949e-05
1.8292988e-06
-6.6715559e-05
1.7591883e-06
-6.7559401e-05
1.6876331e-06
-6.8366763e-05
1.6146551e-06
-6.9136945e-05
1.5402784e-06
-6.9869261e-05
1.4645286e-06
-7.0563038e-05
1.3874333e-06
-7.1217618e-05
1.3090223e-06
-7.1832357e-05
1.2293269e-06
-7.2406631e-05
1.1483807e-06
-7.2939832e-05
1.0662192e-06
-7.343137e-05
9.8287985e-07
-7.3880676e-05
8.9840202e-07
-7.42872e-05
8.1282719e-07
-7.4650417e-05
7.2619879e-07
-7.4969821e-05
6.3856221e-07
-7.5244932e-05
5.4996483e-07
-7.5475294e-05
4.6045595e-07
-7.5660475e-05
3.7008683e-07
-7.5800073e-05
2.7891059e-07
-7.5893712e-05
1.8698224e-07
-7.5941044e-05
9.4358892e-08
-7.5941744e-05
1.1005219e-09
-7.5895534e-05
-9.2736968e-08
-7.5802151e-05
-1.8708704e-07
-7.566137e-05
-2.818871e-07
-7.5472999e-05
-3.7707192e-07
-7.5236878e-05
-4.7257456e-07
-7.4952883e-05
-5.6832655e-07
-7.4620923e-05
-6.6425804e-07
-7.4240944e-05
-7.6029779e-07
-7.3812928e-05
-8.5637333e-07
-7.3336893e-05
-9.5241097e-07
-7.2812896e-05
-1.0483359e-06
-7.224103e-05
-1.1440723e-06
-7.1621428e-05
-1.2395433e-06
-7.0954261e-05
-1.3346714e-06
-7.023974e-05
-1.4293781e-06
-6.9478114e-05
-1.5235844e-06
-6.8669674e-05
-1.6172107e-06
-6.7814748e-05
-1.7101768e-06
-6.6913708e-05
-1.8024022e-06
-6.5966963e-05
-1.8938063e-06
-6.4974966e-05
-1.9843082e-06
-6.3938206e-05
-2.073827e-06
-6.2857216e-05
-2.1622818e-06
-6.1732567e-05
-2.249592e-06
-6.0564874e-05
-2.3356772e-06
-5.9354786e-05
-2.4204574e-06
-5.8102998e-05
-2.5038533e-06
-5.681024e-05
-2.5857861e-06
-5.5477282e-05
-2.6661776e-06
-5.4104934e-05
-2.7449508e-06
-5.2694044e-05
-2.8220295e-06
-5.1245495e-05
-2.8973385e-06
-4.9760209e-05
-2.970804e-06
-4.8239145e-05
-3.0423536e-06
-4.6683296e-05
-3.111916e-06
-4.5093691e-05
-3.1794218e-06
-4.3471391e-05
-3.244803e-06
-4.1817492e-05
-3.3079936e-06
-4.0133122e-05
-3.3689293e-06
-3.8419438e-05
-3.4275479e-06
-3.6677631e-05
-3.4837891e-06
-3.4908917e-05
-3.537595e-06
-3.3114543e-05
-3.5889098e-06
-3.129578e-05
-3.6376802e-06
-2.9453927e-05
-3.6838552e-06
-2.7590305e-05
-3.7273865e-06
-2.570626e-05
-3.7682281e-06
-2.3803158e-05
-3.8063372e-06
-2.1882384e-05
-3.8416733e-06
-1.9945346e-05
-3.874199e-06
-1.7993466e-05
-3.9038796e-06
-1.6028181e-05
-3.9306836e-06
-1.4050946e-05
-3.9545822e-06
-1.2063225e-05
-3.97555e-06
-1.0066496e-05
-3.9935644e-06
-8.0622442e-06
-4.0086061e-06
-6.0519656e-06
-4.0206589e-06
-4.0371608e-06
-4.0297099e-06
-2.0193358e-06
-4.0357493e-06
-2.0129157e-15
-4.0387707e-06
2.0193358e-06
-4.0387707e-06
4.0371608e-06
-4.0357493e-06
6.0519656e-06
-4.0297099e-06
8.0622442e-06
-4.0206589e-06
1.0066496e-05
-4.0086061e-06
1.2063225e-05
-3.9935644e-06
1.4050946e-05
-3.97555e-06
1.6028181e-05
-3.9545822e-06
1.7993466e-05
-3.9306836e-06
1.9945346e-05
-3.9038796e-06
2.1882384e-05
-3.874199e-06
2.3803158e-05
-3.8416733e-06
2.570626e-05
-3.8063372e-06
2.7590305e-05
-3.7682282e-06
2.9453927e-05
-3.7273865e-06
3.129578e-05
-3.6838552e-06
3.3114543e-05
-3.6376802e-06
3.4908917e-05
-3.5889098e-06
3.6677631e-05
-3.537595e-06
3.8419438e-05
-3.4837891e-06
4.0133122e-05
-3.4275479e-06
4.1817492e-05
-3.3689293e-06
4.3471391e-05
-3.3079936e-06
4.5093691e-05
-3.244803e-06
4.6683296e-05
-3.1794218e-06
4.8239145e-05
-3.111916e-06
4.9760209e-05
-3.0423536e-06
5.1245495e-05
-2.970804e-06
5.2694044e-05
-2.8973385e-06
5.4104934e-05
-2.8220295e-06
5.5477282e-05
-2.7449508e-06
5.681024e-05
-2.6661776e-06
5.8102998e-05
-2.5857861e-06
5.9354786e-05
-2.5038533e-06
6.0564874e-05
-2.4204574e-06
6.1732567e-05
-2.3356772e-06
6.2857216e-05
-2.249592e-06
6.3938206e-05
-2.1622818e-06
6.4974966e-05
-2.073827e-06
6.5966963e-05
-1.9843082e-06
6.6913708e-05
-1.8938063e-06
6.7814748e-05
-1.8024022e-06
6.8669674e-05
-1.7101768e-06
6.9478114e-05
-1.6172107e-06
7.023974e-05
-1.5235844e-06
7.0954261e-05
-1.4293782e-06
7.1621428e-05
-1.3346714e-06
7.224103e-05
-1.2395433e-06
7.2812896e-05
-1.1440723e-06
7.3336893e-05
-1.0483359e-06
7.3812928e-05
-9.5241097e-07
7.4240944e-05
-8.5637333e-07
7.4620923e-05
-7.6029779e-07
7.4952883e-05
-6.6425804e-07
7.5236878e-05
-5.6832655e-07
7.5472999e-05
-4.7257456e-07
7.566137e-05
-3.7707192e-07
7.5802151e-05
-2.818871e-07
7.5895534e-05
-1.8708704e-07
7.5941744e-05
-9.2736968e-08
7.5941044e-05
1.1005215e-09
7.5893712e-05
9.4358891e-08
7.5800073e-05
1.8698224e-07
7.5660475e-05
2.7891059e-07
7.5475294e-05
3.7008683e-07
7.5244932e-05
4.6045595e-07
7.4969821e-05
5.4996483e-07
7.4650417e-05
6.3856221e-07
7.42872e-05
7.2619879e-07
7.3880676e-05
8.1282719e-07
7.343137e-05
8.9840202e-07
7.2939832e-05
9.8287984e-07
7.2406631e-05
1.0662192e-06
7.1832357e-05
1.1483807e-06
7.1217618e-05
1.2293269e-06
7.0563038e-05
1.3090223e-06
6.9869261e-05
1.3874333e-06
6.9136945e-05
1.4645286e-06
6.8366763e-05
1.5402784e-06
6.7559401e-05
1.6146551e-06
6.6715559e-05
1.6876331e-06
6.5835949e-05
1.7591883e-06
6.4921293e-05
1.8292988e-06
6.3972323e-05
1.8979444e-06
6.2989783e-05
1.9651065e-06
6.1974421e-05
2.0307685e-06
6.0926996e-05
2.0949152e-06
5.9848273e-05
2.1575333e-06
5.873902e-05
2.2186109e-06
5.7600015e-05
2.2781377e-06
5.6432036e-05
2.3361048e-06
5.5235868e-05
2.3925049e-06
5.4012297e-05
2.4473317e-06
5.2762112e-05
2.5005805e-06
5.1486104e-05
2.5522477e-06
5.0185065e-05
2.6023308e-06
4.8859787e-05
2.6508286e-06
4.7511063e-05
2.6977407e-06
4.6139686e-05
2.7430678e-06
4.4746448e-05
2.7868112e-06
4.3332138e-05
2.8289734e-06
4.1897546e-05
2.8695574e-06
4.0443459e-05
2.9085669e-06
3.8970662e-05
2.9460061e-06
3.7479937e-05
2.98188e-06
3.5972065e-05
3.0161938e-06
3.4447821e-05
3.0489531e-06
3.290798e-05
3.080164e-06
3.1353314e-05
3.1098325e-06
2.9784589e-05
3.1379653e-06
2.8202569e-05
3.1645687e-06
2.6608017e-05
3.1896493e-06
2.500169e-05
3.2132137e-06
2.3384341e-05
3.2352683e-06
2.1756724e-05
3.2558197e-06
2.0119585e-05
3.2748739e-06
1.8473669e-05
3.292437e-06
1.681972e-05
3.3085146e-06
1.5158477e-05
3.3231122e-06
1.3490677e-05
3.3362349e-06
1.1817054e-05
3.3478872e-06
1.0138342e-05
3.3580733e-06
8.4552699e-06
3.3667971e-06
6.7685682e-06
3.3740619e-06
5.0789642e-06
3.3798703e-06
3.3871844e-06
3.3842246e-06
1.6939546e-06
3.3871266e-06
3.3885772e-06
-1.692239e-06
5.0808163e-06
-3.3837549e-06
5.0786425e-06
-5.0738244e-06
5.0742941e-06
-6.7617234e-06
5.0677693e-06
-8.4467271e-06
5.0590656e-06
-1.012811e-05
5.0481797e-06
-1.1805144e-05
5.0351073e-06
-1.34771e-05
5.0198435e-06
-1.5143248e-05
5.0023827e-06
-1.6802854e-05
4.9827185e-06
-1.8455183e-05
4.9608439e-06
-2.0099498e-05
4.9367512e-06
-2.1735056e-05
4.9104324e-06
-2.3361115e-05
4.8818788e-06
-2.4976928e-05
4.8510814e-06
-2.6581745e-05
4.8180308e-06
-2.8174814e-05
4.7827175e-06
-2.9755376e-05
4.7451315e-06
-3.1322674e-05
4.705263e-06
-3.2875944e-05
4.6631021e-06
-3.4414419e-05
4.618639e-06
-3.5937329e-05
4.5718639e-06
-3.7443903e-05
4.5227674e-06
-3.8933364e-05
4.4713407e-06
-4.0404933e-05
4.417575e-06
-4.1857828e-05
4.3614623e-06
-4.3291266e-05
4.3029955e-06
-4.4704461e-05
4.2421679e-06
-4.6096623e-05
4.1789739e-06
-4.7466964e-05
4.1134089e-06
-4.8814693e-05
4.0454693e-06
-5.0139017e-05
3.9751527e-06
-5.1439145e-05
3.9024583e-06
-5.2714283e-05
3.8273863e-06
-5.3963641e-05
3.7499387e-06
-5.5186429e-05
3.6701191e-06
-5.6381857e-05
3.5879327e-06
-5.7549139e-05
3.5033868e-06
-5.8687491e-05
3.4164903e-06
-5.9796135e-05
3.3272544e-06
-6.0874294e-05
3.2356923e-06
-6.1921198e-05
3.1418193e-06
-6.2936083e-05
3.0456532e-06
-6.391819e-05
2.947214e-06
-6.486677e-05
2.8465243e-06
-6.578108e-05
2.7436091e-06
-6.6660388e-05
2.638496e-06
-6.750397e-05
2.5312153e-06
-6.8311115e-05
2.4218e-06
-6.9081123e-05
2.3102859e-06
-6.9813305e-05
2.1967115e-06
-7.050699e-05
2.0811182e-06
-7.1161519e-05
1.9635505e-06
-7.1776247e-05
1.8440554e-06
-7.235055e-05
1.7226833e-06
-7.2883818e-05
1.5994873e-06
-7.3375461e-05
1.4745234e-06
-7.382491e-05
1.3478509e-06
-7.4231615e-05
1.2195319e-06
-7.4595048e-05
1.0896315e-06
-7.4914703e-05
9.5821765e-07
-7.51901e-05
8.2536152e-07
-7.5420781e-05
6.9113701e-07
-7.5606315e-05
5.5562097e-07
-7.5746297e-05
4.1889311e-07
-7.5840351e-05
2.8103598e-07
-7.5888127e-05
1.4213497e-07
-7.5889305e-05
2.2781767e-09
-7.5843597e-05
-1.3844464e-07
-7.5750745e-05
-2.7993947e-07
-7.5610521e-05
-4.2211069e-07
-7.5422733e-05
-5.6486025e-07
-7.518722e-05
-7.0808775e-07
-7.4903856e-05
-8.5169052e-07
-7.457255e-05
-9.9556376e-07
-7.4193247e-05
-1.1396007e-06
-7.3765928e-05
-1.2836924e-06
-7.329061e-05
-1.4277286e-06
-7.2767349e-05
-1.5715969e-06
-7.2196238e-05
-1.7151836e-06
-7.1577408e-05
-1.8583734e-06
-7.091103e-05
-2.00105e-06
-7.0197312e-05
-2.1430956e-06
-6.9436505e-05
-2.2843917e-06
-6.8628897e-05
-2.4248187e-06
-6.7774817e-05
-2.5642566e-06
-6.6874635e-05
-2.7025846e-06
-6.5928759e-05
-2.8396815e-06
-6.4937641e-05
-2.9754261e-06
-6.3901772e-05
-3.1096969e-06
-6.2821681e-05
-3.2423727e-06
-6.169794e-05
-3.3733324e-06
-6.0531162e-05
-3.5024554e-06
-5.9321998e-05
-3.6296218e-06
-5.8071139e-05
-3.7547124e-06
-5.6779316e-05
-3.8776089e-06
-5.5447299e-05
-3.9981943e-06
-5.4075897e-05
-4.1163528e-06
-5.2665957e-05
-4.2319701e-06
-5.1218362e-05
-4.3449335e-06
-4.9734034e-05
-4.4551321e-06
-4.821393e-05
-4.5624572e-06
-4.6659044e-05
-4.666802e-06
-4.5070404e-05
-4.7680622e-06
-4.3449071e-05
-4.8661359e-06
-4.179614e-05
-4.9609239e-06
-4.011274e-05
-5.0523299e-06
-3.8400027e-05
-5.1402603e-06
-3.6659191e-05
-5.224625e-06
-3.489145e-05
-5.3053367e-06
-3.3098048e-05
-5.3823119e-06
-3.1280257e-05
-5.4554705e-06
-2.9439377e-05
-5.524736e-06
-2.7576727e-05
-5.5900359e-06
-2.5693654e-05
-5.6513014e-06
-2.3791523e-05
-5.7084679e-06
-2.1871722e-05
-5.7614749e-06
-1.9935654e-05
-5.8102661e-06
-1.7984745e-05
-5.8547895e-06
-1.602043e-05
-5.8949978e-06
-1.4044165e-05
-5.9308478e-06
-1.2057413e-05
-5.9623014e-06
-1.0061653e-05
-5.9893246e-06
-8.0583707e-06
-6.0118886e-06
-6.0490607e-06
-6.029969e-06
-4.0352243e-06
-6.0435463e-06
-2.0183676e-06
-6.052606e-06
-2.0701589e-15
-6.0571383e-06
2.0183676e-06
-6.0571383e-06
4.0352243e-06
-6.052606e-06
6.0490607e-06
-6.0435463e-06
8.0583707e-06
-6.029969e-06
1.0061653e-05
-6.0118886e-06
1.2057413e-05
-5.9893246e-06
1.4044165e-05
-5.9623014e-06
1.602043e-05
-5.9308478e-06
1.7984745e-05
-5.8949978e-06
1.9935654e-05
-5.8547895e-06
2.1871722e-05
-5.8102661e-06
2.3791523e-05
-5.7614749e-06
2.5693654e-05
-5.7084679e-06
2.7576727e-05
-5.6513014e-06
2.9439377e-05
-5.5900359e-06
3.1280257e-05
-5.524736e-06
3.3098048e-05
-5.4554705e-06
3.489145e-05
-5.3823119e-06
3.6659191e-05
-5.3053367e-06
3.8400027e-05
-5.224625e-06
4.011274e-05
-5.1402603e-06
4.179614e-05
-5.0523299e-06
4.3449071e-05
-4.9609239e-06
4.5070404e-05
-4.8661359e-06
4.6659044e-05
-4.7680622e-06
4.821393e-05
-4.666802e-06
4.9734034e-05
-4.5624572e-06
5.1218362e-05
-4.4551321e-06
5.2665957e-05
-4.3449335e-06
5.4075897e-05
-4.2319701e-06
5.5447299e-05
-4.1163528e-06
5.6779316e-05
-3.9981943e-06
5.8071139e-05
-3.8776089e-06
5.9321998e-05
-3.7547124e-06
6.0531162e-05
-3.6296218e-06
6.169794e-05
-3.5024554e-06
6.2821681e-05
-3.3733324e-06
6.3901772e-05
-3.2423727e-06
6.4937641e-05
-3.1096969e-06
6.5928759e-05
-2.9754261e-06
6.6874635e-05
-2.8396815e-06
6.7774817e-05
-2.7025846e-06
6.8628897e-05
-2.5642566e-06
6.9436505e-05
-2.4248187e-06
7.0197312e-05
-2.2843917e-06
7.091103e-05
-2.1430956e-06
7.1577408e-05
-2.00105e-06
7.2196238e-05
-1.8583734e-06
7.2767349e-05
-1.7151836e-06
7.329061e-05
-1.5715969e-06
7.3765928e-05
-1.4277286e-06
7.4193247e-05
-1.2836924e-06
7.457255e-05
-1.1396007e-06
7.4903856e-05
-9.9556376e-07
7.518722e-05
-8.5169052e-07
7.5422733e-05
-7.0808775e-07
7.5610521e-05
-5.6486025e-07
7.5750745e-05
-4.2211069e-07
7.5843597e-05
-2.7993947e-07
7.5889305e-05
-1.3844464e-07
7.5888127e-05
2.2781767e-09
7.5840351e-05
1.4213497e-07
7.5746297e-05
2.8103598e-07
7.5606315e-05
4.1889311e-07
7.5420781e-05
5.5562097e-07
7.51901e-05
6.9113701e-07
7.4914703e-05
8.2536152e-07
7.4595048e-05
9.5821765e-07
7.4231615e-05
1.0896315e-06
7.382491e-05
1.2195319e-06
7.3375461e-05
1.3478509e-06
7.2883818e-05
1.4745234e-06
7.235055e-05
1.5994873e-06
7.1776247e-05
1.7226833e-06
7.1161519e-05
1.8440554e-06
7.050699e-05
1.9635505e-06
6.9813305e-05
2.0811182e-06
6.9081123e-05
2.1967115e-06
6.8311115e-05
2.3102859e-06
6.750397e-05
2.4218e-06
6.6660388e-05
2.5312153e-06
6.578108e-05
2.638496e-06
6.486677e-05
2.7436091e-06
6.391819e-05
2.8465243e-06
6.2936083e-05
2.947214e-06
6.1921198e-05
3.0456532e-06
6.0874294e-05
3.1418193e-06
5.9796135e-05
3.2356923e-06
5.8687491e-05
3.3272544e-06
5.7549139e-05
3.4164903e-06
5.6381857e-05
3.5033868e-06
5.5186429e-05
3.5879327e-06
5.3963641e-05
3.6701191e-06
5.2714283e-05
3.7499387e-06
5.1439145e-05
3.8273863e-06
5.0139017e-05
3.9024583e-06
4.8814693e-05
3.9751527e-06
4.7466964e-05
4.0454693e-06
4.6096623e-05
4.1134089e-06
4.4704461e-05
4.1789739e-06
4.3291266e-05
4.2421679e-06
4.1857828e-05
4.3029955e-06
4.0404933e-05
4.3614623e-06
3.8933364e-05
4.417575e-06
3.7443903e-05
4.4713407e-06
3.5937329e-05
4.5227674e-06
3.4414419e-05
4.5718639e-06
3.2875944e-05
4.618639e-06
3.1322674e-05
4.6631021e-06
2.9755376e-05
4.705263e-06
2.8174814e-05
4.7451315e-06
2.6581745e-05
4.7827175e-06
2.4976928e-05
4.8180308e-06
2.3361115e-05
4.8510814e-06
2.1735056e-05
4.8818788e-06
2.0099498e-05
4.9104324e-06
1.8455183e-05
4.9367512e-06
1.6802854e-05
4.9608439e-06
1.5143248e-05
4.9827185e-06
1.34771e-05
5.0023827e-06
1.1805144e-05
5.0198435e-06
1.012811e-05
5.0351073e-06
8.4467271e-06
5.0481797e-06
6.7617234e-06
5.0590656e-06
5.0738244e-06
5.0677693e-06
3.3837549e-06
5.0742941e-06
1.692239e-06
5.0786425e-06
5.0808163e-06
-1.6894672e-06
6.7702835e-06
-3.3782139e-06
6.7673892e-06
-5.0655193e-06
6.7615995e-06
-6.750662e-06
6.752912e-06
-8.4329199e-06
6.7413234e-06
-1.0111569e-05
6.7268292e-06
-1.1785886e-05
6.7094237e-06
-1.3455143e-05
6.6891003e-06
-1.5118611e-05
6.6658514e-06
-1.6775561e-05
6.6396685e-06
-1.842526e-05
6.6105422e-06
-2.0066971e-05
6.5784622e-06
-2.1699956e-05
6.5434176e-06
-2.3323474e-05
6.5053969e-06
-2.493678e-05
6.464388e-06
-2.6539128e-05
6.4203782e-06
-2.8129765e-05
6.3733547e-06
-2.9707938e-05
6.3233043e-06
-3.1272889e-05
6.2702136e-06
-3.2823856e-05
6.2140694e-06
-3.4360075e-05
6.1548583e-06
-3.5880779e-05
6.0925675e-06
-3.7385195e-05
6.0271841e-06
-3.8872551e-05
5.9586962e-06
-4.0342068e-05
5.8870921e-06
-4.1792967e-05
5.8123611e-06
-4.3224465e-05
5.7344932e-06
-4.4635776e-05
5.6534797e-06
-4.6026115e-05
5.5693129e-06
-4.7394693e-05
5.4819864e-06
-4.8740719e-05
5.3914955e-06
-5.0063403e-05
5.2978368e-06
-5.1361954e-05
5.2010088e-06
-5.2635579e-05
5.101012e-06
-5.388349e-05
4.9978488e-06
-5.5104894e-05
4.8915238e-06
-5.6299006e-05
4.782044e-06
-5.7465038e-05
4.6694188e-06
-5.8602207e-05
4.55366e-06
-5.9709735e-05
4.4347823e-06
-6.0786846e-05
4.3128033e-06
-6.183277e-05
4.1877433e-06
-6.2846743e-05
4.0596258e-06
-6.3828006e-05
3.9284775e-06
-6.477581e-05
3.7943282e-06
-6.5689412e-05
3.6572112e-06
-6.656808e-05
3.5171633e-06
-6.7411089e-05
3.3742247e-06
-6.8217729e-05
3.2284393e-06
-6.8987297e-05
3.0798547e-06
-6.9719108e-05
2.9285221e-06
-7.0412487e-05
2.7744968e-06
-7.1066774e-05
2.6178378e-06
-7.1681326e-05
2.4586078e-06
-7.2255517e-05
2.2968739e-06
-7.2788736e-05
2.1327068e-06
-7.3280394e-05
1.9661812e-06
-7.3729919e-05
1.7973759e-06
-7.4136761e-05
1.6263738e-06
-7.4500391e-05
1.4532614e-06
-7.4820303e-05
1.2781297e-06
-7.5096014e-05
1.1010731e-06
-7.5327068e-05
9.221902e-07
-7.551303e-05
7.4158351e-07
-7.5653496e-05
5.5935922e-07
-7.5748088e-05
3.7562733e-07
-7.5796454e-05
1.9050157e-07
-7.5798275e-05
4.0992055e-09
-7.5753261e-05
-1.8345917e-07
-7.5661151e-05
-3.7204912e-07
-7.5521719e-05
-5.6154304e-07
-7.5334769e-05
-7.5181015e-07
-7.510014e-05
-9.4271655e-07
-7.4817705e-05
-1.1341254e-06
-7.4487372e-05
-1.3258969e-06
-7.4109084e-05
-1.5178887e-06
-7.3682821e-05
-1.7099557e-06
-7.3208599e-05
-1.9019506e-06
-7.2686472e-05
-2.0937238e-06
-7.2116532e-05
-2.2851234e-06
-7.1498909e-05
-2.475996e-06
-7.0833773e-05
-2.6661862e-06
-7.0121331e-05
-2.8555372e-06
-6.9361832e-05
-3.0438907e-06
-6.8555564e-05
-3.2310875e-06
-6.7702853e-05
-3.4169672e-06
-6.6804069e-05
-3.6013689e-06
-6.5859619e-05
-3.784131e-06
-6.4869954e-05
-3.9650918e-06
-6.3835561e-05
-4.1440893e-06
-6.2756972e-05
-4.3209618e-06
-6.1634756e-05
-4.4955479e-06
-6.0469525e-05
-4.6676867e-06
-5.9261929e-05
-4.8372182e-06
-5.8012658e-05
-5.0039835e-06
-5.6722442e-05
-5.1678248e-06
-5.539205e-05
-5.3285861e-06
-5.402229e-05
-5.4861128e-06
-5.2614007e-05
-5.6402525e-06
-5.1168086e-05
-5.790855e-06
-4.9685446e-05
-5.9377723e-06
-4.8167044e-05
-6.0808594e-06
-4.6613872e-05
-6.2199738e-06
-4.5026957e-05
-6.3549765e-06
-4.3407362e-05
-6.4857315e-06
-4.1756179e-05
-6.6121065e-06
-4.0074536e-05
-6.7339729e-06
-3.836359e-05
-6.8512061e-06
-3.662453e-05
-6.9636856e-06
-3.4858571e-05
-7.0712953e-06
-3.3066959e-05
-7.1739237e-06
-3.1250966e-05
-7.2714638e-06
-2.9411888e-05
-7.3638137e-06
-2.7551048e-05
-7.4508765e-06
-2.5669789e-05
-7.5325607e-06
-2.3769477e-05
-7.6087799e-06
-2.1851498e-05
-7.6794534e-06
-1.9917258e-05
-7.7445063e-06
-1.7968178e-05
-7.8038691e-06
-1.6005697e-05
-7.8574786e-06
-1.4031268e-05
-7.9052775e-06
-1.2046355e-05
-7.9472145e-06
-1.0052435e-05
-7.9832447e-06
-8.050994e-06
-8.0133292e-06
-6.043527e-06
-8.0374359e-06
-4.0315347e-06
-8.0555387e-06
-2.0165227e-06
-8.067618e-06
-2.1034311e-15
-8.073661e-06
2.0165227e-06
-8.073661e-06
4.0315347e-06
-8.067618e-06
6.043527e-06
-8.0555387e-06
8.050994e-06
-8.0374359e-06
1.0052435e-05
-8.0133292e-06
1.2046355e-05
-7.9832447e-06
1.4031268e-05
-7.9472145e-06
1.6005697e-05
-7.9052775e-06
1.7968178e-05
-7.8574786e-06
1.9917258e-05
-7.8038691e-06
2.1851498e-05
-7.7445063e-06
2.3769477e-05
-7.6794534e-06
2.5669789e-05
-7.6087799e-06
2.7551048e-05
-7.5325607e-06
2.9411888e-05
-7.4508765e-06
3.1250966e-05
-7.3638137e-06
3.3066959e-05
-7.2714638e-06
3.4858571e-05
-7.1739237e-06
3.662453e-05
-7.0712953e-06
3.836359e-05
-6.9636856e-06
4.0074536e-05
-6.8512061e-06
4.1756179e-05
-6.7339729e-06
4.3407362e-05
-6.6121065e-06
4.5026957e-05
-6.4857315e-06
4.6613872e-05
-6.3549765e-06
4.8167044e-05
-6.2199738e-06
4.9685446e-05
-6.0808594e-06
5.1168086e-05
-5.9377723e-06
5.2614007e-05
-5.790855e-06
5.402229e-05
-5.6402525e-06
5.539205e-05
-5.4861128e-06
5.6722442e-05
-5.3285861e-06
5.8012658e-05
-5.1678248e-06
5.9261929e-05
-5.0039835e-06
6.0469525e-05
-4.8372182e-06
6.1634756e-05
-4.6676867e-06
6.2756972e-05
-4.4955479e-06
6.3835561e-05
-4.3209618e-06
6.4869954e-05
-4.1440893e-06
6.5859619e-05
-3.9650918e-06
6.6804069e-05
-3.784131e-06
6.7702853e-05
-3.6013689e-06
6.8555564e-05
-3.4169672e-06
6.9361832e-05
-3.2310875e-06
7.0121331e-05
-3.0438907e-06
7.0833773e-05
-2.8555372e-06
7.1498909e-05
-2.6661862e-06
7.2116532e-05
-2.475996e-06
7.2686472e-05
-2.2851234e-06
7.3208599e-05
-2.0937238e-06
7.3682821e-05
-1.9019506e-06
7.4109084e-05
-1.7099557e-06
7.4487372e-05
-1.5178887e-06
7.4817705e-05
-1.3258969e-06
7.510014e-05
-1.1341254e-06
7.5334769e-05
-9.4271655e-07
7.5521719e-05
-7.5181015e-07
7.5661151e-05
-5.6154304e-07
7.5753261e-05
-3.7204912e-07
7.5798275e-05
-1.8345917e-07
7.5796454e-05
4.0992052e-09
7.5748088e-05
1.9050157e-07
7.5653496e-05
3.7562733e-07
7.551303e-05
5.5935922e-07
7.5327068e-05
7.4158351e-07
7.5096014e-05
9.221902e-07
7.4820303e-05
1.1010731e-06
7.4500391e-05
1.2781297e-06
7.4136761e-05
1.4532614e-06
7.3729919e-05
1.6263738e-06
7.3280394e-05
1.7973759e-06
7.2788736e-05
1.9661812e-06
7.2255517e-05
2.1327068e-06
7.1681326e-05
2.2968739e-06
7.1066774e-05
2.4586078e-06
7.0412487e-05
2.6178378e-06
6.9719108e-05
2.7744968e-06
6.8987297e-05
2.9285221e-06
6.8217729e-05
3.0798547e-06
6.7411089e-05
3.2284393e-06
6.656808e-05
3.3742247e-06
6.5689412e-05
3.5171633e-06
6.477581e-05
3.6572112e-06
6.3828006e-05
3.7943282e-06
6.2846743e-05
3.9284775e-06
6.183277e-05
4.0596258e-06
6.0786846e-05
4.1877433e-06
5.9709735e-05
4.3128033e-06
5.8602207e-05
4.4347823e-06
5.7465038e-05
4.55366e-06
5.6299006e-05
4.6694188e-06
5.5104894e-05
4.782044e-06
5.388349e-05
4.8915238e-06
5.2635579e-05
4.9978488e-06
5.1361954e-05
5.101012e-06
5.0063403e-05
5.2010088e-06
4.8740719e-05
5.2978368e-06
4.7394693e-05
5.3914955e-06
4.6026115e-05
5.4819864e-06
4.4635776e-05
5.5693129e-06
4.3224465e-05
5.6534797e-06
4.1792967e-05
5.7344932e-06
4.0342068e-05
5.8123611e-06
3.8872551e-05
5.8870921e-06
3.7385195e-05
5.9586962e-06
3.5880779e-05
6.0271841e-06
3.4360075e-05
6.0925675e-06
3.2823856e-05
6.1548583e-06
3.1272889e-05
6.2140694e-06
2.9707938e-05
6.2702136e-06
2.8129765e-05
6.3233043e-06
2.6539128e-05
6.3733547e-06
2.493678e-05
6.4203782e-06
2.3323474e-05
6.464388e-06
2.1699956e-05
6.5053969e-06
2.0066971e-05