/*--------------------------------*- C++ -*----------------------------------*\
| =========                 |                                                 |
| \\      /  F ield         | OpenFOAM: The Open Source CFD Toolbox           |
|  \\    /   O peration     | Version:  2106                                  |
|   \\  /    A nd           | Website:  www.openfoam.com                      |
|    \\/     M anipulation  |                                                 |
\*---------------------------------------------------------------------------*/
FoamFile
{
    version     2.0;
    format      ascii;
    arch        "LSB;label=32;scalar=64";
    class       surfaceScalarField;
    location    "0.018";
    object      phi;
}
// * * * * * * * * * * * * * * * * * * * * * * * * * * * * * * * * * * * * * //

dimensions      [0 3 -1 0 0 0 0];

oriented        oriented;

internalField   nonuniform List<scalar> 
8064
(
-6.7119665e-05
6.7119665e-05
-0.00013366581
6.6546141e-05
-0.00019906713
6.5401322e-05
-0.00026275697
6.3689842e-05
-0.00032417605
6.1419077e-05
-0.00038277565
5.8599602e-05
-0.00043802137
5.524572e-05
-0.00048939738
5.1376011e-05
-0.00053641121
4.7013825e-05
-0.00057859889
4.2187686e-05
-0.00061553044
3.6931545e-05
-0.0006468153
3.1284863e-05
-0.00067210782
2.5292519e-05
-0.00069111234
1.9004524e-05
-0.00070358789
1.2475547e-05
-0.00070935269
5.7648017e-06
-0.00070828805
-1.0646445e-06
-0.00070033955
-7.9484952e-06
-0.0006855221
-1.481745e-05
-0.00066391996
-2.1602144e-05
-0.00063568837
-2.8231583e-05
-0.00060105402
-3.4634353e-05
-0.00056031467
-4.0739347e-05
-0.00051383807
-4.6476606e-05
-0.0004620598
-5.1778267e-05
-0.00040548017
-5.6579628e-05
-0.00034465987
-6.0820305e-05
-0.00028021441
-6.4445456e-05
-0.0002128074
-6.740701e-05
-0.00014314256
-6.9664843e-05
-7.1954725e-05
-7.1187835e-05
3.5172375e-14
-7.1954725e-05
7.1954725e-05
-7.1954725e-05
0.00014314256
-7.1187835e-05
0.0002128074
-6.9664843e-05
0.00028021441
-6.740701e-05
0.00034465987
-6.4445456e-05
0.00040548017
-6.0820305e-05
0.0004620598
-5.6579628e-05
0.00051383807
-5.1778267e-05
0.00056031467
-4.6476606e-05
0.00060105402
-4.0739347e-05
0.00063568837
-3.4634353e-05
0.00066391996
-2.8231583e-05
0.0006855221
-2.1602144e-05
0.00070033955
-1.481745e-05
0.00070828805
-7.9484952e-06
0.00070935269
-1.0646445e-06
0.00070358789
5.7648016e-06
0.00069111234
1.2475547e-05
0.00067210782
1.9004524e-05
0.0006468153
2.5292519e-05
0.00061553044
3.1284863e-05
0.00057859889
3.6931545e-05
0.00053641121
4.2187686e-05
0.00048939738
4.7013825e-05
0.00043802137
5.1376011e-05
0.00038277565
5.524572e-05
0.00032417605
5.8599602e-05
0.00026275697
6.1419077e-05
0.00019906713
6.3689842e-05
0.00013366581
6.5401322e-05
6.7119665e-05
6.6546141e-05
6.7119665e-05
-6.6907743e-05
0.00013402741
-0.00013324701
0.00013288541
-0.0001984513
0.00013060561
-0.00026195827
0.00012719681
-0.00032321226
0.00012267307
-0.0003816674
0.00011705474
-0.00043679123
0.00011036955
-0.00048806899
0.00010265378
-0.00053500848
9.395331e-05
-0.00057714528
8.4324484e-05
-0.00061404837
7.3834639e-05
-0.0006453258
6.256229e-05
-0.00067063021
5.059693e-05
-0.00068966414
3.8038458e-05
-0.00070218493
2.4996332e-05
-0.00070800883
1.1588704e-05
-0.00070701443
-2.0590473e-06
-0.00069914679
-1.5816132e-05
-0.00068441808
-2.9546164e-05
-0.00066291063
-4.3109592e-05
-0.00063477766
-5.6364558e-05
-0.00060024374
-6.9168265e-05
-0.00055960464
-8.137845e-05
-0.0005132262
-9.2855046e-05
-0.0004615424
-0.00010346207
-0.0004050523
-0.00011306973
-0.00034431582
-0.00012155679
-0.00027994825
-0.00012881302
-0.00021261352
-0.00013474174
-0.00014301621
-0.00013926216
-7.1892453e-05
-0.00014231159
3.4808336e-14
-0.00014384718
7.1892453e-05
-0.00014384718
0.00014301621
-0.00014231159
0.00021261352
-0.00013926216
0.00027994826
-0.00013474174
0.00034431582
-0.00012881302
0.0004050523
-0.00012155679
0.0004615424
-0.00011306973
0.0005132262
-0.00010346207
0.00055960464
-9.2855046e-05
0.00060024374
-8.137845e-05
0.00063477766
-6.9168265e-05
0.00066291063
-5.6364558e-05
0.00068441808
-4.3109592e-05
0.00069914679
-2.9546164e-05
0.00070701443
-1.5816132e-05
0.00070800883
-2.0590473e-06
0.00070218493
1.1588704e-05
0.00068966414
2.4996332e-05
0.00067063021
3.8038458e-05
0.0006453258
5.059693e-05
0.00061404837
6.256229e-05
0.00057714528
7.3834639e-05
0.00053500848
8.4324484e-05
0.00048806899
9.395331e-05
0.00043679123
0.00010265378
0.0003816674
0.00011036955
0.00032321226
0.00011705474
0.00026195827
0.00012267307
0.0001984513
0.00012719681
0.00013324701
0.00013060561
6.6907743e-05
0.00013288541
0.00013402741
-6.6090995e-05
0.0002001184
-0.00013162599
0.00019842041
-0.00019605052
0.00019503014
-0.00025881338
0.00018995967
-0.00031936887
0.00018322856
-0.00037717957
0.00017486543
-0.00043171987
0.00016490985
-0.00048248025
0.00015341416
-0.00052897214
0.0001404452
-0.00057073342
0.00012608577
-0.0006073342
0.00011043541
-0.0006383827
9.3610789e-05
-0.00066353108
7.5745315e-05
-0.0006824809
5.6988278e-05
-0.00069498805
3.7503482e-05
-0.00070086697
1.7467618e-05
-0.00069999431
-2.9317017e-06
-0.00069231208
-2.3498363e-05
-0.00067782964
-4.4028601e-05
-0.00065662558
-6.4313654e-05
-0.00062884879
-8.4141345e-05
-0.00059471902
-0.00010329804
-0.00055452671
-0.00012157076
-0.00050863216
-0.0001387496
-0.0004574637
-0.00015463053
-0.00040151487
-0.00016901855
-0.00034134041
-0.00018173125
-0.00027755089
-0.00019260255
-0.00021080607
-0.00020148656
-0.00014180694
-0.00020826129
-7.128657e-05
-0.00021283196
3.3772092e-14
-0.00021513375
7.128657e-05
-0.00021513375
0.00014180694
-0.00021283196
0.00021080607
-0.00020826129
0.00027755089
-0.00020148656
0.00034134041
-0.00019260255
0.00040151487
-0.00018173125
0.0004574637
-0.00016901855
0.00050863216
-0.00015463053
0.00055452671
-0.0001387496
0.00059471902
-0.00012157076
0.00062884879
-0.00010329804
0.00065662558
-8.4141345e-05
0.00067782964
-6.4313654e-05
0.00069231208
-4.4028601e-05
0.00069999431
-2.3498363e-05
0.00070086697
-2.9317017e-06
0.00069498805
1.7467618e-05
0.0006824809
3.7503482e-05
0.00066353108
5.6988278e-05
0.0006383827
7.5745315e-05
0.0006073342
9.3610789e-05
0.00057073342
0.00011043541
0.00052897214
0.00012608577
0.00048248025
0.0001404452
0.00043171987
0.00015341416
0.00037717956
0.00016490985
0.00031936887
0.00017486543
0.00025881338
0.00018322856
0.00019605052
0.00018995967
0.00013162599
0.00019503014
6.6090995e-05
0.00019842041
0.0002001184
-6.4649278e-05
0.00026476768
-0.00012876288
0.00026253401
-0.00019180598
0.00025807324
-0.00025324571
0.0002513994
-0.00031255285
0.00024253569
-0.00036920426
0.00023151684
-0.00042268619
0.00021839178
-0.00047249847
0.00020322643
-0.00051815956
0.0001861063
-0.00055921227
0.00016713847
-0.00059522983
0.00014645297
-0.00062582221
0.00012420317
-0.00065064222
0.00010056532
-0.00066939121
7.5737267e-05
-0.00068182415
4.9936423e-05
-0.00068775391
2.3397383e-05
-0.00068705493
-3.6306837e-06
-0.00067966585
-3.0887448e-05
-0.00066559188
-5.8102565e-05
-0.00064490625
-8.4999286e-05
-0.00061775127
-0.00011129632
-0.00058433896
-0.00013671035
-0.00054495106
-0.00016095866
-0.00049993839
-0.00018376227
-0.00044971939
-0.00020484953
-0.00039477758
-0.00022396036
-0.00033565787
-0.00024085096
-0.00027296144
-0.00025529897
-0.00020733928
-0.00026710873
-0.00013948421
-0.00027611635
-7.01218e-05
-0.00028219437
3.2385499e-14
-0.00028525555
7.01218e-05
-0.00028525555
0.00013948421
-0.00028219437
0.00020733928
-0.00027611635
0.00027296144
-0.00026710873
0.00033565787
-0.00025529897
0.00039477758
-0.00024085096
0.00044971939
-0.00022396036
0.00049993839
-0.00020484953
0.00054495106
-0.00018376227
0.00058433896
-0.00016095866
0.00061775127
-0.00013671035
0.00064490625
-0.00011129632
0.00066559188
-8.4999286e-05
0.00067966585
-5.8102565e-05
0.00068705493
-3.0887448e-05
0.00068775391
-3.6306837e-06
0.00068182415
2.3397383e-05
0.00066939121
4.9936423e-05
0.00065064222
7.5737267e-05
0.00062582221
0.00010056532
0.00059522983
0.00012420317
0.00055921227
0.00014645297
0.00051815956
0.00016713847
0.00047249847
0.0001861063
0.00042268619
0.00020322643
0.00036920426
0.00021839178
0.00031255285
0.00023151684
0.00025324571
0.00024253569
0.00019180598
0.0002513994
0.00012876288
0.00025807324
6.4649278e-05
0.00026253401
0.00026476768
-6.2636407e-05
0.00032740409
-0.00012476507
0.00032466268
-0.00018587814
0.00031918631
-0.00024546793
0.00031098919
-0.00030302787
0.00030009563
-0.00035805442
0.0002865434
-0.0004100501
0.00027038746
-0.00045852766
0.00025170399
-0.00050301528
0.00023059392
-0.00054306267
0.00020718586
-0.00057824765
0.00018163795
-0.00060818294
0.00015413846
-0.00063252275
0.00012490513
-0.0006509688
9.4183316e-05
-0.00066327558
6.2243201e-05
-0.00066925465
2.9376451e-05
-0.00066877813
-4.1071949e-06
-0.00066178108
-3.7884503e-05
-0.00064826363
-7.1620014e-05
-0.0006282922
-0.00010497071
-0.0006020005
-0.00013758803
-0.00056959014
-0.00016912071
-0.00053133092
-0.00019921787
-0.00048756052
-0.00022753267
-0.00043868343
-0.00025372662
-0.00038516892
-0.00027747486
-0.00032754778
-0.00029847211
-0.00026640753
-0.00031643922
-0.00020238621
-0.00033113005
-0.00013616456
-0.000342338
-6.8456751e-05
-0.00034990218
3.092206e-14
-0.0003537123
6.8456751e-05
-0.0003537123
0.00013616456
-0.00034990218
0.00020238621
-0.000342338
0.00026640753
-0.00033113005
0.00032754778
-0.00031643922
0.00038516892
-0.00029847211
0.00043868343
-0.00027747486
0.00048756052
-0.00025372662
0.00053133092
-0.00022753267
0.00056959014
-0.00019921787
0.0006020005
-0.00016912071
0.0006282922
-0.00013758803
0.00064826363
-0.00010497071
0.00066178108
-7.1620014e-05
0.00066877813
-3.7884503e-05
0.00066925465
-4.1071949e-06
0.00066327558
2.9376452e-05
0.0006509688
6.2243201e-05
0.00063252275
9.4183316e-05
0.00060818294
0.00012490513
0.00057824765
0.00015413846
0.00054306267
0.00018163795
0.00050301528
0.00020718586
0.00045852766
0.00023059392
0.0004100501
0.00025170399
0.00035805442
0.00027038746
0.00030302787
0.0002865434
0.00024546793
0.00030009563
0.00018587814
0.00031098919
0.00012476507
0.00031918631
6.2636407e-05
0.00032466268
0.00032740409
-6.0178664e-05
0.00038758275
-0.00011988424
0.00038436826
-0.00017864232
0.00037794439
-0.00023597626
0.00036832313
-0.00029140725
0.00035552663
-0.00034445557
0.00033959171
-0.00039464323
0.00032057512
-0.00044149814
0.00029855891
-0.00048455968
0.00027365546
-0.00052338523
0.00024601141
-0.00055755754
0.00021581026
-0.00058669219
0.00018327311
-0.00061044483
0.00014865778
-0.00062851768
0.00011225617
-0.00064066497
7.4390491e-05
-0.00064669723
3.5408704e-05
-0.00064648448
-4.3199366e-06
-0.00063995813
-4.4410859e-05
-0.00062711281
-8.446533e-05
-0.00060800719
-0.00012407634
-0.00058276476
-0.00016283046
-0.00055157459
-0.00020031087
-0.00051469182
-0.00023610064
-0.00047243783
-0.00026978666
-0.00042519979
-0.00030096467
-0.00037342922
-0.00032924543
-0.00031763932
-0.000354262
-0.00025840071
-0.00037567784
-0.00019633543
-0.00039319532
-0.00013210937
-0.00040656407
-6.6422841e-05
-0.00041558871
2.912506e-14
-0.00042013514
6.6422841e-05
-0.00042013514
0.00013210937
-0.00041558871
0.00019633543
-0.00040656407
0.00025840071
-0.00039319532
0.00031763933
-0.00037567784
0.00037342922
-0.000354262
0.00042519979
-0.00032924543
0.00047243783
-0.00030096467
0.00051469182
-0.00026978666
0.00055157459
-0.00023610064
0.00058276476
-0.00020031087
0.00060800719
-0.00016283046
0.00062711281
-0.00012407634
0.00063995813
-8.446533e-05
0.00064648448
-4.4410859e-05
0.00064669723
-4.3199366e-06
0.00064066497
3.5408704e-05
0.00062851768
7.4390491e-05
0.00061044483
0.00011225617
0.00058669219
0.00014865778
0.00055755754
0.00018327311
0.00052338523
0.00021581026
0.00048455968
0.00024601141
0.00044149814
0.00027365546
0.00039464323
0.00029855891
0.00034445557
0.00032057512
0.00029140725
0.00033959171
0.00023597626
0.00035552663
0.00017864232
0.00036832313
0.00011988424
0.00037794439
6.0178664e-05
0.00038436826
0.00038758275
-5.7470128e-05
0.00044505288
-0.0001145071
0.00044140523
-0.00017067488
0.00043411216
-0.00022553219
0.00042318044
-0.00027863145
0.00040862589
-0.00032951917
0.00039047944
-0.00037773826
0.00036879421
-0.00042283225
0.0003436529
-0.00046435127
0.00031517447
-0.00050185944
0.00028351959
-0.00053494321
0.00024889403
-0.00056321981
0.00021154971
-0.00058634541
0.00017178338
-0.00060402223
0.00012993298
-0.00061600419
8.6372458e-05
-0.00062210113
4.1505643e-05
-0.00062218154
-4.2395326e-06
-0.00061617356
-5.0418837e-05
-0.00060406655
-9.6572341e-05
-0.00058591108
-0.00014223181
-0.00056181958
-0.00018692196
-0.00053196708
-0.00023016337
-0.00049659212
-0.00027147561
-0.00045599751
-0.00031038127
-0.00041055068
-0.0003464115
-0.00036068305
-0.00037911306
-0.00030688812
-0.00040805693
-0.00024971781
-0.00043284815
-0.0001897769
-0.00045313622
-0.00012771549
-0.00046862548
-6.4219561e-05
-0.00047908463
2.7113799e-14
-0.0004843547
6.4219561e-05
-0.0004843547
0.00012771549
-0.00047908463
0.0001897769
-0.00046862548
0.00024971781
-0.00045313622
0.00030688812
-0.00043284815
0.00036068305
-0.00040805693
0.00041055068
-0.00037911306
0.00045599751
-0.0003464115
0.00049659212
-0.00031038127
0.00053196708
-0.00027147561
0.00056181958
-0.00023016337
0.00058591108
-0.00018692196
0.00060406655
-0.00014223181
0.00061617356
-9.6572341e-05
0.00062218154
-5.0418836e-05
0.00062210113
-4.2395325e-06
0.00061600419
4.1505643e-05
0.00060402223
8.6372458e-05
0.00058634541
0.00012993298
0.00056321981
0.00017178338
0.00053494321
0.00021154971
0.00050185944
0.00024889403
0.00046435127
0.00028351959
0.00042283225
0.00031517447
0.00037773826
0.0003436529
0.00032951917
0.00036879421
0.00027863145
0.00039047944
0.00022553219
0.00040862589
0.00017067488
0.00042318044
0.0001145071
0.00043411216
5.7470128e-05
0.00044140523
0.00044505288
-5.4764847e-05
0.00049981773
-0.00010913975
0.00049578014
-0.00016272994
0.00048770234
-0.00021513173
0.00047558223
-0.00026592999
0.00045942416
-0.00031469763
0.00043924707
-0.00036099744
0.00041509403
-0.00040438657
0.00038704202
-0.00044442312
0.00035521103
-0.0004806748
0.00031977127
-0.0005127285
0.00028094773
-0.0005402003
0.00023902152
-0.00056274478
0.00019432786
-0.00058006293
0.00014725113
-0.00059190814
9.8217666e-05
-0.00059809004
4.7687543e-05
-0.00059847662
-3.8529498e-06
-0.00059299391
-5.5901553e-05
-0.00058162692
-0.00010793932
-0.00056441868
-0.00015944006
-0.00054147045
-0.00020987019
-0.00051294261
-0.00025869121
-0.00047905604
-0.00030536218
-0.00044009375
-0.00034934356
-0.00039640224
-0.00039010301
-0.00034839195
-0.00042712334
-0.0002965363
-0.00045991259
-0.00024136872
-0.00048801573
-0.00018347762
-0.00051102732
-0.00012349889
-0.00052860421
-6.2106299e-05
-0.00054047723
2.4845925e-14
-0.000546461
6.2106299e-05
-0.000546461
0.00012349889
-0.00054047723
0.00018347762
-0.00052860421
0.00024136872
-0.00051102732
0.0002965363
-0.00048801573
0.00034839195
-0.00045991259
0.00039640224
-0.00042712334
0.00044009375
-0.00039010301
0.00047905604
-0.00034934356
0.00051294261
-0.00030536218
0.00054147045
-0.00025869121
0.00056441868
-0.00020987019
0.00058162692
-0.00015944006
0.00059299391
-0.00010793932
0.00059847662
-5.5901553e-05
0.00059809004
-3.8529498e-06
0.00059190814
4.7687543e-05
0.00058006293
9.8217666e-05
0.00056274478
0.00014725113
0.0005402003
0.00019432786
0.0005127285
0.00023902152
0.0004806748
0.00028094773
0.00044442312
0.00031977127
0.00040438657
0.00035521103
0.00036099744
0.00038704202
0.00031469763
0.00041509403
0.00026592999
0.00043924707
0.00021513173
0.00045942416
0.00016272994
0.00047558223
0.00010913975
0.00048770234
5.4764847e-05
0.00049578014
0.00049981773
-5.2362914e-05
0.00055218064
-0.00010437995
0.00054779717
-0.00015569805
0.00053902043
-0.00020595076
0.00052583494
-0.000254754
0.0005082274
-0.00030170441
0.00048619748
-0.00034638087
0.00045977048
-0.00038834919
0.00042901034
-0.00042716991
0.00039403176
-0.00046240845
0.0003550098
-0.00049364667
0.00031218594
-0.00052049481
0.00026586966
-0.00054260246
0.00021643551
-0.00055966753
0.0001643162
-0.00057144253
0.00010999266
-0.00057773787
5.398288e-05
-0.00057842289
-3.1679318e-06
-0.00057342346
-6.0900983e-05
-0.00056272227
-0.00011864051
-0.00054635619
-0.00017580614
-0.0005244161
-0.00023181028
-0.00049704789
-0.00028605941
-0.00046445464
-0.00033795543
-0.00042689937
-0.00038689883
-0.00038470779
-0.00043229459
-0.0003382701
-0.00047356103
-0.00028804121
-0.00051014149
-0.00023453864
-0.00054151829
-0.00017833797
-0.00056722799
-0.00012006537
-0.00058687682
-6.0387626e-05
-0.00060015497
2.2805456e-14
-0.00060684863
6.0387626e-05
-0.00060684863
0.00012006537
-0.00060015497
0.00017833797
-0.00058687682
0.00023453864
-0.00056722799
0.00028804121
-0.00054151829
0.0003382701
-0.00051014149
0.00038470779
-0.00047356103
0.00042689937
-0.00043229459
0.00046445464
-0.00038689883
0.00049704789
-0.00033795543
0.0005244161
-0.00028605941
0.00054635619
-0.00023181028
0.00056272227
-0.00017580614
0.00057342346
-0.00011864051
0.00057842289
-6.0900983e-05
0.00057773787
-3.1679317e-06
0.00057144253
5.398288e-05
0.00055966753
0.00010999266
0.00054260246
0.0001643162
0.00052049481
0.00021643551
0.00049364667
0.00026586966
0.00046240845
0.00031218595
0.00042716991
0.0003550098
0.00038834919
0.00039403176
0.00034638087
0.00042901034
0.00030170441
0.00045977048
0.000254754
0.00048619748
0.00020595076
0.0005082274
0.00015569805
0.00052583494
0.00010437995
0.00053902043
5.2362914e-05
0.00054779717
0.00055218064
-5.0586745e-05
0.00060276739
-0.00010086986
0.00059808029
-0.00015053572
0.00058868629
-0.00019925194
0.00057455116
-0.00024666114
0.00055563659
-0.00029237801
0.00053191436
-0.00033599048
0.00050338295
-0.00037706499
0.00047008485
-0.0004151558
0.00043212257
-0.00044981733
0.00038967133
-0.00048061843
0.00034298704
-0.00050715691
0.00029240814
-0.00052907281
0.00023835141
-0.00054605866
0.00018130206
-0.00055786609
0.00012180009
-0.00056430815
6.0424938e-05
-0.00056525877
-2.2173066e-06
-0.00056064666
-6.5513096e-05
-0.00055045545
-0.00012883172
-0.00053471821
-0.00019154338
-0.00051351685
-0.00025301164
-0.00048698351
-0.00031259275
-0.0004553039
-0.00036963505
-0.00041872167
-0.00042348105
-0.00037754306
-0.00047347321
-0.00033214036
-0.00051896373
-0.00028295358
-0.00055932826
-0.0002304894
-0.00059398247
-0.00017531694
-0.00062240045
-0.00011806033
-0.00064413343
-5.9388095e-05
-0.0006588272
2.1625586e-14
-0.00066623672
5.9388095e-05
-0.00066623672
0.00011806033
-0.0006588272
0.00017531694
-0.00064413343
0.0002304894
-0.00062240045
0.00028295358
-0.00059398247
0.00033214036
-0.00055932826
0.00037754306
-0.00051896373
0.00041872167
-0.00047347321
0.0004553039
-0.00042348105
0.00048698351
-0.00036963505
0.00051351685
-0.00031259275
0.00053471821
-0.00025301164
0.00055045545
-0.00019154338
0.00056064666
-0.00012883172
0.00056525877
-6.5513096e-05
0.00056430815
-2.2173066e-06
0.00055786609
6.0424938e-05
0.00054605866
0.00012180009
0.00052907281
0.00018130206
0.00050715691
0.00023835141
0.00048061843
0.00029240814
0.00044981733
0.00034298704
0.0004151558
0.00038967133
0.00037706499
0.00043212257
0.00033599048
0.00047008485
0.00029237801
0.00050338295
0.00024666114
0.00053191436
0.00019925194
0.00055563659
0.00015053572
0.00057455116
0.00010086986
0.00058868629
5.0586745e-05
0.00059808029
0.00060276739
-4.9743397e-05
0.00065251078
-9.9220967e-05
0.00064755786
-0.00014815354
0.00063761886
-0.00019623687
0.00062263449
-0.000243133
0.00060253273
-0.00028846595
0.00057724731
-0.00033182251
0.00054673951
-0.00037275848
0.00051102082
-0.00041080998
0.00047017407
-0.00044550886
0.00042437021
-0.00047640052
0.0003738787
-0.00050306209
0.00031906971
-0.00052511859
0.00026040791
-0.00054225508
0.00019843855
-0.00055422324
0.00013376825
-0.00056084229
6.7043988e-05
-0.00056199646
-1.063138e-06
-0.0005576212
-6.9888353e-05
-0.00054770626
-0.00013874666
-0.00053228388
-0.00020696577
-0.00051142858
-0.00027386693
-0.00048525943
-0.0003387619
-0.0004539451
-0.00040094937
-0.00041771078
-0.00045971538
-0.00037684513
-0.00051433886
-0.0003317061
-0.00056410276
-0.00028272425
-0.00060831012
-0.00023040269
-0.00064630403
-0.00017531333
-0.00067748981
-0.00011808903
-0.00070135773
-5.9412167e-05
-0.00071750406
2.1196658e-14
-0.00072564889
5.9412167e-05
-0.00072564889
0.00011808903
-0.00071750406
0.00017531333
-0.00070135773
0.00023040269
-0.00067748981
0.00028272425
-0.00064630403
0.0003317061
-0.00060831012
0.00037684513
-0.00056410276
0.00041771078
-0.00051433886
0.0004539451
-0.00045971538
0.00048525943
-0.00040094937
0.00051142858
-0.0003387619
0.00053228388
-0.00027386693
0.00054770626
-0.00020696577
0.0005576212
-0.00013874666
0.00056199646
-6.9888353e-05
0.00056084229
-1.0631379e-06
0.00055422324
6.7043988e-05
0.00054225508
0.00013376825
0.00052511859
0.00019843855
0.00050306209
0.00026040791
0.00047640052
0.00031906971
0.00044550886
0.0003738787
0.00041080998
0.00042437021
0.00037275848
0.00047017407
0.00033182251
0.00051102082
0.00028846595
0.00054673951
0.000243133
0.00057724731
0.00019623687
0.00060253273
0.00014815354
0.00062263449
9.9220967e-05
0.00063761886
4.9743397e-05
0.00064755786
0.00065251078
-5.0068786e-05
0.00070257957
-9.9902934e-05
0.00069739201
-0.00014925056
0.00068696649
-0.0001978273
0.00067121123
-0.00024530494
0.00065001036
-0.00029130547
0.00062324784
-0.00033540163
0.00059083567
-0.00037712444
0.00055274363
-0.00041597724
0.00050902687
-0.00045145515
0.00045984812
-0.00048306768
0.00040549122
-0.00051036174
0.00034636377
-0.00053294186
0.00028298803
-0.00055048451
0.0002159812
-0.00056274463
0.00014602837
-0.0005695535
7.3852858e-05
-0.0005708167
2.0005816e-07
-0.00056647941
-7.4225635e-05
-0.00055654643
-0.00014867965
-0.00054105191
-0.00022246028
-0.00052006391
-0.00029485494
-0.00049368777
-0.00036513803
-0.00046207428
-0.00043256287
-0.00042542997
-0.00049635968
-0.0003840276
-0.00055574122
-0.00033821471
-0.00060991566
-0.00028841885
-0.00065810598
-0.0002351487
-0.00069957418
-0.0001789903
-0.00073364821
-0.00012059868
-0.00075974935
-6.0684987e-05
-0.00077741776
2.118664e-14
-0.00078633387
6.0684987e-05
-0.00078633387
0.00012059868
-0.00077741776
0.0001789903
-0.00075974935
0.0002351487
-0.00073364821
0.00028841885
-0.00069957418
0.00033821471
-0.00065810598
0.0003840276
-0.00060991566
0.00042542997
-0.00055574122
0.00046207428
-0.00049635968
0.00049368777
-0.00043256287
0.00052006391
-0.00036513803
0.00054105191
-0.00029485494
0.00055654643
-0.00022246028
0.00056647941
-0.00014867965
0.0005708167
-7.4225635e-05
0.0005695535
2.0005825e-07
0.00056274463
7.3852859e-05
0.00055048451
0.00014602837
0.00053294186
0.0002159812
0.00051036174
0.00028298803
0.00048306768
0.00034636377
0.00045145515
0.00040549122
0.00041597724
0.00045984812
0.00037712444
0.00050902687
0.00033540163
0.00055274363
0.00029130547
0.00059083567
0.00024530494
0.00062324784
0.0001978273
0.00065001036
0.00014925056
0.00067121123
9.9902934e-05
0.00068696649
5.0068786e-05
0.00069739201
0.00070257957
-5.1650421e-05
0.00075422999
-0.00010308972
0.00074883131
-0.00015408501
0.00073796178
-0.00020436237
0.00072148859
-0.00025359229
0.00069924028
-0.00030138187
0.00067103742
-0.00034727516
0.00063672897
-0.00039076234
0.00059623081
-0.00043129735
0.00054956188
-0.00046832262
0.0004968734
-0.00050129804
0.00043846664
-0.0005297305
0.00037479623
-0.00055319952
0.00030645705
-0.00057137466
0.00023415634
-0.00058402165
0.00015867536
-0.00059099651
8.0827724e-05
-0.00059222939
1.4329356e-06
-0.00058770241
-7.8752619e-05
-0.00057743327
-0.00015894878
-0.00056146227
-0.00023843129
-0.00053984994
-0.00031646727
-0.00051268425
-0.00039230372
-0.00048009381
-0.0004651533
-0.00044226363
-0.00053418987
-0.00039945017
-0.00059855468
-0.00035199343
-0.0006573724
-0.00030032435
-0.00070977505
-0.00024496671
-0.00075493182
-0.00018653316
-0.00079208175
-0.00012571564
-0.00082056687
-6.3270593e-05
-0.00083986281
2.197525e-14
-0.00084960447
6.3270593e-05
-0.00084960447
0.00012571564
-0.00083986281
0.00018653316
-0.00082056687
0.00024496671
-0.00079208175
0.00030032435
-0.00075493182
0.00035199343
-0.00070977505
0.00039945017
-0.0006573724
0.00044226363
-0.00059855468
0.00048009381
-0.00053418987
0.00051268425
-0.0004651533
0.00053984994
-0.00039230372
0.00056146227
-0.00031646727
0.00057743327
-0.00023843128
0.00058770241
-0.00015894878
0.00059222939
-7.8752619e-05
0.00059099651
1.4329357e-06
0.00058402165
8.0827724e-05
0.00057137466
0.00015867536
0.00055319952
0.00023415634
0.0005297305
0.00030645705
0.00050129804
0.00037479623
0.00046832262
0.00043846664
0.00043129735
0.0004968734
0.00039076234
0.00054956188
0.00034727516
0.00059623081
0.00030138187
0.00063672897
0.00025359229
0.00067103742
0.00020436237
0.00069924028
0.00015408501
0.00072148859
0.00010308972
0.00073796178
5.1650421e-05
0.00074883131
0.00075422999
-5.4326946e-05
0.00080855694
-0.00010845947
0.00080296383
-0.00016217625
0.00079167856
-0.00021520511
0.00077451745
-0.00026720486
0.00075124003
-0.00031775523
0.00072158779
-0.00036635703
0.00068533076
-0.00041244326
0.00064231704
-0.00045540135
0.00059251997
-0.00049460456
0.0005360766
-0.00052944928
0.00047331136
-0.0005593935
0.00040474046
-0.00058398991
0.00033105346
-0.0006029074
0.00025307383
-0.00061593638
0.00017170434
-0.00062297586
8.7867203e-05
-0.00062400739
2.4644684e-06
-0.00061905612
-8.3703891e-05
-0.00060816854
-0.00016983636
-0.00059139087
-0.00025520895
-0.00056876993
-0.00033908821
-0.00054036628
-0.00042070737
-0.0005062757
-0.00049924387
-0.00046665308
-0.00057381249
-0.00042173385
-0.00064347392
-0.0003718502
-0.00070725604
-0.00031744071
-0.00076418455
-0.00025905248
-0.00081332005
-0.00019733629
-0.00085379795
-0.00013303499
-0.00088486816
-6.6966171e-05
-0.00090593163
2.3367149e-14
-0.00091657064
6.6966171e-05
-0.00091657064
0.00013303499
-0.00090593163
0.00019733629
-0.00088486816
0.00025905248
-0.00085379795
0.00031744071
-0.00081332005
0.0003718502
-0.00076418455
0.00042173385
-0.00070725604
0.00046665308
-0.00064347392
0.0005062757
-0.00057381249
0.00054036628
-0.00049924387
0.00056876993
-0.00042070737
0.00059139087
-0.00033908821
0.00060816854
-0.00025520895
0.00061905612
-0.00016983636
0.00062400739
-8.3703891e-05
0.00062297586
2.4644685e-06
0.00061593638
8.7867203e-05
0.0006029074
0.00017170434
0.00058398991
0.00025307383
0.0005593935
0.00033105346
0.00052944928
0.00040474046
0.00049460456
0.00047331136
0.00045540135
0.0005360766
0.00041244326
0.00059251997
0.00036635703
0.00064231704
0.00031775523
0.00068533076
0.00026720486
0.00072158779
0.00021520511
0.00075124003
0.00016217625
0.00077451745
0.00010845947
0.00079167856
5.4326946e-05
0.00080296383
0.00080855694
-5.7565853e-05
0.00086612279
-0.00011495103
0.000860349
-0.00017194216
0.00084866969
-0.00022826396
0.00083083925
-0.0002835568
0.00080653288
-0.00033736402
0.000775395
-0.00038913147
0.00073709821
-0.00043822104
0.00069140661
-0.00048393808
0.00063823702
-0.00052557149
0.00057771001
-0.00056244165
0.00051018153
-0.00059395126
0.00043625007
-0.000619629
0.00035673119
-0.00063915696
0.00027260179
-0.00065237497
0.00018492235
-0.00065925767
9.4749902e-05
-0.0006598663
3.073091e-06
-0.00065429916
-8.927103e-05
-0.00064263897
-0.00018149655
-0.00062493539
-0.00027291253
-0.00060120681
-0.0003628168
-0.00057146552
-0.00045044866
-0.00053575291
-0.00053495648
-0.00049417567
-0.00061538973
-0.00044693573
-0.00069071386
-0.00039435127
-0.0007598405
-0.00033686798
-0.00082166783
-0.00027506049
-0.00087512754
-0.00020962536
-0.00091923308
-0.00014136651
-0.00095312701
-7.1174386e-05
-0.00097612376
2.3665241e-14
-0.00098774502
7.1174386e-05
-0.00098774502
0.00014136651
-0.00097612376
0.00020962536
-0.00095312701
0.00027506049
-0.00091923308
0.00033686798
-0.00087512754
0.00039435127
-0.00082166783
0.00044693573
-0.0007598405
0.00049417567
-0.00069071386
0.00053575291
-0.00061538973
0.00057146552
-0.00053495648
0.00060120681
-0.00045044866
0.00062493539
-0.0003628168
0.00064263897
-0.00027291253
0.00065429916
-0.00018149655
0.0006598663
-8.927103e-05
0.00065925767
3.0730911e-06
0.00065237497
9.4749902e-05
0.00063915696
0.00018492235
0.000619629
0.00027260179
0.00059395126
0.00035673119
0.00056244165
0.00043625007
0.00052557149
0.00051018153
0.00048393808
0.00057771001
0.00043822104
0.00063823702
0.00038913147
0.00069140661
0.00033736402
0.00073709821
0.0002835568
0.000775395
0.00022826396
0.00080653288
0.00017194216
0.00083083925
0.00011495103
0.00084866969
5.7565853e-05
0.000860349
0.00086612279
-6.0325414e-05
0.0009264482
-0.00012048901
0.0009205126
-0.00018028993
0.00090847061
-0.000239453
0.00089000232
-0.00029760151
0.00086468138
-0.00035424095
0.00083203445
-0.00040875759
0.00079161485
-0.000460434
0.00074308302
-0.00050848253
0.00068628555
-0.00055209609
0.00062132357
-0.0005905093
0.00054859474
-0.00062306716
0.00046880792
-0.00064928394
0.00038294797
-0.00066887966
0.00029219751
-0.00068178411
0.0001978268
-0.00068809776
0.00010106356
-0.00068801743
2.9927538e-06
-0.00068174183
-9.5546631e-05
-0.00066940905
-0.00019382932
-0.00065105995
-0.00029126163
-0.00062665411
-0.00038722263
-0.00059611716
-0.00048098561
-0.00055939744
-0.0005716762
-0.00051652074
-0.00065826643
-0.00046763139
-0.00073960321
-0.0004130178
-0.0008144541
-0.00035312438
-0.00088156126
-0.00028854992
-0.000939702
-0.00022003677
-0.00098774622
-0.00014845182
-0.001024712
-7.4761184e-05
-0.0010498144
2.293518e-14
-0.0010625062
7.4761184e-05
-0.0010625062
0.00014845182
-0.0010498144
0.00022003677
-0.001024712
0.00028854992
-0.00098774622
0.00035312438
-0.000939702
0.0004130178
-0.00088156126
0.00046763139
-0.0008144541
0.00051652074
-0.00073960321
0.00055939744
-0.00065826643
0.00059611716
-0.0005716762
0.00062665411
-0.00048098561
0.00065105995
-0.00038722263
0.00066940905
-0.00029126163
0.00068174183
-0.00019382932
0.00068801743
-9.5546631e-05
0.00068809776
2.9927538e-06
0.00068178411
0.00010106356
0.00066887966
0.0001978268
0.00064928394
0.00029219751
0.00062306716
0.00038294797
0.0005905093
0.00046880792
0.00055209609
0.00054859474
0.00050848253
0.00062132357
0.000460434
0.00068628555
0.00040875759
0.00074308302
0.00035424095
0.00079161485