/*--------------------------------*- C++ -*----------------------------------*\
| =========                 |                                                 |
| \\      /  F ield         | OpenFOAM: The Open Source CFD Toolbox           |
|  \\    /   O peration     | Version:  2306                                  |
|   \\  /    A nd           | Website:  www.openfoam.com                      |
|    \\/     M anipulation  |                                                 |
\*---------------------------------------------------------------------------*/
FoamFile
{
    version     2.0;
    format      ascii;
    arch        "LSB;label=32;scalar=64";
    class       volVectorField;
    location    "0.09";
    object      U_0;
}
// * * * * * * * * * * * * * * * * * * * * * * * * * * * * * * * * * * * * * //

dimensions      [0 1 -1 0 0 0 0];

internalField   nonuniform List<vector> 
6400
(
(-0.00024637313 -0.0081769944 8.5668247e-18)
(-0.00055569057 -0.0081594839 1.3043153e-17)
(-0.00090827617 -0.00809713 2.4150861e-18)
(-0.0012439359 -0.0079994363 -1.8057078e-18)
(-0.0015786928 -0.007865833 -1.2229088e-17)
(-0.0018998218 -0.0076984393 -4.0983213e-18)
(-0.0022052085 -0.0074998213 -5.1316425e-18)
(-0.0024926913 -0.0072725173 -3.4694603e-18)
(-0.0027602014 -0.0070192333 1.2262501e-19)
(-0.0030059832 -0.0067428147 -2.7706948e-18)
(-0.0032286598 -0.0064462074 -1.1472235e-18)
(-0.0034272068 -0.0061324184 -7.2230627e-19)
(-0.0036009375 -0.0058044757 -1.1172416e-18)
(-0.0037494871 -0.0054653861 -1.4393759e-20)
(-0.003872795 -0.0051180975 7.8335503e-20)
(-0.0039710829 -0.0047654637 6.6357931e-19)
(-0.0040448312 -0.0044102129 -9.9407558e-19)
(-0.0040947525 -0.0040549214 -1.1547048e-19)
(-0.0041217641 -0.0037019903 4.8415662e-19)
(-0.0041269587 -0.0033536285 2.9819784e-19)
(-0.0041115746 -0.0030118394 -2.0429982e-19)
(-0.0040769672 -0.0026784126 -3.3307645e-19)
(-0.0040245802 -0.00235492 -5.4992123e-19)
(-0.0039559182 -0.0020427153 3.9182904e-19)
(-0.0038725191 -0.0017429385 1.0877068e-18)
(-0.0037759313 -0.0014565258 -3.1665172e-19)
(-0.0036676962 -0.0011842138 -5.1493714e-19)
(-0.0035493304 -0.00092655309 3.6107505e-20)
(-0.0034223085 -0.00068392067 5.7182608e-19)
(-0.0032880483 -0.00045653453 6.8780642e-19)
(-0.0031478914 -0.00024447741 -1.7146753e-19)
(-0.0030030949 -4.7702421e-05 -2.8772227e-19)
(-0.0028549467 0.00013402794 -8.2381762e-20)
(-0.0027045633 0.00030092992 2.4088262e-19)
(-0.002552904 0.00045336737 3.0433235e-19)
(-0.0024009175 0.00059177258 -3.8076831e-19)
(-0.0022494601 0.00071663184 -1.3139096e-19)
(-0.0020992979 0.00082848067 4.8896018e-21)
(-0.0019511129 0.0009278921 7.6390777e-20)
(-0.0018055063 0.0010154672 1.6614793e-19)
(-0.0016630025 0.0010918259 4.8926942e-20)
(-0.0015240527 0.0011575991 6.0900896e-20)
(-0.0013890395 0.0012134223 -1.8485837e-19)
(-0.0012582811 0.0012599287 -2.7364368e-19)
(-0.0011320374 0.0012977461 -7.4285998e-20)
(-0.001010514 0.0013274907 5.5482747e-20)
(-0.00089386664 0.0013497641 -3.9016813e-20)
(-0.00078220517 0.0013651503 -4.1321828e-20)
(-0.00067559825 0.0013742128 -2.0115188e-19)
(-0.00057407916 0.0013774933 -9.3409244e-20)
(-0.00047764673 0.0013755093 3.9748086e-20)
(-0.00038627117 0.0013687536 1.6140559e-20)
(-0.00029989732 0.0013576937 -1.1552985e-20)
(-0.0002184479 0.001342771 -8.09566e-20)
(-0.00014182518 0.0013244021 4.3888448e-20)
(-6.9892007e-05 0.0013029692 8.766799e-20)
(-2.565001e-06 0.0012788119 3.5530217e-21)
(6.022841e-05 0.0012524176 -2.3654793e-20)
(0.00011870535 0.0012239337 -7.6478278e-20)
(0.00017305685 0.0011937134 -6.770483e-21)
(0.00022340809 0.0011620272 4.028798e-20)
(0.00026991911 0.0011291216 6.4500892e-21)
(0.00031275125 0.0010952259 -8.199015e-20)
(0.00035206691 0.0010605493 -8.3308071e-20)
(0.00038802841 0.0010252831 4.3941665e-20)
(0.00042079712 0.00098960089 3.3753034e-20)
(0.00045053247 0.00095365972 2.792278e-20)
(0.00047739105 0.00091760136 -3.5339304e-21)
(0.00050152636 0.00088155355 -3.1631708e-20)
(0.00052308804 0.00084563042 3.5916622e-20)
(0.00054222144 0.00080993337 7.075419e-20)
(0.00055906751 0.00077455283 -3.7271156e-20)
(0.00057376249 0.0007395682 -2.367671e-20)
(0.0005864375 0.000705049 -3.5280324e-20)
(0.0005972187 0.00067105587 2.5915155e-20)
(0.00060622728 0.00063764093 1.5365359e-20)
(0.00061357898 0.00060484876 -1.6513455e-21)
(0.00061938454 0.00057271721 -1.6449832e-20)
(0.00062374949 0.00054127736 -2.0014443e-20)
(0.00062677429 0.00051055483 -4.4332161e-21)
(-0.00022300051 -0.0074977962 2.5195005e-18)
(-0.00050298021 -0.0074822187 -8.7495804e-18)
(-0.00082224745 -0.0074267265 -6.7747688e-19)
(-0.0011264568 -0.0073397435 -6.9267671e-19)
(-0.0014301753 -0.0072207003 3.2497758e-19)
(-0.0017219511 -0.0070714317 -2.292639e-19)
(-0.0019999317 -0.0068941582 -2.0517108e-18)
(-0.0022622001 -0.0066910682 8.9598066e-19)
(-0.0025069088 -0.0064644988 -3.344679e-19)
(-0.002732467 -0.0062169148 -8.5674834e-19)
(-0.0029376101 -0.0059508767 8.1875158e-19)
(-0.0031213787 -0.0056690075 8.5460454e-19)
(-0.0032831054 -0.0053739584 5.4613686e-19)
(-0.0034224042 -0.0050683726 1.0289965e-18)
(-0.0035391558 -0.004754852 2.9223853e-19)
(-0.0036334904 -0.004435926 -4.9957029e-19)
(-0.0037057679 -0.0041140235 5.6111581e-19)
(-0.003756556 -0.0037914489 8.0864387e-19)
(-0.0037866071 -0.0034703612 1.0667968e-18)
(-0.0037968337 -0.0031527582 9.3207078e-19)
(-0.0037882831 -0.0028404633 1.5028092e-18)
(-0.0037621125 -0.0025351179 7.1935625e-19)
(-0.0037195647 -0.0022381758 7.8749906e-20)
(-0.0036619444 -0.0019509026 1.0590145e-18)
(-0.0035905955 -0.0016743769 -9.1695127e-19)
(-0.0035068778 -0.001409498 -5.8087771e-19)
(-0.0034121521 -0.0011569906 3.7162487e-19)
(-0.0033077657 -0.00091741277 5.038422e-19)
(-0.0031950356 -0.00069116701 8.2151246e-19)
(-0.0030752354 -0.00047851216 -7.7792161e-19)
(-0.0029495794 -0.00027957688 -4.0715212e-19)
(-0.0028192121 -9.4371545e-05 9.2586664e-20)
(-0.0026853061 7.7199845e-05 9.6631452e-20)
(-0.0025488805 0.0002353297 2.7797713e-19)
(-0.0024108292 0.00038030757 -8.1898987e-19)
(-0.0022720406 0.00051246926 -3.1146946e-19)
(-0.0021333157 0.00063221282 1.2624486e-19)
(-0.0019953766 0.00073998615 9.9198488e-20)
(-0.0018588712 0.00083627574 9.6782712e-20)
(-0.0017243763 0.00092159817 -5.0749797e-19)
(-0.0015923994 0.00099649148 -3.2220965e-19)
(-0.0014633823 0.0010615084 -1.7677187e-19)
(-0.0013377046 0.0011172093 -3.1986799e-19)
(-0.0012156864 0.0011641568 -2.3554526e-19)
(-0.001097594 0.001202911 -1.1599915e-19)
(-0.00098364362 0.0012340253 -2.5171009e-20)
(-0.00087400484 0.001258043 -1.8985198e-19)
(-0.00076880458 0.0012754939 -2.0975657e-19)
(-0.00066813053 0.0012868914 -2.0521061e-19)
(-0.00057203685 0.0012927312 -9.5540465e-20)
(-0.00048054449 0.0012934895 -3.8344562e-20)
(-0.00039364684 0.0012896206 -9.4956315e-20)
(-0.00031131281 0.0012815586 -7.8383338e-20)
(-0.00023348914 0.0012697136 -1.211389e-19)
(-0.00016010379 0.0012544749 -9.5530932e-20)
(-9.1061424e-05 0.0012362078 1.941567e-20)
(-2.6223043e-05 0.0012152234 2.5545363e-20)
(3.4393462e-05 0.0011919384 -4.2149498e-21)
(9.0937246e-05 0.0011665904 -1.2447899e-19)
(0.00014365994 0.0011394491 -1.2284745e-19)
(0.00019263497 0.0011107848 -6.9000082e-21)
(0.00023800373 0.0010808362 -1.1093957e-20)
(0.00027990904 0.0010498234 -1.0111973e-19)
(0.00031849502 0.0010179491 -9.2864732e-20)
(0.00035390692 0.00098539869 -3.0596212e-20)
(0.0003862897 0.00095234168 -2.790039e-21)
(0.0004157875 0.00091893196 7.4909307e-21)
(0.00044254249 0.00088530908 -3.6130062e-20)
(0.00046669462 0.00085159942 -4.6064134e-20)
(0.00048838113 0.00081791645 -1.1290666e-20)
(0.00050773556 0.00078436193 2.8319861e-20)
(0.00052488807 0.00075102661 -3.1129351e-21)
(0.00053996482 0.00071799125 -3.4706974e-20)
(0.00055308768 0.00068532691 -3.9126052e-20)
(0.00056437432 0.00065309606 -3.7259116e-21)
(0.00057393795 0.00062135307 5.7129827e-23)
(0.00058188715 0.00059014493 -4.3289989e-21)
(0.00058832601 0.00055951214 -2.7189216e-20)
(0.00059335416 0.00052948852 -2.1351688e-20)
(0.00059706666 0.00050010253 -9.6770456e-21)
(-0.00020216836 -0.0068825044 3.8472473e-19)
(-0.00045599921 -0.0068686133 -8.4658874e-18)
(-0.0007455517 -0.0068191149 1.6409779e-18)
(-0.0010216712 -0.0067414943 7.1735119e-18)
(-0.0012976192 -0.006635196 6.3367058e-18)
(-0.0015630741 -0.0065018131 1.0636704e-18)
(-0.0018164076 -0.0063432737 3.1584298e-18)
(-0.0020559172 -0.0061614717 3.6646627e-18)
(-0.0022799537 -0.0059584313 3.958845e-18)
(-0.0024870768 -0.0057362931 2.1529456e-18)
(-0.0026761283 -0.0054972873 2.1005752e-18)
(-0.002846214 -0.0052437062 9.1116271e-20)
(-0.0029966932 -0.0049778745 4.199766e-19)
(-0.0031271708 -0.0047021182 -2.8213809e-19)
(-0.0032374853 -0.0044187362 -4.7228778e-19)
(-0.0033276954 -0.0041299715 8.1459094e-19)
(-0.0033980642 -0.0038379878 1.9591782e-19)
(-0.00344904 -0.0035448467 5.8429891e-20)
(-0.0034812378 -0.0032524893 -2.592044e-19)
(-0.0034954182 -0.0029627214 -3.0381871e-19)
(-0.0034924663 -0.0026772015 -7.4406353e-19)
(-0.0034733695 -0.0023974326 -1.1366796e-18)
(-0.0034391976 -0.0021247566 2.0939723e-19)
(-0.0033910818 -0.0018603524 -3.7695737e-19)
(-0.0033301952 -0.0016052363 3.8144674e-19)
(-0.0032577326 -0.0013602659 6.7349631e-19)
(-0.0031748953 -0.0011261468 -3.4089563e-19)
(-0.003082879 -0.00090343594 -2.0128741e-22)
(-0.0029828596 -0.00069255106 -3.4417617e-19)
(-0.0028759798 -0.00049378064 2.6311104e-19)
(-0.0027633356 -0.00030729407 7.0585696e-19)
(-0.0026459659 -0.00013315927 -2.9590327e-19)
(-0.0025249496 2.8644851e-05 -1.6031019e-19)
(-0.0024012068 0.00017833129 -3.5577933e-19)
(-0.0022755561 0.00031603281 5.8707602e-20)
(-0.00214884 0.00044202565 7.0477228e-19)
(-0.0020218042 0.00055664036 2.7481372e-21)
(-0.0018951257 0.00066024967 4.6984701e-20)
(-0.0017694177 0.0007532652 -2.0822997e-19)
(-0.0016452302 0.00083612905 -1.8070465e-19)
(-0.0015230519 0.00090930681 3.8120652e-19)
(-0.0014033119 0.00097328085 1.5250775e-20)
(-0.0012863831 0.0010285444 -1.7721355e-19)
(-0.0011725846 0.0010755957 7.8832182e-21)
(-0.0010621851 0.0011149338 -2.256544e-20)
(-0.00095540742 0.0011470545 -2.2385051e-21)
(-0.00085243121 0.0011724473 -1.6700199e-19)
(-0.00075339625 0.0011915917 -6.3457223e-20)
(-0.00065840542 0.0012049547 -4.1394516e-21)
(-0.00056752979 0.0012129891 2.4893749e-20)
(-0.00048080909 0.0012161321 3.4832853e-21)
(-0.00039825617 0.0012148019 -4.7029755e-20)
(-0.00031986012 0.0012094001 -3.8013335e-21)
(-0.00024558889 0.0012003078 2.8797727e-20)
(-0.00017539066 0.0011878869 8.3038502e-20)
(-0.00010919735 0.0011724819 -2.2357001e-20)
(-4.6889444e-05 0.0011544032 -2.0375681e-20)
(1.1534504e-05 0.0011339426 4.7727654e-20)
(6.6160818e-05 0.0011114848 2.5359013e-20)
(0.00011719836 0.001087183 2.9980744e-20)
(0.00016474249 0.0010613162 -5.1970804e-20)
(0.0002089063 0.0010341152 -5.4692216e-20)
(0.00024981448 0.0010057901 -3.9449747e-21)
(0.00028759429 0.00097653644 3.4395502e-20)
(0.00032237477 0.00094653369 3.7773927e-20)
(0.00035428587 0.00091594632 -4.3487062e-20)
(0.00038345729 0.00088492475 -2.8326635e-20)
(0.00041001782 0.00085360571 2.8073302e-20)
(0.0004340948 0.00082211349 3.6237467e-20)
(0.00045581341 0.00079056055 5.907317e-21)
(0.00047529624 0.0007590481 -3.0859353e-20)
(0.00049266315 0.000727667 -1.7652907e-20)
(0.00050803063 0.00069649848 -1.2248079e-20)
(0.00052151181 0.00066561477 2.2099026e-20)
(0.00053321609 0.00063507947 1.950255e-20)
(0.000543249 0.00060494885 -4.0382567e-20)
(0.00055171229 0.00057527166 -3.1770166e-20)
(0.00055870355 0.00054609055 1.3556292e-21)
(0.00056431655 0.00051744178 1.6564166e-20)
(0.00056864104 0.00048935603 4.388903e-21)
(-0.00018356082 -0.0063242374 5.7808298e-18)
(-0.00041403489 -0.0063118225 8.4319749e-18)
(-0.00067703046 -0.0062675756 2.7357845e-18)
(-0.00092801249 -0.006198164 1.1516226e-18)
(-0.0011790695 -0.0061030532 1.1407468e-18)
(-0.0014208835 -0.005983631 4.6928603e-19)
(-0.0016520206 -0.0058415766 3.4327302e-19)
(-0.0018709661 -0.0056785347 3.3394146e-18)
(-0.0020762472 -0.0054962634 1.0279357e-18)
(-0.0022665612 -0.0052966265 -4.742898e-19)
(-0.0024408491 -0.0050815706 -8.4574527e-19)
(-0.0025982806 -0.0048531023 -6.8291593e-19)
(-0.0027382463 -0.0046132634 1.4825854e-19)
(-0.0028603505 -0.0043641035 6.158583e-20)
(-0.0029644029 -0.0041076552 1.3680041e-18)
(-0.0030504073 -0.0038459098 -2.0598989e-18)
(-0.0031185484 -0.0035807954 -1.1153409e-18)
(-0.0031691771 -0.0033141571 -4.3859872e-19)
(-0.0032027939 -0.0030477401 4.0438092e-20)
(-0.0032200314 -0.0027831764 1.3147373e-18)
(-0.0032216366 -0.0025219733 -8.1602507e-19)
(-0.003208452 -0.0022655053 -4.6417101e-19)
(-0.003181398 -0.0020150087 -2.146499e-19)
(-0.0031414552 -0.001771579 7.389371e-20)
(-0.0030896474 -0.0015361695 1.1268159e-18)
(-0.0030270244 -0.0013095944 -2.397571e-19)
(-0.0029546467 -0.0010925342 -3.626093e-19)
(-0.002873575 -0.00088553743 7.1386624e-20)
(-0.0027848587 -0.00068902856 -5.1343371e-20)
(-0.0026895239 -0.00050331548 8.4672697e-19)
(-0.0025885645 -0.00032859807 -1.067152e-19)
(-0.0024829325 -0.00016498682 -5.1866024e-19)
(-0.0023735212 -1.2504746e-05 -2.0821727e-19)
(-0.0022612488 0.0001290145 -2.4472801e-19)
(-0.0021469283 0.00025963201 4.791154e-19)
(-0.0020312611 0.00037956334 -6.1942634e-20)
(-0.0019149518 0.00048907727 -2.4015474e-19)
(-0.0017986399 0.00058848051 -1.6423065e-19)
(-0.0016829049 0.00067811883 -2.1568303e-19)
(-0.0015682697 0.00075836907 7.4217689e-20)
(-0.0014552018 0.00082963238 -1.2661444e-19)
(-0.001344116 0.00089232831 -1.6201141e-19)
(-0.0012353756 0.00094688972 -2.3808872e-20)
(-0.0011292956 0.00099375684 2.1107817e-20)
(-0.0010261448 0.0010333734 -1.2103476e-19)
(-0.00092614885 0.0010661826 -5.3150826e-20)
(-0.00082949411 0.0010926245 -4.8814516e-21)
(-0.00073632996 0.0011131322 2.6988172e-20)
(-0.00064677106 0.0011281299 -6.9028921e-21)
(-0.00056090187 0.0011380302 -2.6342614e-20)
(-0.00047877757 0.0011432336 -3.3985075e-20)
(-0.00040042721 0.0011441246 1.2794665e-20)
(-0.00032585726 0.0011410739 -3.0054493e-20)
(-0.00025505388 0.0011344345 2.3087525e-20)
(-0.00018798295 0.0011245427 1.3725414e-19)
(-0.00012459707 0.0011117196 -8.8419417e-20)
(-6.4811487e-05 0.0010962647 -1.2153506e-19)
(-8.5792522e-06 0.001078424 -3.713256e-20)
(4.4122909e-05 0.0010585972 2.8285273e-21)
(9.3442886e-05 0.001036908 6.7193233e-20)
(0.00013951856 0.0010136265 -6.1794519e-20)
(0.00018242926 0.00098897377 -1.1167457e-19)
(0.00022228347 0.00096315019 -3.7226996e-20)
(0.00025919332 0.00093634342 1.3951672e-21)
(0.00029327309 0.00090872667 6.3148491e-20)
(0.00032463863 0.00088045912 -1.149741e-20)
(0.00035340638 0.00085168695 -6.06657e-20)
(0.00037969253 0.00082254377 -6.8335874e-21)
(0.00040361245 0.00079315127 -5.1555681e-21)
(0.00042528032 0.00076362043 2.4287935e-20)
(0.00044480825 0.00073405137 -3.2402523e-21)
(0.00046230622 0.00070453449 -5.2190417e-20)
(0.00047788173 0.00067515106 -4.257827e-20)
(0.00049163936 0.00064597375 -8.5160874e-21)
(0.00050368058 0.0006170672 2.5009454e-20)
(0.00051410375 0.0005884887 -1.5755323e-21)
(0.00052300388 0.00056028862 -3.5504553e-20)
(0.00053047234 0.00053251111 -2.1356225e-20)
(0.00053659715 0.00050519442 -2.3334039e-20)
(0.00054146277 0.00047837134 6.5169905e-21)
(-0.00016690667 -0.0058169606 6.1014428e-18)
(-0.00037647556 -0.005805842 7.5465457e-18)
(-0.00061568931 -0.0057662095 -3.6021765e-19)
(-0.00084413367 -0.0057040157 -6.6119561e-18)
(-0.001072842 -0.0056187515 -2.1755898e-18)
(-0.0012933893 -0.0055116294 -6.3925372e-18)
(-0.0015045097 -0.0053841155 -3.0955084e-18)
(-0.0017048539 -0.0052376436 -1.2121574e-18)
(-0.0018931058 -0.0050737443 -3.388274e-18)
(-0.0020680873 -0.0048940443 -1.1811816e-18)
(-0.0022288314 -0.004700246 5.7794244e-19)
(-0.0023745699 -0.0044941095 2.4534086e-18)
(-0.0025047267 -0.0042774304 7.5256379e-19)
(-0.0026189123 -0.0040520176 1.5647416e-18)
(-0.0027169172 -0.0038196701 2.2312177e-19)
(-0.0027987037 -0.0035821573 3.5690791e-19)
(-0.0028643941 -0.0033411982 1.1938271e-18)
(-0.0029142593 -0.0030984451 4.105731e-19)
(-0.0029487045 -0.0028554674 8.7084874e-19)
(-0.0029682547 -0.0026137395 1.4867612e-19)
(-0.0029735396 -0.0023746309 1.7569752e-19)
(-0.0029652777 -0.0021393973 -1.2728551e-19)
(-0.0029442606 -0.0019091759 -8.461765e-20)
(-0.0029113383 -0.0016849819 5.3339021e-19)
(-0.002867404 -0.0014677072 -1.4215943e-21)
(-0.0028133796 -0.0012581212 -4.8623468e-19)
(-0.0027502016 -0.0010568752 -1.6143412e-19)
(-0.0026788106 -0.0008645044 1.1271102e-19)
(-0.0026001426 -0.00068143266 3.9026614e-19)
(-0.002515118 -0.000507979 1.3180459e-19)
(-0.0024246328 -0.00034436445 -4.6600952e-19)
(-0.0023295443 -0.00019072175 -3.6114236e-19)
(-0.0022306616 -4.7097184e-05 -1.8061683e-19)
(-0.0021288305 8.6534492e-05 2.3400409e-19)
(-0.0020248014 0.00021027609 2.2511555e-19)
(-0.0019192234 0.00032428198 -4.7018063e-19)
(-0.0018127472 0.00042875727 -1.78575e-19)
(-0.0017059709 0.00052395101 -1.4414263e-19)
(-0.0015994397 0.00061015084 3.127548e-19)
(-0.0014936483 0.00068767591 1.544115e-19)
(-0.0013890427 0.00075687041 -1.5030409e-19)
(-0.001286021 0.00081809803 -7.2465829e-20)
(-0.0011849353 0.00087173716 -2.3403165e-19)
(-0.0010860938 0.00091817599 -1.4022307e-19)
(-0.00098976294 0.00095780812 -1.8916887e-19)
(-0.000896169 0.00099102919 -1.985762e-20)
(-0.00080550194 0.0010182335 8.4302341e-20)
(-0.00071791761 0.0010398122 -3.0439817e-20)
(-0.00063353961 0.0010561491 -8.9970876e-20)
(-0.00055246284 0.0010676199 -8.0832119e-20)
(-0.00047475507 0.0010745906 -6.6287949e-20)
(-0.00040045909 0.0010774141 3.9013456e-21)
(-0.00032959573 0.0010764319 -3.4493398e-20)
(-0.00026216645 0.0010719704 5.0482811e-20)
(-0.00019815331 0.0010643424 1.0849412e-19)
(-0.00013752544 0.0010538453 -2.3387189e-20)
(-8.0229729e-05 0.0010407632 -4.8611893e-20)
(-2.6180421e-05 0.0010253353 -3.2918553e-20)
(2.459247e-05 0.0010078797 3.3467297e-20)
(7.2182222e-05 0.00098860471 9.2426749e-20)
(0.00011676319 0.00096771041 -2.0998182e-20)
(0.00015838472 0.00094541728 -5.8234023e-20)
(0.00019714027 0.00092191828 -6.2135969e-20)
(0.00023312818 0.00089739265 3.3294418e-21)
(0.00026644924 0.00087200713 6.9972069e-20)
(0.00029720635 0.00084591525 1.4295508e-21)
(0.0003255036 0.00081925869 -2.4879605e-20)
(0.00035144551 0.00079216744 1.259699e-20)
(0.00037513636 0.0007647604 5.8577172e-21)
(0.00039667971 0.00073714627 6.2310814e-20)
(0.00041617797 0.00070942388 5.752659e-21)
(0.00043373193 0.0006816826 -3.7521348e-20)
(0.00044944037 0.00065400341 -2.6686393e-20)
(0.00046339978 0.00062645888 6.9648254e-21)
(0.00047570422 0.00059911431 4.1668989e-20)
(0.00048644503 0.00057202756 -1.5819375e-21)
(0.00049571062 0.00054525024 -3.0161979e-20)
(0.00050358651 0.00051882761 -2.2171582e-20)
(0.00051015515 0.00049279944 -1.0714439e-20)
(0.00051549586 0.00046720026 2.9520081e-20)
(-0.00015197228 -0.0053553681 4.2784226e-19)
(-0.00034279422 -0.0053453909 -9.6063019e-18)
(-0.00056067109 -0.0053098239 3.3902419e-18)
(-0.00076887318 -0.0052539932 -4.083354e-18)
(-0.00097748228 -0.0051774167 -9.1515868e-19)
(-0.0011788689 -0.0050811573 8.7195441e-19)
(-0.0013719145 -0.0049664984 -1.6002141e-18)
(-0.0015554144 -0.0048346935 -2.1108741e-18)
(-0.0017281917 -0.0046870788 -1.1583863e-18)
(-0.001889181 -0.0045250769 -7.3934664e-19)
(-0.0020375003 -0.0043501802 -3.7437348e-19)
(-0.0021724404 -0.0041639351 -1.0751337e-18)
(-0.0022934593 -0.0039679235 -1.3496304e-18)
(-0.0024001786 -0.0037637432 -1.1288854e-18)
(-0.0024923777 -0.0035529893 -1.0012438e-18)
(-0.0025699873 -0.0033372347 8.8782161e-20)
(-0.0026330804 -0.0031180137 -7.2627424e-19)
(-0.0026818625 -0.0028968063 -7.5217201e-19)
(-0.0027166596 -0.0026750242 -4.631167e-19)
(-0.0027379064 -0.0024539998 -5.1371039e-19)
(-0.0027461329 -0.0022349764 -4.0215683e-19)
(-0.0027419513 -0.0020191006 -3.8360008e-19)
(-0.0027260426 -0.001807417 -5.8903972e-19)
(-0.0026991431 -0.0016008647 -1.8523967e-20)
(-0.002662032 -0.0014002757 8.3462013e-20)
(-0.0026155188 -0.0012063746 -4.6708907e-19)
(-0.0025604303 -0.0010197811 -4.9580433e-19)
(-0.0024976006 -0.000841013 -1.7355534e-19)
(-0.0024278637 -0.00067048883 3.455557e-19)
(-0.0023520435 -0.00050853248 3.1452045e-19)
(-0.0022709459 -0.00035538002 -3.6379943e-19)
(-0.0021853484 -0.00021118426 -3.1830879e-19)
(-0.0020959929 -7.6023952e-05 4.0038203e-20)
(-0.0020036442 5.0084642e-05 5.0356332e-19)
(-0.0019089819 0.00016720052 2.9977981e-19)
(-0.0018126124 0.00027544694 -1.5019375e-19)
(-0.0017151439 0.00037497735 1.4766486e-19)
(-0.0016171326 0.00046599171 1.8315827e-19)
(-0.0015190888 0.0005487276 3.9476388e-19)
(-0.0014214791 0.0006234536 3.4712357e-19)
(-0.0013247265 0.0006904637 2.0213905e-19)
(-0.0012292116 0.00075007189 -1.2996102e-19)
(-0.0011352738 0.00080260817 -2.5879792e-19)
(-0.0010432128 0.00084841365 -8.2568676e-20)
(-0.00095329005 0.00088783675 -1.0095566e-19)
(-0.00086573072 0.0009212299 -1.1298986e-21)
(-0.00078072612 0.00094894609 -9.5255688e-20)
(-0.00069843603 0.00097133704 -9.4072625e-20)
(-0.0006189903 0.00098875017 -3.279321e-20)
(-0.00054249181 0.0010015267 -1.5379374e-20)
(-0.00046901847 0.0010100004 -4.3940665e-20)
(-0.00039862402 0.0010144949 -6.9075494e-20)
(-0.00033134144 0.0010153238 -6.5587779e-20)
(-0.00026718524 0.001012789 -5.3374055e-20)
(-0.00020615147 0.0010071801 7.1937488e-20)
(-0.00014822213 0.00099877272 2.2613912e-20)
(-9.3363261e-05 0.00098783365 -6.268549e-20)
(-4.1504689e-05 0.00097460254 -5.8543574e-20)
(7.3447126e-06 0.00095930679 -2.0569827e-20)
(5.3229273e-05 0.00094225178 5.2898152e-20)
(9.6289374e-05 0.00092355496 -1.3841342e-20)
(0.00013659526 0.00090344281 -7.1457023e-20)
(0.00017421775 0.00088210051 -9.6960949e-20)
(0.00020924214 0.0008596983 -4.1306387e-20)
(0.00024175682 0.00083639614 6.0670165e-20)
(0.0002718527 0.00081234179 -1.5291548e-20)
(0.00029962232 0.0007876722 -4.8794676e-20)
(0.00032515935 0.00076251324 -3.9077584e-20)
(0.00034855785 0.00073698084 3.6221654e-21)
(0.00036991153 0.000711181 7.5642835e-20)
(0.00038931361 0.00068521074 -2.4489628e-20)
(0.00040685615 0.00065915826 -3.9438061e-20)
(0.00042262975 0.00063310371 -3.4890183e-20)
(0.00043672329 0.00060711931 -1.0139063e-21)
(0.00044922363 0.00058127039 4.364368e-20)
(0.00046021534 0.00055561532 -1.5955198e-20)
(0.00046978068 0.00053020613 -2.8518523e-20)
(0.00047799955 0.00050508927 -2.0523439e-20)
(0.00048494893 0.00048030551 1.5052095e-21)
(0.00049070324 0.00045589069 2.1537941e-20)
(-0.00013855556 -0.0049347821 1.7688589e-18)
(-0.00031253549 -0.0049258129 -4.9658013e-19)
(-0.00051123509 -0.0048938369 2.0815691e-18)
(-0.00070122552 -0.0048436293 4.3224791e-18)
(-0.00089172964 -0.004774736 2.7145438e-18)
(-0.0010758281 -0.0046880914 2.7062492e-18)
(-0.0012525307 -0.0045848219 1.6966584e-18)
(-0.0014207606 -0.0044660264 2.3726284e-18)
(-0.0015794639 -0.004332874 1.6165108e-18)
(-0.0017276774 -0.004186612 5.497474e-19)
(-0.0018645967 -0.0040285509 8.8737035e-19)
(-0.0019895685 -0.003860052 -8.5473155e-19)
(-0.0021020851 -0.0036825109 4.4437893e-20)
(-0.0022017819 -0.0034973414 -6.5766307e-19)
(-0.0022884333 -0.0033059589 2.4383092e-19)
(-0.0023619469 -0.0031097635 7.6407888e-20)
(-0.0024223569 -0.0029101253 -6.6773424e-19)
(-0.0024698154 -0.002708371 -1.694875e-19)
(-0.0025045829 -0.002505771 -5.8031771e-20)
(-0.0025270179 -0.0023035292 2.2659745e-19)
(-0.002537566 -0.0021027742 1.1283508e-18)
(-0.0025367484 -0.0019045523 8.064707e-19)
(-0.0025251506 -0.0017098223 -1.1616956e-19)
(-0.0025034106 -0.0015194512 3.7274639e-19)
(-0.002472208 -0.0013342135 -1.1303361e-19)
(-0.002432253 -0.0011547892 -1.371085e-19)
(-0.0023842758 -0.000981766 2.8238037e-19)
(-0.0023290164 -0.00081564105 1.303037e-19)
(-0.002267217 -0.00065682364 3.6621172e-19)
(-0.002199616 -0.00050563853 -1.1945661e-19)
(-0.0021269378 -0.00036233087 -2.3430234e-19)
(-0.002049885 -0.00022707114 7.7566619e-20)
(-0.0019691309 -9.9965282e-05 2.7468522e-20)
(-0.0018853814 1.8937335e-05 2.04365e-19)
(-0.0017992483 0.00012971322 -2.409559e-19)
(-0.0017112842 0.00023239171 -1.245261e-19)
(-0.0016220653 0.00032709597 2.010895e-19)
(-0.0015321071 0.00041398886 8.6970919e-20)
(-0.0014418857 0.00049326537 1.6463553e-19)
(-0.0013518393 0.00056515036 2.1203634e-19)
(-0.0012623685 0.00062989377 9.3015838e-20)
(-0.0011738355 0.00068776574 -2.7966129e-19)
(-0.0010865659 0.0007390531 -2.0594759e-19)
(-0.0010008492 0.00078405474 4.163111e-20)
(-0.00091694067 0.00082307837 1.1409924e-19)
(-0.00083506238 0.00085643715 6.2622706e-20)
(-0.0007554051 0.00088444674 -2.1107514e-19)
(-0.00067813031 0.00090742266 -8.6491276e-20)
(-0.00060337214 0.00092567879 4.9462674e-20)
(-0.0005312393 0.00093952433 1.0521641e-19)
(-0.00046181743 0.00094926355 2.9978747e-20)
(-0.00039516932 0.00095519229 -5.6442396e-20)
(-0.00033133771 0.00095759842 5.0909631e-21)
(-0.00027034811 0.00095676038 -4.9760825e-21)
(-0.00021220858 0.00095294572 1.5820289e-19)
(-0.00015691244 0.00094641022 7.7263462e-20)
(-0.00010444035 0.00093740186 -1.3823261e-20)
(-5.4745372e-05 0.00092615062 7.1017128e-20)
(-7.8005238e-06 0.00091285041 1.5187512e-20)
(3.6386989e-05 0.00089781838 6.5383508e-20)
(7.7915987e-05 0.0008811394 3.8858704e-20)
(0.00011689166 0.00086304026 -4.116605e-20)
(0.00015335708 0.00084369559 -5.7909119e-21)
(0.00018738623 0.00082326703 8.6560883e-21)
(0.0002190562 0.00080190733 7.267478e-20)
(0.00024844697 0.00077975849 1.7660886e-20)
(0.00027564061 0.00075695236 -2.9077242e-20)
(0.00030072079 0.0007336106 3.2623151e-20)
(0.00032377201 0.00070984568 4.5091546e-20)
(0.00034487883 0.00068576081 4.0737042e-20)
(0.00036412571 0.0006614508 1.7122815e-20)
(0.00038159661 0.00063700238 4.7489006e-21)
(0.00039737439 0.00061249447 1.594125e-20)
(0.00041154068 0.00058799859 2.1590962e-20)
(0.00042417557 0.00056357986 2.7300648e-20)
(0.00043535735 0.00053929662 1.3914401e-21)
(0.00044516234 0.00051520129 -1.2248517e-20)
(0.00045366474 0.00049134091 8.9204838e-21)
(0.00046093652 0.00046775714 1.9440898e-20)
(0.00046704729 0.00044448666 7.937911e-21)
(-0.00012648157 -0.0045510693 3.3564134e-18)
(-0.00028530449 -0.0045429925 2.4362679e-18)
(-0.00046673848 -0.0045141959 1.6062321e-18)
(-0.00064031772 -0.0044689687 5.0869669e-18)
(-0.00081448826 -0.0044068853 2.1468766e-18)
(-0.00098296564 -0.0043287692 -3.0385767e-18)
(-0.0011448725 -0.0042356114 4.5628488e-18)
(-0.0012992445 -0.0041283775 2.2290446e-18)
(-0.0014451365 -0.0040080934 1.3669341e-18)
(-0.0015816778 -0.0038758543 2.7194904e-18)
(-0.001708135 -0.0037328137 9.8980195e-19)
(-0.001823907 -0.0035801718 8.6289121e-19)
(-0.0019285198 -0.003419162 9.3660662e-19)
(-0.0020216248 -0.003251037 7.2355525e-19)
(-0.0021029957 -0.0030770542 1.1038945e-18)
(-0.0021725239 -0.0028984611 -5.3896568e-19)
(-0.0022302131 -0.0027164824 1.0970794e-18)
(-0.002276172 -0.0025323082 8.4835868e-19)
(-0.0023106069 -0.0023470819 6.7376161e-19)
(-0.0023338123 -0.0021618917 1.2217902e-18)
(-0.0023461621 -0.001977762 1.235418e-19)
(-0.0023480999 -0.0017956471 -4.6574373e-19)
(-0.0023401287 -0.0016164262 3.493577e-19)
(-0.0023228012 -0.001440899 2.8435672e-19)
(-0.0022967101 -0.0012697847 -1.4805934e-19)
(-0.0022624787 -0.00110372 2.826547e-19)
(-0.0022207516 -0.00094325994 -2.5565671e-19)
(-0.0021721849 -0.00078887948 3.2976e-20)
(-0.00211744 -0.0006409756 1.9014661e-19)
(-0.0020571776 -0.00049986974 -1.1533324e-19)
(-0.0019920501 -0.00036581129 2.0287846e-19)
(-0.0019226958 -0.00023898245 -2.6658782e-19)
(-0.0018497325 -0.0001195079 -9.990182e-20)
(-0.0017737451 -7.4573023e-06 2.7697885e-20)
(-0.0016953412 9.7222926e-05 -1.3226286e-19)
(-0.0016150698 0.00019452265 2.8444527e-19)
(-0.0015334114 0.00028453287 -2.3522125e-20)
(-0.0014508507 0.00036738209 2.1099242e-20)
(-0.0013678351 0.0004432277 -3.9731642e-20)
(-0.0012847766 0.00051225637 -2.7320072e-19)
(-0.0012020531 0.00057467927 -1.2821886e-19)
(-0.0011200086 0.00063072792 4.0928901e-20)
(-0.0010389539 0.00068065054 1.0584411e-19)
(-0.00095916786 0.00072470838 1.5428448e-20)
(-0.00088089777 0.00076317247 -5.171672e-20)
(-0.00080436118 0.00079632036 -5.6883503e-20)
(-0.00072974688 0.00082443378 8.6513602e-21)
(-0.00065721649 0.00084779563 7.4332257e-20)
(-0.0005869064 0.00086668852 1.4930005e-21)
(-0.00051892952 0.00088139253 1.5971714e-20)
(-0.00045337693 0.00089218411 8.1205942e-21)
(-0.00039031847 0.00089933366 2.2759148e-20)
(-0.00032980539 0.00090310485 2.0210807e-20)
(-0.00027187215 0.00090375392 5.1689347e-20)
(-0.00021653666 0.00090152798 1.1712394e-19)
(-0.00016380251 0.00089666432 -8.3795364e-21)
(-0.00011366174 0.0008893926 -1.1682092e-20)
(-6.6090962e-05 0.00087993077 5.6744582e-20)
(-2.1024587e-05 0.00086846599 4.9648712e-20)
(2.1477167e-05 0.00085524778 4.8656317e-20)
(6.1475311e-05 0.00084043379 -1.9757933e-20)
(9.9115232e-05 0.00082419217 -3.5378584e-20)
(0.00013440816 0.0008066953 -1.1573938e-21)
(0.00016741864 0.00078809867 2.6455617e-20)
(0.00019821402 0.00076854769 2.9212446e-20)
(0.0002268643 0.00074817848 -7.0249524e-23)
(0.0002534419 0.00072711763 -3.5824358e-20)
(0.00027802113 0.00070548256 2.5208598e-20)
(0.00030067755 0.00068338189 1.7241785e-20)
(0.00032148738 0.00066091594 -5.439652e-21)
(0.00034052705 0.0006381771 1.0205603e-20)
(0.00035787279 0.0006152502 -2.4158819e-20)
(0.00037360023 0.0005922127 -4.5968113e-21)
(0.00038778407 0.00056913517 1.1450415e-20)
(0.00040049795 0.00054608214 9.3407439e-21)
(0.00041181426 0.0005231116 3.3912926e-21)
(0.00042180359 0.00050027629 -3.3761361e-20)
(0.00043053484 0.0004776233 -4.7923626e-21)
(0.00043807521 0.00045519486 -6.3063296e-21)
(0.0004444896 0.00043302846 -1.2883455e-20)
(-0.00011559782 -0.0042005693 2.7516868e-18)
(-0.00026075764 -0.0041932842 1.5434462e-18)
(-0.00042662215 -0.0041673086 -9.3544607e-20)
(-0.00058538974 -0.0041265022 -3.7566355e-18)
(-0.00074480303 -0.0040704674 -7.2376518e-19)
(-0.00089914644 -0.0039999314 -2.9186364e-19)
(-0.0010476416 -0.0039157684 6.7990828e-19)
(-0.0011894234 -0.0038188291 -1.1623461e-18)
(-0.0013236433 -0.0037100151 1.3304677e-18)
(-0.0014495141 -0.0035902907 -6.7132268e-19)
(-0.0015663671 -0.0034606728 -1.5350357e-18)
(-0.0016736495 -0.0033222215 2.0793742e-20)
(-0.0017709202 -0.0031760286 -7.5644222e-19)
(-0.0018578478 -0.0030232055 -1.3383316e-19)
(-0.0019342085 -0.0028648705 -4.1050909e-19)
(-0.001999883 -0.0027021366 -1.6532783e-19)