/*--------------------------------*- C++ -*----------------------------------*\
| =========                 |                                                 |
| \\      /  F ield         | OpenFOAM: The Open Source CFD Toolbox           |
|  \\    /   O peration     | Version:  2306                                  |
|   \\  /    A nd           | Website:  www.openfoam.com                      |
|    \\/     M anipulation  |                                                 |
\*---------------------------------------------------------------------------*/
FoamFile
{
    version     2.0;
    format      ascii;
    arch        "LSB;label=32;scalar=64";
    class       surfaceScalarField;
    location    "0.45";
    object      phi_0;
}
// * * * * * * * * * * * * * * * * * * * * * * * * * * * * * * * * * * * * * //

dimensions      [0 3 -1 0 0 0 0];

oriented        oriented;

internalField   nonuniform List<scalar> 
12640
(
-9.8931502e-08
9.3396211e-06
1.9496631e-07
9.1460468e-06
4.7067526e-07
8.9488227e-06
7.2911482e-07
8.7483382e-06
9.7103803e-07
8.5454504e-06
1.1971823e-06
8.3407894e-06
1.4082622e-06
8.134923e-06
1.6049687e-06
7.9283564e-06
1.7879671e-06
7.7215398e-06
1.9578941e-06
7.5148737e-06
2.115359e-06
7.3087129e-06
2.2609428e-06
7.1033722e-06
2.3951979e-06
6.8991299e-06
2.518649e-06
6.6962327e-06
2.6317942e-06
6.4948986e-06
2.7351056e-06
6.2953211e-06
2.8290311e-06
6.0976706e-06
2.9139943e-06
5.9021001e-06
2.9903973e-06
5.7087436e-06
3.0586204e-06
5.5177225e-06
3.1190259e-06
5.3291418e-06
3.1719563e-06
5.1430982e-06
3.2177377e-06
4.9596771e-06
3.2566803e-06
4.7789543e-06
3.2890787e-06
4.6009985e-06
3.3152146e-06
4.42587e-06
3.3353563e-06
4.253624e-06
3.3497598e-06
4.0843084e-06
3.3586706e-06
3.917967e-06
3.3623219e-06
3.7546379e-06
3.3609388e-06
3.5943548e-06
3.3547357e-06
3.4371469e-06
3.3439186e-06
3.2830409e-06
3.3286846e-06
3.1320586e-06
3.3092216e-06
2.9842181e-06
3.2857128e-06
2.839536e-06
3.2583316e-06
2.6980243e-06
3.2272446e-06
2.5596939e-06
3.192612e-06
2.4245515e-06
3.154587e-06
2.2926032e-06
3.1133187e-06
2.1638482e-06
3.0689459e-06
2.0382954e-06
3.021602e-06
1.9159386e-06
2.9714213e-06
1.7967763e-06
2.9185233e-06
1.6808072e-06
2.8630291e-06
1.5680234e-06
2.8050506e-06
1.4584209e-06
2.7446939e-06
1.3519918e-06
2.6820678e-06
1.2487308e-06
2.6172663e-06
1.1486278e-06
2.5503848e-06
1.0516758e-06
2.4815139e-06
9.5786521e-07
2.4107392e-06
8.6718705e-07
2.3381386e-06
7.7962922e-07
2.2637792e-06
6.9518919e-07
2.1877633e-06
6.1386356e-07
2.1101405e-06
5.3563305e-07
2.0309794e-06
4.6049585e-07
1.9503451e-06
3.8844741e-07
1.8682955e-06
3.1948259e-07
1.7848869e-06
2.5359437e-07
1.7001731e-06
1.9078065e-07
1.614215e-06
1.3103007e-07
1.5270462e-06
7.4372993e-08
1.4387176e-06
2.078067e-08
1.3492713e-06
-2.9732532e-08
1.2587514e-06
-7.7166627e-08
1.1671959e-06
-1.2151039e-07
1.0746424e-06
-1.6275714e-07
9.8112679e-07
-2.0089554e-07
8.8668307e-07
-2.3591305e-07
7.9134362e-07
-2.6779377e-07
6.9514022e-07
-2.9652156e-07
5.9810327e-07
-3.2208089e-07
5.0026268e-07
-3.444548e-07
4.0164727e-07
-3.6363613e-07
3.0228574e-07
-3.7963396e-07
2.0220632e-07
-3.924945e-07
1.01436e-07
-4.0232551e-07
-4.0919681e-07
-4.0698276e-07
9.0280759e-06
-1.1348119e-07
8.8525454e-06
1.6293155e-07
8.67241e-06
4.2263195e-07
8.4886378e-06
6.6638383e-07
8.3016986e-06
8.9485947e-07
8.1123137e-06
1.1087087e-06
7.9210738e-06
1.3085643e-06
7.7285009e-06
1.4950385e-06
7.5350656e-06
1.6687214e-06
7.3411907e-06
1.8301804e-06
7.1472541e-06
1.9799589e-06
6.9535934e-06
2.1185774e-06
6.7605115e-06
2.2465316e-06
6.5682783e-06
2.3642952e-06
6.3771351e-06
2.4723187e-06
6.1872976e-06
2.5710306e-06
5.9989587e-06
2.6608391e-06
5.8122917e-06
2.7421313e-06
5.6274513e-06
2.8152776e-06
5.4445762e-06
2.8806272e-06
5.2637921e-06
2.9385148e-06
5.0852105e-06
2.9892591e-06
4.908933e-06
3.0331629e-06
4.7350505e-06
3.0705154e-06
4.563646e-06
3.1015925e-06
4.3947929e-06
3.1266586e-06
4.2285579e-06
3.1459655e-06
4.0650014e-06
3.159755e-06
3.9041777e-06
3.1682576e-06
3.746135e-06
3.1716952e-06
3.5909173e-06
3.1702794e-06
3.4385627e-06
3.1642138e-06
3.2891064e-06
3.1536938e-06
3.1425784e-06
3.1389066e-06
2.999005e-06
3.1200318e-06
2.8584108e-06
3.0972433e-06
2.7208125e-06
3.070705e-06
2.5862321e-06
3.0405768e-06
2.4546797e-06
3.0070116e-06
2.3261683e-06
2.9701538e-06
2.200706e-06
2.9301455e-06
2.0783039e-06
2.8871207e-06
1.9589634e-06
2.8412123e-06
1.8426845e-06
2.7925368e-06
1.7294827e-06
2.7412173e-06
1.6193427e-06
2.6873666e-06
1.5122721e-06
2.6310917e-06
1.4082666e-06
2.5724981e-06
1.3073243e-06
2.5116843e-06
1.2094417e-06
2.4487449e-06
1.1146152e-06
2.3837708e-06
1.0228393e-06
2.3168476e-06
9.341104e-07
2.2480568e-06
8.4842013e-07
2.1774753e-06
7.6577078e-07
2.1051847e-06
6.8615421e-07
2.0312501e-06
6.0956759e-07
1.9557418e-06
5.360041e-07
1.8787287e-06
4.6546035e-07
1.8002635e-06
3.9794783e-07
1.720408e-06
3.3344947e-07
1.6392192e-06
2.7196959e-07
1.5567413e-06
2.1350824e-07
1.4730401e-06
1.5807416e-07
1.3881555e-06
1.0566504e-07
1.3021359e-06
5.6287418e-08
1.2150218e-06
9.9473894e-09
1.1268532e-06
-3.3341805e-08
1.0376735e-06
-7.3577782e-08
9.4751947e-07
-1.1074131e-07
8.5642935e-07
-1.4482288e-07
7.6443714e-07
-1.7580138e-07
6.715775e-07
-2.0366201e-07
5.7788415e-07
-2.2838745e-07
4.8338974e-07
-2.4996042e-07
3.8812621e-07
-2.6837266e-07
2.9212521e-07
-2.8363306e-07
1.9541717e-07
-2.9578649e-07
9.8033234e-08
-3.0494151e-07
-3.1116349e-07
-6.9334986e-07
8.7184418e-06
-4.008611e-07
8.5600565e-06
-1.2493852e-07
8.3964874e-06
1.3514797e-07
8.2285513e-06
3.798409e-07
8.0570057e-06
6.0979102e-07
7.8823635e-06
8.2558127e-07
7.7052837e-06
1.027789e-06
7.5262931e-06
1.2169749e-06
7.3458795e-06
1.3936828e-06
7.1644829e-06
1.5584377e-06
6.982499e-06
1.7117462e-06
6.800285e-06
1.8540948e-06
6.6181628e-06
1.9859509e-06
6.4364223e-06
2.1077614e-06
6.2553246e-06
2.2199541e-06
6.0751048e-06
2.3229378e-06
5.895975e-06
2.4171028e-06
5.7181269e-06
2.5028216e-06
5.5417326e-06
2.580449e-06
5.3669487e-06
2.6503249e-06
5.1939161e-06
2.7127732e-06
5.0227624e-06
2.7681022e-06
4.8536041e-06
2.8166078e-06
4.6865449e-06
2.8585719e-06
4.5216818e-06
2.8942646e-06
4.3591e-06
2.9239443e-06
4.1988783e-06
2.9478577e-06
4.0410881e-06
2.9662425e-06
3.8857926e-06
2.9793263e-06
3.7330513e-06
2.9873259e-06
3.5829177e-06
2.9904506e-06
3.4354382e-06
2.9889011e-06
3.2906558e-06
2.9828702e-06
3.1486095e-06
2.9725428e-06
3.0093325e-06
2.9580971e-06
2.8728564e-06
2.939702e-06
2.7392075e-06
2.9175236e-06
2.6084107e-06
2.8917197e-06
2.4804836e-06
2.8624397e-06
2.3554481e-06
2.8298282e-06
2.2333173e-06
2.7940302e-06
2.1141021e-06
2.7551738e-06
1.9978199e-06
2.7133873e-06
1.884471e-06
2.6687999e-06
1.77407e-06
2.6215245e-06
1.6666182e-06
2.5716764e-06
1.5621202e-06
2.5193638e-06
1.4605793e-06
2.4646906e-06
1.3619975e-06
2.4077564e-06
1.266376e-06
2.3486559e-06
1.1737154e-06
2.2874804e-06
1.0840145e-06
2.224318e-06
9.9727292e-07
2.1592488e-06
9.1348941e-07
2.0923548e-06
8.3266479e-07
2.0237108e-06
7.5479824e-07
1.95339e-06
6.7988815e-07
1.8814692e-06
6.0792493e-07
1.8079987e-06
5.3893109e-07
1.7330566e-06
4.7288994e-07
1.6566894e-06
4.0981647e-07
1.5789625e-06
3.4969648e-07
1.4999276e-06
2.9254307e-07
1.4196401e-06
2.3836167e-07
1.3381488e-06
1.8715643e-07
1.2555018e-06
1.3893426e-07
1.1717456e-06
9.3703832e-08
1.0869227e-06
5.1480839e-08
1.0010774e-06
1.2267664e-08
9.1424432e-07
-2.3908246e-08
8.2647272e-07
-5.7051227e-08
7.3779029e-07
-8.7118948e-08
6.4823952e-07
-1.1411134e-07
5.5785552e-07
-1.3800336e-07
4.6667413e-07
-1.5877928e-07
3.7473e-07
-1.7642842e-07
2.8205756e-07
-1.909607e-07
1.8869078e-07
-2.0241933e-07
9.4661229e-08
-2.1091198e-07
-2.1650243e-07
-9.5884148e-07
8.4115973e-06
-6.6828659e-07
8.2695015e-06
-3.9352455e-07
8.1217253e-06
-1.3399768e-07
7.9690245e-06
1.1088007e-07
7.812128e-06
3.4152444e-07
7.6517191e-06
5.5848895e-07
7.4883192e-06
7.6230829e-07
7.3224737e-06
9.5349244e-07
7.1546955e-06
1.1325391e-06
6.9854362e-06
1.2999322e-06
6.8151058e-06
1.4561409e-06
6.6440764e-06
1.6016185e-06
6.4726854e-06
1.7368015e-06
6.3012389e-06
1.8621115e-06
6.1300147e-06
1.9779521e-06
5.9592643e-06
2.084711e-06
5.7892162e-06
2.1827596e-06
5.6200783e-06
2.2724544e-06
5.4520377e-06
2.354136e-06
5.2852673e-06
2.4281305e-06
5.1199215e-06
2.4947504e-06
4.9561426e-06
2.5542947e-06
4.7940596e-06
2.607049e-06
4.6337904e-06
2.6532885e-06
4.4754425e-06
2.6932757e-06
4.3191129e-06
2.7272625e-06
4.1648917e-06
2.7554904e-06
4.01286e-06
2.7781914e-06
3.8630916e-06
2.7955881e-06
3.7156548e-06
2.8078943e-06
3.5706118e-06
2.8153149e-06
3.4280174e-06
2.8180477e-06
3.2879231e-06
2.8162818e-06
3.1503752e-06
2.8101996e-06
3.0154147e-06
2.7999761e-06
2.8830797e-06
2.7857801e-06
2.7534036e-06
2.7677742e-06
2.6264167e-06
2.7461125e-06
2.5021454e-06
2.7209466e-06
2.380614e-06
2.6924197e-06
2.2618441e-06
2.6606679e-06
2.1458538e-06
2.6258307e-06
2.0326571e-06
2.588027e-06
1.9222747e-06
2.5473878e-06
1.8147093e-06
2.504026e-06
1.7099797e-06
2.4580526e-06
1.6080937e-06
2.4095846e-06
1.509047e-06
2.3587156e-06
1.4128665e-06
2.3055514e-06
1.3195402e-06
2.2501855e-06
1.2290816e-06
2.1927105e-06
1.1414893e-06
2.1332132e-06
1.0567703e-06
2.0717773e-06
9.7492507e-07
2.0084834e-06
8.9595891e-07
1.9434082e-06
8.1987307e-07
1.8766238e-06
7.4667274e-07
1.8082133e-06
6.7633547e-07
1.7382221e-06
6.0892234e-07
1.6667236e-06
5.4438841e-07
1.5937864e-06
4.8275363e-07
1.5194631e-06
4.2402004e-07
1.4438105e-06
3.6819538e-07
1.3668836e-06
3.1528855e-07
1.2887338e-06
2.6530618e-07
1.2094107e-06
2.1825765e-07
1.128971e-06
1.7414348e-07
1.0474434e-06
1.3300844e-07
9.6488057e-07
9.4830621e-08
8.813264e-07
5.9645724e-08
7.9684184e-07
2.743328e-08
7.1142679e-07
-1.7036166e-09
6.2514646e-07
-2.7831099e-08
5.3803535e-07
-5.0892422e-08
4.5013165e-07
-7.0875359e-08
3.6147157e-07
-8.7768749e-08
2.7209358e-07
-1.0158258e-07
1.820323e-07
-1.1235825e-07
9.1323352e-08
-1.202029e-07
-1.2517913e-07
-1.2042996e-06
8.1082777e-06
-9.164466e-07
7.9816486e-06
-6.4359979e-07
7.8488784e-06
-3.8531023e-07
7.7107349e-06
-1.410784e-07
7.5678962e-06
8.9581112e-08
7.4210596e-06
3.0700535e-07
7.270895e-06
5.11752e-07
7.1177272e-06
7.0427103e-07
6.9621764e-06
8.85016e-07
6.8046912e-06
1.05443e-06
6.6456918e-06
1.2129452e-06
6.4855611e-06
1.3609818e-06
6.3246488e-06
1.4989468e-06
6.163274e-06
1.6272339e-06
6.0017275e-06
1.7462229e-06
5.840275e-06
1.8562798e-06
5.6791593e-06
1.9577572e-06
5.5186011e-06
2.0509929e-06
5.3588019e-06
2.1363132e-06
5.1999468e-06
2.2140301e-06
5.0422047e-06
2.2844436e-06
4.885729e-06
2.3478417e-06
4.7306617e-06
2.4045007e-06
4.5771311e-06
2.4546863e-06
4.4252564e-06
2.4986533e-06
4.275146e-06
2.5366465e-06
4.1268984e-06
2.568901e-06
3.9806053e-06
2.5956429e-06
3.8363499e-06
2.6170895e-06
3.6942081e-06
2.6334501e-06
3.554251e-06
2.644925e-06
3.4165423e-06
2.6517081e-06
3.2811402e-06
2.6539853e-06
3.1480981e-06
2.6519358e-06
3.0174642e-06
2.6457322e-06
2.8892834e-06
2.6355396e-06
2.7635962e-06
2.6215186e-06
2.6404377e-06
2.6038221e-06
2.5198417e-06
2.5825981e-06
2.4018381e-06
2.5579906e-06
2.2864515e-06
2.5301335e-06
2.1737109e-06
2.4991599e-06
2.0636309e-06
2.4651978e-06
1.956237e-06
2.4283652e-06
1.8515419e-06
2.3887843e-06
1.7495606e-06
2.3465659e-06
1.6503122e-06
2.3018121e-06
1.5538008e-06
2.2546343e-06
1.4600446e-06
2.2051348e-06
1.3690397e-06
2.1533983e-06
1.2808178e-06
2.0995225e-06
1.1953653e-06
2.0435957e-06
1.1126972e-06
1.9857016e-06
1.0328193e-06
1.9259206e-06
9.5573973e-07
1.8643325e-06
8.8146146e-07
1.8010121e-06
8.0999315e-07
1.7360097e-06
7.4133767e-07
1.6694417e-06
6.7549056e-07
1.6013267e-06
6.1250338e-07
1.5317495e-06
5.5233078e-07
1.460767e-06
4.9500235e-07
1.3884364e-06
4.4052618e-07
1.3148139e-06
3.8891119e-07
1.2399534e-06
3.4016652e-07
1.1639067e-06
2.9430425e-07
1.0867142e-06
2.5133625e-07
1.008441e-06
2.1128155e-07
9.2913009e-07
1.7414146e-07
8.4881901e-07
1.3995688e-07
7.6753651e-07
1.0871589e-07
6.8536205e-07
8.0470971e-08
6.0231795e-07
5.5212658e-08
5.1844077e-07
3.29849e-08
4.3377558e-07
1.3790134e-08
3.4836114e-07
-2.3542165e-09
2.6224206e-07
-1.5463559e-08
1.7544876e-07
-2.556498e-08
8.8022652e-08
-3.2776811e-08
-3.7156288e-08
-1.4305962e-06
7.8091362e-06
-1.1460864e-06
7.6971388e-06
-8.7582893e-07
7.578621e-06
-6.1944027e-07
7.4543461e-06
-3.7654282e-07
7.3249988e-06
-1.4669232e-07
7.1912092e-06
7.0665406e-08
7.0535372e-06
2.7572181e-07
6.9126708e-06
4.6896164e-07
6.7689365e-06
6.5080845e-07
6.6228444e-06
8.2166631e-07
6.4748341e-06
9.8193068e-07
6.3252967e-06
1.1319894e-06
6.1745902e-06
1.2722194e-06
6.0230439e-06
1.4029874e-06
5.8709596e-06
1.5246486e-06
5.7186138e-06
1.6375475e-06
5.5662604e-06
1.742016e-06
5.4141325e-06
1.8383748e-06
5.2624429e-06
1.9269333e-06
5.1113884e-06
2.0079893e-06
4.9611487e-06
2.0818297e-06
4.8118885e-06
2.148731e-06
4.6637603e-06
2.2089589e-06
4.5169036e-06
2.2627693e-06
4.3714462e-06
2.3104083e-06
4.2275068e-06
2.3521134e-06
4.0851934e-06
2.3881127e-06
3.9446061e-06
2.418625e-06
3.8058373e-06
2.4438625e-06
3.6689705e-06
2.4640288e-06
3.5340848e-06
2.47932e-06
3.401251e-06
2.4899256e-06
3.2705347e-06
2.4960274e-06
3.1419962e-06
2.4978008e-06
3.015691e-06
2.4954151e-06
2.8916691e-06
2.4890334e-06
2.7699778e-06
2.4788122e-06
2.650659e-06
2.464903e-06
2.533751e-06
2.447452e-06
2.4192892e-06
2.4265975e-06
2.307306e-06
2.4024783e-06
2.19783e-06
2.3752211e-06
2.090888e-06
2.3449535e-06
1.9865045e-06
2.3117962e-06
1.8846993e-06
2.2758623e-06
1.7854947e-06
2.2372691e-06
1.6889055e-06
2.1961178e-06
1.594952e-06
2.1525174e-06
1.503645e-06
2.1065592e-06
1.4149976e-06
2.0583499e-06
1.3290273e-06
2.0079736e-06
1.2457416e-06
1.9555222e-06
1.1651485e-06
1.9010759e-06
1.0872657e-06
1.8447208e-06
1.0120946e-06
1.7865316e-06
9.3965077e-07
1.7265858e-06
8.6993897e-07
1.6649548e-06
8.0296881e-07
1.6016979e-06
7.3874758e-07
1.5369037e-06
6.7729736e-07
1.470622e-06
6.1861266e-07
1.4029157e-06
5.6270877e-07
1.333845e-06
5.0959669e-07
1.2634677e-06
4.5928834e-07
1.1918377e-06
4.1179648e-07
1.1190085e-06
3.6713345e-07
1.0450309e-06
3.2531368e-07
9.6995825e-07
2.8635421e-07
8.9383283e-07
2.502668e-07
8.1671019e-07
2.1707954e-07
7.3862398e-07
1.8680191e-07
6.5963196e-07
1.5946296e-07
5.7977246e-07
1.3507216e-07
4.9908689e-07
1.1367057e-07
4.1761688e-07
9.5259996e-08
3.3540517e-07
7.9857614e-08
2.5251404e-07
6.7427592e-08
1.6894441e-07
5.8004729e-08
8.4761582e-08
5.1405718e-08
4.7605224e-08
-1.6386544e-06
7.5147774e-06
-1.3580794e-06
7.416564e-06
-1.0910212e-06
7.3115628e-06
-8.3713187e-07
7.2004569e-06
-5.9607341e-07
7.0839403e-06
-3.6749511e-07
6.9626309e-06
-1.5100613e-07
6.8370484e-06
5.3803368e-08
6.7078613e-06
2.4718977e-07
6.57555e-06
4.2958603e-07
6.4404481e-06
6.0135015e-07
6.30307e-06
7.6284292e-07
6.1638041e-06
9.1441899e-07
6.0230141e-06
1.0564269e-06
5.8810361e-06
1.1892059e-06
5.7381805e-06
1.3130876e-06
5.5947321e-06
1.428393e-06
5.4509549e-06
1.535435e-06
5.3070907e-06
1.6345152e-06
5.1633627e-06
1.7259269e-06
5.0199767e-06
1.8099527e-06
4.8771228e-06
1.8868662e-06
4.7349752e-06
1.9569306e-06
4.5936958e-06
2.0204016e-06
4.4534327e-06
2.0775242e-06
4.3143234e-06
2.1285359e-06
4.1764951e-06
2.1736651e-06
4.0400642e-06
2.2131321e-06
3.905139e-06
2.2471509e-06
3.7718186e-06
2.2759251e-06
3.6401963e-06
2.2996538e-06
3.5103564e-06
2.318528e-06
3.3823768e-06
2.3327317e-06
3.2563311e-06
2.3424425e-06
3.1322852e-06
2.3478325e-06
3.0103011e-06
2.349066e-06
2.8904357e-06
2.3463038e-06
2.7727399e-06
2.3396999e-06
2.6572629e-06
2.3294022e-06
2.5440487e-06
2.315554e-06
2.4331372e-06
2.2982938e-06
2.3245664e-06
2.2777547e-06
2.218369e-06
2.2540658e-06
2.1145769e-06
2.2273499e-06
2.0132206e-06
2.1977291e-06
1.9143202e-06
2.165314e-06
1.8179096e-06
2.1302175e-06
1.7240019e-06
2.0925471e-06
1.6326225e-06
2.0524052e-06
1.5437867e-06
2.0098886e-06
1.4575141e-06
1.9650957e-06
1.37382e-06
1.9181169e-06
1.2927204e-06
1.8690403e-06
1.2142253e-06
1.8179506e-06
1.1383553e-06
1.7649294e-06
1.0651158e-06
1.7100562e-06
9.9452407e-07
1.6534056e-06
9.2658952e-07
1.5950501e-06
8.6132441e-07
1.5350579e-06
7.9873964e-07
1.473502e-06
7.388532e-07
1.4104452e-06
6.8166935e-07
1.3459495e-06
6.2720475e-07
1.2800758e-06
5.7547047e-07
1.2128816e-06
5.2648271e-07
1.1444239e-06
4.8025419e-07
1.0747579e-06
4.3679941e-07
1.0039363e-06
3.961355e-07
9.3201058e-07
3.5827968e-07
8.5903005e-07
3.232474e-07
7.8504477e-07
2.9106469e-07
7.1010225e-07
2.6174473e-07
6.3424782e-07
2.3531701e-07
5.575296e-07
2.1179046e-07
4.7999124e-07
1.9120906e-07
4.0167764e-07
1.7357379e-07
3.2264109e-07
1.5889435e-07
2.4289244e-07
1.4717628e-07
1.6252121e-07
1.3837584e-07
8.1542374e-08
1.3238454e-07
1.2914773e-07
-1.8292801e-06
7.22567e-06
-1.5531907e-06
7.1404746e-06
-1.2898536e-06
7.0482256e-06
-1.0390133e-06
6.9496166e-06
-8.0036022e-07
6.8452872e-06
-5.7360905e-07
6.7358798e-06
-3.5847781e-07
6.621917e-06
-1.5454784e-07
6.5039314e-06
3.8549435e-08
6.3824528e-06
2.2099642e-07
6.2580011e-06
3.9316984e-07
6.1308966e-06
5.5540495e-07
6.0015689e-06
7.0802661e-07
5.8703923e-06
8.5135436e-07
5.7377085e-06
9.8570171e-07
5.6038332e-06
1.1113752e-06
5.4690586e-06
1.2286746e-06
5.3336556e-06
1.3378916e-06
5.1978735e-06
1.4393104e-06
5.061944e-06
1.5332063e-06
4.9260809e-06
1.6198468e-06
4.7904823e-06
1.6994915e-06
4.6553306e-06
1.7723916e-06
4.5207958e-06
1.8387902e-06
4.3870343e-06
1.8989223e-06
4.2541913e-06
1.953015e-06
4.1224023e-06
2.0012889e-06
3.9917904e-06
2.0439563e-06
3.8624717e-06
2.0812223e-06
3.7345524e-06
2.1132856e-06
3.6081327e-06
2.1403385e-06
3.4833032e-06
2.1625656e-06
3.3601496e-06
2.180147e-06
3.2387496e-06
2.1932552e-06
3.1191772e-06
2.2020577e-06
3.0014986e-06
2.2067156e-06
2.8857778e-06
2.2073853e-06
2.7720703e-06
2.2042174e-06
2.6604308e-06
2.1973576e-06
2.5509086e-06
2.186946e-06
2.4435486e-06
2.1731194e-06
2.338393e-06
2.1560082e-06
2.2354801e-06
2.1357388e-06
2.1348464e-06
2.1124344e-06
2.0365251e-06
2.0862093e-06
1.9405452e-06
2.0571821e-06
1.846937e-06
2.0254594e-06
1.7557248e-06
1.9911479e-06
1.6669338e-06
1.9543495e-06
1.5805853e-06
1.9151625e-06
1.4967012e-06
1.8736811e-06
1.4153015e-06
1.8299977e-06
1.3364036e-06
1.7841984e-06
1.2600244e-06
1.7363721e-06
1.1861819e-06
1.6865953e-06
1.1148925e-06
1.6349507e-06
1.0461688e-06
1.5815126e-06
9.8002765e-07
1.5263549e-06
9.1648203e-07
1.4695469e-06
8.5554774e-07
1.41116e-06
7.9724017e-07
1.3512579e-06
7.4157165e-07
1.2899033e-06
6.885594e-07
1.2271637e-06
6.3820991e-07
1.16309e-06
5.9055669e-07
1.0977448e-06
5.4559968e-07
1.0311839e-06
5.0336044e-07
9.6346156e-07
4.6385774e-07
8.9462942e-07
4.2711175e-07
8.2473808e-07
3.9313901e-07
7.5384209e-07
3.6196056e-07
6.819918e-07
3.3359502e-07
6.092303e-07
3.0807831e-07
5.3560226e-07
2.8541846e-07
4.6116539e-07
2.6564582e-07
3.8596175e-07
2.4877768e-07
3.1003137e-07
2.3482467e-07
2.3342412e-07
2.2378333e-07
1.5618983e-07
2.156102e-07
7.836781e-08
2.1020665e-07
2.0751551e-07
-2.0033914e-06
6.9422644e-06
-1.732221e-06
6.8693042e-06
-1.4730918e-06
6.7890964e-06
-1.2257677e-06
6.7022926e-06
-9.9002529e-07
6.6095447e-06
-7.6554918e-07
6.5114037e-06
-5.5215128e-07
6.4085191e-06
-3.4951063e-07
6.3012908e-06
-1.5735157e-07
6.1902937e-06
2.4674391e-08
6.0759752e-06
1.9679582e-07
5.9587751e-06
3.5932116e-07
5.8390437e-06
5.1254795e-07
5.7171655e-06
6.5676706e-07
5.5934891e-06
7.9226649e-07
5.4683338e-06
9.1932833e-07
5.3419966e-06
1.0382307e-06
5.2147532e-06
1.1492451e-06
5.0868591e-06
1.2526365e-06
4.9585525e-06
1.3486643e-06
4.8300531e-06
1.4375802e-06
4.7015663e-06
1.5196288e-06
4.573282e-06
1.5950488e-06
4.4453758e-06
1.6640712e-06
4.3180118e-06
1.7269193e-06
4.1913431e-06
1.7838121e-06
4.0655096e-06
1.8349591e-06
3.9406433e-06
1.8805652e-06
3.8168655e-06
1.9208276e-06
3.6942901e-06
1.9559384e-06
3.573022e-06
1.9860821e-06
3.4531595e-06
2.0114391e-06
3.3347926e-06
2.0321824e-06
3.2180064e-06
2.0484804e-06
3.102879e-06
2.0604952e-06
2.9894837e-06
2.0683852e-06
2.8778878e-06
2.0723019e-06
2.7681536e-06
2.0723921e-06
2.6603404e-06
2.0687992e-06
2.5545015e-06
2.0616601e-06
2.4506879e-06
2.0511085e-06
2.3489447e-06
2.0372725e-06
2.2493161e-06
2.0202763e-06
2.1518425e-06
2.0002405e-06
2.0565608e-06
1.9772804e-06
1.9635053e-06
1.9515101e-06
1.8727072e-06
1.9230358e-06
1.784199e-06
1.8919635e-06
1.698006e-06
1.8583936e-06
1.6141554e-06
1.8224234e-06
1.5326716e-06
1.7841474e-06
1.4535778e-06
1.7436563e-06
1.3768948e-06
1.7010372e-06
1.3026435e-06
1.6563808e-06
1.2308383e-06
1.6097583e-06
1.1615152e-06
1.5612556e-06
1.0946715e-06
1.5109469e-06
1.0303365e-06
1.4589068e-06
9.6852198e-07
1.4052044e-06
9.0924992e-07
1.3499106e-06
8.5253392e-07
1.2930949e-06
7.9838738e-07
1.2348161e-06
7.4683816e-07
1.1751357e-06
6.9789025e-07
1.1141227e-06
6.5156958e-07
1.0518288e-06
6.0789386e-07
9.8831268e-07
5.6687643e-07
9.2363074e-07
5.2853972e-07
8.5783716e-07
4.9290537e-07
7.9098255e-07
4.5999356e-07
7.231178e-07
4.2982538e-07
6.5431517e-07
4.0239778e-07
5.8458822e-07
3.7780523e-07
5.1400985e-07
3.5599673e-07
4.4262272e-07
3.3703302e-07
3.7047615e-07
3.2092402e-07
2.9761768e-07
3.0768311e-07
2.2409567e-07
2.9730531e-07
1.4995526e-07
2.8975056e-07
7.5242862e-08
2.8491896e-07
2.8275856e-07
-2.1618152e-06
6.6649213e-06
-1.8959487e-06
6.6034377e-06
-1.6414065e-06
6.5345541e-06
-1.3980228e-06
6.4589088e-06
-1.1655825e-06
6.3771046e-06
-9.4391155e-07
6.2897326e-06
-7.3270243e-07
6.19731e-06
-5.3179211e-07
6.1003805e-06
-3.4091161e-07
5.9994132e-06
-1.5977518e-07
5.8948388e-06
1.1874542e-08
5.7871256e-06
1.74279e-07
5.6766392e-06
3.2770272e-07
5.563742e-06
4.7241379e-07
5.4487783e-06
6.0867556e-07
5.3320721e-06
7.3674658e-07
5.2139255e-06
8.5688321e-07
5.0946165e-06
9.6933743e-07
4.974405e-06
1.0743558e-06
4.8535341e-06
1.1721801e-06
4.7322289e-06
1.2630465e-06
4.6106998e-06
1.3471859e-06
4.4891425e-06
1.4248228e-06
4.3677389e-06
1.496176e-06
4.2466587e-06
1.5614592e-06
4.1260597e-06
1.620879e-06
4.0060897e-06
1.6746371e-06
3.8868851e-06
1.7229287e-06
3.7685743e-06
1.7659437e-06
3.651275e-06
1.8038661e-06
3.5350996e-06
1.8368743e-06
3.4201511e-06
1.8651421e-06
3.306525e-06
1.8888369e-06
3.1943115e-06
1.9081217e-06
3.0835941e-06
1.9231544e-06
2.974451e-06
1.9340879e-06
2.8669544e-06
1.9410699e-06
2.7611716e-06
1.9442442e-06
2.6571662e-06
1.9437492e-06
2.5549964e-06
1.9397204e-06
2.4547169e-06
1.9322872e-06
2.3563779e-06
1.9215757e-06
2.2600277e-06
1.9077083e-06
2.16571e-06
1.8908028e-06
2.0734663e-06
1.8709737e-06
1.9833343e-06
1.8483305e-06
1.8953505e-06
1.8229811e-06
1.8095484e-06
1.7950285e-06
1.7259586e-06
1.7645726e-06
1.6446112e-06
1.731709e-06
1.565535e-06
1.696533e-06
1.4887537e-06
1.6591337e-06
1.414294e-06
1.6195987e-06
1.3421783e-06
1.5780077e-06
1.2724293e-06
1.5344506e-06
1.2050722e-06
1.4890061e-06
1.1401161e-06
1.4417409e-06
1.0776015e-06
1.3927379e-06
1.017525e-06
1.3420643e-06
9.5992372e-07
1.2897907e-06
9.0480766e-07
1.2359828e-06
8.5219526e-07
1.1807086e-06
8.0211233e-07
1.1240306e-06
7.5456848e-07
1.0660072e-06
7.0959263e-07
1.0067012e-06
6.6719987e-07
9.4617161e-07
6.2740559e-07
8.8447056e-07
5.9024064e-07
8.2165689e-07
5.5571896e-07
7.5778596e-07
5.2386447e-07
6.9291178e-07
4.9469937e-07
6.2707121e-07
4.6823851e-07
5.6034174e-07
4.4453451e-07
4.9275625e-07
4.2358211e-07
4.2437299e-07
4.0541646e-07
3.5523688e-07
3.9006008e-07
2.8540038e-07
3.7751941e-07
2.1490938e-07
3.6779644e-07
1.4381559e-07
3.608445e-07
7.2164492e-08
3.5657018e-07
3.549227e-07
-2.3053832e-06
6.393945e-06
-2.045153e-06
6.3432076e-06
-1.7955606e-06
6.2849616e-06
-1.556467e-06
6.2198152e-06
-1.3277286e-06
6.1483662e-06
-1.1091605e-06
6.0711645e-06
-9.0059891e-07
5.9887483e-06
-7.0182226e-07
5.9016041e-06
-5.1259176e-07
5.8101826e-06
-3.327289e-07
5.714976e-06
-1.6195397e-07
5.6163505e-06
-5.6649973e-11
5.5147419e-06
1.5319736e-07
5.4104879e-06
2.9802876e-07
5.3039468e-06
4.3468984e-07
5.195411e-06
5.6341471e-07
5.0852006e-06
6.8443974e-07
4.9735916e-06
7.9799633e-07
4.8608484e-06
9.043138e-07
4.747217e-06
1.0036163e-06
4.6329263e-06
1.0961249e-06
4.5181913e-06
1.1820557e-06
4.4032117e-06
1.2616202e-06
4.2881743e-06
1.3350249e-06
4.173254e-06
1.4024716e-06
4.0586132e-06
1.4641572e-06
3.9444045e-06
1.5202728e-06
3.8307695e-06
1.5710057e-06
3.7178415e-06
1.6165368e-06
3.605744e-06
1.6570423e-06
3.4945938e-06
1.6926953e-06
3.3844981e-06
1.7236609e-06
3.2755592e-06
1.7501023e-06
3.1678701e-06
1.7721762e-06
3.0615204e-06
1.7900351e-06
2.9565918e-06
1.8038278e-06
2.8531617e-06
1.8136974e-06
2.7513019e-06
1.8197838e-06
2.6510797e-06
1.8222219e-06
2.5525583e-06
1.8211438e-06
2.4557948e-06
1.8166758e-06
2.3608461e-06
1.8089411e-06
2.2677624e-06
1.7980593e-06
2.1765917e-06
1.7841464e-06
2.0873792e-06
1.7673155e-06
2.0001651e-06
1.7476724e-06
1.9149936e-06
1.7253245e-06
1.8318962e-06
1.7003733e-06
1.7509097e-06
1.6729165e-06
1.6720682e-06
1.6430503e-06
1.5954013e-06
1.6108684e-06
1.5209356e-06
1.5764572e-06
1.4487052e-06
1.5399065e-06
1.378729e-06
1.5012968e-06
1.3110392e-06
1.4607139e-06
1.2456552e-06
1.4182289e-06
1.1826011e-06
1.3739285e-06
1.1219018e-06
1.3278764e-06
1.0635772e-06
1.2801559e-06
1.0076441e-06
1.2308247e-06
9.5413885e-07
1.1799556e-06
9.0306436e-07
1.1276124e-06
8.5445571e-07
1.0738702e-06
8.083105e-07
1.0187713e-06
7.6469143e-07
9.6238972e-07
7.2358147e-07
9.0477893e-07
6.8501665e-07
8.4600065e-07
6.4901896e-07
7.861093e-07
6.1561024e-07
7.2516165e-07
5.8481219e-07
6.6321128e-07
5.5664974e-07
6.0030394e-07
5.3114603e-07
5.365078e-07
5.0833055e-07
4.7186424e-07
4.8822554e-07
4.064279e-07
4.708529e-07
3.4025338e-07
4.5623444e-07
2.7338323e-07
4.4438976e-07
2.0587417e-07
4.3530514e-07
1.3777781e-07
4.2894092e-07
6.9136746e-08
4.2521106e-07
4.2405949e-07
-2.4349037e-06
6.1295858e-06
-2.1805826e-06
6.0888865e-06
-1.9362268e-06
6.0406059e-06
-1.7017546e-06
5.9853428e-06
-1.4770434e-06
5.923655e-06
-1.2619703e-06
5.8560913e-06
-1.0563455e-06
5.7831236e-06
-8.6002178e-07
5.7052802e-06
-6.7283435e-07
5.6229951e-06
-4.9456539e-07
5.5367071e-06
-3.250373e-07
5.4468224e-06
-1.6401228e-07
5.3537169e-06
-1.1295599e-08
5.2577713e-06
1.3333337e-07
5.1593179e-06
2.7005937e-07
5.0586849e-06
3.991053e-07
4.9561548e-06
5.2069403e-07
4.8520028e-06
6.3503693e-07
4.7465056e-06
7.4234451e-07
4.6399093e-06
8.4282462e-07
4.532446e-06
9.3668281e-07
4.4243333e-06
1.0241203e-06
4.3157739e-06
1.105336e-06
4.2069587e-06
1.1805243e-06
4.0980658e-06
1.2498749e-06
3.9892625e-06
1.3135741e-06
3.880705e-06
1.3718043e-06
3.7725394e-06
1.4247422e-06
3.6649036e-06
1.4725612e-06
3.557925e-06
1.5154304e-06
3.4517247e-06
1.5535135e-06
3.3464149e-06
1.5869714e-06
3.2421014e-06
1.6159597e-06
3.1388818e-06
1.6406296e-06
3.0368503e-06
1.6611291e-06
2.9360926e-06
1.6776008e-06
2.8366901e-06
1.6901846e-06
2.7387182e-06
1.6990155e-06
2.6422487e-06
1.7042253e-06
2.5473484e-06
1.7059411e-06
2.4540792e-06
1.7042873e-06
2.3625001e-06
1.6993836e-06
2.2726659e-06
1.6913476e-06
2.1846279e-06
1.680292e-06
2.0984346e-06
1.6663259e-06
2.0141312e-06
1.6495576e-06
1.9317618e-06
1.6300896e-06
1.8513641e-06
1.6080226e-06
1.7729769e-06
1.5834525e-06
1.6966381e-06
1.5564751e-06
1.6223787e-06
1.527179e-06
1.5502314e-06
1.4956573e-06
1.4802271e-06
1.4619909e-06
1.4123953e-06
1.426267e-06
1.346763e-06
1.3885652e-06
1.2833571e-06
1.3489619e-06
1.2222043e-06
1.3075357e-06
1.1633279e-06
1.2643609e-06
1.106752e-06
1.2195034e-06
1.0525017e-06
1.1730423e-06
1.0005997e-06
1.1250377e-06
9.5106884e-07
1.0755628e-06
9.0393058e-07
1.0246668e-06
8.5920654e-07
9.7243338e-07
8.1692502e-07
9.1891012e-07
7.7710459e-07
8.6415962e-07
7.3976709e-07
8.0824161e-07
7.0493702e-07
7.5121243e-07
6.7263952e-07
6.9312785e-07
6.4289667e-07
6.3404463e-07
6.1573284e-07
5.7401587e-07
5.9117477e-07
5.1309669e-07
5.6924973e-07
4.5134136e-07
5.499808e-07
3.888016e-07
5.3339272e-07
3.25527e-07
5.1950914e-07
2.6157461e-07
5.08342e-07
1.9699891e-07
4.998808e-07
1.3184173e-07
4.9409818e-07
6.6160971e-08
4.9089176e-07
4.9022075e-07
-2.551162e-06
5.8720409e-06
-2.3029724e-06
5.8406968e-06
-2.0641126e-06
5.8017461e-06
-1.8345243e-06
5.7557545e-06
-1.6141265e-06
5.7032573e-06
-1.402796e-06
5.6447608e-06
-1.2004478e-06
5.5807754e-06
-1.0069199e-06
5.5117522e-06
-8.220687e-07
5.4381439e-06
-6.4573095e-07
5.3603694e-06
-4.7773037e-07
5.2788219e-06
-3.1790037e-07
5.1938871e-06
-1.6604687e-07
5.1059178e-06
-2.1971372e-08
5.0152424e-06
1.1452799e-07
4.9221856e-06
2.4357893e-07
4.8271038e-06
3.6543035e-07
4.7301515e-06
4.8026297e-07
4.6316728e-06
5.8827012e-07
4.5319022e-06
6.896441e-07
4.4310722e-06
7.8457516e-07
4.3294023e-06
8.7325056e-07
4.2270986e-06
9.558552e-07
4.124354e-06
1.0325711e-06
4.0213497e-06
1.1035773e-06
3.9182562e-06
1.1690499e-06
3.8152326e-06
1.2291602e-06
3.7124292e-06
1.2840764e-06
3.6099871e-06
1.3339636e-06
3.5080377e-06
1.3789827e-06
3.4067056e-06
1.4192909e-06
3.3061068e-06
1.4550409e-06
3.2063512e-06
1.4863825e-06
3.10754e-06
1.5134617e-06
3.009771e-06
1.5364203e-06
2.9131343e-06
1.5553959e-06
2.8177144e-06
1.570524e-06
2.7235902e-06
1.5819356e-06
2.6308372e-06
1.5897578e-06
2.5395262e-06
1.5941152e-06
2.4497217e-06
1.5951274e-06
2.3614879e-06
1.5929122e-06
2.2748814e-06
1.587583e-06
2.1899569e-06
1.579251e-06
2.1067667e-06
1.568023e-06
2.0253593e-06
1.5540049e-06
1.9457799e-06
1.5372965e-06
1.8680724e-06
1.517996e-06
1.7922774e-06
1.4962007e-06
1.7184334e-06
1.4720026e-06
1.6465768e-06
1.4454914e-06
1.5767424e-06
1.4167549e-06
1.5089634e-06
1.3858785e-06
1.4432719e-06
1.3529441e-06
1.3796973e-06
1.3180327e-06
1.3182687e-06
1.2812214e-06
1.2590155e-06
1.2425869e-06
1.2019625e-06
1.202201e-06
1.1471377e-06
1.1601367e-06
1.0945661e-06
1.1164645e-06
1.044272e-06
1.0712511e-06
9.9628229e-07
1.024562e-06
9.5061959e-07
9.7646421e-07
9.0730423e-07
9.2701709e-07
8.6637228e-07
8.7628704e-07
8.2783448e-07
8.2432991e-07
7.9172427e-07
7.712122e-07
7.5805472e-07
7.1698189e-07
7.2686984e-07
6.6170173e-07
6.9817693e-07
6.0542741e-07
6.7200711e-07
5.4821739e-07
6.4838479e-07
4.9012098e-07
6.2734613e-07
4.3119497e-07
6.0890685e-07
3.714959e-07
5.9309186e-07
3.110739e-07
5.7993129e-07
2.4998439e-07
5.6943152e-07
1.8828293e-07
5.6158237e-07
1.2601674e-07
5.5636458e-07
6.3239706e-08
5.5366879e-07
5.5346004e-07
-2.6549221e-06
5.6214655e-06
-2.4130499e-06
5.5988245e-06
-2.1798879e-06
5.5685842e-06
-1.9554039e-06
5.5312705e-06
-1.739551e-06
5.4874043e-06
-1.5322636e-06
5.4374733e-06
-1.3334342e-06
5.3819461e-06