/*--------------------------------*- C++ -*----------------------------------*\
| =========                 |                                                 |
| \\      /  F ield         | OpenFOAM: The Open Source CFD Toolbox           |
|  \\    /   O peration     | Version:  2306                                  |
|   \\  /    A nd           | Website:  www.openfoam.com                      |
|    \\/     M anipulation  |                                                 |
\*---------------------------------------------------------------------------*/
FoamFile
{
    version     2.0;
    format      ascii;
    arch        "LSB;label=32;scalar=64";
    class       volVectorField;
    location    "0.45";
    object      U_0;
}
// * * * * * * * * * * * * * * * * * * * * * * * * * * * * * * * * * * * * * //

dimensions      [0 1 -1 0 0 0 0];

internalField   nonuniform List<vector> 
6400
(
(-9.9036739e-05 0.0037747102 2.355619e-19)
(2.1074918e-05 0.0036488217 1.0089908e-19)
(0.00013110713 0.0035246322 -2.1398809e-19)
(0.00023178282 0.0034023362 -7.9978237e-20)
(0.00032368498 0.0032821603 -5.6323005e-20)
(0.00040739835 0.0031642641 1.5405978e-19)
(0.00048347537 0.0030487747 6.8587198e-20)
(0.00055243465 0.0029357907 2.2853586e-19)
(0.00061476258 0.0028253855 1.3745786e-19)
(0.00067091407 0.0027176114 1.3224076e-19)
(0.00072131404 0.0026125022 1.4966672e-19)
(0.00076635908 0.0025100759 1.9547276e-19)
(0.00080641877 0.0024103372 4.1503342e-21)
(0.00084183725 0.0023132799 -5.881477e-20)
(0.00087293488 0.0022188885 -2.8052375e-20)
(0.00090000983 0.0021271398 2.5825976e-20)
(0.00092333952 0.0020380045 6.8253667e-21)
(0.00094318208 0.0019514484 2.3455038e-20)
(0.00095977769 0.0018674333 -5.499412e-20)
(0.00097334998 0.0017859183 -2.1857941e-20)
(0.00098410727 0.0017068593 6.5947581e-20)
(0.00099224374 0.0016302112 -1.1908211e-20)
(0.00099794039 0.0015559277 -1.2700139e-20)
(0.0010013662 0.0014839613 -4.9889439e-20)
(0.0010026788 0.0014142642 -2.069931e-20)
(0.0010020257 0.0013467881 5.3833138e-20)
(0.00099954482 0.0012814852 6.1574304e-21)
(0.00099536507 0.0012183074 -2.1352118e-21)
(0.00098960734 0.0011572072 1.9083854e-20)
(0.00098238475 0.0010981371 -8.5172619e-22)
(0.00097380338 0.0010410506 3.8897661e-21)
(0.0009639628 0.0009859012 8.818353e-20)
(0.00095295634 0.00093264361 8.8114934e-20)
(0.00094087155 0.00088123292 1.1244093e-20)
(0.00092779054 0.00083162456 1.84625e-21)
(0.00091379051 0.00078377518 2.051236e-20)
(0.00089894405 0.00073764186 1.0121351e-20)
(0.00088331904 0.00069318291 4.3042899e-20)
(0.00086697922 0.00065035669 9.7753701e-21)
(0.00084998469 0.0006091231 -4.9686185e-20)
(0.00083239171 0.00056944226 -1.7582148e-20)
(0.0008142528 0.00053127525 4.373135e-20)
(0.00079561716 0.00049458423 2.1115702e-20)
(0.00077653135 0.00045933201 -3.0718119e-21)
(0.00075703878 0.00042548252 -1.7184702e-20)
(0.00073717995 0.00039300005 -1.1920945e-20)
(0.00071699283 0.0003618502 3.4848951e-20)
(0.00069651269 0.00033199942 2.9583179e-20)
(0.00067577299 0.00030341441 -2.7935058e-20)
(0.0006548047 0.00027606367 -1.5728061e-20)
(0.00063363649 0.00024991639 8.2358509e-21)
(0.00061229539 0.0002249423 6.5012687e-21)
(0.00059080661 0.00020111249 2.5368024e-20)
(0.00056919297 0.00017839869 2.401205e-20)
(0.00054747473 0.00015677284 -7.2107258e-21)
(0.00052567397 0.00013620741 4.9619119e-21)
(0.00050381023 0.00011667909 1.4014592e-20)
(0.00048189895 9.8162932e-05 3.1040497e-20)
(0.00045995637 8.0634763e-05 8.4051275e-21)
(0.00043799724 6.4072301e-05 -2.60239e-20)
(0.00041603495 4.8453252e-05 -4.6849999e-22)
(0.00039408206 3.3756644e-05 8.3663023e-22)
(0.00037215116 1.9962338e-05 1.2980029e-20)
(0.00035025235 7.0497526e-06 8.586815e-21)
(0.00032839434 -4.9979236e-06 -1.2253505e-20)
(0.00030658644 -1.6198288e-05 -1.7261415e-21)
(0.00028483708 -2.6567382e-05 3.1704061e-21)
(0.00026315394 -3.6121035e-05 1.5416985e-20)
(0.00024154383 -4.4874467e-05 3.1205139e-21)
(0.00022001316 -5.2841435e-05 -1.0345568e-20)
(0.00019856773 -6.003521e-05 7.6621636e-21)
(0.00017721287 -6.6467866e-05 5.4815563e-21)
(0.00015595352 -7.2151118e-05 3.6594995e-21)
(0.00013479424 -7.7096388e-05 2.7688528e-21)
(0.00011373934 -8.131471e-05 2.7087978e-21)
(9.279346e-05 -8.4818607e-05 9.6555463e-21)
(7.1960993e-05 -8.7623679e-05 -4.6205525e-22)
(5.1237204e-05 -8.9752702e-05 -6.7962167e-21)
(3.0609025e-05 -9.1240401e-05 -1.6865778e-20)
(1.0131526e-05 -9.2114013e-05 -2.7263423e-20)
(-0.00022144463 0.0036505967 -4.6116952e-20)
(-0.00010001099 0.003533417 1.1616812e-19)
(1.1604884e-05 0.0034174685 -1.3777039e-19)
(0.00011404473 0.00330297 -3.4665509e-19)
(0.00020792956 0.0031901198 -2.8223722e-19)
(0.00029378085 0.0030791139 -8.2663126e-20)
(0.00037211989 0.0029701035 -9.0879523e-20)
(0.00044343861 0.0028632083 7.5519895e-20)
(0.00050819994 0.0027585235 -9.3793765e-20)
(0.00056683849 0.0026561227 -5.8592134e-20)
(0.00061976178 0.00255606 5.195916e-20)
(0.00066735136 0.0024583731 1.2373705e-19)
(0.00070996412 0.0023630859 -7.2044809e-20)
(0.00074793353 0.0022702101 -2.2380028e-19)
(0.00078157105 0.002179747 -1.2241431e-19)
(0.00081116744 0.0020916898 -3.1630541e-20)
(0.00083699398 0.0020060239 -3.7643949e-20)
(0.00085930386 0.0019227297 -3.5589253e-20)
(0.00087833324 0.0018417818 -1.1471118e-19)
(0.00089430276 0.0017631515 -7.4352763e-20)
(0.0009074182 0.0016868065 1.0394722e-20)
(0.00091787163 0.0016127122 3.025357e-21)
(0.00092584287 0.0015408318 -3.2884038e-20)
(0.00093149984 0.0014711272 -5.7553647e-20)
(0.00093499956 0.0014035592 -2.5217709e-20)
(0.00093648899 0.0013380873 1.7889929e-20)
(0.00093610585 0.0012746708 6.8641849e-21)
(0.00093397917 0.0012132686 -2.8488632e-21)
(0.0009302299 0.0011538395 -3.057376e-20)
(0.00092497144 0.001096342 1.221014e-20)
(0.00091831022 0.001040735 5.1640604e-20)
(0.00091034614 0.00098697737 5.8603301e-20)
(0.00090117296 0.00093502849 3.2245316e-20)
(0.00089087884 0.00088484804 -1.3512647e-20)
(0.00087954652 0.00083639591 -4.64172e-21)
(0.00086725386 0.00078963279 9.5909738e-21)
(0.00085407401 0.00074451939 2.5902365e-21)
(0.00084007561 0.00070101751 1.5394238e-21)
(0.00082532317 0.00065908929 -2.3353141e-20)
(0.00080987731 0.00061869761 -3.7576079e-20)
(0.00079379481 0.00057980574 3.3146161e-21)
(0.00077712916 0.00054237751 2.2297779e-20)
(0.00075993068 0.00050637801 1.6027604e-21)
(0.00074224668 0.00047177282 -1.0334122e-20)
(0.00072412112 0.0004385278 -7.2039823e-21)
(0.00070559508 0.00040661003 2.7158503e-21)
(0.00068670766 0.00037598721 2.300024e-20)
(0.00066749509 0.00034662785 6.3076517e-21)
(0.00064799139 0.00031850133 -1.1459097e-21)
(0.00062822848 0.00029157741 1.0767834e-20)
(0.00060823598 0.00026582716 8.6590366e-21)
(0.00058804167 0.00024122208 -8.5640878e-21)
(0.00056767147 0.00021773462 4.7407907e-21)
(0.00054714927 0.00019533791 1.9141194e-20)
(0.00052649724 0.00017400602 1.5662946e-20)
(0.00050573707 0.00015371522 2.9016537e-20)
(0.00048488832 0.00013443984 2.1816526e-20)
(0.00046396871 0.00011615657 2.3928902e-20)
(0.00044299572 9.8843925e-05 6.230517e-21)
(0.00042198446 8.2479337e-05 -6.074463e-21)
(0.00040094883 6.7042491e-05 6.5477493e-21)
(0.00037990267 5.2512998e-05 -6.4508356e-21)
(0.00035885767 3.887197e-05 5.8570836e-21)
(0.00033782601 2.6099896e-05 1.2460476e-20)
(0.00031681909 1.4180123e-05 9.1309885e-21)
(0.00029584614 3.0958953e-06 7.1222887e-21)
(0.00027491612 -7.1681438e-06 -3.6784748e-21)
(0.0002540369 -1.6627154e-05 2.3299789e-21)
(0.00023321644 -2.5295373e-05 6.5690891e-22)
(0.00021246212 -3.3185953e-05 4.5687445e-21)
(0.0001917806 -4.0312084e-05 1.3991428e-20)
(0.00017117804 -4.6684982e-05 8.6737806e-21)
(0.00015066009 -5.2316238e-05 8.7644037e-21)
(0.00013023217 -5.7216913e-05 6.2789878e-21)
(0.00010989942 -6.1397649e-05 7.3057803e-21)
(8.9667238e-05 -6.4870744e-05 6.0605167e-21)
(6.9540775e-05 -6.7651601e-05 1.1523987e-21)
(4.9516241e-05 -6.9762659e-05 2.7711012e-22)
(2.9581862e-05 -7.1238447e-05 -9.0111943e-21)
(9.7916781e-06 -7.2105542e-05 -2.5023176e-20)
(-0.0003349941 0.0035270517 6.8050966e-20)
(-0.00021276031 0.0034182963 9.6896582e-20)
(-0.00010002125 0.0033102725 -1.1810436e-19)
(3.7784759e-06 0.0032032948 -2.2236761e-19)
(9.9199368e-05 0.0030975612 -1.625161e-19)
(0.00018677807 0.0029932575 -1.2602911e-19)
(0.00026699075 0.0028905662 -1.5028739e-19)
(0.00034030037 0.0027896246 -3.2219109e-20)
(0.00040714665 0.002690547 -6.9824773e-20)
(0.00046794349 0.0025934254 -8.268071e-20)
(0.00052308029 0.0024983321 -4.5720746e-21)
(0.00057292293 0.0024053224 -4.2895457e-20)
(0.00061781484 0.0023144371 -1.8254366e-19)
(0.00065807802 0.0022257041 -1.4667891e-19)
(0.00069401412 0.0021391403 -9.6132265e-21)
(0.00072590552 0.0020547534 -4.7638712e-20)
(0.00075401661 0.001972543 -1.497503e-19)
(0.00077859471 0.0018925022 -1.3232828e-19)
(0.00079987126 0.0018146182 -7.2270352e-20)
(0.00081806268 0.0017388735 -2.1787934e-20)
(0.00083337158 0.0016652469 3.604896e-21)
(0.00084598767 0.0015937135 -5.1655569e-20)
(0.00085608838 0.0015242463 -1.0587425e-19)
(0.00086383997 0.0014568154 -1.2343768e-20)
(0.00086939827 0.0013913901 -1.5047495e-20)
(0.00087290928 0.0013279375 -1.17884e-20)
(0.00087450999 0.0012664238 -3.5084741e-20)
(0.00087432888 0.0012068148 -6.2942594e-20)
(0.00087248657 0.0011490749 -3.4650712e-20)
(0.0008690965 0.0010931689 9.3429166e-21)
(0.00086426499 0.0010390611 1.3211758e-20)
(0.00085809193 0.00098671525 -2.956126e-20)
(0.00085067138 0.00093609549 -2.1528555e-20)
(0.00084209173 0.00088716603 1.4020391e-20)
(0.0008324361 0.00083989092 6.2191806e-21)
(0.00082178267 0.00079423493 -3.9919618e-20)
(0.00081020483 0.00075016259 -4.9204896e-20)
(0.00079777178 0.00070763911 -1.4342281e-20)
(0.0007845488 0.00066662994 -7.550837e-21)
(0.00077059685 0.00062710113 -2.5166481e-20)
(0.00075597323 0.00058901901 9.2767175e-21)
(0.00074073239 0.00055235072 -1.8025263e-20)
(0.00072492516 0.00051706344 -1.0566317e-20)
(0.00070859879 0.00048312545 -4.9678495e-22)
(0.00069179849 0.00045050512 -1.3896391e-20)
(0.00067456657 0.00041917201 -8.0876395e-21)
(0.00065694217 0.000389096 -1.1200643e-20)
(0.00063896247 0.00036024754 -2.1132778e-20)
(0.00062066224 0.00033259809 1.0128208e-20)
(0.00060207393 0.00030611931 2.4561861e-20)
(0.00058322804 0.00028078404 8.8008783e-21)
(0.00056415307 0.00025656559 -2.2821886e-20)
(0.00054487581 0.00023343795 -1.6584671e-20)
(0.000525421 0.00021137599 6.0959531e-21)
(0.00050581181 0.00019035523 9.580897e-21)
(0.00048607016 0.0001703527 1.7296659e-20)
(0.00046621641 0.00015134457 2.2442956e-21)
(0.00044627033 0.00013330909 7.3690779e-21)
(0.00042624874 0.00011622566 -1.2153978e-21)
(0.00040616778 0.00010007253 -8.87083e-21)
(0.00038604294 8.4829668e-05 3.2581529e-21)
(0.00036588793 7.0478739e-05 -1.2578007e-20)
(0.00034571637 5.7001442e-05 5.0050022e-22)
(0.00032554064 4.4380957e-05 1.1774908e-21)
(0.0003053723 3.2599808e-05 2.6338306e-21)
(0.00028522185 2.1642034e-05 2.9051313e-21)
(0.00026509928 1.149233e-05 -1.5160509e-20)
(0.00024501363 2.1371268e-06 -5.579716e-21)
(0.0002249735 -6.4379083e-06 -3.3579412e-21)
(0.00020498643 -1.4245705e-05 -2.611696e-22)
(0.00018506027 -2.1298373e-05 6.7054072e-21)
(0.00016520192 -2.7605259e-05 -2.2794914e-21)
(0.00014541741 -3.3179502e-05 -3.0032302e-22)
(0.00012571332 -3.8031008e-05 -1.3493279e-21)
(0.00010609547 -4.2170396e-05 -3.8998118e-22)
(8.6570003e-05 -4.5609453e-05 -1.6324979e-21)
(6.7142791e-05 -4.8363525e-05 -4.42098e-21)
(4.7811067e-05 -5.0454623e-05 -7.2620758e-21)
(2.8564098e-05 -5.1917105e-05 -1.4879332e-20)
(9.4548932e-06 -5.2776814e-05 -2.2519077e-20)
(-0.00044006699 0.0034044503 2.4298404e-19)
(-0.0003174612 0.003303763 2.2222035e-20)
(-0.00020404417 0.0032034032 -1.3700206e-19)
(-9.929071e-05 0.0031036609 -1.3181353e-19)
(-2.708465e-06 0.0030047949 -6.5253132e-20)
(8.6208505e-05 0.0029070005 -1.5040989e-19)
(0.00016793272 0.002810458 -2.2591421e-19)
(0.00024288798 0.0027153207 -7.8818978e-20)
(0.00031149151 0.0026217231 4.6591763e-21)
(0.00037413602 0.0025297729 -7.9497393e-20)
(0.00043119251 0.0024395583 -1.0616058e-19)
(0.00048301078 0.0023511503 -1.292894e-19)
(0.00052992016 0.0022646044 -1.812861e-20)
(0.00057223041 0.0021799633 5.16637e-20)
(0.00061023276 0.0020972579 -3.6639143e-21)
(0.0006442007 0.0020165091 -9.8054751e-20)
(0.00067439077 0.0019377294 -1.2068665e-19)
(0.00070104374 0.0018609238 -2.4794044e-21)
(0.0007243855 0.0017860908 -6.2331482e-21)
(0.00074462792 0.001713224 1.4735682e-21)
(0.00076196955 0.0016423118 -4.2743468e-20)
(0.00077659673 0.0015733392 -7.3742408e-20)
(0.0007886843 0.0015062877 -3.0439814e-20)
(0.00079839619 0.001441136 9.4025459e-21)
(0.00080588639 0.0013778609 -4.9992756e-21)
(0.00081129956 0.0013164369 -4.4693886e-20)
(0.00081477143 0.0012568371 -5.4946514e-20)
(0.00081642958 0.0011990335 -2.0333888e-20)
(0.00081639392 0.0011429965 -1.0257886e-21)
(0.00081477723 0.0010886966 1.9023159e-20)
(0.00081168558 0.0010361033 1.7937407e-20)
(0.00080721871 0.00098518529 -2.3687756e-20)
(0.00080147052 0.00093591135 -1.3372855e-20)
(0.00079452939 0.00088825015 2.3400177e-20)
(0.00078647844 0.00084216977 2.2810854e-21)
(0.00077739599 0.00079763875 -4.1495047e-21)
(0.0007673558 0.00075462555 -3.1376394e-20)
(0.00075642735 0.00071309885 -9.9242191e-21)
(0.00074467596 0.00067302725 -1.31615e-21)
(0.00073216321 0.00063437991 5.9804735e-21)
(0.00071894696 0.0005971263 1.7953931e-20)
(0.0007050817 0.0005612364 -7.4328007e-21)
(0.00069061899 0.0005266799 1.9371572e-20)
(0.00067560685 0.00049342735 9.6038795e-21)
(0.00066009082 0.00046145037 9.1651435e-21)
(0.0006441137 0.00043071992 2.7548785e-21)
(0.00062771519 0.00040120847 -1.3776369e-20)
(0.0006109333 0.00037288868 -6.0625026e-21)
(0.00059380332 0.0003457331 5.486892e-21)
(0.00057635828 0.00031971608 3.5396277e-20)
(0.00055862945 0.00029481233 2.2859097e-20)
(0.00054064603 0.00027099651 -2.8262991e-21)
(0.00052243551 0.00024824442 6.3497449e-21)
(0.00050402338 0.00022653241 6.5049009e-21)
(0.00048543364 0.0002058375 7.2435125e-21)
(0.00046668876 0.00018613768 9.1071015e-21)
(0.00044780979 0.00016741135 6.1072229e-22)
(0.00042881735 0.00014963771 1.2224586e-20)
(0.00040972898 0.0001327943 -4.2756837e-22)
(0.00039056048 0.00011686494 3.5314336e-22)
(0.0003713293 0.00010182878 7.4371482e-21)
(0.00035205078 8.7668526e-05 -8.932152e-21)
(0.00033273816 7.4366821e-05 1.3766097e-20)
(0.00031340452 6.190726e-05 1.3374677e-20)
(0.00029406211 5.0273746e-05 5.0673926e-21)
(0.00027472224 3.9451209e-05 -5.3451494e-21)
(0.0002553964 2.9425119e-05 -1.1856051e-20)
(0.00023609357 2.0180808e-05 7.9248538e-21)
(0.00021682209 1.1705967e-05 4.7375623e-21)
(0.00019759161 3.9887722e-06 1.8724019e-21)
(0.00017841246 -2.9821115e-06 4.5641997e-21)
(0.00015929005 -9.2200377e-06 9.1951924e-22)
(0.00014023008 -1.473312e-05 6.3039559e-21)
(0.00012124168 -1.9531327e-05 7.8733753e-21)
(0.00010233098 -2.3625762e-05 9.1002977e-22)
(8.3504714e-05 -2.702777e-05 -2.6912433e-21)
(6.4769455e-05 -2.9752678e-05 3.346126e-21)
(4.6123294e-05 -3.1821949e-05 -5.361514e-22)
(2.7556607e-05 -3.3269711e-05 -1.8894253e-20)
(9.1215107e-06 -3.4121314e-05 -2.3589617e-20)
(-0.00053702724 0.0032831118 4.6299784e-19)
(-0.00041444379 0.0031901478 2.5991116e-19)
(-0.00030073846 0.0030971378 -1.7361999e-19)
(-0.00019542343 0.0030043769 4.4042677e-20)
(-9.8033332e-05 0.0029121229 1.015583e-19)
(-8.1103364e-06 0.0028206158 1.0956609e-19)
(7.478065e-05 0.0027300519 6.2683559e-20)
(0.00015105633 0.0026405572 7.9959804e-20)
(0.00022111023 0.0025523006 1.849909e-19)
(0.00028531032 0.0024654023 6.6638385e-20)
(0.00034400906 0.0023799641 1.0023058e-19)
(0.00039753973 0.0022960705 1.120471e-19)
(0.00044621734 0.0022137905 7.2737191e-20)
(0.0004903391 0.0021331795 1.1197663e-19)
(0.00053018517 0.002054281 4.6257e-20)
(0.00056601941 0.001977128 7.006902e-20)
(0.00059809015 0.0019017446 1.2741581e-19)
(0.00062663102 0.0018281469 4.0258916e-20)
(0.00065186164 0.0017563437 -1.4965842e-20)
(0.00067398856 0.0016863386 3.982261e-20)
(0.00069320599 0.0016181295 3.4456714e-20)
(0.00070969631 0.0015517101 4.1522075e-20)
(0.00072363108 0.0014870703 3.1107132e-20)
(0.00073517154 0.0014241968 -1.2501342e-21)
(0.00074446939 0.0013630735 3.9768905e-20)
(0.00075166728 0.001303682 1.67006e-20)
(0.00075689933 0.0012460019 2.4392964e-20)
(0.00076029184 0.0011900111 -1.8173526e-21)
(0.0007619636 0.0011356862 -4.7186674e-21)
(0.0007620265 0.0010830026 8.0124892e-21)
(0.00076058597 0.0010319351 -7.2915614e-21)
(0.00075774121 0.0009824573 3.6906402e-20)
(0.00075358568 0.00093454242 6.1195225e-20)
(0.00074820751 0.00088816323 4.3574686e-20)
(0.00074168976 0.00084329202 1.1357776e-20)
(0.0007341107 0.00079990101 5.4572592e-21)
(0.00072554403 0.00075796238 1.9384591e-20)
(0.0007160593 0.00071744796 3.8045724e-20)
(0.00070572201 0.00067832993 1.0771849e-20)
(0.00069459394 0.00064058031 2.1848863e-20)
(0.00068273343 0.00060417158 5.1607593e-21)
(0.00067019509 0.00056907601 4.7525992e-21)
(0.00065703058 0.00053526661 3.533041e-20)
(0.0006432886 0.00050271605 2.2602252e-20)
(0.00062901496 0.00047139843 1.0045769e-20)
(0.00061425297 0.00044128696 8.7344241e-22)
(0.00059904331 0.00041235584 1.5178235e-20)
(0.0005834236 0.00038458021 3.737181e-20)
(0.00056742995 0.00035793465 2.2417562e-21)
(0.00055109705 0.00033239532 2.0166779e-20)
(0.000534456 0.00030793784 7.8222508e-21)
(0.00051753597 0.00028453931 1.7007325e-21)
(0.00050036549 0.00026217715 3.3846669e-20)
(0.00048297097 0.00024082916 9.1403407e-21)
(0.00046537688 0.00022047362 8.9407476e-21)
(0.00044760661 0.00020108985 9.0188945e-21)
(0.0004296818 0.00018265754 7.9442602e-21)
(0.00041162102 0.00016515711 2.559105e-20)
(0.00039344587 0.0001485683 -1.7930345e-21)
(0.00037517433 0.00013287293 -1.9699999e-21)
(0.00035682075 0.00011805464 2.9306376e-21)
(0.00033840226 0.00010409564 -8.6191558e-21)
(0.00031993335 9.0979381e-05 1.6926172e-20)
(0.00030142766 7.8690357e-05 1.2893585e-20)
(0.00028289811 6.7213345e-05 6.1770649e-21)
(0.00026435678 5.6533996e-05 -9.605502e-23)
(0.00024581404 4.6638477e-05 -8.3827137e-21)
(0.00022728132 3.7512799e-05 1.6733662e-20)
(0.00020877002 2.9145589e-05 8.4198536e-21)
(0.00019028838 2.1524949e-05 2.8530317e-21)
(0.00017184282 1.4640229e-05 4.9948102e-21)
(0.00015344403 8.4782714e-06 5.748669e-21)
(0.00013510178 3.0318285e-06 1.3623918e-20)
(0.00011682105 -1.7092716e-06 1.2136263e-20)
(9.8609108e-05 -5.7553929e-06 1.3874802e-20)
(8.0473793e-05 -9.117922e-06 4.4295059e-21)
(6.2422716e-05 -1.1811864e-05 -3.1658668e-21)
(4.4454534e-05 -1.3857179e-05 -4.1350118e-21)
(2.6560415e-05 -1.5288985e-05 -2.4904441e-20)
(8.7918435e-06 -1.613179e-05 -3.1482976e-20)
(-0.00062624001 0.0031633129 2.1628844e-19)
(-0.00050403812 0.0030777257 4.278344e-19)
(-0.00039039871 0.0029917531 -1.0450572e-19)
(-0.00028487034 0.0029057005 -1.4062408e-19)
(-0.00018701466 0.0028198308 1.624766e-20)
(-9.6388155e-05 0.0027343857 1.7368855e-19)
(-1.263272e-05 0.0026495774 2.0355401e-19)
(6.4649291e-05 0.0025655715 7.7229304e-20)
(0.00013586813 0.0024825105 9.5628808e-22)
(0.00020134993 0.0024005346 7.3418102e-20)
(0.00026142957 0.0023197606 1.8255917e-19)
(0.00031642396 0.0022402844 2.0130356e-19)
(0.00036663343 0.0021621867 4.6507887e-21)
(0.00041234233 0.0020855344 -4.6512661e-21)
(0.00045381942 0.002010382 2.4091787e-20)
(0.00049131853 0.0019367735 9.9274426e-20)
(0.00052507932 0.0018647435 1.2616483e-19)
(0.00055532776 0.0017943179 -1.9917498e-20)
(0.00058227679 0.0017255154 -1.1830119e-21)
(0.00060612716 0.0016583485 1.572255e-20)
(0.000627068 0.001592824 5.8639325e-20)
(0.00064527743 0.0015289437 8.2909871e-20)
(0.00066092329 0.0014667054 -6.2951649e-21)
(0.00067416365 0.0014061031 -3.6640633e-20)
(0.00068514738 0.0013471276 3.8150678e-20)
(0.00069401475 0.0012897672 4.0296077e-20)
(0.000700898 0.0012340076 2.0966798e-20)
(0.00070592172 0.0011798326 -1.3932221e-20)
(0.00070920323 0.0011272243 -4.5520455e-21)
(0.00071085316 0.0010761633 -1.7519234e-20)
(0.00071097599 0.0010266292 -1.8030081e-20)
(0.00070967015 0.00097860026 7.8916512e-20)
(0.00070702855 0.00093205409 7.0389679e-20)
(0.0007031388 0.00088696744 9.4962792e-23)
(0.00069808347 0.00084331671 -1.2226082e-20)
(0.00069194055 0.00080107771 -1.1058748e-20)
(0.0006847837 0.00076022618 6.2234116e-20)
(0.00067668232 0.00072073718 5.9753594e-20)
(0.00066770188 0.00068258608 -2.4043204e-20)
(0.0006579042 0.00064574789 -4.1667336e-20)
(0.00064734753 0.00061019788 -1.1877669e-20)
(0.00063608697 0.00057591091 5.2150029e-20)
(0.00062417441 0.00054286256 2.1345578e-20)
(0.00061165873 0.0005110284 -4.1485797e-21)
(0.00059858617 0.0004803841 -9.3020349e-21)
(0.0005850001 0.00045090597 -6.3487467e-22)
(0.0005709416 0.00042256976 3.2335889e-20)
(0.0005564492 0.00039535215 3.6585597e-20)
(0.00054155922 0.00036923091 1.0327337e-20)
(0.00052630574 0.00034418306 -3.3467317e-21)
(0.00051072126 0.00032018585 -1.6331194e-20)
(0.00049483645 0.00029721839 -1.4512316e-21)
(0.00047867953 0.00027525934 2.1362204e-20)
(0.00046227712 0.00025428809 4.2556855e-21)
(0.00044565448 0.00023428448 8.4045709e-22)
(0.00042883544 0.00021522882 7.7745738e-21)
(0.00041184234 0.0001971019 1.7399882e-20)
(0.00039469581 0.00017988532 2.4069554e-20)
(0.00037741476 0.00016356251 -6.1400853e-21)
(0.00036001894 0.00014811326 -1.3670655e-20)
(0.00034252627 0.00013352265 -1.548448e-21)
(0.00032495191 0.00011977442 -1.2679179e-20)
(0.00030731115 0.00010685291 3.7376111e-21)
(0.00028961858 9.4743231e-05 7.0952213e-21)
(0.00027188763 8.3430814e-05 -3.4412409e-21)
(0.00025413093 7.2902002e-05 1.3416436e-21)
(0.00023636036 6.3143698e-05 -6.0372206e-21)
(0.00021858748 5.4144208e-05 8.4206091e-21)
(0.00020082268 4.5890823e-05 8.9581751e-21)
(0.00018307621 3.8371836e-05 2.5525878e-21)
(0.0001653572 3.1576798e-05 9.3160347e-21)
(0.00014767476 2.549777e-05 9.0665418e-21)
(0.00013003821 2.0122903e-05 9.7682548e-21)
(0.00011245496 1.5442916e-05 6.5616794e-21)
(9.4932544e-05 1.1448603e-05 5.0949136e-21)
(7.747904e-05 8.1289509e-06 3.8700484e-21)
(6.010436e-05 5.4704869e-06 -3.209449e-21)
(4.2806321e-05 3.4487381e-06 -8.9358384e-21)
(2.5576185e-05 2.0336019e-06 -2.4501711e-20)
(8.4661291e-06 1.2002811e-06 -3.3524409e-20)
(-0.00070807405 0.0030453012 2.4712092e-20)
(-0.00058657387 0.0029667399 2.3201245e-19)
(-0.00047331706 0.0028874965 -3.740631e-20)
(-0.00036788253 0.0028078736 -4.1034308e-19)
(-0.00026986732 0.002728145 -2.247544e-19)
(-0.00017886493 0.0026485498 -3.2701844e-20)
(-9.4517024e-05 0.0025692818 -3.3546525e-22)
(-1.6476742e-05 0.0024905781 4.084565e-20)
(5.5624762e-05 0.002412567 -2.1263444e-19)
(0.00012212916 0.0023353753 -6.4618943e-20)
(0.00018334459 0.0022591447 8.3620592e-20)
(0.0002395684 0.0021839806 1.3499422e-19)
(0.00029108625 0.0021099733 -3.3387436e-21)
(0.00033816937 0.0020371997 -2.0881259e-19)
(0.00038107499 0.0019657246 -9.0114539e-20)
(0.0004200467 0.0018956013 4.456906e-20)
(0.00045531495 0.0018268738 2.0084362e-20)
(0.00048709769 0.0017595774 -6.1492407e-20)
(0.00051560087 0.0016937392 -1.267901e-19)
(0.00054101901 0.0016293802 -8.36177e-20)
(0.00056353587 0.0015665153 4.9251756e-20)
(0.0005833248 0.0015051537 4.4991754e-20)
(0.00060054941 0.0014453008 -2.6954388e-20)
(0.00061536423 0.0013869572 -6.6982233e-20)
(0.00062791502 0.0013301203 -7.8479667e-21)
(0.00063833935 0.0012747847 3.8093898e-20)
(0.00064676703 0.0012209418 1.6461075e-20)
(0.00065332056 0.0011685811 -9.4579129e-21)
(0.00065811575 0.0011176899 -6.1840882e-20)
(0.00066126176 0.0010682537 -3.384253e-20)
(0.00066286167 0.0010202568 1.7434954e-20)
(0.00066301302 0.0009736818 2.128449e-20)
(0.0006618077 0.00092851068 1.6843583e-20)
(0.00065933256 0.00088472403 -2.4697239e-20)
(0.00065566971 0.00084230213 -9.1373095e-21)
(0.00065089657 0.00080122437 -4.8224483e-21)
(0.00064508634 0.00076146964 1.3953263e-20)
(0.00063830836 0.00072301654 -5.9810599e-21)
(0.00063062787 0.00068584332 -4.2018505e-20)
(0.0006221065 0.00064992786 -4.5147464e-20)
(0.00061280255 0.00061524831 -7.1271634e-21)
(0.00060277112 0.00058178221 1.3197529e-20)
(0.00059206423 0.00054950743 -5.8397486e-21)
(0.00058073101 0.00051840229 -4.3483043e-21)
(0.00056881788 0.00048844423 -8.9804635e-22)
(0.00055636833 0.0004596116 1.1751604e-20)
(0.00054342352 0.00043188291 1.6073939e-20)
(0.00053002259 0.00040523631 -1.2709426e-20)
(0.00051620233 0.00037965127 -5.0333331e-21)
(0.00050199707 0.00035510661 8.5789811e-22)
(0.00048743958 0.00033158229 -1.0015011e-22)
(0.00047256089 0.0003090581 -7.8735603e-21)
(0.00045738978 0.00028751422 -2.0493028e-21)
(0.00044195353 0.00026693133 5.4563386e-21)
(0.00042627781 0.00024729102 2.9785739e-21)
(0.00041038692 0.00022857467 1.4354575e-20)
(0.00039430369 0.00021076447 1.3554534e-20)
(0.00037804941 0.00019384305 1.033775e-20)
(0.00036164395 0.00017779386 -5.8925309e-21)
(0.00034510681 0.0001626011 -8.458866e-21)
(0.00032845634 0.00014824795 7.6829777e-21)
(0.00031170892 0.00013471956 -1.5601822e-20)
(0.00029488042 0.0001220012 -1.515223e-20)
(0.00027798575 0.00011007902 2.6580297e-21)
(0.0002610389 9.8939167e-05 3.3949822e-21)
(0.00024405332 8.8568656e-05 4.4165893e-21)
(0.00022704157 7.8955201e-05 -8.8350103e-21)
(0.00021001547 7.0087072e-05 -9.203293e-21)
(0.00019298615 6.1952667e-05 5.8996693e-21)
(0.00017596432 5.454154e-05 1.0379433e-20)
(0.00015896019 4.7843049e-05 1.5086841e-20)
(0.00014198322 4.1848937e-05 8.5954395e-21)
(0.00012504263 3.6548935e-05 1.5815024e-21)
(0.00010814725 3.1933525e-05 4.8776763e-21)
(9.1305424e-05 2.7994123e-05 -2.2509563e-21)
(7.4526548e-05 2.4720107e-05 -4.4766599e-21)
(5.7816464e-05 2.2097141e-05 -5.7596956e-22)
(4.1177169e-05 2.0102e-05 -6.0529972e-21)
(2.4604332e-05 1.8704905e-05 -1.4021843e-20)
(8.1446056e-06 1.788183e-05 -2.7246264e-20)
(-0.00078289484 0.0029292906 1.2520218e-20)
(-0.0006623819 0.0028574131 -1.300842e-19)
(-0.00054978938 0.0027845882 -7.3613285e-20)
(-0.00044473102 0.0027111148 -9.3810339e-20)
(-0.00034683268 0.0026372691 -3.0645132e-20)
(-0.00025572922 0.0025632978 -1.8427895e-20)
(-0.00017106538 0.002489402 -2.3157127e-19)
(-9.2510749e-05 0.0024157955 1.8926348e-20)
(-1.9763875e-05 0.0023426531 -7.0808181e-21)
(4.751422e-05 0.0022701119 -1.1339783e-20)
(0.00010963711 0.0021982994 7.4669173e-20)
(0.00016687049 0.0021273349 -1.0130692e-19)
(0.00021948598 0.002057319 -2.6147391e-20)
(0.00026774197 0.0019883374 1.8941111e-21)
(0.00031188396 0.0019204633 7.1883265e-20)
(0.00035214505 0.0018537588 1.3236468e-20)
(0.00038874639 0.0017882763 -2.0509485e-19)
(0.00042189762 0.0017240591 -7.2045486e-20)
(0.00045179734 0.0016611424 1.669838e-20)
(0.00047863353 0.0015995549 2.9186867e-20)
(0.00050258405 0.0015393186 2.8082964e-20)
(0.00052381723 0.0014804499 -1.1440399e-19)
(0.00054249231 0.0014229607 -4.4104186e-20)
(0.00055875985 0.0013668582 4.9224861e-20)
(0.00057276209 0.0013121458 1.5097221e-20)
(0.00058463353 0.0012588241 -6.7791205e-21)
(0.00059450143 0.0012068898 -9.6043382e-20)
(0.00060248605 0.0011563377 -1.9591131e-20)
(0.00060870105 0.00110716 8.6433389e-22)
(0.00061325386 0.0010593471 -2.1483245e-21)
(0.00061624619 0.0010128875 7.687366e-21)
(0.00061777407 0.00096776836 -1.0040471e-19)
(0.00061792843 0.0009239754 -2.8683284e-20)
(0.00061679525 0.00088149323 4.1551613e-20)
(0.00061445573 0.00084030559 9.068016e-22)
(0.00061098671 0.00080039553 -2.2762235e-20)
(0.00060646086 0.00076174489 -8.7625272e-20)
(0.00060094697 0.00072433564 -2.8550285e-20)
(0.00059451 0.00068814897 8.8607598e-21)
(0.00058721141 0.00065316551 -2.6340033e-20)
(0.00057910936 0.00061936604 -7.6239926e-21)
(0.0005702589 0.00058673073 -6.6471921e-20)
(0.00056071187 0.00055524 -1.5315453e-20)
(0.00055051744 0.00052487419 2.5626198e-20)
(0.00053972186 0.0004956132 -7.250396e-21)
(0.00052836909 0.00046743714 -1.4889468e-20)
(0.00051650075 0.00044032674 -5.0804101e-20)
(0.00050415586 0.00041426239 -3.6484524e-20)
(0.00049137144 0.0003892248 9.3604027e-21)
(0.00047818238 0.00036519473 5.848365e-21)
(0.00046462158 0.00034215384 1.7827885e-21)
(0.00045072022 0.00032008342 -3.7577159e-20)
(0.00043650756 0.00029896517 -2.2866588e-20)
(0.00042201158 0.00027878122 7.1710817e-21)
(0.00040725822 0.00025951448 -8.3016783e-21)
(0.00039227198 0.00024114762 -5.0254195e-21)
(0.00037707637 0.00022366417 -2.7141397e-20)
(0.0003616932 0.00020704769 -9.4279853e-21)
(0.00034614303 0.00019128264 9.6241481e-22)
(0.00033044561 0.00017635419 -1.1970911e-20)
(0.00031461948 0.00016224674 -8.0417325e-21)
(0.00029868169 0.00014894654 -3.4476625e-20)
(0.00028264907 0.0001364395 -1.8600687e-20)
(0.00026653687 0.00012471188 -6.5575044e-21)
(0.00025035935 0.0001137517 -1.0330596e-20)
(0.00023413077 0.00010354626 -1.0653477e-20)
(0.00021786425 9.4083765e-05 -2.9248479e-20)
(0.00020157202 8.5353021e-05 -1.5459385e-20)
(0.0001852656 7.7343444e-05 -9.25094e-22)
(0.0001689565 7.0044622e-05 -2.3320637e-21)
(0.00015265602 6.3446577e-05 -1.1514208e-21)
(0.00013637376 5.7541787e-05 -1.0348516e-20)
(0.00012011854 5.2319916e-05 -9.4716667e-21)
(0.00010390052 4.7772377e-05 -6.2670735e-21)
(8.7729279e-05 4.3890386e-05 -9.3428999e-21)
(7.1612904e-05 4.0663126e-05 -1.2313686e-20)
(5.5559994e-05 3.8076086e-05 -1.166396e-20)
(3.9572847e-05 3.6110904e-05 -1.2423396e-20)
(2.3646241e-05 3.4733551e-05 -1.7647157e-20)
(7.827528e-06 3.392174e-05 -2.6201037e-20)
(-0.00085105663 0.002815464 3.2038287e-19)
(-0.00073178572 0.0027499379 -8.0597152e-20)
(-0.00062011221 0.0026832234 -3.8366501e-19)
(-0.0005156842 0.0026156198 -2.1130336e-19)
(-0.00041815313 0.0025474033 -1.4036963e-19)
(-0.00032718683 0.0024788198 -8.049875e-20)
(-0.00024245934 0.0024100969 -2.74778e-19)
(-0.00016365114 0.0023414131 -1.6305209e-19)
(-9.0469588e-05 0.002272965 -2.5691256e-20)
(-2.2620448e-05 0.0022049178 -1.1802113e-19)
(4.0186495e-05 0.0021373937 -3.9196023e-21)
(9.8221248e-05 0.0020705115 -1.1086867e-19)
(0.00015173608 0.0020043818 -5.1699039e-20)
(0.00020097496 0.0019390989 4.0414889e-20)
(0.00024617154 0.0018747435 -5.2831564e-20)
(0.00028754825 0.0018113853 -6.432495e-20)
(0.0003253167 0.0017490841 -1.2091262e-19)
(0.00035967808 0.0016878904 -2.2716332e-20)
(0.0003908233 0.0016278468 -3.4825016e-21)
(0.00041893364 0.0015689885 -5.1796432e-20)
(0.00044418103 0.0015113445 -2.3214727e-20)
(0.00046672831 0.0014549376 -4.5933542e-20)