"Points:0","Points:1","Points:2"
0.47999999,1.0994474,0
0.47999999,1.0994474,1
0.47479311,1.1,1
0.47479311,1.1,0
0.48666668,1.0989226,1
0.48666668,1.0989226,0
0.49333334,1.0985962,1
0.49333334,1.0985962,0
0.5,1.0984849,1
0.5,1.0984849,0
0.50666666,1.0985962,1
0.50666666,1.0985962,0
0.51333332,1.0989226,1
0.51333332,1.0989226,0
0.51999998,1.0994474,1
0.51999998,1.0994474,0
0.52520686,1.1,0
0.52520686,1.1,1
0.44,1.1060463,0
0.44,1.1060463,1
0.43749517,1.1066667,1
0.43749517,1.1066667,0
0.44666666,1.1045817,1
0.44666666,1.1045817,0
0.45333335,1.1032487,1
0.45333335,1.1032487,0
0.46000001,1.1020635,1
0.46000001,1.1020635,0
0.46666667,1.10103,1
0.46666667,1.10103,0
0.47333333,1.1001579,1
0.47333333,1.1001579,0
0.52666664,1.1001579,1
0.52666664,1.1001579,0
0.53333336,1.10103,1
0.53333336,1.10103,0
0.54000002,1.1020635,1
0.54000002,1.1020635,0
0.54666668,1.1032487,1
0.54666668,1.1032487,0
0.55333334,1.1045817,1
0.55333334,1.1045817,0
0.56,1.1060463,1
0.56,1.1060463,0
0.56250483,1.1066667,0
0.56250483,1.1066667,1
0.41999999,1.1113092,0
0.41999999,1.1113092,1
0.41334441,1.1133333,1
0.41334441,1.1133333,0
0.42666668,1.109421,1
0.42666668,1.109421,0
0.43333334,1.1076843,1
0.43333334,1.1076843,0
0.56666666,1.1076843,1
0.56666666,1.1076843,0
0.57333332,1.109421,1
0.57333332,1.109421,0
0.57999998,1.1113092,1
0.57999998,1.1113092,0
0.58665556,1.1133333,0
0.58665556,1.1133333,1
0.40000001,1.1177824,0
0.40000001,1.1177824,1
0.3939352,1.12,1
0.3939352,1.12,0
0.40666667,1.1154909,1
0.40666667,1.1154909,0
0.41333333,1.113337,1
0.41333333,1.113337,0
0.58666664,1.113337,1
0.58666664,1.113337,0
0.5933333,1.1154909,1
0.5933333,1.1154909,0
0.60000002,1.1177824,1
0.60000002,1.1177824,0
0.6060648,1.12,0
0.6060648,1.12,1
0.38,1.1254537,0
0.38,1.1254537,1
0.37726903,1.1266667,1
0.37726903,1.1266667,0
0.38666666,1.1227845,1
0.38666666,1.1227845,0
0.39333335,1.1202385,1
0.39333335,1.1202385,0
0.60666668,1.1202385,1
0.60666668,1.1202385,0
0.61333334,1.1227845,1
0.61333334,1.1227845,0
0.62,1.1254537,1
0.62,1.1254537,0
0.62273097,1.1266667,0
0.62273097,1.1266667,1
0.36666667,1.1313171,0
0.36666667,1.1313171,1
0.36246446,1.1333333,1
0.36246446,1.1333333,0
0.37333333,1.1283839,1
0.37333333,1.1283839,0
0.62666667,1.1283839,1
0.62666667,1.1283839,0
0.63333333,1.1313171,1
0.63333333,1.1313171,0
0.63753557,1.1333333,0
0.63753557,1.1333333,1
0.35333332,1.1377593,0
0.35333332,1.1377593,1
0.34908143,1.14,1
0.34908143,1.14,0
0.36000001,1.1345569,1
0.36000001,1.1345569,0
0.63999999,1.1345569,1
0.63999999,1.1345569,0
0.64666665,1.1377593,1
0.64666665,1.1377593,0
0.65091854,1.14,0
0.65091854,1.14,1
0.34,1.1447974,0
0.34,1.1447974,1
0.33682963,1.1466666,1
0.33682963,1.1466666,0
0.34666666,1.1413239,1
0.34666666,1.1413239,0
0.65333331,1.1413239,1
0.65333331,1.1413239,0
0.66000003,1.1447974,1
0.66000003,1.1447974,0
0.6631704,1.1466666,0
0.6631704,1.1466666,1
0.32666665,1.1525178,0
0.32666665,1.1525178,1
0.32546973,1.1533333,1
0.32546973,1.1533333,0
0.33333334,1.1487186,1
0.33333334,1.1487186,0
0.66666669,1.1487186,1
0.66666669,1.1487186,0
0.67333335,1.1525178,1
0.67333335,1.1525178,0
0.67453027,1.1533333,0
0.67453027,1.1533333,1
0.31999999,1.1567264,0
0.31999999,1.1567264,1
0.3149617,1.16,1
0.3149617,1.16,0
0.68000001,1.1567264,1
0.68000001,1.1567264,0
0.68503833,1.16,0
0.68503833,1.16,1
0.30666667,1.1654245,0
0.30666667,1.1654245,1
0.30502737,1.1666666,1
0.30502737,1.1666666,0
0.31333333,1.161153,1
0.31333333,1.161153,0
0.68666667,1.161153,1
0.68666667,1.161153,0
0.69333333,1.1654245,1
0.69333333,1.1654245,0
0.69497263,1.1666666,0
0.69497263,1.1666666,1
0.30000001,1.1702205,0
0.30000001,1.1702205,1
0.2958554,1.1733333,1
0.2958554,1.1733333,0
0.69999999,1.1702205,1
0.69999999,1.1702205,0
0.7041446,1.1733333,0
0.7041446,1.1733333,1
0.29333332,1.1753094,0
0.29333332,1.1753094,1
0.28708094,1.1799999,1
0.28708094,1.1799999,0
0.70666665,1.1753094,1
0.70666665,1.1753094,0
0.712919,1.1799999,0
0.712919,1.1799999,1
0.28,1.1854848,0
0.28,1.1854848,1
0.27864414,1.1866666,1
0.27864414,1.1866666,0
0.28666666,1.1803484,1
0.28666666,1.1803484,0
0.71333331,1.1803484,1
0.71333331,1.1803484,0
0.72000003,1.1854848,1
0.72000003,1.1854848,0
0.72135592,1.1866666,0
0.72135592,1.1866666,1
0.27333334,1.1910846,0
0.27333334,1.1910846,1
0.27082062,1.1933334,1
0.27082062,1.1933334,0
0.72666669,1.1910846,1
0.72666669,1.1910846,0
0.72917944,1.1933334,0
0.72917944,1.1933334,1
0.26666668,1.1970283,0
0.26666668,1.1970283,1
0.26344857,1.2,1
0.26344857,1.2,0
0.73333335,1.1970283,1
0.73333335,1.1970283,0
0.73655146,1.2,0
0.73655146,1.2,1
0.25999999,1.2032264,0
0.25999999,1.2032264,1
0.25640818,1.2066667,1
0.25640818,1.2066667,0
0.74000001,1.2032264,1
0.74000001,1.2032264,0
0.74359185,1.2066667,0
0.74359185,1.2066667,1
0.25333333,1.2096689,0
0.25333333,1.2096689,1
0.24965659,1.2133334,1
0.24965659,1.2133334,0
0.74666667,1.2096689,1
0.74666667,1.2096689,0
0.75034338,1.2133334,0
0.75034338,1.2133334,1
0.24666667,1.2163719,0
0.24666667,1.2163719,1
0.24316862,1.22,1
0.24316862,1.22,0
0.75333333,1.2163719,1
0.75333333,1.2163719,0
0.75683135,1.22,0
0.75683135,1.22,1
0.23999999,1.2233576,0
0.23999999,1.2233576,1
0.23692483,1.2266667,1
0.23692483,1.2266667,0
0.75999999,1.2233576,1
0.75999999,1.2233576,0
0.76307517,1.2266667,0
0.76307517,1.2266667,1
0.23333333,1.2306632,0
0.23333333,1.2306632,1
0.23093034,1.2333333,1
0.23093034,1.2333333,0
0.76666665,1.2306632,1
0.76666665,1.2306632,0
0.76906967,1.2333333,0
0.76906967,1.2333333,1
0.22666667,1.2383955,0
0.22666667,1.2383955,1
0.22526248,1.24,1
0.22526248,1.24,0
0.77333331,1.2383955,1
0.77333331,1.2383955,0
0.77473748,1.24,0
0.77473748,1.24,1
0.22004183,1.2466667,1
0.22004183,1.2466667,0
0.77995813,1.2466667,1
0.77995813,1.2466667,0
0.22,1.2467155,0
0.22,1.2467155,1
0.21497801,1.2533333,1
0.21497801,1.2533333,0
0.77999997,1.2467155,1
0.77999997,1.2467155,0
0.78502202,1.2533333,0
0.78502202,1.2533333,1
0.21333334,1.2553754,0
0.21333334,1.2553754,1
0.20983601,1.26,1
0.20983601,1.26,0
0.78666669,1.2553754,1
0.78666669,1.2553754,0
0.79016399,1.26,0
0.79016399,1.26,1
0.20666666,1.2643559,0
0.20666666,1.2643559,1
0.20491426,1.2666667,1
0.20491426,1.2666667,0
0.79333335,1.2643559,1
0.79333335,1.2643559,0
0.79508579,1.2666667,0
0.79508579,1.2666667,1
0.20052247,1.2733333,1
0.20052247,1.2733333,0
0.79947758,1.2733333,1
0.79947758,1.2733333,0
0.2,1.2740307,0
0.2,1.2740307,1
0.19604836,1.28,1
0.19604836,1.28,0
0.80000001,1.2740307,1
0.80000001,1.2740307,0
0.80395162,1.28,0
0.80395162,1.28,1
0.19333333,1.2841749,0
0.19333333,1.2841749,1
0.19165419,1.2866666,1
0.19165419,1.2866666,0
0.80666667,1.2841749,1
0.80666667,1.2841749,0
0.80834579,1.2866666,0
0.80834579,1.2866666,1
0.18775304,1.2933333,1
0.18775304,1.2933333,0
0.81224698,1.2933333,1
0.81224698,1.2933333,0
0.18666667,1.2950021,0
0.18666667,1.2950021,1
0.1836708,1.3,1
0.1836708,1.3,0
0.81333333,1.2950021,1
0.81333333,1.2950021,0
0.81632918,1.3,0
0.81632918,1.3,1
0.18000001,1.3065312,0
0.18000001,1.3065312,1
0.17991284,1.3066666,1
0.17991284,1.3066666,0
0.81999999,1.3065312,1
0.81999999,1.3065312,0
0.82008719,1.3066666,0
0.82008719,1.3066666,1
0.17626478,1.3133334,1
0.17626478,1.3133334,0
0.82373524,1.3133334,1
0.82373524,1.3133334,0
0.17333333,1.3188925,0
0.17333333,1.3188925,1
0.17269729,1.3200001,1
0.17269729,1.3200001,0
0.82666665,1.3188925,1
0.82666665,1.3188925,0
0.82730269,1.3200001,0
0.82730269,1.3200001,1
0.16937724,1.3266667,1
0.16937724,1.3266667,0
0.83062273,1.3266667,1
0.83062273,1.3266667,0
0.16666667,1.332194,0
0.16666667,1.332194,1
0.1660634,1.3333334,1
0.1660634,1.3333334,0
0.83333331,1.332194,1
0.83333331,1.332194,0
0.83393657,1.3333334,0
0.83393657,1.3333334,1
0.16298597,1.34,1
0.16298597,1.34,0
0.83701402,1.34,1
0.83701402,1.34,0
0.16,1.346573,0
0.16,1.346573,1
0.15995243,1.3466667,1
0.15995243,1.3466667,0
0.83999997,1.346573,1
0.83999997,1.346573,0
0.84004754,1.3466667,0
0.84004754,1.3466667,1
0.15708299,1.3533334,1
0.15708299,1.3533334,0
0.84291703,1.3533334,1
0.84291703,1.3533334,0
0.15429793,1.36,1
0.15429793,1.36,0
0.84570211,1.36,1
0.84570211,1.36,0
0.15333334,1.3623114,0
0.15333334,1.3623114,1
0.15158041,1.3666667,1
0.15158041,1.3666667,0
0.84666669,1.3623114,1
0.84666669,1.3623114,0
0.84841961,1.3666667,0
0.84841961,1.3666667,1
0.14900838,1.3733333,1
0.14900838,1.3733333,0
0.85099167,1.3733333,1
0.85099167,1.3733333,0
0.14666666,1.3795849,0
0.14666666,1.3795849,1
0.14649834,1.38,1
0.14649834,1.38,0
0.85333335,1.3795849,1
0.85333335,1.3795849,0
0.85350168,1.38,0
0.85350168,1.38,1
0.14416862,1.3866667,1
0.14416862,1.3866667,0
0.85583138,1.3866667,1
0.85583138,1.3866667,0
0.14182645,1.3933333,1
0.14182645,1.3933333,0
0.85817355,1.3933333,1
0.85817355,1.3933333,0
0.14,1.3988483,0
0.14,1.3988483,1
0.13959917,1.4,1
0.13959917,1.4,0
0.86000001,1.3988483,1
0.86000001,1.3988483,0
0.86040086,1.4,0
0.86040086,1.4,1
0.13755541,1.4066666,1
0.13755541,1.4066666,0
0.31333333,1.4046289,0
0.3079778,1.4066666,1
0.31333333,1.4046289,1
0.3079778,1.4066666,0
0.31999999,1.4027165,1
0.31999999,1.4027165,0
0.32666665,1.4014138,1
0.32666665,1.4014138,0
0.33333334,1.4007193,1
0.33333334,1.4007193,0
0.34,1.4006438,1
0.34,1.4006438,0
0.34666666,1.4012136,1
0.34666666,1.4012136,0
0.35333332,1.4024773,1
0.35333332,1.4024773,0
0.36000001,1.4044881,1
0.36000001,1.4044881,0
0.36506376,1.4066666,0
0.36506376,1.4066666,1
0.63999999,1.4044881,0
0.63493621,1.4066666,1
0.63999999,1.4044881,1
0.63493621,1.4066666,0
0.64666665,1.4024773,1
0.64666665,1.4024773,0
0.65333331,1.4012136,1
0.65333331,1.4012136,0
0.66000003,1.4006438,1
0.66000003,1.4006438,0
0.66666669,1.4007193,1
0.66666669,1.4007193,0
0.67333335,1.4014138,1
0.67333335,1.4014138,0
0.68000001,1.4027165,1
0.68000001,1.4027165,0
0.68666667,1.4046289,1
0.68666667,1.4046289,0
0.6920222,1.4066666,0
0.6920222,1.4066666,1
0.86244464,1.4066666,1
0.86244464,1.4066666,0
0.13547,1.4133333,1
0.13547,1.4133333,0
0.30000001,1.4102927,0
0.29465163,1.4133333,1
0.30000001,1.4102927,1
0.29465163,1.4133333,0
0.30666667,1.4072026,1
0.30666667,1.4072026,0
0.36666667,1.4074104,1
0.36666667,1.4074104,0
0.37333333,1.4110726,1
0.37333333,1.4110726,0
0.37632892,1.4133333,0
0.37632892,1.4133333,1
0.62666667,1.4110726,0
0.62367105,1.4133333,1
0.62666667,1.4110726,1
0.62367105,1.4133333,0
0.63333333,1.4074104,1
0.63333333,1.4074104,0
0.69333333,1.4072026,1
0.69333333,1.4072026,0
0.69999999,1.4102927,1
0.69999999,1.4102927,0
0.70534837,1.4133333,0
0.70534837,1.4133333,1
0.86453003,1.4133333,1
0.86453003,1.4133333,0
0.13349827,1.42,1
0.13349827,1.42,0
0.28666666,1.4183557,0
0.28457868,1.42,1
0.28666666,1.4183557,1
0.28457868,1.42,0
0.29333332,1.4141644,1
0.29333332,1.4141644,0
0.38,1.4161834,1
0.38,1.4161834,0
0.38414168,1.42,0
0.38414168,1.42,1
0.62,1.4161834,0
0.61585832,1.42,1
0.62,1.4161834,1
0.61585832,1.42,0
0.70666665,1.4141644,1
0.70666665,1.4141644,0
0.71333331,1.4183557,1
0.71333331,1.4183557,0
0.71542132,1.42,0
0.71542132,1.42,1
0.86650175,1.42,1
0.86650175,1.42,0
0.13333334,1.4205642,0
0.13333334,1.4205642,1
0.13165416,1.4266666,1
0.13165416,1.4266666,0
0.28,1.423514,0
0.27635694,1.4266666,1
0.28,1.423514,1
0.27635694,1.4266666,0
0.38666666,1.4225779,1
0.38666666,1.4225779,0
0.39031687,1.4266666,0
0.39031687,1.4266666,1
0.61333334,1.4225779,0
0.60968316,1.4266666,1
0.61333334,1.4225779,1
0.60968316,1.4266666,0
0.72000003,1.423514,1
0.72000003,1.423514,0
0.72364312,1.4266666,0
0.72364312,1.4266666,1
0.86666667,1.4205642,1
0.86666667,1.4205642,0
0.86834586,1.4266666,0
0.86834586,1.4266666,1
0.12986064,1.4333333,1
0.12986064,1.4333333,0
0.27333334,1.4293972,0
0.26921785,1.4333333,1
0.27333334,1.4293972,1
0.26921785,1.4333333,0
0.39333335,1.4306394,1
0.39333335,1.4306394,0
0.39536539,1.4333333,0
0.39536539,1.4333333,1
0.60666668,1.4306394,0
0.60463464,1.4333333,1
0.60666668,1.4306394,1
0.60463464,1.4333333,0
0.72666669,1.4293972,1
0.72666669,1.4293972,0
0.73078221,1.4333333,0
0.73078221,1.4333333,1
0.87013936,1.4333333,1
0.87013936,1.4333333,0
0.1280662,1.4400001,1
0.1280662,1.4400001,0
0.26666668,1.435899,0
0.26278108,1.4400001,1
0.26666668,1.435899,1
0.26278108,1.4400001,0
0.39926761,1.4400001,1
0.39926761,1.4400001,0
0.60073239,1.4400001,1
0.60073239,1.4400001,0
0.73333335,1.435899,1
0.73333335,1.435899,0
0.73721892,1.4400001,0
0.73721892,1.4400001,1
0.87193382,1.4400001,1
0.87193382,1.4400001,0
0.12666667,1.4455771,0
0.12666667,1.4455771,1
0.12638266,1.4466667,1
0.12638266,1.4466667,0
0.25999999,1.4430782,0
0.25686514,1.4466667,1
0.25999999,1.4430782,1
0.25686514,1.4466667,0
0.40000001,1.4412901,1
0.40000001,1.4412901,0
0.40277171,1.4466667,0
0.40277171,1.4466667,1
0.60000002,1.4412901,0
0.59722829,1.4466667,1
0.60000002,1.4412901,1
0.59722829,1.4466667,0
0.74000001,1.4430782,1
0.74000001,1.4430782,0
0.74313486,1.4466667,0
0.74313486,1.4466667,1
0.87333333,1.4455771,1
0.87333333,1.4455771,0
0.87361735,1.4466667,0
0.87361735,1.4466667,1
0.12485383,1.4533334,1
0.12485383,1.4533334,0
0.25333333,1.451037,0
0.251441,1.4533334,1
0.25333333,1.451037,1
0.251441,1.4533334,0
0.40563893,1.4533334,1
0.40563893,1.4533334,0
0.59436107,1.4533334,1
0.59436107,1.4533334,0
0.74666667,1.451037,1
0.74666667,1.451037,0
0.748559,1.4533334,0
0.748559,1.4533334,1
0.87514615,1.4533334,1
0.87514615,1.4533334,0
0.1233208,1.46,1
0.1233208,1.46,0
0.24667872,1.46,1
0.24667872,1.46,0
0.40666667,1.4559203,1
0.40666667,1.4559203,0
0.40823892,1.46,0
0.40823892,1.46,1
0.5933333,1.4559203,0
0.59176105,1.46,1
0.5933333,1.4559203,1
0.59176105,1.46,0
0.75332129,1.46,1
0.75332129,1.46,0
0.87667918,1.46,1
0.87667918,1.46,0
0.12179689,1.4666667,1
0.12179689,1.4666667,0
0.24666667,1.4600154,0
0.2421716,1.4666667,1
0.24666667,1.4600154,1
0.2421716,1.4666667,0
0.41039196,1.4666667,1
0.41039196,1.4666667,0
0.58960801,1.4666667,1
0.58960801,1.4666667,0
0.75333333,1.4600154,1
0.75333333,1.4600154,0
0.75782841,1.4666667,0
0.75782841,1.4666667,1
0.87820309,1.4666667,1
0.87820309,1.4666667,0
0.12034744,1.4733334,1
0.12034744,1.4733334,0
0.23999999,1.4698523,0
0.23765667,1.4733334,1
0.23999999,1.4698523,1
0.23765667,1.4733334,0
0.41235387,1.4733334,1
0.41235387,1.4733334,0
0.58764607,1.4733334,1
0.58764607,1.4733334,0
0.75999999,1.4698523,1
0.75999999,1.4698523,0
0.76234335,1.4733334,0
0.76234335,1.4733334,1
0.87965256,1.4733334,1
0.87965256,1.4733334,0
0.12,1.4750262,0
0.12,1.4750262,1
0.11900678,1.48,1
0.11900678,1.48,0
0.23369721,1.48,1
0.23369721,1.48,0
0.41333333,1.4769669,1
0.41333333,1.4769669,0
0.41415069,1.48,0
0.41415069,1.48,1
0.58666664,1.4769669,0
0.58584929,1.48,1
0.58666664,1.4769669,1
0.58584929,1.48,0
0.76630276,1.48,1
0.76630276,1.48,0
0.88,1.4750262,1
0.88,1.4750262,0
0.88099319,1.48,0
0.88099319,1.48,1
0.11774879,1.4866667,1
0.11774879,1.4866667,0
0.23333333,1.4805514,0
0.22978896,1.4866667,1
0.23333333,1.4805514,1
0.22978896,1.4866667,0
0.41559297,1.4866667,1
0.41559297,1.4866667,0
0.58440697,1.4866667,1
0.58440697,1.4866667,0
0.76666665,1.4805514,1
0.76666665,1.4805514,0
0.77021104,1.4866667,0
0.77021104,1.4866667,1
0.8822512,1.4866667,1
0.8822512,1.4866667,0
0.11649567,1.4933333,1
0.11649567,1.4933333,0
0.22666667,1.4922878,0
0.22602724,1.4933333,1
0.22666667,1.4922878,1
0.22602724,1.4933333,0
0.41686401,1.4933333,1
0.41686401,1.4933333,0
0.58313596,1.4933333,1
0.58313596,1.4933333,0
0.77333331,1.4922878,1
0.77333331,1.4922878,0
0.77397275,1.4933333,0
0.77397275,1.4933333,1
0.88350433,1.4933333,1
0.88350433,1.4933333,0
0.11524477,1.5,1
0.11524477,1.5,0
0.22259597,1.5,1
0.22259597,1.5,0
0.41803181,1.5,1
0.41803181,1.5,0
0.58196813,1.5,1
0.58196813,1.5,0
0.77740401,1.5,1
0.77740401,1.5,0
0.88475519,1.5,1
0.88475519,1.5,0
0.11402131,1.5066667,1
0.11402131,1.5066667,0
0.22,1.505102,0
0.21914798,1.5066667,1
0.22,1.505102,1
0.21914798,1.5066667,0
0.41907114,1.5066667,1
0.41907114,1.5066667,0
0.5809288,1.5066667,1
0.5809288,1.5066667,0
0.77999997,1.505102,1
0.77999997,1.505102,0
0.78085202,1.5066667,0
0.78085202,1.5066667,1
0.8859787,1.5066667,1
0.8859787,1.5066667,0
0.11333334,1.5107882,0
0.11333334,1.5107882,1
0.1129059,1.5133333,1
0.1129059,1.5133333,0
0.21599682,1.5133333,1
0.21599682,1.5133333,0
0.41997969,1.5133333,1
0.41997969,1.5133333,0
0.58002031,1.5133333,1
0.58002031,1.5133333,0
0.7840032,1.5133333,1
0.7840032,1.5133333,0
0.88666666,1.5107882,1
0.88666666,1.5107882,0
0.88709408,1.5133333,0
0.88709408,1.5133333,1
0.11190629,1.52,1
0.11190629,1.52,0
0.21333334,1.5190612,0
0.21285756,1.52,1
0.21333334,1.5190612,1
0.21285756,1.52,0
0.41999999,1.5135151,1
0.41999999,1.5135151,0
0.42070189,1.52,0
0.42070189,1.52,1
0.57999998,1.5135151,0
0.57929808,1.52,1
0.57999998,1.5135151,1
0.57929808,1.52,0
0.78666669,1.5190612,1
0.78666669,1.5190612,0
0.78714246,1.52,0
0.78714246,1.52,1
0.88809371,1.52,1
0.88809371,1.52,0
0.11090187,1.5266666,1
0.11090187,1.5266666,0
0.20992164,1.5266666,1
0.20992164,1.5266666,0
0.42125386,1.5266666,1
0.42125386,1.5266666,0
0.57874614,1.5266666,1
0.57874614,1.5266666,0
0.7900784,1.5266666,1
0.7900784,1.5266666,0
0.88909811,1.5266666,1
0.88909811,1.5266666,0
0.10990098,1.5333333,1
0.10990098,1.5333333,0
0.2071133,1.5333333,1
0.2071133,1.5333333,0
0.42174202,1.5333333,1
0.42174202,1.5333333,0
0.57825798,1.5333333,1
0.57825798,1.5333333,0
0.79288673,1.5333333,1
0.79288673,1.5333333,0
0.89009899,1.5333333,1
0.89009899,1.5333333,0
0.10891252,1.54,1
0.10891252,1.54,0
0.20666666,1.5343314,0
0.20431817,1.54,1
0.20666666,1.5343314,1
0.20431817,1.54,0
0.42217201,1.54,1
0.42217201,1.54,0
0.57782793,1.54,1
0.57782793,1.54,0
0.79333335,1.5343314,1
0.79333335,1.5343314,0
0.79568183,1.54,0
0.79568183,1.54,1
0.89108747,1.54,1
0.89108747,1.54,0
0.1079394,1.5466666,1
0.1079394,1.5466666,0
0.20171896,1.5466666,1
0.20171896,1.5466666,0
0.42253274,1.5466666,1
0.42253274,1.5466666,0
0.57746726,1.5466666,1
0.57746726,1.5466666,0
0.79828107,1.5466666,1
0.79828107,1.5466666,0
0.89206058,1.5466666,1
0.89206058,1.5466666,0
0.1070139,1.5533333,1
0.1070139,1.5533333,0
0.2,1.5511191,0
0.19911593,1.5533333,1
0.2,1.5511191,1
0.19911593,1.5533333,0
0.4228363,1.5533333,1
0.4228363,1.5533333,0
0.5771637,1.5533333,1
0.5771637,1.5533333,0
0.80000001,1.5511191,1
0.80000001,1.5511191,0
0.80088407,1.5533333,0
0.80088407,1.5533333,1
0.89298612,1.5533333,1
0.89298612,1.5533333,0
0.10666667,1.5560867,0
0.10666667,1.5560867,1
0.10617697,1.5599999,1
0.10617697,1.5599999,0
0.19667478,1.5599999,1
0.19667478,1.5599999,0
0.4230935,1.5599999,1
0.4230935,1.5599999,0
0.5769065,1.5599999,1
0.5769065,1.5599999,0
0.80332524,1.5599999,1
0.80332524,1.5599999,0
0.89333332,1.5560867,1
0.89333332,1.5560867,0
0.89382303,1.5599999,0
0.89382303,1.5599999,1
0.10541309,1.5666667,1
0.10541309,1.5666667,0
0.19438079,1.5666667,1
0.19438079,1.5666667,0
0.42330635,1.5666667,1
0.42330635,1.5666667,0
0.57669365,1.5666667,1
0.57669365,1.5666667,0
0.80561918,1.5666667,1
0.80561918,1.5666667,0
0.89458692,1.5666667,1
0.89458692,1.5666667,0
0.10465737,1.5733334,1
0.10465737,1.5733334,0
0.19333333,1.5696667,0
0.19206318,1.5733334,1
0.19333333,1.5696667,1
0.19206318,1.5733334,0
0.42347705,1.5733334,1
0.42347705,1.5733334,0
0.57652295,1.5733334,1
0.57652295,1.5733334,0
0.80666667,1.5696667,1
0.80666667,1.5696667,0
0.80793685,1.5733334,0
0.80793685,1.5733334,1
0.89534259,1.5733334,1
0.89534259,1.5733334,0
0.1039068,1.58,1
0.1039068,1.58,0
0.18986602,1.58,1
0.18986602,1.58,0
0.42361009,1.58,1
0.42361009,1.58,0
0.57638991,1.58,1
0.57638991,1.58,0
0.81013399,1.58,1
0.81013399,1.58,0
0.89609319,1.58,1
0.89609319,1.58,0
0.1031583,1.5866667,1
0.1031583,1.5866667,0
0.18781424,1.5866667,1
0.18781424,1.5866667,0
0.42370933,1.5866667,1
0.42370933,1.5866667,0
0.57629067,1.5866667,1
0.57629067,1.5866667,0
0.81218576,1.5866667,1
0.81218576,1.5866667,0
0.8968417,1.5866667,1
0.8968417,1.5866667,0
0.10241783,1.5933334,1
0.10241783,1.5933334,0
0.18666667,1.5904157,0
0.18576404,1.5933334,1
0.18666667,1.5904157,1
0.18576404,1.5933334,0
0.42377728,1.5933334,1
0.42377728,1.5933334,0
0.57622272,1.5933334,1
0.57622272,1.5933334,0
0.81333333,1.5904157,1
0.81333333,1.5904157,0
0.81423593,1.5933334,0
0.81423593,1.5933334,1
0.89758217,1.5933334,1
0.89758217,1.5933334,0
0.10169394,1.6,1
0.10169394,1.6,0
0.18379746,1.6,1
0.18379746,1.6,0
0.4238162,1.6,1
0.4238162,1.6,0
0.5761838,1.6,1
0.5761838,1.6,0
0.81620252,1.6,1
0.81620252,1.6,0
0.89830601,1.6,1
0.89830601,1.6,0
0.10098673,1.6066667,1
0.10098673,1.6066667,0
0.18194702,1.6066667,1
0.18194702,1.6066667,0
0.42382818,1.6066667,1
0.42382818,1.6066667,0
0.57617182,1.6066667,1
0.57617182,1.6066667,0
0.81805295,1.6066667,1
0.81805295,1.6066667,0
0.89901322,1.6066667,1
0.89901322,1.6066667,0
0.10031226,1.6133333,1
0.10031226,1.6133333,0
0.18019587,1.6133333,1
0.18019587,1.6133333,0
0.42381483,1.6133333,1
0.42381483,1.6133333,0
0.57618517,1.6133333,1
0.57618517,1.6133333,0
0.81980413,1.6133333,1
0.81980413,1.6133333,0
0.89968771,1.6133333,1
0.89968771,1.6133333,0
0.1,1.6167898,0
0.1,1.6167898,1
0.09971033,1.62,1
0.09971033,1.62,0
0.18000001,1.614043,0
0.17844184,1.62,1
0.18000001,1.614043,1
0.17844184,1.62,0
0.42377743,1.62,1
0.42377743,1.62,0
0.57622254,1.62,1
0.57622254,1.62,0
0.81999999,1.614043,1
0.81999999,1.614043,0
0.82155818,1.62,0
0.82155818,1.62,1
0.89999998,1.6167898,1
0.89999998,1.6167898,0
0.90028965,1.62,0
0.90028965,1.62,1
0.099170633,1.6266667,1
0.099170633,1.6266667,0
0.17676987,1.6266667,1
0.17676987,1.6266667,0
0.42371732,1.6266667,1
0.42371732,1.6266667,0
0.57628268,1.6266667,1
0.57628268,1.6266667,0
0.82323015,1.6266667,1
0.82323015,1.6266667,0
0.90082937,1.6266667,1
0.90082937,1.6266667,0
0.098640434,1.6333333,1
0.098640434,1.6333333,0
0.17521788,1.6333333,1
0.17521788,1.6333333,0
0.4236359,1.6333333,1
0.4236359,1.6333333,0
0.5763641,1.6333333,1
0.5763641,1.6333333,0
0.82478213,1.6333333,1
0.82478213,1.6333333,0
0.90135956,1.6333333,1
0.90135956,1.6333333,0
0.098118313,1.64,1
0.098118313,1.64,0
0.17377453,1.64,1
0.17377453,1.64,0
0.4235346,1.64,1
0.4235346,1.64,0
0.57646537,1.64,1
0.57646537,1.64,0
0.82622546,1.64,1
0.82622546,1.64,0
0.90188169,1.64,1
0.90188169,1.64,0
0.097600974,1.6466666,1
0.097600974,1.6466666,0
0.17333333,1.6419954,0
0.17232284,1.6466666,1
0.17333333,1.6419954,1
0.17232284,1.6466666,0
0.42341471,1.6466666,1
0.42341471,1.6466666,0
0.57658529,1.6466666,1
0.57658529,1.6466666,0
0.82666665,1.6419954,1
0.82666665,1.6419954,0
0.82767713,1.6466666,0
0.82767713,1.6466666,1
0.902399,1.6466666,1
0.902399,1.6466666,0
0.097090408,1.6533333,1
0.097090408,1.6533333,0
0.17093408,1.6533333,1
0.17093408,1.6533333,0
0.42327717,1.6533333,1
0.42327717,1.6533333,0
0.5767228,1.6533333,1
0.5767228,1.6533333,0
0.82906592,1.6533333,1
0.82906592,1.6533333,0
0.90290958,1.6533333,1
0.90290958,1.6533333,0
0.096590258,1.66,1
0.096590258,1.66,0
0.16963521,1.66,1
0.16963521,1.66,0
0.25999999,1.6573191,0
0.25999999,1.6573191,1
0.25634357,1.66,1
0.25634357,1.66,0
0.26666668,1.6553814,1
0.26666668,1.6553814,0
0.27333334,1.6584126,1
0.27333334,1.6584126,0
0.27474535,1.66,0
0.27474535,1.66,1
0.42312264,1.66,1
0.42312264,1.66,0
0.57687736,1.66,1
0.57687736,1.66,0
0.72666669,1.6584126,0
0.72666669,1.6584126,1
0.72525465,1.66,1
0.72525465,1.66,0
0.73333335,1.6553814,1
0.73333335,1.6553814,0
0.74000001,1.6573191,1
0.74000001,1.6573191,0
0.7436564,1.66,0
0.7436564,1.66,1
0.83036476,1.66,1
0.83036476,1.66,0
0.90340972,1.66,1
0.90340972,1.66,0
0.096103728,1.6666666,1
0.096103728,1.6666666,0
0.16845056,1.6666666,1
0.16845056,1.6666666,0
0.25333333,1.6624317,0
0.25333333,1.6624317,1
0.24925473,1.6666666,1
0.24925473,1.6666666,0
0.27721509,1.6666666,1
0.27721509,1.6666666,0
0.42295164,1.6666666,1
0.42295164,1.6666666,0
0.57704836,1.6666666,1
0.57704836,1.6666666,0
0.72278494,1.6666666,1
0.72278494,1.6666666,0
0.74666667,1.6624317,1
0.74666667,1.6624317,0
0.7507453,1.6666666,0
0.7507453,1.6666666,1
0.83154941,1.6666666,1
0.83154941,1.6666666,0
0.90389627,1.6666666,1
0.90389627,1.6666666,0
0.095631957,1.6733333,1
0.095631957,1.6733333,0
0.16740245,1.6733333,1
0.16740245,1.6733333,0
0.24666667,1.6698534,0
0.24666667,1.6698534,1
0.24397984,1.6733333,1
0.24397984,1.6733333,0
0.27768394,1.6733333,1
0.27768394,1.6733333,0
0.42276454,1.6733333,1
0.42276454,1.6733333,0
0.57723546,1.6733333,1
0.57723546,1.6733333,0
0.72231609,1.6733333,1
0.72231609,1.6733333,0
0.75333333,1.6698534,1
0.75333333,1.6698534,0
0.75602013,1.6733333,0
0.75602013,1.6733333,1
0.83259755,1.6733333,1
0.83259755,1.6733333,0
0.90436804,1.6733333,1
0.90436804,1.6733333,0
0.095174372,1.6799999,1
0.095174372,1.6799999,0
0.16666667,1.6782081,0
0.16639115,1.6799999,1
0.16666667,1.6782081,1
0.16639115,1.6799999,0
0.23999999,1.6798626,0
0.23999999,1.6798626,1
0.23990631,1.6799999,1
0.23990631,1.6799999,0
0.27800745,1.6799999,1
0.27800745,1.6799999,0
0.42256182,1.6799999,1
0.42256182,1.6799999,0
0.57743818,1.6799999,1
0.57743818,1.6799999,0
0.72199261,1.6799999,1
0.72199261,1.6799999,0
0.75999999,1.6798626,1
0.75999999,1.6798626,0
0.76009369,1.6799999,0
0.76009369,1.6799999,1
0.83333331,1.6782081,1
0.83333331,1.6782081,0
0.83360881,1.6799999,0
0.83360881,1.6799999,1
0.90482563,1.6799999,1
0.90482563,1.6799999,0
0.094731204,1.6866666,1
0.094731204,1.6866666,0
0.16540548,1.6866666,1
0.16540548,1.6866666,0
0.23637697,1.6866666,1
0.23637697,1.6866666,0
0.27822557,1.6866666,1
0.27822557,1.6866666,0
0.42234388,1.6866666,1
0.42234388,1.6866666,0
0.57765609,1.6866666,1
0.57765609,1.6866666,0
0.72177446,1.6866666,1
0.72177446,1.6866666,0
0.763623,1.6866666,1
0.763623,1.6866666,0
0.83459449,1.6866666,1
0.83459449,1.6866666,0
0.90526879,1.6866666,1
0.90526879,1.6866666,0
0.094305165,1.6933334,1
0.094305165,1.6933334,0
0.16449858,1.6933334,1
0.16449858,1.6933334,0
0.23333333,1.6933168,0
0.23333333,1.6933168,1
0.23332486,1.6933334,1
0.23332486,1.6933334,0
0.27801758,1.6933334,1
0.27801758,1.6933334,0
0.42211115,1.6933334,1
0.42211115,1.6933334,0
0.57788885,1.6933334,1
0.57788885,1.6933334,0
0.72198242,1.6933334,1
0.72198242,1.6933334,0
0.76666665,1.6933168,1
0.76666665,1.6933168,0
0.76667511,1.6933334,0
0.76667511,1.6933334,1
0.83550137,1.6933334,1
0.83550137,1.6933334,0
0.90569484,1.6933334,1
0.90569484,1.6933334,0
0.093897745,1.7,1
0.093897745,1.7,0
0.16369022,1.7,1
0.16369022,1.7,0
0.23077615,1.7,1
0.23077615,1.7,0
0.27756089,1.7,1
0.27756089,1.7,0
0.42186388,1.7,1
0.42186388,1.7,0
0.57813609,1.7,1
0.57813609,1.7,0
0.72243917,1.7,1
0.72243917,1.7,0
0.76922381,1.7,1
0.76922381,1.7,0
0.83630973,1.7,1
0.83630973,1.7,0
0.9061023,1.7,1
0.9061023,1.7,0
0.093517572,1.7066667,1
0.093517572,1.7066667,0
0.1629843,1.7066667,1
0.1629843,1.7066667,0
0.22846806,1.7066667,1
0.22846806,1.7066667,0
0.25333333,1.7034439,0
0.25069043,1.7066667,1
0.25333333,1.7034439,1
0.25069043,1.7066667,0
0.25999999,1.7010736,1
0.25999999,1.7010736,0
0.26620132,1.7066667,0
0.26620132,1.7066667,1
0.27743503,1.7066667,1
0.27743503,1.7066667,0
0.42160213,1.7066667,1
0.42160213,1.7066667,0
0.57839787,1.7066667,1
0.57839787,1.7066667,0
0.722565,1.7066667,1
0.722565,1.7066667,0
0.74000001,1.7010736,0
0.73379868,1.7066667,1
0.74000001,1.7010736,1
0.73379868,1.7066667,0
0.74666667,1.7034439,1
0.74666667,1.7034439,0
0.74930954,1.7066667,0
0.74930954,1.7066667,1
0.77153194,1.7066667,1
0.77153194,1.7066667,0
0.83701569,1.7066667,1
0.83701569,1.7066667,0
0.90648246,1.7066667,1
0.90648246,1.7066667,0
0.093333334,1.7104011,0
0.093333334,1.7104011,1
0.093188636,1.7133334,1
0.093188636,1.7133334,0
0.16237785,1.7133334,1
0.16237785,1.7133334,0
0.22666667,1.7128018,0
0.22666667,1.7128018,1
0.22650248,1.7133334,1
0.22650248,1.7133334,0
0.2487473,1.7133334,1
0.2487473,1.7133334,0
0.26666668,1.7081059,1
0.26666668,1.7081059,0
0.268473,1.7133334,0
0.268473,1.7133334,1
0.27848354,1.7133334,1
0.27848354,1.7133334,0
0.42132583,1.7133334,1
0.42132583,1.7133334,0
0.57867414,1.7133334,1
0.57867414,1.7133334,0
0.72151649,1.7133334,1
0.72151649,1.7133334,0
0.73333335,1.7081059,0
0.73152703,1.7133334,1
0.73333335,1.7081059,1
0.73152703,1.7133334,0
0.75125271,1.7133334,1
0.75125271,1.7133334,0
0.77333331,1.7128018,1
0.77333331,1.7128018,0
0.77349752,1.7133334,0
0.77349752,1.7133334,1
0.83762211,1.7133334,1
0.83762211,1.7133334,0
0.9066667,1.7104011,1
0.9066667,1.7104011,0
0.90681142,1.7133334,0
0.90681142,1.7133334,1
0.092902102,1.72,1
0.092902102,1.72,0
0.16186702,1.72,1
0.16186702,1.72,0
0.22504987,1.72,1
0.22504987,1.72,0
0.2480958,1.72,1
0.2480958,1.72,0
0.26938418,1.72,1
0.26938418,1.72,0
0.27978125,1.72,1
0.27978125,1.72,0
0.4210349,1.72,1
0.4210349,1.72,0
0.57896507,1.72,1
0.57896507,1.72,0
0.72021878,1.72,1
0.72021878,1.72,0
0.73061585,1.72,1
0.73061585,1.72,0
0.75190419,1.72,1
0.75190419,1.72,0
0.77495009,1.72,1
0.77495009,1.72,0
0.83813298,1.72,1
0.83813298,1.72,0
0.90709794,1.72,1
0.90709794,1.72,0
0.092627481,1.7266667,1
0.092627481,1.7266667,0
0.16144548,1.7266667,1
0.16144548,1.7266667,0
0.2239473,1.7266667,1
0.2239473,1.7266667,0
0.24758282,1.7266667,1
0.24758282,1.7266667,0
0.27077162,1.7266667,1
0.27077162,1.7266667,0
0.28,1.7215906,1
0.28,1.7215906,0
0.28041571,1.7266667,0
0.28041571,1.7266667,1
0.42072913,1.7266667,1
0.42072913,1.7266667,0
0.57927084,1.7266667,1
0.57927084,1.7266667,0
0.72000003,1.7215906,0
0.72000003,1.7215906,1
0.71958435,1.7266667,1
0.71958435,1.7266667,0
0.72922844,1.7266667,1
0.72922844,1.7266667,0
0.75241715,1.7266667,1
0.75241715,1.7266667,0
0.77605265,1.7266667,1
0.77605265,1.7266667,0
0.8385545,1.7266667,1
0.8385545,1.7266667,0
0.90737253,1.7266667,1
0.90737253,1.7266667,0
0.092363812,1.7333333,1
0.092363812,1.7333333,0
0.16110381,1.7333333,1
0.16110381,1.7333333,0
0.22328189,1.7333333,1
0.22328189,1.7333333,0
0.24683,1.7333333,1
0.24683,1.7333333,0
0.27150914,1.7333333,1
0.27150914,1.7333333,0
0.28102303,1.7333333,1
0.28102303,1.7333333,0
0.42040768,1.7333333,1
0.42040768,1.7333333,0
0.57959229,1.7333333,1
0.57959229,1.7333333,0
0.71897697,1.7333333,1
0.71897697,1.7333333,0
0.72849089,1.7333333,1
0.72849089,1.7333333,0
0.75317001,1.7333333,1
0.75317001,1.7333333,0
0.77671808,1.7333333,1
0.77671808,1.7333333,0
0.83889616,1.7333333,1
0.83889616,1.7333333,0
0.90763623,1.7333333,1
0.90763623,1.7333333,0
0.09211079,1.74,1
0.09211079,1.74,0
0.16082898,1.74,1
0.16082898,1.74,0
0.22309747,1.74,1
0.22309747,1.74,0
0.24666667,1.7346179,0