"Points:0","Points:1","Points:2"
0.48666668,0.99322742,0
0.48666668,0.99322742,1
0.48533753,0.99333334,1
0.48533753,0.99333334,0
0.49333334,0.99290198,1
0.49333334,0.99290198,0
0.5,0.99279082,1
0.5,0.99279082,0
0.50666666,0.99290198,1
0.50666666,0.99290198,0
0.51333332,0.99322742,1
0.51333332,0.99322742,0
0.5146625,0.99333334,0
0.5146625,0.99333334,1
0.44666666,0.99893457,0
0.44666666,0.99893457,1
0.44195011,1,1
0.44195011,1,0
0.45333335,0.99758577,1
0.45333335,0.99758577,0
0.46000001,0.99638647,1
0.46000001,0.99638647,0
0.46666667,0.9953438,1
0.46666667,0.9953438,0
0.47333333,0.9944635,1
0.47333333,0.9944635,0
0.47999999,0.9937551,1
0.47999999,0.9937551,0
0.51999998,0.9937551,1
0.51999998,0.9937551,0
0.52666664,0.9944635,1
0.52666664,0.9944635,0
0.53333336,0.9953438,1
0.53333336,0.9953438,0
0.54000002,0.99638647,1
0.54000002,0.99638647,0
0.54666668,0.99758577,1
0.54666668,0.99758577,0
0.55333334,0.99893457,1
0.55333334,0.99893457,0
0.55804992,1,0
0.55804992,1,1
0.41999999,1.0057716,0
0.41999999,1.0057716,1
0.41718802,1.0066667,1
0.41718802,1.0066667,0
0.42666668,1.0038614,1
0.42666668,1.0038614,0
0.43333334,1.0020782,1
0.43333334,1.0020782,0
0.44,1.0004523,1
0.44,1.0004523,0
0.56,1.0004523,1
0.56,1.0004523,0
0.56666666,1.0020782,1
0.56666666,1.0020782,0
0.57333332,1.0038614,1
0.57333332,1.0038614,0
0.57999998,1.0057716,1
0.57999998,1.0057716,0
0.58281195,1.0066667,0
0.58281195,1.0066667,1
0.40000001,1.0123914,0
0.40000001,1.0123914,1
0.39757669,1.0133333,1
0.39757669,1.0133333,0
0.40666667,1.0100681,1
0.40666667,1.0100681,0
0.41333333,1.0078813,1
0.41333333,1.0078813,0
0.58666664,1.0078813,1
0.58666664,1.0078813,0
0.5933333,1.0100681,1
0.5933333,1.0100681,0
0.60000002,1.0123914,1
0.60000002,1.0123914,0
0.60242331,1.0133333,0
0.60242331,1.0133333,1
0.38666666,1.0175565,0
0.38666666,1.0175565,1
0.38084179,1.02,1
0.38084179,1.02,0
0.39333335,1.0149435,1
0.39333335,1.0149435,0
0.60666668,1.0149435,1
0.60666668,1.0149435,0
0.61333334,1.0175565,1
0.61333334,1.0175565,0
0.61915821,1.02,0
0.61915821,1.02,1
0.36666667,1.0263486,0
0.36666667,1.0263486,1
0.36607802,1.0266666,1
0.36607802,1.0266666,0
0.37333333,1.0232867,1
0.37333333,1.0232867,0
0.38,1.0203842,1
0.38,1.0203842,0
0.62,1.0203842,1
0.62,1.0203842,0
0.62666667,1.0232867,1
0.62666667,1.0232867,0
0.63333333,1.0263486,1
0.63333333,1.0263486,0
0.63392198,1.0266666,0
0.63392198,1.0266666,1
0.35333332,1.0329943,0
0.35333332,1.0329943,1
0.35276905,1.0333333,1
0.35276905,1.0333333,0
0.36000001,1.0296295,1
0.36000001,1.0296295,0
0.63999999,1.0296295,1
0.63999999,1.0296295,0
0.64666665,1.0329943,1
0.64666665,1.0329943,0
0.64723092,1.0333333,0
0.64723092,1.0333333,1
0.34666666,1.0366044,0
0.34666666,1.0366044,1
0.34060684,1.04,1
0.34060684,1.04,0
0.65333331,1.0366044,1
0.65333331,1.0366044,0
0.65939319,1.04,0
0.65939319,1.04,1
0.33333334,1.0441946,0
0.33333334,1.0441946,1
0.32940438,1.0466666,1
0.32940438,1.0466666,0
0.34,1.0403851,1
0.34,1.0403851,0
0.66000003,1.0403851,1
0.66000003,1.0403851,0
0.66666669,1.0441946,1
0.66666669,1.0441946,0
0.67059565,1.0466666,0
0.67059565,1.0466666,1
0.31999999,1.0525337,0
0.31999999,1.0525337,1
0.3189097,1.0533333,1
0.3189097,1.0533333,0
0.32666665,1.0484447,1
0.32666665,1.0484447,0
0.67333335,1.0484447,1
0.67333335,1.0484447,0
0.68000001,1.0525337,1
0.68000001,1.0525337,0
0.6810903,1.0533333,0
0.6810903,1.0533333,1
0.31333333,1.057055,0
0.31333333,1.057055,1
0.30922607,1.0599999,1
0.30922607,1.0599999,0
0.68666667,1.057055,1
0.68666667,1.057055,0
0.6907739,1.0599999,0
0.6907739,1.0599999,1
0.30666667,1.0619149,0
0.30666667,1.0619149,1
0.30000415,1.0666667,1
0.30000415,1.0666667,0
0.69333333,1.0619149,1
0.69333333,1.0619149,0
0.69999582,1.0666667,0
0.69999582,1.0666667,1
0.29333332,1.0716187,0
0.29333332,1.0716187,1
0.29128489,1.0733334,1
0.29128489,1.0733334,0
0.30000001,1.0666701,1
0.30000001,1.0666701,0
0.69999999,1.0666701,1
0.69999999,1.0666701,0
0.70666665,1.0716187,1
0.70666665,1.0716187,0
0.70871508,1.0733334,0
0.70871508,1.0733334,1
0.28666666,1.0770645,0
0.28666666,1.0770645,1
0.28323528,1.08,1
0.28323528,1.08,0
0.71333331,1.0770645,1
0.71333331,1.0770645,0
0.71676475,1.08,0
0.71676475,1.08,1
0.28,1.0828074,0
0.28,1.0828074,1
0.27561551,1.0866667,1
0.27561551,1.0866667,0
0.72000003,1.0828074,1
0.72000003,1.0828074,0
0.72438455,1.0866667,0
0.72438455,1.0866667,1
0.27333334,1.0887513,0
0.27333334,1.0887513,1
0.26832095,1.0933334,1
0.26832095,1.0933334,0
0.72666669,1.0887513,1
0.72666669,1.0887513,0
0.73167908,1.0933334,0
0.73167908,1.0933334,1
0.26666668,1.0949082,0
0.26666668,1.0949082,1
0.26134974,1.1,1
0.26134974,1.1,0
0.73333335,1.0949082,1
0.73333335,1.0949082,0
0.73865026,1.1,0
0.73865026,1.1,1
0.25999999,1.1013329,0
0.25999999,1.1013329,1
0.25470841,1.1066667,1
0.25470841,1.1066667,0
0.74000001,1.1013329,1
0.74000001,1.1013329,0
0.74529159,1.1066667,0
0.74529159,1.1066667,1
0.25333333,1.108073,0
0.25333333,1.108073,1
0.24836861,1.1133333,1
0.24836861,1.1133333,0
0.74666667,1.108073,1
0.74666667,1.108073,0
0.75163138,1.1133333,0
0.75163138,1.1133333,1
0.24666667,1.1151392,0
0.24666667,1.1151392,1
0.24227309,1.12,1
0.24227309,1.12,0
0.75333333,1.1151392,1
0.75333333,1.1151392,0
0.75772691,1.12,0
0.75772691,1.12,1
0.23999999,1.1225175,0
0.23999999,1.1225175,1
0.23637511,1.1266667,1
0.23637511,1.1266667,0
0.75999999,1.1225175,1
0.75999999,1.1225175,0
0.76362491,1.1266667,0
0.76362491,1.1266667,1
0.23333333,1.1302294,0
0.23333333,1.1302294,1
0.23069209,1.1333333,1
0.23069209,1.1333333,0
0.76666665,1.1302294,1
0.76666665,1.1302294,0
0.76930791,1.1333333,0
0.76930791,1.1333333,1
0.22666667,1.1384474,0
0.22666667,1.1384474,1
0.22537461,1.14,1
0.22537461,1.14,0
0.77333331,1.1384474,1
0.77333331,1.1384474,0
0.77462536,1.14,0
0.77462536,1.14,1
0.22054353,1.1466666,1
0.22054353,1.1466666,0
0.77945644,1.1466666,1
0.77945644,1.1466666,0
0.22,1.1473385,0
0.22,1.1473385,1
0.21568149,1.1533333,1
0.21568149,1.1533333,0
0.77999997,1.1473385,1
0.77999997,1.1473385,0
0.78431851,1.1533333,0
0.78431851,1.1533333,1
0.21333334,1.1565281,0
0.21333334,1.1565281,1
0.21081334,1.16,1
0.21081334,1.16,0
0.78666669,1.1565281,1
0.78666669,1.1565281,0
0.78918666,1.16,0
0.78918666,1.16,1
0.20666666,1.1663237,0
0.20666666,1.1663237,1
0.20641237,1.1666666,1
0.20641237,1.1666666,0
0.79333335,1.1663237,1
0.79333335,1.1663237,0
0.79358763,1.1666666,0
0.79358763,1.1666666,1
0.20221016,1.1733333,1
0.20221016,1.1733333,0
0.79778987,1.1733333,1
0.79778987,1.1733333,0
0.2,1.1767703,0
0.2,1.1767703,1
0.19792543,1.1799999,1
0.19792543,1.1799999,0
0.80000001,1.1767703,1
0.80000001,1.1767703,0
0.80207455,1.1799999,0
0.80207455,1.1799999,1
0.19412297,1.1866666,1
0.19412297,1.1866666,0
0.80587703,1.1866666,1
0.80587703,1.1866666,0
0.19333333,1.1879052,0
0.19333333,1.1879052,1
0.19019929,1.1933334,1
0.19019929,1.1933334,0
0.80666667,1.1879052,1
0.80666667,1.1879052,0
0.80980074,1.1933334,0
0.80980074,1.1933334,1
0.18666667,1.1998183,0
0.18666667,1.1998183,1
0.18655373,1.2,1
0.18655373,1.2,0
0.81333333,1.1998183,1
0.81333333,1.1998183,0
0.81344628,1.2,0
0.81344628,1.2,1
0.1830392,1.2066667,1
0.1830392,1.2066667,0
0.81696081,1.2066667,1
0.81696081,1.2066667,0
0.18000001,1.2126596,0
0.18000001,1.2126596,1
0.17962222,1.2133334,1
0.17962222,1.2133334,0
0.81999999,1.2126596,1
0.81999999,1.2126596,0
0.82037777,1.2133334,0
0.82037777,1.2133334,1
0.17641065,1.22,1
0.17641065,1.22,0
0.82358932,1.22,1
0.82358932,1.22,0
0.17333333,1.2265484,0
0.17333333,1.2265484,1
0.17327102,1.2266667,1
0.17327102,1.2266667,0
0.82666665,1.2265484,1
0.82666665,1.2265484,0
0.82672894,1.2266667,0
0.82672894,1.2266667,1
0.17029577,1.2333333,1
0.17029577,1.2333333,0
0.82970423,1.2333333,1
0.82970423,1.2333333,0
0.16742593,1.24,1
0.16742593,1.24,0
0.83257407,1.24,1
0.83257407,1.24,0
0.16666667,1.2417352,0
0.16666667,1.2417352,1
0.16462484,1.2466667,1
0.16462484,1.2466667,0
0.83333331,1.2417352,1
0.83333331,1.2417352,0
0.83537513,1.2466667,0
0.83537513,1.2466667,1
0.16196539,1.2533333,1
0.16196539,1.2533333,0
0.83803457,1.2533333,1
0.83803457,1.2533333,0
0.16,1.2584298,0
0.16,1.2584298,1
0.15936629,1.26,1
0.15936629,1.26,0
0.83999997,1.2584298,1
0.83999997,1.2584298,0
0.84063369,1.26,0
0.84063369,1.26,1
0.15698496,1.2666667,1
0.15698496,1.2666667,0
0.84301502,1.2666667,1
0.84301502,1.2666667,0
0.15458781,1.2733333,1
0.15458781,1.2733333,0
0.84541219,1.2733333,1
0.84541219,1.2733333,0
0.15333334,1.2769922,0
0.15333334,1.2769922,1
0.15229954,1.28,1
0.15229954,1.28,0
0.84666669,1.2769922,1
0.84666669,1.2769922,0
0.84770048,1.28,0
0.84770048,1.28,1
0.15019462,1.2866666,1
0.15019462,1.2866666,0
0.33333334,1.2860934,0
0.33215049,1.2866666,1
0.33333334,1.2860934,1
0.33215049,1.2866666,0
0.34,1.2838669,1
0.34,1.2838669,0
0.34666666,1.2823633,1
0.34666666,1.2823633,0
0.35333332,1.2816215,1
0.35333332,1.2816215,0
0.36000001,1.281657,1
0.36000001,1.281657,0
0.36666667,1.2825159,1
0.36666667,1.2825159,0
0.37333333,1.2842609,1
0.37333333,1.2842609,0
0.37919733,1.2866666,0
0.37919733,1.2866666,1
0.62666667,1.2842609,0
0.6208027,1.2866666,1
0.62666667,1.2842609,1
0.6208027,1.2866666,0
0.63333333,1.2825159,1
0.63333333,1.2825159,0
0.63999999,1.281657,1
0.63999999,1.281657,0
0.64666665,1.2816215,1
0.64666665,1.2816215,0
0.65333331,1.2823633,1
0.65333331,1.2823633,0
0.66000003,1.2838669,1
0.66000003,1.2838669,0
0.66666669,1.2860934,1
0.66666669,1.2860934,0
0.66784954,1.2866666,0
0.66784954,1.2866666,1
0.84980541,1.2866666,1
0.84980541,1.2866666,0
0.14804994,1.2933333,1
0.14804994,1.2933333,0
0.31999999,1.2928998,0
0.31941143,1.2933333,1
0.31999999,1.2928998,1
0.31941143,1.2933333,0
0.32666665,1.2891662,1
0.32666665,1.2891662,0
0.38,1.2870317,1
0.38,1.2870317,0
0.38666666,1.2907752,1
0.38666666,1.2907752,0
0.38991278,1.2933333,0
0.38991278,1.2933333,1
0.61333334,1.2907752,0
0.61008722,1.2933333,1
0.61333334,1.2907752,1
0.61008722,1.2933333,0
0.62,1.2870317,1
0.62,1.2870317,0
0.67333335,1.2891662,1
0.67333335,1.2891662,0
0.68000001,1.2928998,1
0.68000001,1.2928998,0
0.68058854,1.2933333,0
0.68058854,1.2933333,1
0.85195011,1.2933333,1
0.85195011,1.2933333,0
0.14666666,1.2979206,0
0.14666666,1.2979206,1
0.1460252,1.3,1
0.1460252,1.3,0
0.31333333,1.2974646,0
0.31029043,1.3,1
0.31333333,1.2974646,1
0.31029043,1.3,0
0.39333335,1.2961968,1
0.39333335,1.2961968,0
0.3971695,1.3,0
0.3971695,1.3,1
0.60666668,1.2961968,0
0.60283053,1.3,1
0.60666668,1.2961968,1
0.60283053,1.3,0
0.68666667,1.2974646,1
0.68666667,1.2974646,0
0.68970954,1.3,0
0.68970954,1.3,1
0.85333335,1.2979206,1
0.85333335,1.2979206,0
0.85397482,1.3,0
0.85397482,1.3,1
0.14418605,1.3066666,1
0.14418605,1.3066666,0
0.30666667,1.3031232,0
0.30294126,1.3066666,1
0.30666667,1.3031232,1
0.30294126,1.3066666,0
0.40000001,1.3032385,1
0.40000001,1.3032385,0
0.40280026,1.3066666,0
0.40280026,1.3066666,1
0.60000002,1.3032385,0
0.59719974,1.3066666,1
0.60000002,1.3032385,1
0.59719974,1.3066666,0
0.69333333,1.3031232,1
0.69333333,1.3031232,0
0.69705874,1.3066666,0
0.69705874,1.3066666,1
0.85581398,1.3066666,1
0.85581398,1.3066666,0
0.14230402,1.3133334,1
0.14230402,1.3133334,0
0.30000001,1.309656,0
0.29659128,1.3133334,1
0.30000001,1.309656,1
0.29659128,1.3133334,0
0.40666667,1.3126836,1
0.40666667,1.3126836,0
0.40711978,1.3133334,0
0.40711978,1.3133334,1
0.5933333,1.3126836,0
0.59288019,1.3133334,1
0.5933333,1.3126836,1
0.59288019,1.3133334,0
0.69999999,1.309656,1
0.69999999,1.309656,0
0.70340872,1.3133334,0
0.70340872,1.3133334,1
0.857696,1.3133334,1
0.857696,1.3133334,0
0.14050101,1.3200001,1
0.14050101,1.3200001,0
0.29333332,1.3171651,0
0.29096043,1.3200001,1
0.29333332,1.3171651,1
0.29096043,1.3200001,0
0.4106074,1.3200001,1
0.4106074,1.3200001,0
0.5893926,1.3200001,1
0.5893926,1.3200001,0
0.70666665,1.3171651,1
0.70666665,1.3171651,0
0.70903951,1.3200001,0
0.70903951,1.3200001,1
0.85949898,1.3200001,1
0.85949898,1.3200001,0
0.14,1.3219404,0
0.14,1.3219404,1
0.13881572,1.3266667,1
0.13881572,1.3266667,0
0.28666666,1.3259721,0
0.28612477,1.3266667,1
0.28666666,1.3259721,1
0.28612477,1.3266667,0
0.41333333,1.3261412,1
0.41333333,1.3261412,0
0.41358826,1.3266667,0
0.41358826,1.3266667,1
0.58666664,1.3261412,0
0.58641171,1.3266667,1
0.58666664,1.3261412,1
0.58641171,1.3266667,0
0.71333331,1.3259721,1
0.71333331,1.3259721,0
0.71387523,1.3266667,0
0.71387523,1.3266667,1
0.86000001,1.3219404,1
0.86000001,1.3219404,0
0.8611843,1.3266667,0
0.8611843,1.3266667,1
0.13723929,1.3333334,1
0.13723929,1.3333334,0
0.28185153,1.3333334,1
0.28185153,1.3333334,0
0.41601136,1.3333334,1
0.41601136,1.3333334,0
0.58398861,1.3333334,1
0.58398861,1.3333334,0
0.71814847,1.3333334,1
0.71814847,1.3333334,0
0.86276072,1.3333334,1
0.86276072,1.3333334,0
0.13564621,1.34,1
0.13564621,1.34,0
0.28,1.3361943,0
0.27760854,1.34,1
0.28,1.3361943,1
0.27760854,1.34,0
0.41803986,1.34,1
0.41803986,1.34,0
0.58196008,1.34,1
0.58196008,1.34,0
0.72000003,1.3361943,1
0.72000003,1.3361943,0
0.72239149,1.34,0
0.72239149,1.34,1
0.86435378,1.34,1
0.86435378,1.34,0
0.13408706,1.3466667,1
0.13408706,1.3466667,0
0.27395716,1.3466667,1
0.27395716,1.3466667,0
0.41982752,1.3466667,1
0.41982752,1.3466667,0
0.58017248,1.3466667,1
0.58017248,1.3466667,0
0.72604287,1.3466667,1
0.72604287,1.3466667,0
0.86591297,1.3466667,1
0.86591297,1.3466667,0
0.13333334,1.3501509,0
0.13333334,1.3501509,1
0.13264631,1.3533334,1
0.13264631,1.3533334,0
0.27333334,1.3477308,0
0.27036011,1.3533334,1
0.27333334,1.3477308,1
0.27036011,1.3533334,0
0.41999999,1.347409,1
0.41999999,1.347409,0
0.42130581,1.3533334,0
0.42130581,1.3533334,1
0.57999998,1.347409,0
0.57869416,1.3533334,1
0.57999998,1.347409,1
0.57869416,1.3533334,0
0.72666669,1.3477308,1
0.72666669,1.3477308,0
0.72963995,1.3533334,0
0.72963995,1.3533334,1
0.86666667,1.3501509,1
0.86666667,1.3501509,0
0.86735374,1.3533334,0
0.86735374,1.3533334,1
0.1313407,1.36,1
0.1313407,1.36,0
0.26709786,1.36,1
0.26709786,1.36,0
0.42245096,1.36,1
0.42245096,1.36,0
0.57754904,1.36,1
0.57754904,1.36,0
0.73290217,1.36,1
0.73290217,1.36,0
0.86865932,1.36,1
0.86865932,1.36,0
0.13001999,1.3666667,1
0.13001999,1.3666667,0
0.26666668,1.3608311,0
0.26391622,1.3666667,1
0.26666668,1.3608311,1
0.26391622,1.3666667,0
0.42344078,1.3666667,1
0.42344078,1.3666667,0
0.57655919,1.3666667,1
0.57655919,1.3666667,0
0.73333335,1.3608311,1
0.73333335,1.3608311,0
0.73608381,1.3666667,0
0.73608381,1.3666667,1
0.86998004,1.3666667,1
0.86998004,1.3666667,0
0.12870179,1.3733333,1
0.12870179,1.3733333,0
0.26098207,1.3733333,1
0.26098207,1.3733333,0
0.42430142,1.3733333,1
0.42430142,1.3733333,0
0.57569855,1.3733333,1
0.57569855,1.3733333,0
0.7390179,1.3733333,1
0.7390179,1.3733333,0
0.87129819,1.3733333,1
0.87129819,1.3733333,0
0.12741144,1.38,1
0.12741144,1.38,0
0.25999999,1.3755022,0
0.25804514,1.38,1
0.25999999,1.3755022,1
0.25804514,1.38,0
0.42504582,1.38,1
0.42504582,1.38,0
0.57495421,1.38,1
0.57495421,1.38,0
0.74000001,1.3755022,1
0.74000001,1.3755022,0
0.74195486,1.38,0
0.74195486,1.38,1
0.87258857,1.38,1
0.87258857,1.38,0
0.12666667,1.3842351,0
0.12666667,1.3842351,1
0.12623574,1.3866667,1
0.12623574,1.3866667,0
0.25532222,1.3866667,1
0.25532222,1.3866667,0
0.42571792,1.3866667,1
0.42571792,1.3866667,0
0.57428211,1.3866667,1
0.57428211,1.3866667,0
0.74467778,1.3866667,1
0.74467778,1.3866667,0
0.87333333,1.3842351,1
0.87333333,1.3842351,0
0.87376428,1.3866667,0
0.87376428,1.3866667,1
0.1251846,1.3933333,1
0.1251846,1.3933333,0
0.25333333,1.3915942,0
0.25259691,1.3933333,1
0.25333333,1.3915942,1
0.25259691,1.3933333,0
0.42634532,1.3933333,1
0.42634532,1.3933333,0
0.57365471,1.3933333,1
0.57365471,1.3933333,0
0.74666667,1.3915942,1
0.74666667,1.3915942,0
0.74740309,1.3933333,0
0.74740309,1.3933333,1
0.8748154,1.3933333,1
0.8748154,1.3933333,0
0.12412418,1.4,1
0.12412418,1.4,0
0.25003406,1.4,1
0.25003406,1.4,0
0.42666668,1.3974357,1
0.42666668,1.3974357,0
0.42686775,1.4,0
0.42686775,1.4,1
0.57333332,1.3974357,0
0.57313222,1.4,1
0.57333332,1.3974357,1
0.57313222,1.4,0
0.74996597,1.4,1
0.74996597,1.4,0
0.87587583,1.4,1
0.87587583,1.4,0
0.12306645,1.4066666,1
0.12306645,1.4066666,0
0.2475373,1.4066666,1
0.2475373,1.4066666,0
0.42719397,1.4066666,1
0.42719397,1.4066666,0
0.57280606,1.4066666,1
0.57280606,1.4066666,0
0.75246269,1.4066666,1
0.75246269,1.4066666,0
0.87693357,1.4066666,1
0.87693357,1.4066666,0
0.12201941,1.4133333,1
0.12201941,1.4133333,0
0.24666667,1.4088933,0
0.24498491,1.4133333,1
0.24666667,1.4088933,1
0.24498491,1.4133333,0
0.42739767,1.4133333,1
0.42739767,1.4133333,0
0.57260233,1.4133333,1
0.57260233,1.4133333,0
0.75333333,1.4088933,1
0.75333333,1.4088933,0
0.75501508,1.4133333,0
0.75501508,1.4133333,1
0.87798059,1.4133333,1
0.87798059,1.4133333,0
0.12097669,1.42,1
0.12097669,1.42,0
0.24254839,1.42,1
0.24254839,1.42,0
0.42756107,1.42,1
0.42756107,1.42,0
0.57243896,1.42,1
0.57243896,1.42,0
0.75745159,1.42,1
0.75745159,1.42,0
0.87902331,1.42,1
0.87902331,1.42,0
0.12002441,1.4266666,1
0.12002441,1.4266666,0
0.24015518,1.4266666,1
0.24015518,1.4266666,0
0.42768535,1.4266666,1
0.42768535,1.4266666,0
0.57231468,1.4266666,1
0.57231468,1.4266666,0
0.75984484,1.4266666,1
0.75984484,1.4266666,0
0.87997562,1.4266666,1
0.87997562,1.4266666,0
0.12,1.4268537,0
0.12,1.4268537,1
0.11918054,1.4333333,1
0.11918054,1.4333333,0
0.23999999,1.4270618,0
0.23773295,1.4333333,1
0.23999999,1.4270618,1
0.23773295,1.4333333,0
0.42776287,1.4333333,1
0.42776287,1.4333333,0
0.57223713,1.4333333,1
0.57223713,1.4333333,0
0.75999999,1.4270618,1
0.75999999,1.4270618,0
0.76226705,1.4333333,0
0.76226705,1.4333333,1
0.88,1.4268537,1
0.88,1.4268537,0
0.88081944,1.4333333,0
0.88081944,1.4333333,1
0.11835865,1.4400001,1
0.11835865,1.4400001,0
0.2353899,1.4400001,1
0.2353899,1.4400001,0
0.42780033,1.4400001,1
0.42780033,1.4400001,0
0.5721997,1.4400001,1
0.5721997,1.4400001,0
0.76461011,1.4400001,1
0.76461011,1.4400001,0
0.88164133,1.4400001,1
0.88164133,1.4400001,0
0.11754156,1.4466667,1
0.11754156,1.4466667,0
0.23333333,1.4458607,0
0.23302965,1.4466667,1
0.23333333,1.4458607,1
0.23302965,1.4466667,0
0.42780662,1.4466667,1
0.42780662,1.4466667,0
0.57219338,1.4466667,1
0.57219338,1.4466667,0
0.76666665,1.4458607,1
0.76666665,1.4458607,0
0.76697034,1.4466667,0
0.76697034,1.4466667,1
0.88245845,1.4466667,1
0.88245845,1.4466667,0
0.11672481,1.4533334,1
0.11672481,1.4533334,0
0.2306965,1.4533334,1
0.2306965,1.4533334,0
0.42778605,1.4533334,1
0.42778605,1.4533334,0
0.57221395,1.4533334,1
0.57221395,1.4533334,0
0.7693035,1.4533334,1
0.7693035,1.4533334,0
0.88327521,1.4533334,1
0.88327521,1.4533334,0
0.11591085,1.46,1
0.11591085,1.46,0
0.2284572,1.46,1
0.2284572,1.46,0
0.4277409,1.46,1
0.4277409,1.46,0
0.57225913,1.46,1
0.57225913,1.46,0
0.77154279,1.46,1
0.77154279,1.46,0
0.88408911,1.46,1
0.88408911,1.46,0
0.11510341,1.4666667,1
0.11510341,1.4666667,0
0.22666667,1.4652106,0
0.22613867,1.4666667,1
0.22666667,1.4652106,1
0.22613867,1.4666667,0
0.4276737,1.4666667,1
0.4276737,1.4666667,0
0.5723263,1.4666667,1
0.5723263,1.4666667,0
0.77333331,1.4652106,1
0.77333331,1.4652106,0
0.77386129,1.4666667,0
0.77386129,1.4666667,1
0.88489658,1.4666667,1
0.88489658,1.4666667,0
0.11429108,1.4733334,1
0.11429108,1.4733334,0
0.22385515,1.4733334,1
0.22385515,1.4733334,0
0.427587,1.4733334,1
0.427587,1.4733334,0
0.57241297,1.4733334,1
0.57241297,1.4733334,0
0.7761448,1.4733334,1
0.7761448,1.4733334,0
0.88570893,1.4733334,1
0.88570893,1.4733334,0
0.11353077,1.48,1
0.11353077,1.48,0
0.22169086,1.48,1
0.22169086,1.48,0
0.42748284,1.48,1
0.42748284,1.48,0
0.57251716,1.48,1
0.57251716,1.48,0
0.77830911,1.48,1
0.77830911,1.48,0
0.88646924,1.48,1
0.88646924,1.48,0
0.11333334,1.4819639,0
0.11333334,1.4819639,1
0.11286611,1.4866667,1
0.11286611,1.4866667,0
0.22,1.4850423,0
0.21942814,1.4866667,1
0.22,1.4850423,1
0.21942814,1.4866667,0
0.42736292,1.4866667,1
0.42736292,1.4866667,0
0.57263708,1.4866667,1
0.57263708,1.4866667,0
0.77999997,1.4850423,1
0.77999997,1.4850423,0
0.78057182,1.4866667,0
0.78057182,1.4866667,1
0.88666666,1.4819639,1
0.88666666,1.4819639,0
0.8871339,1.4866667,0
0.8871339,1.4866667,1
0.112249,1.4933333,1
0.112249,1.4933333,0
0.21719486,1.4933333,1
0.21719486,1.4933333,0
0.42722878,1.4933333,1
0.42722878,1.4933333,0
0.57277125,1.4933333,1
0.57277125,1.4933333,0
0.78280514,1.4933333,1
0.78280514,1.4933333,0
0.88775098,1.4933333,1
0.88775098,1.4933333,0
0.11163015,1.5,1
0.11163015,1.5,0
0.21508323,1.5,1
0.21508323,1.5,0
0.42708173,1.5,1
0.42708173,1.5,0
0.5729183,1.5,1
0.5729183,1.5,0
0.78491682,1.5,1
0.78491682,1.5,0
0.88836986,1.5,1
0.88836986,1.5,0
0.11100337,1.5066667,1
0.11100337,1.5066667,0
0.21333334,1.5053297,0
0.21286932,1.5066667,1
0.21333334,1.5053297,1
0.21286932,1.5066667,0
0.42692238,1.5066667,1
0.42692238,1.5066667,0
0.57307762,1.5066667,1
0.57307762,1.5066667,0
0.78666669,1.5053297,1
0.78666669,1.5053297,0
0.78713071,1.5066667,0
0.78713071,1.5066667,1
0.8889966,1.5066667,1
0.8889966,1.5066667,0
0.1103655,1.5133333,1
0.1103655,1.5133333,0
0.21067566,1.5133333,1
0.21067566,1.5133333,0
0.42675185,1.5133333,1
0.42675185,1.5133333,0
0.57324815,1.5133333,1
0.57324815,1.5133333,0
0.78932434,1.5133333,1
0.78932434,1.5133333,0
0.88963449,1.5133333,1
0.88963449,1.5133333,0
0.10971676,1.52,1
0.10971676,1.52,0
0.20862164,1.52,1
0.20862164,1.52,0
0.42666668,1.516364,0
0.42666668,1.516364,1
0.42656451,1.52,1
0.42656451,1.52,0
0.57333332,1.516364,1
0.57333332,1.516364,0
0.57343549,1.52,0
0.57343549,1.52,1
0.79137838,1.52,1
0.79137838,1.52,0
0.89028323,1.52,1
0.89028323,1.52,0
0.10906015,1.5266666,1
0.10906015,1.5266666,0
0.20666666,1.5260935,0
0.20646842,1.5266666,1
0.20666666,1.5260935,1
0.20646842,1.5266666,0
0.42636111,1.5266666,1
0.42636111,1.5266666,0
0.57363886,1.5266666,1
0.57363886,1.5266666,0
0.79333335,1.5260935,1
0.79333335,1.5260935,0
0.7935316,1.5266666,0
0.7935316,1.5266666,1
0.89093983,1.5266666,1
0.89093983,1.5266666,0
0.10840357,1.5333333,1
0.10840357,1.5333333,0
0.20426574,1.5333333,1
0.20426574,1.5333333,0
0.42615023,1.5333333,1
0.42615023,1.5333333,0
0.5738498,1.5333333,1
0.5738498,1.5333333,0
0.79573429,1.5333333,1
0.79573429,1.5333333,0
0.89159644,1.5333333,1
0.89159644,1.5333333,0
0.10774085,1.54,1
0.10774085,1.54,0
0.20222674,1.54,1
0.20222674,1.54,0
0.42593378,1.54,1
0.42593378,1.54,0
0.57406622,1.54,1
0.57406622,1.54,0
0.7977733,1.54,1
0.7977733,1.54,0
0.89225912,1.54,1
0.89225912,1.54,0
0.1070846,1.5466666,1
0.1070846,1.5466666,0
0.20015283,1.5466666,1
0.20015283,1.5466666,0
0.42571118,1.5466666,1
0.42571118,1.5466666,0
0.57428885,1.5466666,1
0.57428885,1.5466666,0
0.79984719,1.5466666,1
0.79984719,1.5466666,0
0.89291537,1.5466666,1
0.89291537,1.5466666,0
0.10666667,1.5515375,0
0.10666667,1.5515375,1
0.10651148,1.5533333,1
0.10651148,1.5533333,0
0.2,1.5470935,0
0.19792955,1.5533333,1
0.2,1.5470935,1
0.19792955,1.5533333,0
0.42548352,1.5533333,1
0.42548352,1.5533333,0
0.57451648,1.5533333,1
0.57451648,1.5533333,0
0.80000001,1.5470935,1
0.80000001,1.5470935,0
0.80207044,1.5533333,0
0.80207044,1.5533333,1
0.89333332,1.5515375,1
0.89333332,1.5515375,0
0.89348853,1.5533333,0
0.89348853,1.5533333,1
0.1060105,1.5599999,1
0.1060105,1.5599999,0
0.19584648,1.5599999,1
0.19584648,1.5599999,0
0.42525145,1.5599999,1
0.42525145,1.5599999,0
0.57474858,1.5599999,1
0.57474858,1.5599999,0
0.8041535,1.5599999,1
0.8041535,1.5599999,0
0.8939895,1.5599999,1
0.8939895,1.5599999,0
0.10550156,1.5666667,1
0.10550156,1.5666667,0
0.19379309,1.5666667,1
0.19379309,1.5666667,0
0.42501545,1.5666667,1
0.42501545,1.5666667,0
0.57498455,1.5666667,1
0.57498455,1.5666667,0
0.80620694,1.5666667,1
0.80620694,1.5666667,0
0.89449841,1.5666667,1
0.89449841,1.5666667,0
0.10497984,1.5733334,1
0.10497984,1.5733334,0
0.19333333,1.5679833,0
0.19155681,1.5733334,1
0.19333333,1.5679833,1
0.19155681,1.5733334,0
0.42477608,1.5733334,1
0.42477608,1.5733334,0
0.57522392,1.5733334,1
0.57522392,1.5733334,0
0.80666667,1.5679833,1
0.80666667,1.5679833,0
0.80844319,1.5733334,0
0.80844319,1.5733334,1
0.89502013,1.5733334,1
0.89502013,1.5733334,0
0.10443935,1.58,1
0.10443935,1.58,0
0.1894275,1.58,1
0.1894275,1.58,0
0.42453393,1.58,1
0.42453393,1.58,0
0.5754661,1.58,1
0.5754661,1.58,0
0.8105725,1.58,1
0.8105725,1.58,0
0.89556062,1.58,1
0.89556062,1.58,0
0.10388138,1.5866667,1
0.10388138,1.5866667,0
0.18736692,1.5866667,1
0.18736692,1.5866667,0
0.42428949,1.5866667,1
0.42428949,1.5866667,0
0.57571048,1.5866667,1
0.57571048,1.5866667,0
0.8126331,1.5866667,1
0.8126331,1.5866667,0
0.89611858,1.5866667,1
0.89611858,1.5866667,0
0.1033081,1.5933334,1
0.1033081,1.5933334,0
0.18666667,1.5887264,0
0.18514694,1.5933334,1
0.18666667,1.5887264,1
0.18514694,1.5933334,0
0.42404321,1.5933334,1
0.42404321,1.5933334,0
0.57595676,1.5933334,1
0.57595676,1.5933334,0
0.81333333,1.5887264,1
0.81333333,1.5887264,0
0.81485307,1.5933334,0
0.81485307,1.5933334,1
0.89669186,1.5933334,1
0.89669186,1.5933334,0
0.10272098,1.6,1
0.10272098,1.6,0
0.18301626,1.6,1
0.18301626,1.6,0
0.42379537,1.6,1
0.42379537,1.6,0
0.5762046,1.6,1
0.5762046,1.6,0
0.81698376,1.6,1
0.81698376,1.6,0
0.89727902,1.6,1
0.89727902,1.6,0
0.10212422,1.6066667,1
0.10212422,1.6066667,0
0.1809883,1.6066667,1
0.1809883,1.6066667,0
0.25999999,1.6063178,0
0.25999999,1.6063178,1
0.25893638,1.6066667,1
0.25893638,1.6066667,0
0.2607716,1.6066667,0
0.2607716,1.6066667,1
0.42354625,1.6066667,1
0.42354625,1.6066667,0
0.57645375,1.6066667,1
0.57645375,1.6066667,0
0.74000001,1.6063178,0
0.74000001,1.6063178,1
0.73922837,1.6066667,1
0.73922837,1.6066667,0
0.74106365,1.6066667,0
0.74106365,1.6066667,1
0.81901169,1.6066667,1
0.81901169,1.6066667,0
0.89787579,1.6066667,1
0.89787579,1.6066667,0
0.10152466,1.6133333,1
0.10152466,1.6133333,0
0.18000001,1.6097622,0
0.17886429,1.6133333,1
0.18000001,1.6097622,1
0.17886429,1.6133333,0
0.24666667,1.6125615,0
0.24666667,1.6125615,1
0.24577375,1.6133333,1
0.24577375,1.6133333,0
0.25333333,1.608421,1
0.25333333,1.608421,0
0.26503256,1.6133333,1
0.26503256,1.6133333,0
0.42329603,1.6133333,1
0.42329603,1.6133333,0
0.57670397,1.6133333,1
0.57670397,1.6133333,0
0.73496747,1.6133333,1
0.73496747,1.6133333,0
0.74666667,1.608421,1
0.74666667,1.608421,0
0.75333333,1.6125615,1
0.75333333,1.6125615,0
0.75422627,1.6133333,0
0.75422627,1.6133333,1
0.81999999,1.6097622,1
0.81999999,1.6097622,0
0.8211357,1.6133333,0
0.8211357,1.6133333,1
0.89847535,1.6133333,1
0.89847535,1.6133333,0
0.10091255,1.62,1
0.10091255,1.62,0
0.17682236,1.62,1
0.17682236,1.62,0
0.23999999,1.6184341,0
0.23999999,1.6184341,1
0.23846196,1.62,1
0.23846196,1.62,0
0.25999999,1.619694,0
0.25969768,1.62,1
0.25999999,1.619694,1
0.25969768,1.62,0
0.42304489,1.62,1
0.42304489,1.62,0
0.57695508,1.62,1
0.57695508,1.62,0
0.74000001,1.619694,1
0.74000001,1.619694,0
0.74030232,1.62,0
0.74030232,1.62,1
0.75999999,1.6184341,1
0.75999999,1.6184341,0
0.76153803,1.62,0
0.76153803,1.62,1
0.82317764,1.62,1
0.82317764,1.62,0
0.89908743,1.62,1
0.89908743,1.62,0
0.10031434,1.6266667,1
0.10031434,1.6266667,0
0.17493701,1.6266667,1
0.17493701,1.6266667,0
0.23333333,1.6259042,0
0.23333333,1.6259042,1
0.23266436,1.6266667,1
0.23266436,1.6266667,0
0.25333333,1.6265507,0
0.25322589,1.6266667,1
0.25333333,1.6265507,1
0.25322589,1.6266667,0
0.42279291,1.6266667,1
0.42279291,1.6266667,0
0.57720709,1.6266667,1
0.57720709,1.6266667,0
0.74666667,1.6265507,1
0.74666667,1.6265507,0
0.74677408,1.6266667,0
0.74677408,1.6266667,1
0.76666665,1.6259042,1
0.76666665,1.6259042,0
0.76733559,1.6266667,0
0.76733559,1.6266667,1
0.82506299,1.6266667,1
0.82506299,1.6266667,0
0.89968562,1.6266667,1
0.89968562,1.6266667,0
0.1,1.6307397,0
0.1,1.6307397,1
0.099799439,1.6333333,1
0.099799439,1.6333333,0
0.17333333,1.6324918,0
0.17308854,1.6333333,1
0.17333333,1.6324918,1
0.17308854,1.6333333,0
0.22765544,1.6333333,1
0.22765544,1.6333333,0
0.24801354,1.6333333,1
0.24801354,1.6333333,0
0.42254019,1.6333333,1
0.42254019,1.6333333,0
0.57745981,1.6333333,1
0.57745981,1.6333333,0
0.75198644,1.6333333,1
0.75198644,1.6333333,0
0.77234453,1.6333333,1
0.77234453,1.6333333,0
0.82666665,1.6324918,1
0.82666665,1.6324918,0
0.82691145,1.6333333,0
0.82691145,1.6333333,1
0.89999998,1.6307397,1
0.89999998,1.6307397,0
0.90020055,1.6333333,0
0.90020055,1.6333333,1
0.099346623,1.64,1
0.099346623,1.64,0
0.17127046,1.64,1
0.17127046,1.64,0
0.22666667,1.6345639,0
0.22666667,1.6345639,1
0.22278529,1.64,1
0.22278529,1.64,0
0.24666667,1.6352013,0
0.24352993,1.64,1
0.24666667,1.6352013,1
0.24352993,1.64,0
0.42228672,1.64,1
0.42228672,1.64,0
0.57771325,1.64,1
0.57771325,1.64,0
0.75333333,1.6352013,1
0.75333333,1.6352013,0
0.75647008,1.64,0
0.75647008,1.64,1
0.77333331,1.6345639,1
0.77333331,1.6345639,0
0.77721471,1.64,0
0.77721471,1.64,1
0.82872951,1.64,1
0.82872951,1.64,0
0.90065336,1.64,1
0.90065336,1.64,0
0.098890767,1.6466666,1
0.098890767,1.6466666,0
0.16958652,1.6466666,1
0.16958652,1.6466666,0
0.22,1.6444705,0
0.22,1.6444705,1
0.21857908,1.6466666,1
0.21857908,1.6466666,0
0.24058169,1.6466666,1
0.24058169,1.6466666,0
0.42203254,1.6466666,1
0.42203254,1.6466666,0
0.57796746,1.6466666,1
0.57796746,1.6466666,0
0.75941831,1.6466666,1
0.75941831,1.6466666,0
0.77999997,1.6444705,1
0.77999997,1.6444705,0
0.78142089,1.6466666,0
0.78142089,1.6466666,1
0.83041346,1.6466666,1
0.83041346,1.6466666,0
0.90110922,1.6466666,1
0.90110922,1.6466666,0
0.098430604,1.6533333,1
0.098430604,1.6533333,0
0.16810024,1.6533333,1
0.16810024,1.6533333,0
0.21517488,1.6533333,1
0.21517488,1.6533333,0
0.23999999,1.6497077,0
0.23933679,1.6533333,1
0.23999999,1.6497077,1
0.23933679,1.6533333,0
0.42177749,1.6533333,1
0.42177749,1.6533333,0
0.57822245,1.6533333,1
0.57822245,1.6533333,0
0.75999999,1.6497077,1
0.75999999,1.6497077,0
0.76066321,1.6533333,0
0.76066321,1.6533333,1
0.78482515,1.6533333,1
0.78482515,1.6533333,0
0.83189976,1.6533333,1
0.83189976,1.6533333,0
0.90156937,1.6533333,1
0.90156937,1.6533333,0
0.097963244,1.66,1
0.097963244,1.66,0
0.16673583,1.66,1
0.16673583,1.66,0
0.21333334,1.6571989,0
0.21333334,1.6571989,1
0.21198754,1.66,1
0.21198754,1.66,0
0.23949736,1.66,1
0.23949736,1.66,0
0.42152131,1.66,1
0.42152131,1.66,0
0.57847869,1.66,1
0.57847869,1.66,0
0.76050264,1.66,1
0.76050264,1.66,0
0.78666669,1.6571989,1
0.78666669,1.6571989,0
0.7880125,1.66,0
0.7880125,1.66,1
0.83326417,1.66,1