"Points:0","Points:1","Points:2"
0.46000001,0.84585935,0
0.46000001,0.84585935,1
0.45532033,0.84666669,1
0.45532033,0.84666669,0
0.46666667,0.84486884,1
0.46666667,0.84486884,0
0.47333333,0.84403604,1
0.47333333,0.84403604,0
0.47999999,0.84336942,1
0.47999999,0.84336942,0
0.48666668,0.84287816,1
0.48666668,0.84287816,0
0.49333334,0.84257519,1
0.49333334,0.84257519,0
0.5,0.84247267,1
0.5,0.84247267,0
0.50666666,0.84257519,1
0.50666666,0.84257519,0
0.51333332,0.84287816,1
0.51333332,0.84287816,0
0.51999998,0.84336942,1
0.51999998,0.84336942,0
0.52666664,0.84403604,1
0.52666664,0.84403604,0
0.53333336,0.84486884,1
0.53333336,0.84486884,0
0.54000002,0.84585935,1
0.54000002,0.84585935,0
0.5446797,0.84666669,0
0.5446797,0.84666669,1
0.42666668,0.8530677,0
0.42666668,0.8530677,1
0.42577407,0.85333335,1
0.42577407,0.85333335,0
0.43333334,0.85133874,1
0.43333334,0.85133874,0
0.44,0.84974569,1
0.44,0.84974569,0
0.44666666,0.84830314,1
0.44666666,0.84830314,0
0.45333335,0.84701657,1
0.45333335,0.84701657,0
0.54666668,0.84701657,1
0.54666668,0.84701657,0
0.55333334,0.84830314,1
0.55333334,0.84830314,0
0.56,0.84974569,1
0.56,0.84974569,0
0.56666666,0.85133874,1
0.56666666,0.85133874,0
0.57333332,0.8530677,1
0.57333332,0.8530677,0
0.57422596,0.85333335,0
0.57422596,0.85333335,1
0.40666667,0.85914719,0
0.40666667,0.85914719,1
0.40431106,0.86000001,1
0.40431106,0.86000001,0
0.41333333,0.85699207,1
0.41333333,0.85699207,0
0.41999999,0.85496706,1
0.41999999,0.85496706,0
0.57999998,0.85496706,1
0.57999998,0.85496706,0
0.58666664,0.85699207,1
0.58666664,0.85699207,0
0.5933333,0.85914719,1
0.5933333,0.85914719,0
0.59568894,0.86000001,0
0.59568894,0.86000001,1
0.38666666,0.8666169,0
0.38666666,0.8666169,1
0.3865594,0.86666667,1
0.3865594,0.86666667,0
0.39333335,0.86398244,1
0.39333335,0.86398244,0
0.40000001,0.86152411,1
0.40000001,0.86152411,0
0.60000002,0.86152411,1
0.60000002,0.86152411,0
0.60666668,0.86398244,1
0.60666668,0.86398244,0
0.61333334,0.8666169,1
0.61333334,0.8666169,0
0.61344063,0.86666667,0
0.61344063,0.86666667,1
0.37333333,0.87230605,0
0.37333333,0.87230605,1
0.37125197,0.87333333,1
0.37125197,0.87333333,0
0.38,0.86940938,1
0.38,0.86940938,0
0.62,0.86940938,1
0.62,0.86940938,0
0.62666667,0.87230605,1
0.62666667,0.87230605,0
0.628748,0.87333333,0
0.628748,0.87333333,1
0.36000001,0.8786881,0
0.36000001,0.8786881,1
0.35759801,0.88,1
0.35759801,0.88,0
0.36666667,0.87550163,1
0.36666667,0.87550163,0
0.63333333,0.87550163,1
0.63333333,0.87550163,0
0.63999999,0.8786881,1
0.63999999,0.8786881,0
0.64240199,0.88,0
0.64240199,0.88,1
0.34666666,0.88576156,0
0.34666666,0.88576156,1
0.34521914,0.88666666,1
0.34521914,0.88666666,0
0.35333332,0.88224965,1
0.35333332,0.88224965,0
0.64666665,0.88224965,1
0.64666665,0.88224965,0
0.65333331,0.88576156,1
0.65333331,0.88576156,0
0.65478086,0.88666666,0
0.65478086,0.88666666,1
0.34,0.88967568,0
0.34,0.88967568,1
0.33387759,0.89333332,1
0.33387759,0.89333332,0
0.66000003,0.88967568,1
0.66000003,0.88967568,0
0.66612244,0.89333332,0
0.66612244,0.89333332,1
0.32666665,0.89776707,0
0.32666665,0.89776707,1
0.32342872,0.89999998,1
0.32342872,0.89999998,0
0.33333334,0.89370412,1
0.33333334,0.89370412,0
0.66666669,0.89370412,1
0.66666669,0.89370412,0
0.67333335,0.89776707,1
0.67333335,0.89776707,0
0.67657131,0.89999998,0
0.67657131,0.89999998,1
0.31999999,0.90236223,0
0.31999999,0.90236223,1
0.31366715,0.9066667,1
0.31366715,0.9066667,0
0.68000001,0.90236223,1
0.68000001,0.90236223,0
0.68633288,0.9066667,0
0.68633288,0.9066667,1
0.30666667,0.91158247,0
0.30666667,0.91158247,1
0.30448234,0.91333336,1
0.30448234,0.91333336,0
0.31333333,0.90692604,1
0.31333333,0.90692604,0
0.68666667,0.90692604,1
0.68666667,0.90692604,0
0.69333333,0.91158247,1
0.69333333,0.91158247,0
0.69551766,0.91333336,0
0.69551766,0.91333336,1
0.30000001,0.91679126,0
0.30000001,0.91679126,1
0.2960574,0.92000002,1
0.2960574,0.92000002,0
0.69999999,0.91679126,1
0.69999999,0.91679126,0
0.7039426,0.92000002,0
0.7039426,0.92000002,1
0.29333332,0.92228872,0
0.29333332,0.92228872,1
0.2880699,0.92666668,1
0.2880699,0.92666668,0
0.70666665,0.92228872,1
0.70666665,0.92228872,0
0.71193004,0.92666668,0
0.71193004,0.92666668,1
0.28666666,0.92791587,0
0.28666666,0.92791587,1
0.28038007,0.93333334,1
0.28038007,0.93333334,0
0.71333331,0.92791587,1
0.71333331,0.92791587,0
0.71961993,0.93333334,0
0.71961993,0.93333334,1
0.27333334,0.93972731,0
0.27333334,0.93972731,1
0.2730512,0.94,1
0.2730512,0.94,0
0.28,0.93368709,1
0.28,0.93368709,0
0.72000003,0.93368709,1
0.72000003,0.93368709,0
0.72666669,0.93972731,1
0.72666669,0.93972731,0
0.72694886,0.94,0
0.72694886,0.94,1
0.26666668,0.94617599,0
0.26666668,0.94617599,1
0.26617619,0.94666666,1
0.26617619,0.94666666,0
0.73333335,0.94617599,1
0.73333335,0.94617599,0
0.73382384,0.94666666,0
0.73382384,0.94666666,1
0.25999999,0.95305943,0
0.25999999,0.95305943,1
0.25973549,0.95333332,1
0.25973549,0.95333332,0
0.74000001,0.95305943,1
0.74000001,0.95305943,0
0.74026453,0.95333332,0
0.74026453,0.95333332,1
0.25369808,0.95999998,1
0.25369808,0.95999998,0
0.74630195,0.95999998,1
0.74630195,0.95999998,0
0.25333333,0.96039128,0
0.25333333,0.96039128,1
0.24791567,0.96666664,1
0.24791567,0.96666664,0
0.74666667,0.96039128,1
0.74666667,0.96039128,0
0.75208431,0.96666664,0
0.75208431,0.96666664,1
0.24666667,0.96806437,0
0.24666667,0.96806437,1
0.24226829,0.97333336,1
0.24226829,0.97333336,0
0.75333333,0.96806437,1
0.75333333,0.96806437,0
0.75773168,0.97333336,0
0.75773168,0.97333336,1
0.23999999,0.97601938,0
0.23999999,0.97601938,1
0.23674741,0.98000002,1
0.23674741,0.98000002,0
0.75999999,0.97601938,1
0.75999999,0.97601938,0
0.76325256,0.98000002,0
0.76325256,0.98000002,1
0.23333333,0.98440653,0
0.23333333,0.98440653,1
0.23151857,0.98666668,1
0.23151857,0.98666668,0
0.76666665,0.98440653,1
0.76666665,0.98440653,0
0.76848143,0.98666668,0
0.76848143,0.98666668,1
0.22682294,0.99333334,1
0.22682294,0.99333334,0
0.77317703,0.99333334,1
0.77317703,0.99333334,0
0.22666667,0.99353111,0
0.22666667,0.99353111,1
0.22220671,1,1
0.22220671,1,0
0.77333331,0.99353111,1
0.77333331,0.99353111,0
0.77779329,1,0
0.77779329,1,1
0.22,1.0031263,0
0.22,1.0031263,1
0.21754117,1.0066667,1
0.21754117,1.0066667,0
0.77999997,1.0031263,1
0.77999997,1.0031263,0
0.78245884,1.0066667,0
0.78245884,1.0066667,1
0.21336327,1.0133333,1
0.21336327,1.0133333,0
0.78663677,1.0133333,1
0.78663677,1.0133333,0
0.21333334,1.0133754,0
0.21333334,1.0133754,1
0.20927732,1.02,1
0.20927732,1.02,0
0.78666669,1.0133754,1
0.78666669,1.0133754,0
0.79072273,1.02,0
0.79072273,1.02,1
0.20666666,1.024359,0
0.20666666,1.024359,1
0.20522696,1.0266666,1
0.20522696,1.0266666,0
0.79333335,1.024359,1
0.79333335,1.024359,0
0.79477304,1.0266666,0
0.79477304,1.0266666,1
0.20161425,1.0333333,1
0.20161425,1.0333333,0
0.79838574,1.0333333,1
0.79838574,1.0333333,0
0.2,1.0361682,0
0.2,1.0361682,1
0.19787692,1.04,1
0.19787692,1.04,0
0.80000001,1.0361682,1
0.80000001,1.0361682,0
0.80212307,1.04,0
0.80212307,1.04,1
0.19452676,1.0466666,1
0.19452676,1.0466666,0
0.80547327,1.0466666,1
0.80547327,1.0466666,0
0.19333333,1.0489253,0
0.19333333,1.0489253,1
0.19111159,1.0533333,1
0.19111159,1.0533333,0
0.80666667,1.0489253,1
0.80666667,1.0489253,0
0.80888838,1.0533333,0
0.80888838,1.0533333,1
0.18800053,1.0599999,1
0.18800053,1.0599999,0
0.81199944,1.0599999,1
0.81199944,1.0599999,0
0.18666667,1.0628003,0
0.18666667,1.0628003,1
0.18487018,1.0666667,1
0.18487018,1.0666667,0
0.81333333,1.0628003,1
0.81333333,1.0628003,0
0.81512982,1.0666667,0
0.81512982,1.0666667,1
0.18198571,1.0733334,1
0.18198571,1.0733334,0
0.81801426,1.0733334,1
0.81801426,1.0733334,0
0.18000001,1.0780021,0
0.18000001,1.0780021,1
0.17911859,1.08,1
0.17911859,1.08,0
0.81999999,1.0780021,1
0.81999999,1.0780021,0
0.82088143,1.08,0
0.82088143,1.08,1
0.1764937,1.0866667,1
0.1764937,1.0866667,0
0.8235063,1.0866667,1
0.8235063,1.0866667,0
0.17390637,1.0933334,1
0.17390637,1.0933334,0
0.82609361,1.0933334,1
0.82609361,1.0933334,0
0.17333333,1.0948089,0
0.17333333,1.0948089,1
0.17142797,1.1,1
0.17142797,1.1,0
0.36000001,1.0996481,0
0.35892338,1.1,1
0.36000001,1.0996481,1
0.35892338,1.1,0
0.36666667,1.0984793,1
0.36666667,1.0984793,0
0.37333333,1.0982267,1
0.37333333,1.0982267,0
0.38,1.0989445,1
0.38,1.0989445,0
0.38391292,1.1,0
0.38391292,1.1,1
0.62,1.0989445,0
0.61608708,1.1,1
0.62,1.0989445,1
0.61608708,1.1,0
0.62666667,1.0982267,1
0.62666667,1.0982267,0
0.63333333,1.0984793,1
0.63333333,1.0984793,0
0.63999999,1.0996481,1
0.63999999,1.0996481,0
0.64107662,1.1,0
0.64107662,1.1,1
0.82666665,1.0948089,1
0.82666665,1.0948089,0
0.82857203,1.1,0
0.82857203,1.1,1
0.16905788,1.1066667,1
0.16905788,1.1066667,0
0.34666666,1.1046933,0
0.34345886,1.1066667,1
0.34666666,1.1046933,1
0.34345886,1.1066667,0
0.35333332,1.1017604,1
0.35333332,1.1017604,0
0.38666666,1.1007681,1
0.38666666,1.1007681,0
0.39333335,1.1037096,1
0.39333335,1.1037096,0
0.39771226,1.1066667,0
0.39771226,1.1066667,1
0.60666668,1.1037096,0
0.60228777,1.1066667,1
0.60666668,1.1037096,1
0.60228777,1.1066667,0
0.61333334,1.1007681,1
0.61333334,1.1007681,0
0.64666665,1.1017604,1
0.64666665,1.1017604,0
0.65333331,1.1046933,1
0.65333331,1.1046933,0
0.65654111,1.1066667,0
0.65654111,1.1066667,1
0.83094209,1.1066667,1
0.83094209,1.1066667,0
0.16677016,1.1133333,1
0.16677016,1.1133333,0
0.34,1.1088233,0
0.3339107,1.1133333,1
0.34,1.1088233,1
0.3339107,1.1133333,0
0.40000001,1.1083578,1
0.40000001,1.1083578,0
0.40542606,1.1133333,0
0.40542606,1.1133333,1
0.60000002,1.1083578,0
0.59457392,1.1133333,1
0.60000002,1.1083578,1
0.59457392,1.1133333,0
0.66000003,1.1088233,1
0.66000003,1.1088233,0
0.6660893,1.1133333,0
0.6660893,1.1133333,1
0.83322984,1.1133333,1
0.83322984,1.1133333,0
0.16666667,1.1136329,0
0.16666667,1.1136329,1
0.16463129,1.12,1
0.16463129,1.12,0
0.32666665,1.1198858,0
0.32655373,1.12,1
0.32666665,1.1198858,1
0.32655373,1.12,0
0.33333334,1.1138303,1
0.33333334,1.1138303,0
0.40666667,1.1146564,1
0.40666667,1.1146564,0
0.41103613,1.12,0
0.41103613,1.12,1
0.5933333,1.1146564,0
0.58896381,1.12,1
0.5933333,1.1146564,1
0.58896381,1.12,0
0.66666669,1.1138303,1
0.66666669,1.1138303,0
0.67333335,1.1198858,1
0.67333335,1.1198858,0
0.67344624,1.12,0
0.67344624,1.12,1
0.83333331,1.1136329,1
0.83333331,1.1136329,0
0.83536869,1.12,0
0.83536869,1.12,1
0.16253886,1.1266667,1
0.16253886,1.1266667,0
0.3206698,1.1266667,1
0.3206698,1.1266667,0
0.41333333,1.1234679,1
0.41333333,1.1234679,0
0.41541609,1.1266667,0
0.41541609,1.1266667,1
0.58666664,1.1234679,0
0.58458388,1.1266667,1
0.58666664,1.1234679,1
0.58458388,1.1266667,0
0.67933017,1.1266667,1
0.67933017,1.1266667,0
0.83746111,1.1266667,1
0.83746111,1.1266667,0
0.16052115,1.1333333,1
0.16052115,1.1333333,0
0.31999999,1.1274474,0
0.31554276,1.1333333,1
0.31999999,1.1274474,1
0.31554276,1.1333333,0
0.41865611,1.1333333,1
0.41865611,1.1333333,0
0.58134389,1.1333333,1
0.58134389,1.1333333,0
0.68000001,1.1274474,1
0.68000001,1.1274474,0
0.68445724,1.1333333,0
0.68445724,1.1333333,1
0.83947885,1.1333333,1
0.83947885,1.1333333,0
0.16,1.1351099,0
0.16,1.1351099,1
0.15861805,1.14,1
0.15861805,1.14,0
0.31333333,1.1364756,0
0.31091195,1.14,1
0.31333333,1.1364756,1
0.31091195,1.14,0
0.41999999,1.1364975,1
0.41999999,1.1364975,0
0.42146167,1.14,0
0.42146167,1.14,1
0.57999998,1.1364975,0
0.5785383,1.14,1
0.57999998,1.1364975,1
0.5785383,1.14,0
0.68666667,1.1364756,1
0.68666667,1.1364756,0
0.68908805,1.14,0
0.68908805,1.14,1
0.83999997,1.1351099,1
0.83999997,1.1351099,0
0.84138191,1.14,0
0.84138191,1.14,1
0.15683021,1.1466666,1
0.15683021,1.1466666,0
0.30714944,1.1466666,1
0.30714944,1.1466666,0
0.42361894,1.1466666,1
0.42361894,1.1466666,0
0.57638103,1.1466666,1
0.57638103,1.1466666,0
0.69285053,1.1466666,1
0.69285053,1.1466666,0
0.84316981,1.1466666,1
0.84316981,1.1466666,0
0.15502392,1.1533333,1
0.15502392,1.1533333,0
0.30666667,1.1475022,0
0.30365145,1.1533333,1
0.30666667,1.1475022,1
0.30365145,1.1533333,0
0.42546216,1.1533333,1
0.42546216,1.1533333,0
0.57453787,1.1533333,1
0.57453787,1.1533333,0
0.69333333,1.1475022,1
0.69333333,1.1475022,0
0.69634855,1.1533333,0
0.69634855,1.1533333,1
0.84497613,1.1533333,1
0.84497613,1.1533333,0
0.15333334,1.1599739,0
0.15333334,1.1599739,1
0.15332629,1.16,1
0.15332629,1.16,0
0.30064571,1.16,1
0.30064571,1.16,0
0.42666668,1.1584349,1
0.42666668,1.1584349,0
0.42704558,1.16,0
0.42704558,1.16,1
0.57333332,1.1584349,0
0.57295442,1.16,1
0.57333332,1.1584349,1
0.57295442,1.16,0
0.69935429,1.16,1
0.69935429,1.16,0
0.84666669,1.1599739,1
0.84666669,1.1599739,0
0.84667373,1.16,0
0.84667373,1.16,1
0.15177369,1.1666666,1
0.15177369,1.1666666,0
0.30000001,1.161472,0
0.29786548,1.1666666,1
0.30000001,1.161472,1
0.29786548,1.1666666,0
0.42824337,1.1666666,1
0.42824337,1.1666666,0
0.57175666,1.1666666,1
0.57175666,1.1666666,0
0.69999999,1.161472,1
0.69999999,1.161472,0
0.70213449,1.1666666,0
0.70213449,1.1666666,1
0.84822631,1.1666666,1
0.84822631,1.1666666,0
0.15026127,1.1733333,1
0.15026127,1.1733333,0
0.2954298,1.1733333,1
0.2954298,1.1733333,0
0.42920497,1.1733333,1
0.42920497,1.1733333,0
0.57079506,1.1733333,1
0.57079506,1.1733333,0
0.70457017,1.1733333,1
0.70457017,1.1733333,0
0.84973878,1.1733333,1
0.84973878,1.1733333,0
0.14875849,1.1799999,1
0.14875849,1.1799999,0
0.29333332,1.1796778,0
0.29321888,1.1799999,1
0.29333332,1.1796778,1
0.29321888,1.1799999,0
0.43002817,1.1799999,1
0.43002817,1.1799999,0
0.5699718,1.1799999,1
0.5699718,1.1799999,0
0.70666665,1.1796778,1
0.70666665,1.1796778,0
0.70678109,1.1799999,0
0.70678109,1.1799999,1
0.85124153,1.1799999,1
0.85124153,1.1799999,0
0.14730237,1.1866666,1
0.14730237,1.1866666,0
0.29124421,1.1866666,1
0.29124421,1.1866666,0
0.4307062,1.1866666,1
0.4307062,1.1866666,0
0.5692938,1.1866666,1
0.5692938,1.1866666,0
0.70875573,1.1866666,1
0.70875573,1.1866666,0
0.85269767,1.1866666,1
0.85269767,1.1866666,0
0.14666666,1.1898187,0
0.14666666,1.1898187,1
0.1459626,1.1933334,1
0.1459626,1.1933334,0
0.28944752,1.1933334,1
0.28944752,1.1933334,0
0.43125114,1.1933334,1
0.43125114,1.1933334,0
0.56874883,1.1933334,1
0.56874883,1.1933334,0
0.71055245,1.1933334,1
0.71055245,1.1933334,0
0.85333335,1.1898187,1
0.85333335,1.1898187,0
0.8540374,1.1933334,0
0.8540374,1.1933334,1
0.1447455,1.2,1
0.1447455,1.2,0
0.28783369,1.2,1
0.28783369,1.2,0
0.43169013,1.2,1
0.43169013,1.2,0
0.56830984,1.2,1
0.56830984,1.2,0
0.71216625,1.2,1
0.71216625,1.2,0
0.85525453,1.2,1
0.85525453,1.2,0
0.14352432,1.2066667,1
0.14352432,1.2066667,0
0.28666666,1.2053205,0
0.2863622,1.2066667,1
0.28666666,1.2053205,1
0.2863622,1.2066667,0
0.43203691,1.2066667,1
0.43203691,1.2066667,0
0.56796312,1.2066667,1
0.56796312,1.2066667,0
0.71333331,1.2053205,1
0.71333331,1.2053205,0
0.71363777,1.2066667,0
0.71363777,1.2066667,1
0.85647571,1.2066667,1
0.85647571,1.2066667,0
0.14231807,1.2133334,1
0.14231807,1.2133334,0
0.28503478,1.2133334,1
0.28503478,1.2133334,0
0.4322997,1.2133334,1
0.4322997,1.2133334,0
0.56770027,1.2133334,1
0.56770027,1.2133334,0
0.71496522,1.2133334,1
0.71496522,1.2133334,0
0.85768193,1.2133334,1
0.85768193,1.2133334,0
0.14112434,1.22,1
0.14112434,1.22,0
0.28380316,1.22,1
0.28380316,1.22,0
0.43248919,1.22,1
0.43248919,1.22,0
0.56751084,1.22,1
0.56751084,1.22,0
0.71619684,1.22,1
0.71619684,1.22,0
0.85887569,1.22,1
0.85887569,1.22,0
0.14002723,1.2266667,1
0.14002723,1.2266667,0
0.28268558,1.2266667,1
0.28268558,1.2266667,0
0.43261588,1.2266667,1
0.43261588,1.2266667,0
0.56738412,1.2266667,1
0.56738412,1.2266667,0
0.71731442,1.2266667,1
0.71731442,1.2266667,0
0.85997277,1.2266667,1
0.85997277,1.2266667,0
0.14,1.2268453,0
0.14,1.2268453,1
0.13904652,1.2333333,1
0.13904652,1.2333333,0
0.28168535,1.2333333,1
0.28168535,1.2333333,0
0.43268958,1.2333333,1
0.43268958,1.2333333,0
0.56731045,1.2333333,1
0.56731045,1.2333333,0
0.71831465,1.2333333,1
0.71831465,1.2333333,0
0.86000001,1.2268453,1
0.86000001,1.2268453,0
0.86095351,1.2333333,0
0.86095351,1.2333333,1
0.13810574,1.24,1
0.13810574,1.24,0
0.28076756,1.24,1
0.28076756,1.24,0
0.43271875,1.24,1
0.43271875,1.24,0
0.56728125,1.24,1
0.56728125,1.24,0
0.71923244,1.24,1
0.71923244,1.24,0
0.86189431,1.24,1
0.86189431,1.24,0
0.13718186,1.2466667,1
0.13718186,1.2466667,0
0.28,1.2455956,0
0.27984947,1.2466667,1
0.28,1.2455956,1
0.27984947,1.2466667,0
0.43271002,1.2466667,1
0.43271002,1.2466667,0
0.56729001,1.2466667,1
0.56729001,1.2466667,0
0.72000003,1.2455956,1
0.72000003,1.2455956,0
0.72015059,1.2466667,0
0.72015059,1.2466667,1
0.86281812,1.2466667,1
0.86281812,1.2466667,0
0.1362662,1.2533333,1
0.1362662,1.2533333,0
0.27895969,1.2533333,1
0.27895969,1.2533333,0
0.43266898,1.2533333,1
0.43266898,1.2533333,0
0.56733102,1.2533333,1
0.56733102,1.2533333,0
0.72104037,1.2533333,1
0.72104037,1.2533333,0
0.86373383,1.2533333,1
0.86373383,1.2533333,0
0.13536395,1.26,1
0.13536395,1.26,0
0.2781437,1.26,1
0.2781437,1.26,0
0.43260047,1.26,1
0.43260047,1.26,0
0.5673995,1.26,1
0.5673995,1.26,0
0.72185636,1.26,1
0.72185636,1.26,0
0.86463606,1.26,1
0.86463606,1.26,0
0.13447835,1.2666667,1
0.13447835,1.2666667,0
0.27740815,1.2666667,1
0.27740815,1.2666667,0
0.43250853,1.2666667,1
0.43250853,1.2666667,0
0.56749147,1.2666667,1
0.56749147,1.2666667,0
0.72259188,1.2666667,1
0.72259188,1.2666667,0
0.86552167,1.2666667,1
0.86552167,1.2666667,0
0.13364379,1.2733333,1
0.13364379,1.2733333,0
0.27671805,1.2733333,1
0.27671805,1.2733333,0
0.43239668,1.2733333,1
0.43239668,1.2733333,0
0.56760329,1.2733333,1
0.56760329,1.2733333,0
0.72328198,1.2733333,1
0.72328198,1.2733333,0
0.86635625,1.2733333,1
0.86635625,1.2733333,0
0.13333334,1.2761295,0
0.13333334,1.2761295,1
0.13290656,1.28,1
0.13290656,1.28,0
0.27598622,1.28,1
0.27598622,1.28,0
0.43226784,1.28,1
0.43226784,1.28,0
0.56773216,1.28,1
0.56773216,1.28,0
0.72401381,1.28,1
0.72401381,1.28,0
0.86666667,1.2761295,1
0.86666667,1.2761295,0
0.86709344,1.28,0
0.86709344,1.28,1
0.13224721,1.2866666,1
0.13224721,1.2866666,0
0.27515739,1.2866666,1
0.27515739,1.2866666,0
0.43212456,1.2866666,1
0.43212456,1.2866666,0
0.56787544,1.2866666,1
0.56787544,1.2866666,0
0.72484267,1.2866666,1
0.72484267,1.2866666,0
0.86775279,1.2866666,1
0.86775279,1.2866666,0
0.13160011,1.2933333,1
0.13160011,1.2933333,0
0.2743127,1.2933333,1
0.2743127,1.2933333,0
0.43196893,1.2933333,1
0.43196893,1.2933333,0
0.56803107,1.2933333,1
0.56803107,1.2933333,0
0.72568733,1.2933333,1
0.72568733,1.2933333,0
0.86839992,1.2933333,1
0.86839992,1.2933333,0
0.13095996,1.3,1
0.13095996,1.3,0
0.27352607,1.3,1
0.27352607,1.3,0
0.43180281,1.3,1
0.43180281,1.3,0
0.56819719,1.3,1
0.56819719,1.3,0
0.72647399,1.3,1
0.72647399,1.3,0
0.86904007,1.3,1
0.86904007,1.3,0
0.13032456,1.3066666,1
0.13032456,1.3066666,0
0.27333334,1.3016148,0
0.27273926,1.3066666,1
0.27333334,1.3016148,1
0.27273926,1.3066666,0
0.43162784,1.3066666,1
0.43162784,1.3066666,0
0.56837213,1.3066666,1
0.56837213,1.3066666,0
0.72666669,1.3016148,1
0.72666669,1.3016148,0
0.72726077,1.3066666,0
0.72726077,1.3066666,1
0.86967546,1.3066666,1
0.86967546,1.3066666,0
0.12969929,1.3133334,1
0.12969929,1.3133334,0
0.27187833,1.3133334,1
0.27187833,1.3133334,0
0.43144551,1.3133334,1
0.43144551,1.3133334,0
0.56855452,1.3133334,1
0.56855452,1.3133334,0
0.7281217,1.3133334,1
0.7281217,1.3133334,0
0.87030071,1.3133334,1
0.87030071,1.3133334,0
0.1290867,1.3200001,1
0.1290867,1.3200001,0
0.27089444,1.3200001,1
0.27089444,1.3200001,0
0.43125695,1.3200001,1
0.43125695,1.3200001,0
0.56874305,1.3200001,1
0.56874305,1.3200001,0
0.72910559,1.3200001,1
0.72910559,1.3200001,0
0.87091333,1.3200001,1
0.87091333,1.3200001,0
0.12848718,1.3266667,1
0.12848718,1.3266667,0
0.26985252,1.3266667,1
0.26985252,1.3266667,0
0.43106309,1.3266667,1
0.43106309,1.3266667,0
0.56893688,1.3266667,1
0.56893688,1.3266667,0
0.73014754,1.3266667,1
0.73014754,1.3266667,0
0.87151283,1.3266667,1
0.87151283,1.3266667,0
0.12790388,1.3333334,1
0.12790388,1.3333334,0
0.26881683,1.3333334,1
0.26881683,1.3333334,0
0.43086466,1.3333334,1
0.43086466,1.3333334,0
0.56913531,1.3333334,1
0.56913531,1.3333334,0
0.73118317,1.3333334,1
0.73118317,1.3333334,0
0.87209612,1.3333334,1
0.87209612,1.3333334,0
0.12732875,1.34,1
0.12732875,1.34,0
0.26772231,1.34,1
0.26772231,1.34,0
0.43066227,1.34,1
0.43066227,1.34,0
0.56933773,1.34,1
0.56933773,1.34,0
0.73227769,1.34,1
0.73227769,1.34,0
0.87267125,1.34,1
0.87267125,1.34,0
0.12680599,1.3466667,1
0.12680599,1.3466667,0
0.26666668,1.345741,0
0.26649022,1.3466667,1
0.26666668,1.345741,1
0.26649022,1.3466667,0
0.43045661,1.3466667,1
0.43045661,1.3466667,0
0.56954342,1.3466667,1
0.56954342,1.3466667,0
0.73333335,1.345741,1
0.73333335,1.345741,0
0.73350984,1.3466667,0
0.73350984,1.3466667,1
0.87319404,1.3466667,1
0.87319404,1.3466667,0
0.12666667,1.3487986,0
0.12666667,1.3487986,1
0.1263725,1.3533334,1
0.1263725,1.3533334,0
0.26521048,1.3533334,1
0.26521048,1.3533334,0
0.43024826,1.3533334,1
0.43024826,1.3533334,0
0.56975174,1.3533334,1
0.56975174,1.3533334,0
0.73478955,1.3533334,1
0.73478955,1.3533334,0
0.87333333,1.3487986,1
0.87333333,1.3487986,0
0.87362748,1.3533334,0
0.87362748,1.3533334,1
0.12598644,1.36,1
0.12598644,1.36,0
0.26394674,1.36,1
0.26394674,1.36,0
0.4300378,1.36,1
0.4300378,1.36,0
0.5699622,1.36,1
0.5699622,1.36,0
0.73605329,1.36,1
0.73605329,1.36,0
0.87401354,1.36,1
0.87401354,1.36,0
0.12561075,1.3666667,1
0.12561075,1.3666667,0
0.2626619,1.3666667,1
0.2626619,1.3666667,0
0.42982548,1.3666667,1
0.42982548,1.3666667,0
0.57017452,1.3666667,1
0.57017452,1.3666667,0
0.73733813,1.3666667,1
0.73733813,1.3666667,0
0.87438923,1.3666667,1
0.87438923,1.3666667,0
0.12524082,1.3733333,1
0.12524082,1.3733333,0
0.26122382,1.3733333,1
0.26122382,1.3733333,0
0.42961147,1.3733333,1
0.42961147,1.3733333,0
0.57038856,1.3733333,1
0.57038856,1.3733333,0
0.73877621,1.3733333,1
0.73877621,1.3733333,0
0.8747592,1.3733333,1
0.8747592,1.3733333,0
0.12487476,1.38,1
0.12487476,1.38,0
0.25999999,1.3786216,0
0.25966999,1.38,1
0.25999999,1.3786216,1
0.25966999,1.38,0
0.42939577,1.38,1
0.42939577,1.38,0
0.57060426,1.38,1
0.57060426,1.38,0
0.74000001,1.3786216,1
0.74000001,1.3786216,0
0.74032998,1.38,0
0.74032998,1.38,1
0.87512523,1.38,1
0.87512523,1.38,0
0.12451334,1.3866667,1
0.12451334,1.3866667,0
0.25823,1.3866667,1
0.25823,1.3866667,0
0.42917845,1.3866667,1
0.42917845,1.3866667,0
0.57082152,1.3866667,1
0.57082152,1.3866667,0
0.74177003,1.3866667,1
0.74177003,1.3866667,0
0.87548667,1.3866667,1
0.87548667,1.3866667,0
0.12415656,1.3933333,1
0.12415656,1.3933333,0
0.25681129,1.3933333,1
0.25681129,1.3933333,0
0.42895985,1.3933333,1
0.42895985,1.3933333,0
0.57104015,1.3933333,1
0.57104015,1.3933333,0
0.74318874,1.3933333,1
0.74318874,1.3933333,0
0.87584341,1.3933333,1
0.87584341,1.3933333,0
0.12380402,1.4,1
0.12380402,1.4,0
0.25522497,1.4,1
0.25522497,1.4,0
0.4287402,1.4,1
0.4287402,1.4,0
0.5712598,1.4,1
0.5712598,1.4,0
0.74477506,1.4,1
0.74477506,1.4,0
0.87619597,1.4,1
0.87619597,1.4,0
0.12345533,1.4066666,1
0.12345533,1.4066666,0
0.25350803,1.4066666,1
0.25350803,1.4066666,0
0.42851979,1.4066666,1
0.42851979,1.4066666,0
0.57148021,1.4066666,1
0.57148021,1.4066666,0
0.74649197,1.4066666,1
0.74649197,1.4066666,0
0.87654465,1.4066666,1
0.87654465,1.4066666,0
0.1231106,1.4133333,1
0.1231106,1.4133333,0
0.25333333,1.4073598,0
0.25190714,1.4133333,1
0.25333333,1.4073598,1
0.25190714,1.4133333,0
0.42829862,1.4133333,1
0.42829862,1.4133333,0
0.57170141,1.4133333,1
0.57170141,1.4133333,0
0.74666667,1.4073598,1
0.74666667,1.4073598,0
0.74809289,1.4133333,0
0.74809289,1.4133333,1
0.87688941,1.4133333,1
0.87688941,1.4133333,0
0.12277068,1.42,1
0.12277068,1.42,0
0.25040939,1.42,1
0.25040939,1.42,0
0.42807654,1.42,1
0.42807654,1.42,0
0.57192349,1.42,1
0.57192349,1.42,0
0.74959058,1.42,1
0.74959058,1.42,0
0.87722933,1.42,1
0.87722933,1.42,0
0.12243603,1.4266666,1
0.12243603,1.4266666,0
0.24869116,1.4266666,1
0.24869116,1.4266666,0
0.42785329,1.4266666,1
0.42785329,1.4266666,0
0.57214671,1.4266666,1
0.57214671,1.4266666,0
0.75130886,1.4266666,1
0.75130886,1.4266666,0
0.87756395,1.4266666,1
0.87756395,1.4266666,0
0.12210532,1.4333333,1
0.12210532,1.4333333,0
0.24685504,1.4333333,1
0.24685504,1.4333333,0
0.42762876,1.4333333,1
0.42762876,1.4333333,0
0.57237124,1.4333333,1
0.57237124,1.4333333,0
0.75314498,1.4333333,1
0.75314498,1.4333333,0
0.8778947,1.4333333,1
0.8778947,1.4333333,0
0.12177867,1.4400001,1
0.12177867,1.4400001,0
0.24666667,1.4340545,0
0.24519809,1.4400001,1
0.24666667,1.4340545,1
0.24519809,1.4400001,0
0.427403,1.4400001,1
0.427403,1.4400001,0
0.57259703,1.4400001,1
0.57259703,1.4400001,0
0.75333333,1.4340545,1
0.75333333,1.4340545,0
0.75480193,1.4400001,0
0.75480193,1.4400001,1
0.87822133,1.4400001,1
0.87822133,1.4400001,0
0.12146103,1.4466667,1
0.12146103,1.4466667,0
0.24362946,1.4466667,1
0.24362946,1.4466667,0
0.42717612,1.4466667,1
0.42717612,1.4466667,0
0.57282388,1.4466667,1
0.57282388,1.4466667,0
0.75637054,1.4466667,1
0.75637054,1.4466667,0
0.87853897,1.4466667,1
0.87853897,1.4466667,0
0.12115168,1.4533334,1
0.12115168,1.4533334,0
0.24179408,1.4533334,1
0.24179408,1.4533334,0
0.42694724,1.4533334,1
0.42694724,1.4533334,0
0.57305276,1.4533334,1
0.57305276,1.4533334,0
0.75820589,1.4533334,1
0.75820589,1.4533334,0
0.87884831,1.4533334,1
0.87884831,1.4533334,0
0.12083692,1.46,1
0.12083692,1.46,0
0.23999999,1.4595861,0
0.23987389,1.46,1
0.23999999,1.4595861,1
0.23987389,1.46,0
0.42671624,1.46,1
0.42671624,1.46,0
0.57328373,1.46,1
0.57328373,1.46,0
0.75999999,1.4595861,1
0.75999999,1.4595861,0
0.76012611,1.46,0
0.76012611,1.46,1
0.87916309,1.46,1
0.87916309,1.46,0
0.12052524,1.4666667,1
0.12052524,1.4666667,0
0.23820762,1.4666667,1
0.23820762,1.4666667,0
0.42666668,1.4613523,0
0.42666668,1.4613523,1
0.42647287,1.4666667,1
0.42647287,1.4666667,0
0.57333332,1.4613522,1
0.57333332,1.4613522,0
0.57352716,1.4666667,0
0.57352716,1.4666667,1
0.76179236,1.4666667,1
0.76179236,1.4666667,0
0.87947476,1.4666667,1
0.87947476,1.4666667,0
0.12027819,1.4733334,1
0.12027819,1.4733334,0
0.23652266,1.4733334,1
0.23652266,1.4733334,0
0.4262217,1.4733334,1
0.4262217,1.4733334,0
0.57377827,1.4733334,1
0.57377827,1.4733334,0
0.76347733,1.4733334,1
0.76347733,1.4733334,0
0.87972182,1.4733334,1
0.87972182,1.4733334,0
0.12014705,1.48,1
0.12014705,1.48,0
0.23455702,1.48,1
0.23455702,1.48,0
0.42597532,1.48,1
0.42597532,1.48,0
0.57402468,1.48,1
0.57402468,1.48,0
0.76544297,1.48,1
0.76544297,1.48,0
0.87985295,1.48,1
0.87985295,1.48,0
0.12010079,1.4866667,1
0.12010079,1.4866667,0
0.23333333,1.4840959,0
0.23255761,1.4866667,1
0.23333333,1.4840959,1
0.23255761,1.4866667,0
0.42573181,1.4866667,1
0.42573181,1.4866667,0
0.57426816,1.4866667,1
0.57426816,1.4866667,0
0.76666665,1.4840959,1
0.76666665,1.4840959,0
0.76744235,1.4866667,0
0.76744235,1.4866667,1
0.8798992,1.4866667,1
0.8798992,1.4866667,0
0.1200671,1.4933333,1
0.1200671,1.4933333,0
0.23082787,1.4933333,1
0.23082787,1.4933333,0
0.42548984,1.4933333,1
0.42548984,1.4933333,0
0.57451016,1.4933333,1
0.57451016,1.4933333,0
0.76917213,1.4933333,1
0.76917213,1.4933333,0
0.87993288,1.4933333,1
0.87993288,1.4933333,0
0.12000458,1.5,1
0.12000458,1.5,0
0.22889011,1.5,1
0.22889011,1.5,0
0.42524976,1.5,1
0.42524976,1.5,0
0.57475024,1.5,1
0.57475024,1.5,0
0.77110988,1.5,1
0.77110988,1.5,0
0.87999541,1.5,1
0.87999541,1.5,0
0.12,1.5003166,0
0.12,1.5003166,1
0.11990836,1.5066667,1
0.11990836,1.5066667,0
0.22671734,1.5066667,1
0.22671734,1.5066667,0
0.42501134,1.5066667,1
0.42501134,1.5066667,0
0.57498866,1.5066667,1
0.57498866,1.5066667,0
0.77328265,1.5066667,1
0.77328265,1.5066667,0
0.88,1.5003166,1
0.88,1.5003166,0
0.88009161,1.5066667,0
0.88009161,1.5066667,1
0.11978564,1.5133333,1
0.11978564,1.5133333,0
0.22666667,1.5068185,0
0.22466482,1.5133333,1
0.22666667,1.5068185,1
0.22466482,1.5133333,0
0.42477447,1.5133333,1
0.42477447,1.5133333,0
0.57522553,1.5133333,1
0.57522553,1.5133333,0
0.77333331,1.5068185,1
0.77333331,1.5068185,0
0.77533513,1.5133333,0
0.77533513,1.5133333,1
0.88021433,1.5133333,1
0.88021433,1.5133333,0
0.11964219,1.52,1
0.11964219,1.52,0
0.2226271,1.52,1
0.2226271,1.52,0
0.42453933,1.52,1
0.42453933,1.52,0
0.57546067,1.52,1
0.57546067,1.52,0
0.7773729,1.52,1
0.7773729,1.52,0
0.8803578,1.52,1
0.8803578,1.52,0
0.11947878,1.5266666,1
0.11947878,1.5266666,0
0.22028896,1.5266666,1
0.22028896,1.5266666,0
0.42430604,1.5266666,1
0.42430604,1.5266666,0
0.57569396,1.5266666,1
0.57569396,1.5266666,0
0.77971101,1.5266666,1
0.77971101,1.5266666,0
0.88052118,1.5266666,1
0.88052118,1.5266666,0
0.11929329,1.5333333,1
0.11929329,1.5333333,0
0.22,1.5274068,0
0.21786043,1.5333333,1
0.22,1.5274068,1
0.21786043,1.5333333,0
0.42407474,1.5333333,1
0.42407474,1.5333333,0
0.57592523,1.5333333,1
0.57592523,1.5333333,0
0.77999997,1.5274068,1
0.77999997,1.5274068,0
0.78213954,1.5333333,0
0.78213954,1.5333333,1
0.88070667,1.5333333,1
0.88070667,1.5333333,0
0.119083,1.54,1
0.119083,1.54,0
0.21547577,1.54,1
0.21547577,1.54,0
0.4238455,1.54,1
0.4238455,1.54,0
0.57615453,1.54,1
0.57615453,1.54,0
0.78452426,1.54,1
0.78452426,1.54,0
0.88091701,1.54,1
0.88091701,1.54,0
0.11884477,1.5466666,1
0.11884477,1.5466666,0
0.21333334,1.5455289,0
0.21286152,1.5466666,1
0.21333334,1.5455289,1
0.21286152,1.5466666,0
0.42361832,1.5466666,1
0.42361832,1.5466666,0
0.57638168,1.5466666,1
0.57638168,1.5466666,0
0.78666669,1.5455289,1
0.78666669,1.5455289,0
0.78713852,1.5466666,0
0.78713852,1.5466666,1
0.88115519,1.5466666,1
0.88115519,1.5466666,0
0.11857422,1.5533333,1
0.11857422,1.5533333,0
0.21017396,1.5533333,1
0.21017396,1.5533333,0
0.42339322,1.5533333,1
0.42339322,1.5533333,0
0.57660675,1.5533333,1
0.57660675,1.5533333,0
0.78982604,1.5533333,1
0.78982604,1.5533333,0
0.8814258,1.5533333,1
0.8814258,1.5533333,0
0.11826602,1.5599999,1
0.11826602,1.5599999,0
0.20732273,1.5599999,1
0.20732273,1.5599999,0
0.42317015,1.5599999,1
0.42317015,1.5599999,0
0.57682985,1.5599999,1
0.57682985,1.5599999,0
0.79267728,1.5599999,1
0.79267728,1.5599999,0
0.88173395,1.5599999,1
0.88173395,1.5599999,0
0.11791719,1.5666667,1
0.11791719,1.5666667,0
0.20666666,1.5614693,0
0.2044992,1.5666667,1
0.20666666,1.5614693,1
0.2044992,1.5666667,0
0.42294908,1.5666667,1
0.42294908,1.5666667,0
0.57705092,1.5666667,1
0.57705092,1.5666667,0