"Points:0","Points:1","Points:2"
0.46000001,0.80575764,0
0.46000001,0.80575764,1
0.45461538,0.80666667,1
0.45461538,0.80666667,0
0.46666667,0.80478704,1
0.46666667,0.80478704,0
0.47333333,0.80397356,1
0.47333333,0.80397356,0
0.47999999,0.80332369,1
0.47999999,0.80332369,0
0.48666668,0.80284584,1
0.48666668,0.80284584,0
0.49333334,0.80255198,1
0.49333334,0.80255198,0
0.5,0.80245286,1
0.5,0.80245286,0
0.50666666,0.80255198,1
0.50666666,0.80255198,0
0.51333332,0.80284584,1
0.51333332,0.80284584,0
0.51999998,0.80332369,1
0.51999998,0.80332369,0
0.52666664,0.80397356,1
0.52666664,0.80397356,0
0.53333336,0.80478704,1
0.53333336,0.80478704,0
0.54000002,0.80575764,1
0.54000002,0.80575764,0
0.54538465,0.80666667,0
0.54538465,0.80666667,1
0.42666668,0.81284255,0
0.42666668,0.81284255,1
0.42497382,0.81333333,1
0.42497382,0.81333333,0
0.43333334,0.81114173,1
0.43333334,0.81114173,0
0.44,0.80957317,1
0.44,0.80957317,0
0.44666666,0.80815446,1
0.44666666,0.80815446,0
0.45333335,0.80688953,1
0.45333335,0.80688953,0
0.54666668,0.80688953,1
0.54666668,0.80688953,0
0.55333334,0.80815446,1
0.55333334,0.80815446,0
0.56,0.80957317,1
0.56,0.80957317,0
0.56666666,0.81114173,1
0.56666666,0.81114173,0
0.57333332,0.81284255,1
0.57333332,0.81284255,0
0.57502615,0.81333333,0
0.57502615,0.81333333,1
0.40666667,0.8188656,0
0.40666667,0.8188656,1
0.40346727,0.81999999,1
0.40346727,0.81999999,0
0.41333333,0.81672728,1
0.41333333,0.81672728,0
0.41999999,0.81472927,1
0.41999999,0.81472927,0
0.57999998,0.81472927,1
0.57999998,0.81472927,0
0.58666664,0.81672728,1
0.58666664,0.81672728,0
0.5933333,0.8188656,1
0.5933333,0.8188656,0
0.5965327,0.81999999,0
0.5965327,0.81999999,1
0.38666666,0.82625294,0
0.38666666,0.82625294,1
0.38574779,0.82666665,1
0.38574779,0.82666665,0
0.39333335,0.82366008,1
0.39333335,0.82366008,0
0.40000001,0.82122809,1
0.40000001,0.82122809,0
0.60000002,0.82122809,1
0.60000002,0.82122809,0
0.60666668,0.82366008,1
0.60666668,0.82366008,0
0.61333334,0.82625294,1
0.61333334,0.82625294,0
0.61425221,0.82666665,0
0.61425221,0.82666665,1
0.37333333,0.83194953,0
0.37333333,0.83194953,1
0.3704733,0.83333331,1
0.3704733,0.83333331,0
0.38,0.8290655,1
0.38,0.8290655,0
0.62,0.8290655,1
0.62,0.8290655,0
0.62666667,0.83194953,1
0.62666667,0.83194953,0
0.62952667,0.83333331,0
0.62952667,0.83333331,1
0.36000001,0.83832443,0
0.36000001,0.83832443,1
0.35687929,0.83999997,1
0.35687929,0.83999997,0
0.36666667,0.83514869,1
0.36666667,0.83514869,0
0.63333333,0.83514869,1
0.63333333,0.83514869,0
0.63999999,0.83832443,1
0.63999999,0.83832443,0
0.64312071,0.83999997,0
0.64312071,0.83999997,1
0.34666666,0.84538585,0
0.34666666,0.84538585,1
0.34458002,0.84666669,1
0.34458002,0.84666669,0
0.35333332,0.84189308,1
0.35333332,0.84189308,0
0.64666665,0.84189308,1
0.64666665,0.84189308,0
0.65333331,0.84538585,1
0.65333331,0.84538585,0
0.65541995,0.84666669,0
0.65541995,0.84666669,1
0.33333334,0.85330188,0
0.33333334,0.85330188,1
0.33328909,0.85333335,1
0.33328909,0.85333335,0
0.34,0.84933364,1
0.34,0.84933364,0
0.66000003,0.84933364,1
0.66000003,0.84933364,0
0.66666669,0.85330188,1
0.66666669,0.85330188,0
0.66671097,0.85333335,0
0.66671097,0.85333335,1
0.32666665,0.85745144,0
0.32666665,0.85745144,1
0.32294652,0.86000001,1
0.32294652,0.86000001,0
0.67333335,0.85745144,1
0.67333335,0.85745144,0
0.67705345,0.86000001,0
0.67705345,0.86000001,1
0.31333333,0.86659122,0
0.31333333,0.86659122,1
0.31323847,0.86666667,1
0.31323847,0.86666667,0
0.31999999,0.86206782,1
0.31999999,0.86206782,0
0.68000001,0.86206782,1
0.68000001,0.86206782,0
0.68666667,0.86659122,1
0.68666667,0.86659122,0
0.68676156,0.86666667,0
0.68676156,0.86666667,1
0.30666667,0.87133974,0
0.30666667,0.87133974,1
0.30418745,0.87333333,1
0.30418745,0.87333333,0
0.69333333,0.87133974,1
0.69333333,0.87133974,0
0.69581258,0.87333333,0
0.69581258,0.87333333,1
0.30000001,0.8766169,0
0.30000001,0.8766169,1
0.29586512,0.88,1
0.29586512,0.88,0
0.69999999,0.8766169,1
0.69999999,0.8766169,0
0.70413488,0.88,0
0.70413488,0.88,1
0.29333332,0.88215226,0
0.29333332,0.88215226,1
0.28795353,0.88666666,1
0.28795353,0.88666666,0
0.70666665,0.88215226,1
0.70666665,0.88215226,0
0.71204644,0.88666666,0
0.71204644,0.88666666,1
0.28666666,0.88782346,0
0.28666666,0.88782346,1
0.28035536,0.89333332,1
0.28035536,0.89333332,0
0.71333331,0.88782346,1
0.71333331,0.88782346,0
0.71964467,0.89333332,0
0.71964467,0.89333332,1
0.27333334,0.89980972,0
0.27333334,0.89980972,1
0.27313825,0.89999998,1
0.27313825,0.89999998,0
0.28,0.89366704,1
0.28,0.89366704,0
0.72000003,0.89366704,1
0.72000003,0.89366704,0
0.72666669,0.89980972,1
0.72666669,0.89980972,0
0.72686177,0.89999998,0
0.72686177,0.89999998,1
0.26666668,0.90637732,0
0.26666668,0.90637732,1
0.26638022,0.9066667,1
0.26638022,0.9066667,0
0.73333335,0.90637732,1
0.73333335,0.90637732,0
0.73361981,0.9066667,0
0.73361981,0.9066667,1
0.26006711,0.91333336,1
0.26006711,0.91333336,0
0.73993289,0.91333336,1
0.73993289,0.91333336,0
0.25999999,0.91340363,0
0.25999999,0.91340363,1
0.25410703,0.92000002,1
0.25410703,0.92000002,0
0.74000001,0.91340363,1
0.74000001,0.91340363,0
0.745893,0.92000002,0
0.745893,0.92000002,1
0.25333333,0.92084134,0
0.25333333,0.92084134,1
0.24835676,0.92666668,1
0.24835676,0.92666668,0
0.74666667,0.92084134,1
0.74666667,0.92084134,0
0.75164324,0.92666668,0
0.75164324,0.92666668,1
0.24666667,0.92859381,0
0.24666667,0.92859381,1
0.24273492,0.93333334,1
0.24273492,0.93333334,0
0.75333333,0.92859381,1
0.75333333,0.92859381,0
0.75726509,0.93333334,0
0.75726509,0.93333334,1
0.23999999,0.93666583,0
0.23999999,0.93666583,1
0.23728929,0.94,1
0.23728929,0.94,0
0.75999999,0.93666583,1
0.75999999,0.93666583,0
0.76271069,0.94,0
0.76271069,0.94,1
0.23333333,0.94531578,0
0.23333333,0.94531578,1
0.23225355,0.94666666,1
0.23225355,0.94666666,0
0.76666665,0.94531578,1
0.76666665,0.94531578,0
0.76774645,0.94666666,0
0.76774645,0.94666666,1
0.22769839,0.95333332,1
0.22769839,0.95333332,0
0.77230161,0.95333332,1
0.77230161,0.95333332,0
0.22666667,0.95468885,0
0.22666667,0.95468885,1
0.22300008,0.95999998,1
0.22300008,0.95999998,0
0.77333331,0.95468885,1
0.77333331,0.95468885,0
0.77699989,0.95999998,0
0.77699989,0.95999998,1
0.22,0.96450543,0
0.22,0.96450543,1
0.21848556,0.96666664,1
0.21848556,0.96666664,0
0.77999997,0.96450543,1
0.77999997,0.96450543,0
0.78151441,0.96666664,0
0.78151441,0.96666664,1
0.21449028,0.97333336,1
0.21449028,0.97333336,0
0.78550977,0.97333336,1
0.78550977,0.97333336,0
0.21333334,0.97507888,0
0.21333334,0.97507888,1
0.21032323,0.98000002,1
0.21032323,0.98000002,0
0.78666669,0.97507888,1
0.78666669,0.97507888,0
0.78967679,0.98000002,0
0.78967679,0.98000002,1
0.20666666,0.9863975,0
0.20666666,0.9863975,1
0.20649143,0.98666668,1
0.20649143,0.98666668,0
0.79333335,0.9863975,1
0.79333335,0.9863975,0
0.79350859,0.98666668,0
0.79350859,0.98666668,1
0.2028227,0.99333334,1
0.2028227,0.99333334,0
0.79717731,0.99333334,1
0.79717731,0.99333334,0
0.2,0.99863625,0
0.2,0.99863625,1
0.19921716,1,1
0.19921716,1,0
0.80000001,0.99863625,1
0.80000001,0.99863625,0
0.80078286,1,0
0.80078286,1,1
0.19590181,1.0066667,1
0.19590181,1.0066667,0
0.80409819,1.0066667,1
0.80409819,1.0066667,0
0.19333333,1.0119052,0
0.19333333,1.0119052,1
0.19258556,1.0133333,1
0.19258556,1.0133333,0
0.80666667,1.0119052,1
0.80666667,1.0119052,0
0.80741447,1.0133333,0
0.80741447,1.0133333,1
0.18953206,1.02,1
0.18953206,1.02,0
0.81046796,1.02,1
0.81046796,1.02,0
0.18666667,1.0263764,0
0.18666667,1.0263764,1
0.18652217,1.0266666,1
0.18652217,1.0266666,0
0.81333333,1.0263764,1
0.81333333,1.0263764,0
0.81347781,1.0266666,0
0.81347781,1.0266666,1
0.18370256,1.0333333,1
0.18370256,1.0333333,0
0.81629741,1.0333333,1
0.81629741,1.0333333,0
0.18096969,1.04,1
0.18096969,1.04,0
0.81903034,1.04,1
0.81903034,1.04,0
0.18000001,1.042379,0
0.18000001,1.042379,1
0.17831028,1.0466666,1
0.17831028,1.0466666,0
0.81999999,1.042379,1
0.81999999,1.042379,0
0.82168972,1.0466666,0
0.82168972,1.0466666,1
0.17581178,1.0533333,1
0.17581178,1.0533333,0
0.35333332,1.0531299,0
0.35297665,1.0533333,1
0.35333332,1.0531299,1
0.35297665,1.0533333,0
0.36000001,1.0506369,1
0.36000001,1.0506369,0
0.36666667,1.04907,1
0.36666667,1.04907,0
0.37333333,1.0484527,1
0.37333333,1.0484527,0
0.38,1.0488236,1
0.38,1.0488236,0
0.38666666,1.0502472,1
0.38666666,1.0502472,0
0.39333335,1.0528063,1
0.39333335,1.0528063,0
0.39416814,1.0533333,0
0.39416814,1.0533333,1
0.60666668,1.0528063,0
0.60583192,1.0533333,1
0.60666668,1.0528063,1
0.60583192,1.0533333,0
0.61333334,1.0502472,1
0.61333334,1.0502472,0
0.62,1.0488236,1
0.62,1.0488236,0
0.62666667,1.0484527,1
0.62666667,1.0484527,0
0.63333333,1.04907,1
0.63333333,1.04907,0
0.63999999,1.0506369,1
0.63999999,1.0506369,0
0.64666665,1.0531299,1
0.64666665,1.0531299,0
0.64702332,1.0533333,0
0.64702332,1.0533333,1
0.82418823,1.0533333,1
0.82418823,1.0533333,0
0.17338227,1.0599999,1
0.17338227,1.0599999,0
0.34666666,1.0566009,0
0.3416543,1.0599999,1
0.34666666,1.0566009,1
0.3416543,1.0599999,0
0.40000001,1.0568143,1
0.40000001,1.0568143,0
0.40377674,1.0599999,0
0.40377674,1.0599999,1
0.60000002,1.0568143,0
0.59622324,1.0599999,1
0.60000002,1.0568143,1
0.59622324,1.0599999,0
0.65333331,1.0566009,1
0.65333331,1.0566009,0
0.6583457,1.0599999,0
0.6583457,1.0599999,1
0.82661772,1.0599999,1
0.82661772,1.0599999,0
0.17333333,1.0601319,0
0.17333333,1.0601319,1
0.17111216,1.0666667,1
0.17111216,1.0666667,0
0.34,1.0612525,0
0.33344334,1.0666667,1
0.34,1.0612525,1
0.33344334,1.0666667,0
0.40666667,1.0627407,1
0.40666667,1.0627407,0
0.41024879,1.0666667,0
0.41024879,1.0666667,1
0.5933333,1.0627407,0
0.58975118,1.0666667,1
0.5933333,1.0627407,1
0.58975118,1.0666667,0
0.66000003,1.0612525,1
0.66000003,1.0612525,0
0.66655672,1.0666667,0
0.66655672,1.0666667,1
0.82666665,1.0601319,1
0.82666665,1.0601319,0
0.82888782,1.0666667,0
0.82888782,1.0666667,1
0.16887552,1.0733334,1
0.16887552,1.0733334,0
0.33333334,1.0667711,0
0.32698083,1.0733334,1
0.33333334,1.0667711,1
0.32698083,1.0733334,0
0.41333333,1.0709068,1
0.41333333,1.0709068,0
0.41509172,1.0733334,0
0.41509172,1.0733334,1
0.58666664,1.0709068,0
0.58490825,1.0733334,1
0.58666664,1.0709068,1
0.58490825,1.0733334,0
0.66666669,1.0667711,1
0.66666669,1.0667711,0
0.67301917,1.0733334,0
0.67301917,1.0733334,1
0.83112448,1.0733334,1
0.83112448,1.0733334,0
0.16674134,1.08,1
0.16674134,1.08,0
0.32666665,1.0736785,0
0.32160312,1.08,1
0.32666665,1.0736785,1
0.32160312,1.08,0
0.41863623,1.08,1
0.41863623,1.08,0
0.58136374,1.08,1
0.58136374,1.08,0
0.67333335,1.0736785,1
0.67333335,1.0736785,0
0.67839688,1.08,0
0.67839688,1.08,1
0.83325863,1.08,1
0.83325863,1.08,0
0.16666667,1.0802333,0
0.16666667,1.0802333,1
0.16475368,1.0866667,1
0.16475368,1.0866667,0
0.31999999,1.0820861,0
0.31674412,1.0866667,1
0.31999999,1.0820861,1
0.31674412,1.0866667,0
0.41999999,1.082925,1
0.41999999,1.082925,0
0.42169654,1.0866667,0
0.42169654,1.0866667,1
0.57999998,1.082925,0
0.57830346,1.0866667,1
0.57999998,1.082925,1
0.57830346,1.0866667,0
0.68000001,1.0820861,1
0.68000001,1.0820861,0
0.68325585,1.0866667,0
0.68325585,1.0866667,1
0.83333331,1.0802333,1
0.83333331,1.0802333,0
0.83524632,1.0866667,0
0.83524632,1.0866667,1
0.16281235,1.0933334,1
0.16281235,1.0933334,0
0.31333333,1.0922639,0
0.31262314,1.0933334,1
0.31333333,1.0922639,1
0.31262314,1.0933334,0
0.42403749,1.0933334,1
0.42403749,1.0933334,0
0.57596248,1.0933334,1
0.57596248,1.0933334,0
0.68666667,1.0922639,1
0.68666667,1.0922639,0
0.68737686,1.0933334,0
0.68737686,1.0933334,1
0.83718765,1.0933334,1
0.83718765,1.0933334,0
0.16091244,1.1,1
0.16091244,1.1,0
0.30912405,1.1,1
0.30912405,1.1,0
0.42602962,1.1,1
0.42602962,1.1,0
0.57397038,1.1,1
0.57397038,1.1,0
0.69087595,1.1,1
0.69087595,1.1,0
0.83908755,1.1,1
0.83908755,1.1,0
0.16,1.103395,0
0.16,1.103395,1
0.15912376,1.1066667,1
0.15912376,1.1066667,0
0.30666667,1.1051089,0
0.30587241,1.1066667,1
0.30666667,1.1051089,1
0.30587241,1.1066667,0
0.42666668,1.1024866,1
0.42666668,1.1024866,0
0.42771083,1.1066667,0
0.42771083,1.1066667,1
0.57333332,1.1024866,0
0.57228917,1.1066667,1
0.57333332,1.1024866,1
0.57228917,1.1066667,0
0.69333333,1.1051089,1
0.69333333,1.1051089,0
0.69412762,1.1066667,0
0.69412762,1.1066667,1
0.83999997,1.103395,1
0.83999997,1.103395,0
0.84087622,1.1066667,0
0.84087622,1.1066667,1
0.15748864,1.1133333,1
0.15748864,1.1133333,0
0.3031013,1.1133333,1
0.3031013,1.1133333,0
0.42897555,1.1133333,1
0.42897555,1.1133333,0
0.57102448,1.1133333,1
0.57102448,1.1133333,0
0.6968987,1.1133333,1
0.6968987,1.1133333,0
0.84251136,1.1133333,1
0.84251136,1.1133333,0
0.15583411,1.12,1
0.15583411,1.12,0
0.30061555,1.12,1
0.30061555,1.12,0
0.43003452,1.12,1
0.43003452,1.12,0
0.56996548,1.12,1
0.56996548,1.12,0
0.69938445,1.12,1
0.69938445,1.12,0
0.84416592,1.12,1
0.84416592,1.12,0
0.15421949,1.1266667,1
0.15421949,1.1266667,0
0.30000001,1.1217438,0
0.29834101,1.1266667,1
0.30000001,1.1217438,1
0.29834101,1.1266667,0
0.43093675,1.1266667,1
0.43093675,1.1266667,0
0.56906325,1.1266667,1
0.56906325,1.1266667,0
0.69999999,1.1217438,1
0.69999999,1.1217438,0
0.70165896,1.1266667,0
0.70165896,1.1266667,1
0.84578055,1.1266667,1
0.84578055,1.1266667,0
0.15333334,1.1306201,0
0.15333334,1.1306201,1
0.15272157,1.1333333,1
0.15272157,1.1333333,0
0.29636192,1.1333333,1
0.29636192,1.1333333,0
0.43167686,1.1333333,1
0.43167686,1.1333333,0
0.56832314,1.1333333,1
0.56832314,1.1333333,0
0.70363808,1.1333333,1
0.70363808,1.1333333,0
0.84666669,1.1306201,1
0.84666669,1.1306201,0
0.84727848,1.1333333,0
0.84727848,1.1333333,1
0.15136534,1.14,1
0.15136534,1.14,0
0.29460636,1.14,1
0.29460636,1.14,0
0.43228933,1.14,1
0.43228933,1.14,0
0.56771064,1.14,1
0.56771064,1.14,0
0.70539361,1.14,1
0.70539361,1.14,0
0.84863466,1.14,1
0.84863466,1.14,0
0.15000169,1.1466666,1
0.15000169,1.1466666,0
0.29333332,1.1454911,0
0.2930513,1.1466666,1
0.29333332,1.1454911,1
0.2930513,1.1466666,0
0.43280786,1.1466666,1
0.43280786,1.1466666,0
0.56719214,1.1466666,1
0.56719214,1.1466666,0
0.70666665,1.1454911,1
0.70666665,1.1454911,0
0.7069487,1.1466666,0
0.7069487,1.1466666,1
0.84999835,1.1466666,1
0.84999835,1.1466666,0
0.14865397,1.1533333,1
0.14865397,1.1533333,0
0.29170254,1.1533333,1
0.29170254,1.1533333,0
0.43325377,1.1533333,1
0.43325377,1.1533333,0
0.56674623,1.1533333,1
0.56674623,1.1533333,0
0.70829743,1.1533333,1
0.70829743,1.1533333,0
0.85134608,1.1533333,1
0.85134608,1.1533333,0
0.14734603,1.16,1
0.14734603,1.16,0
0.29049772,1.16,1
0.29049772,1.16,0
0.43333334,1.1549411,1
0.43333334,1.1549411,0
0.43358132,1.16,0
0.43358132,1.16,1
0.56666666,1.1549411,0
0.56641871,1.16,1
0.56666666,1.1549411,1
0.56641871,1.16,0
0.70950228,1.16,1
0.70950228,1.16,0
0.85265398,1.16,1
0.85265398,1.16,0
0.14666666,1.1637943,0
0.14666666,1.1637943,1
0.14615123,1.1666666,1
0.14615123,1.1666666,0
0.28943881,1.1666666,1
0.28943881,1.1666666,0
0.43376711,1.1666666,1
0.43376711,1.1666666,0
0.56623286,1.1666666,1
0.56623286,1.1666666,0
0.71056116,1.1666666,1
0.71056116,1.1666666,0
0.85333335,1.1637943,1
0.85333335,1.1637943,0
0.85384881,1.1666666,0
0.85384881,1.1666666,1
0.14507644,1.1733333,1
0.14507644,1.1733333,0
0.28852603,1.1733333,1
0.28852603,1.1733333,0
0.43388397,1.1733333,1
0.43388397,1.1733333,0
0.56611603,1.1733333,1
0.56611603,1.1733333,0
0.71147394,1.1733333,1
0.71147394,1.1733333,0
0.85492361,1.1733333,1
0.85492361,1.1733333,0
0.14400017,1.1799999,1
0.14400017,1.1799999,0
0.28775173,1.1799999,1
0.28775173,1.1799999,0
0.43396214,1.1799999,1
0.43396214,1.1799999,0
0.56603783,1.1799999,1
0.56603783,1.1799999,0
0.71224827,1.1799999,1
0.71224827,1.1799999,0
0.85599983,1.1799999,1
0.85599983,1.1799999,0
0.14293875,1.1866666,1
0.14293875,1.1866666,0
0.28706801,1.1866666,1
0.28706801,1.1866666,0
0.43399945,1.1866666,1
0.43399945,1.1866666,0
0.56600058,1.1866666,1
0.56600058,1.1866666,0
0.71293193,1.1866666,1
0.71293193,1.1866666,0
0.85706127,1.1866666,1
0.85706127,1.1866666,0
0.14189391,1.1933334,1
0.14189391,1.1933334,0
0.28666666,1.1908369,0
0.28642517,1.1933334,1
0.28666666,1.1908369,1
0.28642517,1.1933334,0
0.43399745,1.1933334,1
0.43399745,1.1933334,0
0.56600255,1.1933334,1
0.56600255,1.1933334,0
0.71333331,1.1908369,1
0.71333331,1.1908369,0
0.71357483,1.1933334,0
0.71357483,1.1933334,1
0.85810608,1.1933334,1
0.85810608,1.1933334,0
0.14086454,1.2,1
0.14086454,1.2,0
0.28584853,1.2,1
0.28584853,1.2,0
0.43396387,1.2,1
0.43396387,1.2,0
0.56603616,1.2,1
0.56603616,1.2,0
0.71415144,1.2,1
0.71415144,1.2,0
0.85913545,1.2,1
0.85913545,1.2,0
0.14,1.2061906,0
0.14,1.2061906,1
0.13993171,1.2066667,1
0.13993171,1.2066667,0
0.28533939,1.2066667,1
0.28533939,1.2066667,0
0.43390444,1.2066667,1
0.43390444,1.2066667,0
0.56609559,1.2066667,1
0.56609559,1.2066667,0
0.71466058,1.2066667,1
0.71466058,1.2066667,0
0.86000001,1.2061906,1
0.86000001,1.2061906,0
0.86006832,1.2066667,0
0.86006832,1.2066667,1
0.13910867,1.2133334,1
0.13910867,1.2133334,0
0.28490689,1.2133334,1
0.28490689,1.2133334,0
0.43382236,1.2133334,1
0.43382236,1.2133334,0
0.56617767,1.2133334,1
0.56617767,1.2133334,0
0.71509308,1.2133334,1
0.71509308,1.2133334,0
0.86089134,1.2133334,1
0.86089134,1.2133334,0
0.13830838,1.22,1
0.13830838,1.22,0
0.28454337,1.22,1
0.28454337,1.22,0
0.43372035,1.22,1
0.43372035,1.22,0
0.56627965,1.22,1
0.56627965,1.22,0
0.7154566,1.22,1
0.7154566,1.22,0
0.86169165,1.22,1
0.86169165,1.22,0
0.13752538,1.2266667,1
0.13752538,1.2266667,0
0.28420863,1.2266667,1
0.28420863,1.2266667,0
0.43360099,1.2266667,1
0.43360099,1.2266667,0
0.56639898,1.2266667,1
0.56639898,1.2266667,0
0.71579134,1.2266667,1
0.71579134,1.2266667,0
0.86247462,1.2266667,1
0.86247462,1.2266667,0
0.13675125,1.2333333,1
0.13675125,1.2333333,0
0.28384244,1.2333333,1
0.28384244,1.2333333,0
0.43346673,1.2333333,1
0.43346673,1.2333333,0
0.56653327,1.2333333,1
0.56653327,1.2333333,0
0.71615756,1.2333333,1
0.71615756,1.2333333,0
0.86324877,1.2333333,1
0.86324877,1.2333333,0
0.13598579,1.24,1
0.13598579,1.24,0
0.28341684,1.24,1
0.28341684,1.24,0
0.43333334,1.2393024,0
0.43333334,1.2393024,1
0.43331766,1.24,1
0.43331766,1.24,0
0.56666666,1.2393024,1
0.56666666,1.2393024,0
0.56668234,1.24,0
0.56668234,1.24,1
0.71658313,1.24,1
0.71658313,1.24,0
0.86401421,1.24,1
0.86401421,1.24,0
0.13523434,1.2466667,1
0.13523434,1.2466667,0
0.2829721,1.2466667,1
0.2829721,1.2466667,0
0.43315116,1.2466667,1
0.43315116,1.2466667,0
0.56684887,1.2466667,1
0.56684887,1.2466667,0
0.7170279,1.2466667,1
0.7170279,1.2466667,0
0.86476564,1.2466667,1
0.86476564,1.2466667,0
0.13449962,1.2533333,1
0.13449962,1.2533333,0
0.28256282,1.2533333,1
0.28256282,1.2533333,0
0.43297255,1.2533333,1
0.43297255,1.2533333,0
0.56702745,1.2533333,1
0.56702745,1.2533333,0
0.71743721,1.2533333,1
0.71743721,1.2533333,0
0.86550039,1.2533333,1
0.86550039,1.2533333,0
0.13378882,1.26,1
0.13378882,1.26,0
0.28217036,1.26,1
0.28217036,1.26,0
0.43278787,1.26,1
0.43278787,1.26,0
0.5672121,1.26,1
0.5672121,1.26,0
0.71782964,1.26,1
0.71782964,1.26,0
0.86621118,1.26,1
0.86621118,1.26,0
0.13333334,1.2648844,0
0.13333334,1.2648844,1
0.13316579,1.2666667,1
0.13316579,1.2666667,0
0.28171873,1.2666667,1
0.28171873,1.2666667,0
0.4325963,1.2666667,1
0.4325963,1.2666667,0
0.56740367,1.2666667,1
0.56740367,1.2666667,0
0.71828127,1.2666667,1
0.71828127,1.2666667,0
0.86666667,1.2648844,1
0.86666667,1.2648844,0
0.86683422,1.2666667,0
0.86683422,1.2666667,1
0.13263044,1.2733333,1
0.13263044,1.2733333,0
0.28115937,1.2733333,1
0.28115937,1.2733333,0
0.43239915,1.2733333,1
0.43239915,1.2733333,0
0.56760085,1.2733333,1
0.56760085,1.2733333,0
0.71884066,1.2733333,1
0.71884066,1.2733333,0
0.86736959,1.2733333,1
0.86736959,1.2733333,0
0.13210724,1.28,1
0.13210724,1.28,0
0.28051883,1.28,1
0.28051883,1.28,0
0.43219742,1.28,1
0.43219742,1.28,0
0.56780255,1.28,1
0.56780255,1.28,0
0.71948117,1.28,1
0.71948117,1.28,0
0.86789274,1.28,1
0.86789274,1.28,0
0.13159236,1.2866666,1
0.13159236,1.2866666,0
0.28,1.285251,0
0.27985814,1.2866666,1
0.28,1.285251,1
0.27985814,1.2866666,0
0.43199196,1.2866666,1
0.43199196,1.2866666,0
0.56800807,1.2866666,1
0.56800807,1.2866666,0
0.72000003,1.285251,1
0.72000003,1.285251,0
0.72014189,1.2866666,0
0.72014189,1.2866666,1
0.86840767,1.2866666,1
0.86840767,1.2866666,0
0.13108142,1.2933333,1
0.13108142,1.2933333,0
0.27919033,1.2933333,1
0.27919033,1.2933333,0
0.43178356,1.2933333,1
0.43178356,1.2933333,0
0.56821644,1.2933333,1
0.56821644,1.2933333,0
0.7208097,1.2933333,1
0.7208097,1.2933333,0
0.8689186,1.2933333,1
0.8689186,1.2933333,0
0.13057773,1.3,1
0.13057773,1.3,0
0.27844056,1.3,1
0.27844056,1.3,0
0.43157297,1.3,1
0.43157297,1.3,0
0.56842703,1.3,1
0.56842703,1.3,0
0.72155946,1.3,1
0.72155946,1.3,0
0.86942226,1.3,1
0.86942226,1.3,0
0.1300842,1.3066666,1
0.1300842,1.3066666,0
0.27756947,1.3066666,1
0.27756947,1.3066666,0
0.43136075,1.3066666,1
0.43136075,1.3066666,0
0.56863922,1.3066666,1
0.56863922,1.3066666,0
0.72243059,1.3066666,1
0.72243059,1.3066666,0
0.86991578,1.3066666,1
0.86991578,1.3066666,0
0.12960058,1.3133334,1
0.12960058,1.3133334,0
0.27660647,1.3133334,1
0.27660647,1.3133334,0
0.43114728,1.3133334,1
0.43114728,1.3133334,0
0.56885272,1.3133334,1
0.56885272,1.3133334,0
0.72339356,1.3133334,1
0.72339356,1.3133334,0
0.87039942,1.3133334,1
0.87039942,1.3133334,0
0.12912443,1.3200001,1
0.12912443,1.3200001,0
0.2755968,1.3200001,1
0.2755968,1.3200001,0
0.43093273,1.3200001,1
0.43093273,1.3200001,0
0.56906724,1.3200001,1
0.56906724,1.3200001,0
0.72440326,1.3200001,1
0.72440326,1.3200001,0
0.8708756,1.3200001,1
0.8708756,1.3200001,0
0.12865405,1.3266667,1
0.12865405,1.3266667,0
0.2745339,1.3266667,1
0.2745339,1.3266667,0
0.43071735,1.3266667,1
0.43071735,1.3266667,0
0.56928265,1.3266667,1
0.56928265,1.3266667,0
0.72546613,1.3266667,1
0.72546613,1.3266667,0
0.87134594,1.3266667,1
0.87134594,1.3266667,0
0.12819277,1.3333334,1
0.12819277,1.3333334,0
0.273379,1.3333334,1
0.273379,1.3333334,0
0.43050134,1.3333334,1
0.43050134,1.3333334,0
0.56949866,1.3333334,1
0.56949866,1.3333334,0
0.72662103,1.3333334,1
0.72662103,1.3333334,0
0.87180722,1.3333334,1
0.87180722,1.3333334,0
0.12774801,1.34,1
0.12774801,1.34,0
0.27333334,1.3335699,0
0.27214399,1.34,1
0.27333334,1.3335699,1
0.27214399,1.34,0
0.43028498,1.34,1
0.43028498,1.34,0
0.56971502,1.34,1
0.56971502,1.34,0
0.72666669,1.3335699,1
0.72666669,1.3335699,0
0.72785604,1.34,0
0.72785604,1.34,1
0.87225199,1.34,1
0.87225199,1.34,0
0.12731311,1.3466667,1
0.12731311,1.3466667,0
0.27087972,1.3466667,1
0.27087972,1.3466667,0
0.43006852,1.3466667,1
0.43006852,1.3466667,0
0.56993145,1.3466667,1
0.56993145,1.3466667,0
0.72912031,1.3466667,1
0.72912031,1.3466667,0
0.87268692,1.3466667,1
0.87268692,1.3466667,0
0.12690216,1.3533334,1
0.12690216,1.3533334,0
0.26958427,1.3533334,1
0.26958427,1.3533334,0
0.42985225,1.3533334,1
0.42985225,1.3533334,0
0.57014775,1.3533334,1
0.57014775,1.3533334,0
0.73041576,1.3533334,1
0.73041576,1.3533334,0
0.87309784,1.3533334,1
0.87309784,1.3533334,0
0.12666667,1.3580874,0
0.12666667,1.3580874,1
0.12657163,1.36,1
0.12657163,1.36,0
0.26820904,1.36,1
0.26820904,1.36,0
0.42963624,1.36,1
0.42963624,1.36,0
0.57036376,1.36,1
0.57036376,1.36,0
0.73179096,1.36,1
0.73179096,1.36,0
0.87333333,1.3580874,1
0.87333333,1.3580874,0
0.8734284,1.36,0
0.8734284,1.36,1
0.12630498,1.3666667,1
0.12630498,1.3666667,0
0.26673597,1.3666667,1
0.26673597,1.3666667,0
0.42942053,1.3666667,1
0.42942053,1.3666667,0
0.57057947,1.3666667,1
0.57057947,1.3666667,0
0.73326403,1.3666667,1
0.73326403,1.3666667,0
0.87369502,1.3666667,1
0.87369502,1.3666667,0
0.12605016,1.3733333,1
0.12605016,1.3733333,0
0.26666668,1.3669618,0
0.26524839,1.3733333,1
0.26666668,1.3669618,1
0.26524839,1.3733333,0
0.429205,1.3733333,1
0.429205,1.3733333,0
0.570795,1.3733333,1
0.570795,1.3733333,0
0.73333335,1.3669618,1
0.73333335,1.3669618,0
0.73475164,1.3733333,0
0.73475164,1.3733333,1
0.87394983,1.3733333,1
0.87394983,1.3733333,0
0.12580501,1.38,1
0.12580501,1.38,0
0.26379415,1.38,1
0.26379415,1.38,0
0.42898962,1.38,1
0.42898962,1.38,0
0.57101035,1.38,1
0.57101035,1.38,0
0.73620588,1.38,1
0.73620588,1.38,0
0.87419498,1.38,1
0.87419498,1.38,0
0.12556495,1.3866667,1
0.12556495,1.3866667,0
0.2622897,1.3866667,1
0.2622897,1.3866667,0
0.42877436,1.3866667,1
0.42877436,1.3866667,0
0.57122564,1.3866667,1
0.57122564,1.3866667,0
0.7377103,1.3866667,1
0.7377103,1.3866667,0
0.87443507,1.3866667,1
0.87443507,1.3866667,0
0.12532949,1.3933333,1
0.12532949,1.3933333,0
0.26066953,1.3933333,1
0.26066953,1.3933333,0
0.42855921,1.3933333,1
0.42855921,1.3933333,0
0.57144082,1.3933333,1
0.57144082,1.3933333,0
0.73933047,1.3933333,1
0.73933047,1.3933333,0
0.87467051,1.3933333,1
0.87467051,1.3933333,0
0.12509823,1.4,1
0.12509823,1.4,0
0.25999999,1.3959641,0
0.25898913,1.4,1
0.25999999,1.3959641,1
0.25898913,1.4,0
0.42834422,1.4,1
0.42834422,1.4,0
0.57165575,1.4,1
0.57165575,1.4,0
0.74000001,1.3959641,1
0.74000001,1.3959641,0
0.7410109,1.4,0
0.7410109,1.4,1
0.87490177,1.4,1
0.87490177,1.4,0
0.12487123,1.4066666,1
0.12487123,1.4066666,0
0.25742972,1.4066666,1
0.25742972,1.4066666,0
0.42812943,1.4066666,1
0.42812943,1.4066666,0
0.57187057,1.4066666,1
0.57187057,1.4066666,0
0.74257028,1.4066666,1
0.74257028,1.4066666,0
0.87512875,1.4066666,1
0.87512875,1.4066666,0
0.1246493,1.4133333,1
0.1246493,1.4133333,0
0.25583947,1.4133333,1
0.25583947,1.4133333,0
0.42791474,1.4133333,1
0.42791474,1.4133333,0
0.57208526,1.4133333,1
0.57208526,1.4133333,0
0.74416053,1.4133333,1
0.74416053,1.4133333,0
0.87535071,1.4133333,1
0.87535071,1.4133333,0
0.12443314,1.42,1
0.12443314,1.42,0
0.25411287,1.42,1
0.25411287,1.42,0
0.42770004,1.42,1
0.42770004,1.42,0
0.57229996,1.42,1
0.57229996,1.42,0
0.74588716,1.42,1
0.74588716,1.42,0
0.87556684,1.42,1
0.87556684,1.42,0
0.12422331,1.4266666,1
0.12422331,1.4266666,0
0.25333333,1.422868,0
0.25231415,1.4266666,1
0.25333333,1.422868,1
0.25231415,1.4266666,0
0.4274852,1.4266666,1
0.4274852,1.4266666,0
0.57251477,1.4266666,1
0.57251477,1.4266666,0
0.74666667,1.422868,1
0.74666667,1.422868,0
0.74768585,1.4266666,0
0.74768585,1.4266666,1
0.87577671,1.4266666,1
0.87577671,1.4266666,0
0.12402016,1.4333333,1
0.12402016,1.4333333,0
0.25068116,1.4333333,1
0.25068116,1.4333333,0
0.42727011,1.4333333,1
0.42727011,1.4333333,0
0.57272989,1.4333333,1
0.57272989,1.4333333,0
0.74931884,1.4333333,1
0.74931884,1.4333333,0
0.87597984,1.4333333,1
0.87597984,1.4333333,0
0.12382391,1.4400001,1
0.12382391,1.4400001,0
0.24901961,1.4400001,1
0.24901961,1.4400001,0
0.42705435,1.4400001,1
0.42705435,1.4400001,0
0.57294565,1.4400001,1
0.57294565,1.4400001,0
0.75098038,1.4400001,1
0.75098038,1.4400001,0
0.87617606,1.4400001,1
0.87617606,1.4400001,0
0.12363447,1.4466667,1
0.12363447,1.4466667,0
0.24720749,1.4466667,1
0.24720749,1.4466667,0
0.42683727,1.4466667,1
0.42683727,1.4466667,0
0.57316273,1.4466667,1
0.57316273,1.4466667,0
0.75279248,1.4466667,1
0.75279248,1.4466667,0
0.87636554,1.4466667,1
0.87636554,1.4466667,0
0.12345163,1.4533334,1
0.12345163,1.4533334,0
0.24666667,1.4485428,0
0.24533343,1.4533334,1
0.24666667,1.4485428,1
0.24533343,1.4533334,0
0.42666668,1.4517679,0
0.42666668,1.4517679,1
0.42661408,1.4533334,1
0.42661408,1.4533334,0
0.57333332,1.4517679,1
0.57333332,1.4517679,0
0.57338589,1.4533334,0
0.57338589,1.4533334,1
0.75333333,1.4485428,1
0.75333333,1.4485428,0
0.75466657,1.4533334,0
0.75466657,1.4533334,1
0.87654835,1.4533334,1
0.87654835,1.4533334,0
0.12327553,1.46,1
0.12327553,1.46,0
0.24362083,1.46,1
0.24362083,1.46,0
0.42638117,1.46,1
0.42638117,1.46,0
0.57361883,1.46,1
0.57361883,1.46,0
0.75637919,1.46,1
0.75637919,1.46,0
0.87672448,1.46,1
0.87672448,1.46,0
0.1231058,1.4666667,1
0.1231058,1.4666667,0
0.24183112,1.4666667,1
0.24183112,1.4666667,0
0.42614704,1.4666667,1
0.42614704,1.4666667,0
0.57385296,1.4666667,1
0.57385296,1.4666667,0
0.75816888,1.4666667,1
0.75816888,1.4666667,0
0.87689418,1.4666667,1
0.87689418,1.4666667,0
0.12294148,1.4733334,1
0.12294148,1.4733334,0
0.23999999,1.4729527,0
0.2398812,1.4733334,1
0.23999999,1.4729527,1
0.2398812,1.4733334,0
0.42591816,1.4733334,1
0.42591816,1.4733334,0
0.57408184,1.4733334,1
0.57408184,1.4733334,0
0.75999999,1.4729527,1
0.75999999,1.4729527,0
0.76011878,1.4733334,0
0.76011878,1.4733334,1
0.87705851,1.4733334,1
0.87705851,1.4733334,0
0.1227824,1.48,1
0.1227824,1.48,0
0.23795867,1.48,1
0.23795867,1.48,0
0.42569086,1.48,1
0.42569086,1.48,0
0.57430911,1.48,1
0.57430911,1.48,0
0.76204133,1.48,1
0.76204133,1.48,0
0.87721759,1.48,1
0.87721759,1.48,0
0.12263016,1.4866667,1
0.12263016,1.4866667,0
0.23608461,1.4866667,1
0.23608461,1.4866667,0
0.42546558,1.4866667,1
0.42546558,1.4866667,0
0.57453442,1.4866667,1
0.57453442,1.4866667,0
0.76391536,1.4866667,1
0.76391536,1.4866667,0
0.87736982,1.4866667,1
0.87736982,1.4866667,0
0.12248499,1.4933333,1
0.12248499,1.4933333,0
0.23407307,1.4933333,1
0.23407307,1.4933333,0
0.42524239,1.4933333,1
0.42524239,1.4933333,0
0.57475764,1.4933333,1
0.57475764,1.4933333,0
0.7659269,1.4933333,1
0.7659269,1.4933333,0
0.87751502,1.4933333,1
0.87751502,1.4933333,0
0.12234256,1.5,1
0.12234256,1.5,0
0.23333333,1.4955689,0
0.23190966,1.5,1
0.23333333,1.4955689,1
0.23190966,1.5,0
0.42502102,1.5,1
0.42502102,1.5,0
0.57497895,1.5,1
0.57497895,1.5,0
0.76666665,1.4955689,1
0.76666665,1.4955689,0
0.76809031,1.5,0
0.76809031,1.5,1
0.87765741,1.5,1
0.87765741,1.5,0
0.12220065,1.5066667,1
0.12220065,1.5066667,0
0.22981265,1.5066667,1
0.22981265,1.5066667,0
0.42480147,1.5066667,1
0.42480147,1.5066667,0
0.57519853,1.5066667,1
0.57519853,1.5066667,0
0.77018732,1.5066667,1
0.77018732,1.5066667,0
0.87779933,1.5066667,1
0.87779933,1.5066667,0
0.12207458,1.5133333,1
0.12207458,1.5133333,0
0.2275601,1.5133333,1
0.2275601,1.5133333,0
0.4245837,1.5133333,1
0.4245837,1.5133333,0
0.57541627,1.5133333,1
0.57541627,1.5133333,0
0.7724399,1.5133333,1
0.7724399,1.5133333,0
0.8779254,1.5133333,1
0.8779254,1.5133333,0
0.12200155,1.52,1
0.12200155,1.52,0
0.22666667,1.5157818,0
0.22516766,1.52,1
0.22666667,1.5157818,1
0.22516766,1.52,0
0.42436767,1.52,1
0.42436767,1.52,0
0.57563233,1.52,1
0.57563233,1.52,0
0.77333331,1.5157818,1
0.77333331,1.5157818,0
0.77483231,1.52,0
0.77483231,1.52,1
0.87799841,1.52,1
0.87799841,1.52,0
0.12201874,1.5266666,1