/*--------------------------------*- C++ -*----------------------------------*\
| =========                 |                                                 |
| \\      /  F ield         | OpenFOAM: The Open Source CFD Toolbox           |
|  \\    /   O peration     | Version:  2106                                  |
|   \\  /    A nd           | Website:  www.openfoam.com                      |
|    \\/     M anipulation  |                                                 |
\*---------------------------------------------------------------------------*/
FoamFile
{
    version     2.0;
    format      ascii;
    arch        "LSB;label=32;scalar=64";
    class       surfaceScalarField;
    location    "0.047";
    object      phi;
}
// * * * * * * * * * * * * * * * * * * * * * * * * * * * * * * * * * * * * * //

dimensions      [0 3 -1 0 0 0 0];

oriented        oriented;

internalField   nonuniform List<scalar> 
1984
(
-8.1000177e-05
8.1007036e-05
-0.00015887161
7.7871431e-05
-0.00023059567
7.1724063e-05
-0.00029340337
6.2807696e-05
-0.00034487688
5.147351e-05
-0.00038304304
3.8166164e-05
-0.00040644825
2.3405213e-05
-0.00041421269
7.7644407e-06
-0.00040606041
-8.1522851e-06
-0.0003823267
-2.3733708e-05
-0.00034394189
-3.8384813e-05
-0.00029239299
-5.1548899e-05
-0.00022966478
-6.272821e-05
-0.00015816315
-7.1501625e-05
-8.0623363e-05
-7.7539791e-05
-6.8421924e-09
-8.0616521e-05
8.0609932e-05
-8.0616774e-05
0.00015815048
-7.7540547e-05
0.00022965335
-7.1502867e-05
0.00029238325
-6.2729906e-05
0.00034393425
-5.1550997e-05
0.00038232149
-3.8387239e-05
0.00040605785
-2.3736361e-05
0.0004142129
-8.15505e-06
0.00040645121
7.7616896e-06
0.00038304861
2.34026e-05
0.00034488481
3.81638e-05
0.00029341332
5.1471484e-05
0.00023060725
6.2806072e-05
0.00015888437
7.1722882e-05
8.1013656e-05
7.7870715e-05
8.1006797e-05
-8.291799e-05
0.00016393211
-0.00016263193
0.00015758538
-0.00023605062
0.00014514275
-0.0003003389
0.00012709598
-0.00035302173
0.00010415633
-0.0003920799
7.7224332e-05
-0.00041602691
4.7352224e-05
-0.00042396341
1.5700942e-05
-0.00041560873
-1.6506963e-05
-0.00039130768
-4.8034764e-05
-0.00035201368
-7.7678811e-05
-0.00029924949
-0.00010431309
-0.00023504682
-0.00012693088
-0.00016186784
-0.00014468061
-8.2511299e-05
-0.00015689633
-7.0825771e-09
-0.00016312074
8.2497392e-05
-0.00016312125
0.0001618547
-0.00015689786
0.00023503496
-0.00014468313
0.00029923937
-0.00012693432
0.00035200573
-0.00010431735
0.00039130225
-7.7683755e-05
0.00041560607
-4.8040182e-05
0.00042396363
-1.6512612e-05
0.00041603
1.5695323e-05
0.0003920857
4.7346896e-05
0.00035302998
7.7219521e-05
0.00030034924
0.00010415222
0.00023606262
0.00012709269
0.00016264513
0.00014514037
8.2931912e-05
0.00015758394
0.00016393163
-8.6065637e-05
0.00025000525
-0.00016880421
0.00024032394
-0.00024500574
0.00022134429
-0.0003117268
0.00019381704
-0.00036639844
0.00015882797
-0.00040692573
0.00011775162
-0.0004317673
7.2193795e-05
-0.00043999177
2.3925416e-05
-0.00043130984
-2.5188897e-05
-0.00040608093
-7.3263674e-05
-0.0003652957
-0.00011846403
-0.00031053508
-0.00015907371
-0.00024390766
-0.00019355829
-0.00016796825
-0.00022062003
-8.5620493e-05
-0.00023924408
-7.5382105e-09
-0.00024873369
8.5605682e-05
-0.00024873447
0.00016795423
-0.00023924641
0.00024389498
-0.00022062387
0.00031052423
-0.00019356357
0.00036528716
-0.00015908028
0.00040607508
-0.00011847167
0.00043130697
-7.327207e-05
0.00043999202
-2.5197661e-05
0.00043177063
2.3916704e-05
0.00040693198
7.2185551e-05
0.0003664073
0.00011774421
0.00031173786
0.00015882166
0.00024501853
0.00019381202
0.00016881823
0.00022134067
8.6080401e-05
0.00024032176
0.00025000452
-9.0670883e-05
0.0003406843
-0.00017783487
0.00032748793
-0.00025810836
0.00030161778
-0.00032838954
0.00026409821
-0.00038597219
0.00021641062
-0.0004286507
0.00016043014
-0.0004548035
9.8346594e-05
-0.00046345227
3.2574186e-05
-0.00045429475
-3.4346414e-05
-0.00042771119
-9.9847242e-05
-0.00038474593
-0.00016142929
-0.00032706439
-0.00021675525
-0.0002568874
-0.00026373528
-0.00017690535
-0.00030060208
-9.0175791e-05
-0.00032597364
-8.2596639e-09
-0.00033890122
9.0159548e-05
-0.00033890228
0.00017688994
-0.0003259768
0.0002568734
-0.00030060732
0.00032705236
-0.00026374253
0.00038473641
-0.00021676433
0.00042770465
-0.00016143992
0.00045429154
-9.9858965e-05
0.00046345256
-3.4358675e-05
0.00045480726
3.2562005e-05
0.0004286577
9.8335106e-05
0.00038598204
0.00016041986
0.00032840176
0.00021640194
0.00025812242
0.00026409136
0.00017785021
0.00030161288
9.0686976e-05
0.000327485
0.00034068333
-9.6655096e-05
0.0004373485
-0.00018956901
0.00042040185
-0.00027513195
0.00038718072
-0.00035003618
0.00033900244
-0.00041139744
0.00027777188
-0.00045686703
0.00020589973
-0.00048472022
0.00012619979
-0.00049391873
4.1772696e-05
-0.00048414404
-4.4121105e-05
-0.00045580304
-0.00012818824
-0.00041000887
-0.00020722347
-0.0003485358
-0.00027822832
-0.00027374966
-0.00033852142
-0.0001885167
-0.00038583504
-9.6094509e-05
-0.00041839583
-9.2705701e-09
-0.00043498646
9.6076252e-05
-0.0004349878
0.0001884993
-0.00041839985
0.00027373375
-0.00038584177
0.00034852203
-0.00033853081
0.0004099979
-0.0002782402
0.00045579548
-0.0002072375
0.00048414032
-0.00012820381
0.00049391908
-4.4137435e-05
0.0004847246
4.1756487e-05
0.00045687513
0.00012618457
0.00041140877
0.00020588622
0.00035005011
0.0002777606
0.00027514783
0.00033899365
0.00018958621
0.0003871745
9.6673049e-05
0.00042039816
0.00043734728
-0.00010414622
0.00054150502
-0.00020425629
0.00052051191
-0.00029643589
0.00047936032
-0.00037711903
0.00041968558
-0.00044319927
0.00034385211
-0.00049215057
0.00025485103
-0.00052212169
0.00015617091
-0.00053200204
5.1653047e-05
-0.0005214543
-5.4668843e-05
-0.00049091819
-0.00015872435
-0.00044159105
-0.00025655061
-0.00037538143
-0.00034443794
-0.00029483511
-0.00041906774
-0.00020303762
-0.00047763253
-0.00010349687
-0.00051793658
-1.0586625e-08
-0.00053847274
0.00010347597
-0.00053847436
0.00020301758
-0.00051794146
0.00029481661
-0.00047764079
0.00037536526
-0.00041907946
0.00044157804
-0.00034445299
0.00049090915
-0.0002565686
0.00052144983
-0.00015874449
0.00053200247
-5.469007e-05
0.00052212696
5.1631994e-05
0.00049216025
0.00015615128
0.00044321268
0.0002548338
0.00037713532
0.00034383796
0.00029645422
0.00041967474
0.00020427594
0.00047935279
0.00010416658
0.00052050751
0.00054150357
-0.00011435927
0.00065587606
-0.00022427729
0.00063042994
-0.00032547006
0.00058055309
-0.00041401887
0.00050823439
-0.00048651543
0.00041634867
-0.00054019486
0.00030853045
-0.00057303763
0.00018901368
-0.00058383912
6.2454531e-05
-0.0005722389
-6.6269055e-05
-0.00053871997
-0.00019224328
-0.00048459065
-0.00031067993
-0.00041193915
-0.00041708943
-0.000323554
-0.0005074529
-0.00022281835
-0.00057836818
-0.00011358142
-0.00062717351
-1.2238155e-08
-0.00065204193
0.00011355719
-0.00065204379
0.00022279491
-0.00062717918
0.00032353206
-0.00057837795
0.00041191969
-0.00050746709
0.00048457476
-0.00041710806
0.0005387088
-0.00031070264
0.00057223336
-0.00019226905
0.00058383966
-6.6296377e-05
0.0005730442
6.2427459e-05
0.0005402068
0.00018898868
0.00048653175
0.00030850886
0.00041403838
0.00041633132
0.00032549165
0.00050822147
0.00022430009
0.00058054435
0.00011438264
0.00063042496
0.00065587443
-0.00013092564
0.00078681533
-0.00025675073
0.00075625503
-0.00037255856
0.00069636092
-0.00047385791
0.00060953374
-0.00055675177
0.00049924253
-0.00061809023
0.00036986891
-0.00065558405
0.0002265075
-0.00066788016
7.4750644e-05
-0.00065458273
-7.9566488e-05
-0.00061624098
-0.00023058503
-0.00055433788
-0.00037258303
-0.00047124912
-0.0005001782
-0.00037015439
-0.00060854762
-0.00025491939
-0.00069360317
-0.00012994815
-0.00075214476
-1.4330195e-08
-0.00078197575
0.00012991965
-0.00078197776
0.00025489146
-0.00075215099
0.00037012778
-0.00069361427
0.00047122504
-0.00060856435
0.00055431787
-0.00050020089
0.00061622672
-0.00037261149
0.00065457558
-0.00023061792
0.00066788087
-7.9601668e-05
0.00065559252
7.4715815e-05
0.00061810547
0.00022647572
0.00055677226
0.00036984207
0.00047388191
0.00049922168
0.00037258455
0.00060951883
0.00025677762
0.00069635127
0.00013095283
0.00075624975
0.00078681363
-0.00016147871
0.00094831015
-0.00031664319
0.00091141951
-0.00045941334
0.00083913107
-0.00058424306
0.00073436346
-0.00068633322
0.00060133269
-0.00076182189
0.00044535759
-0.00080791931
0.00027260491
-0.00082299804
8.9829377e-05
-0.00080659582
-9.5968713e-05
-0.00075937702
-0.00027780383
-0.00068314058
-0.00044881947
-0.00058079105
-0.00060252773
-0.00045623059
-0.00073310808
-0.00031421733
-0.00083561643
-0.000160182
-0.00090618009
-1.7133219e-08
-0.00094214061
0.00016014773
-0.00094214263
0.0003141832
-0.00090618645
0.00045619734
-0.00083562841
0.00058076025
-0.00073312727
0.00068311442
-0.00060255506
0.00075935807
-0.00044885514
0.00080658625
-0.00027784609
0.00082299902
-9.6014437e-05
0.00080793069
8.9784145e-05
0.0007618421
0.00027256431
0.0006863599
0.00044532427
0.00058427359
0.00060130799
0.00045944556
0.00073434686
0.00031667575
0.00083912108
0.00016151104
0.00091141446
0.00094830856
-0.00021858734
0.0011669172
-0.00042860125
0.0011214334
-0.00062179647
0.0010323263
-0.00079065746
0.00090322445
-0.00092869513
0.00073937036
-0.0010307077
0.00054737014
-0.001092957
0.00033485424
-0.0011132966
0.00011016897
-0.0010911368
-0.00011812849
-0.0010273442
-0.00034159641
-0.00092430101
-0.0005518627
-0.00078590408
-0.00074092465
-0.00061741194
-0.00090160023
-0.0004252576
-0.0010277708
-0.00021679759
-0.0011146401
-2.1251924e-08
-0.0011589169
0.00021675484
-0.0011589187
0.00042521424
-0.0011146459
0.00061736868
-0.0010277829
0.00078586306
-0.00090162164
0.0009242654
-0.00074095739
0.0010273181
-0.00055190782
0.0010911235
-0.00034165153
0.001113298
-0.00011818895
0.001092973
0.0001101092
0.0010307356
0.00033480167
0.00092873137
0.00054732851
0.00079069794
0.00073934142
0.00062183805
0.00090320675
0.0004286422
0.0010323169
0.00021862719
0.0011214295
0.001166916
-0.00031823249
0.0014851749
-0.00062396977
0.0014271707
-0.00090520559
0.0013135621
-0.0011509924
0.0011490113
-0.0013518835
0.00094026146
-0.001500321
0.0006958076
-0.0015908826
0.00042541586
-0.0016205095
0.00013979583
-0.0015883897
-0.00015024824
-0.0014957136
-0.00043427257
-0.0013458627
-0.00070171353
-0.0011444776
-0.00094230981
-0.00089919542
-0.0011468824
-0.0006193857
-0.0013075805
-0.00031577761
-0.0014182482
-2.7498327e-08
-0.0014746671
0.000315722
-0.0014746682
0.00061932819
-0.001418252
0.00089913657
-0.0013075912
0.0011444204
-0.0011469055
0.001345812
-0.00094234897
0.0014956758
-0.00070177167
0.0015883705
-0.00043434617
0.0016205117
-0.00015033021
0.0015909062
0.00013971478
0.0015003615
0.00042534635
0.0013519351
0.00069575486
0.0011510486
0.00094022792
0.00090526171
0.0011489937
0.00062402355
0.0013135551
0.00031828367
0.0014271694
0.0014851745
-0.00047236824
0.0019575758
-0.00092620759
0.00188101
-0.0013437245
0.001731079
-0.0017086686
0.0015139554
-0.002007003
0.0012385959
-0.0022274967
0.00091630129
-0.0023620639
0.00055998307
-0.0024062378
0.00018396975
-0.0023588867
-0.00019759936
-0.0022216222
-0.00057153705
-0.0019993232
-0.00092401249
-0.0017003559
-0.0012412771
-0.0013360563
-0.001511182
-0.00092036043
-0.0017232764
-0.00046923893
-0.0018693697
-3.6217187e-08
-0.0019438698
0.00046916517
-0.0019438696
0.00092028219
-0.0018693691
0.0013359736
-0.0017232827
0.0017002733
-0.0015112052
0.001999248
-0.0012413236
0.0022215655
-0.00092408923
0.0023588577
-0.00057163838
0.0024062417
-0.00019771417
0.0023621004
0.00018385608
0.0022275581
0.0005598887
0.0020070797
0.00091623327
0.0017087496
0.001238558
0.0013438025
0.0015139407
0.00092627987
0.0017310778
0.00047243491
0.0018810143
0.0019575767
-0.00067243445
0.0026300499
-0.0013185737
0.0025271493
-0.0019131814
0.0023256867
-0.0024331393
0.0020339133
-0.0028584224
0.001663879
-0.0031729814
0.0012308603
-0.0033651146
0.00075211624
-0.0034285468
0.00024740195
-0.0033618262
-0.00026431989
-0.0031668936
-0.00076646964
-0.002850449
-0.0012404571
-0.0024244913
-0.0016672348
-0.0019052022
-0.002030471
-0.0013124918
-0.0023159868
-0.0006691885
-0.0025126729
-4.5030936e-08
-0.0026130133
0.00066909553
-0.0026130102
0.0013123883
-0.0025126618
0.0019050864
-0.0023159807
0.0024243702
-0.002030489
0.0028503339
-0.0016672873
0.0031668052
-0.0012405606
0.0033617808
-0.00076661393
0.0034285535
-0.0002644869
0.0033651736
0.00024723598
0.0031730778
0.00075198454
0.0028585396
0.0012307714
0.0024332577
0.00166384
0.0019132893
0.002033909
0.0013186679
0.0023256992
0.00067251634
0.0025271658
0.0026300535
-0.00086058057
0.0034906715
-0.0016876986
0.0033542674
-0.0024492829
0.0030872709
-0.0031157992
0.0027004296
-0.0036615336
0.0022096133
-0.0040658362
0.0016351629
-0.0043131543
0.0009994343
-0.0043955142
0.00032976189
-0.004311475
-0.00034835918
-0.0040627331
-0.0010152115
-0.0036574876
-0.0016457026
-0.0031114181
-0.0022133044
-0.0024452223
-0.0026966668
-0.0016845995
-0.0030766097
-0.00085895544
-0.003338317
-4.8345688e-08
-0.0034719203
0.00085885348
-0.003471912
0.0016844766
-0.0033382849
0.0024450717
-0.0030765759
0.0031112497
-0.002696667
0.0036573174
-0.002213355
0.0040625988
-0.001645842
0.0043114047
-0.0010154198
0.0043955247
-0.00034860688
0.0043132466
0.00032951404
0.0040659819
0.00099924928
0.0036617059
0.0016350474
0.0031159631
0.0022095828
0.002449421
0.0027004511
0.0016878089
0.0030873113
0.00086066693
0.0033543078
0.0034906793
-0.00089533721
0.0043860426
-0.0017563066
0.0042152368
-0.0025500229
0.0038809872
-0.0032459196
0.0033963264
-0.0038171646
0.0027808583
-0.0042422283
0.0020602266
-0.0045032835
0.0012604895
-0.0045918049
0.0004182832
-0.004507157
-0.00043300707
-0.0042493667
-0.0012730017
-0.0038264572
-0.0020686122
-0.0032558915
-0.00278387
-0.0025591017
-0.0033934567
-0.001763154
-0.0038725574
-0.00089899929
-0.0042024717
-4.156938e-08
-0.0043708781
0.00089891131
-0.0043708649
0.0017630376
-0.0042024112
0.002558941
-0.0038724793
0.0032556984
-0.0033934244
0.003826245
-0.0027839016
0.0042491955
-0.0020687925
0.0045070653
-0.0012732896
0.004591816
-0.00043335763
0.0045034046
0.00041792545
0.0042424102
0.0012602437
0.0038173765
0.0020600811
0.0032461078
0.0027808515
0.0025501677
0.0033963912
0.0017564117
0.0038810673
0.00089540693
0.0042153126
0.0043860523
-0.00052643505
0.0049125038
-0.0010338272
0.0047226289
-0.0015038437
0.0043510037
-0.0019188323
0.003811315
-0.0022625931
0.0031246192
-0.0025223684
0.0023200019
-0.0026850844
0.0014232055
-0.0027443232
0.00047752197
-0.0027002107
-0.00047711957
-0.0025503021
-0.0014229102
-0.002299078
-0.0023198364
-0.001958332
-0.003124616
-0.0015403872
-0.0038114015
-0.0010618482
-0.0043510963
-0.00054163705
-0.0047226828
-3.2802223e-08
-0.0049124823
0.0005415753
-0.004912473
0.001061777
-0.0047226129
0.001540292
-0.0043509942
0.0019582238
-0.0038113563
0.0022989516
-0.0031246294
0.0025502052
-0.0023200461
0.0027001588
-0.0014232432
0.0027443259
-0.00047752477
0.0026851553
0.00047709607
0.0025224665
0.0014229326
0.0022627187
0.0023198289
0.0019189435
0.0031246266
0.001503931
0.0038114038
0.0010338962
0.004351102
0.00052648008
0.0047227288
0.0049125063
0.00054040806
0.0043720692
0.0010594732
0.0042035638
0.0015369395
0.0038735374
0.0019539295
0.003394325
0.0022938949
0.0027846538
0.0025445628
0.0020693339
0.0026941477
0.0012736207
0.002738189
0.00043348061
0.0026791148
-0.00041804537
0.002516773
-0.0012605684
0.0022575752
-0.0020606386
0.0019145595
-0.0027816002
0.001500475
-0.0033973171
0.0010315068
-0.0038821281
0.00052526974
-0.0042164457
3.1486098e-08
-0.0043872441
-0.00052521046
-0.004387231
-0.001031438
-0.0042163853
-0.0015003822
-0.00388205
-0.0019144533
-0.0033972852
-0.0022574504
-0.0027816323
-0.0025166766
-0.0020608199
-0.0026790626
-0.0012608572
-0.0027381911
-0.00041839626
-0.002694218
0.00043312297
-0.0025446607
0.0012733753
-0.0022940209
0.0020691891
-0.0019540415
0.0027846472
-0.0015370277
0.00339439
-0.0010595431
0.0038736174
-0.00054045374
0.0042036394
0.0043720791
0.00089769355
0.0034743417
0.0017606371
0.0033406202
0.0025554469
0.0030787276
0.0032512269
0.0026985451
0.0038209749
0.0022149058
0.0042433156
0.0016469932
0.0045008005
0.0010161358
0.0045854153
0.00034886586
0.0044971058
-0.00032973589
0.0042364694
-0.00099993199
0.0038120144
-0.0016361836
0.003241539
-0.0022111248
0.0025465686
-0.0027023467
0.0017539254
-0.0030894849
0.00089414526
-0.0033566656
4.0682509e-08
-0.0034931395
-0.00089405912
-0.0034931312
-0.0017538109
-0.0033566336
-0.0025464097
-0.0030894512
-0.0032413475
-0.0027023475
-0.0038118035
-0.0022111763
-0.0042362992
-0.0016363242
-0.0044970149
-0.0010001414
-0.0045854273
-0.0003299838
-0.004500922
0.00034861766
-0.004243498
0.0010159512
-0.0038211872
0.0016468783
-0.0032514156
0.0022148756
-0.0025555922
0.0026985666
-0.0017607426
0.0030787678
-0.00089776361
0.0033406604
0.0034743495
0.00085745007
0.0026168503
0.0016817142
0.0025163561
0.0024410526
0.0023193892
0.0031061181
0.0020334795
0.0036512707
0.0016697532
0.0040558624
0.0012424015
0.0043042371
0.00076776111
0.0043882064
0.00026489657
0.004306058
-0.00024758746
0.0040592075
-0.00075308157
0.0036556054
-0.0012325815
0.0031107741
-0.0016662935
0.0024453424
-0.002036915
0.0016849984
-0.0023291409
0.00085923827
-0.0025309054
4.7412798e-08
-0.0026339486
-0.00085913818
-0.0026339456
-0.0016848772
-0.0025308945
-0.0024451932
-0.0023291352
-0.0031106071
-0.0020369337
-0.0036554365
-0.0016663468
-0.0040590746
-0.0012326861
-0.0043059892
-0.00075322692
-0.0043882178
-0.00024775515
-0.0043043305
0.00026473034
-0.0040560088
0.00076762951
-0.0036514433
0.0012423129
-0.0031062822
0.0016697144
-0.0024411909
0.0020334753
-0.0016818248
0.0023194017
-0.00085753683
0.0025163725
0.0026168539
0.0006676071
0.0019492036
0.0013094614
0.0018745018
0.0019008302
0.0017280204
0.0024189418
0.0015153679
0.0028439394
0.0012447557
0.0031596853
0.00092665555
0.0033542061
0.00057324034
0.003420815
0.0001982876
0.0033575688
-0.00018434122
0.0031659025
-0.0005614153
0.0028520713
-0.00091875022
0.0024277495
-0.0012419717
0.0019089566
-0.0015181221
0.0013156811
-0.0017358654
0.00067099549
-0.0018862198
4.4201508e-08
-0.0019629973
-0.00067090417
-0.0019629973
-0.0013155792
-0.0018862195
-0.0019088422
-0.0017358722
-0.0024276298
-0.0015181461
-0.0028519575
-0.0012420191
-0.0031658156
-0.00091882802
-0.0033575249
-0.00056151762
-0.0034208232
-0.0001844568
-0.0033542663
0.00019817343
-0.0031597825
0.00057314571
-0.0028440571
0.00092658743
-0.0024190604
0.0012447177
-0.0019009381
0.0015153531
-0.0013095556
0.0017280191
-0.00066768902
0.001874506
0.0019492045
0.00046730455
0.0014818666
0.00091662665
0.0014251797
0.0013306596
0.0013139875
0.0016934994
0.001152528
0.0019912705
0.00094698456
0.0022126858
0.00070524023
0.0023494149
0.00043651132
0.0023965982
0.00015110422
0.0023526269
-0.00014036985
0.0022186219
-0.00042741037
0.001999028
-0.00069915631
0.0017018957
-0.00094483937
0.0013384135
-0.00115464
0.00092256618
-0.0013200181
0.00047054249
-0.0014341962
3.5421642e-08
-0.0014924903
-0.00047047031
-0.0014924915
-0.00092248948
-0.0014342003
-0.0013383323
-0.0013200293
-0.0017018146
-0.0011546638
-0.0019989543
-0.00094487943
-0.0022185668
-0.00069921547
-0.0023525995
-0.00042748498
-0.0023966035
-0.00014045273
-0.0023494525
0.0001510224
-0.002212748
0.0004364412
-0.0019913476
0.00070518704
-0.0016935805
0.00094695066
-0.0013307376
0.0011525101
-0.00091669871
0.0013139802
-0.00046737094
0.0014251782
0.0014818661
0.000313822
0.0011680196
0.00061559571
0.001123406
0.00089370961
0.0010358736
0.0011375002
0.00090873743
0.0013376573
0.00074682751
0.0014865926
0.00055630491
0.0015787023
0.00034440158
0.0016106273
0.00011917925
0.0015811844
-0.00011092692
0.0014911792
-0.00033740519
0.0013436505
-0.00055162762
0.0011439874
-0.00074517631
0.00089970354
-0.00091035608
0.00062018976
-0.0010405043
0.00031632824
-0.0011303346
2.6693416e-08
-0.0011761887
-0.00031627422
-0.0011761906
-0.00062013382
-0.0011303407
-0.00089964621
-0.0010405169
-0.0011439317
-0.00091037827
-0.0013436012
-0.00074520999
-0.0014911428
-0.00055167382
-0.0015811664
-0.00033746142
-0.0016106307
-0.00011098846
-0.0015787267
0.00011911848
-0.0014866337
0.00034434811
-0.0013377091
0.00055626252
-0.0011375564
0.00074679793
-0.00089376549
0.00090871921
-0.0006156491
0.0010358638
-0.0003138727
0.0011234018
0.0011680183
0.00021375471
0.00095424563
0.00041932447
0.00091783622
0.00060881051
0.00084638752
0.00077495885
0.0007425891
0.00091142777
0.00061035859
0.0010130344
0.0004546983
0.0010759389
0.00028149708
0.0010977945
9.7323608e-05
0.0010777475
-9.087992e-05
0.0010163766
-0.00027603421
0.00091579492
-0.00045104598
0.00077968652
-0.00060906791
0.00061318039
-0.00074384995
0.0004226757
-0.00084999961
0.00021558486
-0.0009232438
2.0298461e-08
-0.00096062415
-0.00021554399
-0.00096062631
-0.00042263416
-0.00092325057
-0.00061313884
-0.00085001226
-0.00077964708
-0.00074387004
-0.00091576073
-0.00060909635
-0.0010163517
-0.00045108289
-0.0010777353
-0.00027607779
-0.0010977968
-9.092697e-05
-0.0010759554
9.7277095e-05
-0.0010130626
0.00028145528
-0.00091146394
0.00045466391
-0.00077499898
0.00061033296
-0.0006088515
0.00074257174
-0.00041936466
0.00084637697
-0.0002137937
0.00091783082
0.00095424391
0.00015695486
0.00079727515
0.0003079145
0.00076687657
0.00044708605
0.00070721597
0.00056914639
0.00062052875
0.00066943351
0.00051007147
0.00074412556
0.00038000625
0.00079037951
0.00023524313
0.00080643638
8.126673e-05
0.0007916469
-7.6090435e-05
0.00074646702
-0.00023085433
0.00067249206
-0.00037707102
0.00057245696
-0.00050903282
0.00045014641
-0.00062153941
0.00031026284
-0.00071011604
0.00015823956
-0.00077122052
1.6203334e-08
-0.00080240079
-0.00015820713
-0.00080240298
-0.00031023048
-0.00077122722
-0.00045011482
-0.00071012791
-0.00057242768
-0.00062155718
-0.00067246723
-0.0005090568
-0.00074644919
-0.00037710094
-0.00079163819
-0.0002308888
-0.00080643793
-7.6127228e-05
-0.00079039115
8.1230319e-05
-0.00074414573
0.00023520986
-0.00066945988
0.00037997806
-0.00056917637
0.00051004945
-0.00044711753
0.00062051289
-0.00030794618
0.00070720562
-0.00015698623
0.00076687087
0.0007972733
0.00012176361
0.00067549895
0.00023888962
0.00064975057
0.00034689242
0.00059921317
0.0004416457
0.00052577547
0.00051952785
0.00043218932
0.00057756006
0.00032197404
0.00061351638
0.00019928681
0.00062600662
6.8776495e-05
0.0006145146
-6.4598414e-05
0.00057940426
-0.00019574399
0.000521937
-0.00031960376
0.00044425375
-0.00043134957
0.00034930384
-0.0005265895
0.00024074052
-0.00060155271
0.00012277663
-0.00065325663
1.2945303e-08
-0.00067963711
-0.00012275085
-0.00067963918
-0.00024071515
-0.00065326292
-0.00034927957
-0.00060156349
-0.00044423171
-0.00052660504
-0.00052191866
-0.00043136984
-0.00057939128
-0.00031962832
-0.00061450831
-0.00019577176
-0.00062600775
-6.4627789e-05
-0.00061352482
6.8747388e-05
-0.00057757482
0.00019925986
-0.00051954743
0.00032195067
-0.00044166839
0.00043217042
-0.00034691677
0.00052576127
-0.00023891463
0.00059920348
-0.00012178876
0.000649745
0.00067549713
0.00010605356
0.00056943442
0.00020807044
0.00054773369
0.00030214473
0.00050513888
0.00038468125
0.00044323895
0.00045252085
0.00036434972
0.00050306083
0.00027143406
0.00053435241
0.00016799523
0.00054517643
5.7952475e-05
0.00053508162
-5.4503603e-05
0.00050440839
-0.00016507076
0.00045428174
-0.00026947711
0.00038658808
-0.00036365591
0.00030390852
-0.00044390995
0.00020942533
-0.00050706951
0.00010679682
-0.00055062812
1.1165769e-08
-0.00057285146
-0.0001067747
-0.00057285332
-0.0002094039
-0.00055063372
-0.00030388846
-0.00050707894
-0.00038657026
-0.00044392324
-0.00045426723
-0.00036367287
-0.00050439826
-0.00026949729
-0.00053507675
-0.00016509328
-0.00054517726
-5.4527282e-05
-0.00053435886
5.792899e-05
-0.00050307228
0.00016797328
-0.00045253634
0.00027141472
-0.00038469964
0.00036433372
-0.00030216499
0.00044322663
-0.00020809175
0.00050513023
-0.00010607536
0.00054772861
0.00056943274
7.9466827e-05
0.00048995968
0.00015592119
0.00047127933
0.00022644645
0.00043461361
0.0002883536
0.00038133181
0.00033927405
0.00031342926
0.00037724974
0.00023345837
0.00040080644
0.00014443853
0.00040901343
4.9745485e-05
0.00040151948
-4.7009645e-05
0.00037856696
-0.00014211825
0.00034099476
-0.00023190491
0.0002902163
-0.00031287745
0.00022816849
-0.00038186213
0.00015724266
-0.00043614368
8.0189228e-05
-0.00047357469
8.0310002e-09
-0.00049267026
-8.0173348e-05
-0.00049267194
-0.00015722735
-0.00047357972
-0.00022815425
-0.00043615204
-0.00029020376
-0.00038187372
-0.00034098463
-0.000312892
-0.00037855996
-0.00023192196
-0.00040151616
-0.00014213708
-0.00040901409
-4.7029357e-05
-0.00040081101
4.972591e-05
-0.00037725781
0.00014442008
-0.00033928499
0.0002334419
-0.00028836665
0.00031341538
-0.00022646091
0.00038132088
-0.00015593647
0.0004346058
-7.9482522e-05
0.00047127466
0.00048995813
8.2126439e-05
0.0004078251
0.00016113206
0.0003922737
0.00023399595
0.00036174973
0.0002979344
0.00031739335
0.00035049737
0.00026086629
0.00038966159
0.00019429416
0.00041390892
0.00012019119
0.00042228545
4.136896e-05
0.00041443829
-3.916249e-05
0.00039063977
-0.00011831973
0.00035177537
-0.0001930405
0.00029931857
-0.00026042065
0.00023527676
-0.00031782033
0.00016211643
-0.00036298334
8.2666779e-05
-0.00039412504
8.1690918e-09
-0.00041001165
-8.265069e-05
-0.00041001308
-0.0001621011
-0.00039412931
-0.00023526275
-0.00036299039
-0.00029930645
-0.00031783002
-0.00035176574
-0.0002604327
-0.00039063318
-0.00019305452
-0.00041443513
-0.00011833512
-0.00042228593
-3.9178565e-05
-0.000413913
4.1352983e-05
-0.00038966898
0.00012017606
-0.00035050763
0.00019428055
-0.00029794696
0.00026085471
-0.00023401022
0.00031738414
-0.00016114749
0.00036174307
-8.2142519e-05
0.00039226969
0.00040782376
4.1951968e-05
0.00036586934
8.2329362e-05
0.00035189631
0.0001196056
0.00032447349
0.00015236836
0.00028463059
0.00017936652
0.00023386814
0.00019955645
0.00017410423
0.00021214547
0.00010760217
0.00021661785
3.6896582e-05
0.000212766
-3.5310636e-05
0.00020070339
-0.00010625712
0.00018086436
-0.00017320148
0.00015398981
-0.0002335461
0.00012110448
-0.000284935
8.3478189e-05
-0.00032535705
4.2577142e-05
-0.00035322399
3.7985133e-09
-0.00036743831
-4.2569644e-05
-0.00036743964
-8.3471015e-05
-0.00035322794
-0.00012109789
-0.00032536352
-0.00015398409
-0.00028494382
-0.00018085982
-0.00023355698
-0.00020070031
-0.00017321402
-0.00021276461
-0.00010627082
-0.00021661826
-3.5324916e-05
-0.00021214765
3.688237e-05
-0.00019956022
0.00010758864
-0.00017937162
0.00017409195
-0.00015237448
0.00023385757
-0.00011961243
0.00028462209
-8.2336632e-05
0.00032446728
-4.1959472e-05
0.00035189253
0.00036586808
9.0633352e-05
0.00027522715
0.00017781907
0.00026471059
0.00025822047
0.00024407209
0.00032876324
0.00021408782
0.00038674222
0.00017588915
0.00042992465
0.00013092181
0.00045663686
8.0889948e-05
0.00046583061
2.7702832e-05
0.00045712343
-2.660345e-05
0.00043082393
-7.9957619e-05
0.00038791784
-0.00013029539
0.00033003721
-0.00017566547
0.00025940034
-0.00021429813
0.00017872688
-0.00024468359
9.1133019e-05
-0.00026563013
8.800773e-09
-0.00027631409
-9.1115738e-05
-0.0002763151
-0.00017871056
-0.00026563312
-0.0002593856
-0.00024468848
-0.00033002464
-0.00021430478
-0.00038790797
-0.00017567365
-0.00043081719
-0.0001303048
-0.00045712014
-7.9967876e-05
-0.00046583092
-2.661413e-05
-0.00045664075
2.7692197e-05
-0.00042993192
8.087981e-05
-0.00038675255
0.00013091258
-0.00032877616
0.00017588118
-0.00025823546
0.00021408139
-0.00017783556
0.00024406737
-9.0650737e-05
0.00026470771
0.00027522618
4.8136301e-05
0.00022708669
9.4459681e-05
0.00021838721
0.00013721426
0.00020131751
0.00017477611
0.00017652597
0.00020570943
0.00014495583
0.00022882186
0.00010780938
0.00024320699
6.650482e-05
0.00024828253
2.2627294e-05
0.00024378623
-2.2107147e-05
0.00022989141
-6.6062803e-05
0.00020710799
-0.00010751198
0.00017629001
-0.00014484749
0.00013861418
-0.0001766223
9.5533377e-05
-0.00020160279
4.872117e-05
-0.00021881792
4.1253189e-09
-0.00022759705
-4.8713068e-05
-0.00022759791
-9.552571e-05
-0.00021882048
-0.00013860724
-0.00020160695
-0.00017628409
-0.00017662792
-0.00020710336
-0.00014485438
-0.00022988829
-0.00010751987
-0.00024378478
-6.6071392e-05
-0.00024828282
-2.2116082e-05
-0.00024320901
2.2618381e-05
-0.00022882549
6.6496292e-05
-0.00020571448
0.00010780157
-0.00017478235
0.00014494905
-0.00013722141
0.00017652045
-9.4467481e-05
0.00020131344
-4.8144485e-05
0.00021838472
0.00022708585
0.00021709436
0.00042589405
0.00061837578
0.00078715733
0.00092575771
0.0010288448
0.001092442
0.0011140877
0.0010929618
0.0010298063
0.00092701622
0.00078852387
0.00061964573
0.0004268785
0.00021764795
2.1567256e-08
-0.00021760563
-0.00042683862
-0.00061960982
-0.00078849332
-0.00092699225
-0.0010297898
-0.0010929535
-0.001114088
-0.0010924508
-0.0010288618
-0.0009257821
-0.00078718818
-0.00061841189
-0.00042593404
-0.00021713673
)
;

boundaryField
{
    leftWall
    {
        type            cyclic;
        value           nonuniform List<scalar> 
32
(
-6.8589705e-09
-7.0823389e-09
-7.5051697e-09
-8.1714842e-09
-9.0992384e-09
-1.0293283e-08
-1.1775676e-08
-1.3633534e-08
-1.6112927e-08
-1.9746528e-08
-2.5212353e-08
-3.2631565e-08
-3.9587885e-08
-4.1099698e-08
-3.3911207e-08
-2.613459e-08
2.6548906e-08
3.4016894e-08
4.1280144e-08
3.9597233e-08
3.2468945e-08
2.4958576e-08
1.9292548e-08
1.562005e-08
1.2583431e-08
1.0976178e-08
7.9097941e-09
8.1469679e-09
3.7889035e-09
8.8428235e-09
4.1546692e-09
2.1580015e-08
)
;
    }
    rightWall
    {
        type            cyclic;
        value           nonuniform List<scalar> 
32
(
6.8589705e-09
7.0823389e-09
7.5051697e-09
8.1714842e-09
9.0992384e-09
1.0293283e-08
1.1775676e-08
1.3633534e-08
1.6112927e-08
1.9746528e-08
2.5212353e-08
3.2631565e-08
3.9587885e-08
4.1099698e-08
3.3911207e-08
2.613459e-08
-2.6548906e-08
-3.4016894e-08
-4.1280144e-08
-3.9597233e-08
-3.2468945e-08
-2.4958576e-08
-1.9292548e-08
-1.562005e-08
-1.2583431e-08
-1.0976178e-08
-7.9097941e-09
-8.1469679e-09