/*--------------------------------*- C++ -*----------------------------------*\
| =========                 |                                                 |
| \\      /  F ield         | OpenFOAM: The Open Source CFD Toolbox           |
|  \\    /   O peration     | Version:  2106                                  |
|   \\  /    A nd           | Website:  www.openfoam.com                      |
|    \\/     M anipulation  |                                                 |
\*---------------------------------------------------------------------------*/
FoamFile
{
    version     2.0;
    format      ascii;
    arch        "LSB;label=32;scalar=64";
    class       volVectorField;
    location    "0.047";
    object      U_0;
}
// * * * * * * * * * * * * * * * * * * * * * * * * * * * * * * * * * * * * * //

dimensions      [0 1 -1 0 0 0 0];

internalField   nonuniform List<vector> 
1024
(
(-0.0013053597 0.0012906587 0)
(-0.0038659713 0.0012407043 0)
(-0.0062769397 0.0011427678 0)
(-0.0084450766 0.0010007157 0)
(-0.010286786 0.0008201411 0)
(-0.011731308 0.00060812642 0)
(-0.012723426 0.00037294552 0)
(-0.013225552 0.00012374924 0)
(-0.013219109 -0.00012985674 0)
(-0.012705064 -0.00037812344 0)
(-0.011703856 -0.00061157128 0)
(-0.010254442 -0.00082132865 0)
(-0.0084128028 -0.00099946313 0)
(-0.0062496801 -0.001139263 0)
(-0.0038479207 -0.0012354789 0)
(-0.0012993103 -0.0012845057 0)
(0.0012988736 -0.0012845097 0)
(0.0038475003 -0.0012354909 0)
(0.0062492916 -0.0011392827 0)
(0.0084124616 -0.00099949011 0)
(0.010254162 -0.00082136201 0)
(0.011703649 -0.00061160981 0)
(0.012704939 -0.00037816558 0)
(0.013219071 -0.00012990064 0)
(0.013225603 0.00012370556 0)
(0.012723564 0.00037290403 0)
(0.011731525 0.00060808884 0)
(0.010287075 0.00082010887 0)
(0.0084454236 0.0010006898 0)
(0.0062773318 0.001142749 0)
(0.0038663938 0.0012406928 0)
(0.0013057974 0.0012906548 0)
(-0.0013362998 0.0039006052 0)
(-0.0039575862 0.0037496131 0)
(-0.0064256225 0.0034535937 0)
(-0.0086449837 0.0030242391 0)
(-0.010530082 0.0024784634 0)
(-0.012008494 0.0018376813 0)
(-0.01302372 0.0011269177 0)
(-0.013537359 0.00037379269 0)
(-0.013530403 -0.00039260467 0)
(-0.01300393 -0.001142847 0)
(-0.011978896 -0.0018482861 0)
(-0.010495207 -0.0024821194 0)
(-0.0086101817 -0.0030203832 0)
(-0.0063962238 -0.0034428042 0)
(-0.0039381127 -0.0037335273 0)
(-0.0013297606 -0.0038816638 0)
(0.0013293086 -0.0038816759 0)
(0.0039376773 -0.0037335637 0)
(0.0063958209 -0.003442864 0)
(0.0086098274 -0.0030204649 0)
(0.010494916 -0.0024822205 0)
(0.01197868 -0.001848403 0)
(0.013003799 -0.0011429749 0)
(0.013530364 -0.00039273797 0)
(0.013537412 0.00037366005 0)
(0.013023864 0.0011267918 0)
(0.012008721 0.0018375674 0)
(0.010530382 0.0024783658 0)
(0.0086453436 0.0030241609 0)
(0.0064260282 0.0034535368 0)
(0.0039580228 0.0037495786 0)
(0.0013367517 0.0039005937 0)
(-0.0013869339 0.0065951334 0)
(-0.0041075277 0.006339777 0)
(-0.0066689922 0.0058391597 0)
(-0.0089722539 0.0051130729 0)
(-0.010928471 0.0041901418 0)
(-0.012462494 0.0031066066 0)
(-0.01351572 0.0019048116 0)
(-0.014048359 0.00063146512 0)
(-0.014040749 -0.00066424479 0)
(-0.013494072 -0.0019325686 0)
(-0.012430116 -0.0031250894 0)
(-0.010890323 -0.0041965161 0)
(-0.0089341858 -0.0051063575 0)
(-0.0066368332 -0.0058203646 0)
(-0.0040862214 -0.0063117539 0)
(-0.0013797693 -0.0065621357 0)
(0.0013792883 -0.0065621562 0)
(0.0040857574 -0.0063118153 0)
(0.006636403 -0.0058204658 0)
(0.0089338064 -0.0051064962 0)
(0.01089001 -0.0041966883 0)
(0.012429883 -0.003125289 0)
(0.013493931 -0.0019327875 0)
(0.014040707 -0.00066447315 0)
(0.014048417 0.00063123802 0)
(0.013515875 0.0019045964 0)
(0.012462738 0.0031064124 0)
(0.010928793 0.0041899761 0)
(0.0089726383 0.0051129407 0)
(0.0066694239 0.0058390639 0)
(0.004107991 0.0063397192 0)
(0.0013874128 0.0065951141 0)
(-0.0014610045 0.0094130464 0)
(-0.0043268769 0.0090484941 0)
(-0.0070250252 0.0083338152 0)
(-0.0094510428 0.0072972913 0)
(-0.011511332 0.0059798208 0)
(-0.013126753 0.0044331787 0)
(-0.014235638 0.0027178431 0)
(-0.014796159 0.00090050067 0)
(-0.014787696 -0.00094864206 0)
(-0.014211565 -0.0027586071 0)
(-0.01309075 -0.0044603217 0)
(-0.011468916 -0.005989182 0)
(-0.0094087188 -0.0072874297 0)
(-0.0069892719 -0.0083062177 0)
(-0.0043031871 -0.0090073482 0)
(-0.0014530323 -0.0093645972 0)
(0.0014525053 -0.0093646264 0)
(0.0043026778 -0.0090074357 0)
(0.0069887979 -0.0083063624 0)
(0.0094082987 -0.0072876289 0)
(0.011468568 -0.0059894306 0)
(0.01309049 -0.0044606113 0)
(0.014211407 -0.0027589258 0)
(0.014787649 -0.00094897485 0)
(0.014796224 0.00090016993 0)
(0.014235812 0.0027175305 0)
(0.013127026 0.0044328979 0)
(0.011511689 0.0059795826 0)
(0.0094514666 0.0072971023 0)
(0.0070254985 0.0083336792 0)
(0.0043273825 0.0090484123 0)
(0.0014615258 0.0094130191 0)
(-0.0015572275 0.012401505 0)
(-0.0046118191 0.01192107 0)
(-0.0074874897 0.010979238 0)
(-0.010072894 0.0096133191 0)
(-0.012268258 0.0078772729 0)
(-0.013989278 0.0058393937 0)
(-0.015170334 0.0035794217 0)
(-0.015766985 0.0011852566 0)
(-0.015757402 -0.0012506249 0)
(-0.015143074 -0.0036347722 0)
(-0.013948513 -0.0058762434 0)
(-0.012220237 -0.0078899813 0)
(-0.010024983 -0.00959993 0)
(-0.0074470198 -0.010941774 0)
(-0.0045850032 -0.011865219 0)
(-0.0015481981 -0.012335741 0)
(0.0015476066 -0.012335779 0)
(0.0045844297 -0.011865334 0)
(0.0074464833 -0.010941965 0)
(0.010024504 -0.009600195 0)
(0.012219837 -0.0078903145 0)
(0.013948213 -0.0058766342 0)
(0.015142891 -0.0036352041 0)
(0.015757348 -0.0012510771 0)
(0.015767062 0.0011848075 0)
(0.015170537 0.0035789988 0)
(0.013989593 0.0058390164 0)
(0.012268666 0.0078769555 0)
(0.010073375 0.0096130697 0)
(0.0074880221 0.01097906 0)
(0.004612384 0.011920964 0)
(0.001557808 0.012401469 0)
(-0.0016776482 0.015602675 0)
(-0.0049683883 0.014997982 0)
(-0.008066115 0.013812603 0)
(-0.010850768 0.012093575 0)
(-0.013214841 0.0099089157 0)
(-0.015067617 0.0073446915 0)
(-0.016338599 0.0045013371 0)
(-0.01698017 0.0014894939 0)
(-0.016969074 -0.0015745427 0)
(-0.016307028 -0.0045733468 0)
(-0.01502041 -0.007392625 0)
(-0.013159238 -0.0099254372 0)
(-0.010795291 -0.012076147 0)
(-0.0080192577 -0.013763864 0)
(-0.0049373377 -0.014925334 0)
(-0.0016671839 -0.015517135 0)
(0.0016665086 -0.015517182 0)
(0.0049366799 -0.014925477 0)
(0.0080186371 -0.013764104 0)
(0.010794731 -0.012076483 0)
(0.013158765 -0.0099258652 0)
(0.015020052 -0.0073931323 0)
(0.016306808 -0.0045739115 0)
(0.016969009 -0.001575136 0)
(0.016980263 0.0014889051 0)
(0.016338843 0.0045007858 0)
(0.015067992 0.0073442041 0)
(0.013215322 0.0099085109 0)
(0.010851327 0.012093262 0)
(0.0080667263 0.013812383 0)
(0.0049690306 0.014997852 0)
(0.0016783048 0.015602632 0)
(-0.0018418579 0.019070465 0)
(-0.00545456 0.01833094 0)
(-0.0088549035 0.016881331 0)
(-0.011910903 0.014779311 0)
(-0.014504512 0.01210826 0)
(-0.016536333 0.0089736408 0)
(-0.017929343 0.0054983995 0)
(-0.018631743 0.0018178604 0)
(-0.018618466 -0.0019259863 0)
(-0.017891566 -0.0055899466 0)
(-0.016479846 -0.0090345669 0)
(-0.014437976 -0.01212925 0)
(-0.011844514 -0.014757145 0)
(-0.008798827 -0.016819375 0)
(-0.0054173882 -0.018238604 0)
(-0.0018293079 -0.018961749 0)
(0.0018285274 -0.018961805 0)
(0.0054166228 -0.018238774 0)
(0.008798096 -0.016819665 0)
(0.011843845 -0.014757559 0)
(0.014437402 -0.012129785 0)
(0.016479406 -0.0090352114 0)
(0.017891294 -0.0055906717 0)
(0.018618385 -0.0019267519 0)
(0.018631859 0.0018171014 0)
(0.017929645 0.0054976942 0)
(0.016536794 0.0089730254 0)
(0.014505093 0.012107758 0)
(0.011911567 0.01477893 0)
(0.0088556177 0.016881069 0)
(0.0054553002 0.018330789 0)
(0.0018426088 0.019070416 0)
(-0.0021084563 0.022926549 0)
(-0.0062438112 0.022036707 0)
(-0.010135327 0.020292599 0)
(-0.013631628 0.017763903 0)
(-0.016597561 0.014551321 0)
(-0.018919701 0.010782123 0)
(-0.020510507 0.0066044682 0)
(-0.021311523 0.002181188 0)
(-0.02129489 -0.00231736 0)
(-0.020463153 -0.0067197542 0)
(-0.018848881 -0.010858843 0)
(-0.016514127 -0.014577747 0)
(-0.01354835 -0.017735982 0)
(-0.010064965 -0.020214577 0)
(-0.006197142 -0.021920434 0)
(-0.0020926524 -0.022789656 0)
(0.0020917388 -0.022789719 0)
(0.0061962378 -0.021920627 0)
(0.010064087 -0.020214914 0)
(0.01354753 -0.017736477 0)
(0.016513409 -0.014578404 0)
(0.01884832 -0.010859653 0)
(0.020462802 -0.0067206789 0)
(0.021294784 -0.0023183435 0)
(0.021311675 0.0021802138 0)
(0.020510897 0.0066035723 0)
(0.018920286 0.010781355 0)
(0.016598285 0.014550712 0)
(0.013632436 0.017763456 0)
(0.010136177 0.020292301 0)
(0.0062446766 0.02203654 0)
(0.0021093254 0.022926495 0)
(-0.0026006659 0.027452148 0)
(-0.0077009727 0.026385248 0)
(-0.012499473 0.024294399 0)
(-0.016809044 0.021263646 0)
(-0.020462976 0.017414406 0)
(-0.023321877 0.012899975 0)
(-0.025278694 0.0078983897 0)
(-0.026262626 0.0026049162 0)
(-0.026240645 -0.0027771855 0)
(-0.025216106 -0.0080442459 0)
(-0.023228244 -0.012997052 0)
(-0.020352611 -0.017447847 0)
(-0.016698831 -0.021228316 0)
(-0.012406305 -0.024195674 0)
(-0.0076391265 -0.026238126 0)
(-0.0025796433 -0.027278929 0)
(0.0025785514 -0.027278995 0)
(0.0076380334 -0.026238333 0)
(0.01240522 -0.024196049 0)
(0.016697794 -0.021228892 0)
(0.020351681 -0.017448643 0)
(0.023227502 -0.012998064 0)
(0.025215636 -0.0080454266 0)
(0.026240503 -0.0027784537 0)
(0.026262832 0.002603661 0)
(0.025279216 0.0078972514 0)
(0.023322648 0.012899024 0)
(0.02046391 0.017413679 0)
(0.01681006 0.021263137 0)
(0.012500514 0.024294078 0)
(0.007702008 0.026385077 0)
(0.0026016925 0.027452094 0)
(-0.0035214521 0.033267864 0)
(-0.010427019 0.031972663 0)
(-0.01692283 0.029434903 0)
(-0.022755098 0.025757405 0)
(-0.027698028 0.021088703 0)
(-0.031563456 0.015616084 0)
(-0.034207416 0.0095563541 0)
(-0.035535651 0.0031468036 0)
(-0.035505432 -0.0033675914 0)
(-0.034121333 -0.0097433212 0)
(-0.031434619 -0.015740565 0)
(-0.027546096 -0.021131619 0)
(-0.022603299 -0.025712134 0)
(-0.016794449 -0.029308318 0)
(-0.010341731 -0.031784004 0)
(-0.0034923562 -0.033045728 0)
(0.0034910027 -0.033045792 0)
(0.010340359 -0.031784206 0)
(0.016793055 -0.029308712 0)
(0.022601932 -0.025712787 0)
(0.02754484 -0.021132573 0)
(0.031433599 -0.015741836 0)
(0.03412068 -0.0097448458 0)
(0.035505234 -0.0033692496 0)
(0.035535942 0.0031451634 0)
(0.034208146 0.0095548931 0)
(0.031564516 0.015614902 0)
(0.027699285 0.021087848 0)
(0.022756427 0.02575685 0)
(0.016924156 0.029434583 0)
(0.010428304 0.031972511 0)
(0.0035227092 0.033267816 0)
(-0.0051289903 0.041443743 0)
(-0.015186535 0.039826842 0)
(-0.024646859 0.036659527 0)
(-0.033140127 0.032071283 0)
(-0.040337328 0.026249228 0)
(-0.045964707 0.019429064 0)
(-0.049812937 0.011882484 0)
(-0.0517461 0.0039066925 0)
(-0.051704714 -0.0041953728 0)
(-0.049695029 -0.012127004 0)
(-0.045788193 -0.019591964 0)
(-0.040129111 -0.026305475 0)
(-0.032932048 -0.032012113 0)
(-0.024470849 -0.036493908 0)
(-0.015069586 -0.039579956 0)
(-0.00508903 -0.041153035 0)
(0.00508728 -0.041153087 0)
(0.015067788 -0.039580126 0)
(0.024468976 -0.03649429 0)
(0.032930163 -0.032012834 0)
(0.040127338 -0.026306617 0)
(0.045786724 -0.019593581 0)
(0.049694082 -0.012129007 0)
(0.051704429 -0.0041975823 0)
(0.051746535 0.0039045077 0)
(0.049814007 0.01188058 0)
(0.045966232 0.019427581 0)
(0.0403391 0.026248229 0)
(0.033141948 0.032070704 0)
(0.024648623 0.036659245 0)
(0.015188199 0.039826741 0)
(0.0051305939 0.041443711 0)
(-0.0076165732 0.053649027 0)
(-0.02255213 0.05155204 0)
(-0.036602017 0.047445268 0)
(-0.049217462 0.041497674 0)
(-0.059909508 0.033953873 0)
(-0.068271363 0.025122165 0)
(-0.073990811 0.015356004 0)
(-0.07686618 0.0050442134 0)
(-0.076813444 -0.0054241945 0)
(-0.073840521 -0.015677923 0)
(-0.068046274 -0.025336704 0)
(-0.059643862 -0.034028004 0)
(-0.048951955 -0.041419638 0)
(-0.036377465 -0.047226898 0)
(-0.02240299 -0.051226562 0)
(-0.0075656645 -0.05326585 0)
(0.0075633621 -0.053265874 0)
(0.022400585 -0.051226645 0)
(0.036374873 -0.047227206 0)
(0.048949266 -0.041420402 0)
(0.059641258 -0.03402937 0)
(0.068044072 -0.025338809 0)
(0.073839092 -0.015680631 0)
(0.076813019 -0.0054272294 0)
(0.076866865 0.0050412111 0)
(0.073992456 0.015353459 0)
(0.06827366 0.02512027 0)
(0.059912109 0.033952723 0)
(0.049220042 0.041497124 0)
(0.036604428 0.047445097 0)
(0.022554323 0.051552054 0)
(0.0076186462 0.053649026 0)
(-0.010846206 0.071686865 0)
(-0.032115811 0.068881571 0)
(-0.052128678 0.063388815 0)
(-0.070105173 0.055434699 0)
(-0.085348268 0.045348019 0)
(-0.097277631 0.033544384 0)
(-0.10544314 0.020496532 0)
(-0.10955439 0.0067340047 0)
(-0.10949988 -0.0072264437 0)
(-0.10528763 -0.020913896 0)
(-0.097044294 -0.033822549 0)
(-0.08507219 -0.04544387 0)
(-0.069828968 -0.05533317 0)
(-0.051895069 -0.063105393 0)
(-0.031960846 -0.068459404 0)
(-0.010793609 -0.071190193 0)
(0.010790752 -0.071190164 0)
(0.031957764 -0.068459295 0)
(0.051891539 -0.063105497 0)
(0.069825106 -0.055333907 0)
(0.085068274 -0.045445482 0)
(0.097040869 -0.033825357 0)
(0.10528538 -0.020917669 0)
(0.10949922 -0.0072307464 0)
(0.10955551 0.0067297403 0)
(0.10544577 0.020493045 0)
(0.097281206 0.033541919 0)
(0.085352172 0.04534674 0)
(0.070108844 0.055434299 0)
(0.052131912 0.063388898 0)
(0.032118562 0.068881825 0)
(0.010848715 0.071686918 0)
(-0.013883516 0.096744569 0)
(-0.041111941 0.092960342 0)
(-0.066742067 0.085551848 0)
(-0.089780649 0.074821002 0)
(-0.10933439 0.061210683 0)
(-0.12465933 0.045284016 0)
(-0.13516509 0.027671257 0)
(-0.14046758 0.0091102901 0)
(-0.14043981 -0.0096997789 0)
(-0.13508593 -0.028172016 0)
(-0.12454108 -0.045620161 0)
(-0.10919527 -0.0613303 0)
(-0.089640695 -0.074702563 0)
(-0.066623187 -0.085214086 0)
(-0.041033448 -0.092454866 0)
(-0.013857805 -0.096148545 0)
(0.013854747 -0.096148386 0)
(0.041029979 -0.092454272 0)
(0.06661879 -0.085213588 0)
(0.089635486 -0.074702972 0)
(0.10918962 -0.061332032 0)
(0.12453591 -0.045623981 0)
(0.13508247 -0.028177488 0)
(0.14043876 -0.009706175 0)
(0.14046935 0.0091039119 0)
(0.13516916 0.027666313 0)
(0.12466469 0.045280779 0)
(0.10934 0.061209473 0)
(0.089785542 0.074821137 0)
(0.066746026 0.08555257 0)
(0.041114959 0.092961153 0)
(0.013886109 0.096744737 0)
(-0.014442766 0.12620398 0)
(-0.042775269 0.12127155 0)
(-0.069468048 0.11161903 0)
(-0.093498109 0.097633849 0)
(-0.11393753 0.0798887 0)
(-0.13001524 0.059122052 0)
(-0.14108435 0.036133287 0)
(-0.14670588 0.011933161 0)
(-0.14677058 -0.01255354 0)
(-0.14126817 -0.036658991 0)
(-0.13028953 -0.059471503 0)
(-0.11425942 -0.08000919 0)
(-0.093816196 -0.097507857 0)
(-0.069732692 -0.11126394 0)
(-0.042949752 -0.1207401 0)
(-0.014503803 -0.12558171 0)
(0.014501193 -0.12558134 0)
(0.042946694 -0.12073866 0)
(0.069728264 -0.11126232 0)
(0.093810428 -0.09750753 0)
(0.11425261 -0.080010748 0)
(0.13028294 -0.059476593 0)
(0.14126368 -0.036666774 0)
(0.14676914 -0.012562859 0)
(0.14670819 0.011923774 0)
(0.14108958 0.036126452 0)
(0.13002193 0.059117892 0)
(0.11394425 0.079887904 0)
(0.093503479 0.097635025 0)
(0.069471998 0.11162085 0)
(0.042777865 0.12127331 0)
(0.014444882 0.1262043 0)
(-0.0084823344 0.15581366 0)
(-0.025142252 0.14976751 0)
(-0.040894215 0.13794017 0)
(-0.055161717 0.12077463 0)
(-0.067393635 0.098952078 0)
(-0.077132417 0.07339431 0)
(-0.083953072 0.044945416 0)
(-0.087524102 0.014970242 0)
(-0.087774706 -0.01528132 0)
(-0.084666115 -0.045212919 0)
(-0.078198662 -0.073578688 0)
(-0.068650775 -0.099027528 0)
(-0.056420116 -0.12072708 0)
(-0.041963587 -0.13777262 0)
(-0.025857683 -0.14950443 0)
(-0.0087359176 -0.15549065 0)
(0.0087338759 -0.15549027 0)
(0.025855715 -0.14950209 0)
(0.041960952 -0.13776927 0)
(0.056416829 -0.12072547 0)
(0.06864682 -0.099027932 0)
(0.078194774 -0.073585269 0)
(0.084663555 -0.045223577 0)
(0.08777381 -0.015294377 0)
(0.087525431 0.014956632 0)
(0.083956031 0.044936604 0)
(0.077136234 0.073388951 0)
(0.067397632 0.098952405 0)
(0.055164893 0.12077757 0)
(0.040896674 0.13794341 0)
(0.025143932 0.14977069 0)
(0.0084839438 0.15581384 0)
(0.0087151433 0.15550066 0)
(0.025799834 0.14951167 0)
(0.041869932 0.13777788 0)
(0.056293704 0.12073152 0)
(0.068496232 0.099033523 0)
(0.078022522 0.073588325 0)
(0.084475828 0.045225143 0)
(0.087578165 0.015295218 0)
(0.087329291 -0.014958146 0)
(0.083767034 -0.044938548 0)
(0.076961727 -0.073393438 0)
(0.067244184 -0.09895798 0)
(0.055038644 -0.12078479 0)
(0.040802477 -0.13795166 0)
(0.02508593 -0.14977854 0)
(0.0084645201 -0.15582272 0)
(-0.0084625609 -0.15582234 0)
(-0.025084036 -0.1497762 0)
(-0.04079992 -0.13794831 0)
(-0.055035427 -0.12078319 0)
(-0.067240285 -0.098958394 0)
(-0.076957876 -0.073400041 0)
(-0.083764474 -0.044949223 0)
(-0.087328374 -0.01497121 0)
(-0.087579473 0.01528161 0)
(-0.084478772 0.045216344 0)
(-0.078026346 0.073582982 0)
(-0.068500253 0.099033857 0)
(-0.056296905 0.12073446 0)
(-0.041872421 0.13778113 0)
(-0.025801534 0.14951484 0)
(-0.0087167778 0.15550084 0)
(0.014481671 0.12564904 0)
(0.042888442 0.12080373 0)
(0.06963343 0.11132225 0)
(0.093682196 0.097559665 0)
(0.11409576 0.080053872 0)
(0.13010346 0.059508471 0)
(0.14106808 0.036686521 0)
(0.1465652 0.012569946 0)
(0.14650367 -0.011930192 0)
(0.14089245 -0.036145542 0)
(0.12983993 -0.059149651 0)
(0.11378431 -0.079930823 0)
(0.09337197 -0.097687725 0)
(0.069373958 -0.11168119 0)
(0.042717482 -0.12133854 0)
(0.014424663 -0.1262724 0)
(-0.01442211 -0.12627204 0)
(-0.042714485 -0.12133711 0)
(-0.06936959 -0.11167956 0)
(-0.093366259 -0.097687413 0)
(-0.11377756 -0.079932403 0)
(-0.12983338 -0.059154783 0)
(-0.14088798 -0.036153366 0)
(-0.14650226 -0.011939536 0)
(-0.14656754 0.012560564 0)
(-0.14107332 0.036679705 0)
(-0.13011016 0.059504336 0)
(-0.11410249 0.080053086 0)
(-0.093687581 0.097560842 0)
(-0.069637393 0.11132407 0)
(-0.04289105 0.12080548 0)
(-0.014483795 0.12564936 0)
(0.013832244 0.096229872 0)
(0.040962896 0.092532644 0)
(0.066509623 0.085285891 0)
(0.089488133 0.074766337 0)
(0.1090096 0.061384402 0)
(0.12433005 0.045663064 0)
(0.13485849 0.028201936 0)
(0.14020544 0.0097150945 0)
(0.14023567 -0.0091111936 0)
(0.13494423 -0.027689339 0)
(0.12445733 -0.045319051 0)
(0.10915817 -0.061261484 0)
(0.089636305 -0.074885023 0)
(0.066635063 -0.085625819 0)
(0.041046678 -0.093040719 0)
(0.013863199 -0.096827695 0)
(-0.013860201 -0.096827538 0)
(-0.041043268 -0.093040129 0)
(-0.066630717 -0.08562533 0)
(-0.089631141 -0.074885454 0)
(-0.10915256 -0.061263246 0)
(-0.12445219 -0.04532291 0)
(-0.13494081 -0.027694848 0)
(-0.14023466 -0.009117613 0)
(-0.14020725 0.009708717 0)
(-0.13486259 0.028197005 0)
(-0.12433543 0.045659844 0)
(-0.10901522 0.061383203 0)
(-0.089493032 0.074766475 0)
(-0.06651359 0.085286613 0)
(-0.040965926 0.092533451 0)
(-0.013834849 0.096230042 0)
(0.01076687 0.071364471 0)
(0.031886682 0.068626944 0)
(0.051775915 0.063260123 0)
(0.069669196 0.055469579 0)
(0.084877929 0.045557167 0)
(0.096823294 0.033908683 0)
(0.10504877 0.020969471 0)
(0.10925265 0.007249017 0)
(0.10930845 -0.0067459168 0)
(0.10520776 -0.020543066 0)
(0.097061492 -0.033624129 0)
(0.085159303 -0.045458041 0)
(0.069950368 -0.0555705 0)
(0.052014025 -0.063544734 0)
(0.032045962 -0.069051164 0)
(0.010824294 -0.071863224 0)
(-0.010821489 -0.071863198 0)
(-0.032042932 -0.069051063 0)
(-0.052010541 -0.063544853 0)
(-0.069946549 -0.055571261 0)
(-0.085155429 -0.045459684 0)
(-0.097058113 -0.033626973 0)
(-0.10520556 -0.020546869 0)
(-0.10930783 -0.0067502406 0)
(-0.10925381 0.0072447381 0)
(-0.10505143 0.020965978 0)
(-0.09682689 0.033906219 0)
(-0.084881843 0.045555888 0)
(-0.069672871 0.055469177 0)
(-0.05177915 0.063260204 0)
(-0.031889435 0.068627195 0)
(-0.01076938 0.071364524 0)
(0.0075334526 0.053412319 0)
(0.022311741 0.051367627 0)
(0.036230413 0.047357477 0)
(0.048754568 0.041535051 0)
(0.059403648 0.034124102 0)
(0.067772532 0.025409921 0)
(0.073543929 0.015725309 0)
(0.076505531 0.0054436253 0)
(0.076558873 -0.0050539834 0)
(0.073695848 -0.01539507 0)
(0.067999954 -0.025189389 0)
(0.059671959 -0.0340468 0)
(0.049022786 -0.041612614 0)
(0.03645776 -0.047577529 0)
(0.022463994 -0.051696189 0)
(0.0075881988 -0.053799191 0)
(-0.0075859474 -0.053799218 0)
(-0.022461639 -0.05169628 0)
(-0.036455216 -0.047577852 0)
(-0.049020143 -0.041613399 0)
(-0.059669403 -0.034048192 0)
(-0.0679978 -0.025191525 0)
(-0.073694469 -0.015397806 0)
(-0.076558495 -0.0050570429 0)
(-0.076506256 0.0054406043 0)
(-0.073545605 0.015722752 0)
(-0.067774848 0.025408019 0)
(-0.059406257 0.034122946 0)
(-0.048757148 0.041534497 0)
(-0.036232818 0.047357303 0)
(-0.022313925 0.051367638 0)
(-0.0075355154 0.053412317 0)
(0.0050567501 0.041490952 0)
(0.014977165 0.039905206 0)
(0.024321604 0.03679427 0)
(0.032731492 0.032276309 0)
(0.039884759 0.02652354 0)
(0.045509318 0.019755566 0)
(0.049392311 0.012229728 0)
(0.051389725 0.004233018 0)
(0.051430949 -0.0039359934 0)
(0.049509695 -0.011977927 0)
(0.045685018 -0.019587287 0)
(0.040092035 -0.02646427 0)
(0.032938754 -0.032334839 0)
(0.024497386 -0.036961289 0)
(0.015094974 -0.04015494 0)
(0.0050991252 -0.041785286 0)
(-0.0050974268 -0.041785342 0)
(-0.015093228 -0.040155122 0)
(-0.024495562 -0.03696169 0)
(-0.032936917 -0.032335586 0)
(-0.040090309 -0.026465444 0)
(-0.045683595 -0.01958894 0)
(-0.049508791 -0.011979965 0)
(-0.051430702 -0.0039382369 0)
(-0.051390191 0.0042308026 0)
(-0.049393404 0.012227797 0)
(-0.045510856 0.01975406 0)
(-0.039886534 0.026522522 0)
(-0.032733309 0.032275713 0)
(-0.024323358 0.036793976 0)
(-0.014978815 0.039905097 0)
(-0.0050583376 0.041490917 0)
(0.0034427015 0.033106389 0)
(0.010197132 0.031842884 0)
(0.016560274 0.029363571 0)
(0.022288354 0.025761962 0)
(0.027162295 0.021174277 0)
(0.030996573 0.015774387 0)
(0.033645839 0.0097667523 0)
(0.035010683 0.0033793322 0)
(0.035040725 -0.0031477362 0)
(0.033731369 -0.0095704463 0)
(0.031124591 -0.015643233 0)
(0.027313331 -0.021128114 0)
(0.022439409 -0.025807626 0)
(0.01668845 -0.029493844 0)
(0.010283108 -0.032037747 0)
(0.0034736802 -0.033336159 0)
(-0.0034723875 -0.033336225 0)
(-0.010281796 -0.032037956 0)
(-0.016687112 -0.029494251 0)
(-0.022438094 -0.025808297 0)
(-0.027312124 -0.021129091 0)
(-0.031123614 -0.015644531 0)
(-0.033730753 -0.0095719987 0)
(-0.035040558 -0.003149422 0)
(-0.035010995 0.0033776667 0)
(-0.033646581 0.0097652689 0)
(-0.030997634 0.015773186 0)
(-0.027163544 0.021173406 0)
(-0.022289669 0.025761394 0)
(-0.016561577 0.029363243 0)
(-0.010198391 0.031842726 0)
(-0.0034439297 0.03310634 0)
(0.0025271842 0.028232555 0)
(0.0074857376 0.027155583 0)
(0.01215765 0.025042025 0)
(0.016364176 0.021971275 0)
(0.019944487 0.01805897 0)
(0.022762012 0.013452826 0)
(0.024709472 0.0083269439 0)
(0.025712877 0.0028756533 0)
(0.025733936 -0.0026948587 0)
(0.024769403 -0.0081736376 0)
(0.022851694 -0.013350255 0)
(0.020050256 -0.018022572 0)
(0.016469946 -0.02200637 0)
(0.012247438 -0.025143008 0)
(0.0075460186 -0.027306902 0)
(0.0025489943 -0.028411118 0)
(-0.0025479617 -0.028411191 0)
(-0.0075449837 -0.027307129 0)
(-0.012246408 -0.025143417 0)
(-0.01646896 -0.022006991 0)
(-0.020049372 -0.018023422 0)
(-0.022850992 -0.013351329 0)
(-0.024768965 -0.0081748852 0)
(-0.025733817 -0.0026961953 0)
(-0.025713095 0.0028743308 0)
(-0.024709998 0.0083257416 0)
(-0.022762777 0.013451816 0)
(-0.019945407 0.018058192 0)
(-0.01636517 0.021970725 0)
(-0.012158665 0.025041673 0)
(-0.0074867433 0.027155392 0)
(-0.0025281793 0.028232494 0)
(0.0019602725 0.022216099 0)
(0.0058067486 0.021369725 0)
(0.0094314745 0.019708479 0)
(0.012696009 0.017294366 0)
(0.01547559 0.014217743 0)
(0.017663953 0.010594181 0)
(0.019177368 0.006560193 0)
(0.019957592 0.0022684463 0)
(0.019974174 -0.002118296 0)
(0.019224557 -0.0064329142 0)
(0.017734578 -0.01050912 0)
(0.015558894 -0.014187787 0)
(0.012779324 -0.017323956 0)
(0.0095022233 -0.019792989 0)
(0.0058542651 -0.021496216 0)
(0.0019774764 -0.022365325 0)
(-0.0019766511 -0.022365389 0)
(-0.0058534465 -0.021496412 0)
(-0.0095014238 -0.01979333 0)
(-0.012778574 -0.017324457 0)
(-0.015558237 -0.014188452 0)
(-0.017734065 -0.010509939 0)
(-0.019224241 -0.0064338489 0)
(-0.019974089 -0.0021192891 0)
(-0.01995775 0.0022674634 0)
(-0.01917775 0.0065592897 0)
(-0.017664515 0.010593408 0)
(-0.015476278 0.01421713 0)
(-0.012696769 0.017293916 0)
(-0.0094322679 0.019708179 0)
(-0.0058075505 0.021369556 0)
(-0.0019610744 0.022216044 0)
(0.0017075218 0.021783635 0)
(0.0050580975 0.020952666 0)
(0.0082156255 0.019321746 0)
(0.011059515 0.016951954 0)
(0.013481016 0.013932258 0)
(0.015387333 0.010376406 0)
(0.016705223 0.0064187524 0)
(0.017383642 0.0022094978 0)
(0.017395763 -0.0020910323 0)
(0.016739727 -0.0063182547 0)
(0.015438988 -0.01030907 0)
(0.013541959 -0.013908213 0)
(0.011120488 -0.016974686 0)
(0.008267428 -0.019387637 0)
(0.0050929292 -0.021051577 0)
(0.0017202073 -0.021900454 0)
(-0.0017194953 -0.021900526 0)
(-0.0050922307 -0.021051792 0)
(-0.0082667596 -0.019388 0)
(-0.011119876 -0.016975199 0)
(-0.013541434 -0.013908869 0)
(-0.015438587 -0.010309851 0)
(-0.016739482 -0.0063191283 0)
(-0.017395697 -0.0020919518 0)
(-0.017383761 0.0022085855 0)
(-0.016705516 0.0064179 0)
(-0.015387772 0.010375655 0)
(-0.013481566 0.013931638 0)
(-0.01106014 0.016951477 0)
(-0.0082162941 0.019321412 0)
(-0.0050587885 0.02095247 0)
(-0.0017082215 0.02178357 0)
(0.0012793459 0.013518838 0)
(0.0037899259 0.013004712 0)
(0.0061564484 0.011995405 0)
(0.0082888072 0.010528261 0)
(0.010105593 0.0086577678 0)
(0.011537099 0.0064537413 0)
(0.012528115 0.0039988978 0)
(0.013039845 0.0013859362 0)
(0.013051687 -0.0012857884 0)
(0.01256182 -0.0039140252 0)
(0.011587535 -0.0063970423 0)
(0.010165073 -0.0086378539 0)
(0.0083482981 -0.010548092 0)
(0.0062069591 -0.01205193 0)
(0.0038238308 -0.013089314 0)
(0.0012915787 -0.013618657 0)
(-0.0012910667 -0.0136187 0)
(-0.0038233301 -0.013089444 0)
(-0.006206483 -0.01205215 0)
(-0.0083478653 -0.010548401 0)
(-0.010164705 -0.008638248 0)
(-0.011587256 -0.0063975108 0)
(-0.012561652 -0.0039145474 0)
(-0.013051644 -0.0012863371 0)
(-0.01303993 0.0013853927 0)
(-0.012528321 0.0039983903 0)
(-0.011537408 0.006453295 0)
(-0.010105981 0.008657399 0)
(-0.0082892512 0.010527977 0)
(-0.0061569266 0.011995206 0)
(-0.0037904225 0.013004596 0)
(-0.0012798502 0.0135188 0)
(0.0013221232 0.019242837 0)
(0.003916529 0.018507614 0)
(0.0063617103 0.017064744 0)
(0.008564359 0.014968531 0)
(0.010440227 0.01229803 0)
(0.011917271 0.0091542196 0)
(0.01293848 0.0056563986 0)
(0.013464033 0.0019376714 0)
(0.01347284 -0.0018597433 0)
(0.012963555 -0.0055902412 0)
(0.011954794 -0.009109794 0)
(0.010484499 -0.012282006 0)
(0.0086086729 -0.014983188 0)
(0.0063993693 -0.017107769 0)
(0.0039418679 -0.018572369 0)
(0.0013313618 -0.019319402 0)
(-0.0013308409 -0.019319471 0)
(-0.0039413629 -0.018572577 0)
(-0.0063988966 -0.017108111 0)
(-0.0086082513 -0.014983656 0)
(-0.010484147 -0.012282586 0)
(-0.011954531 -0.0091104668 0)
(-0.012963397 -0.005590979 0)
(-0.013472797 -0.0018605135 0)
(-0.013464107 0.001936905 0)
(-0.012938667 0.0056556709 0)
(-0.011917557 0.0091535623 0)
(-0.010440596 0.012297467 0)
(-0.0085647916 0.014968081 0)
(-0.006362188 0.017064417 0)
(-0.003917035 0.018507416 0)
(-0.0013226427 0.019242771 0)
(0.00067527542 0.005097685 0)
(0.0020006778 0.0049050564 0)
(0.0032507937 0.0045267121 0)
(0.0043783922 0.0039762889 0)
(0.0053406139 0.0032737696 0)
(0.0061005222 0.0024448852 0)
(0.0066285072 0.0015202588 0)
(0.0069034694 0.00053449343 0)
(0.0069137636 -0.00047508974 0)
(0.0066578232 -0.0014699403 0)
(0.0061443872 -0.0024112968 0)
(0.0053923801 -0.0032620832 0)
(0.0044301793 -0.0039882489 0)
(0.0032947139 -0.0045605205 0)
(0.0020301048 -0.0049555876 0)
(0.00068576918 -0.0051572702 0)
(-0.00068552695 -0.0051572855 0)
(-0.0020298696 -0.0049556334 0)
(-0.0032944922 -0.0045605974 0)
(-0.0044299802 -0.0039883567 0)
(-0.0053922137 -0.0032622201 0)
(-0.0061442635 -0.0024114586 0)
(-0.0066577507 -0.0014701197 0)
(-0.0069137476 -0.0004752775 0)
(-0.0069035114 0.00053430815 0)
(-0.0066286036 0.0015200861 0)
(-0.0061006658 0.0024447336 0)
(-0.0053407953 0.0032736443 0)
(-0.0043786008 0.0039761929 0)
(-0.0032510203 0.004526645 0)
(-0.0020009148 0.004905017 0)
(-0.00067551698 0.005097672 0)
(0.0014590025 0.020408801 0)
(0.0043219491 0.019627019 0)
(0.0070200595 0.018093073 0)
(0.0094502764 0.015865211 0)
(0.011519593 0.013028188 0)
(0.013148456 0.0096901275 0)
(0.014273985 0.0059783227 0)
(0.014852387 0.0020349512 0)
(0.014860469 -0.001988854 0)
(0.014297049 -0.0059391605 0)
(0.013182967 -0.0096636465 0)
(0.011560326 -0.013018424 0)
(0.0094911015 -0.01587346 0)
(0.0070547683 -0.018117989 0)
(0.0043453429 -0.019664751 0)
(0.0014675919 -0.020453531 0)
(-0.0014670306 -0.020453609 0)
(-0.0043448022 -0.019664981 0)
(-0.007054268 -0.018118365 0)
(-0.0094906614 -0.015873969 0)
(-0.011559964 -0.013019047 0)
(-0.013182699 -0.0096643617 0)
(-0.014296887 -0.0059399386 0)
(-0.014860421 -0.0019896639 0)
(-0.014852455 0.0020341433 0)
(-0.014274166 0.0059775497 0)
(-0.01314874 0.0096894201 0)
(-0.011519968 0.013027573 0)
(-0.0094507259 0.015864711 0)
(-0.0070205661 0.018092704 0)
(-0.0043224938 0.019626793 0)
(-0.0014595664 0.020408725 0)
(0.00077719697 -0.0050780233 0)
(0.0023025493 -0.0048817617 0)
(0.0037409602 -0.0044969249 0)
(0.00503794 -0.0039386264 0)
(0.006144177 -0.0032287235 0)
(0.0070170802 -0.0023949399 0)
(0.0076228559 -0.0014697771 0)
(0.0079375213 -0.00048913623 0)
(0.0079471206 0.00050918253 0)
(0.0076503181 0.0014867019 0)
(0.0070581393 0.0024061306 0)
(0.0061925976 0.0032323869 0)
(0.0050864587 0.0039341787 0)
(0.0037820974 0.0044849966 0)
(0.0023301229 0.004864111 0)
(0.00078706203 0.005057301 0)
(-0.00078679814 0.0050573231 0)
(-0.0023298685 0.0048641764 0)
(-0.0037818614 0.0044851022 0)
(-0.0050862508 0.0039343199 0)
(-0.0061924271 0.0032325576 0)
(-0.0070580136 0.0024063241 0)
(-0.0076502442 0.0014869111 0)
(-0.007947102 0.00050939994 0)
(-0.0079375588 -0.00048891801 0)
(-0.0076229474 -0.0014695658 0)
(-0.0070172209 -0.0023947432 0)
(-0.0061443594 -0.0032285492 0)
(-0.0050381559 -0.0039384816 0)
(-0.0037412018 -0.0044968162 0)