/*--------------------------------*- C++ -*----------------------------------*\
| =========                 |                                                 |
| \\      /  F ield         | OpenFOAM: The Open Source CFD Toolbox           |
|  \\    /   O peration     | Version:  2306                                  |
|   \\  /    A nd           | Website:  www.openfoam.com                      |
|    \\/     M anipulation  |                                                 |
\*---------------------------------------------------------------------------*/
FoamFile
{
    version     2.0;
    format      ascii;
    arch        "LSB;label=32;scalar=64";
    class       volVectorField;
    location    "0.32";
    object      U;
}
// * * * * * * * * * * * * * * * * * * * * * * * * * * * * * * * * * * * * * //

dimensions      [0 1 -1 0 0 0 0];

internalField   nonuniform List<vector> 
6400
(
(-5.6590695e-06 -8.5320825e-06 2.7118341e-20)
(-1.9087576e-05 -3.6121236e-06 -2.5297112e-21)
(-3.6119773e-05 -2.7262913e-06 -1.4675867e-20)
(-5.3572e-05 -1.5500818e-06 1.2361066e-20)
(-7.2819935e-05 -8.7383565e-07 2.1681163e-20)
(-9.2397478e-05 -5.8183265e-07 -9.2339278e-21)
(-0.00011203473 -4.089185e-07 -3.2334872e-21)
(-0.00013164431 -2.9209099e-07 1.0975187e-20)
(-0.00015119956 -2.0159321e-07 1.4062869e-20)
(-0.00017069733 -1.2236005e-07 -7.4770404e-21)
(-0.00019014412 -4.783928e-08 -1.2759988e-20)
(-0.00020954824 2.4010446e-08 3.9783326e-20)
(-0.0002289162 9.3017783e-08 2.1504345e-20)
(-0.00024825206 1.5777489e-07 -2.7490183e-20)
(-0.00026755875 2.163878e-07 -1.9518225e-20)
(-0.00028684026 2.6914329e-07 2.0061041e-20)
(-0.00030609633 3.2327461e-07 5.375371e-20)
(-0.0003253176 3.8642499e-07 -2.4703372e-21)
(-0.00034449056 4.6130858e-07 -4.3078922e-20)
(-0.00036360235 5.4662354e-07 -1.1553445e-21)
(-0.00038264089 6.3981275e-07 7.2848813e-21)
(-0.00040159367 7.3847388e-07 1.4454448e-20)
(-0.00042044695 8.4068878e-07 7.5085133e-20)
(-0.00043918557 9.449531e-07 1.2415395e-19)
(-0.00045779299 1.0500366e-06 1.2832277e-19)
(-0.00047625139 1.1549235e-06 -1.2738e-19)
(-0.00049454187 1.2587325e-06 -3.5662772e-19)
(-0.00051264452 1.3606871e-06 -1.0179368e-19)
(-0.00053053864 1.4601121e-06 1.291021e-19)
(-0.00054820283 1.5563954e-06 2.0630395e-19)
(-0.0005656152 1.6489907e-06 1.6270226e-19)
(-0.00058275344 1.7373945e-06 -6.7396553e-20)
(-0.00059959501 1.8211753e-06 -5.8358253e-20)
(-0.00061611723 1.8999361e-06 -1.7621817e-19)
(-0.00063229743 1.9733294e-06 -1.447857e-19)
(-0.00064811309 2.0410636e-06 2.4652571e-19)
(-0.00066354197 2.1028827e-06 -3.4587677e-20)
(-0.0006785622 2.1585752e-06 -5.0842675e-19)
(-0.00069315243 2.2079897e-06 1.6416797e-19)
(-0.00070729197 2.2509973e-06 6.9666357e-19)
(-0.00072096082 2.287527e-06 1.2066477e-19)
(-0.00073413986 2.3175379e-06 -3.1922207e-19)
(-0.00074681089 2.3410333e-06 -2.7767285e-19)
(-0.00075895676 2.3580533e-06 -1.4542739e-19)
(-0.0007705614 2.3686712e-06 2.3617666e-19)
(-0.00078160996 2.372994e-06 6.7967538e-19)
(-0.00079208881 2.37116e-06 -1.5713323e-19)
(-0.00080198563 2.3633355e-06 -2.9724974e-19)
(-0.00081128944 2.3497149e-06 -2.2578496e-19)
(-0.00081999068 2.3305144e-06 -8.9223144e-19)
(-0.00082808117 2.305975e-06 4.3293847e-19)
(-0.00083555419 2.2763474e-06 6.8362332e-19)
(-0.00084240447 2.2419101e-06 5.2872615e-20)
(-0.00084862817 2.2029497e-06 2.739207e-19)
(-0.00085422292 2.1597616e-06 -7.8018686e-19)
(-0.00085918775 2.1126646e-06 -6.1418316e-19)
(-0.00086352314 2.0619656e-06 5.9940513e-19)
(-0.00086723092 2.0079804e-06 2.2376475e-19)
(-0.00087031428 1.9510394e-06 -7.2830791e-20)
(-0.00087277769 1.8914553e-06 1.045759e-19)
(-0.00087462691 1.8295553e-06 -4.9103108e-20)
(-0.00087586888 1.76566e-06 5.8015569e-20)
(-0.00087651171 1.7000753e-06 -4.0682905e-20)
(-0.00087656457 1.6331178e-06 -3.9469028e-19)
(-0.00087603766 1.5650752e-06 -5.3877884e-19)
(-0.00087494216 1.4962482e-06 6.3242238e-20)
(-0.00087329009 1.4269154e-06 9.2826551e-19)
(-0.00087109433 1.3573521e-06 4.1744339e-21)
(-0.00086836848 1.2878179e-06 -3.8080464e-19)
(-0.00086512684 1.2185581e-06 5.5257608e-19)
(-0.00086138428 1.1498239e-06 -8.2680969e-20)
(-0.00085715626 1.0818403e-06 -3.7543546e-19)
(-0.00085245868 1.014825e-06 1.3665383e-19)
(-0.00084730787 9.4899032e-07 1.8977997e-19)
(-0.00084172051 8.8453813e-07 2.1794927e-19)
(-0.00083571354 8.21671e-07 -4.0599935e-19)
(-0.00082930418 7.6063128e-07 -4.0901676e-19)
(-0.00082250999 7.0177612e-07 3.2117466e-19)
(-0.00081534896 6.4567173e-07 4.3148329e-19)
(-0.0008078396 5.9321413e-07 -2.156498e-19)
(-3.3923655e-05 5.228504e-05 4.0447755e-20)
(-8.1888259e-05 6.2238623e-05 -3.7495682e-22)
(-0.00013773669 6.6095517e-05 5.4586294e-21)
(-0.00019298156 7.0146089e-05 5.949472e-20)
(-0.00025117867 7.2627331e-05 4.6243435e-20)
(-0.00030986952 7.3918897e-05 -1.9877357e-20)
(-0.00036866688 7.4634539e-05 2.5824333e-20)
(-0.0004274082 7.5040786e-05 3.2456417e-21)
(-0.00048599233 7.5271207e-05 -1.264676e-20)
(-0.00054434843 7.539687e-05 3.8612064e-20)
(-0.00060242824 7.5454715e-05 2.9668501e-20)
(-0.00066019476 7.5463037e-05 6.8002866e-20)
(-0.00071761529 7.5430372e-05 1.1437556e-19)
(-0.00077465792 7.5360083e-05 1.2460137e-19)
(-0.00083128889 7.5252946e-05 4.9081547e-20)
(-0.00088746951 7.5109967e-05 6.5032632e-20)
(-0.00094315972 7.493581e-05 1.7704864e-19)
(-0.00099832262 7.4734691e-05 1.4850335e-20)
(-0.0010529218 7.4507036e-05 -1.9685676e-19)
(-0.0011069181 7.4250404e-05 -9.4625454e-20)
(-0.0011602694 7.3961539e-05 1.2430052e-20)
(-0.0012129319 7.3637458e-05 2.7499537e-20)
(-0.0012648603 7.3275557e-05 1.4366226e-19)
(-0.0013160085 7.2873452e-05 3.0302231e-19)
(-0.0013663301 7.2428992e-05 1.5526867e-19)
(-0.0014157779 7.1940285e-05 -4.3132222e-19)
(-0.0014643045 7.140565e-05 -5.0620106e-19)
(-0.0015118624 7.0823644e-05 -1.9928847e-19)
(-0.0015584042 7.0193073e-05 -1.2274846e-19)
(-0.0016038828 6.9512992e-05 5.5778995e-19)
(-0.0016482515 6.8782687e-05 6.8732425e-19)
(-0.0016914645 6.8001684e-05 -3.4666411e-19)
(-0.0017334769 6.7169767e-05 -6.8267979e-19)
(-0.0017742447 6.6286965e-05 -2.3972231e-19)
(-0.0018137256 6.5353545e-05 4.7256236e-19)
(-0.0018518787 6.437003e-05 3.7555342e-19)
(-0.0018886649 6.3337179e-05 -5.8532582e-19)
(-0.0019240471 6.225599e-05 -8.6740963e-19)
(-0.0019579903 6.1127689e-05 6.1068179e-19)
(-0.0019904618 5.9953729e-05 8.8448436e-19)
(-0.0020214315 5.8735766e-05 -1.0209114e-18)
(-0.0020508717 5.7475658e-05 -3.5939579e-19)
(-0.0020787576 5.6175442e-05 1.5607835e-18)
(-0.0021050672 5.4837332e-05 2.0615264e-18)
(-0.0021297815 5.34637e-05 -2.0346771e-20)
(-0.0021528844 5.205704e-05 -3.2091589e-18)
(-0.0021743629 5.0619992e-05 -1.8576671e-18)
(-0.0021942072 4.9155286e-05 1.4537938e-18)
(-0.0022124106 4.7665747e-05 1.4552842e-18)
(-0.0022289695 4.6154278e-05 -8.0662133e-19)
(-0.0022438835 4.4623832e-05 -1.3339561e-18)
(-0.0022571552 4.3077387e-05 1.4772514e-18)
(-0.0022687905 4.1517958e-05 1.9307529e-18)
(-0.0022787982 3.9948558e-05 -3.0842609e-19)
(-0.0022871899 3.8372185e-05 -1.234835e-18)
(-0.0022939802 3.6791825e-05 -1.355934e-18)
(-0.0022991867 3.5210392e-05 -1.7182078e-19)
(-0.0023028292 3.3630767e-05 1.4584485e-18)
(-0.0023049304 3.2055758e-05 5.7443365e-19)
(-0.0023055153 3.0488082e-05 -1.4182433e-18)
(-0.0023046111 2.8930378e-05 -5.406946e-19)
(-0.0023022474 2.7385183e-05 1.5313541e-18)
(-0.0022984555 2.5854911e-05 4.182774e-19)
(-0.0022932687 2.4341877e-05 -1.8385013e-18)
(-0.0022867221 2.2848247e-05 -1.0307877e-18)
(-0.0022788521 2.1376094e-05 1.0894379e-18)
(-0.0022696967 1.9927335e-05 1.3347101e-18)
(-0.0022592949 1.8503767e-05 3.3290605e-19)
(-0.0022476869 1.7107054e-05 -7.2450823e-19)
(-0.0022349139 1.5738724e-05 -1.4576002e-18)
(-0.0022210178 1.4400207e-05 1.4397222e-19)
(-0.002206041 1.3092788e-05 1.0948144e-18)
(-0.0021900266 1.1817652e-05 3.5966838e-20)
(-0.0021730179 1.0575865e-05 2.0296718e-19)
(-0.0021550587 9.3683977e-06 4.7954434e-19)
(-0.0021361925 8.1961341e-06 1.4648806e-19)
(-0.0021164631 7.0599718e-06 -7.4465374e-19)
(-0.002095914 5.9608929e-06 -9.0898937e-19)
(-0.0020745883 4.899981e-06 1.3956404e-19)
(-0.0020525286 3.8782103e-06 3.9559638e-19)
(-5.7635261e-05 0.0001997416 -7.921015e-20)
(-0.00013291039 0.00021050259 -3.2069922e-20)
(-0.00021857724 0.00021639012 -3.5791506e-20)
(-0.00030183438 0.00022195096 2.0179952e-20)
(-0.00038826033 0.00022553342 5.66552e-20)
(-0.00047493256 0.00022750942 -5.3006563e-20)
(-0.00056159426 0.00022854881 5.5848045e-21)
(-0.00064812545 0.00022901543 6.7163794e-21)
(-0.00073440325 0.00022911538 7.7734452e-20)
(-0.00082031168 0.00022896652 1.9606672e-19)
(-0.0009057546 0.00022863519 1.226938e-19)
(-0.00099064954 0.00022815801 1.3987123e-19)
(-0.0010749217 0.00022755514 2.0148802e-20)
(-0.0011585003 0.00022683765 1.3709779e-19)
(-0.0012413167 0.00022601157 2.1687833e-19)
(-0.0013233027 0.00022507898 6.790111e-20)
(-0.0014043918 0.00022403704 1.0128988e-19)
(-0.0014845187 0.00022288109 -4.0104683e-20)
(-0.0015636177 0.00022160747 -1.4152549e-19)
(-0.0016416221 0.00022021382 2.8963439e-20)
(-0.0017184644 0.00021869835 8.2075174e-20)
(-0.0017940768 0.00021705957 8.1765502e-20)
(-0.0018683919 0.00021529609 1.7486076e-19)
(-0.0019413422 0.00021340648 1.8978887e-19)
(-0.0020128612 0.00021138947 -6.5056903e-20)
(-0.0020828828 0.00020924396 -1.7023528e-19)
(-0.002151342 0.00020696914 -1.1204284e-19)
(-0.002218175 0.00020456455 -2.2773582e-19)
(-0.0022833191 0.00020203016 -2.7891974e-19)
(-0.0023467132 0.00019936638 1.285319e-19)
(-0.002408298 0.0001965741 3.2115564e-19)
(-0.0024680163 0.00019365469 -9.542854e-20)
(-0.0025258129 0.00019061003 -4.1148756e-19)
(-0.0025816351 0.00018744249 -2.9105131e-19)
(-0.002635433 0.00018415497 2.8390784e-19)
(-0.0026871594 0.00018075084 3.8259961e-19)
(-0.0027367703 0.00017723398 -1.1661463e-19)
(-0.002784225 0.00017360872 -1.9453903e-19)
(-0.002829486 0.00016987985 -2.1134858e-20)
(-0.0028725197 0.00016605259 -3.3406658e-19)
(-0.0029132961 0.00016213255 -5.035182e-19)
(-0.002951789 0.00015812572 4.5200169e-19)
(-0.0029879765 0.00015403839 1.075914e-18)
(-0.0030218403 0.00014987718 9.3097073e-19)
(-0.0030533665 0.00014564894 -1.5025584e-19)
(-0.0030825455 0.00014136075 -2.0277209e-18)
(-0.0031093715 0.00013701989 -9.0836241e-19)
(-0.0031338433 0.00013263377 6.2197288e-19)
(-0.0031559637 0.00012820988 7.9777876e-19)
(-0.0031757395 0.00012375582 6.9104309e-19)
(-0.0031931817 0.00011927918 -9.2698424e-19)
(-0.0032083055 0.00011478754 -6.0483491e-20)
(-0.0032211296 0.00011028844 1.0176178e-18)
(-0.0032316768 0.00010578933 -1.0479668e-19)
(-0.0032399736 0.00010129753 -1.8893545e-19)
(-0.0032460498 9.6820237e-05 -3.8829673e-19)
(-0.0032499386 9.2364417e-05 -3.6576242e-19)
(-0.0032516767 8.7936857e-05 5.8007878e-19)
(-0.0032513035 8.3544101e-05 1.6971279e-19)
(-0.0032488614 7.9192424e-05 -8.2980696e-19)
(-0.0032443955 7.4887825e-05 -2.3703818e-19)
(-0.0032379532 7.0636007e-05 6.1714506e-19)
(-0.0032295843 6.6442342e-05 6.7391483e-20)
(-0.0032193405 6.2311891e-05 -4.0476823e-19)
(-0.0032072755 5.8249353e-05 2.7648841e-19)
(-0.0031934445 5.4259118e-05 3.7484782e-19)
(-0.0031779041 5.034519e-05 -1.9483775e-19)
(-0.0031607123 4.6511245e-05 -5.4267899e-20)
(-0.003141928 4.2760603e-05 -1.139741e-19)
(-0.0031216107 3.9096253e-05 -6.3998589e-19)
(-0.003099821 3.5520849e-05 -4.8623712e-20)
(-0.0030766194 3.2036712e-05 3.7527583e-19)
(-0.0030520671 2.8645861e-05 4.9061445e-21)
(-0.0030262252 2.5349963e-05 2.7226674e-19)
(-0.0029991546 2.2150395e-05 2.4658871e-19)
(-0.0029709162 1.904822e-05 2.3980413e-19)
(-0.0029415702 1.6044283e-05 -1.6210568e-19)
(-0.0029111766 1.3139237e-05 -8.4061707e-19)
(-0.0028797951 1.0333581e-05 -2.3148851e-19)
(-0.0028474856 7.6275187e-06 6.1943304e-19)
(-7.1617329e-05 0.0003982609 -3.7357958e-19)
(-0.0001642457 0.00040635691 -1.4853495e-19)
(-0.00026859268 0.00041189789 -5.4700486e-20)
(-0.00036902033 0.0004170793 -1.7960949e-19)
(-0.00047260172 0.0004205125 -5.3653898e-20)
(-0.00057608613 0.00042239703 -1.5676712e-19)
(-0.00067937052 0.00042324131 -8.0871367e-20)
(-0.0007824122 0.00042336894 -7.7290457e-21)
(-0.00088510543 0.00042298403 1.0157116e-19)
(-0.00098732267 0.00042221173 1.9304511e-19)
(-0.0010889458 0.00042112694 1.2127331e-19)
(-0.001189867 0.00041977351 1.0323981e-19)
(-0.0012899858 0.0004181768 -2.0148781e-20)
(-0.001389207 0.00041635108 1.0943631e-19)
(-0.0014874389 0.00041430393 1.3616187e-19)
(-0.0015845927 0.00041203857 -3.2298256e-20)
(-0.0016805815 0.00040955537 9.5439881e-20)
(-0.0017753204 0.0004068536 2.3991176e-20)
(-0.0018687255 0.00040393234 -3.565513e-20)
(-0.0019607135 0.0004007906 6.5546449e-20)
(-0.0020512017 0.00039742724 7.113362e-20)
(-0.0021401085 0.00039384099 8.5535013e-20)
(-0.0022273528 0.00039003077 8.9700278e-20)
(-0.0023128552 0.00038599574 -3.5768589e-20)
(-0.0023965372 0.00038173547 -5.369706e-20)
(-0.0024783221 0.00037725003 -5.0300126e-20)
(-0.002558135 0.00037254008 -2.346726e-19)
(-0.0026359028 0.00036760695 -7.3790182e-20)
(-0.0027115547 0.00036245268 6.198865e-20)
(-0.0027850226 0.00035708006 -4.0961408e-20)
(-0.0028562406 0.00035149263 -1.4227217e-19)
(-0.0029251462 0.0003456947 -8.4877781e-20)
(-0.0029916795 0.00033969136 1.5330209e-19)
(-0.0030557844 0.00033348848 3.5020562e-20)
(-0.0031174081 0.00032709269 -2.3378016e-19)
(-0.0031765016 0.00032051136 -1.0505605e-19)
(-0.0032330197 0.00031375259 1.8301498e-19)
(-0.0032869215 0.00030682516 2.0062461e-19)
(-0.0033381704 0.0002997385 -8.3910508e-20)
(-0.003386734 0.00029250268 -2.2184148e-19)
(-0.0034325845 0.00028512827 -7.9641705e-20)
(-0.0034756989 0.00027762642 1.5909337e-19)
(-0.0035160587 0.00027000864 2.5861647e-19)
(-0.0035536504 0.0002622869 -8.7397935e-21)
(-0.0035884649 0.00025447346 1.1224665e-20)
(-0.0036204984 0.00024658085 -3.2544885e-19)
(-0.0036497517 0.0002386218 -3.5279975e-19)
(-0.0036762303 0.00023060919 7.4356634e-20)
(-0.0036999446 0.00022255595 1.3109217e-19)
(-0.0037209095 0.00021447503 4.335232e-19)
(-0.0037391446 0.00020637933 6.1530627e-20)
(-0.0037546738 0.00019828165 -3.9917453e-19)
(-0.0037675256 0.0001901946 8.9822449e-20)
(-0.0037777323 0.00018213057 1.7883812e-19)
(-0.0037853305 0.00017410167 -4.8327143e-20)
(-0.0037903604 0.0001661197 -1.8336585e-19)
(-0.0037928661 0.00015819607 -1.6149521e-19)
(-0.0037928948 0.00015034177 1.7952058e-19)
(-0.0037904973 0.00014256737 4.0315773e-20)
(-0.0037857271 0.00013488292 -3.6864329e-19)
(-0.0037786405 0.00012729796 -5.631398e-20)
(-0.0037692966 0.00011982151 2.7766646e-19)
(-0.0037577565 0.00011246198 6.3053208e-20)
(-0.0037440835 0.00010522725 -8.0054795e-20)
(-0.0037283427 9.8124581e-05 9.9746843e-20)
(-0.0037106008 9.1160641e-05 8.0753122e-20)
(-0.0036909258 8.4341475e-05 -2.5700518e-19)
(-0.0036693869 7.7672553e-05 -1.3163397e-19)
(-0.0036460541 7.1158728e-05 -2.6188803e-21)
(-0.0036209982 6.4804268e-05 -4.663874e-20)
(-0.0035942904 5.8612862e-05 2.1542589e-20)
(-0.003566002 5.2587615e-05 3.2188631e-20)
(-0.0035362046 4.6731079e-05 -9.106152e-20)
(-0.0035049695 4.1045195e-05 -6.7128144e-20)
(-0.0034723676 3.5531382e-05 2.0511764e-19)
(-0.0034384694 3.0190473e-05 2.0028566e-19)
(-0.0034033446 2.5022811e-05 -2.6059072e-19)
(-0.0033670623 2.0028275e-05 -4.8072032e-19)
(-0.0033296906 1.5206291e-05 -6.5236399e-20)
(-0.0032912973 1.0555976e-05 1.8655462e-19)
(-7.8448262e-05 0.00062547785 -6.3929846e-19)
(-0.00018013028 0.00063062299 -4.7654987e-19)
(-0.00029457484 0.00063486258 -2.0191714e-19)
(-0.00040429604 0.00063884042 -3.3767205e-20)
(-0.00051720683 0.00064147964 -3.297378e-19)
(-0.00062975798 0.00064280147 -3.90127e-19)
(-0.00074193121 0.00064310795 -2.6815721e-19)
(-0.00085374228 0.00064262856 -2.1296692e-19)
(-0.00096511309 0.00064152689 -4.502499e-21)
(-0.0010759243 0.00063991212 1.8069213e-19)
(-0.0011860559 0.00063785439 -4.2210763e-20)
(-0.0012953926 0.00063539759 1.1818454e-20)
(-0.0014038242 0.00063256871 8.4415313e-21)
(-0.0015112445 0.00062938405 4.2439679e-20)
(-0.0016175506 0.00062585304 1.2607067e-19)
(-0.0017226429 0.00062198074 -4.6151511e-20)
(-0.0018264238 0.0006177694 6.8116844e-20)
(-0.0019287978 0.00061321983 1.1175899e-20)
(-0.0020296712 0.00060833206 -6.4435614e-20)
(-0.0021289517 0.00060310589 9.8333077e-20)
(-0.0022265483 0.00059754103 1.441083e-19)
(-0.0023223716 0.00059163737 -7.687082e-20)
(-0.0024163335 0.00058539521 -8.3222544e-20)
(-0.0025083478 0.0005788154 2.0478644e-21)
(-0.0025983298 0.00057189949 -3.6411511e-20)
(-0.0026861971 0.00056464981 -1.4586919e-19)
(-0.0027718694 0.00055706957 -2.1960477e-19)
(-0.0028552689 0.00054916288 -3.916269e-20)
(-0.0029363206 0.00054093486 1.0275807e-19)
(-0.0030149522 0.00053239164 9.0497737e-20)
(-0.0030910948 0.00052354036 -2.1451621e-19)
(-0.0031646829 0.0005143892 -1.2180107e-19)
(-0.0032356544 0.0005049474 1.3929983e-19)
(-0.0033039513 0.0004952252 1.2967314e-19)
(-0.0033695195 0.00048523385 9.2635932e-20)
(-0.0034323093 0.0004749856 -1.636371e-19)
(-0.0034922751 0.00046449362 -3.4132096e-20)
(-0.0035493763 0.00045377196 -1.9969577e-20)
(-0.0036035768 0.00044283553 -8.1455388e-20)
(-0.0036548454 0.00043169998 -1.3371544e-19)
(-0.0037031558 0.00042038167 -1.4817983e-19)
(-0.003748487 0.00040889759 8.8883033e-20)
(-0.0037908228 0.00039726524 2.2074132e-19)
(-0.0038301524 0.0003855026 -7.4641527e-20)
(-0.0038664703 0.00037362799 -1.3651785e-19)
(-0.0038997758 0.00036166003 -1.2728319e-19)
(-0.0039300736 0.0003496175 -1.4206504e-19)
(-0.0039573736 0.00033751932 7.2762234e-20)
(-0.0039816906 0.00032538437 5.4400801e-20)
(-0.0040030444 0.0003132315 4.533715e-20)
(-0.0040214594 0.00030107937 1.0642134e-19)
(-0.0040369652 0.00028894639 -5.4265602e-20)
(-0.0040495953 0.00027685068 -4.2747537e-20)
(-0.0040593881 0.00026480994 -3.795883e-20)
(-0.0040663858 0.00025284137 -2.3388185e-20)
(-0.0040706349 0.0002409617 -2.9880232e-20)
(-0.0040721855 0.00022918702 -2.0075257e-19)
(-0.0040710912 0.00021753277 -1.4413691e-19)
(-0.0040674089 0.00020601371 -2.0901381e-20)
(-0.0040611987 0.00019464384 -6.3326276e-20)
(-0.0040525234 0.00018343639 7.1311972e-20)
(-0.0040414484 0.00017240376 2.1838982e-19)
(-0.0040280413 0.00016155755 1.1366569e-19)
(-0.004012372 0.00015090844 -4.1313794e-20)
(-0.003994512 0.0001404663 -1.5318149e-19)
(-0.0039745344 0.00013024009 -9.7706316e-20)
(-0.0039525135 0.00012023789 -3.1018976e-21)
(-0.0039285248 0.00011046691 1.6500826e-20)
(-0.0039026444 0.0001009335 -1.7076266e-19)
(-0.0038749491 9.1643146e-05 -1.6763564e-19)
(-0.0038455161 8.2600515e-05 5.9686242e-20)
(-0.0038144226 7.3809433e-05 1.6785239e-19)
(-0.0037817457 6.5272934e-05 5.6199961e-20)
(-0.0037475621 5.6993235e-05 -1.1451562e-19)
(-0.0037119483 4.8971811e-05 -5.3019687e-20)
(-0.0036749798 4.1209373e-05 -3.8450453e-20)
(-0.0036367315 3.3705956e-05 -1.5529257e-19)
(-0.0035972774 2.646096e-05 -1.9256088e-19)
(-0.0035566905 1.9473194e-05 -1.4556454e-19)
(-0.0035150437 1.2740984e-05 -9.1911294e-20)
(-8.1189134e-05 0.00086507078 -8.8479262e-19)
(-0.00018700446 0.00086801677 -7.5786585e-19)
(-0.00030635919 0.00087084184 -6.6281386e-19)
(-0.00042072608 0.00087347158 -5.4292806e-19)
(-0.00053839979 0.00087510259 -5.0426774e-19)
(-0.00065557783 0.00087563679 -3.2990624e-19)
(-0.0007722563 0.00087521093 -1.6672119e-19)
(-0.00088847548 0.00087396145 -2.4687794e-20)
(-0.0010041771 0.00087200178 1.1620937e-20)
(-0.0011192544 0.0008694156 1.6019432e-19)
(-0.001233594 0.00086626102 1.1111641e-19)
(-0.001347083 0.00086257698 1.2178804e-19)
(-0.0014596106 0.00085838892 1.4504848e-19)
(-0.001571068 0.00085371317 2.9091251e-19)
(-0.0016813491 0.00084855992 2.1478182e-19)
(-0.00179035 0.00084293531 -5.4665489e-20)
(-0.0018979687 0.0008368429 1.9186863e-19)
(-0.0020041052 0.00083028475 2.1341931e-19)
(-0.0021086612 0.00082326216 1.8204772e-19)
(-0.0022115399 0.00081577618 1.2897126e-19)
(-0.0023126461 0.00080782796 -1.9300173e-20)
(-0.0024118862 0.00079941903 -1.1143703e-19)
(-0.0025091683 0.00079055155 -4.089785e-21)
(-0.0026044024 0.00078122842 1.797296e-19)
(-0.0026975006 0.00077145352 1.4000314e-19)
(-0.0027883771 0.00076123173 8.2193146e-20)
(-0.0028769485 0.00075056912 -6.6284459e-20)
(-0.0029631344 0.0007394729 -1.4853176e-19)
(-0.003046857 0.0007279516 -5.7674679e-20)
(-0.0031280419 0.00071601501 8.1045362e-20)
(-0.003206618 0.00070367424 -8.5620111e-21)
(-0.0032825178 0.00069094171 6.7519922e-20)
(-0.0033556777 0.00067783116 1.7035939e-19)
(-0.0034260384 0.00066435762 1.6564374e-19)
(-0.0034935447 0.00065053735 1.6584141e-19)
(-0.0035581459 0.00063638782 -5.8294713e-20)
(-0.0036197961 0.00062192769 1.6660903e-20)
(-0.0036784543 0.00060717667 3.3618724e-21)
(-0.0037340844 0.00059215548 -9.2753955e-21)
(-0.0037866554 0.00057688579 -4.4305471e-20)
(-0.0038361417 0.00056139005 -1.8593774e-19)
(-0.0038825228 0.00054569149 -5.6145713e-20)
(-0.0039257838 0.0005298139 2.1987459e-19)
(-0.0039659151 0.00051378163 1.8469331e-19)
(-0.0040029124 0.00049761938 -6.0328519e-21)
(-0.0040367771 0.00048135217 1.9277899e-20)
(-0.0040675158 0.00046500513 -4.7373852e-20)
(-0.0040951404 0.0004486035 8.1086569e-20)
(-0.0041196681 0.00043217238 1.3084536e-19)
(-0.0041411212 0.00041573676 1.8902564e-20)
(-0.004159527 0.0003993213 -2.5800248e-21)
(-0.0041749176 0.00038295026 -3.6719463e-20)
(-0.0041873299 0.00036664744 -2.2528608e-20)
(-0.0041968051 0.00035043603 -1.2601756e-19)
(-0.004203389 0.00033433853 -1.1605312e-19)
(-0.0042071311 0.0003183767 6.9935886e-20)
(-0.0042080852 0.00030257145 -3.710153e-22)
(-0.0042063082 0.00028694281 -9.3194544e-20)
(-0.0042018608 0.00027150981 -4.4981775e-20)
(-0.0041948066 0.00025629047 -4.3407574e-20)
(-0.0041852121 0.00024130177 -8.237542e-21)
(-0.0041731463 0.00022655957 9.3843427e-20)
(-0.0041586806 0.00021207862 1.4057056e-19)
(-0.0041418885 0.00019787248 1.345346e-19)
(-0.004122845 0.00018395359 1.2237924e-20)
(-0.0041016271 0.0001703332 -8.0920577e-20)
(-0.0040783125 0.00015702138 -5.9590549e-20)
(-0.0040529802 0.00014402706 -6.6107691e-20)
(-0.00402571 0.00013135801 -1.6961437e-19)
(-0.0039965819 0.00011902088 -6.7171263e-20)
(-0.0039656764 0.0001070212 5.2227912e-20)
(-0.0039330739 9.5363437e-05 3.2641219e-20)
(-0.0038988547 8.4050981e-05 -1.1190326e-20)
(-0.0038630986 7.3086194e-05 2.869201e-20)
(-0.0038258848 6.2470459e-05 9.2414831e-20)
(-0.0037872918 5.2204212e-05 -7.4766745e-20)
(-0.0037473972 4.2287021e-05 -1.3593994e-19)
(-0.0037062775 3.2717692e-05 -1.8008069e-19)
(-0.0036640081 2.3494546e-05 -1.8707493e-19)
(-0.0036206634 1.461573e-05 -2.8772206e-20)
(-8.2131856e-05 0.0011093403 -1.1499491e-18)
(-0.00018968033 0.0011109588 -5.4744081e-19)
(-0.00031130797 0.0011126531 -7.8898319e-19)
(-0.00042795947 0.0011141332 -1.0757253e-18)
(-0.00054807523 0.0011147998 -7.6296709e-19)
(-0.00066765925 0.0011144999 -2.1248494e-19)
(-0.0007866827 0.0011132679 -1.1061388e-19)
(-0.00090518459 0.0011111724 -8.9448898e-20)
(-0.0010231141 0.0011082841 1.9314316e-19)
(-0.0011403731 0.0011046622 1.9002269e-19)
(-0.0012568555 0.001100351 2.3343101e-20)
(-0.0013724535 0.0010953825 -5.2954087e-20)
(-0.001487059 0.0010897787 -1.6877732e-19)
(-0.0016005647 0.0010835546 6.2680045e-20)
(-0.0017128646 0.0010767201 2.268919e-19)
(-0.0018238539 0.0010692817 -5.9205089e-20)
(-0.0019334294 0.0010612437 8.8598791e-22)
(-0.0020414895 0.0010526092 1.974674e-20)
(-0.0021479338 0.0010433805 7.1735067e-20)
(-0.0022526634 0.0010335599 2.6556091e-19)
(-0.0023555808 0.0010231501 2.3616261e-19)
(-0.0024565901 0.0010121543 1.240278e-19)
(-0.0025555972 0.0010005765 1.2309267e-19)
(-0.0026525099 0.00098842168 2.9717802e-19)
(-0.0027472377 0.00097569619 1.7774502e-19)
(-0.002839693 0.00096240755 -1.6465901e-20)
(-0.0029297901 0.00094856475 -2.8290214e-20)
(-0.0030174464 0.00093417825 -3.2910328e-20)
(-0.0031025824 0.00091926009 4.1371741e-21)
(-0.0031851216 0.0009038239 1.3776442e-19)
(-0.0032649911 0.00088788489 1.8712075e-19)
(-0.0033421218 0.0008714599 2.3426349e-19)
(-0.0034164486 0.00085456738 2.4654585e-19)
(-0.0034879106 0.0008372273 1.4718737e-19)
(-0.0035564515 0.00081946117 -2.4837195e-20)
(-0.0036220194 0.00080129193 -1.5971304e-19)
(-0.0036845676 0.0007827439 3.1586023e-20)
(-0.0037440541 0.00076384269 -3.5729641e-21)
(-0.0038004423 0.0007446151 -6.0536182e-20)
(-0.0038537008 0.00072508902 3.7607866e-20)
(-0.0039038038 0.00070529326 2.1317412e-20)
(-0.0039507307 0.0006852575 -2.5802126e-20)
(-0.0039944667 0.00066501208 -5.2938378e-20)
(-0.0040350025 0.00064458795 1.1774353e-19)
(-0.0040723346 0.00062401643 9.6423608e-20)
(-0.0041064647 0.00060332913 1.2145551e-19)
(-0.0041374004 0.00058255779 1.3728472e-19)
(-0.0041651547 0.00056173415 2.4893408e-20)
(-0.0041897458 0.00054088978 -1.5382281e-20)
(-0.0042111976 0.00052005596 -1.7402316e-21)
(-0.0042295386 0.00049926355 3.0619773e-20)
(-0.0042448028 0.00047854286 -2.8977229e-20)
(-0.0042570286 0.00045792351 -8.1672725e-20)
(-0.0042662594 0.00043743433 -1.2245702e-19)
(-0.0042725426 0.00041710325 -1.9976809e-19)
(-0.0042759301 0.00039695723 -6.6224755e-20)
(-0.0042764776 0.00037702208 1.0322146e-19)
(-0.0042742445 0.00035732249 1.0013878e-19)
(-0.0042692935 0.00033788188 8.78582e-21)
(-0.0042616907 0.00031872238 -2.4345503e-20)
(-0.004251505 0.00029986476 -6.8363457e-20)
(-0.0042388078 0.00028132837 -4.5922126e-20)
(-0.0042236729 0.00026313116 -1.1078072e-21)
(-0.0042061761 0.00024528958 1.440845e-19)
(-0.0041863951 0.00022781865 1.4329916e-19)
(-0.004164409 0.00021073191 4.68285e-21)
(-0.004140298 0.00019404143 -6.5064287e-20)
(-0.0041141436 0.00017775778 -1.0084375e-19)
(-0.0040860277 0.00016189016 -1.0035948e-19)
(-0.0040560326 0.0001464463 -3.5570675e-20)
(-0.0040242412 0.00013143257 8.8752911e-21)
(-0.0039907358 0.00011685399 2.1835452e-22)
(-0.0039555989 0.00010271426 -4.6967758e-20)
(-0.0039189123 8.9015807e-05 -2.0347574e-20)
(-0.0038807572 7.575985e-05 3.6832304e-20)
(-0.0038412141 6.2946457e-05 -2.3474359e-20)
(-0.0038003622 5.0574611e-05 -7.1010127e-20)
(-0.0037582797 3.8642337e-05 -1.8791303e-19)
(-0.003715043 2.7146922e-05 -1.3659528e-19)
(-0.0036707263 1.6085227e-05 -4.2883725e-20)
(-8.2476547e-05 0.0013553194 -1.3802747e-18)
(-0.00019082474 0.0013562422 -1.1845273e-18)
(-0.00031360549 0.0013571565 -9.4655408e-19)
(-0.00043150805 0.0013577699 -9.2538038e-19)
(-0.00055303082 0.0013576142 -7.8429038e-19)
(-0.00067404152 0.001356524 -5.3727365e-19)
(-0.00079447509 0.0013544833 -2.6447635e-19)
(-0.00091435681 0.0013515199 -1.7844778e-19)
(-0.0010336341 0.0013476758 -1.3573682e-21)
(-0.0011522119 0.0013429907 1.4553136e-19)
(-0.0012699887 0.0013374975 5.4646875e-20)
(-0.0013868606 0.0013312208 -3.5946631e-20)
(-0.0015027229 0.0013241789 -3.1436507e-19)
(-0.0016174702 0.0013163847 -1.5973485e-19)
(-0.0017309977 0.001307847 -2.2725832e-20)
(-0.0018432013 0.0012985723 -9.5986798e-20)
(-0.0019539775 0.001288565 3.3240129e-20)
(-0.0020632239 0.0012778288 2.5407027e-21)
(-0.0021708394 0.0012663668 -6.0738265e-20)
(-0.0022767236 0.0012541825 1.1521827e-19)
(-0.0023807778 0.0012412798 2.026682e-19)
(-0.0024829043 0.0012276633 8.0367668e-21)
(-0.0025830074 0.001213339 1.2385654e-19)
(-0.0026809929 0.0011983138 4.9091855e-19)
(-0.0027767687 0.0011825965 4.2170845e-19)
(-0.0028702449 0.0011661972 -5.5861748e-20)
(-0.0029613341 0.0011491277 -1.0373796e-19)
(-0.0030499518 0.0011314019 -1.3276256e-19)
(-0.0031360163 0.0011130352 -3.5891692e-20)
(-0.0032194494 0.0010940453 9.373245e-20)
(-0.0033001762 0.0010744516 5.366119e-20)
(-0.0033781259 0.0010542752 2.0540016e-19)
(-0.0034532316 0.0010335396 1.9011826e-19)
(-0.0035254307 0.0010122697 -8.1725351e-20)
(-0.0035946654 0.00099049249 -1.4937382e-19)
(-0.0036608824 0.00096823641 -1.062447e-19)
(-0.0037240336 0.00094553167 2.7130765e-20)
(-0.003784076 0.00092240993 -1.0981604e-19)
(-0.0038409718 0.00089890424 -2.6604227e-19)
(-0.0038946889 0.00087504888 -2.1619841e-19)
(-0.0039452006 0.00085087924 -1.2463176e-19)
(-0.0039924861 0.00082643165 8.9934761e-20)
(-0.00403653 0.0008017432 -4.6349281e-21)
(-0.004077323 0.00077685161 -1.1560949e-19)
(-0.0041148613 0.00075179504 1.0503729e-20)
(-0.0041491472 0.00072661193 2.1441926e-19)
(-0.0041801884 0.00070134078 2.8539444e-19)
(-0.0042079984 0.00067602006 -1.2210073e-20)
(-0.0042325963 0.00065068796 -1.5590492e-19)
(-0.0042540065 0.00062538228 9.1357576e-21)
(-0.0042722589 0.00060014025 -6.2895714e-20)
(-0.0042873884 0.00057499835 -2.2009803e-20)
(-0.0042994348 0.00054999224 -6.6101019e-20)
(-0.0043084428 0.00052515653 -2.1818726e-19)
(-0.0043144614 0.00050052471 -1.6972163e-19)
(-0.0043175441 0.00047612904 -5.5713403e-20)
(-0.0043177482 0.0004520004 3.7212555e-20)
(-0.0043151351 0.00042816822 -4.9236344e-20)
(-0.0043097694 0.0004046604 -6.6087233e-20)
(-0.004301719 0.00038150326 -4.184917e-20)
(-0.0042910547 0.00035872141 -1.5126183e-20)
(-0.0042778501 0.00033633779 5.3535885e-20)
(-0.0042621809 0.00031437357 -7.9205829e-20)
(-0.0042441251 0.00029284813 -3.854163e-20)
(-0.0042237623 0.00027177911 6.1942189e-20)
(-0.0042011737 0.00025118233 -3.4671024e-20)
(-0.0041764416 0.00023107183 -4.3268931e-21)
(-0.0041496493 0.00021145991 -5.5107784e-20)
(-0.0041208808 0.00019235711 -6.6450963e-20)
(-0.0040902203 0.00017377229 -3.4287132e-20)
(-0.0040577525 0.00015571264 -3.1795022e-20)
(-0.0040235616 0.00013818371 -1.4198293e-20)
(-0.0039877318 0.00012118953 -6.1152987e-21)
(-0.0039503466 0.00010473262 2.1582161e-20)
(-0.0039114888 8.8814024e-05 1.9292403e-20)
(-0.0038712405 7.3433482e-05 -4.2956546e-20)
(-0.0038296822 5.8589402e-05 -8.7054157e-20)
(-0.0037868934 4.4279008e-05 -1.4045852e-19)
(-0.0037429516 3.0498428e-05 -1.6034658e-19)
(-0.0036979321 1.7242812e-05 -9.4817092e-20)
(-8.2735991e-05 0.0016022427 -1.8633977e-18)
(-0.00019164443 0.001602843 -1.6715779e-18)
(-0.00031522066 0.0016032567 -7.804284e-19)
(-0.00043401076 0.0016032486 -5.2435507e-19)
(-0.00055655543 0.0016024214 -4.2953971e-19)
(-0.00067862904 0.0016006155 -3.4397577e-19)
(-0.00080013444 0.0015977968 4.7622162e-22)
(-0.00092108049 0.0015939736 6.5586584e-20)
(-0.0010414082 0.001589171 2.0963049e-19)
(-0.0011610217 0.0015834163 3.4870631e-19)
(-0.0012798207 0.0015767335 4.1666924e-19)
(-0.0013977038 0.0015691417 3.374185e-19)
(-0.001514568 0.0015606554 4.0545053e-20)
(-0.0016303098 0.001551285 8.7757179e-20)
(-0.0017448254 0.0015410384 9.6745904e-20)