/*--------------------------------*- C++ -*----------------------------------*\
| =========                 |                                                 |
| \\      /  F ield         | OpenFOAM: The Open Source CFD Toolbox           |
|  \\    /   O peration     | Version:  2106                                  |
|   \\  /    A nd           | Website:  www.openfoam.com                      |
|    \\/     M anipulation  |                                                 |
\*---------------------------------------------------------------------------*/
FoamFile
{
    version     2.0;
    format      ascii;
    arch        "LSB;label=32;scalar=64";
    class       volScalarField;
    location    "0.022";
    object      p_rgh;
}
// * * * * * * * * * * * * * * * * * * * * * * * * * * * * * * * * * * * * * //

dimensions      [1 -1 -2 0 0 0 0];

internalField   nonuniform List<scalar> 
16384
(
-9.3659214
-9.3433864
-9.2983705
-9.2309818
-9.141382
-9.0297863
-8.8964626
-8.741731
-8.565963
-8.3695806
-8.1530554
-7.9169072
-7.6617032
-7.3880562
-7.0966233
-6.7881045
-6.4632407
-6.1228124
-5.7676372
-5.3985685
-5.0164929
-4.6223285
-4.2170226
-3.8015492
-3.3769071
-2.944117
-2.5042197
-2.0582729
-1.6073492
-1.1525334
-0.69492011
-0.23561233
0.22428884
0.68367471
1.1414361
1.5964715
2.0476853
2.4939897
2.9343088
3.3675806
3.7927601
4.2088212
4.6147597
5.0095955
5.3923751
5.7621735
6.1180971
6.4592854
6.7849134
7.0941935
7.3863771
7.6607573
7.9166696
8.1534943
8.3706578
8.567634
8.7439455
8.8991649
9.0329161
9.1448746
9.234769
9.3023813
9.3475474
9.3701579
9.3701579
9.3475474
9.3023813
9.234769
9.1448746
9.0329161
8.8991649
8.7439455
8.567634
8.3706578
8.1534943
7.9166695
7.6607573
7.3863771
7.0941935
6.7849134
6.4592854
6.1180971
5.7621735
5.3923751
5.0095956
4.6147597
4.2088212
3.7927601
3.3675806
2.9343088
2.4939897
2.0476853
1.5964715
1.1414361
0.68367471
0.22428884
-0.23561234
-0.69492013
-1.1525334
-1.6073493
-2.0582729
-2.5042197
-2.944117
-3.3769071
-3.8015492
-4.2170226
-4.6223285
-5.0164929
-5.3985685
-5.7676372
-6.1228124
-6.4632407
-6.7881045
-7.0966233
-7.3880562
-7.6617032
-7.9169073
-8.1530554
-8.3695806
-8.565963
-8.741731
-8.8964626
-9.0297863
-9.141382
-9.2309818
-9.2983705
-9.3433864
-9.3659214
-9.3896088
-9.3670161
-9.3218849
-9.2543235
-9.1644943
-9.0526129
-8.918948
-8.7638205
-8.5876029
-8.3907184
-8.1736398
-7.9368884
-7.6810329
-7.4066876
-7.1145115
-6.8052064
-6.4795152
-6.1382204
-5.7821418
-5.412135
-5.0290889
-4.6339241
-4.2275902
-3.8110639
-3.3853465
-2.9514613
-2.5104517
-2.0633783
-1.6113163
-1.1553533
-0.69658641
-0.23612013
0.22493732
0.6854774
1.1443892
1.6005674
2.0529134
2.5003368
2.9417589
3.3761154
3.8023585
4.2194597
4.6264124
5.0222339
5.4059684
5.7766888
6.1334993
6.4755373
6.8019757
7.112025
7.4049351
7.6799971
7.936545
8.1739577
8.3916602
8.589125
8.7658737
8.921478
9.0555607
9.1677966
9.2579138
9.3256935
9.3709716
9.3936381
9.3936381
9.3709716
9.3256935
9.2579138
9.1677966
9.0555607
8.921478
8.7658737
8.589125
8.3916602
8.1739577
7.936545
7.6799971
7.4049351
7.112025
6.8019757
6.4755373
6.1334993
5.7766888
5.4059684
5.0222339
4.6264124
4.2194598
3.8023585
3.3761154
2.9417589
2.5003368
2.0529134
1.6005675
1.1443892
0.6854774
0.22493732
-0.23612014
-0.69658642
-1.1553533
-1.6113163
-2.0633783
-2.5104517
-2.9514613
-3.3853465
-3.811064
-4.2275903
-4.6339241
-5.0290889
-5.412135
-5.7821418
-6.1382204
-6.4795152
-6.8052064
-7.1145115
-7.4066876
-7.6810329
-7.9368885
-8.1736398
-8.3907184
-8.5876029
-8.7638205
-8.918948
-9.0526129
-9.1644943
-9.2543235
-9.3218849
-9.3670161
-9.3896088
-9.4355334
-9.4128296
-9.3674765
-9.299583
-9.2093122
-9.0968809
-8.9625591
-8.8066693
-8.629586
-8.4317344
-8.2135898
-7.9756761
-7.7185647
-7.4428732
-7.1492638
-6.8384418
-6.5111539
-6.1681863
-5.8103631
-5.438544
-5.0536224
-4.6565234
-4.2482013
-3.8296375
-3.4018383
-2.9658322
-2.5226676
-2.0734101
-1.6191404
-1.1609514
-0.69994546
-0.2372322
0.22607465
0.68886015
1.1500092
1.6084111
2.0629615
2.5125647
2.9561371
3.392609
3.8209275
4.2400593
4.6489929
5.0467408
5.4323426
5.8048667
6.1634131
6.5071149
6.8351411
7.1466984
7.4410329
7.7174324
7.9752278
8.2137948
8.4325557
8.6309806
8.8085886
8.9649493
9.0996838
9.2124653
9.3030205
9.3711297
9.4166279
9.4394046
9.4394046
9.4166279
9.3711297
9.3030205
9.2124653
9.0996838
8.9649493
8.8085886
8.6309806
8.4325557
8.2137948
7.9752278
7.7174324
7.4410329
7.1466984
6.8351411
6.5071149
6.1634131
5.8048668
5.4323426
5.0467408
4.6489929
4.2400594
3.8209275
3.392609
2.9561371
2.5125647
2.0629615
1.6084111
1.1500092
0.68886014
0.22607464
-0.2372322
-0.69994547
-1.1609514
-1.6191404
-2.0734101
-2.5226676
-2.9658322
-3.4018384
-3.8296375
-4.2482013
-4.6565234
-5.0536224
-5.438544
-5.8103631
-6.1681863
-6.5111539
-6.8384418
-7.1492638
-7.4428732
-7.7185647
-7.9756761
-8.2135898
-8.4317344
-8.629586
-8.8066693
-8.9625591
-9.0968809
-9.2093122
-9.299583
-9.3674765
-9.4128296
-9.4355334
-9.5040691
-9.4811998
-9.4355163
-9.3671282
-9.2761998
-9.1629495
-9.0276493
-8.8706242
-8.6922513
-8.4929592
-8.2732266
-8.0335812
-7.7745988
-7.4969014
-7.2011561
-6.8880736
-6.5584058
-6.2129449
-5.852521
-5.478
-5.0902819
-4.6902986
-4.2790113
-3.8574086
-3.4265041
-2.9873338
-2.5409535
-2.0884369
-1.6308723
-1.1693604
-0.70501177
-0.23894383
0.22772164
0.69386126
1.1583523
1.620076
2.0779199
2.5307807
2.9775667
3.4172006
3.848622
4.27079
4.6826857
5.0833149
5.4717099
5.8469326
6.2080762
6.5542678
6.8846704
7.1984847
7.4949517
7.7733537
8.0330169
8.2733125
8.4936586
8.6935213
8.8724164
9.0299102
9.1656211
9.27922
9.3704315
9.4390344
9.4848623
9.507804
9.507804
9.4848623
9.4390344
9.3704315
9.27922
9.1656211
9.0299102
8.8724164
8.6935213
8.4936586
8.2733125
8.0330169
7.7733537
7.4949517
7.1984847
6.8846704
6.5542678
6.2080762
5.8469326
5.4717099
5.0833149
4.6826857
4.27079
3.848622
3.4172006
2.9775667
2.5307807
2.0779199
1.620076
1.1583523
0.69386126
0.22772164
-0.23894383
-0.70501177
-1.1693604
-1.6308723
-2.0884369
-2.5409535
-2.9873338
-3.4265041
-3.8574086
-4.2790113
-4.6902986
-5.0902819
-5.478
-5.852521
-6.2129449
-6.5584058
-6.8880736
-7.2011561
-7.4969014
-7.7745988
-8.0335812
-8.2732266
-8.4929593
-8.6922513
-8.8706242
-9.0276493
-9.1629495
-9.2761998
-9.3671282
-9.4355163
-9.4811998
-9.5040691
-9.5954965
-9.5724068
-9.5262828
-9.4572354
-9.3654303
-9.2510883
-9.1144839
-8.9559453
-8.7758535
-8.574641
-8.3527913
-8.1108373
-7.8493603
-7.5689886
-7.2703957
-6.9542991
-6.6214581
-6.2726726
-5.9087807
-5.5306567
-5.1392094
-4.7353795
-4.3201377
-3.894482
-3.4594356
-3.0160447
-2.5653751
-2.1085109
-1.6465507
-1.1806059
-0.7117975
-0.2412537
0.229893
0.70050839
1.1694592
1.6356158
2.0978553
2.5550637
3.006139
3.4499935
3.8855568
4.3117779
4.7276283
5.1321041
5.5242285
5.9030543
6.2676661
6.6171826
6.9507586
7.2675873
7.5669022
7.8479788
8.1101368
8.3527414
8.5752048
8.7769882
8.9576026
9.1166102
9.2536255
9.3683164
9.4604046
9.529667
9.5759354
9.5990978
9.5990978
9.5759354
9.529667
9.4604046
9.3683164
9.2536255
9.1166102
8.9576026
8.7769882
8.5752048
8.3527414
8.1101369
7.8479788
7.5669022
7.2675873
6.9507586
6.6171826
6.2676661
5.9030544
5.5242286
5.1321041
4.7276283
4.3117779
3.8855568
3.4499935
3.006139
2.5550637
2.0978553
1.6356158
1.1694592
0.70050839
0.22989301
-0.24125369
-0.71179749
-1.1806059
-1.6465507
-2.1085109
-2.5653751
-3.0160447
-3.4594356
-3.894482
-4.3201377
-4.7353795
-5.1392094
-5.5306567
-5.9087807
-6.2726726
-6.6214581
-6.954299
-7.2703957
-7.5689886
-7.8493603
-8.1108373
-8.3527913
-8.574641
-8.7758535
-8.9559453
-9.1144839
-9.2510883
-9.3654303
-9.4572353
-9.5262828
-9.5724068
-9.5954965
-9.7100322
-9.6866663
-9.6399908
-9.5701177
-9.477215
-9.3615058
-9.2232683
-9.0628345
-8.88059
-8.6769727
-8.4524718
-8.2076268
-7.943026
-7.6593051
-7.357146
-7.0372746
-6.7004596
-6.3475104
-5.979275
-5.5966385
-5.2005204
-4.7918726
-4.3716775
-3.9409451
-3.5007107
-3.0520329
-2.5959904
-2.1336798
-1.6662132
-1.1947149
-0.72031936
-0.24416805
0.23259304
0.70881623
1.1833548
1.655066
2.1228133
2.5854696
3.0419199
3.4910636
3.9318175
4.3631182
4.783925
5.1932219
5.5900207
5.9733627
6.3423217
6.6960058
7.0335598
7.3541673
7.6570524
7.9414821
8.2067678
8.452267
8.6773851
8.8815766
9.0643467
9.2252522
9.3639031
9.4799631
9.5731507
9.64324
9.6900608
9.7134997
9.7134997
9.6900608
9.64324
9.5731507
9.4799631
9.3639031
9.2252522
9.0643467
8.8815767
8.6773851
8.452267
8.2067678
7.9414821
7.6570524
7.3541673
7.0335598
6.6960058
6.3423217
5.9733627
5.5900207
5.1932219
4.783925
4.3631182
3.9318175
3.4910636
3.0419199
2.5854696
2.1228133
1.655066
1.1833548
0.70881624
0.23259305
-0.24416804
-0.72031935
-1.1947149
-1.6662132
-2.1336798
-2.5959904
-3.0520329
-3.5007107
-3.9409451
-4.3716775
-4.7918726
-5.2005204
-5.5966385
-5.979275
-6.3475104
-6.7004596
-7.0372746
-7.357146
-7.6593051
-7.943026
-8.2076268
-8.4524718
-8.6769727
-8.88059
-9.0628345
-9.2232683
-9.3615058
-9.477215
-9.5701177
-9.6399908
-9.6866663
-9.7100322
-9.847945
-9.8242468
-9.7769073
-9.7060403
-9.6118162
-9.4944614
-9.3542579
-9.1915427
-9.0067069
-8.8001947
-8.5725023
-8.3241771
-8.0558157
-7.7680631
-7.4616107
-7.1371952
-6.795596
-6.4376341
-6.0641698
-5.6761006
-5.2743591
-4.8599111
-4.4337525
-3.9969078
-3.5504272
-3.0953839
-2.6328722
-2.1640041
-1.6899073
-1.2117222
-0.73059902
-0.24769552
0.2358262
0.71880226
1.2000698
1.6784699
2.1528501
2.6220674
3.084991
3.5405047
3.9875101
4.4249288
4.8517052
5.2668091
5.6692382
6.0580202
6.4322157
6.7909202
7.1332663
7.4584258
7.7656119
8.054081
8.3231348
8.5721215
8.8004379
9.0075307
9.1928979
9.3560901
9.4967116
9.6144212
9.7089335
9.7800191
9.8275055
9.8512776
9.8512776
9.8275055
9.7800191
9.7089335
9.6144212
9.4967116
9.3560901
9.1928979
9.0075307
8.8004379
8.5721215
8.3231348
8.054081
7.7656119
7.4584258
7.1332663
6.7909202
6.4322157
6.0580202
5.6692382
5.2668091
4.8517052
4.4249288
3.9875101
3.5405047
3.084991
2.6220674
2.1528501
1.6784699
1.2000698
0.71880227
0.23582621
-0.2476955
-0.730599
-1.2117221
-1.6899073
-2.1640041
-2.6328721
-3.0953839
-3.5504271
-3.9969078
-4.4337525
-4.8599111
-5.2743591
-5.6761005
-6.0641698
-6.4376341
-6.795596
-7.1371951
-7.4616107
-7.768063
-8.0558157
-8.3241771
-8.5725023
-8.8001947
-9.0067069
-9.1915427
-9.3542579
-9.4944614
-9.6118162
-9.7060403
-9.7769073
-9.8242468
-9.847945
-10.009568
-9.9854806
-9.9373632
-9.8653317
-9.7695593
-9.6502762
-9.5077692
-9.3423809
-9.1545088
-8.9446045
-8.7131727
-8.4607695
-8.1880018
-7.895525
-7.5840421
-7.2543019
-6.9070968
-6.5432614
-6.1636699
-5.7692349
-5.3609042
-4.9396593
-4.5065128
-4.0625057
-3.6087055
-3.1462031
-2.6761104
-2.1995578
-1.7176914
-1.23167
-0.74266276
-0.25184625
0.23959849
0.73048862
1.2196424
1.7058818
2.1880359
2.6649429
3.1354535
3.5984334
4.0527662
4.4973559
4.9311297
5.3530404
5.7620693
6.1572282
6.5375623
6.902152
7.2501158
7.5806117
7.89284
8.1860449
8.4595163
8.7125916
8.9446578
9.1551521
9.3435644
9.5094377
9.6523697
9.7720135
9.8680789
9.9403327
9.9885995
10.012762
10.012762
9.9885995
9.9403327
9.8680789
9.7720135
9.6523697
9.5094377
9.3435644
9.1551521
8.9446578
8.7125916
8.4595163
8.1860449
7.89284
7.5806117
7.2501158
6.902152
6.5375623
6.1572282
5.7620693
5.3530404
4.9311297
4.4973559
4.0527662
3.5984334
3.1354535
2.6649429
2.1880359
1.7058818
1.2196424
0.73048863
0.2395985
-0.25184624
-0.74266275
-1.23167
-1.7176913
-2.1995578
-2.6761104
-3.1462031
-3.6087055
-4.0625057
-4.5065128
-4.9396593
-5.3609042
-5.7692348
-6.1636699
-6.5432613
-6.9070968
-7.2543019
-7.5840421
-7.895525
-8.1880017
-8.4607695
-8.7131727
-8.9446045
-9.1545088
-9.3423809
-9.5077692
-9.6502762
-9.7695593
-9.8653317
-9.9373632
-9.9854806
-10.009568
-10.195294
-10.170759
-10.121747
-10.048378
-9.9508265
-9.8293279
-9.6841742
-9.5157144
-9.3243536
-9.110552
-8.8748235
-8.6177348
-8.3399042
-8.0419994
-7.7247365
-7.3888784
-7.0352321
-6.6646479
-6.2780164
-5.8762669
-5.4603651
-5.0313107
-4.5901348
-4.1378981
-3.6756875
-3.2046142
-2.7258107
-2.2404282
-1.7496339
-1.2546082
-0.75654152
-0.25663223
0.2439169
0.74390123
1.2421172
1.7373654
2.2284529
2.7141967
3.1934263
3.6649866
4.1277404
4.5805714
5.0223871
5.4521209
5.8687351
6.2712233
6.6586127
7.0299668
7.3843876
7.7210174
8.0390415
8.3376899
8.6162392
8.8740145
9.110391
9.3247956
9.5167084
9.6856638
9.8312518
9.9531191
10.05097
10.124567
10.173731
10.198343
10.198343
10.173731
10.124567
10.05097
9.9531191
9.8312518
9.6856638
9.5167084
9.3247956
9.110391
8.8740145
8.6162392
8.3376899
8.0390415
7.7210174
7.3843876
7.0299668
6.6586127
6.2712233
5.8687351
5.4521209
5.0223871
4.5805714
4.1277404
3.6649866
3.1934263
2.7141967
2.2284529
1.7373654
1.2421173
0.74390124
0.24391691
-0.25663222
-0.75654151
-1.2546081
-1.7496339
-2.2404282
-2.7258107
-3.2046142
-3.6756875
-4.137898
-4.5901348
-5.0313106
-5.4603651
-5.8762669
-6.2780163
-6.6646479
-7.0352321
-7.3888783
-7.7247365
-8.0419993
-8.3399042
-8.6177348
-8.8748235
-9.110552
-9.3243536
-9.5157144
-9.6841742
-9.8293279
-9.9508265
-10.048378
-10.121747
-10.170759
-10.195294
-10.405571
-10.380529
-10.330506
-10.255622
-10.156056
-10.03205
-9.8838996
-9.7119626
-9.5166523
-9.2984384
-9.0578456
-8.7954526
-8.5118903
-8.2078404
-7.8840341
-7.5412498
-7.1803116
-6.8020872
-6.4074857
-5.9974557
-5.5729827
-5.1350871
-4.6848214
-4.2232678
-3.7515359
-3.2707595
-2.7820945
-2.2867156
-1.785814
-1.2805941
-0.77227102
-0.26206742
0.24878923
0.75906967
1.2675457
1.7729933
2.2741953
2.7699443
3.2590459
3.7403211
4.2126097
4.6747723
5.1256938
5.5642858
5.9894891
6.4002766
6.7956554
7.1746695
7.5364023
7.8799783
8.2045659
8.5093789
8.793679
9.056777
9.2980351
9.5168682
9.7127455
9.8851915
10.033788
10.158173
10.258046
10.333164
10.383344
10.408465
10.408465
10.383344
10.333164
10.258046
10.158173
10.033788
9.8851915
9.7127455
9.5168683
9.2980351
9.056777
8.793679
8.5093789
8.2045659
7.8799783
7.5364023
7.1746695
6.7956554
6.4002766
5.9894892
5.5642858
5.1256938
4.6747723
4.2126097
3.7403211
3.2590459
2.7699443
2.2741953
1.7729933
1.2675458
0.75906968
0.24878924
-0.26206741
-0.772271
-1.2805941
-1.785814
-2.2867156
-2.7820944
-3.2707595
-3.7515358
-4.2232678
-4.6848213
-5.1350871
-5.5729827
-5.9974556
-6.4074857
-6.8020871
-7.1803116
-7.5412498
-7.8840341
-8.2078404
-8.5118902
-8.7954526
-9.0578456
-9.2984384
-9.5166523
-9.7119626
-9.8838995
-10.03205
-10.156056
-10.255622
-10.330506
-10.380529
-10.405571
-10.640909
-10.6153
-10.564145
-10.487565
-10.385746
-10.258932
-10.107429
-9.9316002
-9.7318699
-9.5087182
-9.2626818
-8.9943525
-8.7043758
-8.393449
-8.0623199
-7.7117846
-7.342686
-6.9559116
-6.552391
-6.1330943
-5.6990295
-5.25124
-4.7908019
-4.3188221
-3.836435
-3.3448001
-2.8450992
-2.3385335
-1.8263209
-1.3096929
-0.78989183
-0.26816783
0.25422412
0.77602717
1.2959856
1.8128479
2.3253695
2.832316
3.3324661
3.8246144
4.3075744
4.7801812
5.2412945
5.6898012
6.1246182
6.5446952
6.9490167
7.336605
7.7065226
8.0578741
8.3898089
8.7015228
8.9922604
9.261317
9.50804
9.7318308
9.9321462
10.1085
10.260464
10.387669
10.489806
10.566626
10.617944
10.643634
10.643634
10.617944
10.566626
10.489806
10.387669
10.260464
10.1085
9.9321462
9.7318308
9.50804
9.261317
8.9922604
8.7015228
8.3898089
8.0578741
7.7065226
7.336605
6.9490167
6.5446952
6.1246182
5.6898012
5.2412945
4.7801812
4.3075744
3.8246144
3.3324661
2.832316
2.3253695
1.8128479
1.2959856
0.77602718
0.25422413
-0.26816781
-0.78989181
-1.3096929
-1.8263209
-2.3385335
-2.8450992
-3.3448001
-3.836435
-4.3188221
-4.7908019
-5.2512399
-5.6990295
-6.1330943
-6.5523909
-6.9559115
-7.342686
-7.7117846
-8.0623199
-8.393449
-8.7043758
-8.9943525
-9.2626817
-9.5087181
-9.7318699
-9.9316002
-10.107429
-10.258932
-10.385746
-10.487565
-10.564145
-10.6153
-10.640909
-10.901877
-10.87564
-10.823228
-10.744769
-10.64045
-10.510524
-10.355302
-10.175159
-9.9705271
-9.7418999
-9.4898273
-9.2149156
-8.9178263
-8.599274
-8.260025
-7.9008952
-7.5227481
-7.126493
-6.7130828
-6.2835111
-5.8388108
-5.3800506
-4.9083334
-4.424793
-3.9305914
-3.4269166
-2.914979
-2.3960094
-1.8712551
-1.3419776
-0.80944959
-0.27495155
0.26023103
0.79481073
1.3275013
1.8570207
2.3820943
2.9014575
3.4138592
3.9180647
4.4128585
4.8970472
5.3694627
5.8289645
6.2744432
6.7048223
7.1190615
7.5161591
7.8951543
8.2551296
8.5952132
8.914581
9.212459
9.4881246
9.7409091
9.9701989
10.175437
10.356126
10.511825
10.642158
10.746806
10.825515
10.878095
10.904417
10.904417
10.878095
10.825515
10.746806
10.642158
10.511825
10.356126
10.175437
9.9701989
9.7409091
9.4881246
9.212459
8.914581
8.5952132
8.2551296
7.8951543
7.5161591
7.1190615
6.7048223
6.2744432
5.8289645
5.3694627
4.8970472
4.4128585
3.9180647
3.4138592
2.9014575
2.3820943
1.8570208
1.3275013
0.79481074
0.26023104
-0.27495153
-0.80944957
-1.3419776
-1.871255
-2.3960093
-2.914979
-3.4269165
-3.9305914
-4.4247929
-4.9083334
-5.3800506
-5.8388107
-6.2835111
-6.7130827
-7.126493
-7.5227481
-7.9008951
-8.260025
-8.599274
-8.9178262
-9.2149155
-9.4898272
-9.7418999
-9.9705271
-10.175159
-10.355302
-10.510524
-10.64045
-10.744769
-10.823228
-10.87564
-10.901877
-11.189108
-11.162178
-11.108385
-11.027856
-10.920787
-10.787434
-10.62812
-10.443227
-10.233201
-9.9985479
-9.7398316
-9.4576753
-9.1527579
-8.8258131
-8.4776276
-8.1090387
-7.7209332
-7.3142443
-6.8899498
-6.4490701
-5.9926649
-5.5218313
-5.0377011
-4.5414378
-4.0342341
-3.5173091
-2.991905
-2.4592845
-1.9207278
-1.3775294
-0.83099512
-0.28243889
0.26682018
0.81546109
1.362164
1.9056134
2.4445012
2.9775299
3.5034157
4.0208915
4.5287098
5.0256461
5.5105015
5.9821055
6.4393194
6.8810383
7.3061945
7.7137595
8.1027471
8.4722155
8.8212696
9.1490633
9.4548017
9.7377432
9.9972008
10.232545
10.443203
10.628664
10.788476
10.922251
11.029664
11.110454
11.164423
11.19144
11.19144
11.164423
11.110454
11.029664
10.922251
10.788476
10.628664
10.443203
10.232545
9.9972008
9.7377432
9.4548017
9.1490633
8.8212695
8.4722155
8.1027471
7.7137595
7.3061944
6.8810383
6.4393194
5.9821056
5.5105015
5.0256462
4.5287098
4.0208915
3.5034157
2.9775299
2.4445012
1.9056134
1.362164
0.8154611
0.26682019
-0.28243888
-0.8309951
-1.3775294
-1.9207278
-2.4592845
-2.991905
-3.5173091
-4.0342341
-4.5414378
-5.0377011
-5.5218313
-5.9926649
-6.4490701
-6.8899498
-7.3142442
-7.7209332
-8.1090387
-8.4776275
-8.8258131
-9.1527579
-9.4576753
-9.7398316
-9.9985478
-10.233201
-10.443227
-10.62812
-10.787434
-10.920787
-11.027856
-11.108385
-11.162178
-11.189108
-11.503296
-11.47561
-11.420304
-11.337513
-11.227434
-11.090334
-10.926543
-10.736455
-10.520528
-10.279283
-10.0133
-9.723219
-9.409739
-9.0736144
-8.7156539
-8.3367188
-7.9377208
-7.5196194
-7.0834202
-6.630172
-6.1609645
-5.6769256
-5.1792187
-4.66904
-4.1476155
-3.6161983
-3.0760654
-2.5285147
-1.974862
-1.4164379
-0.85458458
-0.2906525
0.27400255
0.83802278
1.4000517
1.9587371
2.5127345
3.0607104
3.6013451
4.133336
4.655401
5.1662812
5.6647442
6.1495866
6.6196377
7.0737616
7.5108603
7.9298765
8.3297958
8.7096498
9.0685179
9.40553
9.7198686
10.010771
10.277529
10.519497
10.736086
10.926768
11.091081
11.228623
11.339062
11.422127
11.477616
11.505394
11.505394
11.477616
11.422127
11.339062
11.228623
11.091081
10.926768
10.736086
10.519497
10.277529
10.010771
9.7198685
9.40553
9.0685179
8.7096498
8.3297958
7.9298764
7.5108603
7.0737616
6.6196377
6.1495866
5.6647442
5.1662812
4.655401
4.133336
3.6013451
3.0607104
2.5127346
1.9587371
1.4000517
0.83802279
0.27400256
-0.29065249
-0.85458458
-1.4164379
-1.974862
-2.5285147
-3.0760654
-3.6161983
-4.1476155
-4.66904
-5.1792187
-5.6769256
-6.1609645
-6.630172
-7.0834202
-7.5196194
-7.9377208
-8.3367188
-8.7156539
-9.0736144
-9.409739
-9.723219
-10.0133
-10.279283
-10.520528
-10.736455
-10.926543
-11.090334
-11.227434
-11.337513
-11.420304
-11.47561
-11.503296
-11.845204
-11.816694
-11.759743
-11.674488
-11.561135
-11.419956
-11.251293
-11.055552
-10.833204
-10.584785
-10.310893
-10.012189
-9.6893914
-9.3432772
-8.9746798
-8.5844863
-8.1736354
-7.7431155
-7.2939622
-6.8272555
-6.3441175
-5.8457096
-5.3332298
-4.8079097
-4.2710117
-3.7238257
-3.1676666
-2.6038706
-2.0337923
-1.4588015
-0.88027973
-0.29961743
0.28178978
0.86254417
1.4412493
2.0165132
2.5869518
3.1511922
3.7078758
4.2556616
4.7932296
5.3192837
5.8325547
6.3318038
6.8158252
7.2834493
7.7335452
8.1650241
8.5768411
8.9679987
9.3375486
9.6845943
10.008294
10.30786
10.582567
10.831745
11.054789
11.251155
11.420366
11.56201
11.675742
11.761284
11.818428
11.847035
11.847035
11.818428
11.761284
11.675742
11.56201
11.420366
11.251155
11.054789
10.831745
10.582567
10.30786
10.008294
9.6845943
9.3375485
8.9679987
8.5768411
8.165024
7.7335452
7.2834492
6.8158252
6.3318038
5.8325547
5.3192837
4.7932296
4.2556616
3.7078758
3.1511922
2.5869518
2.0165132
1.4412493
0.86254418
0.28178979
-0.29961742
-0.88027973
-1.4588015
-2.0337923
-2.6038706
-3.1676667
-3.7238257
-4.2710117
-4.8079097
-5.3332298
-5.8457096
-6.3441175
-6.8272555
-7.2939622
-7.7431156
-8.1736354
-8.5844863
-8.9746798
-9.3432772
-9.6893914
-10.012189
-10.310893
-10.584785
-10.833204
-11.055552
-11.251293
-11.419956
-11.561135
-11.674488
-11.759743
-11.816694
-11.845204
-12.215659
-12.186256
-12.127522
-12.039599
-11.922697
-11.7771
-11.603158
-11.401291
-11.171985
-10.915793
-10.633333
-10.325285
-9.9923919
-9.6354543
-9.2553322
-8.8529406
-8.429248
-7.9852736
-7.5220856
-7.0407979
-6.5425677
-6.0285928
-5.5001085
-4.9583848
-4.4047233
-3.8404544
-3.2669334
-2.6855383
-2.0976655
-1.5047273
-0.90814813
-0.30936137
0.29019414
0.88907742
1.4858488
2.0790732
2.6673237
3.2491849
3.823256
4.3881544
4.942519
5.4850132
6.0143285
6.5291873
7.028346
7.5105982
7.9747778
8.4197613
8.8444711
9.2478779
9.6290034
9.9869228
10.320767
10.629724
10.913044
11.170036
11.400076
11.602604
11.777125
11.923214
12.040515
12.128742
12.18768
12.217185
12.217185
12.18768
12.128742
12.040515
11.923214
11.777124
11.602604
11.400076
11.170036
10.913044
10.629724
10.320767
9.9869228
9.6290034
9.2478779
8.8444711
8.4197613
7.9747778
7.5105982
7.028346
6.5291873
6.0143285
5.4850132
4.942519
4.3881544
3.823256
3.2491849
2.6673238
2.0790732
1.4858488
0.88907744
0.29019416
-0.30936136
-0.90814813
-1.5047273
-2.0976655
-2.6855383
-3.2669334
-3.8404544
-4.4047233
-4.9583848
-5.5001085
-6.0285928
-6.5425678
-7.0407979
-7.5220856
-7.9852736
-8.429248
-8.8529407
-9.2553323
-9.6354544
-9.9923919
-10.325285
-10.633333
-10.915793
-11.171985
-11.401291
-11.603158
-11.7771
-11.922697
-12.039599
-12.127522
-12.186256
-12.215659
-12.61556
-12.585194
-12.524535
-12.43373
-12.312998
-12.16263
-11.982989
-11.774509
-11.537692
-11.27311
-10.9814
-10.663266
-10.319474
-9.950853
-9.5582905
-9.1427318
-8.7051773
-8.24668
-7.768343
-7.2713167
-6.7567964
-6.2260189
-5.6802601
-5.1208312
-4.5490765
-3.9663694
-3.3741096
-2.7737194
-2.1666409
-1.554332
-0.93826338
-0.31991474
0.29922844
0.91767854
1.5339493
2.1465591
2.7540349
3.3549152
3.947754
4.5311236
5.1036186
5.6638591
6.2104936
6.7422027
7.2577023
7.7557463
8.2351301
8.6946931
9.1333223
9.549954
9.9435776
10.313237
10.658035
10.977132
11.269752
11.535183
11.772778
11.981958
12.162212
12.313102
12.434258
12.525385
12.58626
12.616735
12.616735
12.58626
12.525385
12.434258
12.313102
12.162212
11.981958
11.772778
11.535183
11.269752
10.977132
10.658035
10.313237
9.9435776
9.549954
9.1333223
8.6946932
8.2351301
7.7557463
7.2577023
6.7422027
6.2104936
5.6638591
5.1036186
4.5311236
3.947754
3.3549152
2.7540349
2.1465591
1.5339493
0.91767856
0.29922846
-0.31991473
-0.93826337
-1.554332
-2.1666409
-2.7737194
-3.3741096
-3.9663694
-4.5490765
-5.1208312
-5.6802601
-6.2260189
-6.7567964
-7.2713167
-7.768343
-8.24668
-8.7051774
-9.1427319
-9.5582905
-9.9508531
-10.319474
-10.663266
-10.9814
-11.27311
-11.537692
-11.774509
-11.982989
-12.16263
-12.312998
-12.43373
-12.524535
-12.585194
-12.61556
-13.045877
-13.014474
-12.951744
-12.857839
-12.732984
-12.577482
-12.391709
-12.176112
-11.931212
-11.6576
-11.355937
-11.026949
-10.67143
-10.290237
-9.8842883
-9.4545616
-9.0020918
-8.5279679
-8.0333309
-7.5193706
-6.9873231
-6.4384673
-5.8741225
-5.2956447
-4.7044236
-4.1018792
-3.4894586
-2.8686324
-2.2408911
-1.607742
-0.97070544
-0.33131095
0.3089059
0.94840735
1.585657
2.2191234
2.8472836
3.468627
4.0816584
4.6849022
5.2769052
5.8562405
6.4215108
6.9713519
7.5044356
8.0194732
8.5152188
8.990472
9.4440812
9.8749461
10.282021
10.664317
11.020904
11.350915
11.653546
11.92806
12.173788
12.390129
12.576555
12.732612
12.857918
12.952166
13.015127
13.046646
13.046646
13.015127
12.952166
12.857918
12.732612
12.576555
12.390129
12.173788
11.92806
11.653546
11.350915
11.020904
10.664317
10.282021
9.8749462
9.4440812
8.990472
8.5152188
8.0194732
7.5044356
6.9713519
6.4215109
5.8562405
5.2769052
4.6849022
4.0816585
3.468627
2.8472836
2.2191234
1.585657
0.94840738
0.30890593
-0.33131093
-0.97070542
-1.607742
-2.2408911
-2.8686323
-3.4894586
-4.1018792
-4.7044236
-5.2956447
-5.8741225
-6.4384673
-6.9873231
-7.5193706
-8.0333309
-8.5279679
-9.0020918
-9.4545616
-9.8842884
-10.290237
-10.67143
-11.026949
-11.355937
-11.6576
-11.931212
-12.176112
-12.391709
-12.577482
-12.732984
-12.857839
-12.951744
-13.014474
-13.045877
-13.507655
-13.475139
-13.410186
-13.312953
-13.183674
-13.022663
-12.830307
-12.607073
-12.353499
-12.070197
-11.757852
-11.417217
-11.049113
-10.654429
-10.234115
-9.7891855
-9.3207106
-8.8298189
-8.3176918
-7.7855613
-7.2347073
-6.6664541
-6.0821674
-5.4832511
-4.871144
-4.2473158
-3.6132646
-2.9705124
-2.3206021
-1.6650939
-1.0055609
-0.34358656
0.31924009
0.9813275
1.6410856
2.2969293
2.9472825
3.5905816
4.2252792
4.8498476
5.4627828
6.0626076
6.6478754
7.2171737
7.7691273
8.3024018
8.8157068
9.307799
9.7774857
10.223627
10.64514
11.040999
11.410241
11.751967
12.065345
12.349609
12.604067
12.828096
13.021148
13.182753
13.312514
13.410114
13.475313
13.507953
13.507953
13.475313
13.410114
13.312514
13.182753
13.021148
12.828096
12.604067
12.349609
12.065345
11.751967
11.410241
11.040999
10.64514
10.223627
9.7774858
9.3077991
8.8157068
8.3024018
7.7691273
7.2171737
6.6478754
6.0626076
5.4627828
4.8498477
4.2252792
3.5905817
2.9472825
2.2969293
1.6410856
0.98132753
0.31924012
-0.34358653
-1.0055609
-1.6650938
-2.3206021
-2.9705123
-3.6132645
-4.2473158
-4.8711439
-5.4832511
-6.0821674
-6.6664541
-7.2347073
-7.7855613
-8.3176918
-8.8298189
-9.3207106
-9.7891855
-10.234115
-10.654429
-11.049113
-11.417217
-11.757852
-12.070197
-12.353499
-12.607073
-12.830307
-13.022663
-13.183674
-13.312953
-13.410186
-13.475139
-13.507655
-14.002015
-13.968308
-13.900974
-13.800178
-13.666162
-13.499252
-13.29985
-13.068439
-12.805577
-12.511901
-12.18812
-11.835015
-11.453438
-11.044311
-10.60862
-10.147414
-9.6618062
-9.1529649
-8.6221152
-8.0705346
-7.4995497
-6.9105333
-6.304901
-5.684108
-5.0496451
-4.4030359
-3.7458326
-3.0796124
-2.4059743
-1.7265346
-1.0429235
-0.35678155
0.33024476
1.0165064
1.700356
2.3801511
3.0542587
3.7210587
4.3789475
5.0263422
5.6616841
6.2834422
6.8901173
7.4802452
8.0524003
8.6051993
9.1373041
9.6474256
10.134327
10.596825
11.033798
11.444181
11.826975
12.181247
12.506133
12.80084
13.064648
13.296911
13.49706
13.664607
13.799139
13.900329
13.967926
14.001767
14.001767
13.967926
13.900329
13.799139
13.664607
13.49706
13.296911
13.064648
12.80084
12.506133
12.181247
11.826975
11.444181
11.033798
10.596825
10.134327
9.6474256
9.1373041
8.6051993
8.0524004
7.4802453
6.8901174
6.2834423
5.6616841
5.0263422
4.3789475
3.7210587
3.0542587
2.3801511
1.700356
1.0165065
0.33024479
-0.35678152
-1.0429235
-1.7265345
-2.4059743
-3.0796124
-3.7458326
-4.4030359
-5.0496451
-5.6841079
-6.304901
-6.9105332
-7.4995496
-8.0705346
-8.6221152
-9.1529649
-9.6618062
-10.147414
-10.60862
-11.044311
-11.453438
-11.835015
-12.18812
-12.511901
-12.805577
-13.068439
-13.29985
-13.499252
-13.666162
-13.800178
-13.900974
-13.968308
-14.002015
-14.530159
-14.495179
-14.425302
-14.320698
-14.181621
-14.008408
-13.801476
-13.561328
-13.288545
-12.983784
-12.647785
-12.281357
-11.885387
-11.460829
-11.008709
-10.530117
-10.026206
-9.4981895
-8.9473398
-8.3749822
-7.7824936
-7.1712985
-6.5428659
-5.8987053
-5.2403639
-4.5694221
-3.88749
-3.1962041
-2.4972226
-1.7922223
-1.0828942
-0.37093956
0.34193372
1.0540154
1.7635966
2.4689742
3.1684542
3.8603561
4.5430167
5.2147939
5.8740707
6.5192589
7.1488027
7.7611829
8.3549202
8.9285787
9.4807696
10.010155
10.51545
10.995427
11.448919
11.874823
12.2721
12.63978
12.976966
13.282834
13.556635
13.797698
14.005434
14.179331
14.318965
14.423991
14.494152
14.529276
14.529276
14.494152
14.423991
14.318965
14.179331
14.005434
13.797698
13.556635
13.282834
12.976966
12.63978
12.2721
11.874823
11.448919
10.995427
10.51545
10.010155
9.4807697
8.9285787
8.3549202
7.761183
7.1488027
6.5192589
5.8740707
5.2147939
4.5430167
3.8603561
3.1684542
2.4689742
1.7635966
1.0540154
0.34193372
-0.37093956
-1.0828942
-1.7922223
-2.4972226
-3.1962041
-3.88749
-4.569422
-5.2403639
-5.8987053
-6.5428659
-7.1712985
-7.7824936
-8.3749822
-8.9473398
-9.4981895
-10.026206
-10.530117
-11.008709
-11.460829
-11.885387
-12.281357
-12.647785
-12.983784
-13.288545
-13.561328
-13.801476
-14.008408
-14.181621
-14.320698
-14.425302
-14.495179
-14.530159
-15.093372
-15.057033
-14.984444
-14.87578
-14.731304
-14.551368
-14.336407
-14.086941
-13.803574
-13.486993
-13.137962
-12.757327
-12.346007
-11.904995
-11.435355
-10.938222
-10.414793
-9.8663308
-9.2941552
-8.6996438
-8.084227
-7.4493845
-6.796642
-6.1275674
-5.4437675
-4.7468834
-4.0385872
-3.320578
-2.5945777
-1.8623271
-1.1255818
-0.38610824
0.35432061
1.0939292
1.8309436
2.5635953
3.290126
4.0087908
4.7178628
5.415637
6.1004344
6.7706054
7.4245346
8.0606438
8.6773962
9.2733002
9.8469127
10.396843
10.921756
11.420377
11.891491
12.333951
12.746677
13.128661
13.478969
13.796744
14.081207
14.331661
14.54749
14.728164
14.87324
14.982361
15.055257
15.09175
15.09175
15.055257
14.982361
14.87324
14.728164
14.54749
14.331661
14.081207
13.796744
13.478969
13.128661
12.746677
12.333951
11.891491
11.420377
10.921756
10.396843
9.8469127
9.2733002
8.6773962
8.0606438
7.4245346
6.7706054
6.1004344
5.415637
4.7178628
4.0087907
3.290126
2.5635953
1.8309435
1.0939292
0.35432058
-0.38610827
-1.1255818
-1.8623271
-2.5945777