/*--------------------------------*- C++ -*----------------------------------*\
| =========                 |                                                 |
| \\      /  F ield         | OpenFOAM: The Open Source CFD Toolbox           |
|  \\    /   O peration     | Version:  2106                                  |
|   \\  /    A nd           | Website:  www.openfoam.com                      |
|    \\/     M anipulation  |                                                 |
\*---------------------------------------------------------------------------*/
FoamFile
{
    version     2.0;
    format      ascii;
    arch        "LSB;label=32;scalar=64";
    class       volVectorField;
    location    "0.022";
    object      U_0;
}
// * * * * * * * * * * * * * * * * * * * * * * * * * * * * * * * * * * * * * //

dimensions      [0 1 -1 0 0 0 0];

internalField   nonuniform List<vector> 
16384
(
(0.0020881894 -0.0020851799 0)
(0.0062590743 -0.0020796948 0)
(0.010413495 -0.0020687424 0)
(0.014540535 -0.0020523577 0)
(0.018629365 -0.0020305935 0)
(0.022669278 -0.0020035194 0)
(0.026649724 -0.001971222 0)
(0.030560344 -0.0019338042 0)
(0.034390999 -0.0018913847 0)
(0.038131805 -0.0018440975 0)
(0.04177316 -0.0017920913 0)
(0.045305774 -0.0017355288 0)
(0.048720698 -0.0016745857 0)
(0.052009345 -0.0016094503 0)
(0.055163519 -0.0015403222 0)
(0.058175434 -0.0014674119 0)
(0.061037734 -0.0013909394 0)
(0.063743515 -0.0013111337 0)
(0.066286338 -0.0012282314 0)
(0.068660246 -0.0011424761 0)
(0.070859775 -0.0010541172 0)
(0.072879967 -0.00096340906 0)
(0.074716376 -0.0008706099 0)
(0.076365077 -0.00077598084 0)
(0.07782267 -0.000679785 0)
(0.079086284 -0.0005822865 0)
(0.080153575 -0.0004837496 0)
(0.081022729 -0.00038443772 0)
(0.08169246 -0.0002846126 0)
(0.082162001 -0.00018453349 0)
(0.082431102 -8.4456283e-05 0)
(0.082500013 1.5369095e-05 0)
(0.082369522 0.00011468286 0)
(0.082040839 0.00021326698 0)
(0.081515706 0.00031087051 0)
(0.080796313 0.00040726604 0)
(0.0798853 0.00050223334 0)
(0.078785743 0.00059555883 0)
(0.077501139 0.00068703688 0)
(0.076035388 0.00077647035 0)
(0.074392776 0.00086367089 0)
(0.072577956 0.00094845919 0)
(0.070595932 0.0010306651 0)
(0.068452039 0.0011101279 0)
(0.066151923 0.0011866962 0)
(0.063701526 0.0012602279 0)
(0.061107063 0.0013305903 0)
(0.058375006 0.00139766 0)
(0.055512065 0.0014613227 0)
(0.052525169 0.0015214727 0)
(0.04942145 0.0015780134 0)
(0.046208225 0.0016308561 0)
(0.042892981 0.0016799207 0)
(0.039483355 0.0017251346 0)
(0.035987124 0.0017664327 0)
(0.032412187 0.0018037572 0)
(0.028766551 0.0018370572 0)
(0.025058318 0.0018662881 0)
(0.021295674 0.0018914118 0)
(0.017486875 0.0019123962 0)
(0.013640234 0.0019292149 0)
(0.0097641128 0.0019418469 0)
(0.0058669081 0.0019502767 0)
(0.0019570433 0.0019544942 0)
(-0.0019570432 0.0019544942 0)
(-0.005866908 0.0019502767 0)
(-0.0097641127 0.0019418469 0)
(-0.013640234 0.0019292149 0)
(-0.017486875 0.0019123962 0)
(-0.021295674 0.0018914118 0)
(-0.025058318 0.0018662881 0)
(-0.02876655 0.0018370572 0)
(-0.032412187 0.0018037572 0)
(-0.035987124 0.0017664327 0)
(-0.039483355 0.0017251346 0)
(-0.042892981 0.0016799207 0)
(-0.046208225 0.0016308561 0)
(-0.04942145 0.0015780134 0)
(-0.052525169 0.0015214727 0)
(-0.055512065 0.0014613227 0)
(-0.058375006 0.00139766 0)
(-0.061107063 0.0013305903 0)
(-0.063701526 0.0012602279 0)
(-0.066151923 0.0011866962 0)
(-0.068452039 0.0011101279 0)
(-0.070595932 0.0010306651 0)
(-0.072577956 0.00094845919 0)
(-0.074392776 0.00086367089 0)
(-0.076035388 0.00077647035 0)
(-0.077501139 0.00068703688 0)
(-0.078785743 0.00059555883 0)
(-0.0798853 0.00050223334 0)
(-0.080796313 0.00040726604 0)
(-0.081515706 0.00031087052 0)
(-0.082040839 0.00021326698 0)
(-0.082369522 0.00011468287 0)
(-0.082500013 1.5369096e-05 0)
(-0.082431102 -8.4456281e-05 0)
(-0.082162001 -0.00018453349 0)
(-0.08169246 -0.0002846126 0)
(-0.08102273 -0.00038443772 0)
(-0.080153575 -0.0004837496 0)
(-0.079086284 -0.0005822865 0)
(-0.07782267 -0.00067978499 0)
(-0.076365077 -0.00077598084 0)
(-0.074716376 -0.0008706099 0)
(-0.072879967 -0.00096340906 0)
(-0.070859775 -0.0010541172 0)
(-0.068660246 -0.0011424761 0)
(-0.066286338 -0.0012282314 0)
(-0.063743515 -0.0013111337 0)
(-0.061037734 -0.0013909394 0)
(-0.058175434 -0.0014674119 0)
(-0.055163519 -0.0015403222 0)
(-0.052009345 -0.0016094503 0)
(-0.048720698 -0.0016745857 0)
(-0.045305774 -0.0017355288 0)
(-0.04177316 -0.0017920913 0)
(-0.038131805 -0.0018440975 0)
(-0.034390999 -0.0018913847 0)
(-0.030560344 -0.0019338042 0)
(-0.026649724 -0.001971222 0)
(-0.022669278 -0.0020035194 0)
(-0.018629365 -0.0020305935 0)
(-0.014540535 -0.0020523577 0)
(-0.010413495 -0.0020687424 0)
(-0.0062590743 -0.0020796948 0)
(-0.0020881894 -0.0020851799 0)
(0.0020989359 -0.0062635936 0)
(0.0062912846 -0.0062471162 0)
(0.010467082 -0.0062142146 0)
(0.014615352 -0.0061649944 0)
(0.018725208 -0.0060996139 0)
(0.022785887 -0.0060182824 0)
(0.026786784 -0.0059212601 0)
(0.030717482 -0.0058088559 0)
(0.034567791 -0.0056814267 0)
(0.038327774 -0.0055393752 0)
(0.041987779 -0.005383148 0)
(0.045538467 -0.0052132338 0)
(0.048970842 -0.0050301607 0)
(0.052276272 -0.0048344941 0)
(0.05544652 -0.0046268342 0)
(0.058473758 -0.0044078129 0)
(0.061350593 -0.0041780915 0)
(0.064070087 -0.0039383576 0)
(0.066625766 -0.0036893224 0)
(0.069011645 -0.0034317175 0)
(0.071222232 -0.0031662924 0)
(0.073252544 -0.0028938111 0)
(0.075098114 -0.0026150491 0)
(0.076754997 -0.0023307912 0)
(0.078219778 -0.0020418276 0)
(0.079489572 -0.001748952 0)
(0.080562026 -0.001452958 0)
(0.081435318 -0.0011546372 0)
(0.082108157 -0.00085477592 0)
(0.082579774 -0.00055415304 0)
(0.082849921 -0.00025353801 0)
(0.082918858 4.631137e-05 0)
(0.082787355 0.00034465608 0)
(0.082456661 0.00064077367 0)
(0.08192852 0.00093395082 0)
(0.081205133 0.0012235009 0)
(0.080289158 0.0015087596 0)
(0.07918369 0.0017890851 0)
(0.077892247 0.0020638597 0)
(0.076418753 0.0023324912 0)
(0.074767519 0.002594414 0)
(0.072943224 0.0028490894 0)
(0.070950902 0.0030960065 0)
(0.068795917 0.0033346825 0)
(0.066483949 0.0035646627 0)
(0.064020969 0.0037855207 0)
(0.061413229 0.0039968581 0)
(0.058667234 0.0041983041 0)
(0.05578973 0.0043895153 0)
(0.052787683 0.0045701752 0)
(0.049668262 0.004739993 0)
(0.04643882 0.0048987033 0)
(0.043106882 0.005046065 0)
(0.039680124 0.0051818604 0)
(0.036166361 0.0053058946 0)
(0.032573528 0.0054179938 0)
(0.028909672 0.0055180053 0)
(0.025182934 0.0056057956 0)
(0.021401537 0.0056812504 0)
(0.017573775 0.0057442731 0)
(0.013708001 0.0057947845 0)
(0.0098126125 0.0058327222 0)
(0.0058960459 0.0058580396 0)
(0.0019667623 0.0058707059 0)
(-0.0019667622 0.0058707059 0)
(-0.0058960459 0.0058580396 0)
(-0.0098126124 0.0058327222 0)
(-0.013708001 0.0057947845 0)
(-0.017573775 0.0057442731 0)
(-0.021401537 0.0056812504 0)
(-0.025182934 0.0056057956 0)
(-0.028909672 0.0055180053 0)
(-0.032573528 0.0054179938 0)
(-0.03616636 0.0053058946 0)
(-0.039680124 0.0051818604 0)
(-0.043106882 0.005046065 0)
(-0.04643882 0.0048987033 0)
(-0.049668262 0.004739993 0)
(-0.052787683 0.0045701752 0)
(-0.05578973 0.0043895153 0)
(-0.058667234 0.0041983041 0)
(-0.061413229 0.0039968581 0)
(-0.064020969 0.0037855207 0)
(-0.066483949 0.0035646628 0)
(-0.068795917 0.0033346825 0)
(-0.070950902 0.0030960065 0)
(-0.072943224 0.0028490894 0)
(-0.074767519 0.002594414 0)
(-0.076418753 0.0023324912 0)
(-0.077892247 0.0020638597 0)
(-0.07918369 0.0017890851 0)
(-0.080289158 0.0015087597 0)
(-0.081205133 0.0012235009 0)
(-0.08192852 0.00093395083 0)
(-0.082456661 0.00064077368 0)
(-0.082787355 0.00034465608 0)
(-0.082918858 4.6311374e-05 0)
(-0.082849921 -0.00025353801 0)
(-0.082579774 -0.00055415303 0)
(-0.082108157 -0.00085477591 0)
(-0.081435318 -0.0011546372 0)
(-0.080562026 -0.001452958 0)
(-0.079489572 -0.001748952 0)
(-0.078219778 -0.0020418276 0)
(-0.076754997 -0.0023307912 0)
(-0.075098114 -0.0026150491 0)
(-0.073252544 -0.0028938111 0)
(-0.071222232 -0.0031662924 0)
(-0.069011645 -0.0034317175 0)
(-0.066625766 -0.0036893224 0)
(-0.064070087 -0.0039383576 0)
(-0.061350593 -0.0041780915 0)
(-0.058473758 -0.0044078129 0)
(-0.05544652 -0.0046268342 0)
(-0.052276272 -0.0048344941 0)
(-0.048970842 -0.0050301607 0)
(-0.045538467 -0.0052132338 0)
(-0.041987779 -0.005383148 0)
(-0.038327774 -0.0055393752 0)
(-0.034567791 -0.0056814267 0)
(-0.030717482 -0.0058088559 0)
(-0.026786784 -0.0059212601 0)
(-0.022785887 -0.0060182824 0)
(-0.018725208 -0.0060996139 0)
(-0.014615352 -0.0061649944 0)
(-0.010467082 -0.0062142146 0)
(-0.0062912847 -0.0062471162 0)
(-0.002098936 -0.0062635936 0)
(0.0021176503 -0.010473414 0)
(0.0063473783 -0.01044586 0)
(0.010560406 -0.010390841 0)
(0.014745659 -0.010308533 0)
(0.018892153 -0.0101992 0)
(0.022989028 -0.010063195 0)
(0.027025582 -0.0099009504 0)
(0.030991308 -0.0097129843 0)
(0.034875923 -0.0094998932 0)
(0.038669399 -0.0092623507 0)
(0.042362 -0.0090011039 0)
(0.045944303 -0.0087169699 0)
(0.04940723 -0.0084108321 0)
(0.052742074 -0.0080836363 0)
(0.055940522 -0.0077363859 0)
(0.058994677 -0.007370138 0)
(0.061897081 -0.0069859985 0)
(0.064640731 -0.0065851173 0)
(0.067219098 -0.0061686837 0)
(0.069626141 -0.0057379215 0)
(0.071856321 -0.0052940837 0)
(0.07390461 -0.004838448 0)
(0.0757665 -0.0043723117 0)
(0.077438011 -0.0038969867 0)
(0.078915699 -0.003413795 0)
(0.080196651 -0.0029240635 0)
(0.081278495 -0.0024291198 0)
(0.082159392 -0.0019302874 0)
(0.08283804 -0.0014288814 0)
(0.083313664 -0.00092620453 0)
(0.083586015 -0.00042354288 0)
(0.083655356 7.7837835e-05 0)
(0.083522462 0.00057669782 0)
(0.083188601 0.0010718259 0)
(0.082655529 0.0015620361 0)
(0.081925472 0.0020461789 0)
(0.081001112 0.0025231422 0)
(0.079885575 0.0029918524 0)
(0.078582414 0.0034512768 0)
(0.07709559 0.0039004251 0)
(0.075429454 0.0043383515 0)
(0.073588732 0.0047641555 0)
(0.071578506 0.0051769829 0)
(0.06940419 0.0055760267 0)
(0.067071518 0.0059605268 0)
(0.064586519 0.0063297706 0)
(0.0619555 0.0066830923 0)
(0.059185029 0.0070198725 0)
(0.056281914 0.0073395377 0)
(0.053253184 0.007641559 0)
(0.050106073 0.0079254508 0)
(0.046848001 0.0081907701 0)
(0.04348656 0.0084371145 0)
(0.040029493 0.0086641208 0)
(0.036484685 0.0088714634 0)
(0.032860139 0.0090588529 0)
(0.029163973 0.0092260342 0)
(0.025404397 0.009372785 0)
(0.021589705 0.0094989145 0)
(0.017728259 0.009604262 0)
(0.013828484 0.0096886955 0)
(0.0098988483 0.0097521106 0)
(0.0059478579 0.00979443 0)
(0.0019840447 0.0098156024 0)
(-0.0019840446 0.0098156024 0)
(-0.0059478579 0.00979443 0)
(-0.0098988482 0.0097521106 0)
(-0.013828484 0.0096886955 0)
(-0.017728259 0.009604262 0)
(-0.021589705 0.0094989145 0)
(-0.025404397 0.009372785 0)
(-0.029163973 0.0092260342 0)
(-0.032860139 0.0090588529 0)
(-0.036484685 0.0088714634 0)
(-0.040029493 0.0086641208 0)
(-0.04348656 0.0084371145 0)
(-0.046848001 0.0081907702 0)
(-0.050106073 0.0079254508 0)
(-0.053253184 0.007641559 0)
(-0.056281914 0.0073395377 0)
(-0.059185029 0.0070198725 0)
(-0.0619555 0.0066830923 0)
(-0.064586519 0.0063297706 0)
(-0.067071518 0.0059605269 0)
(-0.06940419 0.0055760267 0)
(-0.071578506 0.0051769829 0)
(-0.073588732 0.0047641555 0)
(-0.075429454 0.0043383515 0)
(-0.07709559 0.0039004251 0)
(-0.078582414 0.0034512768 0)
(-0.079885575 0.0029918525 0)
(-0.081001112 0.0025231422 0)
(-0.081925472 0.0020461789 0)
(-0.082655529 0.0015620361 0)
(-0.083188601 0.0010718259 0)
(-0.083522462 0.00057669782 0)
(-0.083655356 7.7837843e-05 0)
(-0.083586015 -0.00042354287 0)
(-0.083313664 -0.00092620452 0)
(-0.08283804 -0.0014288814 0)
(-0.082159392 -0.0019302874 0)
(-0.081278495 -0.0024291198 0)
(-0.080196651 -0.0029240635 0)
(-0.078915699 -0.003413795 0)
(-0.077438011 -0.0038969867 0)
(-0.0757665 -0.0043723116 0)
(-0.07390461 -0.004838448 0)
(-0.071856321 -0.0052940837 0)
(-0.069626141 -0.0057379215 0)
(-0.067219098 -0.0061686837 0)
(-0.064640731 -0.0065851173 0)
(-0.061897081 -0.0069859985 0)
(-0.058994677 -0.007370138 0)
(-0.055940522 -0.0077363859 0)
(-0.052742074 -0.0080836363 0)
(-0.04940723 -0.0084108321 0)
(-0.045944303 -0.0087169699 0)
(-0.042362 -0.0090011039 0)
(-0.038669399 -0.0092623507 0)
(-0.034875923 -0.0094998932 0)
(-0.030991308 -0.0097129843 0)
(-0.027025582 -0.0099009504 0)
(-0.022989028 -0.010063195 0)
(-0.018892153 -0.0101992 0)
(-0.014745659 -0.010308533 0)
(-0.010560406 -0.010390841 0)
(-0.0063473784 -0.01044586 0)
(-0.0021176504 -0.010473414 0)
(0.0021443313 -0.014728662 0)
(0.0064273511 -0.014689911 0)
(0.01069346 -0.014612534 0)
(0.014931446 -0.01449678 0)
(0.019130186 -0.014343021 0)
(0.023278683 -0.01415175 0)
(0.027366101 -0.013923578 0)
(0.031381801 -0.013659233 0)
(0.035315369 -0.013359553 0)
(0.039156655 -0.013025487 0)
(0.042895795 -0.012658085 0)
(0.046523252 -0.012258496 0)
(0.050029831 -0.011827963 0)
(0.053406716 -0.011367815 0)
(0.056645489 -0.010879465 0)
(0.059738153 -0.010364398 0)
(0.062677155 -0.0098241699 0)
(0.065455404 -0.009260398 0)
(0.068066288 -0.0086747546 0)
(0.070503689 -0.0080689607 0)
(0.072761995 -0.0074447787 0)
(0.074836115 -0.0068040052 0)
(0.076721482 -0.0061484648 0)
(0.078414066 -0.0054800026 0)
(0.079910376 -0.0048004776 0)
(0.081207462 -0.0041117562 0)
(0.08230292 -0.0034157054 0)
(0.083194887 -0.0027141868 0)
(0.083882042 -0.0020090503 0)
(0.0843636 -0.0013021278 0)
(0.084639307 -0.0005952282 0)
(0.084709432 0.00010986862 0)
(0.084574755 0.00081141758 0)
(0.084236565 0.0015077127 0)
(0.083696637 0.0021970888 0)
(0.082957228 0.002877929 0)
(0.082021055 0.0035486686 0)
(0.080891287 0.0042077969 0)
(0.079571521 0.0048538613 0)
(0.078065772 0.005485469 0)
(0.07637845 0.0061012896 0)
(0.074514344 0.0067000569 0)
(0.072478603 0.0072805696 0)
(0.070276712 0.0078416927 0)
(0.067914483 0.0083823578 0)
(0.065398022 0.008901563 0)
(0.062733723 0.0093983724 0)
(0.059928238 0.0098719159 0)
(0.056988463 0.010321387 0)
(0.053921519 0.010746044 0)
(0.050734734 0.011145204 0)
(0.047435623 0.011518245 0)
(0.044031874 0.011864602 0)
(0.04053133 0.012183765 0)
(0.036941972 0.012475278 0)
(0.033271907 0.012738735 0)
(0.02952935 0.012973778 0)
(0.025722615 0.013180095 0)
(0.021860096 0.013357419 0)
(0.01795026 0.013505525 0)
(0.014001631 0.013624227 0)
(0.010022782 0.01371338 0)
(0.0060223209 0.013772874 0)
(0.0020088828 0.01380264 0)
(-0.0020088827 0.01380264 0)
(-0.0060223208 0.013772874 0)
(-0.010022782 0.01371338 0)
(-0.014001631 0.013624227 0)
(-0.01795026 0.013505525 0)
(-0.021860096 0.013357419 0)
(-0.025722615 0.013180095 0)
(-0.02952935 0.012973778 0)
(-0.033271907 0.012738735 0)
(-0.036941972 0.012475278 0)
(-0.04053133 0.012183765 0)
(-0.044031874 0.011864602 0)
(-0.047435623 0.011518245 0)
(-0.050734734 0.011145204 0)
(-0.053921519 0.010746044 0)
(-0.056988463 0.010321387 0)
(-0.059928238 0.009871916 0)
(-0.062733723 0.0093983725 0)
(-0.065398022 0.008901563 0)
(-0.067914483 0.0083823578 0)
(-0.070276712 0.0078416927 0)
(-0.072478603 0.0072805696 0)
(-0.074514344 0.0067000569 0)
(-0.07637845 0.0061012897 0)
(-0.078065772 0.005485469 0)
(-0.079571521 0.0048538613 0)
(-0.080891287 0.0042077969 0)
(-0.082021055 0.0035486686 0)
(-0.082957228 0.0028779291 0)
(-0.083696637 0.0021970888 0)
(-0.084236565 0.0015077127 0)
(-0.084574755 0.00081141759 0)
(-0.084709432 0.00010986863 0)
(-0.084639307 -0.00059522818 0)
(-0.0843636 -0.0013021278 0)
(-0.083882042 -0.0020090502 0)
(-0.083194887 -0.0027141868 0)
(-0.08230292 -0.0034157054 0)
(-0.081207462 -0.0041117562 0)
(-0.079910376 -0.0048004776 0)
(-0.078414067 -0.0054800026 0)
(-0.076721482 -0.0061484648 0)
(-0.074836115 -0.0068040052 0)
(-0.072761995 -0.0074447787 0)
(-0.070503689 -0.0080689607 0)
(-0.068066288 -0.0086747546 0)
(-0.065455404 -0.009260398 0)
(-0.062677155 -0.0098241699 0)
(-0.059738153 -0.010364398 0)
(-0.056645489 -0.010879465 0)
(-0.053406716 -0.011367815 0)
(-0.050029831 -0.011827963 0)
(-0.046523252 -0.012258496 0)
(-0.042895796 -0.012658085 0)
(-0.039156655 -0.013025487 0)
(-0.03531537 -0.013359553 0)
(-0.031381801 -0.013659233 0)
(-0.027366101 -0.013923578 0)
(-0.023278683 -0.01415175 0)
(-0.019130186 -0.014343021 0)
(-0.014931446 -0.01449678 0)
(-0.01069346 -0.014612534 0)
(-0.0064273511 -0.014689911 0)
(-0.0021443314 -0.014728662 0)
(0.0021790164 -0.019045108 0)
(0.0065313159 -0.018995 0)
(0.010866434 -0.018894946 0)
(0.015172977 -0.018745268 0)
(0.019439645 -0.018546447 0)
(0.023655264 -0.01829912 0)
(0.027808825 -0.018004078 0)
(0.031889516 -0.017662261 0)
(0.035886758 -0.017274755 0)
(0.039790236 -0.016842784 0)
(0.043589929 -0.016367707 0)
(0.047276143 -0.015851011 0)
(0.050839539 -0.015294302 0)
(0.054271156 -0.014699298 0)
(0.057562439 -0.014067826 0)
(0.060705263 -0.013401807 0)
(0.063691951 -0.012703251 0)
(0.066515296 -0.011974251 0)
(0.069168577 -0.011216968 0)
(0.071645576 -0.010433627 0)
(0.073940587 -0.0096265075 0)
(0.076048435 -0.008797932 0)
(0.077964476 -0.0079502595 0)
(0.079684612 -0.0070858761 0)
(0.081205292 -0.0062071855 0)
(0.082523515 -0.0053166011 0)
(0.083636834 -0.0044165375 0)
(0.084543354 -0.0035094021 0)
(0.08524173 -0.002597587 0)
(0.08573116 -0.0016834618 0)
(0.086011384 -0.00076936588 0)
(0.086082673 0.00014239877 0)
(0.085945819 0.0010495743 0)
(0.08560213 0.001949953 0)
(0.08505341 0.0028413819 0)
(0.084301951 0.0037217701 0)
(0.083350517 0.0045890927 0)
(0.082202328 0.0054413958 0)
(0.080861043 0.0062768001 0)
(0.079330744 0.0070935041 0)
(0.077615915 0.0078897869 0)
(0.075721427 0.0086640106 0)
(0.073652515 0.0094146218 0)
(0.07141476 0.010140153 0)
(0.06901407 0.010839222 0)
(0.066456656 0.011510535 0)
(0.063749019 0.012152881 0)
(0.060897924 0.012765136 0)
(0.057910382 0.013346259 0)
(0.054793634 0.013895289 0)
(0.051555129 0.014411347 0)
(0.048202508 0.014893629 0)
(0.044743584 0.015341407 0)
(0.041186328 0.015754021 0)
(0.037538852 0.016130884 0)
(0.033809394 0.016471471 0)
(0.030006301 0.016775322 0)
(0.026138019 0.017042035 0)
(0.022213078 0.017271265 0)
(0.018240076 0.017462722 0)
(0.014227674 0.017616168 0)
(0.010184579 0.017731414 0)
(0.0061195346 0.017808322 0)
(0.0020413099 0.017846799 0)
(-0.0020413099 0.017846799 0)
(-0.0061195346 0.017808322 0)
(-0.010184579 0.017731414 0)
(-0.014227674 0.017616168 0)
(-0.018240076 0.017462722 0)
(-0.022213078 0.017271265 0)
(-0.026138019 0.017042035 0)
(-0.030006301 0.016775322 0)
(-0.033809394 0.016471471 0)
(-0.037538852 0.016130884 0)
(-0.041186328 0.015754021 0)
(-0.044743584 0.015341407 0)
(-0.048202508 0.014893629 0)
(-0.051555129 0.014411347 0)
(-0.054793634 0.013895289 0)
(-0.057910382 0.013346259 0)
(-0.060897923 0.012765136 0)
(-0.063749019 0.012152881 0)
(-0.066456656 0.011510535 0)
(-0.06901407 0.010839222 0)
(-0.07141476 0.010140153 0)
(-0.073652515 0.0094146218 0)
(-0.075721427 0.0086640106 0)
(-0.077615915 0.0078897869 0)
(-0.079330744 0.0070935041 0)
(-0.080861043 0.0062768002 0)
(-0.082202328 0.0054413958 0)
(-0.083350517 0.0045890927 0)
(-0.084301951 0.0037217701 0)
(-0.08505341 0.002841382 0)
(-0.08560213 0.001949953 0)
(-0.085945819 0.0010495743 0)
(-0.086082673 0.00014239878 0)
(-0.086011384 -0.00076936587 0)
(-0.08573116 -0.0016834618 0)
(-0.08524173 -0.002597587 0)
(-0.084543354 -0.003509402 0)
(-0.083636834 -0.0044165375 0)
(-0.082523515 -0.0053166011 0)
(-0.081205292 -0.0062071854 0)
(-0.079684612 -0.0070858761 0)
(-0.077964476 -0.0079502595 0)
(-0.076048435 -0.008797932 0)
(-0.073940587 -0.0096265075 0)
(-0.071645576 -0.010433627 0)
(-0.069168577 -0.011216968 0)
(-0.066515296 -0.011974251 0)
(-0.063691951 -0.012703251 0)
(-0.060705263 -0.013401807 0)
(-0.05756244 -0.014067826 0)
(-0.054271156 -0.014699298 0)
(-0.050839539 -0.015294302 0)
(-0.047276143 -0.015851011 0)
(-0.043589929 -0.016367707 0)
(-0.039790236 -0.016842784 0)
(-0.035886758 -0.017274755 0)
(-0.031889516 -0.017662261 0)
(-0.027808825 -0.018004078 0)
(-0.023655264 -0.01829912 0)
(-0.019439645 -0.018546447 0)
(-0.015172977 -0.018745268 0)
(-0.010866434 -0.018894946 0)
(-0.006531316 -0.018995 0)
(-0.0021790165 -0.019045108 0)
(0.0022217831 -0.023438889 0)
(0.0066595049 -0.023377224 0)
(0.011079712 -0.023254091 0)
(0.015470791 -0.023069888 0)
(0.019821221 -0.022825206 0)
(0.024119614 -0.022520829 0)
(0.028354745 -0.02215773 0)
(0.032515593 -0.021737068 0)
(0.036591373 -0.021260177 0)
(0.040571569 -0.020728564 0)
(0.044445966 -0.020143901 0)
(0.04820468 -0.019508018 0)
(0.05183819 -0.018822889 0)
(0.055337358 -0.018090633 0)
(0.058693463 -0.017313492 0)
(0.061898217 -0.016493833 0)
(0.064943793 -0.01563413 0)
(0.06782284 -0.014736955 0)
(0.070528504 -0.013804969 0)
(0.07305444 -0.01284091 0)
(0.075394829 -0.011847581 0)
(0.077544388 -0.010827842 0)
(0.079498379 -0.009784594 0)
(0.081252619 -0.0087207744 0)
(0.082803481 -0.0076393412 0)
(0.084147902 -0.0065432643 0)
(0.085283381 -0.0054355157 0)
(0.08620798 -0.0043190583 0)
(0.086920323 -0.0031968368 0)
(0.087419589 -0.0020717681 0)
(0.087705507 -0.00094673199 0)
(0.08777835 0.00017543723 0)
(0.087638923 0.0012919594 0)
(0.087288557 0.0024001158 0)
(0.086729089 0.0034972559 0)
(0.085962857 0.0045808051 0)
(0.084992677 0.0056482699 0)
(0.083821836 0.0066972443 0)
(0.082454064 0.007725414 0)
(0.080893528 0.0087305605 0)
(0.079144803 0.0097105651 0)
(0.077212859 0.010663411 0)
(0.075103039 0.011587186 0)
(0.072821039 0.012480083 0)
(0.070372888 0.013340402 0)
(0.067764927 0.01416655 0)
(0.065003787 0.014957037 0)
(0.062096373 0.015710481 0)
(0.059049841 0.016425601 0)
(0.055871576 0.017101217 0)
(0.05256918 0.017736247 0)
(0.049150447 0.018329704 0)
(0.045623347 0.018880693 0)
(0.04199601 0.019388405 0)
(0.038276709 0.019852118 0)
(0.034473844 0.020271189 0)
(0.030595927 0.020645053 0)
(0.026651568 0.020973218 0)
(0.022649462 0.02125526 0)
(0.018598375 0.021490824 0)
(0.014507134 0.021679619 0)
(0.010384612 0.021821413 0)
(0.0062397222 0.021916037 0)
(0.0020814004 0.021963378 0)
(-0.0020814003 0.021963378 0)
(-0.0062397221 0.021916037 0)
(-0.010384612 0.021821413 0)
(-0.014507133 0.021679619 0)
(-0.018598375 0.021490824 0)
(-0.022649462 0.02125526 0)
(-0.026651568 0.020973218 0)
(-0.030595927 0.020645053 0)
(-0.034473844 0.020271189 0)
(-0.038276709 0.019852118 0)
(-0.04199601 0.019388405 0)
(-0.045623347 0.018880693 0)
(-0.049150447 0.018329704 0)
(-0.05256918 0.017736247 0)
(-0.055871576 0.017101217 0)
(-0.059049841 0.016425601 0)
(-0.062096373 0.015710481 0)
(-0.065003787 0.014957037 0)
(-0.067764927 0.01416655 0)
(-0.070372888 0.013340402 0)
(-0.072821039 0.012480083 0)
(-0.075103039 0.011587186 0)
(-0.077212859 0.010663411 0)
(-0.079144803 0.0097105651 0)
(-0.080893528 0.0087305605 0)
(-0.082454064 0.007725414 0)
(-0.083821836 0.0066972443 0)
(-0.084992677 0.0056482699 0)
(-0.085962857 0.0045808051 0)
(-0.086729089 0.003497256 0)
(-0.087288557 0.0024001158 0)
(-0.087638923 0.0012919594 0)
(-0.08777835 0.00017543725 0)
(-0.087705507 -0.00094673198 0)
(-0.087419589 -0.002071768 0)
(-0.086920323 -0.0031968368 0)
(-0.08620798 -0.0043190582 0)
(-0.085283381 -0.0054355157 0)
(-0.084147902 -0.0065432643 0)
(-0.082803481 -0.0076393411 0)
(-0.081252619 -0.0087207744 0)
(-0.079498379 -0.009784594 0)
(-0.077544388 -0.010827842 0)
(-0.075394829 -0.011847581 0)
(-0.07305444 -0.01284091 0)
(-0.070528504 -0.013804969 0)
(-0.06782284 -0.014736955 0)
(-0.064943793 -0.01563413 0)
(-0.061898217 -0.016493833 0)
(-0.058693463 -0.017313492 0)
(-0.055337358 -0.018090633 0)
(-0.05183819 -0.018822889 0)
(-0.048204681 -0.019508018 0)
(-0.044445966 -0.020143901 0)
(-0.040571569 -0.020728564 0)
(-0.036591373 -0.021260177 0)
(-0.032515593 -0.021737068 0)
(-0.028354745 -0.02215773 0)
(-0.024119614 -0.022520829 0)
(-0.019821222 -0.022825206 0)
(-0.015470791 -0.023069888 0)
(-0.011079712 -0.023254091 0)
(-0.006659505 -0.023377224 0)
(-0.0022217832 -0.023438889 0)
(0.002272749 -0.027926279 0)
(0.0068122708 -0.027852812 0)
(0.011333883 -0.027706116 0)
(0.015825708 -0.027486662 0)
(0.020275968 -0.027195156 0)
(0.024673013 -0.02683253 0)
(0.029005369 -0.026399946 0)
(0.033261763 -0.02589878 0)
(0.037431166 -0.025330624 0)
(0.041502823 -0.024697273 0)
(0.045466287 -0.024000718 0)
(0.04931145 -0.023243137 0)
(0.053028572 -0.022426884 0)
(0.056608307 -0.021554479 0)
(0.060041732 -0.020628596 0)
(0.063320371 -0.019652053 0)
(0.066436213 -0.018627794 0)
(0.069381737 -0.017558886 0)
(0.072149927 -0.016448496 0)
(0.074734291 -0.015299885 0)
(0.07712887 -0.014116393 0)
(0.079328256 -0.012901425 0)
(0.081327595 -0.011658438 0)
(0.083122602 -0.010390931 0)
(0.08470956 -0.0091024265 0)
(0.086085329 -0.0077964643 0)
(0.087247343 -0.0064765849 0)
(0.088193613 -0.0051463189 0)
(0.088922723 -0.0038091756 0)
(0.089433828 -0.0024686311 0)
(0.089726644 -0.0011281179 0)
(0.089801445 0.00020898566 0)
(0.08965905 0.0015393651 0)
(0.089300815 0.0028597792 0)
(0.08872862 0.0041670682 0)
(0.087944851 0.0054581623 0)
(0.086952391 0.0067300886 0)
(0.0857546 0.0079799783 0)
(0.084355299 0.0092050719 0)
(0.08275875 0.010402724 0)
(0.080969639 0.011570409 0)
(0.078993054 0.012705722 0)
(0.076834465 0.013806385 0)
(0.074499707 0.014870242 0)
(0.071994953 0.015895268 0)
(0.069326695 0.016879565 0)
(0.066501726 0.017821359 0)
(0.063527115 0.018719003 0)
(0.060410189 0.019570972 0)
(0.05715851 0.020375862 0)
(0.05377986 0.021132385 0)
(0.050282215 0.021839368 0)
(0.046673735 0.022495745 0)
(0.04296274 0.023100558 0)
(0.039157694 0.023652946 0)
(0.035267193 0.024152147 0)
(0.031299943 0.02459749 0)
(0.027264752 0.024988389 0)
(0.023170514 0.025324345 0)
(0.019026194 0.025604936 0)
(0.014840818 0.025829815 0)
(0.01062346 0.02599871 0)
(0.0063832314 0.026111418 0)
(0.0021292703 0.026167805 0)
(-0.0021292702 0.026167805 0)
(-0.0063832314 0.026111418 0)
(-0.01062346 0.02599871 0)
(-0.014840818 0.025829815 0)
(-0.019026194 0.025604936 0)
(-0.023170514 0.025324345 0)
(-0.027264752 0.024988389 0)
(-0.031299943 0.02459749 0)
(-0.035267192 0.024152147 0)
(-0.039157694 0.023652946 0)
(-0.04296274 0.023100558 0)
(-0.046673735 0.022495745 0)
(-0.050282215 0.021839368 0)
(-0.05377986 0.021132385 0)
(-0.05715851 0.020375862 0)
(-0.060410189 0.019570972 0)
(-0.063527115 0.018719003 0)
(-0.066501726 0.017821359 0)
(-0.069326695 0.016879565 0)
(-0.071994953 0.015895268 0)
(-0.074499707 0.014870242 0)
(-0.076834465 0.013806385 0)
(-0.078993054 0.012705723 0)
(-0.080969639 0.011570409 0)
(-0.08275875 0.010402724 0)
(-0.084355299 0.0092050719 0)
(-0.0857546 0.0079799784 0)
(-0.086952391 0.0067300887 0)
(-0.087944851 0.0054581623 0)
(-0.08872862 0.0041670682 0)
(-0.089300815 0.0028597792 0)
(-0.08965905 0.0015393651 0)
(-0.089801445 0.00020898568 0)
(-0.089726644 -0.0011281178 0)
(-0.089433828 -0.002468631 0)
(-0.088922723 -0.0038091755 0)
(-0.088193613 -0.0051463189 0)
(-0.087247343 -0.0064765849 0)
(-0.086085329 -0.0077964643 0)
(-0.08470956 -0.0091024265 0)
(-0.083122602 -0.010390931 0)
(-0.081327595 -0.011658438 0)
(-0.079328256 -0.012901425 0)
(-0.07712887 -0.014116393 0)
(-0.074734291 -0.015299885 0)
(-0.072149928 -0.016448496 0)
(-0.069381737 -0.017558886 0)
(-0.066436213 -0.018627794 0)
(-0.063320371 -0.019652053 0)
(-0.060041732 -0.020628596 0)
(-0.056608307 -0.021554479 0)
(-0.053028572 -0.022426884 0)
(-0.049311451 -0.023243137 0)
(-0.045466287 -0.024000718 0)
(-0.041502823 -0.024697273 0)
(-0.037431166 -0.025330624 0)
(-0.033261763 -0.02589878 0)
(-0.029005369 -0.026399946 0)
(-0.024673014 -0.02683253 0)
(-0.020275968 -0.027195156 0)
(-0.015825708 -0.027486662 0)
(-0.011333883 -0.027706116 0)
(-0.0068122708 -0.027852812 0)
(-0.0022727491 -0.027926279 0)
(0.0023320738 -0.032523798 0)
(0.006990092 -0.032438246 0)
(0.011629741 -0.032267418 0)
(0.016238841 -0.032011863 0)
(0.02080531 -0.031672402 0)
(0.025317201 -0.031250122 0)
(0.029762743 -0.030746373 0)
(0.034130376 -0.03016276 0)
(0.038408785 -0.029501135 0)
(0.042586939 -0.028763586 0)
(0.046654122 -0.027952432 0)
(0.050599963 -0.027070208 0)
(0.054414469 -0.026119655 0)
(0.058088051 -0.025103705 0)
(0.061611554 -0.024025471 0)
(0.064976278 -0.022888233 0)
(0.068174001 -0.021695419 0)
(0.071197003 -0.020450597 0)
(0.074038081 -0.019157454 0)
(0.076690567 -0.017819788 0)
(0.079148342 -0.016441486 0)
(0.081405848 -0.015026511 0)
(0.083458098 -0.01357889 0)
(0.085300687 -0.012102694 0)
(0.08692979 -0.010602028 0)
(0.088342178 -0.0090810115 0)
(0.089535207 -0.0075437694 0)
(0.090506828 -0.0059944137 0)
(0.091255578 -0.0044370321 0)
(0.091780581 -0.0028756745 0)
(0.092081538 -0.00131434 0)
(0.092158721 0.00024303455 0)
(0.092012967 0.0017925867 0)
(0.091645659 0.0033305386 0)
(0.091058723 0.0048532077 0)
(0.090254605 0.0063570156 0)
(0.089236262 0.0078384969 0)
(0.088007141 0.0092943074 0)
(0.086571165 0.01072123 0)
(0.08493271 0.012116182 0)
(0.083096587 0.013476217 0)
(0.081068025 0.014798535 0)
(0.078852643 0.016080478 0)
(0.076456433 0.017319537 0)
(0.073885739 0.018513351 0)
(0.071147231 0.019659708 0)
(0.068247887 0.020756545 0)
(0.06519497 0.021801942 0)
(0.061996006 0.022794126 0)
(0.058658764 0.023731462 0)
(0.055191234 0.024612454 0)
(0.051601611 0.025435737 0)
(0.04789827 0.026200074 0)
(0.044089755 0.026904349 0)
(0.040184755 0.027547566 0)
(0.03619209 0.028128839 0)
(0.032120699 0.028647389 0)
(0.027979619 0.02910254 0)
(0.023777973 0.02949371 0)
(0.01952496 0.029820411 0)
(0.015229839 0.030082243 0)
(0.010901917 0.030278889 0)
(0.00655054 0.030410115 0)
(0.0021850788 0.030475767 0)
(-0.0021850787 0.030475767 0)
(-0.0065505399 0.030410115 0)
(-0.010901917 0.030278889 0)
(-0.015229839 0.030082243 0)
(-0.01952496 0.029820411 0)
(-0.023777973 0.02949371 0)
(-0.027979619 0.02910254 0)
(-0.032120699 0.028647389 0)
(-0.03619209 0.028128839 0)
(-0.040184754 0.027547566 0)
(-0.044089755 0.026904349 0)
(-0.04789827 0.026200074 0)
(-0.051601611 0.025435737 0)
(-0.055191234 0.024612454 0)
(-0.058658764 0.023731462 0)
(-0.061996006 0.022794126 0)
(-0.06519497 0.021801942 0)
(-0.068247887 0.020756545 0)
(-0.07114723 0.019659708 0)
(-0.073885739 0.018513351 0)
(-0.076456433 0.017319537 0)
(-0.078852643 0.016080478 0)
(-0.081068025 0.014798535 0)
(-0.083096587 0.013476217 0)
(-0.08493271 0.012116182 0)
(-0.086571165 0.01072123 0)
(-0.088007141 0.0092943074 0)
(-0.089236262 0.007838497 0)
(-0.090254605 0.0063570156 0)