/*--------------------------------*- C++ -*----------------------------------*\
| =========                 |                                                 |
| \\      /  F ield         | OpenFOAM: The Open Source CFD Toolbox           |
|  \\    /   O peration     | Version:  2306                                  |
|   \\  /    A nd           | Website:  www.openfoam.com                      |
|    \\/     M anipulation  |                                                 |
\*---------------------------------------------------------------------------*/
FoamFile
{
    version     2.0;
    format      ascii;
    arch        "LSB;label=32;scalar=64";
    class       volVectorField;
    location    "0.28";
    object      U;
}
// * * * * * * * * * * * * * * * * * * * * * * * * * * * * * * * * * * * * * //

dimensions      [0 1 -1 0 0 0 0];

internalField   nonuniform List<vector> 
6400
(
(9.8419698e-05 7.953112e-05 1.3051897e-20)
(9.9844747e-05 7.727612e-05 3.7745332e-21)
(0.00010120645 7.4953415e-05 -4.9724919e-21)
(0.00010250239 7.2565616e-05 8.3619277e-22)
(0.00010373036 7.0115182e-05 3.6028635e-21)
(0.0001048883 6.7604737e-05 -2.7050865e-21)
(0.00010597421 6.5037103e-05 -4.5299991e-21)
(0.00010698633 6.2415091e-05 -2.5573242e-21)
(0.00010792298 5.974145e-05 4.2014395e-21)
(0.00010878258 5.7019341e-05 2.8998952e-21)
(0.00010956371 5.425177e-05 -1.9463329e-21)
(0.00011026517 5.1441662e-05 -1.0979024e-21)
(0.00011088579 4.8592225e-05 -3.7715522e-21)
(0.00011142454 4.570661e-05 -3.1966712e-22)
(0.00011188058 4.2787988e-05 1.5159189e-21)
(0.0001122532 3.9839574e-05 -3.1707487e-21)
(0.00011254173 3.6864537e-05 -2.2981112e-21)
(0.00011274572 3.3866221e-05 -9.4453721e-22)
(0.00011286483 3.0847719e-05 2.7799416e-21)
(0.00011289894 2.7812308e-05 -2.5419167e-22)
(0.00011284786 2.4763312e-05 -2.2404634e-21)
(0.0001127116 2.1704019e-05 -2.3870458e-21)
(0.00011249038 1.863713e-05 -4.3315061e-22)
(0.00011218451 1.5566155e-05 1.0226673e-21)
(0.00011179425 1.2494314e-05 -1.2086507e-21)
(0.00011132004 9.4243978e-06 -2.9809155e-21)
(0.00011076257 6.3596881e-06 -2.6068801e-21)
(0.00011012243 3.3032188e-06 8.6112259e-22)
(0.00010940056 2.5776779e-07 2.6156903e-21)
(0.00010859781 -2.7732682e-06 -3.0452462e-21)
(0.00010771496 -5.7873943e-06 -3.0896101e-21)
(0.00010675318 -8.781775e-06 3.9820688e-22)
(0.00010571364 -1.1753671e-05 4.9947343e-21)
(0.0001045975 -1.4700411e-05 6.4360336e-22)
(0.00010340604 -1.7619247e-05 -4.5858859e-21)
(0.0001021407 -2.0507635e-05 -3.1442177e-21)
(0.00010080289 -2.3363037e-05 1.4935483e-21)
(9.9393986e-05 -2.6182972e-05 3.3582553e-21)
(9.7915663e-05 -2.8965255e-05 -4.0490029e-22)
(9.6369537e-05 -3.1707382e-05 -6.4184447e-21)
(9.4757182e-05 -3.4407262e-05 -1.3416612e-21)
(9.308042e-05 -3.7062679e-05 2.6874116e-21)
(9.1340956e-05 -3.9671615e-05 1.9118646e-21)
(8.9540619e-05 -4.2231961e-05 -6.5586029e-22)
(8.7681195e-05 -4.4741836e-05 -3.9730032e-21)
(8.5764577e-05 -4.7199305e-05 -3.5035017e-21)
(8.3792746e-05 -4.9602643e-05 1.3079019e-21)
(8.1767653e-05 -5.1950142e-05 3.8618366e-21)
(7.96913e-05 -5.42401e-05 2.4606268e-22)
(7.7565661e-05 -5.6471017e-05 -8.7851965e-22)
(7.5392742e-05 -5.8641316e-05 -2.3300539e-21)
(7.317456e-05 -6.0749683e-05 -2.7855655e-22)
(7.0913209e-05 -6.2794571e-05 4.1649765e-21)
(6.8610828e-05 -6.477503e-05 1.9247902e-22)
(6.6269518e-05 -6.6689675e-05 -3.7088292e-21)
(6.3891389e-05 -6.8537376e-05 -1.9977034e-21)
(6.1478505e-05 -7.0317016e-05 9.9495333e-22)
(5.9033062e-05 -7.2027637e-05 4.0331637e-21)
(5.6557205e-05 -7.3668389e-05 -1.9703584e-21)
(5.4053038e-05 -7.5238392e-05 -4.9194169e-21)
(5.1522688e-05 -7.6736757e-05 -2.0990694e-21)
(4.8968299e-05 -7.8162932e-05 2.8143827e-22)
(4.639212e-05 -7.9516152e-05 4.5855774e-21)
(4.3796179e-05 -8.0795874e-05 7.276521e-22)
(4.1182729e-05 -8.200151e-05 -3.8245306e-21)
(3.8553883e-05 -8.3132725e-05 -2.4547211e-21)
(3.5911644e-05 -8.4188986e-05 -1.0754804e-21)
(3.3258249e-05 -8.5170173e-05 3.4577234e-21)
(3.0595854e-05 -8.6075799e-05 5.5154837e-22)
(2.792646e-05 -8.6905649e-05 -3.6952353e-21)
(2.5252169e-05 -8.7659727e-05 -4.5716375e-22)
(2.257516e-05 -8.8337831e-05 4.001637e-22)
(1.9897431e-05 -8.8939984e-05 2.67062e-21)
(1.7221106e-05 -8.9466306e-05 -1.0075922e-22)
(1.4548256e-05 -8.9916877e-05 -2.8846789e-21)
(1.1880877e-05 -9.0292101e-05 -4.9353603e-22)
(9.2210902e-06 -9.0592722e-05 3.5143732e-22)
(6.5697525e-06 -9.0821054e-05 7.2158541e-22)
(3.9266657e-06 -9.0981065e-05 -2.7918139e-21)
(1.3001387e-06 -9.1076117e-05 -4.3531338e-21)
(9.6223001e-05 7.6901648e-05 -3.6138114e-21)
(9.7580925e-05 7.4705421e-05 -2.9972965e-23)
(9.8877764e-05 7.2444679e-05 2.1019297e-21)
(0.00010011133 7.012177e-05 -5.1485558e-21)
(0.00010127944 6.7739227e-05 -1.3536705e-21)
(0.00010238016 6.5299393e-05 -2.3332251e-21)
(0.00010341167 6.2805073e-05 -3.8235294e-21)
(0.00010437214 6.0258774e-05 4.9018506e-21)
(0.00010525992 5.7663291e-05 -1.946208e-21)
(0.0001060736 5.5021482e-05 1.0883931e-21)
(0.00010681183 5.2336314e-05 1.5159448e-21)
(0.00010747339 4.9610597e-05 1.1742773e-21)
(0.0001080572 4.6847285e-05 1.2736475e-21)
(0.00010856223 4.4049411e-05 -4.1531392e-21)
(0.00010898768 4.1220082e-05 1.326955e-21)
(0.00010933278 3.8362277e-05 -6.0143953e-22)
(0.00010959701 3.5479091e-05 9.4232635e-22)
(0.00010977989 3.2573638e-05 3.9605327e-21)
(0.00010988105 2.9649044e-05 -4.1848417e-21)
(0.00010990025 2.6708218e-05 4.1019608e-22)
(0.00010983744 2.3754504e-05 -2.0955706e-22)
(0.00010969269 2.0790852e-05 -1.8468299e-21)
(0.00010946607 1.7820185e-05 3.4519643e-21)
(0.00010915779 1.4845605e-05 -1.8483745e-21)
(0.00010876818 1.1870358e-05 8.9570177e-22)
(0.00010829766 8.8969641e-06 -6.4094512e-22)
(0.00010774682 5.9286287e-06 5.6338691e-22)
(0.00010711636 2.9683599e-06 2.9857838e-21)
(0.00010640708 1.8984632e-08 -1.1369357e-21)
(0.00010561963 -2.9168076e-06 2.3826564e-21)
(0.00010475486 -5.8362025e-06 4.4203566e-21)
(0.00010381392 -8.7364756e-06 1.7506284e-21)
(0.00010279797 -1.1614986e-05 -7.1347907e-22)
(0.00010170805 -1.446921e-05 -3.7548373e-21)
(0.00010054541 -1.7296534e-05 3.3521015e-21)
(9.9311307e-05 -2.0094411e-05 3.4016692e-21)
(9.8007102e-05 -2.2860477e-05 8.9357463e-22)
(9.6634332e-05 -2.5592253e-05 -3.5951074e-22)
(9.5194374e-05 -2.8287715e-05 -1.9279067e-21)
(9.3688783e-05 -3.0944378e-05 -4.6477629e-23)
(9.2119129e-05 -3.3560217e-05 1.2435655e-21)
(9.0487159e-05 -3.6133077e-05 2.7504745e-21)
(8.8794545e-05 -3.8661059e-05 7.0463736e-22)
(8.7042922e-05 -4.1142073e-05 -1.1638343e-21)
(8.5234162e-05 -4.3574224e-05 1.1595374e-21)
(8.337007e-05 -4.595584e-05 3.8144375e-21)
(8.1452477e-05 -4.828505e-05 5.4748098e-21)
(7.9483202e-05 -5.0560387e-05 1.2924225e-21)
(7.7464189e-05 -5.2779914e-05 -1.6223749e-21)
(7.5397399e-05 -5.4942411e-05 4.1013047e-21)
(7.3284782e-05 -5.7046281e-05 3.2604672e-21)
(7.1128322e-05 -5.9090097e-05 1.2117845e-21)
(6.8930004e-05 -6.1072627e-05 1.989859e-21)
(6.6691901e-05 -6.2992724e-05 8.4632641e-22)
(6.4416003e-05 -6.4849098e-05 7.4666104e-22)
(6.2104347e-05 -6.6640663e-05 1.9629799e-21)
(5.9758967e-05 -6.8366277e-05 2.4584715e-21)
(5.7381882e-05 -7.0025117e-05 2.7085404e-21)
(5.4975285e-05 -7.1616243e-05 -6.0357454e-22)
(5.2541245e-05 -7.3138857e-05 1.8353011e-23)
(5.0081768e-05 -7.4591988e-05 1.530625e-21)
(4.7598981e-05 -7.5975205e-05 7.0968945e-22)
(4.5094953e-05 -7.728778e-05 2.1413081e-21)
(4.2571719e-05 -7.8529067e-05 2.2311325e-21)
(4.0031364e-05 -7.9698482e-05 1.4804155e-21)
(3.7476042e-05 -8.0795768e-05 9.7246397e-22)
(3.4907734e-05 -8.182039e-05 -2.2428306e-22)
(3.2328583e-05 -8.2772261e-05 1.2637424e-21)
(2.9740686e-05 -8.3650792e-05 3.876182e-22)
(2.7145976e-05 -8.4455886e-05 1.5835569e-23)
(2.4546563e-05 -8.518744e-05 2.5033163e-21)
(2.1944394e-05 -8.5845348e-05 2.6302493e-21)
(1.9341524e-05 -8.6429574e-05 2.9753641e-21)
(1.6740024e-05 -8.6940204e-05 1.7243725e-21)
(1.4141808e-05 -8.737736e-05 5.8088192e-22)
(1.1548948e-05 -8.7741413e-05 1.3887512e-23)
(8.9634752e-06 -8.803316e-05 1.262594e-21)
(6.3862435e-06 -8.8254699e-05 1.3703078e-21)
(3.8170306e-06 -8.8409899e-05 -1.2478207e-21)
(1.2638438e-06 -8.8502227e-05 -3.1188882e-21)
(9.4082809e-05 7.4365752e-05 5.4070449e-21)
(9.5376707e-05 7.2226557e-05 5.6996736e-21)
(9.6611773e-05 7.0025804e-05 6.6114191e-21)
(9.7785863e-05 6.7765873e-05 8.2066301e-21)
(9.8896905e-05 6.5448981e-05 7.3047544e-21)
(9.9943009e-05 6.3077496e-05 9.2131275e-23)
(0.00010092249 6.0654006e-05 -1.6645387e-21)
(0.00010183366 5.8180971e-05 4.7809354e-21)
(0.0001026749 5.566106e-05 3.8875295e-21)
(0.00010344478 5.3096868e-05 6.127303e-21)
(0.00010414205 5.049127e-05 4.4074887e-21)
(0.00010476556 4.7847036e-05 1.3868671e-21)
(0.00010531418 4.5166923e-05 2.3509358e-21)
(0.00010578701 4.2453807e-05 4.9446455e-21)
(0.00010618325 3.9710709e-05 8.6022965e-21)
(0.00010650216 3.6940385e-05 2.2393125e-21)
(0.00010674314 3.4145897e-05 -6.9471769e-22)
(0.00010690583 3.1330143e-05 2.773979e-21)
(0.00010698985 2.8496153e-05 2.6839108e-21)
(0.00010699492 2.5646783e-05 6.7600726e-21)
(0.00010692103 2.2784979e-05 -4.0005296e-22)
(0.0001067682 1.9913802e-05 -2.4824787e-21)
(0.00010653643 1.7036054e-05 -3.1546248e-22)
(0.00010622598 1.4154586e-05 1.4690818e-21)
(0.00010583715 1.1272648e-05 6.0759926e-21)
(0.00010537033 8.3925818e-06 7.7854333e-22)
(0.00010482598 5.5175506e-06 -1.8886906e-21)
(0.00010420485 2.6503111e-06 -2.6000481e-22)
(0.0001035077 -2.0638807e-07 -2.1635688e-22)
(0.00010273508 -3.0500127e-06 2.1117687e-21)
(0.00010188788 -5.8777708e-06 -1.8386035e-21)
(0.00010096718 -8.6870794e-06 -1.1547525e-21)
(9.9973969e-05 -1.1475305e-05 3.3380004e-22)
(9.8909318e-05 -1.4239988e-05 1.5327551e-21)
(9.7774434e-05 -1.6978693e-05 3.2161709e-21)
(9.6570485e-05 -1.9689001e-05 -1.6008597e-21)
(9.529882e-05 -2.2368537e-05 -2.4027207e-21)
(9.3960859e-05 -2.5015008e-05 3.927281e-22)
(9.255787e-05 -2.7626281e-05 -9.0538865e-22)
(9.1091454e-05 -3.0200167e-05 1.5247578e-21)
(8.956315e-05 -3.2734612e-05 -6.7025824e-22)
(8.7974418e-05 -3.5227567e-05 -1.6967782e-21)
(8.6327045e-05 -3.7677005e-05 -2.6015817e-22)
(8.4622659e-05 -4.0081178e-05 9.9133138e-22)
(8.286283e-05 -4.2437962e-05 1.7105924e-21)
(8.1049408e-05 -4.4746011e-05 -5.379685e-22)
(7.9184154e-05 -4.7003395e-05 -6.6779567e-22)
(7.7268879e-05 -4.920861e-05 7.8870034e-24)
(7.530546e-05 -5.1359929e-05 -6.8222345e-22)
(7.3295675e-05 -5.3455993e-05 2.2254058e-21)
(7.1241459e-05 -5.549532e-05 1.5076274e-22)
(6.9144723e-05 -5.7476556e-05 -2.8423617e-21)
(6.7007432e-05 -5.939857e-05 -9.7195618e-22)
(6.483152e-05 -6.1260033e-05 4.2421895e-22)
(6.2618911e-05 -6.3059827e-05 1.8019562e-21)
(6.0371555e-05 -6.4796821e-05 2.0111272e-22)
(5.8091488e-05 -6.6470023e-05 -1.5098698e-21)
(5.5780753e-05 -6.807852e-05 -7.5138424e-22)
(5.344128e-05 -6.9621406e-05 -8.110951e-22)
(5.1075142e-05 -7.1098044e-05 8.130112e-22)
(4.8684315e-05 -7.2507249e-05 1.6554243e-24)
(4.6270828e-05 -7.3848732e-05 -4.0846814e-21)
(4.3836683e-05 -7.5121726e-05 -8.0055591e-22)
(4.1383904e-05 -7.6325579e-05 4.0721464e-22)
(3.8914519e-05 -7.7459814e-05 1.3840784e-21)
(3.6430539e-05 -7.8524117e-05 2.6759508e-22)
(3.3934015e-05 -7.9518029e-05 -3.4137904e-21)
(3.1426903e-05 -8.0441308e-05 -1.016836e-21)
(2.8911157e-05 -8.1293561e-05 -1.0028105e-21)
(2.6388819e-05 -8.2074564e-05 6.6871621e-22)
(2.3861941e-05 -8.2784233e-05 1.4522228e-21)
(2.1332415e-05 -8.3422482e-05 -3.5088886e-22)
(1.8802221e-05 -8.3989279e-05 -5.4049874e-22)
(1.6273317e-05 -8.4484636e-05 -2.9648826e-22)
(1.3747597e-05 -8.4908747e-05 4.792979e-22)
(1.1227023e-05 -8.5261872e-05 -3.9927617e-22)
(8.7135873e-06 -8.5545e-05 -1.7074578e-21)
(6.2082056e-06 -8.5759918e-05 -1.3633485e-21)
(3.7106303e-06 -8.5910513e-05 -2.2434437e-21)
(1.2286135e-06 -8.6000161e-05 -2.6087119e-21)
(9.1997424e-05 7.19196e-05 -6.8559442e-21)
(9.3230241e-05 6.9835761e-05 -2.4875724e-21)
(9.4406393e-05 6.7693229e-05 -2.5400753e-21)
(9.5523725e-05 6.5494328e-05 -1.3172259e-20)
(9.6580348e-05 6.324108e-05 -1.4608716e-20)
(9.7574481e-05 6.0935732e-05 -1.17925e-20)
(9.8504381e-05 5.8580794e-05 -2.827751e-21)
(9.9368493e-05 5.6178624e-05 -2.2752238e-21)
(0.0001001653 5.3731714e-05 -9.4776002e-21)
(0.0001008934 5.1242577e-05 -8.9748585e-21)
(0.00010155161 4.8713905e-05 -4.855047e-21)
(0.00010213876 4.6148385e-05 -1.230686e-21)
(0.00010265382 4.3548602e-05 -4.4528926e-21)
(0.00010309593 4.0917459e-05 -6.8999433e-21)
(0.00010346427 3.8257614e-05 -4.5182305e-21)
(0.00010375815 3.5571784e-05 -3.2801206e-21)
(0.00010397706 3.2863003e-05 -5.5628424e-24)
(0.00010412053 3.0133934e-05 -2.3588107e-21)
(0.00010418821 2.7387416e-05 -5.3852306e-21)
(0.00010417991 2.4626274e-05 -2.4995509e-21)
(0.00010409553 2.1853356e-05 -2.7178557e-21)
(0.00010393496 1.9071577e-05 2.9709888e-22)
(0.0001036983 1.6283573e-05 -3.8162841e-21)
(0.00010338585 1.3492162e-05 -3.9766309e-21)
(0.00010299781 1.070031e-05 4.6163144e-22)
(0.00010253466 7.9104773e-06 8.607522e-22)
(0.0001019968 5.1256067e-06 1.8424294e-21)
(0.00010138472 2.3482096e-06 -1.5200261e-21)
(0.0001006992 -4.1892578e-07 -3.7767223e-21)
(9.9941005e-05 -3.1733503e-06 1.0504501e-21)
(9.911084e-05 -5.9124339e-06 4.2410939e-21)
(9.8209665e-05 -8.6336428e-06 3.9815132e-21)
(9.7238472e-05 -1.1334469e-05 -5.0402134e-21)
(9.6198249e-05 -1.4012571e-05 -2.1745725e-21)
(9.5090145e-05 -1.66655e-05 5.2251571e-21)
(9.3915338e-05 -1.9291035e-05 5.0071954e-21)
(9.2675104e-05 -2.1886838e-05 5.9900382e-22)
(9.137071e-05 -2.4450655e-05 -3.9023441e-21)
(9.000354e-05 -2.6980453e-05 -2.6313793e-21)
(8.8575062e-05 -2.9474113e-05 3.411208e-21)
(8.7086641e-05 -3.1929658e-05 5.1308457e-21)
(8.553981e-05 -3.4345177e-05 1.4894694e-21)
(8.3936168e-05 -3.671857e-05 -2.9244789e-21)
(8.227723e-05 -3.9048225e-05 -6.7466456e-22)
(8.0564808e-05 -4.1332049e-05 4.1460882e-21)
(7.8800472e-05 -4.3568678e-05 3.9474246e-21)
(7.6985861e-05 -4.575641e-05 1.2874887e-21)
(7.5122771e-05 -4.789358e-05 -2.1394534e-21)
(7.3213034e-05 -4.9978742e-05 -1.138651e-21)
(7.1258457e-05 -5.2010332e-05 3.2161533e-21)
(6.926072e-05 -5.3987021e-05 3.5284523e-21)
(6.7221788e-05 -5.5907576e-05 8.0794766e-22)
(6.5143532e-05 -5.7770755e-05 -2.7753548e-21)
(6.302776e-05 -5.957535e-05 1.374612e-22)
(6.0876461e-05 -6.1320218e-05 5.6190031e-21)
(5.8691495e-05 -6.3004197e-05 4.7268839e-21)
(5.6474685e-05 -6.4626533e-05 1.9101542e-21)
(5.4228144e-05 -6.6186152e-05 -1.5775208e-21)
(5.1953787e-05 -6.7682254e-05 -3.8088425e-22)
(4.965343e-05 -6.9114022e-05 4.8633972e-21)
(4.7329094e-05 -7.0480578e-05 5.2453883e-21)
(4.4982788e-05 -7.1781518e-05 -1.131171e-21)
(4.2616381e-05 -7.3016023e-05 -2.9232912e-21)
(4.0231879e-05 -7.4183523e-05 4.751091e-22)
(3.7831305e-05 -7.5283646e-05 4.1850165e-21)
(3.5416541e-05 -7.6315881e-05 3.4597093e-21)
(3.2989507e-05 -7.7279864e-05 -6.5827836e-22)
(3.055217e-05 -7.8175413e-05 -1.5642466e-21)
(2.8106533e-05 -7.9002027e-05 1.0799387e-21)
(2.5654488e-05 -7.9759595e-05 3.4495966e-21)
(2.3197937e-05 -8.0447991e-05 3.6676199e-21)
(2.0738776e-05 -8.1067128e-05 1.1442522e-21)
(1.8278981e-05 -8.1616961e-05 -1.6603556e-21)
(1.5820486e-05 -8.2097468e-05 1.497492e-21)
(1.3365035e-05 -8.2508899e-05 3.0449005e-21)
(1.0914603e-05 -8.2851403e-05 1.6844299e-21)
(8.4711813e-06 -8.3126109e-05 3.2851688e-22)
(6.0355139e-06 -8.3334606e-05 -1.2166153e-21)
(3.6073693e-06 -8.3480788e-05 -9.4606474e-22)
(1.1944048e-06 -8.3567736e-05 -8.153002e-22)
(8.9965304e-05 6.9559591e-05 -1.4226159e-20)
(9.1140006e-05 6.7529541e-05 -1.5950001e-20)
(9.2259924e-05 6.5443537e-05 -1.3646674e-20)
(9.3323155e-05 6.3303738e-05 -8.9930566e-21)
(9.4327934e-05 6.1112159e-05 -1.1638394e-20)
(9.5272455e-05 5.8870884e-05 -1.453957e-20)
(9.6155058e-05 5.6582338e-05 -1.4027916e-20)
(9.6974265e-05 5.4248686e-05 -7.0508216e-21)
(9.7728685e-05 5.1872395e-05 3.1844797e-21)
(9.841694e-05 4.9455848e-05 -7.7250788e-21)
(9.9037846e-05 4.7001553e-05 -1.4008632e-20)
(9.9590346e-05 4.451212e-05 -1.2110363e-20)
(0.00010007345 4.1990016e-05 -8.2592019e-21)
(0.00010048627 3.9438002e-05 -1.3950759e-21)
(0.00010082798 3.6858615e-05 -5.4252289e-21)
(0.00010109803 3.4254522e-05 -7.3546457e-21)
(0.00010129586 3.1628527e-05 -7.1355654e-21)
(0.00010142097 2.8983154e-05 -6.3455864e-21)
(0.00010147312 2.6321177e-05 1.8801341e-21)
(0.00010145208 2.3645275e-05 -2.9961603e-21)
(0.00010135764 2.0958312e-05 -5.3452808e-21)
(0.00010118981 1.8262875e-05 -5.1460722e-21)
(0.00010094873 1.5561636e-05 -5.1308429e-21)
(0.00010063449 1.2857327e-05 3.1352055e-21)
(0.00010024738 1.0152491e-05 1.8012493e-21)
(9.9787769e-05 7.4498683e-06 -7.2131434e-22)
(9.925608e-05 4.752107e-06 -2.8509251e-21)
(9.8652885e-05 2.0615995e-06 -4.5749147e-21)
(9.797882e-05 -6.1886622e-07 1.8459491e-21)
(9.7234527e-05 -3.2870006e-06 1.7159217e-21)
(9.6420784e-05 -5.9403018e-06 -1.1970762e-21)
(9.5538472e-05 -8.5762815e-06 -4.2023765e-21)
(9.4588508e-05 -1.1192495e-05 -1.3186322e-21)
(9.3571894e-05 -1.3786753e-05 6.6267004e-21)
(9.2489757e-05 -1.6356762e-05 5.416391e-21)
(9.1343199e-05 -1.8900215e-05 2.075869e-21)
(9.0133332e-05 -2.141493e-05 -1.9461588e-21)
(8.8861492e-05 -2.3898703e-05 -1.8145611e-21)
(8.752892e-05 -2.6349656e-05 3.8539202e-21)
(8.6137008e-05 -2.8765625e-05 5.1488375e-21)
(8.4687197e-05 -3.1144723e-05 3.3604768e-21)
(8.3180851e-05 -3.3485094e-05 -3.1169913e-21)
(8.1619428e-05 -3.57848e-05 -2.2662125e-21)
(8.0004546e-05 -3.8042179e-05 4.9942365e-21)
(7.8337878e-05 -4.0255345e-05 5.1880934e-21)
(7.6620911e-05 -4.2422749e-05 1.6432878e-22)
(7.4855317e-05 -4.4542847e-05 -1.8568053e-21)
(7.3042795e-05 -4.6614106e-05 1.0121099e-21)
(7.1185016e-05 -4.8635012e-05 3.8075645e-21)
(6.9283799e-05 -5.060409e-05 5.7481857e-21)
(6.7340769e-05 -5.2520039e-05 2.6565769e-21)
(6.5357772e-05 -5.4381679e-05 -1.0147139e-21)
(6.33367e-05 -5.6187748e-05 4.9334578e-23)
(6.1279252e-05 -5.7937138e-05 3.5668836e-21)
(5.9187224e-05 -5.962869e-05 6.5562382e-21)
(5.7062542e-05 -6.1261256e-05 4.1365866e-21)
(5.4907153e-05 -6.2834083e-05 4.8113521e-22)
(5.272281e-05 -6.4346278e-05 4.5489094e-22)
(5.051139e-05 -6.5796935e-05 2.1658582e-21)
(4.8274851e-05 -6.7185131e-05 5.3914135e-21)
(4.6015067e-05 -6.8510235e-05 5.4865688e-21)
(4.3733826e-05 -6.977171e-05 6.9791878e-22)
(4.143305e-05 -7.0968845e-05 -4.2850502e-22)
(3.9114762e-05 -7.2101046e-05 1.3613142e-21)
(3.6780804e-05 -7.3167956e-05 3.8735821e-21)
(3.4433059e-05 -7.4169056e-05 3.4358579e-21)
(3.2073433e-05 -7.5103959e-05 1.76582e-22)
(2.9703808e-05 -7.5972522e-05 7.7019912e-22)
(2.7326126e-05 -7.6774227e-05 2.8471488e-21)
(2.4942167e-05 -7.7509003e-05 3.7785444e-21)
(2.255378e-05 -7.8176734e-05 3.390332e-21)
(2.0162989e-05 -7.8777252e-05 7.2906432e-22)
(1.7771551e-05 -7.9310589e-05 -1.087793e-21)
(1.538122e-05 -7.9776678e-05 1.6508966e-21)
(1.2993934e-05 -8.0175758e-05 4.540742e-21)
(1.0611586e-05 -8.0508029e-05 3.5436859e-21)
(8.2360032e-06 -8.077447e-05 4.6548133e-22)
(5.8679678e-06 -8.0976741e-05 -9.4618389e-22)
(3.5072197e-06 -8.111856e-05 -1.5463443e-21)
(1.1612293e-06 -8.1202906e-05 -9.1229043e-22)
(8.7984921e-05 6.7282287e-05 -5.8515882e-21)
(8.9104045e-05 6.5304452e-05 -6.222851e-21)
(9.0170381e-05 6.3273317e-05 -4.4411349e-21)
(9.1182102e-05 6.1190928e-05 -3.825053e-21)
(9.2137433e-05 5.9059039e-05 -2.2708656e-21)
(9.3034641e-05 5.6879911e-05 -2.6999548e-21)
(9.3872128e-05 5.4655622e-05 -4.5525589e-21)
(9.464855e-05 5.2388324e-05 7.5769131e-22)
(9.5362559e-05 5.0080333e-05 1.5635926e-21)
(9.6012818e-05 4.773399e-05 -1.4050298e-21)
(9.659821e-05 4.5351727e-05 -1.3748823e-21)
(9.7117676e-05 4.2935817e-05 -4.7890601e-21)
(9.7570266e-05 4.0488838e-05 -2.9759664e-21)
(9.7955134e-05 3.8013309e-05 -1.9277863e-21)
(9.8271511e-05 3.5511706e-05 -1.493174e-21)
(9.8518868e-05 3.2986607e-05 -1.5567415e-21)
(9.8696651e-05 3.0440581e-05 -3.4168054e-21)
(9.8804332e-05 2.7876116e-05 -1.7259946e-23)
(9.8841718e-05 2.5295847e-05 5.2524334e-22)
(9.8808513e-05 2.2702445e-05 -2.7201318e-21)
(9.8704588e-05 2.009846e-05 4.2493312e-22)
(9.8529969e-05 1.7486514e-05 -2.0778279e-21)
(9.8284619e-05 1.4869181e-05 1.4961172e-22)
(9.7968784e-05 1.2248964e-05 1.9465807e-22)
(9.7582692e-05 9.6283159e-06 -1.9597231e-22)
(9.7126621e-05 7.0100453e-06 1.8125982e-21)
(9.6601025e-05 4.3964258e-06 -3.2794776e-21)
(9.6006459e-05 1.7900721e-06 -1.3794226e-21)
(9.5343474e-05 -8.0667878e-07 2.1518225e-21)
(9.4612712e-05 -3.391302e-06 1.538609e-22)
(9.3814917e-05 -5.9615634e-06 1.4438544e-21)
(9.2950871e-05 -8.5151014e-06 -2.6514662e-21)
(9.2021506e-05 -1.1049491e-05 1.4614011e-21)
(9.1027842e-05 -1.3562626e-05 4.6948225e-22)
(8.99708e-05 -1.6052264e-05 -1.1030063e-21)
(8.885143e-05 -1.8516287e-05 2.4131409e-21)
(8.7670928e-05 -2.0952392e-05 -5.0857252e-22)
(8.6430472e-05 -2.3358695e-05 -1.0330102e-21)
(8.5131353e-05 -2.5733244e-05 -1.4554897e-21)
(8.377485e-05 -2.8074012e-05 -1.9470191e-21)
(8.23623e-05 -3.0379037e-05 3.2662081e-21)
(8.0895066e-05 -3.2646581e-05 -7.9302702e-22)
(7.937459e-05 -3.4874905e-05 -2.1003656e-21)
(7.7802426e-05 -3.7062221e-05 -1.1956786e-21)
(7.6179986e-05 -3.9206796e-05 -1.2092859e-21)
(7.4508871e-05 -4.1307142e-05 -5.9728669e-22)
(7.2790725e-05 -4.3361676e-05 -3.4547139e-21)
(7.1027081e-05 -4.5368928e-05 -5.7051893e-22)
(6.9219584e-05 -4.7327557e-05 -1.1915521e-22)
(6.7369934e-05 -4.9235975e-05 3.0681368e-22)
(6.547987e-05 -5.1093001e-05 5.7802087e-22)
(6.3551119e-05 -5.2897493e-05 -3.2603802e-21)
(6.1585315e-05 -5.4648108e-05 -6.2268718e-23)
(5.9584177e-05 -5.6343826e-05 1.7301515e-22)
(5.754963e-05 -5.7983586e-05 -2.5248892e-22)
(5.5483455e-05 -5.9566324e-05 1.4476959e-21)
(5.3387384e-05 -6.1091109e-05 -1.2663419e-21)
(5.1263259e-05 -6.2557167e-05 -6.3440432e-22)
(4.9112898e-05 -6.3963651e-05 -2.1261206e-21)
(4.6938079e-05 -6.5309658e-05 -2.2353785e-21)
(4.4740709e-05 -6.6594466e-05 6.2553255e-22)
(4.2522561e-05 -6.781758e-05 -2.0586255e-21)
(4.0285468e-05 -6.8978356e-05 -8.1341482e-23)
(3.8031345e-05 -7.0076321e-05 -4.2893103e-22)
(3.5761978e-05 -7.1110887e-05 -2.0465171e-21)
(3.3479249e-05 -7.208174e-05 -4.1199357e-22)
(3.1184978e-05 -7.2988393e-05 -3.4597608e-21)
(2.8880991e-05 -7.383069e-05 -4.456847e-22)
(2.6569136e-05 -7.4608261e-05 -5.1166788e-22)
(2.4251216e-05 -7.5320884e-05 -1.7710025e-21)
(2.1929088e-05 -7.5968457e-05 5.3277014e-22)
(1.9604513e-05 -7.6550915e-05 -2.2360226e-21)
(1.7279262e-05 -7.7068179e-05 -2.2686615e-21)
(1.4955231e-05 -7.752026e-05 -1.2690532e-21)
(1.2634099e-05 -7.7907301e-05 -1.0786568e-21)
(1.0317701e-05 -7.8229658e-05 2.5709607e-22)
(8.0078781e-06 -7.8488037e-05 -1.6111162e-21)
(5.7054035e-06 -7.8684258e-05 -2.1364031e-21)
(3.4101074e-06 -7.8821797e-05 -2.5988648e-21)
(1.1291008e-06 -7.8903666e-05 -2.4857234e-21)
(8.605484e-05 6.5084315e-05 8.5723454e-21)
(8.7121115e-05 6.3157266e-05 -3.2465627e-21)
(8.8136398e-05 6.1179425e-05 -2.8581025e-21)
(8.909893e-05 5.9152689e-05 -2.3317001e-21)
(9.0007006e-05 5.7078753e-05 -4.0347061e-21)
(9.0859076e-05 5.495979e-05 2.6866776e-21)
(9.1653672e-05 5.2797779e-05 -5.6686009e-21)
(9.2389308e-05 5.0594772e-05 -5.3501246e-23)
(9.3064706e-05 4.8352908e-05 2.4369137e-22)
(9.3678736e-05 4.6074546e-05 -6.9338256e-23)
(9.4230225e-05 4.3761867e-05 4.4197697e-21)
(9.4718178e-05 4.1417149e-05 -2.8140262e-21)
(9.5141713e-05 3.9042824e-05 -1.3368566e-21)
(9.5499965e-05 3.6641279e-05 -6.2342841e-22)
(9.5792261e-05 3.4214882e-05 -9.5029745e-23)
(9.601798e-05 3.1766113e-05 1.8116784e-21)
(9.6176618e-05 2.9297373e-05 -3.0561843e-21)
(9.6267809e-05 2.6811219e-05 1.3658457e-22)
(9.6291134e-05 2.4309948e-05 -1.0642705e-21)
(9.6246423e-05 2.1796287e-05 -1.3135933e-21)
(9.6133583e-05 1.9272521e-05 2.6908854e-21)
(9.5952491e-05 1.6741266e-05 -2.1902363e-21)
(9.5703282e-05 1.4205052e-05 1.9467819e-21)
(9.538606e-05 1.1666073e-05 1.6902236e-21)
(9.5001031e-05 9.1269971e-06 -5.9472286e-22)
(9.4548557e-05 6.5902272e-06 1.1686511e-22)
(9.4028979e-05 4.0580494e-06 -2.1352494e-21)
(9.3442822e-05 1.5330337e-06 9.9400653e-22)
(9.2790601e-05 -9.8266252e-07 3.2667484e-21)
(9.2072941e-05 -3.4865602e-06 2.0960931e-21)
(9.1290561e-05 -5.9765007e-06 2.8909073e-21)
(9.0444231e-05 -8.4501762e-06 -1.6959617e-21)
(8.9534827e-05 -1.0905417e-05 2.1544105e-22)
(8.8563253e-05 -1.3340035e-05 4.4393565e-22)
(8.753047e-05 -1.5751824e-05 1.6237936e-21)
(8.6437492e-05 -1.8138962e-05 1.6527362e-21)
(8.5285401e-05 -2.0498962e-05 -1.4856183e-21)
(8.4075363e-05 -2.2830288e-05 3.7323422e-22)
(8.2808626e-05 -2.5130821e-05 1.6230354e-21)
(8.1486313e-05 -2.7398595e-05 6.9632349e-22)
(8.0109757e-05 -2.9631882e-05 7.56265e-22)
(7.8680329e-05 -3.1828926e-05 4.7051693e-22)
(7.7199394e-05 -3.3987975e-05 1.3896114e-21)
(7.5668399e-05 -3.6107446e-05 1.9537381e-21)
(7.408878e-05 -3.8185539e-05 1.5416074e-21)
(7.2462076e-05 -4.0220847e-05 1.8703531e-21)
(7.0789829e-05 -4.221181e-05 1.0509384e-21)
(6.9073516e-05 -4.4156983e-05 1.1511572e-21)
(6.7314688e-05 -4.6055148e-05 1.7122604e-21)
(6.551499e-05 -4.7904708e-05 2.9842899e-21)
(6.3676135e-05 -4.97046e-05 2.8559031e-22)
(6.1799761e-05 -5.1453597e-05 -1.3949884e-21)
(5.9887519e-05 -5.3150421e-05 2.030392e-21)
(5.7941157e-05 -5.4794067e-05 2.9606299e-21)
(5.5962272e-05 -5.6383551e-05 1.9384572e-21)
(5.3952653e-05 -5.7917814e-05 4.1036353e-22)
(5.1914058e-05 -5.9396046e-05 1.1432088e-21)
(4.9848224e-05 -6.0817329e-05 3.3259178e-21)
(4.7757004e-05 -6.2180828e-05 1.7119736e-21)
(4.5642074e-05 -6.3485806e-05 2.511288e-22)
(4.3505164e-05 -6.4731501e-05 1.915697e-23)
(4.1348102e-05 -6.5917401e-05 -1.2428628e-21)
(3.9172706e-05 -6.70429e-05 2.0678133e-21)
(3.6980795e-05 -6.8107534e-05 3.1083108e-21)
(3.4774064e-05 -6.9110717e-05 1.7914302e-21)
(3.2554332e-05 -7.0052119e-05 -1.6502344e-22)
(3.0323438e-05 -7.0931358e-05 -3.7711555e-22)
(2.8083121e-05 -7.1748133e-05 2.496012e-21)
(2.5835138e-05 -7.2502211e-05 2.084114e-21)
(2.3581187e-05 -7.3193275e-05 8.9992163e-22)
(2.1323149e-05 -7.3821289e-05 4.0434085e-22)
(1.9062818e-05 -7.4386191e-05 1.5524243e-21)
(1.6801843e-05 -7.4887847e-05 3.1391934e-21)
(1.4541982e-05 -7.5326286e-05 2.6562621e-21)
(1.2285025e-05 -7.5701615e-05 9.3639008e-22)
(1.0032652e-05 -7.6014238e-05 -9.7475639e-22)
(7.786619e-06 -7.6264848e-05 5.4521018e-22)
(5.5477625e-06 -7.6455152e-05 1.1945241e-21)
(3.3158647e-06 -7.6588601e-05 -1.2157476e-21)
(1.097894e-06 -7.6668039e-05 -2.7352783e-21)
(8.4173781e-05 6.2962453e-05 4.9832857e-21)
(8.5189661e-05 6.1084835e-05 1.3003307e-20)
(8.6156244e-05 5.915881e-05 -1.1516228e-21)
(8.7071905e-05 5.7186062e-05 3.7942113e-21)
(8.7935007e-05 5.5168425e-05 1.557361e-22)
(8.8744031e-05 5.3107765e-05 5.7230393e-21)
(8.949761e-05 5.1006129e-05 6.9869982e-21)
(9.0194342e-05 4.886536e-05 -1.2972755e-21)
(9.083306e-05 4.6687636e-05 3.2940603e-21)
(9.141253e-05 4.4475008e-05 4.2269761e-22)
(9.1931723e-05 4.2229662e-05 6.8483447e-21)
(9.2389623e-05 3.9953867e-05 9.4350547e-21)
(9.2785369e-05 3.7649887e-05 -7.228596e-22)
(9.3118303e-05 3.5319888e-05 1.8563601e-21)
(9.3387628e-05 3.2966236e-05 -9.8010426e-22)
(9.3592767e-05 3.0591328e-05 3.8195751e-21)
(9.3733256e-05 2.8197313e-05 6.7063007e-21)
(9.3808662e-05 2.5786804e-05 4.3857373e-22)
(9.3818686e-05 2.3361938e-05 2.8434065e-22)
(9.3763161e-05 2.092537e-05 -1.0728507e-21)
(9.3641851e-05 1.8479264e-05 3.5365461e-21)
(9.3454707e-05 1.6026018e-05 6.6474196e-21)
(9.3201886e-05 1.3568165e-05 7.9874343e-22)
(9.2883464e-05 1.1107878e-05 1.2229188e-21)
(9.2499608e-05 8.6476873e-06 -2.5052354e-21)
(9.2050641e-05 6.189687e-06 1.4215747e-22)
(9.1536948e-05 3.7363986e-06 4.1734837e-21)
(9.095895e-05 1.2899411e-06 1.5178046e-21)
(9.0317243e-05 -1.1472423e-06 1.7339775e-22)
(8.9612364e-05 -3.5730733e-06 -4.9966151e-21)
(8.8844984e-05 -5.98523e-06 -2.9423656e-21)
(8.8015883e-05 -8.3816637e-06 4.9173717e-21)
(8.7125842e-05 -1.0760275e-05 4.2974137e-21)
(8.6175721e-05 -1.3118848e-05 1.5951516e-21)
(8.5166402e-05 -1.5455347e-05 -4.2041553e-21)
(8.4098895e-05 -1.7767926e-05 -3.6809137e-21)
(8.2974269e-05 -2.0054369e-05 1.986669e-21)
(8.1793636e-05 -2.2312998e-05 5.1872306e-21)
(8.0558155e-05 -2.4541816e-05 2.2649355e-21)
(7.926897e-05 -2.673886e-05 -3.8735914e-21)
(7.7927312e-05 -2.8902674e-05 -3.4130166e-21)
(7.6534491e-05 -3.1031371e-05 4.0668256e-21)
(7.5091868e-05 -3.3123319e-05 6.0452804e-21)
(7.3600747e-05 -3.5176954e-05 2.0125586e-21)
(7.2062546e-05 -3.7190603e-05 -3.810435e-21)
(7.047875e-05 -3.9162885e-05 -1.315045e-21)
(6.8850798e-05 -4.1092186e-05 4.4516414e-21)
(6.7180241e-05 -4.2977213e-05 5.1989918e-21)
(6.5468593e-05 -4.4816683e-05 3.058214e-22)
(6.371735e-05 -4.6609154e-05 -3.1078844e-21)
(6.1928074e-05 -4.8353628e-05 -2.5335473e-21)
(6.0102427e-05 -5.0048692e-05 4.371222e-22)
(5.8242013e-05 -5.1693321e-05 4.0194963e-21)
(5.6348489e-05 -5.3286486e-05 1.4169899e-21)
(5.4423576e-05 -5.4827186e-05 -2.7292446e-21)
(5.2468805e-05 -5.6314396e-05 -1.5024452e-21)
(5.0485876e-05 -5.7747272e-05 1.6075398e-21)
(4.8476596e-05 -5.9125129e-05 5.1114157e-21)
(4.6442568e-05 -6.0446899e-05 8.6663969e-22)
(4.4385511e-05 -6.1711989e-05 -2.2427087e-21)
(4.2307211e-05 -6.2919728e-05 -1.2086041e-21)
(4.0209431e-05 -6.4069529e-05 -6.4521401e-22)
(3.8093856e-05 -6.5160705e-05 3.6481527e-21)
(3.5962173e-05 -6.6193004e-05 4.7030916e-22)
(3.3816184e-05 -6.7165633e-05 -1.9853729e-21)
(3.1657589e-05 -6.8078433e-05 -4.3181304e-22)
(2.9488042e-05 -6.8931041e-05 1.3413043e-22)
(2.7309339e-05 -6.9722999e-05 3.8974228e-21)
(2.5123238e-05 -7.0454196e-05 4.2868989e-22)
(2.2931413e-05 -7.112435e-05 -1.8614352e-21)
(2.0735599e-05 -7.1733401e-05 2.8974198e-22)
(1.8537518e-05 -7.2281194e-05 1.4869497e-21)
(1.6338868e-05 -7.2767671e-05 4.2169279e-21)
(1.4141269e-05 -7.319284e-05 1.5802334e-21)
(1.1946425e-05 -7.355682e-05 -1.0967487e-21)
(9.7561138e-06 -7.3859977e-05 -7.4914127e-22)
(7.5720137e-06 -7.4103026e-05 1.9062628e-22)
(5.3948083e-06 -7.42876e-05 2.1067045e-21)
(3.2244279e-06 -7.4417031e-05 -1.4686426e-21)
(1.0676443e-06 -7.4494108e-05 -3.6702824e-21)
(8.234048e-05 6.0913719e-05 -3.6936118e-21)
(8.3308233e-05 5.9084164e-05 1.5395494e-20)
(8.4228381e-05 5.7208502e-05 9.6341182e-22)
(8.5099329e-05 5.5288245e-05 -1.0442361e-20)
(8.591954e-05 5.3325239e-05 -1.8537355e-21)
(8.6687568e-05 5.1321184e-05 3.3272467e-21)
(8.7402048e-05 4.9278025e-05 1.285078e-20)
(8.8061734e-05 4.7197584e-05 -9.6176214e-22)
(8.8665423e-05 4.5081988e-05 -9.6303781e-21)