/*--------------------------------*- C++ -*----------------------------------*\
| =========                 |                                                 |
| \\      /  F ield         | OpenFOAM: The Open Source CFD Toolbox           |
|  \\    /   O peration     | Version:  2106                                  |
|   \\  /    A nd           | Website:  www.openfoam.com                      |
|    \\/     M anipulation  |                                                 |
\*---------------------------------------------------------------------------*/
FoamFile
{
    version     2.0;
    format      ascii;
    arch        "LSB;label=32;scalar=64";
    class       surfaceScalarField;
    location    "0.035";
    object      phi;
}
// * * * * * * * * * * * * * * * * * * * * * * * * * * * * * * * * * * * * * //

dimensions      [0 3 -1 0 0 0 0];

oriented        oriented;

internalField   nonuniform List<scalar> 
8064
(
-3.8483249e-05
3.8483506e-05
-7.6589241e-05
3.8105992e-05
-0.00011394411
3.7354866e-05
-0.00015018199
3.6237885e-05
-0.00018494856
3.4766567e-05
-0.0002179046
3.2956046e-05
-0.0002487295
3.0824896e-05
-0.0002771244
2.8394899e-05
-0.00030281519
2.5690794e-05
-0.00032555517
2.2739982e-05
-0.00034512739
1.9572213e-05
-0.00036134663
1.6219245e-05
-0.00037406112
1.2714491e-05
-0.00038315377
9.0926505e-06
-0.00038854308
5.3893069e-06
-0.00039018382
1.6407374e-06
-0.00038806703
-2.1167907e-06
-0.00038221994
-5.8470892e-06
-0.00037270543
-9.5145074e-06
-0.00035962118
-1.3084249e-05
-0.00034309849
-1.6522695e-05
-0.0003233008
-1.979769e-05
-0.00030042198
-2.2878818e-05
-0.00027468433
-2.5737651e-05
-0.00024633635
-2.8347976e-05
-0.00021565036
-3.0685996e-05
-0.00018291985
-3.2730508e-05
-0.00014845679
-3.4463056e-05
-0.00011258873
-3.5868065e-05
-7.5655781e-05
-3.6932948e-05
-3.8007591e-05
-3.764819e-05
-1.7883655e-10
-3.8007412e-05
3.8007235e-05
-3.8007414e-05
7.5655431e-05
-3.7648196e-05
0.00011258839
-3.6932958e-05
0.00014845647
-3.5868079e-05
0.00018291954
-3.4463073e-05
0.00021565007
-3.2730528e-05
0.00024633609
-3.0686021e-05
0.00027468409
-2.8348004e-05
0.00030042178
-2.5737682e-05
0.00032330063
-2.2878852e-05
0.00034309835
-1.9797727e-05
0.00035962109
-1.6522734e-05
0.00037270538
-1.3084291e-05
0.00038221993
-9.514551e-06
0.00038806706
-5.8471339e-06
0.0003901839
-2.1168358e-06
0.00038854321
1.6406923e-06
0.00038315395
5.3892625e-06
0.00037406134
9.0926072e-06
0.00036134689
1.271445e-05
0.00034512768
1.6219206e-05
0.00032555551
1.9572177e-05
0.00030281556
2.2739948e-05
0.0002771248
2.5690763e-05
0.00024872992
2.8394871e-05
0.00021790505
3.0824872e-05
0.00018494903
3.2956026e-05
0.00015018248
3.476655e-05
0.0001139446
3.6237872e-05
7.6589747e-05
3.7354856e-05
3.848376e-05
3.8105986e-05
3.8483504e-05
-3.8662985e-05
7.7146749e-05
-7.6946801e-05
7.6389808e-05
-0.00011447569
7.4883754e-05
-0.00015088196
7.2644153e-05
-0.0001858095
6.9694114e-05
-0.00021891746
6.6064004e-05
-0.00024988365
6.1791084e-05
-0.00027840781
5.6919058e-05
-0.00030421457
5.1497552e-05
-0.00032705612
4.5581535e-05
-0.00034671459
3.9230678e-05
-0.00036300402
3.2508676e-05
-0.00037577207
2.5482541e-05
-0.00038490127
1.8221856e-05
-0.00039031001
1.0798041e-05
-0.00039195293
3.2836586e-06
-0.00038982128
-4.2484405e-06
-0.00038394262
-1.172575e-05
-0.00037438031
-1.9076815e-05
-0.00036123265
-2.6231908e-05
-0.00034463169
-3.3123656e-05
-0.00032474174
-3.9687634e-05
-0.00030175766
-4.5862903e-05
-0.00027590279
-5.1592516e-05
-0.0002474268
-5.6823966e-05
-0.00021660321
-6.150959e-05
-0.00018372679
-6.5606925e-05
-0.00014911083
-6.9079015e-05
-0.00011308422
-7.1894671e-05
-7.5988484e-05
-7.4028689e-05
-3.8174656e-05
-7.5462018e-05
-1.7967308e-10
-7.6181888e-05
3.8174298e-05
-7.6181892e-05
7.5988132e-05
-7.546203e-05
0.00011308388
-7.4028708e-05
0.0001491105
-7.1894698e-05
0.00018372648
-6.9079049e-05
0.00021660292
-6.5606967e-05
0.00024742654
-6.1509639e-05
0.00027590255
-5.6824022e-05
0.00030175745
-5.1592579e-05
0.00032474157
-4.5862973e-05
0.00034463155
-3.9687709e-05
0.00036123256
-3.3123736e-05
0.00037438026
-2.6231992e-05
0.00038394261
-1.9076903e-05
0.00038982131
-1.172584e-05
0.00039195301
-4.2485312e-06
0.00039031013
3.283568e-06
0.00038490145
1.0797951e-05
0.00037577228
1.822177e-05
0.00036300428
2.5482457e-05
0.00034671488
3.2508597e-05
0.00032705646
3.9230604e-05
0.00030421494
4.5581467e-05
0.00027840821
5.1497491e-05
0.00024988408
5.6919003e-05
0.00021891791
6.1791037e-05
0.00018580998
6.6063964e-05
0.00015088244
6.9694081e-05
0.00011447619
7.2644128e-05
7.694731e-05
7.4883736e-05
3.8663499e-05
7.6389797e-05
7.7146745e-05
-3.887736e-05
0.00011602437
-7.7373248e-05
0.0001148857
-0.00011510962
0.00011262013
-0.00015171658
0.00010925111
-0.0001868359
0.00010481343
-0.0002201247
9.9352806e-05
-0.00025125895
9.2925336e-05
-0.0002799367
8.5596809e-05
-0.00030588108
7.7441928e-05
-0.00032884297
6.8543428e-05
-0.00034860341
5.8991116e-05
-0.00036497558
4.8880848e-05
-0.00037780649
3.8313455e-05
-0.00038697828
2.7393641e-05
-0.0003924091
1.6228858e-05
-0.00039405365
4.9282115e-06
-0.00039190339
-6.3986983e-06
-0.00038598631
-1.7642831e-05
-0.00037636638
-2.8696749e-05
-0.00036314266
-3.9455625e-05
-0.00034644813
-4.9818186e-05
-0.00032644817
-5.9687598e-05
-0.00030333878
-6.8972285e-05
-0.00027734463
-7.7586674e-05
-0.00024871671
-8.5451878e-05
-0.00021773001
-9.2496296e-05
-0.00018468079
-9.8656144e-05
-0.00014988389
-0.00010387592
-0.00011366979
-0.00010810877
-7.6381615e-05
-0.00011131686
-3.8372051e-05
-0.00011347158
-1.8311221e-10
-0.00011455376
3.8371686e-05
-0.00011455376
7.6381257e-05
-0.0001134716
0.00011366944
-0.00011131689
0.00014988355
-0.00010810881
0.00018468047
-0.00010387597
0.00021772971
-9.8656207e-05
0.00024871644
-9.249637e-05
0.00027734438
-8.5451963e-05
0.00030333857
-7.7586769e-05
0.00032644799
-6.8972389e-05
0.00034644799
-5.9687712e-05
0.00036314256
-4.9818307e-05
0.00037636632
-3.9455753e-05
0.0003859863
-2.8696882e-05
0.00039190343
-1.7642967e-05
0.00039405373
-6.3988358e-06
0.00039240923
4.9280743e-06
0.00038697846
1.6228723e-05
0.00037780672
2.7393509e-05
0.00036497584
3.8313329e-05
0.00034860371
4.8880728e-05
0.00032884331
5.8991004e-05
0.00030588146
6.8543326e-05
0.00027993711
7.7441836e-05
0.00025125939
8.5596727e-05
0.00022012516
9.2925265e-05
0.00018683638
9.9352746e-05
0.00015171708
0.00010481338
0.00011511013
0.00010925107
7.7373766e-05
0.0001126201
3.8877884e-05
0.00011488568
0.00011602437
-3.9148883e-05
0.00015517353
-7.7913377e-05
0.00015365019
-0.00011591255
0.0001506193
-0.00015277368
0.00014611224
-0.00018813586
0.00014017561
-0.00022165367
0.00013287062
-0.00025300074
0.0001242724
-0.00028187296
0.00011446903
-0.00030799156
0.00010356053
-0.00033110578
9.1657647e-05
-0.00035099527
7.8880607e-05
-0.00036747213
6.5357703e-05
-0.00038038255
5.1223876e-05
-0.00038960814
3.661923e-05
-0.00039506681
2.1687532e-05
-0.00039671331
6.574715e-06
-0.00039453939
-8.572622e-06
-0.00038857357
-2.3608654e-05
-0.00037888058
-3.8389733e-05
-0.00036556049
-5.2775718e-05
-0.00034874743
-6.6631246e-05
-0.00032860812
-7.9826905e-05
-0.00030534008
-9.2240329e-05
-0.00027916956
-0.0001037572
-0.00025034931
-0.00011427212
-0.00021915613
-0.00012368948
-0.00018588818
-0.00013192409
-0.00015086226
-0.00013890183
-0.00011441086
-0.00014456017
-7.6879144e-05
-0.00014884858
-3.8621863e-05
-0.00015172886
-1.8934591e-10
-0.00015317543
3.8621486e-05
-0.00015317544
7.6878773e-05
-0.00015172889
0.0001144105
-0.00014884862
0.00015086191
-0.00014456023
0.00018588785
-0.0001389019
0.00021915582
-0.00013192418
0.00025034903
-0.00012368958
0.0002791693
-0.00011427224
0.00030533986
-0.00010375732
0.00032860794
-9.2240471e-05
0.00034874729
-7.9827058e-05
0.00036556039
-6.663141e-05
0.00037888053
-5.2775891e-05
0.00038857356
-3.8389912e-05
0.00039453943
-2.3608839e-05
0.0003967134
-8.5728084e-06
0.00039506695
6.5745289e-06
0.00038960832
2.1687349e-05
0.00038038278
3.6619052e-05
0.0003674724
5.1223705e-05
0.00035099559
6.5357541e-05
0.00033110614
7.8880456e-05
0.00030799195
9.1657509e-05
0.00028187339
0.0001035604
0.00025300119
0.00011446892
0.00022165415
0.00012427231
0.00018813635
0.00013287054
0.00015277419
0.00014017554
0.00011591307
0.00014611219
7.7913912e-05
0.00015061926
3.9149424e-05
0.00015365017
0.00015517352
-3.948328e-05
0.00019465709
-7.8578577e-05
0.00019274549
-0.00011690139
0.00018894211
-0.00015407554
0.00018328639
-0.0001897368
0.00017583687
-0.00022353664
0.00016667046
-0.00025514577
0.00015588153
-0.00028425745
0.00014358071
-0.00031059056
0.00012989364
-0.00033389233
0.00011495941
-0.0003539407
9.8928977e-05
-0.00037054642
8.1963426e-05
-0.0003835547
6.423216e-05
-0.00039284651
4.5911036e-05
-0.00039833946
2.7180479e-05
-0.00039998834
8.2235941e-06
-0.00039778525
-1.0775705e-05
-0.0003917594
-2.9634507e-05
-0.00038197647
-4.8172668e-05
-0.00036853771
-6.6214478e-05
-0.0003515787
-8.3590248e-05
-0.00033126783
-0.00010013778
-0.00030780442
-0.00011570373
-0.00028141675
-0.00013014487
-0.00025235968
-0.00014332919
-0.00022091224
-0.00015513692
-0.00018737496
-0.00016546137
-0.00015206703
-0.00017420976
-0.00011532342
-0.00018130378
-7.7491809e-05
-0.00018668019
-3.8929489e-05
-0.00019029118
-1.9856457e-10
-0.00019210472
3.8929094e-05
-0.00019210473
7.749142e-05
-0.00019029121
0.00011532304
-0.00018668024
0.00015206667
-0.00018130385
0.00018737461
-0.00017420985
0.00022091192
-0.00016546148
0.00025235938
-0.00015513704
0.00028141648
-0.00014332934
0.00030780419
-0.00013014504
0.00033126763
-0.00011570391
0.00035157855
-0.00010013797
0.0003685376
-8.3590457e-05
0.00038197641
-6.6214699e-05
0.00039175939
-4.8172897e-05
0.00039778529
-2.9634742e-05
0.00039998843
-1.0775943e-05
0.0003983396
8.2233561e-06
0.0003928467
2.7180244e-05
0.00038355495
4.5910808e-05
0.00037054671
6.4231942e-05
0.00035394103
8.196322e-05
0.0003338927
9.8928786e-05
0.00031059098
0.00011495923
0.0002842579
0.00012989348
0.00025514624
0.00014358057
0.00022353714
0.00015588141
0.00018973732
0.00016667036
0.00015407608
0.00017583679
0.00011690194
0.00018328633
7.8579137e-05
0.00018894206
3.9483845e-05
0.00019274546
0.00019465708
-3.9870678e-05
0.00023452807
-7.9349191e-05
0.000232224
-0.00011804688
0.0002276398
-0.00015558355
0.00022082306
-0.00019159112
0.00021184444
-0.00022571742
0.00020079676
-0.00025762979
0.0001877939
-0.00028701845
0.00017296938
-0.00031359957
0.00015647476
-0.00033711802
0.00013847786
-0.0003573498
0.00011916077
-0.00037410414
9.8717763e-05
-0.0003872251
7.7353123e-05
-0.00039659294
5.5278867e-05
-0.00040212494
3.2712481e-05
-0.00040377598
9.8746323e-06
-0.0004015386
-1.301308e-05
-0.00039544279
-3.5730314e-05
-0.00038555535
-5.8060106e-05
-0.00037197895
-7.979088e-05
-0.00035485085
-0.00010071835
-0.00033434133
-0.0001206473
-0.00031065187
-0.0001393932
-0.00028401302
-0.00015678372
-0.00025468213
-0.00017266008
-0.00022294082
-0.00018687823
-0.00018909231
-0.00019930989
-0.00015345856
-0.0002098435
-0.0001163774
-0.00021838495
-7.8199394e-05
-0.0002248582
-3.9284768e-05
-0.00022920581
-2.1089983e-10
-0.00023138928
3.9284348e-05
-0.00023138929
7.819898e-05
-0.00022920584
0.000116377
-0.00022485826
0.00015345817
-0.00021838503
0.00018909194
-0.00020984361
0.00022294047
-0.00019931002
0.00025468181
-0.00018687838
0.00028401273
-0.00017266026
0.00031065162
-0.00015678392
0.00033434112
-0.00013939342
0.00035485068
-0.00012064754
0.00037197883
-0.00010071861
0.00038555529
-7.9791151e-05
0.00039544278
-5.8060389e-05
0.00040153864
-3.5730605e-05
0.00040377607
-1.3013375e-05
0.00040212509
9.8743383e-06
0.00039659314
3.2712191e-05
0.00038722537
5.5278587e-05
0.00037410445
7.7352854e-05
0.00035735016
9.871751e-05
0.00033711842
0.00011916053
0.00031360001
0.00013847764
0.00028701893
0.00015647457
0.0002576303
0.00017296921
0.00022571795
0.00018779375
0.00019159167
0.00020079664
0.00015558412
0.00021184434
0.00011804746
0.00022082299
7.9349782e-05
0.00022763975
3.9871275e-05
0.00023222397
0.00023452806
-4.0288524e-05
0.00027481691
-8.018032e-05
0.0002721158
-0.0001192822
0.00026674168
-0.00015720958
0.00025875044
-0.00019359018
0.00024822504
-0.00022806789
0.00023527447
-0.00026030641
0.00022003242
-0.00028999266
0.00020265563
-0.00031683989
0.00018332199
-0.00034059048
0.00016222844
-0.00036101837
0.00013958866
-0.00037793116
0.00011563055
-0.00039117177
9.059373e-05
-0.00040061972
6.4726822e-05
-0.00040619205
3.8284809e-05
-0.00040784377
1.1526345e-05
-0.00040556795
-1.5288893e-05
-0.00039939551
-4.1902759e-05
-0.00038939448
-6.8061132e-05
-0.0003756691
-9.351626e-05
-0.00035835847
-0.00011802898
-0.00033763495
-0.00014137081
-0.00031370233
-0.00016332582
-0.00028679364
-0.00018369241
-0.00025716888
-0.00020228484
-0.00022511244
-0.00021893467
-0.00019093039
-0.00023349193
-0.0001549477
-0.0002458262
-0.00011750517
-0.00025582748
-7.8956451e-05
-0.00026340692
-3.9664868e-05
-0.00026849739
-2.263816e-10
-0.00027105392
3.9664417e-05
-0.00027105393
7.8956006e-05
-0.00026849743
0.00011750473
-0.00026340699
0.00015494728
-0.00025582757
0.00019092999
-0.00024582632
0.00022511206
-0.00023349208
0.00025716853
-0.00021893485
0.00028679333
-0.00020228505
0.00031370205
-0.00018369265
0.00033763472
-0.00016332609
0.00035835828
-0.0001413711
0.00037566897
-0.00011802929
0.0003893944
-9.3516587e-05
0.00039939549
-6.8061474e-05
0.00040556799
-4.1903111e-05
0.00040784387
-1.5289249e-05
0.00040619222
1.152599e-05
0.00040061995
3.8284459e-05
0.00039117205
6.4726483e-05
0.0003779315
9.0593407e-05
0.00036101876
0.00011563025
0.00034059091
0.00013958838
0.00031684037
0.00016222819
0.00028999318
0.00018332176
0.00026030696
0.00020265543
0.00022806846
0.00022003225
0.00019359077
0.00023527433
0.00015721018
0.00024822493
0.00011928282
0.00025875035
8.018095e-05
0.00026674161
4.0289158e-05
0.00027211576
0.0002748169
-4.0706215e-05
0.00031552346
-8.1011044e-05
0.00031242062
-0.00012051666
0.00030624729
-0.00015883402
0.0002970678
-0.00019558657
0.0002849776
-0.00023041421
0.00027010212
-0.00026297697
0.00025259518
-0.00029295846
0.00023263712
-0.00032006904
0.00021043257
-0.00034404864
0.00018620805
-0.00036466923
0.00016020924
-0.00038173687
0.00013269819
-0.00039509343
0.00010395029
-0.00040461786
7.4251251e-05
-0.00041022704
4.3893983e-05
-0.00041187624
1.3175546e-05
-0.00040955922
-1.7605915e-05
-0.00040330789
-4.8154092e-05
-0.00039319164
-7.8177381e-05
-0.00037931634
-0.00010739156
-0.00036182298
-0.00013552234
-0.00034088605
-0.00016230774
-0.00031671165
-0.00018750023
-0.00028953529
-0.00021086876
-0.00025961959
-0.00023220054
-0.00022725167
-0.0002513026
-0.00019274041
-0.00026800319
-0.00015641364
-0.00028215297
-0.0001186151
-0.00029362601
-7.9701408e-05
-0.00030232061
-4.0038856e-05
-0.00030815994
-2.4489715e-10
-0.00031109253
4.0038368e-05
-0.00031109254
7.9700927e-05
-0.00030815999
0.00011861463
-0.00030232069
0.00015641318
-0.00029362612
0.00019273997
-0.00028215311
0.00022725125
-0.00026800337
0.00025961921
-0.00025130281
0.00028953495
-0.00023220079
0.00031671134
-0.00021086904
0.00034088579
-0.00018750054
0.00036182277
-0.00016230808
0.00037931619
-0.00013552271
0.00039319155
-0.00010739195
0.00040330786
-7.8177788e-05
0.00040955926
-4.815451e-05
0.00041187635
-1.7606339e-05
0.00041022722
1.3175123e-05
0.00040461811
4.3893567e-05
0.00039509374
7.4250849e-05
0.00038173724
0.00010394991
0.00036466965
0.00013269783
0.00034404912
0.00016020891
0.00032006956
0.00018620775
0.00029295901
0.0002104323
0.00026297756
0.00023263688
0.00023041483
0.00025259498
0.00019558721
0.00027010195
0.00015883467
0.00028497746
0.00012051733
0.0002970677
8.1011719e-05
0.00030624722
4.0706894e-05
0.00031242058
0.00031552345
-4.1092282e-05
0.00035661611
-8.1778703e-05
0.00035310705
-0.00012165699
0.00034612558
-0.00016033381
0.00033574462
-0.00019742857
0.00032207236
-0.00023257738
0.00030525092
-0.00026543683
0.00028545462
-0.00029568746
0.00026288775
-0.00032303702
0.00023778213
-0.00034722325
0.00021039428
-0.0003680164
0.00018100239
-0.00038522129
0.00014990308
-0.00039867901
0.00011740801
-0.00040826816
8.3840401e-05
-0.00041390569
4.9531521e-05
-0.00041554736
1.4817213e-05
-0.00041318772
-1.9965559e-05
-0.00040685979
-5.4482017e-05
-0.00039663437
-8.8402801e-05
-0.00038261895
-0.00012140698
-0.00036495636
-0.00015318493
-0.0003438231
-0.00018344099
-0.00031942743
-0.0002118959
-0.00029200714
-0.00023828905
-0.00026182723
-0.00026238046
-0.00022917724
-0.00028395259
-0.00019436857
-0.00030281186
-0.00015773157
-0.00031878996
-0.00011961255
-0.00033174503
-8.0370661e-05
-0.0003415625
-4.0374777e-05
-0.00034815583
-2.6611629e-10
-0.00035146704
4.0374247e-05
-0.00035146706
8.0370137e-05
-0.00034815588
0.00011961204
-0.00034156259
0.00015773107
-0.00033174516
0.00019436809
-0.00031879013
0.00022917678
-0.00030281206
0.0002618268
-0.00028395283
0.00029200676
-0.00026238074
0.00031942709
-0.00023828937
0.00034382281
-0.00021189626
0.00036495612
-0.00018344139
0.00038261878
-0.00015318536
0.00039663427
-0.00012140744
0.00040685976
-8.8403279e-05
0.00041318776
-5.448251e-05
0.00041554748
-1.9966059e-05
0.00041390589
1.4816714e-05
0.00040826842
4.953103e-05
0.00039867935
8.3839927e-05
0.00038522169
0.00011740756
0.00036801686
0.00014990266
0.00034722377
0.00018100201
0.00032303759
0.00021039393
0.00029568807
0.00023778182
0.00026543747
0.00026288749
0.00023257805
0.0002854544
0.00019742926
0.00030525074
0.00016033452
0.00032207221
0.00012165771
0.00033574451
8.1779428e-05
0.0003461255
4.1093011e-05
0.000353107
0.0003566161
-4.1425126e-05
0.00039804163
-8.2440279e-05
0.0003941222
-0.0001226391
0.0003863244
-0.00016162435
0.00037472987
-0.00019901175
0.00035945976
-0.00023443403
0.00034067321
-0.00026754474
0.00031856533
-0.0002980218
0.00029336481
-0.00032557073
0.00026533106
-0.00034992753
0.00023475108
-0.00037086116
0.00020193602
-0.00038817562
0.00016721754
-0.00040171161
0.000130944
-0.00041134775
9.3476541e-05
-0.00041700139
5.5185155e-05
-0.00041862897
1.6444794e-05
-0.00041622604
-2.2368488e-05
-0.00040982685
-6.0881208e-05
-0.00039950359
-9.8726061e-05
-0.00038536532
-0.00013554525
-0.00036755657
-0.00017099368
-0.00034625564
-0.00020474193
-0.00032167264
-0.00023647891
-0.00029404731
-0.00026591437
-0.0002636466
-0.00029278116
-0.00023076207
-0.00031683712
-0.00019570711
-0.00033786682
-0.00015881406
-0.00035568302
-0.00012043119
-0.0003701279
-8.0919652e-05
-0.00038107404
-4.0650249e-05
-0.00038842523
-2.893824e-10
-0.000392117
4.0649672e-05
-0.00039211702
8.0919081e-05
-0.00038842529
0.00012043063
-0.00038107414
0.00015881351
-0.00037012804
0.00019570658
-0.0003556832
0.00023076157
-0.00033786705
0.00026364613
-0.0003168374
0.00029404688
-0.00029278149
0.00032167225
-0.00026591474
0.00034625531
-0.00023647932
0.0003675563
-0.00020474238
0.00038536512
-0.00017099418
0.00039950346
-0.00013554578
0.0004098268
-9.8726619e-05
0.00041622608
-6.0881785e-05
0.00041862909
-2.2369074e-05
0.0004170016
1.6444209e-05
0.00041134805
5.5184581e-05
0.00040171199
9.3475987e-05
0.00038817607
0.00013094348
0.00037086168
0.00016721706
0.00034992811
0.00020193558
0.00032557136
0.00023475068
0.00029802247
0.00026533071
0.00026754545
0.00029336451
0.00023443476
0.00031856508
0.0001990125
0.000340673
0.00016162511
0.0003594596
0.00012263987
0.00037472975
8.2441059e-05
0.00038632432
4.1425909e-05
0.00039412215
0.00039804161
-4.1708432e-05
0.00043975048
-8.3003058e-05
0.00043541682
-0.00012347371
0.00042679506
-0.00016271956
0.00041397571
-0.00020035295
0.00039709316
-0.00023600358
0.00037632383
-0.00026932232
0.00035188407
-0.00029998485
0.00032402734
-0.0003276949
0.00029304112
-0.00035218719
0.00025924336
-0.00037322983
0.00022297866
-0.00039062645
0.00018461417
-0.00040421782
0.00014453536
-0.00041388296
0.00010314168
-0.00041953998
6.0842177e-05
-0.00042114633
1.8051142e-05
-0.00041869875
-2.4816071e-05
-0.00041223281
-6.7347147e-05
-0.00040182214
-0.00010913672
-0.00038757731
-0.00014979008
-0.00036964437
-0.00018892662
-0.00034820319
-0.00022618311
-0.00032346544
-0.00026121665
-0.00029567246
-0.00029370735
-0.00026509275
-0.00032336088
-0.00023201939
-0.00034991048
-0.0001967673
-0.00037311891
-0.00015967027
-0.00039278004
-0.00012107803
-0.00040872014
-8.1353099e-05
-0.00042079898
-4.0867645e-05
-0.00042891069
-3.1359549e-10
-0.00043298433
4.086702e-05
-0.00043298435
8.1352478e-05
-0.00042891075
0.00012107742
-0.00042079909
0.00015966968
-0.00040872029
0.00019676672
-0.00039278024
0.00023201884
-0.00037311917
0.00026509223
-0.00034991079
0.00029567198
-0.00032336124
0.00032346501
-0.00029370777
0.00034820281
-0.00026121712
0.00036964406
-0.00022618364
0.00038757708
-0.00018892719
0.00040182199
-0.0001497907
0.00041223275
-0.00010913737
0.00041869878
-6.7347819e-05
0.00042114646
-2.4816755e-05
0.00041954021
1.8050459e-05
0.00041388328
6.0841508e-05
0.00040421823
0.00010314104
0.00039062695
0.00014453476
0.0003732304
0.0001846136
0.00035218783
0.00022297815
0.0003276956
0.00025924291
0.00029998558
0.00029304072
0.00026932308
0.00032402701
0.00023600437
0.00035188379
0.00020035377
0.00037632361
0.00016272038
0.00039709298
0.00012347455
0.00041397558
8.3003894e-05
0.00042679497
4.170927e-05
0.00043541677
0.00043975046
-4.1992184e-05
0.00048174311
-8.3566452e-05
0.00047699109
-0.00012430858
0.00046753719
-0.00016381391
0.00045348104
-0.00020169124
0.00043497049
-0.0002375671
0.00041219969
-0.00027108964
0.00038540661
-0.00030193232
0.00035487002
-0.00032979719
0.00032090599
-0.00035441781
0.00028386399
-0.00037556172
0.00024412257
-0.00039303248
0.00020208492
-0.0004066712
0.00015817408
-0.00041635772
0.00011282821
-0.00042201119
6.6495648e-05
-0.00042359037
1.9630321e-05
-0.00042109342
-2.7313027e-05
-0.00041455742
-7.3883143e-05
-0.00040405754
-0.0001196366
-0.00038970586
-0.00016414176
-0.00037164997
-0.00020698251
-0.0003500712
-0.00024776188
-0.00032518275
-0.0002861051
-0.00029722736
-0.00032166273
-0.00026647499
-0.00035411325
-0.00023322014
-0.00038316534
-0.00019777907
-0.00040855998
-0.00016048692
-0.00043007218
-0.00012169471
-0.00044751235
-8.1766202e-05
-0.00046072749
-4.10748e-05
-0.00046960209
-3.3709352e-10
-0.00047405879
4.1074127e-05
-0.00047405882
8.1765533e-05
-0.00046960216
0.00012169405
-0.0004607276
0.00016048627
-0.00044751252
0.00019777843
-0.0004300724
0.00023321953
-0.00040856026
0.00026647441
-0.00038316568
0.00029722682
-0.00035411365
0.00032518226
-0.0003216632
0.00035007077
-0.00028610564
0.00037164961
-0.00024776248
0.00038970559
-0.00020698317
0.00040405736
-0.00016414247
0.00041455734
-0.00011963735
0.00042109344
-7.3883923e-05
0.00042359051
-2.7313822e-05
0.00042201144
1.9629527e-05
0.00041635808
6.649487e-05
0.00040667166
0.00011282746
0.00039303304
0.00015817338
0.00037556236
0.00020208428
0.00035441852
0.00024412199
0.00032979795
0.00028386348
0.00030193312
0.00032090556
0.00027109048
0.00035486965
0.00023756796
0.00038540631
0.00020169212
0.00041219945
0.00016381479
0.00043497031
0.00012430947
0.0004534809
8.3567341e-05
0.0004675371
4.1993073e-05
0.00047699104
0.00048174309
-4.239979e-05
0.00052414336
-8.4375989e-05
0.00051896729
-0.0001255088
0.00050866999
-0.00016538824
0.00049336048
-0.00020361823
0.00047320048
-0.00023982086
0.00044840232
-0.00027364049
0.00041922624
-0.00030474743
0.00038597695
-0.00033284127
0.00034899984
-0.00035765391
0.00030867662
-0.00037895192
0.00026542058
-0.00039653855
0.00021967155
-0.00041025532
0.00017189085
-0.00041998284
0.00012255572
-0.00042564157
7.2154378e-05
-0.00042719173
2.1180484e-05
-0.00042463322
-2.9871534e-05
-0.00041800489
-8.0511474e-05
-0.00040738372
-0.00013025777
-0.00039288364
-0.00017864185
-0.00037465406
-0.0002252121
-0.00035287824
-0.00026953769
-0.00032777127
-0.00031121208
-0.00029957791
-0.00034985609
-0.00026857016
-0.000385121
-0.00023504459
-0.00041669091
-0.00019931963
-0.00044428495
-0.0001617326
-0.00046765921
-0.00012263669
-0.00048660826
-8.2397866e-05
-0.0005009663
-4.1391744e-05
-0.00051060821
-3.5755457e-10
-0.00051545018
4.1391029e-05
-0.0005154502
8.2397154e-05
-0.00051060828
0.00012263598
-0.00050096643
0.0001617319
-0.00048660844
0.00019931894
-0.00046765945
0.00023504392
-0.00044428524
0.00026856952
-0.00041669128
0.00029957731
-0.00038512143
0.00032777071
-0.0003498566
0.00035287775
-0.00031121268
0.00037465364
-0.00026953837
0.00039288331
-0.00022521284
0.00040738351
-0.00017864266
0.00041800479
-0.00013025863
0.00042463324
-8.0512377e-05
0.00042719187
-2.9872457e-05
0.00042564184
2.1179561e-05
0.00041998323
7.2153476e-05
0.00041025583
0.00012255486
0.00039653917
0.00017189005
0.00037895263
0.00021967082
0.0003576547
0.00026541993
0.00033284212
0.00030867606
0.00030474831
0.00034899936
0.0002736414
0.00038597656
0.00023982179
0.00041922592
0.00020361917
0.00044840208
0.00016538918
0.0004732003
0.00012550974
0.00049336035
8.4376925e-05
0.00050866991
4.2400722e-05
0.00051896724
0.00052414335
-4.3161015e-05
0.00056730486
-8.5888839e-05
0.00056169512
-0.00012775423
0.00055053539
-0.0001683382
0.00053394444
-0.00020723619
0.00051209847
-0.0002440626
0.00048522874
-0.00027845493
0.00045361856
-0.00031007761
0.00041759963
-0.00033862555
0.00037754778
-0.00036382694
0.00033387802
-0.00038544584
0.00028703948
-0.00040328413
0.00023750984
-0.00041718274
0.00018578946
-0.00042702282
0.0001323958
-0.00043272575
7.7857304e-05
-0.00043425349
2.2708223e-05
-0.00043160777
-3.2517254e-05
-0.00042482978
-8.7289467e-05
-0.00041399888
-0.00014108866
-0.00039923169
-0.00019340904
-0.00038068052
-0.00024376327
-0.00035853172
-0.00029168649
-0.00033300393
-0.00033673988
-0.00030434559
-0.00037851442
-0.00027283276
-0.00041663382
-0.00023876645
-0.00045075723
-0.00020246966
-0.00048058174
-0.00016428456
-0.00050584432
-0.00012456938
-0.00052632344
-8.3695278e-05
-0.0005418404
-4.2043147e-05
-0.00055226034
-3.720025e-10
-0.00055749295
4.2042402e-05
-0.00055749298
8.3694534e-05
-0.00055226041
0.00012456863
-0.00054184052
0.00016428382
-0.00052632362
0.00020246892
-0.00050584455
0.00023876573
-0.00048058205
0.00027283207
-0.00045075762
0.00030434492
-0.00041663429
0.00033300331
-0.00037851499
0.00035853117
-0.00033674054
0.00038068004
-0.00029168724
0.00039923131
-0.00024376411
0.00041399862
-0.00019340997
0.00042482964
-0.00014108965
0.00043160777
-8.7290511e-05
0.00043425364
-3.2518323e-05
0.00043272605
2.2707153e-05
0.00042702326
7.7856259e-05
0.00041718332
0.00013239481
0.00040328482
0.00018578854
0.00038544663
0.00023750901
0.00036382781
0.00028703875
0.00033862648
0.00033387739
0.00031007858
0.00037754726
0.00027845592
0.00041759921
0.0002440636
0.00045361824
0.00020723719
0.00048522849
0.00016833919
0.0005120983
0.00012775521
0.00053394432
8.5889806e-05
0.00055053531
4.3161976e-05
0.00056169507
0.00056730485
-4.4649005e-05
0.00061195434
-8.8847491e-05
0.0006058936
-0.00013214922
0.00059383712
-0.00017411879
0.00057591402
-0.00021433612
0.0005523158
-0.0002524012
0.00052329382
-0.00028793853
0.00048915589
-0.00032060121
0.00045026231
-0.00035007434
0.00040702091
-0.00037607829
0.00035988197
-0.00039837112
0.00030933232
-0.00041675036
0.00025588908
-0.00043105464
0.00020009374
-0.00044116382
0.00014250498
-0.00044699986
8.3693342e-05
-0.00044852581
2.423418e-05
-0.00044574593
-3.5297137e-05
-0.00043870412
-9.4331281e-05
-0.00042748356
-0.00015230922
-0.00041220509
-0.00020868751
-0.00039302611
-0.00026294225
-0.00037013892
-0.00031457368
-0.00034376869
-0.00036311011
-0.00031417161
-0.00040811151
-0.00028163212
-0.00044917331
-0.00024646033
-0.00048592901
-0.00020898923
-0.00051805284
-0.00016957153
-0.00054526201
-0.00012857651
-0.00056731846
-8.6386758e-05
-0.00058403016
-4.3394925e-05
-0.00059525217
-3.7692758e-10
-0.0006008875
4.3394169e-05
-0.00060088752
8.6385998e-05
-0.00059525224
0.00012857575
-0.00058403027
0.00016957076
-0.00056731863
0.00020898846
-0.00054526225
0.00024645957
-0.00051805315
0.00028163136
-0.00048592941
0.00031417087
-0.0004491738
0.000343768
-0.00040811211
0.00037013829
-0.00036311082
0.00039302556
-0.00031457451
0.00041220465
-0.0002629432
0.00042748324
-0.00020868857
0.00043870394
-0.00015231035
0.00044574591
-9.4332485e-05
0.00044852597
-3.5298376e-05
0.00044700018
2.4232938e-05
0.00044116431
8.3692131e-05
0.00043105528
0.00014250384
0.00041675114
0.00020009268
0.00039837201
0.00025588814
0.00037607926
0.0003093315
0.00035007536
0.00035988129
0.00032060226
0.00040702036
0.00028793959
0.00045026188
0.00025240226
0.00048915557
0.00021433717
0.00052329359
0.00017411982
0.00055231565
0.00013215022
0.00057591392
8.884847e-05
0.00059383706
4.4649969e-05
0.00060589357
0.00061195433
-4.7417898e-05
0.00065937271
-9.4354664e-05
0.00065283037
-0.00014033393
0.00063981639
-0.0001848911
0.00062047118
-0.0002275783
0.000595003
-0.00026796952
0.00056368504
-0.00030566555
0.00052685192
-0.00034029807
0.00048489483
-0.00037153373
0.00043825657
-0.00039907739
0.00038742563
-0.00042267449
0.00033292941
-0.00044211335
0.00027532794
-0.00045722573
0.00021520612
-0.0004678881
0.00015316735
-0.00047402059
8.9825839e-05
-0.00047558738
2.5800968e-05
-0.00047259475
-3.8289764e-05
-0.00046509112
-0.00010183491
-0.000453165
-0.00016423533
-0.00043694464
-0.00022490787
-0.00041659636
-0.00028329053
-0.00039232308
-0.00033884696
-0.00036436285
-0.00039107034
-0.00033298607
-0.00043948828
-0.00029849343
-0.00048366595
-0.00026121306
-0.00052320938
-0.00022149727
-0.00055776863
-0.0001797194
-0.00058703988
-0.00013627052
-0.00061076734
-9.1555886e-05
-0.00062874479
-4.5991466e-05
-0.00064081659
-3.6872078e-10
-0.0006468786
4.5990725e-05
-0.00064687862
9.1555136e-05
-0.00064081665
0.00013626975
-0.00062874489
0.00017971862
-0.0006107675
0.00022149647
-0.0005870401
0.00026121225
-0.00055776893
0.00029849262
-0.00052320978
0.00033298527
-0.00048366646
0.00036436207
-0.00043948891
0.00039232236
-0.00039107111
0.00041659572
-0.00033884787
0.00043694411
-0.00028329158
0.00045316461
-0.00022490906
0.00046509089
-0.00016423664
0.00047259471
-0.0001018363
0.00047558753
-3.8291202e-05
0.00047402095
2.5799525e-05
0.00046788864
8.9824434e-05
0.00045722646
0.00015316602
0.00044211422
0.00021520492
0.00042267548
0.00027532688
0.00039907847
0.00033292851
0.00037153486
0.00038742489
0.00034029922
0.000438256