"Points:0","Points:1","Points:2"
0,0.49887788,1
0.00390625,0.49887821,1
0,0.49887788,0
0.00390625,0.49887821,0
0.0078125,0.49887916,1
0.0078125,0.49887916,0
0.01171875,0.49888074,1
0.01171875,0.49888074,0
0.015625,0.49888298,1
0.015625,0.49888298,0
0.01953125,0.49888584,1
0.01953125,0.49888584,0
0.0234375,0.49888933,1
0.0234375,0.49888933,0
0.02734375,0.49889347,1
0.02734375,0.49889347,0
0.03125,0.49889821,1
0.03125,0.49889821,0
0.03515625,0.4989036,1
0.03515625,0.4989036,0
0.0390625,0.49890962,1
0.0390625,0.49890962,0
0.04296875,0.49891624,1
0.04296875,0.49891624,0
0.046875,0.49892348,1
0.046875,0.49892348,0
0.05078125,0.49893135,1
0.05078125,0.49893135,0
0.0546875,0.49893984,1
0.0546875,0.49893984,0
0.05859375,0.4989489,1
0.05859375,0.4989489,0
0.0625,0.49895859,1
0.0625,0.49895859,0
0.06640625,0.49896887,1
0.06640625,0.49896887,0
0.0703125,0.49897975,1
0.0703125,0.49897975,0
0.07421875,0.49899122,1
0.07421875,0.49899122,0
0.078125,0.49900326,1
0.078125,0.49900326,0
0.08203125,0.49901587,1
0.08203125,0.49901587,0
0.0859375,0.49902907,1
0.0859375,0.49902907,0
0.08984375,0.49904281,1
0.08984375,0.49904281,0
0.09375,0.49905714,1
0.09375,0.49905714,0
0.09765625,0.49907202,1
0.09765625,0.49907202,0
0.1015625,0.49908742,1
0.1015625,0.49908742,0
0.10546875,0.49910337,1
0.10546875,0.49910337,0
0.109375,0.49911985,1
0.109375,0.49911985,0
0.11328125,0.49913684,1
0.11328125,0.49913684,0
0.1171875,0.49915436,1
0.1171875,0.49915436,0
0.12109375,0.49917239,1
0.12109375,0.49917239,0
0.125,0.49919093,1
0.125,0.49919093,0
0.12890625,0.49920997,1
0.12890625,0.49920997,0
0.1328125,0.49922946,1
0.1328125,0.49922946,0
0.13671875,0.49924946,1
0.13671875,0.49924946,0
0.140625,0.49926993,1
0.140625,0.49926993,0
0.14453125,0.49929085,1
0.14453125,0.49929085,0
0.1484375,0.49931222,1
0.1484375,0.49931222,0
0.15234375,0.49933407,1
0.15234375,0.49933407,0
0.15625,0.4993563,1
0.15625,0.4993563,0
0.16015625,0.49937901,1
0.16015625,0.49937901,0
0.1640625,0.49940211,1
0.1640625,0.49940211,0
0.16796875,0.49942562,1
0.16796875,0.49942562,0
0.171875,0.49944955,1
0.171875,0.49944955,0
0.17578125,0.49947387,1
0.17578125,0.49947387,0
0.1796875,0.49949858,1
0.1796875,0.49949858,0
0.18359375,0.49952367,1
0.18359375,0.49952367,0
0.1875,0.49954912,1
0.1875,0.49954912,0
0.19140625,0.49957493,1
0.19140625,0.49957493,0
0.1953125,0.4996011,1
0.1953125,0.4996011,0
0.19921875,0.49962762,1
0.19921875,0.49962762,0
0.203125,0.49965444,1
0.203125,0.49965444,0
0.20703125,0.49968162,1
0.20703125,0.49968162,0
0.2109375,0.49970913,1
0.2109375,0.49970913,0
0.21484375,0.49973693,1
0.21484375,0.49973693,0
0.21875,0.49976504,1
0.21875,0.49976504,0
0.22265625,0.49979344,1
0.22265625,0.49979344,0
0.2265625,0.49982211,1
0.2265625,0.49982211,0
0.23046875,0.49985108,1
0.23046875,0.49985108,0
0.234375,0.49988031,1
0.234375,0.49988031,0
0.23828125,0.49990985,1
0.23828125,0.49990985,0
0.2421875,0.49993962,1
0.2421875,0.49993962,0
0.24609375,0.49996966,1
0.24609375,0.49996966,0
0.25,0.5,0
0.25,0.5,1
0.75390625,0.49996966,0
0.75,0.5,1
0.75390625,0.49996966,1
0.75,0.5,0
0.7578125,0.49993962,1
0.7578125,0.49993962,0
0.76171875,0.49990985,1
0.76171875,0.49990985,0
0.765625,0.49988031,1
0.765625,0.49988031,0
0.76953125,0.49985108,1
0.76953125,0.49985108,0
0.7734375,0.49982211,1
0.7734375,0.49982211,0
0.77734375,0.49979344,1
0.77734375,0.49979344,0
0.78125,0.49976504,1
0.78125,0.49976504,0
0.78515625,0.49973693,1
0.78515625,0.49973693,0
0.7890625,0.49970913,1
0.7890625,0.49970913,0
0.79296875,0.49968162,1
0.79296875,0.49968162,0
0.796875,0.49965444,1
0.796875,0.49965444,0
0.80078125,0.49962762,1
0.80078125,0.49962762,0
0.8046875,0.4996011,1
0.8046875,0.4996011,0
0.80859375,0.49957493,1
0.80859375,0.49957493,0
0.8125,0.49954912,1
0.8125,0.49954912,0
0.81640625,0.49952367,1
0.81640625,0.49952367,0
0.8203125,0.49949858,1
0.8203125,0.49949858,0
0.82421875,0.49947387,1
0.82421875,0.49947387,0
0.828125,0.49944955,1
0.828125,0.49944955,0
0.83203125,0.49942562,1
0.83203125,0.49942562,0
0.8359375,0.49940211,1
0.8359375,0.49940211,0
0.83984375,0.49937901,1
0.83984375,0.49937901,0
0.84375,0.4993563,1
0.84375,0.4993563,0
0.84765625,0.49933407,1
0.84765625,0.49933407,0
0.8515625,0.49931222,1
0.8515625,0.49931222,0
0.85546875,0.49929085,1
0.85546875,0.49929085,0
0.859375,0.49926993,1
0.859375,0.49926993,0
0.86328125,0.49924946,1
0.86328125,0.49924946,0
0.8671875,0.49922946,1
0.8671875,0.49922946,0
0.87109375,0.49920997,1
0.87109375,0.49920997,0
0.875,0.49919093,1
0.875,0.49919093,0
0.87890625,0.49917239,1
0.87890625,0.49917239,0
0.8828125,0.49915436,1
0.8828125,0.49915436,0
0.88671875,0.49913684,1
0.88671875,0.49913684,0
0.890625,0.49911985,1
0.890625,0.49911985,0
0.89453125,0.49910337,1
0.89453125,0.49910337,0
0.8984375,0.49908742,1
0.8984375,0.49908742,0
0.90234375,0.49907202,1
0.90234375,0.49907202,0
0.90625,0.49905714,1
0.90625,0.49905714,0
0.91015625,0.49904281,1
0.91015625,0.49904281,0
0.9140625,0.49902907,1
0.9140625,0.49902907,0
0.91796875,0.49901587,1
0.91796875,0.49901587,0
0.921875,0.49900326,1
0.921875,0.49900326,0
0.92578125,0.49899122,1
0.92578125,0.49899122,0
0.9296875,0.49897975,1
0.9296875,0.49897975,0
0.93359375,0.49896887,1
0.93359375,0.49896887,0
0.9375,0.49895859,1
0.9375,0.49895859,0
0.94140625,0.4989489,1
0.94140625,0.4989489,0
0.9453125,0.49893984,1
0.9453125,0.49893984,0
0.94921875,0.49893135,1
0.94921875,0.49893135,0
0.953125,0.49892348,1
0.953125,0.49892348,0
0.95703125,0.49891624,1
0.95703125,0.49891624,0
0.9609375,0.49890962,1
0.9609375,0.49890962,0
0.96484375,0.4989036,1
0.96484375,0.4989036,0
0.96875,0.49889821,1
0.96875,0.49889821,0
0.97265625,0.49889347,1
0.97265625,0.49889347,0
0.9765625,0.49888933,1
0.9765625,0.49888933,0
0.98046875,0.49888584,1
0.98046875,0.49888584,0
0.984375,0.49888298,1
0.984375,0.49888298,0
0.98828125,0.49888074,1
0.98828125,0.49888074,0
0.9921875,0.49887916,1
0.9921875,0.49887916,0
0.99609375,0.49887821,1
0.99609375,0.49887821,0
1,0.49887788,1
1,0.49887788,0
0.25390625,0.50003034,1
0.25390625,0.50003034,0
0.2578125,0.50006038,1
0.2578125,0.50006038,0
0.26171875,0.50009018,1
0.26171875,0.50009018,0
0.265625,0.50011969,1
0.265625,0.50011969,0
0.26953125,0.50014889,1
0.26953125,0.50014889,0
0.2734375,0.50017786,1
0.2734375,0.50017786,0
0.27734375,0.50020659,1
0.27734375,0.50020659,0
0.28125,0.50023496,1
0.28125,0.50023496,0
0.28515625,0.50026309,1
0.28515625,0.50026309,0
0.2890625,0.50029087,1
0.2890625,0.50029087,0
0.29296875,0.50031835,1
0.29296875,0.50031835,0
0.296875,0.50034553,1
0.296875,0.50034553,0
0.30078125,0.50037241,1
0.30078125,0.50037241,0
0.3046875,0.50039887,1
0.3046875,0.50039887,0
0.30859375,0.50042504,1
0.30859375,0.50042504,0
0.3125,0.50045091,1
0.3125,0.50045091,0
0.31640625,0.50047636,1
0.31640625,0.50047636,0
0.3203125,0.50050139,1
0.3203125,0.50050139,0
0.32421875,0.50052613,1
0.32421875,0.50052613,0
0.328125,0.50055045,1
0.328125,0.50055045,0
0.33203125,0.50057435,1
0.33203125,0.50057435,0
0.3359375,0.50059789,1
0.3359375,0.50059789,0
0.33984375,0.50062102,1
0.33984375,0.50062102,0
0.34375,0.50064367,1
0.34375,0.50064367,0
0.34765625,0.50066596,1
0.34765625,0.50066596,0
0.3515625,0.50068778,1
0.3515625,0.50068778,0
0.35546875,0.50070918,1
0.35546875,0.50070918,0
0.359375,0.5007301,1
0.359375,0.5007301,0
0.36328125,0.50075054,1
0.36328125,0.50075054,0
0.3671875,0.50077051,1
0.3671875,0.50077051,0
0.37109375,0.50079006,1
0.37109375,0.50079006,0
0.375,0.50080907,1
0.375,0.50080907,0
0.37890625,0.50082761,1
0.37890625,0.50082761,0
0.3828125,0.50084561,1
0.3828125,0.50084561,0
0.38671875,0.50086313,1
0.38671875,0.50086313,0
0.390625,0.50088018,1
0.390625,0.50088018,0
0.39453125,0.50089663,1
0.39453125,0.50089663,0
0.3984375,0.50091261,1
0.3984375,0.50091261,0
0.40234375,0.50092798,1
0.40234375,0.50092798,0
0.40625,0.50094289,1
0.40625,0.50094289,0
0.41015625,0.50095719,1
0.41015625,0.50095719,0
0.4140625,0.50097096,1
0.4140625,0.50097096,0
0.41796875,0.50098413,1
0.41796875,0.50098413,0
0.421875,0.50099677,1
0.421875,0.50099677,0
0.42578125,0.50100881,1
0.42578125,0.50100881,0
0.4296875,0.50102025,1
0.4296875,0.50102025,0
0.43359375,0.5010311,1
0.43359375,0.5010311,0
0.4375,0.50104141,1
0.4375,0.50104141,0
0.44140625,0.50105107,1
0.44140625,0.50105107,0
0.4453125,0.50106019,1
0.4453125,0.50106019,0
0.44921875,0.50106865,1
0.44921875,0.50106865,0
0.453125,0.50107652,1
0.453125,0.50107652,0
0.45703125,0.50108373,1
0.45703125,0.50108373,0
0.4609375,0.50109041,1
0.4609375,0.50109041,0
0.46484375,0.50109637,1
0.46484375,0.50109637,0
0.46875,0.50110179,1
0.46875,0.50110179,0
0.47265625,0.50110656,1
0.47265625,0.50110656,0
0.4765625,0.50111067,1
0.4765625,0.50111067,0
0.48046875,0.50111413,1
0.48046875,0.50111413,0
0.484375,0.50111705,1
0.484375,0.50111705,0
0.48828125,0.50111926,1
0.48828125,0.50111926,0
0.4921875,0.50112087,1
0.4921875,0.50112087,0
0.49609375,0.50112182,1
0.49609375,0.50112182,0
0.5,0.50112212,1
0.5,0.50112212,0
0.50390625,0.50112182,1
0.50390625,0.50112182,0
0.5078125,0.50112087,1
0.5078125,0.50112087,0
0.51171875,0.50111926,1
0.51171875,0.50111926,0
0.515625,0.50111705,1
0.515625,0.50111705,0
0.51953125,0.50111413,1
0.51953125,0.50111413,0
0.5234375,0.50111067,1
0.5234375,0.50111067,0
0.52734375,0.50110656,1
0.52734375,0.50110656,0
0.53125,0.50110179,1
0.53125,0.50110179,0
0.53515625,0.50109637,1
0.53515625,0.50109637,0
0.5390625,0.50109041,1
0.5390625,0.50109041,0
0.54296875,0.50108373,1
0.54296875,0.50108373,0
0.546875,0.50107652,1
0.546875,0.50107652,0
0.55078125,0.50106865,1
0.55078125,0.50106865,0
0.5546875,0.50106019,1
0.5546875,0.50106019,0
0.55859375,0.50105107,1
0.55859375,0.50105107,0
0.5625,0.50104141,1
0.5625,0.50104141,0
0.56640625,0.5010311,1
0.56640625,0.5010311,0
0.5703125,0.50102025,1
0.5703125,0.50102025,0
0.57421875,0.50100881,1
0.57421875,0.50100881,0
0.578125,0.50099677,1
0.578125,0.50099677,0
0.58203125,0.50098413,1
0.58203125,0.50098413,0
0.5859375,0.50097096,1
0.5859375,0.50097096,0
0.58984375,0.50095719,1
0.58984375,0.50095719,0
0.59375,0.50094289,1
0.59375,0.50094289,0
0.59765625,0.50092798,1
0.59765625,0.50092798,0
0.6015625,0.50091261,1
0.6015625,0.50091261,0
0.60546875,0.50089663,1
0.60546875,0.50089663,0
0.609375,0.50088018,1
0.609375,0.50088018,0
0.61328125,0.50086313,1
0.61328125,0.50086313,0
0.6171875,0.50084561,1
0.6171875,0.50084561,0
0.62109375,0.50082761,1
0.62109375,0.50082761,0
0.625,0.50080907,1
0.625,0.50080907,0
0.62890625,0.50079006,1
0.62890625,0.50079006,0
0.6328125,0.50077051,1
0.6328125,0.50077051,0
0.63671875,0.50075054,1
0.63671875,0.50075054,0
0.640625,0.5007301,1
0.640625,0.5007301,0
0.64453125,0.50070918,1
0.64453125,0.50070918,0
0.6484375,0.50068778,1
0.6484375,0.50068778,0
0.65234375,0.50066596,1
0.65234375,0.50066596,0
0.65625,0.50064367,1
0.65625,0.50064367,0
0.66015625,0.50062102,1
0.66015625,0.50062102,0
0.6640625,0.50059789,1
0.6640625,0.50059789,0
0.66796875,0.50057435,1
0.66796875,0.50057435,0
0.671875,0.50055045,1
0.671875,0.50055045,0
0.67578125,0.50052613,1
0.67578125,0.50052613,0
0.6796875,0.50050139,1
0.6796875,0.50050139,0
0.68359375,0.50047636,1
0.68359375,0.50047636,0
0.6875,0.50045091,1
0.6875,0.50045091,0
0.69140625,0.50042504,1
0.69140625,0.50042504,0
0.6953125,0.50039887,1
0.6953125,0.50039887,0
0.69921875,0.50037241,1
0.69921875,0.50037241,0
0.703125,0.50034553,1
0.703125,0.50034553,0
0.70703125,0.50031835,1
0.70703125,0.50031835,0
0.7109375,0.50029087,1
0.7109375,0.50029087,0
0.71484375,0.50026309,1
0.71484375,0.50026309,0
0.71875,0.50023496,1
0.71875,0.50023496,0
0.72265625,0.50020659,1
0.72265625,0.50020659,0
0.7265625,0.50017786,1
0.7265625,0.50017786,0
0.73046875,0.50014889,1
0.73046875,0.50014889,0
0.734375,0.50011969,1
0.734375,0.50011969,0
0.73828125,0.50009018,1
0.73828125,0.50009018,0
0.7421875,0.50006038,1
0.7421875,0.50006038,0
0.74609375,0.50003034,1
0.74609375,0.50003034,0
