"Points:0","Points:1","Points:2"
0,0.49144074,1
0.00390625,0.49144343,1
0,0.49144074,0
0.00390625,0.49144343,0
0.0078125,0.49145144,1
0.0078125,0.49145144,0
0.01171875,0.49146485,1
0.01171875,0.49146485,0
0.015625,0.49148363,1
0.015625,0.49148363,0
0.01953125,0.49150786,1
0.01953125,0.49150786,0
0.0234375,0.49153754,1
0.0234375,0.49153754,0
0.02734375,0.49157277,1
0.02734375,0.49157277,0
0.03125,0.49161357,1
0.03125,0.49161357,0
0.03515625,0.49166006,1
0.03515625,0.49166006,0
0.0390625,0.49171236,1
0.0390625,0.49171236,0
0.04296875,0.4917706,1
0.04296875,0.4917706,0
0.046875,0.49183491,1
0.046875,0.49183491,0
0.05078125,0.49190557,1
0.05078125,0.49190557,0
0.0546875,0.49198282,1
0.0546875,0.49198282,0
0.05859375,0.49206713,1
0.05859375,0.49206713,0
0.0625,0.49215907,1
0.0625,0.49215907,0
0.063618496,0.4921875,0
0.063618496,0.4921875,1
0.9375,0.49215907,0
0.93638152,0.4921875,1
0.9375,0.49215907,1
0.93638152,0.4921875,0
0.94140625,0.49206713,1
0.94140625,0.49206713,0
0.9453125,0.49198282,1
0.9453125,0.49198282,0
0.94921875,0.49190557,1
0.94921875,0.49190557,0
0.953125,0.49183491,1
0.953125,0.49183491,0
0.95703125,0.4917706,1
0.95703125,0.4917706,0
0.9609375,0.49171236,1
0.9609375,0.49171236,0
0.96484375,0.49166006,1
0.96484375,0.49166006,0
0.96875,0.49161357,1
0.96875,0.49161357,0
0.97265625,0.49157277,1
0.97265625,0.49157277,0
0.9765625,0.49153754,1
0.9765625,0.49153754,0
0.98046875,0.49150786,1
0.98046875,0.49150786,0
0.984375,0.49148363,1
0.984375,0.49148363,0
0.98828125,0.49146485,1
0.98828125,0.49146485,0
0.9921875,0.49145144,1
0.9921875,0.49145144,0
0.99609375,0.49144343,1
0.99609375,0.49144343,0
1,0.49144074,1
1,0.49144074,0
0.06640625,0.49225819,1
0.06640625,0.49225819,0
0.0703125,0.49236059,1
0.0703125,0.49236059,0
0.07421875,0.49246466,1
0.07421875,0.49246466,0
0.078125,0.49257094,1
0.078125,0.49257094,0
0.08203125,0.49267951,1
0.08203125,0.49267951,0
0.0859375,0.49279025,1
0.0859375,0.49279025,0
0.08984375,0.49290332,1
0.08984375,0.49290332,0
0.09375,0.49301866,1
0.09375,0.49301866,0
0.09765625,0.49313638,1
0.09765625,0.49313638,0
0.1015625,0.49325651,1
0.1015625,0.49325651,0
0.10546875,0.49337909,1
0.10546875,0.49337909,0
0.109375,0.4935042,1
0.109375,0.4935042,0
0.11328125,0.49363193,1
0.11328125,0.49363193,0
0.1171875,0.49376237,1
0.1171875,0.49376237,0
0.12109375,0.49389568,1
0.12109375,0.49389568,0
0.125,0.49403191,1
0.125,0.49403191,0
0.12890625,0.49417126,1
0.12890625,0.49417126,0
0.1328125,0.49431393,1
0.1328125,0.49431393,0
0.13671875,0.49446008,1
0.13671875,0.49446008,0
0.140625,0.49460995,1
0.140625,0.49460995,0
0.14453125,0.49476394,1
0.14453125,0.49476394,0
0.1484375,0.49492237,1
0.1484375,0.49492237,0
0.15234375,0.49508572,1
0.15234375,0.49508572,0
0.15625,0.49525458,1
0.15625,0.49525458,0
0.16015625,0.49542966,1
0.16015625,0.49542966,0
0.1640625,0.49561235,1
0.1640625,0.49561235,0
0.16796875,0.4958041,1
0.16796875,0.4958041,0
0.171875,0.4960081,1
0.171875,0.4960081,0
0.17343067,0.49609375,0
0.17343067,0.49609375,1
0.828125,0.4960081,0
0.82656932,0.49609375,1
0.828125,0.4960081,1
0.82656932,0.49609375,0
0.83203125,0.4958041,1
0.83203125,0.4958041,0
0.8359375,0.49561235,1
0.8359375,0.49561235,0
0.83984375,0.49542966,1
0.83984375,0.49542966,0
0.84375,0.49525458,1
0.84375,0.49525458,0
0.84765625,0.49508572,1
0.84765625,0.49508572,0
0.8515625,0.49492237,1
0.8515625,0.49492237,0
0.85546875,0.49476394,1
0.85546875,0.49476394,0
0.859375,0.49460995,1
0.859375,0.49460995,0
0.86328125,0.49446008,1
0.86328125,0.49446008,0
0.8671875,0.49431393,1
0.8671875,0.49431393,0
0.87109375,0.49417126,1
0.87109375,0.49417126,0
0.875,0.49403191,1
0.875,0.49403191,0
0.87890625,0.49389568,1
0.87890625,0.49389568,0
0.8828125,0.49376237,1
0.8828125,0.49376237,0
0.88671875,0.49363193,1
0.88671875,0.49363193,0
0.890625,0.4935042,1
0.890625,0.4935042,0
0.89453125,0.49337909,1
0.89453125,0.49337909,0
0.8984375,0.49325651,1
0.8984375,0.49325651,0
0.90234375,0.49313638,1
0.90234375,0.49313638,0
0.90625,0.49301866,1
0.90625,0.49301866,0
0.91015625,0.49290332,1
0.91015625,0.49290332,0
0.9140625,0.49279025,1
0.9140625,0.49279025,0
0.91796875,0.49267951,1
0.91796875,0.49267951,0
0.921875,0.49257094,1
0.921875,0.49257094,0
0.92578125,0.49246466,1
0.92578125,0.49246466,0
0.9296875,0.49236059,1
0.9296875,0.49236059,0
0.93359375,0.49225819,1
0.93359375,0.49225819,0
0.17578125,0.49622282,1
0.17578125,0.49622282,0
0.1796875,0.49643081,1
0.1796875,0.49643081,0
0.18359375,0.49663001,1
0.18359375,0.49663001,0
0.1875,0.49682516,1
0.1875,0.49682516,0
0.19140625,0.49701613,1
0.19140625,0.49701613,0
0.1953125,0.49720559,1
0.1953125,0.49720559,0
0.19921875,0.49739298,1
0.19921875,0.49739298,0
0.203125,0.49758005,1
0.203125,0.49758005,0
0.20703125,0.49776655,1
0.20703125,0.49776655,0
0.2109375,0.49795377,1
0.2109375,0.49795377,0
0.21484375,0.49814156,1
0.21484375,0.49814156,0
0.21875,0.49833119,1
0.21875,0.49833119,0
0.22265625,0.4985224,1
0.22265625,0.4985224,0
0.2265625,0.49871674,1
0.2265625,0.49871674,0
0.23046875,0.49891397,1
0.23046875,0.49891397,0
0.234375,0.499116,1
0.234375,0.499116,0
0.23828125,0.49932292,1
0.23828125,0.49932292,0
0.2421875,0.49953762,1
0.2421875,0.49953762,0
0.24609375,0.49976218,1
0.24609375,0.49976218,0
0.24999925,0.5,0
0.24999925,0.5,1
0.75390625,0.49976218,0
0.75000072,0.5,1
0.75390625,0.49976218,1
0.75000072,0.5,0
0.7578125,0.49953762,1
0.7578125,0.49953762,0
0.76171875,0.49932292,1
0.76171875,0.49932292,0
0.765625,0.499116,1
0.765625,0.499116,0
0.76953125,0.49891397,1
0.76953125,0.49891397,0
0.7734375,0.49871674,1
0.7734375,0.49871674,0
0.77734375,0.4985224,1
0.77734375,0.4985224,0
0.78125,0.49833119,1
0.78125,0.49833119,0
0.78515625,0.49814156,1
0.78515625,0.49814156,0
0.7890625,0.49795377,1
0.7890625,0.49795377,0
0.79296875,0.49776655,1
0.79296875,0.49776655,0
0.796875,0.49758005,1
0.796875,0.49758005,0
0.80078125,0.49739298,1
0.80078125,0.49739298,0
0.8046875,0.49720559,1
0.8046875,0.49720559,0
0.80859375,0.49701613,1
0.80859375,0.49701613,0
0.8125,0.49682516,1
0.8125,0.49682516,0
0.81640625,0.49663001,1
0.81640625,0.49663001,0
0.8203125,0.49643081,1
0.8203125,0.49643081,0
0.82421875,0.49622282,1
0.82421875,0.49622282,0
0.25,0.50000006,1
0.25,0.50000006,0
0.25390625,0.50023794,1
0.25390625,0.50023794,0
0.2578125,0.50046247,1
0.2578125,0.50046247,0
0.26171875,0.50067717,1
0.26171875,0.50067717,0
0.265625,0.50088406,1
0.265625,0.50088406,0
0.26953125,0.50108612,1
0.26953125,0.50108612,0
0.2734375,0.50128335,1
0.2734375,0.50128335,0
0.27734375,0.50147766,1
0.27734375,0.50147766,0
0.28125,0.50166887,1
0.28125,0.50166887,0
0.28515625,0.50185847,1
0.28515625,0.50185847,0
0.2890625,0.50204629,1
0.2890625,0.50204629,0
0.29296875,0.50223351,1
0.29296875,0.50223351,0
0.296875,0.50242001,1
0.296875,0.50242001,0
0.30078125,0.50260705,1
0.30078125,0.50260705,0
0.3046875,0.5027945,1
0.3046875,0.5027945,0
0.30859375,0.50298393,1
0.30859375,0.50298393,0
0.3125,0.5031749,1
0.3125,0.5031749,0
0.31640625,0.50337005,1
0.31640625,0.50337005,0
0.3203125,0.50356925,1
0.3203125,0.50356925,0
0.32421875,0.50377721,1
0.32421875,0.50377721,0
0.32656839,0.50390625,0
0.32656839,0.50390625,1
0.67578125,0.50377721,0
0.67343163,0.50390625,1
0.67578125,0.50377721,1
0.67343163,0.50390625,0
0.6796875,0.50356925,1
0.6796875,0.50356925,0
0.68359375,0.50337005,1
0.68359375,0.50337005,0
0.6875,0.5031749,1
0.6875,0.5031749,0
0.69140625,0.50298393,1
0.69140625,0.50298393,0
0.6953125,0.5027945,1
0.6953125,0.5027945,0
0.69921875,0.50260705,1
0.69921875,0.50260705,0
0.703125,0.50242001,1
0.703125,0.50242001,0
0.70703125,0.50223351,1
0.70703125,0.50223351,0
0.7109375,0.50204629,1
0.7109375,0.50204629,0
0.71484375,0.50185847,1
0.71484375,0.50185847,0
0.71875,0.50166887,1
0.71875,0.50166887,0
0.72265625,0.50147766,1
0.72265625,0.50147766,0
0.7265625,0.50128335,1
0.7265625,0.50128335,0
0.73046875,0.50108612,1
0.73046875,0.50108612,0
0.734375,0.50088406,1
0.734375,0.50088406,0
0.73828125,0.50067717,1
0.73828125,0.50067717,0
0.7421875,0.50046247,1
0.7421875,0.50046247,0
0.74609375,0.50023794,1
0.74609375,0.50023794,0
0.75,0.50000006,1
0.75,0.50000006,0
0.328125,0.50399196,1
0.328125,0.50399196,0
0.33203125,0.50419593,1
0.33203125,0.50419593,0
0.3359375,0.50438768,1
0.3359375,0.50438768,0
0.33984375,0.50457036,1
0.33984375,0.50457036,0
0.34375,0.50474548,1
0.34375,0.50474548,0
0.34765625,0.50491434,1
0.34765625,0.50491434,0
0.3515625,0.50507766,1
0.3515625,0.50507766,0
0.35546875,0.50523609,1
0.35546875,0.50523609,0
0.359375,0.50539005,1
0.359375,0.50539005,0
0.36328125,0.50553995,1
0.36328125,0.50553995,0
0.3671875,0.5056861,1
0.3671875,0.5056861,0
0.37109375,0.50582874,1
0.37109375,0.50582874,0
0.375,0.50596809,1
0.375,0.50596809,0
0.37890625,0.50610429,1
0.37890625,0.50610429,0
0.3828125,0.50623763,1
0.3828125,0.50623763,0
0.38671875,0.50636804,1
0.38671875,0.50636804,0
0.390625,0.50649577,1
0.390625,0.50649577,0
0.39453125,0.50662088,1
0.39453125,0.50662088,0
0.3984375,0.50674349,1
0.3984375,0.50674349,0
0.40234375,0.50686359,1
0.40234375,0.50686359,0
0.40625,0.50698131,1
0.40625,0.50698131,0
0.41015625,0.50709665,1
0.41015625,0.50709665,0
0.4140625,0.50720972,1
0.4140625,0.50720972,0
0.41796875,0.50732046,1
0.41796875,0.50732046,0
0.421875,0.507429,1
0.421875,0.507429,0
0.42578125,0.50753528,1
0.42578125,0.50753528,0
0.4296875,0.50763935,1
0.4296875,0.50763935,0
0.43359375,0.50774175,1
0.43359375,0.50774175,0
0.43638393,0.5078125,0
0.43638393,0.5078125,1
0.56640625,0.50774175,0
0.56361604,0.5078125,1
0.56640625,0.50774175,1
0.56361604,0.5078125,0
0.5703125,0.50763935,1
0.5703125,0.50763935,0
0.57421875,0.50753528,1
0.57421875,0.50753528,0
0.578125,0.507429,1
0.578125,0.507429,0
0.58203125,0.50732046,1
0.58203125,0.50732046,0
0.5859375,0.50720972,1
0.5859375,0.50720972,0
0.58984375,0.50709665,1
0.58984375,0.50709665,0
0.59375,0.50698131,1
0.59375,0.50698131,0
0.59765625,0.50686359,1
0.59765625,0.50686359,0
0.6015625,0.50674349,1
0.6015625,0.50674349,0
0.60546875,0.50662088,1
0.60546875,0.50662088,0
0.609375,0.50649577,1
0.609375,0.50649577,0
0.61328125,0.50636804,1
0.61328125,0.50636804,0
0.6171875,0.50623763,1
0.6171875,0.50623763,0
0.62109375,0.50610429,1
0.62109375,0.50610429,0
0.625,0.50596809,1
0.625,0.50596809,0
0.62890625,0.50582874,1
0.62890625,0.50582874,0
0.6328125,0.5056861,1
0.6328125,0.5056861,0
0.63671875,0.50553995,1
0.63671875,0.50553995,0
0.640625,0.50539005,1
0.640625,0.50539005,0
0.64453125,0.50523609,1
0.64453125,0.50523609,0
0.6484375,0.50507766,1
0.6484375,0.50507766,0
0.65234375,0.50491434,1
0.65234375,0.50491434,0
0.65625,0.50474548,1
0.65625,0.50474548,0
0.66015625,0.50457036,1
0.66015625,0.50457036,0
0.6640625,0.50438768,1
0.6640625,0.50438768,0
0.66796875,0.50419593,1
0.66796875,0.50419593,0
0.671875,0.50399196,1
0.671875,0.50399196,0
0.4375,0.50784087,1
0.4375,0.50784087,0
0.44140625,0.50793284,1
0.44140625,0.50793284,0
0.4453125,0.50801712,1
0.4453125,0.50801712,0
0.44921875,0.50809437,1
0.44921875,0.50809437,0
0.453125,0.508165,1
0.453125,0.508165,0
0.45703125,0.50822932,1
0.45703125,0.50822932,0
0.4609375,0.50828761,1
0.4609375,0.50828761,0
0.46484375,0.50833988,1
0.46484375,0.50833988,0
0.46875,0.50838637,1
0.46875,0.50838637,0
0.47265625,0.50842714,1
0.47265625,0.50842714,0
0.4765625,0.50846237,1
0.4765625,0.50846237,0
0.48046875,0.50849205,1
0.48046875,0.50849205,0
0.484375,0.50851631,1
0.484375,0.50851631,0
0.48828125,0.50853509,1
0.48828125,0.50853509,0
0.4921875,0.5085485,1
0.4921875,0.5085485,0
0.49609375,0.50855649,1
0.49609375,0.50855649,0
0.5,0.50855917,1
0.5,0.50855917,0
0.50390625,0.50855649,1
0.50390625,0.50855649,0
0.5078125,0.5085485,1
0.5078125,0.5085485,0
0.51171875,0.50853509,1
0.51171875,0.50853509,0
0.515625,0.50851631,1
0.515625,0.50851631,0
0.51953125,0.50849205,1
0.51953125,0.50849205,0
0.5234375,0.50846237,1
0.5234375,0.50846237,0
0.52734375,0.50842714,1
0.52734375,0.50842714,0
0.53125,0.50838637,1
0.53125,0.50838637,0
0.53515625,0.50833988,1
0.53515625,0.50833988,0
0.5390625,0.50828761,1
0.5390625,0.50828761,0
0.54296875,0.50822932,1
0.54296875,0.50822932,0
0.546875,0.508165,1
0.546875,0.508165,0
0.55078125,0.50809437,1
0.55078125,0.50809437,0
0.5546875,0.50801712,1
0.5546875,0.50801712,0
0.55859375,0.50793284,1
0.55859375,0.50793284,0
0.5625,0.50784087,1
0.5625,0.50784087,0
