/*--------------------------------*- C++ -*----------------------------------*\
| =========                 |                                                 |
| \\      /  F ield         | OpenFOAM: The Open Source CFD Toolbox           |
|  \\    /   O peration     | Version:  2106                                  |
|   \\  /    A nd           | Website:  www.openfoam.com                      |
|    \\/     M anipulation  |                                                 |
\*---------------------------------------------------------------------------*/
FoamFile
{
    version     2.0;
    format      ascii;
    arch        "LSB;label=32;scalar=64";
    class       surfaceScalarField;
    location    "0.035";
    object      phi_0;
}
// * * * * * * * * * * * * * * * * * * * * * * * * * * * * * * * * * * * * * //

dimensions      [0 3 -1 0 0 0 0];

oriented        oriented;

internalField   nonuniform List<scalar> 
480
(
0.00065205506
-0.00065189289
0.0012042978
-0.0005522427
0.0015742496
-0.00036995179
0.0017045899
-0.00013034031
0.0015759297
0.00012866018
0.00120641
0.00036951972
0.00065321188
0.00055319809
-2.0398427e-07
0.00065341586
-0.00065356449
0.0006533605
-0.0012066259
0.00055306142
-0.001575871
0.00036924506
-0.0017045644
0.00012869343
-0.0015741466
-0.00013041779
-0.0012041717
-0.00036997493
-0.00065172575
-0.00055244592
-0.00065188792
0.00081704714
-0.001468718
0.0015086129
-0.0012438084
0.0019717522
-0.00083309108
0.0021349589
-0.00029354709
0.0019737257
0.00028989345
0.0015109002
0.0008323452
0.00081817732
0.001245921
-2.6667369e-07
0.0014718599
-0.00081864387
0.0014717377
-0.0015111689
0.0012455865
-0.0019735882
0.00083166433
-0.0021349108
0.00029001596
-0.0019716618
-0.00029366677
-0.0015084888
-0.00083314796
-0.00081661847
-0.0012443162
-0.0014687284
0.0011565718
-0.0026249453
0.0021345012
-0.0022217378
0.0027891518
-0.0014877417
0.0030198681
-0.00052426342
0.0027914159
0.00051834573
0.0021366844
0.0014870767
0.0011572791
0.0022253262
-3.8570425e-07
0.0026295246
-0.0011579691
0.0026293211
-0.0021370178
0.0022246352
-0.0027910038
0.0014856503
-0.0030197413
0.0005187535
-0.0027891732
-0.00052423484
-0.0021344741
-0.0014878471
-0.001155967
-0.0022228233
-0.00262504
0.0017520483
-0.004376479
0.0032325084
-0.0037021979
0.0042231221
-0.0024783554
0.0045721671
-0.00087330838
0.0042253395
0.00086517329
0.003233751
0.0024786653
0.001751517
0.0037075602
-5.1929203e-07
0.0043815609
-0.0017524747
0.0043812765
-0.0032341732
0.0037063337
-0.00422455
0.0024760271
-0.004571956
0.00086615945
-0.004223314
-0.00087287685
-0.003232618
-0.002478543
-0.001751201
-0.0037042403
-0.0043767556
0.002626143
-0.0070015861
0.0048412436
-0.0059172985
0.0063257274
-0.0039628392
0.0068516657
-0.0013992468
0.006329738
0.001387101
0.0048425608
0.0039658425
0.0026245528
0.0059255682
-8.9570068e-07
0.0070070095
-0.0026264044
0.0070067852
-0.0048429178
0.0059228472
-0.0063269281
0.0039600373
-0.0068506867
0.0013899181
-0.0063272289
-0.0013963347
-0.0048425112
-0.0039632607
-0.0026248268
-0.0059219247
-0.0070026183
0.0033827106
-0.010382536
0.0062432826
-0.0087778705
0.0081744547
-0.0058940113
0.0088704243
-0.0020952164
0.008195574
0.0020619513
0.0062656244
0.0058957921
0.0033948877
0.0087963049
-1.2482773e-06
0.010403145
-0.0033975918
0.010403129
-0.0062659143
0.0087911698
-0.0081910496
0.0058851726
-0.0088689257
0.0020677942
-0.0081773441
-0.0020879163
-0.0062455422
-0.0058950626
-0.0033806712
-0.0087867957
-0.010385051
0.0021306203
-0.012509677
0.0039070329
-0.010554283
0.0051420183
-0.0071289968
0.0056261887
-0.0025793867
0.0051955867
0.0024925532
0.0039683125
0.0071230663
0.002170283
0.010594334
-1.9903569e-06
0.012575419
-0.0021764833
0.012577622
-0.0039679527
0.010582639
-0.0051806235
0.0070978434
-0.0056189647
0.0025061355
-0.0051525135
-0.0025543675
-0.0039163589
-0.0071312172
-0.0021280188
-0.010575136
-0.012516548
-0.0012427739
-0.011266543
-0.0023505335
-0.0094465235
-0.0030892698
-0.0063902605
-0.0033370856
-0.0023315709
-0.0031077593
0.0022632269
-0.0023875086
0.0064028156
-0.0012704125
0.0094772383
3.9135196e-08
0.011304967
0.0012676413
0.011310019
0.0023883894
0.0094618911
0.003120375
0.0063658577
0.0033446405
0.0022818699
0.0030812059
-0.0022909329
0.0023419004
-0.0063919117
0.0012413697
-0.0094746051
-0.011275538
0.0012963168
-0.012563301
0.0024321086
-0.010582315
0.0031638542
-0.007122006
0.0033776131
-0.0025453299
0.0031080428
0.0025327973
0.0023632201
0.0071476383
0.0012479204
0.010592538
-5.3055385e-08
0.012552941
-0.0012453037
0.01255527
-0.0023641872
0.010580775
-0.0031204618
0.0071221323
-0.0033848815
0.0025462897
-0.0031554868
-0.0025203276
-0.0024232865
-0.007124112
-0.0012949794
-0.010602912
-0.012570077
-0.0021096821
-0.010457032
-0.0038510961
-0.0088409014
-0.0050438411
-0.005929261
-0.005492523
-0.002096648
-0.0050469989
0.0020872731
-0.0038359444
0.0059365838
-0.0020898456
0.0088464393
1.9921983e-06
0.010461103
0.0020961342
0.010461128
0.0038356945
0.0088412144
0.0050320505
0.0059257763
0.0054853272
0.002093013
0.0050544059
-0.0020894064
0.0038605356
-0.0059302417
0.0021072225
-0.0088495992
-0.010459441
-0.0034071776
-0.0070516142
-0.0062857991
-0.0059622799
-0.0082234734
-0.0039915867
-0.0089138125
-0.0014063089
-0.0082265381
0.0013999987
-0.0062839038
0.0039939495
-0.0034026606
0.0059651961
1.3663695e-06
0.0070570758
0.0034056176
0.0070568769
0.0062844027
0.0059624293
0.0082221498
0.0039880292
0.0089123331
0.0014028297
0.0082262471
-0.0014033204
0.0062879103
-0.0039919049
0.0034050997
-0.0059667886
-0.0070525816
-0.0024632949
-0.00458921
-0.0045433433
-0.0038822315
-0.0059407053
-0.0025942247
-0.0064395346
-0.00090747967
-0.005953264
0.00091372813
-0.0045576981
0.0025983836
-0.0024723567
0.0038798547
8.4023556e-07
0.0045838789
0.0024741272
0.0045835899
0.0045579627
0.0038785938
0.0059502954
0.0025956964
0.0064384916
0.00091463349
0.0059422907
-0.00090711948
0.0045448074
-0.0025944216
0.0024622336
-0.0038842147
-0.0045894573
-0.0018621384
-0.0027277831
-0.0034380134
-0.0023063565
-0.0044935238
-0.0015387143
-0.0048661435
-0.00053486003
-0.0044978597
0.00054544433
-0.0034432619
0.0015437858
-0.0018654598
0.0023020526
7.3356821e-07
0.0027176855
0.0018668106
0.0027175129
0.0034440311
0.0023013733
0.0044973376
0.00154239
0.0048659805
0.00054599053
0.0044935129
-0.00053465192
0.0034377668
-0.0015386754
0.0018609065
-0.0023073545
-0.0027278392
-0.00082067949
-0.00190717
-0.0015140533
-0.0016129827
-0.0019780968
-0.0010746709
-0.0021409268
-0.00037202999
-0.001978495
0.00038301248
-0.0015142266
0.0010795175
-0.00082081724
0.0016086433
1.5468903e-07
0.0018967136
0.00082108257
0.001896585
0.0015141849
0.0016082709
0.0019777758
0.0010787991
0.0021407428
0.00038302354
0.0019783367
-0.00037224582
0.0015144594
-0.0010747981
0.00082058992
-0.001613485
-0.0019071829
-0.0016131298
-0.00029486764
-0.0029784833
-0.00024762924
-0.0038891512
-0.000164003
-0.0042067986
-5.4382542e-05
-0.0038845902
6.0804026e-05
-0.0029717444
0.00016667173
-0.0016077658
0.00024466464
8.0580617e-07
0.000288142
0.0016092655
0.0002881253
0.002972858
0.00024467845
0.0038850909
0.00016656617
0.0042068127
6.130175e-05
0.003888618
-5.4051125e-05
0.0029774305
-0.00016361069
0.0016116296
-0.00024768409
-0.00029472575
-0.00031419591
-0.00057851488
-0.00075366534
-0.00081196975
-0.00074724535
-0.00056942234
-0.00030805644
-2.2258793e-07
0.00030759376
0.00056896648
0.00074667729
0.00081188732
0.00075390507
0.00057913552
0.0003147571
)
;

boundaryField
{
    leftWall
    {
        type            cyclic;
        value           nonuniform List<scalar> 
16
(
-1.6217746e-07
-2.219932e-07
-3.4453866e-07
-5.1459681e-07
-1.0359007e-06
-1.7612262e-06
-3.4783321e-06
-3.601661e-07
4.410999e-07
3.4128538e-06
1.7599249e-06
8.9068948e-07
7.1156992e-07
6.6362695e-08
8.2750096e-07
-3.4930618e-07
)
;
    }
    rightWall
    {
        type            cyclic;
        value           nonuniform List<scalar> 
16
(
1.6217746e-07
2.219932e-07
3.4453866e-07
5.1459681e-07
1.0359007e-06
1.7612262e-06
3.4783321e-06
3.601661e-07
-4.410999e-07
-3.4128538e-06
-1.7599249e-06
-8.9068948e-07
-7.1156992e-07
-6.6362695e-08
-8.2750096e-07
3.4930618e-07
)
;
    }
    lowerWall
    {
        type            calculated;
        value           uniform 0;
    }
    atmosphere
    {
        type            calculated;
        value           nonuniform List<scalar> 
16
(
1.9677579e-05
1.6689727e-05
1.1147459e-05
3.9218695e-06
-3.9203795e-06
-1.115128e-05
-1.6701257e-05
-1.9691851e-05
-1.9691043e-05
-1.6694273e-05
-1.1144637e-05
-3.9082836e-06
3.9311275e-06
1.1158864e-05
1.6694335e-05
1.9682043e-05
)
;
    }
    defaultFaces
    {
        type            empty;
        value           nonuniform List<scalar> 0();
    }
}


// ************************************************************************* //
