/*--------------------------------*- C++ -*----------------------------------*\
| =========                 |                                                 |
| \\      /  F ield         | OpenFOAM: The Open Source CFD Toolbox           |
|  \\    /   O peration     | Version:  2106                                  |
|   \\  /    A nd           | Website:  www.openfoam.com                      |
|    \\/     M anipulation  |                                                 |
\*---------------------------------------------------------------------------*/
FoamFile
{
    version     2.0;
    format      ascii;
    arch        "LSB;label=32;scalar=64";
    class       surfaceScalarField;
    location    "0.03";
    object      phi_0;
}
// * * * * * * * * * * * * * * * * * * * * * * * * * * * * * * * * * * * * * //

dimensions      [0 3 -1 0 0 0 0];

oriented        oriented;

internalField   nonuniform List<scalar> 
65152
(
2.757064e-08
-2.757064e-08
5.6064556e-08
-2.8493915e-08
8.463373e-08
-2.8569175e-08
1.1328339e-07
-2.8649658e-08
1.4202881e-07
-2.8745422e-08
1.7088926e-07
-2.8860449e-08
1.9988738e-07
-2.8998121e-08
2.2904633e-07
-2.915895e-08
2.5838966e-07
-2.9343327e-08
2.879414e-07
-2.9551738e-08
3.1772603e-07
-2.9784636e-08
3.4776852e-07
-3.0042486e-08
3.7809431e-07
-3.0325794e-08
4.0872943e-07
-3.0635114e-08
4.3970048e-07
-3.0971059e-08
4.7103479e-07
-3.1334301e-08
5.0276036e-07
-3.1725575e-08
5.3490605e-07
-3.214569e-08
5.6750158e-07
-3.2595528e-08
6.0057763e-07
-3.3076052e-08
6.3416594e-07
-3.3588314e-08
6.682994e-07
-3.4133459e-08
7.0301214e-07
-3.4712736e-08
7.3833965e-07
-3.5327506e-08
7.743189e-07
-3.5979249e-08
8.1098848e-07
-3.6669582e-08
8.4838874e-07
-3.7400264e-08
8.8656196e-07
-3.8173218e-08
9.255525e-07
-3.8990542e-08
9.6540703e-07
-3.9854527e-08
1.0061747e-06
-4.0767684e-08
1.0479075e-06
-4.1732762e-08
1.0906603e-06
-4.2752776e-08
1.1344913e-06
-4.383104e-08
1.1794625e-06
-4.4971199e-08
1.2256398e-06
-4.6177275e-08
1.2730935e-06
-4.7453705e-08
1.3218989e-06
-4.8805399e-08
1.3721367e-06
-5.0237802e-08
1.4238936e-06
-5.1756958e-08
1.4772632e-06
-5.3369598e-08
1.5323464e-06
-5.5083208e-08
1.5892527e-06
-5.6906243e-08
1.6481005e-06
-5.8847788e-08
1.7090199e-06
-6.0919426e-08
1.772149e-06
-6.3129135e-08
1.8376515e-06
-6.5502455e-08
1.9056674e-06
-6.801594e-08
1.976461e-06
-7.0793625e-08
2.0500326e-06
-7.3571578e-08
2.1270671e-06
-7.7034441e-08
2.2068946e-06
-7.9827519e-08
2.2913344e-06
-8.4439857e-08
2.37885e-06
-8.7515604e-08
2.4707545e-06
-9.1904411e-08
2.5699408e-06
-9.9186309e-08
2.6683693e-06
-9.8428568e-08
2.7800882e-06
-1.1171889e-07
2.894002e-06
-1.1391374e-07
3.0104032e-06
-1.1640122e-07
3.1444613e-06
-1.3405808e-07
3.2819837e-06
-1.3752246e-07
3.420676e-06
-1.386923e-07
3.5759015e-06
-1.5522549e-07
3.7487746e-06
-1.7287312e-07
3.9278634e-06
-1.7908873e-07
4.1048601e-06
-1.7699673e-07
4.2857308e-06
-1.8087071e-07
4.4892199e-06
-2.0348904e-07
4.7230931e-06
-2.3387327e-07
4.9664256e-06
-2.4333246e-07
5.1753744e-06
-2.0894881e-07
5.3244117e-06
-1.4903729e-07
5.4353302e-06
-1.1091847e-07
5.5494237e-06
-1.140935e-07
5.6881278e-06
-1.3870414e-07
5.969556e-06
-2.8142819e-07
5.5433799e-06
4.2617603e-07
4.5120096e-06
1.0313703e-06
3.5096797e-06
1.0023299e-06
2.8324516e-06
6.772281e-07
2.4239384e-06
4.0851328e-07
2.1651683e-06
2.587701e-07
1.9844884e-06
1.8067987e-07
1.8469979e-06
1.3749051e-07
1.734764e-06
1.1223384e-07
1.6389414e-06
9.582268e-08
1.5548067e-06
8.4134704e-08
1.4795583e-06
7.524839e-08
1.4113867e-06
6.8171524e-08
1.3490394e-06
6.2347316e-08
1.291601e-06
5.74384e-08
1.2383749e-06
5.3226159e-08
1.1888141e-06
4.9560781e-08
1.1424792e-06
4.6334923e-08
1.0990102e-06
4.346897e-08
1.0581079e-06
4.0902249e-08
1.0195204e-06
3.858751e-08
9.8303313e-07
3.6487299e-08
9.4846164e-07
3.4571491e-08
9.1564609e-07
3.2815547e-08
8.8444684e-07
3.1199258e-08
8.5474102e-07
2.9705818e-08
8.2641989e-07
2.8321128e-08
7.9938663e-07
2.7033265e-08
7.7355455e-07
2.5832073e-08
7.4884571e-07
2.470884e-08
7.2518967e-07
2.3656047e-08
7.025225e-07
2.2667167e-08
6.80786e-07
2.1736505e-08
6.5992693e-07
2.0859064e-08
6.3989649e-07
2.0030444e-08
6.2064973e-07
1.9246756e-08
6.0214517e-07
1.8504562e-08
5.8434434e-07
1.7800835e-08
5.6721135e-07
1.7132989e-08
5.5071322e-07
1.6498129e-08
5.3481028e-07
1.5902935e-08
5.1953339e-07
1.5276898e-08
5.0474251e-07
1.4790879e-08
4.9046874e-07
1.4273767e-08
4.7671586e-07
1.3752879e-08
4.6344903e-07
1.326683e-08
4.5065188e-07
1.279715e-08
4.382905e-07
1.2361378e-08
4.2633902e-07
1.1951486e-08
4.1478342e-07
1.1555599e-08
4.0361117e-07
1.117225e-08
3.9281664e-07
1.0794527e-08
3.8233668e-07
1.0479964e-08
3.722103e-07
1.0126377e-08
3.6244836e-07
9.7619393e-09
3.5304792e-07
9.4004451e-09
3.437458e-07
9.3021156e-09
3.3484931e-07
8.8964911e-09
3.2624943e-07
8.5998773e-09
3.1789226e-07
8.3571759e-09
3.0985894e-07
8.0333127e-09
3.020764e-07
7.7825417e-09
2.9437046e-07
7.7059397e-09
2.8697708e-07
7.3933846e-09
2.7986289e-07
7.1141907e-09
2.7294002e-07
6.9228661e-09
2.6620366e-07
6.7363614e-09
2.596644e-07
6.5392544e-09
2.5327513e-07
6.3892745e-09
2.4709086e-07
6.1842684e-09
2.410992e-07
5.9916568e-09
2.3528184e-07
5.8173594e-09
2.2962918e-07
5.6526616e-09
2.2413595e-07
5.493238e-09
2.1877163e-07
5.3643129e-09
2.1356791e-07
5.2037241e-09
2.085126e-07
5.0553076e-09
2.035953e-07
4.9172954e-09
1.9880969e-07
4.7856122e-09
1.9415119e-07
4.658507e-09
1.8961545e-07
4.5357352e-09
1.8519739e-07
4.4180595e-09
1.8089001e-07
4.3073837e-09
1.7668548e-07
4.2045282e-09
1.7266144e-07
4.0240414e-09
1.6867814e-07
3.9832983e-09
1.6479474e-07
3.883402e-09
1.6101625e-07
3.7784871e-09
1.573167e-07
3.6995472e-09
1.5370535e-07
3.6113538e-09
1.5026081e-07
3.4445407e-09
1.4683703e-07
3.4237753e-09
1.4349381e-07
3.3432211e-09
1.4023302e-07
3.2607882e-09
1.3706666e-07
3.1663595e-09
1.33968e-07
3.0986664e-09
1.3094204e-07
3.0259549e-09
1.2798473e-07
2.9573171e-09
1.25094e-07
2.8907246e-09
1.2226875e-07
2.8252529e-09
1.1950725e-07
2.7615046e-09
1.1680752e-07
2.6997294e-09
1.1416755e-07
2.6399656e-09
1.1158538e-07
2.5821775e-09
1.0905906e-07
2.5263186e-09
1.065867e-07
2.4723529e-09
1.0416643e-07
2.4202789e-09
1.0179618e-07
2.3702427e-09
9.9473699e-08
2.3224858e-09
9.7198225e-08
2.2754739e-09
9.498738e-08
2.2108459e-09
9.2808761e-08
2.1786196e-09
9.0668109e-08
2.1406514e-09
8.8569293e-08
2.0988167e-09
8.651169e-08
2.0576031e-09
8.4493579e-08
2.0181113e-09
8.2513396e-08
1.9801826e-09
8.0570246e-08
1.9431502e-09
7.8662908e-08
1.9073381e-09
7.678962e-08
1.8732881e-09
7.4948329e-08
1.8412905e-09
7.3140074e-08
1.8082554e-09
7.1363445e-08
1.7766282e-09
6.9616555e-08
1.7468901e-09
6.789784e-08
1.7187149e-09
6.6207532e-08
1.6903069e-09
6.4556682e-08
1.6508498e-09
6.2922974e-08
1.6337079e-09
6.1311666e-08
1.6113078e-09
5.9725351e-08
1.5863145e-09
5.8163613e-08
1.5617376e-09
5.6625464e-08
1.5381484e-09
5.5109996e-08
1.5154673e-09
5.3616428e-08
1.4935683e-09
5.2144269e-08
1.4721585e-09
5.0692667e-08
1.4516019e-09
4.9254761e-08
1.4379058e-09
4.7840225e-08
1.4145349e-09
4.6436109e-08
1.4041165e-09
4.5055237e-08
1.380872e-09
4.3691186e-08
1.3640509e-09
4.2342484e-08
1.3487012e-09
4.1028012e-08
1.314472e-09
3.9712614e-08
1.3153986e-09
3.8401216e-08
1.3113973e-09
3.7114456e-08
1.28676e-09
3.5840594e-08
1.2738623e-09
3.4578844e-08
1.26175e-09
3.332922e-08
1.2496233e-09
3.2091386e-08
1.2378348e-09
3.086492e-08
1.2264656e-09
2.9649429e-08
1.2154909e-09
2.8444535e-08
1.2048941e-09
2.7249358e-08
1.1951772e-09
2.6060145e-08
1.189213e-09
2.4882987e-08
1.1771582e-09
2.3714733e-08
1.1682536e-09
2.2554205e-08
1.1605277e-09
2.1400963e-08
1.1532422e-09
2.0255379e-08
1.1455845e-09
1.9120181e-08
1.1351978e-09
1.7988519e-08
1.1316614e-09
1.6862735e-08
1.1257839e-09
1.5742915e-08
1.11982e-09
1.4622292e-08
1.1206239e-09
1.3512609e-08
1.1096825e-09
1.2407421e-08
1.1051878e-09
1.1305814e-08
1.1016072e-09
1.0208155e-08
1.0976589e-09
9.1129952e-09
1.09516e-09
8.0235845e-09
1.0894107e-09
6.9343698e-09
1.0892147e-09
5.8490114e-09
1.0853584e-09
4.7650835e-09
1.083928e-09
3.6814444e-09
1.0836391e-09
2.6038857e-09
1.0775587e-09
1.5405784e-09
1.0633073e-09
5.6735449e-10
9.7322395e-10
5.6735449e-10
2.8308803e-08
-5.5879443e-08
5.7888705e-08
-5.8073817e-08
8.7543103e-08
-5.8223573e-08
1.1725843e-07
-5.8364981e-08
1.4706348e-07
-5.8550478e-08
1.7698453e-07
-5.8781499e-08
2.0704564e-07
-5.9059228e-08
2.3727106e-07
-5.9384373e-08
2.6768535e-07
-5.9757612e-08
2.9831332e-07
-6.0179713e-08
3.291802e-07
-6.0651509e-08
3.6031162e-07
-6.1173911e-08
3.9173375e-07
-6.1747925e-08
4.234733e-07
-6.2374659e-08
4.5555758e-07
-6.3055338e-08
4.8801458e-07
-6.3791309e-08
5.2087306e-07
-6.4584049e-08
5.5416254e-07
-6.5435176e-08
5.8791348e-07
-6.6346459e-08
6.2215725e-07
-6.731983e-08
6.5692633e-07
-6.8357393e-08
6.9225432e-07
-6.9461444e-08
7.2817606e-07
-7.0634481e-08
7.6472778e-07
-7.1879224e-08
8.0194717e-07
-7.3198638e-08
8.3987353e-07
-7.4595948e-08
8.7854794e-07
-7.607467e-08
9.1801336e-07
-7.7638639e-08
9.5831485e-07
-7.9292037e-08
9.9949976e-07
-8.103943e-08
1.0416179e-06
-8.2885814e-08
1.0847218e-06
-8.4836652e-08
1.1288669e-06
-8.6897935e-08
1.1741121e-06
-8.9076235e-08
1.2205197e-06
-9.1378775e-08
1.2681559e-06
-9.3813509e-08
1.3170914e-06
-9.6389204e-08
1.3674016e-06
-9.9115546e-08
1.419167e-06
-1.0200325e-07
1.4724743e-06
-1.0506421e-07
1.5274163e-06
-1.083116e-07
1.5840932e-06
-1.1176012e-07
1.6426131e-06
-1.1542617e-07
1.7030933e-06
-1.1932792e-07
1.76566e-06
-1.2348616e-07
1.8304534e-06
-1.2792256e-07
1.8976179e-06
-1.3266696e-07
1.9673364e-06
-1.3773443e-07
2.0397414e-06
-1.4319857e-07
2.1151514e-06
-1.4898166e-07
2.1935262e-06
-1.5540922e-07
2.2756225e-06
-1.6192381e-07
2.360791e-06
-1.6960839e-07
2.4507981e-06
-1.7752263e-07
2.5436427e-06
-1.8474901e-07
2.6433569e-06
-1.9890053e-07
2.7450898e-06
-2.0016144e-07
2.8550879e-06
-2.2171705e-07
2.9705776e-06
-2.2940343e-07
3.0887716e-06
-2.3459522e-07
3.2206695e-06
-2.6595593e-07
3.3593035e-06
-2.7615651e-07
3.4965147e-06
-2.7590348e-07
3.6505205e-06
-3.0923128e-07
3.8268408e-06
-3.4919347e-07
4.0077821e-06
-3.6003003e-07
4.1776724e-06
-3.4688697e-07
4.3547964e-06
-3.5799476e-07
4.5790128e-06
-4.2770544e-07
4.8543644e-06
-5.0922481e-07
5.1325702e-06
-5.2153827e-07
5.3632282e-06
-4.3960686e-07
5.5340802e-06
-3.1988929e-07
5.6665027e-06
-2.4334098e-07
5.7775152e-06
-2.2510595e-07
5.9372162e-06
-2.9840511e-07
5.769866e-06
-1.1407802e-07
5.2246859e-06
9.7135613e-07
4.5580103e-06
1.6980459e-06
4.0271222e-06
1.533218e-06
3.6570803e-06
1.0472701e-06
3.3564186e-06
7.0917491e-07
3.1060984e-06
5.0909028e-07
2.894651e-06
3.9212736e-07
2.7129805e-06
3.1916095e-07
2.5552408e-06
2.6997354e-07
2.416637e-06
2.3442648e-07
2.2933982e-06
2.0737356e-07
2.1826208e-06
1.8602573e-07
2.0821036e-06
1.6868872e-07
1.9901686e-06
1.5428231e-07
1.9055199e-06
1.4208717e-07
1.8271403e-06
1.3160573e-07
1.7542187e-06
1.2248233e-07
1.6860981e-06
1.1445557e-07
1.6222384e-06
1.0732866e-07
1.5621903e-06
1.0095039e-07
1.5055752e-06
9.5202532e-08
1.4520714e-06
8.9991161e-08
1.4014022e-06
8.5240682e-08
1.3533282e-06
8.0889509e-08
1.3076406e-06
7.6886936e-08
1.2641556e-06
7.3190811e-08
1.2227109e-06
6.9765788e-08
1.1831622e-06
6.6581991e-08
1.1453803e-06
6.3613983e-08
1.1092491e-06
6.0839961e-08
1.0746641e-06
5.8241115e-08
1.0415301e-06
5.5801126e-08
1.0097609e-06
5.3505759e-08
9.792774e-07
5.1342527e-08
9.5000741e-07
4.9300429e-08
9.2188445e-07
4.7369717e-08
8.948473e-07
4.5541712e-08
8.6883952e-07
4.3808617e-08
8.4380942e-07
4.2163086e-08
8.1971002e-07
4.0597528e-08
7.9650167e-07
3.9111289e-08
7.7417942e-07
3.7599143e-08
7.5248233e-07
3.6487973e-08
7.3164119e-07
3.511491e-08
7.1154459e-07
3.3849479e-08
6.9214807e-07
3.2663344e-08
6.7344284e-07
3.1502378e-08
6.5537193e-07
3.0432293e-08
6.3789373e-07
2.9429689e-08
6.2099049e-07
2.8458839e-08
6.0464757e-07
2.751517e-08
5.8888728e-07
2.6554813e-08
5.7347867e-07
2.5888573e-08
5.5862084e-07
2.4984208e-08
5.4429941e-07
2.4083372e-08
5.3035999e-07
2.333986e-08
5.1703757e-07
2.262454e-08
5.0400639e-07
2.1927672e-08
4.9133474e-07
2.1271527e-08
4.7902318e-07
2.0668732e-08
4.6723117e-07
1.9825323e-08
4.5567162e-07
1.9342098e-08
4.4458814e-07
1.8789412e-08
4.3370953e-07
1.8271996e-08
4.2325624e-07
1.756748e-08
4.1303083e-07
1.7148274e-08
4.0310144e-07
1.6665756e-08
3.9348866e-07
1.6152033e-08
3.8403648e-07
1.5841459e-08
3.7491999e-07
1.5300756e-08
3.6609183e-07
1.4819819e-08
3.5751425e-07
1.4394937e-08
3.4917686e-07
1.3990052e-08
3.4108081e-07
1.3589286e-08
3.3311975e-07
1.3325373e-08
3.2542328e-07
1.2900191e-08
3.1794892e-07
1.2529674e-08
3.106723e-07
1.2193912e-08
3.0358504e-07
1.1872874e-08
2.9668201e-07
1.1561534e-08
2.8995877e-07
1.1258978e-08
2.834117e-07
1.0965131e-08
2.7703899e-07
1.0680094e-08
2.7083603e-07
1.0407486e-08
2.6469975e-07
1.0160316e-08
2.5878396e-07
9.8990954e-09
2.530265e-07
9.6408557e-09
2.4740574e-07
9.3992518e-09
2.4192787e-07
9.1774183e-09
2.3659007e-07
8.9491495e-09
2.313006e-07
8.7340152e-09
2.2619618e-07
8.5281908e-09
2.2120116e-07
8.3382436e-09
2.1632051e-07
8.1414404e-09
2.1161327e-07
7.8736007e-09
2.0696536e-07
7.7465758e-09
2.0242074e-07
7.5705771e-09
1.9797508e-07
7.4029735e-09
1.9362557e-07
7.2402417e-09
1.8937147e-07
7.0793497e-09
1.8521035e-07
6.9226235e-09
1.8113909e-07
6.7709911e-09
1.7715459e-07
6.6244685e-09
1.7325388e-07
6.4828897e-09
1.6943408e-07
6.3461143e-09
1.6569235e-07
6.2140905e-09
1.620257e-07
6.0869244e-09
1.5843086e-07
5.9650878e-09
1.549044e-07
5.8489427e-09
1.5144765e-07
5.7322244e-09
1.4809846e-07
5.5600401e-09
1.4477942e-07
5.4976525e-09
1.4151706e-07
5.4030123e-09
1.3831659e-07
5.2992923e-09
1.351763e-07
5.1978911e-09
1.3209349e-07
5.1009269e-09
1.290657e-07
5.0079699e-09
1.2609209e-07
4.9167615e-09
1.2317089e-07
4.8285348e-09
1.2029894e-07
4.7452348e-09
1.1747216e-07
4.6680777e-09
1.1469424e-07
4.5861745e-09
1.1196258e-07
4.5082872e-09
1.0927368e-07
4.4357873e-09
1.0662518e-07
4.3672103e-09
1.0401879e-07
4.2967018e-09
1.0147852e-07
4.191114e-09
9.8952985e-08
4.1592447e-09
9.6460851e-08
4.1034409e-09
9.4005788e-08
4.0413762e-09
9.1586865e-08
3.9806602e-09
8.9202659e-08
3.9223532e-09
8.6851911e-08
3.8662155e-09
8.4533427e-08
3.8120517e-09
8.2246357e-08
3.7592275e-09
7.9988133e-08
3.709826e-09
7.7748023e-08
3.6780152e-09
7.5544628e-08
3.6179293e-09
7.3355211e-08
3.593533e-09
7.1203479e-08
3.5326045e-09
6.907898e-08
3.4885494e-09
6.6976147e-08
3.4515335e-09
6.4875435e-08
3.415184e-09
6.2813645e-08
3.3771892e-09
6.0806676e-08
3.3183659e-09
5.8788104e-08
3.305332e-09
5.6784576e-08
3.2773903e-09
5.4801163e-08
3.245163e-09
5.2837154e-08
3.213632e-09
5.0891305e-08
3.183684e-09
4.8962593e-08
3.1551779e-09
4.705022e-08
3.1278634e-09
4.5153477e-08
3.1016376e-09
4.327043e-08
3.0782244e-09
4.1395378e-08
3.0642644e-09
3.9538828e-08
3.033708e-09
3.7695698e-08
3.0113841e-09
3.5863798e-08
2.9924276e-09
3.4042413e-08
2.9746267e-09
3.2232167e-08
2.9558311e-09
3.0439079e-08
2.9282858e-09
2.8648025e-08
2.9227154e-09
2.6864415e-08
2.9093937e-09
2.5089796e-08
2.8944392e-09
2.3330099e-08
2.8803205e-09
2.157125e-08
2.868532e-09
1.981874e-08
2.8576971e-09
1.8073069e-08
2.8472783e-09
1.633329e-08
2.8374379e-09
1.4598475e-08
2.829975e-09
1.2864348e-08
2.8235377e-09
1.1137955e-08
2.8156081e-09
9.417471e-09
2.8058421e-09
7.6972023e-09
2.8041966e-09
5.9788152e-09
2.8020262e-09
4.2626676e-09
2.7937063e-09
2.5625045e-09
2.7634704e-09
9.762561e-10
2.5594723e-09
1.5436106e-09
2.8280262e-08
-8.4159705e-08
5.7800994e-08
-8.7594549e-08
8.7400426e-08
-8.7823005e-08
1.1706681e-07
-8.8031366e-08
1.4682373e-07
-8.83074e-08
1.7669576e-07
-8.865353e-08
2.0670699e-07
-8.9070455e-08
2.3688159e-07
-8.9558975e-08
2.6724399e-07
-9.0120009e-08
2.978189e-07
-9.0754621e-08
3.286314e-07
-9.1464013e-08
3.5970701e-07
-9.2249523e-08
3.9107173e-07
-9.3112643e-08
4.227521e-07
-9.4055027e-08
4.5477526e-07
-9.5078498e-08
4.8716902e-07
-9.6185067e-08
5.1996191e-07
-9.7376939e-08
5.5318326e-07
-9.8656528e-08
5.8686328e-07
-1.0002647e-07
6.210331e-07
-1.0148966e-07
6.5572493e-07
-1.0304922e-07
6.9097207e-07
-1.0470858e-07
7.2680906e-07
-1.0647147e-07
7.6327177e-07
-1.0834194e-07
8.0039753e-07
-1.1032439e-07
8.3822522e-07
-1.1242364e-07
8.7679548e-07
-1.1464492e-07
9.1615077e-07
-1.1699394e-07
9.5633563e-07
-1.194769e-07
9.973968e-07
-1.2210059e-07
1.0393834e-06
-1.2487244e-07
1.0823473e-06
-1.2780055e-07
1.1263432e-06
-1.3089381e-07
1.1714289e-06
-1.3416196e-07
1.2176658e-06
-1.376157e-07
1.2651191e-06
-1.4126679e-07
1.3138581e-06
-1.451282e-07
1.3639568e-06
-1.4921425e-07
1.4154943e-06
-1.5354074e-07
1.4685553e-06
-1.5812521e-07
1.5232308e-06
-1.6298709e-07
1.5796187e-06
-1.6814799e-07
1.6378245e-06
-1.7363198e-07
1.6979625e-06
-1.7946594e-07
1.7601561e-06
-1.8567977e-07
1.8245411e-06
-1.9230754e-07
1.8912595e-06
-1.9938539e-07
1.9604853e-06
-2.0696022e-07
2.0323536e-06
-2.1506686e-07
2.1071641e-06
-2.2379214e-07
2.1848678e-06
-2.3311294e-07
2.266257e-06
-2.4331305e-07
2.350557e-06
-2.5390838e-07
2.4395816e-06
-2.6654717e-07
2.5320871e-06
-2.7725453e-07
2.6287763e-06
-2.9558973e-07
2.7323555e-06
-3.0374061e-07
2.838352e-06
-3.2771358e-07
2.9513162e-06
-3.4236765e-07
3.074292e-06
-3.5757103e-07
3.1975031e-06
-3.8916696e-07
3.3319101e-06
-4.1056352e-07
3.4769853e-06
-4.2097875e-07
3.6325061e-06
-4.6475205e-07
3.7914201e-06
-5.0810748e-07
3.9621558e-06
-5.3076573e-07
4.1527005e-06
-5.3743166e-07
4.3607239e-06
-5.6601812e-07
4.585718e-06
-6.5269959e-07
4.8302655e-06
-7.5377232e-07
5.0852237e-06
-7.7649644e-07
5.3311816e-06
-6.855648e-07
5.5482652e-06
-5.3697283e-07
5.7198724e-06
-4.1494823e-07
5.8692188e-06
-3.7445237e-07
5.7614763e-06
-1.9066253e-07
5.2076567e-06
4.3974153e-07
4.5513434e-06
1.6276695e-06
4.2413575e-06
2.0080317e-06
4.0078882e-06
1.7666873e-06
3.7659081e-06
1.2892502e-06
3.5124111e-06
9.6267184e-07
3.2718993e-06
7.4960208e-07
3.0568803e-06
6.0714637e-07
2.8685998e-06
5.0744147e-07
2.7037235e-06
4.348498e-07
2.558086e-06
3.80064e-07
2.4280869e-06
3.3737266e-07
2.3109221e-06
3.0319054e-07
2.2044276e-06
2.7518324e-07
2.1069258e-06
2.5178415e-07
2.0171014e-06
2.3191153e-07
1.9339095e-06
2.1479767e-07
1.8565079e-06
1.9988389e-07
1.7842092e-06
1.8675424e-07
1.7164451e-06
1.7509277e-07
1.6527404e-06
1.6465513e-07
1.5926936e-06
1.5524935e-07
1.5359623e-06
1.4672248e-07
1.4822519e-06
1.3895108e-07
1.4313069e-06
1.3183443e-07
1.3829044e-06
1.2528951e-07
1.336848e-06
1.1924722e-07
1.2929642e-06
1.1364958e-07
1.2510986e-06
1.0844758e-07
1.2111131e-06
1.0359946e-07
1.1728837e-06
9.9069412e-08
1.1362982e-06
9.4826548e-08
1.1012553e-06
9.0844068e-08
1.0676625e-06
8.7098586e-08
1.0354354e-06
8.3569595e-08
1.0044968e-06
8.0239025e-08
9.7477564e-07
7.7090866e-08
9.4620643e-07
7.4110928e-08
9.1872863e-07
7.1286419e-08
8.9228493e-07
6.8606779e-08
8.6682022e-07
6.6062242e-08
8.4228238e-07
6.3649128e-08
8.1845189e-07
6.1429638e-08
7.9589734e-07
5.9042521e-08
7.7396112e-07
5.7051128e-08
7.5272637e-07
5.5084236e-08
7.3219795e-07
5.3191757e-08
7.1244908e-07
5.125125e-08
6.9336696e-07
4.9514408e-08
6.7490556e-07
4.7891093e-08
6.570484e-07
4.6315999e-08
6.3977247e-07
4.4791102e-08
6.2300235e-07
4.3324936e-08
6.0695826e-07
4.1932664e-08
5.9129806e-07
4.0644403e-08
5.7623213e-07
3.9149305e-08
5.6151873e-07
3.8053257e-08
5.4741283e-07
3.6730441e-08
5.3366e-07
3.5680506e-08
5.2032295e-07
3.4608577e-08
5.0743959e-07
3.3552084e-08
4.9479266e-07
3.2472252e-08
4.8258738e-07
3.1547385e-08
4.7092343e-07
3.0453359e-08
4.595692e-07
2.9626232e-08
4.4834369e-07
2.8792986e-08
4.3753455e-07
2.7957415e-08
4.2706972e-07
2.7130578e-08
4.1690982e-07
2.6311941e-08
4.0705312e-07
2.5698154e-08
3.9747282e-07
2.4881057e-08
3.8814268e-07
2.4149957e-08
3.7906453e-07
2.3473087e-08
3.7022983e-07
2.2824753e-08
3.6162053e-07
2.2198588e-08
3.5335265e-07
2.159325e-08
3.4524499e-07
2.1007851e-08
3.3733274e-07
2.0441924e-08
3.2963119e-07
1.9895465e-08
3.2213644e-07
1.936762e-08
3.1484077e-07
1.8857202e-08
3.0773677e-07
1.8362979e-08
3.0081893e-07
1.7882974e-08
2.9408493e-07
1.7414097e-08
2.8753282e-07
1.6959588e-08
2.8105907e-07
1.6634071e-08
2.748053e-07
1.6152864e-08
2.6872132e-07
1.5724839e-08
2.6278441e-07
1.5336157e-08
2.5698542e-07
1.4976408e-08
2.5134079e-07
1.4593779e-08
2.4577388e-07
1.4300928e-08
2.4039613e-07
1.3905938e-08
2.3510306e-07
1.3631318e-08
2.2997317e-07
1.3271328e-08
2.2488529e-07
1.2961482e-08
2.1996494e-07
1.266693e-08
2.1518274e-07
1.2352775e-08
2.1049229e-07
1.2093429e-08
2.0589443e-07
1.1838095e-08
2.0139347e-07
1.1580315e-08
1.9698925e-07
1.1326846e-08
1.9267916e-07
1.1081082e-08
1.8846018e-07
1.084344e-08
1.8432936e-07
1.061371e-08
1.8028388e-07
1.03916e-08
1.7632112e-07
1.0176846e-08
1.7243883e-07
9.9692157e-09
1.6863548e-07
9.7684426e-09
1.6491105e-07
9.5733711e-09
1.6126263e-07
9.380642e-09
1.5764269e-07
9.1799876e-09
1.5412481e-07
9.0155275e-09
1.5067682e-07
8.8510009e-09
1.4728999e-07
8.6861301e-09
1.4396287e-07
8.5250096e-09
1.4069382e-07
8.3699722e-09
1.3748081e-07
8.2209874e-09
1.3432519e-07
8.0723814e-09
1.312255e-07
7.9282206e-09
1.2817768e-07
7.7930558e-09
1.2517362e-07
7.6721359e-09
1.2222476e-07
7.535037e-09
1.1932614e-07
7.4069087e-09
1.1647448e-07
7.2874433e-09
1.1366948e-07
7.1722142e-09
1.1090872e-07
7.0574547e-09
1.0816232e-07
6.9375197e-09
1.0547966e-07
6.8419049e-09
1.0283823e-07
6.7448669e-09
1.0023268e-07
6.646927e-09
9.766252e-08
6.5508165e-09
9.5127213e-08
6.4576601e-09
9.2625646e-08
6.3677814e-09
9.0155338e-08
6.2823597e-09
8.7713123e-08
6.2014423e-09
8.5299866e-08
6.1230822e-09
8.2947704e-08
6.0301765e-09
8.059549e-08
5.9701435e-09
7.8285439e-08
5.9035836e-09
7.5990119e-08
5.8279245e-09
7.3721498e-08
5.7571701e-09
7.148068e-08
5.6923518e-09
6.9250289e-08
5.6455741e-09
6.705757e-08
5.5699081e-09
6.4885793e-08
5.4901433e-09
6.2737032e-08
5.4540928e-09
6.0607154e-08
5.4072685e-09
5.8496553e-08
5.3557637e-09
5.6404757e-08
5.3054284e-09
5.4331025e-08
5.2574153e-09
5.2274463e-08
5.2117404e-09
5.0233909e-08
5.1684172e-09
4.8207714e-08
5.1278328e-09
4.6196682e-08
5.0892556e-09
4.4216366e-08
5.0445806e-09
4.2234789e-08
5.0152848e-09
4.0265642e-08
4.9805318e-09
3.8310824e-08
4.9472448e-09
3.636932e-08
4.9161311e-09
3.4439482e-08
4.885669e-09
3.2512917e-08
4.8548512e-09
3.0603087e-08
4.8325451e-09
2.8702461e-08
4.8100197e-09
2.6810314e-08
4.7865858e-09
2.4930777e-08
4.7598579e-09
2.3054081e-08
4.7452283e-09
2.118378e-08
4.7279977e-09
1.9320598e-08
4.7104608e-09
1.7464697e-08
4.6933389e-09
1.561316e-08
4.6815117e-09
1.3763278e-08
4.6734199e-09
1.1920448e-08
4.6584374e-09
1.007925e-08
4.6470404e-09
8.2431003e-09
4.6403465e-09
6.4118792e-09
4.6332473e-09
4.5814169e-09
4.6241685e-09
2.767805e-09
4.5770823e-09
1.0667142e-09
4.2605631e-09
2.6103248e-09
2.8219022e-08
-1.1237873e-07
5.7667645e-08
-1.1704317e-07
8.7195043e-08
-1.173504e-07
1.1679086e-07
-1.1762718e-07
1.4647745e-07
-1.1799399e-07
1.762786e-07
-1.1845469e-07
2.0621819e-07
-1.1901004e-07
2.3632024e-07
-1.1966102e-07
2.6660903e-07
-1.2040879e-07
2.9710912e-07
-1.2125472e-07
3.2784548e-07
-1.2220037e-07
3.5884345e-07
-1.232475e-07
3.9012888e-07
-1.2439807e-07
4.2172814e-07
-1.2565428e-07
4.5366819e-07
-1.2701854e-07
4.8597663e-07
-1.2849351e-07
5.186818e-07
-1.3008211e-07
5.5181279e-07
-1.3178752e-07
5.8539958e-07
-1.3361326e-07
6.1947305e-07
-1.3556313e-07
6.540651e-07
-1.3764128e-07
6.8920876e-07
-1.3985224e-07
7.2493822e-07
-1.4220093e-07
7.6128901e-07
-1.4469272e-07
7.9829805e-07
-1.4733343e-07
8.3600382e-07
-1.5012942e-07
8.7444647e-07
-1.5308758e-07
9.1366797e-07
-1.5621544e-07
9.5371228e-07
-1.595212e-07
9.9462551e-07
-1.6301382e-07
1.0364561e-06
-1.6670306e-07
1.0792552e-06
-1.7059961e-07
1.1230765e-06
-1.7471515e-07
1.1679771e-06
-1.790625e-07
1.2140171e-06
-1.8365573e-07
1.2612606e-06
-1.8851028e-07
1.3097756e-06
-1.9364319e-07
1.3596345e-06
-1.990732e-07
1.4109148e-06
-2.0482106e-07
1.4636993e-06
-2.1090971e-07
1.5180768e-06
-2.1736457e-07
1.5741427e-06
-2.2421391e-07
1.6319999e-06
-2.3148913e-07
1.6917594e-06
-2.3922541e-07
1.7535411e-06
-2.4746147e-07
1.8174762e-06
-2.5624264e-07
1.883704e-06
-2.6561323e-07
1.952387e-06
-2.7564322e-07
2.0236733e-06
-2.8635317e-07
2.0978033e-06
-2.9792207e-07
2.174856e-06
-3.1016571e-07
2.2553059e-06
-3.2376295e-07
2.3389759e-06
-3.375783e-07
2.4266316e-06
-3.5420294e-07
2.5184407e-06
-3.6906358e-07
2.6136118e-06
-3.9076087e-07
2.7157017e-06
-4.0583051e-07
2.8208738e-06
-4.3288566e-07
2.9308559e-06
-4.5234971e-07
3.0531854e-06
-4.7990055e-07
3.1740593e-06
-5.1004088e-07
3.30478e-06
-5.4128425e-07
3.4498711e-06
-5.6606985e-07
3.6018703e-06
-6.1675122e-07
3.7576272e-06
-6.6386445e-07
3.9235426e-06
-6.9668107e-07
4.1163167e-06
-7.3020579e-07
4.3385313e-06
-7.8823273e-07
4.5739726e-06
-8.8814082e-07
4.81446e-06
-9.9425971e-07
5.0671116e-06
-1.0291481e-06
5.3364802e-06
-9.5493335e-07
5.5946171e-06
-7.9510976e-07
5.8369529e-06
-6.5728407e-07
5.7328355e-06
-2.703349e-07
5.2324831e-06
3.0968981e-07
4.322115e-06
1.3501097e-06
3.8933003e-06
2.0564841e-06
3.7918712e-06
2.1094609e-06
3.7178389e-06
1.8407196e-06
3.569008e-06
1.4380811e-06
3.3805512e-06
1.1511286e-06
3.1868968e-06
9.4325647e-07
3.0041198e-06
7.8992337e-07
2.8367962e-06
6.7476507e-07
2.6851889e-06
5.864571e-07
2.5479884e-06
5.1726447e-07
2.4234632e-06
4.6189786e-07
2.3099252e-06
4.1672858e-07
2.2058795e-06
3.7922899e-07
2.110055e-06
3.4760857e-07
2.0213896e-06
3.2057695e-07
1.9389996e-06
2.9718771e-07
1.8621489e-06
2.7673458e-07
1.7902214e-06
2.5868171e-07
1.7226981e-06
2.4261611e-07
1.6591383e-06
2.2821489e-07
1.5991655e-06
2.1522215e-07
1.5424554e-06
2.0343263e-07
1.4887266e-06
1.9267982e-07
1.4377338e-06
1.8282724e-07
1.3892613e-06
1.7376198e-07
1.3431187e-06
1.6538981e-07
1.2991368e-06
1.5763147e-07
1.2571646e-06
1.504198e-07
1.2170666e-06
1.4369747e-07
1.1787207e-06
1.3741528e-07
1.1420166e-06
1.3153071e-07
1.1068538e-06
1.2600683e-07
1.073141e-06
1.2081136e-07
1.0407946e-06
1.1591602e-07
1.0097378e-06
1.1129582e-07
9.7990005e-07
1.0692865e-07
9.5121609e-07
1.0279489e-07
9.236255e-07
9.8877008e-08
8.9707253e-07
9.5159756e-08
8.7150599e-07
9.1628773e-08
8.4688043e-07
8.827469e-08
8.2323548e-07
8.5074593e-08
8.0023637e-07
8.2041626e-08
7.7812639e-07
7.9161107e-08
7.5681818e-07
7.6392446e-08
7.3617166e-07
7.3838275e-08
7.1643205e-07
7.0990867e-08
6.9728882e-07
6.8657636e-08
6.7873989e-07
6.6440023e-08
6.6079678e-07
6.4259109e-08
6.4343977e-07
6.2148108e-08
6.2659326e-07
6.0171449e-08
6.1051595e-07
5.8009974e-08
5.9492866e-07
5.6231692e-08
5.7960912e-07
5.4468847e-08
5.6490322e-07
5.2759154e-08
5.5054127e-07
5.1092395e-08
5.3671953e-07
4.9502242e-08
5.2335538e-07
4.797273e-08
5.1040284e-07
4.6504623e-08
4.9780139e-07
4.5073704e-08
4.8559504e-07
4.375373e-08
4.7376674e-07
4.2281659e-08
4.6230776e-07
4.108521e-08
4.5105141e-07
4.0049338e-08
4.4019449e-07
3.8814335e-08
4.2966197e-07
3.7663096e-08
4.193756e-07
3.6598317e-08
4.0964243e-07
3.5431317e-08
4.0002362e-07
3.4499873e-08
3.906223e-07
3.3551273e-08
3.8147967e-07
3.2615717e-08
3.7258854e-07
3.1715885e-08
3.6392766e-07
3.0859469e-08
3.5562049e-07
2.9900422e-08
3.4746901e-07
2.9159331e-08
3.3951409e-07
2.8396842e-08
3.3177108e-07
2.7638473e-08
3.2423565e-07
2.6903049e-08
3.1689956e-07
2.6193294e-08
3.0975422e-07
2.5508318e-08
3.0279146e-07
2.4845736e-08
2.9600474e-07
2.4200822e-08
2.8939131e-07
2.3573011e-08
2.8295858e-07
2.3066805e-08
2.766806e-07
2.2430847e-08
2.7055058e-07
2.1854859e-08
2.6457703e-07
2.1309699e-08
2.5869325e-07
2.0860191e-08
2.529767e-07
2.031033e-08
2.4745797e-07
1.9819659e-08
2.4200412e-07
1.935979e-08
2.3679376e-07
1.884168e-08
2.3161648e-07
1.8448609e-08
2.264785e-07
1.8099455e-08
2.2150181e-07
1.7643624e-08
2.1670663e-07
1.7147952e-08
2.1197954e-07
1.6820521e-08
2.0734717e-07
1.6470465e-08
2.0281686e-07
1.6110627e-08
1.9838562e-07
1.5758083e-08
1.9404965e-07
1.5417054e-08
1.898054e-07
1.5087696e-08
1.856497e-07
1.4769406e-08
1.8157971e-07
1.4461592e-08
1.7759279e-07
1.4163763e-08
1.7368654e-07
1.3875472e-08
1.6985875e-07
1.3596234e-08
1.6610672e-07
1.3325396e-08
1.6242599e-07
1.3061377e-08
1.5880517e-07
1.28008e-08
1.5526121e-07
1.2559496e-08
1.5178719e-07
1.2325018e-08
1.4837763e-07
1.2095695e-08
1.4502919e-07
1.1873443e-08
1.4173879e-07
1.1660372e-08
1.3850221e-07
1.1457574e-08
1.3532496e-07
1.1249624e-08
1.3220679e-07
1.1046399e-08
1.2914521e-07
1.0854634e-08
1.2611085e-07
1.0706494e-08
1.231459e-07
1.0499985e-08
1.202294e-07
1.0323408e-08
1.1735772e-07
1.0159129e-08
1.1453039e-07
9.9995375e-09
1.1174469e-07
9.8431594e-09
1.0899365e-07
9.6885599e-09
1.0628922e-07
9.5463345e-09
1.0362637e-07
9.4077112e-09
1.0100153e-07
9.2717694e-09
9.8412998e-08
9.1393456e-09
9.5860136e-08
9.0105222e-09
9.3342423e-08
8.8854939e-09
9.0857741e-08
8.7670412e-09
8.8406033e-08
8.6531497e-09
8.5985419e-08
8.5436953e-09
8.3575395e-08
8.4402001e-09
8.1211364e-08
8.3341744e-09
7.8886485e-08
8.2284621e-09
7.6579026e-08
8.1353838e-09
7.4290734e-08
8.0454616e-09
7.2026545e-08
7.9565411e-09
6.9815622e-08
7.8564967e-09
6.7602487e-08
7.7830432e-09
6.5398497e-08
7.694133e-09
6.3229198e-08
7.6233913e-09
6.1084031e-08
7.5524364e-09
5.8958498e-08
7.4812957e-09
5.6851551e-08
7.4123756e-09
5.4762604e-08
7.3463623e-09
5.2691098e-08
7.2832469e-09
5.0636528e-08
7.2229872e-09
4.8598741e-08
7.1656196e-09
4.6576692e-08
7.1113044e-09
4.4560885e-08
7.0603873e-09
4.2566892e-08
7.0092784e-09
4.0586406e-08
6.9610176e-09
3.861803e-08
6.9156208e-09
3.6661471e-08
6.8726903e-09
3.4715442e-08
6.8316978e-09
3.2777747e-08
6.7925462e-09
3.0852402e-08
6.7578897e-09
2.8937486e-08
6.7249352e-09
2.7031377e-08
6.692695e-09
2.5130384e-08
6.6608515e-09
2.3239607e-08
6.6360046e-09
2.1355641e-08
6.6119639e-09
1.9477503e-08
6.588599e-09
1.7606437e-08
6.5644052e-09
1.5739502e-08
6.5484465e-09
1.3879168e-08
6.5337534e-09
1.202148e-08
6.5161261e-09
1.0166179e-08
6.502341e-09
8.3149402e-09
6.4915854e-09
6.4669013e-09
6.4812862e-09
4.6220443e-09
6.4690255e-09
2.7935683e-09
6.4055584e-09
1.0795367e-09
5.9745947e-09
3.6898615e-09
2.8133424e-08
-1.4051215e-07
5.748871e-08
-1.4639846e-07
8.6922109e-08
-1.467838e-07
1.1642407e-07
-1.4712914e-07
1.4601659e-07
-1.4758651e-07
1.7572301e-07
-1.4816111e-07
2.0556692e-07
-1.4885395e-07
2.3557212e-07
-1.4966623e-07
2.6576269e-07
-1.5059937e-07
2.9616302e-07
-1.5165504e-07
3.2679783e-07
-1.5283518e-07
3.576923e-07
-1.5414196e-07
3.8887203e-07