/*--------------------------------*- C++ -*----------------------------------*\
| =========                 |                                                 |
| \\      /  F ield         | OpenFOAM: The Open Source CFD Toolbox           |
|  \\    /   O peration     | Version:  2106                                  |
|   \\  /    A nd           | Website:  www.openfoam.com                      |
|    \\/     M anipulation  |                                                 |
\*---------------------------------------------------------------------------*/
FoamFile
{
    version     2.0;
    format      ascii;
    arch        "LSB;label=32;scalar=64";
    class       volVectorField;
    location    "0.003";
    object      U_0;
}
// * * * * * * * * * * * * * * * * * * * * * * * * * * * * * * * * * * * * * //

dimensions      [0 1 -1 0 0 0 0];

internalField   nonuniform List<vector> 
4096
(
(-0.028524162 0.028398209 0)
(-0.085296882 0.028123842 0)
(-0.14124548 0.027577789 0)
(-0.19582951 0.026765386 0)
(-0.24852183 0.025694565 0)
(-0.29881379 0.024375778 0)
(-0.34622016 0.022821884 0)
(-0.39028384 0.021048024 0)
(-0.43058029 0.019071458 0)
(-0.46672161 0.016911401 0)
(-0.49836029 0.014588821 0)
(-0.52519249 0.012126238 0)
(-0.54696079 0.0095474789 0)
(-0.56345646 0.006877254 0)
(-0.57452602 0.0041402884 0)
(-0.58005191 0.0013678602 0)
(-0.58000074 -0.0014196054 0)
(-0.57436247 -0.0041922328 0)
(-0.56319606 -0.0069238085 0)
(-0.54661024 -0.0095880993 0)
(-0.52476573 -0.012159557 0)
(-0.49787373 -0.014613543 0)
(-0.46619387 -0.016926554 0)
(-0.43003159 -0.019076445 0)
(-0.38973523 -0.021042641 0)
(-0.34569269 -0.022806329 0)
(-0.29832771 -0.024350638 0)
(-0.2480958 -0.0256608 0)
(-0.1954799 -0.026724285 0)
(-0.14098571 -0.027530925 0)
(-0.085136917 -0.028073008 0)
(-0.028470149 -0.028345351 0)
(0.028470148 -0.028345351 0)
(0.085136915 -0.028073008 0)
(0.14098571 -0.027530925 0)
(0.19547989 -0.026724285 0)
(0.2480958 -0.0256608 0)
(0.29832771 -0.024350638 0)
(0.34569269 -0.022806329 0)
(0.38973523 -0.021042641 0)
(0.43003159 -0.019076445 0)
(0.46619387 -0.016926554 0)
(0.49787373 -0.014613543 0)
(0.52476572 -0.012159557 0)
(0.54661024 -0.0095880993 0)
(0.56319606 -0.0069238085 0)
(0.57436247 -0.0041922329 0)
(0.58000074 -0.0014196055 0)
(0.58005191 0.0013678601 0)
(0.57452602 0.0041402883 0)
(0.56345646 0.006877254 0)
(0.54696079 0.0095474788 0)
(0.52519249 0.012126238 0)
(0.49836029 0.014588821 0)
(0.46672162 0.016911401 0)
(0.43058029 0.019071458 0)
(0.39028384 0.021048024 0)
(0.34622016 0.022821884 0)
(0.29881379 0.024375778 0)
(0.24852183 0.025694565 0)
(0.19582951 0.026765386 0)
(0.14124548 0.027577789 0)
(0.085296883 0.028123842 0)
(0.028524163 0.028398209 0)
(-0.028904667 0.085487683 0)
(-0.086434667 0.084661709 0)
(-0.1431294 0.083017837 0)
(-0.19844109 0.080572129 0)
(-0.2518355 0.077348475 0)
(-0.30279714 0.073378343 0)
(-0.35083425 0.068700455 0)
(-0.39548362 0.063360393 0)
(-0.43631507 0.057410135 0)
(-0.47293555 0.050907523 0)
(-0.50499296 0.043915687 0)
(-0.53217948 0.036502414 0)
(-0.55423438 0.028739456 0)
(-0.57094656 0.020701658 0)
(-0.58215789 0.012465853 0)
(-0.58775975 0.0041136702 0)
(-0.58770249 -0.0042750395 0)
(-0.58198654 -0.012621001 0)
(-0.57066923 -0.020843567 0)
(-0.55386088 -0.02886363 0)
(-0.53172441 -0.036604245 0)
(-0.50447392 -0.043991233 0)
(-0.47237246 -0.050953842 0)
(-0.43572956 -0.057425414 0)
(-0.39489818 -0.063344017 0)
(-0.35027135 -0.068653027 0)
(-0.3022784 -0.073301663 0)
(-0.25138085 -0.077245469 0)
(-0.19806798 -0.080446734 0)
(-0.14285216 -0.082874852 0)
(-0.086263952 -0.084506608 0)
(-0.028847025 -0.085326405 0)
(0.028847024 -0.085326405 0)
(0.086263951 -0.084506608 0)
(0.14285216 -0.082874852 0)
(0.19806798 -0.080446734 0)
(0.25138085 -0.077245469 0)
(0.3022784 -0.073301663 0)
(0.35027135 -0.068653027 0)
(0.39489818 -0.063344017 0)
(0.43572956 -0.057425414 0)
(0.47237246 -0.050953842 0)
(0.50447392 -0.043991233 0)
(0.53172441 -0.036604245 0)
(0.55386088 -0.02886363 0)
(0.57066923 -0.020843567 0)
(0.58198654 -0.012621001 0)
(0.58770249 -0.0042750397 0)
(0.58775975 0.00411367 0)
(0.58215789 0.012465852 0)
(0.57094656 0.020701657 0)
(0.55423438 0.028739456 0)
(0.53217948 0.036502414 0)
(0.50499297 0.043915687 0)
(0.47293555 0.050907522 0)
(0.43631507 0.057410134 0)
(0.39548363 0.063360393 0)
(0.35083425 0.068700455 0)
(0.30279714 0.073378343 0)
(0.2518355 0.077348475 0)
(0.19844109 0.080572129 0)
(0.1431294 0.083017837 0)
(0.086434669 0.084661709 0)
(0.028904668 0.085487683 0)
(-0.029536414 0.1436617 0)
(-0.088323714 0.14227349 0)
(-0.14625722 0.13951064 0)
(-0.20277705 0.13540017 0)
(-0.25733714 0.12998225 0)
(-0.30941063 0.1233098 0)
(-0.35849495 0.11544793 0)
(-0.40411675 0.10647327 0)
(-0.44583646 0.096473211 0)
(-0.48325251 0.085545003 0)
(-0.51600522 0.073794761 0)
(-0.54378016 0.061336415 0)
(-0.56631117 0.048290555 0)
(-0.58338287 0.03478317 0)
(-0.59483313 0.020944444 0)
(-0.60055304 0.0069089798 0)
(-0.6004895 -0.0071884924 0)
(-0.59464476 -0.021213147 0)
(-0.5830771 -0.035030111 0)
(-0.5658994 -0.048506669 0)
(-0.54327833 -0.061513568 0)
(-0.51543268 -0.073926168 0)
(-0.48263131 -0.085625597 0)
(-0.44519047 -0.096499868 0)
(-0.4034708 -0.10644493 0)
(-0.35787386 -0.11536565 0)
(-0.30883826 -0.12317672 0)
(-0.25683548 -0.12980345 0)
(-0.20236536 -0.13518249 0)
(-0.14595132 -0.13926241 0)
(-0.088135344 -0.14200422 0)
(-0.029472811 -0.14338171 0)
(0.029472809 -0.14338171 0)
(0.088135343 -0.14200422 0)
(0.14595132 -0.13926241 0)
(0.20236536 -0.13518249 0)
(0.25683548 -0.12980345 0)
(0.30883826 -0.12317672 0)
(0.35787386 -0.11536565 0)
(0.4034708 -0.10644493 0)
(0.44519047 -0.096499868 0)
(0.48263131 -0.085625598 0)
(0.51543268 -0.073926168 0)
(0.54327832 -0.061513569 0)
(0.5658994 -0.04850667 0)
(0.5830771 -0.035030111 0)
(0.59464476 -0.021213148 0)
(0.6004895 -0.0071884927 0)
(0.60055304 0.0069089795 0)
(0.59483313 0.020944444 0)
(0.58338288 0.034783169 0)
(0.56631117 0.048290554 0)
(0.54378016 0.061336415 0)
(0.51600522 0.073794761 0)
(0.48325251 0.085545003 0)
(0.44583646 0.096473211 0)
(0.40411675 0.10647327 0)
(0.35849495 0.11544793 0)
(0.30941063 0.1233098 0)
(0.25733714 0.12998225 0)
(0.20277705 0.13540017 0)
(0.14625723 0.13951064 0)
(0.088323715 0.14227349 0)
(0.029536415 0.1436617 0)
(-0.030430143 0.20335377 0)
(-0.09099614 0.20138844 0)
(-0.15068215 0.19747701 0)
(-0.20891113 0.19165776 0)
(-0.26512031 0.18398761 0)
(-0.31876675 0.1745415 0)
(-0.36933258 0.16341168 0)
(-0.41633012 0.15070672 0)
(-0.45930651 0.13655038 0)
(-0.49784814 0.12108039 0)
(-0.5315846 0.10444702 0)
(-0.56019217 0.086811618 0)
(-0.58339691 0.068344933 0)
(-0.60097724 0.049225474 0)
(-0.61276611 0.029637823 0)
(-0.61865199 0.0097713158 0)
(-0.61858019 -0.01018297 0)
(-0.61255344 -0.030033535 0)
(-0.60063184 -0.049589723 0)
(-0.58293188 -0.068663854 0)
(-0.55962541 -0.087073053 0)
(-0.53093795 -0.10464095 0)
(-0.49714648 -0.12119935 0)
(-0.45857682 -0.13658978 0)
(-0.41560046 -0.15066502 0)
(-0.368631 -0.16329045 0)
(-0.31812019 -0.17434534 0)
(-0.26455362 -0.18372403 0)
(-0.20844608 -0.19133686 0)
(-0.1503366 -0.19711107 0)
(-0.090783352 -0.20099147 0)
(-0.030358295 -0.20294099 0)
(0.030358294 -0.20294099 0)
(0.090783351 -0.20099147 0)
(0.1503366 -0.19711107 0)
(0.20844607 -0.19133686 0)
(0.26455362 -0.18372403 0)
(0.31812019 -0.17434534 0)
(0.36863099 -0.16329045 0)
(0.41560046 -0.15066502 0)
(0.45857682 -0.13658979 0)
(0.49714648 -0.12119935 0)
(0.53093795 -0.10464095 0)
(0.55962541 -0.087073053 0)
(0.58293188 -0.068663854 0)
(0.60063184 -0.049589723 0)
(0.61255344 -0.030033536 0)
(0.61858019 -0.010182971 0)
(0.61865199 0.0097713154 0)
(0.61276611 0.029637823 0)
(0.60097724 0.049225474 0)
(0.58339691 0.068344932 0)
(0.56019217 0.086811617 0)
(0.5315846 0.10444702 0)
(0.49784814 0.12108039 0)
(0.45930651 0.13655038 0)
(0.41633012 0.15070672 0)
(0.36933258 0.16341168 0)
(0.31876675 0.1745415 0)
(0.26512031 0.1839876 0)
(0.20891113 0.19165776 0)
(0.15068216 0.19747701 0)
(0.090996142 0.20138844 0)
(0.030430145 0.20335377 0)
(-0.031599303 0.26509247 0)
(-0.094492156 0.26252996 0)
(-0.15647075 0.25743004 0)
(-0.21693559 0.24984266 0)
(-0.27530204 0.2398421 0)
(-0.33100614 0.22752618 0)
(-0.38351 0.21301524 0)
(-0.43230717 0.19645095 0)
(-0.47692745 0.17799477 0)
(-0.51694147 0.15782637 0)
(-0.55196478 0.13614178 0)
(-0.58166153 0.1131514 0)
(-0.60574756 0.089077931 0)
(-0.62399316 0.064154178 0)
(-0.63622508 0.038620813 0)
(-0.64232798 0.012724181 0)
(-0.64224546 -0.01328651 0)
(-0.63598068 -0.039161393 0)
(-0.62359622 -0.064652054 0)
(-0.60521325 -0.089513983 0)
(-0.58101037 -0.1135089 0)
(-0.55122184 -0.13640699 0)
(-0.51613532 -0.1579891 0)
(-0.4760891 -0.17804873 0)
(-0.43146885 -0.19639402 0)
(-0.38270393 -0.21284959 0)
(-0.33026329 -0.22725812 0)
(-0.27465096 -0.23948189 0)
(-0.21640127 -0.24940409 0)
(-0.15607373 -0.2569299 0)
(-0.094247678 -0.26198741 0)
(-0.031516755 -0.26452831 0)
(0.031516754 -0.26452831 0)
(0.094247677 -0.26198741 0)
(0.15607373 -0.2569299 0)
(0.21640127 -0.24940409 0)
(0.27465096 -0.23948189 0)
(0.33026328 -0.22725812 0)
(0.38270393 -0.21284959 0)
(0.43146885 -0.19639402 0)
(0.4760891 -0.17804873 0)
(0.51613532 -0.1579891 0)
(0.55122184 -0.136407 0)
(0.58101037 -0.1135089 0)
(0.60521325 -0.089513983 0)
(0.62359622 -0.064652055 0)
(0.63598068 -0.039161393 0)
(0.64224546 -0.013286511 0)
(0.64232798 0.01272418 0)
(0.63622508 0.038620812 0)
(0.62399316 0.064154177 0)
(0.60574757 0.089077931 0)
(0.58166153 0.1131514 0)
(0.55196479 0.13614178 0)
(0.51694147 0.15782637 0)
(0.47692745 0.17799477 0)
(0.43230717 0.19645095 0)
(0.38351 0.21301524 0)
(0.33100614 0.22752618 0)
(0.27530205 0.2398421 0)
(0.21693559 0.24984266 0)
(0.15647075 0.25743004 0)
(0.094492157 0.26252996 0)
(0.031599305 0.26509247 0)
(-0.033059665 0.32944521 0)
(-0.098858913 0.32625989 0)
(-0.16370107 0.31992048 0)
(-0.22695858 0.31048916 0)
(-0.28801952 0.29805834 0)
(-0.34629359 0.28274973 0)
(-0.40121796 0.26471309 0)
(-0.45226271 0.24412464 0)
(-0.49893598 0.22118526 0)
(-0.54078872 0.1961184 0)
(-0.577419 0.16916785 0)
(-0.60847577 0.14059524 0)
(-0.63366217 0.11067746 0)
(-0.6527383 0.079703899 0)
(-0.66552333 0.047973652 0)
(-0.67189707 0.015792666 0)
(-0.67180101 -0.01652937 0)
(-0.66523883 -0.048681905 0)
(-0.65227626 -0.080356346 0)
(-0.6330403 -0.11124898 0)
(-0.60771796 -0.14106386 0)
(-0.57655441 -0.16951552 0)
(-0.53985059 -0.19633174 0)
(-0.49796038 -0.22125604 0)
(-0.45128715 -0.2440501 0)
(-0.40027994 -0.26449605 0)
(-0.34542915 -0.28239847 0)
(-0.28726187 -0.29758631 0)
(-0.22633682 -0.30991444 0)
(-0.16323908 -0.31926508 0)
(-0.098574426 -0.32554892 0)
(-0.032963608 -0.32870592 0)
(0.032963606 -0.32870592 0)
(0.098574425 -0.32554892 0)
(0.16323908 -0.31926509 0)
(0.22633682 -0.30991444 0)
(0.28726186 -0.29758631 0)
(0.34542915 -0.28239847 0)
(0.40027994 -0.26449605 0)
(0.45128715 -0.2440501 0)
(0.49796038 -0.22125604 0)
(0.53985059 -0.19633174 0)
(0.57655441 -0.16951552 0)
(0.60771796 -0.14106386 0)
(0.6330403 -0.11124899 0)
(0.65227626 -0.080356347 0)
(0.66523883 -0.048681906 0)
(0.67180101 -0.016529371 0)
(0.67189707 0.015792665 0)
(0.66552333 0.047973651 0)
(0.6527383 0.079703898 0)
(0.63366217 0.11067746 0)
(0.60847577 0.14059524 0)
(0.577419 0.16916785 0)
(0.54078872 0.1961184 0)
(0.49893598 0.22118526 0)
(0.45226271 0.24412464 0)
(0.40121797 0.26471309 0)
(0.34629359 0.28274973 0)
(0.28801952 0.29805834 0)
(0.22695858 0.31048916 0)
(0.16370107 0.31992048 0)
(0.098858915 0.32625989 0)
(0.033059666 0.32944521 0)
(-0.034829158 0.39701061 0)
(-0.10415002 0.39317095 0)
(-0.17246184 0.38552935 0)
(-0.23910306 0.37416083 0)
(-0.30342861 0.35917694 0)
(-0.36481634 0.34072458 0)
(-0.42267313 0.31898445 0)
(-0.47644064 0.29416919 0)
(-0.52560077 0.26652115 0)
(-0.56968066 0.23630991 0)
(-0.60825719 0.20382947 0)
(-0.64096095 0.16939534 0)
(-0.66747974 0.13334133 0)
(-0.68756133 0.096016278 0)
(-0.7010158 0.057780617 0)
(-0.70771712 0.019002919 0)
(-0.70760419 -0.019943701 0)
(-0.70068134 -0.058685101 0)
(-0.68701817 -0.096849572 0)
(-0.66674873 -0.13407133 0)
(-0.64007021 -0.16999392 0)
(-0.60724096 -0.20427359 0)
(-0.56857802 -0.23658245 0)
(-0.52445412 -0.2666116 0)
(-0.47529406 -0.29407402 0)
(-0.42157069 -0.31870726 0)
(-0.36380039 -0.34027597 0)
(-0.30253817 -0.35857409 0)
(-0.23837233 -0.37342682 0)
(-0.17191889 -0.38469231 0)
(-0.10381568 -0.39226294 0)
(-0.034716268 -0.39606642 0)
(0.034716267 -0.39606642 0)
(0.10381568 -0.39226294 0)
(0.17191889 -0.38469231 0)
(0.23837233 -0.37342682 0)
(0.30253817 -0.35857409 0)
(0.36380039 -0.34027597 0)
(0.42157068 -0.31870726 0)
(0.47529406 -0.29407402 0)
(0.52445412 -0.2666116 0)
(0.56857802 -0.23658245 0)
(0.60724096 -0.20427359 0)
(0.64007021 -0.16999393 0)
(0.66674873 -0.13407133 0)
(0.68701817 -0.096849573 0)
(0.70068134 -0.058685102 0)
(0.70760419 -0.019943702 0)
(0.70771712 0.019002918 0)
(0.7010158 0.057780616 0)
(0.68756133 0.096016277 0)
(0.66747974 0.13334133 0)
(0.64096095 0.16939534 0)
(0.60825719 0.20382947 0)
(0.56968066 0.23630991 0)
(0.52560077 0.26652115 0)
(0.47644064 0.29416919 0)
(0.42267313 0.31898445 0)
(0.36481635 0.34072458 0)
(0.30342861 0.35917694 0)
(0.23910306 0.37416083 0)
(0.17246185 0.38552935 0)
(0.10415002 0.39317095 0)
(0.03482916 0.39701061 0)
(-0.036927949 0.46842422 0)
(-0.11042576 0.46389243 0)
(-0.18285285 0.45487344 0)
(-0.25350724 0.44145592 0)
(-0.32170457 0.42377173 0)
(-0.38678486 0.40199448 0)
(-0.44811902 0.37633774 0)
(-0.50511502 0.34705278 0)
(-0.55722366 0.31442591 0)
(-0.60394383 0.27877558 0)
(-0.64482734 0.24044903 0)
(-0.67948308 0.1998188 0)
(-0.70758066 0.15727893 0)
(-0.72885337 0.11324112 0)
(-0.74310057 0.068130641 0)
(-0.75018932 0.022382254 0)
(-0.75005552 -0.02356397 0)
(-0.7427043 -0.069266784 0)
(-0.72820987 -0.11428788 0)
(-0.70671465 -0.15819596 0)
(-0.67842788 -0.20057077 0)
(-0.64362352 -0.24100697 0)
(-0.60263769 -0.27911798 0)
(-0.55586542 -0.31453955 0)
(-0.5037569 -0.34693323 0)
(-0.4468132 -0.37598955 0)
(-0.38558151 -0.40143095 0)
(-0.3206499 -0.42301445 0)
(-0.25264175 -0.4405339 0)
(-0.18220976 -0.45382199 0)
(-0.11002976 -0.46275185 0)
(-0.036794242 -0.4672382 0)
(0.03679424 -0.4672382 0)
(0.11002976 -0.46275185 0)
(0.18220976 -0.453822 0)
(0.25264175 -0.4405339 0)
(0.3206499 -0.42301445 0)
(0.3855815 -0.40143095 0)
(0.4468132 -0.37598955 0)
(0.50375689 -0.34693323 0)
(0.55586542 -0.31453955 0)
(0.60263769 -0.27911798 0)
(0.64362352 -0.24100697 0)
(0.67842788 -0.20057077 0)
(0.70671465 -0.15819596 0)
(0.72820987 -0.11428788 0)
(0.7427043 -0.069266785 0)
(0.75005552 -0.023563971 0)
(0.75018932 0.022382253 0)
(0.74310057 0.06813064 0)
(0.72885337 0.11324112 0)
(0.70758066 0.15727893 0)
(0.67948308 0.1998188 0)
(0.64482734 0.24044903 0)
(0.60394383 0.27877558 0)
(0.55722366 0.31442591 0)
(0.50511502 0.34705278 0)
(0.44811902 0.37633774 0)
(0.38678487 0.40199448 0)
(0.32170458 0.42377173 0)
(0.25350724 0.44145592 0)
(0.18285285 0.45487344 0)
(0.11042576 0.46389243 0)
(0.036927951 0.46842422 0)
(-0.039378674 0.5443642 0)
(-0.1177538 0.53909577 0)
(-0.19498608 0.52861082 0)
(-0.27032629 0.51301263 0)
(-0.3430441 0.49245475 0)
(-0.41243532 0.46713934 0)
(-0.47782883 0.43731507 0)
(-0.53859327 0.40327444 0)
(-0.59414311 0.36535074 0)
(-0.64394433 0.32391451 0)
(-0.6875195 0.27936978 0)
(-0.72445225 0.23214984 0)
(-0.75439108 0.1827129 0)
(-0.77705246 0.13153753 0)
(-0.79222333 0.079117947 0)
(-0.79976282 0.025959255 0)
(-0.79960334 -0.027427366 0)
(-0.79175102 -0.080529449 0)
(-0.77628549 -0.132838 0)
(-0.75335894 -0.18385221 0)
(-0.72319466 -0.23308407 0)
(-0.68608483 -0.28006294 0)
(-0.64238776 -0.32433988 0)
(-0.59252449 -0.36549189 0)
(-0.53697483 -0.40312589 0)
(-0.47627275 -0.43688246 0)
(-0.41100136 -0.46643923 0)
(-0.34178735 -0.49151394 0)
(-0.26929499 -0.51186717 0)
(-0.1942198 -0.52730459 0)
(-0.11728195 -0.53767881 0)
(-0.039219355 -0.54289081 0)
(0.039219353 -0.54289081 0)
(0.11728195 -0.53767882 0)
(0.1942198 -0.52730459 0)
(0.26929499 -0.51186717 0)
(0.34178735 -0.49151394 0)
(0.41100136 -0.46643923 0)
(0.47627275 -0.43688247 0)
(0.53697483 -0.4031259 0)
(0.59252449 -0.36549189 0)
(0.64238776 -0.32433988 0)
(0.68608483 -0.28006294 0)
(0.72319466 -0.23308408 0)
(0.75335894 -0.18385221 0)
(0.77628549 -0.132838 0)
(0.79175102 -0.08052945 0)
(0.79960334 -0.027427367 0)
(0.79976282 0.025959253 0)
(0.79222333 0.079117946 0)
(0.77705246 0.13153753 0)
(0.75439108 0.1827129 0)
(0.72445225 0.23214984 0)
(0.6875195 0.27936978 0)
(0.64394433 0.32391451 0)
(0.59414311 0.36535074 0)
(0.53859328 0.40327444 0)
(0.47782884 0.43731507 0)
(0.41243532 0.46713934 0)
(0.34304411 0.49245475 0)
(0.27032629 0.51301263 0)
(0.19498608 0.52861082 0)
(0.1177538 0.53909577 0)
(0.039378676 0.5443642 0)
(-0.042206751 0.62555657 0)
(-0.12621014 0.61949974 0)
(-0.20898729 0.60744591 0)
(-0.28973439 0.58951403 0)
(-0.36766798 0.56588097 0)
(-0.44203277 0.53677958 0)
(-0.51210916 0.50249624 0)
(-0.57722032 0.46336777 0)
(-0.63673883 0.41977787 0)
(-0.69009275 0.37215305 0)
(-0.73677101 0.32095819 0)
(-0.77632821 0.26669174 0)
(-0.80838859 0.20988061 0)
(-0.83264939 0.15107492 0)
(-0.84888338 0.09084259 0)
(-0.85694065 0.029763859 0)
(-0.85674971 -0.031574192 0)
(-0.8483179 -0.092583118 0)
(-0.83173114 -0.15267853 0)
(-0.80715289 -0.21128549 0)
(-0.77482263 -0.26784372 0)
(-0.73505349 -0.32181288 0)
(-0.68822935 -0.3726775 0)
(-0.6348012 -0.41995185 0)
(-0.57528294 -0.46318453 0)
(-0.51024647 -0.50196274 0)
(-0.44031633 -0.53591625 0)
(-0.36616368 -0.56472087 0)
(-0.28849997 -0.58810162 0)
(-0.2080701 -0.6058353 0)
(-0.12564537 -0.61775263 0)
(-0.042016058 -0.62373987 0)
(0.042016056 -0.62373987 0)
(0.12564536 -0.61775263 0)
(0.2080701 -0.6058353 0)
(0.28849996 -0.58810162 0)
(0.36616368 -0.56472087 0)
(0.44031633 -0.53591625 0)
(0.51024647 -0.50196275 0)
(0.57528293 -0.46318453 0)
(0.6348012 -0.41995185 0)
(0.68822934 -0.3726775 0)
(0.73505349 -0.32181288 0)
(0.77482263 -0.26784373 0)
(0.80715289 -0.21128549 0)
(0.83173114 -0.15267854 0)
(0.8483179 -0.092583119 0)
(0.85674971 -0.031574194 0)
(0.85694065 0.029763857 0)
(0.84888338 0.090842589 0)
(0.83264939 0.15107492 0)
(0.80838859 0.20988061 0)
(0.77632821 0.26669174 0)
(0.73677102 0.32095819 0)
(0.69009275 0.37215304 0)
(0.63673883 0.41977787 0)
(0.57722032 0.46336777 0)
(0.51210916 0.50249624 0)
(0.44203278 0.53677958 0)
(0.36766799 0.56588097 0)
(0.2897344 0.58951403 0)
(0.20898729 0.60744591 0)
(0.12621014 0.61949974 0)
(0.042206753 0.62555657 0)
(-0.04544069 0.71278096 0)
(-0.13587999 0.70587621 0)
(-0.22499752 0.69213507 0)
(-0.3119269 0.67169344 0)
(-0.39582382 0.6447534 0)
(-0.47587448 0.61158097 0)
(-0.55130374 0.57250326 0)
(-0.62138281 0.52790497 0)
(-0.68543638 0.47822423 0)
(-0.74284919 0.42394796 0)
(-0.79307183 0.36560668 0)
(-0.83562583 0.30376901 0)
(-0.87010794 0.23903582 0)
(-0.8961936 0.17203414 0)
(-0.91363958 0.10341107 0)
(-0.9222858 0.033827446 0)
(-0.92205648 -0.036048274 0)
(-0.91296044 -0.10554625 0)
(-0.8950908 -0.17400134 0)
(-0.86862393 -0.24075918 0)
(-0.83381774 -0.30518212 0)
(-0.79100926 -0.36665506 0)
(-0.74061149 -0.4245912 0)
(-0.6831096 -0.47843753 0)
(-0.6190564 -0.52768006 0)
(-0.54906709 -0.57184871 0)
(-0.47381348 -0.61052185 0)
(-0.39401759 -0.6433303 0)
(-0.31044474 -0.66996088 0)
(-0.22389628 -0.69015943 0)
(-0.1352019 -0.70373318 0)
(-0.045211734 -0.71055258 0)
(0.045211732 -0.71055258 0)
(0.13520189 -0.70373318 0)
(0.22389628 -0.69015943 0)
(0.31044474 -0.66996088 0)
(0.39401758 -0.6433303 0)
(0.47381348 -0.61052185 0)
(0.54906708 -0.57184872 0)
(0.6190564 -0.52768006 0)
(0.6831096 -0.47843754 0)
(0.74061149 -0.4245912 0)
(0.79100926 -0.36665506 0)
(0.83381774 -0.30518212 0)
(0.86862393 -0.24075919 0)
(0.8950908 -0.17400134 0)
(0.91296044 -0.10554625 0)
(0.92205648 -0.036048275 0)
(0.9222858 0.033827444 0)
(0.91363958 0.10341106 0)
(0.89619361 0.17203414 0)
(0.87010794 0.23903581 0)
(0.83562583 0.30376901 0)
(0.79307183 0.36560668 0)
(0.74284919 0.42394796 0)
(0.68543638 0.47822423 0)
(0.62138281 0.52790497 0)
(0.55130374 0.57250326 0)
(0.47587448 0.61158097 0)
(0.39582382 0.6447534 0)
(0.3119269 0.67169344 0)
(0.22499752 0.69213506 0)
(0.13587999 0.70587621 0)
(0.045440692 0.71278096 0)
(-0.049112333 0.80687711 0)
(-0.14685855 0.79905649 0)
(-0.24317429 0.78349283 0)
(-0.33712199 0.76034048 0)
(-0.42778813 0.72982888 0)
(-0.51429235 0.69226005 0)
(-0.59579639 0.64800535 0)
(-0.67151242 0.59750144 0)
(-0.74071078 0.54124552 0)
(-0.8027271 0.47978999 0)
(-0.85696859 0.41373654 0)
(-0.90291948 0.34372975 0)
(-0.94014553 0.27045043 0)
(-0.96829772 0.1946087 0)
(-0.98711493 0.11693698 0)
(-0.99642584 0.038182957 0)
(-0.99614993 -0.040897396 0)
(-0.98629783 -0.11954672 0)
(-0.9669709 -0.19701308 0)
(-0.9383601 -0.27255674 0)
(-0.9007442 -0.34545678 0)
(-0.85448721 -0.41501774 0)
(-0.8000351 -0.48057599 0)
(-0.73791169 -0.54150601 0)
(-0.66871385 -0.59722636 0)
(-0.59310588 -0.64720521 0)
(-0.51181319 -0.6909655 0)
(-0.42561548 -0.72808955 0)
(-0.3353392 -0.75822302 0)
(-0.2418497 -0.78107836 0)
(-0.14604294 -0.79643748 0)
(-0.048836947 -0.80415385 0)
(0.048836945 -0.80415385 0)
(0.14604294 -0.79643748 0)
(0.2418497 -0.78107836 0)
(0.3353392 -0.75822302 0)
(0.42561548 -0.72808955 0)
(0.51181319 -0.6909655 0)
(0.59310587 -0.64720521 0)
(0.66871385 -0.59722636 0)
(0.73791169 -0.54150602 0)
(0.80003509 -0.48057599 0)
(0.85448721 -0.41501774 0)
(0.9007442 -0.34545679 0)
(0.9383601 -0.27255674 0)
(0.9669709 -0.19701308 0)
(0.98629783 -0.11954672 0)
(0.99614993 -0.040897398 0)
(0.99642584 0.038182955 0)
(0.98711493 0.11693698 0)
(0.96829772 0.1946087 0)
(0.94014553 0.27045043 0)
(0.90291948 0.34372974 0)
(0.85696859 0.41373653 0)
(0.8027271 0.47978999 0)
(0.74071078 0.54124551 0)
(0.67151242 0.59750144 0)
(0.59579639 0.64800535 0)
(0.51429235 0.69226005 0)
(0.42778813 0.72982888 0)
(0.337122 0.76034048 0)
(0.24317429 0.78349283 0)
(0.14685856 0.79905649 0)
(0.049112335 0.80687711 0)
(-0.05325691 0.9087517 0)
(-0.15925114 0.89993809 0)
(-0.26369187 0.88239854 0)
(-0.36556106 0.85630748 0)
(-0.46386682 0.82192417 0)
(-0.55765359 0.7795899 0)
(-0.6460117 0.72972427 0)
(-0.72808662 0.67282058 0)
(-0.80308737 0.60944043 0)
(-0.87029426 0.54020756 0)
(-0.9290657 0.46580109 0)
(-0.97884406 0.38694819 0)
(-1.0191605 0.30441647 0)
(-1.0496387 0.21900608 0)
(-1.0699979 0.13154178 0)
(-1.0800542 0.042865036 0)
(-1.0797221 -0.046173731 0)
(-1.0690144 -0.13472282 0)
(-1.0480417 -0.22193675 0)
(-1.0170116 -0.30698375 0)
(-0.97622595 -0.3890531 0)
(-0.92607924 -0.4673625 0)
(-0.86705439 -0.54116533 0)
(-0.79971871 -0.60975766 0)
(-0.72471868 -0.67248503 0)
(-0.64277388 -0.72874879 0)
(-0.5546702 -0.7780119 0)
(-0.46125236 -0.81980416 0)
(-0.36341578 -0.85372671 0)
(-0.26209799 -0.87945588 0)
(-0.15826972 -0.89674622 0)
(-0.052925543 -0.90543281 0)
(0.052925541 -0.90543281 0)
(0.15826972 -0.89674622 0)
(0.26209799 -0.87945589 0)
(0.36341577 -0.85372671 0)
(0.46125236 -0.81980416 0)
(0.5546702 -0.7780119 0)
(0.64277388 -0.72874879 0)
(0.72471868 -0.67248503 0)
(0.79971871 -0.60975766 0)
(0.86705438 -0.54116533 0)
(0.92607923 -0.4673625 0)
(0.97622595 -0.3890531 0)
(1.0170116 -0.30698375 0)
(1.0480417 -0.22193676 0)
(1.0690144 -0.13472282 0)
(1.0797221 -0.046173733 0)
(1.0800542 0.042865034 0)
(1.0699979 0.13154177 0)
(1.0496387 0.21900608 0)
(1.0191605 0.30441647 0)
(0.97884406 0.38694819 0)
(0.9290657 0.46580108 0)
(0.87029426 0.54020756 0)
(0.80308738 0.60944043 0)
(0.72808663 0.67282058 0)
(0.6460117 0.72972427 0)
(0.55765359 0.7795899 0)
(0.46386683 0.82192417 0)
(0.36556106 0.85630748 0)
(0.26369188 0.88239854 0)
(0.15925114 0.89993809 0)
(0.053256912 0.9087517 0)
(-0.057912716 1.019385 0)
(-0.17317222 1.0094914 0)
(-0.28673973 0.98980281 0)
(-0.39750651 0.96051569 0)
(-0.50439251 0.92192192 0)
(-0.60635743 0.87440574 0)
(-0.70241131 0.81843952 0)
(-0.79162459 0.75457858 0)
(-0.87313738 0.68345496 0)
(-0.94616797 0.60577044 0)
(-1.0100202 0.52228875 0)
(-1.0640897 0.43382721 0)
(-1.1078692 0.34124798 0)
(-1.1409524 0.24544909 0)
(-1.1630366 0.1473555 0)
(-1.1739245 0.047910239 0)
(-1.1735252 -0.051934178 0)
(-1.1618542 -0.15122414 0)
(-1.1390325 -0.24901317 0)
(-1.1052858 -0.34437001 0)
(-1.0609422 -0.43638684 0)
(-1.00643 -0.52418733 0)
(-0.94227318 -0.60693485 0)
(-0.86908787 -0.68384037 0)
(-0.78757603 -0.75417015 0)
(-0.69851927 -0.81725295 0)
(-0.60277134 -0.87248656 0)
(-0.50124995 -0.91934376 0)
(-0.39492795 -0.95737739 0)
(-0.28482398 -0.98622457 0)
(-0.17199263 -1.0056102 0)
(-0.057514441 -1.0153494 0)
(0.057514438 -1.0153494 0)
(0.17199263 -1.0056102 0)
(0.28482397 -0.98622457 0)
(0.39492795 -0.95737739 0)
(0.50124994 -0.91934376 0)
(0.60277133 -0.87248656 0)
(0.69851927 -0.81725295 0)
(0.78757603 -0.75417015 0)
(0.86908786 -0.68384037 0)
(0.94227318 -0.60693485 0)
(1.0064299 -0.52418733 0)
(1.0609422 -0.43638684 0)
(1.1052858 -0.34437002 0)
(1.1390325 -0.24901317 0)
(1.1618542 -0.15122415 0)
(1.1735252 -0.05193418 0)
(1.1739245 0.047910237 0)
(1.1630366 0.14735549 0)
(1.1409524 0.24544909 0)
(1.1078692 0.34124798 0)
(1.0640897 0.43382721 0)
(1.0100202 0.52228875 0)
(0.94616797 0.60577044 0)
(0.87313739 0.68345496 0)
(0.79162459 0.75457858 0)
(0.70241132 0.81843952 0)
(0.60635744 0.87440573 0)
(0.50439252 0.92192192 0)
(0.39750651 0.96051569 0)
(0.28673973 0.98980281 0)
(0.17317222 1.0094914 0)
(0.057912719 1.019385 0)
(-0.063120088 1.1398365 0)
(-0.18874239 1.128765 0)
(-0.31251743 1.1067329 0)
(-0.43323483 1.0739606 0)
(-0.54971566 1.0307757 0)
(-0.66082466 0.97760967 0)
(-0.76548185 0.91499278 0)
(-0.86267365 0.84354841 0)
(-0.95146309 0.76398597 0)
(-1.0309992 0.67709289 0)
(-1.1005249 0.58372569 0)
(-1.1593843 0.48480043 0)
(-1.2070274 0.38128261 0)
(-1.2430149 0.274177 0)
(-1.2670205 0.16451751 0)
(-1.2788323 0.053357336 0)
(-1.2783537 -0.058240483 0)
(-1.2656033 -0.16921215 0)
(-1.2407138 -0.27850194 0)
(-1.203931 -0.38507101 0)
(-1.155612 -0.48790623 0)
(-1.0962221 -0.58602921 0)
(-1.0263313 -0.67850543 0)
(-0.94660988 -0.76445319 0)
(-0.85782166 -0.84305236 0)
(-0.76081752 -0.91355257 0)
(-0.65652707 -0.97528063 0)
(-0.54594968 -1.0276472 0)
(-0.4301448 -1.0701526 0)
(-0.31022173 -1.1023913 0)
(-0.18732887 -1.124056 0)
(-0.062642831 -1.1349402 0)
(0.062642828 -1.1349402 0)
(0.18732887 -1.124056 0)
(0.31022172 -1.1023913 0)
(0.4301448 -1.0701526 0)
(0.54594968 -1.0276472 0)
(0.65652707 -0.97528063 0)
(0.76081752 -0.91355257 0)
(0.85782165 -0.84305237 0)
(0.94660987 -0.76445319 0)
(1.0263313 -0.67850543 0)
(1.0962221 -0.58602921 0)
(1.155612 -0.48790623 0)
(1.203931 -0.38507101 0)
(1.2407138 -0.27850195 0)
(1.2656033 -0.16921215 0)
(1.2783537 -0.058240486 0)
(1.2788323 0.053357333 0)
(1.2670205 0.16451751 0)
(1.2430149 0.274177 0)
(1.2070274 0.38128261 0)
(1.1593843 0.48480043 0)
(1.1005249 0.58372569 0)
(1.0309992 0.67709288 0)
(0.9514631 0.76398597 0)
(0.86267365 0.84354841 0)
(0.76548186 0.91499278 0)
(0.66082467 0.97760967 0)
(0.54971567 1.0307757 0)
(0.43323483 1.0739606 0)
(0.31251744 1.1067329 0)
(0.1887424 1.128765 0)
(0.063120091 1.1398365 0)
(-0.068919113 1.2712473 0)
(-0.20608151 1.2588886 0)
(-0.34122341 1.2342953 0)
(-0.47302097 1.1977143 0)
(-0.60018496 1.1495125 0)
(-0.72147408 1.0901731 0)
(-0.8357079 1.0202901 0)
(-0.94177909 0.9405619 0)
(-1.0386648 0.85178305 0)
(-1.125437 0.75483528 0)
(-1.2012711 0.65067725 0)
(-1.2654541 0.54033345 0)
(-1.3173893 0.42488268 0)
(-1.3566014 0.30544638 0)
(-1.3827384 0.18317714 0)
(-1.3955728 0.059247785 0)
(-1.3950025 -0.06515893 0)
(-1.3810492 -0.18886002 0)
(-1.3538586 -0.31068163 0)
(-1.3136987 -0.42946831 0)
(-1.2609578 -0.54409267 0)
(-1.1961424 -0.65346523 0)
(-1.1198732 -0.75654468 0)
(-1.03288 -0.85234813 0)
(-0.93599578 -0.939961 0)
(-0.83014829 -1.0185464 0)
(-0.71635166 -1.0873537 0)
(-0.59569623 -1.1457256 0)
(-0.46933799 -1.1931052 0)
(-0.3384872 -1.2290406 0)
(-0.20439679 -1.2531893 0)
(-0.068350291 -1.2653214 0)
(0.068350288 -1.2653214 0)
(0.20439678 -1.2531893 0)
(0.3384872 -1.2290406 0)
(0.46933798 -1.1931052 0)
(0.59569623 -1.1457256 0)
(0.71635165 -1.0873537 0)
(0.83014829 -1.0185464 0)
(0.93599578 -0.93996101 0)
(1.03288 -0.85234813 0)
(1.1198732 -0.75654468 0)
(1.1961424 -0.65346523 0)
(1.2609578 -0.54409267 0)
(1.3136987 -0.42946832 0)
(1.3538586 -0.31068163 0)
(1.3810492 -0.18886003 0)
(1.3950025 -0.065158933 0)
(1.3955728 0.059247782 0)
(1.3827384 0.18317714 0)
(1.3566014 0.30544638 0)
(1.3173893 0.42488268 0)
(1.2654541 0.54033345 0)
(1.2012711 0.65067725 0)
(1.125437 0.75483528 0)
(1.0386648 0.85178305 0)
(0.94177909 0.9405619 0)
(0.8357079 1.0202901 0)
(0.72147409 1.0901731 0)
(0.60018497 1.1495125 0)
(0.47302098 1.1977143 0)
(0.34122341 1.2342953 0)
(0.20608152 1.2588886 0)
(0.068919116 1.2712473 0)
(-0.075345214 1.4148368 0)
(-0.22529552 1.4010691 0)
(-0.3730331 1.3736724 0)
(-0.51710824 1.3329225 0)
(-0.65610921 1.2792297 0)
(-0.78867697 1.2131339 0)
(-0.91351952 1.1352997 0)
(-1.0294254 1.0465078 0)
(-1.1352765 0.94764684 0)
(-1.2300594 0.83970276 0)
(-1.3128751 0.72374682 0)
(-1.3829475 0.60092303 0)
(-1.4396291 0.47243469 0)
(-1.4824054 0.33953099 0)
(-1.510897 0.20349398 0)
(-1.52486 0.065626442 0)
(-1.5241861 -0.07275925 0)
(-1.5089011 -0.21035128 0)
(-1.4791646 -0.34584803 0)
(-1.4352683 -0.47796778 0)
(-1.3776346 -0.60545886 0)
(-1.3068147 -0.72711065 0)
(-1.2234847 -0.84176508 0)
(-1.1284404 -0.94832834 0)
(-1.0225909 -1.0457823 0)
(-0.90694919 -1.1331954 0)
(-0.78262325 -1.2097318 0)
(-0.65080439 -1.2746604 0)
(-0.51275568 -1.3273614 0)
(-0.36979947 -1.3673326 0)
(-0.22330454 -1.3941931 0)
(-0.074672993 -1.4076876 0)
(0.074672989 -1.4076876 0)
(0.22330453 -1.3941931 0)
(0.36979947 -1.3673326 0)
(0.51275568 -1.3273614 0)
(0.65080439 -1.2746604 0)
(0.78262325 -1.2097318 0)
(0.90694919 -1.1331954 0)
(1.0225909 -1.0457824 0)
(1.1284404 -0.94832835 0)
(1.2234847 -0.84176508 0)
(1.3068147 -0.72711065 0)
(1.3776346 -0.60545886 0)
(1.4352683 -0.47796778 0)
(1.4791646 -0.34584804 0)
(1.5089011 -0.21035128 0)
(1.5241861 -0.072759253 0)
(1.52486 0.065626439 0)
(1.510897 0.20349398 0)
(1.4824054 0.33953099 0)
(1.4396291 0.47243469 0)
(1.3829475 0.60092303 0)
(1.3128751 0.72374682 0)
(1.2300594 0.83970275 0)