/*--------------------------------*- C++ -*----------------------------------*\
| =========                 |                                                 |
| \\      /  F ield         | OpenFOAM: The Open Source CFD Toolbox           |
|  \\    /   O peration     | Version:  2106                                  |
|   \\  /    A nd           | Website:  www.openfoam.com                      |
|    \\/     M anipulation  |                                                 |
\*---------------------------------------------------------------------------*/
FoamFile
{
    version     2.0;
    format      ascii;
    arch        "LSB;label=32;scalar=64";
    class       volVectorField;
    location    "0.4";
    object      U;
}
// * * * * * * * * * * * * * * * * * * * * * * * * * * * * * * * * * * * * * //

dimensions      [0 1 -1 0 0 0 0];

internalField   nonuniform List<vector> 
90000
(
(-2.28546e-08 2.32346e-08 0)
(-6.8758e-08 2.30756e-08 0)
(-1.14781e-07 2.29353e-08 0)
(-1.60537e-07 2.27909e-08 0)
(-2.05964e-07 2.26164e-08 0)
(-2.5102e-07 2.24072e-08 0)
(-2.95628e-07 2.21622e-08 0)
(-3.39713e-07 2.18805e-08 0)
(-3.83197e-07 2.15616e-08 0)
(-4.26007e-07 2.12056e-08 0)
(-4.68067e-07 2.08128e-08 0)
(-5.09305e-07 2.03838e-08 0)
(-5.49648e-07 1.99191e-08 0)
(-5.89026e-07 1.94196e-08 0)
(-6.2737e-07 1.88861e-08 0)
(-6.64613e-07 1.83196e-08 0)
(-7.00689e-07 1.7721e-08 0)
(-7.35537e-07 1.70913e-08 0)
(-7.69093e-07 1.64317e-08 0)
(-8.013e-07 1.57433e-08 0)
(-8.32102e-07 1.50272e-08 0)
(-8.61443e-07 1.42849e-08 0)
(-8.89273e-07 1.35174e-08 0)
(-9.15543e-07 1.27263e-08 0)
(-9.40207e-07 1.19129e-08 0)
(-9.63222e-07 1.10786e-08 0)
(-9.84547e-07 1.02248e-08 0)
(-1.00414e-06 9.35313e-09 0)
(-1.02198e-06 8.46505e-09 0)
(-1.03802e-06 7.56211e-09 0)
(-1.05225e-06 6.64592e-09 0)
(-1.06462e-06 5.71807e-09 0)
(-1.07513e-06 4.7802e-09 0)
(-1.08375e-06 3.83394e-09 0)
(-1.09048e-06 2.88097e-09 0)
(-1.09528e-06 1.92294e-09 0)
(-1.09817e-06 9.61538e-10 0)
(-1.09913e-06 -1.55196e-12 0)
(-1.09817e-06 -9.64642e-10 0)
(-1.09527e-06 -1.92604e-09 0)
(-1.09046e-06 -2.88406e-09 0)
(-1.08373e-06 -3.83703e-09 0)
(-1.0751e-06 -4.78325e-09 0)
(-1.06459e-06 -5.72109e-09 0)
(-1.0522e-06 -6.64888e-09 0)
(-1.03798e-06 -7.56502e-09 0)
(-1.02193e-06 -8.46788e-09 0)
(-1.00408e-06 -9.35589e-09 0)
(-9.84482e-07 -1.02275e-08 0)
(-9.63152e-07 -1.10812e-08 0)
(-9.40133e-07 -1.19154e-08 0)
(-9.15464e-07 -1.27287e-08 0)
(-8.89189e-07 -1.35197e-08 0)
(-8.61355e-07 -1.4287e-08 0)
(-8.3201e-07 -1.50292e-08 0)
(-8.01205e-07 -1.5745e-08 0)
(-7.68994e-07 -1.64333e-08 0)
(-7.35435e-07 -1.70927e-08 0)
(-7.00586e-07 -1.77221e-08 0)
(-6.64507e-07 -1.83204e-08 0)
(-6.27263e-07 -1.88866e-08 0)
(-5.88919e-07 -1.94197e-08 0)
(-5.49541e-07 -1.99187e-08 0)
(-5.092e-07 -2.03827e-08 0)
(-4.67965e-07 -2.0811e-08 0)
(-4.25909e-07 -2.12028e-08 0)
(-3.83106e-07 -2.15574e-08 0)
(-3.39632e-07 -2.18742e-08 0)
(-2.95561e-07 -2.21526e-08 0)
(-2.50972e-07 -2.23922e-08 0)
(-2.05942e-07 -2.25925e-08 0)
(-1.60551e-07 -2.27531e-08 0)
(-1.14879e-07 -2.28738e-08 0)
(-6.9005e-08 -2.29544e-08 0)
(-2.301e-08 -2.29948e-08 0)
(2.30255e-08 -2.29948e-08 0)
(6.90205e-08 -2.29544e-08 0)
(1.14894e-07 -2.28738e-08 0)
(1.60567e-07 -2.27531e-08 0)
(2.05958e-07 -2.25925e-08 0)
(2.50987e-07 -2.23922e-08 0)
(2.95576e-07 -2.21527e-08 0)
(3.39647e-07 -2.18743e-08 0)
(3.83122e-07 -2.15575e-08 0)
(4.25925e-07 -2.12029e-08 0)
(4.67981e-07 -2.08111e-08 0)
(5.09215e-07 -2.03828e-08 0)
(5.49557e-07 -1.99187e-08 0)
(5.88935e-07 -1.94197e-08 0)
(6.27279e-07 -1.88866e-08 0)
(6.64523e-07 -1.83205e-08 0)
(7.00602e-07 -1.77221e-08 0)
(7.35451e-07 -1.70927e-08 0)
(7.69011e-07 -1.64333e-08 0)
(8.01221e-07 -1.57451e-08 0)
(8.32026e-07 -1.50292e-08 0)
(8.61372e-07 -1.4287e-08 0)
(8.89207e-07 -1.35198e-08 0)
(9.15481e-07 -1.27288e-08 0)
(9.4015e-07 -1.19155e-08 0)
(9.6317e-07 -1.10813e-08 0)
(9.845e-07 -1.02276e-08 0)
(1.0041e-06 -9.35602e-09 0)
(1.02194e-06 -8.46803e-09 0)
(1.03799e-06 -7.56518e-09 0)
(1.05222e-06 -6.64905e-09 0)
(1.0646e-06 -5.72126e-09 0)
(1.07512e-06 -4.78343e-09 0)
(1.08375e-06 -3.83721e-09 0)
(1.09048e-06 -2.88425e-09 0)
(1.09529e-06 -1.92624e-09 0)
(1.09819e-06 -9.6486e-10 0)
(1.09915e-06 -1.7861e-12 0)
(1.09819e-06 9.61287e-10 0)
(1.09531e-06 1.92267e-09 0)
(1.0905e-06 2.88068e-09 0)
(1.08378e-06 3.83364e-09 0)
(1.07516e-06 4.77988e-09 0)
(1.06465e-06 5.71773e-09 0)
(1.05227e-06 6.64556e-09 0)
(1.03805e-06 7.56173e-09 0)
(1.02201e-06 8.46463e-09 0)
(1.00417e-06 9.35269e-09 0)
(9.84576e-07 1.02243e-08 0)
(9.63252e-07 1.1078e-08 0)
(9.40239e-07 1.19123e-08 0)
(9.15576e-07 1.27257e-08 0)
(8.89307e-07 1.35168e-08 0)
(8.61479e-07 1.42841e-08 0)
(8.32139e-07 1.50264e-08 0)
(8.01339e-07 1.57423e-08 0)
(7.69134e-07 1.64306e-08 0)
(7.3558e-07 1.70901e-08 0)
(7.00735e-07 1.77197e-08 0)
(6.64661e-07 1.83181e-08 0)
(6.27422e-07 1.88844e-08 0)
(5.89081e-07 1.94176e-08 0)
(5.49707e-07 1.99167e-08 0)
(5.0937e-07 2.03809e-08 0)
(4.68138e-07 2.08094e-08 0)
(4.26085e-07 2.12014e-08 0)
(3.83285e-07 2.15564e-08 0)
(3.39811e-07 2.18737e-08 0)
(2.95741e-07 2.21529e-08 0)
(2.5115e-07 2.23938e-08 0)
(2.06115e-07 2.25963e-08 0)
(1.60714e-07 2.27606e-08 0)
(1.15022e-07 2.28871e-08 0)
(6.91135e-08 2.29773e-08 0)
(2.30565e-08 2.30328e-08 0)
(-2.30135e-08 6.95098e-08 0)
(-6.90815e-08 6.9186e-08 0)
(-1.15123e-07 6.883e-08 0)
(-1.60944e-07 6.84143e-08 0)
(-2.06466e-07 6.78982e-08 0)
(-2.51621e-07 6.72747e-08 0)
(-2.9633e-07 6.65414e-08 0)
(-3.40515e-07 6.56966e-08 0)
(-3.841e-07 6.47396e-08 0)
(-4.27009e-07 6.36709e-08 0)
(-4.69167e-07 6.24917e-08 0)
(-5.10501e-07 6.12035e-08 0)
(-5.50938e-07 5.98083e-08 0)
(-5.90409e-07 5.83086e-08 0)
(-6.28843e-07 5.67069e-08 0)
(-6.66173e-07 5.50059e-08 0)
(-7.02334e-07 5.32085e-08 0)
(-7.37263e-07 5.13179e-08 0)
(-7.70898e-07 4.93373e-08 0)
(-8.03181e-07 4.72702e-08 0)
(-8.34055e-07 4.51203e-08 0)
(-8.63465e-07 4.28913e-08 0)
(-8.9136e-07 4.05871e-08 0)
(-9.17692e-07 3.82117e-08 0)
(-9.42414e-07 3.57693e-08 0)
(-9.65482e-07 3.32642e-08 0)
(-9.86857e-07 3.07007e-08 0)
(-1.0065e-06 2.80834e-08 0)
(-1.02438e-06 2.54169e-08 0)
(-1.04046e-06 2.27058e-08 0)
(-1.05472e-06 1.99549e-08 0)
(-1.06712e-06 1.71689e-08 0)
(-1.07765e-06 1.43529e-08 0)
(-1.0863e-06 1.15117e-08 0)
(-1.09303e-06 8.65034e-09 0)
(-1.09785e-06 5.77378e-09 0)
(-1.10075e-06 2.88708e-09 0)
(-1.10171e-06 -4.68578e-12 0)
(-1.10074e-06 -2.89645e-09 0)
(-1.09784e-06 -5.78313e-09 0)
(-1.09302e-06 -8.65966e-09 0)
(-1.08627e-06 -1.1521e-08 0)
(-1.07762e-06 -1.43621e-08 0)
(-1.06708e-06 -1.7178e-08 0)
(-1.05467e-06 -1.99638e-08 0)
(-1.04041e-06 -2.27145e-08 0)
(-1.02432e-06 -2.54255e-08 0)
(-1.00644e-06 -2.80918e-08 0)
(-9.86792e-07 -3.07088e-08 0)
(-9.65412e-07 -3.3272e-08 0)
(-9.42339e-07 -3.57768e-08 0)
(-9.17612e-07 -3.82189e-08 0)
(-8.91276e-07 -4.05939e-08 0)
(-8.63376e-07 -4.28977e-08 0)
(-8.33962e-07 -4.51263e-08 0)
(-8.03085e-07 -4.72757e-08 0)
(-7.70799e-07 -4.93421e-08 0)
(-7.37161e-07 -5.1322e-08 0)
(-7.0223e-07 -5.32119e-08 0)
(-6.66067e-07 -5.50084e-08 0)
(-6.28735e-07 -5.67085e-08 0)
(-5.90301e-07 -5.8309e-08 0)
(-5.50831e-07 -5.98073e-08 0)
(-5.10395e-07 -6.12007e-08 0)
(-4.69063e-07 -6.24867e-08 0)
(-4.26909e-07 -6.36631e-08 0)
(-3.84005e-07 -6.47278e-08 0)
(-3.40429e-07 -6.5679e-08 0)
(-2.96254e-07 -6.6515e-08 0)
(-2.51561e-07 -6.72343e-08 0)
(-2.06425e-07 -6.78356e-08 0)
(-1.60928e-07 -6.83179e-08 0)
(-1.15149e-07 -6.86804e-08 0)
(-6.9167e-08 -6.89225e-08 0)
(-2.3064e-08 -6.90436e-08 0)
(2.30795e-08 -6.90436e-08 0)
(6.91824e-08 -6.89225e-08 0)
(1.15164e-07 -6.86805e-08 0)
(1.60944e-07 -6.8318e-08 0)
(2.06441e-07 -6.78357e-08 0)
(2.51576e-07 -6.72344e-08 0)
(2.9627e-07 -6.65151e-08 0)
(3.40444e-07 -6.56791e-08 0)
(3.84021e-07 -6.4728e-08 0)
(4.26924e-07 -6.36632e-08 0)
(4.69079e-07 -6.24868e-08 0)
(5.1041e-07 -6.12008e-08 0)
(5.50847e-07 -5.98075e-08 0)
(5.90317e-07 -5.83092e-08 0)
(6.28751e-07 -5.67086e-08 0)
(6.66083e-07 -5.50086e-08 0)
(7.02246e-07 -5.3212e-08 0)
(7.37177e-07 -5.13222e-08 0)
(7.70815e-07 -4.93422e-08 0)
(8.03101e-07 -4.72758e-08 0)
(8.33979e-07 -4.51264e-08 0)
(8.63393e-07 -4.28978e-08 0)
(8.91293e-07 -4.05941e-08 0)
(9.17629e-07 -3.82191e-08 0)
(9.42356e-07 -3.57771e-08 0)
(9.6543e-07 -3.32723e-08 0)
(9.8681e-07 -3.07092e-08 0)
(1.00646e-06 -2.80922e-08 0)
(1.02434e-06 -2.54259e-08 0)
(1.04043e-06 -2.2715e-08 0)
(1.05469e-06 -1.99643e-08 0)
(1.0671e-06 -1.71785e-08 0)
(1.07764e-06 -1.43626e-08 0)
(1.08629e-06 -1.15215e-08 0)
(1.09304e-06 -8.66017e-09 0)
(1.09786e-06 -5.78368e-09 0)
(1.10076e-06 -2.89707e-09 0)
(1.10173e-06 -5.37686e-12 0)
(1.10077e-06 2.88632e-09 0)
(1.09788e-06 5.77294e-09 0)
(1.09306e-06 8.64945e-09 0)
(1.08632e-06 1.15108e-08 0)
(1.07768e-06 1.43519e-08 0)
(1.06715e-06 1.71679e-08 0)
(1.05474e-06 1.99538e-08 0)
(1.04049e-06 2.27046e-08 0)
(1.02441e-06 2.54157e-08 0)
(1.00653e-06 2.80821e-08 0)
(9.86886e-07 3.06993e-08 0)
(9.65513e-07 3.32626e-08 0)
(9.42445e-07 3.57676e-08 0)
(9.17725e-07 3.82098e-08 0)
(8.91394e-07 4.0585e-08 0)
(8.635e-07 4.28891e-08 0)
(8.34092e-07 4.51178e-08 0)
(8.0322e-07 4.72675e-08 0)
(7.70939e-07 4.93342e-08 0)
(7.37306e-07 5.13144e-08 0)
(7.02379e-07 5.32045e-08 0)
(6.66221e-07 5.50014e-08 0)
(6.28894e-07 5.67017e-08 0)
(5.90463e-07 5.83026e-08 0)
(5.50997e-07 5.98013e-08 0)
(5.10565e-07 6.11951e-08 0)
(4.69237e-07 6.24817e-08 0)
(4.27085e-07 6.36588e-08 0)
(3.84184e-07 6.47245e-08 0)
(3.40609e-07 6.56772e-08 0)
(2.96436e-07 6.65155e-08 0)
(2.5174e-07 6.72388e-08 0)
(2.06601e-07 6.78467e-08 0)
(1.61093e-07 6.83398e-08 0)
(1.15294e-07 6.87198e-08 0)
(6.92778e-08 6.899e-08 0)
(2.31119e-08 6.91547e-08 0)
(-2.3154e-08 1.15665e-07 0)
(-6.94374e-08 1.15322e-07 0)
(-1.15623e-07 1.14821e-07 0)
(-1.61603e-07 1.14156e-07 0)
(-2.07294e-07 1.13309e-07 0)
(-2.52619e-07 1.12277e-07 0)
(-2.97498e-07 1.11058e-07 0)
(-3.41853e-07 1.0965e-07 0)
(-3.85606e-07 1.08054e-07 0)
(-4.28681e-07 1.06271e-07 0)
(-4.71003e-07 1.04303e-07 0)
(-5.12497e-07 1.02153e-07 0)
(-5.53092e-07 9.9825e-08 0)
(-5.92716e-07 9.7322e-08 0)
(-6.313e-07 9.46486e-08 0)
(-6.68776e-07 9.18095e-08 0)
(-7.05078e-07 8.88095e-08 0)
(-7.40144e-07 8.56539e-08 0)
(-7.7391e-07 8.23482e-08 0)
(-8.06319e-07 7.88982e-08 0)
(-8.37313e-07 7.53098e-08 0)
(-8.66838e-07 7.15894e-08 0)
(-8.94842e-07 6.77434e-08 0)
(-9.21277e-07 6.37787e-08 0)
(-9.46095e-07 5.97021e-08 0)
(-9.69254e-07 5.55208e-08 0)
(-9.90712e-07 5.12422e-08 0)
(-1.01043e-06 4.68737e-08 0)
(-1.02838e-06 4.24231e-08 0)
(-1.04452e-06 3.7898e-08 0)
(-1.05884e-06 3.33065e-08 0)
(-1.07129e-06 2.86565e-08 0)
(-1.08186e-06 2.39563e-08 0)
(-1.09054e-06 1.92141e-08 0)
(-1.0973e-06 1.44382e-08 0)
(-1.10214e-06 9.63695e-09 0)
(-1.10505e-06 4.81878e-09 0)
(-1.10602e-06 -7.85202e-12 0)
(-1.10504e-06 -4.83447e-09 0)
(-1.10213e-06 -9.65259e-09 0)
(-1.09729e-06 -1.44538e-08 0)
(-1.09052e-06 -1.92296e-08 0)
(-1.08183e-06 -2.39717e-08 0)
(-1.07125e-06 -2.86717e-08 0)
(-1.05879e-06 -3.33214e-08 0)
(-1.04447e-06 -3.79126e-08 0)
(-1.02833e-06 -4.24374e-08 0)
(-1.01037e-06 -4.68877e-08 0)
(-9.90647e-07 -5.12558e-08 0)
(-9.69183e-07 -5.5534e-08 0)
(-9.4602e-07 -5.97148e-08 0)
(-9.21197e-07 -6.37908e-08 0)
(-8.94758e-07 -6.77549e-08 0)
(-8.66749e-07 -7.16002e-08 0)
(-8.3722e-07 -7.53198e-08 0)
(-8.06222e-07 -7.89074e-08 0)
(-7.7381e-07 -8.23565e-08 0)
(-7.4004e-07 -8.56611e-08 0)
(-7.04973e-07 -8.88155e-08 0)
(-6.68669e-07 -9.18141e-08 0)
(-6.31191e-07 -9.46516e-08 0)
(-5.92607e-07 -9.73231e-08 0)
(-5.52983e-07 -9.98239e-08 0)
(-5.12388e-07 -1.0215e-07 0)
(-4.70895e-07 -1.04296e-07 0)
(-4.28576e-07 -1.0626e-07 0)
(-3.85506e-07 -1.08037e-07 0)
(-3.41758e-07 -1.09624e-07 0)
(-2.97412e-07 -1.1102e-07 0)
(-2.52543e-07 -1.1222e-07 0)
(-2.07232e-07 -1.13224e-07 0)
(-1.61557e-07 -1.14029e-07 0)
(-1.15598e-07 -1.14634e-07 0)
(-6.94372e-08 -1.15038e-07 0)
(-2.31541e-08 -1.1524e-07 0)
(2.31695e-08 -1.1524e-07 0)
(6.94526e-08 -1.15038e-07 0)
(1.15614e-07 -1.14634e-07 0)
(1.61572e-07 -1.14029e-07 0)
(2.07247e-07 -1.13224e-07 0)
(2.52559e-07 -1.1222e-07 0)
(2.97427e-07 -1.1102e-07 0)
(3.41774e-07 -1.09624e-07 0)
(3.85521e-07 -1.08037e-07 0)
(4.28592e-07 -1.0626e-07 0)
(4.70911e-07 -1.04296e-07 0)
(5.12404e-07 -1.0215e-07 0)
(5.52998e-07 -9.98241e-08 0)
(5.92622e-07 -9.73233e-08 0)
(6.31207e-07 -9.46518e-08 0)
(6.68684e-07 -9.18143e-08 0)
(7.04989e-07 -8.88157e-08 0)
(7.40057e-07 -8.56613e-08 0)
(7.73826e-07 -8.23567e-08 0)
(8.06238e-07 -7.89075e-08 0)
(8.37236e-07 -7.532e-08 0)
(8.66766e-07 -7.16004e-08 0)
(8.94775e-07 -6.77552e-08 0)
(9.21214e-07 -6.37911e-08 0)
(9.46037e-07 -5.97152e-08 0)
(9.69201e-07 -5.55345e-08 0)
(9.90665e-07 -5.12564e-08 0)
(1.01039e-06 -4.68884e-08 0)
(1.02834e-06 -4.24381e-08 0)
(1.04449e-06 -3.79134e-08 0)
(1.05881e-06 -3.33221e-08 0)
(1.07127e-06 -2.86724e-08 0)
(1.08185e-06 -2.39724e-08 0)
(1.09054e-06 -1.92303e-08 0)
(1.09731e-06 -1.44546e-08 0)
(1.10215e-06 -9.65348e-09 0)
(1.10506e-06 -4.83547e-09 0)
(1.10604e-06 -8.99201e-12 0)
(1.10507e-06 4.8175e-09 0)
(1.10217e-06 9.63555e-09 0)
(1.09733e-06 1.44367e-08 0)
(1.09056e-06 1.92125e-08 0)
(1.08189e-06 2.39547e-08 0)
(1.07131e-06 2.86548e-08 0)
(1.05886e-06 3.33047e-08 0)
(1.04455e-06 3.78961e-08 0)
(1.02841e-06 4.2421e-08 0)
(1.01046e-06 4.68715e-08 0)
(9.90741e-07 5.12398e-08 0)
(9.69284e-07 5.55183e-08 0)
(9.46126e-07 5.96993e-08 0)
(9.21309e-07 6.37756e-08 0)
(8.94876e-07 6.774e-08 0)
(8.66873e-07 7.15856e-08 0)
(8.3735e-07 7.53057e-08 0)
(8.06357e-07 7.88936e-08 0)
(7.7395e-07 8.23431e-08 0)
(7.40186e-07 8.56482e-08 0)
(7.05123e-07 8.8803e-08 0)
(6.68823e-07 9.18021e-08 0)
(6.3135e-07 9.46402e-08 0)
(5.9277e-07 9.73123e-08 0)
(5.5315e-07 9.98137e-08 0)
(5.12559e-07 1.0214e-07 0)
(4.7107e-07 1.04287e-07 0)
(4.28753e-07 1.06252e-07 0)
(3.85685e-07 1.08031e-07 0)
(3.4194e-07 1.09621e-07 0)
(2.97594e-07 1.1102e-07 0)
(2.52724e-07 1.12227e-07 0)
(2.07408e-07 1.13242e-07 0)
(1.61723e-07 1.14065e-07 0)
(1.15745e-07 1.147e-07 0)
(6.95481e-08 1.15152e-07 0)
(2.32024e-08 1.15425e-07 0)
(-2.3299e-08 1.62089e-07 0)
(-6.98545e-08 1.61678e-07 0)
(-1.16289e-07 1.61014e-07 0)
(-1.62515e-07 1.601e-07 0)
(-2.08452e-07 1.58924e-07 0)
(-2.54022e-07 1.57485e-07 0)
(-2.99143e-07 1.55779e-07 0)
(-3.43739e-07 1.53808e-07 0)
(-3.8773e-07 1.5157e-07 0)
(-4.3104e-07 1.4907e-07 0)
(-4.73594e-07 1.4631e-07 0)
(-5.15315e-07 1.43295e-07 0)
(-5.56133e-07 1.40029e-07 0)
(-5.95974e-07 1.36518e-07 0)
(-6.34769e-07 1.32768e-07 0)
(-6.7245e-07 1.28786e-07 0)
(-7.08952e-07 1.24577e-07 0)
(-7.4421e-07 1.20151e-07 0)
(-7.78161e-07 1.15514e-07 0)
(-8.10748e-07 1.10674e-07 0)
(-8.41912e-07 1.05641e-07 0)
(-8.71599e-07 1.00422e-07 0)
(-8.99758e-07 9.50271e-08 0)
(-9.26337e-07 8.94656e-08 0)
(-9.51292e-07 8.37472e-08 0)
(-9.74578e-07 7.78819e-08 0)
(-9.96154e-07 7.18801e-08 0)
(-1.01598e-06 6.57522e-08 0)
(-1.03403e-06 5.9509e-08 0)
(-1.05026e-06 5.31615e-08 0)
(-1.06465e-06 4.67207e-08 0)
(-1.07717e-06 4.0198e-08 0)
(-1.08781e-06 3.36048e-08 0)
(-1.09653e-06 2.69526e-08 0)
(-1.10333e-06 2.02532e-08 0)
(-1.1082e-06 1.35182e-08 0)
(-1.11112e-06 6.75953e-09 0)
(-1.11209e-06 -1.10298e-11 0)
(-1.11111e-06 -6.78156e-09 0)
(-1.10818e-06 -1.35402e-08 0)
(-1.10331e-06 -2.0275e-08 0)
(-1.0965e-06 -2.69743e-08 0)
(-1.08777e-06 -3.36262e-08 0)
(-1.07714e-06 -4.02192e-08 0)
(-1.06461e-06 -4.67416e-08 0)
(-1.05021e-06 -5.3182e-08 0)
(-1.03397e-06 -5.95291e-08 0)
(-1.01592e-06 -6.57718e-08 0)
(-9.96088e-07 -7.18991e-08 0)
(-9.74506e-07 -7.79004e-08 0)
(-9.51216e-07 -8.3765e-08 0)
(-9.26256e-07 -8.94826e-08 0)
(-8.99672e-07 -9.50433e-08 0)
(-8.71509e-07 -1.00437e-07 0)
(-8.41818e-07 -1.05655e-07 0)
(-8.1065e-07 -1.10687e-07 0)
(-7.7806e-07 -1.15526e-07 0)
(-7.44105e-07 -1.20161e-07 0)
(-7.08845e-07 -1.24586e-07 0)
(-6.72341e-07 -1.28792e-07 0)
(-6.34658e-07 -1.32773e-07 0)
(-5.95861e-07 -1.3652e-07 0)
(-5.5602e-07 -1.40028e-07 0)
(-5.15203e-07 -1.43291e-07 0)
(-4.73482e-07 -1.46302e-07 0)
(-4.3093e-07 -1.49056e-07 0)
(-3.87623e-07 -1.51549e-07 0)
(-3.43635e-07 -1.53776e-07 0)
(-2.99045e-07 -1.55733e-07 0)
(-2.5393e-07 -1.57417e-07 0)
(-2.0837e-07 -1.58825e-07 0)
(-1.62444e-07 -1.59954e-07 0)
(-1.16233e-07 -1.60803e-07 0)
(-6.98186e-08 -1.6137e-07 0)
(-2.32814e-08 -1.61653e-07 0)
(2.32967e-08 -1.61653e-07 0)
(6.9834e-08 -1.6137e-07 0)
(1.16249e-07 -1.60803e-07 0)
(1.6246e-07 -1.59954e-07 0)
(2.08385e-07 -1.58825e-07 0)
(2.53946e-07 -1.57417e-07 0)
(2.99061e-07 -1.55733e-07 0)
(3.43651e-07 -1.53776e-07 0)
(3.87638e-07 -1.51549e-07 0)
(4.30946e-07 -1.49056e-07 0)
(4.73497e-07 -1.46302e-07 0)
(5.15218e-07 -1.43291e-07 0)
(5.56035e-07 -1.40028e-07 0)
(5.95877e-07 -1.3652e-07 0)
(6.34674e-07 -1.32773e-07 0)
(6.72357e-07 -1.28793e-07 0)
(7.08861e-07 -1.24586e-07 0)
(7.44121e-07 -1.20162e-07 0)
(7.78076e-07 -1.15526e-07 0)
(8.10666e-07 -1.10688e-07 0)
(8.41835e-07 -1.05655e-07 0)
(8.71526e-07 -1.00438e-07 0)
(8.99689e-07 -9.50438e-08 0)
(9.26273e-07 -8.94832e-08 0)
(9.51233e-07 -8.37657e-08 0)
(9.74524e-07 -7.79012e-08 0)
(9.96105e-07 -7.19001e-08 0)
(1.01594e-06 -6.57728e-08 0)
(1.03399e-06 -5.95301e-08 0)
(1.05023e-06 -5.3183e-08 0)
(1.06463e-06 -4.67426e-08 0)
(1.07715e-06 -4.02202e-08 0)
(1.08779e-06 -3.36273e-08 0)
(1.09652e-06 -2.69754e-08 0)
(1.10333e-06 -2.02762e-08 0)
(1.1082e-06 -1.35414e-08 0)
(1.11113e-06 -6.78297e-09 0)
(1.11211e-06 -1.26073e-11 0)
(1.11114e-06 6.75777e-09 0)
(1.10822e-06 1.35163e-08 0)
(1.10335e-06 2.02511e-08 0)
(1.09655e-06 2.69504e-08 0)
(1.08783e-06 3.36025e-08 0)
(1.0772e-06 4.01956e-08 0)
(1.06468e-06 4.67182e-08 0)
(1.05029e-06 5.31588e-08 0)
(1.03406e-06 5.95061e-08 0)
(1.01601e-06 6.57491e-08 0)
(9.96182e-07 7.18767e-08 0)
(9.74607e-07 7.78783e-08 0)
(9.51323e-07 8.37432e-08 0)
(9.26369e-07 8.94613e-08 0)
(8.99791e-07 9.50224e-08 0)
(8.71634e-07 1.00417e-07 0)
(8.41948e-07 1.05635e-07 0)
(8.10786e-07 1.10668e-07 0)
(7.78201e-07 1.15507e-07 0)
(7.44251e-07 1.20143e-07 0)
(7.08995e-07 1.24569e-07 0)
(6.72496e-07 1.28776e-07 0)
(6.34818e-07 1.32757e-07 0)
(5.96025e-07 1.36505e-07 0)
(5.56188e-07 1.40014e-07 0)
(5.15374e-07 1.43277e-07 0)
(4.73657e-07 1.46289e-07 0)
(4.31108e-07 1.49045e-07 0)
(3.87803e-07 1.5154e-07 0)
(3.43818e-07 1.53771e-07 0)
(2.99228e-07 1.55733e-07 0)
(2.54112e-07 1.57427e-07 0)
(2.08547e-07 1.5885e-07 0)
(1.62611e-07 1.60005e-07 0)
(1.1638e-07 1.60896e-07 0)
(6.99294e-08 1.6153e-07 0)
(2.33296e-08 1.61912e-07 0)
(-2.34752e-08 2.08842e-07 0)
(-7.03747e-08 2.08333e-07 0)
(-1.1714e-07 2.07496e-07 0)
(-1.63692e-07 2.06328e-07 0)
(-2.09953e-07 2.04822e-07 0)
(-2.55843e-07 2.02973e-07 0)
(-3.01283e-07 2.00779e-07 0)
(-3.46194e-07 1.9824e-07 0)
(-3.90496e-07 1.95359e-07 0)
(-4.34113e-07 1.92137e-07 0)
(-4.76968e-07 1.88581e-07 0)
(-5.18986e-07 1.84695e-07 0)
(-5.60093e-07 1.80485e-07 0)
(-6.00217e-07 1.7596e-07 0)
(-6.39288e-07 1.71127e-07 0)
(-6.77237e-07 1.65994e-07 0)
(-7.13998e-07 1.6057e-07 0)
(-7.49507e-07 1.54865e-07 0)
(-7.837e-07 1.48888e-07 0)
(-8.16518e-07 1.4265e-07 0)
(-8.47904e-07 1.36163e-07 0)
(-8.77802e-07 1.29436e-07 0)
(-9.06161e-07 1.22482e-07 0)
(-9.3293e-07 1.15314e-07 0)
(-9.58062e-07 1.07944e-07 0)
(-9.81513e-07 1.00384e-07 0)
(-1.00324e-06 9.26479e-08 0)
(-1.02321e-06 8.47495e-08 0)
(-1.04139e-06 7.67025e-08 0)
(-1.05773e-06 6.85211e-08 0)
(-1.07223e-06 6.02194e-08 0)
(-1.08484e-06 5.18121e-08 0)
(-1.09555e-06 4.3314e-08 0)
(-1.10433e-06 3.47398e-08 0)
(-1.11118e-06 2.61048e-08 0)
(-1.11608e-06 1.74239e-08 0)
(-1.11902e-06 8.71249e-09 0)
(-1.12e-06 -1.42222e-11 0)
(-1.11902e-06 -8.7409e-09 0)
(-1.11607e-06 -1.74522e-08 0)
(-1.11116e-06 -2.61329e-08 0)
(-1.10431e-06 -3.47678e-08 0)
(-1.09552e-06 -4.33416e-08 0)
(-1.0848e-06 -5.18394e-08 0)
(-1.07218e-06 -6.02463e-08 0)
(-1.05769e-06 -6.85475e-08 0)
(-1.04133e-06 -7.67284e-08 0)
(-1.02315e-06 -8.47748e-08 0)
(-1.00318e-06 -9.26725e-08 0)
(-9.81441e-07 -1.00408e-07 0)
(-9.57985e-07 -1.07967e-07 0)
(-9.32848e-07 -1.15336e-07 0)
(-9.06074e-07 -1.22503e-07 0)
(-8.77711e-07 -1.29456e-07 0)
(-8.47809e-07 -1.36181e-07 0)
(-8.16419e-07 -1.42668e-07 0)
(-7.83597e-07 -1.48904e-07 0)
(-7.494e-07 -1.54879e-07 0)
(-7.13889e-07 -1.60582e-07 0)
(-6.77126e-07 -1.66003e-07 0)
(-6.39174e-07 -1.71134e-07 0)
(-6.00102e-07 -1.75964e-07 0)
(-5.59977e-07 -1.80486e-07 0)
(-5.18869e-07 -1.84691e-07 0)
(-4.76851e-07 -1.88571e-07 0)
(-4.33997e-07 -1.92122e-07 0)
(-3.90381e-07 -1.95335e-07 0)
(-3.46081e-07 -1.98205e-07 0)
(-3.01173e-07 -2.00728e-07 0)
(-2.55737e-07 -2.02899e-07 0)
(-2.09853e-07 -2.04713e-07 0)
(-1.636e-07 -2.06169e-07 0)
(-1.17061e-07 -2.07263e-07 0)
(-7.03155e-08 -2.07993e-07 0)
(-2.34471e-08 -2.08359e-07 0)
(2.34624e-08 -2.08359e-07 0)
(7.03308e-08 -2.07993e-07 0)
(1.17076e-07 -2.07263e-07 0)
(1.63616e-07 -2.06169e-07 0)
(2.09868e-07 -2.04713e-07 0)
(2.55753e-07 -2.02899e-07 0)
(3.01189e-07 -2.00728e-07 0)
(3.46096e-07 -1.98205e-07 0)
(3.90397e-07 -1.95335e-07 0)
(4.34012e-07 -1.92122e-07 0)
(4.76867e-07 -1.88572e-07 0)
(5.18885e-07 -1.84691e-07 0)
(5.59992e-07 -1.80486e-07 0)
(6.00118e-07 -1.75964e-07 0)
(6.3919e-07 -1.71134e-07 0)
(6.77142e-07 -1.66004e-07 0)
(7.13905e-07 -1.60582e-07 0)
(7.49416e-07 -1.54879e-07 0)
(7.83613e-07 -1.48904e-07 0)
(8.16435e-07 -1.42668e-07 0)
(8.47825e-07 -1.36182e-07 0)
(8.77728e-07 -1.29457e-07 0)
(9.06091e-07 -1.22504e-07 0)
(9.32865e-07 -1.15337e-07 0)
(9.58002e-07 -1.07968e-07 0)
(9.81459e-07 -1.00409e-07 0)
(1.00319e-06 -9.26736e-08 0)
(1.02317e-06 -8.4776e-08 0)
(1.04135e-06 -7.67297e-08 0)
(1.0577e-06 -6.85487e-08 0)
(1.0722e-06 -6.02476e-08 0)
(1.08482e-06 -5.18407e-08 0)
(1.09553e-06 -4.3343e-08 0)
(1.10433e-06 -3.47692e-08 0)
(1.11118e-06 -2.61344e-08 0)
(1.11609e-06 -1.74539e-08 0)
(1.11904e-06 -8.74272e-09 0)
(1.12003e-06 -1.62332e-11 0)
(1.11905e-06 8.71028e-09 0)
(1.1161e-06 1.74215e-08 0)
(1.11121e-06 2.61022e-08 0)
(1.10436e-06 3.47371e-08 0)
(1.09557e-06 4.3311e-08 0)
(1.08486e-06 5.1809e-08 0)
(1.07225e-06 6.02161e-08 0)
(1.05776e-06 6.85176e-08 0)
(1.04141e-06 7.66988e-08 0)
(1.02324e-06 8.47455e-08 0)
(1.00327e-06 9.26436e-08 0)
(9.81542e-07 1.00379e-07 0)
(9.58092e-07 1.07939e-07 0)
(9.32961e-07 1.15309e-07 0)
(9.06194e-07 1.22477e-07 0)
(8.77836e-07 1.2943e-07 0)
(8.47939e-07 1.36156e-07 0)
(8.16555e-07 1.42643e-07 0)
(7.83738e-07 1.48879e-07 0)
(7.49547e-07 1.54855e-07 0)
(7.14041e-07 1.60559e-07 0)
(6.77282e-07 1.65982e-07 0)
(6.39335e-07 1.71113e-07 0)
(6.00267e-07 1.75944e-07 0)
(5.60145e-07 1.80467e-07 0)
(5.19042e-07 1.84673e-07 0)
(4.77027e-07 1.88556e-07 0)
(4.34176e-07 1.92108e-07 0)
(3.90563e-07 1.95324e-07 0)
(3.46264e-07 1.98198e-07 0)
(3.01357e-07 2.00728e-07 0)
(2.5592e-07 2.02911e-07 0)
(2.10031e-07 2.04746e-07 0)
(1.63768e-07 2.06235e-07 0)
(1.17208e-07 2.07383e-07 0)
(7.04267e-08 2.082e-07 0)
(2.34955e-08 2.08692e-07 0)
(-2.36877e-08 2.55972e-07 0)
(-7.10069e-08 2.55358e-07 0)
(-1.18183e-07 2.54343e-07 0)
(-1.65142e-07 2.5292e-07 0)
(-2.11806e-07 2.51081e-07 0)
(-2.58096e-07 2.48819e-07 0)
(-3.03932e-07 2.46133e-07 0)
(-3.49234e-07 2.43024e-07 0)
(-3.93923e-07 2.39492e-07 0)
(-4.3792e-07 2.35544e-07 0)
(-4.81149e-07 2.31185e-07 0)
(-5.23534e-07 2.26422e-07 0)
(-5.65e-07 2.21262e-07 0)
(-6.05475e-07 2.15715e-07 0)
(-6.44888e-07 2.0979e-07 0)
(-6.83169e-07 2.03498e-07 0)
(-7.20252e-07 1.96848e-07 0)
(-7.56071e-07 1.89854e-07 0)
(-7.90563e-07 1.82527e-07 0)
(-8.23669e-07 1.7488e-07 0)
(-8.55329e-07 1.66926e-07 0)
(-8.85489e-07 1.5868e-07 0)
(-9.14096e-07 1.50156e-07 0)
(-9.41099e-07 1.41368e-07 0)
(-9.66451e-07 1.32332e-07 0)
(-9.90108e-07 1.23064e-07 0)
(-1.01203e-06 1.1358e-07 0)
(-1.03217e-06 1.03897e-07 0)
(-1.05051e-06 9.40324e-08 0)
(-1.067e-06 8.40024e-08 0)
(-1.08162e-06 7.38251e-08 0)
(-1.09434e-06 6.35183e-08 0)
(-1.10514e-06 5.31001e-08 0)
(-1.114e-06 4.25888e-08 0)
(-1.12091e-06 3.20027e-08 0)
(-1.12586e-06 2.13606e-08 0)
(-1.12882e-06 1.06809e-08 0)
(-1.12981e-06 -1.74321e-11 0)
(-1.12882e-06 -1.07158e-08 0)
(-1.12584e-06 -2.13953e-08 0)
(-1.12089e-06 -3.20372e-08 0)
(-1.11398e-06 -4.2623e-08 0)
(-1.10511e-06 -5.3134e-08 0)
(-1.0943e-06 -6.35518e-08 0)
(-1.08157e-06 -7.38581e-08 0)
(-1.06695e-06 -8.40348e-08 0)
(-1.05045e-06 -9.40642e-08 0)
(-1.03211e-06 -1.03929e-07 0)
(-1.01196e-06 -1.13611e-07 0)
(-9.90035e-07 -1.23093e-07 0)
(-9.66373e-07 -1.3236e-07 0)
(-9.41016e-07 -1.41395e-07 0)
(-9.14008e-07 -1.50181e-07 0)
(-8.85397e-07 -1.58705e-07 0)
(-8.55232e-07 -1.66949e-07 0)
(-8.23568e-07 -1.74901e-07 0)
(-7.90458e-07 -1.82546e-07 0)
(-7.55962e-07 -1.89871e-07 0)
(-7.2014e-07 -1.96863e-07 0)
(-6.83055e-07 -2.0351e-07 0)
(-6.44771e-07 -2.09799e-07 0)
(-6.05357e-07 -2.15721e-07 0)
(-5.6488e-07 -2.21264e-07 0)
(-5.23413e-07 -2.26419e-07 0)
(-4.81027e-07 -2.31177e-07 0)
(-4.37797e-07 -2.35529e-07 0)
(-3.938e-07 -2.39468e-07 0)
(-3.49111e-07 -2.42987e-07 0)
(-3.03811e-07 -2.4608e-07 0)
(-2.57977e-07 -2.48741e-07 0)
(-2.1169e-07 -2.50965e-07 0)
(-1.65033e-07 -2.5275e-07 0)
(-1.18086e-07 -2.54091e-07 0)
(-7.09313e-08 -2.54986e-07 0)
(-2.36525e-08 -2.55434e-07 0)
(2.36678e-08 -2.55434e-07 0)
(7.09466e-08 -2.54986e-07 0)
(1.18101e-07 -2.54091e-07 0)
(1.65048e-07 -2.5275e-07 0)
(2.11706e-07 -2.50965e-07 0)
(2.57992e-07 -2.48741e-07 0)
(3.03826e-07 -2.4608e-07 0)
(3.49127e-07 -2.42987e-07 0)
(3.93815e-07 -2.39468e-07 0)
(4.37813e-07 -2.35529e-07 0)
(4.81042e-07 -2.31177e-07 0)
(5.23428e-07 -2.26419e-07 0)
(5.64896e-07 -2.21264e-07 0)
(6.05372e-07 -2.15721e-07 0)
(6.44787e-07 -2.098e-07 0)
(6.83071e-07 -2.0351e-07 0)
(7.20156e-07 -1.96864e-07 0)
(7.55978e-07 -1.89872e-07 0)
(7.90475e-07 -1.82547e-07 0)
(8.23584e-07 -1.74902e-07 0)
(8.55249e-07 -1.6695e-07 0)
(8.85413e-07 -1.58706e-07 0)
(9.14025e-07 -1.50182e-07 0)
(9.41033e-07 -1.41396e-07 0)
(9.6639e-07 -1.32361e-07 0)
(9.90052e-07 -1.23095e-07 0)
(1.01198e-06 -1.13612e-07 0)
(1.03213e-06 -1.0393e-07 0)
(1.05047e-06 -9.40656e-08 0)
(1.06696e-06 -8.40363e-08 0)
(1.08159e-06 -7.38596e-08 0)
(1.09432e-06 -6.35534e-08 0)
(1.10513e-06 -5.31357e-08 0)
(1.114e-06 -4.26248e-08 0)
(1.12091e-06 -3.20392e-08 0)
(1.12586e-06 -2.13974e-08 0)
(1.12884e-06 -1.0718e-08 0)
(1.12983e-06 -1.98767e-11 0)
(1.12884e-06 1.06783e-08 0)
(1.12588e-06 2.13577e-08 0)
(1.12093e-06 3.19997e-08 0)
(1.11403e-06 4.25855e-08 0)
(1.10516e-06 5.30966e-08 0)
(1.09436e-06 6.35146e-08 0)
(1.08164e-06 7.38211e-08 0)
(1.06702e-06 8.39982e-08 0)
(1.05053e-06 9.40279e-08 0)
(1.0322e-06 1.03893e-07 0)
(1.01206e-06 1.13575e-07 0)
(9.90137e-07 1.23058e-07 0)
(9.66481e-07 1.32326e-07 0)
(9.4113e-07 1.41361e-07 0)
(9.14128e-07 1.50148e-07 0)
(8.85523e-07 1.58672e-07 0)
(8.55364e-07 1.66918e-07 0)
(8.23705e-07 1.74871e-07 0)
(7.90601e-07 1.82517e-07 0)
(7.5611e-07 1.89843e-07 0)
(7.20293e-07 1.96836e-07 0)
(6.83212e-07 2.03483e-07 0)
(6.44933e-07 2.09774e-07 0)
(6.05523e-07 2.15697e-07 0)
(5.6505e-07 2.21241e-07 0)
(5.23586e-07 2.26398e-07 0)
(4.81204e-07 2.31157e-07 0)
(4.37978e-07 2.35512e-07 0)
(3.93983e-07 2.39454e-07 0)
(3.49296e-07 2.42978e-07 0)
(3.03996e-07 2.4608e-07 0)
(2.58161e-07 2.48756e-07 0)
(2.1187e-07 2.51005e-07 0)
(1.65201e-07 2.52831e-07 0)
(1.18234e-07 2.54239e-07 0)
(7.10432e-08 2.5524e-07 0)
(2.37012e-08 2.55842e-07 0)
(-2.39382e-08 3.03556e-07 0)
(-7.17554e-08 3.02835e-07 0)
(-1.19424e-07 3.01637e-07 0)
(-1.66871e-07 2.99957e-07 0)
(-2.1402e-07 2.97781e-07 0)
(-2.60789e-07 2.95103e-07 0)
(-3.071e-07 2.9192e-07 0)
(-3.52872e-07 2.88234e-07 0)
(-3.98024e-07 2.84048e-07 0)
(-4.42478e-07 2.79366e-07 0)
(-4.86156e-07 2.74197e-07 0)
(-5.2898e-07 2.68548e-07 0)
(-5.70877e-07 2.62429e-07 0)
(-6.11772e-07 2.5585e-07 0)
(-6.51594e-07 2.48823e-07 0)
(-6.90273e-07 2.4136e-07 0)
(-7.27741e-07 2.33474e-07 0)
(-7.63932e-07 2.25178e-07 0)
(-7.98782e-07 2.16488e-07 0)
(-8.32232e-07 2.07418e-07 0)
(-8.64222e-07 1.97985e-07 0)
(-8.94695e-07 1.88204e-07 0)
(-9.23599e-07 1.78093e-07 0)
(-9.50882e-07 1.67671e-07 0)
(-9.76498e-07 1.56954e-07 0)
(-1.0004e-06 1.45961e-07 0)
(-1.02255e-06 1.34713e-07 0)
(-1.0429e-06 1.23229e-07 0)
(-1.06143e-06 1.11528e-07 0)
(-1.07809e-06 9.9632e-08 0)
(-1.09286e-06 8.7561e-08 0)
(-1.10571e-06 7.53365e-08 0)
(-1.11663e-06 6.29799e-08 0)
(-1.12558e-06 5.05128e-08 0)
(-1.13256e-06 3.79571e-08 0)
(-1.13756e-06 2.53349e-08 0)
(-1.14056e-06 1.26682e-08 0)
(-1.14156e-06 -2.06721e-11 0)
(-1.14055e-06 -1.27095e-08 0)
(-1.13755e-06 -2.53761e-08 0)
(-1.13254e-06 -3.79981e-08 0)
(-1.12556e-06 -5.05535e-08 0)
(-1.1166e-06 -6.30202e-08 0)
(-1.10567e-06 -7.53763e-08 0)
(-1.09281e-06 -8.76002e-08 0)
(-1.07804e-06 -9.96705e-08 0)
(-1.06137e-06 -1.11566e-07 0)
(-1.04284e-06 -1.23266e-07 0)
(-1.02248e-06 -1.34749e-07 0)
(-1.00033e-06 -1.45996e-07 0)
(-9.76419e-07 -1.56987e-07 0)
(-9.50798e-07 -1.67703e-07 0)
(-9.23509e-07 -1.78124e-07 0)
(-8.94601e-07 -1.88233e-07 0)
(-8.64123e-07 -1.98012e-07 0)
(-8.32129e-07 -2.07444e-07 0)
(-7.98675e-07 -2.16511e-07 0)
(-7.63821e-07 -2.25199e-07 0)
(-7.27626e-07 -2.33492e-07 0)
(-6.90156e-07 -2.41375e-07 0)
(-6.51474e-07 -2.48835e-07 0)
(-6.1165e-07 -2.55858e-07 0)
(-5.70752e-07 -2.62433e-07 0)
(-5.28854e-07 -2.68547e-07 0)
(-4.86027e-07 -2.7419e-07 0)
(-4.42348e-07 -2.79352e-07 0)
(-3.97893e-07 -2.84024e-07 0)
(-3.52741e-07 -2.88197e-07 0)
(-3.06969e-07 -2.91866e-07 0)
(-2.60659e-07 -2.95022e-07 0)
(-2.13891e-07 -2.9766e-07 0)
(-1.66748e-07 -2.99777e-07 0)
(-1.19313e-07 -3.01368e-07 0)
(-7.16687e-08 -3.0243e-07 0)
(-2.38985e-08 -3.02961e-07 0)
(2.39137e-08 -3.02961e-07 0)
(7.1684e-08 -3.0243e-07 0)
(1.19329e-07 -3.01368e-07 0)
(1.66764e-07 -2.99777e-07 0)
(2.13906e-07 -2.9766e-07 0)
(2.60674e-07 -2.95022e-07 0)
(3.06984e-07 -2.91866e-07 0)
(3.52756e-07 -2.88198e-07 0)
(3.97909e-07 -2.84024e-07 0)
(4.42364e-07 -2.79352e-07 0)
(4.86043e-07 -2.7419e-07 0)
(5.28869e-07 -2.68547e-07 0)
(5.70768e-07 -2.62433e-07 0)
(6.11665e-07 -2.55859e-07 0)
(6.5149e-07 -2.48835e-07 0)
(6.90171e-07 -2.41376e-07 0)
(7.27642e-07 -2.33493e-07 0)
(7.63837e-07 -2.252e-07 0)
(7.98692e-07 -2.16512e-07 0)
(8.32145e-07 -2.07445e-07 0)
(8.64139e-07 -1.98013e-07 0)
(8.94617e-07 -1.88235e-07 0)
(9.23526e-07 -1.78126e-07 0)
(9.50815e-07 -1.67704e-07 0)
(9.76436e-07 -1.56989e-07 0)
(1.00034e-06 -1.45998e-07 0)
(1.0225e-06 -1.34751e-07 0)
(1.04286e-06 -1.23267e-07 0)
(1.06139e-06 -1.11568e-07 0)
(1.07806e-06 -9.96722e-08 0)
(1.09283e-06 -8.76021e-08 0)
(1.10569e-06 -7.53783e-08 0)
(1.11661e-06 -6.30222e-08 0)
(1.12558e-06 -5.05557e-08 0)
(1.13256e-06 -3.80005e-08 0)