/*--------------------------------*- C++ -*----------------------------------*\
| =========                 |                                                 |
| \\      /  F ield         | OpenFOAM: The Open Source CFD Toolbox           |
|  \\    /   O peration     | Version:  2106                                  |
|   \\  /    A nd           | Website:  www.openfoam.com                      |
|    \\/     M anipulation  |                                                 |
\*---------------------------------------------------------------------------*/
FoamFile
{
    version     2.0;
    format      ascii;
    arch        "LSB;label=32;scalar=64";
    class       volVectorField;
    location    "0.4";
    object      U_0;
}
// * * * * * * * * * * * * * * * * * * * * * * * * * * * * * * * * * * * * * //

dimensions      [0 1 -1 0 0 0 0];

internalField   nonuniform List<vector> 
90000
(
(-2.28453e-08 2.32294e-08 0)
(-6.87329e-08 2.30693e-08 0)
(-1.14743e-07 2.29287e-08 0)
(-1.60484e-07 2.27842e-08 0)
(-2.05898e-07 2.26096e-08 0)
(-2.5094e-07 2.24003e-08 0)
(-2.95535e-07 2.21554e-08 0)
(-3.39606e-07 2.18737e-08 0)
(-3.83077e-07 2.1555e-08 0)
(-4.25873e-07 2.11991e-08 0)
(-4.6792e-07 2.08064e-08 0)
(-5.09145e-07 2.03774e-08 0)
(-5.49475e-07 1.99129e-08 0)
(-5.88841e-07 1.94136e-08 0)
(-6.27173e-07 1.88803e-08 0)
(-6.64404e-07 1.83139e-08 0)
(-7.0047e-07 1.77155e-08 0)
(-7.35306e-07 1.7086e-08 0)
(-7.68852e-07 1.64266e-08 0)
(-8.0105e-07 1.57384e-08 0)
(-8.31841e-07 1.50226e-08 0)
(-8.61174e-07 1.42804e-08 0)
(-8.88995e-07 1.35132e-08 0)
(-9.15257e-07 1.27224e-08 0)
(-9.39913e-07 1.19092e-08 0)
(-9.62921e-07 1.10751e-08 0)
(-9.84239e-07 1.02216e-08 0)
(-1.00383e-06 9.35022e-09 0)
(-1.02166e-06 8.46241e-09 0)
(-1.0377e-06 7.55976e-09 0)
(-1.05192e-06 6.64385e-09 0)
(-1.06429e-06 5.71629e-09 0)
(-1.07479e-06 4.77871e-09 0)
(-1.08341e-06 3.83275e-09 0)
(-1.09013e-06 2.88007e-09 0)
(-1.09494e-06 1.92234e-09 0)
(-1.09783e-06 9.61241e-10 0)
(-1.09879e-06 -1.5479e-12 0)
(-1.09782e-06 -9.64337e-10 0)
(-1.09493e-06 -1.92544e-09 0)
(-1.09012e-06 -2.88316e-09 0)
(-1.08339e-06 -3.83582e-09 0)
(-1.07476e-06 -4.78176e-09 0)
(-1.06425e-06 -5.7193e-09 0)
(-1.05187e-06 -6.6468e-09 0)
(-1.03765e-06 -7.56265e-09 0)
(-1.02161e-06 -8.46523e-09 0)
(-1.00377e-06 -9.35296e-09 0)
(-9.84174e-07 -1.02243e-08 0)
(-9.62851e-07 -1.10777e-08 0)
(-9.39839e-07 -1.19116e-08 0)
(-9.15178e-07 -1.27247e-08 0)
(-8.88911e-07 -1.35155e-08 0)
(-8.61086e-07 -1.42825e-08 0)
(-8.3175e-07 -1.50245e-08 0)
(-8.00954e-07 -1.57401e-08 0)
(-7.68754e-07 -1.64281e-08 0)
(-7.35205e-07 -1.70873e-08 0)
(-7.00367e-07 -1.77165e-08 0)
(-6.643e-07 -1.83147e-08 0)
(-6.27067e-07 -1.88807e-08 0)
(-5.88735e-07 -1.94136e-08 0)
(-5.49369e-07 -1.99124e-08 0)
(-5.0904e-07 -2.03764e-08 0)
(-4.67819e-07 -2.08045e-08 0)
(-4.25776e-07 -2.11962e-08 0)
(-3.82987e-07 -2.15507e-08 0)
(-3.39525e-07 -2.18674e-08 0)
(-2.95468e-07 -2.21457e-08 0)
(-2.50893e-07 -2.23852e-08 0)
(-2.05878e-07 -2.25854e-08 0)
(-1.60501e-07 -2.2746e-08 0)
(-1.14843e-07 -2.28667e-08 0)
(-6.89834e-08 -2.29473e-08 0)
(-2.30027e-08 -2.29876e-08 0)
(2.30183e-08 -2.29876e-08 0)
(6.8999e-08 -2.29473e-08 0)
(1.14859e-07 -2.28667e-08 0)
(1.60517e-07 -2.2746e-08 0)
(2.05893e-07 -2.25854e-08 0)
(2.50909e-07 -2.23852e-08 0)
(2.95484e-07 -2.21457e-08 0)
(3.39541e-07 -2.18674e-08 0)
(3.83002e-07 -2.15507e-08 0)
(4.25792e-07 -2.11962e-08 0)
(4.67834e-07 -2.08046e-08 0)
(5.09056e-07 -2.03764e-08 0)
(5.49385e-07 -1.99125e-08 0)
(5.88751e-07 -1.94136e-08 0)
(6.27083e-07 -1.88807e-08 0)
(6.64316e-07 -1.83147e-08 0)
(7.00383e-07 -1.77166e-08 0)
(7.35222e-07 -1.70874e-08 0)
(7.68771e-07 -1.64282e-08 0)
(8.00971e-07 -1.57402e-08 0)
(8.31766e-07 -1.50245e-08 0)
(8.61103e-07 -1.42826e-08 0)
(8.88929e-07 -1.35155e-08 0)
(9.15195e-07 -1.27248e-08 0)
(9.39856e-07 -1.19117e-08 0)
(9.62869e-07 -1.10778e-08 0)
(9.84192e-07 -1.02244e-08 0)
(1.00379e-06 -9.3531e-09 0)
(1.02163e-06 -8.46538e-09 0)
(1.03767e-06 -7.56281e-09 0)
(1.05189e-06 -6.64698e-09 0)
(1.06427e-06 -5.71947e-09 0)
(1.07478e-06 -4.78194e-09 0)
(1.08341e-06 -3.83601e-09 0)
(1.09014e-06 -2.88335e-09 0)
(1.09495e-06 -1.92564e-09 0)
(1.09784e-06 -9.64558e-10 0)
(1.09881e-06 -1.7849e-12 0)
(1.09785e-06 9.60987e-10 0)
(1.09496e-06 1.92207e-09 0)
(1.09016e-06 2.87978e-09 0)
(1.08344e-06 3.83245e-09 0)
(1.07482e-06 4.77839e-09 0)
(1.06431e-06 5.71595e-09 0)
(1.05194e-06 6.64348e-09 0)
(1.03773e-06 7.55937e-09 0)
(1.02169e-06 8.46199e-09 0)
(1.00386e-06 9.34977e-09 0)
(9.84268e-07 1.02211e-08 0)
(9.62951e-07 1.10746e-08 0)
(9.39945e-07 1.19086e-08 0)
(9.1529e-07 1.27217e-08 0)
(8.8903e-07 1.35125e-08 0)
(8.6121e-07 1.42796e-08 0)
(8.31879e-07 1.50217e-08 0)
(8.01089e-07 1.57374e-08 0)
(7.68894e-07 1.64255e-08 0)
(7.3535e-07 1.70848e-08 0)
(7.00516e-07 1.77141e-08 0)
(6.64454e-07 1.83124e-08 0)
(6.27225e-07 1.88785e-08 0)
(5.88897e-07 1.94115e-08 0)
(5.49536e-07 1.99105e-08 0)
(5.0921e-07 2.03745e-08 0)
(4.67992e-07 2.08029e-08 0)
(4.25952e-07 2.11948e-08 0)
(3.83165e-07 2.15496e-08 0)
(3.39705e-07 2.18669e-08 0)
(2.95649e-07 2.2146e-08 0)
(2.51072e-07 2.23868e-08 0)
(2.06051e-07 2.25893e-08 0)
(1.60664e-07 2.27535e-08 0)
(1.14986e-07 2.28799e-08 0)
(6.90919e-08 2.29701e-08 0)
(2.30493e-08 2.30256e-08 0)
(-2.30054e-08 6.94917e-08 0)
(-6.90579e-08 6.91663e-08 0)
(-1.15085e-07 6.88098e-08 0)
(-1.60892e-07 6.83938e-08 0)
(-2.064e-07 6.78776e-08 0)
(-2.51541e-07 6.7254e-08 0)
(-2.96236e-07 6.65209e-08 0)
(-3.40408e-07 6.56763e-08 0)
(-3.83979e-07 6.47196e-08 0)
(-4.26875e-07 6.36512e-08 0)
(-4.6902e-07 6.24723e-08 0)
(-5.10341e-07 6.11844e-08 0)
(-5.50766e-07 5.97897e-08 0)
(-5.90223e-07 5.82905e-08 0)
(-6.28645e-07 5.66893e-08 0)
(-6.65964e-07 5.49887e-08 0)
(-7.02114e-07 5.31919e-08 0)
(-7.37032e-07 5.13019e-08 0)
(-7.70657e-07 4.93219e-08 0)
(-8.0293e-07 4.72555e-08 0)
(-8.33793e-07 4.51063e-08 0)
(-8.63195e-07 4.28779e-08 0)
(-8.91081e-07 4.05744e-08 0)
(-9.17405e-07 3.81998e-08 0)
(-9.42119e-07 3.57581e-08 0)
(-9.6518e-07 3.32538e-08 0)
(-9.86548e-07 3.06912e-08 0)
(-1.00619e-06 2.80747e-08 0)
(-1.02406e-06 2.5409e-08 0)
(-1.04013e-06 2.26987e-08 0)
(-1.05439e-06 1.99486e-08 0)
(-1.06679e-06 1.71636e-08 0)
(-1.07732e-06 1.43485e-08 0)
(-1.08596e-06 1.15081e-08 0)
(-1.09269e-06 8.64765e-09 0)
(-1.09751e-06 5.77198e-09 0)
(-1.1004e-06 2.88619e-09 0)
(-1.10137e-06 -4.67383e-12 0)
(-1.1004e-06 -2.89553e-09 0)
(-1.0975e-06 -5.78131e-09 0)
(-1.09267e-06 -8.65694e-09 0)
(-1.08593e-06 -1.15174e-08 0)
(-1.07729e-06 -1.43576e-08 0)
(-1.06675e-06 -1.71726e-08 0)
(-1.05434e-06 -1.99575e-08 0)
(-1.04009e-06 -2.27074e-08 0)
(-1.024e-06 -2.54175e-08 0)
(-1.00613e-06 -2.8083e-08 0)
(-9.86484e-07 -3.06992e-08 0)
(-9.6511e-07 -3.32616e-08 0)
(-9.42044e-07 -3.57656e-08 0)
(-9.17325e-07 -3.82069e-08 0)
(-8.90997e-07 -4.05812e-08 0)
(-8.63106e-07 -4.28843e-08 0)
(-8.33701e-07 -4.51122e-08 0)
(-8.02834e-07 -4.72609e-08 0)
(-7.70558e-07 -4.93267e-08 0)
(-7.3693e-07 -5.1306e-08 0)
(-7.0201e-07 -5.31953e-08 0)
(-6.65858e-07 -5.49912e-08 0)
(-6.28539e-07 -5.66907e-08 0)
(-5.90116e-07 -5.82908e-08 0)
(-5.50659e-07 -5.97886e-08 0)
(-5.10235e-07 -6.11816e-08 0)
(-4.68916e-07 -6.24672e-08 0)
(-4.26775e-07 -6.36432e-08 0)
(-3.83885e-07 -6.47076e-08 0)
(-3.40322e-07 -6.56585e-08 0)
(-2.96162e-07 -6.64942e-08 0)
(-2.51482e-07 -6.72133e-08 0)
(-2.06361e-07 -6.78144e-08 0)
(-1.60878e-07 -6.82966e-08 0)
(-1.15113e-07 -6.8659e-08 0)
(-6.91453e-08 -6.89009e-08 0)
(-2.30567e-08 -6.9022e-08 0)
(2.30723e-08 -6.9022e-08 0)
(6.91609e-08 -6.8901e-08 0)
(1.15128e-07 -6.8659e-08 0)
(1.60893e-07 -6.82967e-08 0)
(2.06376e-07 -6.78145e-08 0)
(2.51497e-07 -6.72134e-08 0)
(2.96177e-07 -6.64943e-08 0)
(3.40338e-07 -6.56586e-08 0)
(3.83901e-07 -6.47077e-08 0)
(4.26791e-07 -6.36433e-08 0)
(4.68932e-07 -6.24673e-08 0)
(5.10251e-07 -6.11817e-08 0)
(5.50674e-07 -5.97888e-08 0)
(5.90132e-07 -5.8291e-08 0)
(6.28555e-07 -5.66909e-08 0)
(6.65874e-07 -5.49914e-08 0)
(7.02026e-07 -5.31954e-08 0)
(7.36947e-07 -5.13061e-08 0)
(7.70574e-07 -4.93268e-08 0)
(8.0285e-07 -4.7261e-08 0)
(8.33718e-07 -4.51123e-08 0)
(8.63123e-07 -4.28844e-08 0)
(8.91015e-07 -4.05814e-08 0)
(9.17343e-07 -3.82071e-08 0)
(9.42062e-07 -3.57659e-08 0)
(9.65128e-07 -3.32619e-08 0)
(9.86502e-07 -3.06996e-08 0)
(1.00614e-06 -2.80834e-08 0)
(1.02402e-06 -2.5418e-08 0)
(1.0401e-06 -2.27079e-08 0)
(1.05436e-06 -1.9958e-08 0)
(1.06677e-06 -1.71731e-08 0)
(1.07731e-06 -1.43581e-08 0)
(1.08595e-06 -1.15179e-08 0)
(1.09269e-06 -8.65746e-09 0)
(1.09752e-06 -5.78188e-09 0)
(1.10042e-06 -2.89616e-09 0)
(1.10139e-06 -5.37322e-12 0)
(1.10043e-06 2.88542e-09 0)
(1.09753e-06 5.77114e-09 0)
(1.09272e-06 8.64675e-09 0)
(1.08598e-06 1.15072e-08 0)
(1.07734e-06 1.43475e-08 0)
(1.06681e-06 1.71626e-08 0)
(1.05441e-06 1.99476e-08 0)
(1.04016e-06 2.26976e-08 0)
(1.02409e-06 2.54077e-08 0)
(1.00621e-06 2.80733e-08 0)
(9.86578e-07 3.06897e-08 0)
(9.65211e-07 3.32522e-08 0)
(9.42151e-07 3.57564e-08 0)
(9.17438e-07 3.81979e-08 0)
(8.91116e-07 4.05724e-08 0)
(8.6323e-07 4.28757e-08 0)
(8.33831e-07 4.51037e-08 0)
(8.02969e-07 4.72527e-08 0)
(7.70698e-07 4.93188e-08 0)
(7.37075e-07 5.12983e-08 0)
(7.0216e-07 5.31879e-08 0)
(6.66013e-07 5.49842e-08 0)
(6.28697e-07 5.6684e-08 0)
(5.90279e-07 5.82844e-08 0)
(5.50825e-07 5.97826e-08 0)
(5.10405e-07 6.1176e-08 0)
(4.6909e-07 6.24621e-08 0)
(4.26952e-07 6.36389e-08 0)
(3.84064e-07 6.47043e-08 0)
(3.40503e-07 6.56566e-08 0)
(2.96343e-07 6.64947e-08 0)
(2.51662e-07 6.72178e-08 0)
(2.06536e-07 6.78255e-08 0)
(1.61043e-07 6.83185e-08 0)
(1.15258e-07 6.86983e-08 0)
(6.92562e-08 6.89684e-08 0)
(2.31047e-08 6.91331e-08 0)
(-2.31462e-08 1.15632e-07 0)
(-6.94145e-08 1.15288e-07 0)
(-1.15586e-07 1.14786e-07 0)
(-1.61551e-07 1.14121e-07 0)
(-2.07228e-07 1.13275e-07 0)
(-2.52539e-07 1.12243e-07 0)
(-2.97404e-07 1.11024e-07 0)
(-3.41745e-07 1.09617e-07 0)
(-3.85484e-07 1.08021e-07 0)
(-4.28546e-07 1.06238e-07 0)
(-4.70855e-07 1.04271e-07 0)
(-5.12337e-07 1.02122e-07 0)
(-5.52919e-07 9.9794e-08 0)
(-5.9253e-07 9.72917e-08 0)
(-6.31102e-07 9.46192e-08 0)
(-6.68566e-07 9.17809e-08 0)
(-7.04857e-07 8.87819e-08 0)
(-7.39912e-07 8.56273e-08 0)
(-7.73668e-07 8.23226e-08 0)
(-8.06066e-07 7.88736e-08 0)
(-8.37051e-07 7.52863e-08 0)
(-8.66567e-07 7.1567e-08 0)
(-8.94562e-07 6.77223e-08 0)
(-9.20989e-07 6.37588e-08 0)
(-9.45799e-07 5.96835e-08 0)
(-9.68951e-07 5.55035e-08 0)
(-9.90402e-07 5.12262e-08 0)
(-1.01012e-06 4.68591e-08 0)
(-1.02806e-06 4.24098e-08 0)
(-1.0442e-06 3.78862e-08 0)
(-1.0585e-06 3.32961e-08 0)
(-1.07095e-06 2.86476e-08 0)
(-1.08153e-06 2.39489e-08 0)
(-1.0902e-06 1.92081e-08 0)
(-1.09696e-06 1.44337e-08 0)
(-1.1018e-06 9.63395e-09 0)
(-1.1047e-06 4.81729e-09 0)
(-1.10567e-06 -7.8326e-12 0)
(-1.1047e-06 -4.83294e-09 0)
(-1.10179e-06 -9.64956e-09 0)
(-1.09694e-06 -1.44492e-08 0)
(-1.09017e-06 -1.92236e-08 0)
(-1.08149e-06 -2.39642e-08 0)
(-1.07092e-06 -2.86627e-08 0)
(-1.05846e-06 -3.3311e-08 0)
(-1.04415e-06 -3.79008e-08 0)
(-1.028e-06 -4.24241e-08 0)
(-1.01006e-06 -4.6873e-08 0)
(-9.90337e-07 -5.12398e-08 0)
(-9.6888e-07 -5.55166e-08 0)
(-9.45724e-07 -5.96961e-08 0)
(-9.20909e-07 -6.37708e-08 0)
(-8.94478e-07 -6.77337e-08 0)
(-8.66478e-07 -7.15778e-08 0)
(-8.36958e-07 -7.52963e-08 0)
(-8.0597e-07 -7.88827e-08 0)
(-7.73568e-07 -8.23307e-08 0)
(-7.39809e-07 -8.56343e-08 0)
(-7.04752e-07 -8.87877e-08 0)
(-6.68459e-07 -9.17854e-08 0)
(-6.30994e-07 -9.4622e-08 0)
(-5.92421e-07 -9.72927e-08 0)
(-5.5281e-07 -9.97927e-08 0)
(-5.12228e-07 -1.02118e-07 0)
(-4.70748e-07 -1.04263e-07 0)
(-4.28442e-07 -1.06226e-07 0)
(-3.85385e-07 -1.08003e-07 0)
(-3.41651e-07 -1.0959e-07 0)
(-2.97319e-07 -1.10985e-07 0)
(-2.52464e-07 -1.12185e-07 0)
(-2.07167e-07 -1.13188e-07 0)
(-1.61506e-07 -1.13993e-07 0)
(-1.15562e-07 -1.14598e-07 0)
(-6.94154e-08 -1.15002e-07 0)
(-2.31468e-08 -1.15204e-07 0)
(2.31624e-08 -1.15204e-07 0)
(6.9431e-08 -1.15002e-07 0)
(1.15578e-07 -1.14598e-07 0)
(1.61522e-07 -1.13993e-07 0)
(2.07183e-07 -1.13189e-07 0)
(2.5248e-07 -1.12185e-07 0)
(2.97334e-07 -1.10985e-07 0)
(3.41667e-07 -1.0959e-07 0)
(3.85401e-07 -1.08003e-07 0)
(4.28458e-07 -1.06227e-07 0)
(4.70764e-07 -1.04264e-07 0)
(5.12244e-07 -1.02118e-07 0)
(5.52825e-07 -9.97929e-08 0)
(5.92437e-07 -9.72929e-08 0)
(6.3101e-07 -9.46222e-08 0)
(6.68475e-07 -9.17856e-08 0)
(7.04769e-07 -8.8788e-08 0)
(7.39825e-07 -8.56345e-08 0)
(7.73584e-07 -8.23309e-08 0)
(8.05987e-07 -7.88829e-08 0)
(8.36975e-07 -7.52965e-08 0)
(8.66495e-07 -7.1578e-08 0)
(8.94495e-07 -6.7734e-08 0)
(9.20926e-07 -6.37712e-08 0)
(9.45741e-07 -5.96966e-08 0)
(9.68898e-07 -5.55172e-08 0)
(9.90355e-07 -5.12404e-08 0)
(1.01007e-06 -4.68738e-08 0)
(1.02802e-06 -4.24249e-08 0)
(1.04417e-06 -3.79015e-08 0)
(1.05848e-06 -3.33117e-08 0)
(1.07094e-06 -2.86634e-08 0)
(1.08151e-06 -2.39649e-08 0)
(1.09019e-06 -1.92243e-08 0)
(1.09696e-06 -1.44501e-08 0)
(1.10181e-06 -9.65046e-09 0)
(1.10472e-06 -4.83396e-09 0)
(1.10569e-06 -8.98589e-12 0)
(1.10473e-06 4.816e-09 0)
(1.10182e-06 9.63254e-09 0)
(1.09698e-06 1.44322e-08 0)
(1.09022e-06 1.92065e-08 0)
(1.08155e-06 2.39472e-08 0)
(1.07098e-06 2.86459e-08 0)
(1.05853e-06 3.32943e-08 0)
(1.04422e-06 3.78842e-08 0)
(1.02809e-06 4.24078e-08 0)
(1.01014e-06 4.68569e-08 0)
(9.90431e-07 5.12238e-08 0)
(9.68981e-07 5.55009e-08 0)
(9.45831e-07 5.96806e-08 0)
(9.21021e-07 6.37557e-08 0)
(8.94596e-07 6.77189e-08 0)
(8.66602e-07 7.15633e-08 0)
(8.37088e-07 7.52821e-08 0)
(8.06105e-07 7.88689e-08 0)
(7.73708e-07 8.23174e-08 0)
(7.39954e-07 8.56214e-08 0)
(7.04902e-07 8.87753e-08 0)
(6.68614e-07 9.17734e-08 0)
(6.31153e-07 9.46106e-08 0)
(5.92585e-07 9.72819e-08 0)
(5.52977e-07 9.97825e-08 0)
(5.12399e-07 1.02108e-07 0)
(4.70922e-07 1.04255e-07 0)
(4.28619e-07 1.06219e-07 0)
(3.85565e-07 1.07997e-07 0)
(3.41833e-07 1.09587e-07 0)
(2.97501e-07 1.10985e-07 0)
(2.52645e-07 1.12192e-07 0)
(2.07343e-07 1.13206e-07 0)
(1.61672e-07 1.14029e-07 0)
(1.15709e-07 1.14664e-07 0)
(6.95263e-08 1.15116e-07 0)
(2.31951e-08 1.15389e-07 0)
(-2.32915e-08 1.6204e-07 0)
(-6.98319e-08 1.61629e-07 0)
(-1.16251e-07 1.60966e-07 0)
(-1.62463e-07 1.60051e-07 0)
(-2.08386e-07 1.58876e-07 0)
(-2.53941e-07 1.57436e-07 0)
(-2.99049e-07 1.55731e-07 0)
(-3.4363e-07 1.5376e-07 0)
(-3.87608e-07 1.51523e-07 0)
(-4.30905e-07 1.49024e-07 0)
(-4.73445e-07 1.46265e-07 0)
(-5.15153e-07 1.4325e-07 0)
(-5.55958e-07 1.39985e-07 0)
(-5.95787e-07 1.36476e-07 0)
(-6.3457e-07 1.32727e-07 0)
(-6.7224e-07 1.28745e-07 0)
(-7.0873e-07 1.24539e-07 0)
(-7.43976e-07 1.20114e-07 0)
(-7.77918e-07 1.15478e-07 0)
(-8.10494e-07 1.1064e-07 0)
(-8.41649e-07 1.05608e-07 0)
(-8.71327e-07 1.00391e-07 0)
(-8.99476e-07 9.49974e-08 0)
(-9.26047e-07 8.94376e-08 0)
(-9.50994e-07 8.3721e-08 0)
(-9.74273e-07 7.78576e-08 0)
(-9.95842e-07 7.18577e-08 0)
(-1.01566e-06 6.57317e-08 0)
(-1.0337e-06 5.94905e-08 0)
(-1.04993e-06 5.31449e-08 0)
(-1.06432e-06 4.67062e-08 0)
(-1.07684e-06 4.01855e-08 0)
(-1.08747e-06 3.35943e-08 0)
(-1.09619e-06 2.69442e-08 0)
(-1.10299e-06 2.02469e-08 0)
(-1.10785e-06 1.3514e-08 0)
(-1.11077e-06 6.75744e-09 0)
(-1.11174e-06 -1.10031e-11 0)
(-1.11076e-06 -6.77942e-09 0)
(-1.10784e-06 -1.35359e-08 0)
(-1.10297e-06 -2.02687e-08 0)
(-1.09616e-06 -2.69659e-08 0)
(-1.08743e-06 -3.36157e-08 0)
(-1.0768e-06 -4.02066e-08 0)
(-1.06427e-06 -4.6727e-08 0)
(-1.04988e-06 -5.31653e-08 0)
(-1.03365e-06 -5.95105e-08 0)
(-1.0156e-06 -6.57512e-08 0)
(-9.95776e-07 -7.18767e-08 0)
(-9.74202e-07 -7.7876e-08 0)
(-9.50918e-07 -8.37388e-08 0)
(-9.25966e-07 -8.94546e-08 0)
(-8.9939e-07 -9.50136e-08 0)
(-8.71237e-07 -1.00406e-07 0)
(-8.41555e-07 -1.05622e-07 0)
(-8.10396e-07 -1.10653e-07 0)
(-7.77817e-07 -1.1549e-07 0)
(-7.43872e-07 -1.20124e-07 0)
(-7.08623e-07 -1.24547e-07 0)
(-6.72131e-07 -1.28752e-07 0)
(-6.34459e-07 -1.32731e-07 0)
(-5.95675e-07 -1.36478e-07 0)
(-5.55846e-07 -1.39984e-07 0)
(-5.15042e-07 -1.43246e-07 0)
(-4.73334e-07 -1.46256e-07 0)
(-4.30795e-07 -1.49009e-07 0)
(-3.87502e-07 -1.51501e-07 0)
(-3.43528e-07 -1.53728e-07 0)
(-2.98952e-07 -1.55684e-07 0)
(-2.53851e-07 -1.57368e-07 0)
(-2.08305e-07 -1.58775e-07 0)
(-1.62393e-07 -1.59904e-07 0)
(-1.16197e-07 -1.60753e-07 0)
(-6.97967e-08 -1.61319e-07 0)
(-2.3274e-08 -1.61603e-07 0)
(2.32895e-08 -1.61603e-07 0)
(6.98122e-08 -1.61319e-07 0)
(1.16212e-07 -1.60753e-07 0)
(1.62409e-07 -1.59904e-07 0)
(2.0832e-07 -1.58775e-07 0)
(2.53866e-07 -1.57368e-07 0)
(2.98967e-07 -1.55684e-07 0)
(3.43544e-07 -1.53728e-07 0)
(3.87517e-07 -1.51502e-07 0)
(4.30811e-07 -1.49009e-07 0)
(4.73349e-07 -1.46256e-07 0)
(5.15057e-07 -1.43246e-07 0)
(5.55862e-07 -1.39985e-07 0)
(5.95691e-07 -1.36478e-07 0)
(6.34475e-07 -1.32732e-07 0)
(6.72147e-07 -1.28752e-07 0)
(7.08639e-07 -1.24547e-07 0)
(7.43889e-07 -1.20124e-07 0)
(7.77833e-07 -1.1549e-07 0)
(8.10413e-07 -1.10653e-07 0)
(8.41572e-07 -1.05622e-07 0)
(8.71254e-07 -1.00406e-07 0)
(8.99408e-07 -9.50141e-08 0)
(9.25984e-07 -8.94552e-08 0)
(9.50936e-07 -8.37395e-08 0)
(9.74219e-07 -7.78768e-08 0)
(9.95794e-07 -7.18776e-08 0)
(1.01562e-06 -6.57522e-08 0)
(1.03367e-06 -5.95115e-08 0)
(1.0499e-06 -5.31664e-08 0)
(1.06429e-06 -4.6728e-08 0)
(1.07682e-06 -4.02076e-08 0)
(1.08745e-06 -3.36168e-08 0)
(1.09618e-06 -2.69669e-08 0)
(1.10299e-06 -2.02698e-08 0)
(1.10786e-06 -1.35372e-08 0)
(1.11079e-06 -6.78084e-09 0)
(1.11176e-06 -1.25988e-11 0)
(1.11079e-06 6.75566e-09 0)
(1.10787e-06 1.35121e-08 0)
(1.10301e-06 2.02448e-08 0)
(1.09621e-06 2.6942e-08 0)
(1.08749e-06 3.3592e-08 0)
(1.07686e-06 4.0183e-08 0)
(1.06434e-06 4.67036e-08 0)
(1.04996e-06 5.31422e-08 0)
(1.03373e-06 5.94875e-08 0)
(1.01569e-06 6.57286e-08 0)
(9.95871e-07 7.18543e-08 0)
(9.74303e-07 7.7854e-08 0)
(9.51025e-07 8.37171e-08 0)
(9.2608e-07 8.94333e-08 0)
(8.9951e-07 9.49927e-08 0)
(8.71362e-07 1.00385e-07 0)
(8.41685e-07 1.05602e-07 0)
(8.10532e-07 1.10633e-07 0)
(7.77958e-07 1.15471e-07 0)
(7.44018e-07 1.20106e-07 0)
(7.08774e-07 1.2453e-07 0)
(6.72286e-07 1.28735e-07 0)
(6.34619e-07 1.32715e-07 0)
(5.95839e-07 1.36462e-07 0)
(5.56014e-07 1.3997e-07 0)
(5.15213e-07 1.43232e-07 0)
(4.73509e-07 1.46244e-07 0)
(4.30973e-07 1.48999e-07 0)
(3.87682e-07 1.51493e-07 0)
(3.4371e-07 1.53723e-07 0)
(2.99135e-07 1.55685e-07 0)
(2.54033e-07 1.57377e-07 0)
(2.08482e-07 1.588e-07 0)
(1.6256e-07 1.59955e-07 0)
(1.16344e-07 1.60846e-07 0)
(6.99076e-08 1.61479e-07 0)
(2.33223e-08 1.61862e-07 0)
(-2.34677e-08 2.08778e-07 0)
(-7.03522e-08 2.0827e-07 0)
(-1.17102e-07 2.07432e-07 0)
(-1.6364e-07 2.06265e-07 0)
(-2.09886e-07 2.04759e-07 0)
(-2.55762e-07 2.02911e-07 0)
(-3.01188e-07 2.00717e-07 0)
(-3.46085e-07 1.98179e-07 0)
(-3.90373e-07 1.95298e-07 0)
(-4.33977e-07 1.92077e-07 0)
(-4.76818e-07 1.88522e-07 0)
(-5.18823e-07 1.84637e-07 0)
(-5.59917e-07 1.80429e-07 0)
(-6.00029e-07 1.75906e-07 0)
(-6.39088e-07 1.71074e-07 0)
(-6.77025e-07 1.65942e-07 0)
(-7.13775e-07 1.6052e-07 0)
(-7.49272e-07 1.54817e-07 0)
(-7.83454e-07 1.48842e-07 0)
(-8.16263e-07 1.42606e-07 0)
(-8.47639e-07 1.3612e-07 0)
(-8.77528e-07 1.29396e-07 0)
(-9.05877e-07 1.22444e-07 0)
(-9.32638e-07 1.15278e-07 0)
(-9.57762e-07 1.0791e-07 0)
(-9.81206e-07 1.00352e-07 0)
(-1.00293e-06 9.2619e-08 0)
(-1.02289e-06 8.47231e-08 0)
(-1.04106e-06 7.66786e-08 0)
(-1.0574e-06 6.84997e-08 0)
(-1.07189e-06 6.02006e-08 0)
(-1.0845e-06 5.1796e-08 0)
(-1.0952e-06 4.33005e-08 0)
(-1.10399e-06 3.4729e-08 0)
(-1.11083e-06 2.60967e-08 0)
(-1.11573e-06 1.74185e-08 0)
(-1.11867e-06 8.70979e-09 0)
(-1.11965e-06 -1.41883e-11 0)
(-1.11867e-06 -8.73814e-09 0)
(-1.11572e-06 -1.74467e-08 0)
(-1.11082e-06 -2.61247e-08 0)
(-1.10396e-06 -3.47569e-08 0)
(-1.09517e-06 -4.3328e-08 0)
(-1.08446e-06 -5.18232e-08 0)
(-1.07185e-06 -6.02274e-08 0)
(-1.05735e-06 -6.8526e-08 0)
(-1.04101e-06 -7.67044e-08 0)
(-1.02283e-06 -8.47483e-08 0)
(-1.00286e-06 -9.26435e-08 0)
(-9.81134e-07 -1.00376e-07 0)
(-9.57685e-07 -1.07933e-07 0)
(-9.32556e-07 -1.153e-07 0)
(-9.05791e-07 -1.22465e-07 0)
(-8.77437e-07 -1.29415e-07 0)
(-8.47543e-07 -1.36139e-07 0)
(-8.16163e-07 -1.42623e-07 0)
(-7.83352e-07 -1.48857e-07 0)
(-7.49166e-07 -1.5483e-07 0)
(-7.13666e-07 -1.60532e-07 0)
(-6.76914e-07 -1.65952e-07 0)
(-6.38974e-07 -1.7108e-07 0)
(-5.99914e-07 -1.75909e-07 0)
(-5.59801e-07 -1.80429e-07 0)
(-5.18707e-07 -1.84633e-07 0)
(-4.76702e-07 -1.88513e-07 0)
(-4.33861e-07 -1.92062e-07 0)
(-3.90259e-07 -1.95274e-07 0)
(-3.45973e-07 -1.98143e-07 0)
(-3.01079e-07 -2.00665e-07 0)
(-2.55657e-07 -2.02835e-07 0)
(-2.09787e-07 -2.04649e-07 0)
(-1.63549e-07 -2.06104e-07 0)
(-1.17024e-07 -2.07198e-07 0)
(-7.02935e-08 -2.07928e-07 0)
(-2.34397e-08 -2.08293e-07 0)
(2.34552e-08 -2.08294e-07 0)
(7.03089e-08 -2.07928e-07 0)
(1.17039e-07 -2.07198e-07 0)
(1.63564e-07 -2.06104e-07 0)
(2.09803e-07 -2.04649e-07 0)
(2.55673e-07 -2.02835e-07 0)
(3.01095e-07 -2.00665e-07 0)
(3.45988e-07 -1.98143e-07 0)
(3.90275e-07 -1.95274e-07 0)
(4.33877e-07 -1.92062e-07 0)
(4.76718e-07 -1.88513e-07 0)
(5.18722e-07 -1.84633e-07 0)
(5.59817e-07 -1.8043e-07 0)
(5.9993e-07 -1.75909e-07 0)
(6.3899e-07 -1.71081e-07 0)
(6.7693e-07 -1.65952e-07 0)
(7.13682e-07 -1.60532e-07 0)
(7.49182e-07 -1.54831e-07 0)
(7.83368e-07 -1.48858e-07 0)
(8.1618e-07 -1.42624e-07 0)
(8.4756e-07 -1.36139e-07 0)
(8.77454e-07 -1.29416e-07 0)
(9.05808e-07 -1.22466e-07 0)
(9.32573e-07 -1.15301e-07 0)
(9.57702e-07 -1.07934e-07 0)
(9.81152e-07 -1.00377e-07 0)
(1.00288e-06 -9.26447e-08 0)
(1.02285e-06 -8.47495e-08 0)
(1.04102e-06 -7.67057e-08 0)
(1.05737e-06 -6.85273e-08 0)
(1.07187e-06 -6.02287e-08 0)
(1.08448e-06 -5.18245e-08 0)
(1.09519e-06 -4.33294e-08 0)
(1.10398e-06 -3.47583e-08 0)
(1.11084e-06 -2.61263e-08 0)
(1.11574e-06 -1.74484e-08 0)
(1.11869e-06 -8.73998e-09 0)
(1.11967e-06 -1.62222e-11 0)
(1.1187e-06 8.70756e-09 0)
(1.11576e-06 1.74161e-08 0)
(1.11086e-06 2.6094e-08 0)
(1.10401e-06 3.47262e-08 0)
(1.09523e-06 4.32975e-08 0)
(1.08452e-06 5.17928e-08 0)
(1.07192e-06 6.01973e-08 0)
(1.05743e-06 6.84961e-08 0)
(1.04109e-06 7.66749e-08 0)
(1.02292e-06 8.47191e-08 0)
(1.00296e-06 9.26147e-08 0)
(9.81236e-07 1.00348e-07 0)
(9.57793e-07 1.07905e-07 0)
(9.32669e-07 1.15273e-07 0)
(9.0591e-07 1.22438e-07 0)
(8.77562e-07 1.29389e-07 0)
(8.47674e-07 1.36113e-07 0)
(8.163e-07 1.42598e-07 0)
(7.83493e-07 1.48833e-07 0)
(7.49312e-07 1.54807e-07 0)
(7.13817e-07 1.60509e-07 0)
(6.7707e-07 1.6593e-07 0)
(6.39135e-07 1.7106e-07 0)
(6.00079e-07 1.75889e-07 0)
(5.5997e-07 1.80411e-07 0)
(5.18879e-07 1.84615e-07 0)
(4.76878e-07 1.88497e-07 0)
(4.3404e-07 1.92048e-07 0)
(3.90441e-07 1.95262e-07 0)
(3.46156e-07 1.98136e-07 0)
(3.01263e-07 2.00665e-07 0)
(2.5584e-07 2.02847e-07 0)
(2.09965e-07 2.04682e-07 0)
(1.63716e-07 2.0617e-07 0)
(1.17171e-07 2.07318e-07 0)
(7.04047e-08 2.08135e-07 0)
(2.34881e-08 2.08627e-07 0)
(-2.36801e-08 2.55893e-07 0)
(-7.09843e-08 2.5528e-07 0)
(-1.18145e-07 2.54264e-07 0)
(-1.6509e-07 2.52842e-07 0)
(-2.11739e-07 2.51003e-07 0)
(-2.58014e-07 2.48742e-07 0)
(-3.03836e-07 2.46057e-07 0)
(-3.49124e-07 2.42948e-07 0)
(-3.93799e-07 2.39418e-07 0)
(-4.37782e-07 2.35471e-07 0)
(-4.80998e-07 2.31113e-07 0)
(-5.2337e-07 2.26351e-07 0)
(-5.64823e-07 2.21193e-07 0)
(-6.05286e-07 2.15648e-07 0)
(-6.44686e-07 2.09725e-07 0)
(-6.82955e-07 2.03434e-07 0)
(-7.20026e-07 1.96787e-07 0)
(-7.55834e-07 1.89795e-07 0)
(-7.90316e-07 1.8247e-07 0)
(-8.23411e-07 1.74826e-07 0)
(-8.55062e-07 1.66874e-07 0)
(-8.85212e-07 1.58631e-07 0)
(-9.1381e-07 1.50109e-07 0)
(-9.40805e-07 1.41324e-07 0)
(-9.66149e-07 1.32291e-07 0)
(-9.89798e-07 1.23026e-07 0)
(-1.01171e-06 1.13545e-07 0)
(-1.03185e-06 1.03865e-07 0)
(-1.05018e-06 9.40031e-08 0)
(-1.06666e-06 8.39762e-08 0)
(-1.08128e-06 7.38021e-08 0)
(-1.094e-06 6.34985e-08 0)
(-1.10479e-06 5.30836e-08 0)
(-1.11365e-06 4.25755e-08 0)
(-1.12056e-06 3.19928e-08 0)
(-1.1255e-06 2.13539e-08 0)
(-1.12847e-06 1.06776e-08 0)
(-1.12946e-06 -1.7391e-11 0)
(-1.12846e-06 -1.07124e-08 0)
(-1.12549e-06 -2.13885e-08 0)
(-1.12054e-06 -3.20272e-08 0)
(-1.11363e-06 -4.26096e-08 0)
(-1.10476e-06 -5.31173e-08 0)
(-1.09396e-06 -6.35319e-08 0)
(-1.08123e-06 -7.3835e-08 0)
(-1.06661e-06 -8.40085e-08 0)
(-1.05012e-06 -9.40347e-08 0)
(-1.03179e-06 -1.03896e-07 0)
(-1.01164e-06 -1.13575e-07 0)
(-9.89725e-07 -1.23055e-07 0)
(-9.66071e-07 -1.32319e-07 0)
(-9.40722e-07 -1.41351e-07 0)
(-9.13722e-07 -1.50134e-07 0)
(-8.8512e-07 -1.58655e-07 0)
(-8.54965e-07 -1.66897e-07 0)
(-8.2331e-07 -1.74847e-07 0)
(-7.90211e-07 -1.82489e-07 0)
(-7.55726e-07 -1.89812e-07 0)
(-7.19915e-07 -1.96802e-07 0)
(-6.82841e-07 -2.03446e-07 0)
(-6.4457e-07 -2.09734e-07 0)
(-6.05167e-07 -2.15653e-07 0)
(-5.64703e-07 -2.21195e-07 0)
(-5.23249e-07 -2.26348e-07 0)
(-4.80876e-07 -2.31104e-07 0)
(-4.3766e-07 -2.35455e-07 0)
(-3.93677e-07 -2.39393e-07 0)
(-3.49002e-07 -2.42911e-07 0)
(-3.03715e-07 -2.46003e-07 0)
(-2.57896e-07 -2.48663e-07 0)
(-2.11624e-07 -2.50887e-07 0)
(-1.64981e-07 -2.52671e-07 0)
(-1.18049e-07 -2.54012e-07 0)
(-7.09091e-08 -2.54907e-07 0)
(-2.3645e-08 -2.55355e-07 0)
(2.36605e-08 -2.55355e-07 0)
(7.09245e-08 -2.54907e-07 0)
(1.18064e-07 -2.54012e-07 0)
(1.64997e-07 -2.52671e-07 0)
(2.1164e-07 -2.50887e-07 0)
(2.57912e-07 -2.48663e-07 0)
(3.03731e-07 -2.46003e-07 0)
(3.49018e-07 -2.42911e-07 0)
(3.93692e-07 -2.39393e-07 0)
(4.37676e-07 -2.35455e-07 0)
(4.80892e-07 -2.31105e-07 0)
(5.23264e-07 -2.26348e-07 0)
(5.64719e-07 -2.21195e-07 0)
(6.05183e-07 -2.15654e-07 0)
(6.44585e-07 -2.09734e-07 0)
(6.82857e-07 -2.03447e-07 0)
(7.19931e-07 -1.96802e-07 0)
(7.55742e-07 -1.89813e-07 0)
(7.90227e-07 -1.8249e-07 0)
(8.23327e-07 -1.74847e-07 0)
(8.54982e-07 -1.66898e-07 0)
(8.85137e-07 -1.58656e-07 0)
(9.13739e-07 -1.50136e-07 0)
(9.40739e-07 -1.41352e-07 0)
(9.66088e-07 -1.3232e-07 0)
(9.89743e-07 -1.23056e-07 0)
(1.01166e-06 -1.13576e-07 0)
(1.03181e-06 -1.03897e-07 0)
(1.05014e-06 -9.40362e-08 0)
(1.06663e-06 -8.40101e-08 0)
(1.08125e-06 -7.38366e-08 0)
(1.09398e-06 -6.35335e-08 0)
(1.10478e-06 -5.31191e-08 0)
(1.11365e-06 -4.26115e-08 0)
(1.12056e-06 -3.20292e-08 0)
(1.12551e-06 -2.13907e-08 0)
(1.12848e-06 -1.07147e-08 0)
(1.12948e-06 -1.98633e-11 0)
(1.12849e-06 1.0675e-08 0)
(1.12553e-06 2.1351e-08 0)
(1.12058e-06 3.19897e-08 0)
(1.11368e-06 4.25722e-08 0)
(1.10482e-06 5.308e-08 0)
(1.09402e-06 6.34947e-08 0)
(1.0813e-06 7.3798e-08 0)
(1.06669e-06 8.39719e-08 0)
(1.0502e-06 9.39985e-08 0)
(1.03188e-06 1.0386e-07 0)
(1.01174e-06 1.1354e-07 0)
(9.89827e-07 1.2302e-07 0)
(9.66179e-07 1.32285e-07 0)
(9.40836e-07 1.41317e-07 0)
(9.13842e-07 1.50102e-07 0)
(8.85246e-07 1.58623e-07 0)
(8.55097e-07 1.66866e-07 0)
(8.23447e-07 1.74816e-07 0)
(7.90354e-07 1.8246e-07 0)
(7.55873e-07 1.89783e-07 0)
(7.20067e-07 1.96774e-07 0)
(6.82998e-07 2.0342e-07 0)
(6.44731e-07 2.09708e-07 0)
(6.05333e-07 2.15629e-07 0)
(5.64873e-07 2.21172e-07 0)
(5.23423e-07 2.26327e-07 0)
(4.81054e-07 2.31085e-07 0)
(4.37841e-07 2.35438e-07 0)
(3.93859e-07 2.39379e-07 0)
(3.49187e-07 2.42902e-07 0)
(3.03901e-07 2.46003e-07 0)
(2.5808e-07 2.48678e-07 0)
(2.11803e-07 2.50927e-07 0)
(1.6515e-07 2.52752e-07 0)
(1.18197e-07 2.54159e-07 0)
(7.1021e-08 2.5516e-07 0)
(2.36938e-08 2.55762e-07 0)
(-2.39306e-08 3.03462e-07 0)
(-7.17326e-08 3.02742e-07 0)
(-1.19386e-07 3.01544e-07 0)
(-1.66819e-07 2.99864e-07 0)
(-2.13952e-07 2.97688e-07 0)
(-2.60707e-07 2.95011e-07 0)
(-3.07004e-07 2.9183e-07 0)
(-3.52761e-07 2.88145e-07 0)
(-3.97899e-07 2.83959e-07 0)
(-4.42339e-07 2.79279e-07 0)
(-4.86003e-07 2.74111e-07 0)
(-5.28814e-07 2.68464e-07 0)
(-5.70698e-07 2.62347e-07 0)
(-6.1158e-07 2.5577e-07 0)
(-6.5139e-07 2.48745e-07 0)
(-6.90057e-07 2.41284e-07 0)
(-7.27513e-07 2.33401e-07 0)
(-7.63692e-07 2.25108e-07 0)
(-7.98532e-07 2.1642e-07 0)
(-8.31971e-07 2.07353e-07 0)
(-8.63951e-07 1.97923e-07 0)
(-8.94415e-07 1.88145e-07 0)
(-9.2331e-07 1.78038e-07 0)
(-9.50585e-07 1.67618e-07 0)
(-9.76192e-07 1.56905e-07 0)
(-1.00009e-06 1.45916e-07 0)
(-1.02223e-06 1.34671e-07 0)
(-1.04258e-06 1.2319e-07 0)
(-1.06109e-06 1.11493e-07 0)
(-1.07775e-06 9.96009e-08 0)
(-1.09252e-06 8.75337e-08 0)
(-1.10537e-06 7.5313e-08 0)
(-1.11628e-06 6.29603e-08 0)
(-1.12523e-06 5.04971e-08 0)
(-1.13221e-06 3.79453e-08 0)
(-1.1372e-06 2.5327e-08 0)
(-1.1402e-06 1.26643e-08 0)
(-1.1412e-06 -2.06236e-11 0)
(-1.14019e-06 -1.27055e-08 0)
(-1.13719e-06 -2.53681e-08 0)
(-1.13219e-06 -3.79862e-08 0)
(-1.12521e-06 -5.05376e-08 0)
(-1.11625e-06 -6.30004e-08 0)
(-1.10533e-06 -7.53527e-08 0)
(-1.09247e-06 -8.75728e-08 0)
(-1.0777e-06 -9.96393e-08 0)
(-1.06104e-06 -1.11531e-07 0)
(-1.04251e-06 -1.23227e-07 0)
(-1.02216e-06 -1.34707e-07 0)
(-1.00001e-06 -1.45951e-07 0)
(-9.76113e-07 -1.56938e-07 0)
(-9.50501e-07 -1.67651e-07 0)
(-9.23221e-07 -1.78069e-07 0)
(-8.94321e-07 -1.88175e-07 0)
(-8.63852e-07 -1.9795e-07 0)
(-8.31869e-07 -2.07379e-07 0)
(-7.98426e-07 -2.16444e-07 0)
(-7.63582e-07 -2.25129e-07 0)
(-7.27399e-07 -2.33419e-07 0)
(-6.8994e-07 -2.413e-07 0)
(-6.5127e-07 -2.48757e-07 0)
(-6.11458e-07 -2.55778e-07 0)
(-5.70574e-07 -2.62351e-07 0)
(-5.28688e-07 -2.68463e-07 0)
(-4.85875e-07 -2.74104e-07 0)
(-4.4221e-07 -2.79264e-07 0)
(-3.97769e-07 -2.83935e-07 0)
(-3.5263e-07 -2.88107e-07 0)
(-3.06873e-07 -2.91774e-07 0)
(-2.60577e-07 -2.9493e-07 0)
(-2.13824e-07 -2.97567e-07 0)
(-1.66696e-07 -2.99683e-07 0)
(-1.19276e-07 -3.01273e-07 0)
(-7.16462e-08 -3.02335e-07 0)
(-2.38909e-08 -3.02866e-07 0)
(2.39063e-08 -3.02866e-07 0)
(7.16617e-08 -3.02335e-07 0)
(1.19291e-07 -3.01273e-07 0)
(1.66712e-07 -2.99683e-07 0)
(2.1384e-07 -2.97567e-07 0)
(2.60593e-07 -2.9493e-07 0)
(3.06888e-07 -2.91774e-07 0)
(3.52646e-07 -2.88108e-07 0)
(3.97784e-07 -2.83935e-07 0)
(4.42225e-07 -2.79265e-07 0)
(4.85891e-07 -2.74104e-07 0)
(5.28704e-07 -2.68463e-07 0)
(5.70589e-07 -2.62351e-07 0)
(6.11474e-07 -2.55779e-07 0)
(6.51286e-07 -2.48758e-07 0)
(6.89956e-07 -2.413e-07 0)
(7.27415e-07 -2.3342e-07 0)
(7.63598e-07 -2.2513e-07 0)
(7.98442e-07 -2.16445e-07 0)
(8.31885e-07 -2.0738e-07 0)
(8.63869e-07 -1.97951e-07 0)
(8.94338e-07 -1.88176e-07 0)
(9.23237e-07 -1.7807e-07 0)
(9.50518e-07 -1.67652e-07 0)
(9.76131e-07 -1.5694e-07 0)
(1.00003e-06 -1.45952e-07 0)
(1.02218e-06 -1.34709e-07 0)
(1.04253e-06 -1.23229e-07 0)
(1.06106e-06 -1.11533e-07 0)
(1.07772e-06 -9.96411e-08 0)
(1.09249e-06 -8.75747e-08 0)
(1.10535e-06 -7.53547e-08 0)
(1.11627e-06 -6.30025e-08 0)
(1.12523e-06 -5.05399e-08 0)