/*--------------------------------*- C++ -*----------------------------------*\
| =========                 |                                                 |
| \\      /  F ield         | OpenFOAM: The Open Source CFD Toolbox           |
|  \\    /   O peration     | Version:  2306                                  |
|   \\  /    A nd           | Website:  www.openfoam.com                      |
|    \\/     M anipulation  |                                                 |
\*---------------------------------------------------------------------------*/
FoamFile
{
    version     2.0;
    format      ascii;
    arch        "LSB;label=32;scalar=64";
    class       surfaceScalarField;
    location    "0.03";
    object      phi;
}
// * * * * * * * * * * * * * * * * * * * * * * * * * * * * * * * * * * * * * //

dimensions      [0 3 -1 0 0 0 0];

oriented        oriented;

internalField   nonuniform List<scalar> 
12640
(
-7.0511752e-07
-2.1702427e-09
-7.0261661e-07
-2.500906e-09
-6.9979413e-07
-2.8224687e-09
-6.9665918e-07
-3.1349627e-09
-6.9322074e-07
-3.4384454e-09
-6.8948771e-07
-3.7330218e-09
-6.8546895e-07
-4.0187707e-09
-6.8117316e-07
-4.2957884e-09
-6.7660897e-07
-4.5641858e-09
-6.7178488e-07
-4.82408e-09
-6.6670928e-07
-5.0756054e-09
-6.6139038e-07
-5.3189016e-09
-6.5583626e-07
-5.5541177e-09
-6.5005482e-07
-5.7814412e-09
-6.440538e-07
-6.0010318e-09
-6.3784073e-07
-6.2130526e-09
-6.3142304e-07
-6.4176985e-09
-6.2480788e-07
-6.6151652e-09
-6.1800223e-07
-6.8056328e-09
-6.1101291e-07
-6.9893256e-09
-6.0384649e-07
-7.1664305e-09
-5.9650936e-07
-7.3371412e-09
-5.8900767e-07
-7.5016851e-09
-5.813474e-07
-7.6602629e-09
-5.7353432e-07
-7.8130928e-09
-5.6557398e-07
-7.9603231e-09
-5.5747173e-07
-8.1022561e-09
-5.4923271e-07
-8.2390274e-09
-5.4086183e-07
-8.3708717e-09
-5.3236385e-07
-8.497982e-09
-5.2374329e-07
-8.6205605e-09
-5.1500448e-07
-8.738809e-09
-5.0615154e-07
-8.8529419e-09
-4.9718838e-07
-8.9631462e-09
-4.8811879e-07
-9.0695884e-09
-4.789463e-07
-9.1724941e-09
-4.6967427e-07
-9.2720381e-09
-4.6030589e-07
-9.3683799e-09
-4.5084416e-07
-9.4617269e-09
-4.4129192e-07
-9.5522442e-09
-4.3165182e-07
-9.6401093e-09
-4.2192634e-07
-9.7254818e-09
-4.1211779e-07
-9.8085457e-09
-4.0222836e-07
-9.889435e-09
-3.9226004e-07
-9.9683237e-09
-3.8221467e-07
-1.0045358e-08
-3.72094e-07
-1.012067e-08
-3.6189956e-07
-1.0194442e-08
-3.5163278e-07
-1.0266771e-08
-3.4129494e-07
-1.0337838e-08
-3.308872e-07
-1.0407739e-08
-3.2041057e-07
-1.0476636e-08
-3.0986595e-07
-1.0544617e-08
-2.9925413e-07
-1.0611817e-08
-2.8857577e-07
-1.0678368e-08
-2.778314e-07
-1.0744365e-08
-2.6702148e-07
-1.0809921e-08
-2.5614633e-07
-1.0875139e-08
-2.4520621e-07
-1.0940121e-08
-2.3420124e-07
-1.1004969e-08
-2.2313145e-07
-1.1069776e-08
-2.1199684e-07
-1.1134618e-08
-2.0079728e-07
-1.1199587e-08
-1.8953252e-07
-1.1264755e-08
-1.7820229e-07
-1.133023e-08
-1.6680624e-07
-1.1396043e-08
-1.5534393e-07
-1.1462322e-08
-1.4381488e-07
-1.1529058e-08
-1.3221856e-07
-1.1596319e-08
-1.2055437e-07
-1.1664181e-08
-1.0882172e-07
-1.1732661e-08
-9.7019984e-08
-1.1801725e-08
-8.5148671e-08
-1.1871312e-08
-7.3207553e-08
-1.1941108e-08
-6.1197133e-08
-1.2010422e-08
-4.9119635e-08
-1.2077506e-08
-3.6980994e-08
-1.2138637e-08
-2.4792557e-08
-1.2188435e-08
-1.2545754e-08
-1.22468e-08
-1.2545763e-08
-9.6008438e-07
-5.1497188e-09
-9.5665673e-07
-5.9285645e-09
-9.5279295e-07
-6.6862583e-09
-9.4850508e-07
-7.4228302e-09
-9.4380517e-07
-8.1383487e-09
-9.3870524e-07
-8.8329446e-09
-9.3321721e-07
-9.5067956e-09
-9.2735292e-07
-1.0160085e-08
-9.2112405e-07
-1.0793057e-08
-9.1454215e-07
-1.1405983e-08
-9.0761857e-07
-1.1999181e-08
-9.003645e-07
-1.257297e-08
-8.9279091e-07
-1.3127724e-08
-8.8490853e-07
-1.3663825e-08
-8.7672787e-07
-1.4181676e-08
-8.6825922e-07
-1.4681705e-08
-8.595126e-07
-1.5164317e-08
-8.5049776e-07
-1.5629999e-08
-8.4122418e-07
-1.6079216e-08
-8.3170112e-07
-1.6512389e-08
-8.2193751e-07
-1.6930034e-08
-8.1194203e-07
-1.7332621e-08
-8.0172308e-07
-1.7720632e-08
-7.9128877e-07
-1.8094574e-08
-7.8064693e-07
-1.8454935e-08
-7.6980507e-07
-1.8802166e-08
-7.5877052e-07
-1.9136804e-08
-7.4755022e-07
-1.9459336e-08
-7.3615088e-07
-1.9770195e-08
-7.2457893e-07
-2.0069933e-08
-7.1284053e-07
-2.0358973e-08
-7.0094151e-07
-2.0637819e-08
-6.8888753e-07
-2.0906943e-08
-6.7668389e-07
-2.1166791e-08
-6.6433569e-07
-2.1417792e-08
-6.5184776e-07
-2.1660431e-08
-6.3922467e-07
-2.189513e-08
-6.2647072e-07
-2.212232e-08
-6.1359001e-07
-2.2342426e-08
-6.0058637e-07
-2.2555875e-08
-5.8746339e-07
-2.27631e-08
-5.7422447e-07
-2.2964411e-08
-5.6087273e-07
-2.3160278e-08
-5.4741112e-07
-2.3351046e-08
-5.3384238e-07
-2.3537064e-08
-5.20169e-07
-2.3718741e-08
-5.063933e-07
-2.3896374e-08
-4.9251742e-07
-2.4070326e-08
-4.7854327e-07
-2.4240932e-08
-4.6447256e-07
-2.440854e-08
-4.5030687e-07
-2.4573433e-08
-4.3604758e-07
-2.4735929e-08
-4.2169592e-07
-2.4896287e-08
-4.0725292e-07
-2.5054806e-08
-3.927195e-07
-2.5211782e-08
-3.7809639e-07
-2.5367486e-08
-3.633842e-07
-2.5522135e-08
-3.4858333e-07
-2.567599e-08
-3.3369416e-07
-2.5829311e-08
-3.1871682e-07
-2.5982314e-08
-3.0365139e-07
-2.6135182e-08
-2.8849783e-07
-2.6288195e-08
-2.7325592e-07
-2.6441481e-08
-2.5792537e-07
-2.6595294e-08
-2.4250582e-07
-2.6749779e-08
-2.2699676e-07
-2.6905118e-08
-2.1139758e-07
-2.7061498e-08
-1.9570763e-07
-2.7219002e-08
-1.7992615e-07
-2.7377795e-08
-1.640523e-07
-2.753803e-08
-1.4808519e-07
-2.7699762e-08
-1.3202387e-07
-2.7863047e-08
-1.1586731e-07
-2.8027869e-08
-9.9614369e-08
-2.8194037e-08
-8.3263604e-08
-2.83612e-08
-6.6812531e-08
-2.8528572e-08
-5.0255908e-08
-2.869527e-08
-3.3580398e-08
-2.8863934e-08
-1.677478e-08
-2.9052427e-08
-2.9320531e-08
-9.9271074e-07
-8.2531197e-09
-9.8914345e-07
-9.4958413e-09
-9.8512506e-07
-1.0704648e-08
-9.8066828e-07
-1.1879599e-08
-9.757858e-07
-1.3020827e-08
-9.7049021e-07
-1.4128555e-08
-9.6479392e-07
-1.5203082e-08
-9.5870926e-07
-1.624475e-08
-9.5224836e-07
-1.7253946e-08
-9.4542323e-07
-1.8231123e-08
-9.3824561e-07
-1.9176788e-08
-9.3072711e-07
-2.009148e-08
-9.2287906e-07
-2.0975759e-08
-9.1471261e-07
-2.1830278e-08
-9.0623861e-07
-2.2655678e-08
-8.9746769e-07
-2.3452626e-08
-8.8841021e-07
-2.4221802e-08
-8.7907626e-07
-2.4963954e-08
-8.6947567e-07
-2.5679818e-08
-8.5961795e-07
-2.6370112e-08
-8.4951236e-07
-2.7035623e-08
-8.3916785e-07
-2.7677137e-08
-8.2859309e-07
-2.8295385e-08
-8.1779646e-07
-2.8891205e-08
-8.0678604e-07
-2.9465352e-08
-7.9556961e-07
-3.0018603e-08
-7.8415467e-07
-3.0551741e-08
-7.7254844e-07
-3.1065572e-08
-7.607578e-07
-3.1560836e-08
-7.4878941e-07
-3.2038327e-08
-7.366496e-07
-3.2498774e-08
-7.2434441e-07
-3.294301e-08
-7.1187965e-07
-3.3371695e-08
-6.9926081e-07
-3.3785621e-08
-6.8649316e-07
-3.4185454e-08
-6.7358163e-07
-3.4571963e-08
-6.6053092e-07
-3.4945839e-08
-6.473455e-07
-3.5307743e-08
-6.3402956e-07
-3.5658377e-08
-6.2058706e-07
-3.5998388e-08
-6.0702173e-07
-3.6328428e-08
-5.9333701e-07
-3.6649142e-08
-5.7953615e-07
-3.6961126e-08
-5.6562218e-07
-3.7265007e-08
-5.515979e-07
-3.7561342e-08
-5.374659e-07
-3.7850741e-08
-5.2322855e-07
-3.8133721e-08
-5.08888e-07
-3.841088e-08
-4.9444625e-07
-3.8682702e-08
-4.7990506e-07
-3.8949723e-08
-4.6526609e-07
-3.9212405e-08
-4.5053069e-07
-3.9471295e-08
-4.3570016e-07
-3.9726837e-08
-4.2077552e-07
-3.9979439e-08
-4.0575773e-07
-4.0229583e-08
-3.906475e-07
-4.0477696e-08
-3.7544548e-07
-4.0724151e-08
-3.601521e-07
-4.0969366e-08
-3.4476767e-07
-4.1213738e-08
-3.2929239e-07
-4.1457605e-08
-3.1372628e-07
-4.1701288e-08
-2.9806928e-07
-4.1945184e-08
-2.823212e-07
-4.2189576e-08
-2.6648171e-07
-4.2434779e-08
-2.5055042e-07
-4.2681075e-08
-2.3452678e-07
-4.2928759e-08
-2.184102e-07
-4.3178096e-08
-2.0219991e-07
-4.3429267e-08
-1.8589516e-07
-4.3682567e-08
-1.6949504e-07
-4.3938169e-08
-1.5299859e-07
-4.4196215e-08
-1.3640472e-07
-4.4456903e-08
-1.197123e-07
-4.4720294e-08
-1.0291989e-07
-4.4986447e-08
-8.6025729e-08
-4.5255369e-08
-6.9027135e-08
-4.5527161e-08
-5.19199e-08
-4.5802488e-08
-3.4699979e-08
-4.6083868e-08
-1.7374859e-08
-4.6377552e-08
-4.6695381e-08
-9.968728e-07
-1.1414852e-08
-9.9324677e-07
-1.3121872e-08
-9.8916923e-07
-1.4782183e-08
-9.8465295e-07
-1.6395889e-08
-9.7971063e-07
-1.7963134e-08
-9.7435491e-07
-1.9484277e-08
-9.6859828e-07
-2.0959709e-08
-9.6245311e-07
-2.238992e-08
-9.5593162e-07
-2.3775438e-08
-9.4904582e-07
-2.5116925e-08
-9.4180755e-07
-2.6415068e-08
-9.3422844e-07
-2.7670586e-08
-9.2631986e-07
-2.8884336e-08
-9.1809302e-07
-3.0057132e-08
-9.0955878e-07
-3.1189901e-08
-9.0072784e-07
-3.2283567e-08
-8.9161058e-07
-3.3339056e-08
-8.8221712e-07
-3.4357425e-08
-8.7255731e-07
-3.5339633e-08
-8.6264067e-07
-3.628674e-08
-8.5247648e-07
-3.7199798e-08
-8.4207376e-07
-3.8079869e-08
-8.3144112e-07
-3.8928019e-08
-8.2058699e-07
-3.9745335e-08
-8.0951946e-07
-4.0532876e-08
-7.9824632e-07
-4.1291733e-08
-7.8677509e-07
-4.2022986e-08
-7.7511294e-07
-4.2727714e-08
-7.6326682e-07
-4.3406964e-08
-7.5124334e-07
-4.40618e-08
-7.3904883e-07
-4.4693278e-08
-7.2668937e-07
-4.5302478e-08
-7.1417075e-07
-4.5890325e-08
-7.0149844e-07
-4.6457929e-08
-6.8867769e-07
-4.7006194e-08
-6.7571344e-07
-4.7536211e-08
-6.6261042e-07
-4.8048849e-08
-6.4937306e-07
-4.8545112e-08
-6.3600551e-07
-4.9025916e-08
-6.2251176e-07
-4.949214e-08
-6.0889551e-07
-4.9944675e-08
-5.9516022e-07
-5.0384436e-08
-5.8130912e-07
-5.0812234e-08
-5.6734521e-07
-5.1228911e-08
-5.5327128e-07
-5.1635269e-08
-5.390899e-07
-5.2032117e-08
-5.2480343e-07
-5.2420205e-08
-5.1041402e-07
-5.2800277e-08
-4.9592363e-07
-5.3173069e-08
-4.8133408e-07
-5.3539278e-08
-4.6664691e-07
-5.3899574e-08
-4.5186354e-07
-5.4254665e-08
-4.3698518e-07
-5.4605189e-08
-4.2201291e-07
-5.495171e-08
-4.0694761e-07
-5.5294883e-08
-3.9179004e-07
-5.5635266e-08
-3.7654077e-07
-5.5973425e-08
-3.6120024e-07
-5.6309896e-08
-3.4576876e-07
-5.6645218e-08
-3.302465e-07
-5.697986e-08
-3.1463346e-07
-5.7314334e-08
-2.9892956e-07
-5.7649078e-08
-2.831346e-07
-5.798454e-08
-2.6724823e-07
-5.8321139e-08
-2.5127003e-07
-5.8659269e-08
-2.3519946e-07
-5.899933e-08
-2.1903586e-07
-5.9341701e-08
-2.027785e-07
-5.9686626e-08
-1.8642655e-07
-6.0034502e-08
-1.6997911e-07
-6.0385609e-08
-1.5343513e-07
-6.0740177e-08
-1.3679357e-07
-6.1098473e-08
-1.2005316e-07
-6.1460704e-08
-1.0321256e-07
-6.1827063e-08
-8.6270126e-08
-6.2197796e-08
-6.9223979e-08
-6.2573297e-08
-5.2072206e-08
-6.2954278e-08
-3.4813874e-08
-6.334218e-08
-1.745188e-08
-6.3739539e-08
-6.4147279e-08
-9.9866115e-07
-1.4644126e-08
-9.9496856e-07
-1.681444e-08
-9.9082555e-07
-1.8925201e-08
-9.8624493e-07
-2.0976504e-08
-9.8123946e-07
-2.2968603e-08
-9.758218e-07
-2.4901926e-08
-9.7000452e-07
-2.6777e-08
-9.6380001e-07
-2.8594426e-08
-9.5722053e-07
-3.035494e-08
-9.502781e-07
-3.2059351e-08
-9.4298461e-07
-3.3708552e-08
-9.3535169e-07
-3.53035e-08
-9.273908e-07
-3.6845234e-08
-9.1911306e-07
-3.8334871e-08
-9.1052942e-07
-3.9773542e-08
-9.0165054e-07
-4.1162437e-08
-8.9248682e-07
-4.2502787e-08
-8.8304837e-07
-4.3795869e-08
-8.7334501e-07
-4.504299e-08
-8.6338632e-07
-4.6245446e-08
-8.5318153e-07
-4.7404599e-08
-8.4273962e-07
-4.8521769e-08
-8.3206925e-07
-4.9598394e-08
-8.2117878e-07
-5.0635796e-08
-8.1007628e-07
-5.1635381e-08
-7.9876956e-07
-5.259845e-08
-7.8726607e-07
-5.352647e-08
-7.7557301e-07
-5.4420772e-08
-7.6369725e-07
-5.5282735e-08
-7.5164542e-07
-5.6113642e-08
-7.3942379e-07
-5.6914908e-08
-7.2703846e-07
-5.7687797e-08
-7.1449512e-07
-5.8433674e-08
-7.0179927e-07
-5.9153776e-08
-6.889561e-07
-5.9849375e-08
-6.7597054e-07
-6.0521765e-08
-6.6284728e-07
-6.1172123e-08
-6.4959071e-07
-6.180168e-08
-6.36205e-07
-6.241163e-08
-6.2269407e-07
-6.3003057e-08
-6.0906163e-07
-6.3577133e-08
-5.9531104e-07
-6.4135011e-08
-5.8144552e-07
-6.4677748e-08
-5.6746811e-07
-6.5206349e-08
-5.5338148e-07
-6.5721887e-08
-5.3918824e-07
-6.6225368e-08
-5.2489068e-07
-6.6717763e-08
-5.1049093e-07
-6.7200019e-08
-4.9599098e-07
-6.7673051e-08
-4.8139251e-07
-6.8137739e-08
-4.6669712e-07
-6.8594973e-08
-4.5190617e-07
-6.9045622e-08
-4.3702088e-07
-6.9490481e-08
-4.2204228e-07
-6.993031e-08
-4.0697121e-07
-7.0365948e-08
-3.9180843e-07
-7.0798046e-08
-3.7655448e-07
-7.1227376e-08
-3.6120978e-07
-7.1654591e-08
-3.4577462e-07
-7.2080386e-08
-3.3024907e-07
-7.2505397e-08
-3.1463321e-07
-7.2930182e-08
-2.9892692e-07
-7.3355373e-08
-2.8312993e-07
-7.3781527e-08
-2.6724192e-07
-7.420916e-08
-2.5126239e-07
-7.463879e-08
-2.3519082e-07
-7.5070922e-08
-2.190265e-07
-7.5506011e-08
-2.0276868e-07
-7.594444e-08
-1.8641653e-07
-7.6386658e-08
-1.6996911e-07
-7.6833046e-08
-1.5342536e-07
-7.7283928e-08
-1.3678415e-07
-7.773968e-08
-1.2004427e-07
-7.8200589e-08
-1.032044e-07
-7.8666951e-08
-8.6263034e-08
-7.9139149e-08
-6.9218721e-08
-7.9617619e-08
-5.2070091e-08
-8.0102906e-08
-3.4816448e-08
-8.0595831e-08
-1.745881e-08
-8.1097182e-08
-8.160608e-08
-1.0006534e-06
-1.7958152e-08
-9.9687739e-07
-2.0590446e-08
-9.9265239e-07
-2.3150193e-08
-9.879913e-07
-2.5637594e-08
-9.8290694e-07
-2.805297e-08
-9.7741205e-07
-3.0396814e-08
-9.7151925e-07
-3.2669797e-08
-9.6524098e-07
-3.4872687e-08
-9.5858955e-07
-3.7006367e-08
-9.5157704e-07
-3.907186e-08
-9.4421536e-07
-4.1070234e-08
-9.3651618e-07
-4.3002683e-08
-9.2849093e-07
-4.4870496e-08
-9.2015079e-07
-4.6675006e-08
-9.1150671e-07
-4.8417627e-08
-9.0256934e-07
-5.0099786e-08
-8.9334911e-07
-5.1723035e-08
-8.838561e-07
-5.3288882e-08
-8.7410013e-07
-5.4798953e-08
-8.6409077e-07
-5.6254799e-08
-8.5383722e-07
-5.7658147e-08
-8.4334842e-07
-5.9010565e-08
-8.3263306e-07
-6.0313763e-08
-8.2169944e-07
-6.1569405e-08
-8.1055565e-07
-6.2779166e-08
-7.9920941e-07
-6.3944691e-08
-7.8766817e-07
-6.5067719e-08
-7.7593908e-07
-6.6149854e-08
-7.6402901e-07
-6.7192775e-08
-7.5194454e-07
-6.8198119e-08
-7.3969193e-07
-6.9167528e-08
-7.2727715e-07
-7.0102573e-08
-7.1470594e-07
-7.1004876e-08
-7.0198375e-07
-7.187598e-08
-6.891157e-07
-7.2717425e-08
-6.7610673e-07
-7.3530734e-08
-6.6296146e-07
-7.4317406e-08
-6.4968424e-07
-7.5078886e-08
-6.3627925e-07
-7.581663e-08
-6.2275031e-07
-7.6531999e-08
-6.0910105e-07
-7.7226383e-08
-5.9533492e-07
-7.790116e-08
-5.8145505e-07
-7.8557622e-08
-5.6746435e-07
-7.9197032e-08
-5.5336558e-07
-7.9820661e-08
-5.3916125e-07
-8.0429704e-08
-5.2485364e-07
-8.1025381e-08
-5.1044487e-07
-8.1608777e-08
-4.9593682e-07
-8.2181109e-08
-4.8133118e-07
-8.2743371e-08
-4.666295e-07
-8.3296655e-08
-4.5183312e-07
-8.3841999e-08
-4.3694322e-07
-8.4380384e-08
-4.219608e-07
-8.4912748e-08
-4.0688666e-07
-8.5440075e-08
-3.9172153e-07
-8.5963191e-08
-3.7646594e-07
-8.6482969e-08
-3.6112026e-07
-8.7000282e-08
-3.4568472e-07
-8.7515909e-08
-3.3015944e-07
-8.8030657e-08
-3.1454442e-07
-8.8545192e-08
-2.988395e-07
-8.9060313e-08
-2.830444e-07
-8.9576624e-08
-2.6715874e-07
-9.0094806e-08
-2.5118204e-07
-9.0615504e-08
-2.3511371e-07
-9.1139238e-08
-2.1895307e-07
-9.1666658e-08
-2.0269931e-07
-9.2198211e-08
-1.8635154e-07
-9.2734415e-08
-1.6990882e-07
-9.3275762e-08
-1.5337006e-07
-9.3822682e-08
-1.3673413e-07
-9.4375609e-08
-1.1999982e-07
-9.4934901e-08
-1.0316579e-07
-9.5500975e-08
-8.6230697e-08
-9.6074242e-08
-6.9193196e-08
-9.6655121e-08
-5.205202e-08
-9.7244082e-08
-3.4806318e-08
-9.784153e-08
-1.7455747e-08
-9.8447755e-08
-9.9061829e-08
-1.0030503e-06
-2.1375207e-08
-9.9917289e-07
-2.4467808e-08
-9.9484829e-07
-2.7474803e-08
-9.9008945e-07
-3.0396444e-08
-9.8490929e-07
-3.3233118e-08
-9.7932064e-07
-3.5985458e-08
-9.7333619e-07
-3.8654252e-08
-9.6696845e-07
-4.1240424e-08
-9.6022977e-07
-4.3745048e-08
-9.5313228e-07
-4.6169332e-08
-9.4568795e-07
-4.8514573e-08
-9.3790845e-07
-5.0782185e-08
-9.2980523e-07
-5.297371e-08
-9.2138952e-07
-5.5090723e-08
-9.1267225e-07
-5.7134883e-08
-9.0366411e-07
-5.910794e-08
-8.9437548e-07
-6.1011673e-08
-8.8481643e-07
-6.2847917e-08
-8.7499685e-07
-6.4618542e-08
-8.649262e-07
-6.6325464e-08
-8.5461371e-07
-6.7970638e-08
-8.440683e-07
-6.955597e-08
-8.3329858e-07
-7.1083475e-08
-8.223129e-07
-7.2555093e-08
-8.1111925e-07
-7.397282e-08
-7.9972532e-07
-7.5338613e-08
-7.8813858e-07
-7.665446e-08
-7.7636607e-07
-7.7922347e-08
-7.6441468e-07
-7.9144201e-08
-7.5229085e-07
-8.0321939e-08
-7.4000089e-07
-8.1457487e-08
-7.2755073e-07
-8.255274e-08
-7.1494602e-07
-8.3609584e-08
-7.0219217e-07
-8.4629833e-08
-6.8929428e-07
-8.5615306e-08
-6.7625722e-07
-8.6567796e-08
-6.6308555e-07
-8.7489059e-08
-6.4978364e-07
-8.8380816e-08
-6.3635552e-07
-8.9244753e-08
-6.2280503e-07
-9.0082476e-08
-6.0913576e-07
-9.0895657e-08
-5.9535106e-07
-9.1685862e-08
-5.8145406e-07
-9.2454636e-08
-5.6744765e-07
-9.3203442e-08
-5.5333447e-07
-9.3933838e-08
-5.3911702e-07
-9.4647147e-08
-5.2479756e-07
-9.5344835e-08
-5.103781e-07
-9.6028243e-08
-4.9586056e-07
-9.6698655e-08
-4.8124655e-07
-9.7357374e-08
-4.6653757e-07
-9.8005625e-08
-4.5173493e-07
-9.8644646e-08
-4.3683977e-07
-9.927555e-08
-4.2185303e-07
-9.9899497e-08
-4.0677552e-07
-1.0051758e-07
-3.9160791e-07
-1.0113082e-07
-3.7635065e-07
-1.0174023e-07
-3.6100409e-07
-1.0234684e-07
-3.4556845e-07
-1.0295153e-07
-3.3004383e-07
-1.035553e-07
-3.1443013e-07
-1.041589e-07
-2.9872721e-07
-1.0476325e-07
-2.8293472e-07
-1.053691e-07
-2.670523e-07
-1.0597725e-07
-2.510794e-07
-1.0658843e-07
-2.3501538e-07
-1.0720324e-07
-2.1885952e-07
-1.078225e-07
-2.0261104e-07
-1.0844669e-07
-1.8626895e-07
-1.0907651e-07
-1.698323e-07
-1.0971242e-07
-1.5330002e-07
-1.1035498e-07
-1.3667091e-07
-1.1100472e-07
-1.1994374e-07
-1.1166207e-07
-1.0311722e-07
-1.123275e-07
-8.6190011e-08
-1.1300143e-07
-6.9160787e-08
-1.1368434e-07
-5.2028312e-08
-1.1437657e-07
-3.4791373e-08
-1.1507847e-07
-1.7449013e-08
-1.1579011e-07
-1.1651085e-07
-1.005862e-06
-2.4913639e-08
-1.0018652e-06
-2.8464616e-08
-9.9742326e-07
-3.1916762e-08
-9.9254928e-07
-3.5270412e-08
-9.8725632e-07
-3.8526076e-08
-9.815573e-07
-4.1684494e-08
-9.7546496e-07
-4.4746588e-08
-9.6899191e-07
-4.7713468e-08
-9.6215056e-07
-5.0586393e-08
-9.5495312e-07
-5.3366776e-08
-9.4741156e-07
-5.6056141e-08
-9.395376e-07
-5.8656147e-08
-9.3134273e-07
-6.1168575e-08
-9.2283819e-07
-6.3595267e-08
-9.1403492e-07
-6.5938157e-08
-9.0494358e-07
-6.8199265e-08
-8.9557459e-07
-7.038067e-08
-8.8593801e-07
-7.2484485e-08
-8.7604368e-07
-7.451287e-08
-8.6590107e-07
-7.6468067e-08
-8.5551938e-07
-7.8352326e-08
-8.449075e-07
-8.0167856e-08
-8.3407401e-07
-8.1916964e-08
-8.2302722e-07
-8.3601894e-08
-8.1177505e-07
-8.5224976e-08
-8.0032522e-07
-8.6788459e-08
-7.8868506e-07
-8.8294613e-08
-7.7686167e-07
-8.9745768e-08
-7.6486179e-07
-9.1144069e-08
-7.5269191e-07
-9.2491822e-08
-7.4035819e-07
-9.3791204e-08
-7.2786654e-07
-9.504438e-08
-7.1522262e-07
-9.6253525e-08
-7.024317e-07
-9.7420749e-08
-6.8949886e-07
-9.8548141e-08
-6.7642891e-07
-9.9637749e-08
-6.6322638e-07
-1.0069159e-07
-6.4989554e-07
-1.0171165e-07
-6.3644039e-07
-1.0269989e-07
-6.228647e-07
-1.0365815e-07
-6.0917204e-07
-1.0458834e-07
-5.9536568e-07
-1.0549223e-07
-5.8144868e-07
-1.0637164e-07
-5.6742388e-07
-1.0722825e-07
-5.5329394e-07
-1.0806378e-07
-5.3906121e-07
-1.0887989e-07
-5.2472793e-07
-1.0967811e-07
-5.102961e-07
-1.1046008e-07
-4.9576749e-07
-1.1122724e-07
-4.8114377e-07
-1.119811e-07
-4.6642635e-07
-1.1272305e-07
-4.516165e-07
-1.134545e-07
-4.3671525e-07
-1.1417678e-07
-4.2172357e-07
-1.1489117e-07
-4.0664221e-07
-1.1559893e-07
-3.9147174e-07
-1.1630127e-07
-3.7621264e-07
-1.1699933e-07
-3.608652e-07
-1.1769427e-07
-3.4542958e-07
-1.1838716e-07
-3.2990582e-07
-1.1907906e-07
-3.1429382e-07
-1.1977089e-07
-2.9859335e-07
-1.2046371e-07
-2.8280407e-07
-1.2115837e-07
-2.6692554e-07
-1.2185579e-07
-2.5095719e-07
-1.2255674e-07
-2.3489834e-07
-1.2326211e-07
-2.1874825e-07
-1.2397258e-07
-2.0250605e-07
-1.2468891e-07
-1.8617078e-07
-1.2541176e-07
-1.6974144e-07
-1.2614178e-07
-1.5321686e-07
-1.2687956e-07
-1.3659587e-07
-1.276257e-07
-1.1987723e-07
-1.2838069e-07
-1.0305963e-07
-1.291451e-07
-8.6141711e-08
-1.2991935e-07
-6.912212e-08
-1.3070394e-07
-5.1999498e-08
-1.3149919e-07
-3.4772522e-08
-1.3230543e-07
-1.7439849e-08
-1.3312279e-07
-1.3395069e-07
-1.0090859e-06
-2.8591948e-08
-1.0049515e-06
-3.2599004e-08
-1.0003744e-06
-3.6493868e-08
-9.9536785e-07
-4.0276971e-08
-9.8994501e-07
-4.3948913e-08
-9.8411892e-07
-4.7510584e-08
-9.7790243e-07
-5.0963075e-08
-9.7130824e-07
-5.4307666e-08
-9.643488e-07
-5.7545829e-08
-9.5703641e-07
-6.0679172e-08
-9.4938305e-07
-6.370949e-08
-9.4140051e-07
-6.6638682e-08
-9.3310031e-07
-6.9468773e-08
-9.2449369e-07
-7.2201889e-08
-9.155916e-07
-7.4840241e-08
-9.0640473e-07
-7.7386138e-08
-8.9694345e-07
-7.9841929e-08
-8.8721787e-07
-8.2210069e-08
-8.7723774e-07
-8.4493015e-08
-8.6701254e-07
-8.6693275e-08
-8.5655144e-07
-8.8813427e-08
-8.4586331e-07
-9.0856005e-08
-8.3495668e-07
-9.2823585e-08
-8.2383978e-07
-9.47188e-08
-8.1252055e-07
-9.6544216e-08
-8.0100662e-07
-9.8302384e-08
-7.8930526e-07
-9.9995971e-08
-7.7742352e-07
-1.0162749e-07
-7.6536813e-07
-1.0319947e-07
-7.5314547e-07
-1.0471448e-07
-7.4076167e-07
-1.0617501e-07
-7.2822255e-07
-1.075835e-07
-7.1553371e-07
-1.0894236e-07
-7.027004e-07
-1.1025407e-07
-6.8972758e-07
-1.1152096e-07
-6.7662003e-07
-1.1274529e-07
-6.6338219e-07
-1.1392943e-07
-6.5001827e-07
-1.1507557e-07
-6.3653225e-07
-1.1618592e-07
-6.2292782e-07
-1.1726259e-07
-6.0920844e-07
-1.1830769e-07
-5.9537736e-07
-1.1932333e-07
-5.8143756e-07
-1.2031142e-07
-5.6739183e-07
-1.2127397e-07
-5.5324274e-07
-1.2221288e-07
-5.3899264e-07
-1.2312999e-07
-5.2464364e-07
-1.240271e-07
-5.1019771e-07
-1.2490602e-07
-4.9565661e-07
-1.2576836e-07
-4.8102189e-07
-1.2661581e-07
-4.6629491e-07
-1.2745004e-07
-4.5147685e-07
-1.2827254e-07
-4.3656882e-07
-1.2908482e-07
-4.2157162e-07
-1.2988839e-07
-4.0648595e-07
-1.306846e-07
-3.9131239e-07
-1.3147483e-07
-3.7605131e-07
-1.3226042e-07
-3.6070297e-07
-1.3304262e-07
-3.452675e-07
-1.3382263e-07
-3.2974485e-07
-1.3460169e-07
-3.1413491e-07
-1.3538085e-07
-2.9843741e-07
-1.3616121e-07
-2.8265195e-07
-1.3694384e-07
-2.6677803e-07
-1.377297e-07
-2.5081505e-07
-1.3851973e-07
-2.347623e-07
-1.3931487e-07
-2.1861894e-07
-1.4011596e-07
-2.023841e-07
-1.4092374e-07
-1.8605679e-07
-1.4173908e-07
-1.6963592e-07
-1.4256263e-07
-1.5312034e-07
-1.4339513e-07
-1.3650883e-07
-1.4423719e-07
-1.1980011e-07
-1.4508942e-07
-1.0299284e-07
-1.4595238e-07
-8.6085612e-08
-1.4682658e-07
-6.9077054e-08
-1.4771251e-07
-5.1965672e-08
-1.4861057e-07
-3.4750038e-08
-1.4952108e-07
-1.7428664e-08
-1.5044416e-07
-1.5137935e-07
-1.0127179e-06
-3.2428735e-08
-1.0084277e-06
-3.688924e-08
-1.0036975e-06
-4.1224044e-08
-9.9854089e-07
-4.5433616e-08
-9.9297106e-07
-4.9518751e-08
-9.8700118e-07
-5.3480456e-08
-9.8064426e-07
-5.7319998e-08
-9.7391304e-07
-6.1038887e-08
-9.6682009e-07
-6.4638775e-08
-9.5937773e-07
-6.8121528e-08
-9.5159804e-07
-7.1489193e-08
-9.4349282e-07
-7.4743899e-08
-9.3507363e-07
-7.7887978e-08
-9.2635171e-07
-8.0923797e-08
-9.1733806e-07
-8.3853889e-08
-9.0804334e-07
-8.6680846e-08
-8.9847792e-07
-8.9407352e-08
-8.8865189e-07
-9.2036118e-08
-8.7857499e-07
-9.4569917e-08
-8.6825666e-07
-9.7011602e-08
-8.5770603e-07
-9.9364055e-08
-8.4693193e-07
-1.016301e-07
-8.3594285e-07
-1.0381267e-07
-8.2474697e-07
-1.0591467e-07
-8.1335219e-07
-1.0793899e-07
-8.0176602e-07
-1.0988855e-07
-7.899958e-07
-1.117662e-07
-7.780484e-07
-1.1357488e-07
-7.6593051e-07
-1.1531737e-07
-7.5364843e-07
-1.1699655e-07
-7.4120828e-07
-1.1861516e-07
-7.2861579e-07
-1.2017598e-07
-7.1587643e-07
-1.2168172e-07
-7.0299544e-07
-1.2313506e-07
-6.8997772e-07
-1.2453867e-07
-6.7682793e-07
-1.2589509e-07
-6.6355046e-07
-1.272069e-07
-6.5014945e-07
-1.284766e-07
-6.3662878e-07
-1.2970658e-07
-6.229921e-07
-1.3089927e-07
-6.0924278e-07
-1.3205702e-07
-5.95384e-07
-1.331821e-07
-5.8141868e-07
-1.3427675e-07
-5.6734954e-07
-1.3534311e-07
-5.5317904e-07
-1.3638338e-07
-5.389095e-07
-1.3739954e-07
-5.2454297e-07
-1.3839364e-07
-5.1008137e-07
-1.3936762e-07
-4.9552634e-07
-1.4032339e-07
-4.8087935e-07
-1.4126279e-07
-4.6614179e-07
-1.4218762e-07
-4.5131473e-07
-1.4309958e-07
-4.3639916e-07
-1.4400038e-07
-4.2139589e-07
-1.4489165e-07
-4.0630558e-07
-1.4577492e-07
-3.9112868e-07
-1.4665173e-07
-3.7586554e-07
-1.4752355e-07
-3.6051636e-07
-1.4839178e-07
-3.4508121e-07
-1.4925779e-07
-3.2956004e-07
-1.5012286e-07
-3.1395262e-07
-1.5098828e-07
-2.9825862e-07
-1.5185521e-07
-2.8247763e-07
-1.5272484e-07
-2.6660907e-07
-1.5359825e-07
-2.5065231e-07
-1.5447651e-07
-2.3460656e-07
-1.5536061e-07
-2.1847099e-07
-1.5625151e-07
-2.0224464e-07
-1.5715012e-07
-1.8592646e-07
-1.5805725e-07
-1.6951535e-07
-1.5897375e-07
-1.5301008e-07
-1.599004e-07
-1.3640942e-07
-1.6083784e-07
-1.1971204e-07
-1.617868e-07
-1.0291652e-07
-1.627479e-07
-8.6021472e-08
-1.6372164e-07
-6.90254e-08
-1.6470858e-07
-5.1926775e-08
-1.6570919e-07
-3.4724041e-08
-1.6672382e-07
-1.7415647e-08
-1.6775256e-07
-1.6879501e-07
-1.0167536e-06
-3.6442725e-08
-1.0122891e-06
-4.135372e-08
-1.0073879e-06
-4.6125257e-08
-1.0020635e-06
-5.0757964e-08
-9.9632952e-07
-5.5252771e-08
-9.9019912e-07
-5.9610856e-08
-9.8368541e-07
-6.383371e-08
-9.7680129e-07
-6.7923017e-08
-9.6955938e-07
-7.1880684e-08
-9.6197207e-07
-7.5708834e-08
-9.5405151e-07
-7.9409755e-08
-9.4580953e-07
-8.2985877e-08
-9.3725773e-07
-8.643978e-08
-9.2840736e-07
-8.9774157e-08
-9.1926945e-07
-9.2991814e-08
-9.0985462e-07
-9.6095677e-08
-9.0017326e-07
-9.9088706e-08
-8.9023544e-07
-1.0197394e-07
-8.8005085e-07
-1.047545e-07
-8.696289e-07
-1.0743356e-07
-8.589787e-07
-1.1001425e-07
-8.4810902e-07
-1.1249981e-07
-8.3702826e-07
-1.1489343e-07
-8.2574462e-07
-1.171983e-07
-8.1426588e-07
-1.1941772e-07
-8.0259954e-07
-1.2155489e-07
-7.9075277e-07
-1.2361297e-07
-7.7873246e-07
-1.2559518e-07
-7.665452e-07
-1.2750463e-07
-7.5419726e-07
-1.293445e-07
-7.4169459e-07
-1.3111783e-07
-7.290429e-07
-1.3282768e-07
-7.1624759e-07
-1.3447703e-07
-7.0331377e-07
-1.3606888e-07
-6.902463e-07
-1.3760616e-07
-6.7704972e-07
-1.3909166e-07
-6.6372837e-07
-1.4052825e-07
-6.5028632e-07
-1.4191866e-07
-6.3672733e-07
-1.4326557e-07
-6.2305498e-07
-1.4457163e-07
-6.0927258e-07
-1.4583943e-07
-5.9538319e-07
-1.4707147e-07
-5.8138971e-07
-1.4827023e-07
-5.6729474e-07
-1.4943809e-07
-5.531007e-07
-1.505774e-07
-5.3880979e-07
-1.5169046e-07
-5.24424e-07
-1.5277943e-07
-5.0994513e-07
-1.5384648e-07
-4.9537483e-07
-1.5489371e-07
-4.8071447e-07
-1.5592315e-07
-4.6596533e-07
-1.5693676e-07
-4.5112846e-07
-1.5793646e-07
-4.3620476e-07
-1.5892409e-07
-4.2119499e-07
-1.5990142e-07
-4.0609969e-07
-1.6087023e-07
-3.9091931e-07
-1.6183211e-07
-3.7565413e-07
-1.6278875e-07
-3.6030425e-07
-1.6374165e-07
-3.4486969e-07
-1.6469234e-07
-3.2935035e-07
-1.6564222e-07
-3.137459e-07
-1.6659271e-07
-2.9805604e-07
-1.6754508e-07
-2.8228021e-07
-1.6850066e-07
-2.6641785e-07
-1.6946064e-07
-2.5046819e-07
-1.7042614e-07
-2.344305e-07
-1.7139832e-07
-2.1830376e-07
-1.7237824e-07
-2.0208706e-07
-1.733668e-07
-1.8577926e-07
-1.7436506e-07
-1.6937919e-07
-1.7537381e-07
-1.5288563e-07
-1.7639396e-07
-1.3629723e-07
-1.7742623e-07
-1.1961265e-07
-1.7847139e-07
-1.0283043e-07
-1.7953013e-07
-8.5949067e-08
-1.8060299e-07
-6.896703e-08
-1.8169062e-07
-5.1882736e-08
-1.8279349e-07
-3.4694555e-08
-1.83912e-07
-1.7400856e-08
-1.8504625e-07
-1.8619585e-07
-1.0211877e-06
-4.0652855e-08
-1.0165305e-06
-4.6010956e-08
-1.0114401e-06
-5.1215652e-08
-1.0059303e-06
-5.6267702e-08
-1.0000149e-06
-6.1168228e-08
-9.937071e-07
-6.5918617e-08
-9.8702026e-07
-7.0520544e-08
-9.7996731e-07
-7.4975968e-08
-9.7256098e-07
-7.9287008e-08
-9.6481375e-07
-8.3456073e-08
-9.567378e-07
-8.74857e-08
-9.4834503e-07
-9.1378657e-08
-9.3964703e-07
-9.5137767e-08
-9.3065512e-07
-9.8766068e-08
-9.2138028e-07
-1.0226666e-07
-9.1183318e-07
-1.0564278e-07
-9.0202416e-07
-1.0889773e-07
-8.9196325e-07
-1.1203485e-07
-8.8166014e-07
-1.1505762e-07
-8.711242e-07
-1.1796949e-07
-8.6036448e-07
-1.2077396e-07
-8.4938969e-07
-1.2347459e-07
-8.3820821e-07
-1.2607489e-07
-8.2682809e-07
-1.2857843e-07
-8.1525712e-07
-1.3098869e-07
-8.0350269e-07
-1.3330933e-07
-7.9157189e-07
-1.3554377e-07
-7.7947157e-07
-1.376955e-07
-7.6720819e-07
-1.3976802e-07
-7.5478794e-07
-1.4176474e-07
-7.4221673e-07
-1.4368903e-07
-7.2950014e-07
-1.4554427e-07
-7.1664349e-07
-1.473337e-07
-7.0365178e-07
-1.4906056e-07
-6.9052981e-07
-1.5072811e-07
-6.7728204e-07
-1.5233943e-07
-6.6391271e-07
-1.5389759e-07
-6.5042574e-07
-1.5540562e-07
-6.3682487e-07
-1.5686643e-07
-6.2311358e-07
-1.5828292e-07
-6.0929505e-07
-1.5965796e-07
-5.9537232e-07
-1.6099421e-07
-5.8134813e-07
-1.6229442e-07
-5.6722503e-07
-1.635612e-07
-5.5300533e-07
-1.647971e-07
-5.3869117e-07
-1.6600461e-07
-5.2428445e-07
-1.6718614e-07
-5.0978693e-07
-1.68344e-07
-4.9520009e-07
-1.6948054e-07
-4.805253e-07
-1.7059794e-07
-4.6576373e-07
-1.7169833e-07
-4.5091635e-07
-1.7278384e-07
-4.35984e-07
-1.7385644e-07
-4.209673e-07
-1.749181e-07
-4.0586682e-07
-1.759707e-07
-3.9068288e-07
-1.7701606e-07
-3.7541568e-07
-1.7805595e-07
-3.600653e-07
-1.7909203e-07
-3.4463167e-07
-1.8012597e-07
-3.2911458e-07
-1.8115931e-07
-3.1351372e-07
-1.8219355e-07
-2.9782863e-07
-1.8323016e-07
-2.8205876e-07
-1.8427053e-07
-2.6620345e-07
-1.8531594e-07
-2.5026189e-07
-1.863677e-07
-2.3423325e-07
-1.8742697e-07
-2.1811655e-07
-1.8849493e-07
-2.019107e-07
-1.8957268e-07
-1.8561455e-07
-1.9066119e-07
-1.6922691e-07
-1.9176146e-07
-1.5274645e-07
-1.9287441e-07
-1.3617179e-07
-1.9400089e-07
-1.1950152e-07
-1.9514168e-07
-1.0273412e-07
-1.9629753e-07
-8.5868056e-08
-1.9746907e-07
-6.8901699e-08
-1.9865696e-07
-5.1833413e-08
-1.9986177e-07
-3.4661521e-08
-2.010839e-07
-1.7384255e-08
-2.0232348e-07
-2.035801e-07
-1.0260145e-06
-4.5078178e-08
-1.0211458e-06
-5.0879611e-08
-1.0158481e-06
-5.6513439e-08
-1.0101351e-06
-6.1980618e-08
-1.0040209e-06
-6.7282474e-08
-9.975189e-07
-7.242061e-08
-9.906425e-07
-7.7396944e-08
-9.8340481e-07
-8.2213655e-08
-9.7581862e-07
-8.6873185e-08
-9.678965e-07
-9.1378192e-08
-9.5965067e-07
-9.5731536e-08
-9.5109308e-07
-9.9936237e-08
-9.4223538e-07
-1.0399547e-07
-9.3308886e-07
-1.0791257e-07
-9.2366455e-07
-1.1169099e-07
-9.1397306e-07
-1.1533426e-07
-9.0402472e-07
-1.1884605e-07
-8.9382955e-07
-1.2223002e-07
-8.833972e-07
-1.2548997e-07
-8.72737e-07
-1.286297e-07
-8.618579e-07
-1.3165306e-07
-8.5076859e-07
-1.3456392e-07
-8.3947737e-07