/*--------------------------------*- C++ -*----------------------------------*\
| =========                 |                                                 |
| \\      /  F ield         | OpenFOAM: The Open Source CFD Toolbox           |
|  \\    /   O peration     | Version:  2306                                  |
|   \\  /    A nd           | Website:  www.openfoam.com                      |
|    \\/     M anipulation  |                                                 |
\*---------------------------------------------------------------------------*/
FoamFile
{
    version     2.0;
    format      ascii;
    arch        "LSB;label=32;scalar=64";
    class       surfaceScalarField;
    location    "0.03";
    object      phi_0;
}
// * * * * * * * * * * * * * * * * * * * * * * * * * * * * * * * * * * * * * //

dimensions      [0 3 -1 0 0 0 0];

oriented        oriented;

internalField   nonuniform List<scalar> 
12640
(
-7.0351184e-07
-2.1656309e-09
-7.0101631e-07
-2.4955354e-09
-6.9819996e-07
-2.8163491e-09
-6.9507185e-07
-3.1281123e-09
-6.9164095e-07
-3.4309003e-09
-6.8791616e-07
-3.7247934e-09
-6.8390628e-07
-4.0098742e-09
-6.7962002e-07
-4.2862545e-09
-6.7506599e-07
-4.5540305e-09
-6.7025267e-07
-4.8133242e-09
-6.651884e-07
-5.0642648e-09
-6.5988141e-07
-5.3069932e-09
-6.5433975e-07
-5.5416681e-09
-6.4857129e-07
-5.7684446e-09
-6.4258376e-07
-5.9875335e-09
-6.363847e-07
-6.1990637e-09
-6.2998146e-07
-6.4032322e-09
-6.2338123e-07
-6.6002386e-09
-6.1659096e-07
-6.790268e-09
-6.0961743e-07
-6.9735245e-09
-6.0246722e-07
-7.1502177e-09
-5.9514668e-07
-7.3205274e-09
-5.8766201e-07
-7.4846943e-09
-5.8001911e-07
-7.6429028e-09
-5.7222375e-07
-7.7953678e-09
-5.6428149e-07
-7.9422569e-09
-5.5619762e-07
-8.0838489e-09
-5.4797732e-07
-8.2203089e-09
-5.3962547e-07
-8.3518398e-09
-5.311468e-07
-8.4786529e-09
-5.2254587e-07
-8.6009563e-09
-5.1382695e-07
-8.718924e-09
-5.0499416e-07
-8.8327915e-09
-4.9605142e-07
-8.9427357e-09
-4.870025e-07
-9.0489281e-09
-4.778509e-07
-9.1515887e-09
-4.686e-07
-9.2508972e-09
-4.5925299e-07
-9.3470165e-09
-4.4981284e-07
-9.4401483e-09
-4.402824e-07
-9.5304569e-09
-4.3066428e-07
-9.6181014e-09
-4.20961e-07
-9.7032782e-09
-4.1117486e-07
-9.7861477e-09
-4.01308e-07
-9.8668569e-09
-3.9136244e-07
-9.9455623e-09
-3.8134002e-07
-1.0022412e-08
-3.7124248e-07
-1.0097552e-08
-3.6107132e-07
-1.0171152e-08
-3.5082802e-07
-1.024331e-08
-3.405138e-07
-1.0314195e-08
-3.3012986e-07
-1.0383951e-08
-3.1967718e-07
-1.0452682e-08
-3.0915668e-07
-1.0520511e-08
-2.9856913e-07
-1.0587551e-08
-2.8791518e-07
-1.0653937e-08
-2.771954e-07
-1.0719795e-08
-2.664102e-07
-1.0785196e-08
-2.5555993e-07
-1.0850253e-08
-2.4464484e-07
-1.0915095e-08
-2.3366506e-07
-1.0979786e-08
-2.2262061e-07
-1.104444e-08
-2.1151149e-07
-1.1109136e-08
-2.0033753e-07
-1.117395e-08
-1.8909856e-07
-1.1238975e-08
-1.7779428e-07
-1.1304295e-08
-1.6642431e-07
-1.1369949e-08
-1.5498824e-07
-1.1436083e-08
-1.4348558e-07
-1.1502654e-08
-1.319158e-07
-1.1569764e-08
-1.2027833e-07
-1.1637485e-08
-1.0857253e-07
-1.170579e-08
-9.6797811e-08
-1.1774699e-08
-8.4953694e-08
-1.1844139e-08
-7.3039903e-08
-1.1913779e-08
-6.1056953e-08
-1.1982936e-08
-4.9007083e-08
-1.2049889e-08
-3.6896162e-08
-1.2110924e-08
-2.4735497e-08
-1.2160669e-08
-1.2516599e-08
-1.2218894e-08
-1.251661e-08
-9.5731669e-07
-5.1368768e-09
-9.5389856e-07
-5.9136556e-09
-9.5004558e-07
-6.6693378e-09
-9.4576975e-07
-7.4039578e-09
-9.4108307e-07
-8.117563e-09
-9.3599754e-07
-8.8103135e-09
-9.3052505e-07
-9.4823759e-09
-9.2467739e-07
-1.0133921e-08
-9.1846622e-07
-1.0765212e-08
-9.1190304e-07
-1.1376501e-08
-9.0499918e-07
-1.1968109e-08
-8.9776582e-07
-1.2540378e-08
-8.9021383e-07
-1.3093637e-08
-8.8235398e-07
-1.3628309e-08
-8.7419672e-07
-1.4144781e-08
-8.6575232e-07
-1.4643475e-08
-8.5703074e-07
-1.5124794e-08
-8.4804175e-07
-1.5589235e-08
-8.3879476e-07
-1.6037252e-08
-8.2929903e-07
-1.6469257e-08
-8.1956344e-07
-1.6885788e-08
-8.0959667e-07
-1.72873e-08
-7.994071e-07
-1.7674272e-08
-7.8900278e-07
-1.8047209e-08
-7.7839156e-07
-1.8406611e-08
-7.6758089e-07
-1.8752909e-08
-7.5657809e-07
-1.9086649e-08
-7.4539009e-07
-1.9408316e-08
-7.3402358e-07
-1.9718335e-08
-7.2248497e-07
-2.0017271e-08
-7.1078038e-07
-2.0305532e-08
-6.9891567e-07
-2.0583636e-08
-6.8689642e-07
-2.085203e-08
-6.7472797e-07
-2.1111183e-08
-6.6241539e-07
-2.1361516e-08
-6.4996347e-07
-2.1603495e-08
-6.3737679e-07
-2.1837576e-08
-6.2465965e-07
-2.2064163e-08
-6.1181611e-07
-2.2283677e-08
-5.9885e-07
-2.2496546e-08
-5.8576491e-07
-2.2703206e-08
-5.725642e-07
-2.2903982e-08
-5.5925103e-07
-2.3099333e-08
-5.458283e-07
-2.3289574e-08
-5.3229873e-07
-2.3475101e-08
-5.1866486e-07
-2.36563e-08
-5.0492896e-07
-2.3833454e-08
-4.9109314e-07
-2.4006944e-08
-4.7715937e-07
-2.4177097e-08
-4.6312934e-07
-2.4344251e-08
-4.4900457e-07
-2.4508701e-08
-4.3478651e-07
-2.4670747e-08
-4.2047633e-07
-2.4830695e-08
-4.0607508e-07
-2.4988784e-08
-3.9158368e-07
-2.5145345e-08
-3.7700284e-07
-2.5300631e-08
-3.6233317e-07
-2.5454865e-08
-3.4757512e-07
-2.5608308e-08
-3.3272898e-07
-2.5761221e-08
-3.1779496e-07
-2.5913826e-08
-3.027731e-07
-2.6066278e-08
-2.8766336e-07
-2.621888e-08
-2.7246552e-07
-2.6371773e-08
-2.571793e-07
-2.6525163e-08
-2.4180435e-07
-2.667925e-08
-2.2634016e-07
-2.6834178e-08
-2.1078606e-07
-2.6990134e-08
-1.9514151e-07
-2.7147232e-08
-1.7940569e-07
-2.7305598e-08
-1.6357773e-07
-2.7465409e-08
-1.4765681e-07
-2.7626718e-08
-1.3164196e-07
-2.7789573e-08
-1.1553214e-07
-2.7953956e-08
-9.9326198e-08
-2.8119689e-08
-8.3022724e-08
-2.8286411e-08
-6.6619253e-08
-2.8453355e-08
-5.0110532e-08
-2.8619636e-08
-3.3483334e-08
-2.8787884e-08
-1.6726389e-08
-2.8975841e-08
-2.9242995e-08
-9.8970021e-07
-8.2312431e-09
-9.8614338e-07
-9.4704722e-09
-9.8213684e-07
-1.0675886e-08
-9.7769324e-07
-1.1847531e-08
-9.7282525e-07
-1.2985558e-08
-9.6754541e-07
-1.4090165e-08
-9.6186609e-07
-1.5161675e-08
-9.5579961e-07
-1.6200417e-08
-9.4935804e-07
-1.7206774e-08
-9.4255335e-07
-1.8181194e-08
-9.3539727e-07
-1.9124198e-08
-9.2790133e-07
-2.0036307e-08
-9.2007687e-07
-2.0918096e-08
-9.1193498e-07
-2.1770207e-08
-9.0348649e-07
-2.2593273e-08
-8.94742e-07
-2.3387972e-08
-8.8571181e-07
-2.4154975e-08
-8.7640602e-07
-2.4895035e-08
-8.6683439e-07
-2.5608872e-08
-8.5700645e-07
-2.6297216e-08
-8.4693139e-07
-2.6960838e-08
-8.3661813e-07
-2.7600545e-08
-8.2607535e-07
-2.8217051e-08
-8.1531138e-07
-2.8811185e-08
-8.0433428e-07
-2.938371e-08
-7.931518e-07
-2.9935396e-08
-7.8177142e-07
-3.0467022e-08
-7.7020033e-07
-3.09794e-08
-7.5844543e-07
-3.147327e-08
-7.465133e-07
-3.1949402e-08
-7.3441029e-07
-3.2408549e-08
-7.2214241e-07
-3.2851519e-08
-7.0971545e-07
-3.3279002e-08
-6.9713489e-07
-3.369175e-08
-6.8440596e-07
-3.409044e-08
-6.7153361e-07
-3.4475856e-08
-6.5852251e-07
-3.4848675e-08
-6.4537711e-07
-3.5209556e-08
-6.3210159e-07
-3.55592e-08
-6.1869989e-07
-3.5898251e-08
-6.0517577e-07
-3.6227355e-08
-5.915326e-07
-3.6547157e-08
-5.7777365e-07
-3.6858257e-08
-5.6390196e-07
-3.7161283e-08
-5.4992029e-07
-3.7456777e-08
-5.3583122e-07
-3.7745363e-08
-5.2163715e-07
-3.8027531e-08
-5.0734016e-07
-3.8303898e-08
-4.9294229e-07
-3.8574953e-08
-4.7844532e-07
-3.8841244e-08
-4.6385082e-07
-3.9103175e-08
-4.4916027e-07
-3.9361354e-08
-4.3437479e-07
-3.9616141e-08
-4.1949553e-07
-3.9868035e-08
-4.0452342e-07
-4.0117481e-08
-3.8945913e-07
-4.0364904e-08
-3.7430333e-07
-4.0610659e-08
-3.5905647e-07
-4.0855183e-08
-3.4371883e-07
-4.1098862e-08
-3.2829061e-07
-4.1342036e-08
-3.1277185e-07
-4.1585048e-08
-2.9716249e-07
-4.1828257e-08
-2.8146227e-07
-4.207194e-08
-2.6567099e-07
-4.2316477e-08
-2.4978815e-07
-4.2562078e-08
-2.3381325e-07
-4.2809064e-08
-2.177457e-07
-4.3057705e-08
-2.0158472e-07
-4.3308176e-08
-1.8532959e-07
-4.3560776e-08
-1.6897934e-07
-4.3815653e-08
-1.5253309e-07
-4.4072978e-08
-1.359897e-07
-4.4332942e-08
-1.1934808e-07
-4.4595605e-08
-1.0260675e-07
-4.4861003e-08
-8.5763982e-08
-4.5129179e-08
-6.881713e-08
-4.5400219e-08
-5.1761959e-08
-4.5674786e-08
-3.4594462e-08
-4.5955377e-08
-1.7322077e-08
-4.6248223e-08
-4.6565075e-08
-9.9382666e-07
-1.1383695e-08
-9.9021134e-07
-1.3085784e-08
-9.861459e-07
-1.4741317e-08
-9.8164308e-07
-1.6350372e-08
-9.7671553e-07
-1.7913097e-08
-9.7137586e-07
-1.9429848e-08
-9.6563652e-07
-2.0901015e-08
-9.5950984e-07
-2.2327097e-08
-9.5300799e-07
-2.3708602e-08
-9.4614298e-07
-2.5046219e-08
-9.3892657e-07
-2.6340605e-08
-9.3137038e-07
-2.7592485e-08
-9.2348575e-07
-2.8802728e-08
-9.1528384e-07
-2.9972128e-08
-9.0677549e-07
-3.1101611e-08
-8.9797135e-07
-3.2192106e-08
-8.8888178e-07
-3.3244543e-08
-8.7951686e-07
-3.425996e-08
-8.6988641e-07
-3.5239322e-08
-8.5999994e-07
-3.6183692e-08
-8.4986671e-07
-3.709409e-08
-8.3949565e-07
-3.7971603e-08
-8.288954e-07
-3.8817291e-08
-8.1807435e-07
-3.9632232e-08
-8.0704056e-07
-4.0417485e-08
-7.958018e-07
-4.1174133e-08
-7.8436557e-07
-4.1903272e-08
-7.7273901e-07
-4.260595e-08
-7.6092905e-07
-4.3283227e-08
-7.4894229e-07
-4.3936163e-08
-7.3678501e-07
-4.4565796e-08
-7.2446333e-07
-4.5173231e-08
-7.1198294e-07
-4.5759367e-08
-6.9934936e-07
-4.6325321e-08
-6.865678e-07
-4.6871997e-08
-6.736432e-07
-4.7400472e-08
-6.6058024e-07
-4.7911608e-08
-6.4738336e-07
-4.8406431e-08
-6.340567e-07
-4.8885837e-08
-6.2060422e-07
-4.9350708e-08
-6.0702965e-07
-4.9801944e-08
-5.9333638e-07
-5.0240413e-08
-5.7952767e-07
-5.0666973e-08
-5.6560651e-07
-5.1082453e-08
-5.5157566e-07
-5.1487619e-08
-5.374377e-07
-5.1883315e-08
-5.2319497e-07
-5.2270274e-08
-5.0884962e-07
-5.2649248e-08
-4.9440362e-07
-5.302097e-08
-4.7985874e-07
-5.3386107e-08
-4.6521657e-07
-5.374536e-08
-4.5047847e-07
-5.4099424e-08
-4.356457e-07
-5.4448926e-08
-4.2071931e-07
-5.4794446e-08
-4.0570017e-07
-5.5136616e-08
-3.9058903e-07
-5.5476013e-08
-3.7538648e-07
-5.5813196e-08
-3.6009298e-07
-5.6148691e-08
-3.4470878e-07
-5.6483058e-08
-3.292341e-07
-5.6816727e-08
-3.1366891e-07
-5.7150231e-08
-2.9801313e-07
-5.7484018e-08
-2.8226659e-07
-5.7818518e-08
-2.6642892e-07
-5.8154146e-08
-2.5049968e-07
-5.8491299e-08
-2.3447839e-07
-5.8830386e-08
-2.1836433e-07
-5.9171762e-08
-2.0215681e-07
-5.9515699e-08
-1.8585498e-07
-5.986257e-08
-1.6945796e-07
-6.0212681e-08
-1.5296471e-07
-6.0566231e-08
-1.3637417e-07
-6.0923493e-08
-1.1968508e-07
-6.1284692e-08
-1.0289611e-07
-6.1649988e-08
-8.6005615e-08
-6.2019658e-08
-6.9011749e-08
-6.2394102e-08
-5.1912567e-08
-6.277398e-08
-3.4707165e-08
-6.3160769e-08
-1.7398432e-08
-6.3556977e-08
-6.3963487e-08
-9.9560729e-07
-1.460349e-08
-9.9192562e-07
-1.6767466e-08
-9.877949e-07
-1.8872046e-08
-9.8322794e-07
-2.0917334e-08
-9.7823743e-07
-2.2903592e-08
-9.7283602e-07
-2.4831256e-08
-9.670362e-07
-2.670083e-08
-9.6085036e-07
-2.8512924e-08
-9.5429072e-07
-3.0268285e-08
-9.4736924e-07
-3.1967682e-08
-9.4009779e-07
-3.3612044e-08
-9.3248799e-07
-3.5202311e-08
-9.2455121e-07
-3.6739509e-08
-9.1629856e-07
-3.8224768e-08
-9.0774097e-07
-3.9659207e-08
-8.9888906e-07
-4.1044023e-08
-8.8975318e-07
-4.2380433e-08
-8.8034343e-07
-4.3669702e-08
-8.706696e-07
-4.491315e-08
-8.607412e-07
-4.6112062e-08
-8.5056751e-07
-4.7267813e-08
-8.4015741e-07
-4.8381687e-08
-8.2951956e-07
-4.9455139e-08
-8.1866231e-07
-5.0489485e-08
-8.0759368e-07
-5.1486129e-08
-7.9632147e-07
-5.2446357e-08
-7.848531e-07
-5.3371635e-08
-7.7319575e-07
-5.4263291e-08
-7.6135627e-07
-5.5122716e-08
-7.4934126e-07
-5.5951176e-08
-7.3715698e-07
-5.675008e-08
-7.2480952e-07
-5.7520687e-08
-7.1230452e-07
-5.8264356e-08
-6.9964751e-07
-5.8982344e-08
-6.8684362e-07
-5.9675885e-08
-6.738978e-07
-6.0346292e-08
-6.608147e-07
-6.0994735e-08
-6.475987e-07
-6.162243e-08
-6.3425397e-07
-6.2230579e-08
-6.2078441e-07
-6.2820263e-08
-6.071937e-07
-6.3392645e-08
-5.9348523e-07
-6.3948888e-08
-5.7966219e-07
-6.4490021e-08
-5.6572758e-07
-6.5017056e-08
-5.5168412e-07
-6.5531075e-08
-5.3753435e-07
-6.6033073e-08
-5.2328062e-07
-6.6524023e-08
-5.08925e-07
-6.700486e-08
-4.9446948e-07
-6.7476495e-08
-4.7991576e-07
-6.7939818e-08
-4.6526542e-07
-6.8395706e-08
-4.5051982e-07
-6.8845027e-08
-4.3568017e-07
-6.928859e-08
-4.2074749e-07
-6.9727123e-08
-4.0572266e-07
-7.0161474e-08
-3.9060635e-07
-7.0592309e-08
-3.7539918e-07
-7.1020382e-08
-3.6010157e-07
-7.1446351e-08
-3.4471372e-07
-7.1870864e-08
-3.2923581e-07
-7.229465e-08
-3.1366786e-07
-7.2718191e-08
-2.9800974e-07
-7.3142141e-08
-2.8226121e-07
-7.3567041e-08
-2.6642194e-07
-7.3993421e-08
-2.5049143e-07
-7.4421802e-08
-2.3446915e-07
-7.4852663e-08
-2.1835443e-07
-7.5286486e-08
-2.021465e-07
-7.5723631e-08
-1.8584453e-07
-7.6164567e-08
-1.6944754e-07
-7.6609637e-08
-1.5295457e-07
-7.7059206e-08
-1.3636443e-07
-7.7513631e-08
-1.196759e-07
-7.7973191e-08
-1.0288771e-07
-7.8438207e-08
-8.5998339e-08
-7.8909032e-08
-6.9006313e-08
-7.938611e-08
-5.1910322e-08
-7.9869981e-08
-3.4709634e-08
-8.0361464e-08
-1.7405253e-08
-8.0861336e-08
-8.1368734e-08
-9.9759346e-07
-1.7907795e-08
-9.9382862e-07
-2.0532316e-08
-9.8961616e-07
-2.3084495e-08
-9.8496895e-07
-2.5564543e-08
-9.7989979e-07
-2.797278e-08
-9.7442137e-07
-3.0309679e-08
-9.6854626e-07
-3.2575935e-08
-9.6228689e-07
-3.47723e-08
-9.5565549e-07
-3.6899652e-08
-9.4866414e-07
-3.8959024e-08
-9.4132472e-07
-4.0951483e-08
-9.3364883e-07
-4.2878191e-08
-9.2564788e-07
-4.4740469e-08
-9.1733302e-07
-4.6539619e-08
-9.0871517e-07
-4.8277068e-08
-8.9980495e-07
-4.9954238e-08
-8.9061271e-07
-5.1572653e-08
-8.8114857e-07
-5.3133851e-08
-8.7142227e-07
-5.4639437e-08
-8.6144338e-07
-5.6090961e-08
-8.5122105e-07
-5.7490131e-08
-8.4076421e-07
-5.8838527e-08
-8.3008151e-07
-6.0137844e-08
-8.1918125e-07
-6.1389761e-08
-8.0807144e-07
-6.2595914e-08
-7.9675983e-07
-6.3757974e-08
-7.8525381e-07
-6.4877655e-08
-7.7356056e-07
-6.5956577e-08
-7.6168687e-07
-6.6996399e-08
-7.4963931e-07
-6.7998729e-08
-7.3742415e-07
-6.8965247e-08
-7.2504733e-07
-6.9897515e-08
-7.1251456e-07
-7.0797125e-08
-6.9983127e-07
-7.1665629e-08
-6.8700258e-07
-7.2504565e-08
-6.7403343e-07
-7.3315459e-08
-6.6092838e-07
-7.4099782e-08
-6.476918e-07
-7.4858997e-08
-6.3432784e-07
-7.5594538e-08
-6.2084032e-07
-7.630778e-08
-6.0723287e-07
-7.7000101e-08
-5.9350889e-07
-7.7672869e-08
-5.7967154e-07
-7.8327381e-08
-5.6572369e-07
-7.8964877e-08
-5.5166813e-07
-7.9586659e-08
-5.3750732e-07
-8.0193872e-08
-5.2324355e-07
-8.0787793e-08
-5.0887894e-07
-8.1369439e-08
-4.9441536e-07
-8.1940082e-08
-4.7985449e-07
-8.2500664e-08
-4.6519788e-07
-8.3052318e-08
-4.5044688e-07
-8.3596045e-08
-4.3560263e-07
-8.4132825e-08
-4.2066614e-07
-8.4663608e-08
-4.0563826e-07
-8.5189378e-08
-3.9051962e-07
-8.5710931e-08
-3.7531082e-07
-8.6229166e-08
-3.6001219e-07
-8.6744946e-08
-3.4462402e-07
-8.7259059e-08
-3.2914636e-07
-8.7772291e-08
-3.1357926e-07
-8.828531e-08
-2.9792249e-07
-8.8798885e-08
-2.8217586e-07
-8.9313672e-08
-2.6633895e-07
-8.9830332e-08
-2.5041124e-07
-9.0349481e-08
-2.3439222e-07
-9.0871666e-08
-2.1828117e-07
-9.1397537e-08
-2.0207728e-07
-9.1927524e-08
-1.8577966e-07
-9.2462146e-08
-1.693874e-07
-9.3001906e-08
-1.528994e-07
-9.354721e-08
-1.3631452e-07
-9.4098503e-08
-1.1963156e-07
-9.4656155e-08
-1.0284919e-07
-9.5220559e-08
-8.5966077e-08
-9.579213e-08
-6.8980844e-08
-9.6371306e-08
-5.1892285e-08
-9.6958549e-08
-3.4699509e-08
-9.7554233e-08
-1.7402181e-08
-9.8158674e-08
-9.8770946e-08
-9.9998321e-07
-2.1314828e-08
-9.9611729e-07
-2.4398233e-08
-9.9180551e-07
-2.7396275e-08
-9.8706085e-07
-3.0309221e-08
-9.8189616e-07
-3.3137445e-08
-9.7632426e-07
-3.5881593e-08
-9.7035777e-07
-3.8542423e-08
-9.6400918e-07
-4.1120885e-08
-9.572908e-07
-4.3618031e-08
-9.5021474e-07
-4.603509e-08
-9.4279288e-07
-4.8373326e-08
-9.3503692e-07
-5.0634173e-08
-9.2695823e-07
-5.2819146e-08
-9.1856802e-07
-5.4929837e-08
-9.0987721e-07
-5.6967887e-08
-9.008964e-07
-5.893503e-08
-8.9163598e-07
-6.0833078e-08
-8.82106e-07
-6.266383e-08
-8.7231629e-07
-6.4429163e-08
-8.6227627e-07
-6.6130968e-08
-8.5199519e-07
-6.7771224e-08
-8.414819e-07
-6.9351816e-08
-8.3074502e-07
-7.0874749e-08
-8.1979282e-07
-7.2341951e-08
-8.0863331e-07
-7.3755426e-08
-7.9727416e-07
-7.5117128e-08
-7.8572278e-07
-7.6429028e-08
-7.7398623e-07
-7.7693117e-08
-7.6207132e-07
-7.89113e-08
-7.4998454e-07
-8.0085512e-08
-7.3773215e-07
-8.1217648e-08
-7.2532004e-07
-8.2309616e-08
-7.1275387e-07
-8.3363297e-08
-7.0003902e-07
-8.4380487e-08
-6.8718059e-07
-8.5362994e-08
-6.7418342e-07
-8.6312635e-08
-6.6105207e-07
-8.7231133e-08
-6.4779085e-07
-8.8120199e-08
-6.3440385e-07
-8.8981562e-08
-6.2089485e-07
-8.9816762e-08
-6.0726743e-07
-9.0627515e-08
-5.9352495e-07
-9.1415345e-08
-5.796705e-07
-9.2181809e-08
-5.6570701e-07
-9.2928385e-08
-5.5163706e-07
-9.3656595e-08
-5.3746319e-07
-9.4367771e-08
-5.231876e-07
-9.5063366e-08
-5.0881235e-07
-9.5744733e-08
-4.9433929e-07
-9.641313e-08
-4.7977009e-07
-9.706988e-08
-4.651062e-07
-9.7716189e-08
-4.5034894e-07
-9.8353295e-08
-4.3549945e-07
-9.8982309e-08
-4.2055868e-07
-9.960439e-08
-4.055274e-07
-1.0022063e-07
-3.904063e-07
-1.0083204e-07
-3.7519584e-07
-1.0143963e-07
-3.5989636e-07
-1.0204445e-07
-3.4450808e-07
-1.0264734e-07
-3.2903108e-07
-1.0324929e-07
-3.1346527e-07
-1.038511e-07
-2.9781052e-07
-1.0445365e-07
-2.820665e-07
-1.050577e-07
-2.6623278e-07
-1.0566404e-07
-2.5030889e-07
-1.0627339e-07
-2.3429417e-07
-1.0688641e-07
-2.1818788e-07
-1.0750382e-07
-2.0198927e-07
-1.0812616e-07
-1.8569732e-07
-1.0875409e-07
-1.6931109e-07
-1.0938811e-07
-1.5282954e-07
-1.1002877e-07
-1.3625148e-07
-1.1067659e-07
-1.1957564e-07
-1.1133197e-07
-1.0280075e-07
-1.1199545e-07
-8.5925513e-08
-1.126674e-07
-6.894854e-08
-1.1334828e-07
-5.1868635e-08
-1.1403845e-07
-3.4684602e-08
-1.1473828e-07
-1.7395468e-08
-1.1544781e-07
-1.161664e-07
-1.0027866e-06
-2.4842882e-08
-9.9880156e-07
-2.8383237e-08
-9.9437277e-07
-3.1825068e-08
-9.8951331e-07
-3.516868e-08
-9.8423616e-07
-3.8414597e-08
-9.7855419e-07
-4.1563555e-08
-9.7248015e-07
-4.4616476e-08
-9.6602656e-07
-4.7574464e-08
-9.5920582e-07
-5.0438782e-08
-9.520301e-07
-5.3210825e-08
-9.445113e-07
-5.5892116e-08
-9.3666115e-07
-5.8484318e-08
-9.2849109e-07
-6.0989203e-08
-9.2001232e-07
-6.3408611e-08
-9.1123574e-07
-6.5744463e-08
-9.0217202e-07
-6.7998774e-08
-8.9283147e-07
-7.0173619e-08
-8.8322419e-07
-7.2271114e-08
-8.7335994e-07
-7.4293404e-08
-8.6324818e-07
-7.6242722e-08
-8.5289812e-07
-7.8121311e-08
-8.4231855e-07
-7.993137e-08
-8.3151808e-07
-8.1675208e-08
-8.2050495e-07
-8.3355063e-08
-8.0928711e-07
-8.497326e-08
-7.9787221e-07
-8.6532027e-08
-7.8626759e-07
-8.8033647e-08
-7.7448029e-07
-8.9480431e-08
-7.6251705e-07
-9.0874527e-08
-7.5038435e-07
-9.2218219e-08
-7.3808834e-07
-9.3513684e-08
-7.2563487e-07
-9.4763074e-08
-7.1302961e-07
-9.5968572e-08
-7.0027779e-07
-9.7132274e-08
-6.8738452e-07
-9.8256278e-08
-6.7435455e-07
-9.9342599e-08
-6.6119241e-07
-1.0039326e-07
-6.4790239e-07
-1.0141026e-07
-6.3448841e-07
-1.0239551e-07
-6.2095431e-07
-1.033509e-07
-6.0730356e-07
-1.0427826e-07
-5.9353948e-07
-1.0517943e-07
-5.7966512e-07
-1.0605618e-07
-5.6568328e-07
-1.0691021e-07
-5.5159662e-07
-1.0774323e-07
-5.3740752e-07
-1.0855689e-07
-5.2311815e-07
-1.093527e-07
-5.0873055e-07
-1.1013233e-07
-4.9424647e-07
-1.1089719e-07
-4.7966759e-07
-1.1164878e-07
-4.6499528e-07
-1.1238849e-07
-4.5023083e-07
-1.1311775e-07
-4.3537528e-07
-1.1383787e-07
-4.2042958e-07
-1.1455012e-07
-4.0539448e-07
-1.1525576e-07
-3.9027052e-07
-1.1595598e-07
-3.7505823e-07
-1.1665196e-07
-3.5975786e-07
-1.173448e-07
-3.443696e-07
-1.1803562e-07
-3.2889346e-07
-1.1872543e-07
-3.1332934e-07
-1.194152e-07
-2.9767705e-07
-1.2010594e-07
-2.8193621e-07
-1.2079854e-07
-2.6610638e-07
-1.2149386e-07
-2.5018705e-07
-1.2219273e-07
-2.3417746e-07
-1.2289599e-07
-2.1807694e-07
-1.2360435e-07
-2.0188458e-07
-1.2431853e-07
-1.8559942e-07
-1.2503921e-07
-1.692205e-07
-1.2576705e-07
-1.5274663e-07
-1.2650263e-07
-1.3617665e-07
-1.2724656e-07
-1.1950933e-07
-1.2799931e-07
-1.0274334e-07
-1.2876144e-07
-8.5877345e-08
-1.2953338e-07
-6.8909977e-08
-1.3031564e-07
-5.1839901e-08
-1.3110851e-07
-3.4665799e-08
-1.3191238e-07
-1.7386314e-08
-1.327273e-07
-1.3355275e-07
-1.0060008e-06
-2.8510396e-08
-1.0018786e-06
-3.2505428e-08
-9.9731504e-07
-3.6388595e-08
-9.9232339e-07
-4.0160337e-08
-9.8691674e-07
-4.3821242e-08
-9.8110809e-07
-4.7372202e-08
-9.7491027e-07
-5.0814311e-08
-9.6833589e-07
-5.4148842e-08
-9.6139741e-07
-5.7377257e-08
-9.5410708e-07
-6.0501163e-08
-9.4647683e-07
-6.3522356e-08
-9.3851843e-07
-6.6442737e-08
-9.3024335e-07
-6.9264294e-08
-9.216628e-07
-7.1989158e-08
-9.127877e-07
-7.4619559e-08
-9.0362872e-07
-7.7157775e-08
-8.9419617e-07
-7.9606162e-08
-8.8450015e-07
-8.196715e-08
-8.7455035e-07
-8.42432e-08
-8.6435626e-07
-8.6436815e-08
-8.5392701e-07
-8.8550557e-08
-8.4327142e-07
-9.0586968e-08
-8.3239803e-07
-9.2548608e-08
-8.2131502e-07
-9.4438084e-08
-8.100303e-07
-9.6257977e-08
-7.9855151e-07
-9.8010839e-08
-7.8688586e-07
-9.9699306e-08
-7.7504042e-07
-1.0132588e-07
-7.6302182e-07
-1.028931e-07
-7.508365e-07
-1.0440352e-07
-7.3849055e-07
-1.0585964e-07
-7.2598975e-07
-1.0726387e-07
-7.133397e-07
-1.0861861e-07
-7.0054564e-07
-1.0992636e-07
-6.876125e-07
-1.1118941e-07
-6.7454506e-07
-1.1241004e-07
-6.6134771e-07
-1.135906e-07
-6.4802469e-07
-1.1473327e-07
-6.3457997e-07
-1.1584025e-07
-6.2101717e-07
-1.1691366e-07
-6.0733982e-07
-1.1795561e-07
-5.9355108e-07
-1.1896817e-07
-5.7965399e-07
-1.1995329e-07
-5.6565129e-07
-1.2091293e-07
-5.5154554e-07
-1.2184899e-07
-5.373391e-07
-1.2276333e-07
-5.2303408e-07
-1.2365774e-07
-5.0863243e-07
-1.2453399e-07
-4.9413588e-07
-1.2539373e-07
-4.7954604e-07
-1.2623862e-07
-4.6486421e-07
-1.2707033e-07
-4.5009158e-07
-1.2789035e-07
-4.3522926e-07
-1.2870018e-07
-4.2027805e-07
-1.2950133e-07
-4.0523865e-07
-1.3029515e-07
-3.9011163e-07
-1.31083e-07
-3.7489735e-07
-1.3186622e-07
-3.595961e-07
-1.3264606e-07
-3.4420797e-07
-1.3342375e-07
-3.2873296e-07
-1.3420047e-07
-3.1317089e-07
-1.3497727e-07
-2.9752156e-07
-1.3575529e-07
-2.8178453e-07
-1.3653557e-07
-2.6595932e-07
-1.3731907e-07
-2.5004532e-07
-1.3810673e-07
-2.3404182e-07
-1.3889947e-07
-2.17948e-07
-1.3969816e-07
-2.0176296e-07
-1.4050352e-07
-1.8548577e-07
-1.4131643e-07
-1.6911529e-07
-1.4213752e-07
-1.5265039e-07
-1.4296753e-07
-1.3608987e-07
-1.4380707e-07
-1.1943244e-07
-1.4465675e-07
-1.0267673e-07
-1.4551713e-07
-8.582141e-08
-1.4638873e-07
-6.8865034e-08
-1.47272e-07
-5.1806191e-08
-1.4816739e-07
-3.4643377e-08
-1.4907516e-07
-1.7375173e-08
-1.4999549e-07
-1.5092789e-07
-1.0096218e-06
-3.2335911e-08
-1.0053443e-06
-3.6782987e-08
-1.0006281e-06
-4.1104736e-08
-9.9548684e-07
-4.5301632e-08
-9.8993364e-07
-4.9374438e-08
-9.8398164e-07
-5.3324207e-08
-9.7764379e-07
-5.7152166e-08
-9.709328e-07
-6.0859828e-08
-9.6386121e-07
-6.4448845e-08
-9.5644129e-07
-6.7921081e-08
-9.486851e-07
-7.1278571e-08
-9.4060437e-07
-7.4523432e-08
-9.3221065e-07
-7.7658005e-08
-9.2351517e-07
-8.0684654e-08
-9.1452883e-07
-8.360588e-08
-9.0526234e-07
-8.6424284e-08
-8.9572595e-07
-8.9142523e-08
-8.8592978e-07
-9.1763334e-08
-8.7588351e-07
-9.4289459e-08
-8.6559657e-07
-9.6723747e-08
-8.5507806e-07
-9.9069071e-08
-8.4433676e-07
-1.0132825e-07
-8.3338116e-07
-1.035042e-07
-8.2221941e-07
-1.0559983e-07
-8.1085939e-07
-1.0761801e-07
-7.9930856e-07
-1.0956166e-07
-7.8757425e-07
-1.1143361e-07
-7.7566334e-07
-1.132368e-07
-7.6358244e-07
-1.1497399e-07
-7.5133789e-07
-1.1664808e-07
-7.3893576e-07
-1.1826178e-07
-7.2638174e-07
-1.1981785e-07
-7.1368133e-07
-1.2131903e-07
-7.0083974e-07
-1.2276796e-07
-6.8786184e-07
-1.2416731e-07
-6.7475227e-07
-1.2551961e-07
-6.6151543e-07
-1.2682744e-07
-6.4815542e-07
-1.2809327e-07
-6.3467615e-07
-1.2931953e-07
-6.2108122e-07
-1.305086e-07
-6.07374e-07
-1.3166284e-07
-5.9355766e-07
-1.3278449e-07
-5.7963512e-07
-1.3387583e-07
-5.6560907e-07
-1.3493896e-07
-5.51482e-07
-1.3597607e-07
-5.3725617e-07
-1.3698915e-07
-5.2293367e-07
-1.3798023e-07
-5.0851639e-07
-1.3895126e-07
-4.9400597e-07
-1.3990413e-07
-4.7940389e-07
-1.408407e-07
-4.6471151e-07
-1.4176273e-07
-4.4992992e-07
-1.4267193e-07
-4.3506008e-07
-1.4357001e-07
-4.2010282e-07
-1.4445859e-07
-4.0505879e-07
-1.4533919e-07
-3.8992844e-07
-1.4621336e-07
-3.747121e-07
-1.4708255e-07
-3.5941004e-07
-1.4794815e-07
-3.4402222e-07
-1.4881154e-07
-3.2854867e-07
-1.4967401e-07
-3.1298913e-07
-1.5053682e-07
-2.9734329e-07
-1.5140114e-07
-2.8161072e-07
-1.5226815e-07
-2.6579084e-07
-1.5313893e-07
-2.4988304e-07
-1.5401454e-07
-2.3388653e-07
-1.5489599e-07
-2.1780048e-07
-1.5578422e-07
-2.016239e-07
-1.5668011e-07
-1.8535582e-07
-1.5758453e-07
-1.6899507e-07
-1.5849827e-07
-1.5254045e-07
-1.5942214e-07
-1.3599076e-07
-1.6035679e-07
-1.1934461e-07
-1.6130289e-07
-1.0260066e-07
-1.6226111e-07
-8.575744e-08
-1.6323192e-07
-6.8813543e-08
-1.6421591e-07
-5.1767386e-08
-1.6521351e-07
-3.4617454e-08
-1.6622511e-07
-1.7362192e-08
-1.6725076e-07
-1.682901e-07
-1.0136453e-06
-3.6338116e-08
-1.009194e-06
-4.123429e-08
-1.0043073e-06
-4.5991405e-08
-9.989988e-07
-5.0610116e-08
-9.9328192e-07
-5.5091346e-08
-9.8716986e-07
-5.943625e-08
-9.806757e-07
-6.364633e-08
-9.7381226e-07
-6.7723263e-08
-9.6659216e-07
-7.1668952e-08
-9.5902773e-07
-7.5485514e-08
-9.5113108e-07
-7.9175225e-08
-9.4291401e-07
-8.2740502e-08
-9.3438809e-07
-8.6183932e-08
-9.2556453e-07
-8.9508197e-08
-9.1645431e-07
-9.2716104e-08
-9.0706806e-07
-9.5810547e-08
-8.974161e-07
-9.8794491e-08
-8.8750846e-07
-1.0167097e-07
-8.7735484e-07
-1.0444308e-07
-8.6696458e-07
-1.0711399e-07
-8.563468e-07
-1.0968685e-07
-8.4551022e-07
-1.1216485e-07
-8.3446321e-07
-1.1455119e-07
-8.2321398e-07
-1.1684908e-07
-8.1177024e-07
-1.1906175e-07
-8.0013948e-07
-1.2119241e-07
-7.8832886e-07
-1.2324423e-07
-7.7634525e-07
-1.2522041e-07
-7.6419521e-07
-1.2712406e-07
-7.5188499e-07
-1.2895832e-07
-7.3942052e-07
-1.3072624e-07
-7.2680749e-07
-1.3243089e-07
-7.140513e-07
-1.3407522e-07
-7.0115703e-07
-1.3566222e-07
-6.8812953e-07
-1.3719482e-07
-6.7497334e-07
-1.386758e-07
-6.6169274e-07
-1.4010802e-07
-6.4829182e-07
-1.4149419e-07
-6.3477435e-07
-1.4283701e-07
-6.2114385e-07
-1.441391e-07
-6.0740364e-07
-1.4540304e-07
-5.9355681e-07
-1.4663133e-07
-5.7960618e-07
-1.4782644e-07
-5.6555439e-07
-1.4899074e-07
-5.5140384e-07
-1.501266e-07
-5.3715671e-07
-1.5123627e-07
-5.2281501e-07
-1.5232193e-07
-5.0838054e-07
-1.5338575e-07
-4.9385488e-07
-1.5442979e-07
-4.7923948e-07
-1.5545611e-07
-4.6453553e-07
-1.5646664e-07
-4.4974417e-07
-1.5746332e-07
-4.3486624e-07
-1.5844795e-07
-4.1990249e-07
-1.5942232e-07
-4.048535e-07
-1.603882e-07
-3.8971968e-07
-1.6134717e-07
-3.7450129e-07
-1.623009e-07
-3.5919853e-07
-1.6325093e-07
-3.4381132e-07
-1.6419875e-07
-3.2833957e-07
-1.6514575e-07
-3.1278302e-07
-1.6609336e-07
-2.9714129e-07
-1.6704287e-07
-2.8141387e-07
-1.6799557e-07
-2.6560017e-07
-1.6895264e-07
-2.4969947e-07
-1.6991523e-07
-2.3371098e-07
-1.7088448e-07
-2.1763372e-07
-1.7186144e-07
-2.014668e-07
-1.7284704e-07
-1.8520904e-07
-1.7384228e-07
-1.6885931e-07
-1.74848e-07
-1.5241637e-07
-1.7586509e-07
-1.3587889e-07
-1.7689425e-07
-1.1924552e-07
-1.7793627e-07
-1.025148e-07
-1.7899181e-07
-8.568525e-08
-1.8006146e-07
-6.8755336e-08
-1.8114582e-07
-5.1723481e-08
-1.8224538e-07
-3.4588052e-08
-1.8336054e-07
-1.7347442e-08
-1.8449138e-07
-1.8563754e-07
-1.0180659e-06
-4.0535859e-08
-1.0134225e-06
-4.5877752e-08
-1.0083472e-06
-5.1066699e-08
-1.0028538e-06
-5.6103457e-08
-9.9695604e-07
-6.0989134e-08
-9.9066716e-07
-6.5725131e-08
-9.8400038e-07
-7.0313107e-08
-9.7696863e-07
-7.4755016e-08
-9.6958461e-07
-7.9052977e-08
-9.6186073e-07
-8.3209385e-08
-9.5380916e-07
-8.7226776e-08
-9.4544175e-07
-9.1107914e-08
-9.3677008e-07
-9.4855606e-08
-9.2780541e-07
-9.8472878e-08
-9.1855867e-07
-1.0196282e-07
-9.0904054e-07
-1.0532868e-07
-8.9926131e-07
-1.0857373e-07
-8.8923095e-07
-1.117013e-07
-8.7895916e-07
-1.1471488e-07
-8.6845527e-07
-1.1761788e-07
-8.577283e-07
-1.2041382e-07
-8.4678693e-07
-1.2310623e-07
-8.3563952e-07
-1.256986e-07
-8.2429407e-07
-1.281945e-07
-8.1275839e-07
-1.3059743e-07
-8.0103982e-07
-1.3291099e-07
-7.8914543e-07
-1.3513862e-07
-7.7708204e-07
-1.3728379e-07
-7.648561e-07
-1.3934997e-07
-7.524738e-07
-1.4134062e-07
-7.3994101e-07
-1.4325904e-07
-7.2726328e-07
-1.451086e-07
-7.1444592e-07
-1.4689257e-07
-7.0149395e-07
-1.4861419e-07
-6.8841212e-07
-1.5027665e-07
-6.7520488e-07
-1.5188306e-07
-6.6187644e-07
-1.5343645e-07
-6.4843075e-07
-1.5493989e-07
-6.3487153e-07
-1.5639624e-07
-6.2120221e-07
-1.5780841e-07
-6.0742598e-07
-1.5917925e-07
-5.9354591e-07
-1.6051143e-07
-5.7956467e-07
-1.6180768e-07
-5.6548484e-07
-1.630706e-07
-5.5130871e-07
-1.6430274e-07
-5.370384e-07
-1.6550657e-07
-5.2267584e-07
-1.666845e-07
-5.0822275e-07
-1.6783883e-07
-4.9368063e-07
-1.6897192e-07
-4.7905082e-07
-1.7008591e-07
-4.6433452e-07
-1.7118297e-07
-4.4953266e-07
-1.7226517e-07
-4.346461e-07
-1.7333452e-07
-4.1967546e-07
-1.7439296e-07
-4.0462128e-07
-1.7544236e-07
-3.8948393e-07
-1.7648456e-07
-3.7426355e-07
-1.7752129e-07
-3.5896027e-07
-1.7855423e-07
-3.4357398e-07
-1.7958502e-07
-3.2810448e-07
-1.8061524e-07
-3.1255152e-07
-1.8164636e-07
-2.9691454e-07
-1.8267983e-07
-2.8119306e-07
-1.8371704e-07
-2.653864e-07
-1.8475929e-07
-2.4949377e-07
-1.8580788e-07
-2.3351431e-07
-1.8686393e-07
-2.1744707e-07
-1.8792867e-07
-2.0129095e-07
-1.8900317e-07
-1.8504482e-07
-1.900884e-07
-1.6870748e-07
-1.9118536e-07
-1.5227759e-07
-1.9229494e-07
-1.3575381e-07
-1.9341804e-07
-1.1913471e-07
-1.9455537e-07
-1.0241878e-07
-1.9570775e-07
-8.5604474e-08
-1.9687577e-07
-6.8690196e-08
-1.980601e-07
-5.1674308e-08
-1.9926128e-07
-3.4555115e-08
-2.0047971e-07
-1.7330887e-08
-2.0171559e-07
-2.0296843e-07
-1.0228781e-06
-4.4948168e-08
-1.0180238e-06
-5.0732008e-08
-1.0127417e-06
-5.6348765e-08
-1.0070458e-06
-6.179935e-08
-1.0009499e-06
-6.7085125e-08
-9.9446732e-07
-7.2207655e-08
-9.8761156e-07
-7.7168874e-08
-9.8039562e-07
-8.1970949e-08
-9.7283228e-07
-8.6616323e-08
-9.6493404e-07
-9.110763e-08
-9.5671311e-07
-9.5447732e-08
-9.4818138e-07
-9.9639628e-08
-9.3935048e-07
-1.0368651e-07
-9.3023167e-07
-1.0759169e-07
-9.2083592e-07
-1.1135859e-07
-9.1117381e-07
-1.1499076e-07
-9.012557e-07
-1.1849186e-07
-8.910915e-07
-1.218655e-07
-8.8069086e-07
-1.2511552e-07
-8.7006308e-07
-1.2824566e-07
-8.5921709e-07
-1.312598e-07
-8.4816154e-07
-1.3416178e-07