/*--------------------------------*- C++ -*----------------------------------*\
| =========                 |                                                 |
| \\      /  F ield         | OpenFOAM: The Open Source CFD Toolbox           |
|  \\    /   O peration     | Version:  2306                                  |
|   \\  /    A nd           | Website:  www.openfoam.com                      |
|    \\/     M anipulation  |                                                 |
\*---------------------------------------------------------------------------*/
FoamFile
{
    version     2.0;
    format      ascii;
    arch        "LSB;label=32;scalar=64";
    class       surfaceScalarField;
    location    "0.43";
    object      phi;
}
// * * * * * * * * * * * * * * * * * * * * * * * * * * * * * * * * * * * * * //

dimensions      [0 3 -1 0 0 0 0];

oriented        oriented;

internalField   nonuniform List<scalar> 
12640
(
-6.3497837e-07
1.7360821e-08
-6.5150681e-07
1.6528445e-08
-6.6718549e-07
1.5678666e-08
-6.8200011e-07
1.4814624e-08
-6.9593946e-07
1.3939349e-08
-7.0899523e-07
1.3055772e-08
-7.2116191e-07
1.2166686e-08
-7.3243648e-07
1.1274567e-08
-7.4281805e-07
1.0381573e-08
-7.5230761e-07
9.4895504e-09
-7.6090755e-07
8.5999451e-09
-7.6861984e-07
7.7122954e-09
-7.754486e-07
6.8287608e-09
-7.8139712e-07
5.9485135e-09
-7.8647488e-07
5.077769e-09
-7.9068862e-07
4.2137343e-09
-7.9406469e-07
3.3760731e-09
-7.966187e-07
2.5540063e-09
-7.9836206e-07
1.7433482e-09
-7.9929758e-07
9.3552983e-10
-7.9936698e-07
6.9391208e-11
-7.9874739e-07
-6.1959613e-10
-7.9740286e-07
-1.3445267e-09
-7.9533511e-07
-2.0677432e-09
-7.9255814e-07
-2.7769705e-09
-7.8908959e-07
-3.4685587e-09
-7.8494825e-07
-4.1413495e-09
-7.8015322e-07
-4.7950353e-09
-7.7472367e-07
-5.4295479e-09
-7.6867871e-07
-6.0449599e-09
-7.6203734e-07
-6.6413701e-09
-7.5481838e-07
-7.2189637e-09
-7.4704042e-07
-7.7779517e-09
-7.3872183e-07
-8.3185917e-09
-7.2988066e-07
-8.8411585e-09
-7.2053467e-07
-9.3460052e-09
-7.107012e-07
-9.8334631e-09
-7.0039728e-07
-1.0303925e-08
-6.8963944e-07
-1.0757835e-08
-6.7844386e-07
-1.1195583e-08
-6.6682623e-07
-1.1617626e-08
-6.5480179e-07
-1.2024454e-08
-6.4238529e-07
-1.2416503e-08
-6.2959098e-07
-1.2794305e-08
-6.1643267e-07
-1.3158312e-08
-6.0292365e-07
-1.3509026e-08
-5.8907668e-07
-1.3846974e-08
-5.7490406e-07
-1.417262e-08
-5.6041758e-07
-1.4486474e-08
-5.4562858e-07
-1.4789003e-08
-5.3054784e-07
-1.5080737e-08
-5.1518572e-07
-1.5362125e-08
-4.9955206e-07
-1.5633652e-08
-4.8365632e-07
-1.5895751e-08
-4.6750743e-07
-1.6148893e-08
-4.5111394e-07
-1.6393489e-08
-4.3448394e-07
-1.6629998e-08
-4.1762513e-07
-1.6858804e-08
-4.0054484e-07
-1.7080299e-08
-3.8324996e-07
-1.7294874e-08
-3.6574711e-07
-1.7502858e-08
-3.4804251e-07
-1.7704599e-08
-3.3014212e-07
-1.7900394e-08
-3.1205159e-07
-1.8090528e-08
-2.9377641e-07
-1.8275183e-08
-2.7532188e-07
-1.8454529e-08
-2.5669331e-07
-1.8628577e-08
-2.3789624e-07
-1.8797057e-08
-2.1893689e-07
-1.8959357e-08
-1.9982268e-07
-1.9114203e-08
-1.8056362e-07
-1.925906e-08
-1.611749e-07
-1.9388719e-08
-1.4168153e-07
-1.9493363e-08
-1.2212637e-07
-1.9555158e-08
-1.025813e-07
-1.9545079e-08
-8.31533e-08
-1.9427998e-08
-6.3944101e-08
-1.9209189e-08
-4.4825257e-08
-1.9118857e-08
-2.46372e-08
-2.0188046e-08
-2.4637198e-08
-2.8214538e-06
4.8090419e-08
-2.8497368e-06
4.4811496e-08
-2.8755605e-06
4.1502344e-08
-2.898918e-06
3.8172151e-08
-2.9198084e-06
3.4829762e-08
-2.9382362e-06
3.148359e-08
-2.9542111e-06
2.8141545e-08
-2.9677473e-06
2.4810749e-08
-2.9788631e-06
2.1497338e-08
-2.9875797e-06
1.8206188e-08
-2.9939205e-06
1.4940738e-08
-2.9979061e-06
1.1697891e-08
-2.9995691e-06
8.4918359e-09
-2.9989341e-06
5.3134687e-09
-2.9960093e-06
2.1529678e-09
-2.9908714e-06
-9.2415103e-10
-2.9836557e-06
-3.8396107e-09
-2.9743484e-06
-6.7533428e-09
-2.9629835e-06
-9.6215089e-09
-2.9496129e-06
-1.2435062e-08
-2.9343413e-06
-1.5202242e-08
-2.9170746e-06
-1.7886277e-08
-2.8979206e-06
-2.0498503e-08
-2.8769452e-06
-2.3043153e-08
-2.8542024e-06
-2.5519832e-08
-2.829743e-06
-2.7927922e-08
-2.8036172e-06
-3.0267105e-08
-2.7758749e-06
-3.2537383e-08
-2.7465654e-06
-3.473907e-08
-2.7157376e-06
-3.6872744e-08
-2.6834398e-06
-3.8939122e-08
-2.6497197e-06
-4.0939142e-08
-2.6146237e-06
-4.2873874e-08
-2.5781978e-06
-4.4744505e-08
-2.5404866e-06
-4.6552368e-08
-2.5015338e-06
-4.8298876e-08
-2.4613817e-06
-4.9985534e-08
-2.4200717e-06
-5.1613924e-08
-2.3776438e-06
-5.3185741e-08
-2.3341367e-06
-5.4702654e-08
-2.289588e-06
-5.6166377e-08
-2.2440336e-06
-5.7578772e-08
-2.1975086e-06
-5.8941587e-08
-2.1500462e-06
-6.0256662e-08
-2.1016786e-06
-6.1525879e-08
-2.0524367e-06
-6.2750973e-08
-2.0023498e-06
-6.3933857e-08
-1.9514461e-06
-6.5076321e-08
-1.8997524e-06
-6.6180177e-08
-1.8472942e-06
-6.7247191e-08
-1.7940958e-06
-6.8279137e-08
-1.7401802e-06
-6.9277727e-08
-1.6855692e-06
-7.0244635e-08
-1.6302835e-06
-7.1181537e-08
-1.5743423e-06
-7.2090032e-08
-1.5177642e-06
-7.2971626e-08
-1.4605663e-06
-7.38279e-08
-1.4027648e-06
-7.466028e-08
-1.3443749e-06
-7.5470172e-08
-1.2854108e-06
-7.6258933e-08
-1.2258859e-06
-7.7027836e-08
-1.1658124e-06
-7.7778044e-08
-1.1052021e-06
-7.8510717e-08
-1.0440657e-06
-7.922687e-08
-9.8241358e-07
-7.9927337e-08
-9.2025533e-07
-8.061278e-08
-8.5760071e-07
-8.1283199e-08
-7.9446021e-07
-8.193756e-08
-7.3084498e-07
-8.2574583e-08
-6.6676759e-07
-8.3191596e-08
-6.0224368e-07
-8.3782978e-08
-5.3729423e-07
-8.4338179e-08
-4.719483e-07
-8.4839292e-08
-4.0624445e-07
-8.5259012e-08
-3.4022531e-07
-8.5564235e-08
-2.7391046e-07
-8.5742855e-08
-2.0721767e-07
-8.5901967e-08
-1.3979726e-07
-8.6539281e-08
-7.09374e-08
-8.9047895e-08
-9.5574606e-08
-4.7601448e-06
8.2695635e-08
-4.7910892e-06
7.5755926e-08
-4.8183745e-06
6.8787629e-08
-4.8420097e-06
6.1807389e-08
-4.8620111e-06
5.4831102e-08
-4.8784014e-06
4.7873884e-08
-4.8912098e-06
4.0949959e-08
-4.9004712e-06
3.4072181e-08
-4.9062255e-06
2.7251612e-08
-4.9085172e-06
2.0497881e-08
-4.9074017e-06
1.3825273e-08
-4.9029262e-06
7.2223497e-09
-4.8951588e-06
7.2450089e-10
-4.8841141e-06
-5.7312781e-09
-4.8699167e-06
-1.2044455e-08
-4.8525999e-06
-1.8240924e-08
-4.8321694e-06
-2.4270149e-08
-4.8087564e-06
-3.0166325e-08
-4.7824416e-06
-3.5936258e-08
-4.7532935e-06
-4.1583171e-08
-4.7213957e-06
-4.710002e-08
-4.686808e-06
-5.247397e-08
-4.6496017e-06
-5.7704806e-08
-4.6098516e-06
-6.2793309e-08
-4.5676318e-06
-6.7739605e-08
-4.5230158e-06
-7.2543901e-08
-4.4760763e-06
-7.7206701e-08
-4.4268848e-06
-8.1728864e-08
-4.3755122e-06
-8.6111682e-08
-4.3220281e-06
-9.0356823e-08
-4.2665009e-06
-9.4466252e-08
-4.2089978e-06
-9.8442309e-08
-4.1495842e-06
-1.0228747e-07
-4.0883242e-06
-1.0600452e-07
-4.02528e-06
-1.0959648e-07
-3.9605125e-06
-1.1306645e-07
-3.8940802e-06
-1.1641777e-07
-3.8260403e-06
-1.196538e-07
-3.7564479e-06
-1.2277816e-07
-3.6853562e-06
-1.2579442e-07
-3.6128163e-06
-1.2870625e-07
-3.5388776e-06
-1.3151745e-07
-3.4635875e-06
-1.3423172e-07
-3.3869912e-06
-1.368529e-07
-3.3091323e-06
-1.3938477e-07
-3.2300523e-06
-1.4183105e-07
-3.1497905e-06
-1.4419558e-07
-3.0683848e-06
-1.4648204e-07
-2.9858709e-06
-1.486941e-07
-2.9022827e-06
-1.5083543e-07
-2.8176523e-06
-1.5290956e-07
-2.73201e-06
-1.5492002e-07
-2.6453844e-06
-1.5687023e-07
-2.5578024e-06
-1.5876352e-07
-2.4692893e-06
-1.6060313e-07
-2.3798687e-06
-1.6239223e-07
-2.2895628e-06
-1.6413385e-07
-2.1983922e-06
-1.6583092e-07
-2.106376e-06
-1.6748634e-07
-2.0135322e-06
-1.6910273e-07
-1.9198773e-06
-1.7068271e-07
-1.8254268e-06
-1.7222861e-07
-1.7301947e-06
-1.7374275e-07
-1.6341945e-06
-1.752271e-07
-1.5374385e-06
-1.7668336e-07
-1.4399384e-06
-1.7811282e-07
-1.3417055e-06
-1.7951613e-07
-1.2427501e-06
-1.8089295e-07
-1.1430829e-06
-1.822418e-07
-1.0427154e-06
-1.8355912e-07
-9.4166027e-07
-1.8483809e-07
-8.3993162e-07
-1.8606682e-07
-7.3754393e-07
-1.87227e-07
-6.345074e-07
-1.8829554e-07
-5.3081572e-07
-1.8925591e-07
-4.2642069e-07
-1.9013787e-07
-3.2119875e-07
-1.9112391e-07
-2.1496411e-07
-1.9277391e-07
-1.0767457e-07
-1.9633744e-07
-2.0324918e-07
-6.1302568e-06
1.1759558e-07
-6.160701e-06
1.0620019e-07
-6.1867049e-06
9.4791549e-08
-6.2082919e-06
8.3394387e-08
-6.2254932e-06
7.2032354e-08
-6.2383473e-06
6.0727945e-08
-6.2468997e-06
4.9502385e-08
-6.251203e-06
3.8375502e-08
-6.2513165e-06
2.7365148e-08
-6.2473048e-06
1.6486121e-08
-6.2392544e-06
5.7748605e-09
-6.2271562e-06
-4.8758519e-09
-6.2110857e-06
-1.534597e-08
-6.191201e-06
-2.5616028e-08
-6.1675608e-06
-3.5684613e-08
-6.1402558e-06
-4.5545926e-08
-6.1093382e-06
-5.5187707e-08
-6.0748934e-06
-6.4611141e-08
-6.0370142e-06
-7.3815493e-08
-5.9957977e-06
-8.2799639e-08
-5.9513379e-06
-9.1559832e-08
-5.9037211e-06
-1.0009076e-07
-5.8530349e-06
-1.0839097e-07
-5.7993681e-06
-1.1646018e-07
-5.742809e-06
-1.2429871e-07
-5.6834454e-06
-1.3190752e-07
-5.6213639e-06
-1.3928814e-07
-5.5566501e-06
-1.4644267e-07
-5.489388e-06
-1.533738e-07
-5.4196601e-06
-1.6008475e-07
-5.3475472e-06
-1.6657913e-07
-5.2731284e-06
-1.7286109e-07
-5.1964808e-06
-1.7893503e-07
-5.1176796e-06
-1.8480575e-07
-5.0367978e-06
-1.9047833e-07
-4.9539062e-06
-1.9595807e-07
-4.8690734e-06
-2.0125052e-07
-4.7823659e-06
-2.0636133e-07
-4.6938477e-06
-2.1129639e-07
-4.6035804e-06
-2.160617e-07
-4.5116234e-06
-2.2066322e-07
-4.4180337e-06
-2.2510712e-07
-4.322866e-06
-2.2939952e-07
-4.2261723e-06
-2.3354656e-07
-4.1280027e-06
-2.3755436e-07
-4.0284047e-06
-2.4142906e-07
-3.9274236e-06
-2.4517673e-07
-3.8251022e-06
-2.4880336e-07
-3.7214815e-06
-2.5231485e-07
-3.6165998e-06
-2.5571707e-07
-3.5104937e-06
-2.5901572e-07
-3.4031973e-06
-2.622164e-07
-3.2947429e-06
-2.6532463e-07
-3.1851607e-06
-2.6834572e-07
-3.0744789e-06
-2.7128491e-07
-2.962724e-06
-2.7414716e-07
-2.8499204e-06
-2.7693741e-07
-2.736091e-06
-2.7966034e-07
-2.6212568e-06
-2.8232051e-07
-2.5054373e-06
-2.8492218e-07
-2.3886506e-06
-2.8746945e-07
-2.270913e-06
-2.8996621e-07
-2.1522397e-06
-2.9241607e-07
-2.0326445e-06
-2.9482225e-07
-1.9121403e-06
-2.9718762e-07
-1.7907385e-06
-2.9951453e-07
-1.6684501e-06
-3.0180457e-07
-1.5452847e-06
-3.0405841e-07
-1.4212512e-06
-3.0627528e-07
-1.2963578e-06
-3.0845252e-07
-1.1706114e-06
-3.1058444e-07
-1.0440163e-06
-3.126619e-07
-9.1657099e-07
-3.1467237e-07
-7.8826209e-07
-3.1660443e-07
-6.5905545e-07
-3.1846256e-07
-5.2888755e-07
-3.2030577e-07
-3.9767926e-07
-3.223322e-07
-2.6543258e-07
-3.2502059e-07
-1.3250693e-07
-3.2926309e-07
-3.3575611e-07
-6.9769131e-06
1.5177855e-07
-7.0061651e-06
1.3545222e-07
-7.0305116e-06
1.1913801e-07
-7.0499864e-06
1.0286917e-07
-7.0646313e-06
8.6677324e-08
-7.0744961e-06
7.0592665e-08
-7.0796376e-06
5.4643962e-08
-7.0801211e-06
3.8858974e-08
-7.0760213e-06
2.3265366e-08
-7.06745e-06
7.9147545e-09
-7.054329e-06
-7.3461462e-09
-7.0368487e-06
-2.235614e-08
-7.0151066e-06
-3.7088e-08
-6.9891814e-06
-5.1541234e-08
-6.9591618e-06
-6.5704247e-08
-6.9251411e-06
-7.9566629e-08
-6.8872089e-06
-9.3119871e-08
-6.8454604e-06
-1.0635962e-07
-6.7999941e-06
-1.1928189e-07
-6.7509104e-06
-1.3188331e-07
-6.69831e-06
-1.4416026e-07
-6.6422912e-06
-1.5610949e-07
-6.5829525e-06
-1.6772967e-07
-6.5203919e-06
-1.7902083e-07
-6.4547066e-06
-1.8998403e-07
-6.3859928e-06
-2.0062126e-07
-6.3143456e-06
-2.1093533e-07
-6.2398584e-06
-2.2092985e-07
-6.1626231e-06
-2.3060919e-07
-6.0827295e-06
-2.3997835e-07
-6.0002656e-06
-2.4904298e-07
-5.9153175e-06
-2.5780924e-07
-5.8279687e-06
-2.6628381e-07
-5.7383007e-06
-2.7447373e-07
-5.6463926e-06
-2.8238644e-07
-5.5523209e-06
-2.9002977e-07
-5.4561597e-06
-2.9741168e-07
-5.3579806e-06
-3.0454048e-07
-5.2578524e-06
-3.1142456e-07
-5.1558416e-06
-3.1807251e-07
-5.0520119e-06
-3.2449297e-07
-4.9464243e-06
-3.306947e-07
-4.8391374e-06
-3.366864e-07
-4.730207e-06
-3.4247689e-07
-4.6196866e-06
-3.4807487e-07
-4.5076266e-06
-3.5348898e-07
-4.3940755e-06
-3.5872783e-07
-4.2790789e-06
-3.6379996e-07
-4.1626801e-06
-3.6871369e-07
-4.0449199e-06
-3.7347728e-07
-3.9258368e-06
-3.7809882e-07
-3.805467e-06
-3.8258616e-07
-3.6838445e-06
-3.8694712e-07
-3.5610011e-06
-3.9118917e-07
-3.4369663e-06
-3.953197e-07
-3.3117677e-06
-3.9934572e-07
-3.185431e-06
-4.0327414e-07
-3.0579797e-06
-4.071116e-07
-2.9294358e-06
-4.1086445e-07
-2.7998192e-06
-4.1453877e-07
-2.6691483e-06
-4.1814035e-07
-2.5374399e-06
-4.2167466e-07
-2.4047091e-06
-4.2514686e-07
-2.2709697e-06
-4.2856164e-07
-2.1362341e-06
-4.3192319e-07
-2.0005134e-06
-4.3523525e-07
-1.8638173e-06
-4.3850069e-07
-1.7261542e-06
-4.4172151e-07
-1.5875309e-06
-4.4489854e-07
-1.4479524e-06
-4.4803105e-07
-1.3074204e-06
-4.5111639e-07
-1.1659323e-06
-4.5415008e-07
-1.023477e-06
-4.5712759e-07
-8.80032e-07
-4.6004945e-07
-7.3555948e-07
-4.6293507e-07
-5.9001309e-07
-4.6585216e-07
-4.4337487e-07
-4.6897043e-07
-2.9576615e-07
-4.7262933e-07
-1.4766262e-07
-4.7736661e-07
-4.8341874e-07
-7.4542394e-06
1.8514639e-07
-7.4824067e-06
1.6361949e-07
-7.5054059e-06
1.4213722e-07
-7.5232781e-06
1.2074138e-07
-7.5360725e-06
9.947169e-08
-7.543846e-06
7.8366169e-08
-7.5466638e-06
5.7461808e-08
-7.5446007e-06
3.6795876e-08
-7.5377578e-06
1.6422435e-08
-7.5261062e-06
-3.7367954e-09
-7.5098012e-06
-2.3651206e-08
-7.4889548e-06
-4.3202487e-08
-7.463649e-06
-6.2393829e-08
-7.4339767e-06
-8.1213502e-08
-7.4000335e-06
-9.9647486e-08
-7.3619173e-06
-1.1768287e-07
-7.3197277e-06
-1.3530939e-07
-7.2735677e-06
-1.5251965e-07
-7.2235417e-06
-1.6930786e-07
-7.1697554e-06
-1.8566963e-07
-7.1123143e-06
-2.0160136e-07
-7.0513231e-06
-2.171007e-07
-6.9868859e-06
-2.321669e-07
-6.919106e-06
-2.4680073e-07
-6.8480859e-06
-2.6100412e-07
-6.7739267e-06
-2.7478043e-07
-6.6967282e-06
-2.8813387e-07
-6.6165883e-06
-3.0106978e-07
-6.5336031e-06
-3.1359438e-07
-6.4478667e-06
-3.2571469e-07
-6.3594712e-06
-3.3743855e-07
-6.268506e-06
-3.4877436e-07
-6.1750586e-06
-3.5973121e-07
-6.0792137e-06
-3.7031865e-07
-5.9810535e-06
-3.8054668e-07
-5.8806576e-06
-3.9042567e-07
-5.7781029e-06
-3.999664e-07
-5.6734635e-06
-4.091798e-07
-5.5668111e-06
-4.1807702e-07
-5.4582142e-06
-4.2666943e-07
-5.3477387e-06
-4.3496847e-07
-5.2354477e-06
-4.4298562e-07
-5.1214018e-06
-4.5073238e-07
-5.0056583e-06
-4.5822032e-07
-4.8882724e-06
-4.6546082e-07
-4.7692961e-06
-4.7246526e-07
-4.6487791e-06
-4.792449e-07
-4.5267682e-06
-4.8581087e-07
-4.4033077e-06
-4.921741e-07
-4.2784396e-06
-4.9834534e-07
-4.1522033e-06
-5.0433517e-07
-4.0246356e-06
-5.1015386e-07
-3.8957712e-06
-5.1581156e-07
-3.7656423e-06
-5.2131803e-07
-3.6342791e-06
-5.2668287e-07
-3.5017096e-06
-5.3191525e-07
-3.3679595e-06
-5.3702419e-07
-3.2330529e-06
-5.420183e-07
-3.0970114e-06
-5.4690588e-07
-2.9598553e-06
-5.5169488e-07
-2.8216028e-06
-5.5639288e-07
-2.6822704e-06
-5.6100704e-07
-2.5418731e-06
-5.6554415e-07
-2.4004242e-06
-5.7001052e-07
-2.2579356e-06
-5.7441184e-07
-2.1144174e-06
-5.7875335e-07
-1.9698786e-06
-5.8303952e-07
-1.8243261e-06
-5.8727401e-07
-1.6777651e-06
-5.914596e-07
-1.530198e-06
-5.9559806e-07
-1.3816242e-06
-5.996902e-07
-1.2320378e-06
-6.0373651e-07
-1.0814261e-06
-6.0773926e-07
-9.2976834e-07
-6.1170723e-07
-7.7703734e-07
-6.1566607e-07
-6.2321273e-07
-6.1967677e-07
-4.6831919e-07
-6.2386397e-07
-3.1251018e-07
-6.2843832e-07
-1.5619318e-07
-6.3368361e-07
-6.3961191e-07
-7.7093943e-06
2.1780984e-07
-7.7367033e-06
1.9092844e-07
-7.7586953e-06
1.6412928e-07
-7.7754167e-06
1.374628e-07
-7.7869219e-06
1.1097683e-07
-7.7932727e-06
8.471694e-08
-7.7945377e-06
5.8726829e-08
-7.7907943e-06
3.3052532e-08
-7.7821424e-06
7.7704923e-09
-7.7685615e-06
-1.7317642e-08
-7.7502595e-06
-4.1953203e-08
-7.7273077e-06
-6.6154364e-08
-7.6997973e-06
-8.9904212e-08
-7.6678263e-06
-1.1318442e-07
-7.6314961e-06
-1.3597776e-07
-7.5909096e-06
-1.582693e-07
-7.5461721e-06
-1.8004694e-07
-7.4973904e-06
-2.0130136e-07
-7.4446728e-06
-2.2202539e-07
-7.3881285e-06
-2.4221395e-07
-7.3278663e-06
-2.6186354e-07
-7.2639947e-06
-2.8097235e-07
-7.1966212e-06
-2.9954038e-07
-7.1258526e-06
-3.1756935e-07
-7.0517943e-06
-3.3506239e-07
-6.9745505e-06
-3.5202422e-07
-6.8942237e-06
-3.6846074e-07
-6.8109143e-06
-3.8437912e-07
-6.7247211e-06
-3.9978757e-07
-6.6357405e-06
-4.1469536e-07
-6.5440665e-06
-4.2911255e-07
-6.4497908e-06
-4.4304999e-07
-6.3530027e-06
-4.5651933e-07
-6.2537887e-06
-4.6953271e-07
-6.1522325e-06
-4.8210282e-07
-6.0484154e-06
-4.9424284e-07
-5.9424155e-06
-5.0596627e-07
-5.8343084e-06
-5.1728688e-07
-5.7241667e-06
-5.2821874e-07
-5.6120601e-06
-5.3877604e-07
-5.4980554e-06
-5.4897309e-07
-5.3822168e-06
-5.5882428e-07
-5.2646052e-06
-5.6834394e-07
-5.1452791e-06
-5.7754644e-07
-5.0242939e-06
-5.8644601e-07
-4.9017024e-06
-5.950568e-07
-4.7775545e-06
-6.0339281e-07
-4.6518975e-06
-6.1146784e-07
-4.5247761e-06
-6.1929548e-07
-4.3962324e-06
-6.2688906e-07
-4.266306e-06
-6.3426162e-07
-4.1350338e-06
-6.4142604e-07
-4.0024506e-06
-6.4839475e-07
-3.8685887e-06
-6.5517994e-07
-3.7334781e-06
-6.6179343e-07
-3.5971467e-06
-6.6824663e-07
-3.4596203e-06
-6.7455065e-07
-3.3209224e-06
-6.8071617e-07
-3.1810748e-06
-6.8675352e-07
-3.0400971e-06
-6.9267251e-07
-2.8980074e-06
-6.9848257e-07
-2.7548218e-06
-7.0419266e-07
-2.6105547e-06
-7.0981122e-07
-2.465219e-06
-7.1534627e-07
-2.3188257e-06
-7.2080511e-07
-2.1713845e-06
-7.2619457e-07
-2.0229032e-06
-7.3152086e-07
-1.8733878e-06
-7.367894e-07
-1.7228423e-06
-7.4200507e-07
-1.5712683e-06
-7.4717212e-07
-1.418664e-06
-7.5229448e-07
-1.2650238e-06
-7.5737669e-07
-1.1103374e-06
-7.6242562e-07
-9.5459052e-07
-7.6745416e-07
-7.9776905e-07
-7.7248754e-07
-6.3987226e-07
-7.7757358e-07
-4.8094211e-07
-7.827941e-07
-3.2111409e-07
-7.8826635e-07
-1.6067699e-07
-7.9412071e-07
-8.0028891e-07
-7.8467268e-06
2.498502e-07
-7.8733159e-06
2.1751756e-07
-7.8944957e-06
1.8530912e-07
-7.9103169e-06
1.53284e-07
-7.9208381e-06
1.2149797e-07
-7.9261261e-06
9.0004946e-08
-7.9262581e-06
5.885889e-08
-7.9213174e-06
2.811185e-08
-7.9113055e-06
-2.2414655e-09
-7.8964241e-06
-3.2198979e-08
-7.8767399e-06
-6.1637448e-08
-7.8523456e-06
-9.0548682e-08
-7.8233403e-06
-1.1890956e-07
-7.7898269e-06
-1.4669779e-07
-7.7519111e-06
-1.7389357e-07
-7.7097002e-06
-2.0048015e-07
-7.6633033e-06
-2.2644383e-07
-7.6128308e-06
-2.5177394e-07
-7.5583937e-06
-2.7646243e-07
-7.5001039e-06
-3.0050382e-07
-7.4380727e-06
-3.2389471e-07
-7.3724111e-06
-3.466339e-07
-7.3032292e-06
-3.6872226e-07
-7.2306361e-06
-3.9016253e-07
-7.1547392e-06
-4.1095925e-07
-7.0756447e-06
-4.3111869e-07
-6.993457e-06
-4.5064853e-07
-6.9082781e-06
-4.6955795e-07
-6.8202084e-06
-4.8785731e-07
-6.7293456e-06
-5.055581e-07
-6.6357852e-06
-5.2267293e-07
-6.5396201e-06
-5.3921517e-07
-6.4409403e-06
-5.5519905e-07
-6.3398335e-06
-5.7063949e-07
-6.2363843e-06
-5.8555203e-07
-6.1306746e-06
-5.9995259e-07
-6.0227832e-06
-6.138576e-07
-5.9127863e-06
-6.2728382e-07
-5.8007569e-06
-6.4024819e-07
-5.686765e-06
-6.5276788e-07
-5.570878e-06
-6.6486012e-07
-5.45316e-06
-6.7654224e-07
-5.3336724e-06
-6.8783155e-07
-5.2124736e-06
-6.9874523e-07
-5.0896192e-06
-7.0930044e-07
-4.9651618e-06
-7.1951416e-07
-4.8391515e-06
-7.2940309e-07
-4.7116355e-06
-7.3898387e-07
-4.5826583e-06
-7.4827271e-07
-4.4522618e-06
-7.5728556e-07
-4.3204853e-06
-7.6603809e-07
-4.1873657e-06
-7.7454564e-07
-4.0529374e-06
-7.8282306e-07
-3.9172323e-06
-7.9088497e-07
-3.7802803e-06
-7.9874545e-07
-3.6421088e-06
-8.0641815e-07
-3.5027431e-06
-8.1391634e-07
-3.3622065e-06
-8.2125281e-07
-3.2205202e-06
-8.2843983e-07
-3.0777035e-06
-8.3548923e-07
-2.9337738e-06
-8.424123e-07
-2.7887466e-06
-8.4921975e-07
-2.642636e-06
-8.5592185e-07
-2.4954541e-06
-8.625282e-07
-2.3472113e-06
-8.6904792e-07
-2.1979164e-06
-8.7548939e-07
-2.0475768e-06
-8.8186055e-07
-1.8961975e-06
-8.8816864e-07
-1.7437821e-06
-8.9442049e-07
-1.5903317e-06
-9.0062254e-07
-1.4358449e-06
-9.0678126e-07
-1.2803176e-06
-9.1290399e-07
-1.1237431e-06
-9.1900013e-07
-9.6611371e-07
-9.2508354e-07
-8.0742522e-07
-9.3117602e-07
-6.4768714e-07
-9.3731165e-07
-4.8694149e-07
-9.4353976e-07
-3.2528889e-07
-9.4991896e-07
-1.6291105e-07
-9.5649854e-07
-9.6319995e-07
-7.9288629e-06
2.8127503e-07
-7.9547637e-06
2.4341838e-07
-7.9751867e-06
2.0573212e-07
-7.9901868e-06
1.6828411e-07
-7.9998274e-06
1.3113858e-07
-8.0041771e-06
9.4354618e-08
-8.0033152e-06
5.7996981e-08
-7.9973171e-06
2.2113784e-08
-7.9862441e-06
-1.3314508e-08
-7.9702519e-06
-4.8191128e-08
-7.9494188e-06
-8.2470576e-08
-7.9238427e-06
-1.1612475e-07
-7.8936272e-06
-1.4912506e-07
-7.8588792e-06
-1.8144584e-07
-7.8197078e-06
-2.1306491e-07
-7.7762242e-06
-2.4396378e-07
-7.7285406e-06
-2.741274e-07
-7.6767705e-06
-3.0354409e-07
-7.6210276e-06
-3.3220524e-07
-7.5614263e-06
-3.601052e-07
-7.4980801e-06
-3.8724088e-07
-7.4311022e-06
-4.1361175e-07
-7.3606048e-06
-4.3921965e-07
-7.2866988e-06
-4.6406858e-07
-7.2094935e-06
-4.8816456e-07
-7.1290966e-06
-5.1151562e-07
-7.0456137e-06
-5.3413137e-07
-6.9591486e-06
-5.5602311e-07
-6.8698024e-06
-5.7720349e-07
-6.7776741e-06
-5.9768639e-07
-6.68286e-06
-6.1748706e-07
-6.5854537e-06
-6.3662147e-07
-6.4855461e-06
-6.5510665e-07
-6.3832253e-06
-6.7296034e-07
-6.2785763e-06
-6.9020096e-07
-6.1716815e-06
-7.068474e-07
-6.06262e-06
-7.229191e-07
-5.9514681e-06
-7.3843576e-07
-5.8382989e-06
-7.5341737e-07
-5.7231827e-06
-7.678841e-07
-5.6061866e-06
-7.8185624e-07
-5.4873747e-06
-7.9535407e-07
-5.3668084e-06
-8.0839791e-07
-5.2445458e-06
-8.2100787e-07
-5.1206422e-06
-8.3320401e-07
-4.9951501e-06
-8.4500619e-07
-4.8681193e-06
-8.5643399e-07
-4.7395964e-06
-8.6750669e-07
-4.6096258e-06
-8.7824332e-07
-4.4782489e-06
-8.8866249e-07
-4.3455046e-06
-8.9878244e-07
-4.2114292e-06
-9.0862097e-07
-4.0760568e-06
-9.1819551e-07
-3.9394187e-06
-9.2752299e-07
-3.8015443e-06
-9.3661984e-07
-3.6624605e-06
-9.4550197e-07
-3.5221921e-06
-9.541848e-07
-3.3807616e-06
-9.6268324e-07
-3.2381899e-06
-9.7101157e-07
-3.0944955e-06
-9.7918363e-07
-2.9496953e-06
-9.8721251e-07
-2.8038042e-06
-9.9511081e-07
-2.6568356e-06
-1.0028905e-06
-2.5088007e-06
-1.010563e-06
-2.3597096e-06
-1.018139e-06
-2.2095704e-06
-1.0256286e-06
-2.0583895e-06
-1.0330414e-06
-1.9061718e-06
-1.0403864e-06
-1.7529202e-06
-1.047672e-06
-1.5986361e-06
-1.0549067e-06
-1.4433186e-06
-1.0620988e-06
-1.2869653e-06
-1.0692573e-06
-1.1295727e-06
-1.0763927e-06
-9.7113791e-07
-1.0835184e-06
-8.116622e-07
-1.0906517e-06
-6.51158e-07
-1.0978158e-06
-4.8965942e-07
-1.1050383e-06
-3.2723333e-07
-1.1123451e-06
-1.63984e-07
-1.1197479e-06
-1.127184e-06
-7.9891243e-06
3.1203237e-07
-8.0142916e-06
2.6858568e-07
-8.0339197e-06
2.2536022e-07
-8.0480684e-06
1.8243279e-07
-8.0568038e-06
1.39874e-07
-8.0602025e-06
9.7753306e-08
-8.0583387e-06
5.6133238e-08
-8.0513002e-06
1.507528e-08
-8.0391794e-06
-2.5435344e-08
-8.0220946e-06
-6.5275873e-08
-8.0001406e-06
-1.0442464e-07
-7.9734209e-06
-1.4284444e-07
-7.9420436e-06
-1.8050239e-07
-7.9061194e-06
-2.1737e-07
-7.8657613e-06
-2.5342298e-07
-7.8210839e-06
-2.8864124e-07
-7.7722027e-06
-3.2300861e-07
-7.7192341e-06
-3.5651269e-07
-7.6622947e-06
-3.8914457e-07
-7.6015013e-06
-4.2089865e-07
-7.5369698e-06
-4.5177232e-07
-7.4688157e-06
-4.8176594e-07
-7.3971529e-06
-5.1088242e-07
-7.3220942e-06
-5.3912723e-07
-7.2437507e-06
-5.6650805e-07
-7.1622316e-06
-5.9303482e-07
-7.0776437e-06
-6.1871923e-07
-6.990092e-06
-6.4357482e-07
-6.8996787e-06
-6.6761675e-07
-6.8065036e-06
-6.9086147e-07
-6.7106638e-06
-7.1332684e-07
-6.6122536e-06
-7.3503168e-07
-6.5113644e-06
-7.5599591e-07
-6.4080845e-06
-7.7624021e-07
-6.3024995e-06
-7.9578596e-07
-6.1946917e-06
-8.1465518e-07
-6.0847405e-06
-8.3287028e-07
-5.9727222e-06
-8.5045409e-07
-5.8587098e-06
-8.6742976e-07
-5.7427734e-06
-8.8382047e-07
-5.62498e-06
-8.996496e-07
-5.5053936e-06
-9.1494051e-07
-5.384075e-06
-9.2971651e-07
-5.261082e-06
-9.4400079e-07
-5.1364698e-06
-9.5781631e-07
-5.0102901e-06
-9.7118583e-07
-4.8825923e-06
-9.841318e-07
-4.7534227e-06
-9.9667629e-07
-4.6228249e-06
-1.0088411e-06
-4.4908399e-06
-1.0206475e-06
-4.357506e-06
-1.0321164e-06
-4.2228589e-06
-1.0432681e-06
-4.086932e-06
-1.0541224e-06
-3.9497561e-06
-1.0646989e-06
-3.8113598e-06
-1.0750161e-06
-3.6717694e-06
-1.0850924e-06
-3.531009e-06
-1.0949452e-06
-3.3891006e-06
-1.1045917e-06
-3.2460641e-06
-1.1140481e-06
-3.1019175e-06
-1.1233302e-06
-2.956677e-06
-1.132453e-06
-2.8103568e-06
-1.141431e-06
-2.6629694e-06
-1.150278e-06
-2.5145255e-06
-1.1590069e-06
-2.3650344e-06
-1.1676301e-06
-2.2145035e-06
-1.1761596e-06
-2.0629387e-06
-1.1846062e-06
-1.9103444e-06
-1.1929807e-06
-1.7567232e-06
-1.2012932e-06
-1.6020764e-06
-1.2095535e-06
-1.4464039e-06
-1.2177713e-06
-1.2897045e-06
-1.2259567e-06
-1.1319767e-06
-1.2341206e-06
-9.7322003e-07
-1.242275e-06
-8.13438e-07
-1.2504338e-06
-6.5264179e-07
-1.2586121e-06
-4.9085556e-07
-1.2668246e-06
-3.2812e-07
-1.2750806e-06
-1.6449004e-07
-1.2833778e-06
-1.291674e-06
-8.0436018e-06
3.4203304e-07
-8.0679451e-06
2.92929e-07
-8.086687e-06
2.4410218e-07
-8.0998922e-06
1.9563798e-07
-8.1076332e-06
1.4761501e-07
-8.1099889e-06
1.0010892e-07
-8.1070457e-06
5.3190084e-08
-8.0988818e-06
6.9113381e-09
-8.0856221e-06
-3.8695033e-08
-8.0673626e-06
-8.3535347e-08
-8.0442091e-06
-1.2757812e-07
-8.0162712e-06
-1.7078238e-07
-7.9836615e-06
-2.1311213e-07
-7.946495e-06
-2.5453647e-07
-7.9048886e-06
-2.9502933e-07
-7.8589606e-06
-3.3456923e-07
-7.8088301e-06
-3.7313917e-07
-7.7546166e-06
-4.1072619e-07
-7.6964398e-06
-4.4732138e-07
-7.634419e-06
-4.8291946e-07
-7.5686728e-06
-5.1751853e-07
-7.4993188e-06
-5.511199e-07
-7.4264733e-06
-5.8372795e-07
-7.3502508e-06
-6.1534971e-07
-7.2707641e-06
-6.4599472e-07
-7.188124e-06
-6.7567499e-07
-7.1024387e-06
-7.0440451e-07
-7.0138142e-06
-7.3219926e-07
-6.922354e-06
-7.5907698e-07
-6.8281586e-06
-7.8505691e-07
-6.7313258e-06
-8.1015964e-07
-6.6319504e-06
-8.3440701e-07
-6.5301244e-06
-8.5782194e-07
-6.4259365e-06
-8.8042814e-07
-6.3194723e-06
-9.0225017e-07
-6.2108144e-06
-9.2331312e-07
-6.100042e-06
-9.4364262e-07
-5.9872315e-06
-9.6326468e-07
-5.8724557e-06
-9.8220556e-07
-5.7557844e-06
-1.0004917e-06
-5.6372844e-06
-1.0181496e-06
-5.5170192e-06
-1.0352057e-06
-5.3950492e-06
-1.0516865e-06
-5.2714319e-06
-1.0676181e-06
-5.1462217e-06
-1.0830265e-06
-5.01947e-06
-1.0979375e-06
-4.8912254e-06
-1.1123764e-06
-4.7615337e-06
-1.126368e-06
-4.6304378e-06
-1.139937e-06
-4.497978e-06
-1.1531073e-06
-4.3641919e-06
-1.1659025e-06
-4.2291145e-06
-1.1783454e-06
-4.0927785e-06
-1.1904585e-06
-3.9552139e-06
-1.2022635e-06
-3.8164485e-06
-1.2137815e-06
-3.676508e-06
-1.2250329e-06
-3.5354155e-06
-1.2360377e-06
-3.3931923e-06
-1.2468148e-06
-3.2498577e-06
-1.2573828e-06
-3.1054287e-06
-1.2677592e-06
-2.9599206e-06
-1.277961e-06
-2.8133471e-06
-1.2880046e-06
-2.6657196e-06
-1.2979054e-06
-2.5170484e-06
-1.3076781e-06
-2.3673417e-06
-1.3173368e-06
-2.2166064e-06
-1.3268949e-06
-2.0648478e-06
-1.3363649e-06
-1.9120695e-06
-1.345759e-06
-1.758274e-06
-1.3550887e-06
-1.6034626e-06
-1.3643649e-06
-1.4476352e-06
-1.3735987e-06
-1.2907912e-06
-1.3828006e-06
-1.1329301e-06
-1.3919817e-06
-9.7405233e-07
-1.4011528e-06
-8.1416111e-07
-1.410325e-06
-6.5326463e-07
-1.4195085e-06
-4.9137812e-07
-1.4287111e-06
-3.2852406e-07
-1.4379347e-06
-1.6472855e-07
-1.4471733e-06
-1.4564025e-06
-8.0994563e-06
3.7116606e-07
-8.12286e-06
3.1633268e-07
-8.140596e-06
2.6183815e-07
-8.152735e-06
2.07777e-07
-8.159355e-06
1.5423502e-07
-8.1605421e-06
1.0129599e-07
-8.1563865e-06
4.9034477e-08
-8.1469765e-06
-2.4986417e-09
-8.1324397e-06
-5.3231831e-08
-8.1128737e-06
-1.0310131e-07
-8.0883908e-06
-1.52061e-07
-8.0591061e-06
-2.000671e-07
-8.0251371e-06
-2.4708112e-07
-7.9866035e-06
-2.9307011e-07
-7.9436264e-06
-3.380064e-07
-7.8963281e-06
-3.8186749e-07
-7.8448316e-06
-4.246357e-07
-7.7892599e-06
-4.6629792e-07
-7.7297358e-06
-5.0684541e-07
-7.6663818e-06
-5.4627348e-07
-7.5993191e-06
-5.8458119e-07
-7.5286679e-06
-6.2177115e-07
-7.4545466e-06
-6.5784926e-07
-7.3770719e-06
-6.928244e-07
-7.2963584e-06
-7.2670822e-07
-7.2125184e-06
-7.59515e-07
-7.1256617e-06
-7.9126123e-07
-7.0358955e-06
-8.2196548e-07
-6.9433242e-06
-8.5164827e-07
-6.8480493e-06
-8.8033177e-07
-6.7501694e-06
-9.0803959e-07
-6.6497797e-06
-9.3479662e-07
-6.5469727e-06
-9.6062894e-07
-6.4418374e-06
-9.8556345e-07
-6.3344597e-06
-1.0096279e-06
-6.2249219e-06
-1.0328509e-06
-6.1133036e-06
-1.055261e-06
-5.9996806e-06
-1.0768877e-06
-5.8841257e-06
-1.0977604e-06
-5.7667084e-06
-1.117909e-06
-5.647495e-06
-1.137363e-06
-5.5265486e-06
-1.1561521e-06
-5.4039291e-06
-1.174306e-06
-5.2796934e-06
-1.1918538e-06
-5.1538952e-06
-1.2088247e-06
-5.0265854e-06
-1.2252474e-06
-4.8978118e-06
-1.24115e-06
-4.7676193e-06
-1.2565604e-06
-4.6360503e-06
-1.271506e-06
-4.5031442e-06
-1.2860134e-06
-4.3689378e-06
-1.3001089e-06
-4.2334653e-06
-1.3138179e-06
-4.0967584e-06
-1.3271654e-06
-3.9588465e-06
-1.3401754e-06
-3.8197564e-06
-1.3528716e-06
-3.6795128e-06
-1.3652765e-06
-3.5381382e-06
-1.3774123e-06
-3.3956529e-06
-1.3893002e-06
-3.2520751e-06
-1.4009605e-06
-3.1074213e-06
-1.412413e-06
-2.9617057e-06
-1.4236766e-06
-2.8149411e-06
-1.4347693e-06
-2.6671382e-06
-1.4457083e-06
-2.5183063e-06
-1.45651e-06
-2.3684528e-06
-1.4671903e-06
-2.2175839e-06
-1.4777638e-06
-2.065704e-06
-1.4882448e-06
-1.9128164e-06
-1.4986466e-06
-1.758923e-06
-1.5089821e-06
-1.6040245e-06
-1.5192634e-06
-1.448121e-06
-1.5295022e-06
-1.2912118e-06
-1.5397099e-06
-1.1332963e-06
-1.5498972e-06
-9.7437468e-07
-1.5600744e-06
-8.1444887e-07
-1.5702508e-06
-6.5352352e-07
-1.5804339e-06
-4.9160678e-07
-1.5906278e-06
-3.2870939e-07
-1.6008321e-06
-1.6484141e-07
-1.6110413e-06
-1.621244e-06
-8.1596671e-06
3.9930685e-07
-8.1820003e-06
3.386659e-07
-8.1985945e-06
2.7843234e-07
-8.2095261e-06
2.187086e-07
-8.2148802e-06
1.5958917e-07
-8.2147523e-06
1.0116805e-07
-8.2092319e-06
4.3514085e-08
-8.198428e-06
-1.3302577e-08
-8.1824565e-06
-6.9203297e-08
-8.1614286e-06
-1.2412923e-07
-8.1354616e-06
-1.7802803e-07
-8.1046759e-06
-2.3085278e-07
-8.0691944e-06
-2.8256262e-07
-8.0291417e-06
-3.3312281e-07
-7.9846437e-06
-3.8250442e-07
-7.935827e-06
-4.3068413e-07
-7.8828188e-06
-4.7764393e-07
-7.8257459e-06
-5.2337081e-07
-7.7647348e-06
-5.6785655e-07
-7.699911e-06
-6.1109728e-07
-7.6313988e-06
-6.5309334e-07
-7.5593211e-06
-6.9384886e-07
-7.4837988e-06
-7.3337158e-07
-7.4049508e-06
-7.7167243e-07
-7.3228935e-06
-8.0876547e-07
-7.2377411e-06
-8.446674e-07
-7.1496049e-06