/*--------------------------------*- C++ -*----------------------------------*\
| =========                 |                                                 |
| \\      /  F ield         | OpenFOAM: The Open Source CFD Toolbox           |
|  \\    /   O peration     | Version:  2306                                  |
|   \\  /    A nd           | Website:  www.openfoam.com                      |
|    \\/     M anipulation  |                                                 |
\*---------------------------------------------------------------------------*/
FoamFile
{
    version     2.0;
    format      ascii;
    arch        "LSB;label=32;scalar=64";
    class       volVectorField;
    location    "0.05";
    object      U;
}
// * * * * * * * * * * * * * * * * * * * * * * * * * * * * * * * * * * * * * //

dimensions      [0 1 -1 0 0 0 0];

internalField   nonuniform List<vector> 
6400
(
(-3.5655274e-07 -7.2151857e-06 3.4364807e-21)
(-7.9646465e-07 -7.1928201e-06 2.2164362e-21)
(-1.3054387e-06 -7.1273345e-06 -1.0486596e-20)
(-1.7980859e-06 -7.0276604e-06 -5.6091909e-22)
(-2.2971396e-06 -6.8908324e-06 -8.5119835e-21)
(-2.7877616e-06 -6.7184165e-06 4.6882948e-21)
(-3.2695497e-06 -6.5114397e-06 -7.3134537e-21)
(-3.7411943e-06 -6.2705659e-06 -7.3051957e-21)
(-4.2010079e-06 -5.9970203e-06 -1.5585642e-21)
(-4.6474779e-06 -5.691235e-06 -5.1986644e-21)
(-5.0792958e-06 -5.3538655e-06 -6.2854839e-21)
(-5.4948659e-06 -4.9863822e-06 -6.9683517e-21)
(-5.8924322e-06 -4.5897223e-06 -5.7543697e-21)
(-6.2707511e-06 -4.1652755e-06 -4.8001417e-21)
(-6.6289386e-06 -3.714464e-06 -5.4255721e-21)
(-6.966308e-06 -3.2381625e-06 -5.499142e-21)
(-7.2811365e-06 -2.7382929e-06 -3.7341065e-21)
(-7.5719553e-06 -2.215761e-06 -3.4432312e-21)
(-7.8384116e-06 -1.6717581e-06 -2.6347908e-21)
(-8.079403e-06 -1.108445e-06 -2.1381271e-21)
(-8.2943447e-06 -5.2720111e-07 -2.8301199e-21)
(-8.4827804e-06 6.960639e-08 -1.8759866e-22)
(-8.6443514e-06 6.814667e-07 -7.8441228e-22)
(-8.77832e-06 1.3059426e-06 -1.8994856e-21)
(-8.8838826e-06 1.9416277e-06 -8.3441301e-22)
(-8.9608842e-06 2.5866978e-06 -1.4948449e-22)
(-9.0090465e-06 3.2396434e-06 1.164631e-21)
(-9.0281006e-06 3.8986101e-06 -7.9021475e-22)
(-9.0181825e-06 4.5620355e-06 -1.942642e-21)
(-8.9793431e-06 5.2279968e-06 -2.4809691e-22)
(-8.9116321e-06 5.8946568e-06 7.8139943e-22)
(-8.8152795e-06 6.5603807e-06 1.2251778e-21)
(-8.6905228e-06 7.2236157e-06 -5.9010654e-22)
(-8.5377505e-06 7.8828835e-06 -1.877494e-21)
(-8.357306e-06 8.5363582e-06 1.8072903e-22)
(-8.1495776e-06 9.1826202e-06 1.237134e-21)
(-7.9152076e-06 9.8198458e-06 1.703654e-21)
(-7.6549311e-06 1.0446831e-05 -7.0545591e-22)
(-7.3693653e-06 1.1061718e-05 -5.8805794e-22)
(-7.0592217e-06 1.1663389e-05 1.5179621e-21)
(-6.7253475e-06 1.2250625e-05 2.0618911e-21)
(-6.3687543e-06 1.282203e-05 1.2282019e-21)
(-5.9902363e-06 1.3376287e-05 6.0333547e-22)
(-5.5906427e-06 1.391242e-05 -1.9395407e-23)
(-5.1708106e-06 1.4429247e-05 -2.0481037e-21)
(-4.7319223e-06 1.492589e-05 -2.1834288e-22)
(-4.2751832e-06 1.5401088e-05 3.2173557e-22)
(-3.8016363e-06 1.5854088e-05 2.0545684e-22)
(-3.312438e-06 1.6283907e-05 -2.8251587e-22)
(-2.8085826e-06 1.6689983e-05 -1.5579551e-21)
(-2.2914309e-06 1.7071507e-05 -3.0782965e-22)
(-1.7620836e-06 1.7428043e-05 9.0246754e-22)
(-1.221396e-06 1.7759084e-05 -7.6156372e-22)
(-6.7083781e-07 1.8063697e-05 2.781565e-23)
(-1.1184372e-07 1.8341844e-05 1.2332066e-21)
(4.5525971e-07 1.8593444e-05 9.991507e-22)
(1.0289446e-06 1.8817794e-05 2.790417e-22)
(1.607753e-06 1.9014865e-05 -9.99741e-22)
(2.1905813e-06 1.9184044e-05 1.4032608e-22)
(2.7759002e-06 1.932546e-05 1.5450127e-21)
(3.3629065e-06 1.9439337e-05 -9.8933145e-23)
(3.9504344e-06 1.9525462e-05 -5.3796191e-22)
(4.5374031e-06 1.9584176e-05 -1.2546512e-21)
(5.1228229e-06 1.9615473e-05 4.639884e-22)
(5.705556e-06 1.9619585e-05 1.6391381e-21)
(6.2845076e-06 1.9596718e-05 -3.6505746e-22)
(6.8587838e-06 1.9547359e-05 -3.0321745e-22)
(7.4274498e-06 1.9471574e-05 -3.9902001e-22)
(7.9895182e-06 1.9369761e-05 5.8377429e-22)
(8.5439514e-06 1.9242512e-05 1.8895751e-21)
(9.0898858e-06 1.9090197e-05 -1.3009086e-22)
(9.6266459e-06 1.8913432e-05 -9.2382246e-22)
(1.0153408e-05 1.8712704e-05 -7.8852912e-22)
(1.0669255e-05 1.8488553e-05 5.7769452e-22)
(1.117345e-05 1.8241641e-05 1.7389271e-21)
(1.1665399e-05 1.7972484e-05 -3.05202e-22)
(1.2144425e-05 1.7681762e-05 -5.1321756e-22)
(1.260975e-05 1.7370178e-05 -2.3068126e-22)
(1.3060777e-05 1.7038421e-05 7.0530149e-22)
(1.3497008e-05 1.6687387e-05 1.6500519e-21)
(-3.3325821e-07 -6.2255163e-06 -3.6275922e-22)
(-7.4372164e-07 -6.2050732e-06 -8.1757459e-21)
(-1.2180611e-06 -6.1438091e-06 -3.301328e-20)
(-1.6778531e-06 -6.0496467e-06 1.8486873e-21)
(-2.142692e-06 -5.9212429e-06 -1.4745249e-20)
(-2.599926e-06 -5.7597129e-06 -1.1544556e-21)
(-3.0494793e-06 -5.5652387e-06 -5.6909152e-21)
(-3.4893238e-06 -5.338609e-06 5.0085431e-21)
(-3.9179227e-06 -5.080935e-06 2.1918957e-21)
(-4.3337751e-06 -4.793493e-06 -9.3865673e-22)
(-4.7358577e-06 -4.4768092e-06 3.187506e-21)
(-5.1230374e-06 -4.1317008e-06 2.3438208e-21)
(-5.4932045e-06 -3.7592502e-06 3.3048353e-21)
(-5.8453521e-06 -3.360997e-06 2.4593993e-21)
(-6.1787357e-06 -2.9375203e-06 4.5494814e-21)
(-6.4921215e-06 -2.4900129e-06 2.6801944e-21)
(-6.7841499e-06 -2.0197822e-06 2.2371811e-21)
(-7.0539894e-06 -1.5286978e-06 3.2091118e-21)
(-7.3009422e-06 -1.0176232e-06 2.103848e-21)
(-7.5239547e-06 -4.8836993e-07 4.7881691e-21)
(-7.7229081e-06 5.7316661e-08 1.5907172e-21)
(-7.8966319e-06 6.1842018e-07 -5.9925209e-22)
(-8.0445399e-06 1.1930072e-06 1.9739058e-21)
(-8.1666582e-06 1.7800225e-06 1.2741542e-22)
(-8.2625234e-06 2.3775223e-06 6.8875557e-22)
(-8.3313125e-06 2.9838146e-06 2.4608118e-21)
(-8.3727115e-06 3.5976854e-06 -7.6520815e-22)
(-8.3868319e-06 4.2173421e-06 -6.187491e-22)
(-8.37356e-06 4.84121e-06 -7.9881444e-22)
(-8.3330432e-06 5.4674577e-06 5.306345e-22)
(-8.2652664e-06 6.0944661e-06 2.1852172e-21)
(-8.170488e-06 6.7206743e-06 -7.6473873e-22)
(-8.0490125e-06 7.3445568e-06 -7.3531179e-22)
(-7.9011156e-06 7.964482e-06 -9.2632677e-22)
(-7.7270455e-06 8.5788823e-06 5.5668012e-22)
(-7.5271973e-06 9.1864278e-06 1.3310131e-21)
(-7.3022071e-06 9.7856549e-06 -1.0013036e-21)
(-7.0527655e-06 1.0375186e-05 -9.8109612e-22)
(-6.7793561e-06 1.0953524e-05 -1.228023e-21)
(-6.4826449e-06 1.1519467e-05 -1.5333632e-21)
(-6.1636237e-06 1.2071811e-05 -3.8333944e-23)
(-5.823078e-06 1.260917e-05 -7.7211365e-22)
(-5.4616722e-06 1.3130335e-05 -2.0958957e-21)
(-5.0802046e-06 1.3634243e-05 -1.7861765e-21)
(-4.6796134e-06 1.4120169e-05 -7.9969533e-22)
(-4.2610265e-06 1.4586819e-05 5.319384e-22)
(-3.8255228e-06 1.5033365e-05 -1.2851768e-21)
(-3.3739864e-06 1.5458902e-05 -2.090591e-21)
(-2.9074855e-06 1.5862647e-05 -1.8757344e-21)
(-2.4271632e-06 1.6243956e-05 -5.2625575e-22)
(-1.9341155e-06 1.6602012e-05 6.3463775e-24)
(-1.4293673e-06 1.693633e-05 -9.8046382e-22)
(-9.1405714e-07 1.7246218e-05 -8.6174118e-22)
(-3.8922924e-07 1.7531259e-05 3.2178225e-22)
(1.4401273e-07 1.7791224e-05 1.2981648e-21)
(6.8472959e-07 1.8025991e-05 -1.7552787e-22)
(1.2318749e-06 1.823464e-05 -1.3084496e-21)
(1.7839921e-06 1.8417788e-05 -1.0171664e-21)
(2.3397675e-06 1.8574517e-05 -2.91706e-22)
(2.8981526e-06 1.8704968e-05 1.2132122e-21)
(3.458157e-06 1.8809148e-05 -1.1731769e-23)
(4.0187513e-06 1.8887089e-05 -1.2473914e-21)
(4.5789847e-06 1.893873e-05 -1.1163152e-21)
(5.1377685e-06 1.8964271e-05 -7.3816702e-22)
(5.6940826e-06 1.8963829e-05 1.0827275e-21)
(6.2468839e-06 1.8937775e-05 2.4958163e-22)
(6.7952724e-06 1.8886393e-05 -8.0563227e-22)
(7.3384526e-06 1.8809767e-05 -5.7640675e-22)
(7.875434e-06 1.8708432e-05 -6.2403489e-22)
(8.4052124e-06 1.8582902e-05 1.1440447e-21)
(8.9269699e-06 1.8433294e-05 3.3807468e-22)
(9.4400385e-06 1.8260265e-05 -4.0590025e-22)
(9.9436286e-06 1.8064353e-05 -9.5958951e-22)
(1.0436833e-05 1.7846139e-05 -1.2264734e-21)
(1.0919002e-05 1.7606085e-05 1.1547304e-21)
(1.1389559e-05 1.7344739e-05 6.4726054e-22)
(1.1847812e-05 1.7062991e-05 -2.2216675e-22)
(1.2293146e-05 1.6761225e-05 -7.1941703e-22)
(1.2724837e-05 1.6440136e-05 -1.6027071e-21)
(1.3142297e-05 1.6100494e-05 -5.2999979e-22)
(-3.1061378e-07 -5.2998112e-06 1.9994943e-21)
(-6.9439996e-07 -5.2825799e-06 4.7047183e-21)
(-1.1365591e-06 -5.2263777e-06 -9.5790262e-21)
(-1.5638259e-06 -5.13769e-06 1.7235822e-22)
(-1.9976666e-06 -5.0167596e-06 -5.632385e-21)
(-2.4241797e-06 -4.8651443e-06 -1.2813331e-20)
(-2.8426769e-06 -4.6826139e-06 -4.966889e-21)
(-3.2523029e-06 -4.4699405e-06 -3.7495227e-21)
(-3.6517962e-06 -4.2279495e-06 -6.6741981e-21)
(-4.0395783e-06 -3.9577962e-06 -1.3370851e-21)
(-4.4139634e-06 -3.6602994e-06 -8.2290862e-22)
(-4.7737572e-06 -3.336389e-06 2.0562371e-21)
(-5.1183367e-06 -2.9867211e-06 -2.9545453e-22)
(-5.4461533e-06 -2.6124778e-06 2.0924515e-21)
(-5.7557513e-06 -2.2142801e-06 2.3411137e-21)
(-6.0464358e-06 -1.7937146e-06 -1.9345067e-22)
(-6.3173663e-06 -1.3519515e-06 2.5664385e-21)
(-6.5672753e-06 -8.9053259e-07 1.0706072e-21)
(-6.7956754e-06 -4.1018795e-07 1.1402856e-21)
(-7.0022569e-06 8.7114755e-08 2.0624098e-21)
(-7.185472e-06 5.9987673e-07 7.751091e-22)
(-7.3453782e-06 1.1268852e-06 2.1999054e-21)
(-7.481552e-06 1.6669282e-06 1.9800323e-21)
(-7.5928122e-06 2.2184548e-06 3.4481986e-23)
(-7.6789127e-06 2.7799791e-06 1.5395494e-21)
(-7.7394608e-06 3.3499856e-06 2.7638071e-21)
(-7.7745836e-06 3.9270305e-06 2.5437881e-21)
(-7.7840269e-06 4.5094782e-06 8.2290859e-22)
(-7.7676742e-06 5.095967e-06 -1.1228545e-21)
(-7.7255636e-06 5.6847062e-06 3.6915856e-22)
(-7.6576969e-06 6.2742093e-06 1.3344442e-21)
(-7.5643465e-06 6.8630405e-06 1.1959262e-21)
(-7.4457758e-06 7.449682e-06 -1.6629676e-22)
(-7.3022706e-06 8.0326575e-06 -1.8507546e-21)
(-7.134029e-06 8.6104375e-06 -8.0120697e-22)
(-6.9416576e-06 9.1816993e-06 2.4488081e-22)
(-6.7255807e-06 9.7451283e-06 1.3061842e-22)
(-6.4862832e-06 1.0299484e-05 -6.6165372e-22)
(-6.224417e-06 1.0843405e-05 -2.2163582e-21)
(-5.9405763e-06 1.1375582e-05 -6.2566627e-22)
(-5.6355402e-06 1.1894809e-05 -2.286222e-22)
(-5.3100167e-06 1.2399857e-05 -1.3312938e-21)
(-4.9646597e-06 1.2889797e-05 -1.1170903e-21)
(-4.6002947e-06 1.336349e-05 -1.4145669e-21)
(-4.2179957e-06 1.3820065e-05 -5.9634584e-22)
(-3.8186895e-06 1.4258462e-05 -2.1848821e-21)
(-3.4032372e-06 1.4677825e-05 -2.5738702e-21)
(-2.9725552e-06 1.5077376e-05 -1.9616616e-21)
(-2.5276157e-06 1.5456135e-05 -1.8956548e-21)
(-2.0695796e-06 1.5813736e-05 -8.5067174e-22)
(-1.5993326e-06 1.6149377e-05 -1.6723019e-21)
(-1.1177872e-06 1.6462653e-05 -2.4279838e-21)
(-6.2639303e-07 1.6752672e-05 -1.5741337e-21)
(-1.2573163e-07 1.7019198e-05 -2.2509139e-21)
(3.8309365e-07 1.7262102e-05 -9.5609529e-22)
(8.9870067e-07 1.7480756e-05 -6.5356951e-22)
(1.4204245e-06 1.7674988e-05 -5.4691893e-22)
(1.9469165e-06 1.7844607e-05 -5.2721004e-22)
(2.4769503e-06 1.7989265e-05 -1.4434968e-21)
(3.0096028e-06 1.8108947e-05 -7.5749917e-22)
(3.5440048e-06 1.8203661e-05 -8.1363797e-22)
(4.0791515e-06 1.827346e-05 -1.4158326e-21)
(4.6140022e-06 1.831825e-05 -8.8530684e-22)
(5.1475497e-06 1.8338203e-05 -1.2966085e-21)
(5.6787627e-06 1.8333475e-05 -5.6996904e-22)
(6.2067401e-06 1.8304353e-05 -7.1080781e-22)
(6.7305687e-06 1.8250917e-05 -1.2104237e-21)
(7.2494175e-06 1.8173584e-05 -3.5116409e-22)
(7.7624498e-06 1.8072732e-05 -8.7713062e-22)
(8.2687302e-06 1.7948642e-05 -2.7149699e-22)
(8.7674432e-06 1.7801705e-05 -3.9921234e-22)
(9.2578533e-06 1.7632459e-05 -1.0737452e-21)
(9.739208e-06 1.7441253e-05 -6.224467e-22)
(1.0210765e-05 1.7228695e-05 -7.4221518e-22)
(1.0671873e-05 1.6995228e-05 -2.4907125e-22)
(1.1121859e-05 1.6741402e-05 -7.7497872e-22)
(1.1560201e-05 1.6468051e-05 -1.1330172e-21)
(1.1986376e-05 1.6175585e-05 -4.2603543e-22)
(1.2399532e-05 1.5864477e-05 5.4269551e-23)
(1.2799189e-05 1.5535568e-05 4.8375277e-22)
(-2.889139e-07 -4.4378131e-06 -1.820274e-21)
(-6.4576831e-07 -4.4230318e-06 -1.0831828e-20)
(-1.0585792e-06 -4.3712957e-06 -1.8768081e-22)
(-1.4571876e-06 -4.2881561e-06 4.6944505e-21)
(-1.8613772e-06 -4.1747719e-06 4.1224234e-21)
(-2.258647e-06 -4.0312049e-06 -5.3000854e-21)
(-2.6485358e-06 -3.859363e-06 -4.1270986e-21)
(-3.0300079e-06 -3.6600543e-06 -4.1727521e-21)
(-3.4019191e-06 -3.4337663e-06 -5.568638e-21)
(-3.7626947e-06 -3.1804747e-06 -3.2644724e-21)
(-4.1111772e-06 -2.9008971e-06 -1.7130481e-21)
(-4.4461018e-06 -2.5962693e-06 -1.833381e-21)
(-4.7661159e-06 -2.2675761e-06 -3.2032945e-21)
(-5.0703916e-06 -1.915777e-06 -1.4537365e-21)
(-5.3581366e-06 -1.5416915e-06 -3.2541769e-21)
(-5.6278725e-06 -1.1467116e-06 -8.5580863e-22)
(-5.8788571e-06 -7.3208152e-07 -2.8628685e-21)
(-6.110188e-06 -2.9806268e-07 -2.5684323e-21)
(-6.3213526e-06 1.5270441e-07 -3.8120557e-22)
(-6.5120218e-06 6.1979593e-07 4.4230065e-22)
(-6.6811838e-06 1.1017836e-06 1.7380102e-21)
(-6.8279279e-06 1.5968198e-06 -2.0896101e-22)
(-6.9518511e-06 2.1044559e-06 -7.5447077e-22)
(-7.0527359e-06 2.6229137e-06 -1.3949302e-21)
(-7.1298702e-06 3.1508997e-06 -6.8363814e-22)
(-7.1829064e-06 3.6868147e-06 1.5898314e-21)
(-7.2120788e-06 4.2293238e-06 -2.102763e-22)
(-7.2171144e-06 4.7769391e-06 -1.6894954e-21)
(-7.1977929e-06 5.3280453e-06 -1.6404195e-21)
(-7.1541944e-06 5.8812579e-06 -2.9994247e-22)
(-7.0863511e-06 6.4354432e-06 1.5282878e-21)
(-6.9944627e-06 6.9890131e-06 2.6953889e-22)
(-6.8787996e-06 7.5405066e-06 -8.7556127e-22)
(-6.7395441e-06 8.0885016e-06 -1.1362792e-21)
(-6.576933e-06 8.6317007e-06 -7.5376976e-22)
(-6.3915712e-06 9.1688301e-06 1.5178912e-21)
(-6.1837994e-06 9.6987354e-06 1.0215043e-21)
(-5.9539935e-06 1.0219965e-05 -1.2469209e-24)
(-5.7029214e-06 1.0731223e-05 -1.1353813e-21)
(-5.4310984e-06 1.1231389e-05 -8.9367383e-22)
(-5.1392217e-06 1.1719225e-05 1.6202298e-21)
(-4.8278676e-06 1.219382e-05 9.3560758e-22)
(-4.4976113e-06 1.2654228e-05 1.2780665e-21)
(-4.1495787e-06 1.3099328e-05 2.4327853e-21)
(-3.7845393e-06 1.3528116e-05 2.5043337e-21)
(-3.4032462e-06 1.393988e-05 1.2265565e-21)
(-3.0066158e-06 1.4333498e-05 8.4020405e-22)
(-2.5956354e-06 1.4708365e-05 1.5547498e-21)
(-2.1712163e-06 1.5063502e-05 2.5408799e-21)
(-1.7341953e-06 1.5398666e-05 3.0304931e-21)
(-1.2855345e-06 1.5712882e-05 2.1914244e-21)
(-8.2626033e-07 1.6006133e-05 1.229496e-21)
(-3.5758229e-07 1.6277165e-05 1.1056067e-21)
(1.2019282e-07 1.6526376e-05 -3.8057482e-22)
(6.0573506e-07 1.6752922e-05 -4.6623285e-22)
(1.0977336e-06 1.6956417e-05 1.0215182e-22)
(1.5955259e-06 1.7136887e-05 1.1933885e-21)
(2.0977471e-06 1.7293693e-05 1.4053376e-21)
(2.603505e-06 1.7426942e-05 6.3890388e-23)
(3.1119413e-06 1.753628e-05 -7.0964712e-22)
(3.6220207e-06 1.7621866e-05 -5.3852887e-22)
(4.1327638e-06 1.7683795e-05 2.6814167e-22)
(4.6433024e-06 1.7722017e-05 5.7335959e-22)
(5.1526482e-06 1.7736641e-05 6.652876e-24)
(5.6598492e-06 1.7727819e-05 -2.9894932e-22)
(6.1640691e-06 1.7695737e-05 -6.5219487e-23)
(6.6644787e-06 1.7640399e-05 6.1656187e-22)
(7.1601442e-06 1.7562364e-05 8.2995941e-22)
(7.6501994e-06 1.7461861e-05 1.552991e-22)
(8.1339559e-06 1.7339188e-05 -5.3303346e-23)
(8.6105995e-06 1.7194716e-05 1.9698636e-22)
(9.0793799e-06 1.7028969e-05 6.9864231e-22)
(9.5396307e-06 1.6842222e-05 3.4069799e-22)
(9.9906184e-06 1.6635224e-05 -1.0065402e-22)
(1.0431689e-05 1.6408078e-05 -1.7215725e-23)
(1.0862096e-05 1.616137e-05 -1.8818819e-22)
(1.1281424e-05 1.5895922e-05 2.4484335e-22)
(1.168925e-05 1.5612239e-05 2.1939507e-22)
(1.208464e-05 1.5310833e-05 3.6655588e-22)
(1.2467053e-05 1.4992169e-05 4.6221174e-23)
(-2.6793112e-07 -3.6374993e-06 7.1256276e-23)
(-6.0038657e-07 -3.6234784e-06 2.6446686e-22)
(-9.8566105e-07 -3.5740522e-06 1.7829405e-20)
(-1.3569882e-06 -3.4958167e-06 4.7903538e-21)
(-1.7336117e-06 -3.3891636e-06 1.4036396e-20)
(-2.1031017e-06 -3.2546407e-06 6.2650285e-21)
(-2.4662237e-06 -3.0935649e-06 1.5154567e-20)
(-2.8214142e-06 -2.9065709e-06 1.0541361e-20)
(-3.1673211e-06 -2.693915e-06 1.0354173e-20)
(-3.5028891e-06 -2.4557681e-06 1.097038e-20)
(-3.8267955e-06 -2.1931343e-06 8.667395e-21)
(-4.137852e-06 -1.9070053e-06 4.607167e-21)
(-4.4354377e-06 -1.5980966e-06 5.6527734e-21)
(-4.7178956e-06 -1.267473e-06 3.7331456e-21)
(-4.9842664e-06 -9.1641118e-07 4.3564717e-21)
(-5.2344241e-06 -5.4525914e-07 3.5011986e-21)
(-5.4667271e-06 -1.5549346e-07 4.2836879e-21)
(-5.681083e-06 2.5172181e-07 3.9494805e-21)
(-5.8766104e-06 6.748839e-07 2.7619725e-21)
(-6.0519614e-06 1.1135324e-06 1.0599107e-21)
(-6.2070008e-06 1.5662709e-06 -7.6017479e-22)
(-6.3412107e-06 2.031842e-06 -1.7652769e-22)
(-6.4541134e-06 2.5088729e-06 -1.1968992e-21)
(-6.5450013e-06 2.9961756e-06 5.1266319e-22)
(-6.6136799e-06 3.4922624e-06 1.623149e-21)
(-6.6598283e-06 3.995966e-06 -5.8589912e-22)
(-6.6834289e-06 4.5058162e-06 -2.6525214e-22)
(-6.6842866e-06 5.0205471e-06 -1.7988287e-22)
(-6.6620769e-06 5.5385065e-06 1.1334952e-22)
(-6.6170388e-06 6.0585288e-06 1.0010594e-21)
(-6.5492841e-06 6.5794568e-06 -4.646353e-22)
(-6.4588005e-06 7.0997202e-06 -2.891217e-22)
(-6.3457699e-06 7.6180296e-06 -1.8703812e-23)
(-6.2105129e-06 8.1330832e-06 3.3216591e-22)
(-6.0533323e-06 8.6436906e-06 3.1947842e-22)
(-5.8745595e-06 9.1484573e-06 -7.9563034e-22)
(-5.6745032e-06 9.6464553e-06 -1.1439427e-22)
(-5.4536871e-06 1.0136203e-05 1.0082761e-22)
(-5.2127602e-06 1.061663e-05 -2.6947336e-23)
(-4.9522346e-06 1.108659e-05 6.8661877e-22)
(-4.6727557e-06 1.1544835e-05 1.90363e-21)
(-4.3747463e-06 1.1990834e-05 1.2995237e-22)
(-4.0589212e-06 1.2423249e-05 -6.000198e-22)
(-3.726398e-06 1.2841179e-05 -1.7689776e-22)
(-3.3776311e-06 1.3243608e-05 -1.3752109e-22)
(-3.0133973e-06 1.362997e-05 7.5353164e-22)
(-2.6346263e-06 1.3999229e-05 -5.4193869e-22)
(-2.2423194e-06 1.4350703e-05 -2.5820599e-22)
(-1.8371016e-06 1.4683693e-05 -7.0789393e-22)
(-1.4201032e-06 1.4997695e-05 1.6147563e-22)
(-9.9202609e-07 1.5291853e-05 9.3723539e-22)
(-5.5368725e-07 1.5565894e-05 3.5111775e-22)
(-1.0633995e-07 1.5818924e-05 4.9042836e-22)
(3.4955623e-07 1.6051647e-05 -5.0342669e-22)
(8.1282136e-07 1.6262346e-05 -3.545215e-22)
(1.2824947e-06 1.6451588e-05 2.6590336e-24)
(1.7575567e-06 1.6618673e-05 2.5997722e-22)
(2.2368883e-06 1.6763383e-05 1.0282752e-21)
(2.7196315e-06 1.6885797e-05 -1.9372372e-22)
(3.2048881e-06 1.6985497e-05 -8.6582496e-22)
(3.691733e-06 1.7062706e-05 -9.1479656e-22)
(4.1793216e-06 1.7117307e-05 -9.5980234e-23)
(4.6667862e-06 1.7149271e-05 7.2843695e-22)
(5.1531097e-06 1.7158838e-05 -3.5810818e-22)
(5.6374343e-06 1.7145986e-05 -3.3066921e-22)
(6.1190419e-06 1.7111027e-05 -4.6633893e-22)
(6.597074e-06 1.7053933e-05 9.8258248e-23)
(7.0706011e-06 1.6975211e-05 8.1567628e-22)
(7.5388597e-06 1.6875037e-05 5.9262566e-24)
(8.0011727e-06 1.6753679e-05 -3.1836305e-22)
(8.4567993e-06 1.6611538e-05 -4.1472676e-22)
(8.9049142e-06 1.644902e-05 -1.1640498e-22)
(9.3448028e-06 1.6266469e-05 2.7597145e-22)
(9.7760333e-06 1.6064495e-05 8.7252997e-23)
(1.0198009e-05 1.5843287e-05 -3.3494047e-23)
(1.0609808e-05 1.5603516e-05 -8.12183e-22)
(1.1010868e-05 1.5345734e-05 -2.0806074e-22)
(1.1400936e-05 1.50705e-05 3.5431384e-22)
(1.1779418e-05 1.4778346e-05 -1.9185528e-22)
(1.2145356e-05 1.4469638e-05 -7.5630459e-22)
(-2.4909883e-07 -2.8935899e-06 2.8837199e-21)
(-5.5781581e-07 -2.8794507e-06 1.4063678e-20)
(-9.1732772e-07 -2.8321412e-06 7.2421989e-21)
(-1.2629091e-06 -2.758803e-06 -5.1648777e-21)
(-1.6132393e-06 -2.6587815e-06 -2.2550922e-21)
(-1.9573528e-06 -2.532907e-06 5.6833828e-21)
(-2.2953791e-06 -2.3816976e-06 -6.9184164e-22)
(-2.6256487e-06 -2.2055226e-06 -2.4889927e-21)
(-2.9469233e-06 -2.0050594e-06 2.5078463e-21)
(-3.2583807e-06 -1.7811934e-06 -4.0045978e-21)
(-3.5593506e-06 -1.5347035e-06 -5.8156689e-21)
(-3.8483942e-06 -1.2661994e-06 -5.4079169e-21)
(-4.1242355e-06 -9.763115e-07 -5.1818279e-21)
(-4.3864924e-06 -6.6572878e-07 -4.7667581e-21)
(-4.6337115e-06 -3.3581272e-07 -4.1785585e-21)
(-4.8648808e-06 1.2307122e-08 -3.0069365e-21)
(-5.0800569e-06 3.7843554e-07 -2.8572662e-21)
(-5.2783756e-06 7.6062859e-07 -4.0611248e-21)
(-5.4582081e-06 1.1584877e-06 -2.8038742e-21)
(-5.619252e-06 1.5707866e-06 -2.1417184e-21)
(-5.7615647e-06 1.9960946e-06 -2.2321952e-21)
(-5.8841851e-06 2.4334354e-06 -1.1155934e-22)
(-5.9864446e-06 2.881725e-06 5.8862319e-22)
(-6.0680251e-06 3.3396583e-06 -3.1305106e-22)
(-6.1288011e-06 3.805768e-06 1.5521678e-21)
(-6.1683678e-06 4.2791958e-06 1.1603823e-21)
(-6.1866799e-06 4.7582976e-06 2.3933594e-22)
(-6.1834579e-06 5.241875e-06 -8.3010312e-22)
(-6.1585672e-06 5.7286717e-06 -1.0868732e-21)
(-6.1122872e-06 6.2174088e-06 1.0737156e-21)
(-6.0445397e-06 6.7069428e-06 1.0071751e-21)
(-5.955276e-06 7.1957736e-06 5.6655693e-23)
(-5.8447291e-06 7.6828155e-06 -6.3116424e-22)
(-5.7132415e-06 8.1668755e-06 -1.0360961e-21)
(-5.5611046e-06 8.6467301e-06 7.754005e-22)
(-5.3885128e-06 9.1210696e-06 8.6029593e-22)
(-5.1958437e-06 9.5887767e-06 4.1181994e-22)
(-4.9835978e-06 1.0048834e-05 -3.7850177e-22)
(-4.7522757e-06 1.0500201e-05 -1.0892076e-21)
(-4.5024863e-06 1.0941545e-05 2.8501457e-22)
(-4.2345552e-06 1.1371979e-05 2.6696282e-22)
(-3.949146e-06 1.1790879e-05 1.4734807e-21)
(-3.6471118e-06 1.2196724e-05 2.2314491e-21)
(-3.3292263e-06 1.2589e-05 3.8762791e-23)
(-2.9957933e-06 1.2966692e-05 3.7035001e-22)
(-2.6476489e-06 1.332893e-05 4.0338012e-22)
(-2.2858836e-06 1.3675067e-05 8.5481695e-22)
(-1.9111882e-06 1.4004355e-05 1.7512536e-21)
(-1.5242067e-06 1.431635e-05 -9.050135e-23)
(-1.1260857e-06 1.4610202e-05 5.1457474e-22)
(-7.1746073e-07 1.4885244e-05 4.7183638e-22)
(-2.9916429e-07 1.5141235e-05 8.5160119e-22)
(1.2813495e-07 1.5377424e-05 1.0528769e-21)
(5.633152e-07 1.5594186e-05 4.5294913e-22)
(1.0053702e-06 1.578995e-05 4.3467505e-22)
(1.4538083e-06 1.596559e-05 1.4099453e-22)
(1.9071736e-06 1.6120025e-05 1.3845782e-21)
(2.3646797e-06 1.6253279e-05 1.2855467e-21)
(2.8255058e-06 1.6365352e-05 1.4690758e-22)
(3.2887446e-06 1.6455843e-05 3.8621199e-22)
(3.7535757e-06 1.6525001e-05 -4.3846706e-23)
(4.2191755e-06 1.6572494e-05 9.5179044e-22)
(4.6846373e-06 1.6598588e-05 1.088733e-21)
(5.1491156e-06 1.6603282e-05 2.5427564e-22)
(5.6117465e-06 1.6586668e-05 3.1126725e-22)
(6.0717863e-06 1.6548859e-05 -2.0254767e-22)
(6.5284488e-06 1.6490156e-05 7.8200762e-22)
(6.9808667e-06 1.6410678e-05 1.4656089e-21)
(7.428324e-06 1.6310827e-05 5.2113446e-22)
(7.8701648e-06 1.6190766e-05 1.5566216e-22)
(8.3057071e-06 1.6050796e-05 5.5494312e-23)
(8.7341187e-06 1.5891434e-05 3.9731375e-22)
(9.1547353e-06 1.571294e-05 7.0378873e-22)
(9.5670736e-06 1.5515651e-05 2.5860731e-22)
(9.9705434e-06 1.5300164e-05 2.8286669e-22)
(1.036444e-05 1.5066959e-05 3.0201213e-22)
(1.0748031e-05 1.4816572e-05 5.2014078e-22)
(1.1121254e-05 1.4549383e-05 6.7120686e-22)
(1.1483376e-05 1.4265917e-05 -2.6734772e-23)
(1.1833806e-05 1.396663e-05 -2.5345029e-22)
(-2.3206137e-07 -2.2016901e-06 9.6951722e-22)
(-5.1918066e-07 -2.1865029e-06 1.2575116e-22)
(-8.5327606e-07 -2.1413555e-06 3.9263352e-22)
(-1.1745892e-06 -2.072633e-06 4.2774537e-21)
(-1.5003135e-06 -1.9788884e-06 8.5336255e-22)
(-1.8197774e-06 -1.8607952e-06 -3.4501953e-23)
(-2.1336775e-06 -1.7188602e-06 -1.0279075e-21)
(-2.4406261e-06 -1.5531846e-06 5.2421368e-21)
(-2.7395762e-06 -1.3648492e-06 -1.8624943e-21)
(-3.0294292e-06 -1.1546011e-06 -9.9089285e-22)
(-3.3086476e-06 -9.2332467e-07 2.0588447e-21)
(-3.5766792e-06 -6.7109131e-07 1.6510441e-21)
(-3.832613e-06 -3.9849804e-07 2.9093968e-21)
(-4.0752835e-06 -1.0727215e-07 2.3176496e-21)
(-4.3043445e-06 2.0246183e-07 4.2258359e-21)
(-4.5184316e-06 5.2968309e-07 4.5467487e-22)
(-4.7167874e-06 8.7329108e-07 6.4180621e-22)
(-4.8994447e-06 1.2325477e-06 1.3386624e-21)
(-5.0648316e-06 1.6067323e-06 2.2004497e-21)
(-5.21272e-06 1.9934528e-06 4.7705077e-21)
(-5.3430039e-06 2.3928429e-06 2.0523249e-21)
(-5.454539e-06 2.8038561e-06 2.5814094e-22)
(-5.5468902e-06 3.2250246e-06 5.5609275e-22)
(-5.619757e-06 3.6551636e-06 -2.7555671e-22)
(-5.6730866e-06 4.093139e-06 -1.8206747e-23)
(-5.7065297e-06 4.5379788e-06 4.9861505e-22)
(-5.7198747e-06 4.9881137e-06 -6.4738706e-22)
(-5.7129108e-06 5.4424396e-06 -1.6551347e-22)
(-5.6855968e-06 5.8998046e-06 -1.4235076e-22)
(-5.638069e-06 6.3590339e-06 1.839878e-22)
(-5.57022e-06 6.8188741e-06 6.0490906e-22)
(-5.4821623e-06 7.2781606e-06 -2.5519489e-22)
(-5.3740384e-06 7.7357359e-06 -2.9087795e-22)
(-5.2461235e-06 8.1905203e-06 3.3511437e-23)
(-5.0987324e-06 8.6412711e-06 6.8456863e-22)
(-4.9319582e-06 9.0869697e-06 6.4156953e-22)
(-4.7462251e-06 9.526119e-06 1.1499376e-22)
(-4.5420359e-06 9.9582158e-06 2.6077225e-23)
(-4.3198849e-06 1.0382066e-05 5.6164529e-22)
(-4.0801449e-06 1.0796463e-05 9.3467287e-23)
(-3.8231646e-06 1.1200697e-05 5.5011613e-23)
(-3.5498098e-06 1.1593761e-05 2.0768738e-22)
(-3.2607332e-06 1.1974543e-05 -1.5657943e-21)
(-2.9565556e-06 1.2342502e-05 -8.4517611e-22)
(-2.637697e-06 1.2696798e-05 8.1355586e-22)
(-2.3048151e-06 1.3036254e-05 5.3205424e-22)
(-1.9590299e-06 1.3360551e-05 7.3755917e-22)
(-1.6010716e-06 1.3668903e-05 -1.0928901e-21)
(-1.2314289e-06 1.3960881e-05 -6.1485551e-22)
(-8.5126212e-07 1.4235523e-05 4.5077624e-22)
(-4.6101458e-07 1.4492524e-05 1.8452598e-22)
(-6.1592079e-08 1.4731362e-05 5.4530871e-22)
(3.4660696e-07 1.4951706e-05 4.2667086e-22)
(7.6210775e-07 1.5153096e-05 1.8502366e-22)
(1.1842333e-06 1.5335252e-05 -8.9896692e-22)
(1.6124947e-06 1.5497696e-05 -3.428254e-22)
(2.0450594e-06 1.5640073e-05 8.0415042e-22)
(2.4817467e-06 1.5762484e-05 2.5016297e-22)
(2.921756e-06 1.5864682e-05 1.697976e-22)
(3.3641516e-06 1.5946365e-05 -3.3859843e-22)
(3.8080227e-06 1.6007767e-05 -1.7710236e-22)
(4.252672e-06 1.6048528e-05 2.1281427e-22)
(4.6972166e-06 1.6069001e-05 -2.9893458e-22)
(5.1408378e-06 1.6069044e-05 1.929632e-22)
(5.5828264e-06 1.6048791e-05 -2.7340411e-22)
(6.0223368e-06 1.6008358e-05 -1.7818476e-22)
(6.4585906e-06 1.5948132e-05 9.9538552e-23)
(6.8909095e-06 1.5867953e-05 1.4217465e-22)
(7.3185642e-06 1.5768346e-05 1.8290452e-22)
(7.740907e-06 1.564942e-05 1.4480067e-22)
(8.1571874e-06 1.5511569e-05 3.2825128e-22)
(8.5666918e-06 1.5355195e-05 -3.3870018e-23)
(8.968904e-06 1.5180557e-05 -5.9769752e-22)
(9.3632433e-06 1.4987967e-05 3.509382e-23)
(9.7491004e-06 1.4777928e-05 3.4952273e-22)
(1.0125806e-05 1.4551015e-05 4.2087063e-22)
(1.0492764e-05 1.4307494e-05 -3.7145758e-22)
(1.0849945e-05 1.4047807e-05 -5.5156832e-22)
(1.1196379e-05 1.3772716e-05 -1.0093135e-22)
(1.1531703e-05 1.3482357e-05 5.2762623e-22)
(-2.1608337e-07 -1.5579451e-06 -1.3646657e-21)
(-4.8278428e-07 -1.5424616e-06 -7.7286325e-21)
(-7.9259838e-07 -1.4992736e-06 -5.3188386e-22)
(-1.0914675e-06 -1.4351101e-06 1.9923128e-22)
(-1.3939619e-06 -1.3466982e-06 5.3719557e-22)
(-1.6911946e-06 -1.2356296e-06 -1.5912577e-22)
(-1.982839e-06 -1.1023509e-06 1.7356335e-21)
(-2.2677018e-06 -9.4730485e-07 1.8429453e-22)
(-2.5449705e-06 -7.7089557e-07 -8.3216909e-22)
(-2.8137841e-06 -5.7332591e-07 1.9062766e-21)
(-3.0728287e-06 -3.5565387e-07 9.6447264e-22)
(-3.3211562e-06 -1.1876025e-07 1.8378466e-21)
(-3.5584452e-06 1.370455e-07 1.8132916e-22)
(-3.7835277e-06 4.1051521e-07 1.3468635e-21)
(-3.9948401e-06 7.0151025e-07 -7.2874653e-22)
(-4.1922975e-06 1.0088268e-06 -1.4813048e-21)
(-4.3756555e-06 1.3314466e-06 1.4242921e-21)
(-4.5433677e-06 1.6688839e-06 2.1130589e-22)
(-4.6956726e-06 2.0199332e-06 8.9711585e-22)
(-4.8315823e-06 2.3833533e-06 -6.5639336e-22)
(-4.9499043e-06 2.7587077e-06 -3.2882146e-21)
(-5.0508268e-06 3.1447852e-06 -2.0505811e-21)
(-5.1338494e-06 3.5403596e-06 -9.3343625e-22)
(-5.1986461e-06 3.9443891e-06 -6.4734169e-23)
(-5.2450669e-06 4.3559362e-06 7.3857197e-22)
(-5.2726906e-06 4.7737875e-06 -3.6500822e-22)
(-5.2813182e-06 5.1966069e-06 -1.4493727e-21)
(-5.2708442e-06 5.6234362e-06 -5.4028746e-22)
(-5.2412366e-06 6.0530343e-06 5.9371933e-22)
(-5.1925355e-06 6.484375e-06 1.1943908e-21)
(-5.124654e-06 6.9162658e-06 1.1769342e-22)
(-5.0376902e-06 7.3477683e-06 -9.1710478e-22)
(-4.9318539e-06 7.7775912e-06 -5.3905899e-22)
(-4.807351e-06 8.204763e-06 8.6441174e-22)
(-4.6643208e-06 8.6279771e-06 1.5320142e-21)
(-4.50304e-06 9.0465093e-06 7.0687982e-22)
(-4.3239445e-06 9.4588481e-06 -1.302485e-22)
(-4.1274325e-06 9.8645152e-06 -2.5612333e-22)
(-3.9138738e-06 1.0262355e-05 7.0872336e-22)
(-3.6835652e-06 1.0651379e-05 3.2261894e-22)
(-3.4370908e-06 1.1030736e-05 3.5622739e-22)
(-3.1752068e-06 1.1399451e-05 4.3468558e-22)
(-2.8982666e-06 1.1756549e-05 3.8278907e-22)
(-2.6069198e-06 1.210151e-05 5.4371052e-23)
(-2.3018363e-06 1.243342e-05 -1.4291254e-21)
(-1.9836427e-06 1.2751406e-05 -5.724977e-22)
(-1.6530918e-06 1.3055096e-05 5.1434187e-22)
(-1.3108612e-06 1.3343755e-05 2.3015595e-22)
(-9.578293e-07 1.3616487e-05 -6.4424985e-23)
(-5.9460106e-07 1.3873162e-05 -1.1743431e-21)
(-2.2180294e-07 1.4113189e-05 -2.3194719e-22)
(1.5972855e-07 1.4335595e-05 9.4147453e-22)
(5.4975895e-07 1.454091e-05 8.2281737e-22)
(9.4682287e-07 1.4727793e-05 7.7794356e-22)
(1.3499109e-06 1.4896912e-05 1.256063e-21)
(1.7586549e-06 1.5046873e-05 1.0598501e-21)
(2.1718593e-06 1.5177849e-05 8.2405035e-22)
(2.5888935e-06 1.5289968e-05 4.1189412e-22)
(3.0091352e-06 1.5382769e-05 7.7064886e-22)
(3.4316179e-06 1.5456115e-05 9.5669797e-22)
(3.8554813e-06 1.5510128e-05 5.7766679e-22)
(4.2801728e-06 1.5544513e-05 6.1495867e-22)
(4.7048475e-06 1.5559616e-05 4.7245412e-22)
(5.1286369e-06 1.5555316e-05 5.5686871e-22)
(5.5508533e-06 1.5531586e-05 7.6966878e-22)
(5.970776e-06 1.5488704e-05 5.060112e-22)
(6.3876322e-06 1.5426897e-05 1.0939384e-21)
(6.8007638e-06 1.5346103e-05 6.5300792e-22)
(7.2095538e-06 1.5246745e-05 5.7433345e-22)
(7.6132234e-06 1.512889e-05 8.528504e-22)
(8.0111239e-06 1.4993114e-05 3.4647023e-22)
(8.4026611e-06 1.4839557e-05 9.7596959e-22)
(8.7872778e-06 1.4668515e-05 4.2467524e-22)
(9.1643618e-06 1.4480438e-05 5.2933228e-22)
(9.5333135e-06 1.4275572e-05 5.2875394e-22)
(9.8936566e-06 1.405465e-05 -1.6842488e-23)
(1.0244832e-05 1.381776e-05 8.5948366e-22)
(1.0586352e-05 1.3565425e-05 5.5590884e-22)
(1.0917911e-05 1.3298427e-05 3.877297e-22)
(1.1238608e-05 1.3016771e-05 2.692498e-23)
(-2.0100314e-07 -9.5832138e-07 -2.465899e-21)
(-4.4917214e-07 -9.4406034e-07 -7.6688252e-21)
(-7.3631181e-07 -9.0331136e-07 -7.547964e-22)
(-1.0135263e-06 -8.4287139e-07 -5.0965734e-22)
(-1.2940606e-06 -7.6012649e-07 3.7182054e-21)