/*--------------------------------*- C++ -*----------------------------------*\
| =========                 |                                                 |
| \\      /  F ield         | OpenFOAM: The Open Source CFD Toolbox           |
|  \\    /   O peration     | Version:  2306                                  |
|   \\  /    A nd           | Website:  www.openfoam.com                      |
|    \\/     M anipulation  |                                                 |
\*---------------------------------------------------------------------------*/
FoamFile
{
    version     2.0;
    format      ascii;
    arch        "LSB;label=32;scalar=64";
    class       volVectorField;
    location    "0.11";
    object      U;
}
// * * * * * * * * * * * * * * * * * * * * * * * * * * * * * * * * * * * * * //

dimensions      [0 1 -1 0 0 0 0];

internalField   nonuniform List<vector> 
6400
(
(-0.0007240993 -7.6004592e-07 -3.0547782e-19)
(-0.00071323031 -8.60081e-07 9.3685735e-20)
(-0.00070228507 -9.526062e-07 1.9727395e-19)
(-0.00069127516 -1.0384361e-06 6.619023e-22)
(-0.00068021158 -1.1182179e-06 7.9819522e-20)
(-0.00066910479 -1.1924567e-06 -9.1152307e-20)
(-0.00065796468 -1.2615739e-06 -4.0256659e-21)
(-0.00064680067 -1.3259205e-06 -6.3134273e-21)
(-0.00063562166 -1.3857957e-06 -1.3306899e-19)
(-0.00062443608 -1.4414681e-06 8.5322883e-20)
(-0.00061325191 -1.4931829e-06 -1.1403825e-19)
(-0.00060207667 -1.5411616e-06 -6.6729988e-20)
(-0.00059091745 -1.5856069e-06 1.5933789e-19)
(-0.00057978092 -1.6267154e-06 6.3222002e-20)
(-0.00056867334 -1.6646639e-06 -2.1411494e-20)
(-0.00055760056 -1.6996251e-06 -1.4896606e-19)
(-0.00054656808 -1.7317623e-06 -7.8655024e-21)
(-0.00053558099 -1.7612251e-06 9.1164261e-20)
(-0.00052464405 -1.7881612e-06 1.084214e-19)
(-0.00051376167 -1.8127094e-06 -3.1738498e-21)
(-0.00050293793 -1.8350133e-06 -1.8880816e-19)
(-0.00049217658 -1.8551874e-06 3.4121444e-20)
(-0.00048148107 -1.8733571e-06 5.5862499e-20)
(-0.00047085457 -1.8896406e-06 5.7477863e-20)
(-0.00046029995 -1.9041527e-06 1.6086609e-20)
(-0.00044981981 -1.9169895e-06 -1.7174544e-19)
(-0.00043941651 -1.9282655e-06 4.0417793e-20)
(-0.00042909216 -1.9380635e-06 9.6328493e-20)
(-0.00041884863 -1.946491e-06 1.3800582e-20)
(-0.00040868755 -1.9536262e-06 -2.6658871e-22)
(-0.00039861037 -1.9595586e-06 -1.2748754e-19)
(-0.00038861831 -1.9643681e-06 -1.8446514e-20)
(-0.00037871243 -1.9681332e-06 7.1171881e-20)
(-0.00036889356 -1.9709228e-06 1.0219368e-20)
(-0.00035916241 -1.9728075e-06 2.4971729e-20)
(-0.00034951949 -1.9738616e-06 -2.9140729e-20)
(-0.00033996517 -1.9741387e-06 4.1088097e-21)
(-0.00033049966 -1.9737058e-06 2.010715e-20)
(-0.00032112306 -1.9726158e-06 1.4752784e-21)
(-0.00031183531 -1.9709286e-06 3.305721e-20)
(-0.00030263626 -1.9686927e-06 -3.6426246e-20)
(-0.0002935256 -1.9659567e-06 -1.8656425e-20)
(-0.00028450296 -1.9627674e-06 2.933065e-20)
(-0.00027556785 -1.9591719e-06 4.0136941e-20)
(-0.00026671968 -1.9552076e-06 6.6155957e-21)
(-0.00025795778 -1.9509149e-06 -8.2095478e-20)
(-0.00024928141 -1.9463346e-06 -3.0570676e-20)
(-0.00024068972 -1.9415014e-06 4.4528929e-20)
(-0.00023218183 -1.9364455e-06 2.9843317e-20)
(-0.00022375676 -1.9311987e-06 -1.4758492e-20)
(-0.00021541351 -1.9257908e-06 -3.0843529e-20)
(-0.00020715098 -1.920254e-06 4.492879e-22)
(-0.00019896806 -1.9146114e-06 -2.7389996e-21)
(-0.00019086356 -1.908885e-06 -1.4145688e-20)
(-0.00018283628 -1.9030987e-06 -1.9260491e-20)
(-0.00017488496 -1.8972789e-06 9.2639956e-21)
(-0.00016700832 -1.8914421e-06 3.6245157e-20)
(-0.00015920504 -1.8856032e-06 6.872981e-21)
(-0.00015147378 -1.8797881e-06 -4.6289852e-22)
(-0.00014381317 -1.874006e-06 -3.1438665e-21)
(-0.00013622183 -1.8682777e-06 -1.1488502e-20)
(-0.00012869837 -1.8626096e-06 9.1971901e-21)
(-0.00012124136 -1.85702e-06 -4.6801721e-22)
(-0.00011384939 -1.8515202e-06 1.7215792e-21)
(-0.00010652102 -1.8461174e-06 1.5351953e-20)
(-9.9254817e-05 -1.8408201e-06 -2.0161227e-20)
(-9.2049348e-05 -1.8356375e-06 -1.3774923e-20)
(-8.4903188e-05 -1.8305719e-06 1.6287473e-20)
(-7.7814921e-05 -1.8256234e-06 1.4966126e-20)
(-7.0783156e-05 -1.8207849e-06 -3.5233829e-21)
(-6.3806551e-05 -1.8160267e-06 -1.7031526e-20)
(-5.6883861e-05 -1.8112752e-06 -6.0911511e-21)
(-5.0014044e-05 -1.8063559e-06 9.7918574e-21)
(-4.3196513e-05 -1.8008229e-06 4.165729e-21)
(-3.6431692e-05 -1.7936218e-06 -3.9004259e-21)
(-2.9722353e-05 -1.7824724e-06 -4.3028761e-21)
(-2.3076867e-05 -1.7636756e-06 -4.8128788e-22)
(-1.6513221e-05 -1.738744e-06 1.9884969e-21)
(-1.0018886e-05 -1.7823515e-06 3.3435066e-22)
(-3.3586018e-06 -2.2367262e-06 -2.2980957e-21)
(-0.001272428 -3.2676204e-06 -1.9291743e-20)
(-0.0012531902 -3.8468544e-06 5.723702e-20)
(-0.0012338279 -4.3957378e-06 1.1717108e-19)
(-0.0012143607 -4.915529e-06 -1.4867081e-19)
(-0.0011948073 -5.4073885e-06 -1.494216e-20)
(-0.0011751857 -5.8724018e-06 1.6738908e-19)
(-0.0011555128 -6.3116231e-06 -1.8860108e-19)
(-0.0011358049 -6.7260646e-06 1.7331188e-20)
(-0.0011160772 -7.1167122e-06 1.0686833e-19)
(-0.0010963443 -7.4845244e-06 -6.864813e-20)
(-0.0010766199 -7.8304437e-06 -6.9072754e-20)
(-0.0010569171 -8.1553916e-06 -1.2627279e-19)
(-0.0010372481 -8.460258e-06 1.2008722e-19)
(-0.0010176243 -8.7459214e-06 9.8459048e-20)
(-0.00099805648 -9.0132267e-06 -5.5820306e-20)
(-0.00097855477 -9.2630097e-06 -2.8877328e-20)
(-0.00095912857 -9.4960694e-06 -1.4900803e-20)
(-0.00093978665 -9.7131896e-06 9.6101638e-20)
(-0.00092053716 -9.9151301e-06 5.3478354e-21)
(-0.00090138764 -1.0102621e-05 -1.3615265e-19)
(-0.00088234507 -1.0276404e-05 -3.4550938e-20)
(-0.00086341587 -1.043714e-05 9.3715603e-20)
(-0.00084460592 -1.0585504e-05 9.606543e-20)
(-0.0008259206 -1.0722151e-05 1.1931943e-20)
(-0.00080736479 -1.08477e-05 -1.0359871e-19)
(-0.00078894291 -1.0962746e-05 -1.0080681e-19)
(-0.00077065894 -1.1067878e-05 5.0648235e-20)
(-0.00075251642 -1.1163644e-05 1.5702798e-19)
(-0.00073451849 -1.12506e-05 1.4318251e-20)
(-0.0007166679 -1.1329243e-05 -1.3961246e-19)
(-0.00069896703 -1.1400079e-05 -4.0936827e-20)
(-0.00068141793 -1.1463581e-05 -2.9221876e-21)
(-0.00066402228 -1.152021e-05 1.0529126e-19)
(-0.00064678148 -1.1570398e-05 1.1524663e-19)
(-0.00062969661 -1.1614566e-05 -8.8845972e-20)
(-0.00061276849 -1.1653129e-05 -1.0346768e-19)
(-0.00059599763 -1.1686454e-05 -1.6937774e-20)
(-0.00057938435 -1.171492e-05 9.3289239e-20)
(-0.00056292868 -1.1738869e-05 4.5047359e-20)
(-0.00054663045 -1.1758648e-05 -1.0825442e-19)
(-0.00053048928 -1.1774574e-05 -3.4766664e-20)
(-0.00051450458 -1.178695e-05 8.441795e-20)
(-0.00049867559 -1.1796059e-05 7.2017153e-20)
(-0.00048300138 -1.1802189e-05 -2.9778096e-20)
(-0.00046748085 -1.1805597e-05 -1.0788204e-19)
(-0.00045211275 -1.1806534e-05 -1.6362189e-20)
(-0.00043689571 -1.1805239e-05 6.6680347e-20)
(-0.00042182818 -1.1801945e-05 4.4139732e-20)
(-0.00040690855 -1.1796854e-05 -1.1454315e-20)
(-0.00039213506 -1.1790169e-05 -6.4393091e-20)
(-0.00037750587 -1.1782087e-05 -1.963536e-20)
(-0.00036301903 -1.1772789e-05 6.8139884e-20)
(-0.00034867251 -1.1762452e-05 5.263588e-20)
(-0.00033446421 -1.1751224e-05 -3.2796171e-20)
(-0.00032039195 -1.1739265e-05 -8.9226633e-20)
(-0.0003064535 -1.1726721e-05 -5.5122871e-21)
(-0.00029264655 -1.1713722e-05 7.2937233e-20)
(-0.00027896877 -1.1700388e-05 2.8292531e-20)
(-0.00026541775 -1.1686855e-05 -1.5796837e-20)
(-0.00025199108 -1.167322e-05 -2.4976861e-20)
(-0.00023868628 -1.1659591e-05 -2.7358925e-21)
(-0.00022550088 -1.1646057e-05 1.1624653e-20)
(-0.00021243235 -1.1632719e-05 1.1582679e-20)
(-0.00019947818 -1.1619645e-05 -9.0933458e-21)
(-0.00018663582 -1.1606915e-05 -2.088358e-20)
(-0.00017390274 -1.1594591e-05 -1.9197339e-21)
(-0.00016127637 -1.1582735e-05 1.3917944e-20)
(-0.0001487542 -1.157139e-05 1.8609769e-20)
(-0.00013633368 -1.1560577e-05 -4.6720879e-21)
(-0.00012401232 -1.1550303e-05 -2.2919087e-20)
(-0.00011178765 -1.1540524e-05 -2.3750206e-21)
(-9.9657253e-05 -1.153108e-05 1.2128272e-20)
(-8.7618768e-05 -1.1521614e-05 8.9628821e-21)
(-7.5669884e-05 -1.1511285e-05 -4.0976435e-21)
(-6.380822e-05 -1.149824e-05 -9.1937956e-21)
(-5.203077e-05 -1.1478792e-05 -3.4198946e-22)
(-4.0331988e-05 -1.1447791e-05 3.6363911e-21)
(-2.8700195e-05 -1.1405341e-05 1.2086124e-21)
(-1.711949e-05 -1.1386146e-05 -1.652712e-21)
(-5.6448854e-06 -1.1550594e-05 -2.2360953e-21)
(-0.0014502458 -6.9327832e-06 8.4343432e-20)
(-0.0014282476 -8.1259282e-06 -7.408478e-20)
(-0.0014061105 -9.2592435e-06 -4.6451244e-20)
(-0.0013838569 -1.0334471e-05 -4.7585926e-20)
(-0.0013615085 -1.1353405e-05 -3.3123008e-20)
(-0.0013390857 -1.2317889e-05 7.035226e-20)
(-0.0013166079 -1.3229781e-05 -5.2988268e-20)
(-0.0012940936 -1.4090965e-05 1.3870653e-20)
(-0.0012715602 -1.4903312e-05 8.2904788e-20)
(-0.0012490242 -1.566869e-05 -2.411511e-20)
(-0.0012265013 -1.6388947e-05 -1.7965485e-20)
(-0.0012040061 -1.7065909e-05 -2.4878952e-20)
(-0.0011815525 -1.7701373e-05 2.4590597e-20)
(-0.0011591535 -1.8297106e-05 -4.435201e-21)
(-0.0011368212 -1.885483e-05 -6.9332387e-21)
(-0.0011145671 -1.9376244e-05 6.2999197e-20)
(-0.0010924017 -1.9862984e-05 -2.2953078e-20)
(-0.001070335 -2.0316661e-05 -2.4597332e-20)
(-0.0010483762 -2.0738842e-05 -4.081077e-20)
(-0.0010265337 -2.1131035e-05 -2.3784739e-20)
(-0.0010048153 -2.1494736e-05 5.9140755e-20)
(-0.00098322844 -2.1831353e-05 1.5297649e-20)
(-0.00096177956 -2.2142277e-05 1.7298269e-20)
(-0.00094047472 -2.2428851e-05 -3.2948169e-20)
(-0.00091931941 -2.2692364e-05 -2.4315312e-20)
(-0.00089831858 -2.2934058e-05 5.0995618e-20)
(-0.00087747665 -2.3155141e-05 2.0866303e-21)
(-0.00085679758 -2.3356777e-05 1.2563137e-20)
(-0.00083628488 -2.3540086e-05 -2.0483551e-20)
(-0.0008159416 -2.3706136e-05 -6.1011067e-20)
(-0.00079577036 -2.3855966e-05 2.4184667e-20)
(-0.00077577342 -2.3990556e-05 2.1135689e-20)
(-0.00075595264 -2.4110865e-05 1.5758149e-20)
(-0.00073630953 -2.4217805e-05 2.6193717e-20)
(-0.00071684527 -2.431225e-05 -2.8572733e-20)
(-0.00069756071 -2.4395045e-05 -2.7567616e-20)
(-0.00067845639 -2.4466982e-05 -1.2708106e-20)
(-0.00065953259 -2.4528836e-05 2.7342392e-20)
(-0.0006407893 -2.4581329e-05 1.2260325e-20)
(-0.00062222627 -2.4625166e-05 -2.9058471e-20)
(-0.00060384301 -2.4661019e-05 7.7923427e-21)
(-0.00058563882 -2.4689526e-05 2.1002375e-20)
(-0.00056761277 -2.4711272e-05 9.4694461e-21)
(-0.00054976374 -2.4726852e-05 -2.1344182e-20)
(-0.00053209046 -2.4736809e-05 -2.8949581e-20)
(-0.00051459144 -2.4741672e-05 2.1465979e-20)
(-0.00049726508 -2.4741926e-05 2.3523652e-20)
(-0.0004801096 -2.4738054e-05 5.1589154e-21)
(-0.0004631231 -2.4730491e-05 -1.6375745e-20)
(-0.00044630357 -2.4719667e-05 -1.5784871e-20)
(-0.00042964885 -2.470598e-05 1.3751826e-20)
(-0.00041315671 -2.4689808e-05 1.4973848e-20)
(-0.0003968248 -2.4671514e-05 7.0524484e-21)
(-0.0003806507 -2.4651429e-05 -9.769291e-21)
(-0.00036463189 -2.4629873e-05 -1.6686656e-20)
(-0.00034876582 -2.4607147e-05 -7.3784169e-22)
(-0.00033304982 -2.4583525e-05 1.2982813e-20)
(-0.00031748121 -2.4559279e-05 8.2488251e-21)
(-0.00030205725 -2.4534663e-05 -9.4932481e-21)
(-0.00028677513 -2.4509894e-05 -7.585347e-21)
(-0.00027163204 -2.44852e-05 5.9404491e-21)
(-0.00025662513 -2.446077e-05 -3.9464959e-21)
(-0.00024175151 -2.4436799e-05 2.0935578e-21)
(-0.00022700828 -2.4413449e-05 -2.4151935e-21)
(-0.00021239254 -2.4390882e-05 -5.5746256e-21)
(-0.00019790137 -2.4369238e-05 9.7262164e-21)
(-0.00018353184 -2.4348639e-05 1.2765664e-21)
(-0.00016928104 -2.432919e-05 -9.9260863e-22)
(-0.00015514606 -2.4310965e-05 -2.8778464e-21)
(-0.00014112401 -2.4294015e-05 -3.0543451e-21)
(-0.000127212 -2.4278337e-05 8.8548775e-21)
(-0.00011340716 -2.4263848e-05 4.1292939e-21)
(-9.9706588e-05 -2.4250334e-05 1.6479838e-22)
(-8.6107255e-05 -2.4237373e-05 -8.0524211e-21)
(-7.2605775e-05 -2.4224231e-05 -3.3373357e-21)
(-5.9197892e-05 -2.4209961e-05 8.2327454e-21)
(-4.587715e-05 -2.4195144e-05 2.1016203e-21)
(-3.2631637e-05 -2.4188636e-05 -8.2721677e-22)
(-1.9447486e-05 -2.4225018e-05 -2.0935018e-22)
(-6.4179983e-06 -2.4372391e-05 3.6229361e-21)
(-0.0015008521 -1.098198e-05 1.4520671e-20)
(-0.0014780164 -1.2837277e-05 -3.1465145e-20)
(-0.0014550406 -1.4597285e-05 -2.1702599e-21)
(-0.0014319481 -1.626527e-05 -4.0947532e-22)
(-0.0014087611 -1.784445e-05 4.021734e-21)
(-0.0013855005 -1.933803e-05 1.3272302e-20)
(-0.0013621863 -2.0749152e-05 -3.4664955e-20)
(-0.0013388376 -2.2080932e-05 -9.1437836e-21)
(-0.0013154724 -2.3336421e-05 3.4333494e-21)
(-0.0012921076 -2.4518647e-05 5.9913406e-21)
(-0.0012687594 -2.5630566e-05 5.0676957e-21)
(-0.0012454427 -2.667509e-05 -1.7326266e-20)
(-0.001222172 -2.7655063e-05 2.2390659e-20)
(-0.0011989605 -2.857328e-05 2.8954578e-21)
(-0.0011758207 -2.9432457e-05 4.7553028e-21)
(-0.0011527643 -3.0235257e-05 2.2332627e-20)
(-0.0011298023 -3.098426e-05 -2.5746014e-20)
(-0.0011069448 -3.1681977e-05 -8.6471893e-21)
(-0.0010842012 -3.2330859e-05 -4.8632261e-21)
(-0.0010615802 -3.2933278e-05 4.4934687e-22)
(-0.0010390899 -3.3491537e-05 2.2142452e-20)
(-0.0010167376 -3.4007861e-05 -6.0440374e-21)
(-0.00099453015 -3.4484407e-05 5.9868355e-21)
(-0.00097247359 -3.4923265e-05 -9.9002807e-21)
(-0.00095057357 -3.5326444e-05 5.6697838e-21)
(-0.00092883513 -3.5695873e-05 2.2625303e-20)
(-0.00090726276 -3.6033436e-05 -1.5204666e-20)
(-0.0008858605 -3.6340935e-05 -3.3099691e-21)
(-0.00086463188 -3.6620102e-05 -1.7597786e-20)
(-0.00084358 -3.6872608e-05 -2.5809648e-20)
(-0.0008227075 -3.7100059e-05 2.8090288e-21)
(-0.00080201666 -3.7303981e-05 1.6470998e-20)
(-0.00078150933 -3.748586e-05 1.6282037e-20)
(-0.00076118702 -3.7647105e-05 -3.8955397e-21)
(-0.00074105086 -3.7789078e-05 -1.5729716e-20)
(-0.00072110169 -3.7913074e-05 -1.3215902e-21)
(-0.00070134002 -3.8020341e-05 -7.0581557e-21)
(-0.00068176607 -3.8112063e-05 8.3439719e-21)
(-0.00066237979 -3.8189372e-05 6.4582008e-21)
(-0.00064318086 -3.8253344e-05 3.9513912e-21)
(-0.00062416873 -3.830502e-05 5.2188058e-21)
(-0.00060534262 -3.834539e-05 -9.8607409e-21)
(-0.00058670154 -3.8375378e-05 -2.7808993e-21)
(-0.00056824428 -3.8395881e-05 3.844348e-21)
(-0.00054996947 -3.8407753e-05 1.2824653e-20)
(-0.00053187555 -3.8411798e-05 1.2172399e-20)
(-0.00051396081 -3.840878e-05 -1.8957302e-21)
(-0.00049622338 -3.8399434e-05 2.3227644e-21)
(-0.00047866127 -3.8384438e-05 -1.1887064e-20)
(-0.00046127234 -3.8364458e-05 -1.4935996e-21)
(-0.00044405435 -3.8340104e-05 1.4125842e-20)
(-0.00042700495 -3.831197e-05 5.2031018e-21)
(-0.00041012168 -3.8280598e-05 6.4905743e-21)
(-0.00039340202 -3.8246519e-05 -6.9543859e-21)
(-0.00037684333 -3.8210211e-05 -1.0919635e-20)
(-0.00036044293 -3.8172147e-05 -8.0770649e-21)
(-0.00034419806 -3.8132758e-05 4.7097799e-21)
(-0.00032810591 -3.8092451e-05 1.9104726e-21)
(-0.00031216362 -3.8051617e-05 -6.2349544e-21)
(-0.00029636827 -3.8010602e-05 -9.568815e-22)
(-0.00028071694 -3.7969746e-05 5.0502929e-21)
(-0.00026520664 -3.792935e-05 -2.3383428e-22)
(-0.00024983437 -3.7889705e-05 5.4871536e-21)
(-0.00023459713 -3.7851076e-05 6.0087737e-22)
(-0.00021949188 -3.7813705e-05 -3.7891425e-21)
(-0.00020451557 -3.7777811e-05 3.2049979e-21)
(-0.00018966518 -3.7743585e-05 -5.985331e-21)
(-0.00017493765 -3.7711197e-05 1.1678532e-21)
(-0.00016032994 -3.7680791e-05 7.2654208e-21)
(-0.00014583903 -3.7652471e-05 5.8506262e-21)
(-0.00013146187 -3.7626294e-05 4.5949141e-21)
(-0.00011719541 -3.7602271e-05 8.5851227e-22)
(-0.00010303655 -3.7580315e-05 2.7621025e-21)
(-8.8982027e-05 -3.7560276e-05 -8.5038615e-21)
(-7.502831e-05 -3.7541923e-05 -1.9392365e-21)
(-6.1171441e-05 -3.7525197e-05 6.3690398e-21)
(-4.7406588e-05 -3.7511346e-05 5.7010088e-22)
(-3.3724859e-05 -3.7506071e-05 3.3983233e-21)
(-2.0115181e-05 -3.7526465e-05 3.3019775e-21)
(-6.6452206e-06 -3.7594173e-05 6.0310493e-21)
(-0.001514853 -1.5242072e-05 1.5661875e-20)
(-0.0014917205 -1.7765364e-05 -8.1630264e-21)
(-0.001468451 -2.0158361e-05 -5.2466842e-21)
(-0.0014450677 -2.2425536e-05 4.15698e-21)
(-0.0014215931 -2.45713e-05 1.0169307e-20)
(-0.0013980482 -2.6600046e-05 9.4389917e-21)
(-0.0013744532 -2.8516117e-05 -5.0362341e-21)
(-0.0013508273 -3.0323787e-05 -2.2609497e-22)
(-0.0013271884 -3.2027279e-05 -3.0464295e-20)
(-0.0013035538 -3.3630754e-05 -6.6066218e-21)
(-0.0012799394 -3.5138294e-05 1.7625176e-20)
(-0.0012563605 -3.6553898e-05 -1.4124112e-20)
(-0.0012328313 -3.788148e-05 2.2410196e-20)
(-0.0012093652 -3.9124878e-05 1.0313162e-20)
(-0.0011859747 -4.0287821e-05 -2.0001014e-21)
(-0.0011626716 -4.1373958e-05 7.4622289e-21)
(-0.0011394667 -4.2386824e-05 -2.1503786e-20)
(-0.0011163702 -4.3329878e-05 -3.693621e-21)
(-0.0010933915 -4.4206459e-05 -1.0131414e-21)
(-0.0010705392 -4.5019818e-05 -1.0559807e-21)
(-0.0010478214 -4.5773101e-05 1.0877376e-20)
(-0.0010252454 -4.6469353e-05 1.5301686e-21)
(-0.0010028179 -4.7111518e-05 1.8131796e-20)
(-0.00098054505 -4.7702459e-05 -2.9267881e-21)
(-0.00095843239 -4.8244899e-05 3.5606991e-21)
(-0.00093648489 -4.8741504e-05 1.7721307e-20)
(-0.00091470703 -4.9194822e-05 -9.9965897e-21)
(-0.00089310276 -4.9607313e-05 -4.1955437e-21)
(-0.00087167556 -4.9981335e-05 -1.7480027e-20)
(-0.00085042849 -5.0319171e-05 -1.5135749e-20)
(-0.00082936413 -5.0623007e-05 -5.4465858e-21)
(-0.00080848467 -5.0894926e-05 5.8667106e-21)
(-0.00078779192 -5.1136953e-05 1.5112937e-20)
(-0.00076728732 -5.1351e-05 -2.8056547e-21)
(-0.00074697195 -5.153893e-05 -9.3520044e-21)
(-0.00072684656 -5.1702495e-05 -8.9918825e-21)
(-0.00070691162 -5.1843398e-05 -1.587065e-20)
(-0.00068716727 -5.1963242e-05 4.1834496e-21)
(-0.0006676134 -5.2063577e-05 5.1050554e-21)
(-0.00064824963 -5.2145861e-05 1.2974843e-22)
(-0.00062907535 -5.2211506e-05 5.2896746e-21)
(-0.0006100897 -5.2261855e-05 5.636868e-21)
(-0.00059129163 -5.2298179e-05 7.3125043e-21)
(-0.00057267987 -5.2321679e-05 1.773169e-21)
(-0.000554253 -5.2333525e-05 1.0779203e-22)
(-0.00053600937 -5.2334805e-05 2.9245607e-21)
(-0.00051794722 -5.2326555e-05 -5.5438785e-21)
(-0.00050006463 -5.2309774e-05 5.4043233e-21)
(-0.00048235953 -5.2285384e-05 -1.9690708e-21)
(-0.00046482973 -5.2254279e-05 -2.3967324e-21)
(-0.00044747293 -5.22173e-05 9.2949743e-21)
(-0.00043028672 -5.217524e-05 6.7229283e-21)
(-0.00041326859 -5.2128838e-05 9.9327868e-21)
(-0.00039641594 -5.207881e-05 -3.8468085e-21)
(-0.00037972611 -5.2025817e-05 -9.461348e-21)
(-0.00036319633 -5.1970482e-05 -1.3150873e-20)
(-0.0003468238 -5.191341e-05 2.4473876e-21)
(-0.00033060566 -5.1855127e-05 5.4037713e-21)
(-0.00031453899 -5.1796173e-05 4.508362e-22)
(-0.00029862082 -5.1737022e-05 1.17508e-21)
(-0.00028284818 -5.1678122e-05 3.2990992e-21)
(-0.00026721802 -5.161989e-05 -1.9517738e-21)
(-0.00025172731 -5.1562719e-05 2.6048985e-21)
(-0.00023637298 -5.1506964e-05 4.7750536e-21)
(-0.00022115193 -5.1452958e-05 -3.2677386e-21)
(-0.0002060611 -5.1400995e-05 1.6445157e-21)
(-0.00019109737 -5.1351339e-05 -1.9372504e-21)
(-0.00017625766 -5.1304235e-05 -1.0043947e-21)
(-0.00016153887 -5.1259886e-05 1.4413116e-21)
(-0.0001469379 -5.1218468e-05 2.4366472e-21)
(-0.00013245164 -5.1180111e-05 1.4338986e-21)
(-0.00011807698 -5.1144923e-05 1.6532953e-21)
(-0.00010381074 -5.1112961e-05 5.7743492e-21)
(-8.9649648e-05 -5.1084298e-05 -3.8169794e-21)
(-7.5590275e-05 -5.1059055e-05 -1.8809474e-21)
(-6.1629175e-05 -5.1037646e-05 3.3768903e-21)
(-4.7762807e-05 -5.1021395e-05 6.2672221e-22)
(-3.3983978e-05 -5.1013694e-05 1.1169336e-21)
(-2.0282898e-05 -5.1021743e-05 1.5993614e-21)
(-6.7085324e-06 -5.1049586e-05 3.5214444e-21)
(-0.0015202495 -1.9571671e-05 1.0046343e-20)
(-0.0014969277 -2.2761234e-05 3.1477081e-21)
(-0.0014734739 -2.578496e-05 -9.8791589e-21)
(-0.0014499114 -2.8648709e-05 -8.3171509e-21)
(-0.0014262624 -3.1358247e-05 7.0418846e-21)
(-0.0014025483 -3.391925e-05 -1.399228e-20)
(-0.001378789 -3.6337335e-05 -1.644128e-21)
(-0.0013550035 -3.861799e-05 2.9504931e-20)
(-0.00133121 -4.0766636e-05 -8.9720988e-21)
(-0.0013074254 -4.278859e-05 -2.6419436e-21)
(-0.0012836658 -4.4689068e-05 3.5292739e-22)
(-0.0012599462 -4.6473165e-05 -2.0223779e-20)
(-0.0012362809 -4.814587e-05 2.4739662e-20)
(-0.0012126831 -4.9712067e-05 2.4058557e-21)
(-0.0011891653 -5.1176497e-05 -6.5233845e-21)
(-0.0011657391 -5.2543796e-05 -1.699851e-21)
(-0.0011424153 -5.3818458e-05 -2.3828261e-20)
(-0.0011192039 -5.5004876e-05 -7.3371796e-21)
(-0.0010961143 -5.6107287e-05 2.1723746e-21)
(-0.0010731549 -5.7129811e-05 -1.4109102e-21)
(-0.0010503338 -5.8076448e-05 6.814774e-21)
(-0.0010276582 -5.8951044e-05 5.8444917e-21)
(-0.0010051346 -5.9757344e-05 2.1841186e-20)
(-0.00098276905 -6.049896e-05 3.0134452e-22)
(-0.00096056706 -6.1179356e-05 5.6129238e-21)
(-0.00093853346 -6.1801907e-05 2.1171271e-20)
(-0.00091667264 -6.2369834e-05 -2.7170973e-21)
(-0.00089498843 -6.2886255e-05 -9.6311685e-22)
(-0.00087348424 -6.3354147e-05 -1.7535994e-20)
(-0.00085216299 -6.3776407e-05 -1.0907608e-20)
(-0.00083102719 -6.4155798e-05 -6.5223377e-21)
(-0.00081007894 -6.4494954e-05 -6.1244955e-22)
(-0.00078931993 -6.4796438e-05 9.54291e-22)
(-0.00076875152 -6.5062666e-05 -4.1098212e-21)
(-0.0007483747 -6.5295995e-05 3.7892553e-21)
(-0.00072819015 -6.5498641e-05 -4.2600663e-21)
(-0.00070819822 -6.5672746e-05 -1.6055983e-20)
(-0.000688399 -6.5820347e-05 -2.5681018e-21)
(-0.00066879228 -6.5943393e-05 -8.0350126e-22)
(-0.0006493776 -6.6043739e-05 9.6556511e-22)
(-0.00063015426 -6.6123161e-05 7.6020583e-21)
(-0.00061112136 -6.6183352e-05 5.9270315e-21)
(-0.00059227774 -6.6225921e-05 7.4364515e-21)
(-0.00057362209 -6.6252388e-05 1.6648057e-21)
(-0.00055515288 -6.6264222e-05 -3.6650457e-21)
(-0.00053686844 -6.6262801e-05 -3.6424986e-21)
(-0.00051876693 -6.6249433e-05 -9.5190654e-21)
(-0.00050084636 -6.6225372e-05 3.1443301e-21)
(-0.0004831046 -6.6191794e-05 -3.8545403e-21)
(-0.0004655394 -6.6149818e-05 1.6448535e-21)
(-0.00044814841 -6.6100507e-05 1.0664112e-20)
(-0.00043092916 -6.6044854e-05 5.8367032e-21)
(-0.00041387908 -6.5983804e-05 5.7256858e-21)
(-0.00039699554 -6.5918251e-05 -1.4381464e-21)
(-0.0003802758 -6.5849036e-05 -1.691079e-21)
(-0.00036371706 -6.5776941e-05 -1.1306174e-20)
(-0.00034731648 -6.5702716e-05 -8.9491176e-23)
(-0.00033107114 -6.5627048e-05 2.5182139e-21)
(-0.00031497808 -6.5550599e-05 -1.8697087e-21)
(-0.0002990343 -6.547397e-05 -1.1017187e-21)
(-0.00028323676 -6.5397738e-05 1.0821356e-21)
(-0.00026758241 -6.5322413e-05 -4.5011301e-21)
(-0.00025206814 -6.5248498e-05 -1.8893537e-22)
(-0.00023669086 -6.5176445e-05 5.7984384e-21)
(-0.00022144745 -6.5106669e-05 1.8233508e-21)
(-0.00020633477 -6.5039547e-05 6.2733056e-21)
(-0.0001913497 -6.4975422e-05 1.5838905e-21)
(-0.00017648911 -6.4914604e-05 -7.928082e-23)
(-0.00016174985 -6.4857371e-05 -2.1071689e-21)
(-0.0001471288 -6.4803964e-05 -4.481117e-21)
(-0.00013262281 -6.4754592e-05 -2.8261938e-21)
(-0.00011822874 -6.4709447e-05 -3.3478366e-21)
(-0.00010394341 -6.4668705e-05 7.2074696e-21)
(-8.9763594e-05 -6.463257e-05 2.9779016e-21)
(-7.5686061e-05 -6.460133e-05 1.9949309e-21)
(-6.1707781e-05 -6.4575492e-05 4.4422622e-21)
(-4.782595e-05 -6.4556047e-05 -1.6396681e-21)
(-3.4033952e-05 -6.4544683e-05 -1.13278e-21)
(-2.032141e-05 -6.4543854e-05 -2.1111591e-21)
(-6.7251914e-06 -6.4552899e-05 1.5980167e-21)
(-0.0015243216 -2.4019859e-05 -3.9973443e-21)
(-0.0015008058 -2.7869707e-05 1.9210455e-20)
(-0.0014771646 -3.1518784e-05 3.8466732e-21)
(-0.0014534211 -3.497417e-05 -1.2397269e-20)
(-0.0014295976 -3.8242858e-05 6.2491572e-21)
(-0.0014057151 -4.1331747e-05 -2.4915932e-20)
(-0.0013817935 -4.4247651e-05 -8.6176824e-21)
(-0.001357852 -4.6997258e-05 4.6815449e-20)
(-0.0013339082 -4.9587156e-05 -3.525333e-21)
(-0.0013099793 -5.2023811e-05 -5.9879852e-21)
(-0.001286081 -5.4313549e-05 1.0867867e-20)
(-0.0012622285 -5.6462567e-05 -9.3224653e-21)
(-0.0012384356 -5.8476929e-05 8.1477043e-21)
(-0.0012147157 -6.0362549e-05 -1.0476898e-20)
(-0.0011910809 -6.212519e-05 -5.2947421e-21)
(-0.0011675428 -6.3770472e-05 7.3657406e-21)
(-0.0011441121 -6.5303853e-05 -6.3652779e-21)
(-0.0011207986 -6.6730644e-05 5.4622955e-21)
(-0.0010976115 -6.8055994e-05 4.83932e-21)
(-0.0010745593 -6.9284883e-05 -1.8994851e-21)
(-0.0010516497 -7.0422166e-05 1.1218758e-21)
(-0.0010288898 -7.14725e-05 -1.2083702e-22)
(-0.001006286 -7.244042e-05 1.3782671e-20)
(-0.00098384432 -7.3330288e-05 -1.6215092e-21)
(-0.00096156997 -7.4146313e-05 -3.5005952e-22)
(-0.00093946772 -7.4892566e-05 8.6705526e-21)
(-0.0009175418 -7.5572949e-05 -7.2515031e-21)
(-0.00089579593 -7.6191235e-05 1.6613944e-21)
(-0.00087423338 -7.6751028e-05 -3.4533006e-21)
(-0.00085285694 -7.725582e-05 -4.3583223e-21)
(-0.00083166899 -7.7708958e-05 -6.9295303e-21)
(-0.00081067152 -7.8113631e-05 5.5380041e-21)
(-0.0007898661 -7.8472929e-05 3.2579393e-21)
(-0.00076925397 -7.8789779e-05 -5.646221e-21)
(-0.00074883602 -7.9067012e-05 -4.0601413e-22)
(-0.00072861281 -7.9307324e-05 -4.3970236e-21)
(-0.00070858459 -7.9513293e-05 -8.1240108e-21)
(-0.00068875132 -7.9687379e-05 -5.8167393e-21)
(-0.00066911272 -7.983194e-05 -2.0842183e-21)
(-0.00064966823 -7.994922e-05 7.8546567e-22)
(-0.00063041706 -8.0041353e-05 5.6678821e-21)
(-0.00061135818 -8.0110383e-05 3.5072153e-21)
(-0.00059249039 -8.0158254e-05 3.5547086e-21)
(-0.00057381227 -8.0186809e-05 5.3722056e-21)
(-0.00055532222 -8.0197807e-05 -4.3891536e-21)
(-0.00053701848 -8.0192914e-05 -7.6122956e-21)
(-0.00051889913 -8.0173716e-05 -1.2506653e-20)
(-0.00050096211 -8.0141718e-05 -2.7037643e-21)
(-0.00048320523 -8.009834e-05 -4.2860873e-21)
(-0.00046562617 -8.0044933e-05 3.4703882e-21)
(-0.0004482225 -7.9982778e-05 9.8834954e-21)
(-0.0004309917 -7.9913063e-05 4.0450161e-21)
(-0.00041393113 -7.9836947e-05 -1.1927584e-21)
(-0.0003970381 -7.9755494e-05 -2.4830764e-21)
(-0.00038030982 -7.9669715e-05 6.8263791e-22)
(-0.00036374345 -7.9580568e-05 -9.4180763e-21)
(-0.00034733606 -7.9488939e-05 1.9637099e-21)
(-0.00033108471 -7.939567e-05 -6.0133428e-21)
(-0.00031498637 -7.9301548e-05 -5.7870422e-21)
(-0.00029903801 -7.9207302e-05 4.1899872e-21)
(-0.00028323654 -7.9113627e-05 4.296047e-21)
(-0.00026757885 -7.9021143e-05 -1.4101504e-21)
(-0.00025206182 -7.8930454e-05 -2.4715593e-21)
(-0.00023668229 -7.88421e-05 2.5037626e-21)
(-0.00022143711 -7.8756589e-05 -1.330584e-21)
(-0.00020632311 -7.8674374e-05 4.7817854e-21)
(-0.00019133712 -7.8595881e-05 5.1400832e-22)
(-0.00017647596 -7.8521485e-05 -6.8742348e-22)
(-0.00016173648 -7.8451532e-05 3.4497152e-21)
(-0.00014711549 -7.838634e-05 2.6198275e-22)
(-0.00013260984 -7.8326177e-05 -4.5118813e-21)
(-0.00011821637 -7.8271303e-05 -3.4613959e-21)
(-0.00010393191 -7.8221975e-05 3.2017528e-21)
(-8.9753281e-05 -7.817846e-05 -1.5867696e-21)
(-7.567738e-05 -7.8141083e-05 2.3925523e-21)
(-6.1701394e-05 -7.8110286e-05 4.5480188e-21)
(-4.7822784e-05 -7.8086689e-05 -7.4005317e-22)
(-3.4034886e-05 -7.807102e-05 -2.4017113e-21)
(-2.0326429e-05 -7.8063769e-05 -2.1173413e-21)
(-6.7286574e-06 -7.8063455e-05 3.3070849e-21)
(-0.0015286908 -2.8612518e-05 -1.2845813e-20)
(-0.0015049517 -3.311869e-05 9.4266576e-21)
(-0.0014810947 -3.7389111e-05 5.1655591e-21)
(-0.0014571432 -4.1432105e-05 -9.9836979e-21)
(-0.0014331191 -4.525589e-05 1.733246e-20)
(-0.0014090435 -4.8868604e-05 -1.4112824e-20)
(-0.0013849363 -5.2278259e-05 -2.411496e-21)
(-0.0013608163 -5.5492757e-05 2.1425677e-20)
(-0.0013367012 -5.8519857e-05 -1.0480896e-20)
(-0.0013126079 -6.1367176e-05 1.9687627e-20)
(-0.0012885521 -6.4042171e-05 7.2439507e-21)
(-0.0012645487 -6.6552143e-05 -2.3711404e-20)
(-0.0012406115 -6.8904234e-05 -4.7565739e-21)
(-0.0012167536 -7.1105404e-05 -9.1767069e-21)
(-0.0011929871 -7.3162437e-05 1.1239646e-20)
(-0.0011693233 -7.5081951e-05 1.6425265e-20)
(-0.0011457728 -7.6870359e-05 -3.2489294e-21)
(-0.0011223451 -7.8533915e-05 8.324695e-21)
(-0.0010990494 -8.0078665e-05 7.4348803e-21)
(-0.0010758939 -8.151047e-05 -4.4802384e-21)
(-0.0010528862 -8.283502e-05 -4.9186368e-21)
(-0.0010300332 -8.4057808e-05 -4.0879827e-21)
(-0.0010073412 -8.5184148e-05 1.1865594e-20)
(-0.00098481596 -8.621917e-05 -4.7991735e-21)
(-0.00096246256 -8.7167803e-05 -1.2413163e-22)
(-0.0009402856 -8.8034833e-05 1.1564535e-20)
(-0.00091828915 -8.8824838e-05 -3.1264691e-21)
(-0.00089647679 -8.9542247e-05 1.4236528e-21)
(-0.0008748516 -9.0191293e-05 -4.9573257e-21)
(-0.00085341624 -9.0776064e-05 4.7857531e-22)
(-0.00083217295 -9.130048e-05 -2.6398801e-21)
(-0.00081112355 -9.1768293e-05 1.0382261e-20)
(-0.00079026948 -9.2183115e-05 6.8715486e-21)
(-0.00076961185 -9.2548387e-05 -8.8048064e-21)
(-0.0007491514 -9.2867411e-05 -3.0697635e-22)
(-0.00072888855 -9.3143356e-05 -5.5597303e-21)
(-0.00070882346 -9.3379241e-05 -7.0916134e-21)
(-0.00068895594 -9.3577948e-05 -7.5148634e-22)
(-0.0006692856 -9.3742233e-05 3.2542551e-21)
(-0.00064981175 -9.3874733e-05 7.2166513e-21)
(-0.0006305335 -9.3977942e-05 2.844396e-21)
(-0.00061144972 -9.4054249e-05 -9.3504932e-22)
(-0.0005925591 -9.4105933e-05 1.9202769e-21)
(-0.0005738601 -9.4135148e-05 -1.2874752e-21)
(-0.00055535105 -9.4143956e-05 2.2222626e-21)
(-0.00053703008 -9.4134298e-05 -2.2869779e-22)
(-0.00051889519 -9.4108045e-05 -1.2246792e-20)
(-0.00050094422 -9.4066945e-05 9.1342745e-22)
(-0.0004831749 -9.4012659e-05 -4.2667038e-21)
(-0.00046558484 -9.394677e-05 1.7791345e-21)
(-0.00044817153 -9.3870775e-05 8.6103742e-21)
(-0.00043093236 -9.3786066e-05 -1.079608e-21)
(-0.00041386464 -9.3693992e-05 -4.0561278e-21)
(-0.00039696559 -9.35958e-05 -2.5687641e-21)
(-0.00038023237 -9.3492672e-05 2.7178096e-21)
(-0.00036366206 -9.3385726e-05 -8.1765655e-21)
(-0.00034725169 -9.3275997e-05 6.3808985e-21)
(-0.00033099823 -9.3164473e-05 -2.1630816e-21)
(-0.00031489863 -9.3052067e-05 -3.4127046e-21)
(-0.00029894978 -9.2939636e-05 5.1926774e-21)
(-0.00028314855 -9.2827986e-05 3.2183985e-21)
(-0.00026749177 -9.2717853e-05 -1.9994266e-21)
(-0.00025197627 -9.2609935e-05 -1.9582107e-21)
(-0.00023659884 -9.2504864e-05 5.9611398e-21)
(-0.0002213563 -9.2403234e-05 -4.1980867e-21)
(-0.00020624542 -9.2305586e-05 1.6412512e-21)
(-0.00019126299 -9.2212409e-05 3.3672503e-21)
(-0.00017640581 -9.2124157e-05 6.9086721e-22)
(-0.00016167066 -9.2041236e-05 2.3874513e-21)
(-0.00014705434 -9.196403e-05 8.0978684e-22)
(-0.00013255367 -9.1892861e-05 -3.270997e-21)
(-0.00011816545 -9.1828047e-05 -3.5936733e-22)
(-0.00010388654 -9.1769893e-05 4.4056652e-21)