/*--------------------------------*- C++ -*----------------------------------*\
| =========                 |                                                 |
| \\      /  F ield         | OpenFOAM: The Open Source CFD Toolbox           |
|  \\    /   O peration     | Version:  2106                                  |
|   \\  /    A nd           | Website:  www.openfoam.com                      |
|    \\/     M anipulation  |                                                 |
\*---------------------------------------------------------------------------*/
FoamFile
{
    version     2.0;
    format      ascii;
    arch        "LSB;label=32;scalar=64";
    class       surfaceScalarField;
    location    "0.038";
    object      phi;
}
// * * * * * * * * * * * * * * * * * * * * * * * * * * * * * * * * * * * * * //

dimensions      [0 3 -1 0 0 0 0];

oriented        oriented;

internalField   nonuniform List<scalar> 
32512
(
-2.2392406e-05
2.2392406e-05
-4.4732153e-05
2.2339747e-05
-6.6966696e-05
2.2234543e-05
-8.9043718e-05
2.2077022e-05
-0.00011091124
2.1867526e-05
-0.00013251775
2.1606511e-05
-0.0001538123
2.1294543e-05
-0.0001747446
2.0932304e-05
-0.00019526519
2.0520585e-05
-0.00021532547
2.0060285e-05
-0.00023487789
1.9552416e-05
-0.00025387598
1.8998094e-05
-0.00027227452
1.8398542e-05
-0.00029002961
1.7755088e-05
-0.00030709877
1.706916e-05
-0.00032344106
1.6342287e-05
-0.00033901715
1.5576095e-05
-0.00035378946
1.4772305e-05
-0.00036772219
1.3932727e-05
-0.00038078145
1.3059264e-05
-0.00039293535
1.2153899e-05
-0.00040415405
1.1218701e-05
-0.00041440987
1.0255814e-05
-0.00042367732
9.2674544e-06
-0.00043193323
8.2559094e-06
-0.00043915676
7.2235296e-06
-0.00044532948
6.172725e-06
-0.00045043544
5.1059596e-06
-0.00045446119
4.0257466e-06
-0.00045739583
2.9346408e-06
-0.00045923105
1.8352244e-06
-0.00045996121
7.3015286e-07
-0.00045958327
-3.7793725e-07
-0.00045809688
-1.4863877e-06
-0.00045550437
-2.5925086e-06
-0.00045181076
-3.6936107e-06
-0.00044702376
-4.7870058e-06
-0.00044115374
-5.8700135e-06
-0.00043421378
-6.9399673e-06
-0.00042621956
-7.9942218e-06
-0.00041718939
-9.0301601e-06
-0.0004071442
-1.00452e-05
-0.00039610739
-1.1036801e-05
-0.00038410492
-1.2002474e-05
-0.00037116514
-1.2939782e-05
-0.00035731878
-1.3846353e-05
-0.0003425989
-1.4719886e-05
-0.00032704074
-1.5558154e-05
-0.00031068173
-1.6359014e-05
-0.00029356132
-1.7120411e-05
-0.00027572093
-1.7840385e-05
-0.00025720385
-1.8517081e-05
-0.00023805511
-1.9148745e-05
-0.00021832137
-1.973374e-05
-0.00019805083
-2.0270544e-05
-0.00017729307
-2.0757758e-05
-0.00015609896
-2.1194111e-05
-0.0001345205
-2.1578459e-05
-0.0001126107
-2.1909796e-05
-9.0423449e-05
-2.2187252e-05
-6.8013351e-05
-2.2410098e-05
-4.5435602e-05
-2.2577748e-05
-2.2745841e-05
-2.2689761e-05
1.9496752e-13
-2.2745841e-05
2.2745842e-05
-2.2745841e-05
4.5435603e-05
-2.2689761e-05
6.8013351e-05
-2.2577748e-05
9.042345e-05
-2.2410098e-05
0.0001126107
-2.2187252e-05
0.0001345205
-2.1909796e-05
0.00015609896
-2.1578459e-05
0.00017729307
-2.1194111e-05
0.00019805083
-2.0757758e-05
0.00021832137
-2.0270544e-05
0.00023805511
-1.973374e-05
0.00025720385
-1.9148745e-05
0.00027572093
-1.851708e-05
0.00029356132
-1.7840385e-05
0.00031068173
-1.712041e-05
0.00032704074
-1.6359014e-05
0.0003425989
-1.5558154e-05
0.00035731879
-1.4719886e-05
0.00037116514
-1.3846353e-05
0.00038410492
-1.2939782e-05
0.00039610739
-1.2002474e-05
0.0004071442
-1.1036801e-05
0.0004171894
-1.00452e-05
0.00042621956
-9.0301601e-06
0.00043421378
-7.9942218e-06
0.00044115374
-6.9399672e-06
0.00044702376
-5.8700135e-06
0.00045181076
-4.7870058e-06
0.00045550437
-3.6936106e-06
0.00045809688
-2.5925086e-06
0.00045958327
-1.4863877e-06
0.00045996121
-3.7793723e-07
0.00045923105
7.3015288e-07
0.00045739583
1.8352244e-06
0.00045446119
2.9346408e-06
0.00045043544
4.0257466e-06
0.00044532948
5.1059596e-06
0.00043915676
6.172725e-06
0.00043193323
7.2235297e-06
0.00042367732
8.2559095e-06
0.00041440986
9.2674544e-06
0.00040415405
1.0255814e-05
0.00039293535
1.1218701e-05
0.00038078145
1.21539e-05
0.00036772219
1.3059264e-05
0.00035378946
1.3932727e-05
0.00033901715
1.4772305e-05
0.00032344106
1.5576095e-05
0.00030709877
1.6342287e-05
0.00029002961
1.706916e-05
0.00027227452
1.7755088e-05
0.00025387598
1.8398542e-05
0.00023487789
1.8998094e-05
0.00021532547
1.9552416e-05
0.00019526519
2.0060285e-05
0.0001747446
2.0520585e-05
0.0001538123
2.0932304e-05
0.00013251775
2.1294543e-05
0.00011091124
2.1606511e-05
8.9043717e-05
2.1867526e-05
6.6966695e-05
2.2077022e-05
4.4732153e-05
2.2234543e-05
2.2392406e-05
2.2339747e-05
2.2392406e-05
-2.245224e-05
4.4844646e-05
-4.4851684e-05
4.4739191e-05
-6.7145651e-05
4.452851e-05
-8.928169e-05
4.421306e-05
-0.00011120769
4.3793526e-05
-0.000132872
4.3270818e-05
-0.00015422353
4.2646074e-05
-0.00017521188
4.1920655e-05
-0.00019578744
4.1096146e-05
-0.0002159015
4.0174349e-05
-0.00023550637
3.9157287e-05
-0.00025455548
3.8047197e-05
-0.00027300347
3.6846529e-05
-0.00029080632
3.5557938e-05
-0.00030792144
3.4184286e-05
-0.00032430779
3.2728634e-05
-0.00033992593
3.1194238e-05
-0.00035473817
2.9584542e-05
-0.00036870862
2.7903175e-05
-0.0003818033
2.6153943e-05
-0.00039399022
2.4340821e-05
-0.00040523946
2.2467949e-05
-0.00041552327
2.053962e-05
-0.00042481609
1.8560275e-05
-0.00043309467
1.6534493e-05
-0.00044033813
1.4466981e-05
-0.00044652797
1.2362566e-05
-0.00045164819
1.0226181e-05
-0.0004556853
8.0628592e-06
-0.00045862838
5.877718e-06
-0.0004604691
3.6759483e-06
-0.00046120177
1.4628223e-06
-0.00046082335
-7.5635637e-07
-0.00045933349
-2.9762499e-06
-0.00045673452
-5.1914833e-06
-0.00045303146
-7.3966708e-06
-0.00044823203
-9.5864287e-06
-0.00044234666
-1.1755388e-05
-0.00043538842
-1.3898209e-05
-0.00042737304
-1.6009594e-05
-0.0004183189
-1.80843e-05
-0.00040824695
-2.0117157e-05
-0.00039718067
-2.2103078e-05
-0.00038514607
-2.4037072e-05
-0.00037217159
-2.5914265e-05
-0.00035828804
-2.7729904e-05
-0.00034352855
-2.9479379e-05
-0.00032792847
-3.1158229e-05
-0.00031152532
-3.2762163e-05
-0.00029435867
-3.4287065e-05
-0.00027647004
-3.5729011e-05
-0.00025790284
-3.708428e-05
-0.00023870222
-3.8349365e-05
-0.00021891498
-3.9520983e-05
-0.00019858943
-4.0596087e-05
-0.00017777532
-4.1571875e-05
-0.00015652363
-4.2445797e-05
-0.00013488652
-4.3215568e-05
-0.00011291715
-4.3879168e-05
-9.0669547e-05
-4.4434857e-05
-6.8198472e-05
-4.4881173e-05
-4.5559278e-05
-4.5216943e-05
-2.2807758e-05
-4.5441282e-05
1.9503194e-13
-4.5553599e-05
2.2807758e-05
-4.5553599e-05
4.5559279e-05
-4.5441282e-05
6.8198473e-05
-4.5216943e-05
9.0669547e-05
-4.4881173e-05
0.00011291715
-4.4434857e-05
0.00013488652
-4.3879168e-05
0.00015652363
-4.3215568e-05
0.00017777532
-4.2445797e-05
0.00019858944
-4.1571875e-05
0.00021891498
-4.0596087e-05
0.00023870222
-3.9520983e-05
0.00025790284
-3.8349365e-05
0.00027647004
-3.708428e-05
0.00029435867
-3.5729011e-05
0.00031152532
-3.4287065e-05
0.00032792847
-3.2762163e-05
0.00034352855
-3.1158229e-05
0.00035828804
-2.9479379e-05
0.00037217159
-2.7729904e-05
0.00038514607
-2.5914265e-05
0.00039718067
-2.4037072e-05
0.00040824695
-2.2103077e-05
0.0004183189
-2.0117157e-05
0.00042737304
-1.80843e-05
0.00043538842
-1.6009594e-05
0.00044234666
-1.3898209e-05
0.00044823203
-1.1755388e-05
0.00045303146
-9.5864286e-06
0.00045673452
-7.3966707e-06
0.00045933349
-5.1914833e-06
0.00046082335
-2.9762499e-06
0.00046120177
-7.5635633e-07
0.0004604691
1.4628224e-06
0.00045862838
3.6759483e-06
0.0004556853
5.8777181e-06
0.00045164819
8.0628593e-06
0.00044652797
1.0226181e-05
0.00044033813
1.2362566e-05
0.00043309467
1.4466981e-05
0.00042481609
1.6534493e-05
0.00041552327
1.8560275e-05
0.00040523946
2.053962e-05
0.00039399022
2.2467949e-05
0.0003818033
2.4340821e-05
0.00036870862
2.6153943e-05
0.00035473817
2.7903175e-05
0.00033992593
2.9584542e-05
0.00032430779
3.1194238e-05
0.00030792144
3.2728634e-05
0.00029080631
3.4184286e-05
0.00027300346
3.5557938e-05
0.00025455548
3.6846529e-05
0.00023550637
3.8047197e-05
0.0002159015
3.9157287e-05
0.00019578744
4.0174349e-05
0.00017521188
4.1096146e-05
0.00015422353
4.1920655e-05
0.000132872
4.2646074e-05
0.00011120769
4.3270818e-05
8.928169e-05
4.3793526e-05
6.7145651e-05
4.421306e-05
4.4851683e-05
4.452851e-05
2.2452239e-05
4.4739191e-05
4.4844646e-05
-2.2545863e-05
6.7390508e-05
-4.5038714e-05
6.7232042e-05
-6.7425656e-05
6.6915453e-05
-8.9654023e-05
6.6441427e-05
-0.00011167149
6.5810993e-05
-0.00013342619
6.5025521e-05
-0.00015486684
6.4086717e-05
-0.00017594281
6.2996629e-05
-0.0001966043
6.1757634e-05
-0.00021680239
6.0372445e-05
-0.00023648921
5.8844098e-05
-0.00025561796
5.7175955e-05
-0.00027414313
5.5371694e-05
-0.0002920205
5.3435309e-05
-0.00030920731
5.1371097e-05
-0.00032566233
4.9183658e-05
-0.00034134598
4.6877884e-05
-0.00035622039
4.4458951e-05
-0.00037024952
4.193231e-05
-0.00038339926
3.9303681e-05
-0.00039563748
3.6579038e-05
-0.00040693413
3.3764599e-05
-0.00041726133
3.0866818e-05
-0.00042659342
2.7892367e-05
-0.00043490705
2.4848126e-05
-0.00044218124
2.174117e-05
-0.00044839743
1.8578751e-05
-0.00045353953
1.5368283e-05
-0.000457594
1.2117329e-05
-0.00046054986
8.8335806e-06
-0.00046239875
5.5248435e-06
-0.00046313496
2.1990248e-06
-0.00046275541
-1.1358996e-06
-0.00046125976
-4.4718997e-06
-0.00045865035
-7.8009018e-06
-0.0004549322
-1.1114813e-05
-0.00045011309
-1.4405544e-05
-0.00044420345
-1.7665026e-05
-0.00043721643
-2.0885234e-05
-0.00042916781
-2.4058205e-05
-0.00042007605
-2.7176063e-05
-0.00040996217
-3.0231035e-05
-0.00039884977
-3.3215478e-05
-0.00038676495
-3.6121893e-05
-0.00037373627
-3.8942951e-05
-0.00035979466
-4.1671511e-05
-0.0003449734
-4.4300644e-05
-0.00032930798
-4.6823647e-05
-0.00031283607
-4.9234069e-05
-0.00029559741
-5.1525725e-05
-0.0002776337
-5.3692717e-05
-0.00025898853
-5.5729453e-05
-0.00023970724
-5.763066e-05
-0.00021983681
-5.9391406e-05
-0.00019942579
-6.100711e-05
-0.0001785241
-6.247356e-05
-0.00015718298
-6.3786925e-05
-0.00013545478
-6.4943768e-05
-0.00011339289
-6.5941055e-05
-9.1051577e-05
-6.6776168e-05
-6.8485837e-05
-6.7446913e-05
-4.5751256e-05
-6.7951523e-05
-2.2903867e-05
-6.8288671e-05
1.9497317e-13
-6.8457467e-05
2.2903868e-05
-6.8457467e-05
4.5751257e-05
-6.8288671e-05
6.8485837e-05
-6.7951523e-05
9.1051577e-05
-6.7446913e-05
0.00011339289
-6.6776168e-05
0.00013545478
-6.5941055e-05
0.00015718298
-6.4943768e-05
0.0001785241
-6.3786925e-05
0.00019942579
-6.247356e-05
0.00021983681
-6.100711e-05
0.00023970724
-5.9391406e-05
0.00025898853
-5.763066e-05
0.0002776337
-5.5729453e-05
0.00029559741
-5.3692717e-05
0.00031283607
-5.1525725e-05
0.00032930798
-4.9234069e-05
0.0003449734
-4.6823647e-05
0.00035979466
-4.4300644e-05
0.00037373627
-4.1671511e-05
0.00038676495
-3.8942951e-05
0.00039884977
-3.6121893e-05
0.00040996217
-3.3215478e-05
0.00042007605
-3.0231035e-05
0.00042916781
-2.7176063e-05
0.00043721643
-2.4058205e-05
0.00044420345
-2.0885233e-05
0.00045011309
-1.7665026e-05
0.0004549322
-1.4405544e-05
0.00045865035
-1.1114813e-05
0.00046125976
-7.8009017e-06
0.00046275541
-4.4718996e-06
0.00046313496
-1.1358995e-06
0.00046239875
2.1990249e-06
0.00046054986
5.5248436e-06
0.000457594
8.8335807e-06
0.00045353953
1.2117329e-05
0.00044839743
1.5368283e-05
0.00044218124
1.8578751e-05
0.00043490705
2.174117e-05
0.00042659342
2.4848127e-05
0.00041726133
2.7892367e-05
0.00040693413
3.0866818e-05
0.00039563748
3.3764599e-05
0.00038339926
3.6579038e-05
0.00037024952
3.9303681e-05
0.00035622039
4.193231e-05
0.00034134598
4.4458951e-05
0.00032566233
4.6877884e-05
0.00030920731
4.9183658e-05
0.0002920205
5.1371097e-05
0.00027414313
5.3435309e-05
0.00025561796
5.5371694e-05
0.00023648921
5.7175955e-05
0.00021680239
5.8844098e-05
0.0001966043
6.0372445e-05
0.00017594281
6.1757634e-05
0.00015486684
6.2996629e-05
0.00013342619
6.4086717e-05
0.00011167149
6.5025521e-05
8.9654023e-05
6.5810993e-05
6.7425656e-05
6.6441427e-05
4.5038714e-05
6.6915453e-05
2.2545863e-05
6.7232042e-05
6.7390508e-05
-2.2673632e-05
9.0064141e-05
-4.5293956e-05
8.9852366e-05
-6.7807779e-05
8.9429275e-05
-9.0162137e-05
8.8795786e-05
-0.00011230441
8.7953271e-05
-0.00013418246
8.6903561e-05
-0.00015574468
8.5648938e-05
-0.00017694018
8.4192135e-05
-0.00019771888
8.2536332e-05
-0.00021803158
8.0685149e-05
-0.00023783013
7.8642646e-05
-0.00025706749
7.6413314e-05
-0.00027569787
7.4002069e-05
-0.0002936768
7.1414245e-05
-0.00031096129
6.8655587e-05
-0.00032750988
6.5732241e-05
-0.00034328273
6.2650742e-05
-0.00035824179
5.9418008e-05
-0.00037235081
5.6041326e-05
-0.00038557546
5.2528335e-05
-0.00039788344
4.888702e-05
-0.00040924454
4.5125693e-05
-0.0004196307
4.1252976e-05
-0.00042901612
3.7277788e-05
-0.00043737731
3.3209322e-05
-0.00044469317
2.9057032e-05
-0.00045094503
2.4830612e-05
-0.00045611672
2.0539969e-05
-0.0004601946
1.6195212e-05
-0.00046316764
1.1806621e-05
-0.00046502743
7.3846274e-06
-0.0004657682
2.9397943e-06
-0.00046538688
-1.5172177e-06
-0.00046388311
-5.9756726e-06
-0.00046125923
-1.0424781e-05
-0.00045752031
-1.4853729e-05
-0.00045267415
-1.9251703e-05
-0.00044673126
-2.3607921e-05
-0.00043970483
-2.7911657e-05
-0.00043161077
-3.215227e-05
-0.0004224676
-3.6319233e-05
-0.00041229648
-4.0402159e-05
-0.00040112112
-4.4390829e-05
-0.00038896779
-4.8275224e-05
-0.0003758652
-5.2045547e-05
-0.00036184445
-5.5692255e-05
-0.00034693901
-5.9206086e-05
-0.00033118458
-6.2578081e-05
-0.00031461903
-6.5799618e-05
-0.00029728233
-6.8862429e-05
-0.00027921641
-7.1758633e-05
-0.00026046511
-7.4480752e-05
-0.00024107403
-7.7021742e-05
-0.00022109043
-7.9375006e-05
-0.00020056312
-8.1534424e-05
-0.00017954231
-8.3494364e-05
-0.00015807953
-8.5249706e-05
-0.00013622745
-8.6795853e-05
-0.00011403975
-8.8128753e-05
-9.1571014e-05
-8.9244904e-05
-6.8876553e-05
-9.0141373e-05
-4.6012277e-05
-9.0815799e-05
-2.3034541e-05
-9.1266407e-05
1.9479939e-13
-9.1492008e-05
2.3034541e-05
-9.1492008e-05
4.6012278e-05
-9.1266407e-05
6.8876554e-05
-9.0815799e-05
9.1571014e-05
-9.0141373e-05
0.00011403975
-8.9244904e-05
0.00013622745
-8.8128753e-05
0.00015807953
-8.6795853e-05
0.00017954231
-8.5249706e-05
0.00020056312
-8.3494364e-05
0.00022109043
-8.1534424e-05
0.00024107403
-7.9375006e-05
0.00026046511
-7.7021742e-05
0.00027921641
-7.4480752e-05
0.00029728233
-7.1758633e-05
0.00031461903
-6.8862429e-05
0.00033118458
-6.5799618e-05
0.00034693901
-6.2578081e-05
0.00036184445
-5.9206085e-05
0.0003758652
-5.5692255e-05
0.00038896779
-5.2045547e-05
0.00040112112
-4.8275223e-05
0.00041229648
-4.4390829e-05
0.0004224676
-4.0402159e-05
0.00043161077
-3.6319233e-05
0.00043970483
-3.215227e-05
0.00044673126
-2.7911657e-05
0.00045267415
-2.3607921e-05
0.00045752031
-1.9251703e-05
0.00046125923
-1.4853729e-05
0.00046388311
-1.0424781e-05
0.00046538688
-5.9756725e-06
0.0004657682
-1.5172176e-06
0.00046502743
2.9397944e-06
0.00046316764
7.3846275e-06
0.0004601946
1.1806621e-05
0.00045611672
1.6195212e-05
0.00045094503
2.0539969e-05
0.00044469317
2.4830612e-05
0.00043737731
2.9057033e-05
0.00042901612
3.3209322e-05
0.0004196307
3.7277788e-05
0.00040924454
4.1252977e-05
0.00039788344
4.5125693e-05
0.00038557546
4.8887021e-05
0.00037235081
5.2528335e-05
0.00035824179
5.6041326e-05
0.00034328273
5.9418009e-05
0.00032750988
6.2650742e-05
0.00031096129
6.5732241e-05
0.0002936768
6.8655587e-05
0.00027569787
7.1414245e-05
0.00025706749
7.4002069e-05
0.00023783013
7.6413314e-05
0.00021803158
7.8642646e-05
0.00019771888
8.0685149e-05
0.00017694018
8.2536332e-05
0.00015574468
8.4192136e-05
0.00013418246
8.5648938e-05
0.00011230441
8.6903561e-05
9.0162137e-05
8.7953271e-05
6.7807778e-05
8.8795786e-05
4.5293956e-05
8.9429275e-05
2.2673632e-05
8.9852366e-05
9.0064141e-05
-2.283602e-05
0.00011290016
-4.5618352e-05
0.0001126347
-6.8293427e-05
0.00011210435
-9.0807906e-05
0.00011131026
-0.0001131088
0.00011025416
-0.00013514357
0.00010893834
-0.00015686029
0.00010736565
-0.00017820768
0.00010553953
-0.0001991353
0.00010346395
-0.00021959361
0.00010114346
-0.00023953411
9.8583142e-05
-0.00025890942
9.5788625e-05
-0.00027767342
9.2766073e-05
-0.00029578134
8.9522169e-05
-0.00031318987
8.6064114e-05
-0.00032985724
8.239961e-05
-0.00034574335
7.8536851e-05
-0.00036080985
7.4484507e-05
-0.00037502023
7.025171e-05
-0.00038833994
6.5848038e-05
-0.00040073641
6.1283498e-05
-0.00041217923
5.656851e-05
-0.00042264014
5.1713882e-05
-0.00043209314
4.6730792e-05
-0.00044051458
4.1630766e-05
-0.00044788321
3.6425656e-05
-0.00045418021
3.112761e-05
-0.00045938929
2.5749051e-05
-0.00046349673
2.0302649e-05
-0.0004664914
1.4801292e-05
-0.00046836483
9.2580561e-06
-0.00046911121
3.6861805e-06
-0.00046872746
-1.9009708e-06
-0.00046721319
-7.4899376e-06
-0.00046457078
-1.3067195e-05
-0.00046080532
-1.8619186e-05
-0.00045592467
-2.4132357e-05
-0.0004499394
-2.9593192e-05
-0.00044286281
-3.4988244e-05
-0.0004347109
-4.0304176e-05
-0.00042550235
-4.5527789e-05
-0.00041525844
-5.0646064e-05
-0.00040400308
-5.564619e-05
-0.0003917627
-6.0515607e-05
-0.00037856621
-6.5242035e-05
-0.00036444496
-6.9813509e-05
-0.00034943262
-7.4218418e-05
-0.00033356517
-7.8445531e-05
-0.00031688075
-8.2484039e-05
-0.00029941961
-8.6323576e-05
-0.00028122398
-8.9954262e-05
-0.00026233801
-9.3366722e-05
-0.00024280763
-9.6552123e-05
-0.00022268044
-9.9502196e-05
-0.00020200559
-0.00010220927
-0.00018083369
-0.00010466627
-0.0001592166
-0.0001068668
-0.00013720738
-0.00010880507
-0.00011486011
-0.00011047602
-9.2229765e-05
-0.00011187525
-6.9372057e-05
-0.00011299908
-4.63433e-05
-0.00011384456
-2.3200259e-05
-0.00011440945
1.9450371e-13
-0.00011469227
2.3200259e-05
-0.00011469227
4.6343301e-05
-0.00011440945
6.9372058e-05
-0.00011384456
9.2229766e-05
-0.00011299908
0.00011486011
-0.00011187525
0.00013720738
-0.00011047602
0.0001592166
-0.00010880507
0.00018083369
-0.0001068668
0.00020200559
-0.00010466627
0.00022268044
-0.00010220927
0.00024280763
-9.9502196e-05
0.00026233801
-9.6552123e-05
0.00028122398
-9.3366722e-05
0.00029941961
-8.9954262e-05
0.00031688075
-8.6323576e-05
0.00033356517
-8.2484038e-05
0.00034943262
-7.8445531e-05
0.00036444496
-7.4218417e-05
0.00037856621
-6.9813509e-05
0.0003917627
-6.5242035e-05
0.00040400308
-6.0515607e-05
0.00041525844
-5.564619e-05
0.00042550235
-5.0646064e-05
0.0004347109
-4.5527789e-05
0.00044286281
-4.0304176e-05
0.0004499394
-3.4988244e-05
0.00045592467
-2.9593192e-05
0.00046080532
-2.4132357e-05
0.00046457078
-1.8619186e-05
0.00046721319
-1.3067195e-05
0.00046872746
-7.4899375e-06
0.00046911121
-1.9009707e-06
0.00046836483
3.6861806e-06
0.0004664914
9.2580562e-06
0.00046349673
1.4801292e-05
0.00045938929
2.0302649e-05
0.00045418021
2.5749051e-05
0.00044788321
3.112761e-05
0.00044051458
3.6425656e-05
0.00043209314
4.1630767e-05
0.00042264014
4.6730792e-05
0.00041217923
5.1713882e-05
0.00040073641
5.656851e-05
0.00038833994
6.1283499e-05
0.00037502023
6.5848038e-05
0.00036080985
7.025171e-05
0.00034574335
7.4484507e-05
0.00032985724
7.8536851e-05
0.00031318987
8.239961e-05
0.00029578134
8.6064114e-05
0.00027767342
8.9522169e-05
0.00025890942
9.2766073e-05
0.00023953411
9.5788626e-05
0.00021959361
9.8583142e-05
0.0001991353
0.00010114346
0.00017820768
0.00010346395
0.00015686029
0.00010553953
0.00013514357
0.00010736565
0.0001131088
0.00010893834
9.0807905e-05
0.00011025416
6.8293427e-05
0.00011131026
4.5618352e-05
0.00011210435
2.2836019e-05
0.0001126347
0.00011290016
-2.3033613e-05
0.00013593377
-4.6013078e-05
0.00013561416
-6.8884363e-05
0.00013497563
-9.159367e-05
0.00013401957
-0.00011408755
0.00013274805
-0.00013631304
0.00013116382
-0.00015821772
0.00012927033
-0.0001797499
0.00012707171
-0.00020085869
0.00012457275
-0.00022149414
0.00012177891
-0.00024160731
0.00011869631
-0.00026115042
0.00011533174
-0.00028007696
0.00011169261
-0.00029834176
0.00010778697
-0.00031590113
0.00010362348
-0.00033271295
9.9211426e-05
-0.00034873676
9.4560662e-05
-0.00036393388
8.9681628e-05
-0.00037826749
8.4585319e-05
-0.00039170272
7.9283268e-05
-0.00040420674
7.3787521e-05
-0.00041574886
6.8110624e-05
-0.00042630056
6.2265589e-05
-0.00043583565
5.6265877e-05
-0.00044433024
5.0125363e-05
-0.00045176291
4.3858318e-05
-0.00045811466
3.7479368e-05
-0.00046336908
3.1003472e-05
-0.00046751232
2.4445884e-05
-0.00047053315
1.7822121e-05
-0.00047242302
1.114793e-05
-0.00047317609
4.4392482e-06
-0.00047278923
-2.2878335e-06
-0.00047126206
-9.0171075e-06
-0.00046859696
-1.5732289e-05
-0.00046479909
-2.2417057e-05
-0.00045987636
-2.9055091e-05
-0.00045383943
-3.5630117e-05
-0.00044670173
-4.2125947e-05
-0.00043847939
-4.8526522e-05
-0.00042919123
-5.481595e-05
-0.00041885873
-6.0978555e-05
-0.00040750601
-6.6998915e-05
-0.00039515971
-7.2861904e-05
-0.00038184901
-7.8552738e-05
-0.00036760551
-8.4057012e-05
-0.00035246318
-8.9360742e-05
-0.00033645831
-9.4450408e-05
-0.00031962935
-9.9312992e-05
-0.00030201691
-0.00010393601
-0.0002836636
-0.00010830758
-0.00026461393
-0.00011241639
-0.00024491423
-0.00011625182
-0.00022461253
-0.0001198039
-0.00020375839
-0.0001230634
-0.00018240285
-0.00012602181
-0.00016059824
-0.0001286714
-0.00013839807
-0.00013100524
-0.00011585691
-0.00013301718
-9.303019e-05
-0.00013470197
-6.9974123e-05
-0.00013605515
-4.674551e-05
-0.00013707317
-2.3401614e-05
-0.00013775334
1.940816e-13
-0.00013809388
2.3401614e-05
-0.00013809388
4.6745511e-05
-0.00013775334
6.9974123e-05
-0.00013707317
9.3030191e-05
-0.00013605515
0.00011585691
-0.00013470197
0.00013839807
-0.00013301718
0.00016059824
-0.00013100524
0.00018240285
-0.0001286714
0.00020375839
-0.00012602181
0.00022461253
-0.0001230634
0.00024491423
-0.0001198039
0.00026461393
-0.00011625182
0.0002836636
-0.00011241639
0.00030201691
-0.00010830758
0.00031962935
-0.00010393601
0.00033645831
-9.9312992e-05
0.00035246318
-9.4450408e-05
0.00036760551
-8.9360742e-05
0.00038184901
-8.4057011e-05
0.00039515971
-7.8552738e-05
0.00040750601
-7.2861904e-05
0.00041885873
-6.6998915e-05
0.00042919123
-6.0978555e-05
0.00043847939
-5.481595e-05
0.00044670173
-4.8526522e-05
0.00045383943
-4.2125947e-05
0.00045987636
-3.5630117e-05
0.00046479909
-2.905509e-05
0.00046859696
-2.2417056e-05
0.00047126206
-1.5732289e-05
0.00047278923
-9.0171074e-06
0.00047317609
-2.2878334e-06
0.00047242302
4.4392483e-06
0.00047053315
1.114793e-05
0.00046751232
1.7822122e-05
0.00046336908
2.4445884e-05
0.00045811466
3.1003472e-05
0.00045176291
3.7479368e-05
0.00044433024
4.3858318e-05
0.00043583565
5.0125363e-05
0.00042630056
5.6265877e-05
0.00041574886
6.2265589e-05
0.00040420674
6.8110624e-05
0.00039170272
7.3787521e-05
0.00037826749
7.9283268e-05
0.00036393388
8.4585319e-05
0.00034873676
8.9681628e-05
0.00033271295
9.4560662e-05
0.00031590113
9.9211426e-05
0.00029834176
0.00010362348
0.00028007696
0.00010778697
0.00026115042
0.00011169261
0.00024160731
0.00011533174
0.00022149414
0.00011869631
0.00020085869
0.00012177891
0.0001797499
0.00012457275
0.00015821772
0.00012707171
0.00013631303
0.00012927033
0.00011408755
0.00013116382
9.159367e-05
0.00013274805
6.8884362e-05
0.00013401957
4.6013078e-05
0.00013497563
2.3033613e-05
0.00013561416
0.00013593377
-2.3267126e-05
0.0001592009
-4.6479557e-05
0.00015882659
-6.9582717e-05
0.00015807879
-9.2522266e-05
0.00015695912
-0.00011524422
0.00015547
-0.00013769506
0.00015361466
-0.00015982186
0.00015139713
-0.0001815724
0.00014882225
-0.00020289528
0.00014589562
-0.00022374002
0.00014262365
-0.00024405722
0.00013901351
-0.0002637986
0.00013507312
-0.00028291716
0.00013081118
-0.0003013673
0.0001262371
-0.00031910486
0.00012136105
-0.0003360873
0.00011619387
-0.00035227376
0.00011074712
-0.00036762516
0.00010503302
-0.00038210429
9.9064455e-05
-0.00039567594
9.2854918e-05
-0.00040830695
8.6418525e-05
-0.00041996629
7.9769965e-05
-0.00043062518
7.2924479e-05
-0.00044025713
6.5897831e-05
-0.00044883804
5.8706275e-05
-0.00045634625
5.136652e-05
-0.00046276258
4.3895699e-05
-0.00046807043
3.631133e-05
-0.00047225583
2.8631281e-05
-0.00047530743
2.0873724e-05
-0.00047721661
1.3057101e-05
-0.00047797744
5.2000778e-06
-0.00047758677
-2.6785003e-06
-0.00047604422
-1.0559651e-05
-0.00047335221
-1.8424302e-05
-0.00046951593
-2.6253338e-05
-0.00046454337
-3.4027647e-05
-0.00045844532
-4.172817e-05
-0.00045123532
-4.9335946e-05
-0.00044292968
-5.6832168e-05
-0.0004335474
-6.4198227e-05
-0.00042311019
-7.1415761e-05
-0.0004116424
-7.8466711e-05
-0.00039917094
-8.533336e-05
-0.00038572528
-9.1998395e-05
-0.00037133735
-9.8444943e-05
-0.00035604147
-0.00010465663
-0.00033987426
-0.00011061762
-0.00032287459
-0.00011631266
-0.00030508347
-0.00012172713
-0.00028654394
-0.00012684711
-0.00026730096
-0.00013165937
-0.00024740133
-0.00013615145
-0.00022689355
-0.00014031168
-0.00020582771
-0.00014412924
-0.00018425536
-0.00014759417
-0.00016222935
-0.00015069741
-0.00013980375
-0.00015343083
-0.00011703367
-0.00015578726
-9.3975124e-05
-0.00015776051
-7.0684882e-05
-0.00015934539
-4.7220331e-05
-0.00016053772
-2.363932e-05
-0.00016133436
1.9352753e-13
-0.0001617332
2.363932e-05
-0.0001617332
4.7220332e-05
-0.00016133436
7.0684882e-05
-0.00016053772
9.3975124e-05
-0.00015934539
0.00011703367
-0.00015776051
0.00013980375
-0.00015578726
0.00016222935
-0.00015343083
0.00018425536
-0.00015069741
0.00020582771
-0.00014759417
0.00022689355
-0.00014412924
0.00024740133
-0.00014031168
0.00026730096
-0.00013615145
0.00028654394
-0.00013165937
0.00030508347
-0.00012684711
0.00032287459
-0.00012172713
0.00033987426
-0.00011631266
0.00035604147
-0.00011061761
0.00037133735
-0.00010465663
0.00038572528
-9.8444943e-05
0.00039917094
-9.1998395e-05
0.0004116424
-8.533336e-05
0.00042311019
-7.846671e-05
0.0004335474
-7.1415761e-05
0.00044292968
-6.4198227e-05
0.00045123532
-5.6832168e-05
0.00045844532
-4.9335946e-05
0.00046454337
-4.1728169e-05
0.00046951593
-3.4027647e-05
0.00047335221
-2.6253338e-05
0.00047604422
-1.8424302e-05
0.00047758677
-1.0559651e-05
0.00047797744
-2.6785002e-06
0.00047721661
5.2000779e-06
0.00047530743
1.3057101e-05
0.00047225583
2.0873724e-05
0.00046807043
2.8631281e-05
0.00046276258
3.631133e-05
0.00045634625
4.3895699e-05
0.00044883804
5.136652e-05
0.00044025713
5.8706275e-05
0.00043062518
6.5897832e-05
0.00041996629
7.2924479e-05
0.00040830695
7.9769965e-05
0.00039567594
8.6418525e-05
0.00038210429
9.2854918e-05
0.00036762516
9.9064455e-05
0.00035227376
0.00010503302
0.0003360873
0.00011074712
0.00031910486
0.00011619387
0.00030136729
0.00012136105
0.00028291716
0.0001262371
0.0002637986
0.00013081118
0.00024405722
0.00013507312
0.00022374002
0.00013901351
0.00020289528
0.00014262365
0.0001815724
0.00014589562
0.00015982186
0.00014882225
0.00013769506
0.00015139713
0.00011524422
0.00015361466
9.2522266e-05
0.00015547
6.9582717e-05
0.00015695912
4.6479557e-05
0.00015807879
2.3267126e-05
0.00015882659
0.0001592009
-2.353741e-05
0.00018273831
-4.7019492e-05
0.00018230868
-7.0391039e-05
0.00018145034
-9.3597081e-05
0.00018016516
-0.00011658301
0.00017845592
-0.00013929468
0.00017632633
-0.00016167857
0.00017378102
-0.00018368184
0.00017082552
-0.00020525249
0.00016746628
-0.00022633947
0.00016371063
-0.00024689278
0.00015956682
-0.0002668636
0.00015504394
-0.00028620439
0.00015015196
-0.00030486899
0.0001449017
-0.00032281275
0.00013930481
-0.00033999262
0.00013337374
-0.00035636727
0.00012712177
-0.00037189716
0.00012056291
-0.00038654465
0.00011371194
-0.0004002741
0.00010658438
-0.00041305198
9.9196403e-05
-0.0004248469
9.1564885e-05
-0.00043562974
8.3707317e-05
-0.0004453737
7.5641793e-05
-0.0004540544
6.7386971e-05
-0.00046164991
5.8962032e-05
-0.00046814086
5.0386642e-05
-0.00047351044
4.1680912e-05
-0.0004777445
3.2865349e-05
-0.0004808316
2.3960815e-05
-0.00048276297
1.4988479e-05
-0.00048353266
5.9697653e-06
-0.00048313747
-3.0736924e-06
-0.00048157701
-1.2120106e-05
-0.00047885373
-2.1147583e-05
-0.00047497289
-3.0134182e-05
-0.00046994257
-3.9057965e-05
-0.00046377368
-4.7897057e-05
-0.00045647994
-5.6629695e-05
-0.00044807781
-6.523429e-05
-0.00043858656
-7.3689484e-05
-0.00042802812
-8.1974201e-05
-0.00041642712
-9.0067711e-05
-0.00040381079
-9.7949682e-05
-0.00039020895
-0.00010560024
-0.00037565388
-0.00011300001
-0.00036018031
-0.00012013021
-0.00034382528
-0.00012697265
-0.0003266281
-0.00013350983
-0.00030863027
-0.00013972497
-0.0002898753
-0.00014560208
-0.0002704087
-0.00015112597
-0.0002502778
-0.00015628235
-0.00022953166
-0.00016105782
-0.00020822096
-0.00016543994
-0.00018639783
-0.0001694173
-0.00016411576
-0.00017297948
-0.00014142944
-0.00017611716
-0.00011839461
-0.0001788221
-9.5067937e-05
-0.00018108718
-7.150687e-05
-0.00018290646
-4.7769458e-05
-0.00018427513
-2.3914223e-05
-0.00018518959
1.9283328e-13
-0.00018564742
2.3914224e-05
-0.00018564742
4.7769458e-05
-0.00018518959
7.150687e-05
-0.00018427513
9.5067938e-05
-0.00018290646
0.00011839461
-0.00018108718
0.00014142944
-0.0001788221
0.00016411576
-0.00017611716
0.00018639783
-0.00017297948
0.00020822096
-0.0001694173
0.00022953166
-0.00016543994
0.0002502778
-0.00016105782
0.0002704087
-0.00015628235
0.0002898753
-0.00015112597
0.00030863027
-0.00014560208
0.0003266281
-0.00013972497
0.00034382528
-0.00013350983
0.00036018031
-0.00012697265
0.00037565389
-0.00012013021
0.00039020895
-0.00011300001
0.0004038108
-0.00010560024
0.00041642712
-9.7949682e-05
0.00042802812
-9.0067711e-05
0.00043858656
-8.1974201e-05
0.00044807781
-7.3689484e-05
0.00045647994
-6.523429e-05
0.00046377368
-5.6629694e-05
0.00046994257
-4.7897057e-05
0.00047497289
-3.9057965e-05
0.00047885373
-3.0134182e-05
0.00048157701
-2.1147583e-05
0.00048313747
-1.2120106e-05
0.00048353266
-3.0736922e-06
0.00048276297
5.9697654e-06
0.0004808316
1.4988479e-05
0.0004777445
2.3960815e-05
0.00047351044
3.2865349e-05
0.00046814086
4.1680912e-05
0.00046164991
5.0386642e-05
0.0004540544
5.8962032e-05
0.0004453737
6.7386971e-05
0.00043562974
7.5641793e-05
0.0004248469
8.3707317e-05
0.00041305198
9.1564885e-05
0.0004002741
9.9196404e-05
0.00038654464
0.00010658438
0.00037189716
0.00011371194
0.00035636727
0.00012056291
0.00033999262
0.00012712177
0.00032281275
0.00013337374
0.00030486899
0.00013930481
0.00028620439
0.0001449017
0.0002668636
0.00015015196
0.00024689278
0.00015504394