/*--------------------------------*- C++ -*----------------------------------*\
| =========                 |                                                 |
| \\      /  F ield         | OpenFOAM: The Open Source CFD Toolbox           |
|  \\    /   O peration     | Version:  2106                                  |
|   \\  /    A nd           | Website:  www.openfoam.com                      |
|    \\/     M anipulation  |                                                 |
\*---------------------------------------------------------------------------*/
FoamFile
{
    version     2.0;
    format      ascii;
    arch        "LSB;label=32;scalar=64";
    class       surfaceScalarField;
    location    "0.038";
    object      phi_0;
}
// * * * * * * * * * * * * * * * * * * * * * * * * * * * * * * * * * * * * * //

dimensions      [0 3 -1 0 0 0 0];

oriented        oriented;

internalField   nonuniform List<scalar> 
32512
(
-2.239296e-05
2.239296e-05
-4.4733261e-05
2.23403e-05
-6.6968354e-05
2.2235094e-05
-8.9045923e-05
2.2077569e-05
-0.00011091399
2.1868069e-05
-0.00013252104
2.1607048e-05
-0.00015381611
2.1295073e-05
-0.00017474894
2.0932826e-05
-0.00019527004
2.0521097e-05
-0.00021533082
2.0060787e-05
-0.00023488373
1.9552907e-05
-0.0002538823
1.8998572e-05
-0.00027228131
1.8399007e-05
-0.00029003685
1.7755538e-05
-0.00030710644
1.7069594e-05
-0.00032344915
1.6342705e-05
-0.00033902564
1.5576495e-05
-0.00035379833
1.4772685e-05
-0.00036773141
1.3933088e-05
-0.00038079102
1.3059603e-05
-0.00039294523
1.2154217e-05
-0.00040416423
1.1218997e-05
-0.00041442032
1.0256086e-05
-0.00042368802
9.2677022e-06
-0.00043194415
8.2561324e-06
-0.00043916788
7.2237271e-06
-0.00044534078
6.1728962e-06
-0.00045044688
5.1061041e-06
-0.00045447274
4.0258639e-06
-0.00045740747
2.9347304e-06
-0.00045924276
1.835286e-06
-0.00045997295
7.3018618e-07
-0.00045959501
-3.7793245e-07
-0.0004581086
-1.4864116e-06
-0.00045551604
-2.5925612e-06
-0.00045182235
-3.693692e-06
-0.00044703523
-4.7871158e-06
-0.00044116508
-5.8701519e-06
-0.00043422495
-6.9401339e-06
-0.00042623053
-7.9944165e-06
-0.00041720015
-9.0303822e-06
-0.0004071547
-1.0045449e-05
-0.00039611762
-1.1037077e-05
-0.00038411485
-1.2002775e-05
-0.00037117474
-1.2940108e-05
-0.00035732803
-1.3846704e-05
-0.00034260777
-1.4720261e-05
-0.00032704922
-1.5558552e-05
-0.00031068979
-1.6359433e-05
-0.00029356894
-1.712085e-05
-0.00027572809
-1.7840844e-05
-0.00025721054
-1.8517558e-05
-0.0002380613
-1.9149239e-05
-0.00021832705
-1.973425e-05
-0.00019805598
-2.0271069e-05
-0.00017729768
-2.0758297e-05
-0.00015610302
-2.1194661e-05
-0.000134524
-2.157902e-05
-0.00011261363
-2.1910366e-05
-9.0425805e-05
-2.2187829e-05
-6.8015123e-05
-2.2410682e-05
-4.5436786e-05
-2.2578337e-05
-2.2746434e-05
-2.2690352e-05
1.949662e-13
-2.2746434e-05
2.2746434e-05
-2.2746434e-05
4.5436787e-05
-2.2690352e-05
6.8015123e-05
-2.2578337e-05
9.0425805e-05
-2.2410682e-05
0.00011261363
-2.2187829e-05
0.000134524
-2.1910366e-05
0.00015610302
-2.157902e-05
0.00017729768
-2.1194661e-05
0.00019805598
-2.0758297e-05
0.00021832705
-2.0271069e-05
0.0002380613
-1.973425e-05
0.00025721054
-1.9149239e-05
0.00027572809
-1.8517558e-05
0.00029356894
-1.7840844e-05
0.00031068979
-1.712085e-05
0.00032704922
-1.6359433e-05
0.00034260777
-1.5558552e-05
0.00035732803
-1.4720261e-05
0.00037117474
-1.3846704e-05
0.00038411485
-1.2940108e-05
0.00039611762
-1.2002775e-05
0.0004071547
-1.1037077e-05
0.00041720015
-1.0045449e-05
0.00042623053
-9.0303822e-06
0.00043422495
-7.9944164e-06
0.00044116508
-6.9401339e-06
0.00044703523
-5.8701519e-06
0.00045182235
-4.7871158e-06
0.00045551604
-3.693692e-06
0.0004581086
-2.5925612e-06
0.00045959501
-1.4864116e-06
0.00045997295
-3.7793243e-07
0.00045924276
7.301862e-07
0.00045740747
1.835286e-06
0.00045447274
2.9347304e-06
0.00045044688
4.0258639e-06
0.00044534078
5.1061041e-06
0.00043916788
6.1728962e-06
0.00043194415
7.2237271e-06
0.00042368802
8.2561324e-06
0.00041442032
9.2677023e-06
0.00040416423
1.0256086e-05
0.00039294523
1.1218997e-05
0.00038079102
1.2154217e-05
0.00036773141
1.3059603e-05
0.00035379833
1.3933088e-05
0.00033902564
1.4772685e-05
0.00032344915
1.5576495e-05
0.00030710644
1.6342705e-05
0.00029003685
1.7069594e-05
0.00027228131
1.7755538e-05
0.0002538823
1.8399007e-05
0.00023488373
1.8998572e-05
0.00021533082
1.9552907e-05
0.00019527004
2.0060787e-05
0.00017474894
2.0521097e-05
0.00015381611
2.0932826e-05
0.00013252104
2.1295073e-05
0.00011091399
2.1607048e-05
8.9045923e-05
2.1868069e-05
6.6968354e-05
2.2077569e-05
4.473326e-05
2.2235094e-05
2.239296e-05
2.23403e-05
2.239296e-05
-2.2452794e-05
4.4845754e-05
-4.4852791e-05
4.4740297e-05
-6.714731e-05
4.4529612e-05
-8.9283896e-05
4.4214155e-05
-0.00011121044
4.3794611e-05
-0.00013287528
4.3271892e-05
-0.00015422734
4.2647134e-05
-0.00017521622
4.1921699e-05
-0.00019579229
4.1097171e-05
-0.00021590686
4.0175354e-05
-0.00023551222
3.9158269e-05
-0.0002545618
3.8048154e-05
-0.00027301025
3.6847458e-05
-0.00029081355
3.5558838e-05
-0.00030792911
3.4185154e-05
-0.00032431588
3.2729469e-05
-0.00033993442
3.1195037e-05
-0.00035474704
2.9585303e-05
-0.00036871785
2.7903896e-05
-0.00038181286
2.6154623e-05
-0.0003940001
2.4341457e-05
-0.00040524965
2.246854e-05
-0.00041553373
2.0540164e-05
-0.00042482679
1.8560771e-05
-0.0004331056
1.6534939e-05
-0.00044034925
1.4467376e-05
-0.00044653926
1.2362908e-05
-0.00045165963
1.022647e-05
-0.00045569686
8.063094e-06
-0.00045864003
5.8778975e-06
-0.00046048081
3.6760716e-06
-0.00046121351
1.4628891e-06
-0.0004608351
-7.5634667e-07
-0.00045934521
-2.9762976e-06
-0.00045674619
-5.1915884e-06
-0.00045304305
-7.3968334e-06
-0.00044824351
-9.5866486e-06
-0.000442358
-1.1755665e-05
-0.00043539959
-1.3898543e-05
-0.00042738402
-1.6009983e-05
-0.00041832966
-1.8084745e-05
-0.00040825746
-2.0117656e-05
-0.0003971909
-2.2103629e-05
-0.000385156
-2.4037676e-05
-0.00037218119
-2.5914918e-05
-0.00035829729
-2.7730607e-05
-0.00034353742
-2.9480128e-05
-0.00032793695
-3.1159024e-05
-0.00031153338
-3.2763001e-05
-0.00029436629
-3.4287944e-05
-0.0002764772
-3.5729929e-05
-0.00025790953
-3.7085235e-05
-0.00023870841
-3.8350354e-05
-0.00021892066
-3.9522004e-05
-0.00019859459
-4.0597138e-05
-0.00017777993
-4.1572952e-05
-0.0001565277
-4.2446898e-05
-0.00013489003
-4.3216689e-05
-0.00011292009
-4.3880308e-05
-9.0671903e-05
-4.4436012e-05
-6.8200245e-05
-4.488234e-05
-4.5560463e-05
-4.5218119e-05
-2.2808351e-05
-4.5442464e-05
1.9503091e-13
-4.5554785e-05
2.2808351e-05
-4.5554785e-05
4.5560463e-05
-4.5442464e-05
6.8200245e-05
-4.5218119e-05
9.0671904e-05
-4.488234e-05
0.00011292009
-4.4436012e-05
0.00013489003
-4.3880308e-05
0.0001565277
-4.3216689e-05
0.00017777993
-4.2446898e-05
0.00019859459
-4.1572952e-05
0.00021892066
-4.0597138e-05
0.00023870841
-3.9522004e-05
0.00025790953
-3.8350354e-05
0.0002764772
-3.7085235e-05
0.00029436629
-3.5729929e-05
0.00031153338
-3.4287944e-05
0.00032793695
-3.2763001e-05
0.00034353742
-3.1159024e-05
0.00035829729
-2.9480128e-05
0.00037218119
-2.7730607e-05
0.000385156
-2.5914918e-05
0.0003971909
-2.4037676e-05
0.00040825746
-2.2103629e-05
0.00041832966
-2.0117656e-05
0.00042738402
-1.8084745e-05
0.00043539959
-1.6009983e-05
0.000442358
-1.3898543e-05
0.00044824351
-1.1755665e-05
0.00045304305
-9.5866486e-06
0.00045674619
-7.3968333e-06
0.00045934521
-5.1915884e-06
0.0004608351
-2.9762975e-06
0.00046121351
-7.5634663e-07
0.00046048081
1.4628891e-06
0.00045864003
3.6760717e-06
0.00045569686
5.8778975e-06
0.00045165963
8.063094e-06
0.00044653926
1.022647e-05
0.00044034925
1.2362908e-05
0.0004331056
1.4467376e-05
0.00042482679
1.6534939e-05
0.00041553373
1.8560771e-05
0.00040524965
2.0540164e-05
0.0003940001
2.246854e-05
0.00038181286
2.4341457e-05
0.00036871785
2.6154623e-05
0.00035474704
2.7903897e-05
0.00033993442
2.9585303e-05
0.00032431588
3.1195037e-05
0.00030792911
3.2729469e-05
0.00029081355
3.4185154e-05
0.00027301025
3.5558838e-05
0.0002545618
3.6847458e-05
0.00023551222
3.8048154e-05
0.00021590686
3.9158269e-05
0.00019579229
4.0175354e-05
0.00017521622
4.1097171e-05
0.00015422734
4.1921699e-05
0.00013287528
4.2647134e-05
0.00011121044
4.3271892e-05
8.9283895e-05
4.3794611e-05
6.7147309e-05
4.4214155e-05
4.4852791e-05
4.4529612e-05
2.2452794e-05
4.4740297e-05
4.4845754e-05
-2.2546417e-05
6.7392171e-05
-4.5039821e-05
6.7233701e-05
-6.7427314e-05
6.6917105e-05
-8.9656228e-05
6.6443069e-05
-0.00011167424
6.5812621e-05
-0.00013342948
6.5027131e-05
-0.00015487065
6.4088307e-05
-0.00017594715
6.2998195e-05
-0.00019660915
6.1759173e-05
-0.00021680775
6.0373952e-05
-0.00023649505
5.8845571e-05
-0.00025562428
5.717739e-05
-0.00027414991
5.5373088e-05
-0.00029202773
5.3436658e-05
-0.00030921498
5.1372399e-05
-0.00032567042
4.918491e-05
-0.00034135447
4.6879082e-05
-0.00035622926
4.4460092e-05
-0.00037025875
4.1933392e-05
-0.00038340883
3.9304701e-05
-0.00039564736
3.6579992e-05
-0.00040694431
3.3765486e-05
-0.00041727178
3.0867635e-05
-0.00042660412
2.7893111e-05
-0.00043491798
2.4848796e-05
-0.00044219237
2.1741763e-05
-0.00044840872
1.8579265e-05
-0.00045355097
1.5368717e-05
-0.00045760556
1.2117681e-05
-0.00046056151
8.83385e-06
-0.00046241047
5.5250288e-06
-0.0004631467
2.1991251e-06
-0.00046276716
-1.1358849e-06
-0.00046127149
-4.471971e-06
-0.00045866202
-7.8010594e-06
-0.00045494379
-1.1115057e-05
-0.00045012457
-1.4405874e-05
-0.00044421479
-1.7665441e-05
-0.0004372276
-2.0885734e-05
-0.0004291788
-2.4058789e-05
-0.00042008681
-2.7176729e-05
-0.00040997268
-3.0231783e-05
-0.00039886001
-3.3216305e-05
-0.00038677489
-3.6122798e-05
-0.00037374587
-3.8943931e-05
-0.00035980392
-4.1672565e-05
-0.00034498228
-4.4301768e-05
-0.00032931646
-4.682484e-05
-0.00031284413
-4.9235326e-05
-0.00029560503
-5.1527044e-05
-0.00027764087
-5.3694095e-05
-0.00025899522
-5.5730886e-05
-0.00023971343
-5.7632145e-05
-0.00021984249
-5.9392938e-05
-0.00019943095
-6.1008686e-05
-0.00017852872
-6.2475176e-05
-0.00015718704
-6.3788577e-05
-0.00013545828
-6.4945451e-05
-0.00011339582
-6.5942765e-05
-9.1053934e-05
-6.6777901e-05
-6.848761e-05
-6.7448664e-05
-4.5752441e-05
-6.7953288e-05
-2.290446e-05
-6.8290445e-05
1.9497254e-13
-6.8459245e-05
2.2904461e-05
-6.8459245e-05
4.5752441e-05
-6.8290445e-05
6.848761e-05
-6.7953288e-05
9.1053934e-05
-6.7448664e-05
0.00011339582
-6.6777901e-05
0.00013545828
-6.5942765e-05
0.00015718704
-6.4945451e-05
0.00017852872
-6.3788577e-05
0.00019943095
-6.2475176e-05
0.00021984249
-6.1008686e-05
0.00023971343
-5.9392938e-05
0.00025899522
-5.7632145e-05
0.00027764087
-5.5730886e-05
0.00029560503
-5.3694095e-05
0.00031284413
-5.1527044e-05
0.00032931646
-4.9235326e-05
0.00034498228
-4.682484e-05
0.00035980392
-4.4301768e-05
0.00037374587
-4.1672565e-05
0.00038677489
-3.8943931e-05
0.00039886001
-3.6122798e-05
0.00040997268
-3.3216305e-05
0.00042008681
-3.0231783e-05
0.0004291788
-2.7176729e-05
0.0004372276
-2.4058789e-05
0.00044421479
-2.0885734e-05
0.00045012457
-1.7665441e-05
0.00045494379
-1.4405874e-05
0.00045866202
-1.1115057e-05
0.00046127149
-7.8010593e-06
0.00046276716
-4.471971e-06
0.0004631467
-1.1358848e-06
0.00046241047
2.1991252e-06
0.00046056151
5.5250289e-06
0.00045760556
8.83385e-06
0.00045355097
1.2117681e-05
0.00044840872
1.5368717e-05
0.00044219236
1.8579265e-05
0.00043491798
2.1741763e-05
0.00042660412
2.4848796e-05
0.00041727178
2.7893111e-05
0.00040694431
3.0867635e-05
0.00039564736
3.3765486e-05
0.00038340883
3.6579992e-05
0.00037025875
3.9304701e-05
0.00035622926
4.1933392e-05
0.00034135447
4.4460092e-05
0.00032567042
4.6879082e-05
0.00030921498
4.918491e-05
0.00029202773
5.1372399e-05
0.00027414991
5.3436658e-05
0.00025562428
5.5373088e-05
0.00023649505
5.717739e-05
0.00021680775
5.8845571e-05
0.00019660915
6.0373952e-05
0.00017594715
6.1759173e-05
0.00015487065
6.2998195e-05
0.00013342948
6.4088307e-05
0.00011167424
6.5027131e-05
8.9656228e-05
6.5812621e-05
6.7427314e-05
6.6443069e-05
4.5039821e-05
6.6917105e-05
2.2546417e-05
6.7233701e-05
6.7392171e-05
-2.2674186e-05
9.0066357e-05
-4.5295063e-05
8.9854578e-05
-6.7809436e-05
8.9431478e-05
-9.0164342e-05
8.8797975e-05
-0.00011230716
8.7955442e-05
-0.00013418574
8.6905709e-05
-0.00015574849
8.5651058e-05
-0.00017694452
8.4194223e-05
-0.00019772373
8.2538383e-05
-0.00021803693
8.0687158e-05
-0.00023783597
7.864461e-05
-0.00025707381
7.6415227e-05
-0.00027570465
7.4003928e-05
-0.00029368404
7.1416045e-05
-0.00031096896
6.8657324e-05
-0.00032751796
6.573391e-05
-0.00034329122
6.265234e-05
-0.00035825066
5.9419531e-05
-0.00037236003
5.6042768e-05
-0.00038558503
5.2529695e-05
-0.00039789333
4.8888293e-05
-0.00040925472
4.5126876e-05
-0.00041964115
4.1254066e-05
-0.00042902682
3.727878e-05
-0.00043738824
3.3210215e-05
-0.0004447043
2.9057823e-05
-0.00045095633
2.4831298e-05
-0.00045612816
2.0540548e-05
-0.00046020616
1.6195682e-05
-0.00046317929
1.180698e-05
-0.00046503914
7.3848747e-06
-0.00046577994
2.9399283e-06
-0.00046539863
-1.5171978e-06
-0.00046389483
-5.9757675e-06
-0.0004612709
-1.0424991e-05
-0.00045753191
-1.4854054e-05
-0.00045268564
-1.9252142e-05
-0.0004467426
-2.3608474e-05
-0.00043971601
-2.7912324e-05
-0.00043162175
-3.2153049e-05
-0.00042247836
-3.6320122e-05
-0.00041230699
-4.0403156e-05
-0.00040113136
-4.4391932e-05
-0.00038897773
-4.827643e-05
-0.00037587481
-5.2046854e-05
-0.00036185371
-5.569366e-05
-0.00034694789
-5.9207585e-05
-0.00033119306
-6.2579671e-05
-0.0003146271
-6.5801294e-05
-0.00029728995
-6.8864188e-05
-0.00027922358
-7.176047e-05
-0.0002604718
-7.4482663e-05
-0.00024108022
-7.7023721e-05
-0.00022109611
-7.9377049e-05
-0.00020056827
-8.1536526e-05
-0.00017954693
-8.3496519e-05
-0.0001580836
-8.5251908e-05
-0.00013623095
-8.6798098e-05
-0.00011404268
-8.8131033e-05
-9.1573371e-05
-8.9247215e-05
-6.8878327e-05
-9.0143708e-05
-4.6013462e-05
-9.0818153e-05
-2.3035134e-05
-9.1268772e-05
1.9479882e-13
-9.149438e-05
2.3035135e-05
-9.149438e-05
4.6013462e-05
-9.1268772e-05
6.8878327e-05
-9.0818153e-05
9.1573371e-05
-9.0143708e-05
0.00011404269
-8.9247215e-05
0.00013623095
-8.8131033e-05
0.0001580836
-8.6798098e-05
0.00017954693
-8.5251908e-05
0.00020056827
-8.3496519e-05
0.00022109611
-8.1536526e-05
0.00024108022
-7.9377049e-05
0.0002604718
-7.7023721e-05
0.00027922358
-7.4482663e-05
0.00029728995
-7.176047e-05
0.0003146271
-6.8864188e-05
0.00033119306
-6.5801294e-05
0.00034694789
-6.2579671e-05
0.00036185371
-5.9207585e-05
0.00037587481
-5.569366e-05
0.00038897773
-5.2046854e-05
0.00040113136
-4.827643e-05
0.00041230699
-4.4391932e-05
0.00042247836
-4.0403156e-05
0.00043162175
-3.6320122e-05
0.00043971601
-3.2153049e-05
0.0004467426
-2.7912324e-05
0.00045268564
-2.3608474e-05
0.00045753191
-1.9252142e-05
0.0004612709
-1.4854054e-05
0.00046389483
-1.0424991e-05
0.00046539863
-5.9757675e-06
0.00046577994
-1.5171977e-06
0.00046503914
2.9399284e-06
0.00046317929
7.3848748e-06
0.00046020616
1.180698e-05
0.00045612816
1.6195682e-05
0.00045095633
2.0540548e-05
0.0004447043
2.4831298e-05
0.00043738824
2.9057823e-05
0.00042902682
3.3210215e-05
0.00041964115
3.727878e-05
0.00040925472
4.1254066e-05
0.00039789333
4.5126876e-05
0.00038558503
4.8888294e-05
0.00037236003
5.2529695e-05
0.00035825066
5.6042769e-05
0.00034329122
5.9419531e-05
0.00032751796
6.265234e-05
0.00031096896
6.573391e-05
0.00029368404
6.8657324e-05
0.00027570465
7.1416045e-05
0.00025707381
7.4003928e-05
0.00023783597
7.6415227e-05
0.00021803693
7.864461e-05
0.00019772373
8.0687158e-05
0.00017694452
8.2538383e-05
0.00015574849
8.4194223e-05
0.00013418574
8.5651058e-05
0.00011230716
8.6905709e-05
9.0164341e-05
8.7955442e-05
6.7809436e-05
8.8797975e-05
4.5295063e-05
8.9431478e-05
2.2674186e-05
8.9854578e-05
9.0066357e-05
-2.2836574e-05
0.00011290293
-4.5619459e-05
0.00011263746
-6.8295084e-05
0.0001121071
-9.081011e-05
0.000111313
-0.00011311154
0.00011025688
-0.00013514686
0.00010894102
-0.0001568641
0.0001073683
-0.00017821201
0.00010554214
-0.00019914015
0.00010346651
-0.00021959896
0.00010114597
-0.00023953995
9.8585597e-05
-0.00025891574
9.5791018e-05
-0.00027768021
9.2768396e-05
-0.00029578858
8.9524419e-05
-0.00031319754
8.6066285e-05
-0.00032986533
8.2401697e-05
-0.00034575184
7.8538849e-05
-0.00036081872
7.448641e-05
-0.00037502946
7.0253514e-05
-0.0003883495
6.5849738e-05
-0.0004007463
6.128509e-05
-0.00041218941
5.6569989e-05
-0.00042265059
5.1715244e-05
-0.00043210385
4.6732033e-05
-0.00044052551
4.1631883e-05
-0.00044789434
3.6426645e-05
-0.00045419151
3.1128468e-05
-0.00045940073
2.5749776e-05
-0.00046350829
2.0303237e-05
-0.00046650305
1.4801741e-05
-0.00046837654
9.2583657e-06
-0.00046912296
3.6863484e-06
-0.00046873921
-1.9009457e-06
-0.00046722492
-7.4900559e-06
-0.00046458246
-1.3067457e-05
-0.00046081692
-1.8619592e-05
-0.00045593616
-2.4132907e-05
-0.00044995075
-2.9593884e-05
-0.00044287399
-3.4989078e-05
-0.00043472189
-4.0305149e-05
-0.00042551311
-4.55289e-05
-0.00041526896
-5.064731e-05
-0.00040401332
-5.5647569e-05
-0.00039177264
-6.0517116e-05
-0.00037857582
-6.5243669e-05
-0.00036445422
-6.9815265e-05
-0.00034944151
-7.4220292e-05
-0.00033357366
-7.8447519e-05
-0.00031688882
-8.2486134e-05
-0.00029942723
-8.6325775e-05
-0.00028123115
-8.9956559e-05
-0.0002623447
-9.3369111e-05
-0.00024281382
-9.6554597e-05
-0.00022268612
-9.950475e-05
-0.00020201075
-0.00010221189
-0.0001808383
-0.00010466897
-0.00015922066
-0.00010686955
-0.00013721088
-0.00010880788
-0.00011486305
-0.00011047887
-9.2232123e-05
-0.00011187814
-6.9373831e-05
-0.000113002
-4.6344485e-05
-0.0001138475
-2.3200852e-05
-0.00011441241
1.9450304e-13
-0.00011469523
2.3200853e-05
-0.00011469523
4.6344486e-05
-0.00011441241
6.9373832e-05
-0.0001138475
9.2232124e-05
-0.000113002
0.00011486305
-0.00011187814
0.00013721088
-0.00011047887
0.00015922066
-0.00010880788
0.0001808383
-0.00010686955
0.00020201075
-0.00010466897
0.00022268612
-0.00010221189
0.00024281382
-9.950475e-05
0.0002623447
-9.6554597e-05
0.00028123115
-9.3369111e-05
0.00029942723
-8.9956558e-05
0.00031688882
-8.6325775e-05
0.00033357366
-8.2486134e-05
0.00034944151
-7.8447519e-05
0.00036445422
-7.4220292e-05
0.00037857582
-6.9815265e-05
0.00039177264
-6.5243669e-05
0.00040401332
-6.0517116e-05
0.00041526896
-5.5647569e-05
0.00042551311
-5.064731e-05
0.00043472189
-4.55289e-05
0.00044287399
-4.0305149e-05
0.00044995075
-3.4989078e-05
0.00045593616
-2.9593884e-05
0.00046081692
-2.4132906e-05
0.00046458246
-1.8619592e-05
0.00046722492
-1.3067457e-05
0.00046873921
-7.4900558e-06
0.00046912296
-1.9009456e-06
0.00046837654
3.6863485e-06
0.00046650305
9.2583658e-06
0.00046350829
1.4801741e-05
0.00045940073
2.0303237e-05
0.00045419151
2.5749776e-05
0.00044789434
3.1128468e-05
0.00044052551
3.6426645e-05
0.00043210385
4.1631883e-05
0.00042265059
4.6732033e-05
0.00041218941
5.1715244e-05
0.0004007463
5.6569989e-05
0.0003883495
6.128509e-05
0.00037502946
6.5849738e-05
0.00036081872
7.0253514e-05
0.00034575184
7.4486411e-05
0.00032986533
7.8538849e-05
0.00031319754
8.2401697e-05
0.00029578858
8.6066285e-05
0.0002776802
8.9524419e-05
0.00025891574
9.2768396e-05
0.00023953995
9.5791018e-05
0.00021959896
9.8585597e-05
0.00019914015
0.00010114597
0.00017821201
0.00010346651
0.0001568641
0.00010554214
0.00013514686
0.0001073683
0.00011311154
0.00010894102
9.0810109e-05
0.00011025688
6.8295084e-05
0.000111313
4.5619458e-05
0.0001121071
2.2836573e-05
0.00011263746
0.00011290293
-2.3034167e-05
0.0001359371
-4.6014184e-05
0.00013561748
-6.8886019e-05
0.00013497894
-9.1595874e-05
0.00013402285
-0.0001140903
0.0001327513
-0.00013631632
0.00013116704
-0.00015822153
0.00012927351
-0.00017975423
0.00012707484
-0.00020086354
0.00012457582
-0.00022149949
0.00012178192
-0.00024161315
0.00011869926
-0.00026115674
0.00011533461
-0.00028008374
0.0001116954
-0.000298349
0.00010778967
-0.0003159088
0.00010362609
-0.00033272103
9.9213931e-05
-0.00034874524
9.456306e-05
-0.00036394275
8.9683913e-05
-0.00037827672
8.4587485e-05
-0.00039171229
7.9285309e-05
-0.00040421663
7.3789432e-05
-0.00041575904
6.81124e-05
-0.00042631102
6.2267225e-05
-0.00043584636
5.6267367e-05
-0.00044434118
5.0126704e-05
-0.00045177404
4.3859505e-05
-0.00045812597
3.7480398e-05
-0.00046338053
3.1004342e-05
-0.00046752389
2.444659e-05
-0.00047054481
1.7822662e-05
-0.00047243474
1.1148302e-05
-0.00047318785
4.4394502e-06
-0.00047280099
-2.2878029e-06
-0.00047127379
-9.0172492e-06
-0.00046860865
-1.5732604e-05
-0.0004648107
-2.2417544e-05
-0.00045988785
-2.905575e-05
-0.00045385079
-3.5630947e-05
-0.00044671292
-4.2126948e-05
-0.00043849038
-4.852769e-05
-0.000429202
-5.4817283e-05
-0.00041886926
-6.0980051e-05
-0.00040751625
-6.700057e-05
-0.00039516966
-7.2863715e-05
-0.00038185862
-7.85547e-05
-0.00036761477
-8.405912e-05
-0.00035247207
-8.9362991e-05
-0.0003364668
-9.4452794e-05
-0.00031963742
-9.9315507e-05
-0.00030202454
-0.00010393865
-0.00028367077
-0.00010831033
-0.00026462062
-0.00011241926
-0.00024492043
-0.00011625479
-0.00022461821
-0.00011980697
-0.00020376355
-0.00012306656
-0.00018240747
-0.00012602505
-0.00016060231
-0.00012867471
-0.00013840158
-0.0001310086
-0.00011585984
-0.00013302061
-9.3032549e-05
-0.00013470543
-6.9975897e-05
-0.00013605865
-4.6746696e-05
-0.0001370767
-2.3402207e-05
-0.00013775689
1.9408082e-13
-0.00013809744
2.3402208e-05
-0.00013809744
4.6746696e-05
-0.00013775689
6.9975897e-05
-0.0001370767
9.303255e-05
-0.00013605865
0.00011585984
-0.00013470543
0.00013840158
-0.00013302061
0.00016060231
-0.0001310086
0.00018240747
-0.00012867471
0.00020376355
-0.00012602505
0.00022461821
-0.00012306656
0.00024492043
-0.00011980697
0.00026462062
-0.00011625479
0.00028367077
-0.00011241926
0.00030202454
-0.00010831033
0.00031963742
-0.00010393865
0.0003364668
-9.9315507e-05
0.00035247207
-9.4452793e-05
0.00036761477
-8.9362991e-05
0.00038185863
-8.405912e-05
0.00039516966
-7.85547e-05
0.00040751625
-7.2863715e-05
0.00041886926
-6.700057e-05
0.000429202
-6.0980051e-05
0.00043849038
-5.4817283e-05
0.00044671292
-4.852769e-05
0.00045385079
-4.2126947e-05
0.00045988785
-3.5630947e-05
0.0004648107
-2.905575e-05
0.00046860865
-2.2417543e-05
0.00047127379
-1.5732604e-05
0.00047280099
-9.0172491e-06
0.00047318785
-2.2878028e-06
0.00047243474
4.4394503e-06
0.00047054481
1.1148303e-05
0.00046752389
1.7822662e-05
0.00046338053
2.444659e-05
0.00045812597
3.1004342e-05
0.00045177404
3.7480398e-05
0.00044434118
4.3859505e-05
0.00043584636
5.0126704e-05
0.00042631102
5.6267367e-05
0.00041575904
6.2267225e-05
0.00040421663
6.81124e-05
0.00039171229
7.3789432e-05
0.00037827672
7.9285309e-05
0.00036394275
8.4587485e-05
0.00034874524
8.9683913e-05
0.00033272103
9.456306e-05
0.0003159088
9.9213931e-05
0.00029834899
0.00010362609
0.00028008374
0.00010778967
0.00026115674
0.0001116954
0.00024161315
0.00011533461
0.00022149948
0.00011869926
0.00020086354
0.00012178192
0.00017975423
0.00012457582
0.00015822153
0.00012707484
0.00013631632
0.00012927351
0.0001140903
0.00013116704
9.1595873e-05
0.0001327513
6.8886019e-05
0.00013402285
4.6014184e-05
0.00013497894
2.3034167e-05
0.00013561748
0.0001359371
-2.3267679e-05
0.00015920478
-4.6480662e-05
0.00015883046
-6.9584372e-05
0.00015808265
-9.2524467e-05
0.00015696295
-0.00011524696
0.00015547379
-0.00013769834
0.00015361842
-0.00015982567
0.00015140084
-0.00018157673
0.0001488259
-0.00020290012
0.00014589921
-0.00022374537
0.00014262717
-0.00024406305
0.00013901694
-0.00026380491
0.00013507647
-0.00028292394
0.00013081443
-0.00030137452
0.00012624025
-0.00031911252
0.00012136409
-0.00033609538
0.00011619679
-0.00035228224
0.00011074992
-0.00036763402
0.00010503569
-0.00038211352
9.9066982e-05
-0.00039568551
9.28573e-05
-0.00040831683
8.6420755e-05
-0.00041997647
7.9772037e-05
-0.00043063563
7.2926388e-05
-0.00044026784
6.5899571e-05
-0.00044884897
5.870784e-05
-0.00045635737
5.1367906e-05
-0.00046277388
4.3896902e-05
-0.00046808188
3.6312346e-05
-0.0004722674
2.8632106e-05
-0.00047531909
2.0874355e-05
-0.00047722832
1.3057536e-05
-0.00047798919
5.200314e-06
-0.00047759853
-2.6784641e-06
-0.00047605596
-1.0559816e-05
-0.0004733639
-1.8424669e-05
-0.00046952753
-2.6253906e-05
-0.00046455487
-3.4028416e-05
-0.00045845667
-4.1729138e-05
-0.00045124651
-4.9337113e-05
-0.00044294067
-5.6833531e-05
-0.00043355817
-6.4199783e-05
-0.00042312071
-7.1417507e-05
-0.00041165264
-7.8468642e-05
-0.00039918088
-8.5335473e-05
-0.0003857349
-9.2000684e-05
-0.00037134662
-9.8447403e-05
-0.00035605035
-0.00010465925
-0.00033988275
-0.0001106204
-0.00032288267
-0.00011631559
-0.00030509111
-0.00012173021
-0.00028655111
-0.00012685033
-0.00026730765
-0.00013166272
-0.00024740752
-0.00013615491
-0.00022689924
-0.00014031526
-0.00020583287
-0.00014413292
-0.00018425998
-0.00014759794
-0.00016223342
-0.00015070127
-0.00013980726
-0.00015343476
-0.00011703661
-0.00015579126
-9.3977482e-05
-0.00015776456
-7.0686656e-05
-0.00015934948
-4.7221517e-05
-0.00016054184
-2.3639913e-05
-0.0001613385
1.9352665e-13
-0.00016173735
2.3639913e-05
-0.00016173735
4.7221517e-05
-0.0001613385
7.0686656e-05
-0.00016054184
9.3977483e-05
-0.00015934948
0.00011703661
-0.00015776456
0.00013980726
-0.00015579126
0.00016223342
-0.00015343476
0.00018425998
-0.00015070127
0.00020583287
-0.00014759794
0.00022689924
-0.00014413292
0.00024740752
-0.00014031526
0.00026730765
-0.00013615491
0.00028655111
-0.00013166272
0.00030509111
-0.00012685033
0.00032288267
-0.00012173021
0.00033988275
-0.00011631559
0.00035605035
-0.0001106204
0.00037134662
-0.00010465925
0.0003857349
-9.8447403e-05
0.00039918088
-9.2000683e-05
0.00041165264
-8.5335473e-05
0.00042312071
-7.8468642e-05
0.00043355817
-7.1417507e-05
0.00044294067
-6.4199782e-05
0.00045124651
-5.6833531e-05
0.00045845668
-4.9337113e-05
0.00046455487
-4.1729138e-05
0.00046952753
-3.4028416e-05
0.0004733639
-2.6253906e-05
0.00047605596
-1.8424669e-05
0.00047759853
-1.0559816e-05
0.00047798919
-2.678464e-06
0.00047722832
5.2003141e-06
0.00047531909
1.3057536e-05
0.0004722674
2.0874355e-05
0.00046808188
2.8632106e-05
0.00046277388
3.6312346e-05
0.00045635737
4.3896902e-05
0.00044884897
5.1367906e-05
0.00044026784
5.870784e-05
0.00043063563
6.5899571e-05
0.00041997647
7.2926388e-05
0.00040831683
7.9772037e-05
0.00039568551
8.6420755e-05
0.00038211352
9.28573e-05
0.00036763402
9.9066982e-05
0.00035228224
0.00010503569
0.00033609538
0.00011074992
0.00031911252
0.00011619679
0.00030137452
0.00012136409
0.00028292394
0.00012624025
0.00026380491
0.00013081443
0.00024406305
0.00013507647
0.00022374537
0.00013901694
0.00020290012
0.00014262717
0.00018157673
0.00014589921
0.00015982567
0.0001488259
0.00013769834
0.00015140084
0.00011524696
0.00015361842
9.2524467e-05
0.00015547379
6.9584372e-05
0.00015696295
4.6480662e-05
0.00015808265
2.3267679e-05
0.00015883046
0.00015920478
-2.3537962e-05
0.00018274274
-4.7020595e-05
0.0001823131
-7.0392691e-05
0.00018145474
-9.3599278e-05
0.00018016954
-0.00011658575
0.00017846026
-0.00013929796
0.00017633063
-0.00016168237
0.00017378526
-0.00018368616
0.00017082969
-0.00020525732
0.00016747038
-0.00022634481
0.00016371465
-0.00024689861
0.00015957075
-0.00026686991
0.00015504777
-0.00028621116
0.00015015568
-0.00030487621
0.0001449053
-0.0003228204
0.00013930828
-0.00034000069
0.00013337709
-0.00035637574
0.00012712497
-0.00037190601
0.00012056596
-0.00038655386
0.00011371483
-0.00040028366
0.0001065871
-0.00041306186
9.9198953e-05
-0.00042485707
9.1567254e-05
-0.00043564018
8.3709499e-05
-0.0004453844
7.5643782e-05
-0.00045406532
6.7388761e-05
-0.00046166103
5.8963617e-05
-0.00046815214
5.0388018e-05
-0.00047352187
4.1682073e-05
-0.00047775606
3.2866292e-05
-0.00048084324
2.3961537e-05
-0.00048277468
1.4988976e-05
-0.0004835444
5.970036e-06
-0.00048314922
-3.0736504e-06
-0.00048158874
-1.2120294e-05
-0.00047886541
-2.1148001e-05
-0.00047498448
-3.013483e-05
-0.00046995405
-3.9058844e-05
-0.00046378503
-4.7898164e-05
-0.00045649111
-5.6631028e-05
-0.0004480888
-6.5235848e-05
-0.00043859732
-7.3691262e-05
-0.00042803863
-8.1976196e-05
-0.00041643735
-9.0069918e-05
-0.00040382073
-9.7952096e-05
-0.00039021856
-0.00010560285
-0.00037566314
-0.00011300282
-0.00036018919
-0.00012013321
-0.00034383376
-0.00012697583
-0.00032663617
-0.00013351318
-0.00030863789
-0.00013972849
-0.00028988246
-0.00014560576
-0.00027041538
-0.0001511298
-0.00025028399
-0.00015628631
-0.00022953734
-0.0001610619
-0.00020822612
-0.00016544415
-0.00018640245
-0.00016942161
-0.00016411983
-0.00017298389
-0.00014143294
-0.00017612165
-0.00011839754
-0.00017882666
-9.5070293e-05
-0.00018109181
-7.1508642e-05
-0.00018291113
-4.7770642e-05
-0.00018427984
-2.3914816e-05
-0.00018519432
1.9283226e-13
-0.00018565217
2.3914816e-05
-0.00018565217
4.7770642e-05
-0.00018519432
7.1508642e-05
-0.00018427984
9.5070294e-05
-0.00018291113
0.00011839754
-0.00018109181
0.00014143294
-0.00017882666
0.00016411983
-0.00017612165
0.00018640245
-0.00017298389
0.00020822612
-0.00016942161
0.00022953734
-0.00016544415
0.00025028399
-0.0001610619
0.00027041538
-0.00015628631
0.00028988246
-0.0001511298
0.00030863789
-0.00014560576
0.00032663617
-0.00013972849
0.00034383376
-0.00013351318
0.00036018919
-0.00012697583
0.00037566314
-0.00012013321
0.00039021856
-0.00011300282
0.00040382073
-0.00010560285
0.00041643735
-9.7952096e-05
0.00042803863
-9.0069918e-05
0.00043859732
-8.1976196e-05
0.0004480888
-7.3691262e-05
0.00045649111
-6.5235847e-05
0.00046378503
-5.6631028e-05
0.00046995405
-4.7898163e-05
0.00047498448
-3.9058844e-05
0.00047886541
-3.013483e-05
0.00048158874
-2.1148001e-05
0.00048314922
-1.2120293e-05
0.0004835444
-3.0736502e-06
0.00048277468
5.9700362e-06
0.00048084324
1.4988976e-05
0.00047775606
2.3961537e-05
0.00047352187
3.2866293e-05
0.00046815214
4.1682074e-05
0.00046166103
5.0388018e-05
0.00045406532
5.8963617e-05
0.0004453844
6.7388761e-05
0.00043564018
7.5643783e-05
0.00042485707
8.37095e-05
0.00041306185
9.1567255e-05
0.00040028366
9.9198953e-05
0.00038655386
0.0001065871
0.00037190601
0.00011371483
0.00035637574
0.00012056596
0.00034000069
0.00012712497
0.0003228204
0.00013337709
0.00030487621
0.00013930828
0.00028621116
0.0001449053
0.00026686991
0.00015015568
0.00024689861
0.00015504777
0.00022634481