/*--------------------------------*- C++ -*----------------------------------*\
| =========                 |                                                 |
| \\      /  F ield         | OpenFOAM: The Open Source CFD Toolbox           |
|  \\    /   O peration     | Version:  2106                                  |
|   \\  /    A nd           | Website:  www.openfoam.com                      |
|    \\/     M anipulation  |                                                 |
\*---------------------------------------------------------------------------*/
FoamFile
{
    version     2.0;
    format      ascii;
    arch        "LSB;label=32;scalar=64";
    class       surfaceScalarField;
    location    "0.046";
    object      phi;
}
// * * * * * * * * * * * * * * * * * * * * * * * * * * * * * * * * * * * * * //

dimensions      [0 3 -1 0 0 0 0];

oriented        oriented;

internalField   nonuniform List<scalar> 
130560
(
8.5426452e-07
-8.5426452e-07
1.7079754e-06
-8.5371083e-07
2.5605792e-06
-8.5260389e-07
3.4115238e-06
-8.5094454e-07
4.2602578e-06
-8.4873406e-07
5.106232e-06
-8.4597416e-07
5.948899e-06
-8.4266697e-07
6.787714e-06
-8.3881501e-07
7.6221353e-06
-8.3442127e-07
8.4516244e-06
-8.294891e-07
9.2756467e-06
-8.240223e-07
1.0093672e-05
-8.1802506e-07
1.0905174e-05
-8.1150196e-07
1.1709632e-05
-8.04458e-07
1.250653e-05
-7.9689855e-07
1.329536e-05
-7.8882937e-07
1.4075616e-05
-7.8025659e-07
1.4846803e-05
-7.7118674e-07
1.560843e-05
-7.6162667e-07
1.6360013e-05
-7.5158363e-07
1.7101078e-05
-7.4106519e-07
1.7831158e-05
-7.3007927e-07
1.8549792e-05
-7.1863412e-07
1.925653e-05
-7.0673831e-07
1.9950931e-05
-6.9440073e-07
2.0632561e-05
-6.8163057e-07
2.1300999e-05
-6.6843732e-07
2.195583e-05
-6.5483075e-07
2.259665e-05
-6.408209e-07
2.3223068e-05
-6.2641808e-07
2.3834701e-05
-6.1163286e-07
2.4431177e-05
-5.9647605e-07
2.5012136e-05
-5.8095867e-07
2.5577228e-05
-5.6509198e-07
2.6126116e-05
-5.4888746e-07
2.6658472e-05
-5.3235676e-07
2.7173984e-05
-5.1551174e-07
2.7672348e-05
-4.9836443e-07
2.8153275e-05
-4.80927e-07
2.8616487e-05
-4.6321181e-07
2.9061719e-05
-4.4523133e-07
2.9488717e-05
-4.2699816e-07
2.9897242e-05
-4.0852504e-07
3.0287067e-05
-3.8982479e-07
3.0657977e-05
-3.7091033e-07
3.1009772e-05
-3.5179466e-07
3.1342262e-05
-3.3249085e-07
3.1655274e-05
-3.1301204e-07
3.1948646e-05
-2.933714e-07
3.2222228e-05
-2.7358213e-07
3.2475885e-05
-2.5365747e-07
3.2709496e-05
-2.3361067e-07
3.2922951e-05
-2.1345497e-07
3.3116155e-05
-1.9320362e-07
3.3289025e-05
-1.7286984e-07
3.3441491e-05
-1.524668e-07
3.3573499e-05
-1.3200767e-07
3.3685005e-05
-1.1150554e-07
3.3775978e-05
-9.0973453e-08
3.3846402e-05
-7.042437e-08
3.3896274e-05
-4.9871185e-08
3.39256e-05
-2.9326697e-08
3.3934404e-05
-8.8036139e-09
3.3922718e-05
1.1685462e-08
3.389059e-05
3.212805e-08
3.3838079e-05
5.2511822e-08
3.3765254e-05
7.2824494e-08
3.36722e-05
9.3053988e-08
3.3559012e-05
1.1318836e-07
3.3425796e-05
1.3321579e-07
3.3272671e-05
1.5312466e-07
3.3099768e-05
1.7290348e-07
3.2907227e-05
1.9254094e-07
3.2695201e-05
2.1202591e-07
3.2463853e-05
2.3134742e-07
3.2213359e-05
2.5049472e-07
3.1943902e-05
2.6945723e-07
3.1655677e-05
2.8822456e-07
3.134889e-05
3.0678652e-07
3.1023757e-05
3.2513313e-07
3.0680503e-05
3.4325461e-07
3.0319361e-05
3.6114139e-07
2.9940577e-05
3.787841e-07
2.9544404e-05
3.9617361e-07
2.9131103e-05
4.1330097e-07
2.8700945e-05
4.3015747e-07
2.8254211e-05
4.4673461e-07
2.7791186e-05
4.6302412e-07
2.7312168e-05
4.7901794e-07
2.681746e-05
4.9470822e-07
2.6307373e-05
5.1008737e-07
2.5782225e-05
5.2514797e-07
2.5242342e-05
5.3988287e-07
2.4688057e-05
5.5428511e-07
2.4119709e-05
5.6834796e-07
2.3537644e-05
5.8206491e-07
2.2942214e-05
5.9542968e-07
2.2333778e-05
6.0843619e-07
2.17127e-05
6.2107859e-07
2.1079348e-05
6.3335124e-07
2.04341e-05
6.4524872e-07
1.9777334e-05
6.567658e-07
1.9109436e-05
6.678975e-07
1.8430797e-05
6.7863902e-07
1.7741812e-05
6.8898577e-07
1.7042878e-05
6.9893338e-07
1.63344e-05
7.0847766e-07
1.5616786e-05
7.1761465e-07
1.4890445e-05
7.2634055e-07
1.4155793e-05
7.346518e-07
1.3413248e-05
7.42545e-07
1.2663232e-05
7.5001697e-07
1.1906167e-05
7.5706469e-07
1.1142481e-05
7.6368536e-07
1.0372605e-05
7.6987634e-07
9.5969699e-06
7.756352e-07
8.8160103e-06
7.8095967e-07
8.0301626e-06
7.8584768e-07
7.2398653e-06
7.9029732e-07
6.4455584e-06
7.9430687e-07
5.6476836e-06
7.9787478e-07
4.8466839e-06
8.0099969e-07
4.0430035e-06
8.036804e-07
3.2370876e-06
8.0591588e-07
2.4293824e-06
8.0770529e-07
1.6203344e-06
8.0904794e-07
8.103911e-07
8.0994332e-07
1.2901916e-15
8.1039109e-07
-8.1039109e-07
8.1039109e-07
-1.6203344e-06
8.0994332e-07
-2.4293823e-06
8.0904794e-07
-3.2370876e-06
8.0770529e-07
-4.0430035e-06
8.0591588e-07
-4.8466839e-06
8.036804e-07
-5.6476836e-06
8.0099969e-07
-6.4455584e-06
7.9787478e-07
-7.2398653e-06
7.9430687e-07
-8.0301626e-06
7.9029732e-07
-8.8160103e-06
7.8584768e-07
-9.5969699e-06
7.8095967e-07
-1.0372605e-05
7.756352e-07
-1.1142481e-05
7.6987634e-07
-1.1906167e-05
7.6368536e-07
-1.2663232e-05
7.5706469e-07
-1.3413248e-05
7.5001697e-07
-1.4155793e-05
7.42545e-07
-1.4890445e-05
7.346518e-07
-1.5616786e-05
7.2634055e-07
-1.63344e-05
7.1761465e-07
-1.7042878e-05
7.0847766e-07
-1.7741812e-05
6.9893338e-07
-1.8430797e-05
6.8898577e-07
-1.9109436e-05
6.7863902e-07
-1.9777334e-05
6.678975e-07
-2.04341e-05
6.567658e-07
-2.1079348e-05
6.4524872e-07
-2.17127e-05
6.3335124e-07
-2.2333778e-05
6.2107859e-07
-2.2942214e-05
6.0843619e-07
-2.3537644e-05
5.9542968e-07
-2.4119709e-05
5.8206491e-07
-2.4688057e-05
5.6834796e-07
-2.5242342e-05
5.5428511e-07
-2.5782225e-05
5.3988287e-07
-2.6307373e-05
5.2514797e-07
-2.681746e-05
5.1008737e-07
-2.7312168e-05
4.9470822e-07
-2.7791186e-05
4.7901794e-07
-2.8254211e-05
4.6302412e-07
-2.8700945e-05
4.4673461e-07
-2.9131103e-05
4.3015747e-07
-2.9544404e-05
4.1330097e-07
-2.9940577e-05
3.9617361e-07
-3.0319361e-05
3.787841e-07
-3.0680503e-05
3.6114139e-07
-3.1023757e-05
3.4325461e-07
-3.134889e-05
3.2513313e-07
-3.1655677e-05
3.0678652e-07
-3.1943902e-05
2.8822456e-07
-3.2213359e-05
2.6945723e-07
-3.2463853e-05
2.5049473e-07
-3.2695201e-05
2.3134742e-07
-3.2907227e-05
2.1202591e-07
-3.3099768e-05
1.9254094e-07
-3.3272671e-05
1.7290348e-07
-3.3425796e-05
1.5312466e-07
-3.3559012e-05
1.3321579e-07
-3.36722e-05
1.1318836e-07
-3.3765254e-05
9.3053988e-08
-3.3838079e-05
7.2824494e-08
-3.389059e-05
5.2511822e-08
-3.3922718e-05
3.212805e-08
-3.3934404e-05
1.1685462e-08
-3.39256e-05
-8.8036138e-09
-3.3896274e-05
-2.9326697e-08
-3.3846402e-05
-4.9871184e-08
-3.3775978e-05
-7.042437e-08
-3.3685005e-05
-9.0973453e-08
-3.3573499e-05
-1.1150554e-07
-3.3441491e-05
-1.3200767e-07
-3.3289025e-05
-1.524668e-07
-3.3116155e-05
-1.7286984e-07
-3.2922951e-05
-1.9320362e-07
-3.2709496e-05
-2.1345497e-07
-3.2475885e-05
-2.3361067e-07
-3.2222228e-05
-2.5365747e-07
-3.1948646e-05
-2.7358213e-07
-3.1655274e-05
-2.933714e-07
-3.1342262e-05
-3.1301204e-07
-3.1009772e-05
-3.3249085e-07
-3.0657977e-05
-3.5179466e-07
-3.0287067e-05
-3.7091033e-07
-2.9897242e-05
-3.8982479e-07
-2.9488717e-05
-4.0852504e-07
-2.9061719e-05
-4.2699816e-07
-2.8616487e-05
-4.4523133e-07
-2.8153275e-05
-4.6321181e-07
-2.7672348e-05
-4.80927e-07
-2.7173984e-05
-4.9836443e-07
-2.6658472e-05
-5.1551174e-07
-2.6126116e-05
-5.3235676e-07
-2.5577228e-05
-5.4888746e-07
-2.5012136e-05
-5.6509198e-07
-2.4431177e-05
-5.8095867e-07
-2.3834701e-05
-5.9647605e-07
-2.3223068e-05
-6.1163286e-07
-2.259665e-05
-6.2641808e-07
-2.195583e-05
-6.408209e-07
-2.1300999e-05
-6.5483075e-07
-2.0632561e-05
-6.6843732e-07
-1.9950931e-05
-6.8163057e-07
-1.925653e-05
-6.9440073e-07
-1.8549792e-05
-7.0673831e-07
-1.7831158e-05
-7.1863412e-07
-1.7101078e-05
-7.3007927e-07
-1.6360013e-05
-7.4106519e-07
-1.560843e-05
-7.5158363e-07
-1.4846803e-05
-7.6162667e-07
-1.4075616e-05
-7.7118674e-07
-1.329536e-05
-7.8025659e-07
-1.250653e-05
-7.8882937e-07
-1.1709632e-05
-7.9689855e-07
-1.0905174e-05
-8.04458e-07
-1.0093672e-05
-8.1150196e-07
-9.2756467e-06
-8.1802506e-07
-8.4516244e-06
-8.240223e-07
-7.6221353e-06
-8.294891e-07
-6.787714e-06
-8.3442127e-07
-5.948899e-06
-8.3881501e-07
-5.106232e-06
-8.4266697e-07
-4.2602578e-06
-8.4597416e-07
-3.4115238e-06
-8.4873406e-07
-2.5605792e-06
-8.5094454e-07
-1.7079754e-06
-8.5260389e-07
-8.5426452e-07
-8.5371084e-07
-8.5426452e-07
8.5528513e-07
-1.7095497e-06
1.7100159e-06
-1.7084416e-06
2.5636384e-06
-1.7062264e-06
3.4155996e-06
-1.7029057e-06
4.2653476e-06
-1.6984821e-06
5.1123324e-06
-1.692959e-06
5.956006e-06
-1.6863406e-06
6.795823e-06
-1.678632e-06
7.6312409e-06
-1.6698392e-06
8.4617208e-06
-1.659969e-06
9.2867273e-06
-1.6490288e-06
1.0105729e-05
-1.6370271e-06
1.09182e-05
-1.623973e-06
1.1723619e-05
-1.6098766e-06
1.2521469e-05
-1.5947486e-06
1.331124e-05
-1.5786005e-06
1.4092428e-05
-1.5614446e-06
1.4864535e-05
-1.543294e-06
1.5627071e-05
-1.5241623e-06
1.6379552e-05
-1.5040642e-06
1.7121501e-05
-1.4830146e-06
1.7852451e-05
-1.4610295e-06
1.8571943e-05
-1.4381254e-06
1.9279524e-05
-1.4143195e-06
1.9974752e-05
-1.3896295e-06
2.0657196e-05
-1.3640738e-06
2.132643e-05
-1.3376714e-06
2.1982041e-05
-1.3104419e-06
2.2623625e-05
-1.2824053e-06
2.3250789e-05
-1.2535823e-06
2.3863151e-05
-1.2239941e-06
2.4460337e-05
-1.1936622e-06
2.5041987e-05
-1.1626088e-06
2.5607751e-05
-1.1308563e-06
2.6157292e-05
-1.0984277e-06
2.6690281e-05
-1.0653465e-06
2.7206406e-05
-1.0316361e-06
2.7705362e-05
-9.9732089e-07
2.818686e-05
-9.6242506e-07
2.8650622e-05
-9.2697336e-07
2.9096381e-05
-8.9099077e-07
2.9523886e-05
-8.5450252e-07
2.9932895e-05
-8.1753406e-07
3.0323181e-05
-7.8011108e-07
3.069453e-05
-7.4225942e-07
3.104674e-05
-7.0400511e-07
3.1379624e-05
-6.6537431e-07
3.1693005e-05
-6.2639328e-07
3.1986722e-05
-5.870884e-07
3.2260626e-05
-5.474861e-07
3.2514581e-05
-5.0761286e-07
3.2748466e-05
-4.674952e-07
3.2962171e-05
-4.2715963e-07
3.31556e-05
-3.8663263e-07
3.332867e-05
-3.4594068e-07
3.3481314e-05
-3.0511015e-07
3.3613474e-05
-2.6416738e-07
3.3725107e-05
-2.2313856e-07
3.3816183e-05
-1.8204979e-07
3.3886686e-05
-1.4092703e-07
3.393661e-05
-9.9796073e-08
3.3965966e-05
-5.8682532e-08
3.3974774e-05
-1.7611835e-08
3.3963069e-05
2.3390803e-08
3.3930897e-05
6.4300406e-08
3.3878316e-05
1.0509225e-07
3.3805399e-05
1.4574182e-07
3.3712228e-05
1.8622492e-07
3.3598899e-05
2.2651764e-07
3.3465518e-05
2.6659636e-07
3.3312205e-05
3.0643779e-07
3.313909e-05
3.4601894e-07
3.2946313e-05
3.8531718e-07
3.2734029e-05
4.2431024e-07
3.25024e-05
4.629762e-07
3.2251602e-05
5.0129349e-07
3.1981818e-05
5.3924096e-07
3.1693245e-05
5.7679782e-07
3.1386087e-05
6.1394369e-07
3.1060562e-05
6.5065858e-07
3.0716894e-05
6.8692292e-07
3.0355317e-05
7.2271756e-07
2.9976078e-05
7.5802377e-07
2.9579428e-05
7.9282324e-07
2.9165631e-05
8.270981e-07
2.8734958e-05
8.608309e-07
2.8287688e-05
8.9400463e-07
2.7824109e-05
9.2660274e-07
2.7344518e-05
9.5860909e-07
2.6849218e-05
9.9000801e-07
2.6338521e-05
1.0207843e-06
2.5812746e-05
1.050923e-06
2.5272219e-05
1.08041e-06
2.4717273e-05
1.1092313e-06
2.4148247e-05
1.1373733e-06
2.3565489e-05
1.1648232e-06
2.2969351e-05
1.1915682e-06
2.236019e-05
1.2175963e-06
2.1738373e-05
1.2428958e-06
2.1104269e-05
1.2674553e-06
2.0458254e-05
1.291264e-06
1.9800708e-05
1.3143114e-06
1.9132018e-05
1.3365877e-06
1.8452574e-05
1.3580831e-06
1.7762771e-05
1.3787885e-06
1.706301e-05
1.3986952e-06
1.6353693e-05
1.4177947e-06
1.5635228e-05
1.4360791e-06
1.4908028e-05
1.453541e-06
1.4172507e-05
1.470173e-06
1.3429083e-05
1.4859684e-06
1.2678179e-05
1.5009209e-06
1.192022e-05
1.5150244e-06
1.1155632e-05
1.5282733e-06
1.0384846e-05
1.5406623e-06
9.6082941e-06
1.5521866e-06
8.8264122e-06
1.5628416e-06
8.0396366e-06
1.5726232e-06
7.2484064e-06
1.5815276e-06
6.453162e-06
1.5895512e-06
5.6543457e-06
1.5966911e-06
4.8524009e-06
1.6029445e-06
4.0477723e-06
1.608309e-06
3.2409057e-06
1.6127825e-06
2.4322477e-06
1.6163633e-06
1.6222455e-06
1.6190501e-06
8.1134689e-07
1.6208419e-06
1.2937822e-15
1.621738e-06
-8.1134688e-07
1.621738e-06
-1.6222455e-06
1.6208419e-06
-2.4322477e-06
1.6190501e-06
-3.2409057e-06
1.6163633e-06
-4.0477723e-06
1.6127825e-06
-4.8524009e-06
1.608309e-06
-5.6543457e-06
1.6029445e-06
-6.453162e-06
1.5966911e-06
-7.2484064e-06
1.5895512e-06
-8.0396366e-06
1.5815276e-06
-8.8264122e-06
1.5726232e-06
-9.6082941e-06
1.5628416e-06
-1.0384846e-05
1.5521866e-06
-1.1155632e-05
1.5406623e-06
-1.192022e-05
1.5282733e-06
-1.2678179e-05
1.5150244e-06
-1.3429083e-05
1.5009209e-06
-1.4172507e-05
1.4859684e-06
-1.4908028e-05
1.470173e-06
-1.5635228e-05
1.453541e-06
-1.6353693e-05
1.4360791e-06
-1.706301e-05
1.4177947e-06
-1.7762771e-05
1.3986952e-06
-1.8452574e-05
1.3787885e-06
-1.9132018e-05
1.3580831e-06
-1.9800708e-05
1.3365877e-06
-2.0458254e-05
1.3143114e-06
-2.1104269e-05
1.291264e-06
-2.1738373e-05
1.2674553e-06
-2.236019e-05
1.2428958e-06
-2.2969351e-05
1.2175963e-06
-2.3565489e-05
1.1915682e-06
-2.4148247e-05
1.1648232e-06
-2.4717273e-05
1.1373733e-06
-2.5272219e-05
1.1092313e-06
-2.5812746e-05
1.08041e-06
-2.6338521e-05
1.050923e-06
-2.6849218e-05
1.0207843e-06
-2.7344518e-05
9.9000801e-07
-2.7824109e-05
9.5860909e-07
-2.8287688e-05
9.2660274e-07
-2.8734958e-05
8.9400463e-07
-2.9165631e-05
8.608309e-07
-2.9579428e-05
8.270981e-07
-2.9976078e-05
7.9282325e-07
-3.0355317e-05
7.5802377e-07
-3.0716894e-05
7.2271756e-07
-3.1060562e-05
6.8692292e-07
-3.1386087e-05
6.5065858e-07
-3.1693245e-05
6.1394369e-07
-3.1981818e-05
5.7679782e-07
-3.2251602e-05
5.3924096e-07
-3.25024e-05
5.0129349e-07
-3.2734029e-05
4.629762e-07
-3.2946313e-05
4.2431024e-07
-3.313909e-05
3.8531718e-07
-3.3312205e-05
3.4601894e-07
-3.3465518e-05
3.0643779e-07
-3.3598899e-05
2.6659636e-07
-3.3712228e-05
2.2651764e-07
-3.3805399e-05
1.8622492e-07
-3.3878316e-05
1.4574182e-07
-3.3930897e-05
1.0509225e-07
-3.3963069e-05
6.4300406e-08
-3.3974774e-05
2.3390803e-08
-3.3965966e-05
-1.7611835e-08
-3.393661e-05
-5.8682532e-08
-3.3886686e-05
-9.9796073e-08
-3.3816183e-05
-1.4092703e-07
-3.3725107e-05
-1.8204979e-07
-3.3613474e-05
-2.2313856e-07
-3.3481314e-05
-2.6416738e-07
-3.332867e-05
-3.0511015e-07
-3.31556e-05
-3.4594068e-07
-3.2962171e-05
-3.8663263e-07
-3.2748466e-05
-4.2715963e-07
-3.2514581e-05
-4.674952e-07
-3.2260626e-05
-5.0761286e-07
-3.1986722e-05
-5.474861e-07
-3.1693005e-05
-5.870884e-07
-3.1379624e-05
-6.2639328e-07
-3.104674e-05
-6.6537431e-07
-3.069453e-05
-7.0400511e-07
-3.0323181e-05
-7.4225942e-07
-2.9932895e-05
-7.8011108e-07
-2.9523886e-05
-8.1753406e-07
-2.9096381e-05
-8.5450252e-07
-2.8650622e-05
-8.9099077e-07
-2.818686e-05
-9.2697336e-07
-2.7705362e-05
-9.6242506e-07
-2.7206406e-05
-9.9732088e-07
-2.6690281e-05
-1.0316361e-06
-2.6157292e-05
-1.0653465e-06
-2.5607751e-05
-1.0984277e-06
-2.5041987e-05
-1.1308563e-06
-2.4460337e-05
-1.1626088e-06
-2.3863151e-05
-1.1936622e-06
-2.3250789e-05
-1.2239941e-06
-2.2623625e-05
-1.2535823e-06
-2.1982041e-05
-1.2824053e-06
-2.132643e-05
-1.3104419e-06
-2.0657196e-05
-1.3376714e-06
-1.9974752e-05
-1.3640738e-06
-1.9279524e-05
-1.3896295e-06
-1.8571943e-05
-1.4143195e-06
-1.7852451e-05
-1.4381254e-06
-1.7121501e-05
-1.4610295e-06
-1.6379552e-05
-1.4830146e-06
-1.5627071e-05
-1.5040642e-06
-1.4864535e-05
-1.5241623e-06
-1.4092428e-05
-1.543294e-06
-1.331124e-05
-1.5614446e-06
-1.2521469e-05
-1.5786005e-06
-1.1723619e-05
-1.5947486e-06
-1.09182e-05
-1.6098766e-06
-1.0105729e-05
-1.623973e-06
-9.2867273e-06
-1.6370271e-06
-8.4617208e-06
-1.6490288e-06
-7.631241e-06
-1.659969e-06
-6.795823e-06
-1.6698392e-06
-5.956006e-06
-1.678632e-06
-5.1123324e-06
-1.6863406e-06
-4.2653476e-06
-1.692959e-06
-3.4155996e-06
-1.6984821e-06
-2.5636384e-06
-1.7029057e-06
-1.7100159e-06
-1.7062264e-06
-8.5528513e-07
-1.7084416e-06
-1.7095497e-06
8.5704446e-07
-2.5665941e-06
1.7135335e-06
-2.5649306e-06
2.5689119e-06
-2.5616049e-06
3.4226257e-06
-2.5566195e-06
4.2741219e-06
-2.5499783e-06
5.1228493e-06
-2.5416863e-06
5.9682588e-06
-2.5317501e-06
6.8098039e-06
-2.5201771e-06
7.6469411e-06
-2.5069764e-06
8.4791302e-06
-2.4921581e-06
9.3058349e-06
-2.4757335e-06
1.0126523e-05
-2.4577152e-06
1.0940667e-05
-2.438117e-06
1.1747744e-05
-2.4169538e-06
1.2547238e-05
-2.394242e-06
1.3338636e-05
-2.3699986e-06
1.4121433e-05
-2.3442423e-06
1.4895132e-05
-2.3169925e-06
1.565924e-05
-2.2882699e-06
1.6413272e-05
-2.2580963e-06
1.7156751e-05
-2.2264943e-06
1.788921e-05
-2.1934877e-06
1.8610186e-05
-2.1591015e-06
1.9319227e-05
-2.1233613e-06
2.0015892e-05
-2.0862937e-06
2.0699744e-05
-2.0479266e-06
2.1370361e-05
-2.0082882e-06
2.2027327e-05
-1.9674081e-06
2.2670238e-05
-1.9253163e-06
2.32987e-05
-1.8820438e-06
2.3912328e-05
-1.8376224e-06
2.4510751e-05
-1.7920846e-06
2.5093605e-05
-1.7454635e-06
2.5660542e-05
-1.6977928e-06
2.6211221e-05
-1.6491072e-06
2.6745316e-05
-1.5994415e-06
2.7262512e-05
-1.5488315e-06
2.7762504e-05
-1.4973132e-06
2.8245002e-05
-1.4449233e-06
2.8709728e-05
-1.3916988e-06
2.9156414e-05
-1.3376773e-06
2.9584808e-05
-1.2828965e-06
2.9994669e-05
-1.2273948e-06
3.0385769e-05
-1.1712107e-06
3.0757892e-05
-1.114383e-06
3.1110838e-05
-1.0569508e-06
3.1444417e-05
-9.9895323e-07
3.1758453e-05
-9.4042989e-07
3.2052785e-05
-8.8142031e-07
3.2327263e-05
-8.2196419e-07
3.2581752e-05
-7.6210127e-07
3.2816128e-05
-7.0187137e-07
3.3030283e-05
-6.4131429e-07
3.322412e-05
-5.804698e-07
3.3397557e-05
-5.1937762e-07
3.3550524e-05
-4.5807739e-07
3.3682965e-05
-3.966086e-07
3.3794837e-05
-3.3501062e-07
3.388611e-05
-2.7332262e-07
3.3956767e-05
-2.1158356e-07
3.4006803e-05
-1.4983217e-07
3.4036227e-05
-8.8106913e-08
3.4045061e-05
-2.6445964e-08
3.4033339e-05
3.5112826e-08
3.4001108e-05
9.6531952e-08
3.3948426e-05
1.5777427e-07
3.3875364e-05
2.1880302e-07
3.3782007e-05
2.7958186e-07
3.366845e-05
3.4007488e-07
3.35348e-05
4.0024661e-07
3.3381176e-05
4.6006209e-07
3.3207708e-05
5.1948682e-07
3.3014538e-05
5.7848682e-07
3.280182e-05
6.3702863e-07
3.2569717e-05
6.9507935e-07
3.2318404e-05
7.5260661e-07
3.2048066e-05
8.0957863e-07
3.1758899e-05
8.6596422e-07
3.145111e-05
9.2173276e-07
3.1124915e-05
9.7685426e-07
3.0780538e-05
1.0312993e-06
3.0418217e-05
1.0850392e-06
3.0038195e-05
1.1380458e-06
2.9640726e-05
1.1902916e-06
2.9226075e-05
1.2417497e-06
2.8794512e-05
1.292394e-06
2.8346317e-05
1.342199e-06
2.788178e-05
1.3911397e-06
2.7401197e-05
1.439192e-06
2.6904873e-05
1.4863324e-06
2.6393119e-05
1.5325379e-06
2.5866256e-05
1.5777863e-06
2.532461e-05
1.6220561e-06
2.4768515e-05
1.6653264e-06
2.4198311e-05
1.7075771e-06
2.3614346e-05
1.7487884e-06
2.3016972e-05
1.7889417e-06
2.240655e-05
1.8280185e-06
2.1783445e-05
1.8660013e-06
2.1148027e-05
1.9028733e-06
2.0500673e-05
1.938618e-06
1.9841764e-05
1.9732199e-06
1.9171688e-05
2.0066639e-06
1.8490835e-05
2.0389356e-06
1.7799603e-05
2.0700212e-06
1.709839e-05
2.0999076e-06
1.6387603e-05
2.1285823e-06
1.5667649e-05
2.1560332e-06
1.4938941e-05
2.1822491e-06
1.4201894e-05
2.2072192e-06
1.3456929e-05
2.2309333e-06
1.2704469e-05
2.2533818e-06
1.1944937e-05
2.2745558e-06
1.1178764e-05
2.2944467e-06
1.040638e-05
2.3130466e-06
9.6282179e-06
2.3303483e-06
8.8447146e-06
2.3463449e-06
8.0563076e-06
2.3610302e-06
7.2634367e-06
2.3743985e-06
6.4665433e-06
2.3864446e-06
5.6660705e-06
2.3971639e-06
4.8624628e-06
2.4065522e-06
4.0561658e-06
2.414606e-06
3.2476261e-06
2.4213222e-06
2.4372912e-06
2.4266982e-06
1.6256094e-06
2.430732e-06
8.130293e-07
2.433422e-06
1.2991085e-15
2.4347673e-06
-8.1302929e-07
2.4347673e-06
-1.6256094e-06
2.433422e-06
-2.4372912e-06
2.430732e-06
-3.2476261e-06
2.4266982e-06
-4.0561658e-06
2.4213222e-06
-4.8624628e-06
2.414606e-06
-5.6660705e-06
2.4065522e-06
-6.4665433e-06
2.3971639e-06
-7.2634367e-06
2.3864446e-06
-8.0563076e-06
2.3743985e-06
-8.8447146e-06
2.3610302e-06
-9.6282179e-06
2.3463449e-06
-1.040638e-05
2.3303483e-06
-1.1178764e-05
2.3130466e-06
-1.1944937e-05
2.2944467e-06
-1.2704469e-05
2.2745558e-06
-1.3456929e-05
2.2533818e-06
-1.4201894e-05
2.2309333e-06
-1.4938941e-05
2.2072192e-06
-1.5667649e-05
2.1822491e-06
-1.6387603e-05
2.1560332e-06
-1.709839e-05
2.1285823e-06
-1.7799603e-05
2.0999076e-06
-1.8490835e-05
2.0700212e-06
-1.9171688e-05
2.0389356e-06
-1.9841764e-05
2.0066639e-06
-2.0500673e-05
1.9732199e-06
-2.1148027e-05
1.938618e-06
-2.1783445e-05
1.9028733e-06
-2.240655e-05
1.8660013e-06
-2.3016972e-05
1.8280185e-06
-2.3614346e-05
1.7889417e-06
-2.4198311e-05
1.7487884e-06
-2.4768515e-05
1.7075771e-06
-2.532461e-05
1.6653264e-06
-2.5866256e-05
1.6220561e-06
-2.6393119e-05
1.5777863e-06
-2.6904873e-05
1.5325379e-06
-2.7401197e-05
1.4863324e-06
-2.788178e-05
1.439192e-06
-2.8346317e-05
1.3911397e-06
-2.8794512e-05
1.342199e-06
-2.9226075e-05
1.292394e-06
-2.9640726e-05
1.2417497e-06
-3.0038195e-05
1.1902916e-06
-3.0418217e-05
1.1380458e-06
-3.0780538e-05
1.0850392e-06
-3.1124915e-05
1.0312993e-06
-3.145111e-05
9.7685426e-07
-3.1758899e-05
9.2173276e-07
-3.2048066e-05
8.6596422e-07
-3.2318404e-05
8.0957863e-07
-3.2569717e-05
7.5260661e-07
-3.280182e-05
6.9507935e-07
-3.3014538e-05
6.3702863e-07
-3.3207708e-05
5.7848682e-07
-3.3381176e-05
5.1948682e-07
-3.35348e-05
4.6006209e-07
-3.366845e-05
4.0024661e-07
-3.3782007e-05
3.4007488e-07
-3.3875364e-05
2.7958186e-07
-3.3948426e-05
2.1880302e-07
-3.4001108e-05
1.5777427e-07
-3.4033339e-05
9.6531952e-08
-3.4045061e-05
3.5112826e-08
-3.4036227e-05
-2.6445964e-08
-3.4006803e-05
-8.8106913e-08
-3.3956767e-05
-1.4983217e-07
-3.388611e-05
-2.1158356e-07
-3.3794837e-05
-2.7332262e-07
-3.3682965e-05
-3.3501062e-07
-3.3550524e-05
-3.966086e-07
-3.3397557e-05
-4.5807739e-07
-3.322412e-05
-5.1937762e-07
-3.3030283e-05
-5.804698e-07
-3.2816128e-05
-6.4131429e-07
-3.2581752e-05
-7.0187137e-07
-3.2327263e-05
-7.6210127e-07
-3.2052785e-05
-8.2196419e-07
-3.1758453e-05
-8.8142031e-07
-3.1444417e-05
-9.4042989e-07
-3.1110838e-05
-9.9895323e-07
-3.0757892e-05
-1.0569508e-06
-3.0385769e-05
-1.114383e-06
-2.9994669e-05
-1.1712107e-06
-2.9584808e-05
-1.2273948e-06
-2.9156414e-05
-1.2828965e-06
-2.8709728e-05
-1.3376773e-06
-2.8245002e-05
-1.3916988e-06
-2.7762504e-05
-1.4449233e-06
-2.7262512e-05
-1.4973132e-06
-2.6745316e-05
-1.5488315e-06
-2.6211221e-05
-1.5994415e-06
-2.5660542e-05
-1.6491072e-06
-2.5093605e-05
-1.6977928e-06
-2.4510751e-05
-1.7454635e-06
-2.3912328e-05
-1.7920846e-06
-2.32987e-05
-1.8376224e-06
-2.2670238e-05
-1.8820438e-06
-2.2027327e-05
-1.9253163e-06
-2.1370361e-05
-1.9674081e-06
-2.0699744e-05
-2.0082882e-06
-2.0015892e-05
-2.0479266e-06
-1.9319227e-05
-2.0862937e-06
-1.8610186e-05
-2.1233613e-06
-1.788921e-05
-2.1591015e-06
-1.7156751e-05
-2.1934877e-06
-1.6413272e-05
-2.2264943e-06
-1.565924e-05
-2.2580963e-06
-1.4895132e-05
-2.2882699e-06
-1.4121433e-05
-2.3169925e-06
-1.3338636e-05
-2.3442423e-06
-1.2547238e-05
-2.3699986e-06
-1.1747744e-05
-2.394242e-06
-1.0940667e-05
-2.4169538e-06
-1.0126523e-05
-2.438117e-06
-9.3058349e-06
-2.4577152e-06
-8.4791302e-06
-2.4757335e-06
-7.6469411e-06
-2.4921581e-06
-6.8098039e-06
-2.5069764e-06
-5.9682588e-06
-2.5201771e-06
-5.1228493e-06
-2.5317501e-06
-4.2741219e-06
-2.5416863e-06
-3.4226257e-06
-2.5499783e-06
-2.5689119e-06
-2.5566195e-06
-1.7135335e-06
-2.5616049e-06
-8.5704447e-07
-2.5649306e-06
-2.5665941e-06
8.5953935e-07
-3.4261335e-06
1.7185217e-06
-3.4239129e-06
2.5763903e-06
-3.4194735e-06
3.4325896e-06
-3.4128187e-06
4.286565e-06
-3.4039537e-06
5.1377638e-06
-3.3928851e-06
5.9856353e-06
-3.3796216e-06
6.8296316e-06
-3.3641734e-06
7.6692075e-06
-3.3465523e-06
8.5038213e-06
-3.3267719e-06
9.3329352e-06
-3.3048474e-06
1.0156016e-05
-3.2807955e-06
1.0972533e-05
-3.2546346e-06
1.1781964e-05
-3.2263848e-06
1.258379e-05
-3.1960676e-06
1.3377497e-05
-3.1637061e-06
1.416258e-05
-3.129325e-06
1.4938538e-05
-3.0929503e-06
1.5704877e-05
-3.0546095e-06
1.6461113e-05
-3.0143318e-06
1.7206766e-05
-2.9721474e-06
1.7941366e-05
-2.9280881e-06
1.8664452e-05
-2.8821871e-06
1.9375569e-05
-2.8344787e-06
2.0074274e-05
-2.7849984e-06
2.0760131e-05
-2.7337833e-06
2.1432714e-05
-2.6808713e-06
2.2091607e-05
-2.6263016e-06
2.2736405e-05
-2.5701145e-06
2.3366713e-05
-2.5123513e-06
2.3982145e-05
-2.4530544e-06
2.4582327e-05
-2.3922671e-06
2.5166898e-05
-2.3300337e-06
2.5735504e-05
-2.2663993e-06
2.6287807e-05
-2.2014099e-06
2.6823478e-05
-2.1351123e-06
2.73422e-05
-2.067554e-06
2.784367e-05
-1.9987833e-06
2.8327596e-05
-1.9288489e-06
2.8793698e-05
-1.8578005e-06
2.9241708e-05
-1.785688e-06
2.9671374e-05
-1.712562e-06
3.0082452e-05
-1.6384735e-06
3.0474716e-05
-1.563474e-06
3.0847948e-05
-1.4876153e-06
3.1201947e-05
-1.4109496e-06
3.1536523e-05
-1.3335292e-06
3.18515e-05
-1.2554068e-06
3.2146715e-05
-1.1766352e-06
3.2422018e-05
-1.0972675e-06
3.2677273e-05
-1.0173567e-06
3.2912358e-05
-9.3695596e-07
3.3127162e-05
-8.5611836e-07
3.3321589e-05
-7.7489703e-07
3.3495557e-05
-6.9334499e-07
3.3648994e-05
-6.1151514e-07
3.3781846e-05
-5.2946021e-07
3.3894068e-05
-4.4723275e-07
3.3985631e-05
-3.6488504e-07
3.4056516e-05
-2.8246911e-07
3.4106721e-05
-2.0003665e-07
3.4136253e-05
-1.1763901e-07
3.4145134e-05
-3.5327137e-08
3.4133398e-05
4.6848425e-08
3.4101093e-05
1.2883761e-07
3.4048276e-05
2.1059083e-07
3.397502e-05
2.9205901e-07
3.3881408e-05
3.7319364e-07
3.3767536e-05
4.5394677e-07
3.3633512e-05
5.3427108e-07
3.3479454e-05
6.1411986e-07
3.3305494e-05
6.9344707e-07
3.3111773e-05
7.7220734e-07
3.2898446e-05
8.5035601e-07
3.2665676e-05
9.2784915e-07
3.2413639e-05
1.0046436e-06
3.2142521e-05
1.0806968e-06
3.1852518e-05
1.1559672e-06
3.1543837e-05
1.230414e-06
3.1216694e-05
1.303997e-06
3.0871317e-05
1.376677e-06
3.050794e-05
1.4484157e-06
3.012681e-05
1.5191756e-06
2.9728182e-05
1.5889198e-06
2.9312319e-05
1.6576126e-06
2.8879494e-05
1.725219e-06
2.8429988e-05
1.791705e-06
2.7964091e-05
1.8570373e-06
2.7482099e-05
1.9211836e-06
2.6984319e-05
1.9841125e-06
2.6471063e-05
2.0457934e-06
2.5942653e-05
2.1061968e-06
2.5399415e-05
2.1652937e-06
2.4841685e-05
2.2230565e-06
2.4269804e-05
2.279458e-06
2.3684121e-05
2.3344721e-06
2.3084989e-05
2.3880737e-06
2.2472769e-05
2.4402384e-06
2.1847827e-05
2.4909428e-06
2.1210536e-05
2.5401641e-06
2.0561274e-05
2.5878807e-06
1.9900422e-05
2.6340716e-06
1.9228369e-05
2.6787168e-06
1.8545507e-05
2.7217972e-06
1.7852234e-05
2.7632942e-06
1.7148952e-05
2.8031903e-06
1.6436065e-05
2.8414688e-06
1.5713985e-05
2.8781137e-06
1.4983124e-05
2.91311e-06
1.42439e-05
2.9464432e-06
1.3496733e-05
2.9780997e-06
1.2742048e-05
3.0080668e-06
1.1980272e-05
3.0363324e-06
1.1211833e-05
3.0628852e-06
1.0437165e-05
3.0877147e-06
9.6567025e-06
3.1108111e-06
8.8708821e-06
3.1321654e-06
8.0801432e-06
3.1517691e-06
7.284927e-06
3.1696147e-06
6.4856762e-06
3.1856953e-06
5.6828354e-06
3.2000047e-06
4.8768502e-06
3.2125374e-06
4.0681676e-06
3.2232886e-06
3.2572356e-06
3.2322542e-06
2.4445031e-06
3.2394307e-06
1.6304195e-06
3.2448155e-06
8.1543505e-07
3.2484065e-06
1.3079906e-15
3.2502023e-06
-8.1543504e-07
3.2502023e-06
-1.6304195e-06
3.2484065e-06
-2.4445031e-06
3.2448155e-06
-3.2572356e-06
3.2394307e-06
-4.0681676e-06
3.2322542e-06
-4.8768502e-06
3.2232886e-06
-5.6828354e-06
3.2125374e-06
-6.4856762e-06
3.2000047e-06
-7.284927e-06
3.1856953e-06
-8.0801432e-06
3.1696147e-06
-8.8708821e-06
3.1517691e-06
-9.6567025e-06
3.1321654e-06
-1.0437165e-05
3.1108111e-06
-1.1211833e-05
3.0877147e-06
-1.1980272e-05
3.0628852e-06
-1.2742048e-05
3.0363324e-06
-1.3496733e-05
3.0080668e-06
-1.42439e-05
2.9780997e-06
-1.4983124e-05
2.9464432e-06
-1.5713985e-05
2.91311e-06
-1.6436065e-05
2.8781137e-06
-1.7148952e-05
2.8414688e-06
-1.7852234e-05
2.8031903e-06
-1.8545507e-05
2.7632942e-06
-1.9228369e-05
2.7217972e-06
-1.9900422e-05
2.6787168e-06
-2.0561274e-05
2.6340716e-06
-2.1210536e-05
2.5878807e-06
-2.1847827e-05
2.5401641e-06
-2.2472769e-05
2.4909428e-06
-2.3084989e-05
2.4402384e-06
-2.3684121e-05
2.3880737e-06
-2.4269804e-05
2.3344721e-06
-2.4841685e-05
2.279458e-06
-2.5399415e-05
2.2230565e-06
-2.5942653e-05
2.1652937e-06
-2.6471063e-05
2.1061968e-06
-2.6984319e-05
2.0457934e-06
-2.7482099e-05
1.9841125e-06
-2.7964091e-05
1.9211836e-06
-2.8429988e-05
1.8570373e-06
-2.8879494e-05
1.791705e-06
-2.9312319e-05
1.725219e-06
-2.9728182e-05
1.6576126e-06
-3.012681e-05
1.5889198e-06
-3.050794e-05
1.5191756e-06
-3.0871317e-05
1.4484157e-06
-3.1216694e-05
1.376677e-06
-3.1543837e-05
1.303997e-06
-3.1852518e-05
1.230414e-06
-3.2142521e-05
1.1559672e-06
-3.2413639e-05
1.0806968e-06
-3.2665676e-05
1.0046436e-06
-3.2898446e-05
9.2784915e-07
-3.3111773e-05
8.5035601e-07
-3.3305494e-05
7.7220734e-07
-3.3479454e-05
6.9344707e-07
-3.3633512e-05
6.1411986e-07
-3.3767536e-05
5.3427108e-07
-3.3881408e-05
4.5394677e-07
-3.397502e-05
3.7319364e-07
-3.4048276e-05
2.9205901e-07
-3.4101093e-05
2.1059083e-07
-3.4133398e-05
1.2883761e-07
-3.4145134e-05
4.6848425e-08
-3.4136253e-05
-3.5327137e-08
-3.4106721e-05
-1.1763901e-07
-3.4056516e-05
-2.0003665e-07
-3.3985631e-05
-2.8246911e-07
-3.3894068e-05
-3.6488504e-07
-3.3781846e-05
-4.4723275e-07
-3.3648994e-05
-5.2946021e-07
-3.3495557e-05
-6.1151514e-07
-3.3321589e-05
-6.9334499e-07
-3.3127162e-05
-7.7489703e-07
-3.2912358e-05
-8.5611836e-07
-3.2677273e-05
-9.3695596e-07
-3.2422018e-05
-1.0173567e-06
-3.2146715e-05
-1.0972675e-06
-3.18515e-05
-1.1766352e-06
-3.1536523e-05
-1.2554068e-06
-3.1201947e-05
-1.3335292e-06
-3.0847948e-05
-1.4109496e-06
-3.0474716e-05
-1.4876153e-06
-3.0082452e-05
-1.563474e-06
-2.9671374e-05
-1.6384735e-06
-2.9241708e-05
-1.712562e-06
-2.8793698e-05
-1.785688e-06
-2.8327596e-05
-1.8578005e-06
-2.784367e-05
-1.9288489e-06
-2.73422e-05
-1.9987833e-06
-2.6823478e-05
-2.067554e-06
-2.6287807e-05
-2.1351123e-06
-2.5735504e-05
-2.2014099e-06
-2.5166898e-05
-2.2663993e-06
-2.4582327e-05
-2.3300337e-06
-2.3982145e-05
-2.3922671e-06
-2.3366713e-05
-2.4530544e-06
-2.2736405e-05
-2.5123513e-06
-2.2091607e-05
-2.5701145e-06
-2.1432714e-05
-2.6263016e-06
-2.0760131e-05
-2.6808713e-06
-2.0074274e-05
-2.7337833e-06
-1.9375569e-05
-2.7849984e-06
-1.8664452e-05
-2.8344787e-06
-1.7941366e-05
-2.8821871e-06
-1.7206766e-05
-2.9280881e-06
-1.6461113e-05
-2.9721474e-06
-1.5704877e-05
-3.0143318e-06
-1.4938538e-05
-3.0546095e-06
-1.416258e-05
-3.0929503e-06
-1.3377497e-05
-3.129325e-06
-1.258379e-05
-3.1637061e-06
-1.1781964e-05
-3.1960676e-06
-1.0972533e-05
-3.2263848e-06
-1.0156016e-05
-3.2546346e-06
-9.3329352e-06
-3.2807955e-06
-8.5038213e-06