/*--------------------------------*- C++ -*----------------------------------*\
| =========                 |                                                 |
| \\      /  F ield         | OpenFOAM: The Open Source CFD Toolbox           |
|  \\    /   O peration     | Version:  2106                                  |
|   \\  /    A nd           | Website:  www.openfoam.com                      |
|    \\/     M anipulation  |                                                 |
\*---------------------------------------------------------------------------*/
FoamFile
{
    version     2.0;
    format      ascii;
    arch        "LSB;label=32;scalar=64";
    class       surfaceScalarField;
    location    "0.2";
    object      phi_0;
}
// * * * * * * * * * * * * * * * * * * * * * * * * * * * * * * * * * * * * * //

dimensions      [0 3 -1 0 0 0 0];

oriented        oriented;

internalField   nonuniform List<scalar> 
179250
(
-1.38708e-10
1.39106e-10
-2.77332e-10
1.38605e-10
-4.15392e-10
1.38061e-10
-5.5275e-10
1.37351e-10
-6.89121e-10
1.36369e-10
-8.24269e-10
1.35143e-10
-9.57959e-10
1.33688e-10
-1.08996e-09
1.32002e-10
-1.22005e-09
1.30089e-10
-1.348e-09
1.27946e-10
-1.47357e-09
1.25582e-10
-1.59657e-09
1.22994e-10
-1.71676e-09
1.20194e-10
-1.83394e-09
1.1718e-10
-1.9479e-09
1.13963e-10
-2.05845e-09
1.10546e-10
-2.16539e-09
1.06934e-10
-2.26852e-09
1.03138e-10
-2.36768e-09
9.91546e-11
-2.46268e-09
9.50027e-11
-2.55336e-09
9.06817e-11
-2.63957e-09
8.62004e-11
-2.72114e-09
8.15749e-11
-2.79794e-09
7.67988e-11
-2.86983e-09
7.18908e-11
-2.93668e-09
6.68584e-11
-2.99839e-09
6.17019e-11
-3.05483e-09
5.64443e-11
-3.10592e-09
5.10874e-11
-3.15156e-09
4.56362e-11
-3.19167e-09
4.01109e-11
-3.22618e-09
3.45113e-11
-3.25503e-09
2.88476e-11
-3.27817e-09
2.31398e-11
-3.29556e-09
1.73892e-11
-3.30717e-09
1.16066e-11
-3.31297e-09
5.80866e-12
-3.31296e-09
-3.77705e-15
-3.30715e-09
-5.81831e-12
-3.29553e-09
-1.16185e-11
-3.27813e-09
-1.74e-11
-3.25498e-09
-2.31526e-11
-3.22612e-09
-2.88604e-11
-3.1916e-09
-3.45189e-11
-3.15148e-09
-4.01198e-11
-3.10584e-09
-4.56475e-11
-3.05474e-09
-5.1095e-11
-2.99829e-09
-5.64554e-11
-2.93657e-09
-6.17143e-11
-2.86971e-09
-6.68638e-11
-2.79781e-09
-7.18989e-11
-2.721e-09
-7.68074e-11
-2.63942e-09
-8.15795e-11
-2.55321e-09
-8.62105e-11
-2.46252e-09
-9.06911e-11
-2.36751e-09
-9.50103e-11
-2.26835e-09
-9.91629e-11
-2.16521e-09
-1.03143e-10
-2.05827e-09
-1.06941e-10
-1.94771e-09
-1.10551e-10
-1.83375e-09
-1.13969e-10
-1.71656e-09
-1.17187e-10
-1.59637e-09
-1.20197e-10
-1.47337e-09
-1.22998e-10
-1.34779e-09
-1.25583e-10
-1.21984e-09
-1.27947e-10
-1.08976e-09
-1.30086e-10
-9.57761e-10
-1.31998e-10
-8.24084e-10
-1.33679e-10
-6.8896e-10
-1.35124e-10
-5.52627e-10
-1.36332e-10
-4.15327e-10
-1.37302e-10
-2.77296e-10
-1.38031e-10
-1.38778e-10
-1.38516e-10
-1.70061e-14
-1.38759e-10
1.38743e-10
-1.3876e-10
2.77261e-10
-1.38516e-10
4.15291e-10
-1.38029e-10
5.52592e-10
-1.37301e-10
6.88924e-10
-1.36333e-10
8.24048e-10
-1.35124e-10
9.57726e-10
-1.33678e-10
1.08972e-09
-1.31998e-10
1.21981e-09
-1.30086e-10
1.34776e-09
-1.27946e-10
1.47334e-09
-1.25581e-10
1.59634e-09
-1.22997e-10
1.71653e-09
-1.20197e-10
1.83372e-09
-1.17185e-10
1.94769e-09
-1.13968e-10
2.05824e-09
-1.10552e-10
2.16518e-09
-1.06942e-10
2.26832e-09
-1.03142e-10
2.36749e-09
-9.91627e-11
2.4625e-09
-9.50107e-11
2.55319e-09
-9.06914e-11
2.6394e-09
-8.62116e-11
2.72098e-09
-8.15809e-11
2.79779e-09
-7.68084e-11
2.86969e-09
-7.19009e-11
2.93655e-09
-6.68659e-11
2.99827e-09
-6.17137e-11
3.05472e-09
-5.64545e-11
3.10581e-09
-5.10966e-11
3.15146e-09
-4.56479e-11
3.19158e-09
-4.01185e-11
3.2261e-09
-3.45197e-11
3.25496e-09
-2.8861e-11
3.27811e-09
-2.31508e-11
3.29551e-09
-1.7399e-11
3.30713e-09
-1.16175e-11
3.31295e-09
-5.81676e-12
3.31296e-09
-5.61923e-15
3.30715e-09
5.8065e-12
3.29554e-09
1.16084e-11
3.27815e-09
1.7389e-11
3.25501e-09
2.3139e-11
3.22616e-09
2.88494e-11
3.19166e-09
3.45097e-11
3.15155e-09
4.01087e-11
3.10591e-09
4.56366e-11
3.05483e-09
5.10846e-11
2.99838e-09
5.64437e-11
2.93668e-09
6.17039e-11
2.86982e-09
6.68555e-11
2.79793e-09
7.18897e-11
2.72114e-09
7.67982e-11
2.63956e-09
8.15721e-11
2.55336e-09
8.62024e-11
2.46268e-09
9.06811e-11
2.36768e-09
9.50011e-11
2.26853e-09
9.91549e-11
2.16539e-09
1.03135e-10
2.05846e-09
1.06933e-10
1.94791e-09
1.10544e-10
1.83395e-09
1.13961e-10
1.71678e-09
1.17178e-10
1.59659e-09
1.2019e-10
1.4736e-09
1.2299e-10
1.34802e-09
1.25575e-10
1.22008e-09
1.2794e-10
1.09e-09
1.30081e-10
9.58008e-10
1.31993e-10
8.24333e-10
1.33674e-10
6.8921e-10
1.35122e-10
5.52874e-10
1.36335e-10
4.15559e-10
1.37315e-10
2.77495e-10
1.38064e-10
1.38906e-10
1.3859e-10
1.38906e-10
-1.39204e-10
2.78291e-10
-2.78107e-10
2.77512e-10
-4.16476e-10
2.7642e-10
-5.54085e-10
2.74961e-10
-6.90727e-10
2.73007e-10
-8.26157e-10
2.70574e-10
-9.60139e-10
2.6767e-10
-1.09243e-09
2.64301e-10
-1.22281e-09
2.60468e-10
-1.35104e-09
2.56182e-10
-1.4769e-09
2.51443e-10
-1.60017e-09
2.46267e-10
-1.72064e-09
2.40657e-10
-1.83808e-09
2.34626e-10
-1.9523e-09
2.28184e-10
-2.0631e-09
2.21339e-10
-2.17027e-09
2.14112e-10
-2.27364e-09
2.06503e-10
-2.37302e-09
1.98537e-10
-2.46824e-09
1.90221e-10
-2.55913e-09
1.81567e-10
-2.64552e-09
1.72602e-10
-2.72728e-09
1.63328e-10
-2.80426e-09
1.5377e-10
-2.87631e-09
1.43946e-10
-2.94332e-09
1.33863e-10
-3.00516e-09
1.23549e-10
-3.06173e-09
1.13018e-10
-3.11293e-09
1.02284e-10
-3.15867e-09
9.13769e-11
-3.19887e-09
8.03085e-11
-3.23346e-09
6.90953e-11
-3.26237e-09
5.77664e-11
-3.28557e-09
4.63331e-11
-3.303e-09
3.48155e-11
-3.31463e-09
2.32425e-11
-3.32045e-09
1.1627e-11
-3.32045e-09
-1.17602e-14
-3.31461e-09
-1.16461e-11
-3.30297e-09
-2.32624e-11
-3.28553e-09
-3.48412e-11
-3.26233e-09
-4.63549e-11
-3.2334e-09
-5.77871e-11
-3.19881e-09
-6.91201e-11
-3.1586e-09
-8.03289e-11
-3.11285e-09
-9.13963e-11
-3.06164e-09
-1.02307e-10
-3.00506e-09
-1.13036e-10
-2.9432e-09
-1.23566e-10
-2.87619e-09
-1.33882e-10
-2.80413e-09
-1.43962e-10
-2.72714e-09
-1.53788e-10
-2.64538e-09
-1.63345e-10
-2.55898e-09
-1.72617e-10
-2.46808e-09
-1.81584e-10
-2.37286e-09
-1.90234e-10
-2.27347e-09
-1.98551e-10
-2.1701e-09
-2.06519e-10
-2.06291e-09
-2.14124e-10
-1.95211e-09
-2.21355e-10
-1.83789e-09
-2.28197e-10
-1.72044e-09
-2.34637e-10
-1.59997e-09
-2.40666e-10
-1.4767e-09
-2.46275e-10
-1.35083e-09
-2.51449e-10
-1.2226e-09
-2.56182e-10
-1.09222e-09
-2.60467e-10
-9.59924e-10
-2.64295e-10
-8.25943e-10
-2.67658e-10
-6.90514e-10
-2.70552e-10
-5.53876e-10
-2.72972e-10
-4.16264e-10
-2.74913e-10
-2.77921e-10
-2.76371e-10
-1.39091e-10
-2.77345e-10
-1.73279e-14
-2.77832e-10
1.39057e-10
-2.77832e-10
2.77887e-10
-2.77345e-10
4.16228e-10
-2.76372e-10
5.53839e-10
-2.74914e-10
6.9048e-10
-2.72972e-10
8.25909e-10
-2.70552e-10
9.59888e-10
-2.67658e-10
1.09218e-09
-2.64294e-10
1.22257e-09
-2.60465e-10
1.3508e-09
-2.5618e-10
1.47666e-09
-2.51447e-10
1.59994e-09
-2.46273e-10
1.72041e-09
-2.40665e-10
1.83786e-09
-2.34635e-10
1.95208e-09
-2.28195e-10
2.06288e-09
-2.21354e-10
2.17007e-09
-2.14123e-10
2.27345e-09
-2.06518e-10
2.37283e-09
-1.98551e-10
2.46805e-09
-1.90237e-10
2.55895e-09
-1.81587e-10
2.64536e-09
-1.72618e-10
2.72712e-09
-1.63348e-10
2.8041e-09
-1.53791e-10
2.87616e-09
-1.43963e-10
2.94318e-09
-1.33882e-10
3.00503e-09
-1.23568e-10
3.06161e-09
-1.13038e-10
3.11283e-09
-1.02308e-10
3.15858e-09
-9.13977e-11
3.19879e-09
-8.03278e-11
3.23338e-09
-6.91178e-11
3.26231e-09
-5.77858e-11
3.28551e-09
-4.63517e-11
3.30295e-09
-3.48368e-11
3.3146e-09
-2.32623e-11
3.32043e-09
-1.16472e-11
3.32043e-09
-1.06087e-14
3.31462e-09
1.16263e-11
3.30298e-09
2.32423e-11
3.28555e-09
3.48171e-11
3.26236e-09
4.63316e-11
3.23345e-09
5.77654e-11
3.19886e-09
6.90972e-11
3.15866e-09
8.03069e-11
3.11292e-09
9.13757e-11
3.06172e-09
1.02285e-10
3.00515e-09
1.13016e-10
2.94331e-09
1.23547e-10
2.8763e-09
1.33862e-10
2.80425e-09
1.43943e-10
2.72728e-09
1.53771e-10
2.64552e-09
1.63328e-10
2.55913e-09
1.72599e-10
2.46824e-09
1.81567e-10
2.37302e-09
1.90217e-10
2.27365e-09
1.98534e-10
2.17028e-09
2.06502e-10
2.0631e-09
2.14107e-10
1.95231e-09
2.21337e-10
1.83809e-09
2.28179e-10
1.72065e-09
2.3462e-10
1.60019e-09
2.4065e-10
1.47692e-09
2.46257e-10
1.35106e-09
2.51434e-10
1.22284e-09
2.56169e-10
1.09246e-09
2.60455e-10
9.60171e-10
2.64283e-10
8.26194e-10
2.67649e-10
6.90767e-10
2.70548e-10
5.54124e-10
2.72978e-10
4.165e-10
2.74939e-10
2.78125e-10
2.7644e-10
1.39221e-10
2.77495e-10
2.78127e-10
-1.3975e-10
4.18042e-10
-2.79197e-10
4.16951e-10
-4.18099e-10
4.15321e-10
-5.56228e-10
4.13087e-10
-6.93376e-10
4.10154e-10
-8.29312e-10
4.06507e-10
-9.63792e-10
4.02153e-10
-1.09659e-09
3.97093e-10
-1.22745e-09
3.9134e-10
-1.35617e-09
3.84897e-10
-1.48251e-09
3.77782e-10
-1.60625e-09
3.70003e-10
-1.72717e-09
3.61576e-10
-1.84505e-09
3.52516e-10
-1.95971e-09
3.42835e-10
-2.07092e-09
3.32557e-10
-2.17851e-09
3.2169e-10
-2.28226e-09
3.10264e-10
-2.38202e-09
2.98293e-10
-2.4776e-09
2.85795e-10
-2.56883e-09
2.72802e-10
-2.65556e-09
2.59326e-10
-2.73763e-09
2.45394e-10
-2.81489e-09
2.31037e-10
-2.88722e-09
2.16268e-10
-2.95448e-09
2.01124e-10
-3.01655e-09
1.85629e-10
-3.07334e-09
1.69802e-10
-3.12474e-09
1.53682e-10
-3.17065e-09
1.37292e-10
-3.211e-09
1.20656e-10
-3.24572e-09
1.03815e-10
-3.27475e-09
8.67912e-11
-3.29803e-09
6.96114e-11
-3.31552e-09
5.23133e-11
-3.3272e-09
3.49222e-11
-3.33304e-09
1.74662e-11
-3.33304e-09
-1.64964e-14
-3.32718e-09
-1.74991e-11
-3.3155e-09
-3.49543e-11
-3.29799e-09
-5.23456e-11
-3.2747e-09
-6.96443e-11
-3.24567e-09
-8.68237e-11
-3.21094e-09
-1.03849e-10
-3.17057e-09
-1.2069e-10
-3.12465e-09
-1.37321e-10
-3.07325e-09
-1.53712e-10
-3.01645e-09
-1.69831e-10
-2.95436e-09
-1.85654e-10
-2.8871e-09
-2.01153e-10
-2.81476e-09
-2.16296e-10
-2.73749e-09
-2.31061e-10
-2.65541e-09
-2.45422e-10
-2.56868e-09
-2.59351e-10
-2.47744e-09
-2.72824e-10
-2.38186e-09
-2.85821e-10
-2.28209e-09
-2.98316e-10
-2.17832e-09
-3.10286e-10
-2.07074e-09
-3.21714e-10
-1.95952e-09
-3.32577e-10
-1.84486e-09
-3.42856e-10
-1.72696e-09
-3.52532e-10
-1.60604e-09
-3.61592e-10
-1.4823e-09
-3.70016e-10
-1.35595e-09
-3.77791e-10
-1.22723e-09
-3.84903e-10
-1.09636e-09
-3.91341e-10
-9.63563e-10
-3.97092e-10
-8.29075e-10
-4.02145e-10
-6.93133e-10
-4.06494e-10
-5.55976e-10
-4.10131e-10
-4.17842e-10
-4.13046e-10
-2.78974e-10
-4.15237e-10
-1.39619e-10
-4.16701e-10
-1.73461e-14
-4.17433e-10
1.39584e-10
-4.17433e-10
2.7894e-10
-4.16701e-10
4.17806e-10
-4.15239e-10
5.5594e-10
-4.13047e-10
6.93099e-10
-4.1013e-10
8.2904e-10
-4.06494e-10
9.63528e-10
-4.02146e-10
1.09633e-09
-3.97091e-10
1.2272e-09
-3.91339e-10
1.35592e-09
-3.84903e-10
1.48226e-09
-3.77791e-10
1.60601e-09
-3.70015e-10
1.72693e-09
-3.6159e-10
1.84483e-09
-3.52531e-10
1.95949e-09
-3.42854e-10
2.07071e-09
-3.32575e-10
2.1783e-09
-3.21712e-10
2.28207e-09
-3.10286e-10
2.38183e-09
-2.98317e-10
2.47741e-09
-2.85822e-10
2.56866e-09
-2.72826e-10
2.65539e-09
-2.59352e-10
2.73746e-09
-2.45423e-10
2.81474e-09
-2.31064e-10
2.88707e-09
-2.16298e-10
2.95434e-09
-2.01153e-10
3.01643e-09
-1.85657e-10
3.07323e-09
-1.69835e-10
3.12463e-09
-1.53713e-10
3.17056e-09
-1.37321e-10
3.21092e-09
-1.2069e-10
3.24564e-09
-1.03847e-10
3.27468e-09
-8.68207e-11
3.29797e-09
-6.96421e-11
3.31548e-09
-5.23427e-11
3.32717e-09
-3.49523e-11
3.33302e-09
-1.74999e-11
3.33303e-09
-1.59473e-14
3.32718e-09
1.74678e-11
3.31551e-09
3.49203e-11
3.29801e-09
5.23119e-11
3.27473e-09
6.96124e-11
3.24571e-09
8.67906e-11
3.21099e-09
1.03816e-10
3.17064e-09
1.20658e-10
3.12473e-09
1.37289e-10
3.07333e-09
1.53681e-10
3.01655e-09
1.69802e-10
2.95447e-09
1.85626e-10
2.88721e-09
2.01124e-10
2.81488e-09
2.16269e-10
2.73762e-09
2.31034e-10
2.65555e-09
2.45394e-10
2.56883e-09
2.59323e-10
2.4776e-09
2.72798e-10
2.38202e-09
2.85795e-10
2.28227e-09
2.98289e-10
2.17851e-09
3.1026e-10
2.07093e-09
3.21687e-10
1.95972e-09
3.3255e-10
1.84506e-09
3.4283e-10
1.72718e-09
3.52508e-10
1.60626e-09
3.61567e-10
1.48252e-09
3.69993e-10
1.35619e-09
3.7777e-10
1.22747e-09
3.84884e-10
1.0966e-09
3.91323e-10
9.63811e-10
3.97075e-10
8.29327e-10
4.02132e-10
6.93387e-10
4.06488e-10
5.56227e-10
4.10139e-10
4.1808e-10
4.13086e-10
2.7918e-10
4.1534e-10
1.39747e-10
4.16926e-10
4.17873e-10
-1.40464e-10
5.58502e-10
-2.8066e-10
5.57153e-10
-4.20331e-10
5.54991e-10
-5.59222e-10
5.5198e-10
-6.97118e-10
5.48049e-10
-8.33786e-10
5.43178e-10
-9.68992e-10
5.37358e-10
-1.1025e-09
5.30602e-10
-1.23407e-09
5.22912e-10
-1.36348e-09
5.14307e-10
-1.4905e-09
5.04799e-10
-1.6149e-09
4.94406e-10
-1.73647e-09
4.83146e-10
-1.855e-09
4.71037e-10
-1.97026e-09
4.58107e-10
-2.08208e-09
4.44369e-10
-2.19024e-09
4.29853e-10
-2.29456e-09
4.14584e-10
-2.39486e-09
3.98583e-10
-2.49095e-09
3.8189e-10
-2.58267e-09
3.64523e-10
-2.66987e-09
3.46516e-10
-2.75237e-09
3.27906e-10
-2.83005e-09
3.08715e-10
-2.90277e-09
2.88984e-10
-2.97039e-09
2.68749e-10
-3.03281e-09
2.48038e-10
-3.0899e-09
2.26895e-10
-3.14157e-09
2.05355e-10
-3.18773e-09
1.83451e-10
-3.2283e-09
1.61227e-10
-3.2632e-09
1.38722e-10
-3.29239e-09
1.1597e-10
-3.31579e-09
9.30176e-11
-3.33338e-09
6.99033e-11
-3.34512e-09
4.66621e-11
-3.351e-09
2.33409e-11
-3.35099e-09
-2.03788e-14
-3.34511e-09
-2.33848e-11
-3.33336e-09
-4.67064e-11
-3.31575e-09
-6.99438e-11
-3.29234e-09
-9.30611e-11
-3.26315e-09
-1.16014e-10
-3.22823e-09
-1.38762e-10
-3.18765e-09
-1.61269e-10
-3.14148e-09
-1.83493e-10
-3.0898e-09
-2.05393e-10
-3.0327e-09
-2.26934e-10
-2.97028e-09
-2.48078e-10
-2.90265e-09
-2.68786e-10
-2.82992e-09
-2.89022e-10
-2.75223e-09
-3.08752e-10
-2.66972e-09
-3.27941e-10
-2.58252e-09
-3.46552e-10
-2.49079e-09
-3.64557e-10
-2.39469e-09
-3.81923e-10
-2.29439e-09
-3.98617e-10
-2.19006e-09
-4.14613e-10
-2.08189e-09
-4.29882e-10
-1.97007e-09
-4.44396e-10
-1.85479e-09
-4.5813e-10
-1.73627e-09
-4.71062e-10
-1.61469e-09
-4.83167e-10
-1.49028e-09
-4.94423e-10
-1.36326e-09
-5.04812e-10
-1.23384e-09
-5.14317e-10
-1.10227e-09
-5.2292e-10
-9.68753e-10
-5.30604e-10
-8.33541e-10
-5.37358e-10
-6.96867e-10
-5.4317e-10
-5.5897e-10
-5.48028e-10
-4.20092e-10
-5.51924e-10
-2.80477e-10
-5.54852e-10
-1.40371e-10
-5.56808e-10
-1.721e-14
-5.57786e-10
1.40336e-10
-5.57786e-10
2.80442e-10
-5.56809e-10
4.20057e-10
-5.54853e-10
5.58935e-10
-5.51924e-10
6.96832e-10
-5.48027e-10
8.33506e-10
-5.43169e-10
9.68719e-10
-5.37358e-10
1.10223e-09
-5.30603e-10
1.23381e-09
-5.22919e-10
1.36323e-09
-5.14318e-10
1.49025e-09
-5.04814e-10
1.61466e-09
-4.94423e-10
1.73624e-09
-4.83166e-10
1.85476e-09
-4.71062e-10
1.97004e-09
-4.58131e-10
2.08186e-09
-4.44395e-10
2.19003e-09
-4.29881e-10
2.29436e-09
-4.14614e-10
2.39466e-09
-3.98618e-10
2.49076e-09
-3.81922e-10
2.58249e-09
-3.64556e-10
2.66969e-09
-3.46553e-10
2.75221e-09
-3.27941e-10
2.8299e-09
-3.08752e-10
2.90262e-09
-2.89022e-10
2.97026e-09
-2.68787e-10
3.03268e-09
-2.4808e-10
3.08978e-09
-2.26936e-10
3.14146e-09
-2.05394e-10
3.18763e-09
-1.83493e-10
3.22821e-09
-1.6127e-10
3.26313e-09
-1.38763e-10
3.29232e-09
-1.16013e-10
3.31574e-09
-9.30593e-11
3.33334e-09
-6.99438e-11
3.34509e-09
-4.67053e-11
3.35097e-09
-2.33839e-11
3.35098e-09
-2.12306e-14
3.34511e-09
2.33407e-11
3.33337e-09
4.66616e-11
3.31578e-09
6.99012e-11
3.29237e-09
9.30184e-11
3.26319e-09
1.15972e-10
3.22829e-09
1.38721e-10
3.18772e-09
1.61227e-10
3.14156e-09
1.83451e-10
3.08989e-09
2.05354e-10
3.0328e-09
2.26895e-10
2.97038e-09
2.48039e-10
2.90276e-09
2.68747e-10
2.83005e-09
2.88984e-10
2.75237e-09
3.08714e-10
2.66986e-09
3.27902e-10
2.58267e-09
3.46515e-10
2.49095e-09
3.6452e-10
2.39486e-09
3.81886e-10
2.29456e-09
3.98582e-10
2.19024e-09
4.14578e-10
2.08208e-09
4.29847e-10
1.97027e-09
4.44363e-10
1.855e-09
4.58099e-10
1.73648e-09
4.71031e-10
1.61491e-09
4.83137e-10
1.49051e-09
4.94395e-10
1.36349e-09
5.04787e-10
1.23408e-09
5.14292e-10
1.10251e-09
5.22896e-10
9.69003e-10
5.30582e-10
8.33795e-10
5.37341e-10
6.97123e-10
5.43161e-10
5.59223e-10
5.48039e-10
4.20332e-10
5.51976e-10
2.80682e-10
5.54988e-10
1.40499e-10
5.57108e-10
5.58372e-10
-1.41454e-10
6.99958e-10
-2.82627e-10
6.98327e-10
-4.23273e-10
6.95639e-10
-5.63149e-10
6.91855e-10
-7.02019e-10
6.86922e-10
-8.39653e-10
6.8081e-10
-9.7581e-10
6.73518e-10
-1.11026e-09
6.65045e-10
-1.24275e-09
6.55411e-10
-1.37307e-09
6.44625e-10
-1.50098e-09
6.32709e-10
-1.62626e-09
6.19684e-10
-1.74869e-09
6.0557e-10
-1.86804e-09
5.90397e-10
-1.98413e-09
5.74186e-10
-2.09673e-09
5.56969e-10
-2.20565e-09
5.38776e-10
-2.3107e-09
5.19634e-10
-2.4117e-09
4.99585e-10
-2.50847e-09
4.78658e-10
-2.60084e-09
4.56888e-10
-2.68864e-09
4.34323e-10
-2.77173e-09
4.10992e-10
-2.84996e-09
3.8694e-10
-2.92319e-09
3.62213e-10
-2.99129e-09
3.36846e-10
-3.05414e-09
3.10889e-10
-3.11163e-09
2.8439e-10
-3.16367e-09
2.57388e-10
-3.21015e-09
2.29936e-10
-3.25101e-09
2.02084e-10
-3.28616e-09
1.73872e-10
-3.31555e-09
1.45357e-10
-3.33911e-09
1.16589e-10
-3.35683e-09
8.76136e-11
-3.36865e-09
5.84855e-11
-3.37457e-09
2.92567e-11
-3.37456e-09
-2.66354e-14
-3.36864e-09
-2.93096e-11
-3.3568e-09
-5.85389e-11
-3.33908e-09
-8.76672e-11
-3.3155e-09
-1.16642e-10
-3.2861e-09
-1.45409e-10
-3.25094e-09
-1.73923e-10
-3.21008e-09
-2.02134e-10
-3.16358e-09
-2.29988e-10
-3.11154e-09
-2.57439e-10
-3.05403e-09
-2.8444e-10
-2.99117e-09
-3.10941e-10
-2.92306e-09
-3.36895e-10
-2.84983e-09
-3.6226e-10
-2.77159e-09
-3.8699e-10
-2.6885e-09
-4.11039e-10
-2.60068e-09
-4.34367e-10
-2.50831e-09
-4.56935e-10
-2.41153e-09
-4.787e-10
-2.31052e-09
-4.99624e-10
-2.20547e-09
-5.19673e-10
-2.09654e-09
-5.38811e-10
-1.98393e-09
-5.57002e-10
-1.86784e-09
-5.74217e-10
-1.74848e-09
-5.90425e-10
-1.62605e-09
-6.05597e-10
-1.50076e-09
-6.19706e-10
-1.37285e-09
-6.32729e-10
-1.24252e-09
-6.44642e-10
-1.11002e-09
-6.55424e-10
-9.75567e-10
-6.65056e-10
-8.39405e-10
-6.73522e-10
-7.01769e-10
-6.80806e-10
-5.62901e-10
-6.86895e-10
-4.23047e-10
-6.91779e-10
-2.8245e-10
-6.9545e-10
-1.41358e-10
-6.979e-10
-1.73213e-14
-6.99127e-10
1.41322e-10
-6.99127e-10
2.82415e-10
-6.97901e-10
4.23012e-10
-6.95449e-10
5.62867e-10
-6.91778e-10
7.01734e-10
-6.86894e-10
8.3937e-10
-6.80805e-10
9.75534e-10
-6.73521e-10
1.10999e-09
-6.65056e-10
1.24249e-09
-6.55425e-10
1.37282e-09
-6.44644e-10
1.50073e-09
-6.3273e-10
1.62602e-09
-6.19708e-10
1.74845e-09
-6.05599e-10
1.86781e-09
-5.90427e-10
1.9839e-09
-5.74218e-10
2.09651e-09
-5.57003e-10
2.20544e-09
-5.38811e-10
2.3105e-09
-5.19674e-10
2.4115e-09
-4.99624e-10
2.50828e-09
-4.78698e-10
2.60066e-09
-4.56933e-10
2.68847e-09
-4.34367e-10
2.77157e-09
-4.11038e-10
2.84981e-09
-3.86987e-10
2.92304e-09
-3.62259e-10
2.99115e-09
-3.36896e-10
3.05401e-09
-3.10941e-10
3.11152e-09
-2.8444e-10
3.16356e-09
-2.5744e-10
3.21006e-09
-2.29989e-10
3.25092e-09
-2.02135e-10
3.28608e-09
-1.73925e-10
3.31548e-09
-1.4541e-10
3.33906e-09
-1.16641e-10
3.35678e-09
-8.7668e-11
3.36862e-09
-5.85399e-11
3.37455e-09
-2.93086e-11
3.37455e-09
-2.64467e-14
3.36864e-09
2.92551e-11
3.35681e-09
5.84855e-11
3.3391e-09
8.7614e-11
3.31553e-09
1.16588e-10
3.28615e-09
1.45358e-10
3.251e-09
1.73872e-10
3.21014e-09
2.02082e-10
3.16366e-09
2.29938e-10
3.11162e-09
2.57389e-10
3.05413e-09
2.84389e-10
2.99128e-09
3.1089e-10
2.92318e-09
3.36846e-10
2.84995e-09
3.6221e-10
2.77173e-09
3.86939e-10
2.68864e-09
4.1099e-10
2.60083e-09
4.3432e-10
2.50847e-09
4.56888e-10
2.4117e-09
4.78654e-10
2.3107e-09
4.9958e-10
2.20565e-09
5.19629e-10
2.09673e-09
5.38768e-10
1.98413e-09
5.56962e-10
1.86805e-09
5.74179e-10
1.74869e-09
5.90388e-10
1.62627e-09
6.05561e-10
1.50099e-09
6.19673e-10
1.37308e-09
6.32697e-10
1.24276e-09
6.44611e-10
1.11027e-09
6.55395e-10
9.75819e-10
6.6503e-10
8.39661e-10
6.73501e-10
7.02027e-10
6.80796e-10
5.63156e-10
6.86909e-10
4.23288e-10
6.91843e-10
2.82656e-10
6.95619e-10
1.41487e-10
6.98277e-10
6.9986e-10
-1.42697e-10
8.42655e-10
-2.8509e-10
8.40724e-10
-4.26953e-10
8.37502e-10
-5.68043e-10
8.32948e-10
-7.08126e-10
8.27002e-10
-8.46957e-10
8.19643e-10
-9.84302e-10
8.10859e-10
-1.11992e-09
8.00662e-10
-1.25357e-09
7.89061e-10
-1.38502e-09
7.76077e-10
-1.51404e-09
7.61732e-10
-1.64041e-09
7.4605e-10
-1.7639e-09
7.29062e-10
-1.8843e-09
7.10792e-10
-2.00139e-09
6.91276e-10
-2.11497e-09
6.7055e-10
-2.22484e-09
6.48643e-10
-2.3308e-09
6.25602e-10
-2.43268e-09
6.01463e-10
-2.5303e-09
5.76265e-10
-2.62346e-09
5.50062e-10
-2.71203e-09
5.22891e-10
-2.79585e-09
4.94801e-10
-2.87475e-09
4.65849e-10
-2.94862e-09
4.36075e-10
-3.01731e-09
4.05536e-10
-3.08071e-09
3.7429e-10
-3.1387e-09
3.42383e-10
-3.19119e-09
3.09876e-10
-3.23808e-09
2.76828e-10
-3.27929e-09
2.43292e-10
-3.31475e-09
2.09329e-10
-3.34439e-09
1.75002e-10
-3.36817e-09
1.40364e-10
-3.38603e-09
1.0548e-10
-3.39796e-09
7.04135e-11
-3.40393e-09
3.52215e-11
-3.40392e-09
-3.26988e-14
-3.39794e-09
-3.52844e-11
-3.38601e-09
-7.04756e-11
-3.36813e-09
-1.05544e-10
-3.34434e-09
-1.40426e-10
-3.31469e-09
-1.75061e-10
-3.27922e-09
-2.09392e-10
-3.238e-09
-2.43353e-10
-3.1911e-09
-2.76888e-10
-3.13861e-09
-3.09938e-10
-3.0806e-09
-3.42445e-10
-3.0172e-09
-3.74349e-10
-2.9485e-09
-4.05597e-10
-2.87462e-09
-4.36135e-10
-2.79571e-09
-4.65906e-10
-2.71189e-09
-4.9486e-10
-2.62331e-09
-5.22947e-10
-2.53013e-09
-5.50115e-10
-2.43251e-09
-5.76318e-10
-2.33063e-09
-6.0151e-10
-2.22465e-09
-6.25648e-10
-2.11478e-09
-6.48687e-10
-2.00119e-09
-6.70588e-10
-1.88409e-09
-6.91314e-10
-1.76369e-09
-7.10827e-10
-1.64019e-09
-7.29093e-10
-1.51382e-09
-7.4608e-10
-1.38479e-09
-7.61759e-10
-1.25333e-09
-7.76101e-10
-1.11968e-09
-7.89082e-10
-9.84055e-10
-8.00678e-10
-8.46708e-10
-8.1087e-10
-7.07874e-10
-8.19639e-10
-5.67798e-10
-8.2697e-10
-4.26727e-10
-8.32851e-10
-2.84907e-10
-8.3727e-10
-1.42587e-10
-8.4022e-10
-1.76873e-14
-8.41697e-10
1.42552e-10
-8.41697e-10
2.84873e-10
-8.4022e-10
4.26693e-10
-8.37268e-10
5.67764e-10
-8.32849e-10
7.07839e-10
-8.26969e-10
8.46673e-10
-8.19638e-10
9.84021e-10
-8.10869e-10
1.11964e-09
-8.00678e-10
1.2533e-09
-7.89083e-10
1.38476e-09
-7.76102e-10
1.51379e-09
-7.61759e-10
1.64016e-09
-7.46082e-10
1.76366e-09
-7.29096e-10
1.88406e-09
-7.10829e-10
2.00116e-09
-6.91315e-10
2.11475e-09
-6.7059e-10
2.22462e-09
-6.48689e-10
2.3306e-09
-6.25648e-10
2.43249e-09
-6.01509e-10
2.5301e-09
-5.76316e-10
2.62328e-09
-5.50114e-10
2.71186e-09
-5.22945e-10
2.79568e-09
-4.94859e-10
2.8746e-09
-4.65904e-10
2.94847e-09
-4.36133e-10
3.01717e-09
-4.05597e-10
3.08058e-09
-3.74348e-10
3.13859e-09
-3.42443e-10
3.19108e-09
-3.09938e-10
3.23798e-09
-2.7689e-10
3.27921e-09
-2.43355e-10
3.31467e-09
-2.09392e-10
3.34433e-09
-1.75063e-10
3.36811e-09
-1.40428e-10
3.38599e-09
-1.05545e-10
3.39793e-09
-7.04766e-11
3.40391e-09
-3.52847e-11
3.40391e-09
-3.19603e-14
3.39794e-09
3.52206e-11
3.38602e-09
7.0412e-11
3.36815e-09
1.0548e-10
3.34438e-09
1.40363e-10
3.31474e-09
1.74999e-10
3.27928e-09
2.09329e-10
3.23807e-09
2.43292e-10
3.19118e-09
2.76827e-10
3.13869e-09
3.09877e-10
3.0807e-09
3.42382e-10
3.0173e-09
3.74287e-10
2.94861e-09
4.05536e-10
2.87475e-09
4.36074e-10
2.79584e-09
4.65846e-10
2.71203e-09
4.94801e-10
2.62346e-09
5.22889e-10
2.53029e-09
5.50059e-10
2.43268e-09
5.76263e-10
2.3308e-09
6.01457e-10
2.22484e-09
6.25596e-10
2.11497e-09
6.48638e-10
2.00139e-09
6.70541e-10
1.8843e-09
6.91269e-10
1.76391e-09
7.10783e-10
1.64042e-09
7.29051e-10
1.51405e-09
7.4604e-10
1.38503e-09
7.6172e-10
1.25358e-09
7.76064e-10
1.11992e-09
7.89047e-10
9.84309e-10
8.00648e-10
8.46966e-10
8.10846e-10
7.08134e-10
8.19628e-10
5.68055e-10
8.26987e-10
4.2697e-10
8.32928e-10
2.85115e-10
8.37474e-10
1.42719e-10
8.40675e-10
8.4258e-10
-1.44182e-10
9.86839e-10
-2.8805e-10
9.84591e-10
-4.31377e-10
9.8083e-10
-5.73929e-10
9.75495e-10
-7.1546e-10
9.68534e-10
-8.55733e-10
9.59912e-10
-9.94499e-10
9.49627e-10
-1.13152e-09
9.37683e-10
-1.26656e-09
9.24097e-10
-1.39937e-09
9.08892e-10
-1.52973e-09
8.92091e-10
-1.65741e-09
8.73729e-10
-1.78218e-09
8.53831e-10
-1.90382e-09
8.32435e-10
-2.02212e-09
8.09582e-10
-2.13688e-09
7.85304e-10
-2.24789e-09
7.59651e-10
-2.35495e-09
7.32666e-10
-2.45789e-09
7.04393e-10
-2.55651e-09
6.74888e-10
-2.65065e-09
6.44198e-10
-2.74013e-09
6.12376e-10
-2.82481e-09
5.79484e-10
-2.90454e-09
5.45572e-10
-2.97917e-09
5.10702e-10
-3.04857e-09
4.74941e-10
-3.11263e-09
4.38344e-10
-3.17122e-09
4.00977e-10
-3.22425e-09
3.6291e-10
-3.27163e-09
3.24204e-10
-3.31327e-09
2.84928e-10
-3.34909e-09
2.45155e-10
-3.37904e-09
2.0495e-10
-3.40306e-09
1.64385e-10
-3.42111e-09
1.23533e-10
-3.43316e-09
8.24636e-11
-3.43919e-09
4.12482e-11
-3.43919e-09
-3.69942e-14
-3.43315e-09
-4.13226e-11
-3.42109e-09
-8.25372e-11
-3.40302e-09
-1.23606e-10
-3.37899e-09
-1.64457e-10
-3.34903e-09
-2.05022e-10
-3.3132e-09
-2.45227e-10
-3.27155e-09
-2.85e-10
-3.22417e-09
-3.24275e-10
-3.17113e-09
-3.62981e-10
-3.11252e-09
-4.01049e-10
-3.04846e-09
-4.38414e-10
-2.97904e-09
-4.75011e-10
-2.90441e-09
-5.10773e-10
-2.82467e-09
-5.45639e-10
-2.73998e-09
-5.79549e-10
-2.65049e-09
-6.12442e-10
-2.55634e-09
-6.4426e-10
-2.45771e-09
-6.74948e-10
-2.35477e-09
-7.04452e-10
-2.2477e-09
-7.3272e-10
-2.13668e-09
-7.59702e-10
-2.02192e-09
-7.85353e-10
-1.90361e-09
-8.09626e-10
-1.78196e-09
-8.32478e-10
-1.65719e-09
-8.5387e-10
-1.52951e-09
-8.73765e-10
-1.39914e-09
-8.92127e-10
-1.26632e-09
-9.08923e-10
-1.13128e-09
-9.24125e-10
-9.94251e-10
-9.37706e-10
-8.5548e-10
-9.49641e-10
-7.15208e-10
-9.59911e-10
-5.73681e-10
-9.68497e-10
-4.31148e-10
-9.75383e-10
-2.87858e-10
-9.80558e-10
-1.44064e-10
-9.84014e-10
-1.77924e-14
-9.85743e-10
1.4403e-10
-9.85743e-10
2.87825e-10
-9.84013e-10
4.31114e-10
-9.80557e-10
5.73646e-10
-9.75382e-10
7.15173e-10
-9.68495e-10
8.55446e-10
-9.59909e-10
9.94216e-10
-9.4964e-10
1.13124e-09
-9.37705e-10
1.26629e-09
-9.24124e-10
1.39911e-09
-9.08921e-10
1.52947e-09
-8.92125e-10
1.65716e-09
-8.73765e-10
1.78193e-09
-8.53871e-10
1.90358e-09
-8.32478e-10
2.0219e-09
-8.09626e-10
2.13666e-09
-7.85354e-10
2.24767e-09
-7.59704e-10
2.35475e-09
-7.3272e-10
2.45769e-09
-7.04451e-10
2.55632e-09
-6.74948e-10
2.65046e-09
-6.4426e-10
2.73996e-09
-6.12442e-10
2.82465e-09
-5.79548e-10
2.90438e-09
-5.45639e-10
2.97902e-09
-5.10773e-10
3.04843e-09
-4.7501e-10
3.1125e-09
-4.38413e-10
3.1711e-09
-4.01048e-10
3.22415e-09
-3.6298e-10
3.27153e-09
-3.24276e-10
3.31318e-09
-2.85001e-10
3.34902e-09
-2.45227e-10
3.37897e-09
-2.05023e-10
3.40301e-09
-1.6446e-10
3.42107e-09
-1.23607e-10
3.43313e-09
-8.2537e-11
3.43917e-09
-4.13234e-11
3.43918e-09
-3.80859e-14
3.43315e-09
4.12476e-11
3.4211e-09
8.24616e-11
3.40305e-09
1.23531e-10
3.37903e-09
1.64383e-10
3.34908e-09
2.04947e-10
3.31326e-09
2.45153e-10
3.27162e-09
2.84928e-10
3.22424e-09
3.24202e-10
3.17121e-09
3.62907e-10
3.11262e-09
4.00976e-10
3.04856e-09
4.38342e-10
2.97916e-09
4.74939e-10
2.90453e-09
5.10703e-10
2.82481e-09
5.4557e-10
2.74013e-09
5.79481e-10
2.65064e-09
6.12375e-10
2.55651e-09
6.44195e-10
2.45788e-09
6.74884e-10
2.35495e-09
7.0439e-10
2.24789e-09
7.3266e-10
2.13688e-09
7.59645e-10
2.02213e-09
7.85297e-10
1.90382e-09
8.09572e-10
1.78218e-09
8.32426e-10
1.65741e-09
8.5382e-10
1.52974e-09
8.73717e-10
1.39938e-09
8.92081e-10
1.26656e-09
9.0888e-10
1.13153e-09
9.24085e-10
9.94507e-10
9.37671e-10
8.5574e-10
9.49614e-10
7.1547e-10
9.59899e-10
5.7394e-10
9.68517e-10
4.31394e-10
9.75476e-10
2.8807e-10
9.808e-10
1.44198e-10
9.84548e-10
9.86778e-10
-1.45917e-10
1.13275e-09
-2.91511e-10
1.13018e-09
-4.36558e-10
1.12587e-09
-5.80816e-10
1.11975e-09
-7.24047e-10
1.11176e-09
-8.66e-10
1.10187e-09
-1.00643e-09
1.09006e-09
-1.1451e-09
1.07635e-09
-1.28176e-09
1.06076e-09
-1.41617e-09
1.0433e-09
-1.54809e-09
1.02402e-09
-1.6773e-09
1.00294e-09
-1.80356e-09
9.80097e-10
-1.92666e-09
9.5554e-10
-2.04639e-09
9.29302e-10
-2.16252e-09
9.01437e-10
-2.27486e-09
8.71991e-10
-2.38321e-09
8.41012e-10
-2.48738e-09
8.08562e-10
-2.58719e-09
7.74693e-10
-2.68245e-09
7.39462e-10
-2.77301e-09
7.02938e-10
-2.85871e-09
6.65179e-10
-2.93939e-09
6.26252e-10
-3.01492e-09
5.86229e-10
-3.08515e-09
5.45177e-10
-3.14998e-09
5.03167e-10
-3.20927e-09
4.60277e-10
-3.26294e-09
4.16578e-10
-3.31089e-09
3.72147e-10
-3.35302e-09
3.27066e-10
-3.38928e-09
2.81409e-10
-3.41959e-09
2.35257e-10
-3.4439e-09
1.88695e-10
-3.46217e-09
1.41802e-10
-3.47436e-09
9.46574e-11
-3.48046e-09
4.73493e-11
-3.48046e-09
-4.18175e-14
-3.47435e-09
-4.74345e-11
-3.46214e-09
-9.47428e-11
-3.44386e-09
-1.41884e-10
-3.41954e-09
-1.88779e-10
-3.38922e-09
-2.35342e-10
-3.35295e-09
-2.81491e-10
-3.31081e-09
-3.27148e-10
-3.26286e-09
-3.72231e-10
-3.20918e-09
-4.16659e-10
-3.14987e-09
-4.60357e-10
-3.08504e-09
-5.03248e-10
-3.01479e-09
-5.45256e-10
-2.93926e-09
-5.86306e-10
-2.85857e-09
-6.26329e-10
-2.77286e-09
-6.65254e-10
-2.68229e-09
-7.03011e-10
-2.58702e-09
-7.39535e-10
-2.4872e-09
-7.74762e-10
-2.38303e-09
-8.08629e-10
-2.27467e-09
-8.41077e-10
-2.16232e-09
-8.72051e-10
-2.04619e-09
-9.01495e-10
-1.92646e-09
-9.29358e-10
-1.80335e-09
-9.55589e-10
-1.67707e-09
-9.80146e-10
-1.54786e-09
-1.00298e-09
-1.41593e-09
-1.02406e-09
-1.28151e-09
-1.04334e-09
-1.14485e-09
-1.06079e-09
-1.00618e-09
-1.07638e-09
-8.65745e-10
-1.09008e-09
-7.2379e-10
-1.10187e-09
-5.80565e-10
-1.11172e-09
-4.36321e-10
-1.11963e-09
-2.91312e-10
-1.12557e-09
-1.45793e-10
-1.12953e-09
-1.72953e-14
-1.13152e-09
1.45759e-10
-1.13152e-09
2.91279e-10
-1.12953e-09
4.36287e-10
-1.12557e-09
5.8053e-10
-1.11963e-09
7.23756e-10
-1.11172e-09
8.6571e-10
-1.10186e-09
1.00615e-09
-1.09008e-09
1.14482e-09
-1.07638e-09
1.28148e-09
-1.06079e-09
1.4159e-09
-1.04334e-09
1.54783e-09
-1.02406e-09
1.67704e-09
-1.00298e-09
1.80332e-09
-9.80143e-10
1.92643e-09
-9.55588e-10
2.04616e-09
-9.29357e-10
2.1623e-09
-9.01495e-10
2.27465e-09
-8.72051e-10
2.383e-09
-8.41077e-10
2.48718e-09
-8.08629e-10
2.58699e-09
-7.74762e-10
2.68227e-09
-7.39536e-10
2.77284e-09
-7.03012e-10
2.85854e-09
-6.65254e-10
2.93923e-09
-6.26331e-10
3.01477e-09
-5.86307e-10
3.08501e-09
-5.45255e-10
3.14985e-09
-5.03247e-10
3.20916e-09
-4.60357e-10
3.26283e-09
-4.16659e-10
3.31079e-09
-3.7223e-10
3.35294e-09
-3.27148e-10
3.3892e-09
-2.81492e-10
3.41952e-09
-2.35343e-10
3.44384e-09
-1.8878e-10
3.46212e-09
-1.41886e-10
3.47433e-09
-9.47431e-11
3.48044e-09
-4.74354e-11
3.48044e-09
-4.45944e-14
3.47435e-09
4.7347e-11
3.46215e-09
9.46557e-11
3.44388e-09
1.41798e-10
3.41957e-09
1.88692e-10
3.38927e-09
2.35256e-10
3.35301e-09
2.81407e-10
3.31088e-09
3.27063e-10
3.26293e-09
3.72145e-10
3.20926e-09
4.16575e-10
3.14997e-09
4.60274e-10
3.08514e-09
5.03166e-10
3.01491e-09