/*--------------------------------*- C++ -*----------------------------------*\
| =========                 |                                                 |
| \\      /  F ield         | OpenFOAM: The Open Source CFD Toolbox           |
|  \\    /   O peration     | Version:  2106                                  |
|   \\  /    A nd           | Website:  www.openfoam.com                      |
|    \\/     M anipulation  |                                                 |
\*---------------------------------------------------------------------------*/
FoamFile
{
    version     2.0;
    format      ascii;
    arch        "LSB;label=32;scalar=64";
    class       surfaceScalarField;
    location    "0.048";
    object      phi_0;
}
// * * * * * * * * * * * * * * * * * * * * * * * * * * * * * * * * * * * * * //

dimensions      [0 3 -1 0 0 0 0];

oriented        oriented;

internalField   nonuniform List<scalar> 
480
(
-8.6234663e-05
8.6415836e-05
-0.00015958145
7.3346786e-05
-0.00020850954
4.8928093e-05
-0.00022557308
1.7063534e-05
-0.0002081807
-1.7392371e-05
-0.00015922559
-4.895511e-05
-8.6149795e-05
-7.3075799e-05
-1.756973e-07
-8.5974098e-05
8.5723941e-05
-8.5899638e-05
0.00015888999
-7.3166047e-05
0.00020804132
-4.9151332e-05
0.00022561065
-1.7569332e-05
0.00020871419
1.689646e-05
0.00015993743
4.8776765e-05
8.6554852e-05
7.3382575e-05
8.6373678e-05
-4.2696778e-05
0.00012925723
-7.9167094e-05
0.0001098171
-0.0001033715
7.3132502e-05
-0.00011162246
2.5314495e-05
-0.00010276808
-2.6246753e-05
-7.8460053e-05
-7.3263139e-05
-4.235398e-05
-0.00010918187
-1.3480563e-07
-0.00012819327
4.1963005e-05
-0.00012799745
7.8132587e-05
-0.00010933563
0.00010267011
-7.3688858e-05
0.00011165726
-2.6556481e-05
0.00010356012
2.4993603e-05
7.9502423e-05
7.2834461e-05
4.2975135e-05
0.00010990986
0.0001292042
-7.9579389e-05
0.00020890548
-0.00014766527
0.00017790299
-0.00019328049
0.00011874772
-0.00020918093
4.1214932e-05
-0.00019290261
-4.2525069e-05
-0.00014733926
-0.00011882649
-7.9454474e-05
-0.00017706666
-6.9819756e-08
-0.00020757793
7.9026218e-05
-0.00020709349
0.00014686748
-0.00017717689
0.00019279819
-0.00011961957
0.00020925534
-4.301363e-05
0.00019360142
4.0647527e-05
0.00014811691
0.00011831897
7.9771543e-05
0.00017825523
0.00020890688
6.5760205e-05
0.00014312153
0.00012064635
0.00012301685
0.00015762105
8.1773021e-05
0.00017135223
2.7483748e-05
0.00015907778
-3.0250615e-05
0.00012223965
-8.1988368e-05
6.6779261e-05
-0.00012160627
6.6318456e-08
-0.00014086498
-6.7243996e-05
-0.00013978317
-0.00012280264
-0.00012161825
-0.00015903504
-8.3387167e-05
-0.00017127863
-3.0770037e-05
-0.00015737351
2.6742402e-05
-0.00012012705
8.1072511e-05
-6.5638391e-05
0.00012376657
0.00014329223
-0.00010773623
0.00025069179
-0.00020145529
0.0002167359
-0.00026468849
0.00014500622
-0.00028627564
4.9070896e-05
-0.00026359323
-5.2933021e-05
-0.00020075038
-0.00014483122
-0.00010722225
-0.0002151344
2.2170555e-07
-0.00024830894
0.00010610227
-0.00024566374
0.00019894455
-0.00021446053
0.00026325616
-0.00014769877
0.00028655697
-5.4070845e-05
0.00026584471
4.7454654e-05
0.00020298526
0.00014393197
0.00010803738
0.00021871445
0.00025149558
-0.00018252626
0.00043352425
-0.00034037682
0.00037458646
-0.00044345969
0.00024808909
-0.00047565846
8.1269667e-05
-0.0004371889
-9.1402576e-05
-0.00033372334
-0.00024829678
-0.00017838563
-0.00037047211
-1.0377388e-07
-0.00042659079
0.00017533582
-0.00042110334
0.00032997489
-0.00036909959
0.00043680623
-0.00025453012
0.00047603791
-9.3302521e-05
0.00044513945
7.8353117e-05
0.00034358565
0.00024548576
0.00018423104
0.00037806906
0.00043542041
-0.001682054
0.0021145662
-0.0031191271
0.0018116596
-0.0040857765
0.0012147385
-0.0044247343
0.00042022742
-0.0040847827
-0.00043135418
-0.0031209599
-0.0012121195
-0.0016824666
-0.0018089654
1.2291891e-06
-0.0021102866
0.001676541
-0.0020964152
0.0031092206
-0.0018017791
0.0040802699
-0.0012255795
0.0044268011
-0.00043983371
0.0040944951
0.00041065916
0.0031284815
0.0012114993
0.0016837087
0.0018228419
0.0021201412
-0.0021554928
0.0042683047
-0.0039990485
0.0036552153
-0.0052487919
0.0024644819
-0.0056998867
0.00087132219
-0.0052742097
-0.00085703114
-0.0040371046
-0.0024492246
-0.0021806645
-0.0036654055
1.8411799e-06
-0.0042927923
0.0021758218
-0.0042703958
0.0040252795
-0.0036512368
0.0052687074
-0.0024690074
0.0057021745
-0.0008733008
0.005258745
0.00085408865
0.0040082737
0.0024619706
0.0021557417
0.0036753739
0.0042776371
0.0021598716
0.0021102239
0.0039982014
0.0018168855
0.005230171
0.0012325123
0.0056572197
0.00044427345
0.0052139597
-0.00041377108
0.0039775498
-0.0012128148
0.0021435708
-0.0018314266
-1.8117462e-06
-0.0021474097
-0.0021387583
-0.0021334493
-0.0039658344
-0.0018241608
-0.0052085175
-0.0012263243
-0.0056594987
-0.00042231956
-0.0052401597
0.00043474968
-0.004007496
0.0012293069
-0.0021600844
0.0018279623
0.0021157619
0.0017104808
0.00040071047
0.0031746018
0.0003527645
0.0041636167
0.00024349749
0.0045155815
9.2308638e-05
0.0041747726
-7.2962231e-05
0.0031939336
-0.00023197573
0.0017235894
-0.0003610824
-1.1965812e-06
-0.00042262367
-0.0017175998
-0.00041704607
-0.0031821256
-0.00035963489
-0.0041701746
-0.00023827531
-0.0045176037
-7.4890466e-05
-0.0041722999
8.9445866e-05
-0.0031839392
0.00024094621
-0.0017121957
0.00035621868
0.00040259891
9.6482353e-05
0.00030397301
0.00018506599
0.00026418086
0.00024761755
0.00018094593
0.00027269081
6.7235379e-05
0.00025804764
-5.8319065e-05
0.00020197366
-0.00017590175
0.00010903975
-0.00026814849
6.3528294e-08
-0.00031364745
-0.0001060125
-0.00031097004
-0.00019817104
-0.00026747634
-0.00025763114
-0.00017881521
-0.00027307562
-5.9445992e-05
-0.00024924323
6.5613483e-05
-0.00018817359
0.00017987657
-9.8129067e-05
0.00026617417
0.00030472494
0.00021815635
8.5912129e-05
0.00040601165
7.6325557e-05
0.00053318931
5.3768274e-05
0.00057865694
2.1767751e-05
0.00053536721
-1.5029337e-05
0.00040979904
-5.0333576e-05
0.00022080544
-7.9154887e-05
-1.1844239e-07
-9.2723569e-05
-0.00021954742
-9.1541063e-05
-0.00040788442
-7.9139349e-05
-0.00053492474
-5.1774893e-05
-0.00057889726
-1.547347e-05
-0.00053436346
2.1079685e-05
-0.00040756659
5.3079697e-05
-0.00021857271
7.7180287e-05
8.6056765e-05
-0.00026727822
0.0003533738
-0.00049240029
0.00030144763
-0.00064188587
0.00020325385
-0.00069353783
7.3419714e-05
-0.0006396717
-6.8895464e-05
-0.00048894583
-0.00020105945
-0.00026501109
-0.00030308962
-2.1073209e-07
-0.00035752393
0.00026528322
-0.00035703502
0.00048939674
-0.00030325286
0.00063950848
-0.00020188663
0.00069349645
-6.9461443e-05
0.00064175932
7.2816815e-05
0.0004920706
0.00020276842
0.00026747513
0.00030177575
0.00035334844
0.00028041982
7.285112e-05
0.00051886361
6.3003841e-05
0.00067863334
4.3484119e-05
0.00073507748
1.6975575e-05
0.00067929364
-1.311163e-05
0.00051991893
-4.1684731e-05
0.00028122715
-6.4397844e-05
1.2313317e-07
-7.6419915e-05
-0.00028072637
-7.6185518e-05
-0.00051940011
-6.4579125e-05
-0.00067913208
-4.2154658e-05
-0.00073513708
-1.345644e-05
-0.00067895665
1.663638e-05
-0.00051933501
4.3146784e-05
-0.0002806642
6.3104938e-05
7.2787106e-05
-0.00053945963
0.00061263938
-0.0009964223
0.00051996652
-0.0013011182
0.00034818003
-0.0014073716
0.00012322893
-0.0012995008
-0.00012098244
-0.00099418405
-0.00034700143
-0.00053816771
-0.00052041418
-3.3052921e-07
-0.0006142571
0.00053768001
-0.00061419605
0.00099387274
-0.00052077186
0.0012992351
-0.00034751698
0.0014073842
-0.00012160555
0.0013013182
0.00012270234
0.00099679032
0.00034767468
0.00054002103
0.00051987422
0.00061247951
0.000603059
0.0011154785
0.0014586156
0.0015800739
0.0014608616
0.0011189024
0.00060603463
6.7981115e-07
-0.00060461415
-0.0011178387
-0.0014603129
-0.0015801467
-0.0014592142
-0.0011165812
-0.0006042543
)
;

boundaryField
{
    leftWall
    {
        type            cyclic;
        value           nonuniform List<scalar> 
16
(
-1.8117371e-07
-1.4461384e-07
-6.8859092e-08
2.373788e-08
1.6596755e-07
-3.0620232e-07
1.0120152e-06
1.7542776e-06
-1.7908393e-06
-9.6734199e-07
2.5510296e-07
-9.5466703e-08
-1.8346001e-07
1.0286632e-07
-3.2863508e-07
6.7717121e-07
)
;
    }
    rightWall
    {
        type            cyclic;
        value           nonuniform List<scalar> 
16
(
1.8117371e-07
1.4461384e-07
6.8859092e-08
-2.373788e-08
-1.6596755e-07
3.0620232e-07
-1.0120152e-06
-1.7542776e-06
1.7908393e-06
9.6734199e-07
-2.5510296e-07
9.5466703e-08
1.8346001e-07
-1.0286632e-07
3.2863508e-07
-6.7717121e-07
)
;
    }
    lowerWall
    {
        type            calculated;
        value           uniform 0;
    }
    atmosphere
    {
        type            calculated;
        value           nonuniform List<scalar> 
16
(
8.9032105e-06
7.5470259e-06
5.0428887e-06
1.7706237e-06
-1.77009e-06
-5.042244e-06
-7.5464149e-06
-8.9022841e-06
-8.902094e-06
-7.5472826e-06
-5.0428494e-06
-1.7716962e-06
1.7698337e-06
5.0416491e-06
7.5473452e-06
8.9023789e-06
)
;
    }
    defaultFaces
    {
        type            empty;
        value           nonuniform List<scalar> 0();
    }
}


// ************************************************************************* //
