/*--------------------------------*- C++ -*----------------------------------*\
| =========                 |                                                 |
| \\      /  F ield         | OpenFOAM: The Open Source CFD Toolbox           |
|  \\    /   O peration     | Version:  2306                                  |
|   \\  /    A nd           | Website:  www.openfoam.com                      |
|    \\/     M anipulation  |                                                 |
\*---------------------------------------------------------------------------*/
FoamFile
{
    version     2.0;
    format      ascii;
    arch        "LSB;label=32;scalar=64";
    class       volVectorField;
    location    "0.22";
    object      U_0;
}
// * * * * * * * * * * * * * * * * * * * * * * * * * * * * * * * * * * * * * //

dimensions      [0 1 -1 0 0 0 0];

internalField   nonuniform List<vector> 
51200
(
(-1.9006751e-05 4.3335909e-06 4.6308158e-20)
(-4.8784705e-05 1.005095e-05 -5.7153392e-21)
(-8.3721425e-05 1.0570895e-05 -2.2351146e-20)
(-0.00011826101 1.1462137e-05 9.1176651e-21)
(-0.00015449439 1.1950632e-05 2.4180426e-20)
(-0.00019073085 1.2087213e-05 -7.783335e-21)
(-0.00022674959 1.2124964e-05 -1.4599352e-21)
(-0.00026249198 1.2108773e-05 2.0038344e-20)
(-0.00029791546 1.2059276e-05 1.2280712e-20)
(-0.00033298582 1.1988686e-05 -2.8739051e-20)
(-0.00036767474 1.1902826e-05 -3.1598744e-20)
(-0.00040195543 1.1804172e-05 3.9981961e-20)
(-0.00043580069 1.1693876e-05 8.7614408e-21)
(-0.00046918258 1.1572508e-05 -3.9541683e-20)
(-0.00050207254 1.1440281e-05 -1.792673e-20)
(-0.00053444172 1.1297188e-05 2.0226552e-20)
(-0.00056626115 1.1143015e-05 3.7358109e-20)
(-0.00059750194 1.0977304e-05 -1.0937761e-20)
(-0.00062813542 1.0799296e-05 -2.9546323e-20)
(-0.00065813327 1.0607762e-05 7.7071156e-21)
(-0.00068746753 1.040076e-05 5.8977539e-22)
(-0.00071611079 1.0175358e-05 2.4193031e-22)
(-0.00074403716 9.9275474e-06 5.3757827e-20)
(-0.00077122892 9.6534074e-06 1.016382e-19)
(-0.0007976816 9.3604174e-06 1.3634765e-19)
(-0.00082337031 9.0810048e-06 -8.4653461e-20)
(-0.00084825255 8.8227178e-06 -3.204962e-19)
(-0.00087230163 8.5802714e-06 -7.3070118e-20)
(-0.00089550056 8.3482024e-06 1.3924159e-19)
(-0.00091783486 8.122702e-06 1.5260497e-19)
(-0.0009392909 7.9013252e-06 1.2075607e-19)
(-0.00095985589 7.6825396e-06 -3.0268919e-20)
(-0.00097951804 7.4653748e-06 -3.8715848e-21)
(-0.00099826685 7.249254e-06 -1.6116037e-19)
(-0.0010160932 7.0338373e-06 -1.8900973e-19)
(-0.0010329896 6.8189427e-06 2.2801234e-19)
(-0.0010489499 6.604499e-06 1.6932169e-20)
(-0.0010639697 6.3905216e-06 -4.5715368e-19)
(-0.0010780463 6.1770705e-06 1.4598169e-19)
(-0.0010911786 5.9642494e-06 6.3924055e-19)
(-0.0011033669 5.7521909e-06 1.2195598e-19)
(-0.0011146134 5.5410592e-06 -3.1284784e-19)
(-0.0011249217 5.3310263e-06 -3.5583054e-19)
(-0.0011342969 5.1222799e-06 -2.4961365e-19)
(-0.0011427458 4.9150192e-06 2.2825373e-19)
(-0.0011502766 4.7094523e-06 7.9987304e-19)
(-0.0011568987 4.5057888e-06 -3.7134953e-20)
(-0.0011626231 4.304239e-06 -3.0885613e-19)
(-0.0011674621 4.1050175e-06 -2.5995784e-19)
(-0.001171429 3.9083314e-06 -8.1543463e-19)
(-0.0011745385 3.7143901e-06 4.269568e-19)
(-0.0011768063 3.5234009e-06 5.6118466e-19)
(-0.0011782493 3.3355488e-06 -3.4770825e-20)
(-0.0011788851 3.1510351e-06 2.7917019e-19)
(-0.0011787324 2.9700322e-06 -6.6410414e-19)
(-0.0011778106 2.7927166e-06 -5.1927606e-19)
(-0.0011761399 2.6192554e-06 5.9394162e-19)
(-0.0011737411 2.4497998e-06 1.9069515e-19)
(-0.0011706356 2.2844969e-06 -1.0201662e-19)
(-0.0011668453 2.1234794e-06 9.4898268e-20)
(-0.0011623927 1.96687e-06 -3.8628082e-20)
(-0.0011573004 1.8147904e-06 1.6909456e-20)
(-0.0011515914 1.6673526e-06 -3.3125974e-20)
(-0.001145289 1.5246497e-06 -2.4760365e-19)
(-0.0011384165 1.3867824e-06 -4.0078834e-19)
(-0.0011309975 1.2538445e-06 -1.0021477e-20)
(-0.0011230553 1.1259336e-06 7.336241e-19)
(-0.0011146134 1.0031442e-06 -1.2327511e-20)
(-0.0011056952 8.8558667e-07 -2.92204e-19)
(-0.0010963239 7.7339948e-07 5.8452115e-19)
(-0.0010865227 6.6676082e-07 -9.4643391e-20)
(-0.0010763144 5.6590348e-07 -4.2531903e-19)
(-0.0010657219 4.7115311e-07 9.9920936e-20)
(-0.0010547678 3.8293879e-07 1.737045e-19)
(-0.0010434746 3.018971e-07 1.9963634e-19)
(-0.0010318646 2.2911084e-07 -4.0071916e-19)
(-0.0010199589 1.6588461e-07 -3.7569849e-19)
(-0.0010077727 1.1166788e-07 3.5259872e-19)
(-0.00099528883 5.6537504e-08 4.4187678e-19)
(-0.00098255632 -6.5458769e-08 -1.8402983e-19)
(-0.00096963776 -1.9816858e-07 -6.6561661e-19)
(-0.0009565265 -3.2365366e-07 2.5546917e-19)
(-0.00094323088 -4.4008158e-07 4.9545175e-19)
(-0.00092976683 -5.477415e-07 5.0864371e-21)
(-0.00091615103 -6.4753193e-07 1.5771563e-19)
(-0.00090239973 -7.4034976e-07 -2.1252525e-19)
(-0.00088852858 -8.2692981e-07 2.7353789e-21)
(-0.00087455254 -9.0784615e-07 -5.3287021e-21)
(-0.0008604859 -9.8354436e-07 -3.5125894e-19)
(-0.00084634236 -1.0543991e-06 1.3992121e-19)
(-0.00083213496 -1.1207115e-06 -2.4382789e-19)
(-0.00081787617 -1.1827487e-06 -1.643373e-19)
(-0.00080357784 -1.2407455e-06 3.7520164e-19)
(-0.00078925127 -1.2949215e-06 1.9216038e-19)
(-0.00077490718 -1.3454742e-06 -5.3068441e-20)
(-0.00076055572 -1.3925836e-06 -3.7450409e-19)
(-0.00074620654 -1.4364272e-06 2.0680502e-20)
(-0.0007318687 -1.4771601e-06 2.7900498e-19)
(-0.00071755079 -1.5149444e-06 1.9810536e-19)
(-0.00070326086 -1.5499288e-06 -6.9855005e-20)
(-0.00068900651 -1.5822464e-06 -4.2932034e-19)
(-0.00067479481 -1.6120498e-06 1.0086821e-19)
(-0.0006606324 -1.6394501e-06 1.813459e-19)
(-0.00064652547 -1.6645839e-06 1.1896957e-19)
(-0.00063247977 -1.6875689e-06 -1.1080127e-20)
(-0.00061850062 -1.7085158e-06 -4.2159164e-19)
(-0.00060459295 -1.7275423e-06 9.7433738e-20)
(-0.0005907613 -1.7447485e-06 2.6395277e-19)
(-0.00057700982 -1.760243e-06 4.3449429e-20)
(-0.00056334233 -1.7741182e-06 2.304557e-20)
(-0.00054976227 -1.7864749e-06 -3.0310683e-19)
(-0.00053627277 -1.7973917e-06 -1.0329793e-19)
(-0.00052287665 -1.8069707e-06 1.880934e-19)
(-0.0005095764 -1.8152882e-06 4.6957704e-20)
(-0.00049637424 -1.822424e-06 3.8236755e-20)
(-0.00048327211 -1.8284493e-06 -5.8137427e-20)
(-0.00047027169 -1.833444e-06 1.0669316e-20)
(-0.00045737441 -1.8374758e-06 7.675198e-20)
(-0.00044458146 -1.8406105e-06 -6.1168159e-21)
(-0.00043189382 -1.8429132e-06 3.2938803e-20)
(-0.00041931222 -1.8444402e-06 -7.6296819e-20)
(-0.00040683722 -1.8452591e-06 -2.5363463e-20)
(-0.00039446918 -1.8454105e-06 7.4364524e-20)
(-0.0003822083 -1.8449592e-06 6.0232227e-20)
(-0.00037005457 -1.8439479e-06 -1.2972208e-21)
(-0.00035800785 -1.8424295e-06 -1.6304996e-19)
(-0.00034606785 -1.8404415e-06 -4.453299e-20)
(-0.00033423413 -1.8380325e-06 1.1015563e-19)
(-0.00032250611 -1.8352386e-06 5.4053293e-20)
(-0.00031088312 -1.8321045e-06 -3.3201867e-20)
(-0.00029936434 -1.8286577e-06 -7.2928717e-20)
(-0.00028794887 -1.8249335e-06 7.7483258e-21)
(-0.00027663571 -1.8209719e-06 2.9023179e-20)
(-0.00026542374 -1.8167934e-06 -2.7545978e-20)
(-0.00025431179 -1.8124296e-06 -6.0259986e-20)
(-0.00024329859 -1.8079099e-06 -2.2558221e-21)
(-0.00023238283 -1.8032594e-06 7.2526378e-20)
(-0.0002215631 -1.7984928e-06 2.6274581e-20)
(-0.00021083796 -1.7936434e-06 1.3734209e-21)
(-0.0002002059 -1.788722e-06 -6.1349583e-21)
(-0.00018966537 -1.7837501e-06 -2.815699e-20)
(-0.0001792148 -1.7787469e-06 2.3958028e-20)
(-0.00016885255 -1.773727e-06 1.1387808e-20)
(-0.00015857698 -1.7687038e-06 -4.5045294e-21)
(-0.00014838641 -1.7636871e-06 1.7955008e-20)
(-0.00013827917 -1.7586862e-06 -4.6206192e-20)
(-0.00012825356 -1.7537122e-06 -2.1036478e-20)
(-0.00011830791 -1.7487606e-06 4.6150119e-20)
(-0.00010844057 -1.7438192e-06 2.4601354e-20)
(-9.864998e-05 -1.7388549e-06 -1.3275533e-20)
(-8.8934701e-05 -1.7337809e-06 -3.4545837e-20)
(-7.9293634e-05 -1.7283782e-06 -9.2663941e-21)
(-6.9726357e-05 -1.722128e-06 2.3264016e-20)
(-6.0233953e-05 -1.7137815e-06 8.3099737e-21)
(-5.0820765e-05 -1.7004903e-06 -6.3958919e-21)
(-4.1497747e-05 -1.6765822e-06 -9.4509192e-21)
(-3.2287744e-05 -1.6345247e-06 -2.8650396e-21)
(-2.3225899e-05 -1.5842908e-06 3.989189e-21)
(-1.4267707e-05 -1.6932317e-06 6.1497237e-22)
(-4.8827853e-06 -2.5719698e-06 -4.2888047e-21)
(-5.2998093e-05 0.00011693566 5.3930327e-20)
(-0.0001227577 0.00012508428 -1.9692118e-20)
(-0.00020266084 0.00012741886 -2.9263828e-21)
(-0.00028093794 0.00012994493 5.571598e-20)
(-0.00036191654 0.00013123291 5.2840683e-20)
(-0.00044283547 0.00013157182 -5.3722572e-21)
(-0.00052335026 0.00013145508 6.3164593e-20)
(-0.00060335335 0.00013106705 4.0822662e-20)
(-0.000682729 0.00013048996 -3.3835025e-20)
(-0.00076136288 0.00012976809 -2.1238842e-20)
(-0.00083915535 0.00012892535 -7.5309904e-21)
(-0.00091601615 0.00012797475 3.39647e-20)
(-0.00099186017 0.00012692397 7.4201657e-20)
(-0.0010666058 0.00012577807 9.4261293e-20)
(-0.0011401741 0.00012454067 2.788852e-20)
(-0.0012124888 0.00012321462 5.5337567e-20)
(-0.0012834758 0.00012180231 1.5329078e-19)
(-0.0013530639 0.00012030582 2.4088553e-20)
(-0.0014211842 0.00011872698 -1.6225853e-19)
(-0.0014877709 0.0001170673 -1.1224587e-19)
(-0.0015527613 0.00011532787 2.6764535e-22)
(-0.001616096 0.0001135092 4.0679827e-20)
(-0.0016777189 0.0001116113 9.8299061e-20)
(-0.0017375705 0.00010963442 2.1911037e-19)
(-0.0017955822 0.00010758665 1.7067696e-19)
(-0.0018517048 0.00010549347 -2.8593297e-19)
(-0.0019059102 0.00010336495 -4.1962761e-19)
(-0.0019581639 0.00010120113 -1.6280236e-19)
(-0.0020084287 9.9001062e-05 -8.5296322e-20)
(-0.0020566707 9.6765004e-05 4.0991155e-19)
(-0.00210286 9.449433e-05 5.5296244e-19)
(-0.0021469708 9.2191163e-05 -2.2142367e-19)
(-0.0021889815 8.9858104e-05 -4.9470692e-19)
(-0.0022288746 8.7498121e-05 -2.1358049e-19)
(-0.0022666363 8.5114401e-05 3.0017685e-19)
(-0.0023022567 8.2710301e-05 2.9111462e-19)
(-0.0023357299 8.0289279e-05 -4.6413076e-19)
(-0.0023670537 7.7854863e-05 -7.1454395e-19)
(-0.0023962296 7.5410617e-05 6.1076873e-19)
(-0.002423263 7.2960099e-05 8.2823016e-19)
(-0.0024481626 7.0506861e-05 -9.5657551e-19)
(-0.0024709408 6.8054419e-05 -3.932898e-19)
(-0.0024916135 6.5606235e-05 1.241569e-18)
(-0.0025101998 6.3165705e-05 1.5718418e-18)
(-0.0025267219 6.0736142e-05 2.394814e-20)
(-0.0025412052 5.8320776e-05 -2.5050263e-18)
(-0.0025536779 5.5922739e-05 -1.486491e-18)
(-0.0025641711 5.3545044e-05 1.2448869e-18)
(-0.0025727184 5.119059e-05 1.2048673e-18)
(-0.0025793559 4.8862151e-05 -6.7942415e-19)
(-0.0025841218 4.6562362e-05 -1.1280673e-18)
(-0.0025870568 4.4293732e-05 1.1294598e-18)
(-0.0025882032 4.2058601e-05 1.5602736e-18)
(-0.0025876053 3.9859196e-05 -2.1755998e-19)
(-0.0025853089 3.769755e-05 -9.9164581e-19)
(-0.0025813611 3.5575577e-05 -1.1096148e-18)
(-0.0025758107 3.3495022e-05 -1.0929577e-19)
(-0.002568707 3.1457472e-05 1.2991754e-18)
(-0.0025601008 2.9464364e-05 4.9218514e-19)
(-0.0025500433 2.7516981e-05 -1.2826652e-18)
(-0.0025385863 2.561644e-05 -4.7277259e-19)
(-0.0025257824 2.3763731e-05 1.3382603e-18)
(-0.0025116841 2.1959692e-05 3.9705336e-19)
(-0.0024963443 2.0205005e-05 -1.5081704e-18)
(-0.0024798158 1.8500237e-05 -8.192446e-19)
(-0.0024621512 1.684581e-05 8.7849081e-19)
(-0.0024434032 1.5242049e-05 9.7076517e-19)
(-0.0024236237 1.3689152e-05 2.7037909e-19)
(-0.0024028645 1.2187239e-05 -4.9246633e-19)
(-0.0023811767 1.0736365e-05 -1.1139769e-18)
(-0.0023586107 9.3365586e-06 1.3846865e-19)
(-0.0023352164 7.9878569e-06 8.0787801e-19)
(-0.0023110427 6.6903361e-06 -6.7773854e-20)
(-0.0022861378 5.4441128e-06 1.3739804e-19)
(-0.0022605491 4.2494146e-06 4.6841624e-19)
(-0.0022343237 3.1066163e-06 1.1981486e-19)
(-0.0022075085 2.0157667e-06 -7.0116033e-19)
(-0.0021801518 9.7114008e-07 -6.7287208e-19)
(-0.0021523214 -4.9734585e-08 2.0872684e-19)
(-0.002124022 -1.0807001e-06 2.9683121e-19)
(-0.0020952549 -2.0761878e-06 1.479331e-20)
(-0.0020660868 -3.0246744e-06 1.776034e-19)
(-0.0020365657 -3.9262412e-06 2.5493651e-19)
(-0.0020067298 -4.7824492e-06 -4.4164459e-19)
(-0.001976614 -5.5953147e-06 -4.8499684e-20)
(-0.0019462517 -6.3667569e-06 4.5039856e-19)
(-0.0019156749 -7.0985202e-06 -3.9528638e-19)
(-0.001884914 -7.7921837e-06 1.1594518e-19)
(-0.0018539984 -8.4492107e-06 2.3013187e-19)
(-0.0018229561 -9.0709938e-06 -3.4106811e-19)
(-0.0017918139 -9.6588558e-06 -2.6816928e-19)
(-0.0017605971 -1.0214084e-05 -2.1494168e-19)
(-0.0017293302 -1.0737928e-05 3.4529006e-19)
(-0.0016980359 -1.123162e-05 1.8746761e-19)
(-0.0016667362 -1.1696351e-05 -1.3987399e-19)
(-0.0016354516 -1.2133297e-05 -4.6758578e-20)
(-0.0016042017 -1.2543605e-05 3.8130227e-20)
(-0.0015730047 -1.2928388e-05 2.8697676e-19)
(-0.0015418778 -1.3288759e-05 -8.3041729e-20)
(-0.0015108374 -1.3625786e-05 -4.1366095e-19)
(-0.0014798985 -1.3940504e-05 -7.1708904e-20)
(-0.0014490753 -1.4233957e-05 2.960858e-19)
(-0.0014183809 -1.4507119e-05 2.8596535e-19)
(-0.0013878276 -1.4760971e-05 -1.615661e-20)
(-0.0013574268 -1.4996443e-05 -2.9976398e-19)
(-0.0013271888 -1.5214452e-05 -2.5589989e-19)
(-0.0012971233 -1.5415883e-05 1.5845241e-19)
(-0.0012672391 -1.5601592e-05 4.4932101e-19)
(-0.0012375443 -1.5772418e-05 4.2481298e-20)
(-0.0012080462 -1.5929153e-05 -3.5015357e-19)
(-0.0011787512 -1.6072575e-05 -1.3292705e-19)
(-0.0011496655 -1.6203429e-05 -5.212593e-20)
(-0.0011207941 -1.6322441e-05 2.7792912e-19)
(-0.0010921417 -1.6430309e-05 3.3363337e-19)
(-0.0010637125 -1.6527696e-05 -2.0937143e-19)
(-0.0010355098 -1.6615243e-05 -3.0173718e-19)
(-0.0010075365 -1.6693567e-05 -5.0958622e-20)
(-0.00097979525 -1.6763267e-05 2.8381959e-19)
(-0.00095228786 -1.6824909e-05 1.1024053e-19)
(-0.00092501585 -1.6879038e-05 -3.3496372e-19)
(-0.00089798029 -1.6926168e-05 -1.0676879e-19)
(-0.00087118184 -1.6966813e-05 2.8047379e-19)
(-0.00084462078 -1.7001427e-05 2.3604692e-19)
(-0.00081829701 -1.7030482e-05 -1.2558541e-19)
(-0.00079221011 -1.7054406e-05 -3.5143137e-19)
(-0.00076635933 -1.7073618e-05 -4.0537648e-20)
(-0.00074074363 -1.7088506e-05 2.3619773e-19)
(-0.00071536165 -1.7099452e-05 1.35585e-19)
(-0.00069021183 -1.71068e-05 -4.5757967e-20)
(-0.00066529233 -1.7110907e-05 -1.7702607e-19)
(-0.00064060108 -1.7112077e-05 -6.3352731e-20)
(-0.00061613581 -1.7110616e-05 1.9466305e-19)
(-0.00059189405 -1.7106827e-05 1.7215469e-19)
(-0.00056787317 -1.7100969e-05 -7.9873612e-20)
(-0.00054407036 -1.7093298e-05 -2.4680527e-19)
(-0.00052048264 -1.7084065e-05 -3.161357e-20)
(-0.00049710693 -1.70735e-05 1.8029339e-19)
(-0.00047394 -1.7061799e-05 7.5362413e-20)
(-0.00045097853 -1.7049185e-05 -2.8496745e-20)
(-0.00042821908 -1.7035828e-05 -5.6162065e-20)
(-0.00040565812 -1.7021915e-05 -1.6200108e-20)
(-0.00038329208 -1.7007598e-05 2.3625523e-20)
(-0.00036111728 -1.6993035e-05 3.6153852e-20)
(-0.00033913002 -1.6978354e-05 -2.3333779e-20)
(-0.00031732654 -1.6963673e-05 -6.7446172e-20)
(-0.00029570308 -1.6949091e-05 -1.2801202e-20)
(-0.00027425584 -1.6934701e-05 4.9964107e-20)
(-0.00025298104 -1.6920539e-05 6.0907067e-20)
(-0.00023187494 -1.6906592e-05 -1.8602942e-20)
(-0.0002109339 -1.6892767e-05 -6.8988328e-20)
(-0.00019015439 -1.6878781e-05 -7.108662e-21)
(-0.00016953314 -1.6863962e-05 3.8936998e-20)
(-0.00014906728 -1.6846866e-05 2.5587174e-20)
(-0.00012875449 -1.6824435e-05 -1.070963e-20)
(-0.00010859307 -1.6790684e-05 -2.3366033e-20)
(-8.8580836e-05 -1.673575e-05 -2.606664e-21)
(-6.871024e-05 -1.6651446e-05 1.0336365e-20)
(-4.8956187e-05 -1.6561177e-05 5.4304549e-21)
(-2.9268162e-05 -1.6611064e-05 -2.3177818e-21)
(-9.6798802e-06 -1.7221917e-05 -3.6068074e-21)
(-7.2442407e-05 0.00031588598 -8.0333671e-20)
(-0.00016415275 0.0003231352 -3.4883251e-20)
(-0.00026847111 0.00032628345 -1.2605758e-20)
(-0.00036973556 0.00032897466 6.1906599e-21)
(-0.00047393053 0.00033019321 -5.2527974e-21)
(-0.00057785838 0.00033022487 -3.8321784e-20)
(-0.00068123996 0.00032952409 5.0393091e-20)
(-0.00078398619 0.00032831173 -2.4763761e-21)
(-0.000885956 0.00032670387 2.0757866e-20)
(-0.00098699387 0.00032476715 1.4656858e-19)
(-0.0010869585 0.00032254112 8.5440591e-20)
(-0.0011857205 0.00032005012 7.930847e-20)
(-0.0012831586 0.00031731031 -1.3034802e-20)
(-0.0013791576 0.00031433354 1.0345382e-19)
(-0.001473608 0.00031112931 1.775198e-19)
(-0.0015664045 0.00030770596 3.5620774e-20)
(-0.0016574467 0.00030407122 6.6173493e-20)
(-0.0017466381 0.00030023265 -3.3768949e-20)
(-0.0018338868 0.00029619786 -9.9679246e-20)
(-0.0019191048 0.00029197472 5.0105017e-20)
(-0.0020022086 0.00028757152 3.7736065e-20)
(-0.0020831192 0.00028299721 2.9436522e-20)
(-0.0021617618 0.00027826149 1.2700875e-19)
(-0.0022380653 0.00027337476 1.7332322e-19)
(-0.0023119635 0.00026834326 2.6876683e-21)
(-0.0023833985 0.00026316249 -9.2952925e-20)
(-0.0024523181 0.00025783916 -7.8656198e-20)
(-0.002518672 0.00025238534 -1.9027257e-19)
(-0.0025824138 0.00024681277 -2.1681231e-19)
(-0.0026435028 0.00024113242 7.896578e-20)
(-0.0027019037 0.00023535479 2.1912884e-19)
(-0.0027575869 0.00022949005 -1.669694e-20)
(-0.0028105283 0.00022354823 -2.7206489e-19)
(-0.0028607088 0.00021753927 -2.6886615e-19)
(-0.0029081148 0.00021147307 1.6442359e-19)
(-0.0029527374 0.00020535947 2.5780886e-19)
(-0.0029945732 0.0001992083 -8.0991502e-20)
(-0.0030336233 0.00019302926 -1.3636633e-19)
(-0.003069894 0.00018683198 3.0209177e-20)
(-0.0031033961 0.00018062594 -1.7024095e-19)
(-0.0031341452 0.00017442044 -3.8922477e-19)
(-0.0031621611 0.00016822459 2.5223603e-19)
(-0.0031874682 0.00016204728 7.2557107e-19)
(-0.0032100951 0.00015589714 6.59949e-19)
(-0.0032300741 0.00014978251 -7.0291787e-20)
(-0.0032474415 0.00014371144 -1.3693657e-18)
(-0.0032622372 0.00013769168 -6.1518693e-19)
(-0.0032745046 0.00013173061 4.4319895e-19)
(-0.0032842901 0.00012583528 5.3091721e-19)
(-0.0032916431 0.00012001239 4.2373708e-19)
(-0.0032966158 0.00011426821 -6.5822596e-19)
(-0.0032992632 0.0001086087 -1.05077e-20)
(-0.0032996421 0.00010303935 7.2999508e-19)
(-0.0032978119 9.7565304e-05 -7.2379579e-20)
(-0.0032938336 9.2191268e-05 -1.1193822e-19)
(-0.0032877698 8.6921572e-05 -2.717509e-19)
(-0.0032796847 8.1760117e-05 -2.4541214e-19)
(-0.0032696436 7.6710414e-05 4.486688e-19)
(-0.0032577129 7.1775582e-05 1.1556229e-19)
(-0.0032439596 6.6958331e-05 -6.2863845e-19)
(-0.0032284515 6.2260987e-05 -1.6234426e-19)
(-0.0032112567 5.768551e-05 4.8243326e-19)
(-0.0031924436 5.3233485e-05 9.0741569e-20)
(-0.0031720805 4.8906131e-05 -3.1671431e-19)
(-0.0031502355 4.4704345e-05 1.1634134e-19)
(-0.0031269767 4.0628668e-05 2.3465747e-19)
(-0.0031023715 3.6679348e-05 -1.0687356e-19)
(-0.0030764867 3.285632e-05 5.0911866e-20)
(-0.0030493885 2.9159266e-05 -6.0272519e-20)
(-0.0030211423 2.5587614e-05 -4.6579264e-19)
(-0.0029918124 2.2140591e-05 6.4060976e-22)
(-0.002961462 1.8817264e-05 2.6508021e-19)
(-0.0029301533 1.5616525e-05 -2.9483819e-20)
(-0.0028979473 1.2537089e-05 1.5760368e-19)
(-0.0028649035 9.5774109e-06 1.6878237e-19)
(-0.0028310807 6.7355533e-06 1.2825395e-19)
(-0.0027965406 4.0091403e-06 -1.4970447e-19)
(-0.0027613501 1.3948887e-06 -5.1085446e-19)
(-0.0027255505 -1.1132831e-06 -1.3510276e-19)
(-0.0026891671 -3.4801331e-06 3.808608e-19)
(-0.0026522543 -5.7348179e-06 2.9915532e-19)
(-0.0026148731 -7.8870632e-06 -2.8879887e-19)
(-0.002577073 -9.9401481e-06 -2.1909327e-19)
(-0.0025388994 -1.1897062e-05 -1.5668367e-19)
(-0.0025003957 -1.3760481e-05 -1.061042e-19)
(-0.0024616037 -1.5532981e-05 2.198267e-19)
(-0.0024225632 -1.7217179e-05 -1.2857509e-19)
(-0.0023833123 -1.881573e-05 8.2671313e-20)
(-0.0023438875 -2.0331326e-05 3.2542881e-19)
(-0.0023043236 -2.1766681e-05 -1.3105845e-19)
(-0.0022646539 -2.3124518e-05 -1.5531719e-19)
(-0.0022249098 -2.4407565e-05 -4.4928461e-20)
(-0.0021851213 -2.5618535e-05 7.4252269e-20)
(-0.0021453169 -2.6760127e-05 -5.845917e-20)
(-0.0021055234 -2.7835008e-05 -1.1143202e-20)
(-0.0020657663 -2.8845824e-05 2.5538997e-19)
(-0.0020260694 -2.9795175e-05 -4.2397203e-20)
(-0.0019864553 -3.0685617e-05 -1.2397564e-19)
(-0.0019469452 -3.1519675e-05 -1.7312415e-19)
(-0.0019075589 -3.2299807e-05 -8.3630697e-20)
(-0.0018683149 -3.3028419e-05 2.2873408e-19)
(-0.0018292304 -3.3707875e-05 1.0142526e-19)
(-0.0017903216 -3.4340472e-05 3.7325741e-20)
(-0.0017516033 -3.4928455e-05 -1.4192825e-19)
(-0.0017130893 -3.5473986e-05 -9.1949331e-20)
(-0.0016747922 -3.5979192e-05 1.887049e-19)
(-0.0016367236 -3.6446118e-05 3.3077396e-20)
(-0.0015988942 -3.687676e-05 3.015391e-20)
(-0.0015613136 -3.7273054e-05 -6.3075814e-20)
(-0.0015239906 -3.7636845e-05 -2.0446447e-19)
(-0.001486933 -3.7969934e-05 6.7379584e-20)
(-0.0014501478 -3.827407e-05 8.7891688e-20)
(-0.0014136412 -3.855091e-05 5.5268097e-20)
(-0.0013774187 -3.8802085e-05 1.088501e-19)
(-0.0013414849 -3.9029138e-05 -8.7854937e-20)
(-0.0013058439 -3.9233559e-05 -1.5443055e-19)
(-0.001270499 -3.9416782e-05 -6.2086653e-20)
(-0.0012354529 -3.9580187e-05 1.0373875e-19)
(-0.0012007078 -3.9725094e-05 5.6311197e-20)
(-0.0011662652 -3.9852761e-05 -9.5757138e-20)
(-0.0011321262 -3.9964402e-05 1.8945478e-20)
(-0.0010982912 -4.0061174e-05 9.6587182e-20)
(-0.0010647605 -4.0144172e-05 4.3893796e-20)
(-0.0010315334 -4.021446e-05 -9.2508894e-20)
(-0.00099860938 -4.0273047e-05 -1.2504463e-19)
(-0.00096598711 -4.0320895e-05 6.4791118e-20)
(-0.00093366505 -4.0358915e-05 1.0595686e-19)
(-0.00090164131 -4.0387983e-05 3.2816734e-20)
(-0.00086991366 -4.0408911e-05 -5.8711644e-20)
(-0.00083847958 -4.0422501e-05 -6.0138504e-20)
(-0.00080733629 -4.0429486e-05 3.5867833e-20)
(-0.00077648073 -4.0430578e-05 5.4049866e-20)
(-0.00074590961 -4.0426454e-05 4.3707795e-20)
(-0.00071561943 -4.0417733e-05 -9.8532926e-21)
(-0.00068560649 -4.0405019e-05 -5.7503402e-20)
(-0.0006558669 -4.0388878e-05 -2.2707992e-20)
(-0.00062639661 -4.0369839e-05 3.5048241e-20)
(-0.00059719142 -4.0348387e-05 3.1646491e-20)
(-0.000568247 -4.032501e-05 -2.1031246e-20)
(-0.00053955888 -4.0300138e-05 -2.1399303e-20)
(-0.00051112252 -4.0274178e-05 1.0232204e-20)
(-0.00048293327 -4.0247497e-05 -1.7376989e-20)
(-0.0004549864 -4.022046e-05 7.1091094e-21)
(-0.00042727711 -4.0193376e-05 -5.587161e-22)
(-0.00039980058 -4.0166532e-05 -2.2590132e-20)
(-0.00037255193 -4.014017e-05 2.2607428e-20)
(-0.00034552626 -4.0114504e-05 1.0369271e-20)
(-0.00031871868 -4.0089679e-05 -1.695167e-21)
(-0.00029212431 -4.0065744e-05 -6.0839777e-21)
(-0.00026573831 -4.0042646e-05 -9.9873729e-21)
(-0.00023955589 -4.0020097e-05 2.3668258e-20)
(-0.00021357231 -3.9997431e-05 1.7025763e-20)
(-0.00018778281 -3.9973333e-05 1.0115198e-21)
(-0.00016218234 -3.9945444e-05 -2.0338539e-20)
(-0.00013676486 -3.9910174e-05 -9.4038513e-21)
(-0.00011152164 -3.9864249e-05 1.8786506e-20)
(-8.6437423e-05 -3.9813823e-05 6.9367612e-21)
(-6.1482879e-05 -3.9803084e-05 1.2739064e-21)
(-3.6625586e-05 -3.9974574e-05 3.9220302e-21)
(-1.2074432e-05 -4.0567098e-05 1.2060557e-20)
(-8.0567747e-05 0.00054459734 -4.9829315e-19)
(-0.0001829737 0.00054901604 -1.204035e-19)
(-0.00029893971 0.00055134161 -1.2155597e-20)
(-0.00041089284 0.00055310661 -1.6119824e-19)
(-0.00052585837 0.00055354496 2.5763815e-20)
(-0.00064035193 0.0005528069 -8.4216158e-20)
(-0.00075416704 0.00055119861 -7.662861e-20)
(-0.00086725195 0.00054889982 -1.8872961e-20)
(-0.0009794714 0.00054601969 7.0252242e-20)
(-0.0010906606 0.00054262672 1.4739787e-19)
(-0.0012006638 0.00053876547 1.1047232e-19)
(-0.0013093356 0.00053446623 1.1280759e-19)
(-0.0014165386 0.00052975114 -5.3805091e-20)
(-0.0015221423 0.00052463771 5.6302341e-20)
(-0.0016260223 0.00051914088 1.0185075e-19)
(-0.0017280597 0.00051327426 -6.39794e-20)
(-0.0018281413 0.00050705078 9.1619498e-20)
(-0.0019261586 0.00050048318 3.415564e-20)
(-0.0020220087 0.00049358422 -4.3975646e-20)
(-0.0021155935 0.0004863669 4.2369858e-20)
(-0.00220682 0.00047884447 1.4853716e-20)
(-0.0022956004 0.00047103056 2.2735056e-20)
(-0.0023818523 0.0004629391 9.2589342e-20)
(-0.0024654983 0.00045458434 2.3817791e-20)
(-0.002546467 0.00044598039 -5.3318177e-20)
(-0.0026246935 0.00043714103 -7.473307e-20)
(-0.0027001189 0.00042808268 -1.5609095e-19)
(-0.0027726892 0.00041882279 -1.3906644e-20)
(-0.0028423556 0.00040937843 2.5919103e-20)
(-0.002909075 0.00039976619 -5.7874605e-20)
(-0.0029728102 0.00039000251 -7.3931788e-20)
(-0.00303353 0.00038010377 -2.0895692e-20)
(-0.0030912095 0.00037008638 8.3209975e-20)
(-0.0031458293 0.00035996675 -4.1236751e-20)
(-0.003197376 0.00034976131 -1.6907275e-19)
(-0.0032458421 0.00033948642 1.9444758e-20)
(-0.0032912255 0.00032915836 1.9168064e-19)
(-0.0033335297 0.00031879328 7.7908524e-20)
(-0.0033727636 0.0003084071 -5.5068188e-20)
(-0.0034089413 0.0002980155 -1.0461232e-19)
(-0.003442082 0.00028763384 -5.368276e-20)
(-0.0034722099 0.00027727715 9.9055321e-20)
(-0.0034993539 0.00026696004 1.5793232e-19)
(-0.0035235475 0.00025669666 -5.4483011e-20)
(-0.0035448283 0.00024650069 -5.7735893e-21)
(-0.0035632385 0.00023638529 -1.6841754e-19)
(-0.0035788239 0.00022636307 -2.0523961e-19)
(-0.0035916339 0.00021644605 4.2003719e-20)
(-0.0036017217 0.00020664564 1.1061912e-20)
(-0.0036091433 0.00019697266 2.1258747e-19)
(-0.0036139579 0.00018743726 4.0023899e-20)
(-0.0036162274 0.00017804895 -1.9126398e-19)
(-0.0036160161 0.00016881654 1.0985868e-19)
(-0.0036133904 0.00015974822 8.3956651e-20)
(-0.003608419 0.00015085145 -2.6932476e-20)
(-0.0036011718 0.00014213306 -7.2253204e-20)
(-0.0035917206 0.00013359918 -9.2535585e-20)
(-0.0035801382 0.00012525527 1.0277972e-19)
(-0.0035664986 0.00011710614 2.2024328e-20)
(-0.0035508763 0.00010915595 -2.3851041e-19)
(-0.0035333466 0.00010140822 -3.5352665e-20)
(-0.0035139849 9.3865852e-05 1.943701e-19)
(-0.003492867 8.6531144e-05 4.6144052e-20)
(-0.0034700684 7.9405805e-05 -5.5907004e-20)
(-0.0034456645 7.2491001e-05 6.8768115e-20)
(-0.0034197303 6.5787351e-05 2.5268668e-20)
(-0.00339234 5.9294954e-05 -1.7303385e-19)
(-0.0033635674 5.3013424e-05 -3.6399536e-20)
(-0.0033334851 4.6941938e-05 2.2245719e-20)
(-0.0033021649 4.1079247e-05 -8.32103e-22)
(-0.0032696773 3.5423701e-05 9.5798055e-21)
(-0.0032360917 2.9973317e-05 -6.9309176e-21)
(-0.0032014758 2.4725746e-05 -6.7134181e-20)
(-0.003165896 1.9678259e-05 -5.0448568e-20)
(-0.0031294173 1.4827627e-05 1.3205951e-19)
(-0.0030921032 1.0170315e-05 7.4578616e-20)
(-0.0030540177 5.7031266e-06 -1.5356589e-19)
(-0.0030152279 1.4294693e-06 -2.500499e-19)
(-0.0029757818 -2.6371867e-06 -8.1356454e-20)
(-0.0029357283 -6.5059443e-06 1.0785669e-19)
(-0.0028951296 -1.0199933e-05 2.589515e-20)
(-0.0028540376 -1.3725724e-05 -1.2902981e-19)
(-0.0028125034 -1.7088037e-05 -2.7450917e-20)
(-0.0027705763 -2.0291452e-05 3.8172906e-20)
(-0.0027283034 -2.3340356e-05 1.2275383e-20)
(-0.0026857301 -2.6239146e-05 7.4918715e-21)
(-0.0026428995 -2.8992285e-05 -1.2635547e-19)
(-0.0025998531 -3.1604272e-05 -4.8972243e-20)
(-0.0025566304 -3.4079651e-05 8.6335851e-20)
(-0.0025132689 -3.6422988e-05 8.8383381e-20)
(-0.0024698046 -3.8638845e-05 -8.5378619e-21)
(-0.0024262715 -4.0731782e-05 -1.2255943e-19)
(-0.0023827019 -4.2706324e-05 2.0977843e-20)
(-0.0023391266 -4.4566958e-05 5.4948504e-20)
(-0.0022955744 -4.6318135e-05 4.8504957e-20)
(-0.0022520726 -4.7964225e-05 6.5422274e-20)
(-0.0022086471 -4.9509554e-05 -1.0477797e-19)
(-0.002165322 -5.0958346e-05 -6.6683695e-20)
(-0.00212212 -5.2314779e-05 -7.2602006e-21)
(-0.0020790624 -5.3582913e-05 7.5520644e-21)
(-0.0020361689 -5.4766732e-05 9.2008667e-20)
(-0.0019934581 -5.5870125e-05 1.0956209e-20)
(-0.0019509471 -5.6896883e-05 -3.7904441e-21)
(-0.0019086518 -5.7850693e-05 -1.911404e-20)
(-0.0018665869 -5.8735136e-05 3.4087464e-20)
(-0.0018247657 -5.9553698e-05 7.418885e-20)
(-0.0017832007 -6.0309745e-05 -4.2853725e-20)
(-0.0017419032 -6.1006561e-05 -3.1906844e-20)
(-0.0017008833 -6.1647312e-05 -5.3698498e-20)
(-0.0016601503 -6.2235045e-05 -9.479878e-20)
(-0.0016197124 -6.2772718e-05 3.6436688e-21)
(-0.001579577 -6.3263181e-05 7.7919328e-20)
(-0.0015397505 -6.3709175e-05 5.5820124e-20)
(-0.0015002387 -6.4113351e-05 1.098982e-21)
(-0.0014610464 -6.4478253e-05 -4.6567032e-20)
(-0.0014221778 -6.4806317e-05 -3.5372861e-20)
(-0.0013836361 -6.5099897e-05 -4.4594264e-20)
(-0.0013454243 -6.5361246e-05 1.4002794e-20)
(-0.0013075443 -6.5592523e-05 3.6515793e-20)
(-0.0012699977 -6.5795789e-05 3.0935572e-20)
(-0.0012327855 -6.5973028e-05 2.0896672e-20)
(-0.0011959079 -6.6126132e-05 -3.2320065e-20)
(-0.0011593648 -6.6256906e-05 -1.5584607e-20)
(-0.0011231558 -6.6367075e-05 1.9161748e-20)
(-0.0010872797 -6.6458291e-05 4.5106566e-20)
(-0.001051735 -6.6532123e-05 3.3247497e-20)
(-0.0010165199 -6.6590059e-05 -1.1744104e-20)
(-0.00098163228 -6.6633532e-05 2.3533601e-21)
(-0.00094706944 -6.6663876e-05 -2.6187621e-20)
(-0.00091282855 -6.6682388e-05 2.514084e-21)
(-0.00087890642 -6.6690274e-05 4.5664066e-20)
(-0.00084529962 -6.6688692e-05 1.6581493e-20)
(-0.00081200443 -6.6678742e-05 1.6264011e-20)
(-0.00077901693 -6.6661445e-05 -1.1438047e-20)
(-0.00074633298 -6.663778e-05 -2.8787578e-20)
(-0.00071394824 -6.6608669e-05 -2.7302942e-20)
(-0.00068185819 -6.6574979e-05 9.8499857e-21)
(-0.00065005817 -6.6537509e-05 7.3286392e-21)
(-0.00061854336 -6.6497039e-05 -1.6955869e-20)
(-0.00058730882 -6.6454278e-05 -5.8206426e-21)
(-0.00055634951 -6.6409892e-05 1.4107544e-20)
(-0.00052566028 -6.636449e-05 3.6432601e-22)
(-0.0004952359 -6.631865e-05 1.151201e-20)
(-0.00046507107 -6.6272895e-05 2.1135245e-21)
(-0.00043516044 -6.6227699e-05 -6.3200227e-21)
(-0.00040549862 -6.6183476e-05 1.1647931e-20)
(-0.00037608019 -6.6140584e-05 -1.6036562e-20)
(-0.00034689969 -6.6099311e-05 -1.7662822e-21)
(-0.00031795169 -6.6059834e-05 2.1195284e-20)
(-0.00028923069 -6.6022219e-05 2.1284863e-20)
(-0.00026073121 -6.5986317e-05 1.5368167e-20)
(-0.00023244761 -6.5951692e-05 3.4582534e-21)
(-0.000204374 -6.5917496e-05 6.2516361e-21)
(-0.00017650378 -6.5882352e-05 -2.0918204e-20)
(-0.000148829 -6.5844665e-05 -4.5699672e-21)
(-0.00012133963 -6.5804464e-05 1.7267503e-20)
(-9.4022232e-05 -6.5770271e-05 3.8233079e-21)
(-6.6855218e-05 -6.5775434e-05 1.0139063e-20)
(-3.9821987e-05 -6.5905626e-05 1.1734884e-20)
(-1.312857e-05 -6.6258572e-05 1.9543615e-20)
(-8.3551073e-05 0.0007879419 -6.0840058e-19)
(-0.00019035123 0.00079019954 -4.073462e-19)
(-0.00031142599 0.0007913862 -1.1063771e-19)
(-0.000428087 0.00079196277 1.2727014e-19)
(-0.00054786058 0.00079136893 -1.6577555e-19)