/*--------------------------------*- C++ -*----------------------------------*\
| =========                 |                                                 |
| \\      /  F ield         | OpenFOAM: The Open Source CFD Toolbox           |
|  \\    /   O peration     | Version:  2106                                  |
|   \\  /    A nd           | Website:  www.openfoam.com                      |
|    \\/     M anipulation  |                                                 |
\*---------------------------------------------------------------------------*/
FoamFile
{
    version     2.0;
    format      ascii;
    arch        "LSB;label=32;scalar=64";
    class       volScalarField;
    location    "0.019";
    object      p_rgh;
}
// * * * * * * * * * * * * * * * * * * * * * * * * * * * * * * * * * * * * * //

dimensions      [1 -1 -2 0 0 0 0];

internalField   nonuniform List<scalar> 
4096
(
8.6433482
8.5599212
8.3938773
8.1468269
7.8211656
7.4200503
6.9473686
6.4076998
5.8062701
5.1489012
4.441953
3.6922609
2.9070698
2.0939626
1.2607871
0.41557704
-0.43353187
-1.2783355
-2.1107131
-2.9226774
-3.7064123
-4.4543907
-5.1594347
-5.8147818
-6.41415
-6.9517968
-7.4225737
-7.8219744
-8.1461773
-8.3920814
-8.5573351
-8.6403583
-8.6403573
-8.5573322
-8.3920767
-8.1461709
-7.8219665
-7.4225643
-6.9517862
-6.4141382
-5.8147688
-5.1594205
-4.4543755
-3.7063961
-2.9226603
-2.1106953
-1.2783173
-0.43351353
0.41559522
1.2608048
2.0939797
2.9070861
3.6922764
4.4419675
5.1489149
5.8062828
6.4077114
6.9473791
7.4200595
7.8211734
8.1468332
8.3938819
8.5599239
8.6433491
8.7213086
8.6371234
8.4695705
8.2202755
7.8916561
7.4868989
7.0099274
6.4653634
5.8584817
5.1951575
4.4818093
3.7253357
2.9330476
2.1125972
1.2719034
0.41907425
-0.43767359
-1.2900844
-2.1299506
-2.9492052
-3.7399718
-4.4946562
-5.2060161
-5.8672296
-6.4719592
-7.0144122
-7.489395
-7.8923622
-8.219459
-8.4675573
-8.6342852
-8.7180489
-8.7180479
-8.6342823
-8.4675526
-8.2194526
-7.8923542
-7.4893855
-7.0144013
-6.471947
-5.8672162
-5.2060016
-4.4946406
-3.7399552
-2.9491878
-2.1299325
-1.290066
-0.43765501
0.41909268
1.2719215
2.1126146
2.9330642
3.7253515
4.4818242
5.1951715
5.8584947
6.4653754
7.0099382
7.4869084
7.8916642
8.2202819
8.4695752
8.6371262
8.7213095
8.8845332
8.7987652
8.6280624
8.3740812
8.0392856
7.6269228
7.1409911
6.5862002
5.967925
5.2921523
4.5654222
3.7947636
2.9876257
2.1518049
1.2953689
0.42657831
-0.44619408
-1.3145415
-2.1701056
-3.0046624
-3.8101919
-4.5789593
-5.303588
-5.9771298
-6.5931303
-7.1456901
-7.6295199
-8.0399907
-8.373177
-8.6258933
-8.7957242
-8.8810468
-8.8810458
-8.7957213
-8.6258885
-8.3731704
-8.0399824
-7.62951
-7.1456787
-6.5931176
-5.9771158
-5.3035728
-4.578943
-3.8101746
-3.0046443
-2.170087
-1.3145226
-0.44617503
0.4265972
1.2953874
2.1518228
2.987643
3.79478
4.5654377
5.2921669
5.9679386
6.5862128
7.1410024
7.6269328
8.039294
8.3740879
8.6280673
8.7987681
8.8845342
9.1332456
9.045067
8.8695668
8.6084484
8.264246
7.8402991
7.3407196
6.7703507
6.1347199
5.4399834
4.6928664
3.9005965
3.0708327
2.2115913
1.3311668
0.43805168
-0.45914582
-1.3517844
-2.2312737
-3.089158
-3.9171945
-4.7074336
-5.452294
-6.1446347
-6.7778227
-7.3457955
-7.8431178
-8.2650329
-8.607507
-8.867267
-9.0418309
-9.1295312
-9.1295302
-9.0418279
-8.8672621
-8.6075002
-8.2650242
-7.8431074
-7.3457834
-6.7778091
-6.1446197
-5.4522777
-4.7074163
-3.9171763
-3.089139
-2.2312543
-1.3517647
-0.45912603
0.43807133
1.3311861
2.2116101
3.0708509
3.9006138
4.692883
5.439999
6.1347344
6.770364
7.3407316
7.8403097
8.2642549
8.6084555
8.8695719
9.0450702
9.1332467
9.4693945
9.3779578
9.1959735
8.9252088
8.5682925
8.1286888
7.610663
7.0192391
6.3601504
5.6397825
4.8651103
4.0436298
3.1832843
2.2923865
1.3795378
0.45354417
-0.4766689
-1.4021424
-2.3139707
-3.2033872
-4.0618475
-4.8811111
-5.6533199
-6.3710726
-7.0274947
-7.6163028
-8.1318645
-8.5692502
-8.9242799
-9.1935617
-9.3745239
-9.4654385
-9.4654375
-9.3745208
-9.1935565
-8.9242726
-8.5692409
-8.1318533
-7.6162898
-7.02748
-6.3710564
-5.6533024
-4.8810925
-4.0618281
-3.2033672
-2.3139502
-1.4021217
-0.4766481
0.45356485
1.3795582
2.2924065
3.1833037
4.0436484
4.865128
5.6397991
6.3601659
7.0192533
7.6106757
8.1286999
8.5683019
8.9252163
9.195979
9.3779611
9.4693956
9.8962328
9.8006584
9.6104394
9.327424
8.9543612
8.4948736
7.9534215
7.3352584
6.6463792
5.8934604
5.0837947
4.2252189
3.3260369
2.3949384
1.4409141
0.47316825
-0.49897089
-1.4661407
-2.4190348
-3.3484926
-4.2455863
-5.1017063
-5.908643
-6.6586646
-7.3445895
-7.9598548
-8.498577
-8.9556073
-9.3265801
-9.6079527
-9.7970394
-9.8920355
-9.8920343
-9.7970361
-9.6079472
-9.3265723
-8.9555973
-8.4985649
-7.9598408
-7.3445737
-6.6586471
-5.9086243
-5.1016864
-4.2455656
-3.3484713
-2.4190131
-1.4661187
-0.49894887
0.47319017
1.4409358
2.3949598
3.3260577
4.225239
5.0838139
5.8934785
6.6463959
7.3352736
7.953435
8.4948854
8.9543711
9.3274319
9.6104452
9.8006619
9.896234
10.417872
10.31724
10.116955
9.8189636
9.4261631
8.9423694
8.3722813
7.7214329
6.996139
6.2034322
5.3509933
4.447076
3.5004251
2.5201911
1.5158407
0.49706484
-0.52631578
-1.5444452
-2.5475273
-3.5259201
-4.4702275
-5.3713888
-6.2207649
-7.0102201
-7.7321983
-8.3797944
-8.9468185
-9.4278543
-9.818309
-10.114456
-10.313471
-10.413454
-10.413453
-10.313467
-10.11445
-9.8183005
-9.4278435
-8.9468054
-8.3797792
-7.7321812
-7.0102014
-6.2207447
-5.3713674
-4.4702053
-3.5258973
-2.5475042
-1.5444218
-0.52629237
0.49708819
1.5158639
2.520214
3.5004475
4.4470978
5.3510142
6.2034518
6.9961571
7.7214493
8.3722958
8.942382
9.4261736
9.818972
10.116961
10.317244
10.417874
11.039298
10.932638
10.720357
10.404519
9.9881974
9.4754385
8.8712257
8.1814281
7.4127417
6.5726235
5.6692175
4.7112739
3.7080634
2.6692855
1.6049745
0.52540091
-0.55902765
-1.6378674
-2.700739
-3.7374269
-4.7379773
-5.6927925
-6.592722
-7.4291491
-8.1940717
-8.8801774
-9.4809119
-9.9905401
-10.404199
-10.717944
-10.928782
-11.034706
-11.034705
-10.928778
-10.717937
-10.40419
-9.9905282
-9.4808976
-8.8801609
-8.1940532
-7.4291289
-6.5927003
-5.6927696
-4.7379535
-3.7374025
-2.7007142
-1.6378424
-0.55900263
0.52542591
1.6049993
2.6693101
3.7080876
4.7112975
5.6692401
6.5726449
7.4127614
8.181446
8.8712416
9.4754521
9.9882088
10.404528
10.720363
10.932642
11.0393
11.766448
11.652731
11.426406
11.089677
10.64582
10.099155
9.4549964
8.7196066
7.9001283
7.0045156
6.0414547
5.0202778
3.9508708
2.8435767
1.7090936
0.55837114
-0.59749664
-1.747378
-2.8802109
-3.9851094
-5.051467
-6.069058
-7.0281338
-7.9195154
-8.7346792
-9.4658368
-10.106008
-10.649084
-11.089888
-11.424218
-11.648889
-11.761761
-11.76176
-11.648884
-11.424211
-11.089878
-10.649071
-10.105992
-9.4658187
-8.734659
-7.9194935
-7.0281104
-6.0690335
-5.0514416
-3.9850834
-2.8801844
-1.7473512
-0.59746976
0.55839802
1.7091204
2.8436032
3.9508969
5.0203032
6.0414792
7.0045388
7.9001498
8.7196262
9.4550138
10.09917
10.645833
11.089687
11.426413
11.652735
11.766449
12.606267
12.484396
12.241843
11.880973
11.405299
10.819454
10.12914
9.3410714
8.4629078
7.5031786
6.4711968
5.3769674
4.2310879
3.0446445
1.829103
0.59619717
-0.6421857
-1.8741193
-3.0877534
-4.2714277
-5.4137824
-6.5038668
-7.5312422
-8.4860807
-9.3592569
-10.142433
-10.828138
-11.409834
-11.881978
-12.240075
-12.480716
-12.60161
-12.601609
-12.480711
-12.240067
-11.881967
-11.409819
-10.828121
-10.142414
-9.3592349
-8.4860569
-7.531217
-6.5038404
-5.4137552
-4.2713998
-3.087725
-1.8740905
-0.64215681
0.59622608
1.8291318
3.044673
4.2311159
5.3769947
6.4712232
7.5032037
8.4629313
9.3410929
10.129159
10.819471
11.405313
11.880983
12.241851
12.4844
12.606268
13.566777
13.435574
13.17445
12.785953
12.273869
11.64319
10.900059
10.051711
9.1063975
8.0733065
6.9624693
5.7846608
4.5512937
3.2743047
1.9660382
0.63912519
-0.69363942
-2.0194206
-3.3254668
-4.5992323
-5.8284964
-7.0014795
-8.1069544
-9.1343519
-10.073859
-10.916512
-11.654277
-12.280125
-12.7881
-13.173368
-13.432266
-13.562332
-13.56233
-13.432261
-13.173359
-12.788087
-12.280109
-11.654257
-10.91649
-10.073835
-9.1343259
-8.1069271
-7.001451
-5.8284671
-4.5992024
-3.3254364
-2.0193898
-0.69360852
0.63915611
1.9660689
3.2743351
4.5513236
5.7846901
6.9624975
8.0733336
9.106423
10.051734
10.90008
11.643208
12.273884
12.785965
13.174459
13.435579
13.566779
14.657149
14.515346
14.233125
13.813244
13.2598
12.578192
11.775068
10.858251
9.8366691
8.7202574
7.519864
6.2471401
4.9144239
3.5346192
2.1210683
0.68742147
-0.75249608
-2.1848175
-3.5957683
-4.971798
-6.2997089
-7.5667817
-8.7608948
-9.8706384
-10.885421
-11.795566
-12.592405
-13.268355
-13.816987
-14.233085
-14.512699
-14.653171
-14.653169
-14.512692
-14.233075
-13.816972
-13.268337
-12.592384
-11.795542
-10.885394
-9.8706099
-8.760865
-7.5667509
-6.2996774
-4.9717659
-3.5957358
-2.1847847
-0.75246321
0.68745434
2.121101
3.5346516
4.9144558
6.2471714
7.5198944
8.7202865
9.8366967
10.858277
11.775091
12.578213
13.259817
13.813257
14.233135
14.515352
14.657151
15.88779
15.734012
15.427962
14.972632
14.372471
13.633342
12.762458
11.768315
10.6606
9.4500966
8.1485757
6.7686786
5.3237902
3.8279067
2.2954978
0.74136472
-0.81950393
-2.3720767
-3.9014248
-5.3928643
-6.8320957
-8.2053398
-9.4994668
-10.70212
-11.801828
-12.788117
-13.6516
-14.384068
-14.978562
-15.429438
-15.732419
-15.884629
-15.884627
-15.732411
-15.429426
-14.978546
-14.384048
-13.651576
-12.78809
-11.801799
-10.702088
-9.4994344
-8.2053064
-6.8320617
-5.3928299
-3.9013902
-2.3720419
-0.81946907
0.74139956
2.2955325
3.8279412
5.3238243
6.7687121
8.1486084
9.4501281
10.66063
11.768343
12.762484
13.633364
14.37249
14.972647
15.427973
15.734019
15.887793
17.270436
17.103191
16.770343
16.27515
15.622456
14.818645
13.871572
12.790485
11.58593
10.269644
8.854439
7.3540691
5.7830977
4.15675
2.4907635
0.80123371
-0.89554342
-2.5832279
-4.2455943
-5.8666858
-7.4309662
-8.9234667
-10.329926
-11.636925
-12.832009
-13.903805
-14.842123
-15.638053
-16.284043
-16.773968
-17.103184
-17.268574
-17.268571
-17.103176
-16.773954
-16.284025
-15.63803
-14.842096
-13.903775
-12.831977
-11.636891
-10.329891
-8.9234306
-7.4309298
-5.8666491
-4.2455575
-2.583191
-0.89550655
0.80127057
2.4908003
4.1567866
5.783134
7.354105
8.8544741
10.269679
11.585963
12.790516
13.8716
14.81867
15.622477
16.275167
16.770356
17.103199
17.270438
18.818256
18.63592
18.273041
17.733174
17.021611
16.14532
15.112876
13.934372
12.621319
11.186524
9.6439662
8.0086503
6.2964604
4.5239999
2.7084274
0.86728809
-0.98165765
-2.8206049
-4.6318772
-6.3980938
-8.1023348
-9.7283015
-11.260468
-12.684229
-13.986028
-15.153492
-16.175534
-17.04246
-17.746057
-18.279662
-18.638227
-18.818359
-18.818355
-18.638217
-18.279647
-17.746036
-17.042434
-16.175504
-15.153458
-13.985993
-12.684191
-11.26043
-9.7282624
-8.1022956
-6.3980546
-4.6318382
-2.820566
-0.98161877
0.86732701
2.7084663
4.5240388
6.2964993
8.0086889
9.6440042
11.186561
12.621354
13.934405
15.112906
16.145348
17.021635
17.733193
18.273055
18.635929
18.818259
20.54597
20.346767
19.950323
19.36053
18.583176
17.625886
16.498042
15.210686
13.776407
12.209212
10.524385
8.738331
6.8684124
4.9327733
2.9501609
0.93974032
-1.079093
-3.0868986
-5.0643811
-6.9925711
-8.8530059
-10.627904
-12.300332
-13.854359
-15.275209
-16.54939
-17.664819
-18.610932
-19.378778
-19.961099
-20.352393
-20.548965
-20.548962
-20.352382
-19.961081
-19.378754
-18.610902
-17.664785
-16.549352
-15.275169
-13.854318
-12.300289
-10.627862
-8.8529636
-6.9925292
-5.0643398
-3.0868577
-1.0790522
0.9397812
2.950202
4.9328147
6.868454
8.7383727
10.524426
12.209252
13.776446
15.210723
16.498076
17.625917
18.583202
19.360551
19.950339
20.346777
20.545973
22.469966
22.251952
21.818074
21.172599
20.321874
19.27426
18.040038
16.631312
15.061877
13.347083
11.50367
9.5496098
7.5039124
5.386443
3.2177206
1.0187165
-1.1893521
-3.3852236
-5.5478
-7.6563442
-9.6906774
-11.63137
-13.459921
-15.158934
-16.712271
-18.105203
-19.324543
-20.35876
-21.198086
-21.834603
-22.262307
-22.477169
-22.477165
-22.262294
-21.834582
-21.198058
-20.358726
-19.324504
-18.105161
-16.712226
-15.158887
-13.459874
-11.631323
-9.6906316
-7.6562995
-5.5477563
-3.3851807
-1.1893095
1.0187592
3.2177638
5.3864869
7.5039571
9.549655
11.503716
13.347127
15.061921
16.631353
18.040076
19.274294
20.321904
21.172622
21.818091
22.251963
22.46997
24.608433
24.369472
23.893911
23.186439
22.254026
21.105852
19.753208
18.209382
16.489518
14.61046
12.590579
10.449589
8.208342
5.8886188
3.5129127
1.1042048
-1.3142614
-3.7192001
-6.0875112
-8.396494
-10.624064
-12.748962
-14.750953
-16.611011
-18.311494
-19.836303
-21.171026
-22.303067
-23.221755
-23.918439
-24.386564
-24.621729
-24.621724
-24.386549
-23.918414
-23.221722
-22.303027
-21.170981
-19.836254
-18.311442
-16.610958
-14.750901
-12.748911
-10.624014
-8.3964463
-6.0874654
-3.7191556
-1.3142173
1.104249
3.5129579
5.8886654
8.2083899
10.449638
12.590629
14.610509
16.489566
18.209428
19.753251
21.10589
22.254059
23.186466
23.893931
24.369484
24.608437
26.981488
26.719232
26.197318
25.420902
24.397654
23.13767
21.653366
19.959353
18.072278
16.010655
13.794672
11.445984
8.9874952
6.4431199
3.837547
1.195992
-1.4560514
-4.0930524
-6.6896899
-9.2210854
-11.663042
-13.992275
-16.186627
-18.225273
-20.088909
-21.759922
-23.22255
-24.46302
-25.469665
-26.23303
-26.74595
-27.003614
-27.003608
-26.745932
-26.233001
-25.469626
-24.462973
-23.222497
-21.759865
-20.088849
-18.225214
-16.186569
-13.992219
-11.662989
-9.2210351
-6.6896422
-4.0930067
-1.4560064
1.1960374
3.8375939
6.4431689
8.9875465
11.446038
13.794726
16.01071
18.072332
19.959405
21.653414
23.137713
24.397692
25.420933
26.19734
26.719246
26.981493
29.61132
29.323181
28.749766
27.896758
26.772602
25.388419
23.757883
21.897079
19.824331
17.560014
15.12634
12.547129
9.8475664
7.0539417
4.1933847
1.2935919
-1.6174478
-4.5117179
-7.361437
-10.139314
-12.818814
-15.374409
-17.78182
-20.018235
-22.062516
-23.895386
-25.499595
-26.860073
-27.96406
-28.801215
-29.363702
-29.646262
-29.646255
-29.36368
-28.80118
-27.964014
-26.860018
-25.499533
-23.89532
-22.062448
-20.018167
-17.781755
-15.374348
-12.818757
-10.139262
-7.3613883
-4.5116719
-1.6174028
1.2936378
4.1934329
7.0539931
9.8476211
12.547187
15.1264
17.560075
19.824392
21.897137
23.757938
25.388469
26.772645
27.896793
28.749792
29.323197
29.611325
32.522321
32.205446
31.574855
30.636817
29.400649
27.878612
26.085784
24.039895
21.761141
19.271967
16.596839
13.76199
10.795143
7.7252295
4.5820907
1.3961768
-1.8017601
-4.9809574
-8.1109119
-11.161662
-14.104081
-16.910167
-19.553296
-22.008469
-24.252532
-26.264373
-28.02511
-29.51825
-30.729831
-31.64854
-32.265807
-32.57588
-32.575871
-32.265781
-31.648498
-30.729775
-29.518184
-28.025036
-26.264295
-24.252453
-22.008393
-19.553223
-16.910099
-14.104021
-11.161607
-8.1108631
-4.9809123
-1.8017163
1.3962219
4.5821394
7.7252829
10.795201
13.762053
16.596905
19.272035
21.761209
24.039962
26.085848
27.87867
29.400699
30.636858
31.574886
32.205465
32.522327
35.741246
35.392486
34.698455
33.666079
32.305646
30.630693
28.657865
26.406725
23.899552
21.161101
18.218348
15.100206
11.837227
8.4612776
5.0052119
1.5025353
-2.0129442
-5.5074414
-8.9474443
-12.300032
-15.533211
-18.616242
-21.519921
-24.216845
-26.68164
-28.891184
-30.824804
-32.464447
-33.794833
-34.803586
-35.481332
-35.821779
-35.821768
-35.4813
-34.803535
-33.794766
-32.464367
-30.824717
-28.891093
-26.681548
-24.216757
-21.51984
-18.616168
-15.533147
-12.299976
-8.9473967
-5.5073991
-2.0129037
1.502578
5.0052601
8.4613327
11.837289
15.100274
18.218421
21.161178
23.89963
26.406802
28.657939
30.630761
32.305705
33.666127
34.698491
35.392508
35.741254
39.297389
38.913266
38.148883
37.011899
35.513686
33.669207
31.496851
29.018229
26.257938
23.243304
20.004091
16.572198
12.981325
9.2666032
5.4642288
1.611101
-2.2555944
-6.0987677
-9.8815834
-13.567836
-17.122353
-20.51137
-23.702846
-26.666734
-29.375231
-31.80301
-33.927434
-35.728743
-37.190216
-38.298311
-39.042776
-39.416728
-39.416715
-39.042736
-38.298248
-37.190133
-35.728646
-33.927329
-31.802901
-29.375124
-26.666633
-23.702754
-20.51129
-17.122285
-13.56778
-9.8815388
-6.0987308
-2.2555598
1.6111393
5.4642753
9.2666597
12.981391
16.572273
20.004172
23.24339
26.258027
29.018318
31.496938
33.669287
35.513756
37.011956
38.148926
38.913292
39.297397
43.222823
42.799504
41.95715
40.704238
39.053353
37.021047
34.627653
31.897062
28.856454
25.536009
21.968591
18.189417
14.235695
10.14618
5.9607642
1.7201343
-2.5347852
-6.7633386
-10.925016
-14.979953
-18.88944
-22.61637
-26.125583
-29.384139
-32.361569
-35.030133
-37.365043
-39.344669
-40.950714
-42.168362
-42.986397
-43.397295
-43.397278
-42.986347
-42.168283
-40.950612
-39.34455
-37.364915
-35.030003
-32.361444
-29.384023
-26.125481
-22.616283
-18.889369
-14.979899
-10.924977
-6.7633106
-2.5347605
1.7201654
5.9608082
10.146238
14.235765
18.189498
21.968682
25.536106
28.856556
31.897166
34.627755
37.021141
39.053436
40.704306
41.9572
42.799535
43.222833
47.552769
47.086033
46.157327
44.776043
42.956112
40.715859
38.077782
35.068307
31.717482
28.058656
24.128128
19.96479
15.609782
11.105873
6.4970167
1.8281504
-2.8556565
-7.5099989
-12.090274
-16.552498
-20.854005
-24.953996
-28.813912
-32.397643
-35.671798
-38.605988
-41.173071
-43.349366
-45.114847
-46.453301
-47.35246
-47.804095
-47.804073
-47.352397
-46.453201
-45.114719
-43.349218
-41.172914
-38.605831
-35.67165
-32.397509
-28.813798
-24.953903
-20.853933
-16.552446
-12.090242
-7.5099845
-2.8556479
1.8281706
6.4970578
11.105933
15.609858
19.964878
24.128227
28.058766
31.7176
35.068429
38.077903
40.715972
42.956212
44.776125
46.157387
47.08607
47.552781
52.326173
51.811393
50.787155
49.263868
47.256959
44.786721
41.878057
38.56021
34.8664
30.83348
26.501521
21.913442
17.114759
12.152803
7.0762047
1.9345339
-3.2226475
-8.3472676
-13.390059
-18.302269
-23.03671
-27.548503
-31.795475
-35.738078
-39.339689
-42.566993
-45.390261
-47.783553
-49.724944
-51.19668
-52.185339
-52.681915
-52.681887
-52.185258
-51.196553
-49.724781
-47.783366
-45.390065
-42.5668
-39.339511
-35.737924
-31.79535
-27.548406
-23.036639
-18.302222
-13.390037
-8.3472726
-3.2226653
1.9345396
7.0762446
12.152868
17.11484
21.913536
26.501628
30.833602
34.866536
38.560354
41.878202
44.786858
47.257081
49.263967
50.787227
51.811436
52.326188
57.586762
57.018879
55.889109
54.208981
51.995558
49.271322
46.063833
42.405458
38.332912
33.886902
29.11163
24.054354
18.765186
13.296925
7.7037267
2.0403407
-3.6382896
-9.2818018
-14.835656
-20.245259
-25.458112
-30.424707
-35.099017
-39.437876
-43.401102
-46.952117
-50.058336
-52.691304
-54.827003
-56.445957
-57.533476
-58.079696
-58.07966
-57.533372
-56.445793
-54.826793
-52.691066
-50.058088
-46.951878
-43.400888
-39.4377
-35.098885
-30.424614
-25.458049
-20.245218
-14.835642
-9.2818307
-3.6383532
2.0403312
7.7037721
13.296997
18.76527
24.05445
29.111744
33.887039
38.33307
42.405631
46.06401
49.271491
51.995708
54.209102
55.889196
57.018931
57.586779
63.384607
62.758042
61.511893
59.658884
57.217816
54.213601
50.676705
46.642974
42.152941
37.251575
31.987669
26.4134
20.583733
14.556399
8.3919862
2.152666
-4.0997197
-10.31575
-16.433751
-22.392949
-28.135253
-33.605777
-38.752915
-43.529889
-47.892946
-51.801939
-55.221143
-58.119266
-60.469972
-62.251829
-63.448757
-64.049923
-64.049875
-63.448621
-62.251616
-60.469701
-58.118959
-55.220825
-51.801636
-47.892684
-43.529687
-38.752782
-33.605702
-28.135214
-22.39292
-16.433735
-10.315798
-4.0998699
2.1526556
8.3920533
14.556477
20.583811
26.413488
31.987784
37.251727
42.153128
46.643186
50.676926
54.213813
57.218002
59.659032
61.511997
62.758102
63.384626
69.776126
69.084505
67.710284
65.667275
62.97597
59.663984
55.764904
51.318467
46.369303
40.96703
35.165326
29.021611
22.596792
15.953536
9.1586396
2.283006
-4.6012055
-11.450969
-18.192404
-24.757639
-31.083677
-37.111163
-42.782259
-48.044459
-52.850236
-57.155682
-60.921687
-64.113693
-66.7028
-68.665287
-69.983561
-70.645681
-70.645618
-69.983382
-68.665008
-66.702446
-64.113291
-60.921272
-57.155289
-52.849907
-48.044224
-42.782138
-37.111134
-31.083698
-24.757641
-18.192368
-11.450993
-4.6015216
2.2830613
9.1587467
15.953602
22.596839
29.021673
35.165433
40.967201
46.36953
51.318733
55.765185
59.664253
62.976203
65.667457
67.710409
69.084575
69.776147
76.81979
76.056477
74.542303
72.291527
69.326337
65.677398
61.381643
56.483145
51.030889
45.079506
38.687769
31.918417
24.83837
17.516217
10.027346
2.4540246
-5.1241513
-12.671081
-20.103513
-27.341411
-34.313137
-40.95478
-47.204634
-53.004652
-58.301638
-63.04731
-67.198807
-70.717685
-73.572137
-75.735678
-77.189046
-77.919011
-77.918928
-77.188813
-75.735315
-73.571676
-70.717156
-67.198255
-63.046786
-58.301208
-53.004368
-47.204541
-40.954848
-34.313296
-27.341498
-20.103447
-12.671003
-5.1246367
2.4543037
10.027443
17.516199
24.838341
31.918432
38.687865
45.079706
51.031173
56.483486
61.382006
65.677742
69.326631
72.291752
74.542451
76.056558
76.819812
84.591307
83.755561
82.091191
79.614569
76.350693
72.334083
67.605114
62.212894
56.210849
49.659073
42.621518
35.166153
27.366062
19.294617
11.039307
2.7103835
-5.635965
-13.9358
-22.136514
-30.124911
-37.817073
-45.14478
-52.039731
-58.439693
-64.286335
-69.525587
-74.110525
-77.997108
-81.150723
-83.540666
-85.146297
-85.952626
-85.952512
-85.145993
-83.540195
-81.150123
-77.996406
-74.109782
-69.524866
-64.285747
-58.439316
-52.039682
-45.145018
-37.817516
-30.125194
-22.136411
-13.935857
-5.6354328
2.7106121
11.039322
19.294408
27.365905
35.166109
42.621608
49.659323
56.211218
62.213344
67.605589
72.334525
76.351065
79.614846
82.091367
83.755652
84.591326
93.30701
92.389566
90.557483
87.833877
84.240975
79.822219
74.61594
68.68261
62.075373
54.863448
47.115242
38.900646
30.305
21.390083
12.263657
3.1034757
-6.0267978
-14.762238
-23.042959
-30.718289
-37.740117
-44.101582
-49.79298
-54.819572
-59.199362
-62.946868
-66.094072
-68.659536
-70.676224
-72.161838
-73.141177
-73.626867
-73.626819
-73.140804
-72.161448
-70.675574
-68.658891
-66.093242
-62.94612
-59.198659
-54.819133
-49.792973
-44.10199
-37.741005
-30.718965
-23.042542
-14.762417
-6.0238067
3.1024556
12.263575
21.389511
30.304665
38.900546
47.115303
54.863806
62.075874
68.683232
74.616601
79.822803
84.241453
87.834215
90.557662
92.389646
93.306994
-73.581932
-73.096477
-72.117705
-70.633219
-68.617952
-66.054119
-62.908743
-59.163538
-54.786163
-49.762898
-44.074961
-37.717605
-30.700115
-23.02753
-14.753959
-6.0248959
3.1007228
12.258136
21.382711
30.291488
38.883042
47.093599
54.837623
62.045707
68.648738
74.578407
79.78123
84.197159
87.787826
90.509848
92.340587
93.257364
93.257208
92.340207
90.509262
87.787097
84.19628
79.780292
74.577445
68.647963
62.045152
54.83764
47.094015
38.883994
30.292164
21.382213
12.258088
3.0971021
-6.024436
-14.754107
-23.027078
-30.699877
-37.717541
-44.075079
-49.763217
-54.786658
-59.164048
-62.909355
-66.054559
-68.618396
-70.633434
-72.117905
-73.096477
-73.581979
-85.908018
-85.10192
-83.49685
-81.107904
-77.955593
-74.070598
-69.487537
-64.250564
-58.406568
-52.009823
-45.11849
-37.794799
-30.106843
-22.122734
-13.928123
-5.6343042
2.7069362
11.0326
19.284972
27.351885
35.147568
42.598717
49.632137
56.17992
62.178066
67.566686
72.292409
76.306255
79.567899
82.042823
83.705964
84.541008
84.540903
83.705682
82.042384
79.567337
76.305602
72.291718
67.566019
62.177521
56.179575
49.63209
42.598941
35.147977
27.35215
19.284905
11.032799
2.7067896
-5.634338
-13.928166
-22.122574
-30.106733
-37.794802
-45.118626
-52.010129
-58.406995
-64.251074
-69.48807
-74.071088
-77.956003
-81.108208
-83.49704
-85.102017
-85.908034
-77.873681
-77.143984
-75.691242
-73.528719
-70.675634
-67.158459
-63.009008
-58.265768
-52.9716
-47.174848
-40.928647
-34.291012
-27.323545
-20.090173
-12.66307
-5.122764
2.4506527
10.020976
17.505827
24.823423
31.898945
38.663913
45.051404
50.998726
56.447111
61.342049
65.634611
69.280811
72.243764
74.492824
76.005794
76.76846
76.768382
76.005576
74.492485
72.243333
69.280319
65.634099
61.341563
56.446712
50.998463
45.051318
38.663977
31.899094
24.823509
17.505782
10.020942
2.4511533
-5.1230246
-12.663176
-20.090183
-27.323552
-34.291068
-40.928787
-47.175095
-52.971934
-58.266158
-63.009417
-67.158843
-70.675961
-73.528969
-75.691408
-77.144074
-77.873706
-70.599172
-69.937353
-68.619758
-66.658343
-64.070683
-60.880494
-57.116675
-52.813804
-48.010987
-42.752153
-37.084777
-31.061358
-24.739694
-18.179158
-11.442999
-4.5992407
2.2800645
9.1518958
15.942446
22.581038
29.001188
35.140351
40.937667
46.335769
51.28101
55.723854
59.619726
62.928955
65.617998
67.659269
69.032284
69.723263
69.723204
69.032117
67.659008
65.617668
62.928581
59.61934
55.723489
51.280704
46.33555
40.937553
35.140322
29.001207
22.58104
15.942419
9.1519325
2.2803802
-4.5992977
-11.443118
-18.179246
-24.739771
-31.061455
-37.084923
-42.752366
-48.011256
-52.814112
-57.116995
-60.880797
-64.070946
-66.658548
-68.619898
-69.937432
-70.599196
-64.001734
-63.400903
-62.20471
-60.423994
-58.074828
-55.178638
-51.76176
-47.855489
-43.495548
-38.722079
-33.5788
-28.112473
-22.374696
-16.420372
-10.30766
-4.0972084
2.150089
8.384852
14.544575
20.567064
26.391901
31.961439
37.220792
42.117843
46.603846
50.633899
54.167521
57.168922
59.60768
61.458912
62.703838
63.329757
63.329713
62.703711
61.458713
59.607426
57.168635
54.167224
50.633616
46.603601
42.117653
37.220666
31.961366
26.391861
20.567035
14.54456
8.3849005
2.1502334
-4.0972072
-10.307741
-16.42047
-22.374799
-28.112591
-33.578948
-38.722268
-43.495772
-47.855738
-51.762016
-55.178881
-58.07504
-60.424162
-62.204828
-63.400972
-64.001756
-58.029297
-57.483448
-56.396724
-54.778993
-52.64494
-50.014034
-46.910292
-43.362164
-39.402227
-35.06705
-30.396791
-25.434589
-20.226457
-14.8219
-9.2733941
-3.635381
2.0379376
7.6962496
13.28438
18.747528
24.031637
29.083975
33.854497
38.296014
42.364379
46.018946
49.223054
51.944387
54.155427
55.833725
56.962242
57.529468
57.529434
56.962144
55.833572
54.155231
51.944164
49.222821
46.01872
42.364177
38.295847
33.85437
29.083883
24.031573
18.747485
13.284363
7.6962741
2.0379931
-3.6353833
-9.2734553
-14.821991
-20.226565
-25.434712
-30.396935
-35.067219
-39.402419
-43.362369
-46.9105
-50.014231
-52.645113
-54.779132
-56.396824
-57.483507
-58.029316
-52.62875
-52.132583
-51.144787
-49.674369
-47.734743
-45.343661
-42.52304
-39.298812
-35.700694
-31.761987
-27.519292
-23.01213
-18.282649
-13.3757
-8.3384155
-3.2194267
1.9321671
7.0683496
12.139501
17.096036
21.889369
26.472248
30.799219
34.827428
38.516864
41.830735
44.735875
47.203092
49.207522
50.728908
51.75185
52.265957
52.265931
51.751774
50.728788
49.207368
47.202915
44.735689
41.830552
38.516694
34.82728
30.799096
26.472151
21.889296
17.095984
12.139473
7.0683468
1.9321744
-3.2194462
-8.3384725
-13.375786
-18.282754
-23.01225
-27.519427
-31.762139
-35.70086
-39.298985
-42.523212
-45.343823
-47.734886
-49.674484
-51.144872
-52.132634
-52.628767
-47.747583
-47.2964
-46.398179
-45.061149
-43.297573
-41.123656
-38.559416
-35.628522
-32.358099
-28.778521
-24.923152
-20.828074
-16.531812
-12.075122
-7.5006063
-2.8521551
1.8257334
6.4887125
11.091724
15.589851
19.939181
24.097011
28.022269
31.676125
35.022344
38.027639
40.662015
42.899099
44.716433
46.095729
47.023083
47.489121
47.4891
47.023023
46.095635
44.716311
42.898957
40.661864
38.027486
35.022199
31.675993
28.022154
24.096915
19.939104
15.589793
11.091684
6.4886873
1.8257117
-2.8521912
-7.5006659
-12.075203
-16.531911
-20.828187
-24.923277
-28.778657
-32.358244
-35.62867
-38.559561
-41.123792
-43.297692
-45.061246
-46.39825
-47.296443
-47.747598
-43.336828
-42.926428
-42.109416
-40.893314
-39.289332
-37.312277
-34.980435
-32.315421
-29.342003
-26.087901
-22.583553
-18.861869
-14.957965
-10.9089
-6.7533192
-2.5310076
1.7176056
5.9519265
10.131072
14.214397
18.162062
21.935374
25.497191
28.812364
31.848095
34.574264
36.963748
38.992708
40.640856
41.891674
42.732607
43.155197
43.15518
42.732559
41.891597
40.640756
38.992592
36.963622
34.574135
31.847969
28.812246
25.497085
21.935281
18.161984
14.214333
10.131021
5.9518847
1.7175652
-2.5310567
-6.7533833
-10.90898
-14.958059
-18.861975
-22.583669
-26.088025
-29.342131
-32.315549
-34.980559
-37.312392
-39.289433
-40.893397
-42.109476
-42.926465
-43.336841
-39.351667
-38.978262
-38.234916
-37.128506
-35.669276
-33.870759
-31.74966
-29.325722
-26.62156
-23.662474
-20.476234
-17.092849
-13.544314
-9.8643404
-6.0880349
-2.2515311
1.6084091
5.4547619
9.250399
12.958477
16.542861
19.968485
23.201719
26.210733
28.965831
31.439751
33.607953
35.448881
36.944191
38.078958
38.841838
39.225193
39.22518
38.841799
38.078895
36.944109
35.448784
33.607847
31.43964
28.96572
26.210627
23.20162
19.968396
16.542782
12.958408
9.2503394
5.4547082
1.6083559
-2.2515899
-6.0881036
-9.8644205
-13.544405
-17.092949
-20.476341
-23.662586
-26.621675
-29.325835
-31.749769
-33.870859
-35.669363
-37.128576
-38.234968
-38.978294
-39.351678
-35.751446
-35.411604
-34.735083
-33.728172
-32.400234
-30.763633
-28.833631
-26.62826
-24.168168
-21.476446
-18.578427
-15.501476
-12.274742
-8.9289097
-5.495905
-2.0085781
1.4996324
4.9950121
8.44382
11.812617
15.06862
18.180033
21.116377
23.84881
26.350429
28.596544
30.56494
32.236104
33.593445
34.62346
35.315893
35.66384
35.663829
35.315861
34.623408
33.593375
32.236022
30.564848
28.596448
26.350331
23.848713
21.116284
18.179947
15.068541
11.812545
8.443754
4.9949496
1.4995701
-2.0086442
-5.4959778
-8.9289904
-12.274831
-15.501571
-18.578528
-21.476549
-24.168272
-26.628362
-28.833727
-30.76372
-32.400309
-33.728234
-34.735129
-35.411631
-35.751456
-32.499557
-32.19015
-31.574228
-30.657537
-29.448635
-27.958819
-26.202032
-24.194742
-21.955799
-19.50628
-16.869297
-14.069802
-11.13436
-8.0909144
-4.9685211
-1.7970687
1.3930157
4.5710456
7.7063446
10.768538
13.727861
16.555461
19.223692
21.706398
23.979189
26.019688
27.807763
29.325743
30.558601
31.494114
32.122999
32.439007
32.438997
32.122971
31.49407
30.558541
29.325672
27.807682
26.019601
23.9791
21.706309
19.223604
16.555377
13.727782