/*--------------------------------*- C++ -*----------------------------------*\
| =========                 |                                                 |
| \\      /  F ield         | OpenFOAM: The Open Source CFD Toolbox           |
|  \\    /   O peration     | Version:  2306                                  |
|   \\  /    A nd           | Website:  www.openfoam.com                      |
|    \\/     M anipulation  |                                                 |
\*---------------------------------------------------------------------------*/
FoamFile
{
    version     2.0;
    format      ascii;
    arch        "LSB;label=32;scalar=64";
    class       surfaceScalarField;
    location    "0.49";
    object      phi;
}
// * * * * * * * * * * * * * * * * * * * * * * * * * * * * * * * * * * * * * //

dimensions      [0 3 -1 0 0 0 0];

oriented        oriented;

internalField   nonuniform List<scalar> 
12640
(
1.2962817e-09
-1.2962817e-09
5.1726322e-09
-3.8763506e-09
1.1472448e-08
-6.2998163e-09
2.009056e-08
-8.6181121e-09
3.0952037e-08
-1.0861477e-08
4.4002942e-08
-1.3050905e-08
5.9193736e-08
-1.5190795e-08
7.6464629e-08
-1.7270892e-08
9.574328e-08
-1.9278652e-08
1.1694486e-07
-2.1201575e-08
1.3997321e-07
-2.3028355e-08
1.6472184e-07
-2.4748631e-08
1.9107535e-07
-2.6353505e-08
2.1891019e-07
-2.7834841e-08
2.4809577e-07
-2.9185578e-08
2.7849596e-07
-3.0400191e-08
3.0996881e-07
-3.1472856e-08
3.4236788e-07
-3.2399063e-08
3.7554296e-07
-3.3175086e-08
4.0934193e-07
-3.3798963e-08
4.4361131e-07
-3.4269383e-08
4.7819465e-07
-3.4583342e-08
5.12938e-07
-3.4743353e-08
5.4768569e-07
-3.474768e-08
5.8228556e-07
-3.4599872e-08
6.1658614e-07
-3.4300582e-08
6.5043987e-07
-3.3853728e-08
6.8370087e-07
-3.3261e-08
7.1623314e-07
-3.2532274e-08
7.4789999e-07
-3.166685e-08
7.7857413e-07
-3.0674136e-08
8.0813383e-07
-2.9559702e-08
8.3646252e-07
-2.8328699e-08
8.63457e-07
-2.6994479e-08
8.8900746e-07
-2.5550455e-08
9.1303676e-07
-2.402931e-08
9.3548707e-07
-2.2450305e-08
9.5625637e-07
-2.0769303e-08
9.7527361e-07
-1.9017237e-08
9.9245745e-07
-1.7183843e-08
1.0077693e-06
-1.5311862e-08
1.0211847e-06
-1.3415384e-08
1.0326641e-06
-1.1479423e-08
1.0422127e-06
-9.5485982e-09
1.0498011e-06
-7.5883683e-09
1.0554055e-06
-5.604373e-09
1.0590536e-06
-3.6481859e-09
1.0607339e-06
-1.6802933e-09
1.0604247e-06
3.0922371e-10
1.0583037e-06
2.1210143e-09
1.0543405e-06
3.9632472e-09
1.0485683e-06
5.772191e-09
1.0410433e-06
7.5249844e-09
1.0318195e-06
9.2237668e-09
1.020956e-06
1.0863546e-08
1.0085224e-06
1.2433623e-08
9.9458625e-07
1.3936096e-08
9.7922725e-07
1.5359003e-08
9.6252452e-07
1.6702732e-08
9.4454787e-07
1.797665e-08
9.2539423e-07
1.9153642e-08
9.0514842e-07
2.0245812e-08
8.8389832e-07
2.1250095e-08
8.6173386e-07
2.2164457e-08
8.3872121e-07
2.3012655e-08
8.1497877e-07
2.374244e-08
7.9058325e-07
2.4395518e-08
7.6560014e-07
2.4983117e-08
7.4014815e-07
2.5451998e-08
7.1430365e-07
2.5844483e-08
6.8814596e-07
2.6157696e-08
6.6175673e-07
2.6389235e-08
6.3521066e-07
2.6546078e-08
6.0858134e-07
2.6629322e-08
5.8194114e-07
2.6640203e-08
5.5535844e-07
2.6582701e-08
5.2889766e-07
2.6460773e-08
5.026207e-07
2.6276968e-08
4.7659106e-07
2.6029645e-08
2.5734443e-08
1.927504e-09
-3.2237857e-09
7.5051802e-09
-9.4540269e-09
1.6556767e-08
-1.5351402e-08
2.8866663e-08
-2.0928008e-08
4.4296895e-08
-2.6291708e-08
6.2747447e-08
-3.1501457e-08
8.4117665e-08
-3.6561012e-08
1.0829507e-07
-4.1448293e-08
1.3514853e-07
-4.6132115e-08
1.6452671e-07
-5.0579756e-08
1.9625932e-07
-5.4760961e-08
2.3015827e-07
-5.8647586e-08
2.6601995e-07
-6.2215181e-08
3.0362662e-07
-6.5441509e-08
3.4275017e-07
-6.8309126e-08
3.8315176e-07
-7.0801788e-08
4.2458449e-07
-7.2905585e-08
4.6679418e-07
-7.4608747e-08
5.0952278e-07
-7.5903688e-08
5.5250815e-07
-7.678434e-08
5.9548883e-07
-7.7250052e-08
6.3819898e-07
-7.72935e-08
6.8038007e-07
-7.692444e-08
7.2177181e-07
-7.6139412e-08
7.6212245e-07
-7.4950521e-08
8.0118613e-07
-7.3364262e-08
8.3872507e-07
-7.1392664e-08
8.7450498e-07
-6.9040912e-08
9.0831213e-07
-6.6339425e-08
9.3993316e-07
-6.3287878e-08
9.6917794e-07
-5.9918914e-08
9.9585737e-07
-5.6239133e-08
1.0198131e-06
-5.2284391e-08
1.0408911e-06
-4.8072548e-08
1.0589487e-06
-4.3608018e-08
1.0738708e-06
-3.8951451e-08
1.0855196e-06
-3.409905e-08
1.0938403e-06
-2.9090039e-08
1.0988023e-06
-2.3979219e-08
1.1002704e-06
-1.8651921e-08
1.0982458e-06
-1.3287301e-08
1.0927324e-06
-7.9019717e-09
1.083784e-06
-2.5309773e-09
1.071307e-06
2.9283716e-09
1.0553307e-06
8.387884e-09
1.0359374e-06
1.3788962e-08
1.0132068e-06
1.9082449e-08
9.8723925e-07
2.4287233e-08
9.5814699e-07
2.9401496e-08
9.2591293e-07
3.435507e-08
8.9071965e-07
3.9156527e-08
8.5268207e-07
4.3809767e-08
8.1197609e-07
4.8230973e-08
7.6874298e-07
5.2456872e-08
7.2313999e-07
5.6466537e-08
6.7531749e-07
6.0256125e-08
6.2545527e-07
6.3798312e-08
5.7371608e-07
6.7098193e-08
5.2027937e-07
7.0139449e-08
4.6535907e-07
7.2896936e-08
4.091038e-07
7.5408924e-08
3.5170261e-07
7.7646983e-08
2.9333506e-07
7.9617653e-08
2.341826e-07
8.1316913e-08
1.7449245e-07
8.2702817e-08
1.1436209e-07
8.3872796e-08
5.399411e-08
8.47635e-08
-6.3896933e-09
8.5366914e-08
-6.6693442e-08
8.5755745e-08
-1.2674461e-07
8.5895639e-08
-1.863798e-07
8.5792888e-08
-2.4544695e-07
8.5456375e-08
-3.0380159e-07
8.4900706e-08
-3.6130715e-07
8.4134898e-08
-4.178351e-07
8.3168142e-08
-4.7326446e-07
8.2012045e-08
-5.2748195e-07
8.0678283e-08
-5.8038262e-07
7.9177637e-08
-6.3187081e-07
7.7517823e-08
7.5719402e-08
1.6294349e-09
-4.8532206e-09
6.3653516e-09
-1.4189943e-08
1.4074996e-08
-2.3061047e-08
2.4574775e-08
-3.1427787e-08
3.7721458e-08
-3.9438391e-08
5.338835e-08
-4.7168349e-08
7.1447476e-08
-5.4620139e-08
9.1760709e-08
-6.1761526e-08
1.1417334e-07
-6.8544741e-08
1.3851199e-07
-7.4918416e-08
1.6458524e-07
-8.0834208e-08
1.9218345e-07
-8.6245793e-08
2.2108147e-07
-9.1113206e-08
2.5103886e-07
-9.5398895e-08
2.8180732e-07
-9.9077589e-08
3.1312391e-07
-1.0211838e-07
3.4472002e-07
-1.045017e-07
3.7631874e-07
-1.0620746e-07
4.0764611e-07
-1.0723106e-07
4.3841461e-07
-1.0755284e-07
4.6834724e-07
-1.0718269e-07
4.9717007e-07
-1.0611633e-07
5.2460373e-07
-1.043581e-07
5.5037598e-07
-1.0191166e-07
5.7423222e-07
-9.8806758e-08
5.9591261e-07
-9.5044652e-08
6.1518508e-07
-9.0665128e-08
6.3179823e-07
-8.5654064e-08
6.4555486e-07
-8.0096053e-08
6.5623503e-07
-7.3968052e-08
6.636683e-07
-6.7352183e-08
6.6767108e-07
-6.0241917e-08
6.6811751e-07
-5.273082e-08
6.6485963e-07
-4.4814678e-08
6.5779142e-07
-3.6539796e-08
6.4682e-07
-2.7980032e-08
6.3187073e-07
-1.9149781e-08
6.1288313e-07
-1.0102445e-08
5.9001054e-07
-1.1066247e-09
5.6283519e-07
8.5234347e-09
5.3158423e-07
1.7963662e-08
4.9627475e-07
2.740751e-08
4.5694994e-07
3.6793824e-08
4.1373929e-07
4.613903e-08
3.6673267e-07
5.5394492e-08
3.1605237e-07
6.4469263e-08
2.6174566e-07
7.3389155e-08
2.0396319e-07
8.20697e-08
1.4291582e-07
9.0448862e-08
7.8723771e-08
9.8547125e-08
1.1588146e-08
1.0629215e-07
-5.8266923e-08
1.1366483e-07
-1.3072468e-07
1.2068873e-07
-2.0554926e-07
1.2728145e-07
-2.8251278e-07
1.3343007e-07
-3.6138527e-07
1.3912862e-07
-4.4193524e-07
1.4434828e-07
-5.2392594e-07
1.490889e-07
-6.0712045e-07
1.5333397e-07
-6.9128662e-07
1.5706309e-07
-7.7617864e-07
1.6030095e-07
-8.6155978e-07
1.6302813e-07
-9.4719172e-07
1.6524959e-07
-1.0328407e-06
1.6696585e-07
-1.1183058e-06
1.6816793e-07
-1.2033309e-06
1.688979e-07
-1.2877097e-06
1.6914229e-07
-1.3712546e-06
1.6891189e-07
-1.4537349e-06
1.6823605e-07
-1.5349617e-06
1.6712246e-07
-1.6147535e-06
1.6558468e-07
-1.6929371e-06
1.6363992e-07
-1.7693456e-06
1.6130926e-07
-1.8438232e-06
1.5861241e-07
-1.9162246e-06
1.5556959e-07
-1.9864149e-06
1.5220239e-07
-2.0542694e-06
1.4853279e-07
-2.1196743e-06
1.4458246e-07
-2.182529e-06
1.4037254e-07
1.3592845e-07
1.0946983e-09
-5.9479189e-09
4.3671313e-09
-1.7462377e-08
9.7533872e-09
-2.8447303e-08
1.7152552e-08
-3.8826953e-08
2.6444364e-08
-4.8730203e-08
3.7493184e-08
-5.8217169e-08
5.0157121e-08
-6.7284075e-08
6.4284459e-08
-7.5888865e-08
7.9710036e-08
-8.3970317e-08
9.6255133e-08
-9.1463512e-08
1.1372535e-07
-9.8304426e-08
1.3191119e-07
-1.0443163e-07
1.505907e-07
-1.0979271e-07
1.6952682e-07
-1.1433502e-07
1.8847545e-07
-1.1802622e-07
2.0718288e-07
-1.208258e-07
2.2538792e-07
-1.2270674e-07
2.4281882e-07
-1.2363835e-07
2.5920935e-07
-1.236216e-07
2.7429827e-07
-1.2264175e-07
2.8781445e-07
-1.2069887e-07
2.9948538e-07
-1.1778726e-07
3.0906739e-07
-1.1394011e-07
3.1628938e-07
-1.0913365e-07
3.2091004e-07
-1.0342741e-07
3.2272909e-07
-9.686371e-08
3.2151213e-07
-8.9448168e-08
3.1704481e-07
-8.1186739e-08
3.0915674e-07
-7.2207989e-08
2.9760993e-07
-6.2421246e-08
2.8228873e-07
-5.2030986e-08
2.6311258e-07
-4.1065757e-08
2.3989728e-07
-2.9515519e-08
2.125618e-07
-1.7479199e-08
1.8105335e-07
-5.0313428e-09
1.4523674e-07
7.8365658e-09
1.0515789e-07
2.0929069e-08
6.0876778e-08
3.4178669e-08
1.2107784e-08
4.7662374e-08
-4.0676629e-08
6.1307845e-08
-9.7690251e-08
7.4977284e-08
-1.5884739e-07
8.8564651e-08
-2.2406426e-07
1.0201069e-07
-2.9320822e-07
1.15283e-07
-3.661283e-07
1.2831456e-07
-4.4269331e-07
1.4103428e-07
-5.2270999e-07
1.5340585e-07
-6.059979e-07
1.6535761e-07
-6.9237907e-07
1.7683004e-07
-7.8162421e-07
1.8779226e-07
-8.7352164e-07
1.9818958e-07
-9.6784513e-07
2.0798833e-07
-1.064319e-06
2.1716264e-07
-1.1627048e-06
2.2566725e-07
-1.2627486e-06
2.3347387e-07
-1.3641831e-06
2.4056305e-07
-1.4667457e-06
2.4691095e-07
-1.5701637e-06
2.5250686e-07
-1.6741669e-06
2.5733717e-07
-1.7784949e-06
2.6139108e-07
-1.8828702e-06
2.6467629e-07
-1.9870307e-06
2.6718859e-07
-2.0907145e-06
2.6893337e-07
-2.1936663e-06
2.6991763e-07
-2.2956481e-06
2.7014972e-07
-2.3964052e-06
2.6965502e-07
-2.4957083e-06
2.6844545e-07
-2.5933379e-06
2.6654146e-07
-2.6890721e-06
2.6397025e-07
-2.7827058e-06
2.6075611e-07
-2.874046e-06
2.5692495e-07
-2.9629114e-06
2.525053e-07
-3.0491306e-06
2.4752848e-07
-3.1325444e-06
2.420262e-07
-3.2130059e-06
2.3603107e-07
-3.2903802e-06
2.2957669e-07
-3.3645445e-06
2.2269711e-07
-3.4353886e-06
2.1542651e-07
-3.502815e-06
2.0779897e-07
1.9984983e-07
6.5857232e-10
-6.6064912e-09
2.6965476e-09
-1.9500352e-08
6.1214344e-09
-3.1872189e-08
1.0901585e-08
-4.3607102e-08
1.6944364e-08
-5.4772982e-08
2.4120428e-08
-6.5393232e-08
3.2282051e-08
-7.5445698e-08
4.1274587e-08
-8.48814e-08
5.092666e-08
-9.3622393e-08
6.1057876e-08
-1.0159473e-07
7.1477807e-08
-1.0872436e-07
8.1976348e-08
-1.1493017e-07
9.2335375e-08
-1.2015174e-07
1.0234251e-07
-1.2434216e-07
1.1174736e-07
-1.2743107e-07
1.2030928e-07
-1.2938772e-07
1.2777633e-07
-1.3017379e-07
1.3392268e-07
-1.297847e-07
1.3844841e-07
-1.2814733e-07
1.4112674e-07
-1.2532009e-07
1.416947e-07
-1.2126682e-07
1.3992909e-07
-1.1602165e-07
1.3555662e-07
-1.0956766e-07
1.284067e-07
-1.0198372e-07
1.1816928e-07
-9.3189996e-08
1.0469551e-07
-8.3389931e-08
8.7736366e-08
-7.2489024e-08
6.7227526e-08
-6.0677904e-08
4.2859009e-08
-4.7839463e-08
1.4687615e-08
-3.4249854e-08
-1.7564105e-08
-1.9779261e-08
-5.4039276e-08
-4.5905906e-09
-9.4770672e-08
1.1215878e-08
-1.3984742e-07
2.7597554e-08
-1.8932009e-07
4.4441315e-08
-2.4316636e-07
6.1682846e-08
-3.0143278e-07
7.9195491e-08
-3.6414876e-07
9.6894658e-08
-4.3122033e-07
1.1473393e-07
-5.0253861e-07
1.3262613e-07
-5.7802089e-07
1.5045956e-07
-6.575855e-07
1.6812926e-07
-7.4111959e-07
1.8554478e-07
-8.2847172e-07
2.0263513e-07
-9.1947354e-07
2.1931639e-07
-1.0139471e-06
2.3550779e-07
-1.1116851e-06
2.5114386e-07
-1.2124754e-06
2.6614792e-07
-1.3160971e-06
2.804518e-07
-1.4223054e-06
2.9400049e-07
-1.5308522e-06
3.0673638e-07
-1.641476e-06
3.1861215e-07
-1.7538991e-06
3.2958568e-07
-1.8678468e-06
3.3961497e-07
-1.9830391e-06
3.4866615e-07
-2.0991887e-06
3.5671266e-07
-2.2160093e-06
3.6373159e-07
-2.3332104e-06
3.6970798e-07
-2.4505039e-06
3.7463064e-07
-2.5676067e-06
3.7849389e-07
-2.6842315e-06
3.8130109e-07
-2.8000996e-06
3.8305669e-07
-2.9149373e-06
3.8377109e-07
-3.0284785e-06
3.8345882e-07
-3.1404677e-06
3.8213888e-07
-3.2506506e-06
3.798379e-07
-3.3587874e-06
3.7658225e-07
-3.4646488e-06
3.7240292e-07
-3.5680138e-06
3.6733518e-07
-3.6686736e-06
3.6141597e-07
-3.7664329e-06
3.5468418e-07
-3.8611087e-06
3.471811e-07
-3.9525305e-06
3.3895031e-07
-4.0405409e-06
3.3003664e-07
-4.1249958e-06
3.2048593e-07
-4.2057641e-06
3.1034499e-07
-4.2827281e-06
2.9966106e-07
-4.3557831e-06
2.8848153e-07
-4.4248379e-06
2.7685377e-07
2.6482526e-07
3.9584849e-10
-7.0023396e-09
1.6642743e-09
-2.0768778e-08
3.8467617e-09
-3.4054677e-08
6.9487372e-09
-4.6709078e-08
1.0901354e-08
-5.87256e-08
1.558493e-08
-7.0076807e-08
2.0859012e-08
-8.071978e-08
2.6563469e-08
-9.0585858e-08
3.2529036e-08
-9.9587956e-08
3.8572659e-08
-1.0763835e-07
4.450003e-08
-1.1465173e-07
5.011703e-08
-1.2054717e-07
5.5207263e-08
-1.2524198e-07
5.9537697e-08
-1.2867259e-07
6.2888438e-08
-1.3078182e-07
6.5017165e-08
-1.3151644e-07
6.5680553e-08
-1.3083717e-07
6.4619278e-08
-1.2872343e-07
6.1646086e-08
-1.2517414e-07
5.6444078e-08
-1.2011808e-07
4.8819304e-08
-1.1364205e-07
3.8511653e-08
-1.0571399e-07
2.5330428e-08
-9.6386422e-08
9.0101328e-09
-8.5663433e-08
-1.0546379e-08
-7.3633487e-08
-3.3664455e-08
-6.027186e-08
-6.0470488e-08
-4.5682987e-08
-9.1183248e-08
-2.9965145e-08
-1.258912e-07
-1.3131519e-08
-1.6476344e-07
4.6223875e-09
-2.0787583e-07
2.3333119e-08
-2.5532865e-07
4.286224e-08
-3.0721073e-07
6.3097963e-08
-3.635553e-07
8.3942124e-08
-4.2439613e-07
1.0528213e-07
-4.8972686e-07
1.2701357e-07
-5.5954478e-07
1.4901342e-07
-6.3382311e-07
1.7117298e-07
-7.1248395e-07
1.9339477e-07
-7.9542499e-07
2.1556718e-07
-8.8253661e-07
2.3757118e-07
-9.7369776e-07
2.5929041e-07
-1.0687683e-06
2.8061528e-07
-1.1675787e-06
3.0144559e-07
-1.2699435e-06
3.2168118e-07
-1.3756621e-06
3.4122634e-07
-1.4845114e-06
3.5999325e-07
-1.5962587e-06
3.7789517e-07
-1.7106592e-06
3.9485233e-07
-1.8274526e-06
4.1079389e-07
-1.9463699e-06
4.2565367e-07
-2.0671314e-06
4.3937367e-07
-2.1894482e-06
4.5190245e-07
-2.3130275e-06
4.6319429e-07
-2.4375725e-06
4.7321118e-07
-2.5627828e-06
4.8192286e-07
-2.6883569e-06
4.8930577e-07
-2.8139931e-06
4.9534416e-07
-2.9393913e-06
5.0002886e-07
-3.0642551e-06
5.0335772e-07
-3.1882903e-06
5.0533629e-07
-3.311209e-06
5.0597539e-07
-3.43273e-06
5.0529208e-07
-3.5525802e-06
5.0330901e-07
-3.6704959e-06
5.0005454e-07
-3.786221e-06
4.9556304e-07
-3.8995112e-06
4.8987246e-07
-4.0101334e-06
4.8302516e-07
-4.1178659e-06
4.7506764e-07
-4.2224994e-06
4.6604946e-07
-4.3238381e-06
4.5602285e-07
-4.4216996e-06
4.4504266e-07
-4.5159152e-06
4.3316587e-07
-4.6063297e-06
4.2045116e-07
-4.6928021e-06
4.0695835e-07
-4.7752053e-06
3.9274814e-07
-4.8534259e-06
3.7788167e-07
-4.9273644e-06
3.6242012e-07
-4.9969352e-06
3.4642449e-07
3.2995535e-07
2.7984689e-10
-7.2821865e-09
1.1870162e-09
-2.1675947e-08
2.766268e-09
-3.5633928e-08
5.0316543e-09
-4.8974464e-08
7.9244835e-09
-6.1618429e-08
1.133975e-08
-7.3492074e-08
1.5142574e-08
-8.4522604e-08
1.9170295e-08
-9.461358e-08
2.3258062e-08
-1.0367572e-07
2.7222421e-08
-1.1160271e-07
3.0867895e-08
-1.182972e-07
3.3987087e-08
-1.2366637e-07
3.6365024e-08
-1.2761991e-07
3.7781533e-08
-1.300891e-07
3.7998723e-08
-1.30999e-07
3.678905e-08
-1.3030678e-07
3.3931495e-08
-1.2797961e-07
2.9135189e-08
-1.2392713e-07
2.2174559e-08
-1.1821351e-07
1.2848983e-08
-1.107925e-07
8.8736905e-10
-1.0168044e-07
-1.3922944e-08
-9.0903679e-08
-3.1832952e-08
-7.8476418e-08
-5.3055356e-08
-6.4441032e-08
-7.7798684e-08
-4.8890147e-08
-1.0623422e-07
-3.1836327e-08
-1.3853823e-07
-1.3378988e-08
-1.7486104e-07
6.3576722e-09
-2.1533406e-07
2.7341506e-08
-2.6013816e-07
4.942649e-08
-3.0933503e-07
7.2529986e-08
-3.6300377e-07
9.6530983e-08
-4.2120991e-07
1.2130409e-07
-4.8399054e-07
1.4672276e-07
-5.5136381e-07
1.7265541e-07
-6.2332015e-07
1.9896991e-07
-6.9983532e-07
2.255286e-07
-7.8086014e-07
2.5219779e-07
-8.6631244e-07
2.7884708e-07
-9.5608732e-07
3.0534205e-07
-1.0500627e-06
3.3154659e-07
-1.1480992e-06
3.5732688e-07
-1.2500379e-06
3.8255395e-07
-1.3556975e-06
4.0710524e-07
-1.4648787e-06
4.3086241e-07
-1.5773653e-06
4.537129e-07
-1.6929231e-06
4.7555105e-07
-1.8113048e-06
4.9627686e-07
-1.9322504e-06
5.1579791e-07
-2.0554869e-06
5.340304e-07
-2.1807314e-06
5.5089823e-07
-2.3076918e-06
5.6633402e-07
-2.4360681e-06
5.8027876e-07
-2.5655555e-06
5.9268175e-07
-2.6958455e-06
6.0350119e-07
-2.8266269e-06
6.1270426e-07
-2.957588e-06
6.2026681e-07
-3.0884174e-06
6.2617354e-07
-3.2188061e-06
6.304176e-07
-3.3484489e-06
6.330005e-07
-3.4770447e-06
6.3393209e-07
-3.6042989e-06
6.3322958e-07
-3.7299242e-06
6.3091743e-07
-3.8536423e-06
6.2702703e-07
-3.975184e-06
6.2159631e-07
-4.0942905e-06
6.1466952e-07
-4.2107142e-06
6.0629611e-07
-4.3242195e-06
5.9653048e-07
-4.4345835e-06
5.8543161e-07
-4.5415963e-06
5.7306227e-07
-4.645062e-06
5.5948853e-07
-4.7447986e-06
5.4477926e-07
-4.8406385e-06
5.2900576e-07
-4.9324283e-06
5.1224104e-07
-5.0200295e-06
4.9455951e-07
-5.1033177e-06
4.7603631e-07
-5.182183e-06
4.5674701e-07
-5.25653e-06
4.3676706e-07
-5.3262769e-06
4.1617145e-07
3.9503433e-07
2.5946432e-10
-7.5416509e-09
1.0832533e-09
-2.2499736e-08
2.5021223e-09
-3.7052797e-08
4.5219241e-09
-5.0994265e-08
7.0848277e-09
-6.4181333e-08
1.0094663e-08
-7.6501908e-08
1.3417224e-08
-8.7845166e-08
1.6899559e-08
-9.8095914e-08
2.036891e-08
-1.0714507e-07
2.3641825e-08
-1.1487563e-07
2.6517374e-08
-1.2117275e-07
2.8787661e-08
-1.2593665e-07
3.022536e-08
-1.2905761e-07
3.0613945e-08
-1.3047768e-07
2.9716391e-08
-1.3010145e-07
2.7281196e-08
-1.2787158e-07
2.3052938e-08
-1.2375136e-07
1.684212e-08
-1.1771631e-07
8.3622466e-09
-1.0973363e-07
-2.633259e-09
-9.9796995e-08
-1.6390978e-08
-8.7922717e-08
-3.3145281e-08
-7.4149378e-08
-5.3117146e-08
-5.8504554e-08
-7.6514516e-08
-4.1043658e-08
-1.0356418e-07
-2.1840487e-08
-1.3443471e-07
-9.65797e-10
-1.6928998e-07
2.1476287e-08
-2.0832086e-07
4.5388551e-08
-2.5164469e-07
7.0665334e-08
-2.9939652e-07
9.7178316e-08
-3.5166956e-07
1.2480303e-07
-4.0854031e-07
1.5340172e-07
-4.7006566e-07
1.8282945e-07
-5.3627928e-07
2.1293638e-07
-6.0719224e-07
2.4356837e-07
-6.8279119e-07
2.7456886e-07
-7.6304128e-07
3.0577868e-07
-8.4788292e-07
3.3703945e-07
-9.3722972e-07
3.6819387e-07
-1.030972e-06
3.9908428e-07
-1.1289792e-06
4.2955385e-07
-1.231101e-06
4.5944868e-07
-1.3371667e-06
4.8861965e-07
-1.4469851e-06
5.1692361e-07
-1.5603462e-06
5.442235e-07
-1.6770225e-06
5.703892e-07
-1.7967698e-06
5.9529837e-07
-1.9193295e-06
6.1883659e-07
-2.04443e-06
6.4089833e-07
-2.1717872e-06
6.6138762e-07
-2.3011071e-06
6.8021817e-07
-2.4320868e-06
6.9731371e-07
-2.5644162e-06
7.1260819e-07
-2.6977802e-06
7.2604573e-07
-2.8318601e-06
7.37581e-07
-2.9663349e-06
7.4717912e-07
-3.1008837e-06
7.5481559e-07
-3.2351864e-06
7.6047622e-07
-3.3689256e-06
7.6415685e-07
-3.5017882e-06
7.6586311e-07
-3.6334663e-06
7.6561012e-07
-3.7636586e-06
7.634219e-07
-3.8920722e-06
7.59331e-07
-4.0184231e-06
7.5337796e-07
-4.1424377e-06
7.4561093e-07
-4.2638533e-06
7.3608506e-07
-4.3824189e-06
7.2486176e-07
-4.4978966e-06
7.1200818e-07
-4.6100615e-06
6.9759651e-07
-4.7187026e-06
6.8170341e-07
-4.8236233e-06
6.6440924e-07
-4.9246417e-06
6.457976e-07
-5.0215905e-06
6.2595459e-07
-5.1143177e-06
6.0496826e-07
-5.2026863e-06
5.8292801e-07
-5.286574e-06
5.5992403e-07
-5.3658737e-06
5.3604672e-07
-5.4404928e-06
5.113862e-07
-5.5103533e-06
4.8603189e-07
4.6007194e-07
2.9298883e-10
-7.8346397e-09
1.1974304e-09
-2.3404177e-08
2.7253338e-09
-3.8580701e-08
4.8654668e-09
-5.3134399e-08
7.5606999e-09
-6.6876564e-08
1.0707345e-08
-7.9648556e-08
1.4178322e-08
-9.1316141e-08
1.7821089e-08
-1.0173868e-07
2.1460092e-08
-1.1078408e-07
2.4904347e-08
-1.1831988e-07
2.7951344e-08
-1.2421975e-07
3.0379597e-08
-1.283649e-07
3.1980253e-08
-1.3065827e-07
3.2496693e-08
-1.3099412e-07
3.1694157e-08
-1.2929892e-07
2.9314723e-08
-1.2549214e-07
2.5122038e-08
-1.1955867e-07
1.8837724e-08
-1.11432e-07
1.0241114e-08
-1.0113702e-07
-9.5440333e-10
-8.8601478e-08
-1.4987802e-08
-7.3889321e-08
-3.2099949e-08
-5.7037233e-08
-5.2529225e-08
-3.8075276e-08
-7.6496371e-08
-1.7076514e-08
-1.0421313e-07
5.8762729e-09
-1.3586376e-07
3.0684825e-08
-1.7163337e-07
5.7245903e-08
-2.1168624e-07
8.5441414e-08
-2.5616277e-07
1.1514187e-07
-3.0518869e-07
1.4620424e-07
-3.5886413e-07
1.7847847e-07
-4.1726726e-07
2.1180486e-07
-4.8045383e-07
2.4601602e-07
-5.484561e-07
2.8093865e-07
-6.2128245e-07
3.1639473e-07
-6.9891675e-07
3.5220315e-07
-7.8131882e-07
3.8818075e-07
-8.6842351e-07
4.2414413e-07
-9.6014025e-07
4.5991061e-07
-1.0563545e-06
4.9529858e-07
-1.1569294e-06
5.3012871e-07
-1.2617062e-06
5.642255e-07
-1.3705054e-06
5.974188e-07
-1.4831267e-06
6.2954494e-07
-1.5993508e-06
6.6044763e-07
-1.7189404e-06
6.899788e-07
-1.8416415e-06
7.179994e-07
-1.9671849e-06
7.4438004e-07
-2.0952883e-06
7.6900171e-07
-2.2256571e-06
7.917564e-07
-2.3579864e-06
8.1254749e-07
-2.4919627e-06
8.3129006e-07
-2.6272657e-06
8.479111e-07
-2.7635696e-06
8.6234968e-07
-2.9005456e-06
8.7455704e-07
-3.0378631e-06
8.8449658e-07
-3.1751913e-06
8.921438e-07
-3.3122011e-06
8.9748604e-07
-3.4485665e-06
9.0052224e-07
-3.5839661e-06
9.0126265e-07
-3.7180843e-06
8.9972832e-07
-3.850613e-06
8.9595067e-07
-3.9812529e-06
8.8997084e-07
-4.1097141e-06
8.8183921e-07
-4.2357179e-06
8.7161472e-07
-4.3589971e-06
8.5936425e-07
-4.4792972e-06
8.4516181e-07
-4.5963769e-06
8.2908792e-07
-4.7100091e-06
8.1122875e-07
-4.8199812e-06
7.9167546e-07
-4.9260954e-06
7.7052339e-07
-5.0281691e-06
7.4787141e-07
-5.1260356e-06
7.2382107e-07
-5.2195434e-06
6.9847603e-07
-5.3085566e-06
6.7194124e-07
-5.392955e-06
6.4432242e-07
-5.4726337e-06
6.1572535e-07
-5.5475027e-06
5.8625526e-07
-5.6174872e-06
5.5601633e-07
5.2511115e-07
3.5472771e-10
-8.1893674e-09
1.4299935e-09
-2.4479443e-08
3.2201135e-09
-4.037082e-08
5.697331e-09
-5.5611617e-08
8.7937169e-09
-6.997295e-08
1.240899e-08
-8.3263828e-08
1.6411033e-08
-9.5318184e-08
2.0642719e-08
-1.0597037e-07
2.4925657e-08
-1.1506702e-07
2.9063046e-08
-1.2245727e-07
3.2848267e-08
-1.2800497e-07
3.6051132e-08
-1.3156777e-07
3.84337e-08
-1.3304084e-07
3.9752649e-08
-1.3231307e-07
3.9741209e-08
-1.2928748e-07
3.8175958e-08
-1.2392689e-07
3.4742763e-08
-1.1612548e-07
2.9217153e-08
-1.0590638e-07
2.1278636e-08
-9.3198505e-08
1.0744839e-08
-7.8067678e-08
-2.6843978e-09
-6.0460085e-08
-1.9273489e-08
-4.0448138e-08
-3.9281314e-08
-1.8067452e-08
-6.2935365e-08
6.5775352e-09
-9.0434962e-08
3.3375873e-08
-1.2198436e-07
6.2234222e-08
-1.577726e-07
9.3034149e-08
-1.9796975e-07
1.2563856e-07
-2.4272436e-07
1.5989648e-07
-2.9216453e-07
1.956444e-07
-3.4639491e-07
2.3270884e-07
-4.0549672e-07
2.7090667e-07
-4.6952726e-07
3.1004658e-07
-5.3851925e-07
3.4993063e-07
-6.1248029e-07
3.9035576e-07
-6.9139253e-07
4.311154e-07
-7.7521264e-07
4.7200086e-07
-8.638716e-07
5.1280309e-07
-9.5727475e-07
5.5331377e-07
-1.0553027e-06
5.9332654e-07
-1.1578123e-06
6.3263831e-07
-1.2646376e-06
6.7105076e-07
-1.3755905e-06
7.0837174e-07
-1.4904622e-06
7.4441659e-07
-1.6090237e-06
7.7900915e-07
-1.7310277e-06
8.1198285e-07
-1.85621e-06
8.4318162e-07
-1.9842905e-06
8.7246061e-07
-2.1149758e-06
8.9968697e-07
-2.2479599e-06
9.2474055e-07
-2.3829267e-06
9.4751425e-07
-2.5195512e-06
9.6791451e-07
-2.6575015e-06
9.8586145e-07
-2.796441e-06
1.0012892e-06
-2.9360296e-06
1.0141456e-06
-3.0759259e-06
1.0243929e-06
-3.2157888e-06
1.0320067e-06
-3.355279e-06
1.0369762e-06
-3.4940609e-06
1.0393042e-06
-3.6318041e-06
1.0390059e-06
-3.7681847e-06
1.0361089e-06
-3.9028867e-06
1.0306527e-06
-4.0356034e-06
1.0226876e-06
-4.1660388e-06
1.0122746e-06
-4.2939081e-06
9.9948404e-07
-4.4189392e-06
9.8439531e-07
-4.5408732e-06
9.6709581e-07
-4.6594654e-06
9.476801e-07
-4.7744857e-06
9.2624912e-07
-4.8857195e-06
9.0290925e-07
-4.9929676e-06
8.7777149e-07
-5.0960469e-06
8.5095067e-07
-5.1947903e-06
8.2256446e-07
-5.289047e-06
7.9273274e-07
-5.3786824e-06
7.6157666e-07
-5.463578e-06
7.2921804e-07
-5.5436312e-06
6.9577849e-07
-5.6187548e-06
6.6137889e-07
-5.6888771e-06
6.2613864e-07
5.9017516e-07
4.3140933e-10
-8.6207767e-09
1.7273365e-09
-2.5775371e-08
3.8679484e-09
-4.2511432e-08
6.8119024e-09
-5.8555571e-08
1.0481161e-08
-7.3642209e-08
1.4770618e-08
-8.7553285e-08
1.9539528e-08
-1.0008709e-07
2.4627584e-08
-1.1105843e-07
2.9855044e-08
-1.2029447e-07
3.5009494e-08
-1.2761172e-07
3.9880723e-08
-1.328762e-07
4.4225022e-08
-1.3591207e-07
4.7792344e-08
-1.3660816e-07
5.0327495e-08
-1.3484822e-07
5.1565105e-08
-1.3052509e-07
5.1220701e-08
-1.2358248e-07
4.9041532e-08
-1.1394631e-07
4.4718643e-08
-1.0158349e-07
3.7987848e-08
-8.646771e-08
2.8545298e-08
-6.8625127e-08
1.6137007e-08
-4.8051795e-08
5.4161412e-10
-2.4852746e-08
-1.8560007e-08
1.0341684e-09
-4.1410734e-08
2.9428264e-08
-6.8224905e-08
6.0190043e-08
-9.9209958e-08
9.3219275e-08
-1.3456512e-07
1.2838931e-07
-1.7446901e-07
1.6554245e-07
-2.1907764e-07
2.0450511e-07
-2.6852456e-07
2.4509132e-07
-3.2291955e-07
2.8710384e-07
-3.8234792e-07
3.3033503e-07
-4.4686962e-07
3.7456828e-07
-5.1651875e-07
4.1957975e-07
-5.9130298e-07
4.6514e-07
-6.7120335e-07
5.1101576e-07
-7.5617408e-07
5.569716e-07
-8.4614264e-07
6.0277166e-07
-9.4101005e-07
6.4818118e-07
-1.0406515e-06
6.92968e-07
-1.1449173e-06
7.3690412e-07
-1.2536338e-06
7.7976723e-07
-1.3666043e-06
8.2134224e-07
-1.4836103e-06
8.614226e-07
-1.6044128e-06
8.9981165e-07
-1.7287536e-06
9.3632367e-07
-1.856357e-06
9.7078498e-07
-1.9869312e-06
1.0030348e-06
-2.1201704e-06
1.0329262e-06
-2.2557562e-06
1.0603264e-06
-2.3933598e-06
1.0851179e-06
-2.5326436e-06
1.1071983e-06
-2.673263e-06
1.1264809e-06
-2.8148689e-06
1.142895e-06
-2.9571088e-06
1.1563856e-06
-3.0996293e-06
1.1669134e-06
-3.2420776e-06
1.1744549e-06
-3.3841032e-06
1.1790018e-06
-3.5253599e-06
1.1805608e-06
-3.6655069e-06
1.1791529e-06
-3.8042111e-06
1.1748131e-06
-3.9411476e-06
1.1675892e-06
-4.0760019e-06
1.1575419e-06
-4.2084704e-06
1.1447431e-06
-4.338262e-06
1.1292756e-06
-4.4650989e-06
1.1112322e-06
-4.5887174e-06
1.0907143e-06
-4.7088689e-06
1.0678315e-06
-4.82532e-06
1.0427003e-06
-4.9378538e-06
1.015443e-06
-5.0462695e-06
9.8618722e-07
-5.1503832e-06
9.5506439e-07
-5.2500279e-06
9.2220911e-07
-5.3450533e-06
8.8775817e-07
-5.4353263e-06
8.518496e-07
-5.5207301e-06
8.146219e-07
-5.6011648e-06
7.7621318e-07
-5.6765464e-06
7.3676044e-07
-5.7468066e-06
6.9639881e-07
6.5526101e-07
5.1727966e-10
-9.1380563e-09
2.0660499e-09
-2.7324141e-08
4.6163834e-09
-4.5061765e-08
8.1147315e-09
-6.205392e-08
1.2473904e-08
-7.800138e-08
1.7578314e-08
-9.2657695e-08
2.3282684e-08
-1.0579146e-07
2.942129e-08
-1.1719703e-07
3.5793284e-08
-1.2666647e-07
4.2194982e-08
-1.3401342e-07
4.8387621e-08
-1.3906884e-07
5.4125864e-08
-1.4165031e-07
5.9148171e-08
-1.4163047e-07
6.3177049e-08
-1.3887709e-07
6.594128e-08
-1.3328932e-07
6.713108e-08
-1.2477229e-07
6.6477175e-08
-1.1329241e-07
6.3660922e-08
-9.8767241e-08
5.8391815e-08
-8.1198605e-08
5.0391089e-08
-6.0624402e-08
3.9341323e-08
-3.7002027e-08
2.4961173e-08
-1.0472597e-08
7.0058902e-09
1.8989453e-08
-1.4691797e-08
5.1125952e-08
-4.0561772e-08
8.6060016e-08
-7.0731104e-08
1.2338861e-07
-1.0541873e-07
1.6307693e-07
-1.4481312e-07
2.0493685e-07
-1.8907745e-07
2.4876944e-07
-2.3835176e-07
2.9436564e-07
-2.9275173e-07
3.4150382e-07
-3.5236731e-07
3.899506e-07
-4.1726176e-07
4.3946273e-07
-4.87471e-07
4.89789e-07
-5.6300314e-07
5.4067214e-07
-6.4383817e-07
5.9185078e-07
-7.2992792e-07
6.4306135e-07
-8.2119618e-07
6.9403993e-07
-9.1753912e-07
7.4452411e-07
-1.0188258e-06
7.9425473e-07
-1.1248994e-06
8.4297762e-07
-1.2355774e-06
8.904453e-07
-1.3506538e-06
9.3641861e-07
-1.4698994e-06
9.8066825e-07
-1.5930639e-06
1.0229761e-06
-1.7198769e-06
1.0631367e-06
-1.85005e-06
1.100958e-06
-1.9832781e-06
1.1362629e-06
-2.1192416e-06
1.1688897e-06
-2.2576084e-06
1.1986931e-06
-2.3980352e-06
1.2255447e-06
-2.5401702e-06
1.2493333e-06
-2.6836549e-06
1.2699656e-06
-2.8281258e-06
1.2873659e-06
-2.9732167e-06
1.3014765e-06
-3.1185607e-06
1.3122574e-06
-3.2637919e-06
1.3196861e-06
-3.4085474e-06
1.3237573e-06
-3.5524687e-06
1.3244822e-06
-3.6952042e-06
1.3218884e-06
-3.8364098e-06
1.3160187e-06
-3.9757511e-06
1.3069305e-06
-4.1129045e-06
1.2946953e-06
-4.2475585e-06
1.2793971e-06
-4.3794147e-06
1.2611319e-06
-4.5081892e-06
1.2400066e-06
-4.6336129e-06
1.216138e-06
-4.7554327e-06
1.1896514e-06
-4.8734121e-06
1.1606797e-06
-4.9873315e-06
1.1293623e-06
-5.0969884e-06
1.0958442e-06
-5.2021982e-06
1.0602742e-06
-5.302794e-06
1.0228049e-06
-5.3986263e-06
9.8359051e-07
-5.4895636e-06
9.4278687e-07
-5.5754915e-06
9.0054985e-07
-5.656313e-06
8.5703467e-07
-5.7319477e-06
8.1239506e-07
-5.8023313e-06
7.6678246e-07
7.2034528e-07
6.1133401e-10
-9.7493903e-09
2.4383296e-09
-2.9151137e-08
5.4451252e-09
-4.8068561e-08
9.5689299e-09
-6.6177725e-08
1.4711075e-08
-8.3143525e-08
2.0745836e-08
-9.8692455e-08
2.7520909e-08
-1.1256654e-07
3.4857555e-08
-1.2453368e-07
4.2554027e-08
-1.3436294e-07
5.038469e-08
-1.4184408e-07
5.810378e-08
-1.4678793e-07
6.5447936e-08
-1.4899446e-07
7.2141481e-08
-1.4832401e-07
7.7901555e-08
-1.4463717e-07
8.241066e-08
-1.3779843e-07
8.536871e-08
-1.2773033e-07
8.6454851e-08
-1.1437855e-07
8.5382686e-08
-9.7695075e-08
8.1819246e-08
-7.7635164e-08
7.5430096e-08
-5.4235253e-08
6.5977096e-08
-2.7549027e-08
5.3052972e-08
2.4515268e-09
3.6492146e-08
3.5550281e-08
1.5899554e-08
7.1718546e-08
-8.7549733e-09
1.1071454e-07
-3.7940166e-08
1.525738e-07
-7.1822707e-08
1.9695947e-07
-1.1059365e-07
2.437078e-07
-1.5441959e-07
2.9259538e-07
-2.034476e-07
3.4339364e-07
-2.5780016e-07
3.9585636e-07
-3.1757245e-07
4.497229e-07
-3.8283143e-07
5.0472171e-07
-4.5361508e-07
5.6057265e-07
-5.2993196e-07
6.1698903e-07
-6.1176096e-07
6.7367978e-07
-6.9905121e-07
7.303516e-07
-7.9172236e-07
7.8671108e-07
-8.8966496e-07
8.4246672e-07
-9.9274121e-07
8.9733098e-07
-1.1007857e-06
9.5102216e-07
-1.2136068e-06
1.0032663e-06
-1.3309872e-06
1.0537991e-06
-1.4526862e-06
1.1023673e-06
-1.5784405e-06
1.1487304e-06
-1.7079662e-06
1.1926624e-06
-1.8409604e-06
1.2339522e-06
-1.9771032e-06
1.2724058e-06
-2.1160597e-06
1.3078462e-06
-2.2574819e-06
1.3401153e-06
-2.4010108e-06
1.3690735e-06
-2.5462785e-06
1.394601e-06
-2.6929106e-06
1.4165977e-06
-2.8405279e-06
1.4349832e-06
-2.9887488e-06
1.4496974e-06
-3.1371912e-06
1.4606998e-06
-3.2854746e-06
1.4679696e-06