/*--------------------------------*- C++ -*----------------------------------*\
| =========                 |                                                 |
| \\      /  F ield         | OpenFOAM: The Open Source CFD Toolbox           |
|  \\    /   O peration     | Version:  2306                                  |
|   \\  /    A nd           | Website:  www.openfoam.com                      |
|    \\/     M anipulation  |                                                 |
\*---------------------------------------------------------------------------*/
FoamFile
{
    version     2.0;
    format      ascii;
    arch        "LSB;label=32;scalar=64";
    class       surfaceScalarField;
    location    "0.49";
    object      phi_0;
}
// * * * * * * * * * * * * * * * * * * * * * * * * * * * * * * * * * * * * * //

dimensions      [0 3 -1 0 0 0 0];

oriented        oriented;

internalField   nonuniform List<scalar> 
12640
(
1.295254e-09
-1.295254e-09
5.1682185e-09
-3.8729646e-09
1.1462288e-08
-6.2940697e-09
2.00722e-08
-8.6099117e-09
3.0923059e-08
-1.0850859e-08
4.3960992e-08
-1.3037933e-08
5.9136511e-08
-1.5175519e-08
7.6389872e-08
-1.7253361e-08
9.5648787e-08
-1.9258915e-08
1.1682847e-07
-2.1179686e-08
1.3983284e-07
-2.3004369e-08
1.6455546e-07
-2.4722614e-08
1.9088098e-07
-2.6325522e-08
2.1868594e-07
-2.7804964e-08
2.4783982e-07
-2.9153878e-08
2.7820657e-07
-3.0366751e-08
3.0964433e-07
-3.1437761e-08
3.4200674e-07
-3.2362402e-08
3.7514369e-07
-3.3136952e-08
4.0890316e-07
-3.3759475e-08
4.4313182e-07
-3.4228658e-08
4.7767331e-07
-3.4541493e-08
5.1237381e-07
-3.470049e-08
5.4707771e-07
-3.4703904e-08
5.81633e-07
-3.4555294e-08
6.1588831e-07
-3.4255311e-08
6.4969617e-07
-3.3807863e-08
6.8291083e-07
-3.3214654e-08
7.1539639e-07
-3.2485561e-08
7.4701629e-07
-3.1619903e-08
7.7764337e-07
-3.0627081e-08
8.0715605e-07
-2.9512678e-08
8.3543784e-07
-2.8281786e-08
8.6238565e-07
-2.6947808e-08
8.8788969e-07
-2.5504047e-08
9.1187283e-07
-2.3983133e-08
9.3427769e-07
-2.240486e-08
9.5500249e-07
-2.0724804e-08
9.7397609e-07
-1.8973592e-08
9.9111655e-07
-1.7140459e-08
1.0063859e-06
-1.5269361e-08
1.0197601e-06
-1.3374152e-08
1.0311997e-06
-1.1439684e-08
1.0407093e-06
-9.5095383e-09
1.0482598e-06
-7.5505133e-09
1.0538275e-06
-5.5676982e-09
1.0574401e-06
-3.6126532e-09
1.0590853e-06
-1.6451545e-09
1.0587462e-06
3.3908087e-10
1.0565944e-06
2.1517978e-09
1.0526013e-06
3.9931295e-09
1.0468023e-06
5.79902e-09
1.0392518e-06
7.5504875e-09
1.030004e-06
9.2477505e-09
1.0191181e-06
1.0885932e-08
1.0066638e-06
1.2454325e-08
9.9270866e-07
1.3955128e-08
9.7733234e-07
1.5376314e-08
9.6061402e-07
1.6718319e-08
9.4262339e-07
1.7990628e-08
9.2345748e-07
1.916591e-08
9.0320108e-07
2.0256392e-08
8.8194208e-07
2.1259002e-08
8.5977041e-07
2.2171674e-08
8.3675188e-07
2.3018533e-08
8.1300532e-07
2.3746552e-08
7.8860728e-07
2.4398047e-08
7.6362206e-07
2.4985209e-08
7.3817073e-07
2.5451338e-08
7.1232809e-07
2.584264e-08
6.861735e-07
2.6154593e-08
6.5978865e-07
2.6384841e-08
6.3324822e-07
2.654043e-08
6.0662575e-07
2.662247e-08
5.7999358e-07
2.6632176e-08
5.5342002e-07
2.6573561e-08
5.2696944e-07
2.6450578e-08
5.0070369e-07
2.6265753e-08
4.7468625e-07
2.6017444e-08
2.5721359e-08
1.9249156e-09
-3.2201696e-09
7.4947961e-09
-9.4428451e-09
1.6533338e-08
-1.5332612e-08
2.882495e-08
-2.0901524e-08
4.423172e-08
-2.6257629e-08
6.2653701e-08
-3.1459914e-08
8.3990331e-08
-3.6512149e-08
1.0812923e-07
-4.1392257e-08
1.3493938e-07
-4.6069066e-08
1.6426956e-07
-5.0509872e-08
1.9594963e-07
-5.4684435e-08
2.2979164e-07
-5.8564628e-08
2.6559214e-07
-6.2126019e-08
3.0313356e-07
-6.5346381e-08
3.4218797e-07
-6.8208289e-08
3.8251673e-07
-7.0695515e-08
4.2387313e-07
-7.2794159e-08
4.6600319e-07
-7.4492465e-08
5.0864911e-07
-7.5782867e-08
5.5154898e-07
-7.6659343e-08
5.9444158e-07
-7.7121266e-08
6.3706137e-07
-7.7161283e-08
6.7915004e-07
-7.6789155e-08
7.2044752e-07
-7.6001384e-08
7.6070236e-07
-7.4810133e-08
7.9966893e-07
-7.3221883e-08
8.3710971e-07
-7.1248635e-08
8.7279063e-07
-6.8895581e-08
9.0649822e-07
-6.6193156e-08
9.380194e-07
-6.3141076e-08
9.6716431e-07
-5.977199e-08
9.9374412e-07
-5.6092491e-08
1.0176007e-06
-5.2138343e-08
1.0385803e-06
-4.7927455e-08
1.0565404e-06
-4.3464134e-08
1.0713664e-06
-3.8809146e-08
1.0829203e-06
-3.3958747e-08
1.0911478e-06
-2.89523e-08
1.0960199e-06
-2.3845692e-08
1.0973978e-06
-1.8518319e-08
1.0952857e-06
-1.3157334e-08
1.0896878e-06
-7.7761844e-09
1.0806594e-06
-2.4112597e-09
1.0681007e-06
3.049167e-09
1.0520473e-06
8.5028624e-09
1.0325802e-06
1.3899356e-08
1.0097794e-06
1.9188178e-08
9.8374601e-07
2.4388226e-08
9.5458753e-07
2.9497555e-08
9.222925e-07
3.4446824e-08
8.8704003e-07
3.9245604e-08
8.4895033e-07
4.3888722e-08
8.081947e-07
4.8306114e-08
7.6491521e-07
5.2527244e-08
7.1926938e-07
5.6531772e-08
6.7140758e-07
6.031613e-08
6.2150971e-07
6.3853e-08
5.6973842e-07
6.7147604e-08
5.1627313e-07
7.0183603e-08
4.6132804e-07
7.2935728e-08
4.0505139e-07
7.5442556e-08
3.4763228e-07
7.7675502e-08
2.8925012e-07
7.9641169e-08
2.300862e-07
8.1335588e-08
1.7038855e-07
8.2716187e-08
1.1025347e-07
8.3881633e-08
4.9883872e-08
8.4767648e-08
-1.0496711e-08
8.5365794e-08
-7.0796952e-08
8.5751578e-08
-1.3084136e-07
8.5887051e-08
-1.9046689e-07
8.578012e-08
-2.4952167e-07
8.5439623e-08
-3.0786139e-07
8.4880152e-08
-3.6534963e-07
8.4110702e-08
-4.2185793e-07
8.3140478e-08
-4.7726544e-07
8.1981064e-08
-5.3145901e-07
8.0644142e-08
-5.8433376e-07
7.9140511e-08
-6.3579416e-07
7.7477843e-08
7.5676758e-08
1.6260017e-09
-4.8461713e-09
6.351764e-09
-1.4168607e-08
1.4044547e-08
-2.3025395e-08
2.4520849e-08
-3.1377825e-08
3.7637512e-08
-3.9374293e-08
5.3267918e-08
-4.709032e-08
7.1284196e-08
-5.4528428e-08
9.1548345e-08
-6.1656405e-08
1.1390579e-07
-6.8426515e-08
1.3818334e-07
-7.4787421e-08
1.6418973e-07
-8.0690823e-08
1.9171553e-07
-8.6090424e-08
2.205358e-07
-9.0946294e-08
2.5041032e-07
-9.52209e-08
2.8109106e-07
-9.8889025e-08
3.123153e-07
-1.0191976e-07
3.4381473e-07
-1.0429358e-07
3.7531266e-07
-1.0599039e-07
4.0653547e-07
-1.0700569e-07
4.3719591e-07
-1.0731978e-07
4.6701738e-07
-1.0694273e-07
4.9572637e-07
-1.0587027e-07
5.2304373e-07
-1.0410652e-07
5.486975e-07
-1.0165515e-07
5.7243345e-07
-9.8546092e-08
5.9399205e-07
-9.4780478e-08
6.131416e-07
-9.0398184e-08
6.2963092e-07
-8.5384905e-08
6.4326321e-07
-7.982544e-08
6.5381878e-07
-7.3696655e-08
6.6112771e-07
-6.7080919e-08
6.6500664e-07
-5.9971417e-08
6.6533016e-07
-5.2461868e-08
6.6195054e-07
-4.4547835e-08
6.5476197e-07
-3.6275558e-08
6.4367208e-07
-2.7719263e-08
6.2860631e-07
-1.8892969e-08
6.0950306e-07
-9.8490487e-09
5.8652316e-07
-8.6579888e-10
5.5923378e-07
8.7710628e-09
5.2787594e-07
1.8200507e-08
4.9246306e-07
2.7636692e-08
4.5303686e-07
3.7014939e-08
4.0973226e-07
4.6353767e-08
3.6263358e-07
5.5601549e-08
3.1186518e-07
6.4667753e-08
2.5747416e-07
7.3579191e-08
1.9961152e-07
8.225087e-08
1.3848867e-07
9.0620401e-08
7.4226523e-08
9.8708979e-08
7.0297329e-09
1.0644239e-07
-6.2892471e-08
1.1381092e-07
-1.3540996e-07
1.208236e-07
-2.1028875e-07
1.2740603e-07
-2.873016e-07
1.3354461e-07
-3.6621869e-07
1.3923322e-07
-4.4680866e-07
1.4444298e-07
-5.288348e-07
1.4917374e-07
-6.1206024e-07
1.5340904e-07
-6.9625297e-07
1.5712846e-07
-7.8116717e-07
1.6035677e-07
-8.665662e-07
1.6307453e-07
-9.5221178e-07
1.6528675e-07
-1.0378701e-06
1.6699393e-07
-1.123341e-06
1.681871e-07
-1.2083678e-06
1.689084e-07
-1.2927445e-06
1.6914432e-07
-1.3762844e-06
1.6890569e-07
-1.4587551e-06
1.6822227e-07
-1.5399691e-06
1.6710109e-07
-1.619745e-06
1.6555596e-07
-1.6979095e-06
1.6360413e-07
-1.774296e-06
1.6126669e-07
-1.8487487e-06
1.5856336e-07
-1.9211225e-06
1.5551435e-07
-1.9912827e-06
1.5214127e-07
-2.0591047e-06
1.4846608e-07
-2.1244746e-06
1.4451046e-07
-2.1872923e-06
1.4029554e-07
1.3584672e-07
1.0909418e-09
-5.9371132e-09
4.352244e-09
-1.742991e-08
9.720064e-09
-2.8393215e-08
1.7093602e-08
-3.8751363e-08
2.6352679e-08
-4.863337e-08
3.7361739e-08
-5.809938e-08
4.9979008e-08
-6.7145696e-08
6.4052907e-08
-7.5730305e-08
7.9418433e-08
-8.3792042e-08
9.5897052e-08
-9.126604e-08
1.1329457e-07
-9.8088338e-08
1.314017e-07
-1.0419756e-07
1.4999675e-07
-1.0954134e-07
1.6884291e-07
-1.1406705e-07
1.8769635e-07
-1.1774247e-07
2.0630364e-07
-1.2052705e-07
2.2440391e-07
-1.2239385e-07
2.4172563e-07
-1.2331212e-07
2.5800294e-07
-1.2328299e-07
2.7297492e-07
-1.2229176e-07
2.8637087e-07
-1.2033868e-07
2.9791895e-07
-1.1741836e-07
3.073756e-07
-1.1356317e-07
3.1446981e-07
-1.0874935e-07
3.1896077e-07
-1.0303706e-07
3.2064888e-07
-9.646859e-08
3.1929992e-07
-8.9049218e-08
3.1469975e-07
-8.0784739e-08
3.0667865e-07
-7.180434e-08
2.9499809e-07
-6.20161e-08
2.7954356e-07
-5.1626382e-08
2.6023564e-07
-4.0663501e-08
2.3688933e-07
-2.9115565e-08
2.0942415e-07
-1.7082653e-08
1.7778784e-07
-4.6392473e-09
1.4184502e-07
8.2235521e-09
1.0164272e-07
2.1309339e-08
5.7243083e-08
3.4550585e-08
8.3532963e-09
4.8023989e-08
-4.4542778e-08
6.1667137e-08
-1.0166833e-07
7.5326058e-08
-1.6293403e-07
8.8902394e-08
-2.2825614e-07
1.0233705e-07
-2.9750033e-07
1.1559796e-07
-3.7051626e-07
1.2861748e-07
-4.4717303e-07
1.4132453e-07
-5.2727685e-07
1.53683e-07
-6.1064718e-07
1.6562121e-07
-6.9710637e-07
1.7707959e-07
-7.8642488e-07
1.8802748e-07
-8.7839272e-07
1.9841023e-07
-9.7277767e-07
2.0819588e-07
-1.0693095e-06
2.1735547e-07
-1.1677487e-06
2.2584516e-07
-1.2678409e-06
2.3363684e-07
-1.3693188e-06
2.4071115e-07
-1.4719201e-06
2.4704422e-07
-1.5753717e-06
2.526254e-07
-1.6794038e-06
2.5744112e-07
-1.7837559e-06
2.614806e-07
-1.8881508e-06
2.647516e-07
-1.9923262e-06
2.6724991e-07
-2.0960204e-06
2.6898098e-07
-2.1989783e-06
2.6995181e-07
-2.300962e-06
2.701708e-07
-2.4017169e-06
2.6966333e-07
-2.501014e-06
2.6844138e-07
-2.5986337e-06
2.6652542e-07
-2.6943542e-06
2.6394273e-07
-2.7879706e-06
2.6071749e-07
-2.8792902e-06
2.568756e-07
-2.9681317e-06
2.5244567e-07
-3.054324e-06
2.47459e-07
-3.137708e-06
2.4194732e-07
-3.2181369e-06
2.3594324e-07
-3.295476e-06
2.2948036e-07
-3.3696026e-06
2.2259273e-07
-3.4404067e-06
2.153145e-07
-3.5077909e-06
2.0767979e-07
1.9972391e-07
6.5475556e-10
-6.5918688e-09
2.681366e-09
-1.945652e-08
6.0874097e-09
-3.1799259e-08
1.0841341e-08
-4.3505295e-08
1.6850609e-08
-5.4642637e-08
2.398597e-08
-6.523474e-08
3.2099808e-08
-7.5259534e-08
4.1037645e-08
-8.4668142e-08
5.0628262e-08
-9.3382658e-08
6.0691457e-08
-1.0132924e-07
7.1037031e-08
-1.0843391e-07
8.1455087e-08
-1.1461562e-07
9.1727748e-08
-1.1981401e-07
1.0164299e-07
-1.239823e-07
1.1095063e-07
-1.270501e-07
1.1941033e-07
-1.2898675e-07
1.2677042e-07
-1.2975395e-07
1.3280558e-07
-1.2934728e-07
1.3721585e-07
-1.2769326e-07
1.3977485e-07
-1.2485076e-07
1.4021981e-07
-1.2078365e-07
1.3832972e-07
-1.1552827e-07
1.3382982e-07
-1.0906327e-07
1.2655018e-07
-1.0146971e-07
1.1618099e-07
-9.2667869e-08
1.0257443e-07
-8.2862027e-08
8.5481089e-08
-7.1955877e-08
6.4837943e-08
-6.0141592e-08
4.0334538e-08
-4.7300936e-08
1.2030376e-08
-3.3711939e-08
-2.0354447e-08
-1.9241557e-08
-5.6963511e-08
-4.0544358e-09
-9.7827113e-08
1.1748042e-08
-1.4303455e-07
2.8124782e-08
-1.9263598e-07
4.4962185e-08
-2.4660848e-07
6.2196042e-08
-3.0499874e-07
7.9699603e-08
-3.6783651e-07
9.7388352e-08
-4.3502881e-07
1.1521629e-07
-5.0645977e-07
1.330981e-07
-5.8205233e-07
1.5091861e-07
-6.6172402e-07
1.6857409e-07
-7.4536148e-07
1.8597451e-07
-8.3281264e-07
2.0304911e-07
-9.2390904e-07
2.1971388e-07
-1.0184726e-06
2.3588813e-07
-1.1162961e-06
2.5150643e-07
-1.217167e-06
2.6649217e-07
-1.3208647e-06
2.8077726e-07
-1.427144e-06
2.9430682e-07
-1.5357572e-06
3.070234e-07
-1.6464414e-06
3.1888002e-07
-1.7589198e-06
3.2983391e-07
-1.872918e-06
3.3984331e-07
-1.9881557e-06
3.4887455e-07
-2.1043457e-06
3.5690114e-07
-2.2212017e-06
3.6390025e-07
-2.3384333e-06
3.6985696e-07
-2.4557523e-06
3.7476015e-07
-2.5728758e-06
3.7860417e-07
-2.6895167e-06
3.8139243e-07
-2.8053962e-06
3.8312945e-07
-2.9202409e-06
3.8382564e-07
-3.0337846e-06
3.8349558e-07
-3.1457721e-06
3.8215829e-07
-3.2559493e-06
3.7984047e-07
-3.3640764e-06
3.765685e-07
-3.4699244e-06
3.7237341e-07
-3.5732721e-06
3.6729048e-07
-3.6739113e-06
3.6135664e-07
-3.7716465e-06
3.546108e-07
-3.8662951e-06
3.4709428e-07
-3.9576867e-06
3.3885063e-07
-4.0456641e-06
3.299247e-07
-4.1300832e-06
3.2036236e-07
-4.2108132e-06
3.1021038e-07
-4.2877365e-06
2.9951602e-07
-4.3607487e-06
2.8832666e-07
-4.4297585e-06
2.7668964e-07
2.6465245e-07
3.9206463e-10
-6.9839333e-09
1.6491702e-09
-2.0713626e-08
3.8128501e-09
-3.3962939e-08
6.8886077e-09
-4.6581052e-08
1.0807685e-08
-5.8561714e-08
1.5450486e-08
-6.9877541e-08
2.0676704e-08
-8.0485752e-08
2.6326353e-08
-9.0317792e-08
3.2230349e-08
-9.9286653e-08
3.8205833e-08
-1.0730472e-07
4.4058707e-08
-1.1428679e-07
4.9595145e-08
-1.2015205e-07
5.4598997e-08
-1.2481786e-07
5.883745e-08
-1.2822075e-07
6.2090973e-08
-1.3030362e-07
6.4117511e-08
-1.3101329e-07
6.4674046e-08
-1.3031048e-07
6.3501498e-08
-1.2817473e-07
6.0413211e-08
-1.2460497e-07
5.5091837e-08
-1.1952938e-07
4.7342249e-08
-1.1303406e-07
3.691247e-08
-1.0509849e-07
2.36047e-08
-9.5755501e-08
7.1557461e-09
-8.5020757e-08
-1.2530878e-08
-7.2981244e-08
-3.5781353e-08
-5.9611552e-08
-6.2720678e-08
-4.5016552e-08
-9.3567526e-08
-2.9294741e-08
-1.284098e-07
-1.2458666e-08
-1.6741529e-07
5.2935574e-09
-2.1066105e-07
2.4004197e-08
-2.5824574e-07
4.353026e-08
-3.1025861e-07
6.376091e-08
-3.667322e-07
8.4598379e-08
-4.2770005e-07
1.0593003e-07
-4.9315548e-07
1.2765147e-07
-5.6309563e-07
1.4963975e-07
-6.3749359e-07
1.7178632e-07
-7.1627121e-07
1.9399391e-07
-7.9932439e-07
2.1615127e-07
-8.8654446e-07
2.3813869e-07
-9.7781035e-07
2.5983998e-07
-1.0729816e-06
2.8114577e-07
-1.1718885e-06
3.0195603e-07
-1.2743453e-06
3.2217067e-07
-1.3801512e-06
3.4169406e-07
-1.4890833e-06
3.6043847e-07
-1.6009084e-06
3.7831725e-07
-1.7153819e-06
3.9525075e-07
-1.8322432e-06
4.1116822e-07
-1.9512235e-06
4.2600363e-07
-2.0720425e-06
4.3969909e-07
-2.1944117e-06
4.5220307e-07
-2.3180384e-06
4.6346996e-07
-2.4426256e-06
4.7346184e-07
-2.5678731e-06
4.8214855e-07
-2.6934794e-06
4.8950662e-07
-2.8191428e-06
4.9552038e-07
-2.9445634e-06
5.0018073e-07
-3.0694448e-06
5.0348558e-07
-3.1934929e-06
5.0544052e-07
-3.3164199e-06
5.0605647e-07
-3.4379448e-06
5.0535048e-07
-3.5577945e-06
5.0334531e-07
-3.6757056e-06
5.0006933e-07
-3.791422e-06
4.9555695e-07
-3.9046997e-06
4.8984616e-07
-4.0153057e-06
4.8297937e-07
-4.1230183e-06
4.7500307e-07
-4.2276285e-06
4.6596685e-07
-4.3289406e-06
4.5592296e-07
-4.4267726e-06
4.4492623e-07
-4.5209556e-06
4.3303368e-07
-4.6113349e-06
4.2030398e-07
-4.6977695e-06
4.0679695e-07
-4.7801324e-06
3.9257329e-07
-4.8583105e-06
3.7769411e-07
-4.9322045e-06
3.6222063e-07
-5.0017286e-06
3.462138e-07
3.2973417e-07
2.7609928e-10
-7.2600326e-09
1.1720218e-09
-2.1609548e-08
2.7325649e-09
-3.5523482e-08
4.9718247e-09
-4.8820312e-08
7.83118e-09
-6.1421069e-08
1.120575e-08
-7.325211e-08
1.4960795e-08
-8.4240799e-08
1.8933776e-08
-9.4290773e-08
2.296006e-08
-1.0331294e-07
2.6856399e-08
-1.1120106e-07
3.0427534e-08
-1.1785792e-07
3.34663e-08
-1.2319082e-07
3.5757985e-08
-1.2710954e-07
3.7082717e-08
-1.2954548e-07
3.7202865e-08
-1.3042377e-07
3.589128e-08
-1.297017e-07
3.2927388e-08
-1.2734659e-07
2.8020397e-08
-1.2326774e-07
2.0945285e-08
-1.1752986e-07
1.1503e-08
-1.100871e-07
-5.7190746e-10
-1.0095915e-07
-1.5513102e-08
-9.015729e-08
-3.355167e-08
-7.7716934e-08
-5.4903649e-08
-6.3668778e-08
-7.9777824e-08
-4.8107067e-08
-1.0834419e-07
-3.1045183e-08
-1.407807e-07
-1.2580043e-08
-1.7723597e-07
7.160524e-09
-2.1784148e-07
2.8146844e-08
-2.6277922e-07
5.0231297e-08
-3.1210786e-07
7.3332843e-08
-3.6590724e-07
9.7329642e-08
-4.242427e-07
1.2209637e-07
-4.8715091e-07
1.4750659e-07
-5.546497e-07
1.7342881e-07
-6.2672918e-07
1.9973095e-07
-7.0336488e-07
2.2627545e-07
-7.8450732e-07
2.5292876e-07
-8.70074e-07
2.7956059e-07
-9.5995938e-07
3.0603667e-07
-1.0540415e-06
3.3222077e-07
-1.1521807e-06
3.5797916e-07
-1.2542179e-06
3.8318302e-07
-1.3599718e-06
4.0770991e-07
-1.4692427e-06
4.3144161e-07
-1.5818143e-06
4.5426566e-07
-1.6974524e-06
4.7607653e-07
-1.8159094e-06
4.9677432e-07
-1.9369254e-06
5.1626673e-07
-2.0602273e-06
5.344701e-07
-2.1855321e-06
5.5130843e-07
-2.3125475e-06
5.6671447e-07
-2.4409737e-06
5.8062924e-07
-2.5705058e-06
5.9300213e-07
-2.7008354e-06
6.0379146e-07
-2.8316514e-06
6.1296451e-07
-2.962642e-06
6.2049721e-07
-3.093496e-06
6.2637438e-07
-3.2239045e-06
6.3058921e-07
-3.3535622e-06
6.3314333e-07
-3.4821683e-06
6.3404665e-07
-3.6094283e-06
6.3331643e-07
-3.7350551e-06
6.3097722e-07
-3.8587702e-06
6.2706045e-07
-3.9803049e-06
6.216041e-07
-4.0994004e-06
6.1465245e-07
-4.2158093e-06
6.0625501e-07
-4.3292962e-06
5.9646623e-07
-4.4396382e-06
5.8534508e-07
-4.5466257e-06
5.7295437e-07
-4.6500629e-06
5.5936017e-07
-4.749768e-06
5.4463138e-07
-4.8455736e-06
5.2883929e-07
-4.9373266e-06
5.1205693e-07
-5.0248883e-06
4.9435869e-07
-5.1081348e-06
4.7581973e-07
-5.1869563e-06
4.5651557e-07
-5.2612573e-06
4.3652168e-07
-5.3309565e-06
4.15913e-07
3.9476372e-07
2.557222e-10
-7.5157548e-09
1.0682694e-09
-2.2422095e-08
2.4684231e-09
-3.6923636e-08
4.4620728e-09
-5.0813961e-08
6.9914359e-09
-6.3950433e-08
9.9604928e-09
-7.6221167e-08
1.3235152e-08
-8.7515457e-08
1.6662635e-08
-9.7718257e-08
2.0070361e-08
-1.0672066e-07
2.3275099e-08
-1.144058e-07
2.6076139e-08
-1.2065896e-07
2.8265838e-08
-1.2538052e-07
2.9617098e-08
-1.284608e-07
2.9913756e-08
-1.2984214e-07
2.8919084e-08
-1.294291e-07
2.6381833e-08
-1.2716445e-07
2.2046898e-08
-1.2301166e-07
1.5725519e-08
-1.1694636e-07
7.1313851e-09
-1.0893573e-07
-3.982357e-09
-9.8973358e-08
-1.7864711e-08
-8.7076795e-08
-3.4740924e-08
-7.328108e-08
-5.4839121e-08
-5.7618738e-08
-7.8365307e-08
-4.0142594e-08
-1.0554627e-07
-2.0926104e-08
-1.3654538e-07
-4.6071576e-11
-1.7153357e-07
2.2408144e-08
-2.106974e-07
4.6324357e-08
-2.5415367e-07
7.1603113e-08
-3.0203787e-07
9.8115501e-08
-3.5444232e-07
1.2573729e-07
-4.1144325e-07
1.5433058e-07
-4.7309732e-07
1.8375044e-07
-5.3943783e-07
2.138471e-07
-6.1047553e-07
2.4446651e-07
-6.8619677e-07
2.7545219e-07
-7.665664e-07
3.0664508e-07
-8.5152455e-07
3.378869e-07
-9.4098446e-07
3.690205e-07
-1.0348361e-06
3.9988831e-07
-1.1329489e-06
4.3033354e-07
-1.2351721e-06
4.602024e-07
-1.341335e-06
4.893459e-07
-1.4512461e-06
5.1762103e-07
-1.5646953e-06
5.4489085e-07
-1.6814551e-06
5.7102538e-07
-1.8012809e-06
5.9590241e-07
-1.9239143e-06
6.1940766e-07
-2.0490833e-06
6.4143573e-07
-2.176504e-06
6.6189079e-07
-2.3058822e-06
6.8068667e-07
-2.436915e-06
6.9774724e-07
-2.5692923e-06
7.1300655e-07
-2.702699e-06
7.2640882e-07
-2.8368164e-06
7.3790883e-07
-2.9713237e-06
7.4747184e-07
-3.1058999e-06
7.5507343e-07
-3.2402251e-06
7.6069955e-07
-3.373982e-06
7.643461e-07
-3.5068575e-06
7.6601882e-07
-3.6385437e-06
7.6573291e-07
-3.7687397e-06
7.6351247e-07
-3.8971526e-06
7.5939011e-07
-4.0234986e-06
7.5340645e-07
-4.1475042e-06
7.4560969e-07
-4.2689068e-06
7.3605503e-07
-4.3874557e-06
7.2480393e-07
-4.5029131e-06
7.1192357e-07
-4.6150542e-06
6.9748618e-07
-4.7236683e-06
6.8156844e-07
-4.8285588e-06
6.6425073e-07
-4.9295441e-06
6.4561664e-07
-5.0264571e-06
6.2575231e-07
-5.1191459e-06
6.0474575e-07
-5.2074736e-06
5.8268639e-07
-5.2913183e-06
5.5966439e-07
-5.3705728e-06
5.3577015e-07
-5.4451449e-06
5.1109377e-07
-5.5149566e-06
4.8572465e-07
4.597509e-07
2.8921869e-10
-7.8049735e-09
1.1823396e-09
-2.3315216e-08
2.6913905e-09
-3.8432687e-08
4.8051663e-09
-5.2927737e-08
7.4666352e-09
-6.6611902e-08
1.0572175e-08
-7.9326707e-08
1.3994869e-08
-9.0938152e-08
1.7582357e-08
-1.0130574e-07
2.1159257e-08
-1.1029756e-07
2.453479e-08
-1.1778133e-07
2.7506693e-08
-1.2363086e-07
2.9853697e-08
-1.2772752e-07
3.1367344e-08
-1.2997445e-07
3.1791182e-08
-1.3026598e-07
3.0890833e-08
-1.2852875e-07
2.8408645e-08
-1.2468226e-07
2.4108748e-08
-1.1871176e-07
1.7713e-08
-1.1055061e-07
9.00149e-09
-1.0022421e-07
-2.3120254e-09
-8.7659841e-08
-1.6470088e-08
-7.2918733e-08
-3.3707232e-08
-5.6043934e-08
-5.4263208e-08
-3.7062763e-08
-7.8359232e-08
-1.6046569e-08
-1.0620583e-07
6.9204904e-09
-1.3799105e-07
3.1739152e-08
-1.7389225e-07
5.8309345e-08
-2.140779e-07
8.6510003e-08
-2.5868729e-07
1.1621251e-07
-3.0784575e-07
1.4727396e-07
-3.6165289e-07
1.7954442e-07
-4.2018649e-07
2.1286418e-07
-4.8350196e-07
2.4706591e-07
-5.5163123e-07
2.8197637e-07
-6.2458235e-07
3.1741763e-07
-7.0233886e-07
3.532087e-07
-7.8486028e-07
3.891665e-07
-8.7208115e-07
4.2510778e-07
-9.6391062e-07
4.6084996e-07
-1.0602339e-06
4.9621158e-07
-1.1609137e-06
5.310134e-07
-1.2657914e-06
5.6508006e-07
-1.374687e-06
5.9824152e-07
-1.4874003e-06
6.303343e-07
-1.6037117e-06
6.6120223e-07
-1.7233837e-06
6.906974e-07
-1.8461622e-06
7.1868092e-07
-1.9717781e-06
7.4502353e-07
-2.0999487e-06
7.696064e-07
-2.2303796e-06
7.9232168e-07
-2.3627658e-06
8.1307287e-07
-2.4967938e-06
8.317752e-07
-2.632143e-06
8.4835581e-07
-2.7684881e-06
8.6275388e-07
-2.9055001e-06
8.7492079e-07
-3.0428483e-06
8.8482008e-07
-3.1802022e-06
8.9242736e-07
-3.3172328e-06
8.9773009e-07
-3.453614e-06
9.0072732e-07
-3.5890246e-06
9.014294e-07
-3.7231492e-06
8.998575e-07
-3.8556798e-06
8.9604309e-07
-3.9863171e-06
8.9002742e-07
-4.1147716e-06
8.8186093e-07
-4.2407645e-06
8.7160263e-07
-4.3640289e-06
8.5931945e-07
-4.4843104e-06
8.4508546e-07
-4.6013681e-06
8.289812e-07
-4.7149748e-06
8.110929e-07
-4.8249181e-06
7.9151174e-07
-4.9310004e-06
7.7033308e-07
-5.0330396e-06
7.4765578e-07
-5.1308687e-06
7.2358141e-07
-5.2243366e-06
6.9821362e-07
-5.3133075e-06
6.7165738e-07
-5.3976615e-06
6.4401837e-07
-5.4772937e-06
6.1540235e-07
-5.5521145e-06
5.8591455e-07
-5.622049e-06
5.5565912e-07
5.2473861e-07
3.5090564e-10
-8.1558792e-09
1.4147015e-09
-2.4379012e-08
3.1857161e-09
-4.0203701e-08
5.6362364e-09
-5.5378258e-08
8.6984012e-09
-6.9674066e-08
1.2272053e-08
-8.2900359e-08
1.6225211e-08
-9.4891311e-08
2.0400913e-08
-1.0548144e-07
2.4620956e-08
-1.1451761e-07
2.8688746e-08
-1.2184912e-07
3.2397942e-08
-1.2734006e-07
3.5518574e-08
-1.3084816e-07
3.7812979e-08
-1.3226885e-07
3.903816e-08
-1.3149116e-07
3.8927593e-08
-1.2841818e-07
3.7258434e-08
-1.2301311e-07
3.3716573e-08
-1.151699e-07
2.8078154e-08
-1.0491219e-07
2.0022593e-08
-9.216865e-08
9.3682737e-09
-7.7005521e-08
-4.1826049e-09
-5.9367855e-08
-2.0900654e-08
-3.9325887e-08
-4.1035566e-08
-1.692785e-08
-6.4820216e-08
7.7380808e-09
-9.2451783e-08
3.4552056e-08
-1.2413511e-07
6.342248e-08
-1.6005714e-07
9.4231375e-08
-2.0038834e-07
1.268412e-07
-2.4527693e-07
1.611011e-07
-2.9485063e-07
1.9684766e-07
-3.4921365e-07
2.3390744e-07
-4.0844683e-07
2.7209736e-07
-4.7260712e-07
3.112262e-07
-5.4172684e-07
3.5109609e-07
-6.1581328e-07
3.9150407e-07
-6.9484826e-07
4.3224368e-07
-7.7878813e-07
4.7310638e-07
-8.6756358e-07
5.1388322e-07
-9.6107965e-07
5.5436604e-07
-1.0592167e-06
5.9434862e-07
-1.1618313e-06
6.3362801e-07
-1.2687573e-06
6.7200604e-07
-1.3798065e-06
7.0929072e-07
-1.4947697e-06
7.4529754e-07
-1.613418e-06
7.7985053e-07
-1.7355039e-06
8.1278329e-07
-1.8607629e-06
8.4393991e-07
-1.9889151e-06
8.7317571e-07
-2.1196667e-06
9.0035805e-07
-2.252712e-06
9.2536691e-07
-2.3877345e-06
9.4809538e-07
-2.5244093e-06
9.6845006e-07
-2.6624048e-06
9.8635123e-07
-2.801384e-06
1.0017331e-06
-2.9410071e-06
1.0145439e-06
-3.0809327e-06
1.0247457e-06
-3.2208196e-06
1.0323143e-06
-3.3603289e-06
1.0372394e-06
-3.499125e-06
1.0395234e-06
-3.6368775e-06
1.0391819e-06
-3.7732627e-06
1.0362427e-06
-3.9079647e-06
1.0307451e-06
-4.0406771e-06
1.0227398e-06
-4.1711039e-06
1.0122877e-06
-4.2989605e-06
9.9945925e-07
-4.423975e-06
9.843339e-07
-4.5458886e-06
9.669991e-07
-4.6644569e-06
9.4754947e-07
-4.77945e-06
9.2608597e-07
-4.8906532e-06
9.0271502e-07
-4.9978678e-06
8.7754764e-07
-5.1009107e-06
8.5069867e-07
-5.1996151e-06
8.2228578e-07
-5.2938303e-06
7.9242884e-07
-5.3834219e-06
7.6124901e-07
-5.4682716e-06
7.2886808e-07
-5.5482769e-06
6.9540763e-07
-5.6233509e-06
6.6098854e-07
-5.6934219e-06
6.2573015e-07
5.8974985e-07
4.2751891e-10
-8.5833981e-09
1.7117728e-09
-2.5663266e-08
3.8329446e-09
-4.2324873e-08
6.7497421e-09
-5.8295055e-08
1.0384196e-08
-7.330852e-08
1.4631338e-08
-8.71475e-08
1.9350535e-08
-9.9610508e-08
2.4381662e-08
-1.1051257e-07
2.9545197e-08
-1.1968114e-07
3.4628899e-08
-1.2693282e-07
3.9422854e-08
-1.3213402e-07
4.3683586e-08
-1.3510889e-07
4.7161314e-08
-1.3574658e-07
4.9601184e-08
-1.3393103e-07
5.0738159e-08
-1.2955516e-07
5.0288041e-08
-1.2256299e-07
4.7998611e-08
-1.1288047e-07
4.3561097e-08
-1.0047468e-07
3.6711796e-08
-8.5319351e-08
2.7147173e-08
-6.7440897e-08
1.4614704e-08
-4.6835387e-08
-1.1016962e-09
-2.3609484e-08
-2.0340051e-08
2.3105037e-09
-4.3324312e-08
3.0722343e-08
-7.0272943e-08
6.1500686e-08
-1.0139344e-07
9.4542981e-08
-1.3688427e-07
1.297222e-07
-1.7692392e-07
1.6688086e-07
-2.2166815e-07
2.0584533e-07
-2.7125012e-07
2.4642963e-07
-3.2577923e-07
2.8843655e-07
-3.8534035e-07
3.3165848e-07
-4.4999307e-07
3.7587892e-07
-5.1977112e-07
4.2087413e-07
-5.9468183e-07
4.6641479e-07
-6.7470589e-07
5.1226774e-07
-7.5979722e-07
5.5819771e-07
-8.4988298e-07
6.0396897e-07
-9.4486389e-07
6.4934694e-07
-1.0446149e-06
6.9409962e-07
-1.148986e-06
7.3799915e-07
-1.2578034e-06
7.8082343e-07
-1.3708702e-06
8.2235752e-07
-1.4879677e-06
8.6239507e-07
-1.6088568e-06
9.007396e-07
-1.7332791e-06
9.3720558e-07
-1.8609587e-06
9.7161955e-07
-1.9916039e-06
1.0038209e-06
-2.1249088e-06
1.0336629e-06
-2.2605548e-06
1.061013e-06
-2.3982132e-06
1.0857537e-06
-2.5375462e-06
1.1077831e-06
-2.6782095e-06
1.1270145e-06
-2.8198538e-06
1.1433774e-06
-2.9621268e-06
1.1568169e-06
-3.1046751e-06
1.1672939e-06
-3.2471459e-06
1.1747851e-06
-3.3891889e-06
1.1792824e-06
-3.530458e-06
1.1807925e-06
-3.6706126e-06
1.1793365e-06
-3.8093196e-06
1.1749496e-06
-3.9462543e-06
1.1676799e-06
-4.0811023e-06
1.1575878e-06
-4.2135602e-06
1.1447457e-06
-4.3433372e-06
1.1292362e-06
-4.4701555e-06
1.1111522e-06
-4.5937518e-06
1.0905953e-06
-4.7138773e-06
1.067675e-06
-4.8302992e-06
1.0425079e-06
-4.9428006e-06
1.0152164e-06
-5.0511809e-06
9.8592796e-07
-5.1552564e-06
9.5477418e-07
-5.2548602e-06
9.2188961e-07
-5.3498424e-06
8.8741103e-07
-5.4400699e-06
8.5147645e-07
-5.5254262e-06
8.1422438e-07
-5.6058114e-06
7.7579287e-07
-5.6811418e-06
7.3631891e-07
-5.7513492e-06
6.9593759e-07
6.5478156e-07
5.1330623e-10
-9.0967044e-09
2.0501622e-09
-2.7200122e-08
4.5806572e-09
-4.4855368e-08
8.0512995e-09
-6.1765698e-08
1.2374976e-08
-7.7632197e-08
1.7436221e-08
-9.2208745e-08
2.3089895e-08
-1.0526418e-07
2.9170469e-08
-1.1659315e-07
3.5477248e-08
-1.2598792e-07
4.1806831e-08
-1.3326241e-07
4.7920668e-08
-1.3824785e-07
5.3573704e-08
-1.4076192e-07
5.8504703e-08
-1.4067758e-07
6.2436452e-08
-1.3786278e-07
6.5098154e-08
-1.3221686e-07
6.6180242e-08
-1.2364508e-07
6.5413959e-08
-1.1211419e-07
6.2480895e-08
-9.7541614e-08
5.7090987e-08
-7.9929444e-08
4.8965938e-08
-5.9315849e-08
3.7788336e-08
-3.5657783e-08
2.3275314e-08
-9.0964636e-09
5.1915608e-09
2.0394255e-08
-1.6640002e-08
5.2553905e-08
-4.2647313e-08
8.7507999e-08
-7.2954432e-08
1.248501e-07
-1.0777974e-07
1.6454751e-07
-1.4731188e-07
2.0641299e-07
-1.9171377e-07
2.5024723e-07
-2.4112506e-07
2.9584092e-07
-2.9566097e-07
3.4297246e-07
-3.5541104e-07
3.9140854e-07
-4.2043814e-07
4.4090602e-07
-4.9077782e-07
4.9121381e-07
-5.6643782e-07
5.4207479e-07
-6.4739779e-07
5.9322771e-07
-7.3360925e-07
6.4440916e-07
-8.2499567e-07
6.953554e-07
-9.2145292e-07
7.4580419e-07
-1.0228499e-06
7.9549656e-07
-1.1290292e-06
8.4417852e-07
-1.2398086e-06
8.9160279e-07
-1.3549815e-06
9.375304e-07
-1.4743187e-06
9.8173228e-07
-1.5975696e-06
1.0239905e-06
-1.7244639e-06
1.0640998e-06
-1.8547128e-06
1.1018685e-06
-1.9880113e-06
1.1371194e-06
-2.1240398e-06
1.1696913e-06
-2.2624659e-06
1.199439e-06
-2.4029464e-06
1.2262343e-06
-2.5451297e-06
1.2499663e-06
-2.6886569e-06
1.2705418e-06
-2.8331649e-06
1.2878854e-06
-2.9782874e-06
1.3019394e-06
-3.1236576e-06
1.3126641e-06
-3.2689096e-06
1.3200372e-06
-3.4136807e-06
1.3240535e-06
-3.5576126e-06
1.3247244e-06
-3.7003537e-06
1.3220776e-06
-3.8415601e-06
1.316156e-06
-3.9808976e-06
1.3070173e-06
-4.1180427e-06
1.2947329e-06
-4.252684e-06
1.279387e-06
-4.3845235e-06
1.2610757e-06
-4.5132772e-06
1.239906e-06
-4.6386765e-06
1.2159946e-06
-4.7604683e-06
1.1894669e-06
-4.8784163e-06
1.1604559e-06
-4.9923011e-06
1.1291012e-06
-5.1019206e-06
1.0955474e-06
-5.2070902e-06
1.0599438e-06
-5.3076431e-06
1.0224425e-06
-5.4034302e-06
9.8319817e-07
-5.4943201e-06
9.4236635e-07
-5.5801987e-06
9.0010293e-07
-5.6609689e-06
8.5656313e-07
-5.7365507e-06
8.1190064e-07
-5.8068799e-06
7.6626685e-07
7.1981011e-07
6.0727032e-10
-9.7039746e-09
2.4220723e-09
-2.9014924e-08
5.408576e-09
-4.7841872e-08
9.5040524e-09
-6.5861174e-08
1.4609905e-08
-8.2738049e-08
2.0600527e-08
-9.8199367e-08
2.732377e-08
-1.1198742e-07
3.4601079e-08
-1.2387045e-07
4.2230917e-08
-1.3361776e-07
4.9987883e-08
-1.4101937e-07
5.7626464e-08
-1.4588643e-07
6.4883567e-08
-1.4801903e-07
7.1483839e-08
-1.4727785e-07
7.7144784e-08
-1.4352373e-07
8.1549143e-08
-1.3662122e-07
8.4397229e-08
-1.2649316e-07
8.5368501e-08
-1.1308546e-07
8.4177132e-08
-9.6350246e-08
8.0490414e-08
-7.6242726e-08
7.3974167e-08
-5.27996e-08
6.4391275e-08
-2.6074893e-08
5.1332355e-08
3.962458e-09
3.4637255e-08
3.7089356e-08
1.3908021e-08
7.328314e-08
-1.0883018e-08
1.1229904e-07
-4.0209432e-08
1.5417651e-07
-7.4231632e-08
1.9856971e-07
-1.1314252e-07
2.4532389e-07
-1.5710836e-07
2.9421306e-07
-2.062756e-07
3.4500817e-07
-2.6076624e-07
3.974631e-07
-3.2067505e-07
4.5131735e-07
-3.8606857e-07
5.0629954e-07
-4.5698442e-07
5.6212966e-07
-5.3343078e-07
6.1852115e-07
-6.1538618e-07
6.7518311e-07
-7.0279945e-07
7.3182243e-07
-7.955899e-07
7.8814585e-07
-8.9364781e-07
8.438621e-07
-9.9683508e-07
8.9868383e-07
-1.1049861e-06
9.5232956e-07
-1.2179089e-06
1.0045256e-06
-1.3353862e-06
1.0550077e-06
-1.4571769e-06
1.103523e-06
-1.5830176e-06
1.1498312e-06
-1.7126242e-06
1.1937065e-06
-1.8456939e-06
1.2349381e-06
-1.9819066e-06
1.2733321e-06
-2.1209273e-06
1.308712e-06
-2.2624078e-06
1.3409197e-06
-2.4059894e-06
1.3698159e-06
-2.5513041e-06
1.395281e-06
-2.6979774e-06
1.4172151e-06
-2.8456303e-06
1.4355382e-06
-2.9938811e-06
1.4501902e-06
-3.1423479e-06
1.461131e-06
-3.2906504e-06
1.4683397e-06
-3.4384117e-06