/*--------------------------------*- C++ -*----------------------------------*\
| =========                 |                                                 |
| \\      /  F ield         | OpenFOAM: The Open Source CFD Toolbox           |
|  \\    /   O peration     | Version:  2106                                  |
|   \\  /    A nd           | Website:  www.openfoam.com                      |
|    \\/     M anipulation  |                                                 |
\*---------------------------------------------------------------------------*/
FoamFile
{
    version     2.0;
    format      ascii;
    arch        "LSB;label=32;scalar=64";
    class       surfaceScalarField;
    location    "0.029";
    object      phi;
}
// * * * * * * * * * * * * * * * * * * * * * * * * * * * * * * * * * * * * * //

dimensions      [0 3 -1 0 0 0 0];

oriented        oriented;

internalField   nonuniform List<scalar> 
8064
(
-7.19345e-05
7.1934499e-05
-0.00014320404
7.126954e-05
-0.00021314885
6.9944812e-05
-0.00028111956
6.797071e-05
-0.00034648242
6.5362862e-05
-0.00040862457
6.214215e-05
-0.0004669593
5.833473e-05
-0.00052093132
5.3972014e-05
-0.00057002194
4.9090618e-05
-0.00061375418
4.3732242e-05
-0.00065169767
3.794349e-05
-0.00068347327
3.1775603e-05
-0.00070875738
2.5284111e-05
-0.00072728577
1.8528384e-05
-0.0007388568
1.1571039e-05
-0.00074333482
4.478017e-06
-0.00074065153
-2.68329e-06
-0.0007308079
-9.8436276e-06
-0.00071387488
-1.6933025e-05
-0.00068999357
-2.3881312e-05
-0.0006593746
-3.061897e-05
-0.00062229677
-3.7077829e-05
-0.00057910497
-4.3191796e-05
-0.00053020737
-4.8897597e-05
-0.00047607186
-5.4135519e-05
-0.00041722171
-5.8850146e-05
-0.00035423064
-6.299107e-05
-0.00028771706
-6.6513585e-05
-0.00021833773
-6.9379326e-05
-0.00014678089
-7.1556841e-05
-7.3758804e-05
-7.3022085e-05
2.7886885e-14
-7.3758804e-05
7.3758804e-05
-7.3758804e-05
0.00014678089
-7.3022085e-05
0.00021833773
-7.1556841e-05
0.00028771706
-6.9379326e-05
0.00035423064
-6.6513585e-05
0.00041722171
-6.299107e-05
0.00047607186
-5.8850146e-05
0.00053020737
-5.4135519e-05
0.00057910497
-4.8897597e-05
0.00062229677
-4.3191796e-05
0.0006593746
-3.7077829e-05
0.00068999357
-3.061897e-05
0.00071387488
-2.3881312e-05
0.0007308079
-1.6933025e-05
0.00074065153
-9.8436276e-06
0.00074333482
-2.68329e-06
0.0007388568
4.478017e-06
0.00072728577
1.1571039e-05
0.00070875738
1.8528384e-05
0.00068347327
2.5284111e-05
0.00065169767
3.1775603e-05
0.00061375418
3.794349e-05
0.00057002194
4.3732242e-05
0.00052093132
4.9090618e-05
0.0004669593
5.3972014e-05
0.00040862457
5.833473e-05
0.00034648242
6.214215e-05
0.00028111956
6.5362862e-05
0.00021314885
6.797071e-05
0.00014320404
6.9944812e-05
7.1934499e-05
7.126954e-05
7.1934499e-05
-7.242383e-05
0.00014435833
-0.00014417889
0.0001430246
-0.00021460158
0.0001403675
-0.00028303865
0.00013640778
-0.00034885245
0.00013117667
-0.00041142618
0.00012471588
-0.00047016917
0.00011707771
-0.00052452218
0.00010832503
-0.00057396269
9.8531127e-05
-0.00061801
8.7779556e-05
-0.00065623025
7.6163736e-05
-0.00068824108
6.3786436e-05
-0.00071371604
5.0759071e-05
-0.00073238848
3.7200824e-05
-0.00074405507
2.3237629e-05
-0.00074857833
9.001272e-06
-0.0007458892
-5.372416e-06
-0.00073598827
-1.974456e-05
-0.00071894672
-3.3974576e-05
-0.00069490637
-4.7921659e-05
-0.00066407909
-6.1446249e-05
-0.00062674544
-7.4411488e-05
-0.00058325254
-8.668469e-05
-0.00053401132
-9.8138819e-05
-0.00047949286
-0.00010865397
-0.00042022416
-0.00011811885
-0.00035678303
-0.0001264322
-0.00028979241
-0.0001335042
-0.000219914
-0.00013925774
-0.00014784123
-0.00014362961
-7.4291839e-05
-0.00014657147
2.7745249e-14
-0.00014805064
7.4291839e-05
-0.00014805064
0.00014784123
-0.00014657147
0.000219914
-0.00014362961
0.00028979241
-0.00013925774
0.00035678303
-0.0001335042
0.00042022416
-0.0001264322
0.00047949286
-0.00011811885
0.00053401132
-0.00010865397
0.00058325254
-9.8138819e-05
0.00062674544
-8.668469e-05
0.00066407909
-7.4411488e-05
0.00069490637
-6.1446248e-05
0.00071894672
-4.7921659e-05
0.00073598827
-3.3974576e-05
0.0007458892
-1.974456e-05
0.00074857833
-5.3724159e-06
0.00074405507
9.001272e-06
0.00073238848
2.3237629e-05
0.00071371604
3.7200824e-05
0.00068824108
5.0759071e-05
0.00065623025
6.3786436e-05
0.00061801
7.6163736e-05
0.00057396269
8.7779556e-05
0.00052452218
9.8531127e-05
0.00047016917
0.00010832503
0.00041142618
0.00011707771
0.00034885245
0.00012471588
0.00028303865
0.00013117667
0.00021460158
0.00013640778
0.00014417889
0.0001403675
7.242383e-05
0.0001430246
0.00014435833
-7.3034786e-05
0.00021739312
-0.00014539619
0.000215386
-0.00021641596
0.00021138727
-0.00028543612
0.00020542795
-0.00035181418
0.00019755473
-0.0004149284
0.0001878301
-0.00047418311
0.00017633242
-0.00052901406
0.00016315597
-0.00057889374
0.00014841081
-0.00062333666
0.00013222248
-0.00066190441
0.00011473148
-0.00069421048
9.6092503e-05
-0.00071992473
7.6473326e-05
-0.00073877745
5.605354e-05
-0.00075056281
3.5022986e-05
-0.00075514161
1.3580078e-05
-0.0007524437
-8.0703278e-06
-0.00074246937
-2.9718889e-05
-0.00072529018
-5.1153765e-05
-0.00070104902
-7.2162823e-05
-0.00066995944
-9.2535825e-05
-0.00063230432
-0.00011206661
-0.0005884337
-0.00013055531
-0.00053876197
-0.00014781054
-0.00048376429
-0.00016365165
-0.00042397224
-0.00017791091
-0.00035996875
-0.00019043569
-0.0002923824
-0.00020109055
-0.00022188094
-0.0002097592
-0.00014916427
-0.00021634628
-7.495691e-05
-0.00022077884
2.700173e-14
-0.00022300755
7.495691e-05
-0.00022300755
0.00014916427
-0.00022077884
0.00022188094
-0.00021634628
0.0002923824
-0.0002097592
0.00035996875
-0.00020109055
0.00042397224
-0.00019043569
0.00048376429
-0.00017791091
0.00053876197
-0.00016365165
0.0005884337
-0.00014781054
0.00063230432
-0.00013055531
0.00066995944
-0.00011206661
0.00070104902
-9.2535825e-05
0.00072529018
-7.2162823e-05
0.00074246937
-5.1153765e-05
0.0007524437
-2.9718889e-05
0.00075514161
-8.0703278e-06
0.00075056281
1.3580078e-05
0.00073877745
3.5022986e-05
0.00071992473
5.605354e-05
0.00069421048
7.6473326e-05
0.00066190441
9.6092503e-05
0.00062333666
0.00011473148
0.00057889374
0.00013222248
0.00052901406
0.00014841081
0.00047418311
0.00016315597
0.0004149284
0.00017633242
0.00035181418
0.0001878301
0.00028543612
0.00019755473
0.00021641596
0.00020542795
0.00014539619
0.00021138727
7.3034786e-05
0.000215386
0.00021739312
-7.3779097e-05
0.00029117221
-0.00014687937
0.00028848628
-0.00021862704
0.00028313494
-0.00028835848
0.00027515939
-0.00035542537
0.00026462161
-0.00041919994
0.00025160467
-0.00047908037
0.00023621285
-0.00053449616
0.00021857176
-0.00058491358
0.00019882823
-0.00062984108
0.00017714998
-0.00066883451
0.00015372492
-0.00070150212
0.00012876011
-0.00072750915
0.00010248036
-0.00074658202
7.5126407e-05
-0.00075851186
4.6952829e-05
-0.00076315743
1.822564e-05
-0.00076044735
-1.0780405e-05
-0.00075038168
-3.9784562e-05
-0.00073303259
-6.8502854e-05
-0.00070854441
-9.6650996e-05
-0.00067713294
-0.0001239473
-0.00063908399
-0.00015011557
-0.00059475124
-0.00017488806
-0.0005445534
-0.00019800839
-0.00048897056
-0.00021923448
-0.00042853991
-0.00023834156
-0.00036385062
-0.00025512498
-0.00029553804
-0.00026940312
-0.00022427729
-0.00028101996
-0.00015077607
-0.00028984749
-7.5767107e-05
-0.0002957878
2.5926937e-14
-0.00029877466
7.5767107e-05
-0.00029877466
0.00015077607
-0.0002957878
0.00022427729
-0.00028984749
0.00029553804
-0.00028101996
0.00036385062
-0.00026940312
0.00042853991
-0.00025512498
0.00048897056
-0.00023834156
0.0005445534
-0.00021923448
0.00059475124
-0.00019800839
0.00063908399
-0.00017488806
0.00067713294
-0.00015011557
0.00070854441
-0.0001239473
0.00073303259
-9.6650996e-05
0.00075038168
-6.8502854e-05
0.00076044735
-3.9784562e-05
0.00076315743
-1.0780405e-05
0.00075851186
1.822564e-05
0.00074658202
4.6952829e-05
0.00072750915
7.5126407e-05
0.00070150212
0.00010248036
0.00066883451
0.00012876011
0.00062984108
0.00015372492
0.00058491358
0.00017714998
0.00053449616
0.00019882823
0.00047908037
0.00021857176
0.00041919994
0.00023621285
0.00035542537
0.00025160467
0.00028835848
0.00026462161
0.00021862704
0.00027515939
0.00014687937
0.00028313494
7.3779097e-05
0.00028848628
0.00029117221
-7.4710968e-05
0.00036588318
-0.00014873641
0.00036251172
-0.00022139573
0.00035579426
-0.00029201828
0.00034578194
-0.00035994847
0.00033255179
-0.00042455096
0.00031620716
-0.00048521611
0.00029687801
-0.00054136549
0.00027472114
-0.00059245743
0.00024992016
-0.0006379926
0.00022268516
-0.00067751953
0.00019325184
-0.00071063972
0.0001618803
-0.00073701256
0.00012885319
-0.00075635957
9.4473421e-05
-0.00076846817
5.9061425e-05
-0.00077319458
2.2952051e-05
-0.00077046614
-1.3508839e-05
-0.00076028278
-4.9967924e-05
-0.00074271766
-8.6067972e-05
-0.00071791715
-0.00012145151
-0.00068610001
-0.00015576444
-0.00064755591
-0.00018865967
-0.0006026432
-0.00021980077
-0.00055178605
-0.00024886553
-0.00049547079
-0.00027554974
-0.00043424158
-0.00029957077
-0.00036869531
-0.00032067125
-0.00029947579
-0.00033862264
-0.00022726721
-0.00035322854
-0.00015278695
-0.00036432775
-7.6777861e-05
-0.0003717969
2.4535972e-14
-0.00037555252
7.6777861e-05
-0.00037555252
0.00015278695
-0.0003717969
0.00022726721
-0.00036432775
0.00029947579
-0.00035322854
0.00036869531
-0.00033862264
0.00043424158
-0.00032067125
0.00049547079
-0.00029957077
0.00055178605
-0.00027554974
0.0006026432
-0.00024886553
0.00064755591
-0.00021980077
0.00068610001
-0.00018865967
0.00071791715
-0.00015576444
0.00074271766
-0.00012145151
0.00076028278
-8.6067972e-05
0.00077046614
-4.9967924e-05
0.00077319458
-1.3508839e-05
0.00076846817
2.2952052e-05
0.00075635957
5.9061425e-05
0.00073701256
9.4473421e-05
0.00071063972
0.00012885319
0.00067751953
0.0001618803
0.0006379926
0.00019325184
0.00059245743
0.00022268516
0.00054136549
0.00024992016
0.00048521611
0.00027472114
0.00042455096
0.00029687801
0.00035994847
0.00031620716
0.00029201828
0.00033255179
0.00022139573
0.00034578194
0.00014873641
0.00035579426
7.4710968e-05
0.00036251172
0.00036588318
-7.5927109e-05
0.00044181029
-0.00015115992
0.00043774453
-0.00022500894
0.00042964328
-0.00029679431
0.00041756731
-0.00036585087
0.00040160835
-0.00043153335
0.00038188965
-0.00049322184
0.0003585665
-0.00055032741
0.00033182671
-0.00060229791
0.00030189066
-0.00064862381
0.00026901106
-0.00068884395
0.00023347198
-0.00072255105
0.0001955874
-0.00074939683
0.00015569897
-0.00076909657
0.00011417316
-0.00078143295
7.1397806e-05
-0.00078625913
2.7778238e-05
-0.00078350103
-1.6266944e-05
-0.00077315868
-6.0310277e-05
-0.00075530684
-0.00010391981
-0.0007300948
-0.00014666354
-0.00069774546
-0.00018811378
-0.00065855369
-0.00022785145
-0.00061288408
-0.00026547037
-0.000561168
-0.00030058161
-0.00050389993
-0.00033281782
-0.00044163307
-0.00036183762
-0.00037497431
-0.00038733001
-0.00030457831
-0.00040901865
-0.00023114092
-0.00042666592
-0.00015539194
-0.00044007674
-7.8087146e-05
-0.00044910169
2.2902938e-14
-0.00045363967
7.8087146e-05
-0.00045363967
0.00015539194
-0.00044910169
0.00023114092
-0.00044007674
0.00030457831
-0.00042666592
0.00037497431
-0.00040901865
0.00044163307
-0.00038733001
0.00050389993
-0.00036183762
0.000561168
-0.00033281782
0.00061288408
-0.00030058161
0.00065855369
-0.00026547037
0.00069774546
-0.00022785145
0.0007300948
-0.00018811378
0.00075530684
-0.00014666354
0.00077315868
-0.00010391981
0.00078350103
-6.0310277e-05
0.00078625913
-1.6266944e-05
0.00078143295
2.7778238e-05
0.00076909657
7.1397806e-05
0.00074939683
0.00011417316
0.00072255105
0.00015569897
0.00068884395
0.0001955874
0.00064862381
0.00023347198
0.00060229791
0.00026901106
0.00055032741
0.00030189066
0.00049322184
0.00033182671
0.00043153335
0.0003585665
0.00036585087
0.00038188965
0.00029679431
0.00040160835
0.00022500894
0.00041756731
0.00015115992
0.00042964328
7.5927109e-05
0.00043774453
0.00044181029
-7.7566401e-05
0.00051937669
-0.00015442651
0.00051460463
-0.00022987861
0.00050509538
-0.0003032303
0.000490919
-0.00037380338
0.00047218143
-0.00044093905
0.00044902532
-0.00050400345
0.0004216309
-0.00056239345
0.00039021671
-0.00061554275
0.00035503996
-0.00066292804
0.00031639635
-0.00070407522
0.00027461915
-0.00073856525
0.00023007744
-0.00076603974
0.00018317346
-0.00078620574
0.00013433916
-0.00079883989
8.4031952e-05
-0.00080379153
3.2729885e-05
-0.00080098501
-1.907347e-05
-0.0007904209
-7.0874389e-05
-0.00077217646
-0.00012216425
-0.00074640524
-0.00017243476
-0.00071333595
-0.00022118307
-0.00067327072
-0.00026791668
-0.00062658269
-0.00031215841
-0.00057371297
-0.00035345133
-0.00051516701
-0.00039136378
-0.00045151017
-0.00042549446
-0.00038336263
-0.00045547756
-0.00031139344
-0.00048098783
-0.00023631394
-0.00050174543
-0.00015887023
-0.00051752044
-7.9835236e-05
-0.00052813668
2.1225856e-14
-0.0005334749
7.9835236e-05
-0.0005334749
0.00015887023
-0.00052813668
0.00023631394
-0.00051752044
0.00031139344
-0.00050174543
0.00038336263
-0.00048098783
0.00045151017
-0.00045547756
0.00051516701
-0.00042549446
0.00057371297
-0.00039136378
0.00062658269
-0.00035345133
0.00067327072
-0.00031215841
0.00071333595
-0.00026791668
0.00074640524
-0.00022118307
0.00077217646
-0.00017243476
0.0007904209
-0.00012216425
0.00080098501
-7.0874389e-05
0.00080379153
-1.907347e-05
0.00079883989
3.2729885e-05
0.00078620574
8.4031952e-05
0.00076603974
0.00013433916
0.00073856525
0.00018317346
0.00070407522
0.00023007744
0.00066292804
0.00027461915
0.00061554275
0.00031639635
0.00056239345
0.00035503996
0.00050400345
0.00039021671
0.00044093905
0.0004216309
0.00037380338
0.00044902532
0.0003032303
0.00047218143
0.00022987861
0.000490919
0.00015442651
0.00050509538
7.7566401e-05
0.00051460463
0.00051937669
-7.9809386e-05
0.00059918608
-0.00015889569
0.00059369094
-0.00023654019
0.00058273988
-0.00031203298
0.00056641179
-0.00038467779
0.00054482624
-0.00045379714
0.00051814467
-0.00051873799
0.00048657174
-0.00057887777
0.00045035649
-0.00063363086
0.00040979306
-0.00068245529
0.00036522078
-0.00072485937
0.00031702324
-0.00076040832
0.00026562638
-0.00078873018
0.00021149532
-0.00080952119
0.00015513017
-0.0008225501
9.7060867e-05
-0.00082766152
3.7841303e-05
-0.00082477806
-2.1956929e-05
-0.00081390149
-8.1750961e-05
-0.00079511287
-0.00014095286
-0.00076857191
-0.00019897572
-0.00073451555
-0.00025523942
-0.00069325603
-0.0003091762
-0.00064517827
-0.00036023616
-0.00059073683
-0.00040789277
-0.0005304521
-0.00045164851
-0.00046490596
-0.0004910406
-0.00039473658
-0.00052564695
-0.00032063246
-0.00055509195
-0.00024332569
-0.0005790522
-0.00016358435
-0.00059726177
-8.2204251e-05
-0.00060951679
1.990472e-14
-0.00061567915
8.2204251e-05
-0.00061567915
0.00016358435
-0.00060951679
0.00024332569
-0.00059726177
0.00032063246
-0.0005790522
0.00039473658
-0.00055509195
0.00046490596
-0.00052564695
0.0005304521
-0.0004910406
0.00059073683
-0.00045164851
0.00064517827
-0.00040789277
0.00069325603
-0.00036023616
0.00073451555
-0.0003091762
0.00076857191
-0.00025523942
0.00079511287
-0.00019897572
0.00081390149
-0.00014095286
0.00082477806
-8.1750961e-05
0.00082766152
-2.1956929e-05
0.0008225501
3.7841303e-05
0.00080952119
9.7060867e-05
0.00078873018
0.00015513017
0.00076040832
0.00021149532
0.00072485937
0.00026562638
0.00068245529
0.00031702324
0.00063363086
0.00036522078
0.00057887777
0.00040979306
0.00051873799
0.00045035649
0.00045379714
0.00048657174
0.00038467779
0.00051814467
0.00031203298
0.00054482624
0.00023654019
0.00056641179
0.00015889569
0.00058273988
7.9809386e-05
0.00059369094
0.00059918608
-8.2876007e-05
0.00068206208
-0.00016500549
0.00067582043
-0.00024564597
0.00066338036
-0.00032406325
0.00064482907
-0.00039953603
0.00062029902
-0.0004713611
0.00058996974
-0.00053885909
0.00055406973
-0.0006013809
0.0005128783
-0.00065831465
0.00046672681
-0.00070909301
0.00041599914
-0.00075320068
0.00036113091
-0.00079018165
0.00030260735
-0.00081964594
0.00024095961
-0.00084127549
0.00017675971
-0.00085482885
0.00011061422
-0.00086014465
4.3157104e-05
-0.0008571437
-2.495787e-05
-0.00084582987
-9.3064793e-05
-0.00082628983
-0.0001604929
-0.00079869203
-0.00022657353
-0.00076328491
-0.00029064654
-0.00072039465
-0.00035206646
-0.00067042242
-0.00041020839
-0.00061384111
-0.00046447409
-0.0005511915
-0.00051429811
-0.0004830779
-0.0005591542
-0.00041016286
-0.00059856199
-0.00033316114
-0.00063209366
-0.00025283285
-0.00065938049
-0.00016997558
-0.00068011904
-8.5415891e-05
-0.00069407648
1.9356577e-14
-0.00070109505
8.5415891e-05
-0.00070109505
0.00016997558
-0.00069407648
0.00025283285
-0.00068011904
0.00033316114
-0.00065938049
0.00041016286
-0.00063209366
0.0004830779
-0.00059856199
0.0005511915
-0.0005591542
0.00061384111
-0.00051429811
0.00067042242
-0.00046447409
0.00072039465
-0.00041020839
0.00076328491
-0.00035206646
0.00079869203
-0.00029064654
0.00082628983
-0.00022657353
0.00084582987
-0.0001604929
0.0008571437
-9.3064793e-05
0.00086014465
-2.495787e-05
0.00085482885
4.3157104e-05
0.00084127549
0.00011061422
0.00081964594
0.00017675971
0.00079018165
0.00024095961
0.00075320068
0.00030260735
0.00070909301
0.00036113091
0.00065831465
0.00041599914
0.0006013809
0.00046672681
0.00053885909
0.0005128783
0.0004713611
0.00055406973
0.00039953603
0.00058996974
0.00032406325
0.00062029902
0.00024564597
0.00064482907
0.00016500549
0.00066338036
8.2876007e-05
0.00067582043
0.00068206208
-8.7019496e-05
0.00076908158
-0.00017326019
0.00076206112
-0.00025794695
0.00074806712
-0.00034031227
0.00072719438
-0.00041960069
0.00069958744
-0.00049507398
0.00066544304
-0.00056601716
0.00062501291
-0.00063174531
0.00057860644
-0.00069161123
0.00052659273
-0.00074501368
0.00046940159
-0.00079140579
0.00040752303
-0.00083030342
0.00034150497
-0.00086129277
0.00027194896
-0.00088403707
0.00019950401
-0.00089828174
0.0001248589
-0.00090385803
4.8733391e-05
-0.00090068492
-2.8130986e-05
-0.0008887696
-0.00010498011
-0.00086820678
-0.00018105572
-0.00083917699
-0.00025560332
-0.00080194441
-0.00032787912
-0.00075685417
-0.0003971567
-0.00070432935
-0.00046273322
-0.00064486755
-0.00052393589
-0.00057903705
-0.00058012861
-0.00050747223
-0.00063071902
-0.00043086836
-0.00067516587
-0.00034997537
-0.00071298665
-0.00026559076
-0.0007437651
-0.00017855153
-0.00076715826
-8.9725179e-05
-0.00078290283
1.9480706e-14
-0.00079082023
8.9725179e-05
-0.00079082023
0.00017855153
-0.00078290283
0.00026559076
-0.00076715826
0.00034997537
-0.0007437651
0.00043086836
-0.00071298665
0.00050747223
-0.00067516587
0.00057903705
-0.00063071902
0.00064486755
-0.00058012861
0.00070432935
-0.00052393589
0.00075685417
-0.00046273322
0.00080194441
-0.0003971567
0.00083917699
-0.00032787912
0.00086820678
-0.00025560332
0.0008887696
-0.00018105572
0.00090068492
-0.00010498011
0.00090385803
-2.8130986e-05
0.00089828174
4.8733391e-05
0.00088403707
0.0001248589
0.00086129277
0.00019950401
0.00083030342
0.00027194896
0.00079140579
0.00034150497
0.00074501368
0.00040752303
0.00069161123
0.00046940159
0.00063174531
0.00052659273
0.00056601716
0.00057860644
0.00049507398
0.00062501291
0.00041960069
0.00066544304
0.00034031227
0.00069958744
0.00025794695
0.00072719438
0.00017326019
0.00074806712
8.7019496e-05
0.00076206112
0.00076908158
-9.2513819e-05
0.0008615954
-0.00018420537
0.00085375267
-0.0002742556
0.00083811736
-0.00036185232
0.0008147911
-0.00044619438
0.0007839295
-0.00052649689
0.00074574555
-0.00060199753
0.00070051355
-0.00067196395
0.00064857286
-0.00073570233
0.00059033112
-0.00079256676
0.00052626601
-0.00084196896
0.00045692523
-0.00088338797
0.00038292399
-0.00091637909
0.00030494008
-0.00094058143
0.00022370636
-0.00095572381
0.00014000128
-0.00096162843
5.463801e-05
-0.00095821259
-3.154683e-05
-0.00094548854
-0.00011770415
-0.00092356205
-0.00020298222
-0.00089262997
-0.0002865354
-0.00085297741
-0.00036753168
-0.00080497462
-0.00044515949
-0.00074907363
-0.0005186342
-0.00068580471
-0.00058720481
-0.00061577235
-0.00065016097
-0.00053965067
-0.0007068407
-0.00045817801
-0.00075663853
-0.0003721506
-0.00079901406
-0.00028241516
-0.00083350054
-0.0001898604
-0.00085971303
-9.5407538e-05
-0.00087735569
1.9623198e-14
-0.00088622776
9.5407538e-05
-0.00088622776
0.0001898604
-0.00087735569
0.00028241516
-0.00085971303
0.0003721506
-0.00083350054
0.00045817801
-0.00079901406
0.00053965067
-0.00075663853
0.00061577235
-0.0007068407
0.00068580471
-0.00065016097
0.00074907363
-0.00058720481
0.00080497462
-0.0005186342
0.00085297741
-0.00044515949
0.00089262997
-0.00036753168
0.00092356205
-0.0002865354
0.00094548854
-0.00020298222
0.00095821259
-0.00011770415
0.00096162843
-3.154683e-05
0.00095572381
5.463801e-05
0.00094058143
0.00014000128
0.00091637909
0.00022370636
0.00088338797
0.00030494008
0.00084196896
0.00038292399
0.00079256676
0.00045692523
0.00073570233
0.00052626601
0.00067196395
0.00059033112
0.00060199753
0.00064857286
0.00052649689
0.00070051355
0.00044619438
0.00074574555
0.00036185232
0.0007839295
0.0002742556
0.0008147911
0.00018420537
0.00083811736
9.2513819e-05
0.00085375267
0.0008615954
-9.9631806e-05
0.0009612272
-0.00019838433
0.00095250519
-0.00029538101
0.00093511404
-0.00038975119
0.00090916129
-0.00048063414
0.00087481245
-0.00056718427
0.00083229568
-0.0006485778
0.00078190707
-0.00072402097
0.00072401604
-0.00079275974
0.00065906988
-0.00085409056
0.00058759683
-0.0009073719
0.00051020657
-0.00095203566
0.00042758775
-0.00098759772
0.00034050214
-0.0010136668
0.00024977549
-0.0010299512
0.00015628567
-0.0010362624
6.0949169e-05
-0.0010325164
-3.5292848e-05
-0.0010187328
-0.00013148776
-0.00099503214
-0.00022668284
-0.00096163272
-0.00031993482
-0.00091884672
-0.00041031767
-0.00086707673
-0.00049692948
-0.00080681206
-0.00057889888
-0.00073862499
-0.00065539188
-0.00066316668
-0.00072561928
-0.00058116244
-0.00078884494
-0.0004934062
-0.00084439478
-0.00040075382
-0.00089166644
-0.00030411537
-0.00093013899
-0.00020444608
-0.00095938232
-0.00010273622
-0.00097906555
1.8922574e-14
-0.00098896399
0.00010273622
-0.00098896399
0.00020444608
-0.00097906555
0.00030411537
-0.00095938232
0.00040075382
-0.00093013899
0.0004934062
-0.00089166644
0.00058116244
-0.00084439478
0.00066316668
-0.00078884494
0.00073862499
-0.00072561928
0.00080681206
-0.00065539188
0.00086707673
-0.00057889888
0.00091884672
-0.00049692948
0.00096163272
-0.00041031767
0.00099503214
-0.00031993482
0.0010187328
-0.00022668284
0.0010325164
-0.00013148776
0.0010362624
-3.5292848e-05
0.0010299512
6.0949169e-05
0.0010136668
0.00015628567
0.00098759772
0.00024977549
0.00095203566
0.00034050214
0.0009073719
0.00042758775
0.00085409056
0.00051020657
0.00079275974
0.00058759683
0.00072402097
0.00065906988
0.0006485778
0.00072401604
0.00056718427
0.00078190707
0.00048063414
0.00083229568
0.00038975119
0.00087481245
0.00029538101
0.00090916129
0.00019838433
0.00093511404
9.9631806e-05
0.00095250519
0.0009612272
-0.00010861098
0.0010698382
-0.00021627008
0.0010601643
-0.00032202754
0.0010408715
-0.00042493845
0.0010120722
-0.00052406647
0.00097394047
-0.00061848915
0.00092671836
-0.00070730505
0.00087072298
-0.0007896429
0.00080635388
-0.00086467268
0.00073409966
-0.00093161832
0.00065454248
-0.00098977137
0.00056835962
-0.0010385047
0.00047632107
-0.0010772852
0.0003792826
-0.0011056842
0.0002781745
-0.0011233852
0.00017398666
-0.0011301875
6.7751535e-05
-0.0011260071
-3.9473323e-05
-0.0011108736
-0.00014662122
-0.0010849271
-0.00025262937
-0.0010484128
-0.00035644909
-0.001001677
-0.00045705349
-0.00094516259
-0.00055344389
-0.00087940538
-0.00064465608
-0.00080503021
-0.00072976705
-0.00072274671
-0.00080790278
-0.00063334448
-0.00087824717
-0.00053768723
-0.00094005202
-0.0004367058
-0.00099264787
-0.0003313898
-0.001035455
-0.00022277794
-0.0010679942
-0.00011194704
-0.0010898965
1.7135206e-14
-0.001100911
0.00011194704
-0.001100911
0.00022277794
-0.0010898965
0.0003313898
-0.0010679942
0.0004367058
-0.001035455
0.00053768723
-0.00099264787
0.00063334448
-0.00094005202
0.00072274671
-0.00087824717
0.00080503021
-0.00080790278
0.00087940538
-0.00072976705
0.00094516259
-0.00064465608
0.001001677
-0.00055344389
0.0010484128
-0.00045705349
0.0010849271
-0.00035644909
0.0011108736
-0.00025262937
0.0011260071
-0.00014662122
0.0011301875
-3.9473323e-05
0.0011233852
6.7751535e-05
0.0011056842
0.00017398666
0.0010772852
0.0002781745
0.0010385047
0.0003792826
0.00098977137
0.00047632107
0.00093161832
0.00056835962
0.00086467268
0.00065454248
0.0007896429
0.00073409966
0.00070730505
0.00080635388
0.00061848915
0.00087072298
0.00052406647
0.00092671836
0.00042493845
0.00097394047
0.00032202754
0.0010120722
0.00021627008
0.0010408715
0.00010861098
0.0010601643
0.0010698382
-0.00011960449
0.0011894427
-0.00023816756
0.0011787274
-0.00035464928
0.0011573532
-0.00046801328
0.0011254362
-0.00057723027
0.0010831575
-0.00068128339
0.0010307715
-0.00077917586
0.00096861544
-0.00086994128
0.0008971193
-0.00095265646
0.00081681484
-0.0010264564
0.00072834242
-0.0010905507
0.00063245395
-0.0011442403
0.00053001062
-0.0011869326
0.00042197489
-0.0012181544
0.00030939636
-0.0012375607
0.0001933929
-0.0012449378
7.5128677e-05
-0.0012402033
-4.4207808e-05
-0.0012234012
-0.00016342331
-0.001194696
-0.00028133462
-0.0011543661
-0.00039677894
-0.0011027989
-0.00050862067
-0.0010404859
-0.00061575691
-0.00096801894
-0.00071712307
-0.00088608635
-0.00081169964
-0.00079546885
-0.00089852029
-0.00069703433
-0.00097668169
-0.0005917317
-0.0010453547
-0.00048058332
-0.0011037963
-0.00036467588
-0.0011513624
-0.0002451499
-0.0011875202
-0.00012318765
-0.0012118587
1.511046e-14
-0.0012240987
0.00012318765
-0.0012240987
0.0002451499
-0.0012118587
0.00036467588
-0.0011875202
0.00048058332
-0.0011513624
0.0005917317
-0.0011037963
0.00069703433
-0.0010453547
0.00079546885
-0.00097668169
0.00088608635
-0.00089852029
0.00096801894
-0.00081169964
0.0010404859
-0.00071712307
0.0011027989
-0.00061575691
0.0011543661
-0.00050862067
0.001194696
-0.00039677894
0.0012234012
-0.00028133462
0.0012402033
-0.00016342331
0.0012449378
-4.4207808e-05
0.0012375607
7.5128677e-05
0.0012181544
0.0001933929
0.0011869326
0.00030939636
0.0011442403
0.00042197489
0.0010905507
0.00053001062
0.0010264564
0.00063245395
0.00095265646
0.00072834242
0.00086994128
0.00081681484
0.00077917586
0.0008971193
0.00068128339
0.00096861544
0.00057723027
0.0010307715
0.00046801328
0.0010831575
0.00035464928
0.0011254362
0.00023816756
0.0011573532
0.00011960449
0.0011787274
0.0011894427
-0.00013261533
0.001322058
-0.00026408275
0.0013101948
-0.00039325507
0.0012865255
-0.00051898728
0.0012511684
-0.00064013969
0.0012043099
-0.00075558331
0.0011462151
-0.00086420814
0.0010772403
-0.00096493475
0.00099784591
-0.0010567291
0.00090860919
-0.0011386203
0.00081023367
-0.0012097206
0.00070355423
-0.0012692454
0.00058953543
-0.0013165326
0.00046926202
-0.0013510576
0.00034392137
-0.0013724438
0.0002147791
-0.0013804656
8.3150564e-05
-0.0013750459
-4.9627572e-05
-0.0013562478
-0.0001822214
-0.0013242661
-0.00031331633
-0.0012794186
-0.00044162643
-0.0012221401
-0.00056589916
-0.001152978
-0.00068491899
-0.001072589
-0.00079751213
-0.00098173535
-0.00090255326
-0.00088128112
-0.00099897452
-0.00077218642
-0.0010857764
-0.00065550074
-0.0011620403
-0.00053235457
-0.0012269424
-0.00040394929
-0.0012797677
-0.00027154549
-0.001319924
-0.00013644973
-0.0013469545
1.3793575e-14
-0.0013605484
0.00013644973
-0.0013605484
0.00027154549
-0.0013469545
0.00040394929
-0.001319924
0.00053235457
-0.0012797677
0.00065550074
-0.0012269424
0.00077218642
-0.0011620403
0.00088128112
-0.0010857764
0.00098173535
-0.00099897452
0.001072589
-0.00090255326
0.001152978
-0.00079751213
0.0012221401
-0.00068491899
0.0012794186
-0.00056589916
0.0013242661
-0.00044162642
0.0013562478
-0.00031331633
0.0013750459
-0.0001822214
0.0013804656
-4.9627572e-05
0.0013724438
8.3150564e-05
0.0013510576
0.0002147791
0.0013165326
0.00034392137
0.0012692454
0.00046926202
0.0012097206
0.00058953543
0.0011386203
0.00070355423
0.0010567291
0.00081023367
0.00096493475
0.00090860919
0.00086420814
0.00099784591
0.00075558331
0.0010772403
0.00064013969
0.0011462151
0.00051898728
0.0012043099
0.00039325507
0.0012511684
0.00026408275
0.0012865255
0.00013261533
0.0013101948
0.001322058
-0.00014741406
0.0014694721
-0.00029355874
0.0014563395
-0.00043716452
0.0014301313
-0.00057696249
0.0013909664
-0.00071168705
0.0013390344
-0.00084008125
0.0012746093
-0.00096090571
0.0011980647
-0.0010729515
0.0011098917
-0.0011750573
0.001010715
-0.0012661304
0.00090130676
-0.0013451707
0.00078259451
-0.0014112956
0.00065566038
-0.001463764
0.00052173036
-0.0015019948
0.00038215219
-0.0015255793
0.00023836364
-0.0015342835
9.1854742e-05
-0.0015280414
-5.5869711e-05
-0.0015069424
-0.00020332031
-0.0014712179
-0.00034904084
-0.0014212299
-0.00049161449
-0.0013574649
-0.00062966413
-0.0012805312
-0.00076185267
-0.0011911566
-0.00088688674
-0.0010901858
-0.0010035241
-0.00097857634
-0.001110584
-0.00085739287
-0.0012069599
-0.00072779918
-0.001291634
-0.0005910487
-0.0013636929
-0.00044847309
-0.0014223433
-0.00030146916
-0.0014669279
-0.00015148421
-0.0014969394
1.2991768e-14
-0.0015120326
0.00015148421
-0.0015120326
0.00030146916
-0.0014969394
0.00044847309
-0.0014669279
0.0005910487
-0.0014223433
0.00072779918
-0.0013636929
0.00085739287
-0.001291634
0.00097857634
-0.0012069599
0.0010901858
-0.001110584
0.0011911566
-0.0010035241
0.0012805312
-0.00088688674
0.0013574649
-0.00076185267
0.0014212299
-0.00062966413
0.0014712179
-0.00049161449
0.0015069424
-0.00034904084
0.0015280414
-0.00020332031
0.0015342835
-5.5869711e-05
0.0015255793
9.1854742e-05
0.0015019948
0.00023836364
0.001463764
0.00038215219
0.0014112956
0.00052173036
0.0013451707
0.00065566038
0.0012661304
0.00078259451
0.0011750573
0.00090130676
0.0010729515
0.001010715
0.00096090571
0.0011098917
0.00084008125
0.0011980647
0.00071168705
0.0012746093
0.00057696249
0.0013390344
0.00043716452
0.0013909664
0.00029355874
0.0014301313
0.00014741406
0.0014563395
0.0014694721
-0.00016344284
0.0016329149
-0.00032548471
0.0016183813
-0.00048472357