/*--------------------------------*- C++ -*----------------------------------*\
| =========                 |                                                 |
| \\      /  F ield         | OpenFOAM: The Open Source CFD Toolbox           |
|  \\    /   O peration     | Version:  2106                                  |
|   \\  /    A nd           | Website:  www.openfoam.com                      |
|    \\/     M anipulation  |                                                 |
\*---------------------------------------------------------------------------*/
FoamFile
{
    version     2.0;
    format      ascii;
    arch        "LSB;label=32;scalar=64";
    class       surfaceScalarField;
    location    "0.029";
    object      phi_0;
}
// * * * * * * * * * * * * * * * * * * * * * * * * * * * * * * * * * * * * * //

dimensions      [0 3 -1 0 0 0 0];

oriented        oriented;

internalField   nonuniform List<scalar> 
8064
(
-7.2012784e-05
7.2012784e-05
-0.00014335986
7.1347076e-05
-0.00021338072
7.0020858e-05
-0.00028142526
6.8044539e-05
-0.00034685902
6.5433766e-05
-0.00040906847
6.2209449e-05
-0.00046746625
5.8397778e-05
-0.00052149645
5.4030205e-05
-0.00057063984
4.914339e-05
-0.00061441893
4.3779087e-05
-0.00065240288
3.7983953e-05
-0.00068421217
3.1809291e-05
-0.00070952287
2.5310695e-05
-0.00072807047
1.8547604e-05
-0.00073965318
1.1582705e-05
-0.00074413519
4.4820136e-06
-0.00074144819
-2.6870063e-06
-0.00073159316
-9.8550248e-06
-0.00071464117
-1.6951997e-05
-0.00069073349
-2.3907678e-05
-0.00066008101
-3.0652478e-05
-0.00062296285
-3.7118158e-05
-0.00057972429
-4.3238557e-05
-0.00053077395
-4.895034e-05
-0.00047658022
-5.4193737e-05
-0.00041766694
-5.8913275e-05
-0.00035460844
-6.3058502e-05
-0.00028802377
-6.6584668e-05
-0.0002185704
-6.9453373e-05
-0.00014693726
-7.1633136e-05
-7.3837371e-05
-7.3099892e-05
2.7902966e-14
-7.3837371e-05
7.3837371e-05
-7.3837371e-05
0.00014693726
-7.3099892e-05
0.0002185704
-7.1633136e-05
0.00028802377
-6.9453373e-05
0.00035460844
-6.6584668e-05
0.00041766694
-6.3058502e-05
0.00047658022
-5.8913275e-05
0.00053077395
-5.4193737e-05
0.00057972429
-4.895034e-05
0.00062296285
-4.3238557e-05
0.00066008101
-3.7118158e-05
0.00069073349
-3.0652478e-05
0.00071464117
-2.3907678e-05
0.00073159316
-1.6951997e-05
0.00074144819
-9.8550248e-06
0.00074413519
-2.6870063e-06
0.00073965318
4.4820136e-06
0.00072807047
1.1582705e-05
0.00070952287
1.8547604e-05
0.00068421217
2.5310695e-05
0.00065240288
3.1809291e-05
0.00061441893
3.7983953e-05
0.00057063984
4.3779087e-05
0.00052149645
4.914339e-05
0.00046746625
5.4030205e-05
0.00040906847
5.8397778e-05
0.00034685902
6.2209449e-05
0.00028142526
6.5433766e-05
0.00021338072
6.8044539e-05
0.00014335986
7.0020858e-05
7.2012784e-05
7.1347076e-05
7.2012784e-05
-7.2503014e-05
0.0001445158
-0.0001443365
0.00014318056
-0.00021483611
0.00014052047
-0.00028334786
0.00013655629
-0.00034923339
0.00013131929
-0.00041187519
0.00012485125
-0.00047068195
0.00011720454
-0.00052509383
0.00010844208
-0.00057458772
9.8637284e-05
-0.00061868242
8.7873789e-05
-0.0006569436
7.6245132e-05
-0.00068898852
6.3854204e-05
-0.00071449037
5.0812551e-05
-0.00073318226
3.723949e-05
-0.00074486065
2.3261101e-05
-0.00074938795
9.0093142e-06
-0.00074669507
-5.3798893e-06
-0.00073678261
-1.9767484e-05
-0.00071972187
-3.4012738e-05
-0.00069565485
-4.7974695e-05
-0.00066479368
-6.1513652e-05
-0.00062741923
-7.4492612e-05
-0.00058387903
-8.6778754e-05
-0.00053458445
-9.8244918e-05
-0.00048000711
-0.00010877108
-0.00042067454
-0.00011824584
-0.0003571652
-0.00012656784
-0.00029010268
-0.00013364719
-0.00022014936
-0.00013940669
-0.00014799941
-0.00014378309
-7.4371314e-05
-0.00014672799
2.7761294e-14
-0.00014820869
7.4371315e-05
-0.00014820869
0.00014799941
-0.00014672799
0.00022014936
-0.00014378309
0.00029010268
-0.00013940669
0.0003571652
-0.00013364719
0.00042067454
-0.00012656784
0.00048000711
-0.00011824584
0.00053458445
-0.00010877108
0.00058387903
-9.8244918e-05
0.00062741923
-8.6778754e-05
0.00066479368
-7.4492612e-05
0.00069565485
-6.1513652e-05
0.00071972187
-4.7974695e-05
0.00073678261
-3.4012738e-05
0.00074669507
-1.9767484e-05
0.00074938795
-5.3798892e-06
0.00074486065
9.0093142e-06
0.00073318226
2.3261101e-05
0.00071449037
3.723949e-05
0.00068898852
5.0812551e-05
0.0006569436
6.3854204e-05
0.00061868242
7.6245132e-05
0.00057458772
8.7873789e-05
0.00052509383
9.8637284e-05
0.00047068195
0.00010844208
0.00041187519
0.00011720454
0.00034923339
0.00012485125
0.00028334786
0.00013131929
0.00021483611
0.00013655629
0.0001443365
0.00014052047
7.2503014e-05
0.00014318056
0.0001445158
-7.311542e-05
0.00021763122
-0.00014555669
0.00021562183
-0.00021665479
0.00021161857
-0.000285751
0.0002056525
-0.0003522021
0.00019777039
-0.00041538564
0.0001880348
-0.0004747053
0.0001765242
-0.00052959619
0.00016333298
-0.00057953025
0.00014857134
-0.00062402143
0.00013236498
-0.00066263087
0.00011485457
-0.00069497165
9.6194983e-05
-0.0007207133
7.65542e-05
-0.00073958583
5.6112015e-05
-0.00075138321
3.5058484e-05
-0.00075596614
1.3592244e-05
-0.00075326441
-8.0816244e-06
-0.00074327834
-2.9753551e-05
-0.00072607961
-5.1211468e-05
-0.00070181128
-7.224302e-05
-0.00067068719
-9.2637748e-05
-0.00063299052
-0.00011218928
-0.00058907172
-0.00013069755
-0.00053934566
-0.00014797098
-0.000484288
-0.00016382874
-0.00042443091
-0.00017810294
-0.00036035795
-0.0001906408
-0.00029269838
-0.00020130676
-0.00022212063
-0.00020998443
-0.00014932537
-0.00021657835
-7.5037848e-05
-0.00022101551
2.7017083e-14
-0.00022324653
7.5037848e-05
-0.00022324653
0.00014932537
-0.00022101551
0.00022212063
-0.00021657835
0.00029269838
-0.00020998443
0.00036035795
-0.00020130676
0.00042443091
-0.0001906408
0.000484288
-0.00017810294
0.00053934566
-0.00016382874
0.00058907172
-0.00014797098
0.00063299052
-0.00013069755
0.00067068719
-0.00011218928
0.00070181128
-9.2637748e-05
0.00072607961
-7.224302e-05
0.00074327834
-5.1211468e-05
0.00075326441
-2.9753551e-05
0.00075596614
-8.0816244e-06
0.00075138321
1.3592244e-05
0.00073958583
3.5058484e-05
0.0007207133
5.6112016e-05
0.00069497165
7.65542e-05
0.00066263087
9.6194983e-05
0.00062402143
0.00011485457
0.00057953025
0.00013236498
0.00052959619
0.00014857134
0.0004747053
0.00016333298
0.00041538564
0.0001765242
0.0003522021
0.0001880348
0.000285751
0.00019777039
0.00021665479
0.0002056525
0.00014555669
0.00021161857
7.311542e-05
0.00021562183
0.00021763122
-7.3861755e-05
0.00029149297
-0.0001470439
0.00028880397
-0.00021887187
0.00028344654
-0.00028868127
0.0002754619
-0.00035582303
0.00026491215
-0.00041966868
0.00025188045
-0.00047961569
0.00023647121
-0.00053509294
0.00021881022
-0.0005855661
0.0001990445
-0.00063054309
0.00017734197
-0.00066957928
0.00015389076
-0.00070228248
0.00012889819
-0.00072831761
0.00010258933
-0.00074741079
7.5205198e-05
-0.00075935297
4.7000664e-05
-0.00076400276
1.8242039e-05
-0.00076128877
-1.0795618e-05
-0.00075121107
-3.9831256e-05
-0.00073384194
-6.8580592e-05
-0.00070932592
-9.675904e-05
-0.00067787906
-0.00012408461
-0.00063978751
-0.00015028084
-0.00059540536
-0.00017507969
-0.00054515181
-0.00019822453
-0.00048950748
-0.00021947306
-0.00042901016
-0.00023860026
-0.00036424964
-0.00025540132
-0.00029586198
-0.00026969442
-0.00022452302
-0.0002813234
-0.00015094123
-0.00029016015
-7.5850085e-05
-0.00029610665
2.5939451e-14
-0.00029909662
7.5850085e-05
-0.00029909662
0.00015094123
-0.00029610665
0.00022452302
-0.00029016015
0.00029586198
-0.0002813234
0.00036424964
-0.00026969442
0.00042901016
-0.00025540132
0.00048950748
-0.00023860026
0.00054515181
-0.00021947306
0.00059540536
-0.00019822453
0.00063978751
-0.00017507969
0.00067787906
-0.00015028084
0.00070932592
-0.00012408461
0.00073384194
-9.675904e-05
0.00075121107
-6.8580592e-05
0.00076128877
-3.9831256e-05
0.00076400276
-1.0795618e-05
0.00075935297
1.8242039e-05
0.00074741079
4.7000664e-05
0.00072831761
7.5205198e-05
0.00070228248
0.00010258933
0.00066957928
0.00012889819
0.00063054309
0.00015389076
0.0005855661
0.00017734197
0.00053509294
0.0001990445
0.00047961569
0.00021881022
0.00041966868
0.00023647121
0.00035582303
0.00025188045
0.00028868127
0.00026491215
0.00021887187
0.0002754619
0.0001470439
0.00028344654
7.3861755e-05
0.00028880397
0.00029149297
-7.4796252e-05
0.00036628922
-0.00014890616
0.00036291388
-0.00022164833
0.00035618871
-0.00029235133
0.00034616489
-0.00036035877
0.00033291959
-0.0004250346
0.00031655628
-0.00048576847
0.00029720509
-0.00054198128
0.00027502303
-0.00059313074
0.00025019396
-0.00063871699
0.00022292822
-0.00067828804
0.0001934618
-0.00071144498
0.00016205512
-0.00073784681
0.00012899116
-0.0007572148
9.4573186e-05
-0.00076933613
5.9121998e-05
-0.00077406692
2.2972824e-05
-0.00077133445
-1.352809e-05
-0.00076113867
-5.0027033e-05
-0.00074355288
-8.6166385e-05
-0.00071872363
-0.00012158829
-0.00068686996
-0.00015593828
-0.00064828189
-0.0001888689
-0.00060331821
-0.00022004337
-0.00055240357
-0.00024913918
-0.00049602485
-0.00027585178
-0.00043472683
-0.00029989829
-0.00036910706
-0.00032102109
-0.00029981007
-0.00033899141
-0.00022752078
-0.00035361268
-0.00015295737
-0.00036472355
-7.6863485e-05
-0.00037220054
2.4543771e-14
-0.0003759601
7.6863485e-05
-0.0003759601
0.00015295737
-0.00037220054
0.00022752078
-0.00036472355
0.00029981007
-0.00035361268
0.00036910706
-0.00033899141
0.00043472683
-0.00032102109
0.00049602485
-0.00029989829
0.00055240357
-0.00027585178
0.00060331821
-0.00024913918
0.00064828189
-0.00022004337
0.00068686996
-0.0001888689
0.00071872363
-0.00015593828
0.00074355288
-0.00012158829
0.00076113867
-8.6166385e-05
0.00077133445
-5.0027033e-05
0.00077406692
-1.352809e-05
0.00076933613
2.2972824e-05
0.0007572148
5.9121998e-05
0.00073784681
9.4573186e-05
0.00071144498
0.00012899116
0.00067828804
0.00016205512
0.00063871699
0.0001934618
0.00059313074
0.00022292822
0.00054198128
0.00025019396
0.00048576847
0.00027502303
0.0004250346
0.00029720509
0.00036035877
0.00031655628
0.00029235133
0.00033291959
0.00022164833
0.00034616489
0.00014890616
0.00035618871
7.4796252e-05
0.00036291388
0.00036628922
-7.6015651e-05
0.00044230488
-0.00015133617
0.0004382344
-0.0002252712
0.00043012374
-0.00029714009
0.00041803378
-0.00036627687
0.00040205637
-0.00043203551
0.00038231491
-0.00049379535
0.00035896493
-0.0005509668
0.00033219447
-0.00060299705
0.00030222421
-0.00064937599
0.00026930717
-0.00068964196
0.00023372777
-0.00072338723
0.00019580039
-0.00075026314
0.00015586707
-0.00076998467
0.00011429472
-0.00078233429
7.1471616e-05
-0.00078716502
2.780356e-05
-0.00078440273
-1.6290384e-05
-0.00077404749
-6.0382277e-05
-0.00075617418
-0.00010403969
-0.0007309323
-0.00014683017
-0.00069854501
-0.00018832556
-0.00065930758
-0.00022810634
-0.00061358503
-0.00026576592
-0.00056180925
-0.00030091497
-0.00050447526
-0.00033318576
-0.00044213695
-0.0003622366
-0.00037540187
-0.00038775617
-0.00030492541
-0.00040946787
-0.00023140423
-0.00042713387
-0.00015556889
-0.00044055889
-7.8176054e-05
-0.00044959338
2.2905422e-14
-0.00045413616
7.8176054e-05
-0.00045413616
0.00015556889
-0.00044959338
0.00023140423
-0.00044055889
0.00030492541
-0.00042713387
0.00037540187
-0.00040946787
0.00044213695
-0.00038775617
0.00050447526
-0.0003622366
0.00056180925
-0.00033318576
0.00061358503
-0.00030091497
0.00065930758
-0.00026576592
0.00069854501
-0.00022810634
0.0007309323
-0.00018832556
0.00075617418
-0.00014683017
0.00077404749
-0.00010403969
0.00078440273
-6.0382277e-05
0.00078716502
-1.6290384e-05
0.00078233429
2.780356e-05
0.00076998467
7.1471616e-05
0.00075026314
0.00011429472
0.00072338723
0.00015586707
0.00068964196
0.00019580039
0.00064937599
0.00023372777
0.00060299705
0.00026930717
0.0005509668
0.00030222421
0.00049379535
0.00033219447
0.00043203551
0.00035896493
0.00036627687
0.00038231491
0.00029714009
0.00040205637
0.0002252712
0.00041803378
0.00015133617
0.00043012374
7.6015651e-05
0.0004382344
0.00044230488
-7.7658879e-05
0.00051996375
-0.00015461058
0.0005151861
-0.00023015253
0.00050566569
-0.00030359146
0.00049147271
-0.00037424834
0.00047271325
-0.00044146357
0.00044953014
-0.00050460251
0.00042210388
-0.00056306134
0.0003906533
-0.00061627307
0.00035543595
-0.0006637138
0.0003167479
-0.00070490888
0.00027492285
-0.00073943881
0.00023033032
-0.00076694479
0.00018337305
-0.00078713357
0.0001344835
-0.00079978156
8.4119605e-05
-0.00080473797
3.2759968e-05
-0.00080192707
-1.9101282e-05
-0.00079134949
-7.0959857e-05
-0.00077308262
-0.00012230657
-0.00074728021
-0.00017263258
-0.00071417128
-0.00022143449
-0.00067405833
-0.00026821928
-0.00062731497
-0.00031250928
-0.00057438286
-0.00035384708
-0.00051576805
-0.00039180058
-0.00045203655
-0.0004259681
-0.00038380926
-0.00045598345
-0.00031175604
-0.00048152109
-0.00023658899
-0.00050230092
-0.00015905509
-0.00051809278
-7.992811e-05
-0.00052872036
2.1223895e-14
-0.00053406427
7.992811e-05
-0.00053406427
0.00015905509
-0.00052872036
0.00023658899
-0.00051809278
0.00031175604
-0.00050230092
0.00038380926
-0.00048152109
0.00045203655
-0.00045598345
0.00051576805
-0.0004259681
0.00057438286
-0.00039180058
0.00062731497
-0.00035384708
0.00067405833
-0.00031250928
0.00071417128
-0.00026821928
0.00074728021
-0.00022143449
0.00077308262
-0.00017263258
0.00079134949
-0.00012230657
0.00080192707
-7.0959857e-05
0.00080473797
-1.9101282e-05
0.00079978156
3.2759968e-05
0.00078713357
8.4119605e-05
0.00076694479
0.0001344835
0.00073943881
0.00018337305
0.00070490888
0.00023033032
0.0006637138
0.00027492285
0.00061627307
0.0003167479
0.00056306134
0.00035543595
0.00050460251
0.0003906533
0.00044146357
0.00042210388
0.00037424834
0.00044953014
0.00030359146
0.00047271325
0.00023015253
0.00049147271
0.00015461058
0.00050566569
7.7658879e-05
0.0005151861
0.00051996375
-7.9906534e-05
0.00059987029
-0.00015908907
0.00059436863
-0.00023682795
0.00058340458
-0.0003124124
0.00056705716
-0.00038514525
0.0005454461
-0.0004543482
0.00051873309
-0.00051936739
0.00048712307
-0.0005795795
0.00045086541
-0.00063439823
0.00041025467
-0.00068328093
0.0003656306
-0.00072573538
0.0003173773
-0.00076132627
0.00026592121
-0.00078968126
0.00021172803
-0.00081049622
0.00015529847
-0.0008235397
9.7163082e-05
-0.00082865613
3.7876399e-05
-0.00082576808
-2.1989333e-05
-0.00081487735
-8.1850587e-05
-0.00079606515
-0.00014111877
-0.00076949139
-0.00019920634
-0.00073539336
-0.00025553252
-0.00069408368
-0.00030952896
-0.00064594777
-0.00036064518
-0.00059144075
-0.0004083541
-0.00053108365
-0.00045215768
-0.00046545905
-0.0004915927
-0.00039520587
-0.00052623663
-0.00032101343
-0.00055571353
-0.00024361468
-0.00057969968
-0.00016377858
-0.00059792889
-8.2301831e-05
-0.0006101971
1.9899735e-14
-0.0006163661
8.2301831e-05
-0.0006163661
0.00016377858
-0.0006101971
0.00024361468
-0.00059792889
0.00032101343
-0.00057969968
0.00039520587
-0.00055571353
0.00046545905
-0.00052623663
0.00053108365
-0.0004915927
0.00059144075
-0.00045215768
0.00064594777
-0.0004083541
0.00069408368
-0.00036064518
0.00073539336
-0.00030952896
0.00076949139
-0.00025553252
0.00079606515
-0.00019920634
0.00081487735
-0.00014111877
0.00082576808
-8.1850587e-05
0.00082865613
-2.1989333e-05
0.0008235397
3.7876399e-05
0.00081049622
9.7163082e-05
0.00078968126
0.00015529847
0.00076132627
0.00021172803
0.00072573538
0.00026592121
0.00068328093
0.0003173773
0.00063439823
0.0003656306
0.0005795795
0.00041025467
0.00051936739
0.00045086541
0.0004543482
0.00048712307
0.00038514525
0.00051873309
0.0003124124
0.0005454461
0.00023682795
0.00056705716
0.00015908907
0.00058340458
7.9906534e-05
0.00059436863
0.00059987029
-8.2978645e-05
0.00068284893
-0.0001652098
0.00067659978
-0.00024595001
0.00066414479
-0.00032446413
0.00064557128
-0.00040002996
0.00062101192
-0.00047194337
0.00059064651
-0.00053952417
0.00055470387
-0.00060212245
0.00051346369
-0.00065912559
0.00046725781
-0.00070996558
0.00041647059
-0.00075412651
0.00036153823
-0.00079115185
0.00030294656
-0.00082065119
0.00024122737
-0.00084230609
0.00017695337
-0.00085587485
0.00011073185
-0.00086119597
4.319751e-05
-0.00085819017
-2.4995125e-05
-0.00084686137
-9.3179388e-05
-0.00082729639
-0.00016068376
-0.0007996639
-0.00022683882
-0.00076421271
-0.00029098372
-0.00072126942
-0.00035247226
-0.0006712357
-0.0004106789
-0.00061458505
-0.00046500475
-0.00055185894
-0.00051488379
-0.0004836624
-0.00055978924
-0.00041065879
-0.00059924025
-0.00033356373
-0.00063280858
-0.00025313823
-0.00066012518
-0.00017018082
-0.0006808863
-8.5519004e-05
-0.00069485892
1.9349412e-14
-0.0007018851
8.5519004e-05
-0.0007018851
0.00017018082
-0.00069485892
0.00025313823
-0.0006808863
0.00033356373
-0.00066012518
0.00041065879
-0.00063280858
0.0004836624
-0.00059924025
0.00055185894
-0.00055978924
0.00061458505
-0.00051488379
0.0006712357
-0.00046500475
0.00072126942
-0.0004106789
0.00076421271
-0.00035247226
0.0007996639
-0.00029098372
0.00082729639
-0.00022683882
0.00084686137
-0.00016068376
0.00085819017
-9.3179388e-05
0.00086119597
-2.4995125e-05
0.00085587485
4.319751e-05
0.00084230609
0.00011073185
0.00082065119
0.00017695337
0.00079115185
0.00024122737
0.00075412651
0.00030294656
0.00070996558
0.00036153823
0.00065912559
0.00041647059
0.00060212245
0.00046725781
0.00053952417
0.00051346369
0.00047194337
0.00055470387
0.00040002996
0.00059064651
0.00032446413
0.00062101192
0.00024595001
0.00064557128
0.0001652098
0.00066414479
8.2978645e-05
0.00067659978
0.00068284893
-8.7128562e-05
0.0007699775
-0.00017347729
0.00076294852
-0.00025827004
0.00074893754
-0.00034073829
0.00072803953
-0.00042012561
0.00070039924
-0.00049569283
0.00066621373
-0.00056672405
0.00062573509
-0.00063253352
0.00057927316
-0.00069247324
0.00052719753
-0.00074594125
0.0004699386
-0.00079239005
0.00040798702
-0.00083133489
0.0003418914
-0.00086236154
0.00027225402
-0.00088513284
0.00019972467
-0.00089939393
0.00012499294
-0.00090497588
4.8779459e-05
-0.00090179761
-2.8173395e-05
-0.00088986637
-0.00010511063
-0.000869277
-0.00018127312
-0.00084021031
-0.00025590551
-0.00080293084
-0.00032826319
-0.00075778418
-0.00039761892
-0.00070519395
-0.00046326912
-0.00064565841
-0.00052454029
-0.00057974655
-0.00058079565
-0.00050809354
-0.00063144224
-0.00043139551
-0.00067593829
-0.00035040328
-0.0007138008
-0.00026591534
-0.00074461312
-0.00017876966
-0.00076803198
-8.9834772e-05
-0.00078379381
1.9470272e-14
-0.00079171987
8.9834772e-05
-0.00079171987
0.00017876966
-0.00078379381
0.00026591534
-0.00076803198
0.00035040328
-0.00074461312
0.00043139551
-0.0007138008
0.00050809354
-0.00067593829
0.00057974655
-0.00063144224
0.00064565841
-0.00058079565
0.00070519395
-0.00052454029
0.00075778418
-0.00046326912
0.00080293084
-0.00039761892
0.00084021031
-0.00032826319
0.000869277
-0.00025590551
0.00088986637
-0.00018127312
0.00090179761
-0.00010511063
0.00090497588
-2.8173395e-05
0.00089939393
4.8779459e-05
0.00088513284
0.00012499294
0.00086236154
0.00019972467
0.00083133489
0.00027225402
0.00079239005
0.0003418914
0.00074594125
0.00040798702
0.00069247324
0.0004699386
0.00063253352
0.00052719753
0.00056672405
0.00057927316
0.00049569283
0.00062573509
0.00042012561
0.00066621373
0.00034073829
0.00070039924
0.00025827004
0.00072803953
0.00017347729
0.00074893754
8.7128562e-05
0.00076294852
0.0007699775
-9.2630421e-05
0.00086260792
-0.00018443747
0.00085475557
-0.00027460103
0.0008391011
-0.00036230782
0.00081574632
-0.00044675565
0.00078484707
-0.00052715863
0.00074661671
-0.00060275347
0.00070132992
-0.0006728069
0.0006493266
-0.00073662429
0.00059101492
-0.00079355891
0.00052687322
-0.0008430218
0.00045744992
-0.00088449139
0.000383361
-0.00091752247
0.00030528509
-0.00094175375
0.00022395594
-0.00095691372
0.00014015292
-0.00096282442
5.4690156e-05
-0.00095940307
-3.1594751e-05
-0.00094666197
-0.00011785172
-0.00092470705
-0.00020322804
-0.00089373545
-0.00028687711
-0.00085403268
-0.00036796596
-0.00080596948
-0.00044568213
-0.00074999848
-0.00051924013
-0.00068665063
-0.00058788813
-0.00061653121
-0.00065091508
-0.00054031516
-0.00070765828
-0.00045874177
-0.00075751168
-0.00037260823
-0.00079993435
-0.00028276227
-0.00083445908
-0.00019009366
-0.00086070058
-9.5524731e-05
-0.00087836274
1.9608464e-14
-0.00088724461
9.5524731e-05
-0.00088724461
0.00019009366
-0.00087836274
0.00028276227
-0.00086070058
0.00037260823
-0.00083445908
0.00045874177
-0.00079993435
0.00054031516
-0.00075751168
0.00061653121
-0.00070765828
0.00068665063
-0.00065091508
0.00074999848
-0.00058788813
0.00080596948
-0.00051924013
0.00085403268
-0.00044568213
0.00089373545
-0.00036796596
0.00092470705
-0.00028687711
0.00094666197
-0.00020322804
0.00095940307
-0.00011785172
0.00096282442
-3.1594751e-05
0.00095691372
5.4690156e-05
0.00094175375
0.00014015292
0.00091752247
0.00022395594
0.00088449139
0.00030528509
0.0008430218
0.000383361
0.00079355891
0.00045744992
0.00073662429
0.00052687322
0.0006728069
0.00059101492
0.00060275347
0.0006493266
0.00052715863
0.00070132992
0.00044675565
0.00074661671
0.00036230782
0.00078484707
0.00027460103
0.00081574632
0.00018443747
0.0008391011
9.2630421e-05
0.00085475557
0.00086260792
-9.9757277e-05
0.00096236519
-0.0001986341
0.00095363239
-0.00029575274
0.00093621974
-0.00039024139
0.00091023497
-0.00048123821
0.00087584389
-0.00056789652
0.00083327502
-0.00064939151
0.00078282491
-0.00072492843
0.00072486352
-0.00079375233
0.00065983881
-0.00085515881
0.00058827971
-0.0009085056
0.0005107967
-0.00095322392
0.00042807932
-0.0009888291
0.00034089027
-0.0010149294
0.00025005629
-0.0010312328
0.00015645631
-0.0010375506
6.1007891e-05
-0.0010337986
-3.5346697e-05
-0.0010199966
-0.00013165372
-0.00099626536
-0.00022695932
-0.00096282332
-0.00032031914
-0.00091998319
-0.0004108061
-0.00086814807
-0.00049751724
-0.00080780794
-0.00057958026
-0.00073953582
-0.00065616025
-0.0006639837
-0.00072646719
-0.00058187783
-0.00078976415
-0.0004940131
-0.00084537641
-0.00040124644
-0.00089270101
-0.00030448901
-0.00093121652
-0.00020469717
-0.00096049242
-0.00010286237
-0.00098019754
1.8905685e-14
-0.00099010697
0.00010286237
-0.00099010697
0.00020469717
-0.00098019754
0.00030448901
-0.00096049242
0.00040124644
-0.00093121652
0.0004940131
-0.00089270101
0.00058187783
-0.00084537641
0.0006639837
-0.00078976415
0.00073953582
-0.00072646719
0.00080780794
-0.00065616025
0.00086814807
-0.00057958026
0.00091998319
-0.00049751724
0.00096282332
-0.0004108061
0.00099626536
-0.00032031914
0.0010199966
-0.00022695932
0.0010337986
-0.00013165372
0.0010375506
-3.5346697e-05
0.0010312328
6.1007891e-05
0.0010149294
0.00015645631
0.0009888291
0.00025005629
0.00095322392
0.00034089027
0.0009085056
0.00042807932
0.00085515881
0.0005107967
0.00079375233
0.00058827971
0.00072492843
0.00065983881
0.00064939151
0.00072486352
0.00056789652
0.00078282491
0.00048123821
0.00083327502
0.00039024139
0.00087584389
0.00029575274
0.00091023497
0.0001986341
0.00093621974
9.9757277e-05
0.00095363239
0.00096236519
-0.00010874696
0.0010711121
-0.00021654076
0.0010614262
-0.00032243041
0.0010421094
-0.00042546975
0.0010132743
-0.00052472123
0.00097509537
-0.00061926124
0.00092781503
-0.00070818721
0.00087175088
-0.0007906268
0.00080730311
-0.00086574899
0.000734961
-0.00093277681
0.00065530752
-0.00099100096
0.00056902085
-0.0010397936
0.00047687195
-0.0010786209
0.00037971762
-0.0011070539
0.00027848927
-0.0011247756
0.00017417799
-0.0011315851
6.7817432e-05
-0.0011273982
-3.9533594e-05
-0.0011122448
-0.00014680713
-0.001086265
-0.00025293914
-0.0010497044
-0.0003568797
-0.0010029098
-0.00045760073
-0.00094632466
-0.0005541024
-0.00088048551
-0.00064541941
-0.00080601801
-0.00073062775
-0.00072363271
-0.00080885249
-0.00063412021
-0.00087927666
-0.00053834528
-0.00094115133
-0.0004372399
-0.00099380638
-0.00033179488
-0.0010366615
-0.00022305015
-0.0010692372
-0.00011208379
-0.0010911639
1.7121612e-14
-0.0011021908
0.00011208379
-0.0011021908
0.00022305015
-0.0010911639
0.00033179488
-0.0010692372
0.0004372399
-0.0010366615
0.00053834528
-0.00099380638
0.00063412021
-0.00094115133
0.00072363271
-0.00087927666
0.00080601801
-0.00080885249
0.00088048551
-0.00073062775
0.00094632466
-0.00064541941
0.0010029098
-0.0005541024
0.0010497044
-0.00045760073
0.001086265
-0.0003568797
0.0011122448
-0.00025293914
0.0011273982
-0.00014680713
0.0011315851
-3.9533594e-05
0.0011247756
6.7817432e-05
0.0011070539
0.00017417799
0.0010786209
0.00027848927
0.0010397936
0.00037971762
0.00099100096
0.00047687195
0.00093277681
0.00056902085
0.00086574899
0.00065530752
0.0007906268
0.000734961
0.00070818721
0.00080730311
0.00061926124
0.00087175088
0.00052472123
0.00092781503
0.00042546975
0.00097509538
0.00032243041
0.0010132743
0.00021654076
0.0010421094
0.00010874696
0.0010614262
0.0010711121
-0.00011975296
0.0011908651
-0.00023846314
0.0011801364
-0.00035508923
0.0011587355
-0.00046859352
0.0011267786
-0.00057794542
0.0010844473
-0.00068212678
0.0010319964
-0.00078013959
0.00096976369
-0.00087101629
0.00089817981
-0.0009538326
0.00081777731
-0.0010277225
0.00072919743
-0.0010918947
0.00063319305
-0.0011456492
0.00053062647
-0.0011883929
0.0004224613
-0.001219652
0.0003097484
-0.001239081
0.00019360694
-0.001246466
7.5202478e-05
-0.0012417245
-4.4275081e-05
-0.0012249006
-0.00016363106
-0.0011961589
-0.00028168086
-0.0011557783
-0.00039726026
-0.0011041467
-0.00050923232
-0.0010417563
-0.00061649285
-0.00096919959
-0.00071797609
-0.00088716598
-0.00081266137
-0.00079643712
-0.00089958134
-0.00069788201
-0.00097783177
-0.00059245073
-0.0010465826
-0.00048116688
-0.0011050902
-0.00036511845
-0.00115271
-0.00024544728
-0.0011889083
-0.00012333704
-0.0012132741
1.5104993e-14
-0.0012255278
0.00012333704
-0.0012255278
0.00024544728
-0.0012132741
0.00036511845
-0.0011889083
0.00048116688
-0.00115271
0.00059245073
-0.0011050902
0.00069788201
-0.0010465826
0.00079643712
-0.00097783177
0.00088716598
-0.00089958134
0.00096919959
-0.00081266137
0.0010417563
-0.00071797609
0.0011041467
-0.00061649285
0.0011557783
-0.00050923232
0.0011961589
-0.00039726026
0.0012249006
-0.00028168086
0.0012417245
-0.00016363106
0.001246466
-4.4275081e-05
0.001239081
7.5202478e-05
0.001219652
0.00019360694
0.0011883929
0.0003097484
0.0011456492
0.0004224613
0.0010918947
0.00053062647
0.0010277225
0.00063319305
0.0009538326
0.00072919743
0.00087101629
0.00081777731
0.00078013959
0.00089817981
0.00068212678
0.00096976369
0.00057794542
0.0010319964
0.00046859352
0.0010844473
0.00035508923
0.0011267786
0.00023846314
0.0011587355
0.00011975296
0.0011801364
0.0011908651
-0.00013277876
0.0013236439
-0.00026440811
0.0013117657
-0.00039373938
0.0012880667
-0.00051962608
0.0012526653
-0.00064092708
0.0012057483
-0.000756512
0.0011475813
-0.00086526948
0.0010785212
-0.00096611881
0.00099902914
-0.0010580247
0.00090968322
-0.0011400153
0.00081118797
-0.0012112015
0.00070437934
-0.0012707982
0.00059022309
-0.0013181421
0.00046980526
-0.0013527084
0.00034431464
-0.0013741197
0.00021501831
-0.0013821504
8.3233164e-05
-0.001376723
-4.9702531e-05
-0.0013579008
-0.00018245326
-0.0013258788
-0.00031370283
-0.0012809753
-0.00044216374
-0.0012236257
-0.00056658194
-0.0011543781
-0.00068574045
-0.0010738901
-0.00079846414
-0.00098292497
-0.00090362645
-0.00088234792
-0.0010001584
-0.00077312026
-0.0010870594
-0.00065629279
-0.0011634101
-0.00053299734
-0.0012283857
-0.00040443673
-0.0012812706
-0.00027187301
-0.001321472
-0.00013661426
-0.0013485329
1.3797357e-14
-0.0013621421
0.00013661426
-0.0013621421
0.00027187301
-0.0013485329
0.00040443673
-0.001321472
0.00053299734
-0.0012812706
0.00065629279
-0.0012283857
0.00077312026
-0.0011634101
0.00088234792
-0.0010870594
0.00098292497
-0.0010001584
0.0010738901
-0.00090362645
0.0011543781
-0.00079846414
0.0012236257
-0.00068574045
0.0012809753
-0.00056658194
0.0013258788
-0.00044216374
0.0013579008
-0.00031370283
0.001376723
-0.00018245326
0.0013821504
-4.9702531e-05
0.0013741197
8.3233164e-05
0.0013527084
0.00021501831
0.0013181421
0.00034431464
0.0012707982
0.00046980526
0.0012112015
0.00059022309
0.0011400153
0.00070437934
0.0010580247
0.00081118797
0.00096611881
0.00090968322
0.00086526948
0.00099902914
0.000756512
0.0010785212
0.00064092708
0.0011475813
0.00051962608
0.0012057483
0.00039373938
0.0012526653
0.00026440811
0.0012880667
0.00013277876
0.0013117657
0.0013236439
-0.0001475954
0.0014712393
-0.00029391977
0.0014580901
-0.00043770194
0.0014318489
-0.00057767141
0.0013926348
-0.00071256097
0.0013406378
-0.00084111213
0.0012761325
-0.000962084
0.001199493
-0.0010742662
0.0011112114
-0.0011764961
0.0010119131
-0.0012676798
0.00090237159
-0.0013468158
0.0007835154
-0.0014130208
0.00065642807
-0.0014655525
0.000522337
-0.0015038294
0.0003825915
-0.0015274421
0.00023863099
-0.0015361562
9.1947242e-05
-0.0015299055
-5.5953159e-05
-0.0015087798
-0.00020357898
-0.0014730105
-0.00034947218
-0.00142296
-0.00049221417
-0.0013591158
-0.00063042612
-0.001282087
-0.00076276933
-0.0011926022
-0.00088794893
-0.0010915073
-0.0010047213
-0.00097976129
-0.0011119044
-0.00085843002
-0.0012083907
-0.00072867875
-0.0012931613
-0.00059176243
-0.001365302
-0.0004490143
-0.0014240187
-0.0003018328
-0.0014686535
-0.00015166688
-0.0014986988
1.3002712e-14
-0.001513809
0.00015166688
-0.001513809
0.0003018328
-0.0014986988
0.0004490143
-0.0014686535
0.00059176243
-0.0014240187
0.00072867875
-0.001365302
0.00085843002
-0.0012931613
0.00097976129
-0.0012083907
0.0010915073
-0.0011119044
0.0011926022
-0.0010047213
0.001282087
-0.00088794893
0.0013591158
-0.00076276933
0.00142296
-0.00063042612
0.0014730105
-0.00049221417
0.0015087798
-0.00034947218
0.0015299055
-0.00020357898
0.0015361562
-5.5953159e-05
0.0015274421
9.1947242e-05
0.0015038294
0.00023863099
0.0014655525
0.0003825915
0.0014130208
0.000522337
0.0013468158
0.00065642807
0.0012676798
0.0007835154
0.0011764961
0.00090237159
0.0010742662
0.0010119131
0.000962084
0.0011112114
0.00084111213
0.001199493
0.00071256097
0.0012761325
0.00057767141
0.0013406378
0.00043770194
0.0013926348
0.00029391977
0.0014318489
0.0001475954
0.0014580901
0.0014712393
-0.00016364557
0.0016348848
-0.00032588834
0.0016203329
-0.00048532446