/*--------------------------------*- C++ -*----------------------------------*\
| =========                 |                                                 |
| \\      /  F ield         | OpenFOAM: The Open Source CFD Toolbox           |
|  \\    /   O peration     | Version:  2106                                  |
|   \\  /    A nd           | Website:  www.openfoam.com                      |
|    \\/     M anipulation  |                                                 |
\*---------------------------------------------------------------------------*/
FoamFile
{
    version     2.0;
    format      ascii;
    arch        "LSB;label=32;scalar=64";
    class       surfaceScalarField;
    location    "0.017";
    object      phi;
}
// * * * * * * * * * * * * * * * * * * * * * * * * * * * * * * * * * * * * * //

dimensions      [0 3 -1 0 0 0 0];

oriented        oriented;

internalField   nonuniform List<scalar> 
8064
(
-0.00013495023
0.00013495443
-0.00026857802
0.00013362779
-0.00039956629
0.00013098827
-0.00052662957
0.00012706328
-0.00064852313
0.00012189356
-0.00076405571
0.00011553258
-0.00087210172
0.00010804601
-0.00097161252
9.9510802e-05
-0.0010616269
9.0014365e-05
-0.0011412804
7.9653468e-05
-0.0012098135
6.8533126e-05
-0.0012665789
5.6765392e-05
-0.001311047
4.4468088e-05
-0.0013428104
3.1763407e-05
-0.0013615866
1.8776207e-05
-0.001367222
5.6354097e-06
-0.0013596895
-7.5324874e-06
-0.0013390889
-2.0600632e-05
-0.0013056448
-3.3444088e-05
-0.0012597037
-4.5941056e-05
-0.0012017296
-5.7974102e-05
-0.0011322985
-6.9431109e-05
-0.0010520923
-8.0206195e-05
-0.00096189174
-9.0200575e-05
-0.00086256843
-9.9323311e-05
-0.00075507643
-0.00010749199
-0.00064044312
-0.00011463331
-0.00051975956
-0.00012068356
-0.00039417051
-0.00012558905
-0.00026486407
-0.00012930643
-0.00013306109
-0.00013180299
-4.306374e-09
-0.00013305678
0.00013305252
-0.00013305682
0.00026485563
-0.00013180312
0.00039416228
-0.00012930665
0.00051975162
-0.00012558934
0.00064043556
-0.00012068393
0.00075506932
-0.00011463376
0.00086256183
-0.00010749251
0.00096188572
-9.9323893e-05
0.0010520869
-9.0201214e-05
0.0011322938
-8.0206886e-05
0.0012017257
-6.9431844e-05
0.0012597005
-5.7974874e-05
0.0013056424
-4.5941856e-05
0.0013390873
-3.3444909e-05
0.0013596888
-2.0601465e-05
0.0013672221
-7.5333245e-06
0.0013615875
5.6345768e-06
0.0013428121
1.8775386e-05
0.0013110495
3.1762606e-05
0.0012665822
4.4467314e-05
0.0012098176
5.6764653e-05
0.0011412851
6.8532428e-05
0.0010616323
7.9652818e-05
0.00097161854
9.0013768e-05
0.00087210828
9.9510263e-05
0.00076406275
0.00010804553
0.00064853058
0.00011553217
0.00052663736
0.00012189322
0.00039957435
0.00012706302
0.00026858627
0.00013098807
0.0001349586
0.00013362768
0.00013495439
-0.00013559898
0.00027055767
-0.00026986796
0.00026789678
-0.00040148234
0.00026260265
-0.00052914942
0.00025473037
-0.00065161761
0.00024436174
-0.00076768926
0.00023160424
-0.00087623296
0.00021658971
-0.00097619491
0.00019947275
-0.0010666094
0.00018042888
-0.0011466084
0.0001596524
-0.0012154293
0.00013735411
-0.0012724229
0.00011375892
-0.001317058
8.9103229e-05
-0.0013489269
6.3632267e-05
-0.0013677481
3.7597439e-05
-0.0013733674
1.1254718e-05
-0.0013657596
-1.5140331e-05
-0.0013450265
-4.1333684e-05
-0.0013113956
-6.7075031e-05
-0.0012652162
-9.2120482e-05
-0.0012069554
-0.00011623482
-0.001137193
-0.00013919353
-0.0010566146
-0.00016078462
-0.0009660048
-0.00018081036
-0.00086623933
-0.00019908878
-0.00075827634
-0.00021545499
-0.00064314733
-0.00022976232
-0.00052194752
-0.00024188337
-0.00039582581
-0.00025171076
-0.00026597444
-0.00025915781
-0.00013361834
-0.00026415909
-4.3665165e-09
-0.00026667076
0.00013360965
-0.00026667084
0.00026596588
-0.00026415934
0.00039581747
-0.00025915823
0.00052193947
-0.00025171135
0.00064313966
-0.00024188412
0.00075826913
-0.00022976322
0.00086623264
-0.00021545603
0.00096599871
-0.00019908995
0.0010566091
-0.00018081165
0.0011371883
-0.00016078601
0.0012069514
-0.00013919501
0.0012652129
-0.00011623638
0.0013113932
-9.2122095e-05
0.001345025
-6.7076685e-05
0.0013657588
-4.1335362e-05
0.0013733675
-1.5142017e-05
0.0013677491
1.1253041e-05
0.0013489287
3.7595787e-05
0.0013170606
6.3630656e-05
0.0012724263
8.9101673e-05
0.0012154335
0.00011375743
0.0011466132
0.00013735271
0.0010666149
0.00015965109
0.00097620102
0.00018042768
0.00087623961
0.00019947167
0.00076769639
0.00021658875
0.00065162516
0.00023160341
0.00052915732
0.00024436105
0.0004014905
0.00025472983
0.00026987632
0.00026260226
0.00013560745
0.00026789654
0.00027055759
-0.00013613106
0.00040669307
-0.00027092482
0.00040269054
-0.00040304933
0.00039472716
-0.000531205
0.00038288604
-0.00065413377
0.0003672905
-0.00077063214
0.00034810261
-0.00087956357
0.00032552113
-0.0009798699
0.00029977909
-0.001070582
0.00027114096
-0.0011508291
0.00023989949
-0.0012198471
0.00020637219
-0.0012769859
0.00017089772
-0.0013217147
0.00013383194
-0.0013536263
9.5543953e-05
-0.0013724411
5.6412165e-05
-0.0013780069
1.6820568e-05
-0.0013703011
-2.2846128e-05
-0.0013494288
-6.2205994e-05
-0.0013156207
-0.00010088311
-0.0012692299
-0.00013851132
-0.0012107271
-0.00017473757
-0.0011406957
-0.00020922496
-0.0010598248
-0.00024165551
-0.00096890247
-0.00027173271
-0.00086880751
-0.00029918374
-0.00076050101
-0.00032376149
-0.0006450171
-0.00034524623
-0.0005234534
-0.00036344707
-0.00039696094
-0.00037820321
-0.00026673388
-0.00038938487
-0.00013399889
-0.00039689407
-4.4650575e-09
-0.00040066518
0.00013399001
-0.00040066532
0.00026672512
-0.00039689446
0.00039695241
-0.00038938552
0.00052344517
-0.00037820411
0.00064500926
-0.00036344821
0.00076049363
-0.00034524759
0.00086880068
-0.00032376307
0.00096889624
-0.00029918552
0.0010598193
-0.00027173466
0.0011406909
-0.00024165762
0.0012107231
-0.00020922721
0.0012692266
-0.00017473993
0.0013156183
-0.00013851376
0.0013494272
-0.00010088561
0.0013703004
-6.2208535e-05
0.001378007
-2.2848681e-05
0.0013724421
1.6818028e-05
0.0013536282
5.6409663e-05
0.0013217173
9.5541513e-05
0.0012769894
0.00013382958
0.0012198514
0.00017089547
0.001150834
0.00020637007
0.0010705876
0.00023989751
0.00097987614
0.00027113914
0.00087957036
0.00029977745
0.00077063943
0.00032551968
0.00065414148
0.00034810137
0.00053121306
0.00036728947
0.00040305767
0.00038288522
0.00027093335
0.00039472658
0.00013613971
0.00040269018
0.00040669295
-0.00013652749
0.00054322503
-0.00027171076
0.00053787381
-0.00040421089
0.0005272273
-0.00053272183
0.00051139697
-0.00065597962
0.00049054829
-0.00077277561
0.0004648986
-0.0008819689
0.00043471442
-0.00098249799
0.00040030818
-0.0010733914
0.00036203433
-0.0011537769
0.00032028507
-0.0012228904
0.00027548569
-0.0012800823
0.00022808957
-0.0013248233
0.00017857295
-0.001356709
0.00012742961
-0.0013754623
7.5165497e-05
-0.0013809352
2.2293421e-05
-0.0013731087
-3.067261e-05
-0.0013520922
-8.3222489e-05
-0.0013181207
-0.00013485458
-0.0012715515
-0.00018508055
-0.0012128593
-0.00023342973
-0.0011426311
-0.00027945318
-0.0010615592
-0.00032272735
-0.00097043448
-0.00036285747
-0.00087013777
-0.00039948046
-0.00076163173
-0.00043226753
-0.0006459515
-0.00046092646
-0.00052419512
-0.00048520346
-0.00039751354
-0.00050488479
-0.00026710043
-0.00051979798
-0.00013418165
-0.00052981285
-4.6026575e-09
-0.00053484223
0.00013417249
-0.00053484241
0.00026709141
-0.00052981338
0.00039750475
-0.00051979886
0.00052418664
-0.000504886
0.00064594343
-0.000485205
0.00076162414
-0.0004609283
0.00087013073
-0.00043226966
0.00097042806
-0.00039948286
0.0010615535
-0.00036286011
0.0011426261
-0.00032273021
0.0012128551
-0.00027945621
0.0012715481
-0.00023343292
0.0013181182
-0.00018508385
0.0013520905
-0.00013485797
0.0013731079
-8.3225921e-05
0.0013809353
-3.0676057e-05
0.0013754633
2.2289993e-05
0.0013567109
7.5162121e-05
0.0013248261
0.00012742632
0.0012800859
0.00017856977
0.0012228948
0.00022808654
0.001153782
0.00027548283
0.0010733972
0.0003202824
0.00098250442
0.00036203188
0.0008819759
0.00040030597
0.00077278311
0.00043471247
0.00065598755
0.00046489692
0.00053273012
0.0004905469
0.00040421947
0.00051139588
0.00027171954
0.00052722651
0.00013653639
0.00053787333
0.00054322487
-0.00013684507
0.00068007473
-0.00027233883
0.00067336756
-0.00040513518
0.00066002364
-0.0005339215
0.0006401833
-0.000657428
0.00061405478
-0.00077444101
0.00058191161
-0.00088381567
0.00054408909
-0.00098448764
0.00050098015
-0.0010754838
0.00045303044
-0.0011559315
0.00040073286
-0.0012250675
0.00034462163
-0.0012822439
0.00028526599
-0.0013269345
0.00022326358
-0.0013587386
0.00015923369
-0.0013773836
9.3810477e-05
-0.0013827263
2.7636181e-05
-0.0013747533
-3.8645656e-05
-0.0013535791
-0.00010439669
-0.001319444
-0.00016898967
-0.0012727102
-0.00023181434
-0.001213857
-0.0002922829
-0.0011434752
-0.00034983498
-0.0010622604
-0.0004039422
-0.00097100555
-0.00045411232
-0.00087059316
-0.00049989285
-0.00076198644
-0.00054087424
-0.00064622028
-0.00057669262
-0.00052439163
-0.0006070321
-0.0003976497
-0.00063162672
-0.00026718573
-0.00065026195
-0.00013422269
-0.00066277589
-4.780751e-09
-0.00066906014
0.00013421318
-0.00066906037
0.00026717636
-0.00066277656
0.00039764057
-0.00065026306
0.00052438283
-0.00063162827
0.00064621189
-0.00060703406
0.00076197856
-0.00057669497
0.00087058585
-0.00054087696
0.0009709989
-0.0004998959
0.0010622545
-0.00045411568
0.0011434701
-0.00040394582
0.0012138527
-0.00034983883
0.0012727067
-0.00029228695
0.0013194414
-0.00023181854
0.0013535774
-0.00016899397
0.0013747525
-0.00010440105
0.0013827265
-3.8650031e-05
0.0013773847
2.7631831e-05
0.0013587406
9.3806194e-05
0.0013269374
0.00015922951
0.0012822476
0.00022325955
0.001225072
0.00028526214
0.0011559369
0.000344618
0.0010754898
0.00040072948
0.00098449432
0.00045302734
0.00088382293
0.00050097736
0.00077444878
0.00054408662
0.00065743622
0.00058190948
0.0005339301
0.00061405302
0.00040514406
0.00064018192
0.00027234792
0.00066002265
0.00013685429
0.00067336696
0.00068007453
-0.00013721856
0.00081729812
-0.00027307724
0.00080922624
-0.00040622126
0.00079316767
-0.00053533013
0.00076929217
-0.00065912697
0.00073785163
-0.00077639216
0.00069917679
-0.0008859761
0.00065367303
-0.0009868111
0.00060181516
-0.0010779221
0.00054414146
-0.0011584363
0.00048124705
-0.0012275912
0.00041377654
-0.0012847416
0.00034241638
-0.0013293649
0.00026788684
-0.0013610649
0.00019093375
-0.0013795748
0.0001123203
-0.0013847574
3.2818792e-05
-0.0013766057
-4.6797364e-05
-0.0013552408
-0.00012576154
-0.0013209095
-0.000203321
-0.0012739799
-0.00027874398
-0.0012149367
-0.0003513261
-0.0011443753
-0.00042039632
-0.0010629951
-0.00048532237
-0.00097159192
-0.00054551554
-0.0008710498
-0.00060043498
-0.00076233261
-0.00064959143
-0.00064647478
-0.00069255045
-0.00052457185
-0.00072893503
-0.0003977707
-0.00075842788
-0.00026725949
-0.00078077316
-0.00013425755
-0.00079577783
-5.0013785e-09
-0.00080331269
0.0001342476
-0.00080331297
0.00026724969
-0.00079577866
0.00039776114
-0.00078077452
0.00052456265
-0.00075842977
0.00064646602
-0.00072893743
0.00076232437
-0.00069255332
0.00087104217
-0.00064959476
0.00097158497
-0.00060043871
0.0010629889
-0.00054551964
0.0011443699
-0.00048532681
0.0012149321
-0.00042040104
0.0012739762
-0.00035133104
0.0013209068
-0.0002787491
0.0013552391
-0.00020332625
0.0013766049
-0.00012576687
0.0013847576
-4.6802709e-05
0.0013795759
3.2813479e-05
0.0013610671
0.00011231507
0.0013293679
0.00019092866
0.0012847455
0.00026788192
0.001227596
0.00034241169
0.0011584419
0.00041377211
0.0010779284
0.00048124293
0.00098681808
0.00054413768
0.00088598368
0.00060181175
0.00077640028
0.00065367002
0.00065913556
0.00069917421
0.0005353391
0.00073784948
0.00040623053
0.00076929048
0.00027308672
0.00079316645
0.00013722818
0.00080922551
0.00081729788
-0.00013786157
0.00095516475
-0.00027435117
0.00094571585
-0.00040810189
0.00092691838
-0.00053778199
0.00089897227
-0.00066210447
0.0008621741
-0.00077984086
0.00081691318
-0.00088983434
0.00076366651
-0.00099101172
0.00070299254
-0.0010823943
0.00063552408
-0.0011631076
0.00056196031
-0.0012323892
0.00048305811
-0.0012895957
0.00039962293
-0.0013342081
0.00031249922
-0.0013658351
0.00022256079
-0.0013842158
0.00013070099
-0.0013892201
3.7823102e-05
-0.0013808485
-5.5169029e-05
-0.0013592298
-0.00014738022
-0.0013246185
-0.00023793226
-0.0012773904
-0.00032597213
-0.0012180371
-0.00041067939
-0.0011471603
-0.00049127309
-0.0010654648
-0.00056701791
-0.00097375063
-0.00063722969
-0.00087290526
-0.00070128035
-0.00076389465
-0.00075860204
-0.00064775429
-0.00080869081
-0.00052557971
-0.00085110961
-0.00039851683
-0.00088549076
-0.00026775211
-0.00091153788
-0.00013450248
-0.00092902746
-5.2670945e-09
-0.0009378099
0.000134492
-0.00093781023
0.00026774179
-0.00092902845
0.00039850678
-0.00091153951
0.00052557002
-0.00088549301
0.00064774507
-0.00085111247
0.00076388598
-0.00080869424
0.00087289723
-0.000758606
0.00097374332
-0.0007012848
0.0010654583
-0.00063723459
0.0011471547
-0.0005670232
0.0012180323
-0.00049127871
0.0012773866
-0.00041068529
0.0013246157
-0.00032597823
0.001359228
-0.00023793852
0.0013808477
-0.00014738657
0.0013892204
-5.5175394e-05
0.0013842171
3.7816777e-05
0.0013658374
0.00013069477
0.0013342113
0.00022255473
0.0012895998
0.00031249338
0.0012323942
0.00039961735
0.0011631134
0.00048305285
0.001082401
0.00056195541
0.00099101905
0.00063551959
0.00088984231
0.00070298849
0.00077984939
0.00076366294
0.00066211348
0.00081691012
0.0005377914
0.00086217156
0.00040811161
0.00089897028
0.00027436112
0.00092691694
0.00013787165
0.00094571498
0.00095516446
-0.00013906669
0.0010942368
-0.00027674311
0.0010833923
-0.00041164393
0.0010618192
-0.00054242024
0.0010297486
-0.00066776915
0.00098752301
-0.00078644806
0.00093559209
-0.00089728799
0.00087450644
-0.00099920586
0.00080491041
-0.0010912155
0.00072753374
-0.0011724374
0.00064318214
-0.0012421065
0.00055272724
-0.0012995794
0.00045709584
-0.001344339
0.00035725882
-0.0013759981
0.00025421992
-0.0013943015
0.00014900441
-0.0013991264
4.2647984e-05
-0.0013904815
-6.3813957e-05
-0.0013685048
-0.00016935693
-0.0013334602
-0.00027297681
-0.0012857332
-0.00037369918
-0.0012258248
-0.00047058775
-0.0011543459
-0.00056275201
-0.0010720096
-0.00064935425
-0.00097962359
-0.00072961566
-0.00087808218
-0.00080282176
-0.0007683571
-0.00086832712
-0.00065148867
-0.00092555924
-0.00052857635
-0.00097402193
-0.00040076914
-0.001013298
-0.00026925581
-0.0010430512
-0.00013525506
-0.0010630282
-5.5810399e-09
-0.0010730594
0.00013524396
-0.0010730598
0.00026924488
-0.0010630294
0.00040075849
-0.0010430531
0.00052856609
-0.0010133006
0.0006514789
-0.00097402529
0.00076834792
-0.00092556326
0.00087807369
-0.00086833177
0.00097961587
-0.00080282699
0.0010720027
-0.0007296214
0.0011543399
-0.00064936045
0.0012258198
-0.0005627586
0.0012857292
-0.00047059465
0.0013334573
-0.00037370634
0.0013685029
-0.00027298414
0.0013904807
-0.00016936436
0.0013991267
-6.3821403e-05
0.0013943029
4.2640589e-05
0.0013760005
0.00014899713
0.0013443424
0.00025421284
0.0012995838
0.00035725199
0.0012421118
0.00045708933
0.0011724436
0.00055272111
0.0010912225
0.00064317644
0.00099921362
0.00072752851
0.00089729641
0.0008049057
0.00078645707
0.00087450228
0.00066777867
0.00093558852
0.00054243017
0.00098752005
0.00041165419
0.0010297463
0.0002767536
0.0010618175
0.00013907732
0.0010833913
0.0010942364
-0.00014120153
0.001235444
-0.00028098483
0.0012231756
-0.00041793657
0.0011987709
-0.00055068133
0.0011624933
-0.00067789141
0.0011147331
-0.00079830157
0.0010560022
-0.00091072279
0.00098692766
-0.0010140549
0.00090824249
-0.0011072976
0.0008207765
-0.0011895607
0.00072544525
-0.0012600719
0.00062323838
-0.0013181833
0.00051520729
-0.0013633769
0.00040245242
-0.0013952673
0.00028611033
-0.0014136038
0.00016734085
-0.0014182702
4.7314432e-05
-0.0014092842
-7.2799998e-05
-0.0013867941
-0.00019184705
-0.0013510755
-0.0003086954
-0.0013025263
-0.00042224839
-0.0012416607
-0.00053145328
-0.0011691029
-0.00063530981
-0.0010855793
-0.00073287786
-0.00099191078
-0.0008232842
-0.00088900415
-0.0009057284
-0.00077784337
-0.00097948789
-0.00065948034
-0.0010439223
-0.00053502547
-0.0010984768
-0.00040563817
-0.0011426853
-0.00027251709
-0.0011761723
-0.0001368904
-0.0011986549
-5.947189e-09
-0.0012099438
0.00013687857
-0.0012099443
0.00027250544
-0.0011986562
0.00040562683
-0.0011761745
0.00053501455
-0.0011426883
0.00065946994
-0.0010984807
0.00077783361
-0.0010439269
0.00088899512
-0.00097949328
0.00099190258
-0.00090573445
0.001085572
-0.00082329085
0.0011690966
-0.00073288503
0.0012416554
-0.00063531743
0.0013025221
-0.00053146127
0.0013510724
-0.00042225667
0.0013867921
-0.00030870387
0.0014092834
-0.00019185562
0.0014182706
-7.2808595e-05
0.0014136053
4.7305899e-05
0.0013952699
0.00016733247
0.0013633806
0.00028610217
0.001318188
0.00040244456
0.0012600776
0.0005151998
0.0011895673
0.00062323133
0.0011073051
0.00072543869
0.0010140631
0.00082077049
0.00091073174
0.00090823708
0.00079831114
0.00098692289
0.0006779015
0.0010559982
0.00055069186
0.0011147297
0.00041794744
0.0011624907
0.00028099594
0.001198769
0.00014121279
0.0012231744
0.0012354436
-0.00014469586
0.0013801458
-0.00028793196
0.0013664117
-0.00042825343
0.0013390924
-0.00056424518
0.0012984851
-0.00069454197
0.0012450299
-0.00081784381
0.0011793041
-0.00093293025
0.0011020141
-0.0010386734
0.0010139856
-0.0011340493
0.00091615248
-0.0012181485
0.00080954441
-0.0012901836
0.00069527347
-0.0013494964
0.00057452005
-0.0013955624
0.00044851847
-0.0014279944
0.0003185423
-0.0014465434
0.00018588985
-0.0014510989
5.1869953e-05
-0.0014416873
-8.2211609e-05
-0.0014184687
-0.00021506562
-0.001381733
-0.0003454311
-0.0013318944
-0.00047208699
-0.0012694853
-0.00059386243
-0.001195149
-0.00070964608
-0.0011096324
-0.00081839446
-0.0010137774
-0.00091913923
-0.0009085122
-0.0010109936
-0.0007948425
-0.0010931576
-0.00067384191
-0.0011649229
-0.00054664258
-0.0012256761
-0.00041442551
-0.0012749023
-0.00027841084
-0.001312187
-0.00013984809
-0.0013372176
-6.3707439e-09
-0.0013497856
0.00013983541
-0.0013497861
0.00027839836
-0.0013372192
0.00041441336
-0.0013121895
0.00054663088
-0.0012749059
0.00067383079
-0.0012256806
0.00079483206
-0.0011649282
0.00090850255
-0.0010931638
0.0010137686
-0.0010110005
0.0011096246
-0.00091914685
0.0011951423
-0.00081840268
0.0012694797
-0.00070965482
0.00133189
-0.00059387158
0.0013817298
-0.00047209646
0.0014184667
-0.00034544079
0.0014416865
-0.00021507543
0.0014510993
-8.2221436e-05
0.001446545
5.1860206e-05
0.0014279972
0.00018588027
0.0013955664
0.00031853299
0.0013495014
0.00044850951
0.0012901897
0.00057451152
0.0012181556
0.00069526544
0.0011340573
0.00080953696
0.0010386822
0.00091614565
0.00093293981
0.0010139794
0.00081785402
0.0011020087
0.00069455273
0.0011792994
0.00056425639
0.001245026
0.000428265
0.0012984821
0.00028794378
0.0013390903
0.00014470784
0.0013664104
0.0013801454
-0.0001500146
0.0015301669
-0.0002985101
0.0015149072
-0.00044397243
0.0014845548
-0.0005849295
0.0014394422
-0.0007199618
0.0013800622
-0.00084771855
0.0013070608
-0.00096693263
0.0012212282
-0.0010764342
0.0011234872
-0.0011751629
0.0010148811
-0.0012621778
0.0008965593
-0.0013366663
0.00076976195
-0.0013979506
0.00063580441
-0.0014454929
0.00049606071
-0.0014788978
0.00035194726
-0.0014979145
0.00020490653
-0.0015024357
5.6391143e-05
-0.0014924962
-9.2151145e-05
-0.0014682692
-0.00023929259
-0.0014300621
-0.00038363822
-0.0013783102
-0.00052383881
-0.0013135706
-0.00065860205
-0.001236514
-0.00078670269
-0.001147917
-0.00090699147
-0.0010486532
-0.001018403
-0.00093968439
-0.0011199624
-0.00082205073
-0.0012107913
-0.00069686157
-0.001290112
-0.0005652855
-0.0013572522
-0.00042854055
-0.0014116473
-0.00028788433
-0.0014528432
-0.00014460408
-0.0014804979
-6.8586886e-09
-0.0014943828
0.00014459044
-0.0014943834
0.00028787089
-0.0014804996
0.00042852747
-0.0014528461
0.00056527291
-0.0014116513
0.00069684961
-0.0013572573
0.00082203951
-0.0012901181
0.00093967403
-0.0012107983
0.0010486438
-0.0011199703
0.0011479087
-0.0010184117
0.0012365068
-0.00090700083
0.0013135646
-0.00078671263
0.0013783055
-0.00065861246
0.0014300586
-0.00052384958
0.0014682671
-0.00038364923
0.0014924954
-0.00023930373
0.0015024362
-9.2162296e-05
0.0014979163
5.6380091e-05
0.0014789009
0.00020489568
0.0014454972
0.00035193673
0.0013979561
0.00049605058
0.0013366729
0.00063579477
0.0012621854
0.00076975289
0.0011751715
0.00089655088
0.0010764437
0.0010148734
0.00096694289
0.0011234803
0.00084772949
0.0012212221
0.00071997332
0.0013070556
0.0005849415
0.0013800579
0.0004439848
0.0014394388
0.00029852274
0.0014845523
0.0001500274
0.0015149057
0.0015301664
-0.00015761044
0.0016877842
-0.00031362064
0.0016709174
-0.00046643559
0.0016373697
-0.00061450496
0.0015875115
-0.00075633434
0.0015218916
-0.00089050226
0.0014412288
-0.0010156761
0.001346402
-0.0011306264
0.0012384375
-0.0012342397
0.0011184944
-0.0013255289
0.00098784854
-0.0014036428
0.00084787585
-0.0014678726
0.00070003413
-0.0015176568
0.00054584499
-0.001552585
0.00038687548
-0.0015723986
0.00022472003
-0.0015769902
6.09828e-05
-0.0015664023
-0.00010273905
-0.0015408227
-0.00026487216
-0.00150058
-0.00042388096
-0.0014461368
-0.00057828202
-0.0013780827
-0.00072665616
-0.001297126
-0.00086765938
-0.001204085
-0.0010000325
-0.0010998787
-0.0011226093
-0.0009855172
-0.0012343239
-0.00086209184
-0.0013342166
-0.00073076521
-0.0014214386
-0.00059276096
-0.0014952565
-0.00044935362
-0.0015550546
-0.00030185841
-0.0016003384
-0.00015162102
-0.0016307353
-7.4204743e-09
-0.0016459964
0.00015160626
-0.001645997
0.00030184388
-0.0016307373
0.00044933948
-0.0016003417
0.00059274735
-0.0015550592
0.00073075228
-0.0014952622
0.00086207973
-0.0014214455
0.00098550602
-0.0013342246
0.0010998686
-0.0012343329
0.001204076
-0.0011226191
0.0012971183
-0.0010000431
0.0013780763
-0.00086767063
0.0014461317
-0.00072666794
0.0015005764
-0.0005782942
0.0015408205
-0.0004238934
0.0015664015
-0.00026488473
0.0015769909
-0.00010275163
0.0015724006
6.0970342e-05
0.0015525885
0.00022470782
0.0015176616
0.00038686362
0.0014678786
0.0005458336
0.00140365
0.00070002331
0.0013255372
0.00084786568
0.001234249
0.00098783911
0.0011306367
0.0011184858
0.0010156872
0.0012384298
0.00089051403
0.0013463952
0.00075634672
0.0014412229
0.00061451785
0.0015218867
0.00046644887
0.0015875077
0.0003136342
0.001637367
0.00015762417
0.0016709157
0.0016877837
-0.00016785038
0.001855642
-0.00033399442
0.0018370614
-0.00049673126
0.0018001065
-0.00065440797
0.0017451883
-0.00080543144
0.001672915
-0.00094828665
0.001584084
-0.0010815536
0.001479669
-0.0012039225
0.0013608065
-0.0013142076
0.0012287794
-0.0014113581
0.001084999
-0.001494468
0.00093098579
-0.0015627836
0.0007683497
-0.0016157084
0.00059876982
-0.001652807
0.00042397407
-0.0016738062
0.00024571924
-0.0016785948
6.577142e-05
-0.0016672214
-0.00011411245
-0.0016398901
-0.00029220346
-0.0015969551
-0.00046681599
-0.0015389135
-0.00063632362
-0.0014663973
-0.00079917235
-0.0013801644
-0.00095389229
-0.0012810889
-0.0010991079
-0.0011701513
-0.0012335469
-0.0010484279
-0.0013560474
-0.00091708031
-0.0014655641
-0.00077734509
-0.0015611739
-0.00063052263
-0.0016420789
-0.0004779666
-0.0017076107
-0.00032107325
-0.0017572317
-0.00016127064
-0.0017905379
-8.0687157e-09
-0.001807259
0.00016125459
-0.0018072597
0.00032105745
-0.0017905401
0.00047795123
-0.0017572355
0.00063050784
-0.0017076158
0.00077733105
-0.0016420854
0.00091706716
-0.0015611817
0.0010484157
-0.0014655731
0.0011701403
-0.0013560575
0.0012810792
-0.001233558
0.001380156
-0.0010991199
0.0014663904
-0.00095390498
0.001538908
-0.00079918563
0.0015969512
-0.00063633734
0.0016398878
-0.00046682999
0.0016672206
-0.0002922176
0.0016785956
-0.00011412658
0.0016738085
6.575744e-05
0.0016528108
0.00024570554
0.0016157136
0.00042396079
0.0015627901
0.00059875708
0.0014944758
0.00076833761
0.0014113671
0.00093097444
0.0013142177
0.0010849885
0.0012039336
0.0012287698
0.0010815655
0.0013607979
0.00094829937
0.0014796614
0.00080544481
0.0015840775
0.00065442188
0.0016729097
0.00049674558
0.001745184
0.00033400903
0.0018001035
0.00016786518
0.0018370596
0.0018556414
-0.0001809113
0.0020365614
-0.00035998383
0.0020161339
-0.00053538463
0.0019755073
-0.00070533239
0.001915136
-0.00086811015
0.0018356928
-0.001022085
0.0017380588
-0.0011657261
0.0016233101
-0.0012976214
0.0014927018
-0.0014164918
0.0013476499
-0.0015212038
0.0011897109
-0.0016107792
0.0010205612
-0.0016844039
0.00084197437
-0.0017414331
0.00065579906
-0.0017813959
0.00046393685
-0.0018039968
0.00026832013
-0.0018091159
7.0890482e-05
-0.0017968066
-0.00012642177
-0.0017672912
-0.00032171884
-0.0017209549
-0.00051315229
-0.0016583376
-0.00069894094
-0.0015801247
-0.00087738517
-0.0014871375
-0.0010468796
-0.0013803216
-0.0012059238
-0.0012607367
-0.0013531318
-0.0011295446
-0.0014872394
-0.00098799837
-0.0016071104
-0.00083743022
-0.001711742
-0.00067924045
-0.0018002687
-0.00051488584
-0.0018719653
-0.00034586822
-0.0019262494
-0.0001737232
-0.0019626829
-8.8196984e-09
-0.0019809733
0.00017370566
-0.0019809742
0.00034585096
-0.0019626854
0.00051486904
-0.0019262535
0.0006792243
-0.001871971
0.00083741489
-0.001800276
0.00098798403
-0.0017117508
0.0011295314
-0.0016071205
0.0012607247
-0.0014872508
0.001380311
-0.0013531443
0.0014871284
-0.0012059373
0.0015801173
-0.0010468938
0.0016583317
-0.00087740009
0.0017209507
-0.00069895633
0.0017672888
-0.000513168
0.0017968058
-0.00032173469
0.0018091168
-0.00012643759
0.0018039994
7.0874847e-05
0.0017814001
0.00026830484
0.0017414389
0.00046392204
0.0016844111
0.00065578486
0.0016107878
0.00084196091
0.0015212136
0.0010205486
0.0014165029
0.0011896993
0.0012976335
0.0013476392
0.0011657391
0.0014926923
0.0010220988
0.0016233017
0.00086812465
0.0017380516
0.00070534746
0.0018356869
0.00053540014
0.0019151314
0.00035999965
0.001975504
0.00018092732
0.0020161319
0.0020365607
-0.00019664229
0.0022332124
-0.00039128876
0.0022107804
-0.00058194974
0.0021661683
-0.00076669131
0.0020998776
-0.000943649
0.0020126505
-0.0011110489
0.0019054587
-0.0012672274
0.0017794886
-0.0014106488
0.0016361232
-0.0015399208
0.0014769219
-0.0016538082
0.0013035983
-0.0017512438
0.0011179968
-0.0018313375
0.00092206801
-0.0018933829
0.00071784454
-0.0019368629
0.00050741681
-0.0019614517
0.00029290891
-0.001967016
7.6454766e-05
-0.0019536131
-0.00013982467
-0.0019214861
-0.00035384578
-0.0018710574
-0.00056358106
-0.0018029188
-0.00076707954
-0.0017178214
-0.00096248252
-0.0016166639
-0.0011480371
-0.00150048
-0.0013221077
-0.0013704263
-0.0014831855
-0.0012277694
-0.0016298963
-0.0010738732
-0.0017610065
-0.0009101869
-0.0018754283
-0.00073823197
-0.0019722236
-0.00055959022
-0.002050607
-0.00037589146
-0.0021099481
-0.00018880141
-0.002149773
-9.6934287e-09
-0.0021697651
0.00018878213
-0.002169766
0.00037587249
-0.0021497758
0.00055957176
-0.0021099528
0.00073821423
-0.0020506135
0.00091017008
-0.0019722319
0.0010738575
-0.0018754382
0.0012277549
-0.0017610179
0.0013704133
-0.0016299091
0.0015004685
-0.0014831996
0.001616654
-0.0013221228
0.0017178133
-0.0011480531
0.0018029125
-0.00096249925
0.0018710529
-0.00076709679
0.0019214836
-0.00056359865
0.0019536124
-0.00035386351
0.0019670171
-0.00013984234
0.0019614547
7.6437323e-05
0.0019368676
0.00029289187
0.0018933894
0.00050740033
0.0018313455
0.00071782876
0.0017512533
0.00092205307
0.0016538191
0.0011179828
0.0015399329
0.0013035854
0.001410662
0.0014769101
0.0012672417
0.0016361126
0.001111064
0.0017794793
0.00094366481
0.0019054508
0.00076670773
0.0020126439
0.00058196663
0.0020998725
0.00039130598
0.0021661647
0.00019665972
0.0022107782
0.0022332117
-0.00021439595
0.0024476179
-0.00042662067
0.0024230051
-0.00063450928
0.0023740569
-0.00083595712
0.0023013254
-0.0010289343
0.0022056277
-0.0012115086
0.002088033
-0.0013818664
0.0019498464
-0.0015383319
0.0017925887
-0.0016793841
0.001617974
-0.0018036709
0.0014278852
-0.0019100219
0.0012243479
-0.0019974583
0.0010095044
-0.002065201
0.00078558719
-0.0021126768
0.00055489261
-0.0021395231
0.00031975521
-0.0021455896
8.2521286e-05
-0.0021309375
-0.00015447676
-0.0020958343
-0.00038894894
-0.0020407466
-0.0006186688
-0.0019663285
-0.00084149766
-0.0018734088
-0.0010554022
-0.0017629777
-0.0012584683
-0.0016361716
-0.0014489137
-0.0014942595
-0.0016250976
-0.0013386282
-0.0017855277
-0.0011707685
-0.0019288663
-0.00099226149
-0.0020539353
-0.00080476535
-0.0021597198
-0.00061000194
-0.0022453704
-0.00040974383
-0.0023102062
-0.00020580151
-0.0023537153
-1.0712846e-08
-0.0023755559
0.0002057802
-0.0023755569
0.00040972287
-0.0023537185
0.00060998155
-0.0023102115
0.00080474577
-0.0022453777
0.00099224292
-0.002159729
0.0011707511
-0.0020539464
0.0013386123
-0.0019288791
0.0014942452
-0.001785542
0.001636159
-0.0016251134
0.0017629669
-0.0014489307
0.0018734
-0.0012584862
0.0019663216
-0.0010554209
0.0020407418
-0.00084151698
0.0020958316
-0.00061868847
0.0021309369
-0.00038896873
0.002145591
-0.00015449647
0.0021395265
8.2501858e-05
0.0021126821
0.00031973626
0.0020652081
0.0005548743
0.0019974672
0.00078556969
0.0019100324
0.0010094879
0.0018036828
0.0012243324
0.0016793974
0.0014278709
0.0015383464
0.001617961
0.001381882
0.0017925771
0.0012115251
0.0019498362
0.0010289516
0.0020880243
0.0008359751
0.0022056205
0.00063452777
0.0023013198
0.00042663951
0.0023740529
0.00021441501
0.0024230027
0.0024476171
-0.00023283751
0.0026804659
-0.00046332254
0.0026534901
-0.00068910885
0.0025998433
-0.00090791499
0.0025201316
-0.0011175396
0.0024152523
-0.001315886
0.0022863793
-0.0015009843
0.0021349447
-0.0016710123
0.0019626167
-0.0018243132
0.001771275
-0.0019594118
0.0015629837
-0.0020750273
0.0013399633
-0.0021700852
0.0011045623
-0.0022437269
0.00085922889
-0.0022953179
0.00060648366
-0.0023244548
0.0003488921
-0.002330969
8.9035502e-05
-0.0023149275
-0.00017051828
-0.0022766274
-0.00042724909
-0.0022165877
-0.0006787085
-0.0021355355
-0.00092254982
-0.0020343889
-0.0011565487
-0.0019142408
-0.0013786164
-0.0017763413
-0.0015868132
-0.001622081