/*--------------------------------*- C++ -*----------------------------------*\
| =========                 |                                                 |
| \\      /  F ield         | OpenFOAM: The Open Source CFD Toolbox           |
|  \\    /   O peration     | Version:  2106                                  |
|   \\  /    A nd           | Website:  www.openfoam.com                      |
|    \\/     M anipulation  |                                                 |
\*---------------------------------------------------------------------------*/
FoamFile
{
    version     2.0;
    format      ascii;
    arch        "LSB;label=32;scalar=64";
    class       volScalarField;
    location    "2.5";
    object      p;
}
// * * * * * * * * * * * * * * * * * * * * * * * * * * * * * * * * * * * * * //

dimensions      [1 -1 -2 0 0 0 0];

internalField   nonuniform List<scalar> 
90000
(
0
-5.92185e-08
1.00486e-07
4.51649e-07
9.69607e-07
1.64117e-06
2.46142e-06
3.4288e-06
4.54105e-06
5.79514e-06
7.18726e-06
8.71316e-06
1.03694e-05
1.2152e-05
1.40579e-05
1.60838e-05
1.8226e-05
2.0481e-05
2.28451e-05
2.5314e-05
2.78833e-05
3.05488e-05
3.33057e-05
3.61489e-05
3.90736e-05
4.20746e-05
4.51463e-05
4.82835e-05
5.14806e-05
5.4732e-05
5.80317e-05
6.13741e-05
6.47533e-05
6.81633e-05
7.1598e-05
7.50514e-05
7.85176e-05
8.19902e-05
8.54632e-05
8.89305e-05
9.23861e-05
9.58237e-05
9.92373e-05
0.000102621
0.000105969
0.000109275
0.000112533
0.000115737
0.000118883
0.000121964
0.000124976
0.000127911
0.000130767
0.000133536
0.000136216
0.0001388
0.000141285
0.000143665
0.000145938
0.000148098
0.000150142
0.000152066
0.000153867
0.000155542
0.000157088
0.000158501
0.00015978
0.000160922
0.000161925
0.000162787
0.000163507
0.000164084
0.000164516
0.000164803
0.000164944
0.00016494
0.000164789
0.000164492
0.000164051
0.000163464
0.000162734
0.000161862
0.00016085
0.000159698
0.000158409
0.000156986
0.00015543
0.000153746
0.000151934
0.000149999
0.000147945
0.000145774
0.000143491
0.000141099
0.000138603
0.000136007
0.000133316
0.000130534
0.000127667
0.000124719
0.000121695
0.000118602
0.000115444
0.000112226
0.000108955
0.000105637
0.000102276
9.8879e-05
9.5452e-05
9.20008e-05
8.85315e-05
8.50501e-05
8.15627e-05
7.80754e-05
7.45944e-05
7.11257e-05
6.76756e-05
6.425e-05
6.0855e-05
5.74965e-05
5.41804e-05
5.09124e-05
4.76983e-05
4.45438e-05
4.14544e-05
3.84354e-05
3.54922e-05
3.26299e-05
2.98536e-05
2.71681e-05
2.45781e-05
2.20882e-05
1.97028e-05
1.74259e-05
1.52617e-05
1.32137e-05
1.12856e-05
9.48081e-06
7.80235e-06
6.25318e-06
4.836e-06
3.5533e-06
2.4073e-06
1.39996e-06
5.33012e-07
-1.92064e-07
-7.74e-07
-1.21181e-06
-1.50481e-06
-1.65233e-06
-0.00666702
-0.00666696
-0.00666675
-0.00666638
-0.00666585
-0.00666518
-0.00666435
-0.00666338
-0.00666226
-0.00666101
-0.00665961
-0.00665808
-0.00665642
-0.00665464
-0.00665273
-0.0066507
-0.00664855
-0.00664629
-0.00664393
-0.00664145
-0.00663888
-0.00663621
-0.00663345
-0.0066306
-0.00662767
-0.00662466
-0.00662159
-0.00661844
-0.00661524
-0.00661198
-0.00660868
-0.00660533
-0.00660194
-0.00659853
-0.00659509
-0.00659163
-0.00658816
-0.00658468
-0.0065812
-0.00657772
-0.00657426
-0.00657082
-0.0065674
-0.00656401
-0.00656066
-0.00655735
-0.00655408
-0.00655087
-0.00654772
-0.00654463
-0.00654162
-0.00653868
-0.00653582
-0.00653304
-0.00653036
-0.00652777
-0.00652528
-0.00652289
-0.00652062
-0.00651845
-0.00651641
-0.00651448
-0.00651267
-0.006511
-0.00650945
-0.00650803
-0.00650675
-0.00650561
-0.0065046
-0.00650374
-0.00650302
-0.00650244
-0.00650201
-0.00650172
-0.00650158
-0.00650158
-0.00650173
-0.00650203
-0.00650247
-0.00650306
-0.00650379
-0.00650467
-0.00650568
-0.00650683
-0.00650812
-0.00650955
-0.00651111
-0.0065128
-0.00651461
-0.00651655
-0.00651861
-0.00652078
-0.00652307
-0.00652547
-0.00652797
-0.00653057
-0.00653326
-0.00653605
-0.00653892
-0.00654187
-0.0065449
-0.006548
-0.00655116
-0.00655439
-0.00655766
-0.00656099
-0.00656435
-0.00656776
-0.00657119
-0.00657465
-0.00657812
-0.00658161
-0.0065851
-0.0065886
-0.00659208
-0.00659556
-0.00659902
-0.00660245
-0.00660585
-0.00660921
-0.00661253
-0.00661581
-0.00661903
-0.00662219
-0.00662528
-0.00662831
-0.00663125
-0.00663412
-0.0066369
-0.00663959
-0.00664219
-0.00664468
-0.00664707
-0.00664935
-0.00665152
-0.00665357
-0.0066555
-0.00665731
-0.00665899
-0.00666054
-0.00666196
-0.00666325
-0.0066644
-0.00666541
-0.00666627
-0.006667
-0.00666758
-0.00666802
-0.00666832
-0.00666846
-0.0133341
-0.013334
-0.0133338
-0.0133334
-0.0133328
-0.0133321
-0.0133313
-0.0133303
-0.0133292
-0.0133279
-0.0133265
-0.013325
-0.0133233
-0.0133216
-0.0133196
-0.0133176
-0.0133154
-0.0133132
-0.0133108
-0.0133083
-0.0133057
-0.0133031
-0.0133003
-0.0132974
-0.0132945
-0.0132915
-0.0132884
-0.0132852
-0.013282
-0.0132787
-0.0132754
-0.0132721
-0.0132687
-0.0132652
-0.0132618
-0.0132583
-0.0132548
-0.0132513
-0.0132479
-0.0132444
-0.0132409
-0.0132374
-0.013234
-0.0132306
-0.0132272
-0.0132239
-0.0132206
-0.0132174
-0.0132143
-0.0132112
-0.0132081
-0.0132052
-0.0132023
-0.0131995
-0.0131968
-0.0131942
-0.0131917
-0.0131893
-0.0131871
-0.0131849
-0.0131828
-0.0131809
-0.0131791
-0.0131774
-0.0131759
-0.0131744
-0.0131731
-0.013172
-0.013171
-0.0131701
-0.0131694
-0.0131688
-0.0131684
-0.0131681
-0.013168
-0.013168
-0.0131681
-0.0131684
-0.0131689
-0.0131694
-0.0131702
-0.0131711
-0.0131721
-0.0131732
-0.0131745
-0.013176
-0.0131775
-0.0131792
-0.013181
-0.013183
-0.013185
-0.0131872
-0.0131895
-0.0131919
-0.0131944
-0.013197
-0.0131997
-0.0132025
-0.0132054
-0.0132084
-0.0132114
-0.0132145
-0.0132177
-0.0132209
-0.0132242
-0.0132276
-0.0132309
-0.0132344
-0.0132378
-0.0132413
-0.0132448
-0.0132483
-0.0132518
-0.0132553
-0.0132588
-0.0132623
-0.0132657
-0.0132692
-0.0132726
-0.013276
-0.0132793
-0.0132826
-0.0132858
-0.013289
-0.0132921
-0.0132951
-0.0132981
-0.013301
-0.0133037
-0.0133064
-0.0133091
-0.0133116
-0.013314
-0.0133162
-0.0133184
-0.0133205
-0.0133224
-0.0133242
-0.0133259
-0.0133275
-0.0133289
-0.0133302
-0.0133313
-0.0133324
-0.0133332
-0.013334
-0.0133345
-0.013335
-0.0133353
-0.0133354
-0.0200013
-0.0200012
-0.0200009
-0.0200005
-0.02
-0.0199993
-0.0199984
-0.0199974
-0.0199963
-0.019995
-0.0199936
-0.0199921
-0.0199904
-0.0199886
-0.0199867
-0.0199846
-0.0199825
-0.0199802
-0.0199778
-0.0199753
-0.0199727
-0.01997
-0.0199672
-0.0199643
-0.0199614
-0.0199583
-0.0199552
-0.0199521
-0.0199488
-0.0199456
-0.0199422
-0.0199388
-0.0199354
-0.019932
-0.0199285
-0.019925
-0.0199215
-0.019918
-0.0199145
-0.019911
-0.0199075
-0.019904
-0.0199006
-0.0198972
-0.0198938
-0.0198904
-0.0198871
-0.0198839
-0.0198807
-0.0198776
-0.0198746
-0.0198716
-0.0198687
-0.0198659
-0.0198632
-0.0198606
-0.0198581
-0.0198557
-0.0198534
-0.0198512
-0.0198491
-0.0198472
-0.0198454
-0.0198437
-0.0198421
-0.0198407
-0.0198394
-0.0198383
-0.0198372
-0.0198364
-0.0198356
-0.0198351
-0.0198346
-0.0198343
-0.0198342
-0.0198342
-0.0198343
-0.0198346
-0.0198351
-0.0198357
-0.0198364
-0.0198373
-0.0198383
-0.0198395
-0.0198408
-0.0198422
-0.0198438
-0.0198455
-0.0198473
-0.0198493
-0.0198514
-0.0198536
-0.0198559
-0.0198583
-0.0198608
-0.0198634
-0.0198661
-0.019869
-0.0198719
-0.0198748
-0.0198779
-0.019881
-0.0198842
-0.0198875
-0.0198908
-0.0198941
-0.0198975
-0.0199009
-0.0199044
-0.0199079
-0.0199114
-0.0199149
-0.0199184
-0.019922
-0.0199255
-0.019929
-0.0199325
-0.0199359
-0.0199394
-0.0199428
-0.0199461
-0.0199494
-0.0199527
-0.0199558
-0.019959
-0.019962
-0.019965
-0.0199679
-0.0199707
-0.0199734
-0.019976
-0.0199785
-0.0199809
-0.0199832
-0.0199854
-0.0199875
-0.0199895
-0.0199913
-0.019993
-0.0199945
-0.019996
-0.0199973
-0.0199984
-0.0199994
-0.0200003
-0.020001
-0.0200016
-0.0200021
-0.0200024
-0.0200025
-0.0266686
-0.0266685
-0.0266682
-0.0266678
-0.0266672
-0.0266665
-0.0266657
-0.0266647
-0.0266635
-0.0266622
-0.0266608
-0.0266593
-0.0266576
-0.0266558
-0.0266538
-0.0266518
-0.0266496
-0.0266473
-0.0266449
-0.0266424
-0.0266397
-0.026637
-0.0266342
-0.0266313
-0.0266284
-0.0266253
-0.0266222
-0.026619
-0.0266157
-0.0266124
-0.0266091
-0.0266057
-0.0266022
-0.0265988
-0.0265953
-0.0265917
-0.0265882
-0.0265847
-0.0265811
-0.0265776
-0.0265741
-0.0265706
-0.0265671
-0.0265637
-0.0265603
-0.0265569
-0.0265536
-0.0265503
-0.0265471
-0.026544
-0.0265409
-0.026538
-0.026535
-0.0265322
-0.0265295
-0.0265269
-0.0265243
-0.0265219
-0.0265196
-0.0265174
-0.0265153
-0.0265134
-0.0265115
-0.0265098
-0.0265083
-0.0265068
-0.0265055
-0.0265044
-0.0265033
-0.0265025
-0.0265017
-0.0265011
-0.0265007
-0.0265004
-0.0265003
-0.0265003
-0.0265004
-0.0265007
-0.0265012
-0.0265018
-0.0265025
-0.0265034
-0.0265044
-0.0265056
-0.0265069
-0.0265084
-0.0265099
-0.0265117
-0.0265135
-0.0265155
-0.0265176
-0.0265198
-0.0265221
-0.0265245
-0.0265271
-0.0265297
-0.0265324
-0.0265353
-0.0265382
-0.0265412
-0.0265443
-0.0265474
-0.0265506
-0.0265539
-0.0265572
-0.0265606
-0.026564
-0.0265675
-0.026571
-0.0265745
-0.026578
-0.0265816
-0.0265851
-0.0265887
-0.0265922
-0.0265957
-0.0265992
-0.0266027
-0.0266062
-0.0266096
-0.026613
-0.0266163
-0.0266196
-0.0266228
-0.0266259
-0.026629
-0.026632
-0.0266349
-0.0266377
-0.0266404
-0.0266431
-0.0266456
-0.026648
-0.0266504
-0.0266526
-0.0266546
-0.0266566
-0.0266584
-0.0266602
-0.0266617
-0.0266632
-0.0266645
-0.0266656
-0.0266667
-0.0266676
-0.0266683
-0.0266689
-0.0266693
-0.0266696
-0.0266698
-0.0333361
-0.0333359
-0.0333356
-0.0333352
-0.0333346
-0.0333339
-0.0333331
-0.033332
-0.0333309
-0.0333296
-0.0333282
-0.0333266
-0.0333249
-0.033323
-0.0333211
-0.033319
-0.0333168
-0.0333145
-0.0333121
-0.0333095
-0.0333069
-0.0333042
-0.0333013
-0.0332984
-0.0332954
-0.0332923
-0.0332892
-0.0332859
-0.0332827
-0.0332793
-0.0332759
-0.0332725
-0.033269
-0.0332655
-0.033262
-0.0332585
-0.0332549
-0.0332513
-0.0332478
-0.0332442
-0.0332407
-0.0332372
-0.0332336
-0.0332302
-0.0332267
-0.0332233
-0.03322
-0.0332167
-0.0332135
-0.0332103
-0.0332072
-0.0332042
-0.0332013
-0.0331984
-0.0331957
-0.033193
-0.0331905
-0.033188
-0.0331857
-0.0331835
-0.0331814
-0.0331794
-0.0331776
-0.0331759
-0.0331743
-0.0331728
-0.0331715
-0.0331703
-0.0331693
-0.0331684
-0.0331677
-0.0331671
-0.0331666
-0.0331663
-0.0331662
-0.0331662
-0.0331664
-0.0331667
-0.0331671
-0.0331677
-0.0331685
-0.0331694
-0.0331704
-0.0331716
-0.0331729
-0.0331744
-0.033176
-0.0331777
-0.0331796
-0.0331815
-0.0331836
-0.0331859
-0.0331882
-0.0331907
-0.0331932
-0.0331959
-0.0331987
-0.0332015
-0.0332045
-0.0332075
-0.0332106
-0.0332138
-0.033217
-0.0332203
-0.0332237
-0.0332271
-0.0332305
-0.033234
-0.0332375
-0.0332411
-0.0332446
-0.0332482
-0.0332518
-0.0332554
-0.0332589
-0.0332625
-0.033266
-0.0332695
-0.033273
-0.0332765
-0.0332799
-0.0332832
-0.0332865
-0.0332898
-0.0332929
-0.033296
-0.0332991
-0.033302
-0.0333048
-0.0333076
-0.0333103
-0.0333128
-0.0333153
-0.0333176
-0.0333198
-0.0333219
-0.0333239
-0.0333257
-0.0333275
-0.0333291
-0.0333305
-0.0333318
-0.033333
-0.033334
-0.0333349
-0.0333357
-0.0333363
-0.0333367
-0.033337
-0.0333372
-0.0400037
-0.0400035
-0.0400032
-0.0400028
-0.0400022
-0.0400015
-0.0400006
-0.0399996
-0.0399984
-0.0399971
-0.0399956
-0.039994
-0.0399923
-0.0399905
-0.0399885
-0.0399864
-0.0399842
-0.0399818
-0.0399794
-0.0399768
-0.0399741
-0.0399714
-0.0399685
-0.0399656
-0.0399625
-0.0399594
-0.0399562
-0.039953
-0.0399497
-0.0399463
-0.0399429
-0.0399394
-0.0399359
-0.0399324
-0.0399288
-0.0399252
-0.0399216
-0.039918
-0.0399144
-0.0399108
-0.0399072
-0.0399037
-0.0399001
-0.0398966
-0.0398932
-0.0398897
-0.0398863
-0.039883
-0.0398798
-0.0398766
-0.0398734
-0.0398704
-0.0398674
-0.0398646
-0.0398618
-0.0398591
-0.0398565
-0.0398541
-0.0398517
-0.0398495
-0.0398473
-0.0398453
-0.0398435
-0.0398417
-0.0398401
-0.0398387
-0.0398373
-0.0398362
-0.0398351
-0.0398342
-0.0398335
-0.0398329
-0.0398324
-0.0398321
-0.039832
-0.039832
-0.0398322
-0.0398325
-0.0398329
-0.0398335
-0.0398343
-0.0398352
-0.0398362
-0.0398374
-0.0398388
-0.0398402
-0.0398419
-0.0398436
-0.0398455
-0.0398475
-0.0398496
-0.0398519
-0.0398542
-0.0398567
-0.0398593
-0.039862
-0.0398648
-0.0398677
-0.0398706
-0.0398737
-0.0398768
-0.03988
-0.0398833
-0.0398866
-0.03989
-0.0398935
-0.039897
-0.0399005
-0.039904
-0.0399076
-0.0399112
-0.0399148
-0.0399184
-0.0399221
-0.0399257
-0.0399293
-0.0399328
-0.0399364
-0.0399399
-0.0399434
-0.0399468
-0.0399502
-0.0399536
-0.0399568
-0.03996
-0.0399632
-0.0399662
-0.0399692
-0.0399721
-0.0399748
-0.0399775
-0.0399801
-0.0399826
-0.0399849
-0.0399872
-0.0399893
-0.0399913
-0.0399932
-0.0399949
-0.0399965
-0.039998
-0.0399993
-0.0400005
-0.0400016
-0.0400025
-0.0400032
-0.0400038
-0.0400043
-0.0400046
-0.0400047
-0.0466714
-0.0466712
-0.0466709
-0.0466705
-0.0466699
-0.0466692
-0.0466683
-0.0466672
-0.046666
-0.0466647
-0.0466632
-0.0466616
-0.0466599
-0.046658
-0.046656
-0.0466539
-0.0466516
-0.0466493
-0.0466468
-0.0466442
-0.0466415
-0.0466387
-0.0466358
-0.0466328
-0.0466297
-0.0466266
-0.0466234
-0.0466201
-0.0466167
-0.0466133
-0.0466098
-0.0466063
-0.0466028
-0.0465992
-0.0465956
-0.046592
-0.0465883
-0.0465847
-0.046581
-0.0465774
-0.0465738
-0.0465702
-0.0465666
-0.046563
-0.0465595
-0.0465561
-0.0465526
-0.0465493
-0.046546
-0.0465427
-0.0465396
-0.0465365
-0.0465335
-0.0465306
-0.0465278
-0.0465251
-0.0465225
-0.04652
-0.0465176
-0.0465153
-0.0465132
-0.0465111
-0.0465093
-0.0465075
-0.0465059
-0.0465044
-0.046503
-0.0465018
-0.0465008
-0.0464999
-0.0464991
-0.0464985
-0.0464981
-0.0464978
-0.0464976
-0.0464976
-0.0464978
-0.0464981
-0.0464986
-0.0464992
-0.0464999
-0.0465009
-0.0465019
-0.0465031
-0.0465045
-0.046506
-0.0465076
-0.0465094
-0.0465113
-0.0465133
-0.0465155
-0.0465177
-0.0465201
-0.0465226
-0.0465253
-0.046528
-0.0465308
-0.0465337
-0.0465367
-0.0465398
-0.046543
-0.0465462
-0.0465496
-0.0465529
-0.0465564
-0.0465598
-0.0465634
-0.0465669
-0.0465705
-0.0465742
-0.0465778
-0.0465814
-0.0465851
-0.0465888
-0.0465924
-0.0465961
-0.0465997
-0.0466033
-0.0466068
-0.0466104
-0.0466138
-0.0466173
-0.0466206
-0.0466239
-0.0466272
-0.0466304
-0.0466334
-0.0466364
-0.0466394
-0.0466422
-0.0466449
-0.0466475
-0.04665
-0.0466524
-0.0466547
-0.0466568
-0.0466588
-0.0466607
-0.0466625
-0.0466641
-0.0466656
-0.046667
-0.0466682
-0.0466692
-0.0466701
-0.0466709
-0.0466715
-0.046672
-0.0466723
-0.0466724
-0.0533393
-0.0533391
-0.0533388
-0.0533384
-0.0533378
-0.053337
-0.0533361
-0.053335
-0.0533338
-0.0533325
-0.053331
-0.0533294
-0.0533276
-0.0533257
-0.0533237
-0.0533215
-0.0533192
-0.0533168
-0.0533143
-0.0533117
-0.0533089
-0.0533061
-0.0533032
-0.0533001
-0.053297
-0.0532938
-0.0532906
-0.0532872
-0.0532838
-0.0532804
-0.0532768
-0.0532733
-0.0532697
-0.0532661
-0.0532624
-0.0532587
-0.0532551
-0.0532514
-0.0532477
-0.053244
-0.0532403
-0.0532366
-0.053233
-0.0532294
-0.0532258
-0.0532223
-0.0532189
-0.0532155
-0.0532121
-0.0532088
-0.0532056
-0.0532025
-0.0531995
-0.0531965
-0.0531937
-0.0531909
-0.0531883
-0.0531857
-0.0531833
-0.053181
-0.0531789
-0.0531768
-0.0531749
-0.0531731
-0.0531715
-0.05317
-0.0531686
-0.0531674
-0.0531663
-0.0531654
-0.0531646
-0.053164
-0.0531636
-0.0531633
-0.0531631
-0.0531631
-0.0531633
-0.0531636
-0.0531641
-0.0531647
-0.0531655
-0.0531664
-0.0531675
-0.0531687
-0.0531701
-0.0531716
-0.0531732
-0.053175
-0.0531769
-0.053179
-0.0531812
-0.0531835
-0.0531859
-0.0531885
-0.0531911
-0.0531939
-0.0531967
-0.0531997
-0.0532027
-0.0532059
-0.0532091
-0.0532124
-0.0532157
-0.0532192
-0.0532226
-0.0532262
-0.0532297
-0.0532334
-0.053237
-0.0532407
-0.0532444
-0.0532481
-0.0532518
-0.0532555
-0.0532592
-0.0532629
-0.0532665
-0.0532702
-0.0532738
-0.0532774
-0.0532809
-0.0532844
-0.0532878
-0.0532911
-0.0532944
-0.0532976
-0.0533008
-0.0533038
-0.0533068
-0.0533096
-0.0533124
-0.053315
-0.0533176
-0.05332
-0.0533223
-0.0533245
-0.0533265
-0.0533284
-0.0533302
-0.0533319
-0.0533334
-0.0533347
-0.053336
-0.053337
-0.053338
-0.0533387
-0.0533393
-0.0533398
-0.0533401
-0.0533403
-0.0600073
-0.0600072
-0.0600068
-0.0600064
-0.0600058
-0.060005
-0.0600041
-0.060003
-0.0600018
-0.0600004
-0.0599989
-0.0599972
-0.0599954
-0.0599935
-0.0599914
-0.0599893
-0.0599869
-0.0599845
-0.0599819
-0.0599793
-0.0599765
-0.0599736
-0.0599706
-0.0599676
-0.0599644
-0.0599611
-0.0599578
-0.0599544
-0.059951
-0.0599475
-0.0599439
-0.0599403
-0.0599366
-0.059933
-0.0599293
-0.0599255
-0.0599218
-0.059918
-0.0599143
-0.0599105
-0.0599068
-0.0599031
-0.0598994
-0.0598957
-0.0598921
-0.0598886
-0.059885
-0.0598816
-0.0598782
-0.0598749
-0.0598716
-0.0598684
-0.0598653
-0.0598624
-0.0598595
-0.0598567
-0.059854
-0.0598514
-0.059849
-0.0598466
-0.0598444
-0.0598423
-0.0598404
-0.0598386
-0.0598369
-0.0598354
-0.059834
-0.0598328
-0.0598317
-0.0598308
-0.05983
-0.0598294
-0.0598289
-0.0598286
-0.0598284
-0.0598284
-0.0598286
-0.0598289
-0.0598294
-0.05983
-0.0598308
-0.0598318
-0.0598329
-0.0598341
-0.0598355
-0.059837
-0.0598387
-0.0598405
-0.0598425
-0.0598446
-0.0598468
-0.0598491
-0.0598516
-0.0598542
-0.0598569
-0.0598597
-0.0598626
-0.0598656
-0.0598687
-0.0598719
-0.0598751
-0.0598785
-0.0598819
-0.0598853
-0.0598889
-0.0598925
-0.0598961
-0.0598998
-0.0599035
-0.0599072
-0.0599109
-0.0599147
-0.0599184
-0.0599222
-0.059926
-0.0599297
-0.0599334
-0.0599371
-0.0599408
-0.0599444
-0.059948
-0.0599515
-0.059955
-0.0599584
-0.0599617
-0.059965
-0.0599682
-0.0599713
-0.0599743
-0.0599772
-0.05998
-0.0599826
-0.0599852
-0.0599877
-0.05999
-0.0599922
-0.0599943
-0.0599963
-0.0599981
-0.0599997
-0.0600013
-0.0600027
-0.0600039
-0.060005
-0.0600059
-0.0600067
-0.0600073
-0.0600078
-0.0600081
-0.0600083
-0.0666755
-0.0666753
-0.066675
-0.0666746
-0.0666739
-0.0666731
-0.0666722
-0.0666711
-0.0666699
-0.0666685
-0.0666669
-0.0666652
-0.0666634
-0.0666615
-0.0666594
-0.0666571
-0.0666548
-0.0666523
-0.0666497
-0.066647
-0.0666441
-0.0666412
-0.0666382
-0.0666351
-0.0666318
-0.0666285
-0.0666252
-0.0666217
-0.0666182
-0.0666146
-0.066611
-0.0666073
-0.0666036
-0.0665999
-0.0665961
-0.0665923
-0.0665885
-0.0665847
-0.0665809
-0.0665771
-0.0665733
-0.0665695
-0.0665658
-0.066562
-0.0665584
-0.0665547
-0.0665512
-0.0665476
-0.0665442
-0.0665408
-0.0665375
-0.0665343
-0.0665311
-0.0665281
-0.0665252
-0.0665223
-0.0665196
-0.066517
-0.0665145
-0.0665121
-0.0665099
-0.0665078
-0.0665058
-0.0665039
-0.0665022
-0.0665007
-0.0664993
-0.066498
-0.0664969
-0.066496
-0.0664952
-0.0664946
-0.0664941
-0.0664938
-0.0664936
-0.0664936
-0.0664938
-0.0664941
-0.0664946
-0.0664952
-0.066496
-0.066497
-0.0664981
-0.0664994
-0.0665008
-0.0665023
-0.066504
-0.0665059
-0.0665079
-0.06651
-0.0665123
-0.0665146
-0.0665171
-0.0665198
-0.0665225
-0.0665254
-0.0665283
-0.0665314
-0.0665345
-0.0665377
-0.0665411
-0.0665445
-0.0665479
-0.0665515
-0.066555
-0.0665587
-0.0665624
-0.0665661
-0.0665699
-0.0665737
-0.0665775
-0.0665813
-0.0665851
-0.0665889
-0.0665928
-0.0665966
-0.0666004
-0.0666041
-0.0666078
-0.0666115
-0.0666152
-0.0666188
-0.0666223
-0.0666257
-0.0666291
-0.0666324
-0.0666357
-0.0666388
-0.0666419
-0.0666448
-0.0666477
-0.0666504
-0.066653
-0.0666555
-0.0666579
-0.0666601
-0.0666622
-0.0666642
-0.0666661
-0.0666678
-0.0666693
-0.0666707
-0.066672
-0.0666731
-0.066674
-0.0666748
-0.0666755
-0.066676
-0.0666763
-0.0666764
-0.0733439
-0.0733437
-0.0733434
-0.0733429
-0.0733422
-0.0733414
-0.0733405
-0.0733394
-0.0733381
-0.0733367
-0.0733351
-0.0733334
-0.0733315
-0.0733295
-0.0733274
-0.0733251
-0.0733227
-0.0733202
-0.0733175
-0.0733148
-0.0733119
-0.0733089
-0.0733058
-0.0733026
-0.0732994
-0.073296
-0.0732926
-0.0732891
-0.0732855
-0.0732819
-0.0732782
-0.0732744
-0.0732706
-0.0732668
-0.073263
-0.0732591
-0.0732553
-0.0732514
-0.0732475
-0.0732436
-0.0732397
-0.0732359
-0.0732321
-0.0732283
-0.0732246
-0.0732209
-0.0732172
-0.0732136
-0.0732101
-0.0732067
-0.0732033
-0.0732
-0.0731968
-0.0731937
-0.0731907
-0.0731879
-0.0731851
-0.0731824
-0.0731799
-0.0731775
-0.0731752
-0.073173
-0.073171
-0.0731691
-0.0731674
-0.0731658
-0.0731644
-0.0731631
-0.073162
-0.073161
-0.0731602
-0.0731596
-0.0731591
-0.0731588
-0.0731586
-0.0731586
-0.0731588
-0.0731591
-0.0731596
-0.0731603
-0.0731611
-0.0731621
-0.0731632
-0.0731645
-0.0731659
-0.0731675
-0.0731692
-0.0731711
-0.0731731
-0.0731753
-0.0731776
-0.07318
-0.0731826
-0.0731853
-0.073188
-0.0731909
-0.073194
-0.0731971
-0.0732003
-0.0732036
-0.0732069
-0.0732104
-0.0732139
-0.0732175
-0.0732212
-0.0732249
-0.0732286
-0.0732324
-0.0732363
-0.0732401
-0.073244
-0.0732479
-0.0732518
-0.0732557
-0.0732596
-0.0732634
-0.0732673
-0.0732711
-0.0732749
-0.0732787
-0.0732824
-0.073286
-0.0732896
-0.0732931
-0.0732966
-0.0733
-0.0733033
-0.0733065
-0.0733096
-0.0733126
-0.0733155
-0.0733182
-0.0733209
-0.0733234
-0.0733259
-0.0733282
-0.0733303
-0.0733323
-0.0733342
-0.0733359
-0.0733375
-0.073339
-0.0733402
-0.0733414
-0.0733423
-0.0733431
-0.0733438
-0.0733443
-0.0733446
-0.0733448
-0.0800124
-0.0800122
-0.0800119
-0.0800114
-0.0800107
-0.0800099
-0.0800089
-0.0800078
-0.0800065
-0.080005
-0.0800034
-0.0800017
-0.0799998
-0.0799977
-0.0799956
-0.0799932
-0.0799908
-0.0799882
-0.0799855
-0.0799827
-0.0799798
-0.0799767
-0.0799736
-0.0799703
-0.079967
-0.0799636
-0.0799601
-0.0799565
-0.0799528
-0.0799491
-0.0799454
-0.0799416
-0.0799377
-0.0799338
-0.0799299
-0.079926
-0.079922
-0.079918
-0.0799141
-0.0799101
-0.0799062
-0.0799023
-0.0798984
-0.0798945
-0.0798907
-0.0798869
-0.0798832
-0.0798796
-0.079876
-0.0798725
-0.079869
-0.0798657
-0.0798624
-0.0798593
-0.0798562
-0.0798533
-0.0798504
-0.0798477
-0.0798451
-0.0798427
-0.0798403
-0.0798382
-0.0798361
-0.0798342
-0.0798324
-0.0798308
-0.0798294
-0.0798281
-0.0798269
-0.0798259
-0.0798251
-0.0798244
-0.079824
-0.0798236
-0.0798235
-0.0798235
-0.0798236
-0.079824
-0.0798245
-0.0798251
-0.079826
-0.079827
-0.0798281
-0.0798294
-0.0798309
-0.0798325
-0.0798343
-0.0798362
-0.0798383
-0.0798405
-0.0798428
-0.0798453
-0.0798479
-0.0798506
-0.0798535
-0.0798564
-0.0798595
-0.0798627
-0.0798659
-0.0798693
-0.0798727
-0.0798763
-0.0798798
-0.0798835
-0.0798872
-0.079891
-0.0798949
-0.0798987
-0.0799026
-0.0799066
-0.0799105
-0.0799145
-0.0799185
-0.0799224
-0.0799264
-0.0799303
-0.0799343
-0.0799382
-0.079942
-0.0799459
-0.0799496
-0.0799534
-0.079957
-0.0799606
-0.0799641
-0.0799676
-0.0799709
-0.0799742
-0.0799774
-0.0799804
-0.0799834
-0.0799862
-0.0799889
-0.0799915
-0.079994
-0.0799963
-0.0799985
-0.0800006
-0.0800025
-0.0800043
-0.0800059
-0.0800073
-0.0800086
-0.0800098
-0.0800108
-0.0800116
-0.0800123
-0.0800128
-0.0800131
-0.0800133
-0.086681
-0.0866809
-0.0866805
-0.08668
-0.0866794
-0.0866785
-0.0866775
-0.0866764
-0.086675
-0.0866736
-0.0866719
-0.0866701
-0.0866682
-0.0866661
-0.0866639
-0.0866615
-0.086659
-0.0866564
-0.0866536
-0.0866507
-0.0866477
-0.0866446
-0.0866414
-0.0866381
-0.0866347
-0.0866312
-0.0866276
-0.086624
-0.0866202
-0.0866165
-0.0866126
-0.0866087
-0.0866048
-0.0866008
-0.0865968
-0.0865928
-0.0865888
-0.0865847
-0.0865807
-0.0865766
-0.0865726
-0.0865686
-0.0865646
-0.0865607
-0.0865568
-0.086553
-0.0865492
-0.0865454
-0.0865418
-0.0865382
-0.0865347
-0.0865313
-0.0865279
-0.0865247
-0.0865216
-0.0865186
-0.0865157
-0.0865129
-0.0865103
-0.0865078
-0.0865054
-0.0865031
-0.086501
-0.0864991
-0.0864973
-0.0864957
-0.0864942
-0.0864928
-0.0864917
-0.0864907
-0.0864898
-0.0864892
-0.0864886
-0.0864883
-0.0864881
-0.0864882
-0.0864883
-0.0864887
-0.0864892
-0.0864899
-0.0864907
-0.0864917
-0.0864929
-0.0864942
-0.0864957
-0.0864974
-0.0864992
-0.0865012
-0.0865033
-0.0865055
-0.0865079
-0.0865104
-0.0865131
-0.0865159
-0.0865188
-0.0865218
-0.0865249
-0.0865282
-0.0865315
-0.0865349
-0.0865384
-0.086542
-0.0865457
-0.0865495
-0.0865533
-0.0865571
-0.086561
-0.086565
-0.086569
-0.086573
-0.086577
-0.0865811
-0.0865851
-0.0865892
-0.0865932
-0.0865973
-0.0866013
-0.0866053
-0.0866092
-0.0866131
-0.086617
-0.0866208
-0.0866245
-0.0866282
-0.0866318
-0.0866353
-0.0866387
-0.086642
-0.0866453
-0.0866484
-0.0866514
-0.0866543
-0.0866571
-0.0866597
-0.0866622
-0.0866646
-0.0866669
-0.086669
-0.0866709
-0.0866727
-0.0866744
-0.0866759
-0.0866772
-0.0866784
-0.0866794
-0.0866802
-0.0866809
-0.0866814
-0.0866817
-0.0866819
-0.0933499
-0.0933497
-0.0933494
-0.0933488
-0.0933482
-0.0933473
-0.0933463
-0.0933451
-0.0933437
-0.0933422
-0.0933406
-0.0933387
-0.0933367
-0.0933346
-0.0933323
-0.0933299
-0.0933273
-0.0933247
-0.0933218
-0.0933189
-0.0933158
-0.0933126
-0.0933094
-0.093306
-0.0933025
-0.0932989
-0.0932953
-0.0932915
-0.0932877
-0.0932838
-0.0932799
-0.0932759
-0.0932719
-0.0932678
-0.0932638
-0.0932596
-0.0932555
-0.0932514
-0.0932473
-0.0932431
-0.093239
-0.0932349
-0.0932309
-0.0932268
-0.0932229
-0.0932189
-0.093215
-0.0932112
-0.0932075
-0.0932038
-0.0932002
-0.0931967
-0.0931933
-0.09319
-0.0931869
-0.0931838
-0.0931808
-0.093178
-0.0931753
-0.0931727
-0.0931703
-0.093168
-0.0931658
-0.0931639
-0.093162
-0.0931603
-0.0931588
-0.0931575
-0.0931563
-0.0931552
-0.0931544
-0.0931537
-0.0931532
-0.0931528
-0.0931527
-0.0931527
-0.0931528
-0.0931532
-0.0931537
-0.0931544
-0.0931553
-0.0931563
-0.0931575
-0.0931589
-0.0931604
-0.0931621
-0.093164
-0.093166
-0.0931681
-0.0931704
-0.0931729
-0.0931754
-0.0931782
-0.093181
-0.093184
-0.0931871
-0.0931903
-0.0931936
-0.093197
-0.0932005
-0.0932041
-0.0932077
-0.0932115
-0.0932153
-0.0932192
-0.0932232
-0.0932272
-0.0932312
-0.0932353
-0.0932394
-0.0932435
-0.0932476
-0.0932518
-0.0932559
-0.0932601
-0.0932642
-0.0932683
-0.0932724
-0.0932764
-0.0932804
-0.0932843
-0.0932882
-0.0932921
-0.0932958
-0.0932995
-0.0933031
-0.0933066
-0.09331
-0.0933133
-0.0933165
-0.0933195
-0.0933225
-0.0933253
-0.093328
-0.0933306
-0.0933331
-0.0933354
-0.0933375
-0.0933395
-0.0933413
-0.093343
-0.0933445
-0.0933459
-0.0933471
-0.0933481
-0.093349
-0.0933497
-0.0933502
-0.0933506
-0.0933507
-0.100019
-0.100019
-0.100018
-0.100018
-0.100017
-0.100016
-0.100015
-0.100014
-0.100013
-0.100011
-0.100009
-0.100007
-0.100005
-0.100003
-0.100001
-0.0999984
-0.0999958
-0.0999931
-0.0999902
-0.0999872
-0.099984
-0.0999808
-0.0999774
-0.0999739
-0.0999704
-0.0999667
-0.099963
-0.0999591
-0.0999552
-0.0999513
-0.0999473
-0.0999432
-0.0999391
-0.0999349
-0.0999307
-0.0999265
-0.0999223
-0.0999181
-0.0999138
-0.0999096
-0.0999054
-0.0999012
-0.099897
-0.0998929
-0.0998888
-0.0998848
-0.0998809
-0.0998769
-0.0998731
-0.0998694
-0.0998657
-0.0998621
-0.0998586
-0.0998553
-0.099852
-0.0998489
-0.0998458
-0.0998429
-0.0998402
-0.0998375
-0.099835
-0.0998327
-0.0998305
-0.0998285
-0.0998266
-0.0998249
-0.0998233
-0.0998219
-0.0998207
-0.0998196
-0.0998188
-0.0998181
-0.0998175
-0.0998172
-0.099817
-0.099817
-0.0998172
-0.0998175
-0.0998181
-0.0998188
-0.0998197
-0.0998207
-0.099822
-0.0998234
-0.0998249
-0.0998267
-0.0998286
-0.0998306
-0.0998328
-0.0998352
-0.0998377
-0.0998403
-0.0998431
-0.099846
-0.099849
-0.0998522
-0.0998555
-0.0998589
-0.0998623
-0.0998659
-0.0998696
-0.0998734
-0.0998772
-0.0998811
-0.0998851
-0.0998892
-0.0998933
-0.0998974
-0.0999016
-0.0999058
-0.09991
-0.0999142
-0.0999185
-0.0999227
-0.0999269
-0.0999312
-0.0999354
-0.0999395
-0.0999437
-0.0999477
-0.0999518
-0.0999558
-0.0999597
-0.0999635
-0.0999673
-0.0999709
-0.0999745
-0.099978
-0.0999814
-0.0999847
-0.0999878
-0.0999908
-0.0999937
-0.0999965
-0.0999991
-0.100002
-0.100004
-0.100006
-0.100008
-0.10001
-0.100012
-0.100013
-0.100015
-0.100016
-0.100017
-0.100018
-0.100019
-0.100019
-0.10002
-0.10002
-0.106688
-0.106688
-0.106688
-0.106687
-0.106686
-0.106685
-0.106684
-0.106683
-0.106682
-0.10668
-0.106678
-0.106676
-0.106674
-0.106672
-0.10667
-0.106667
-0.106664
-0.106662
-0.106659
-0.106656
-0.106652
-0.106649
-0.106646
-0.106642
-0.106638
-0.106635
-0.106631
-0.106627
-0.106623
-0.106619
-0.106615
-0.10661
-0.106606
-0.106602
-0.106598
-0.106593
-0.106589
-0.106585
-0.10658
-0.106576
-0.106572
-0.106567
-0.106563
-0.106559
-0.106555
-0.106551
-0.106547
-0.106543
-0.106539
-0.106535
-0.106531
-0.106527
-0.106524
-0.10652
-0.106517
-0.106514
-0.106511
-0.106508
-0.106505
-0.106502
-0.1065
-0.106497
-0.106495
-0.106493
-0.106491
-0.106489
-0.106488
-0.106486
-0.106485
-0.106484
-0.106483
-0.106482
-0.106482
-0.106481
-0.106481
-0.106481
-0.106481
-0.106482
-0.106482
-0.106483
-0.106484
-0.106485
-0.106486
-0.106488
-0.106489
-0.106491
-0.106493
-0.106495
-0.106497
-0.1065
-0.106502
-0.106505
-0.106508
-0.106511
-0.106514
-0.106517
-0.106521
-0.106524
-0.106528
-0.106531
-0.106535
-0.106539
-0.106543
-0.106547
-0.106551
-0.106555
-0.106559
-0.106564
-0.106568
-0.106572
-0.106576
-0.106581
-0.106585
-0.106589
-0.106594
-0.106598
-0.106602
-0.106607
-0.106611
-0.106615
-0.106619
-0.106623
-0.106627
-0.106631
-0.106635
-0.106639
-0.106643
-0.106646
-0.10665
-0.106653
-0.106656
-0.106659
-0.106662
-0.106665
-0.106668
-0.10667
-0.106673
-0.106675
-0.106677
-0.106679
-0.106681
-0.106682
-0.106684
-0.106685
-0.106686
-0.106687
-0.106688
-0.106688
-0.106689
-0.106689
-0.113357
-0.113357
-0.113357
-0.113356
-0.113356
-0.113355
-0.113354
-0.113352
-0.113351
-0.113349
-0.113347
-0.113345
-0.113343
-0.113341
-0.113339
-0.113336
-0.113333
-0.11333
-0.113327
-0.113324
-0.113321
-0.113317
-0.113314
-0.11331
-0.113306
-0.113303
-0.113299
-0.113295
-0.113291
-0.113286
-0.113282
-0.113278
-0.113273
-0.113269
-0.113265
-0.11326
-0.113256
-0.113251
-0.113247
-0.113243
-0.113238
-0.113234
-0.113229
-0.113225
-0.113221
-0.113216
-0.113212
-0.113208
-0.113204
-0.1132
-0.113196
-0.113193
-0.113189
-0.113185
-0.113182
-0.113179
-0.113175
-0.113172
-0.113169
-0.113167
-0.113164
-0.113162
-0.113159
-0.113157
-0.113155
-0.113153
-0.113152
-0.11315
-0.113149
-0.113148
-0.113147
-0.113146
-0.113146
-0.113145
-0.113145
-0.113145
-0.113145
-0.113146
-0.113146
-0.113147
-0.113148
-0.113149
-0.11315
-0.113152
-0.113153
-0.113155
-0.113157
-0.113159
-0.113162
-0.113164
-0.113167
-0.11317
-0.113173
-0.113176
-0.113179
-0.113182
-0.113186
-0.113189
-0.113193
-0.113197
-0.1132
-0.113204
-0.113208
-0.113213
-0.113217
-0.113221
-0.113225
-0.11323
-0.113234
-0.113238
-0.113243
-0.113247
-0.113252
-0.113256
-0.113261
-0.113265
-0.11327
-0.113274
-0.113278
-0.113283
-0.113287
-0.113291
-0.113295
-0.113299
-0.113303