/*--------------------------------*- C++ -*----------------------------------*\
| =========                 |                                                 |
| \\      /  F ield         | OpenFOAM: The Open Source CFD Toolbox           |
|  \\    /   O peration     | Version:  2106                                  |
|   \\  /    A nd           | Website:  www.openfoam.com                      |
|    \\/     M anipulation  |                                                 |
\*---------------------------------------------------------------------------*/
FoamFile
{
    version     2.0;
    format      ascii;
    arch        "LSB;label=32;scalar=64";
    class       volVectorField;
    location    "2.5";
    object      U;
}
// * * * * * * * * * * * * * * * * * * * * * * * * * * * * * * * * * * * * * //

dimensions      [0 1 -1 0 0 0 0];

internalField   nonuniform List<vector> 
90000
(
(-5.37387e-06 5.36498e-06 0)
(-1.6106e-05 5.35235e-06 0)
(-2.68002e-05 5.33123e-06 0)
(-3.7443e-05 5.30127e-06 0)
(-4.80173e-05 5.26245e-06 0)
(-5.8505e-05 5.21476e-06 0)
(-6.88885e-05 5.1582e-06 0)
(-7.91498e-05 5.09281e-06 0)
(-8.92715e-05 5.01864e-06 0)
(-9.92359e-05 4.93578e-06 0)
(-0.000109026 4.84434e-06 0)
(-0.000118625 4.74447e-06 0)
(-0.000128015 4.63632e-06 0)
(-0.000137181 4.52006e-06 0)
(-0.000146106 4.39591e-06 0)
(-0.000154774 4.26406e-06 0)
(-0.000163172 4.12475e-06 0)
(-0.000171283 3.97821e-06 0)
(-0.000179094 3.8247e-06 0)
(-0.000186591 3.66449e-06 0)
(-0.000193761 3.49785e-06 0)
(-0.00020059 3.32508e-06 0)
(-0.000207069 3.14648e-06 0)
(-0.000213184 2.96236e-06 0)
(-0.000218925 2.77304e-06 0)
(-0.000224282 2.57886e-06 0)
(-0.000229246 2.38015e-06 0)
(-0.000233809 2.17727e-06 0)
(-0.000237961 1.97057e-06 0)
(-0.000241695 1.7604e-06 0)
(-0.000245006 1.54715e-06 0)
(-0.000247888 1.33118e-06 0)
(-0.000250334 1.11287e-06 0)
(-0.000252342 8.92605e-07 0)
(-0.000253907 6.70771e-07 0)
(-0.000255026 4.47757e-07 0)
(-0.000255699 2.23953e-07 0)
(-0.000255923 -2.47007e-10 0)
(-0.000255698 -2.24451e-07 0)
(-0.000255024 -4.48265e-07 0)
(-0.000253904 -6.71298e-07 0)
(-0.000252338 -8.93157e-07 0)
(-0.000250329 -1.11345e-06 0)
(-0.000247881 -1.3318e-06 0)
(-0.000244999 -1.54782e-06 0)
(-0.000241686 -1.76112e-06 0)
(-0.00023795 -1.97134e-06 0)
(-0.000233796 -2.17811e-06 0)
(-0.000229233 -2.38105e-06 0)
(-0.000224267 -2.57983e-06 0)
(-0.000218907 -2.77408e-06 0)
(-0.000213164 -2.96347e-06 0)
(-0.000207046 -3.14766e-06 0)
(-0.000200566 -3.32633e-06 0)
(-0.000193733 -3.49917e-06 0)
(-0.000186561 -3.66587e-06 0)
(-0.000179061 -3.82615e-06 0)
(-0.000171247 -3.97971e-06 0)
(-0.000163133 -4.12629e-06 0)
(-0.000154733 -4.26564e-06 0)
(-0.000146061 -4.3975e-06 0)
(-0.000137132 -4.52165e-06 0)
(-0.000127963 -4.63786e-06 0)
(-0.00011857 -4.74594e-06 0)
(-0.000108969 -4.8457e-06 0)
(-9.9176e-05 -4.93695e-06 0)
(-8.92094e-05 -5.01954e-06 0)
(-7.90862e-05 -5.09332e-06 0)
(-6.88242e-05 -5.15816e-06 0)
(-5.84415e-05 -5.21396e-06 0)
(-4.79563e-05 -5.2606e-06 0)
(-3.73869e-05 -5.29802e-06 0)
(-2.67519e-05 -5.32614e-06 0)
(-1.60699e-05 -5.34491e-06 0)
(-5.35986e-06 -5.35431e-06 0)
(5.35979e-06 -5.35431e-06 0)
(1.60699e-05 -5.34491e-06 0)
(2.67518e-05 -5.32614e-06 0)
(3.73868e-05 -5.29802e-06 0)
(4.79562e-05 -5.2606e-06 0)
(5.84415e-05 -5.21396e-06 0)
(6.88242e-05 -5.15816e-06 0)
(7.90861e-05 -5.09332e-06 0)
(8.92093e-05 -5.01954e-06 0)
(9.91759e-05 -4.93695e-06 0)
(0.000108969 -4.8457e-06 0)
(0.00011857 -4.74594e-06 0)
(0.000127963 -4.63786e-06 0)
(0.000137132 -4.52165e-06 0)
(0.000146061 -4.3975e-06 0)
(0.000154733 -4.26564e-06 0)
(0.000163133 -4.12629e-06 0)
(0.000171247 -3.97971e-06 0)
(0.000179061 -3.82615e-06 0)
(0.000186561 -3.66587e-06 0)
(0.000193733 -3.49917e-06 0)
(0.000200566 -3.32633e-06 0)
(0.000207046 -3.14766e-06 0)
(0.000213164 -2.96347e-06 0)
(0.000218907 -2.77408e-06 0)
(0.000224266 -2.57983e-06 0)
(0.000229232 -2.38105e-06 0)
(0.000233796 -2.17811e-06 0)
(0.00023795 -1.97134e-06 0)
(0.000241686 -1.76112e-06 0)
(0.000244999 -1.54782e-06 0)
(0.000247881 -1.3318e-06 0)
(0.000250329 -1.11345e-06 0)
(0.000252338 -8.93156e-07 0)
(0.000253904 -6.71297e-07 0)
(0.000255024 -4.48264e-07 0)
(0.000255698 -2.2445e-07 0)
(0.000255923 -2.4565e-10 0)
(0.000255699 2.23955e-07 0)
(0.000255026 4.47758e-07 0)
(0.000253907 6.70773e-07 0)
(0.000252342 8.92607e-07 0)
(0.000250334 1.11287e-06 0)
(0.000247888 1.33118e-06 0)
(0.000245006 1.54715e-06 0)
(0.000241695 1.76041e-06 0)
(0.000237961 1.97057e-06 0)
(0.000233808 2.17727e-06 0)
(0.000229246 2.38016e-06 0)
(0.000224282 2.57886e-06 0)
(0.000218925 2.77305e-06 0)
(0.000213184 2.96236e-06 0)
(0.000207068 3.14648e-06 0)
(0.00020059 3.32509e-06 0)
(0.00019376 3.49786e-06 0)
(0.000186591 3.66449e-06 0)
(0.000179094 3.82471e-06 0)
(0.000171283 3.97822e-06 0)
(0.000163172 4.12476e-06 0)
(0.000154774 4.26407e-06 0)
(0.000146105 4.39591e-06 0)
(0.00013718 4.52007e-06 0)
(0.000128015 4.63632e-06 0)
(0.000118624 4.74447e-06 0)
(0.000109026 4.84435e-06 0)
(9.92356e-05 4.93579e-06 0)
(8.92711e-05 5.01867e-06 0)
(7.91493e-05 5.09285e-06 0)
(6.88879e-05 5.15826e-06 0)
(5.85044e-05 5.21484e-06 0)
(4.80165e-05 5.26255e-06 0)
(3.7442e-05 5.30143e-06 0)
(2.67986e-05 5.33154e-06 0)
(1.61032e-05 5.35316e-06 0)
(5.37231e-06 5.36654e-06 0)
(-5.38649e-06 1.61103e-05 0)
(-1.61443e-05 1.60719e-05 0)
(-2.68651e-05 1.60079e-05 0)
(-3.75341e-05 1.59177e-05 0)
(-4.81339e-05 1.58011e-05 0)
(-5.86469e-05 1.56579e-05 0)
(-6.90553e-05 1.54881e-05 0)
(-7.93414e-05 1.52917e-05 0)
(-8.94874e-05 1.5069e-05 0)
(-9.94759e-05 1.48203e-05 0)
(-0.00010929 1.45457e-05 0)
(-0.000118911 1.42458e-05 0)
(-0.000128324 1.39211e-05 0)
(-0.000137512 1.35721e-05 0)
(-0.000146459 1.31993e-05 0)
(-0.000155148 1.28034e-05 0)
(-0.000163566 1.23851e-05 0)
(-0.000171697 1.19451e-05 0)
(-0.000179527 1.14842e-05 0)
(-0.000187042 1.10031e-05 0)
(-0.000194229 1.05028e-05 0)
(-0.000201075 9.98401e-06 0)
(-0.000207569 9.44773e-06 0)
(-0.000213699 8.89489e-06 0)
(-0.000219454 8.32645e-06 0)
(-0.000224824 7.74339e-06 0)
(-0.0002298 7.14675e-06 0)
(-0.000234373 6.53757e-06 0)
(-0.000238536 5.91691e-06 0)
(-0.000242279 5.28587e-06 0)
(-0.000245598 4.64554e-06 0)
(-0.000248487 3.99706e-06 0)
(-0.000250939 3.34156e-06 0)
(-0.000252952 2.68018e-06 0)
(-0.00025452 2.01409e-06 0)
(-0.000255643 1.34446e-06 0)
(-0.000256317 6.72458e-07 0)
(-0.000256541 -7.36434e-10 0)
(-0.000256316 -6.73942e-07 0)
(-0.000255641 -1.34598e-06 0)
(-0.000254517 -2.01567e-06 0)
(-0.000252948 -2.68183e-06 0)
(-0.000250934 -3.3433e-06 0)
(-0.00024848 -3.99892e-06 0)
(-0.000245591 -4.64754e-06 0)
(-0.00024227 -5.28802e-06 0)
(-0.000238525 -5.91923e-06 0)
(-0.000234361 -6.54007e-06 0)
(-0.000229787 -7.14944e-06 0)
(-0.000224809 -7.74629e-06 0)
(-0.000219436 -8.32955e-06 0)
(-0.000213679 -8.89821e-06 0)
(-0.000207547 -9.45127e-06 0)
(-0.000201051 -9.98776e-06 0)
(-0.000194202 -1.05067e-05 0)
(-0.000187012 -1.10073e-05 0)
(-0.000179494 -1.14885e-05 0)
(-0.000171661 -1.19496e-05 0)
(-0.000163527 -1.23897e-05 0)
(-0.000155107 -1.28081e-05 0)
(-0.000146414 -1.32041e-05 0)
(-0.000137464 -1.35768e-05 0)
(-0.000128273 -1.39258e-05 0)
(-0.000118857 -1.42503e-05 0)
(-0.000109232 -1.45498e-05 0)
(-9.94158e-05 -1.48238e-05 0)
(-8.9425e-05 -1.50718e-05 0)
(-7.92774e-05 -1.52933e-05 0)
(-6.89906e-05 -1.5488e-05 0)
(-5.85828e-05 -1.56556e-05 0)
(-4.80722e-05 -1.57956e-05 0)
(-3.74773e-05 -1.5908e-05 0)
(-2.68166e-05 -1.59924e-05 0)
(-1.61088e-05 -1.60488e-05 0)
(-5.37282e-06 -1.6077e-05 0)
(5.37274e-06 -1.6077e-05 0)
(1.61087e-05 -1.60488e-05 0)
(2.68165e-05 -1.59924e-05 0)
(3.74772e-05 -1.5908e-05 0)
(4.80721e-05 -1.57956e-05 0)
(5.85827e-05 -1.56556e-05 0)
(6.89906e-05 -1.5488e-05 0)
(7.92773e-05 -1.52933e-05 0)
(8.94249e-05 -1.50718e-05 0)
(9.94157e-05 -1.48238e-05 0)
(0.000109232 -1.45498e-05 0)
(0.000118857 -1.42503e-05 0)
(0.000128273 -1.39258e-05 0)
(0.000137464 -1.35768e-05 0)
(0.000146414 -1.32041e-05 0)
(0.000155107 -1.28081e-05 0)
(0.000163527 -1.23897e-05 0)
(0.000171661 -1.19496e-05 0)
(0.000179494 -1.14885e-05 0)
(0.000187012 -1.10073e-05 0)
(0.000194201 -1.05067e-05 0)
(0.00020105 -9.98776e-06 0)
(0.000207547 -9.45127e-06 0)
(0.000213679 -8.89821e-06 0)
(0.000219436 -8.32955e-06 0)
(0.000224809 -7.74629e-06 0)
(0.000229787 -7.14944e-06 0)
(0.000234361 -6.54006e-06 0)
(0.000238525 -5.91923e-06 0)
(0.00024227 -5.28801e-06 0)
(0.000245591 -4.64754e-06 0)
(0.00024848 -3.99892e-06 0)
(0.000250934 -3.3433e-06 0)
(0.000252947 -2.68183e-06 0)
(0.000254517 -2.01566e-06 0)
(0.000255641 -1.34597e-06 0)
(0.000256316 -6.73938e-07 0)
(0.000256541 -7.32275e-10 0)
(0.000256317 6.72463e-07 0)
(0.000255643 1.34447e-06 0)
(0.00025452 2.0141e-06 0)
(0.000252951 2.68019e-06 0)
(0.000250939 3.34156e-06 0)
(0.000248487 3.99707e-06 0)
(0.000245598 4.64555e-06 0)
(0.000242279 5.28587e-06 0)
(0.000238535 5.91692e-06 0)
(0.000234373 6.53757e-06 0)
(0.0002298 7.14676e-06 0)
(0.000224824 7.7434e-06 0)
(0.000219454 8.32646e-06 0)
(0.000213699 8.8949e-06 0)
(0.000207569 9.44775e-06 0)
(0.000201075 9.98402e-06 0)
(0.000194228 1.05028e-05 0)
(0.000187041 1.10031e-05 0)
(0.000179526 1.14842e-05 0)
(0.000171697 1.19451e-05 0)
(0.000163566 1.23851e-05 0)
(0.000155148 1.28034e-05 0)
(0.000146458 1.31993e-05 0)
(0.000137512 1.35721e-05 0)
(0.000128324 1.39211e-05 0)
(0.000118911 1.42459e-05 0)
(0.000109289 1.45457e-05 0)
(9.94756e-05 1.48203e-05 0)
(8.9487e-05 1.50691e-05 0)
(7.93409e-05 1.52919e-05 0)
(6.90548e-05 1.54882e-05 0)
(5.86463e-05 1.56581e-05 0)
(4.81332e-05 1.58014e-05 0)
(3.75333e-05 1.59181e-05 0)
(2.68641e-05 1.60086e-05 0)
(1.61429e-05 1.60733e-05 0)
(5.38568e-06 1.61131e-05 0)
(-5.40764e-06 2.68936e-05 0)
(-1.62083e-05 2.68283e-05 0)
(-2.69726e-05 2.67204e-05 0)
(-3.76847e-05 2.65694e-05 0)
(-4.83272e-05 2.63746e-05 0)
(-5.88824e-05 2.61355e-05 0)
(-6.93326e-05 2.5852e-05 0)
(-7.96599e-05 2.55243e-05 0)
(-8.98466e-05 2.51526e-05 0)
(-9.98751e-05 2.47373e-05 0)
(-0.000109728 2.42791e-05 0)
(-0.000119388 2.37786e-05 0)
(-0.000128839 2.32365e-05 0)
(-0.000138064 2.26539e-05 0)
(-0.000147046 2.20317e-05 0)
(-0.000155771 2.13709e-05 0)
(-0.000164222 2.06727e-05 0)
(-0.000172386 1.99383e-05 0)
(-0.000180247 1.91689e-05 0)
(-0.000187792 1.8366e-05 0)
(-0.000195008 1.75308e-05 0)
(-0.000201882 1.66649e-05 0)
(-0.000208402 1.57698e-05 0)
(-0.000214556 1.4847e-05 0)
(-0.000220334 1.38982e-05 0)
(-0.000225726 1.2925e-05 0)
(-0.000230722 1.19291e-05 0)
(-0.000235314 1.09123e-05 0)
(-0.000239493 9.8763e-06 0)
(-0.000243252 8.82298e-06 0)
(-0.000246584 7.75418e-06 0)
(-0.000249484 6.67176e-06 0)
(-0.000251946 5.57762e-06 0)
(-0.000253967 4.47367e-06 0)
(-0.000255542 3.36186e-06 0)
(-0.000256669 2.24414e-06 0)
(-0.000257345 1.12246e-06 0)
(-0.000257571 -1.21382e-09 0)
(-0.000257344 -1.1249e-06 0)
(-0.000256667 -2.24664e-06 0)
(-0.000255539 -3.36446e-06 0)
(-0.000253963 -4.4764e-06 0)
(-0.000251941 -5.5805e-06 0)
(-0.000249478 -6.67484e-06 0)
(-0.000246577 -7.75749e-06 0)
(-0.000243243 -8.82655e-06 0)
(-0.000239483 -9.88014e-06 0)
(-0.000235302 -1.09164e-05 0)
(-0.000230709 -1.19336e-05 0)
(-0.000225711 -1.29298e-05 0)
(-0.000220317 -1.39034e-05 0)
(-0.000214537 -1.48526e-05 0)
(-0.00020838 -1.57757e-05 0)
(-0.000201858 -1.66712e-05 0)
(-0.000194981 -1.75374e-05 0)
(-0.000187763 -1.83729e-05 0)
(-0.000180215 -1.91762e-05 0)
(-0.00017235 -1.99458e-05 0)
(-0.000164184 -2.06805e-05 0)
(-0.000155729 -2.13789e-05 0)
(-0.000147001 -2.20397e-05 0)
(-0.000138016 -2.2662e-05 0)
(-0.000128788 -2.32444e-05 0)
(-0.000119334 -2.37861e-05 0)
(-0.000109671 -2.4286e-05 0)
(-9.98149e-05 -2.47434e-05 0)
(-8.9784e-05 -2.51573e-05 0)
(-7.95957e-05 -2.55271e-05 0)
(-6.92676e-05 -2.58521e-05 0)
(-5.8818e-05 -2.61317e-05 0)
(-4.82652e-05 -2.63655e-05 0)
(-3.76277e-05 -2.6553e-05 0)
(-2.69242e-05 -2.66939e-05 0)
(-1.61735e-05 -2.6788e-05 0)
(-5.39439e-06 -2.68351e-05 0)
(5.39431e-06 -2.68351e-05 0)
(1.61734e-05 -2.6788e-05 0)
(2.69241e-05 -2.66939e-05 0)
(3.76277e-05 -2.6553e-05 0)
(4.82651e-05 -2.63655e-05 0)
(5.88179e-05 -2.61317e-05 0)
(6.92675e-05 -2.58521e-05 0)
(7.95956e-05 -2.55271e-05 0)
(8.9784e-05 -2.51573e-05 0)
(9.98148e-05 -2.47434e-05 0)
(0.000109671 -2.4286e-05 0)
(0.000119334 -2.37861e-05 0)
(0.000128788 -2.32444e-05 0)
(0.000138016 -2.2662e-05 0)
(0.000147001 -2.20397e-05 0)
(0.000155729 -2.13789e-05 0)
(0.000164184 -2.06805e-05 0)
(0.00017235 -1.99458e-05 0)
(0.000180215 -1.91762e-05 0)
(0.000187763 -1.83729e-05 0)
(0.000194981 -1.75374e-05 0)
(0.000201858 -1.66712e-05 0)
(0.00020838 -1.57757e-05 0)
(0.000214537 -1.48526e-05 0)
(0.000220317 -1.39034e-05 0)
(0.000225711 -1.29298e-05 0)
(0.000230709 -1.19336e-05 0)
(0.000235302 -1.09164e-05 0)
(0.000239483 -9.88014e-06 0)
(0.000243243 -8.82654e-06 0)
(0.000246576 -7.75748e-06 0)
(0.000249478 -6.67484e-06 0)
(0.000251941 -5.5805e-06 0)
(0.000253963 -4.47639e-06 0)
(0.000255539 -3.36445e-06 0)
(0.000256667 -2.24664e-06 0)
(0.000257344 -1.1249e-06 0)
(0.000257571 -1.20683e-09 0)
(0.000257345 1.12247e-06 0)
(0.000256669 2.24415e-06 0)
(0.000255542 3.36187e-06 0)
(0.000253967 4.47368e-06 0)
(0.000251946 5.57763e-06 0)
(0.000249484 6.67177e-06 0)
(0.000246584 7.75419e-06 0)
(0.000243252 8.82299e-06 0)
(0.000239493 9.87631e-06 0)
(0.000235314 1.09123e-05 0)
(0.000230722 1.19291e-05 0)
(0.000225726 1.2925e-05 0)
(0.000220334 1.38982e-05 0)
(0.000214556 1.4847e-05 0)
(0.000208402 1.57698e-05 0)
(0.000201882 1.6665e-05 0)
(0.000195008 1.75309e-05 0)
(0.000187792 1.8366e-05 0)
(0.000180247 1.9169e-05 0)
(0.000172386 1.99383e-05 0)
(0.000164222 2.06727e-05 0)
(0.000155771 2.1371e-05 0)
(0.000147046 2.20317e-05 0)
(0.000138064 2.2654e-05 0)
(0.000128839 2.32366e-05 0)
(0.000119388 2.37786e-05 0)
(0.000109728 2.42791e-05 0)
(9.98748e-05 2.47374e-05 0)
(8.98462e-05 2.51527e-05 0)
(7.96595e-05 2.55245e-05 0)
(6.93321e-05 2.58523e-05 0)
(5.88819e-05 2.61358e-05 0)
(4.83266e-05 2.6375e-05 0)
(3.76841e-05 2.65699e-05 0)
(2.6972e-05 2.67211e-05 0)
(1.62076e-05 2.68294e-05 0)
(5.40733e-06 2.68953e-05 0)
(-5.43775e-06 3.77284e-05 0)
(-1.62987e-05 3.76364e-05 0)
(-2.71237e-05 3.74846e-05 0)
(-3.7896e-05 3.72725e-05 0)
(-4.85983e-05 3.6999e-05 0)
(-5.92128e-05 3.66636e-05 0)
(-6.97215e-05 3.62659e-05 0)
(-8.01068e-05 3.58061e-05 0)
(-9.03506e-05 3.52847e-05 0)
(-0.000100435 3.47021e-05 0)
(-0.000110344 3.40593e-05 0)
(-0.000120058 3.33571e-05 0)
(-0.000129562 3.25968e-05 0)
(-0.000138838 3.17795e-05 0)
(-0.000147871 3.09066e-05 0)
(-0.000156645 2.99797e-05 0)
(-0.000165144 2.90002e-05 0)
(-0.000173353 2.797e-05 0)
(-0.000181258 2.68907e-05 0)
(-0.000188846 2.57643e-05 0)
(-0.000196102 2.45927e-05 0)
(-0.000203014 2.3378e-05 0)
(-0.000209571 2.21223e-05 0)
(-0.00021576 2.08278e-05 0)
(-0.000221571 1.94968e-05 0)
(-0.000226993 1.81315e-05 0)
(-0.000232017 1.67345e-05 0)
(-0.000236634 1.5308e-05 0)
(-0.000240837 1.38547e-05 0)
(-0.000244616 1.23771e-05 0)
(-0.000247968 1.08778e-05 0)
(-0.000250884 9.35934e-06 0)
(-0.00025336 7.82445e-06 0)
(-0.000255392 6.27581e-06 0)
(-0.000256976 4.71614e-06 0)
(-0.000258109 3.14817e-06 0)
(-0.000258789 1.57464e-06 0)
(-0.000259016 -1.67276e-09 0)
(-0.000258789 -1.57801e-06 0)
(-0.000258107 -3.15162e-06 0)
(-0.000256973 -4.71972e-06 0)
(-0.000255388 -6.27958e-06 0)
(-0.000253355 -7.82845e-06 0)
(-0.000250878 -9.36361e-06 0)
(-0.00024796 -1.08824e-05 0)
(-0.000244608 -1.23821e-05 0)
(-0.000240827 -1.38601e-05 0)
(-0.000236623 -1.53138e-05 0)
(-0.000232004 -1.67407e-05 0)
(-0.000226978 -1.81383e-05 0)
(-0.000221554 -1.9504e-05 0)
(-0.000215741 -2.08355e-05 0)
(-0.00020955 -2.21306e-05 0)
(-0.000202991 -2.33868e-05 0)
(-0.000196076 -2.4602e-05 0)
(-0.000188817 -2.5774e-05 0)
(-0.000181226 -2.69009e-05 0)
(-0.000173318 -2.79806e-05 0)
(-0.000165106 -2.90111e-05 0)
(-0.000156603 -2.99908e-05 0)
(-0.000147827 -3.09179e-05 0)
(-0.00013879 -3.17908e-05 0)
(-0.000129511 -3.26079e-05 0)
(-0.000120004 -3.33678e-05 0)
(-0.000110286 -3.40691e-05 0)
(-0.000100375 -3.47107e-05 0)
(-9.02881e-05 -3.52913e-05 0)
(-8.00425e-05 -3.58101e-05 0)
(-6.96565e-05 -3.6266e-05 0)
(-5.91482e-05 -3.66583e-05 0)
(-4.85362e-05 -3.69862e-05 0)
(-3.7839e-05 -3.72493e-05 0)
(-2.70754e-05 -3.7447e-05 0)
(-1.62643e-05 -3.7579e-05 0)
(-5.42467e-06 -3.7645e-05 0)
(5.4246e-06 -3.7645e-05 0)
(1.62642e-05 -3.7579e-05 0)
(2.70753e-05 -3.7447e-05 0)
(3.78389e-05 -3.72493e-05 0)
(4.85361e-05 -3.69862e-05 0)
(5.91481e-05 -3.66583e-05 0)
(6.96564e-05 -3.6266e-05 0)
(8.00424e-05 -3.58101e-05 0)
(9.0288e-05 -3.52913e-05 0)
(0.000100375 -3.47107e-05 0)
(0.000110286 -3.40691e-05 0)
(0.000120004 -3.33678e-05 0)
(0.000129511 -3.26079e-05 0)
(0.00013879 -3.17908e-05 0)
(0.000147827 -3.09179e-05 0)
(0.000156603 -2.99908e-05 0)
(0.000165105 -2.90111e-05 0)
(0.000173318 -2.79805e-05 0)
(0.000181226 -2.69009e-05 0)
(0.000188816 -2.5774e-05 0)
(0.000196075 -2.4602e-05 0)
(0.000202991 -2.33868e-05 0)
(0.000209549 -2.21306e-05 0)
(0.000215741 -2.08355e-05 0)
(0.000221554 -1.9504e-05 0)
(0.000226978 -1.81382e-05 0)
(0.000232004 -1.67407e-05 0)
(0.000236623 -1.53138e-05 0)
(0.000240827 -1.38601e-05 0)
(0.000244608 -1.23821e-05 0)
(0.00024796 -1.08824e-05 0)
(0.000250878 -9.36361e-06 0)
(0.000253355 -7.82844e-06 0)
(0.000255388 -6.27957e-06 0)
(0.000256973 -4.71972e-06 0)
(0.000258107 -3.15161e-06 0)
(0.000258788 -1.57801e-06 0)
(0.000259016 -1.66302e-09 0)
(0.000258789 1.57465e-06 0)
(0.000258109 3.14818e-06 0)
(0.000256976 4.71615e-06 0)
(0.000255392 6.27583e-06 0)
(0.00025336 7.82447e-06 0)
(0.000250884 9.35936e-06 0)
(0.000247967 1.08778e-05 0)
(0.000244616 1.23772e-05 0)
(0.000240836 1.38548e-05 0)
(0.000236634 1.53081e-05 0)
(0.000232017 1.67345e-05 0)
(0.000226993 1.81315e-05 0)
(0.00022157 1.94968e-05 0)
(0.00021576 2.08278e-05 0)
(0.000209571 2.21223e-05 0)
(0.000203014 2.3378e-05 0)
(0.000196102 2.45927e-05 0)
(0.000188845 2.57643e-05 0)
(0.000181258 2.68907e-05 0)
(0.000173353 2.797e-05 0)
(0.000165143 2.90003e-05 0)
(0.000156645 2.99797e-05 0)
(0.000147871 3.09067e-05 0)
(0.000138838 3.17795e-05 0)
(0.000129562 3.25968e-05 0)
(0.000120058 3.33572e-05 0)
(0.000110343 3.40593e-05 0)
(0.000100435 3.47022e-05 0)
(9.03503e-05 3.52848e-05 0)
(8.01064e-05 3.58063e-05 0)
(6.97211e-05 3.62661e-05 0)
(5.92123e-05 3.66639e-05 0)
(4.85977e-05 3.69995e-05 0)
(3.78955e-05 3.7273e-05 0)
(2.71232e-05 3.74853e-05 0)
(1.62983e-05 3.76372e-05 0)
(5.43759e-06 3.77293e-05 0)
(-5.47695e-06 4.86321e-05 0)
(-1.64163e-05 4.85137e-05 0)
(-2.73195e-05 4.83179e-05 0)
(-3.81697e-05 4.80444e-05 0)
(-4.89494e-05 4.76917e-05 0)
(-5.96407e-05 4.72592e-05 0)
(-7.02255e-05 4.67466e-05 0)
(-8.06858e-05 4.61539e-05 0)
(-9.10037e-05 4.54817e-05 0)
(-0.000101161 4.47308e-05 0)
(-0.000111141 4.39022e-05 0)
(-0.000120926 4.29971e-05 0)
(-0.000130498 4.2017e-05 0)
(-0.000139842 4.09636e-05 0)
(-0.00014894 3.98385e-05 0)
(-0.000157777 3.86436e-05 0)
(-0.000166337 3.73811e-05 0)
(-0.000174606 3.60531e-05 0)
(-0.000182568 3.4662e-05 0)
(-0.000190211 3.32101e-05 0)
(-0.00019752 3.16999e-05 0)
(-0.000204482 3.01342e-05 0)
(-0.000211086 2.85156e-05 0)
(-0.00021732 2.6847e-05 0)
(-0.000223173 2.51313e-05 0)
(-0.000228634 2.33715e-05 0)
(-0.000233694 2.15707e-05 0)
(-0.000238345 1.9732e-05 0)
(-0.000242578 1.78587e-05 0)
(-0.000246385 1.59541e-05 0)
(-0.00024976 1.40215e-05 0)
(-0.000252698 1.20642e-05 0)
(-0.000255192 1.00857e-05 0)
(-0.000257238 8.08955e-06 0)
(-0.000258834 6.07913e-06 0)
(-0.000259975 4.05802e-06 0)
(-0.000260661 2.02976e-06 0)
(-0.000260889 -2.10613e-09 0)
(-0.00026066 -2.034e-06 0)
(-0.000259974 -4.06237e-06 0)
(-0.000258831 -6.08366e-06 0)
(-0.000257235 -8.0943e-06 0)
(-0.000255187 -1.00908e-05 0)
(-0.000252692 -1.20696e-05 0)
(-0.000249754 -1.40273e-05 0)
(-0.000246377 -1.59604e-05 0)
(-0.000242568 -1.78656e-05 0)
(-0.000238334 -1.97394e-05 0)
(-0.000233682 -2.15787e-05 0)
(-0.00022862 -2.33801e-05 0)
(-0.000223156 -2.51406e-05 0)
(-0.000217301 -2.68569e-05 0)
(-0.000211065 -2.85262e-05 0)
(-0.000204459 -3.01454e-05 0)
(-0.000197494 -3.17118e-05 0)
(-0.000190182 -3.32226e-05 0)
(-0.000182537 -3.46751e-05 0)
(-0.000174572 -3.60668e-05 0)
(-0.0001663 -3.73953e-05 0)
(-0.000157736 -3.86581e-05 0)
(-0.000148896 -3.98531e-05 0)
(-0.000139794 -4.09782e-05 0)
(-0.000130448 -4.20314e-05 0)
(-0.000120872 -4.30109e-05 0)
(-0.000111084 -4.3915e-05 0)
(-0.000101101 -4.47419e-05 0)
(-9.09412e-05 -4.54904e-05 0)
(-8.06215e-05 -4.61591e-05 0)
(-7.01604e-05 -4.67467e-05 0)
(-5.95761e-05 -4.72524e-05 0)
(-4.88873e-05 -4.76751e-05 0)
(-3.81127e-05 -4.80142e-05 0)
(-2.72712e-05 -4.82691e-05 0)
(-1.63819e-05 -4.84392e-05 0)
(-5.46392e-06 -4.85243e-05 0)
(5.46384e-06 -4.85243e-05 0)
(1.63819e-05 -4.84392e-05 0)
(2.72712e-05 -4.82691e-05 0)
(3.81126e-05 -4.80142e-05 0)
(4.88872e-05 -4.76751e-05 0)
(5.9576e-05 -4.72524e-05 0)
(7.01603e-05 -4.67467e-05 0)
(8.06214e-05 -4.61591e-05 0)
(9.09411e-05 -4.54904e-05 0)
(0.000101101 -4.47419e-05 0)
(0.000111084 -4.3915e-05 0)
(0.000120872 -4.30109e-05 0)
(0.000130447 -4.20314e-05 0)
(0.000139794 -4.09782e-05 0)
(0.000148896 -3.98531e-05 0)
(0.000157736 -3.86581e-05 0)
(0.0001663 -3.73953e-05 0)
(0.000174572 -3.60668e-05 0)
(0.000182537 -3.46751e-05 0)
(0.000190182 -3.32226e-05 0)
(0.000197494 -3.17118e-05 0)
(0.000204459 -3.01454e-05 0)
(0.000211065 -2.85262e-05 0)
(0.000217301 -2.68569e-05 0)
(0.000223156 -2.51405e-05 0)
(0.000228619 -2.33801e-05 0)
(0.000233682 -2.15787e-05 0)
(0.000238334 -1.97394e-05 0)
(0.000242568 -1.78656e-05 0)
(0.000246377 -1.59604e-05 0)
(0.000249754 -1.40273e-05 0)
(0.000252692 -1.20696e-05 0)
(0.000255187 -1.00908e-05 0)
(0.000257235 -8.09429e-06 0)
(0.000258831 -6.08365e-06 0)
(0.000259974 -4.06236e-06 0)
(0.00026066 -2.03399e-06 0)
(0.000260889 -2.09386e-09 0)
(0.000260661 2.02977e-06 0)
(0.000259975 4.05804e-06 0)
(0.000258834 6.07915e-06 0)
(0.000257238 8.08956e-06 0)
(0.000255192 1.00858e-05 0)
(0.000252698 1.20642e-05 0)
(0.00024976 1.40215e-05 0)
(0.000246385 1.59541e-05 0)
(0.000242578 1.78588e-05 0)
(0.000238345 1.97321e-05 0)
(0.000233694 2.15707e-05 0)
(0.000228634 2.33715e-05 0)
(0.000223172 2.51313e-05 0)
(0.00021732 2.6847e-05 0)
(0.000211086 2.85156e-05 0)
(0.000204482 3.01342e-05 0)
(0.000197519 3.16999e-05 0)
(0.000190211 3.32101e-05 0)
(0.000182568 3.4662e-05 0)
(0.000174606 3.60532e-05 0)
(0.000166337 3.73812e-05 0)
(0.000157777 3.86437e-05 0)
(0.00014894 3.98385e-05 0)
(0.000139842 4.09636e-05 0)
(0.000130498 4.20171e-05 0)
(0.000120926 4.29972e-05 0)
(0.000111141 4.39023e-05 0)
(0.000101161 4.47309e-05 0)
(9.10035e-05 4.54819e-05 0)
(8.06855e-05 4.61541e-05 0)
(7.02251e-05 4.67468e-05 0)
(5.96403e-05 4.72596e-05 0)
(4.8949e-05 4.76922e-05 0)
(3.81693e-05 4.80449e-05 0)
(2.73191e-05 4.83185e-05 0)
(1.6416e-05 4.85144e-05 0)
(5.47684e-06 4.86328e-05 0)
(-5.52539e-06 5.96232e-05 0)
(-1.65615e-05 5.94783e-05 0)
(-2.75611e-05 5.92383e-05 0)
(-3.85075e-05 5.89029e-05 0)
(-4.93826e-05 5.84705e-05 0)
(-6.01686e-05 5.79401e-05 0)
(-7.08472e-05 5.73115e-05 0)
(-8.14002e-05 5.65849e-05 0)
(-9.18095e-05 5.57607e-05 0)
(-0.000102057 5.48401e-05 0)
(-0.000112125 5.38242e-05 0)
(-0.000121997 5.27146e-05 0)
(-0.000131654 5.15131e-05 0)
(-0.00014108 5.02215e-05 0)
(-0.000150259 4.88421e-05 0)
(-0.000159174 4.73773e-05 0)
(-0.00016781 4.58294e-05 0)
(-0.000176152 4.42013e-05 0)
(-0.000184185 4.24958e-05 0)
(-0.000191895 4.07157e-05 0)
(-0.000199269 3.88643e-05 0)
(-0.000206293 3.69447e-05 0)
(-0.000212955 3.49603e-05 0)
(-0.000219244 3.29146e-05 0)
(-0.000225149 3.08111e-05 0)
(-0.000230659 2.86536e-05 0)
(-0.000235764 2.64458e-05 0)
(-0.000240456 2.41916e-05 0)
(-0.000244726 2.1895e-05 0)
(-0.000248567 1.95599e-05 0)
(-0.000251972 1.71905e-05 0)
(-0.000254936 1.47908e-05 0)
(-0.000257452 1.23652e-05 0)
(-0.000259517 9.9179e-06 0)
(-0.000261126 7.45312e-06 0)
(-0.000262278 4.97523e-06 0)
(-0.00026297 2.48857e-06 0)
(-0.0002632 -2.50624e-09 0)
(-0.000262969 -2.49362e-06 0)
(-0.000262277 -4.98042e-06 0)
(-0.000261124 -7.45852e-06 0)
(-0.000259514 -9.92359e-06 0)
(-0.000257448 -1.23713e-05 0)
(-0.000254931 -1.47973e-05 0)
(-0.000251966 -1.71975e-05 0)
(-0.00024856 -1.95675e-05 0)
(-0.000244717 -2.19032e-05 0)
(-0.000240446 -2.42006e-05 0)
(-0.000235752 -2.64555e-05 0)
(-0.000230645 -2.86641e-05 0)
(-0.000225133 -3.08224e-05 0)
(-0.000219227 -3.29267e-05 0)
(-0.000212935 -3.49732e-05 0)
(-0.00020627 -3.69585e-05 0)
(-0.000199244 -3.88789e-05 0)
(-0.000191867 -4.07311e-05 0)
(-0.000184154 -4.25119e-05 0)
(-0.000176118 -4.42181e-05 0)
(-0.000167773 -4.58468e-05 0)
(-0.000159134 -4.7395e-05 0)
(-0.000150215 -4.88601e-05 0)
(-0.000141033 -5.02395e-05 0)
(-0.000131603 -5.15308e-05 0)
(-0.000121943 -5.27317e-05 0)
(-0.000112068 -5.384e-05 0)
(-0.000101997 -5.48539e-05 0)
(-9.17471e-05 -5.57715e-05 0)
(-8.13359e-05 -5.65913e-05 0)
(-7.07821e-05 -5.73118e-05 0)
(-6.0104e-05 -5.79318e-05 0)
(-4.93205e-05 -5.845e-05 0)
(-3.84504e-05 -5.88658e-05 0)
(-2.75129e-05 -5.91782e-05 0)
(-1.65271e-05 -5.93868e-05 0)
(-5.51234e-06 -5.94912e-05 0)
(5.51226e-06 -5.94912e-05 0)
(1.6527e-05 -5.93868e-05 0)
(2.75128e-05 -5.91782e-05 0)
(3.84504e-05 -5.88658e-05 0)
(4.93204e-05 -5.845e-05 0)
(6.0104e-05 -5.79317e-05 0)
(7.0782e-05 -5.73118e-05 0)
(8.13359e-05 -5.65913e-05 0)
(9.1747e-05 -5.57715e-05 0)
(0.000101997 -5.48539e-05 0)
(0.000112068 -5.384e-05 0)
(0.000121943 -5.27317e-05 0)
(0.000131603 -5.15308e-05 0)
(0.000141033 -5.02395e-05 0)
(0.000150215 -4.88601e-05 0)
(0.000159134 -4.7395e-05 0)
(0.000167773 -4.58468e-05 0)
(0.000176118 -4.42181e-05 0)
(0.000184154 -4.25119e-05 0)
(0.000191867 -4.07311e-05 0)
(0.000199244 -3.88789e-05 0)
(0.00020627 -3.69585e-05 0)
(0.000212935 -3.49732e-05 0)
(0.000219227 -3.29267e-05 0)
(0.000225133 -3.08224e-05 0)
(0.000230645 -2.86641e-05 0)
(0.000235752 -2.64555e-05 0)
(0.000240446 -2.42006e-05 0)
(0.000244717 -2.19032e-05 0)
(0.00024856 -1.95675e-05 0)
(0.000251966 -1.71975e-05 0)
(0.000254931 -1.47973e-05 0)
(0.000257448 -1.23713e-05 0)
(0.000259513 -9.92358e-06 0)
(0.000261124 -7.45851e-06 0)
(0.000262276 -4.9804e-06 0)
(0.000262969 -2.49361e-06 0)
(0.0002632 -2.49177e-09 0)
(0.00026297 2.48858e-06 0)
(0.000262278 4.97525e-06 0)
(0.000261126 7.45314e-06 0)
(0.000259517 9.91792e-06 0)
(0.000257452 1.23653e-05 0)
(0.000254936 1.47909e-05 0)
(0.000251972 1.71905e-05 0)
(0.000248567 1.95599e-05 0)
(0.000244726 2.1895e-05 0)
(0.000240456 2.41917e-05 0)
(0.000235764 2.64459e-05 0)
(0.000230659 2.86536e-05 0)
(0.000225149 3.08111e-05 0)
(0.000219244 3.29146e-05 0)
(0.000212955 3.49603e-05 0)
(0.000206293 3.69447e-05 0)
(0.000199269 3.88643e-05 0)
(0.000191895 4.07157e-05 0)
(0.000184185 4.24958e-05 0)
(0.000176152 4.42014e-05 0)
(0.00016781 4.58295e-05 0)
(0.000159174 4.73773e-05 0)
(0.000150259 4.88422e-05 0)
(0.00014108 5.02216e-05 0)
(0.000131654 5.15132e-05 0)
(0.000121997 5.27147e-05 0)
(0.000112125 5.38243e-05 0)
(0.000102057 5.48402e-05 0)
(9.18093e-05 5.57609e-05 0)
(8.13999e-05 5.65851e-05 0)
(7.08469e-05 5.73118e-05 0)
(6.01683e-05 5.79404e-05 0)
(4.93823e-05 5.84709e-05 0)
(3.85071e-05 5.89034e-05 0)
(2.75608e-05 5.92388e-05 0)
(1.65613e-05 5.94789e-05 0)
(5.5253e-06 5.96238e-05 0)
(-5.58323e-06 7.07204e-05 0)
(-1.67348e-05 7.05488e-05 0)
(-2.78497e-05 7.02642e-05 0)
(-3.89106e-05 6.98663e-05 0)
(-4.98997e-05 6.93534e-05 0)
(-6.07987e-05 6.87243e-05 0)
(-7.15892e-05 6.79786e-05 0)
(-8.22527e-05 6.71167e-05 0)
(-9.27711e-05 6.61391e-05 0)
(-0.000103126 6.50471e-05 0)
(-0.0001133 6.38422e-05 0)
(-0.000123275 6.2526e-05 0)
(-0.000133033 6.11008e-05 0)
(-0.000142558 5.95689e-05 0)
(-0.000151833 5.79328e-05 0)
(-0.000160842 5.61953e-05 0)
(-0.000169568 5.43594e-05 0)
(-0.000177998 5.24283e-05 0)
(-0.000186115 5.04053e-05 0)
(-0.000193905 4.82939e-05 0)
(-0.000201356 4.60979e-05 0)
(-0.000208454 4.3821e-05 0)
(-0.000215186 4.14673e-05 0)
(-0.000221541 3.90408e-05 0)
(-0.000227508 3.65459e-05 0)
(-0.000233075 3.39868e-05 0)
(-0.000238234 3.13681e-05 0)
(-0.000242975 2.86944e-05 0)
(-0.00024729 2.59703e-05 0)
(-0.000251172 2.32006e-05 0)
(-0.000254613 2.03901e-05 0)
(-0.000257607 1.75439e-05 0)
(-0.00026015 1.46668e-05 0)
(-0.000262236 1.1764e-05 0)
(-0.000263863 8.84044e-06 0)
(-0.000265026 5.90135e-06 0)
(-0.000265725 2.95186e-06 0)
(-0.000265958 -2.86493e-09 0)
(-0.000265725 -2.95764e-06 0)
(-0.000265025 -5.90729e-06 0)
(-0.000263861 -8.84663e-06 0)
(-0.000262233 -1.17705e-05 0)
(-0.000260146 -1.46738e-05 0)
(-0.000257602 -1.75514e-05 0)
(-0.000254607 -2.03983e-05 0)
(-0.000251165 -2.32094e-05 0)
(-0.000247282 -2.59799e-05 0)
(-0.000242966 -2.87048e-05 0)
(-0.000238223 -3.13795e-05 0)
(-0.000233062 -3.39991e-05 0)
(-0.000227493 -3.65592e-05 0)
(-0.000221524 -3.90551e-05 0)
(-0.000215167 -4.14826e-05 0)
(-0.000208433 -4.38373e-05 0)
(-0.000201332 -4.61152e-05 0)
(-0.000193879 -4.83122e-05 0)
(-0.000186085 -5.04244e-05 0)
(-0.000177965 -5.24482e-05 0)
(-0.000169532 -5.438e-05 0)
(-0.000160802 -5.62165e-05 0)
(-0.00015179 -5.79543e-05 0)
(-0.000142512 -5.95904e-05 0)
(-0.000132983 -6.1122e-05 0)
(-0.000123221 -6.25464e-05 0)
(-0.000113243 -6.3861e-05 0)
(-0.000103066 -6.50636e-05 0)
(-9.27089e-05 -6.61521e-05 0)
(-8.21886e-05 -6.71245e-05 0)
(-7.15241e-05 -6.79791e-05 0)
(-6.07341e-05 -6.87144e-05 0)
(-4.98376e-05 -6.93291e-05 0)
(-3.88535e-05 -6.98222e-05 0)
(-2.78013e-05 -7.01928e-05 0)
(-1.67004e-05 -7.04403e-05 0)
(-5.57012e-06 -7.05641e-05 0)
(5.57005e-06 -7.05641e-05 0)
(1.67003e-05 -7.04403e-05 0)
(2.78013e-05 -7.01928e-05 0)
(3.88535e-05 -6.98222e-05 0)
(4.98375e-05 -6.93291e-05 0)
(6.0734e-05 -6.87144e-05 0)
(7.1524e-05 -6.79791e-05 0)
(8.21885e-05 -6.71245e-05 0)
(9.27088e-05 -6.61521e-05 0)
(0.000103066 -6.50636e-05 0)
(0.000113243 -6.3861e-05 0)
(0.000123221 -6.25464e-05 0)
(0.000132983 -6.1122e-05 0)
(0.000142511 -5.95904e-05 0)
(0.00015179 -5.79543e-05 0)
(0.000160802 -5.62165e-05 0)
(0.000169532 -5.438e-05 0)
(0.000177964 -5.24482e-05 0)
(0.000186085 -5.04244e-05 0)
(0.000193878 -4.83122e-05 0)
(0.000201332 -4.61152e-05 0)
(0.000208432 -4.38373e-05 0)
(0.000215167 -4.14826e-05 0)
(0.000221524 -3.90551e-05 0)
(0.000227493 -3.65592e-05 0)
(0.000233062 -3.39991e-05 0)
(0.000238223 -3.13795e-05 0)
(0.000242966 -2.87048e-05 0)
(0.000247282 -2.59799e-05 0)
(0.000251165 -2.32094e-05 0)
(0.000254607 -2.03983e-05 0)
(0.000257602 -1.75514e-05 0)
(0.000260146 -1.46738e-05 0)
(0.000262233 -1.17705e-05 0)