/*--------------------------------*- C++ -*----------------------------------*\
| =========                 |                                                 |
| \\      /  F ield         | OpenFOAM: The Open Source CFD Toolbox           |
|  \\    /   O peration     | Version:  2106                                  |
|   \\  /    A nd           | Website:  www.openfoam.com                      |
|    \\/     M anipulation  |                                                 |
\*---------------------------------------------------------------------------*/
FoamFile
{
    version     2.0;
    format      ascii;
    arch        "LSB;label=32;scalar=64";
    class       volScalarField;
    location    "3.4";
    object      p;
}
// * * * * * * * * * * * * * * * * * * * * * * * * * * * * * * * * * * * * * //

dimensions      [1 -1 -2 0 0 0 0];

internalField   nonuniform List<scalar> 
90000
(
0
9.05318e-07
3.33706e-06
7.20603e-06
1.24826e-05
1.91468e-05
2.71793e-05
3.65603e-05
4.72683e-05
5.92825e-05
7.25777e-05
8.71307e-05
0.000102914
0.000119899
0.000138057
0.000157354
0.000177758
0.000199233
0.000221741
0.000245243
0.000269698
0.000295064
0.000321297
0.00034835
0.000376177
0.000404729
0.000433956
0.000463808
0.000494232
0.000525176
0.000556584
0.000588402
0.000620575
0.000653047
0.00068576
0.000718658
0.000751682
0.000784775
0.000817879
0.000850935
0.000883885
0.000916672
0.000949237
0.000981524
0.00101347
0.00104503
0.00107614
0.00110675
0.0011368
0.00116624
0.00119501
0.00122308
0.00125038
0.00127686
0.00130249
0.00132721
0.00135098
0.00137376
0.00139551
0.00141619
0.00143576
0.00145419
0.00147144
0.00148749
0.0015023
0.00151584
0.0015281
0.00153906
0.00154868
0.00155696
0.00156388
0.00156943
0.0015736
0.00157637
0.00157775
0.00157774
0.00157634
0.00157353
0.00156934
0.00156377
0.00155682
0.00154852
0.00153887
0.00152789
0.0015156
0.00150203
0.00148719
0.00147112
0.00145384
0.00143539
0.00141579
0.00139508
0.00137331
0.0013505
0.0013267
0.00130195
0.00127629
0.00124978
0.00122245
0.00119436
0.00116555
0.00113609
0.00110601
0.00107537
0.00104423
0.00101264
0.00098066
0.000948342
0.000915746
0.000882927
0.000849944
0.000816855
0.000783717
0.000750589
0.00071753
0.000684596
0.000651846
0.000619336
0.000587126
0.000555269
0.000523822
0.000492839
0.000462375
0.000432482
0.000403212
0.000374616
0.000346745
0.000319644
0.000293363
0.000267947
0.000243438
0.000219881
0.000197315
0.000175779
0.00015531
0.000135945
0.000117715
0.000100653
8.47879e-05
7.01465e-05
5.67542e-05
4.46339e-05
3.38063e-05
2.429e-05
1.61013e-05
9.25429e-06
3.76048e-06
-3.71028e-07
-3.13374e-06
-4.52158e-06
-0.00666852
-0.00666734
-0.00666481
-0.00666089
-0.00665558
-0.00664889
-0.00664083
-0.00663143
-0.0066207
-0.00660866
-0.00659534
-0.00658076
-0.00656495
-0.00654794
-0.00652975
-0.00651042
-0.00648998
-0.00646846
-0.00644592
-0.00642237
-0.00639787
-0.00637246
-0.00634619
-0.00631909
-0.00629121
-0.00626261
-0.00623333
-0.00620343
-0.00617295
-0.00614195
-0.00611049
-0.00607862
-0.00604639
-0.00601386
-0.00598109
-0.00594813
-0.00591505
-0.0058819
-0.00584874
-0.00581563
-0.00578262
-0.00574978
-0.00571715
-0.00568481
-0.00565281
-0.00562119
-0.00559003
-0.00555937
-0.00552927
-0.00549978
-0.00547095
-0.00544284
-0.00541549
-0.00538896
-0.00536329
-0.00533852
-0.00531471
-0.00529189
-0.0052701
-0.00524939
-0.00522978
-0.00521132
-0.00519404
-0.00517797
-0.00516313
-0.00514956
-0.00513728
-0.00512631
-0.00511667
-0.00510837
-0.00510144
-0.00509588
-0.00509171
-0.00508893
-0.00508754
-0.00508756
-0.00508897
-0.00509177
-0.00509597
-0.00510155
-0.00510851
-0.00511683
-0.0051265
-0.0051375
-0.00514981
-0.0051634
-0.00517827
-0.00519436
-0.00521167
-0.00523016
-0.00524979
-0.00527053
-0.00529235
-0.00531519
-0.00533904
-0.00536383
-0.00538953
-0.00541609
-0.00544346
-0.0054716
-0.00550046
-0.00552998
-0.00556011
-0.0055908
-0.00562199
-0.00565364
-0.00568567
-0.00571805
-0.0057507
-0.00578358
-0.00581662
-0.00584976
-0.00588296
-0.00591614
-0.00594926
-0.00598225
-0.00601506
-0.00604763
-0.00607989
-0.0061118
-0.00614331
-0.00617434
-0.00620486
-0.0062348
-0.00626412
-0.00629277
-0.00632069
-0.00634784
-0.00637416
-0.00639962
-0.00642417
-0.00644777
-0.00647038
-0.00649195
-0.00651245
-0.00653185
-0.00655012
-0.00656721
-0.0065831
-0.00659777
-0.00661118
-0.00662332
-0.00663417
-0.0066437
-0.0066519
-0.00665876
-0.00666427
-0.00666841
-0.00667117
-0.00667256
-0.0133383
-0.013337
-0.0133344
-0.0133304
-0.013325
-0.0133183
-0.0133102
-0.0133008
-0.01329
-0.0132779
-0.0132645
-0.0132499
-0.013234
-0.013217
-0.0131987
-0.0131793
-0.0131588
-0.0131372
-0.0131146
-0.0130909
-0.0130664
-0.0130409
-0.0130145
-0.0129873
-0.0129593
-0.0129306
-0.0129012
-0.0128712
-0.0128407
-0.0128095
-0.012778
-0.012746
-0.0127137
-0.012681
-0.0126481
-0.0126151
-0.0125819
-0.0125486
-0.0125153
-0.0124821
-0.012449
-0.012416
-0.0123833
-0.0123508
-0.0123187
-0.012287
-0.0122557
-0.0122249
-0.0121947
-0.0121651
-0.0121362
-0.012108
-0.0120806
-0.0120539
-0.0120282
-0.0120033
-0.0119794
-0.0119565
-0.0119347
-0.0119139
-0.0118942
-0.0118757
-0.0118583
-0.0118422
-0.0118273
-0.0118137
-0.0118014
-0.0117904
-0.0117807
-0.0117724
-0.0117654
-0.0117598
-0.0117556
-0.0117528
-0.0117515
-0.0117515
-0.0117529
-0.0117557
-0.0117599
-0.0117655
-0.0117725
-0.0117808
-0.0117905
-0.0118016
-0.0118139
-0.0118276
-0.0118425
-0.0118586
-0.011876
-0.0118946
-0.0119143
-0.0119351
-0.011957
-0.0119799
-0.0120038
-0.0120287
-0.0120545
-0.0120811
-0.0121086
-0.0121369
-0.0121658
-0.0121954
-0.0122257
-0.0122565
-0.0122878
-0.0123195
-0.0123517
-0.0123842
-0.0124169
-0.0124499
-0.0124831
-0.0125163
-0.0125496
-0.0125829
-0.0126162
-0.0126493
-0.0126822
-0.0127149
-0.0127473
-0.0127793
-0.0128109
-0.012842
-0.0128727
-0.0129027
-0.0129321
-0.0129609
-0.0129889
-0.0130161
-0.0130426
-0.0130681
-0.0130927
-0.0131164
-0.0131391
-0.0131608
-0.0131813
-0.0132008
-0.0132191
-0.0132363
-0.0132522
-0.0132669
-0.0132804
-0.0132926
-0.0133035
-0.013313
-0.0133213
-0.0133281
-0.0133337
-0.0133378
-0.0133406
-0.013342
-0.0200094
-0.020008
-0.0200054
-0.0200013
-0.0199959
-0.0199891
-0.0199809
-0.0199714
-0.0199606
-0.0199484
-0.019935
-0.0199203
-0.0199043
-0.0198872
-0.0198688
-0.0198493
-0.0198287
-0.019807
-0.0197842
-0.0197605
-0.0197358
-0.0197101
-0.0196836
-0.0196563
-0.0196282
-0.0195993
-0.0195698
-0.0195396
-0.0195089
-0.0194776
-0.0194459
-0.0194137
-0.0193812
-0.0193484
-0.0193153
-0.0192821
-0.0192487
-0.0192153
-0.0191818
-0.0191484
-0.0191151
-0.019082
-0.0190491
-0.0190165
-0.0189842
-0.0189523
-0.0189209
-0.0188899
-0.0188596
-0.0188298
-0.0188007
-0.0187724
-0.0187448
-0.018718
-0.0186921
-0.0186672
-0.0186431
-0.0186201
-0.0185981
-0.0185772
-0.0185575
-0.0185388
-0.0185214
-0.0185052
-0.0184902
-0.0184765
-0.0184642
-0.0184531
-0.0184434
-0.018435
-0.018428
-0.0184224
-0.0184182
-0.0184154
-0.018414
-0.018414
-0.0184154
-0.0184182
-0.0184225
-0.0184281
-0.0184351
-0.0184435
-0.0184533
-0.0184644
-0.0184768
-0.0184905
-0.0185055
-0.0185217
-0.0185392
-0.0185578
-0.0185776
-0.0185986
-0.0186206
-0.0186436
-0.0186677
-0.0186927
-0.0187186
-0.0187454
-0.018773
-0.0188014
-0.0188305
-0.0188603
-0.0188907
-0.0189216
-0.0189531
-0.018985
-0.0190173
-0.01905
-0.0190829
-0.0191161
-0.0191494
-0.0191829
-0.0192163
-0.0192498
-0.0192832
-0.0193165
-0.0193496
-0.0193824
-0.019415
-0.0194472
-0.019479
-0.0195103
-0.0195411
-0.0195713
-0.0196008
-0.0196297
-0.0196579
-0.0196853
-0.0197118
-0.0197375
-0.0197623
-0.0197861
-0.0198089
-0.0198306
-0.0198513
-0.0198709
-0.0198893
-0.0199066
-0.0199226
-0.0199374
-0.0199509
-0.0199632
-0.0199741
-0.0199837
-0.019992
-0.0199989
-0.0200045
-0.0200086
-0.0200114
-0.0200128
-0.0266818
-0.0266805
-0.0266777
-0.0266736
-0.0266681
-0.0266613
-0.026653
-0.0266435
-0.0266325
-0.0266203
-0.0266067
-0.0265919
-0.0265758
-0.0265586
-0.0265401
-0.0265204
-0.0264997
-0.0264778
-0.0264549
-0.026431
-0.0264061
-0.0263803
-0.0263536
-0.0263261
-0.0262978
-0.0262687
-0.026239
-0.0262086
-0.0261776
-0.0261461
-0.0261142
-0.0260818
-0.0260491
-0.026016
-0.0259827
-0.0259493
-0.0259157
-0.025882
-0.0258483
-0.0258147
-0.0257811
-0.0257478
-0.0257147
-0.0256818
-0.0256493
-0.0256172
-0.0255855
-0.0255544
-0.0255238
-0.0254938
-0.0254646
-0.025436
-0.0254082
-0.0253813
-0.0253552
-0.02533
-0.0253059
-0.0252827
-0.0252605
-0.0252395
-0.0252196
-0.0252008
-0.0251833
-0.025167
-0.0251519
-0.0251381
-0.0251256
-0.0251145
-0.0251047
-0.0250963
-0.0250892
-0.0250836
-0.0250793
-0.0250765
-0.0250751
-0.0250751
-0.0250765
-0.0250794
-0.0250837
-0.0250893
-0.0250964
-0.0251049
-0.0251147
-0.0251258
-0.0251383
-0.0251522
-0.0251673
-0.0251836
-0.0252012
-0.02522
-0.0252399
-0.025261
-0.0252831
-0.0253063
-0.0253306
-0.0253557
-0.0253818
-0.0254088
-0.0254366
-0.0254652
-0.0254945
-0.0255245
-0.0255551
-0.0255863
-0.025618
-0.0256501
-0.0256827
-0.0257155
-0.0257487
-0.0257821
-0.0258157
-0.0258493
-0.025883
-0.0259168
-0.0259504
-0.0259839
-0.0260172
-0.0260503
-0.0260831
-0.0261155
-0.0261475
-0.026179
-0.02621
-0.0262404
-0.0262702
-0.0262993
-0.0263277
-0.0263552
-0.026382
-0.0264078
-0.0264328
-0.0264567
-0.0264797
-0.0265016
-0.0265224
-0.0265421
-0.0265607
-0.026578
-0.0265942
-0.0266091
-0.0266227
-0.026635
-0.0266461
-0.0266557
-0.0266641
-0.026671
-0.0266766
-0.0266808
-0.0266836
-0.026685
-0.0333556
-0.0333543
-0.0333515
-0.0333473
-0.0333418
-0.0333348
-0.0333265
-0.0333168
-0.0333058
-0.0332934
-0.0332798
-0.0332648
-0.0332486
-0.0332312
-0.0332125
-0.0331927
-0.0331717
-0.0331497
-0.0331266
-0.0331025
-0.0330774
-0.0330513
-0.0330244
-0.0329966
-0.0329681
-0.0329388
-0.0329088
-0.0328781
-0.0328469
-0.0328152
-0.0327829
-0.0327503
-0.0327172
-0.0326839
-0.0326503
-0.0326166
-0.0325827
-0.0325487
-0.0325147
-0.0324808
-0.032447
-0.0324133
-0.0323799
-0.0323468
-0.032314
-0.0322816
-0.0322497
-0.0322183
-0.0321874
-0.0321572
-0.0321277
-0.0320989
-0.0320708
-0.0320437
-0.0320174
-0.031992
-0.0319676
-0.0319442
-0.0319219
-0.0319006
-0.0318806
-0.0318616
-0.0318439
-0.0318275
-0.0318123
-0.0317984
-0.0317858
-0.0317745
-0.0317647
-0.0317562
-0.0317491
-0.0317434
-0.0317391
-0.0317362
-0.0317348
-0.0317348
-0.0317363
-0.0317392
-0.0317435
-0.0317492
-0.0317563
-0.0317648
-0.0317747
-0.031786
-0.0317986
-0.0318125
-0.0318278
-0.0318443
-0.031862
-0.0318809
-0.031901
-0.0319223
-0.0319446
-0.0319681
-0.0319925
-0.0320179
-0.0320442
-0.0320714
-0.0320995
-0.0321283
-0.0321579
-0.0321881
-0.032219
-0.0322504
-0.0322824
-0.0323148
-0.0323476
-0.0323808
-0.0324143
-0.0324479
-0.0324818
-0.0325158
-0.0325498
-0.0325838
-0.0326177
-0.0326515
-0.0326851
-0.0327185
-0.0327515
-0.0327842
-0.0328165
-0.0328483
-0.0328796
-0.0329102
-0.0329403
-0.0329696
-0.0329982
-0.033026
-0.033053
-0.0330791
-0.0331042
-0.0331284
-0.0331516
-0.0331737
-0.0331947
-0.0332146
-0.0332333
-0.0332508
-0.0332671
-0.0332821
-0.0332958
-0.0333083
-0.0333194
-0.0333291
-0.0333375
-0.0333446
-0.0333502
-0.0333544
-0.0333573
-0.0333587
-0.0400309
-0.0400295
-0.0400266
-0.0400224
-0.0400168
-0.0400098
-0.0400013
-0.0399916
-0.0399804
-0.0399679
-0.0399541
-0.039939
-0.0399226
-0.039905
-0.0398861
-0.0398661
-0.0398449
-0.0398227
-0.0397993
-0.0397749
-0.0397496
-0.0397233
-0.0396961
-0.039668
-0.0396392
-0.0396095
-0.0395792
-0.0395483
-0.0395167
-0.0394846
-0.0394521
-0.0394191
-0.0393857
-0.039352
-0.0393181
-0.039284
-0.0392498
-0.0392154
-0.0391811
-0.0391468
-0.0391127
-0.0390787
-0.0390449
-0.0390114
-0.0389783
-0.0389456
-0.0389133
-0.0388816
-0.0388504
-0.0388199
-0.03879
-0.0387609
-0.0387326
-0.0387052
-0.0386786
-0.0386529
-0.0386283
-0.0386047
-0.0385821
-0.0385607
-0.0385404
-0.0385213
-0.0385034
-0.0384867
-0.0384714
-0.0384573
-0.0384446
-0.0384332
-0.0384233
-0.0384147
-0.0384075
-0.0384017
-0.0383974
-0.0383946
-0.0383931
-0.0383931
-0.0383946
-0.0383975
-0.0384018
-0.0384076
-0.0384148
-0.0384234
-0.0384334
-0.0384448
-0.0384576
-0.0384716
-0.038487
-0.0385037
-0.0385216
-0.0385407
-0.0385611
-0.0385825
-0.0386051
-0.0386288
-0.0386534
-0.0386791
-0.0387057
-0.0387332
-0.0387615
-0.0387907
-0.0388205
-0.0388511
-0.0388823
-0.0389141
-0.0389464
-0.0389791
-0.0390123
-0.0390458
-0.0390796
-0.0391136
-0.0391478
-0.0391821
-0.0392165
-0.0392508
-0.0392851
-0.0393193
-0.0393532
-0.0393869
-0.0394203
-0.0394534
-0.039486
-0.0395181
-0.0395497
-0.0395807
-0.039611
-0.0396407
-0.0396696
-0.0396977
-0.0397249
-0.0397513
-0.0397767
-0.0398011
-0.0398245
-0.0398468
-0.0398681
-0.0398881
-0.039907
-0.0399247
-0.0399412
-0.0399564
-0.0399703
-0.0399828
-0.039994
-0.0400039
-0.0400124
-0.0400195
-0.0400252
-0.0400295
-0.0400323
-0.0400338
-0.0467075
-0.0467061
-0.0467032
-0.0466989
-0.0466932
-0.0466861
-0.0466776
-0.0466677
-0.0466564
-0.0466437
-0.0466297
-0.0466144
-0.0465978
-0.04658
-0.0465609
-0.0465407
-0.0465192
-0.0464967
-0.0464731
-0.0464484
-0.0464227
-0.0463961
-0.0463686
-0.0463402
-0.046311
-0.046281
-0.0462503
-0.046219
-0.0461871
-0.0461546
-0.0461217
-0.0460883
-0.0460545
-0.0460204
-0.0459861
-0.0459516
-0.0459169
-0.0458822
-0.0458475
-0.0458128
-0.0457782
-0.0457438
-0.0457096
-0.0456757
-0.0456422
-0.0456091
-0.0455764
-0.0455443
-0.0455128
-0.0454819
-0.0454517
-0.0454222
-0.0453936
-0.0453658
-0.0453389
-0.0453129
-0.045288
-0.0452641
-0.0452412
-0.0452195
-0.045199
-0.0451797
-0.0451616
-0.0451447
-0.0451292
-0.045115
-0.0451021
-0.0450906
-0.0450805
-0.0450718
-0.0450645
-0.0450587
-0.0450543
-0.0450514
-0.04505
-0.04505
-0.0450515
-0.0450544
-0.0450588
-0.0450647
-0.0450719
-0.0450807
-0.0450908
-0.0451023
-0.0451152
-0.0451294
-0.045145
-0.0451619
-0.04518
-0.0451994
-0.0452199
-0.0452417
-0.0452645
-0.0452885
-0.0453134
-0.0453394
-0.0453663
-0.0453942
-0.0454228
-0.0454523
-0.0454825
-0.0455135
-0.045545
-0.0455772
-0.0456099
-0.045643
-0.0456766
-0.0457105
-0.0457447
-0.0457791
-0.0458137
-0.0458485
-0.0458832
-0.045918
-0.0459527
-0.0459872
-0.0460216
-0.0460557
-0.0460895
-0.046123
-0.0461559
-0.0461885
-0.0462204
-0.0462518
-0.0462825
-0.0463125
-0.0463417
-0.0463702
-0.0463978
-0.0464244
-0.0464501
-0.0464749
-0.0464985
-0.0465211
-0.0465426
-0.0465629
-0.046582
-0.0465999
-0.0466166
-0.046632
-0.046646
-0.0466587
-0.0466701
-0.0466801
-0.0466887
-0.0466958
-0.0467016
-0.0467059
-0.0467088
-0.0467103
-0.0533856
-0.0533841
-0.0533812
-0.0533769
-0.0533711
-0.0533639
-0.0533552
-0.0533451
-0.0533337
-0.0533209
-0.0533067
-0.0532912
-0.0532743
-0.0532563
-0.0532369
-0.0532164
-0.0531947
-0.0531718
-0.0531479
-0.0531229
-0.0530968
-0.0530699
-0.053042
-0.0530132
-0.0529836
-0.0529532
-0.0529221
-0.0528904
-0.052858
-0.0528251
-0.0527917
-0.0527578
-0.0527236
-0.0526891
-0.0526543
-0.0526193
-0.0525842
-0.0525489
-0.0525137
-0.0524786
-0.0524435
-0.0524086
-0.052374
-0.0523397
-0.0523057
-0.0522721
-0.052239
-0.0522065
-0.0521745
-0.0521432
-0.0521126
-0.0520827
-0.0520537
-0.0520255
-0.0519982
-0.0519719
-0.0519466
-0.0519224
-0.0518993
-0.0518773
-0.0518565
-0.0518369
-0.0518185
-0.0518014
-0.0517857
-0.0517713
-0.0517582
-0.0517466
-0.0517363
-0.0517275
-0.0517202
-0.0517143
-0.0517098
-0.0517069
-0.0517054
-0.0517054
-0.0517069
-0.0517099
-0.0517143
-0.0517203
-0.0517277
-0.0517365
-0.0517468
-0.0517584
-0.0517715
-0.0517859
-0.0518017
-0.0518188
-0.0518372
-0.0518568
-0.0518777
-0.0518997
-0.0519229
-0.0519471
-0.0519724
-0.0519988
-0.0520261
-0.0520543
-0.0520833
-0.0521132
-0.0521438
-0.0521752
-0.0522072
-0.0522398
-0.0522729
-0.0523065
-0.0523405
-0.0523749
-0.0524096
-0.0524445
-0.0524795
-0.0525147
-0.05255
-0.0525852
-0.0526204
-0.0526554
-0.0526902
-0.0527248
-0.0527591
-0.052793
-0.0528264
-0.0528594
-0.0528918
-0.0529235
-0.0529547
-0.0529851
-0.0530147
-0.0530435
-0.0530715
-0.0530985
-0.0531246
-0.0531496
-0.0531736
-0.0531965
-0.0532183
-0.0532389
-0.0532583
-0.0532764
-0.0532933
-0.0533089
-0.0533231
-0.053336
-0.0533475
-0.0533576
-0.0533663
-0.0533736
-0.0533795
-0.0533838
-0.0533868
-0.0533883
-0.0600652
-0.0600637
-0.0600607
-0.0600563
-0.0600504
-0.0600431
-0.0600343
-0.060024
-0.0600124
-0.0599994
-0.059985
-0.0599692
-0.0599521
-0.0599338
-0.0599141
-0.0598933
-0.0598712
-0.059848
-0.0598237
-0.0597983
-0.0597719
-0.0597445
-0.0597162
-0.059687
-0.0596569
-0.0596261
-0.0595945
-0.0595623
-0.0595295
-0.059496
-0.0594621
-0.0594278
-0.059393
-0.059358
-0.0593226
-0.0592871
-0.0592515
-0.0592157
-0.05918
-0.0591443
-0.0591087
-0.0590733
-0.0590381
-0.0590033
-0.0589687
-0.0589347
-0.0589011
-0.058868
-0.0588356
-0.0588038
-0.0587727
-0.0587424
-0.0587129
-0.0586843
-0.0586566
-0.0586299
-0.0586043
-0.0585797
-0.0585562
-0.0585338
-0.0585127
-0.0584928
-0.0584742
-0.0584568
-0.0584408
-0.0584262
-0.058413
-0.0584011
-0.0583907
-0.0583818
-0.0583743
-0.0583683
-0.0583638
-0.0583608
-0.0583593
-0.0583594
-0.0583609
-0.0583639
-0.0583684
-0.0583744
-0.0583819
-0.0583909
-0.0584013
-0.0584132
-0.0584264
-0.0584411
-0.0584571
-0.0584745
-0.0584931
-0.0585131
-0.0585342
-0.0585566
-0.0585801
-0.0586047
-0.0586304
-0.0586572
-0.0586849
-0.0587135
-0.058743
-0.0587733
-0.0588044
-0.0588363
-0.0588687
-0.0589018
-0.0589355
-0.0589696
-0.0590041
-0.059039
-0.0590742
-0.0591096
-0.0591452
-0.059181
-0.0592168
-0.0592525
-0.0592882
-0.0593238
-0.0593591
-0.0593942
-0.059429
-0.0594634
-0.0594974
-0.0595308
-0.0595637
-0.059596
-0.0596276
-0.0596584
-0.0596885
-0.0597178
-0.0597462
-0.0597736
-0.0598001
-0.0598255
-0.0598498
-0.0598731
-0.0598952
-0.0599161
-0.0599358
-0.0599542
-0.0599713
-0.0599871
-0.0600016
-0.0600147
-0.0600263
-0.0600366
-0.0600455
-0.0600528
-0.0600588
-0.0600632
-0.0600662
-0.0600677
-0.0667462
-0.0667447
-0.0667417
-0.0667372
-0.0667312
-0.0667237
-0.0667148
-0.0667044
-0.0666925
-0.0666793
-0.0666646
-0.0666486
-0.0666312
-0.0666126
-0.0665926
-0.0665714
-0.066549
-0.0665254
-0.0665007
-0.0664749
-0.066448
-0.0664202
-0.0663913
-0.0663616
-0.0663311
-0.0662997
-0.0662677
-0.0662349
-0.0662015
-0.0661675
-0.066133
-0.0660981
-0.0660628
-0.0660271
-0.0659912
-0.0659551
-0.0659188
-0.0658825
-0.0658462
-0.0658099
-0.0657737
-0.0657377
-0.0657019
-0.0656665
-0.0656314
-0.0655968
-0.0655626
-0.065529
-0.065496
-0.0654637
-0.0654321
-0.0654013
-0.0653713
-0.0653422
-0.0653141
-0.0652869
-0.0652608
-0.0652358
-0.0652119
-0.0651892
-0.0651677
-0.0651475
-0.0651285
-0.0651109
-0.0650947
-0.0650798
-0.0650663
-0.0650543
-0.0650437
-0.0650346
-0.065027
-0.0650209
-0.0650164
-0.0650133
-0.0650118
-0.0650118
-0.0650133
-0.0650164
-0.065021
-0.0650271
-0.0650348
-0.0650439
-0.0650545
-0.0650665
-0.06508
-0.0650949
-0.0651112
-0.0651289
-0.0651478
-0.0651681
-0.0651896
-0.0652123
-0.0652362
-0.0652613
-0.0652874
-0.0653146
-0.0653428
-0.0653719
-0.0654019
-0.0654327
-0.0654643
-0.0654967
-0.0655297
-0.0655633
-0.0655975
-0.0656322
-0.0656673
-0.0657028
-0.0657386
-0.0657746
-0.0658108
-0.0658472
-0.0658835
-0.0659199
-0.0659562
-0.0659923
-0.0660283
-0.066064
-0.0660993
-0.0661343
-0.0661688
-0.0662028
-0.0662363
-0.0662691
-0.0663012
-0.0663326
-0.0663632
-0.0663929
-0.0664218
-0.0664497
-0.0664765
-0.0665024
-0.0665272
-0.0665508
-0.0665733
-0.0665945
-0.0666145
-0.0666332
-0.0666507
-0.0666667
-0.0666814
-0.0666947
-0.0667066
-0.066717
-0.066726
-0.0667335
-0.0667396
-0.0667441
-0.0667471
-0.0667487
-0.0734288
-0.0734272
-0.0734242
-0.0734196
-0.0734135
-0.0734058
-0.0733967
-0.0733861
-0.0733741
-0.0733606
-0.0733457
-0.0733293
-0.0733117
-0.0732926
-0.0732723
-0.0732507
-0.0732279
-0.0732039
-0.0731787
-0.0731524
-0.0731251
-0.0730967
-0.0730674
-0.0730372
-0.073006
-0.0729741
-0.0729415
-0.0729081
-0.0728741
-0.0728395
-0.0728044
-0.0727688
-0.0727329
-0.0726966
-0.07266
-0.0726232
-0.0725863
-0.0725493
-0.0725123
-0.0724753
-0.0724385
-0.0724018
-0.0723654
-0.0723293
-0.0722936
-0.0722583
-0.0722236
-0.0721893
-0.0721558
-0.0721228
-0.0720907
-0.0720593
-0.0720288
-0.0719992
-0.0719705
-0.0719429
-0.0719163
-0.0718908
-0.0718665
-0.0718434
-0.0718215
-0.0718009
-0.0717816
-0.0717637
-0.0717471
-0.071732
-0.0717182
-0.071706
-0.0716952
-0.071686
-0.0716782
-0.071672
-0.0716674
-0.0716643
-0.0716627
-0.0716627
-0.0716643
-0.0716674
-0.0716721
-0.0716784
-0.0716861
-0.0716954
-0.0717062
-0.0717185
-0.0717322
-0.0717474
-0.071764
-0.0717819
-0.0718012
-0.0718219
-0.0718438
-0.0718669
-0.0718913
-0.0719168
-0.0719434
-0.071971
-0.0719997
-0.0720294
-0.0720599
-0.0720913
-0.0721235
-0.0721564
-0.0721901
-0.0722243
-0.0722591
-0.0722944
-0.0723302
-0.0723663
-0.0724027
-0.0724394
-0.0724763
-0.0725133
-0.0725503
-0.0725873
-0.0726243
-0.0726611
-0.0726977
-0.072734
-0.07277
-0.0728056
-0.0728408
-0.0728754
-0.0729095
-0.0729429
-0.0729756
-0.0730075
-0.0730387
-0.0730689
-0.0730983
-0.0731267
-0.0731541
-0.0731804
-0.0732056
-0.0732297
-0.0732526
-0.0732742
-0.0732946
-0.0733136
-0.0733314
-0.0733477
-0.0733627
-0.0733762
-0.0733883
-0.0733989
-0.0734081
-0.0734157
-0.0734219
-0.0734265
-0.0734296
-0.0734311
-0.0801129
-0.0801113
-0.0801082
-0.0801035
-0.0800973
-0.0800895
-0.0800802
-0.0800694
-0.0800571
-0.0800433
-0.0800281
-0.0800115
-0.0799934
-0.079974
-0.0799533
-0.0799313
-0.079908
-0.0798835
-0.0798579
-0.0798311
-0.0798032
-0.0797743
-0.0797444
-0.0797135
-0.0796818
-0.0796493
-0.079616
-0.0795819
-0.0795473
-0.079512
-0.0794762
-0.0794399
-0.0794033
-0.0793663
-0.079329
-0.0792915
-0.0792538
-0.0792161
-0.0791784
-0.0791407
-0.0791031
-0.0790658
-0.0790286
-0.0789918
-0.0789554
-0.0789194
-0.078884
-0.0788491
-0.0788148
-0.0787813
-0.0787485
-0.0787165
-0.0786854
-0.0786552
-0.078626
-0.0785978
-0.0785707
-0.0785447
-0.0785199
-0.0784963
-0.078474
-0.078453
-0.0784333
-0.078415
-0.0783982
-0.0783827
-0.0783687
-0.0783562
-0.0783453
-0.0783358
-0.0783279
-0.0783216
-0.0783169
-0.0783137
-0.0783121
-0.0783121
-0.0783137
-0.0783169
-0.0783217
-0.078328
-0.078336
-0.0783454
-0.0783564
-0.0783689
-0.0783829
-0.0783984
-0.0784153
-0.0784336
-0.0784533
-0.0784744
-0.0784967
-0.0785203
-0.0785451
-0.0785711
-0.0785983
-0.0786265
-0.0786557
-0.0786859
-0.0787171
-0.0787491
-0.0787819
-0.0788155
-0.0788498
-0.0788847
-0.0789202
-0.0789562
-0.0789927
-0.0790295
-0.0790667
-0.0791041
-0.0791417
-0.0791794
-0.0792171
-0.0792549
-0.0792926
-0.0793301
-0.0793674
-0.0794044
-0.0794411
-0.0794774
-0.0795133
-0.0795486
-0.0795833
-0.0796173
-0.0796507
-0.0796833
-0.079715
-0.0797459
-0.0797758
-0.0798048
-0.0798327
-0.0798596
-0.0798853
-0.0799098
-0.0799331
-0.0799552
-0.0799759
-0.0799954
-0.0800134
-0.0800301
-0.0800454
-0.0800592
-0.0800715
-0.0800823
-0.0800917
-0.0800995
-0.0801057
-0.0801104
-0.0801136
-0.0801152
-0.0867986
-0.0867969
-0.0867938
-0.086789
-0.0867826
-0.0867747
-0.0867652
-0.0867541
-0.0867416
-0.0867275
-0.086712
-0.086695
-0.0866766
-0.0866568
-0.0866356
-0.0866131
-0.0865894
-0.0865644
-0.0865382
-0.0865108
-0.0864823
-0.0864528
-0.0864223
-0.0863908
-0.0863584
-0.0863252
-0.0862912
-0.0862564
-0.086221
-0.086185
-0.0861485
-0.0861115
-0.086074
-0.0860362
-0.0859982
-0.0859599
-0.0859215
-0.0858829
-0.0858444
-0.0858059
-0.0857676
-0.0857294
-0.0856915
-0.085654
-0.0856168
-0.08558
-0.0855438
-0.0855082
-0.0854732
-0.085439
-0.0854055
-0.0853728
-0.085341
-0.0853102
-0.0852804
-0.0852516
-0.0852239
-0.0851974
-0.0851721
-0.085148
-0.0851252
-0.0851038
-0.0850837
-0.085065
-0.0850478
-0.085032
-0.0850177
-0.085005
-0.0849938
-0.0849841
-0.0849761
-0.0849696
-0.0849648
-0.0849615
-0.0849599
-0.0849599
-0.0849616
-0.0849648
-0.0849697
-0.0849762
-0.0849843
-0.0849939
-0.0850052
-0.085018
-0.0850323
-0.085048
-0.0850653
-0.085084
-0.0851041
-0.0851256
-0.0851484
-0.0851725
-0.0851979
-0.0852244
-0.0852521
-0.0852809
-0.0853108
-0.0853416
-0.0853734
-0.0854061
-0.0854396
-0.0854739
-0.0855089
-0.0855446
-0.0855808
-0.0856176
-0.0856548
-0.0856924
-0.0857303
-0.0857685
-0.0858069
-0.0858454
-0.085884
-0.0859225
-0.085961
-0.0859993
-0.0860374
-0.0860752
-0.0861127
-0.0861497
-0.0861863
-0.0862223
-0.0862578
-0.0862926
-0.0863266
-0.0863599
-0.0863923
-0.0864238
-0.0864544
-0.0864839
-0.0865124
-0.0865398
-0.0865661
-0.0865911
-0.0866149
-0.0866374
-0.0866586
-0.0866785
-0.0866969
-0.086714
-0.0867295
-0.0867436
-0.0867562
-0.0867673
-0.0867768
-0.0867848
-0.0867911
-0.0867959
-0.0867992
-0.0868008
-0.0934858
-0.0934842
-0.0934809
-0.093476
-0.0934695
-0.0934614
-0.0934517
-0.0934404
-0.0934276
-0.0934132
-0.0933973
-0.09338
-0.0933611
-0.0933409
-0.0933193
-0.0932963
-0.093272
-0.0932464
-0.0932196
-0.0931917
-0.0931626
-0.0931324
-0.0931012
-0.093069
-0.0930359
-0.0930019
-0.0929671
-0.0929316
-0.0928954
-0.0928586
-0.0928213
-0.0927834
-0.0927451
-0.0927065
-0.0926676
-0.0926285
-0.0925892
-0.0925498
-0.0925104
-0.0924711
-0.0924319
-0.0923929
-0.0923541
-0.0923157
-0.0922777
-0.0922401
-0.0922031
-0.0921667
-0.0921309
-0.0920959
-0.0920617
-0.0920283
-0.0919958
-0.0919643
-0.0919338
-0.0919043
-0.091876
-0.0918489
-0.091823
-0.0917984
-0.0917751
-0.0917532
-0.0917327
-0.0917136
-0.091696
-0.0916798
-0.0916652
-0.0916522
-0.0916407
-0.0916309
-0.0916227
-0.091616
-0.0916111
-0.0916078
-0.0916061
-0.0916062
-0.0916078
-0.0916112
-0.0916161
-0.0916228
-0.091631
-0.0916409
-0.0916524
-0.0916655
-0.0916801
-0.0916962
-0.0917139
-0.091733
-0.0917536
-0.0917755
-0.0917988
-0.0918235
-0.0918494
-0.0918765
-0.0919048
-0.0919343
-0.0919648
-0.0919963
-0.0920289
-0.0920623
-0.0920966
-0.0921316
-0.0921674
-0.0922038
-0.0922409
-0.0922785
-0.0923165
-0.092355
-0.0923937
-0.0924328
-0.092472
-0.0925114
-0.0925508
-0.0925902
-0.0926295
-0.0926687
-0.0927076
-0.0927463
-0.0927846
-0.0928225
-0.0928599
-0.0928967
-0.0929329
-0.0929685
-0.0930033
-0.0930373
-0.0930704
-0.0931027
-0.0931339
-0.0931641
-0.0931933
-0.0932213
-0.0932481
-0.0932737
-0.093298
-0.093321
-0.0933427
-0.093363
-0.0933818
-0.0933993
-0.0934152
-0.0934296
-0.0934424
-0.0934538
-0.0934635
-0.0934716
-0.0934782
-0.0934831
-0.0934863
-0.093488
-0.100175
-0.100173
-0.10017
-0.100165
-0.100158
-0.10015
-0.10014
-0.100128
-0.100115
-0.1001
-0.100084
-0.100066
-0.100047
-0.100026
-0.100004
-0.0999807
-0.0999559
-0.0999297
-0.0999023
-0.0998736
-0.0998439
-0.099813
-0.099781
-0.0997481
-0.0997142
-0.0996794
-0.0996438
-0.0996075
-0.0995704
-0.0995328
-0.0994945
-0.0994558
-0.0994166
-0.0993771
-0.0993372
-0.0992972
-0.099257
-0.0992167
-0.0991763
-0.0991361
-0.0990959
-0.099056
-0.0990164
-0.098977
-0.0989381
-0.0988997
-0.0988618
-0.0988245
-0.0987879
-0.098752
-0.098717
-0.0986828
-0.0986496
-0.0986173
-0.0985861
-0.098556
-0.098527
-0.0984992
-0.0984727
-0.0984476
-0.0984237
-0.0984013
-0.0983802
-0.0983607
-0.0983427
-0.0983262
-0.0983112
-0.0982979
-0.0982861
-0.098276
-0.0982676
-0.0982609
-0.0982558
-0.0982524
-0.0982507
-0.0982507
-0.0982524
-0.0982558
-0.0982609
-0.0982677
-0.0982762
-0.0982863
-0.0982981
-0.0983114
-0.0983264
-0.0983429
-0.098361
-0.0983806
-0.0984016
-0.0984241
-0.0984479
-0.0984732
-0.0984997
-0.0985275
-0.0985565
-0.0985866
-0.0986178
-0.0986501
-0.0986834
-0.0987176
-0.0987527
-0.0987886
-0.0988252
-0.0988625
-0.0989004
-0.0989389
-0.0989779
-0.0990172
-0.0990569
-0.0990969
-0.099137
-0.0991773
-0.0992176
-0.099258
-0.0992982
-0.0993383
-0.0993782
-0.0994178
-0.099457
-0.0994957
-0.099534
-0.0995717
-0.0996088
-0.0996452
-0.0996808
-0.0997156
-0.0997495
-0.0997825
-0.0998145
-0.0998454
-0.0998752
-0.0999039
-0.0999313
-0.0999575
-0.0999824
-0.100006
-0.100028
-0.100049
-0.100068
-0.100086
-0.100102
-0.100117
-0.10013
-0.100142
-0.100152
-0.10016
-0.100167
-0.100172
-0.100175
-0.100177
-0.106865
-0.106864
-0.10686
-0.106855
-0.106848
-0.10684
-0.10683
-0.106818
-0.106804
-0.106789
-0.106773
-0.106754
-0.106735
-0.106713
-0.106691
-0.106667
-0.106641
-0.106614
-0.106586
-0.106557
-0.106526
-0.106495
-0.106462
-0.106428
-0.106393
-0.106358
-0.106321
-0.106284
-0.106246
-0.106207
-0.106168
-0.106129
-0.106088
-0.106048
-0.106007
-0.105966
-0.105925
-0.105884
-0.105842
-0.105801
-0.10576
-0.105719
-0.105678
-0.105638
-0.105598
-0.105559
-0.10552
-0.105482
-0.105444
-0.105407
-0.105371
-0.105336
-0.105302
-0.105269
-0.105237
-0.105206
-0.105177
-0.105148
-0.105121
-0.105095
-0.105071
-0.105048
-0.105026
-0.105006
-0.104988
-0.104971
-0.104956
-0.104942
-0.10493
-0.10492
-0.104911
-0.104904
-0.104899
-0.104895
-0.104894
-0.104894
-0.104895
-0.104899
-0.104904
-0.104911
-0.10492
-0.10493
-0.104942
-0.104956
-0.104971
-0.104988
-0.105007
-0.105027
-0.105048
-0.105071
-0.105096
-0.105122
-0.105149
-0.105177
-0.105207
-0.105238
-0.10527
-0.105303
-0.105337
-0.105372
-0.105408
-0.105445
-0.105482
-0.105521
-0.105559
-0.105599
-0.105639
-0.105679
-0.10572
-0.105761
-0.105802
-0.105843
-0.105885
-0.105926
-0.105967
-0.106008
-0.106049
-0.10609
-0.10613
-0.106169
-0.106209
-0.106247
-0.106285
-0.106323
-0.106359
-0.106395
-0.10643
-0.106463
-0.106496
-0.106528
-0.106558
-0.106588
-0.106616
-0.106643
-0.106668
-0.106692
-0.106715
-0.106736
-0.106756
-0.106774
-0.106791
-0.106806
-0.10682
-0.106832
-0.106842
-0.10685
-0.106857
-0.106862
-0.106866
-0.106867
-0.113558
-0.113556
-0.113553
-0.113547
-0.11354
-0.113531
-0.113521
-0.113509
-0.113495
-0.11348
-0.113463
-0.113444
-0.113424
-0.113402
-0.113378
-0.113354
-0.113328
-0.1133
-0.113271
-0.113241
-0.11321
-0.113177
-0.113144
-0.113109
-0.113074
-0.113037
-0.113
-0.112961
-0.112922
-0.112883
-0.112843
-0.112802
-0.112761
-0.112719
-0.112677
-0.112635
-0.112593
-0.11255
-0.112508
-0.112466
-0.112424
-0.112382
-0.11234
-0.112299
-0.112258
-0.112217
-0.112177
-0.112138
-0.1121
-0.112062
-0.112025
-0.111989
-0.111954
-0.11192
-0.111887
-0.111856
-0.111825
-0.111796
-0.111768
-0.111742
-0.111717
-0.111693
-0.111671
-0.11165
-0.111631
-0.111614
-0.111598
-0.111584
-0.111572
-0.111561
-0.111553
-0.111545
-0.11154
-0.111537
-0.111535
-0.111535
-0.111537
-0.11154
-0.111546
-0.111553
-0.111562
-0.111572
-0.111585
-0.111599
-0.111614
-0.111632
-0.111651
-0.111671
-0.111693
-0.111717
-0.111742
-0.111769
-0.111797
-0.111826
-0.111856
-0.111888
-0.111921
-0.111955
-0.11199
-0.112026
-0.112063
-0.1121
-0.112139
-0.112178
-0.112218
-0.112258
-0.112299
-0.112341
-0.112382
-0.112424
-0.112467
-0.112509
-0.112551
-0.112594
-0.112636
-0.112678
-0.11272
-0.112762
-0.112803
-0.112844
-0.112884
-0.112924
-0.112963
-0.113001
-0.113038
-0.113075
-0.113111
-0.113145