/*--------------------------------*- C++ -*----------------------------------*\
| =========                 |                                                 |
| \\      /  F ield         | OpenFOAM: The Open Source CFD Toolbox           |
|  \\    /   O peration     | Version:  2106                                  |
|   \\  /    A nd           | Website:  www.openfoam.com                      |
|    \\/     M anipulation  |                                                 |
\*---------------------------------------------------------------------------*/
FoamFile
{
    version     2.0;
    format      ascii;
    arch        "LSB;label=32;scalar=64";
    class       volScalarField;
    location    "3.4";
    object      p_rgh;
}
// * * * * * * * * * * * * * * * * * * * * * * * * * * * * * * * * * * * * * //

dimensions      [1 -1 -2 0 0 0 0];

internalField   nonuniform List<scalar> 
90000
(
0.00333333
0.00333424
0.00333667
0.00334054
0.00334582
0.00335248
0.00336051
0.00336989
0.0033806
0.00339262
0.00340591
0.00342046
0.00343625
0.00345323
0.00347139
0.00349069
0.00351109
0.00353257
0.00355507
0.00357858
0.00360303
0.0036284
0.00365463
0.00368168
0.00370951
0.00373806
0.00376729
0.00379714
0.00382757
0.00385851
0.00388992
0.00392174
0.00395391
0.00398638
0.00401909
0.00405199
0.00408502
0.00411811
0.00415121
0.00418427
0.00421722
0.00425
0.00428257
0.00431486
0.00434681
0.00437837
0.00440948
0.00444008
0.00447013
0.00449957
0.00452835
0.00455641
0.00458371
0.00461019
0.00463582
0.00466054
0.00468432
0.0047071
0.00472885
0.00474952
0.0047691
0.00478752
0.00480477
0.00482082
0.00483563
0.00484918
0.00486144
0.00487239
0.00488202
0.0048903
0.00489722
0.00490276
0.00490693
0.00490971
0.00491109
0.00491107
0.00490967
0.00490687
0.00490268
0.0048971
0.00489016
0.00488185
0.0048722
0.00486122
0.00484893
0.00483536
0.00482052
0.00480445
0.00478717
0.00476872
0.00474912
0.00472842
0.00470664
0.00468383
0.00466003
0.00463528
0.00460963
0.00458311
0.00455578
0.00452769
0.00449889
0.00446942
0.00443934
0.0044087
0.00437756
0.00434597
0.00431399
0.00428168
0.00424908
0.00421626
0.00418328
0.00415019
0.00411705
0.00408392
0.00405086
0.00401793
0.00398518
0.00395267
0.00392046
0.0038886
0.00385716
0.00382617
0.00379571
0.00376581
0.00373655
0.00370795
0.00368008
0.00365298
0.0036267
0.00360128
0.00357677
0.00355321
0.00353065
0.00350911
0.00348864
0.00346928
0.00345105
0.00343399
0.00341812
0.00340348
0.00339009
0.00337797
0.00336714
0.00335762
0.00334943
0.00334259
0.00333709
0.00333296
0.0033302
0.00332881
0.00333148
0.00333266
0.00333519
0.00333911
0.00334442
0.00335111
0.00335917
0.00336857
0.0033793
0.00339134
0.00340466
0.00341924
0.00343505
0.00345206
0.00347025
0.00348958
0.00351002
0.00353154
0.00355408
0.00357763
0.00360213
0.00362754
0.00365381
0.00368091
0.00370879
0.00373739
0.00376667
0.00379657
0.00382705
0.00385805
0.00388951
0.00392138
0.00395361
0.00398614
0.00401891
0.00405187
0.00408495
0.0041181
0.00415126
0.00418437
0.00421738
0.00425022
0.00428285
0.00431519
0.00434719
0.00437881
0.00440997
0.00444063
0.00447073
0.00450022
0.00452905
0.00455716
0.00458451
0.00461104
0.00463671
0.00466148
0.00468529
0.00470811
0.0047299
0.00475061
0.00477022
0.00478868
0.00480596
0.00482203
0.00483687
0.00485044
0.00486272
0.00487369
0.00488333
0.00489163
0.00489856
0.00490412
0.00490829
0.00491107
0.00491246
0.00491244
0.00491103
0.00490823
0.00490403
0.00489845
0.00489149
0.00488317
0.0048735
0.0048625
0.00485019
0.0048366
0.00482173
0.00480564
0.00478833
0.00476984
0.00475021
0.00472947
0.00470765
0.00468481
0.00466096
0.00463617
0.00461047
0.00458391
0.00455654
0.0045284
0.00449954
0.00447002
0.00443989
0.0044092
0.00437801
0.00434636
0.00431433
0.00428195
0.0042493
0.00421642
0.00418338
0.00415024
0.00411704
0.00408386
0.00405074
0.00401775
0.00398494
0.00395237
0.00392011
0.0038882
0.00385669
0.00382566
0.00379514
0.0037652
0.00373588
0.00370723
0.00367931
0.00365216
0.00362584
0.00360038
0.00357583
0.00355223
0.00352962
0.00350805
0.00348755
0.00346815
0.00344988
0.00343279
0.0034169
0.00340223
0.00338882
0.00337668
0.00336583
0.0033563
0.0033481
0.00334124
0.00333573
0.00333159
0.00332883
0.00332744
0.00332839
0.00332967
0.00333228
0.00333627
0.00334163
0.00334836
0.00335646
0.0033659
0.00337668
0.00338876
0.00340213
0.00341677
0.00343264
0.00344971
0.00346797
0.00348737
0.00350788
0.00352947
0.00355209
0.00357572
0.0036003
0.0036258
0.00365217
0.00367937
0.00370734
0.00373604
0.00376542
0.00379543
0.00382601
0.00385712
0.00388869
0.00392068
0.00395302
0.00398566
0.00401854
0.00405161
0.00408481
0.00411808
0.00415135
0.00418458
0.00421771
0.00425066
0.0042834
0.00431586
0.00434797
0.0043797
0.00441097
0.00444174
0.00447194
0.00450154
0.00453047
0.00455867
0.00458612
0.00461274
0.0046385
0.00466335
0.00468725
0.00471015
0.00473201
0.0047528
0.00477247
0.004791
0.00480834
0.00482447
0.00483936
0.00485297
0.0048653
0.00487631
0.00488599
0.00489431
0.00490127
0.00490684
0.00491103
0.00491382
0.00491521
0.0049152
0.00491378
0.00491097
0.00490675
0.00490115
0.00489417
0.00488582
0.00487612
0.00486508
0.00485273
0.00483909
0.00482417
0.00480802
0.00479065
0.0047721
0.0047524
0.00473158
0.00470969
0.00468677
0.00466284
0.00463796
0.00461217
0.00458552
0.00455805
0.00452981
0.00450085
0.00447123
0.004441
0.0044102
0.0043789
0.00434714
0.00431499
0.00428251
0.00424974
0.00421675
0.00418359
0.00415033
0.00411702
0.00408372
0.00405049
0.00401738
0.00398446
0.00395178
0.0039194
0.00388738
0.00385577
0.00382462
0.003794
0.00376395
0.00373453
0.00370578
0.00367777
0.00365052
0.00362411
0.00359856
0.00357392
0.00355024
0.00352756
0.00350591
0.00348534
0.00346587
0.00344754
0.00343039
0.00341445
0.00339973
0.00338627
0.00337408
0.0033632
0.00335363
0.0033454
0.00333852
0.003333
0.00332884
0.00332607
0.00332468
0.00332396
0.00332529
0.00332797
0.00333202
0.00333744
0.00334423
0.00335239
0.0033619
0.00337274
0.00338489
0.00339834
0.00341305
0.00342901
0.00344617
0.00346453
0.00348403
0.00350465
0.00352635
0.0035491
0.00357285
0.00359756
0.00362319
0.0036497
0.00367704
0.00370516
0.00373401
0.00376354
0.00379371
0.00382445
0.00385572
0.00388746
0.00391961
0.00395212
0.00398493
0.00401799
0.00405123
0.0040846
0.00411805
0.0041515
0.0041849
0.0042182
0.00425133
0.00428423
0.00431686
0.00434915
0.00438104
0.00441247
0.0044434
0.00447377
0.00450352
0.00453259
0.00456095
0.00458854
0.0046153
0.0046412
0.00466618
0.0046902
0.00471322
0.0047352
0.00475609
0.00477587
0.00479449
0.00481192
0.00482814
0.0048431
0.00485679
0.00486918
0.00488025
0.00488998
0.00489834
0.00490534
0.00491094
0.00491515
0.00491796
0.00491935
0.00491934
0.00491792
0.00491509
0.00491086
0.00490522
0.0048982
0.00488981
0.00488006
0.00486896
0.00485655
0.00484283
0.00482784
0.0048116
0.00479414
0.00477549
0.00475569
0.00473477
0.00471276
0.00468972
0.00466567
0.00464066
0.00461473
0.00458794
0.00456033
0.00453194
0.00450283
0.00447306
0.00444266
0.0044117
0.00438024
0.00434832
0.004316
0.00428334
0.00425041
0.00421724
0.00418391
0.00415048
0.00411699
0.00408352
0.00405011
0.00401683
0.00398374
0.00395089
0.00391834
0.00388615
0.00385437
0.00382307
0.00379228
0.00376208
0.0037325
0.00370361
0.00367544
0.00364806
0.0036215
0.00359582
0.00357106
0.00354725
0.00352445
0.00350269
0.00348201
0.00346244
0.00344402
0.00342678
0.00341075
0.00339596
0.00338242
0.00337018
0.00335923
0.00334962
0.00334135
0.00333443
0.00332888
0.0033247
0.00332191
0.00332052
0.00331818
0.00331955
0.00332228
0.00332638
0.00333187
0.00333873
0.00334696
0.00335655
0.00336747
0.00337972
0.00339326
0.00340808
0.00342415
0.00344144
0.00345992
0.00347957
0.00350033
0.00352219
0.00354509
0.00356901
0.00359389
0.00361971
0.0036464
0.00367393
0.00370224
0.00373129
0.00376103
0.00379141
0.00382237
0.00385385
0.00388581
0.00391819
0.00395092
0.00398396
0.00401725
0.00405073
0.00408433
0.004118
0.00415169
0.00418532
0.00421885
0.00425221
0.00428535
0.0043182
0.00435071
0.00438283
0.00441448
0.00444563
0.0044762
0.00450616
0.00453544
0.00456399
0.00459177
0.00461872
0.0046448
0.00466996
0.00469414
0.00471733
0.00473946
0.0047605
0.00478041
0.00479916
0.00481672
0.00483304
0.00484811
0.0048619
0.00487437
0.00488552
0.00489531
0.00490374
0.00491078
0.00491643
0.00492067
0.00492349
0.0049249
0.00492488
0.00492345
0.0049206
0.00491634
0.00491067
0.0049036
0.00489515
0.00488533
0.00487416
0.00486165
0.00484784
0.00483275
0.00481639
0.00479881
0.00478004
0.0047601
0.00473903
0.00471687
0.00469366
0.00466944
0.00464426
0.00461816
0.00459118
0.00456337
0.00453479
0.00450548
0.00447549
0.00444489
0.00441371
0.00438203
0.00434989
0.00431734
0.00428446
0.00425129
0.0042179
0.00418434
0.00415067
0.00411695
0.00408324
0.0040496
0.00401609
0.00398277
0.00394969
0.00391692
0.0038845
0.00385251
0.00382098
0.00378999
0.00375957
0.00372979
0.00370069
0.00367234
0.00364476
0.00361802
0.00359216
0.00356723
0.00354326
0.0035203
0.00349839
0.00347756
0.00345786
0.00343931
0.00342195
0.00340581
0.00339091
0.00337728
0.00336495
0.00335394
0.00334425
0.00333592
0.00332896
0.00332337
0.00331917
0.00331636
0.00331495
0.00331102
0.00331241
0.00331519
0.00331935
0.00332491
0.00333185
0.00334016
0.00334985
0.00336087
0.00337323
0.0033869
0.00340185
0.00341807
0.00343551
0.00345416
0.00347397
0.00349492
0.00351696
0.00354007
0.00356419
0.0035893
0.00361533
0.00364226
0.00367002
0.00369858
0.00372789
0.00375788
0.00378852
0.00381975
0.00385151
0.00388374
0.0039164
0.00394942
0.00398275
0.00401632
0.00405009
0.00408398
0.00411795
0.00415193
0.00418585
0.00421967
0.00425332
0.00428675
0.00431989
0.00435268
0.00438507
0.004417
0.00444841
0.00447926
0.00450947
0.00453901
0.00456781
0.00459583
0.00462301
0.00464932
0.00467469
0.00469909
0.00472247
0.00474479
0.00476602
0.00478611
0.00480502
0.00482273
0.00483919
0.0048544
0.0048683
0.00488089
0.00489213
0.00490201
0.00491051
0.00491761
0.0049233
0.00492758
0.00493043
0.00493185
0.00493183
0.00493039
0.00492752
0.00492322
0.0049175
0.00491037
0.00490184
0.00489194
0.00488067
0.00486806
0.00485413
0.0048389
0.0048224
0.00480467
0.00478573
0.00476562
0.00474437
0.00472202
0.00469861
0.00467418
0.00464878
0.00462245
0.00459524
0.00456719
0.00453836
0.00450879
0.00447855
0.00444768
0.00441623
0.00438427
0.00435185
0.00431903
0.00428586
0.00425241
0.00421872
0.00418487
0.00415091
0.0041169
0.0040829
0.00404897
0.00401517
0.00398156
0.0039482
0.00391514
0.00388244
0.00385017
0.00381837
0.00378711
0.00375643
0.00372639
0.00369704
0.00366844
0.00364063
0.00361366
0.00358757
0.00356242
0.00353825
0.00351509
0.00349299
0.00347198
0.00345211
0.0034334
0.00341589
0.00339961
0.00338458
0.00337084
0.0033584
0.00334729
0.00333753
0.00332912
0.0033221
0.00331646
0.00331222
0.00330939
0.00330797
0.00330246
0.00330387
0.00330669
0.00331092
0.00331655
0.00332358
0.00333199
0.00334178
0.00335293
0.00336543
0.00337924
0.00339436
0.00341074
0.00342837
0.00344721
0.00346723
0.0034884
0.00351068
0.00353402
0.0035584
0.00358376
0.00361006
0.00363727
0.00366532
0.00369418
0.00372379
0.00375409
0.00378505
0.0038166
0.00384868
0.00388125
0.00391425
0.00394761
0.00398128
0.00401521
0.00404932
0.00408357
0.00411788
0.00415221
0.00418649
0.00422066
0.00425466
0.00428843
0.00432191
0.00435504
0.00438777
0.00442003
0.00445177
0.00448293
0.00451346
0.0045433
0.0045724
0.00460071
0.00462818
0.00465476
0.00468039
0.00470505
0.00472867
0.00475122
0.00477267
0.00479296
0.00481207
0.00482996
0.0048466
0.00486196
0.00487601
0.00488873
0.00490008
0.00491007
0.00491865
0.00492583
0.00493158
0.0049359
0.00493878
0.00494022
0.0049402
0.00493874
0.00493584
0.0049315
0.00492572
0.00491851
0.0049099
0.00489989
0.00488851
0.00487577
0.00486169
0.00484631
0.00482964
0.00481172
0.00479259
0.00477227
0.0047508
0.00472822
0.00470456
0.00467988
0.00465422
0.00462762
0.00460012
0.00457178
0.00454265
0.00451279
0.00448223
0.00445104
0.00441927
0.00438698
0.00435422
0.00432106
0.00428755
0.00425374
0.00421971
0.00418551
0.0041512
0.00411684
0.00408249
0.00404821
0.00401406
0.0039801
0.00394639
0.00391299
0.00387996
0.00384735
0.00381523
0.00378364
0.00375264
0.0037223
0.00369265
0.00366375
0.00363565
0.0036084
0.00358205
0.00355664
0.00353221
0.00350882
0.00348649
0.00346527
0.00344519
0.00342629
0.0034086
0.00339215
0.00337697
0.00336308
0.00335052
0.00333929
0.00332942
0.00332093
0.00331384
0.00330814
0.00330386
0.003301
0.00329956
0.00329248
0.00329392
0.00329678
0.00330107
0.00330678
0.0033139
0.00332243
0.00333235
0.00334364
0.00335629
0.00337028
0.00338558
0.00340216
0.00342001
0.00343908
0.00345934
0.00348076
0.00350331
0.00352694
0.0035516
0.00357727
0.00360389
0.00363142
0.00365981
0.00368902
0.00371898
0.00374965
0.00378098
0.0038129
0.00384538
0.00387834
0.00391173
0.00394549
0.00397957
0.0040139
0.00404842
0.00408308
0.00411781
0.00415255
0.00418724
0.00422182
0.00425623
0.0042904
0.00432428
0.00435781
0.00439093
0.00442358
0.0044557
0.00448724
0.00451813
0.00454833
0.00457778
0.00460643
0.00463423
0.00466113
0.00468707
0.00471202
0.00473593
0.00475875
0.00478045
0.00480099
0.00482033
0.00483844
0.00485528
0.00487082
0.00488504
0.00489791
0.0049094
0.00491951
0.0049282
0.00493546
0.00494128
0.00494565
0.00494857
0.00495002
0.00495
0.00494853
0.00494559
0.00494119
0.00493535
0.00492806
0.00491934
0.00490921
0.00489769
0.0048848
0.00487055
0.00485498
0.00483812
0.00481999
0.00480062
0.00478006
0.00475833
0.00473548
0.00471154
0.00468656
0.00466059
0.00463367
0.00460584
0.00457717
0.00454769
0.00451746
0.00448654
0.00445497
0.00442282
0.00439014
0.00435699
0.00432343
0.00428952
0.00425531
0.00422087
0.00418626
0.00415154
0.00411676
0.004082
0.00404731
0.00401275
0.00397839
0.00394428
0.00391048
0.00387705
0.00384405
0.00381154
0.00377958
0.00374821
0.0037175
0.00368749
0.00365825
0.00362982
0.00360224
0.00357557
0.00354986
0.00352514
0.00350147
0.00347887
0.0034574
0.00343708
0.00341795
0.00340005
0.00338341
0.00336804
0.00335399
0.00334128
0.00332992
0.00331993
0.00331134
0.00330416
0.0032984
0.00329407
0.00329117
0.00328972
0.00328106
0.00328252
0.00328543
0.00328978
0.00329558
0.00330281
0.00331146
0.00332152
0.00333298
0.00334581
0.00335999
0.0033755
0.00339232
0.00341041
0.00342974
0.00345028
0.003472
0.00349485
0.0035188
0.00354381
0.00356982
0.00359681
0.00362471
0.00365349
0.00368309
0.00371346
0.00374455
0.0037763
0.00380867
0.00384158
0.00387499
0.00390883
0.00394306
0.0039776
0.00401239
0.00404739
0.00408252
0.00411772
0.00415293
0.00418809
0.00422314
0.00425802
0.00429266
0.00432701
0.00436099
0.00439456
0.00442766
0.00446021
0.00449218
0.0045235
0.00455411
0.00458396
0.004613
0.00464118
0.00466844
0.00469474
0.00472003
0.00474426
0.0047674
0.00478939
0.00481021
0.00482982
0.00484817
0.00486524
0.00488099
0.00489541
0.00490845
0.0049201
0.00493034
0.00493915
0.00494651
0.00495242
0.00495685
0.0049598
0.00496127
0.00496126
0.00495976
0.00495678
0.00495233
0.0049464
0.00493901
0.00493018
0.00491991
0.00490823
0.00489516
0.00488073
0.00486494
0.00484785
0.00482947
0.00480984
0.004789
0.00476697
0.00474381
0.00471955
0.00469423
0.00466791
0.00464062
0.00461241
0.00458335
0.00455346
0.00452282
0.00449148
0.00445949
0.0044269
0.00439377
0.00436017
0.00432616
0.00429178
0.00425711
0.0042222
0.00418712
0.00415192
0.00411668
0.00408144
0.00404628
0.00401125
0.00397642
0.00394185
0.00390759
0.00387371
0.00384026
0.00380731
0.00377491
0.00374312
0.00371199
0.00368158
0.00365194
0.00362312
0.00359517
0.00356814
0.00354208
0.00351703
0.00349303
0.00347013
0.00344836
0.00342777
0.00340838
0.00339024
0.00337337
0.0033578
0.00334356
0.00333067
0.00331916
0.00330904
0.00330033
0.00329305
0.00328721
0.00328282
0.00327989
0.00327841
0.00326817
0.00326966
0.00327261
0.00327704
0.00328293
0.00329028
0.00329907
0.00330929
0.00332093
0.00333396
0.00334836
0.00336412
0.00338119
0.00339956
0.00341919
0.00344004
0.00346209
0.00348529
0.00350961
0.00353499
0.0035614
0.0035888
0.00361713
0.00364634
0.00367639
0.00370722
0.00373878
0.00377102
0.00380387
0.00383728
0.0038712
0.00390556
0.0039403
0.00397537
0.00401069
0.00404622
0.00408188
0.00411762
0.00415336
0.00418906
0.00422464
0.00426005
0.00429522
0.00433008
0.00436459
0.00439867
0.00443226
0.00446532
0.00449777
0.00452956
0.00456064
0.00459094
0.00462042
0.00464903
0.0046767
0.0047034
0.00472908
0.00475368
0.00477717
0.0047995
0.00482064
0.00484054
0.00485917
0.0048765
0.00489249
0.00490713
0.00492037
0.0049322
0.0049426
0.00495154
0.00495901
0.004965
0.0049695
0.0049725
0.00497399
0.00497398
0.00497246
0.00496944
0.00496492
0.0049589
0.0049514
0.00494243
0.00493201
0.00492015
0.00490688
0.00489223
0.00487621
0.00485885
0.00484019
0.00482027
0.0047991
0.00477675
0.00475323
0.0047286
0.0047029
0.00467617
0.00464847
0.00461984
0.00459033
0.00456
0.00452889
0.00449707
0.00446459
0.00443151
0.00439788
0.00436377
0.00432924
0.00429434
0.00425914
0.0042237
0.00418809
0.00415236
0.00411658
0.00408081
0.00404512
0.00400956
0.0039742
0.0039391
0.00390432
0.00386993
0.00383597
0.00380252
0.00376964
0.00373736
0.00370576
0.00367489
0.0036448
0.00361555
0.00358718
0.00355974
0.00353328
0.00350785
0.00348349
0.00346024
0.00343815
0.00341724
0.00339757
0.00337915
0.00336202
0.00334622
0.00333176
0.00331868
0.00330699
0.00329672
0.00328788
0.00328049
0.00327456
0.0032701
0.00326713
0.00326563
0.0032538
0.00325531
0.00325832
0.00326282
0.00326882
0.0032763
0.00328524
0.00329564
0.00330747
0.00332073
0.00333538
0.00335139
0.00336876
0.00338744
0.00340739
0.0034286
0.00345102
0.00347461
0.00349933
0.00352514
0.00355199
0.00357985
0.00360865
0.00363835
0.00366891
0.00370025
0.00373234
0.00376511
0.00379851
0.00383248
0.00386697
0.0039019
0.00393722
0.00397287
0.00400879
0.00404491
0.00408117
0.0041175
0.00415385
0.00419014
0.00422632
0.00426232
0.00429807
0.00433352
0.0043686
0.00440325
0.00443741
0.00447101
0.00450401
0.00453633
0.00456793
0.00459874
0.00462872
0.0046578
0.00468594
0.00471309
0.00473919
0.0047642
0.00478809
0.00481079
0.00483228
0.00485252
0.00487146
0.00488908
0.00490534
0.00492022
0.00493369
0.00494571
0.00495628
0.00496538
0.00497298
0.00497907
0.00498364
0.00498669
0.00498821
0.0049882
0.00498665
0.00498358
0.00497898
0.00497286
0.00496524
0.00495612
0.00494552
0.00493347
0.00491998
0.00490508
0.00488879
0.00487114
0.00485217
0.00483191
0.0048104
0.00478767
0.00476376
0.00473872
0.00471258
0.00468541
0.00465724
0.00462813
0.00459813
0.00456729
0.00453567
0.00450331
0.00447029
0.00443665
0.00440247
0.00436779
0.00433268
0.0042972
0.00426141
0.00422538
0.00418917
0.00415285
0.00411647
0.0040801
0.00404381
0.00400766
0.00397171
0.00393603
0.00390067
0.0038657
0.00383118
0.00379718
0.00376374
0.00373093
0.0036988
0.00366742
0.00363683
0.00360709
0.00357824
0.00355035
0.00352345
0.0034976
0.00347283
0.0034492
0.00342673
0.00340548
0.00338548
0.00336675
0.00334934
0.00333327
0.00331858
0.00330528
0.0032934
0.00328295
0.00327397
0.00326646
0.00326043
0.0032559
0.00325287
0.00325135
0.0032379
0.00323944
0.00324251
0.0032471
0.00325321
0.00326083
0.00326994
0.00328053
0.00329259
0.00330609
0.003321
0.00333732
0.003355
0.00337402
0.00339434
0.00341594
0.00343877
0.00346279
0.00348796
0.00351424
0.00354158
0.00356994
0.00359927
0.00362951
0.00366062
0.00369253
0.0037252
0.00375857
0.00379258
0.00382717
0.00386228
0.00389785
0.00393381
0.00397011
0.00400668
0.00404346
0.00408037
0.00411737
0.00415438
0.00419133
0.00422817
0.00426482
0.00430123
0.00433732
0.00437304
0.00440832
0.0044431
0.00447732
0.00451092
0.00454383
0.004576
0.00460738
0.0046379
0.00466751
0.00469616
0.0047238
0.00475038
0.00477585
0.00480017
0.00482329
0.00484517
0.00486577
0.00488506
0.004903
0.00491956
0.00493471
0.00494842
0.00496067
0.00497143
0.00498069
0.00498843
0.00499463
0.00499929
0.0050024
0.00500394
0.00500393
0.00500236
0.00499923
0.00499455
0.00498832
0.00498055
0.00497127
0.00496048
0.00494821
0.00493447
0.0049193
0.00490271
0.00488475
0.00486543
0.0048448
0.00482289
0.00479975
0.00477541
0.00474991
0.0047233
0.00469563
0.00466695
0.00463731
0.00460677
0.00457536
0.00454316
0.00451022
0.0044766
0.00444235
0.00440754
0.00437223
0.00433648
0.00430036
0.00426392
0.00422724
0.00419037
0.00415338
0.00411634
0.00407932
0.00404237
0.00400556
0.00396896
0.00393262
0.00389663
0.00386102
0.00382588
0.00379126
0.00375721
0.00372381
0.0036911
0.00365915
0.003628
0.00359772
0.00356835
0.00353995
0.00351257
0.00348625
0.00346103
0.00343697
0.0034141
0.00339246
0.0033721
0.00335303
0.00333531
0.00331895
0.00330399
0.00329045
0.00327835
0.00326772
0.00325857
0.00325092
0.00324479
0.00324017
0.00323709
0.00323554
0.00322046
0.00322203
0.00322516
0.00322985
0.00323608
0.00324385
0.00325314
0.00326395
0.00327624
0.00329001
0.00330523
0.00332186
0.00333989
0.00335929
0.00338001
0.00340203
0.00342531
0.0034498
0.00347547
0.00350226
0.00353014
0.00355906
0.00358896
0.0036198
0.00365152
0.00368406
0.00371737
0.00375139
0.00378607
0.00382133
0.00385713
0.00389339
0.00393006
0.00396708
0.00400436
0.00404186
0.0040795
0.00411722
0.00415496
0.00419264
0.0042302
0.00426757
0.00430469
0.00434149
0.00437791
0.00441389
0.00444935
0.00448424
0.0045185
0.00455206
0.00458486
0.00461685
0.00464797
0.00467817
0.00470738
0.00473557
0.00476267
0.00478864
0.00481343
0.00483701
0.00485932
0.00488033
0.0049
0.00491829
0.00493518
0.00495062
0.0049646
0.00497709
0.00498807
0.00499751
0.0050054
0.00501173
0.00501648
0.00501964
0.00502122
0.00502121
0.00501961
0.00501641
0.00501164
0.00500529
0.00499737
0.0049879
0.0049769
0.00496439
0.00495038
0.00493491
0.004918
0.00489968
0.00487999
0.00485895
0.00483662
0.00481302
0.0047882
0.0047622
0.00473507
0.00470686
0.00467762
0.00464739
0.00461625
0.00458423
0.00455139
0.00451781
0.00448352
0.0044486
0.00441311
0.00437711
0.00434066
0.00430382
0.00426667
0.00422927
0.00419168
0.00415397
0.0041162
0.00407845
0.00404078
0.00400325
0.00396593
0.00392889
0.00389218
0.00385588
0.00382005
0.00378475
0.00375004
0.00371598
0.00368264
0.00365006
0.0036183
0.00358743
0.00355749
0.00352854
0.00350062
0.00347378
0.00344807
0.00342354
0.00340023
0.00337817
0.0033574
0.00333796
0.00331989
0.00330322
0.00328796
0.00327416
0.00326182
0.00325099
0.00324166
0.00323386
0.00322761
0.0032229
0.00321976
0.00321818
0.00320145
0.00320305
0.00320625
0.00321103
0.0032174
0.00322533
0.00323483
0.00324586
0.00325842
0.00327248
0.00328801
0.003305
0.00332341
0.00334322
0.00336438
0.00338686
0.00341063
0.00343563
0.00346184
0.0034892
0.00351766
0.00354719
0.00357772
0.0036092
0.00364158
0.00367481
0.00370882
0.00374355
0.00377895
0.00381496
0.00385151
0.00388853
0.00392597
0.00396376
0.00400183
0.00404011
0.00407855
0.00411706
0.00415559
0.00419406
0.00423241
0.00427056
0.00430847
0.00434604
0.00438323
0.00441996
0.00445617
0.00449179
0.00452677
0.00456103
0.00459453
0.00462719
0.00465897
0.0046898
0.00471963
0.0047484
0.00477607
0.00480259
0.00482791
0.00485198
0.00487476
0.00489621
0.0049163
0.00493497
0.00495222
0.00496799
0.00498226
0.00499501
0.00500622
0.00501586
0.00502392
0.00503038
0.00503523
0.00503846
0.00504007
0.00504006
0.00503842
0.00503516
0.00503029
0.0050238
0.00501572
0.00500606
0.00499482
0.00498205
0.00496775
0.00495195
0.00493469
0.00491598
0.00489587
0.0048744
0.00485159
0.00482749
0.00480215
0.0047756
0.00474791
0.0047191
0.00468925
0.00465839
0.00462659
0.0045939
0.00456037
0.00452608
0.00449108
0.00445542
0.00441919
0.00438243
0.00434521
0.0043076
0.00426967
0.00423148
0.00419311
0.0041546
0.00411605
0.0040775
0.00403904
0.00400072
0.00396262
0.0039248
0.00388733
0.00385027
0.00381369
0.00377765
0.00374222
0.00370744
0.0036734
0.00364014
0.00360772
0.0035762
0.00354564
0.00351608
0.00348757
0.00346018
0.00343393
0.00340889
0.00338508
0.00336256
0.00334136
0.00332152
0.00330307
0.00328605
0.00327047
0.00325638
0.00324379
0.00323273
0.00322321
0.00321525
0.00320886
0.00320406
0.00320085
0.00319924
0.00318082
0.00318246
0.00318573
0.00319062
0.00319713
0.00320525
0.00321495
0.00322623
0.00323907
0.00325345
0.00326933
0.0032867
0.00330553
0.00332577
0.00334741
0.00337039
0.00339469
0.00342025
0.00344704
0.00347501
0.00350412
0.0035343
0.00356551
0.00359769
0.0036308
0.00366476
0.00369953
0.00373504
0.00377123
0.00380804
0.0038454
0.00388325
0.00392153
0.00396016
0.00399908
0.00403822
0.00407751
0.00411688
0.00415627
0.0041956
0.0042348
0.00427381
0.00431256
0.00435098
0.00438899
0.00442654
0.00446356
0.00449998
0.00453574
0.00457077
0.00460502
0.00463841
0.00467089
0.00470241
0.00473291
0.00476233
0.00479062
0.00481773
0.00484362
0.00486823
0.00489152
0.00491345
0.00493398
0.00495308
0.0049707
0.00498683
0.00500142
0.00501446
0.00502592
0.00503577
0.00504401
0.00505062
0.00505558
0.00505888
0.00506053
0.00506051
0.00505884
0.00505551
0.00505053
0.0050439
0.00503564
0.00502575
0.00501427
0.00500121
0.00498659
0.00497044
0.00495279
0.00493367
0.00491311
0.00489115
0.00486784
0.0048432
0.00481729
0.00479015
0.00476184
0.00473239
0.00470187
0.00467032
0.00463781
0.00460439
0.00457012
0.00453506
0.00449927
0.00446282
0.00442578
0.0043882
0.00435015
0.0043117
0.00427293
0.00423389
0.00419465
0.00415529
0.00411588
0.00407647
0.00403715
0.00399798
0.00395903
0.00392037
0.00388207
0.00384418
0.00380679
0.00376994
0.00373372
0.00369817
0.00366337
0.00362937
0.00359623
0.00356401
0.00353277
0.00350255
0.00347341
0.00344541
0.00341858
0.00339298
0.00336865
0.00334563
0.00332396
0.00330368
0.00328482
0.00326741
0.00325149
0.00323709
0.00322422
0.00321291
0.00320318
0.00319504
0.00318851
0.0031836
0.00318032
0.00317868
0.00315854
0.00316022
0.00316357
0.00316858
0.00317524
0.00318355
0.00319349
0.00320504
0.00321818
0.0032329
0.00324916
0.00326694
0.00328621
0.00330693
0.00332908
0.0033526
0.00337747
0.00340364
0.00343106
0.00345969
0.00348948
0.00352037
0.00355232
0.00358526
0.00361914
0.00365391
0.0036895
0.00372584
0.00376289
0.00380056
0.00383881
0.00387755
0.00391673
0.00395627
0.0039961
0.00403616
0.00407638
0.00411668
0.004157
0.00419726
0.00423739
0.00427732
0.00431698
0.0043563
0.00439522
0.00443366
0.00447155
0.00450883
0.00454543
0.00458129
0.00461634
0.00465053
0.00468378
0.00471604
0.00474726
0.00477738
0.00480634
0.00483409
0.00486058
0.00488578
0.00490962
0.00493207
0.00495309
0.00497263
0.00499068
0.00500718
0.00502212
0.00503547
0.0050472
0.00505729
0.00506572
0.00507248
0.00507756
0.00508094
0.00508263
0.00508261
0.0050809
0.0050775
0.00507239
0.00506561
0.00505715
0.00504703
0.00503528
0.00502191
0.00500695
0.00499041
0.00497235
0.00495277
0.00493173
0.00490925
0.00488539
0.00486017
0.00483365
0.00480587
0.00477688
0.00474674
0.0047155
0.00468321
0.00464993
0.00461572
0.00458064
0.00454475
0.00450812
0.00447081
0.00443289
0.00439442
0.00435548
0.00431613
0.00427644
0.00423648
0.00419632
0.00415603
0.00411568
0.00407535
0.00403511
0.00399502
0.00395515
0.00391558
0.00387637
0.0038376
0.00379932
0.00376161
0.00372453
0.00368815
0.00365253
0.00361773
0.00358382
0.00355084
0.00351886
0.00348793
0.00345811
0.00342945
0.00340199
0.00337579
0.00335089
0.00332733
0.00330515
0.00328439
0.00326509
0.00324728
0.00323099
0.00321624
0.00320307
0.0031915
0.00318154
0.00317321
0.00316653
0.00316151
0.00315815
0.00315647
0.00313457
0.00313629
0.00313972
0.00314486
0.00315169
0.00316021
0.00317039
0.00318223
0.0031957
0.00321078
0.00322745
0.00324567
0.00326542
0.00328665
0.00330935
0.00333346
0.00335894
0.00338576
0.00341386
0.0034432
0.00347372
0.00350538
0.00353812
0.00357188
0.0036066
0.00364222
0.00367869
0.00371594
0.0037539
0.00379251
0.0038317
0.0038714
0.00391155
0.00395207
0.00399289
0.00403395
0.00407516
0.00411646
0.00415778
0.00419904
0.00424016
0.00428108
0.00432173
0.00436203
0.00440191
0.0044413
0.00448014
0.00451834
0.00455585
0.0045926
0.00462853
0.00466356
0.00469764
0.0047307
0.0047627
0.00479356
0.00482324
0.00485168
0.00487884
0.00490466
0.00492909
0.0049521
0.00497364
0.00499368
0.00501217
0.00502909
0.0050444
0.00505807
0.0050701
0.00508044
0.00508908
0.00509601
0.00510121
0.00510468
0.00510641
0.00510639
0.00510464
0.00510115
0.00509592
0.00508897
0.0050803
0.00506993
0.00505789
0.00504418
0.00502885
0.00501191
0.00499339
0.00497333
0.00495176
0.00492873
0.00490427
0.00487843
0.00485125
0.00482278
0.00479307
0.00476218
0.00473016
0.00469707
0.00466296
0.0046279
0.00459195
0.00455518
0.00451764
0.0044794
0.00444054
0.00440112
0.00436121
0.00432088
0.00428021
0.00423926
0.0041981
0.00415682
0.00411548
0.00407415
0.0040329
0.00399182
0.00395097
0.00391041
0.00387024
0.0038305
0.00379128
0.00375264
0.00371465
0.00367737
0.00364087
0.00360521
0.00357045
0.00353666
0.00350389
0.0034722
0.00344164
0.00341227
0.00338414
0.00335729
0.00333177
0.00330763
0.00328491
0.00326364
0.00324386
0.00322561
0.00320892
0.00319381
0.00318032
0.00316845
0.00315825
0.00314972
0.00314287
0.00313772
0.00313428
0.00313256
0.00310887
0.00311064
0.00311416
0.00311943
0.00312644
0.00313517
0.00314563
0.00315777
0.00317159
0.00318706
0.00320416
0.00322286
0.00324312
0.00326491
0.00328819
0.00331292
0.00333907
0.00336658
0.00339541
0.00342551
0.00345682
0.0034893
0.00352289
0.00355752
0.00359314
0.00362969
0.0036671
0.00370532
0.00374426
0.00378387
0.00382408
0.00386481
0.003906
0.00394757
0.00398945
0.00403157
0.00407385
0.00411623
0.00415861
0.00420094
0.00424313
0.00428512
0.00432682
0.00436817
0.00440908
0.0044495
0.00448934
0.00452854
0.00456703
0.00460473
0.00464159
0.00467753
0.0047125
0.00474642
0.00477925
0.00481092
0.00484137
0.00487055
0.00489841
0.0049249
0.00494998
0.00497358
0.00499569
0.00501624
0.00503522
0.00505257
0.00506828
0.00508232
0.00509465
0.00510526
0.00511413
0.00512124
0.00512658
0.00513014
0.00513191
0.0051319
0.0051301
0.00512652
0.00512115
0.00511402
0.00510512
0.00509449
0.00508213
0.00506807
0.00505234
0.00503495
0.00501595
0.00499537
0.00497325
0.00494961
0.00492452
0.004898
0.00487012
0.00484091
0.00481043
0.00477874
0.00474588
0.00471193
0.00467694
0.00464097
0.00460409
0.00456635
0.00452784
0.00448861
0.00444874
0.0044083
0.00436736
0.00432598
0.00428425
0.00424224
0.00420002
0.00415766
0.00411524
0.00407284
0.00403053
0.00398838
0.00394647
0.00390487
0.00386365
0.00382289
0.00378265
0.00374301
0.00370404
0.00366579