/*--------------------------------*- C++ -*----------------------------------*\
| =========                 |                                                 |
| \\      /  F ield         | OpenFOAM: The Open Source CFD Toolbox           |
|  \\    /   O peration     | Version:  2106                                  |
|   \\  /    A nd           | Website:  www.openfoam.com                      |
|    \\/     M anipulation  |                                                 |
\*---------------------------------------------------------------------------*/
FoamFile
{
    version     2.0;
    format      ascii;
    arch        "LSB;label=32;scalar=64";
    class       volVectorField;
    location    "3.4";
    object      U;
}
// * * * * * * * * * * * * * * * * * * * * * * * * * * * * * * * * * * * * * //

dimensions      [0 1 -1 0 0 0 0];

internalField   nonuniform List<vector> 
90000
(
(-4.05606e-05 4.05179e-05 0)
(-0.000121574 4.04176e-05 0)
(-0.000202322 4.02559e-05 0)
(-0.000282682 4.00301e-05 0)
(-0.000362524 3.97382e-05 0)
(-0.000441716 3.93795e-05 0)
(-0.000520123 3.8954e-05 0)
(-0.000597612 3.84619e-05 0)
(-0.00067405 3.79036e-05 0)
(-0.000749305 3.72798e-05 0)
(-0.000823246 3.65914e-05 0)
(-0.000895746 3.58394e-05 0)
(-0.000966679 3.50251e-05 0)
(-0.00103592 3.41497e-05 0)
(-0.00110335 3.32147e-05 0)
(-0.00116885 3.22216e-05 0)
(-0.0012323 3.11723e-05 0)
(-0.0012936 3.00683e-05 0)
(-0.00135264 2.89117e-05 0)
(-0.00140931 2.77045e-05 0)
(-0.00146352 2.64487e-05 0)
(-0.00151516 2.51464e-05 0)
(-0.00156416 2.38001e-05 0)
(-0.00161042 2.24119e-05 0)
(-0.00165386 2.09843e-05 0)
(-0.0016944 1.95197e-05 0)
(-0.00173198 1.80209e-05 0)
(-0.00176652 1.64902e-05 0)
(-0.00179797 1.49304e-05 0)
(-0.00182628 1.33443e-05 0)
(-0.00185138 1.17346e-05 0)
(-0.00187324 1.0104e-05 0)
(-0.00189182 8.45548e-06 0)
(-0.00190708 6.7919e-06 0)
(-0.001919 5.11614e-06 0)
(-0.00192756 3.43116e-06 0)
(-0.00193274 1.73989e-06 0)
(-0.00193452 4.53024e-08 0)
(-0.00193292 -1.64965e-06 0)
(-0.00192792 -3.34198e-06 0)
(-0.00191954 -5.02874e-06 0)
(-0.0019078 -6.70697e-06 0)
(-0.0018927 -8.3737e-06 0)
(-0.00187428 -1.0026e-05 0)
(-0.00185257 -1.1661e-05 0)
(-0.00182761 -1.32757e-05 0)
(-0.00179944 -1.48674e-05 0)
(-0.00176811 -1.64333e-05 0)
(-0.00173367 -1.79705e-05 0)
(-0.00169619 -1.94764e-05 0)
(-0.00165572 -2.09482e-05 0)
(-0.00161235 -2.23835e-05 0)
(-0.00156614 -2.37796e-05 0)
(-0.00151718 -2.51341e-05 0)
(-0.00146555 -2.64446e-05 0)
(-0.00141134 -2.77087e-05 0)
(-0.00135466 -2.89243e-05 0)
(-0.00129558 -3.00891e-05 0)
(-0.00123423 -3.12012e-05 0)
(-0.00117071 -3.22584e-05 0)
(-0.00110513 -3.3259e-05 0)
(-0.00103761 -3.42012e-05 0)
(-0.000968255 -3.50833e-05 0)
(-0.0008972 -3.59037e-05 0)
(-0.000824565 -3.66609e-05 0)
(-0.00075048 -3.73537e-05 0)
(-0.000675073 -3.79808e-05 0)
(-0.000598477 -3.8541e-05 0)
(-0.000520828 -3.90334e-05 0)
(-0.000442262 -3.94571e-05 0)
(-0.000362918 -3.98114e-05 0)
(-0.000282934 -4.00955e-05 0)
(-0.000202452 -4.03091e-05 0)
(-0.000121614 -4.04516e-05 0)
(-4.05648e-05 -4.0523e-05 0)
(4.05648e-05 -4.0523e-05 0)
(0.000121614 -4.04516e-05 0)
(0.000202452 -4.03091e-05 0)
(0.000282934 -4.00955e-05 0)
(0.000362918 -3.98114e-05 0)
(0.000442262 -3.94571e-05 0)
(0.000520828 -3.90334e-05 0)
(0.000598477 -3.8541e-05 0)
(0.000675073 -3.79808e-05 0)
(0.00075048 -3.73537e-05 0)
(0.000824566 -3.66609e-05 0)
(0.0008972 -3.59037e-05 0)
(0.000968256 -3.50833e-05 0)
(0.00103761 -3.42012e-05 0)
(0.00110513 -3.3259e-05 0)
(0.00117071 -3.22584e-05 0)
(0.00123423 -3.12012e-05 0)
(0.00129558 -3.00891e-05 0)
(0.00135466 -2.89243e-05 0)
(0.00141134 -2.77087e-05 0)
(0.00146555 -2.64446e-05 0)
(0.00151718 -2.51341e-05 0)
(0.00156614 -2.37796e-05 0)
(0.00161235 -2.23835e-05 0)
(0.00165572 -2.09482e-05 0)
(0.00169619 -1.94764e-05 0)
(0.00173367 -1.79705e-05 0)
(0.00176811 -1.64333e-05 0)
(0.00179944 -1.48674e-05 0)
(0.00182761 -1.32757e-05 0)
(0.00185257 -1.1661e-05 0)
(0.00187428 -1.0026e-05 0)
(0.0018927 -8.3737e-06 0)
(0.0019078 -6.70697e-06 0)
(0.00191954 -5.02875e-06 0)
(0.00192792 -3.34199e-06 0)
(0.00193292 -1.64965e-06 0)
(0.00193452 4.53002e-08 0)
(0.00193274 1.73989e-06 0)
(0.00192756 3.43116e-06 0)
(0.001919 5.11615e-06 0)
(0.00190708 6.7919e-06 0)
(0.00189182 8.45548e-06 0)
(0.00187324 1.0104e-05 0)
(0.00185138 1.17345e-05 0)
(0.00182628 1.33443e-05 0)
(0.00179797 1.49304e-05 0)
(0.00176652 1.64902e-05 0)
(0.00173198 1.80209e-05 0)
(0.0016944 1.95197e-05 0)
(0.00165386 2.09843e-05 0)
(0.00161042 2.24119e-05 0)
(0.00156416 2.38001e-05 0)
(0.00151516 2.51464e-05 0)
(0.00146352 2.64487e-05 0)
(0.00140931 2.77045e-05 0)
(0.00135264 2.89117e-05 0)
(0.0012936 3.00683e-05 0)
(0.0012323 3.11722e-05 0)
(0.00116885 3.22216e-05 0)
(0.00110335 3.32147e-05 0)
(0.00103592 3.41497e-05 0)
(0.000966679 3.50251e-05 0)
(0.000895747 3.58394e-05 0)
(0.000823246 3.65914e-05 0)
(0.000749305 3.72798e-05 0)
(0.00067405 3.79036e-05 0)
(0.000597612 3.84619e-05 0)
(0.000520123 3.8954e-05 0)
(0.000441716 3.93795e-05 0)
(0.000362524 3.97382e-05 0)
(0.000282682 4.00301e-05 0)
(0.000202322 4.0256e-05 0)
(0.000121574 4.04178e-05 0)
(4.05607e-05 4.05178e-05 0)
(-4.06608e-05 0.000121647 0)
(-0.00012187 0.00012135 0)
(-0.000202811 0.000120866 0)
(-0.000283364 0.000120187 0)
(-0.000363396 0.000119311 0)
(-0.000442777 0.000118234 0)
(-0.000521371 0.000116957 0)
(-0.000599045 0.000115479 0)
(-0.000675665 0.000113803 0)
(-0.0007511 0.000111931 0)
(-0.000825218 0.000109864 0)
(-0.000897891 0.000107606 0)
(-0.000968993 0.000105161 0)
(-0.0010384 0.000102533 0)
(-0.00110599 9.97262e-05 0)
(-0.00117165 9.67448e-05 0)
(-0.00123525 9.35942e-05 0)
(-0.0012967 9.02799e-05 0)
(-0.00135588 8.68074e-05 0)
(-0.00141269 8.31829e-05 0)
(-0.00146702 7.94124e-05 0)
(-0.00151879 7.55026e-05 0)
(-0.00156791 7.14603e-05 0)
(-0.00161428 6.72924e-05 0)
(-0.00165782 6.30062e-05 0)
(-0.00169846 5.86091e-05 0)
(-0.00173613 5.41087e-05 0)
(-0.00177076 4.9513e-05 0)
(-0.00180229 4.48299e-05 0)
(-0.00183066 4.00675e-05 0)
(-0.00185582 3.52342e-05 0)
(-0.00187774 3.03384e-05 0)
(-0.00189636 2.53887e-05 0)
(-0.00191166 2.03937e-05 0)
(-0.00192361 1.53621e-05 0)
(-0.00193219 1.03028e-05 0)
(-0.00193738 5.2246e-06 0)
(-0.00193917 1.36384e-07 0)
(-0.00193756 -4.95291e-06 0)
(-0.00193255 -1.00343e-05 0)
(-0.00192415 -1.5099e-05 0)
(-0.00191238 -2.0138e-05 0)
(-0.00189725 -2.51425e-05 0)
(-0.00187879 -3.01036e-05 0)
(-0.00185703 -3.50127e-05 0)
(-0.00183201 -3.98611e-05 0)
(-0.00180377 -4.46402e-05 0)
(-0.00177236 -4.93416e-05 0)
(-0.00173784 -5.39571e-05 0)
(-0.00170027 -5.84784e-05 0)
(-0.00165971 -6.28977e-05 0)
(-0.00161623 -6.7207e-05 0)
(-0.00156991 -7.13987e-05 0)
(-0.00152083 -7.54655e-05 0)
(-0.00146908 -7.94001e-05 0)
(-0.00141474 -8.31956e-05 0)
(-0.00135792 -8.68452e-05 0)
(-0.0012987 -9.03425e-05 0)
(-0.00123721 -9.36812e-05 0)
(-0.00117353 -9.68555e-05 0)
(-0.00110779 -9.98596e-05 0)
(-0.00104011 -0.000102688 0)
(-0.000970587 -0.000105337 0)
(-0.000899361 -0.0001078 0)
(-0.000826551 -0.000110073 0)
(-0.000752287 -0.000112153 0)
(-0.000676699 -0.000114036 0)
(-0.000599919 -0.000115718 0)
(-0.000522083 -0.000117196 0)
(-0.000443328 -0.000118468 0)
(-0.000363792 -0.000119532 0)
(-0.000283616 -0.000120385 0)
(-0.00020294 -0.000121026 0)
(-0.000121907 -0.000121454 0)
(-4.06625e-05 -0.000121668 0)
(4.06625e-05 -0.000121668 0)
(0.000121907 -0.000121454 0)
(0.00020294 -0.000121026 0)
(0.000283616 -0.000120385 0)
(0.000363792 -0.000119532 0)
(0.000443328 -0.000118468 0)
(0.000522083 -0.000117196 0)
(0.000599919 -0.000115718 0)
(0.000676699 -0.000114036 0)
(0.000752287 -0.000112153 0)
(0.000826551 -0.000110073 0)
(0.000899361 -0.0001078 0)
(0.000970587 -0.000105337 0)
(0.00104011 -0.000102688 0)
(0.00110779 -9.98596e-05 0)
(0.00117353 -9.68555e-05 0)
(0.00123721 -9.36812e-05 0)
(0.0012987 -9.03425e-05 0)
(0.00135792 -8.68452e-05 0)
(0.00141474 -8.31956e-05 0)
(0.00146908 -7.94001e-05 0)
(0.00152083 -7.54655e-05 0)
(0.00156991 -7.13987e-05 0)
(0.00161623 -6.7207e-05 0)
(0.00165971 -6.28977e-05 0)
(0.00170027 -5.84784e-05 0)
(0.00173784 -5.39571e-05 0)
(0.00177236 -4.93416e-05 0)
(0.00180377 -4.46402e-05 0)
(0.00183201 -3.98611e-05 0)
(0.00185703 -3.50127e-05 0)
(0.00187879 -3.01036e-05 0)
(0.00189725 -2.51425e-05 0)
(0.00191238 -2.0138e-05 0)
(0.00192415 -1.5099e-05 0)
(0.00193255 -1.00343e-05 0)
(0.00193756 -4.95291e-06 0)
(0.00193917 1.3638e-07 0)
(0.00193738 5.22459e-06 0)
(0.00193219 1.03028e-05 0)
(0.00192361 1.53621e-05 0)
(0.00191166 2.03937e-05 0)
(0.00189636 2.53887e-05 0)
(0.00187774 3.03384e-05 0)
(0.00185582 3.52342e-05 0)
(0.00183066 4.00675e-05 0)
(0.00180229 4.48299e-05 0)
(0.00177076 4.9513e-05 0)
(0.00173613 5.41087e-05 0)
(0.00169846 5.86091e-05 0)
(0.00165782 6.30062e-05 0)
(0.00161428 6.72924e-05 0)
(0.00156791 7.14603e-05 0)
(0.00151879 7.55026e-05 0)
(0.00146702 7.94124e-05 0)
(0.00141269 8.31829e-05 0)
(0.00135588 8.68074e-05 0)
(0.0012967 9.02799e-05 0)
(0.00123525 9.35942e-05 0)
(0.00117165 9.67448e-05 0)
(0.00110599 9.97261e-05 0)
(0.0010384 0.000102533 0)
(0.000968994 0.000105161 0)
(0.000897891 0.000107606 0)
(0.000825218 0.000109864 0)
(0.0007511 0.000111931 0)
(0.000675665 0.000113803 0)
(0.000599045 0.000115479 0)
(0.000521371 0.000116957 0)
(0.000442777 0.000118234 0)
(0.000363397 0.000119311 0)
(0.000283364 0.000120187 0)
(0.000202811 0.000120866 0)
(0.00012187 0.000121351 0)
(4.06606e-05 0.000121647 0)
(-4.08228e-05 0.000203045 0)
(-0.000122354 0.000202553 0)
(-0.000203619 0.000201743 0)
(-0.000284493 0.000200609 0)
(-0.000364845 0.000199145 0)
(-0.000444541 0.000197348 0)
(-0.000523448 0.000195216 0)
(-0.000601431 0.00019275 0)
(-0.000678356 0.000189952 0)
(-0.00075409 0.000186827 0)
(-0.000828504 0.000183377 0)
(-0.000901466 0.000179609 0)
(-0.000972852 0.000175529 0)
(-0.00104254 0.000171142 0)
(-0.0011104 0.000166457 0)
(-0.00117631 0.000161481 0)
(-0.00124017 0.000156222 0)
(-0.00130187 0.00015069 0)
(-0.00136128 0.000144894 0)
(-0.00141832 0.000138844 0)
(-0.00147287 0.000132551 0)
(-0.00152485 0.000126025 0)
(-0.00157415 0.000119278 0)
(-0.00162071 0.000112321 0)
(-0.00166443 0.000105167 0)
(-0.00170523 9.78276e-05 0)
(-0.00174305 9.0316e-05 0)
(-0.00177782 8.26451e-05 0)
(-0.00180947 7.48283e-05 0)
(-0.00183796 6.68793e-05 0)
(-0.00186323 5.88119e-05 0)
(-0.00188523 5.06402e-05 0)
(-0.00190393 4.23784e-05 0)
(-0.00191929 3.40411e-05 0)
(-0.00193129 2.56427e-05 0)
(-0.0019399 1.71979e-05 0)
(-0.00194511 8.72166e-06 0)
(-0.00194691 2.28684e-07 0)
(-0.0019453 -8.2661e-06 0)
(-0.00194027 -1.67478e-05 0)
(-0.00193184 -2.52015e-05 0)
(-0.00192002 -3.36123e-05 0)
(-0.00190483 -4.19656e-05 0)
(-0.0018863 -5.02465e-05 0)
(-0.00186445 -5.84405e-05 0)
(-0.00183933 -6.65332e-05 0)
(-0.00181098 -7.45103e-05 0)
(-0.00177945 -8.23577e-05 0)
(-0.00174479 -9.00616e-05 0)
(-0.00170707 -9.76085e-05 0)
(-0.00166635 -0.000104985 0)
(-0.00162269 -0.000112178 0)
(-0.00157619 -0.000119174 0)
(-0.00152692 -0.000125963 0)
(-0.00147496 -0.00013253 0)
(-0.0014204 -0.000138865 0)
(-0.00136335 -0.000144957 0)
(-0.0013039 -0.000150795 0)
(-0.00124216 -0.000156368 0)
(-0.00117823 -0.000161666 0)
(-0.00111223 -0.00016668 0)
(-0.00104427 -0.000171402 0)
(-0.000974475 -0.000175822 0)
(-0.000902963 -0.000179934 0)
(-0.000829863 -0.000183729 0)
(-0.000755301 -0.000187201 0)
(-0.00067941 -0.000190343 0)
(-0.000602323 -0.000193151 0)
(-0.000524175 -0.000195618 0)
(-0.000445104 -0.000197742 0)
(-0.00036525 -0.000199517 0)
(-0.000284752 -0.000200941 0)
(-0.000203753 -0.000202011 0)
(-0.000122396 -0.000202726 0)
(-4.08254e-05 -0.000203083 0)
(4.08255e-05 -0.000203083 0)
(0.000122396 -0.000202726 0)
(0.000203753 -0.000202011 0)
(0.000284752 -0.000200941 0)
(0.00036525 -0.000199517 0)
(0.000445104 -0.000197742 0)
(0.000524175 -0.000195618 0)
(0.000602323 -0.000193151 0)
(0.00067941 -0.000190343 0)
(0.000755301 -0.000187201 0)
(0.000829863 -0.000183729 0)
(0.000902963 -0.000179934 0)
(0.000974475 -0.000175822 0)
(0.00104427 -0.000171402 0)
(0.00111223 -0.00016668 0)
(0.00117823 -0.000161666 0)
(0.00124216 -0.000156368 0)
(0.0013039 -0.000150795 0)
(0.00136335 -0.000144957 0)
(0.0014204 -0.000138865 0)
(0.00147496 -0.00013253 0)
(0.00152692 -0.000125963 0)
(0.00157619 -0.000119174 0)
(0.00162269 -0.000112178 0)
(0.00166635 -0.000104985 0)
(0.00170707 -9.76085e-05 0)
(0.00174479 -9.00616e-05 0)
(0.00177945 -8.23577e-05 0)
(0.00181098 -7.45103e-05 0)
(0.00183933 -6.65332e-05 0)
(0.00186445 -5.84405e-05 0)
(0.0018863 -5.02465e-05 0)
(0.00190483 -4.19656e-05 0)
(0.00192002 -3.36123e-05 0)
(0.00193184 -2.52015e-05 0)
(0.00194027 -1.67478e-05 0)
(0.0019453 -8.2661e-06 0)
(0.00194691 2.2868e-07 0)
(0.00194511 8.72166e-06 0)
(0.0019399 1.71979e-05 0)
(0.00193129 2.56427e-05 0)
(0.00191929 3.40411e-05 0)
(0.00190393 4.23784e-05 0)
(0.00188523 5.06402e-05 0)
(0.00186323 5.88119e-05 0)
(0.00183796 6.68793e-05 0)
(0.00180947 7.48283e-05 0)
(0.00177782 8.26451e-05 0)
(0.00174305 9.0316e-05 0)
(0.00170523 9.78276e-05 0)
(0.00166443 0.000105167 0)
(0.00162071 0.000112321 0)
(0.00157415 0.000119278 0)
(0.00152485 0.000126025 0)
(0.00147287 0.000132551 0)
(0.00141832 0.000138844 0)
(0.00136128 0.000144894 0)
(0.00130187 0.00015069 0)
(0.00124017 0.000156222 0)
(0.00117631 0.000161481 0)
(0.0011104 0.000166457 0)
(0.00104254 0.000171142 0)
(0.000972852 0.000175529 0)
(0.000901467 0.000179609 0)
(0.000828504 0.000183377 0)
(0.000754091 0.000186827 0)
(0.000678356 0.000189952 0)
(0.000601431 0.00019275 0)
(0.000523448 0.000195216 0)
(0.000444541 0.000197348 0)
(0.000364845 0.000199145 0)
(0.000284493 0.000200609 0)
(0.000203619 0.000201743 0)
(0.000122354 0.000202553 0)
(4.08228e-05 0.000203045 0)
(-4.10498e-05 0.000284833 0)
(-0.000123035 0.000284145 0)
(-0.000204753 0.000283007 0)
(-0.000286079 0.000281416 0)
(-0.000366879 0.000279362 0)
(-0.00044702 0.00027684 0)
(-0.000526366 0.000273849 0)
(-0.000604784 0.00027039 0)
(-0.000682138 0.000266466 0)
(-0.000758295 0.000262081 0)
(-0.000833123 0.000257243 0)
(-0.000906493 0.000251957 0)
(-0.000978277 0.000246233 0)
(-0.00104835 0.000240079 0)
(-0.00111659 0.000233507 0)
(-0.00118287 0.000226526 0)
(-0.00124709 0.00021915 0)
(-0.00130913 0.000211389 0)
(-0.00136888 0.000203259 0)
(-0.00142623 0.000194773 0)
(-0.00148109 0.000185944 0)
(-0.00153336 0.00017679 0)
(-0.00158294 0.000167325 0)
(-0.00162976 0.000157566 0)
(-0.00167372 0.00014753 0)
(-0.00171475 0.000137235 0)
(-0.00175278 0.000126698 0)
(-0.00178775 0.000115937 0)
(-0.00181958 0.000104972 0)
(-0.00184823 9.38207e-05 0)
(-0.00187364 8.25038e-05 0)
(-0.00189576 7.10405e-05 0)
(-0.00191457 5.94509e-05 0)
(-0.00193002 4.77552e-05 0)
(-0.00194209 3.59738e-05 0)
(-0.00195075 2.41275e-05 0)
(-0.00195599 1.22369e-05 0)
(-0.0019578 3.22818e-07 0)
(-0.00195618 -1.15938e-05 0)
(-0.00195113 -2.3492e-05 0)
(-0.00194265 -3.5351e-05 0)
(-0.00193077 -4.71499e-05 0)
(-0.00191549 -5.8868e-05 0)
(-0.00189686 -7.04846e-05 0)
(-0.00187489 -8.19794e-05 0)
(-0.00184963 -9.3332e-05 0)
(-0.00182112 -0.000104522 0)
(-0.00178942 -0.000115531 0)
(-0.00175457 -0.000126338 0)
(-0.00171663 -0.000136925 0)
(-0.00167568 -0.000147273 0)
(-0.00163179 -0.000157364 0)
(-0.00158503 -0.000167179 0)
(-0.00153548 -0.000176701 0)
(-0.00148323 -0.000185915 0)
(-0.00142837 -0.000194802 0)
(-0.001371 -0.000203348 0)
(-0.00131122 -0.000211537 0)
(-0.00124913 -0.000219355 0)
(-0.00118484 -0.000226788 0)
(-0.00111847 -0.000233822 0)
(-0.00105013 -0.000240446 0)
(-0.000979943 -0.000246647 0)
(-0.00090803 -0.000252415 0)
(-0.00083452 -0.000257738 0)
(-0.00075954 -0.000262609 0)
(-0.000683223 -0.000267017 0)
(-0.000605703 -0.000270956 0)
(-0.000527117 -0.000274418 0)
(-0.000447603 -0.000277396 0)
(-0.0003673 -0.000279887 0)
(-0.000286351 -0.000281884 0)
(-0.000204897 -0.000283386 0)
(-0.000123083 -0.000284388 0)
(-4.10546e-05 -0.00028489 0)
(4.10547e-05 -0.00028489 0)
(0.000123083 -0.000284388 0)
(0.000204897 -0.000283386 0)
(0.000286351 -0.000281884 0)
(0.0003673 -0.000279887 0)
(0.000447603 -0.000277396 0)
(0.000527117 -0.000274418 0)
(0.000605703 -0.000270956 0)
(0.000683223 -0.000267017 0)
(0.00075954 -0.000262609 0)
(0.00083452 -0.000257738 0)
(0.00090803 -0.000252415 0)
(0.000979943 -0.000246647 0)
(0.00105013 -0.000240446 0)
(0.00111847 -0.000233822 0)
(0.00118484 -0.000226788 0)
(0.00124913 -0.000219355 0)
(0.00131122 -0.000211537 0)
(0.001371 -0.000203348 0)
(0.00142837 -0.000194802 0)
(0.00148323 -0.000185915 0)
(0.00153548 -0.000176701 0)
(0.00158503 -0.000167179 0)
(0.00163179 -0.000157364 0)
(0.00167568 -0.000147273 0)
(0.00171663 -0.000136925 0)
(0.00175457 -0.000126338 0)
(0.00178942 -0.000115531 0)
(0.00182112 -0.000104522 0)
(0.00184963 -9.3332e-05 0)
(0.00187489 -8.19794e-05 0)
(0.00189686 -7.04846e-05 0)
(0.00191549 -5.8868e-05 0)
(0.00193077 -4.71499e-05 0)
(0.00194265 -3.5351e-05 0)
(0.00195113 -2.3492e-05 0)
(0.00195618 -1.15938e-05 0)
(0.0019578 3.22812e-07 0)
(0.00195599 1.22369e-05 0)
(0.00195075 2.41275e-05 0)
(0.00194209 3.59738e-05 0)
(0.00193002 4.77551e-05 0)
(0.00191457 5.94509e-05 0)
(0.00189576 7.10405e-05 0)
(0.00187364 8.25038e-05 0)
(0.00184823 9.38207e-05 0)
(0.00181958 0.000104972 0)
(0.00178775 0.000115937 0)
(0.00175278 0.000126698 0)
(0.00171475 0.000137235 0)
(0.00167372 0.00014753 0)
(0.00162976 0.000157566 0)
(0.00158294 0.000167325 0)
(0.00153336 0.00017679 0)
(0.00148109 0.000185944 0)
(0.00142623 0.000194773 0)
(0.00136888 0.000203259 0)
(0.00130913 0.000211389 0)
(0.00124709 0.00021915 0)
(0.00118287 0.000226526 0)
(0.00111659 0.000233507 0)
(0.00104835 0.000240079 0)
(0.000978277 0.000246233 0)
(0.000906493 0.000251957 0)
(0.000833123 0.000257243 0)
(0.000758295 0.000262081 0)
(0.000682138 0.000266466 0)
(0.000604784 0.00027039 0)
(0.000526367 0.000273849 0)
(0.00044702 0.00027684 0)
(0.000366879 0.000279362 0)
(0.000286079 0.000281416 0)
(0.000204753 0.000283007 0)
(0.000123035 0.000284144 0)
(4.10498e-05 0.000284832 0)
(-4.13446e-05 0.000367141 0)
(-0.000123919 0.000366256 0)
(-0.000206225 0.00036479 0)
(-0.000288135 0.000362739 0)
(-0.000369517 0.00036009 0)
(-0.000450234 0.000356839 0)
(-0.000530152 0.000352984 0)
(-0.000609134 0.000348525 0)
(-0.000687044 0.000343467 0)
(-0.000763749 0.000337816 0)
(-0.000839116 0.000331579 0)
(-0.000913014 0.000324766 0)
(-0.000985315 0.000317388 0)
(-0.00105589 0.000309457 0)
(-0.00112462 0.000300985 0)
(-0.00119139 0.000291988 0)
(-0.00125607 0.00028248 0)
(-0.00131855 0.000272477 0)
(-0.00137873 0.000261998 0)
(-0.0014365 0.000251059 0)
(-0.00149175 0.00023968 0)
(-0.0015444 0.00022788 0)
(-0.00159434 0.000215681 0)
(-0.00164149 0.000203102 0)
(-0.00168578 0.000190166 0)
(-0.00172711 0.000176895 0)
(-0.00176541 0.000163313 0)
(-0.00180063 0.000149443 0)
(-0.0018327 0.000135309 0)
(-0.00186155 0.000120936 0)
(-0.00188714 0.000106349 0)
(-0.00190943 9.1573e-05 0)
(-0.00192838 7.66343e-05 0)
(-0.00194394 6.15588e-05 0)
(-0.0019561 4.6373e-05 0)
(-0.00196482 3.11033e-05 0)
(-0.0019701 1.57765e-05 0)
(-0.00197193 4.19473e-07 0)
(-0.0019703 -1.49409e-05 0)
(-0.00196521 -3.02775e-05 0)
(-0.00195668 -4.55636e-05 0)
(-0.00194471 -6.07723e-05 0)
(-0.00192933 -7.58768e-05 0)
(-0.00191056 -9.08506e-05 0)
(-0.00188843 -0.000105667 0)
(-0.001863 -0.000120301 0)
(-0.00183428 -0.000134725 0)
(-0.00180235 -0.000148916 0)
(-0.00176725 -0.000162846 0)
(-0.00172904 -0.000176493 0)
(-0.0016878 -0.000189831 0)
(-0.00164359 -0.000202838 0)
(-0.00159649 -0.00021549 0)
(-0.00154658 -0.000227765 0)
(-0.00149396 -0.000239641 0)
(-0.0014387 -0.000251096 0)
(-0.00138092 -0.000262112 0)
(-0.00132071 -0.000272668 0)
(-0.00125817 -0.000282746 0)
(-0.00119342 -0.000292327 0)
(-0.00112657 -0.000301394 0)
(-0.00105773 -0.000309932 0)
(-0.000987038 -0.000317926 0)
(-0.000914605 -0.00032536 0)
(-0.000840563 -0.000332223 0)
(-0.00076504 -0.000338501 0)
(-0.000688171 -0.000344184 0)
(-0.00061009 -0.00034926 0)
(-0.000530935 -0.000353723 0)
(-0.000450845 -0.000357562 0)
(-0.000369961 -0.000360773 0)
(-0.000288425 -0.000363348 0)
(-0.000206381 -0.000365283 0)
(-0.000123975 -0.000366575 0)
(-4.13521e-05 -0.000367222 0)
(4.13521e-05 -0.000367222 0)
(0.000123975 -0.000366575 0)
(0.000206381 -0.000365283 0)
(0.000288425 -0.000363348 0)
(0.000369961 -0.000360773 0)
(0.000450845 -0.000357562 0)
(0.000530935 -0.000353723 0)
(0.00061009 -0.00034926 0)
(0.000688171 -0.000344184 0)
(0.00076504 -0.000338501 0)
(0.000840563 -0.000332223 0)
(0.000914605 -0.00032536 0)
(0.000987038 -0.000317926 0)
(0.00105773 -0.000309932 0)
(0.00112657 -0.000301394 0)
(0.00119342 -0.000292327 0)
(0.00125817 -0.000282746 0)
(0.00132071 -0.000272668 0)
(0.00138092 -0.000262112 0)
(0.0014387 -0.000251096 0)
(0.00149396 -0.000239641 0)
(0.00154658 -0.000227765 0)
(0.00159649 -0.00021549 0)
(0.00164359 -0.000202838 0)
(0.0016878 -0.000189831 0)
(0.00172904 -0.000176493 0)
(0.00176725 -0.000162846 0)
(0.00180235 -0.000148916 0)
(0.00183428 -0.000134725 0)
(0.001863 -0.000120301 0)
(0.00188843 -0.000105667 0)
(0.00191056 -9.08506e-05 0)
(0.00192933 -7.58768e-05 0)
(0.00194471 -6.07723e-05 0)
(0.00195668 -4.55636e-05 0)
(0.00196521 -3.02775e-05 0)
(0.0019703 -1.49409e-05 0)
(0.00197193 4.19465e-07 0)
(0.0019701 1.57765e-05 0)
(0.00196482 3.11033e-05 0)
(0.0019561 4.6373e-05 0)
(0.00194394 6.15588e-05 0)
(0.00192838 7.66343e-05 0)
(0.00190943 9.1573e-05 0)
(0.00188714 0.000106349 0)
(0.00186155 0.000120936 0)
(0.0018327 0.000135309 0)
(0.00180063 0.000149443 0)
(0.00176541 0.000163313 0)
(0.00172711 0.000176895 0)
(0.00168578 0.000190166 0)
(0.00164149 0.000203102 0)
(0.00159434 0.000215681 0)
(0.0015444 0.00022788 0)
(0.00149175 0.00023968 0)
(0.0014365 0.000251059 0)
(0.00137873 0.000261998 0)
(0.00131855 0.000272477 0)
(0.00125607 0.00028248 0)
(0.00119139 0.000291988 0)
(0.00112462 0.000300985 0)
(0.00105589 0.000309457 0)
(0.000985315 0.000317388 0)
(0.000913014 0.000324766 0)
(0.000839116 0.000331579 0)
(0.000763749 0.000337816 0)
(0.000687044 0.000343467 0)
(0.000609134 0.000348525 0)
(0.000530152 0.000352984 0)
(0.000450234 0.000356839 0)
(0.000369517 0.00036009 0)
(0.000288135 0.000362738 0)
(0.000206225 0.00036479 0)
(0.000123919 0.000366256 0)
(4.13446e-05 0.00036714 0)
(-4.17089e-05 0.000450106 0)
(-0.00012501 0.000449024 0)
(-0.000208042 0.000447227 0)
(-0.000290674 0.000444712 0)
(-0.000372773 0.000441465 0)
(-0.000454203 0.000437479 0)
(-0.000534826 0.000432752 0)
(-0.000614504 0.000427286 0)
(-0.000693102 0.000421085 0)
(-0.000770484 0.000414157 0)
(-0.000846516 0.000406511 0)
(-0.000921066 0.000398159 0)
(-0.000994005 0.000389114 0)
(-0.0010652 0.00037939 0)
(-0.00113454 0.000369005 0)
(-0.0012019 0.000357974 0)
(-0.00126715 0.000346318 0)
(-0.00133019 0.000334055 0)
(-0.0013909 0.000321208 0)
(-0.00144917 0.000307797 0)
(-0.00150492 0.000293847 0)
(-0.00155803 0.000279381 0)
(-0.00160842 0.000264425 0)
(-0.00165599 0.000249004 0)
(-0.00170066 0.000233145 0)
(-0.00174236 0.000216876 0)
(-0.00178101 0.000200224 0)
(-0.00181654 0.00018322 0)
(-0.00184889 0.000165892 0)
(-0.001878 0.000148271 0)
(-0.00190382 0.000130388 0)
(-0.00192631 0.000112273 0)
(-0.00194543 9.3958e-05 0)
(-0.00196113 7.54757e-05 0)
(-0.0019734 5.6858e-05 0)
(-0.0019822 3.81375e-05 0)
(-0.00198753 1.9347e-05 0)
(-0.00198938 5.19379e-07 0)
(-0.00198774 -1.83123e-05 0)
(-0.00198261 -3.71151e-05 0)
(-0.001974 -5.58559e-05 0)
(-0.00196193 -7.45018e-05 0)
(-0.00194641 -9.302e-05 0)
(-0.00192748 -0.000111378 0)
(-0.00190516 -0.000129543 0)
(-0.0018795 -0.000147484 0)
(-0.00185054 -0.000165169 0)
(-0.00181832 -0.000182566 0)
(-0.00178291 -0.000199646 0)
(-0.00174437 -0.000216377 0)
(-0.00170276 -0.00023273 0)
(-0.00165816 -0.000248676 0)
(-0.00161065 -0.000264188 0)
(-0.0015603 -0.000279237 0)
(-0.00150721 -0.000293797 0)
(-0.00145147 -0.000307843 0)
(-0.00139317 -0.000321348 0)
(-0.00133242 -0.00033429 0)
(-0.00126933 -0.000346646 0)
(-0.00120401 -0.000358393 0)
(-0.00113657 -0.00036951 0)
(-0.00106712 -0.000379978 0)
(-0.0009958 -0.000389778 0)
(-0.000922725 -0.000398893 0)
(-0.000848026 -0.000407307 0)
(-0.000771833 -0.000415004 0)
(-0.000694282 -0.000421971 0)
(-0.000615508 -0.000428196 0)
(-0.00053565 -0.000433667 0)
(-0.000454849 -0.000438375 0)
(-0.000373246 -0.00044231 0)
(-0.000290987 -0.000445468 0)
(-0.000208214 -0.00044784 0)
(-0.000125076 -0.000449425 0)
(-4.17194e-05 -0.000450217 0)
(4.17194e-05 -0.000450217 0)
(0.000125076 -0.000449425 0)
(0.000208214 -0.00044784 0)
(0.000290987 -0.000445468 0)
(0.000373246 -0.00044231 0)
(0.000454849 -0.000438375 0)
(0.00053565 -0.000433667 0)
(0.000615508 -0.000428196 0)
(0.000694282 -0.000421971 0)
(0.000771834 -0.000415004 0)
(0.000848026 -0.000407307 0)
(0.000922725 -0.000398893 0)
(0.0009958 -0.000389778 0)
(0.00106712 -0.000379978 0)
(0.00113657 -0.00036951 0)
(0.00120401 -0.000358393 0)
(0.00126933 -0.000346646 0)
(0.00133242 -0.00033429 0)
(0.00139317 -0.000321348 0)
(0.00145147 -0.000307843 0)
(0.00150721 -0.000293797 0)
(0.0015603 -0.000279237 0)
(0.00161065 -0.000264188 0)
(0.00165816 -0.000248676 0)
(0.00170276 -0.00023273 0)
(0.00174437 -0.000216377 0)
(0.00178291 -0.000199646 0)
(0.00181832 -0.000182566 0)
(0.00185054 -0.000165169 0)
(0.0018795 -0.000147484 0)
(0.00190516 -0.000129543 0)
(0.00192748 -0.000111378 0)
(0.00194641 -9.302e-05 0)
(0.00196193 -7.45018e-05 0)
(0.001974 -5.58559e-05 0)
(0.00198261 -3.71151e-05 0)
(0.00198774 -1.83123e-05 0)
(0.00198938 5.1937e-07 0)
(0.00198753 1.9347e-05 0)
(0.0019822 3.81375e-05 0)
(0.0019734 5.6858e-05 0)
(0.00196113 7.54757e-05 0)
(0.00194543 9.3958e-05 0)
(0.00192631 0.000112273 0)
(0.00190382 0.000130388 0)
(0.001878 0.000148271 0)
(0.00184889 0.000165892 0)
(0.00181654 0.00018322 0)
(0.00178101 0.000200224 0)
(0.00174236 0.000216876 0)
(0.00170066 0.000233145 0)
(0.00165599 0.000249004 0)
(0.00160842 0.000264425 0)
(0.00155803 0.000279381 0)
(0.00150492 0.000293847 0)
(0.00144917 0.000307797 0)
(0.0013909 0.000321208 0)
(0.00133019 0.000334055 0)
(0.00126715 0.000346318 0)
(0.0012019 0.000357974 0)
(0.00113454 0.000369005 0)
(0.0010652 0.00037939 0)
(0.000994005 0.000389114 0)
(0.000921066 0.000398159 0)
(0.000846516 0.000406511 0)
(0.000770484 0.000414157 0)
(0.000693102 0.000421085 0)
(0.000614504 0.000427286 0)
(0.000534826 0.000432752 0)
(0.000454203 0.000437479 0)
(0.000372773 0.000441465 0)
(0.000290674 0.000444712 0)
(0.000208042 0.000447227 0)
(0.00012501 0.000449023 0)
(4.17088e-05 0.000450106 0)
(-4.21439e-05 0.00053387 0)
(-0.000126314 0.000532587 0)
(-0.000210211 0.000530457 0)
(-0.000293706 0.000527474 0)
(-0.000376662 0.000523623 0)
(-0.000458942 0.000518896 0)
(-0.000540406 0.000513289 0)
(-0.000620916 0.000506805 0)
(-0.000700335 0.000499451 0)
(-0.000778525 0.000491233 0)
(-0.000855351 0.000482165 0)
(-0.00093068 0.000472259 0)
(-0.00100438 0.000461531 0)
(-0.00107632 0.000449998 0)
(-0.00114639 0.00043768 0)
(-0.00121445 0.000424597 0)
(-0.00128038 0.000410772 0)
(-0.00134408 0.000396228 0)
(-0.00140542 0.00038099 0)
(-0.00146431 0.000365084 0)
(-0.00152064 0.000348538 0)
(-0.00157431 0.000331381 0)
(-0.00162522 0.000313641 0)
(-0.0016733 0.000295351 0)
(-0.00171844 0.000276541 0)
(-0.00176058 0.000257244 0)
(-0.00179963 0.000237494 0)
(-0.00183554 0.000217325 0)
(-0.00186823 0.000196773 0)
(-0.00189765 0.000175873 0)
(-0.00192374 0.000154661 0)
(-0.00194647 0.000133175 0)
(-0.00196578 0.000111452 0)
(-0.00198166 8.95299e-05 0)
(-0.00199405 6.74473e-05 0)
(-0.00200296 4.52427e-05 0)
(-0.00200835 2.2955e-05 0)
(-0.00201022 6.23306e-07 0)
(-0.00200856 -2.17133e-05 0)
(-0.00200338 -4.40157e-05 0)
(-0.00199468 -6.62446e-05 0)
(-0.00198249 -8.8361e-05 0)
(-0.00196681 -0.000110326 0)
(-0.00194769 -0.000132101 0)
(-0.00192514 -0.000153648 0)
(-0.00189921 -0.000174928 0)
(-0.00186995 -0.000195904 0)
(-0.0018374 -0.00021654 0)
(-0.00180162 -0.000236799 0)
(-0.00176268 -0.000256644 0)
(-0.00172063 -0.000276041 0)
(-0.00167557 -0.000294956 0)
(-0.00162756 -0.000313356 0)
(-0.00157668 -0.000331206 0)
(-0.00152303 -0.000348477 0)
(-0.00146671 -0.000365137 0)
(-0.0014078 -0.000381157 0)
(-0.00134642 -0.000396508 0)
(-0.00128267 -0.000411164 0)
(-0.00121666 -0.000425097 0)
(-0.00114851 -0.000438284 0)
(-0.00107834 -0.000450701 0)
(-0.00100626 -0.000462326 0)
(-0.000932423 -0.000473138 0)
(-0.000856939 -0.000483118 0)
(-0.000779946 -0.000492249 0)
(-0.00070158 -0.000500513 0)
(-0.000621978 -0.000507896 0)
(-0.000541281 -0.000514386 0)
(-0.00045963 -0.00051997 0)
(-0.00037717 -0.000524639 0)
(-0.000294046 -0.000528384 0)
(-0.000210403 -0.000531198 0)
(-0.000126391 -0.000533077 0)
(-4.2158e-05 -0.000534018 0)
(4.21581e-05 -0.000534018 0)
(0.000126391 -0.000533077 0)
(0.000210403 -0.000531198 0)
(0.000294046 -0.000528384 0)
(0.00037717 -0.000524639 0)
(0.000459631 -0.00051997 0)
(0.000541281 -0.000514386 0)
(0.000621978 -0.000507896 0)
(0.00070158 -0.000500513 0)
(0.000779946 -0.000492249 0)
(0.000856939 -0.000483118 0)
(0.000932423 -0.000473138 0)
(0.00100626 -0.000462326 0)
(0.00107834 -0.000450701 0)
(0.00114851 -0.000438284 0)
(0.00121666 -0.000425097 0)
(0.00128267 -0.000411164 0)
(0.00134642 -0.000396508 0)
(0.0014078 -0.000381157 0)
(0.00146671 -0.000365137 0)
(0.00152303 -0.000348477 0)
(0.00157668 -0.000331206 0)
(0.00162756 -0.000313356 0)
(0.00167557 -0.000294956 0)
(0.00172063 -0.000276041 0)
(0.00176268 -0.000256644 0)
(0.00180162 -0.000236799 0)
(0.0018374 -0.00021654 0)
(0.00186995 -0.000195904 0)
(0.00189921 -0.000174928 0)
(0.00192514 -0.000153648 0)
(0.00194769 -0.000132101 0)
(0.00196681 -0.000110326 0)
(0.00198249 -8.8361e-05 0)
(0.00199468 -6.62446e-05 0)
(0.00200338 -4.40157e-05 0)
(0.00200856 -2.17133e-05 0)
(0.00201022 6.23299e-07 0)
(0.00200835 2.2955e-05 0)
(0.00200296 4.52427e-05 0)
(0.00199405 6.74473e-05 0)
(0.00198166 8.95298e-05 0)
(0.00196578 0.000111452 0)
(0.00194647 0.000133175 0)
(0.00192374 0.000154661 0)
(0.00189765 0.000175873 0)
(0.00186823 0.000196773 0)
(0.00183554 0.000217325 0)
(0.00179963 0.000237494 0)
(0.00176058 0.000257244 0)
(0.00171844 0.000276541 0)
(0.0016733 0.000295351 0)
(0.00162522 0.000313641 0)
(0.00157431 0.000331381 0)
(0.00152064 0.000348538 0)
(0.00146431 0.000365084 0)
(0.00140542 0.00038099 0)
(0.00134408 0.000396228 0)
(0.00128038 0.000410772 0)
(0.00121445 0.000424597 0)
(0.00114639 0.00043768 0)