/*--------------------------------*- C++ -*----------------------------------*\
| =========                 |                                                 |
| \\      /  F ield         | OpenFOAM: The Open Source CFD Toolbox           |
|  \\    /   O peration     | Version:  2106                                  |
|   \\  /    A nd           | Website:  www.openfoam.com                      |
|    \\/     M anipulation  |                                                 |
\*---------------------------------------------------------------------------*/
FoamFile
{
    version     2.0;
    format      ascii;
    arch        "LSB;label=32;scalar=64";
    class       volVectorField;
    location    "3.4";
    object      U_0;
}
// * * * * * * * * * * * * * * * * * * * * * * * * * * * * * * * * * * * * * //

dimensions      [0 1 -1 0 0 0 0];

internalField   nonuniform List<vector> 
90000
(
(-4.05527e-05 4.0505e-05 0)
(-0.000121547 4.04063e-05 0)
(-0.000202273 4.02451e-05 0)
(-0.000282612 4.00195e-05 0)
(-0.000362433 3.97278e-05 0)
(-0.000441604 3.93693e-05 0)
(-0.000519991 3.89439e-05 0)
(-0.00059746 3.8452e-05 0)
(-0.000673878 3.78938e-05 0)
(-0.000749114 3.72702e-05 0)
(-0.000823037 3.6582e-05 0)
(-0.000895518 3.58302e-05 0)
(-0.000966432 3.50161e-05 0)
(-0.00103566 3.41409e-05 0)
(-0.00110307 3.32061e-05 0)
(-0.00116855 3.22134e-05 0)
(-0.00123199 3.11642e-05 0)
(-0.00129327 3.00606e-05 0)
(-0.0013523 2.89043e-05 0)
(-0.00140895 2.76974e-05 0)
(-0.00146314 2.64419e-05 0)
(-0.00151478 2.514e-05 0)
(-0.00156376 2.37939e-05 0)
(-0.00161 2.24061e-05 0)
(-0.00165343 2.09789e-05 0)
(-0.00169397 1.95147e-05 0)
(-0.00173153 1.80162e-05 0)
(-0.00176607 1.6486e-05 0)
(-0.00179751 1.49266e-05 0)
(-0.00182581 1.33409e-05 0)
(-0.00185091 1.17315e-05 0)
(-0.00187276 1.01014e-05 0)
(-0.00189134 8.4533e-06 0)
(-0.0019066 6.79014e-06 0)
(-0.00191851 5.11482e-06 0)
(-0.00192707 3.43026e-06 0)
(-0.00193224 1.73943e-06 0)
(-0.00193403 4.52737e-08 0)
(-0.00193242 -1.64924e-06 0)
(-0.00192743 -3.34114e-06 0)
(-0.00191905 -5.02747e-06 0)
(-0.00190731 -6.70526e-06 0)
(-0.00189222 -8.37156e-06 0)
(-0.0018738 -1.00234e-05 0)
(-0.0018521 -1.1658e-05 0)
(-0.00182714 -1.32724e-05 0)
(-0.00179898 -1.48636e-05 0)
(-0.00176766 -1.64291e-05 0)
(-0.00173323 -1.79659e-05 0)
(-0.00169575 -1.94714e-05 0)
(-0.0016553 -2.09429e-05 0)
(-0.00161194 -2.23778e-05 0)
(-0.00156574 -2.37735e-05 0)
(-0.00151679 -2.51277e-05 0)
(-0.00146517 -2.64378e-05 0)
(-0.00141098 -2.77016e-05 0)
(-0.00135431 -2.89169e-05 0)
(-0.00129525 -3.00814e-05 0)
(-0.00123392 -3.11932e-05 0)
(-0.00117041 -3.22501e-05 0)
(-0.00110485 -3.32505e-05 0)
(-0.00103734 -3.41924e-05 0)
(-0.000968007 -3.50743e-05 0)
(-0.00089697 -3.58944e-05 0)
(-0.000824354 -3.66515e-05 0)
(-0.000750287 -3.73441e-05 0)
(-0.0006749 -3.7971e-05 0)
(-0.000598324 -3.85311e-05 0)
(-0.000520695 -3.90234e-05 0)
(-0.000442149 -3.9447e-05 0)
(-0.000362825 -3.98011e-05 0)
(-0.000282862 -4.00852e-05 0)
(-0.0002024 -4.02987e-05 0)
(-0.000121583 -4.04413e-05 0)
(-4.05545e-05 -4.05126e-05 0)
(4.05543e-05 -4.05126e-05 0)
(0.000121583 -4.04413e-05 0)
(0.0002024 -4.02987e-05 0)
(0.000282861 -4.00852e-05 0)
(0.000362825 -3.98011e-05 0)
(0.000442149 -3.9447e-05 0)
(0.000520695 -3.90234e-05 0)
(0.000598324 -3.85311e-05 0)
(0.000674899 -3.7971e-05 0)
(0.000750287 -3.73441e-05 0)
(0.000824354 -3.66515e-05 0)
(0.00089697 -3.58944e-05 0)
(0.000968007 -3.50743e-05 0)
(0.00103734 -3.41924e-05 0)
(0.00110485 -3.32505e-05 0)
(0.00117041 -3.22501e-05 0)
(0.00123392 -3.11932e-05 0)
(0.00129525 -3.00814e-05 0)
(0.00135431 -2.89169e-05 0)
(0.00141098 -2.77016e-05 0)
(0.00146517 -2.64378e-05 0)
(0.00151679 -2.51277e-05 0)
(0.00156574 -2.37735e-05 0)
(0.00161194 -2.23778e-05 0)
(0.0016553 -2.09429e-05 0)
(0.00169575 -1.94714e-05 0)
(0.00173323 -1.79659e-05 0)
(0.00176766 -1.64291e-05 0)
(0.00179898 -1.48636e-05 0)
(0.00182714 -1.32723e-05 0)
(0.0018521 -1.1658e-05 0)
(0.0018738 -1.00234e-05 0)
(0.00189222 -8.37156e-06 0)
(0.00190731 -6.70526e-06 0)
(0.00191905 -5.02747e-06 0)
(0.00192743 -3.34114e-06 0)
(0.00193242 -1.64924e-06 0)
(0.00193403 4.52762e-08 0)
(0.00193224 1.73943e-06 0)
(0.00192707 3.43027e-06 0)
(0.00191851 5.11482e-06 0)
(0.0019066 6.79014e-06 0)
(0.00189134 8.4533e-06 0)
(0.00187276 1.01014e-05 0)
(0.00185091 1.17315e-05 0)
(0.00182581 1.33409e-05 0)
(0.00179751 1.49266e-05 0)
(0.00176607 1.6486e-05 0)
(0.00173153 1.80162e-05 0)
(0.00169397 1.95147e-05 0)
(0.00165343 2.09789e-05 0)
(0.00161 2.24061e-05 0)
(0.00156376 2.37939e-05 0)
(0.00151478 2.514e-05 0)
(0.00146314 2.64419e-05 0)
(0.00140895 2.76974e-05 0)
(0.0013523 2.89043e-05 0)
(0.00129327 3.00606e-05 0)
(0.00123199 3.11643e-05 0)
(0.00116855 3.22134e-05 0)
(0.00110307 3.32062e-05 0)
(0.00103566 3.41409e-05 0)
(0.000966432 3.50161e-05 0)
(0.000895517 3.58303e-05 0)
(0.000823036 3.6582e-05 0)
(0.000749113 3.72703e-05 0)
(0.000673877 3.78939e-05 0)
(0.000597459 3.8452e-05 0)
(0.00051999 3.89441e-05 0)
(0.000441603 3.93694e-05 0)
(0.000362431 3.9728e-05 0)
(0.000282609 4.00199e-05 0)
(0.00020227 4.02457e-05 0)
(0.000121542 4.04075e-05 0)
(4.05503e-05 4.05074e-05 0)
(-4.06514e-05 0.000121612 0)
(-0.000121841 0.000121317 0)
(-0.000202762 0.000120834 0)
(-0.000283293 0.000120156 0)
(-0.000363305 0.00011928 0)
(-0.000442665 0.000118203 0)
(-0.000521239 0.000116926 0)
(-0.000598893 0.00011545 0)
(-0.000675493 0.000113774 0)
(-0.000750908 0.000111902 0)
(-0.000825008 0.000109836 0)
(-0.000897662 0.000107579 0)
(-0.000968746 0.000105134 0)
(-0.00103814 0.000102507 0)
(-0.00110571 9.97005e-05 0)
(-0.00117135 9.67199e-05 0)
(-0.00123494 9.35702e-05 0)
(-0.00129637 9.02567e-05 0)
(-0.00135553 8.67851e-05 0)
(-0.00141233 8.31615e-05 0)
(-0.00146665 7.9392e-05 0)
(-0.00151841 7.54833e-05 0)
(-0.00156751 7.1442e-05 0)
(-0.00161386 6.72751e-05 0)
(-0.00165739 6.299e-05 0)
(-0.00169803 5.8594e-05 0)
(-0.00173568 5.40948e-05 0)
(-0.0017703 4.95003e-05 0)
(-0.00180182 4.48183e-05 0)
(-0.00183019 4.00572e-05 0)
(-0.00185535 3.52251e-05 0)
(-0.00187726 3.03306e-05 0)
(-0.00189587 2.53822e-05 0)
(-0.00191117 2.03884e-05 0)
(-0.00192312 1.53581e-05 0)
(-0.00193169 1.03001e-05 0)
(-0.00193688 5.22321e-06 0)
(-0.00193867 1.36301e-07 0)
(-0.00193706 -4.95168e-06 0)
(-0.00193206 -1.00318e-05 0)
(-0.00192366 -1.50952e-05 0)
(-0.00191189 -2.01329e-05 0)
(-0.00189676 -2.51361e-05 0)
(-0.0018783 -3.0096e-05 0)
(-0.00185655 -3.50038e-05 0)
(-0.00183154 -3.98509e-05 0)
(-0.0018033 -4.46288e-05 0)
(-0.00177191 -4.9329e-05 0)
(-0.0017374 -5.39433e-05 0)
(-0.00169983 -5.84635e-05 0)
(-0.00165928 -6.28816e-05 0)
(-0.00161581 -6.71897e-05 0)
(-0.00156951 -7.13804e-05 0)
(-0.00152044 -7.54462e-05 0)
(-0.0014687 -7.93798e-05 0)
(-0.00141438 -8.31743e-05 0)
(-0.00135757 -8.68229e-05 0)
(-0.00129837 -9.03193e-05 0)
(-0.00123689 -9.36572e-05 0)
(-0.00117323 -9.68306e-05 0)
(-0.00110751 -9.9834e-05 0)
(-0.00103984 -0.000102662 0)
(-0.000970338 -0.00010531 0)
(-0.00089913 -0.000107772 0)
(-0.00082634 -0.000110045 0)
(-0.000752094 -0.000112124 0)
(-0.000676525 -0.000114007 0)
(-0.000599765 -0.000115688 0)
(-0.000521949 -0.000117166 0)
(-0.000443214 -0.000118438 0)
(-0.000363699 -0.000119501 0)
(-0.000283543 -0.000120354 0)
(-0.000202888 -0.000120995 0)
(-0.000121876 -0.000121423 0)
(-4.06522e-05 -0.000121637 0)
(4.0652e-05 -0.000121637 0)
(0.000121876 -0.000121423 0)
(0.000202888 -0.000120995 0)
(0.000283543 -0.000120354 0)
(0.000363699 -0.000119501 0)
(0.000443214 -0.000118438 0)
(0.000521949 -0.000117166 0)
(0.000599765 -0.000115688 0)
(0.000676525 -0.000114007 0)
(0.000752094 -0.000112124 0)
(0.000826339 -0.000110045 0)
(0.00089913 -0.000107772 0)
(0.000970338 -0.00010531 0)
(0.00103984 -0.000102662 0)
(0.00110751 -9.9834e-05 0)
(0.00117323 -9.68306e-05 0)
(0.00123689 -9.36572e-05 0)
(0.00129837 -9.03193e-05 0)
(0.00135757 -8.68229e-05 0)
(0.00141438 -8.31743e-05 0)
(0.0014687 -7.93798e-05 0)
(0.00152044 -7.54462e-05 0)
(0.00156951 -7.13804e-05 0)
(0.00161581 -6.71897e-05 0)
(0.00165928 -6.28816e-05 0)
(0.00169983 -5.84635e-05 0)
(0.00173739 -5.39433e-05 0)
(0.00177191 -4.9329e-05 0)
(0.0018033 -4.46288e-05 0)
(0.00183154 -3.98509e-05 0)
(0.00185655 -3.50038e-05 0)
(0.0018783 -3.00959e-05 0)
(0.00189676 -2.51361e-05 0)
(0.00191189 -2.01329e-05 0)
(0.00192366 -1.50952e-05 0)
(0.00193206 -1.00318e-05 0)
(0.00193706 -4.95168e-06 0)
(0.00193867 1.36308e-07 0)
(0.00193688 5.22322e-06 0)
(0.00193169 1.03001e-05 0)
(0.00192312 1.53582e-05 0)
(0.00191117 2.03884e-05 0)
(0.00189587 2.53822e-05 0)
(0.00187726 3.03306e-05 0)
(0.00185535 3.52251e-05 0)
(0.00183019 4.00572e-05 0)
(0.00180182 4.48183e-05 0)
(0.0017703 4.95003e-05 0)
(0.00173568 5.40948e-05 0)
(0.00169803 5.8594e-05 0)
(0.00165739 6.299e-05 0)
(0.00161386 6.72751e-05 0)
(0.00156751 7.1442e-05 0)
(0.00151841 7.54833e-05 0)
(0.00146665 7.93921e-05 0)
(0.00141233 8.31615e-05 0)
(0.00135553 8.67852e-05 0)
(0.00129637 9.02567e-05 0)
(0.00123494 9.35702e-05 0)
(0.00117135 9.672e-05 0)
(0.00110571 9.97006e-05 0)
(0.00103813 0.000102507 0)
(0.000968746 0.000105135 0)
(0.000897662 0.000107579 0)
(0.000825007 0.000109836 0)
(0.000750907 0.000111902 0)
(0.000675492 0.000113774 0)
(0.000598892 0.00011545 0)
(0.000521238 0.000116927 0)
(0.000442664 0.000118204 0)
(0.000363304 0.00011928 0)
(0.000283291 0.000120157 0)
(0.000202759 0.000120835 0)
(0.000121838 0.00012132 0)
(4.06502e-05 0.000121616 0)
(-4.08129e-05 0.00020299 0)
(-0.000122324 0.000202499 0)
(-0.000203569 0.00020169 0)
(-0.000284422 0.000200557 0)
(-0.000364753 0.000199093 0)
(-0.000444429 0.000197297 0)
(-0.000523315 0.000195165 0)
(-0.000601278 0.0001927 0)
(-0.000678183 0.000189904 0)
(-0.000753898 0.000186779 0)
(-0.000828293 0.00018333 0)
(-0.000901237 0.000179563 0)
(-0.000972604 0.000175484 0)
(-0.00104227 0.000171098 0)
(-0.00111011 0.000166414 0)
(-0.00117601 0.000161439 0)
(-0.00123986 0.000156182 0)
(-0.00130153 0.000150651 0)
(-0.00136093 0.000144857 0)
(-0.00141795 0.000138809 0)
(-0.00147249 0.000132517 0)
(-0.00152446 0.000125993 0)
(-0.00157375 0.000119247 0)
(-0.00162029 0.000112292 0)
(-0.001664 0.00010514 0)
(-0.0017048 9.78025e-05 0)
(-0.00174261 9.02928e-05 0)
(-0.00177736 8.26238e-05 0)
(-0.00180901 7.48091e-05 0)
(-0.00183749 6.68621e-05 0)
(-0.00186275 5.87968e-05 0)
(-0.00188475 5.06271e-05 0)
(-0.00190344 4.23675e-05 0)
(-0.0019188 3.40323e-05 0)
(-0.00193079 2.5636e-05 0)
(-0.0019394 1.71935e-05 0)
(-0.00194461 8.71935e-06 0)
(-0.00194641 2.28547e-07 0)
(-0.0019448 -8.26406e-06 0)
(-0.00193978 -1.67436e-05 0)
(-0.00193135 -2.51951e-05 0)
(-0.00191953 -3.36038e-05 0)
(-0.00190434 -4.19549e-05 0)
(-0.00188581 -5.02337e-05 0)
(-0.00186397 -5.84256e-05 0)
(-0.00183886 -6.65162e-05 0)
(-0.00181052 -7.44912e-05 0)
(-0.00177899 -8.23367e-05 0)
(-0.00174434 -9.00386e-05 0)
(-0.00170663 -9.75835e-05 0)
(-0.00166592 -0.000104958 0)
(-0.00162228 -0.000112149 0)
(-0.00157579 -0.000119144 0)
(-0.00152652 -0.00012593 0)
(-0.00147458 -0.000132496 0)
(-0.00142004 -0.00013883 0)
(-0.001363 -0.00014492 0)
(-0.00130357 -0.000150756 0)
(-0.00124184 -0.000156328 0)
(-0.00117793 -0.000161625 0)
(-0.00111194 -0.000166638 0)
(-0.001044 -0.000171358 0)
(-0.000974225 -0.000175777 0)
(-0.000902732 -0.000179888 0)
(-0.00082965 -0.000183682 0)
(-0.000755107 -0.000187153 0)
(-0.000679236 -0.000190294 0)
(-0.000602168 -0.000193101 0)
(-0.00052404 -0.000195568 0)
(-0.00044499 -0.000197691 0)
(-0.000365156 -0.000199466 0)
(-0.000284679 -0.000200889 0)
(-0.000203701 -0.000201959 0)
(-0.000122365 -0.000202674 0)
(-4.08151e-05 -0.000203031 0)
(4.08149e-05 -0.000203031 0)
(0.000122364 -0.000202674 0)
(0.000203701 -0.000201959 0)
(0.000284679 -0.000200889 0)
(0.000365156 -0.000199466 0)
(0.00044499 -0.000197691 0)
(0.00052404 -0.000195568 0)
(0.000602168 -0.000193101 0)
(0.000679235 -0.000190294 0)
(0.000755107 -0.000187153 0)
(0.00082965 -0.000183682 0)
(0.000902732 -0.000179888 0)
(0.000974225 -0.000175777 0)
(0.001044 -0.000171358 0)
(0.00111194 -0.000166638 0)
(0.00117793 -0.000161625 0)
(0.00124184 -0.000156328 0)
(0.00130357 -0.000150756 0)
(0.001363 -0.00014492 0)
(0.00142004 -0.00013883 0)
(0.00147458 -0.000132496 0)
(0.00152652 -0.00012593 0)
(0.00157579 -0.000119144 0)
(0.00162228 -0.000112149 0)
(0.00166592 -0.000104958 0)
(0.00170663 -9.75835e-05 0)
(0.00174434 -9.00386e-05 0)
(0.00177899 -8.23366e-05 0)
(0.00181052 -7.44912e-05 0)
(0.00183886 -6.65162e-05 0)
(0.00186397 -5.84256e-05 0)
(0.00188581 -5.02336e-05 0)
(0.00190434 -4.19549e-05 0)
(0.00191953 -3.36038e-05 0)
(0.00193135 -2.51951e-05 0)
(0.00193977 -1.67436e-05 0)
(0.0019448 -8.26405e-06 0)
(0.00194641 2.28558e-07 0)
(0.00194461 8.71936e-06 0)
(0.0019394 1.71935e-05 0)
(0.00193079 2.5636e-05 0)
(0.0019188 3.40323e-05 0)
(0.00190344 4.23675e-05 0)
(0.00188475 5.06272e-05 0)
(0.00186275 5.87968e-05 0)
(0.00183749 6.68621e-05 0)
(0.00180901 7.48091e-05 0)
(0.00177736 8.26239e-05 0)
(0.0017426 9.02928e-05 0)
(0.0017048 9.78025e-05 0)
(0.001664 0.00010514 0)
(0.00162029 0.000112292 0)
(0.00157375 0.000119247 0)
(0.00152446 0.000125993 0)
(0.00147249 0.000132517 0)
(0.00141795 0.000138809 0)
(0.00136093 0.000144857 0)
(0.00130153 0.000150651 0)
(0.00123986 0.000156182 0)
(0.00117601 0.000161439 0)
(0.00111011 0.000166414 0)
(0.00104227 0.000171098 0)
(0.000972603 0.000175484 0)
(0.000901236 0.000179563 0)
(0.000828292 0.000183331 0)
(0.000753898 0.000186779 0)
(0.000678182 0.000189904 0)
(0.000601277 0.000192701 0)
(0.000523314 0.000195166 0)
(0.000444428 0.000197297 0)
(0.000364752 0.000199094 0)
(0.00028442 0.000200558 0)
(0.000203567 0.000201691 0)
(0.000122323 0.000202501 0)
(4.08123e-05 0.000202993 0)
(-4.10396e-05 0.000284757 0)
(-0.000123004 0.00028407 0)
(-0.000204702 0.000282933 0)
(-0.000286007 0.000281343 0)
(-0.000366786 0.000279289 0)
(-0.000446907 0.000276768 0)
(-0.000526233 0.000273778 0)
(-0.00060463 0.00027032 0)
(-0.000681964 0.000266397 0)
(-0.000758102 0.000262014 0)
(-0.000832911 0.000257176 0)
(-0.000906262 0.000251892 0)
(-0.000978027 0.00024617 0)
(-0.00104808 0.000240018 0)
(-0.0011163 0.000233447 0)
(-0.00118257 0.000226468 0)
(-0.00124677 0.000219093 0)
(-0.00130879 0.000211335 0)
(-0.00136853 0.000203207 0)
(-0.00142586 0.000194723 0)
(-0.00148071 0.000185897 0)
(-0.00153296 0.000176745 0)
(-0.00158254 0.000167282 0)
(-0.00162934 0.000157526 0)
(-0.00167329 0.000147493 0)
(-0.00171431 0.0001372 0)
(-0.00175234 0.000126665 0)
(-0.00178729 0.000115907 0)
(-0.00181912 0.000104945 0)
(-0.00184775 9.37966e-05 0)
(-0.00187316 8.24825e-05 0)
(-0.00189528 7.10222e-05 0)
(-0.00191408 5.94355e-05 0)
(-0.00192952 4.77428e-05 0)
(-0.00194159 3.59645e-05 0)
(-0.00195025 2.41212e-05 0)
(-0.00195549 1.22336e-05 0)
(-0.0019573 3.22624e-07 0)
(-0.00195568 -1.15909e-05 0)
(-0.00195063 -2.34861e-05 0)
(-0.00194215 -3.5342e-05 0)
(-0.00193027 -4.71379e-05 0)
(-0.001915 -5.8853e-05 0)
(-0.00189637 -7.04666e-05 0)
(-0.00187441 -8.19585e-05 0)
(-0.00184916 -9.33082e-05 0)
(-0.00182066 -0.000104496 0)
(-0.00178896 -0.000115502 0)
(-0.00175412 -0.000126306 0)
(-0.00171619 -0.00013689 0)
(-0.00167525 -0.000147235 0)
(-0.00163137 -0.000157323 0)
(-0.00158462 -0.000167136 0)
(-0.00153508 -0.000176656 0)
(-0.00148285 -0.000185867 0)
(-0.001428 -0.000194752 0)
(-0.00137065 -0.000203296 0)
(-0.00131088 -0.000211483 0)
(-0.00124881 -0.000219299 0)
(-0.00118454 -0.00022673 0)
(-0.00111818 -0.000233762 0)
(-0.00104986 -0.000240384 0)
(-0.000979691 -0.000246584 0)
(-0.000907797 -0.00025235 0)
(-0.000834306 -0.000257672 0)
(-0.000759345 -0.000262541 0)
(-0.000683048 -0.000266949 0)
(-0.000605548 -0.000270886 0)
(-0.000526982 -0.000274347 0)
(-0.000447488 -0.000277325 0)
(-0.000367206 -0.000279815 0)
(-0.000286277 -0.000281812 0)
(-0.000204845 -0.000283313 0)
(-0.000123052 -0.000284315 0)
(-4.10442e-05 -0.000284817 0)
(4.1044e-05 -0.000284817 0)
(0.000123051 -0.000284315 0)
(0.000204844 -0.000283313 0)
(0.000286277 -0.000281812 0)
(0.000367206 -0.000279815 0)
(0.000447488 -0.000277325 0)
(0.000526982 -0.000274347 0)
(0.000605548 -0.000270886 0)
(0.000683048 -0.000266949 0)
(0.000759345 -0.000262541 0)
(0.000834305 -0.000257672 0)
(0.000907797 -0.00025235 0)
(0.000979691 -0.000246584 0)
(0.00104986 -0.000240384 0)
(0.00111818 -0.000233762 0)
(0.00118454 -0.00022673 0)
(0.00124881 -0.000219299 0)
(0.00131088 -0.000211483 0)
(0.00137065 -0.000203296 0)
(0.001428 -0.000194752 0)
(0.00148285 -0.000185867 0)
(0.00153508 -0.000176656 0)
(0.00158462 -0.000167136 0)
(0.00163137 -0.000157323 0)
(0.00167525 -0.000147235 0)
(0.00171619 -0.00013689 0)
(0.00175412 -0.000126306 0)
(0.00178896 -0.000115502 0)
(0.00182066 -0.000104496 0)
(0.00184916 -9.33081e-05 0)
(0.00187441 -8.19584e-05 0)
(0.00189637 -7.04666e-05 0)
(0.001915 -5.8853e-05 0)
(0.00193027 -4.71379e-05 0)
(0.00194215 -3.5342e-05 0)
(0.00195063 -2.34861e-05 0)
(0.00195568 -1.15909e-05 0)
(0.0019573 3.22638e-07 0)
(0.00195549 1.22336e-05 0)
(0.00195025 2.41212e-05 0)
(0.00194159 3.59645e-05 0)
(0.00192952 4.77428e-05 0)
(0.00191408 5.94355e-05 0)
(0.00189528 7.10222e-05 0)
(0.00187316 8.24826e-05 0)
(0.00184775 9.37966e-05 0)
(0.00181912 0.000104945 0)
(0.00178729 0.000115907 0)
(0.00175234 0.000126665 0)
(0.00171431 0.0001372 0)
(0.00167329 0.000147493 0)
(0.00162934 0.000157526 0)
(0.00158254 0.000167282 0)
(0.00153296 0.000176745 0)
(0.00148071 0.000185897 0)
(0.00142586 0.000194723 0)
(0.00136853 0.000203207 0)
(0.00130879 0.000211335 0)
(0.00124677 0.000219094 0)
(0.00118257 0.000226468 0)
(0.0011163 0.000233447 0)
(0.00104808 0.000240018 0)
(0.000978026 0.00024617 0)
(0.000906261 0.000251892 0)
(0.00083291 0.000257177 0)
(0.000758101 0.000262014 0)
(0.000681963 0.000266398 0)
(0.000604629 0.000270321 0)
(0.000526232 0.000273779 0)
(0.000446905 0.000276769 0)
(0.000366785 0.00027929 0)
(0.000286006 0.000281344 0)
(0.000204701 0.000282935 0)
(0.000123003 0.000284072 0)
(4.10393e-05 0.00028476 0)
(-4.13343e-05 0.000367045 0)
(-0.000123888 0.00036616 0)
(-0.000206173 0.000364695 0)
(-0.000288062 0.000362644 0)
(-0.000369423 0.000359997 0)
(-0.00045012 0.000356747 0)
(-0.000530017 0.000352893 0)
(-0.000608979 0.000348435 0)
(-0.000686869 0.000343379 0)
(-0.000763555 0.000337729 0)
(-0.000838902 0.000331494 0)
(-0.000912781 0.000324683 0)
(-0.000985063 0.000317307 0)
(-0.00105562 0.000309377 0)
(-0.00112433 0.000300908 0)
(-0.00119108 0.000291913 0)
(-0.00125575 0.000282407 0)
(-0.00131821 0.000272407 0)
(-0.00137838 0.00026193 0)
(-0.00143613 0.000250994 0)
(-0.00149137 0.000239618 0)
(-0.001544 0.000227822 0)
(-0.00159393 0.000215625 0)
(-0.00164107 0.00020305 0)
(-0.00168534 0.000190117 0)
(-0.00172666 0.00017685 0)
(-0.00176496 0.000163271 0)
(-0.00180017 0.000149405 0)
(-0.00183223 0.000135274 0)
(-0.00186107 0.000120905 0)
(-0.00188666 0.000106322 0)
(-0.00190894 9.15494e-05 0)
(-0.00192788 7.66145e-05 0)
(-0.00194344 6.15429e-05 0)
(-0.00195559 4.63609e-05 0)
(-0.00196432 3.10952e-05 0)
(-0.0019696 1.57723e-05 0)
(-0.00197143 4.1922e-07 0)
(-0.0019698 -1.49372e-05 0)
(-0.00196471 -3.02699e-05 0)
(-0.00195618 -4.55521e-05 0)
(-0.00194421 -6.07569e-05 0)
(-0.00192883 -7.58575e-05 0)
(-0.00191007 -9.08275e-05 0)
(-0.00188795 -0.00010564 0)
(-0.00186252 -0.00012027 0)
(-0.00183381 -0.000134691 0)
(-0.00180189 -0.000148877 0)
(-0.0017668 -0.000162805 0)
(-0.0017286 -0.000176448 0)
(-0.00168737 -0.000189783 0)
(-0.00164317 -0.000202786 0)
(-0.00159608 -0.000215435 0)
(-0.00154619 -0.000227706 0)
(-0.00149357 -0.000239579 0)
(-0.00143833 -0.000251032 0)
(-0.00138056 -0.000262045 0)
(-0.00132037 -0.000272598 0)
(-0.00125785 -0.000282673 0)
(-0.00119311 -0.000292252 0)
(-0.00112628 -0.000301317 0)
(-0.00105746 -0.000309853 0)
(-0.000986785 -0.000317844 0)
(-0.000914371 -0.000325277 0)
(-0.000840347 -0.000332138 0)
(-0.000764844 -0.000338414 0)
(-0.000687995 -0.000344095 0)
(-0.000609934 -0.000349171 0)
(-0.000530799 -0.000353632 0)
(-0.000450729 -0.000357471 0)
(-0.000369866 -0.00036068 0)
(-0.000288351 -0.000363255 0)
(-0.000206328 -0.000365189 0)
(-0.000123943 -0.000366481 0)
(-4.13416e-05 -0.000367128 0)
(4.13414e-05 -0.000367128 0)
(0.000123943 -0.000366481 0)
(0.000206328 -0.000365189 0)
(0.000288351 -0.000363255 0)
(0.000369866 -0.00036068 0)
(0.000450729 -0.000357471 0)
(0.000530799 -0.000353632 0)
(0.000609934 -0.000349171 0)
(0.000687994 -0.000344095 0)
(0.000764844 -0.000338414 0)
(0.000840347 -0.000332138 0)
(0.000914371 -0.000325277 0)
(0.000986785 -0.000317844 0)
(0.00105746 -0.000309853 0)
(0.00112628 -0.000301317 0)
(0.00119311 -0.000292252 0)
(0.00125785 -0.000282673 0)
(0.00132037 -0.000272598 0)
(0.00138056 -0.000262045 0)
(0.00143833 -0.000251032 0)
(0.00149357 -0.000239579 0)
(0.00154619 -0.000227706 0)
(0.00159608 -0.000215435 0)
(0.00164317 -0.000202786 0)
(0.00168737 -0.000189783 0)
(0.0017286 -0.000176448 0)
(0.0017668 -0.000162805 0)
(0.00180189 -0.000148877 0)
(0.00183381 -0.000134691 0)
(0.00186252 -0.00012027 0)
(0.00188795 -0.00010564 0)
(0.00191007 -9.08274e-05 0)
(0.00192883 -7.58575e-05 0)
(0.00194421 -6.07569e-05 0)
(0.00195618 -4.55521e-05 0)
(0.00196471 -3.02699e-05 0)
(0.0019698 -1.49371e-05 0)
(0.00197143 4.19238e-07 0)
(0.0019696 1.57723e-05 0)
(0.00196432 3.10952e-05 0)
(0.00195559 4.6361e-05 0)
(0.00194344 6.15429e-05 0)
(0.00192788 7.66146e-05 0)
(0.00190894 9.15495e-05 0)
(0.00188666 0.000106322 0)
(0.00186107 0.000120905 0)
(0.00183223 0.000135274 0)
(0.00180017 0.000149405 0)
(0.00176496 0.000163271 0)
(0.00172666 0.00017685 0)
(0.00168534 0.000190117 0)
(0.00164107 0.00020305 0)
(0.00159393 0.000215625 0)
(0.001544 0.000227822 0)
(0.00149137 0.000239618 0)
(0.00143613 0.000250995 0)
(0.00137838 0.000261931 0)
(0.00131821 0.000272407 0)
(0.00125575 0.000282407 0)
(0.00119108 0.000291913 0)
(0.00112433 0.000300908 0)
(0.00105562 0.000309378 0)
(0.000985063 0.000317307 0)
(0.000912781 0.000324683 0)
(0.000838902 0.000331494 0)
(0.000763554 0.000337729 0)
(0.000686869 0.000343379 0)
(0.000608978 0.000348436 0)
(0.000530016 0.000352894 0)
(0.000450119 0.000356748 0)
(0.000369422 0.000359998 0)
(0.000288061 0.000362646 0)
(0.000206172 0.000364696 0)
(0.000123887 0.000366162 0)
(4.1334e-05 0.000367047 0)
(-4.16983e-05 0.000449989 0)
(-0.000124979 0.000448907 0)
(-0.000207989 0.000447111 0)
(-0.000290601 0.000444597 0)
(-0.000372679 0.000441351 0)
(-0.000454088 0.000437366 0)
(-0.00053469 0.000432641 0)
(-0.000614348 0.000427176 0)
(-0.000692925 0.000420977 0)
(-0.000770287 0.000414051 0)
(-0.0008463 0.000406407 0)
(-0.000920831 0.000398057 0)
(-0.000993751 0.000389014 0)
(-0.00106493 0.000379293 0)
(-0.00113425 0.00036891 0)
(-0.00120159 0.000357882 0)
(-0.00126682 0.000346229 0)
(-0.00132985 0.00033397 0)
(-0.00139054 0.000321125 0)
(-0.0014488 0.000307718 0)
(-0.00150453 0.000293772 0)
(-0.00155763 0.00027931 0)
(-0.001608 0.000264357 0)
(-0.00165556 0.00024894 0)
(-0.00170023 0.000233085 0)
(-0.00174192 0.00021682 0)
(-0.00178055 0.000200173 0)
(-0.00181607 0.000183173 0)
(-0.00184842 0.00016585 0)
(-0.00187752 0.000148233 0)
(-0.00190334 0.000130354 0)
(-0.00192582 0.000112244 0)
(-0.00194493 9.39337e-05 0)
(-0.00196063 7.54562e-05 0)
(-0.00197289 5.68432e-05 0)
(-0.0019817 3.81276e-05 0)
(-0.00198703 1.93419e-05 0)
(-0.00198887 5.19067e-07 0)
(-0.00198723 -1.83078e-05 0)
(-0.0019821 -3.71057e-05 0)
(-0.00197349 -5.58417e-05 0)
(-0.00196143 -7.44828e-05 0)
(-0.00194591 -9.29963e-05 0)
(-0.00192699 -0.00011135 0)
(-0.00190467 -0.00012951 0)
(-0.00187902 -0.000147447 0)
(-0.00185006 -0.000165127 0)
(-0.00181786 -0.00018252 0)
(-0.00178246 -0.000199595 0)
(-0.00174392 -0.000216321 0)
(-0.00170233 -0.00023267 0)
(-0.00165774 -0.000248613 0)
(-0.00161024 -0.00026412 0)
(-0.0015599 -0.000279166 0)
(-0.00150682 -0.000293722 0)
(-0.00145109 -0.000307764 0)
(-0.00139281 -0.000321266 0)
(-0.00133208 -0.000334205 0)
(-0.00126901 -0.000346557 0)
(-0.0012037 -0.000358301 0)
(-0.00113627 -0.000369415 0)
(-0.00106685 -0.000379881 0)
(-0.000995545 -0.000389678 0)
(-0.000922489 -0.000398791 0)
(-0.000847809 -0.000407203 0)
(-0.000771636 -0.000414898 0)
(-0.000694104 -0.000421863 0)
(-0.00061535 -0.000428086 0)
(-0.000535513 -0.000433556 0)
(-0.000454732 -0.000438262 0)
(-0.000373151 -0.000442197 0)
(-0.000290912 -0.000445353 0)
(-0.000208161 -0.000447726 0)
(-0.000125044 -0.000449309 0)
(-4.17088e-05 -0.000450102 0)
(4.17086e-05 -0.000450102 0)
(0.000125044 -0.000449309 0)
(0.000208161 -0.000447726 0)
(0.000290912 -0.000445353 0)
(0.000373151 -0.000442197 0)
(0.000454732 -0.000438262 0)
(0.000535513 -0.000433556 0)
(0.00061535 -0.000428086 0)
(0.000694104 -0.000421863 0)
(0.000771635 -0.000414898 0)
(0.000847808 -0.000407203 0)
(0.000922489 -0.000398791 0)
(0.000995545 -0.000389678 0)
(0.00106685 -0.000379881 0)
(0.00113627 -0.000369415 0)
(0.0012037 -0.000358301 0)
(0.00126901 -0.000346557 0)
(0.00133208 -0.000334205 0)
(0.00139281 -0.000321266 0)
(0.00145109 -0.000307764 0)
(0.00150682 -0.000293722 0)
(0.0015599 -0.000279166 0)
(0.00161023 -0.00026412 0)
(0.00165774 -0.000248613 0)
(0.00170233 -0.00023267 0)
(0.00174392 -0.000216321 0)
(0.00178246 -0.000199595 0)
(0.00181786 -0.00018252 0)
(0.00185006 -0.000165127 0)
(0.00187902 -0.000147447 0)
(0.00190467 -0.00012951 0)
(0.00192699 -0.00011135 0)
(0.00194591 -9.29963e-05 0)
(0.00196143 -7.44828e-05 0)
(0.00197349 -5.58417e-05 0)
(0.0019821 -3.71057e-05 0)
(0.00198723 -1.83078e-05 0)
(0.00198887 5.19089e-07 0)
(0.00198703 1.93419e-05 0)
(0.00198169 3.81276e-05 0)
(0.00197289 5.68433e-05 0)
(0.00196063 7.54562e-05 0)
(0.00194493 9.39338e-05 0)
(0.00192582 0.000112244 0)
(0.00190334 0.000130354 0)
(0.00187752 0.000148233 0)
(0.00184842 0.00016585 0)
(0.00181607 0.000183173 0)
(0.00178055 0.000200173 0)
(0.00174191 0.00021682 0)
(0.00170023 0.000233085 0)
(0.00165556 0.00024894 0)
(0.001608 0.000264357 0)
(0.00155763 0.00027931 0)
(0.00150453 0.000293772 0)
(0.0014488 0.000307718 0)
(0.00139054 0.000321125 0)
(0.00132984 0.00033397 0)
(0.00126682 0.000346229 0)
(0.00120159 0.000357883 0)
(0.00113425 0.00036891 0)
(0.00106493 0.000379293 0)
(0.00099375 0.000389014 0)
(0.00092083 0.000398057 0)
(0.000846299 0.000406407 0)
(0.000770287 0.000414051 0)
(0.000692925 0.000420977 0)
(0.000614347 0.000427177 0)
(0.000534689 0.000432642 0)
(0.000454087 0.000437367 0)
(0.000372678 0.000441352 0)
(0.0002906 0.000444598 0)
(0.000207988 0.000447112 0)
(0.000124978 0.000448909 0)
(4.16982e-05 0.000449991 0)
(-4.21333e-05 0.000533732 0)
(-0.000126282 0.00053245 0)
(-0.000210158 0.00053032 0)
(-0.000293632 0.000527338 0)
(-0.000376567 0.000523488 0)
(-0.000458825 0.000518762 0)
(-0.000540268 0.000513157 0)
(-0.000620758 0.000506675 0)
(-0.000700156 0.000499322 0)
(-0.000778326 0.000491107 0)
(-0.000855133 0.000482041 0)
(-0.000930442 0.000472138 0)
(-0.00100412 0.000461412 0)
(-0.00107605 0.000449883 0)
(-0.00114609 0.000437568 0)
(-0.00121414 0.000424488 0)
(-0.00128005 0.000410667 0)
(-0.00134373 0.000396126 0)
(-0.00140506 0.000380892 0)
(-0.00146394 0.00036499 0)
(-0.00152025 0.000348449 0)
(-0.00157391 0.000331296 0)
(-0.00162481 0.000313561 0)
(-0.00167287 0.000295275 0)
(-0.001718 0.00027647 0)
(-0.00176013 0.000257178 0)
(-0.00179917 0.000237433 0)
(-0.00183507 0.000217269 0)
(-0.00186775 0.000196722 0)
(-0.00189716 0.000175827 0)
(-0.00192325 0.000154621 0)
(-0.00194597 0.00013314 0)
(-0.00196528 0.000111423 0)
(-0.00198115 8.95067e-05 0)
(-0.00199354 6.74298e-05 0)
(-0.00200244 4.52309e-05 0)
(-0.00200783 2.29489e-05 0)
(-0.0020097 6.22935e-07 0)
(-0.00200805 -2.1708e-05 0)
(-0.00200287 -4.40046e-05 0)
(-0.00199417 -6.62278e-05 0)
(-0.00198198 -8.83385e-05 0)
(-0.00196631 -0.000110298 0)
(-0.00194719 -0.000132067 0)
(-0.00192465 -0.000153608 0)
(-0.00189872 -0.000174883 0)
(-0.00186947 -0.000195854 0)
(-0.00183693 -0.000216485 0)
(-0.00180116 -0.000236738 0)
(-0.00176222 -0.000256578 0)
(-0.00172019 -0.000275971 0)
(-0.00167514 -0.000294881 0)
(-0.00162714 -0.000313275 0)
(-0.00157628 -0.000331122 0)
(-0.00152264 -0.000348388 0)
(-0.00146633 -0.000365044 0)
(-0.00140744 -0.000381059 0)
(-0.00134607 -0.000396407 0)
(-0.00128234 -0.000411058 0)
(-0.00121635 -0.000424988 0)
(-0.00114821 -0.000438172 0)
(-0.00107806 -0.000450586 0)
(-0.00100601 -0.000462208 0)
(-0.000932184 -0.000473017 0)
(-0.000856719 -0.000482994 0)
(-0.000779746 -0.000492122 0)
(-0.0007014 -0.000500384 0)
(-0.000621819 -0.000507766 0)
(-0.000541142 -0.000514254 0)
(-0.000459513 -0.000519837 0)
(-0.000377074 -0.000524504 0)
(-0.000293971 -0.000528248 0)
(-0.00021035 -0.000531062 0)
(-0.000126358 -0.000532941 0)
(-4.21474e-05 -0.000533881 0)
(4.21471e-05 -0.000533881 0)
(0.000126358 -0.000532941 0)
(0.000210349 -0.000531062 0)
(0.00029397 -0.000528248 0)
(0.000377074 -0.000524504 0)
(0.000459513 -0.000519837 0)
(0.000541142 -0.000514254 0)
(0.000621819 -0.000507766 0)
(0.0007014 -0.000500384 0)
(0.000779746 -0.000492122 0)
(0.000856719 -0.000482994 0)
(0.000932183 -0.000473017 0)
(0.00100601 -0.000462208 0)
(0.00107806 -0.000450586 0)
(0.00114821 -0.000438172 0)
(0.00121635 -0.000424988 0)
(0.00128234 -0.000411058 0)
(0.00134607 -0.000396407 0)
(0.00140744 -0.000381059 0)
(0.00146633 -0.000365044 0)
(0.00152264 -0.000348388 0)
(0.00157628 -0.000331122 0)
(0.00162714 -0.000313275 0)
(0.00167514 -0.000294881 0)
(0.00172019 -0.000275971 0)
(0.00176222 -0.000256578 0)
(0.00180116 -0.000236738 0)
(0.00183693 -0.000216485 0)
(0.00186947 -0.000195854 0)
(0.00189872 -0.000174883 0)
(0.00192465 -0.000153608 0)
(0.00194719 -0.000132067 0)
(0.00196631 -0.000110298 0)
(0.00198198 -8.83385e-05 0)
(0.00199417 -6.62278e-05 0)
(0.00200287 -4.40046e-05 0)
(0.00200805 -2.17079e-05 0)
(0.0020097 6.22962e-07 0)
(0.00200783 2.2949e-05 0)
(0.00200244 4.52309e-05 0)
(0.00199354 6.74298e-05 0)
(0.00198115 8.95067e-05 0)
(0.00196528 0.000111423 0)
(0.00194597 0.000133141 0)
(0.00192325 0.000154621 0)
(0.00189716 0.000175827 0)
(0.00186775 0.000196722 0)
(0.00183507 0.000217269 0)
(0.00179917 0.000237433 0)
(0.00176012 0.000257178 0)
(0.001718 0.00027647 0)
(0.00167287 0.000295275 0)
(0.00162481 0.000313561 0)
(0.00157391 0.000331296 0)
(0.00152025 0.000348449 0)
(0.00146394 0.000364991 0)
(0.00140506 0.000380892 0)
(0.00134373 0.000396126 0)
(0.00128005 0.000410667 0)
(0.00121413 0.000424488 0)