/*--------------------------------*- C++ -*----------------------------------*\
| =========                 |                                                 |
| \\      /  F ield         | OpenFOAM: The Open Source CFD Toolbox           |
|  \\    /   O peration     | Version:  2106                                  |
|   \\  /    A nd           | Website:  www.openfoam.com                      |
|    \\/     M anipulation  |                                                 |
\*---------------------------------------------------------------------------*/
FoamFile
{
    version     2.0;
    format      ascii;
    arch        "LSB;label=32;scalar=64";
    class       volScalarField;
    location    "0.255";
    object      p;
}
// * * * * * * * * * * * * * * * * * * * * * * * * * * * * * * * * * * * * * //

dimensions      [1 -1 -2 0 0 0 0];

internalField   nonuniform List<scalar> 
32768
(
179.74966
179.78553
179.84209
179.90508
179.95283
179.98267
179.98979
179.97232
179.93015
179.86415
179.77568
179.66577
179.53578
179.38829
179.21959
179.04436
178.83565
178.63885
178.40464
178.16144
177.92479
177.643
177.36577
177.08735
176.77105
176.44707
176.12273
175.77991
175.40998
175.03596
174.65006
174.25385
173.83775
173.39915
172.96044
172.51597
172.05042
171.56685
171.08131
170.57845
170.07636
169.57156
169.03945
168.5022
167.9609
167.42723
166.88611
166.31551
165.75975
165.21128
164.63742
164.06243
163.49899
162.93583
162.36763
161.79222
161.21295
160.64221
160.07838
159.50399
158.93363
158.37702
157.81045
157.24374
156.67465
156.09896
155.55222
155.01605
154.44855
153.87895
153.32592
152.77597
152.23326
151.68643
151.11499
150.55111
150.02363
149.48808
148.92601
148.37493
147.82466
147.2637
146.71973
146.17878
145.61313
145.06567
144.53225
143.96441
143.40679
142.87007
142.30278
141.7273
141.17375
140.61421
140.04677
139.48537
138.92307
138.35619
137.76645
137.17302
136.62685
136.06819
135.45315
134.86424
134.30879
133.71182
133.105
132.53579
131.95544
131.35593
130.75948
130.15895
129.56357
128.97714
128.37694
127.77242
127.18332
126.58542
125.96518
125.36348
124.78614
124.17746
123.56203
122.98844
122.39241
121.74945
121.14441
120.56156
119.92962
119.30129
118.71443
118.11308
117.48939
116.87786
116.26739
115.64421
115.03382
114.43064
113.80908
113.18668
112.58824
111.98938
111.35388
110.72377
110.13955
109.54168
108.90699
108.28679
107.70187
107.10693
106.4754
105.86109
105.29296
104.69624
104.05831
103.46309
102.89215
102.27577
101.64948
101.06217
100.47168
99.856379
99.254006
98.676246
98.09227
97.49887
96.911079
96.319937
95.723785
95.138888
94.551585
93.958935
93.384598
92.818636
92.232245
91.640336
91.068992
90.505127
89.916741
89.315767
88.741448
88.189209
87.638042
87.061386
86.499519
85.956734
85.423905
84.852609
84.267715
83.73089
83.191779
82.651791
82.110787
81.612008
81.10185
80.564785
80.062487
79.573752
79.099322
78.601447
78.137014
77.691792
77.270967
76.870298
76.486797
76.148216
75.831633
75.568725
75.363379
75.226944
75.147859
75.191934
75.317544
75.560683
76.003757
76.565616
77.370159
78.353498
79.553946
81.138945
83.14402
85.704068
88.805506
92.650401
97.315653
102.80881
109.53306
117.63884
126.93015
138.1781
150.74343
165.35204
181.92612
200.08172
220.35797
241.77304
264.02485
285.99987
305.74743
320.82325
328.49403
332.7208
337.01936
337.57716
336.2505
334.74044
327.95206
314.54292
291.72629
261.03794
245.01655
251.15767
275.14518
318.42612
373.79352
389.48458
170.98391
171.01855
171.07557
171.13871
171.18594
171.21604
171.22279
171.20513
171.16277
171.09609
171.00688
170.89592
170.76532
170.61683
170.44861
170.27086
170.0655
169.86376
169.63097
169.39132
169.14811
168.87065
168.59858
168.31004
167.99679
167.68128
167.34906
167.00243
166.64115
166.26652
165.87577
165.47969
165.06361
164.62696
164.19031
163.73827
163.27067
162.7935
162.30778
161.80096
161.2977
160.7911
160.26013
159.72469
159.18414
158.64789
158.09808
157.53718
156.98684
156.42126
155.85138
155.29115
154.71879
154.14631
153.58529
153.01355
152.43329
151.86177
151.29519
150.72409
150.15862
149.59257
149.02364
148.46875
147.89854
147.3219
146.77687
146.23048
145.66596
145.1136
144.5561
143.99131
143.4545
142.91307
142.34405
141.78711
141.25199
140.70242
140.14996
139.61137
139.05642
138.4924
137.95001
137.40223
136.84403
136.30785
135.75569
135.18431
134.6486
134.10232
133.5225
132.9651
132.41681
131.84551
131.27372
130.71716
130.16009
129.58707
128.99316
128.41654
127.86544
127.27699
126.67836
126.1197
125.54368
124.92997
124.34424
123.77506
123.18055
122.58571
121.99113
121.39141
120.80078
120.20285
119.59601
119.00882
118.42479
117.81095
117.19348
116.60714
116.01441
115.38973
114.80191
114.2344
113.60564
112.97338
112.3974
111.79481
111.14421
110.53848
109.95911
109.33927
108.71516
108.1156
107.50016
106.87414
106.27026
105.66197
105.03258
104.41687
103.82781
103.21944
102.57358
101.96145
101.38315
100.76232
100.12141
99.528445
98.950916
98.327305
97.692076
97.108048
96.533278
95.910767
95.293508
94.717404
94.1209
93.486689
92.877737
92.303602
91.708962
91.08344
90.484025
89.914273
89.329217
88.730873
88.143137
87.55767
86.963735
86.369911
85.779928
85.195325
84.615589
84.043113
83.469551
82.88355
82.300987
81.728945
81.150354
80.558178
79.980305
79.415112
78.869457
78.304814
77.739999
77.182763
76.645197
76.088829
75.510571
74.96654
74.417846
73.887596
73.341042
72.835001
72.325249
71.807956
71.294159
70.786619
70.313146
69.823681
69.365288
68.907246
68.475392
68.071287
67.687997
67.344636
67.019324
66.743075
66.52887
66.367896
66.282585
66.28426
66.387574
66.607536
66.964615
67.489583
68.191066
69.131303
70.338432
71.862226
73.735273
76.152435
79.151586
82.665948
87.168689
92.472229
98.827818
106.67631
115.48378
126.22632
138.40217
152.2567
168.15993
185.5372
204.78287
225.05185
246.44227
267.55599
287.45515
305.28175
318.68064
327.40695
331.06579
329.71856
328.53667
328.21962
320.16182
303.04283
275.73253
239.29124
216.34484
220.18713
244.2121
283.80892
331.73784
349.71225
162.18093
162.2155
162.27296
162.33591
162.38272
162.41207
162.41786
162.39896
162.35556
162.28806
162.19858
162.08687
161.95739
161.80733
161.64231
161.46118
161.26178
161.05559
160.82623
160.58983
160.34147
160.07067
159.79932
159.50412
159.20094
158.88314
158.54722
158.20531
157.84395
157.4644
157.07947
156.68182
156.25724
155.82834
155.39344
154.93132
154.46496
153.99233
153.49986
152.99321
152.49455
151.98136
151.44565
150.91093
150.3817
149.83575
149.27551
148.73356
148.17191
147.5946
147.04542
146.48388
145.89775
145.33081
144.77263
144.19362
143.61692
143.05145
142.48022
141.91286
141.34716
140.76997
140.21341
139.66347
139.07771
138.51412
137.98103
137.41618
136.8543
136.3108
135.74013
135.18574
134.66197
134.10587
133.53887
132.9952
132.44854
131.89388
131.35444
130.81356
130.24998
129.69824
129.15897
128.59936
128.05793
127.52468
126.94378
126.39278
125.87365
125.29717
124.72407
124.19083
123.63049
123.04889
122.48781
121.93825
121.37798
120.78683
120.19205
119.65016
119.08543
118.4622
117.89679
117.35972
116.74069
116.12995
115.58247
114.99607
114.38501
113.80093
113.20228
112.60057
112.01621
111.41458
110.81264
110.23443
109.63913
109.01763
108.41686
107.83494
107.21785
106.6017
106.04104
105.44599
104.79685
104.20544
103.63388
102.98978
102.35311
101.77854
101.17875
100.5467
99.945749
99.337339
98.705988
98.099131
97.492884
96.864096
96.245339
95.651088
95.051127
94.419321
93.795346
93.210006
92.607591
91.961005
91.338901
90.76788
90.172897
89.526782
88.916966
88.355959
87.744805
87.105225
86.532841
85.960736
85.324582
84.699279
84.116377
83.524064
82.914409
82.316674
81.724482
81.129801
80.545331
79.963327
79.366113
78.768888
78.187737
77.603717
77.011075
76.427283
75.845855
75.262841
74.685148
74.11536
73.536796
72.943974
72.353189
71.782381
71.218093
70.646493
70.078319
69.523102
68.991577
68.431127
67.851195
67.281724
66.749313
66.20059
65.628493
65.09803
64.577633
64.061436
63.516592
63.014651
62.513554
62.010634
61.497779
61.011464
60.566941
60.099784
59.677266
59.251449
58.867939
58.49323
58.148569
57.880142
57.630394
57.441554
57.322164
57.279027
57.337935
57.475163
57.744904
58.226976
58.828901
59.6367
60.707415
62.04005
63.738222
65.875802
68.530617
71.792373
75.843057
80.741001
86.515217
93.45841
101.79256
111.42189
122.56983
135.38428
149.64951
165.61582
183.00199
201.33688
220.62721
240.00351
258.69092
275.61794
289.35199
299.62036
308.33838
314.66684
320.05021
316.63405
304.74183
283.34968
250.88672
208.2886
175.31214
173.33641
197.10174
238.42654
285.72372
305.5705
153.34308
153.37755
153.43525
153.49804
153.54425
153.57256
153.57695
153.55642
153.51115
153.44183
153.35045
153.23712
153.10601
152.95432
152.78945
152.60539
152.40939
152.19965
151.97245
151.73887
151.4854
151.21995
150.95054
150.64891
150.35496
150.03228
149.69971
149.35413
148.99496
148.61517
148.23174
147.82732
147.40358
146.97853
146.53903
146.07295
145.60539
145.13383
144.63827
144.13253
143.63065
143.11219
142.57524
142.04436
141.5188
140.95869
140.40027
139.86715
139.29322
138.71845
138.17644
137.60929
137.02229
136.45643
135.89417
135.31849
134.74776
134.17748
133.60524
133.04314
132.47286
131.89649
131.3483
130.78954
130.20571
129.66247
129.11914
128.53776
127.99397
127.45547
126.87291
126.32986
125.80981
125.24381
124.68396
124.15299
123.59761
123.03174
122.50506
121.97219
121.40197
120.85683
120.31856
119.75066
119.22409
118.68558
118.0923
117.56796
117.04844
116.44893
115.89298
115.37434
114.79931
114.21287
113.66131
113.11334
112.54658
111.9518
111.37189
110.8388
110.25169
109.6239
109.08354
108.54098
107.90729
107.31175
106.7684
106.1707
105.5609
104.97386
104.37811
103.79178
103.19807
102.58462
101.99762
101.42441
100.81265
100.1872
99.606824
99.029868
98.389428
97.787563
97.246351
96.612072
95.953324
95.411666
94.838385
94.15183
93.53546
92.989876
92.356119
91.706202
91.137182
90.533609
89.884981
89.291099
88.692945
88.044809
87.41901
86.849014
86.254518
85.590421
84.969625
84.42683
83.813392
83.125923
82.527162
81.989001
81.350803
80.681303
80.121853
79.580735
78.92937
78.273365
77.725315
77.168796
76.511832
75.872673
75.323212
74.748069
74.100469
73.490242
72.936973
72.350898
71.732357
71.141693
70.570041
69.977524
69.368132
68.788688
68.228646
67.636748
67.03084
66.464832
65.901112
65.309438
64.720661
64.153739
63.57719
62.984696
62.40391
61.852033
61.297889
60.71605
60.155632
59.619782
59.081272
58.492967
57.928076
57.387709
56.861517
56.302055
55.753902
55.245397
54.726188
54.205763
53.665101
53.198486
52.689393
52.1962
51.714011
51.24891
50.825339
50.376177
49.987764
49.600966
49.245406
48.93532
48.650112
48.441636
48.283378
48.171377
48.173939
48.253439
48.422997
48.740127
49.204731
49.857463
50.741728
51.873034
53.310486
55.12998
57.357954
60.105098
63.601763
67.777072
72.907111
78.947915
86.122172
94.840635
104.63493
115.96566
128.78732
142.85786
158.43506
174.81366
192.1428
209.65465
226.66269
242.97464
257.00767
269.48357
280.84801
288.90071
293.47235
292.60166
284.84011
262.18131
224.11387
178.0929
145.3247
143.43406
167.11939
210.06771
257.76652
281.37874
144.47026
144.50476
144.56256
144.62498
144.67028
144.69707
144.6995
144.67667
144.62886
144.55702
144.46329
144.34794
144.21521
144.06223
143.8972
143.71253
143.51776
143.30831
143.08216
142.85088
142.5968
142.33481
142.06662
141.7631
141.47728
141.14711
140.82244
140.4708
140.11703
139.73287
139.35232
138.94117
138.52358
138.09331
137.64885
137.18586
136.7122
136.24075
135.74335
135.23649
134.72858
134.21011
133.67164
133.14138
132.61309
132.04615
131.49379
130.95566
130.37959
129.81335
129.26234
128.69137
128.11416
127.54417
126.97556
126.40957
125.84135
125.2641
124.69385
124.13168
123.56267
122.9973
122.44458
121.87648
121.30716
120.77328
120.21577
119.63538
119.10351
118.55973
117.98605
117.44997
116.91242
116.34893
115.80479
115.27273
114.71234
114.14956
113.62824
113.09171
112.52439
111.99573
111.45003
110.87051
110.35834
109.82048
109.22782
108.70968
108.18119
107.59171
107.04494
106.51027
105.93928
105.36933
104.80622
104.25077
103.69297
103.09482
102.52422
101.99988
101.39132
100.76538
100.24212
99.685381
99.051528
98.474495
97.922563
97.317193
96.713616
96.115695
95.522002
94.955818
94.356432
93.731958
93.151804
92.577123
91.960865
91.340739
90.765936
90.187335
89.542356
88.942242
88.399483
87.76436
87.114868
86.570102
85.986664
85.313335
84.70814
84.142276
83.504815
82.87514
82.285502
81.6666
81.056177
80.468762
79.843728
79.20414
78.59178
78.005556
77.406212
76.753327
76.131266
75.585498
74.972563
74.284165
73.690142
73.156773
72.517273
71.843227
71.287573
70.75185
70.092879
69.442189
68.898745
68.309389
67.64958
67.054801
66.497263
65.89318
65.282965
64.688328
64.092788
63.509035
62.928281
62.323211
61.712395
61.138886
60.56698
59.958589
59.368682
58.808775
58.225349
57.633755
57.055746
56.480347
55.896037
55.318181
54.747003
54.182947
53.607831
53.030835
52.469507
51.906114
51.336402
50.758746
50.206485
49.662321
49.132483
48.556844
47.99289
47.468424
46.949707
46.404617
45.867776
45.376325
44.843886
44.325487
43.811215
43.356752
42.864207
42.367926
41.906107
41.464193
41.061231
40.63367
40.252343
39.929162
39.620981
39.350151
39.137382
38.974818
38.903209
38.868699
38.955544
39.160779
39.440744
39.880698
40.50383
41.375647
42.454669
43.859231
45.698767
47.908707
50.641562
54.089431
58.331709
63.298361
69.505488
76.670517
85.046515
94.944363
105.80478
118.22191
131.8227
146.28008
161.80089
177.65554
193.5734
209.13887
223.26104
236.46705
247.33726
255.31515
260.10706
259.74117
251.07285
232.02082
203.29396
166.32615
140.07977
140.48023
167.2077
209.40967
256.60408
280.72419
135.56266
135.59719
135.65501
135.71686
135.76092
135.78571
135.78559
135.75979
135.70877
135.63377
135.53697
135.41927
135.28429
135.13028
134.9642
134.77941
134.58554
134.37611
134.15226
133.92176
133.66926
133.4105
133.14133
132.84129
132.5567
132.22418
131.9048
131.54837
131.19799
130.8109
130.43106
130.01417
129.60328
129.16331
128.71728
128.25591
127.77669
127.30177
126.80218
126.29544
125.77965
125.26253
124.72334
124.18996
123.65465
123.08791
122.54212
121.99196
121.42021
120.86125
120.29417
119.72359
119.15928
118.58375
118.0106
117.44803
116.87891
116.30341
115.7367
115.1678
114.60511
114.05169
113.48728
112.91496
112.36732
111.83587
111.25934
110.69127
110.17586
109.61754
109.05219
108.53305
107.979
107.40381
106.87954
106.36121
105.78499
105.227
104.72079
104.16306
103.59558
103.09925
102.5432
101.95034
101.45475
100.91746
100.33077
99.815535
99.273214
98.701974
98.16285
97.605394
97.046129
96.493074
95.910333
95.350857
94.81512
94.211348
93.62738
93.117894
92.515263
91.875542
91.351644
90.807536
90.175015
89.587531
89.036816
88.44255
87.833626
87.226622
86.642951
86.083208
85.478953
84.850621
84.264618
83.7006
83.090574
82.45149
81.890072
81.333427
80.671179
80.059386
79.515477
78.883998
78.252756
77.700362
77.100678
76.451291
75.855463
75.260045
74.622853
74.019788
73.409555
72.767826
72.185179
71.608707
70.973139
70.341045
69.736103
69.143721
68.532732
67.88028
67.27234
66.714898
66.0869
65.424494
64.836744
64.268955
63.646692
63.009353
62.425226
61.868982
61.232616
60.594917
60.053104
59.445573
58.761459
58.188941
57.659412
57.029732
56.396979
55.840378
55.267646
54.641303
54.045991
53.484005
52.884209
52.276282
51.702793
51.126532
50.530797
49.928969
49.343513
48.788422
48.214246
47.610954
47.035721
46.478809
45.891496
45.327096
44.777733
44.197972
43.620137
43.067228
42.506245
41.932368
41.35203
40.777967
40.258151
39.725952
39.154261
38.583207
38.060306
37.544375
37.007511
36.489798
35.967346
35.47789
34.944401
34.437122
33.953194
33.495555
33.018945
32.503502
32.067286
31.643849
31.251158
30.864389
30.501332
30.203477
29.93131
29.687697
29.519569
29.388316
29.332205
29.38303
29.514249
29.762652
30.107289
30.492007
31.068032
31.921379
33.154881
34.713082
36.481474
39.115898
42.218501
45.887777
50.811214
56.213588
63.0515
71.0535
80.034842
90.679415
102.32379
114.82217
128.62363
143.13209
158.07564
173.39594
187.92071
201.19991
212.50685
221.31775
226.85323
228.32453
223.41943
211.8945
193.95384
171.10289
158.58711
165.04266
195.02467
239.78727
282.93516
305.11336
126.62059
126.65512
126.71287
126.77386
126.81629
126.83852
126.83518
126.80565
126.75062
126.67171
126.57122
126.45058
126.31306
126.15784
125.99056
125.80616
125.61311
125.40416
125.18396
124.95341
124.70496
124.44922
124.17788
123.88597
123.59581
123.27045
122.94657
122.59543
122.23782
121.85773
121.46687
121.06024
120.64155
120.19421
119.74839
119.28824
118.80389
118.32224
117.82122
117.3114
116.78993
116.27073
115.73328
115.19434
114.65058
114.09151
113.54608
112.98205
112.41907
111.86472
111.28235
110.71599
110.15797
109.57935
109.00957
108.43898
107.86691
107.3036
106.73771
106.16483
105.60628
105.05311
104.48846
103.92185
103.38074
102.85094
102.27004
101.7101
101.20236
100.6401
100.08202
99.565261
99.012121
98.441635
97.913102
97.400866
96.834622
96.276274
95.768493
95.20581
94.639454
94.155531
93.603898
93.015175
92.516623
91.97673
91.407734
90.886631
90.33498
89.788532
89.244563
88.669354
88.130552
87.584898
86.990187
86.430524
85.899278
85.299184
84.714524
84.192874
83.598999
82.980177
82.436581
81.888091
81.281477
80.676745
80.109311
79.540894
78.928569
78.309156
77.75002
77.181956
76.557867
75.949099
75.355549
74.783237
74.196743
73.55337
72.980174
72.435585
71.784538
71.162836
70.607839
69.990139
69.359005
68.785886
68.194429
67.571414
66.968282
66.34954
65.732644
65.146234
64.502584
63.859038
63.295241
62.69638
62.063846
61.460976
60.847837
60.256968
59.660021
58.982514
58.363725
57.830267
57.188436
56.519419
55.963267
55.384774
54.747194
54.133739
53.544229
52.95344
52.325491
51.72955
51.177863
50.54487
49.904446
49.340685
48.746442
48.128426
47.548511
46.960272
46.357797
45.771675
45.182763
44.58589
44.002863
43.424374
42.828707
42.243886
41.684301
41.081999
40.447626
39.884854
39.349223
38.751641
38.144849
37.594853
37.042788
36.458918
35.886027
35.332828
34.769546
34.181153
33.633028
33.090234
32.508548
31.914639
31.379557
30.837881
30.262851
29.733716
29.177878
28.634997
28.103767
27.613229
27.067936
26.523876
26.058637
25.540941
25.01244
24.505524
24.070592
23.572205
23.081505
22.632122
22.185801
21.793939
21.405156
21.03216
20.677083
20.366598
20.090199
19.796152
19.623837
19.471092
19.346545
19.399529
19.564699
19.871075
20.254945
20.781913
21.319484
22.026493
23.163774
24.678859
26.710595
29.387676
32.518951
36.404283
41.203012
46.679369
53.498234
61.440984
70.871841
81.975882
93.542792
106.36968
120.29711
134.87568
149.42136
163.14276
176.10446
186.77872
195.36109
200.68306
202.57226
201.39141
197.26466
194.52808
198.96405
217.01964
247.88947
287.43612
320.22592
338.49767
117.64444
117.67882
117.73643
117.79618
117.83651
117.85554
117.84821
117.81408
117.75418
117.67051
117.56562
117.44148
117.30106
117.1445
116.97616
116.79242
116.60057
116.39284
116.17672
115.94699
115.70308
115.45031
115.17742
114.89511
114.59884
114.28459
113.94811
113.60962
113.23793
112.86996
112.46242
112.06705
111.64373
111.19025
110.7375
110.27916
109.78744
109.29954
108.80277
108.28246
107.7588
107.23275
106.6946
106.15481
105.6005
105.05
104.50022
103.92744
103.36982
102.81454
102.22977
101.66383
101.1052
100.52712
99.960329
99.384898
98.809223
98.257234
97.691234
97.117203
96.562678
96.005032
95.444991
94.889782
94.353243
93.817964
93.235954
92.69398
92.186674
91.615207
91.073248
90.559316
89.996957
89.441441
88.919866
88.39052
87.831545
87.296738
86.774538
86.20447
85.66008
85.171635
84.615016
84.050427
83.548949
82.997468
82.449415
81.9228
81.367883
80.845989
80.287734
79.705698
79.185363
78.635641
78.038151
77.487376
76.954671
76.341981
75.763019
75.248503
74.654171
74.049613
73.50051
72.936735
72.339245
71.738844
71.160174
70.599616
69.995641
69.36661
68.815873
68.253479
67.61286
67.004121
66.427647
65.856984
65.246834
64.615073
64.068117
63.488149
62.83589
62.247421
61.67118
61.057685
60.45419
59.853564
59.254105
58.65201
58.047267
57.419958
56.81077
56.231336
55.577722
54.94578
54.379005
53.753891
53.127747
52.532668
51.923561
51.338829
50.739356
50.074624
49.452524
48.896494
48.27127
47.609638
47.023493
46.460646
45.856862
45.214854
44.612613
44.040913
43.398988
42.801802
42.267375
41.631584
41.007324
40.470774
39.858144
39.194995
38.631618
38.085587
37.443155
36.826882
36.288507
35.690819
35.060111
34.511877
33.943436
33.331472
32.785411
32.206486
31.578424
31.002601
30.423635
29.837412
29.286714
28.709671
28.125838
27.58207
27.01229
26.410813
25.867541
25.297499
24.695407
24.156049
23.62065
23.030456
22.490415
21.943917
21.333054
20.805342
20.299555
19.770572
19.21168
18.682355
18.17742
17.626819
17.094488
16.5586
16.060815
15.538265
14.984311
14.454488
13.999583
13.573374
13.10366
12.659024
12.220292
11.852336
11.441103
11.038171
10.663111
10.283769
9.9475297
9.5924102
9.2073975
8.8961027
8.4855436
8.0414072
7.6286367
7.2802113
7.036012
6.542092
6.2746083
6.1576587
6.5734192
7.3459894
8.3772082
10.336596
13.23816
17.088523
22.047791
27.927334
35.24245
43.823236
55.24505
68.961409
82.97154
96.899325
110.79749
124.63606
138.93173
152.43407
164.87476
175.8176
185.78527
194.88336
204.68006
216.07119
232.90297
258.43753
290.95947
325.1985
353.28914
369.3519
108.6348
108.66867
108.72605
108.78403
108.82173
108.8368
108.82458
108.78484
108.71903
108.62965
108.51958
108.39133
108.24776
108.08978
107.92064
107.73819
107.54774
107.34274
107.13044
106.90331
106.664
106.41507
106.14246
105.87133
105.56404
105.26235
104.91982
104.58743
104.20768
103.84472
103.43171
103.03317
102.59879
102.15519
101.69162
101.23027
100.73471
100.23384
99.73684
99.211716
98.689268
98.150229
97.607142
97.07502
96.508032
95.958194
95.405542
94.830274
94.275094
93.712219
93.137771
92.564767
91.999937
91.433918
90.856608
90.287076
89.718435
89.15393
88.594516
88.03094
87.467138
86.913658
86.370413
85.806326
85.273993
84.749274
84.163827
83.632943
83.129968
82.557727
82.021497
81.510648
80.955374
80.400044
79.880929
79.353858
78.789212
78.266164
77.753973
77.175945
76.635831
76.153985
75.593511
75.037978
74.546995
73.999138
73.459119
72.924493
72.375184
71.867384
71.292361
70.721259
70.215664
69.65541
69.053318
68.502868
67.982533
67.371746
66.778973
66.262637
65.688746
65.086574
64.526072
63.973935
63.369829
62.759321
62.190584
61.627094
61.027859
60.414961
59.846985
59.273296
58.665966
58.043471
57.439464
56.909209
56.292476
55.625842
55.110742
54.548418
53.874768
53.287146
52.722615
52.097772
51.489551
50.902857
50.304394
49.693981
49.090368
48.471449
47.869109
47.273066
46.613883
46.02164
45.444991
44.789655
44.191456
43.588433
42.944101
42.383575
41.799497
41.122897
40.525052
39.959653
39.31362
38.702275
38.095335
37.47025
36.918684
36.299753
35.647631
35.078166
34.471262
33.885565
33.299479
32.665727
32.12046
31.554897
30.910259
30.306847
29.722551
29.121544
28.536862
27.936469
27.334985
26.753087
26.148587
25.571622
25.001181
24.387886
23.846445
23.274548
22.650625
22.1265
21.549887
20.897342
20.35539
19.854525
19.255756
18.654229
18.119936
17.558486
16.948824
16.360835
15.803456
15.223831
14.603461
14.065706
13.605266
13.017623
12.382502
11.837511
11.353368
10.830873
10.325651
9.809067
9.2641694
8.7154213
8.2202663
7.6679358
7.0382766
6.5595622
6.1073518
5.3173926
4.7105934
4.3642336
3.985209
3.715353
3.5081923
3.3044138
3.083483
2.8482923
2.6006648
2.3678711
2.1554547
1.9215555
1.6832238
1.4782156
1.2614857
1.0321351
0.84094265
0.68436522
0.5155945
0.33803288
0.21783119
0.18685605
0.16751923
0.17251859
0.20608876
0.25877978
0.36229989
0.50337351
0.66370764
0.88174875
0.96268996
0.76721967
1.0683959
17.538571
35.134834
52.428195
69.842811
86.872771
102.92896
118.1651
134.14915
151.27198
168.50259
186.2935
206.25347
228.33216
253.43213
283.00038
317.24096
349.89075
374.26927
385.43452
99.592503
99.625106
99.682143
99.73757
99.772021
99.782228
99.764067
99.717531
99.64462
99.548437
99.432345
99.299388
99.152451
98.993075
98.823639
98.643183
98.45476
98.254196
98.045486
97.823547
97.588446
97.344241
97.074789
96.808869
96.498643
96.205144
95.858402
95.526517
95.148933
94.778252
94.369019
93.961618
93.52002
93.081612
92.605109
92.135745
91.640408
91.135577
90.626627
90.094898
89.573019
89.023769
88.475093
87.945631
87.371904
86.816127
86.266894
85.687713
85.12992
84.566939
83.996204
83.418179
82.852493
82.289965
81.70665
81.142632
80.580863
80.0052
79.446364
78.894907
78.33065
77.776563
77.249994
76.68292
76.143239
75.632517
75.057596
74.534914
74.025886
73.461289
72.936798
72.412357
71.87386
71.3321
70.794114
70.272702
69.729567
69.189954
68.675519
68.126913
67.57981
67.08579
66.535864
65.993274
65.509144
64.966225
64.432404
63.904254
63.359496
62.840517
62.271626
61.720897
61.197455
60.641207
60.058249
59.48803
58.965006
58.367796
57.779617
57.255322
56.67656
56.081018
55.520403
54.973134
54.383626
53.772556
53.189456
52.627902
52.026036
51.414108
50.852967
50.258081
49.668226
49.06742
48.444536
47.908385
47.302552
46.645901
46.097116
45.534195
44.909078
44.306616
43.73713
43.144241
42.505233
41.905644
41.328292
40.704719
40.113429
39.499242
38.879365
38.293731
37.64205
37.04562
36.450781
35.813699
35.224821
34.60386
33.96851
33.385583
32.803791
32.163444
31.549278
30.989223
30.363128
29.73766
29.145904
28.52098
27.940469
27.332593
26.682854
26.10078
25.489383
24.926292
24.343093
23.673348
23.141657
22.602881
21.952855
21.348102
20.798472
20.184047
19.557435
19.010022
18.440684
17.794353
17.199025
16.668339
16.043609
15.427524
14.890103
14.237463
13.655423
13.169044
12.570034
11.957549
11.411721
10.876788
10.320982
9.7707431
9.1909893
8.6110671
8.0987062
7.4886727
6.8311692
6.3697015
5.7032978
4.9282197
4.5976115
4.1057825
3.733785
3.4582498
3.2186146
2.9822707
2.7482
2.5073009
2.2530767
1.9900736
1.7276285
1.4530708
1.180755
0.93006621
0.66935071
0.38813435
0.13331959
-0.096644712
-0.14750729
-0.1527819
-0.1501184
-0.15130227
-0.15315463
-0.15488623
-0.15729772
-0.16111095
-0.16681781
-0.17371094
-0.18133438
-0.18948465
-0.19769646
-0.20591156
-0.21295821
-0.21745256
-0.21990349
-0.22031488
-0.21920896
-0.21228152
-0.20072453
-0.18862071
-0.17737155
-0.16676861
-0.15628546
-0.1442542
-0.12998511
-0.11373476
-0.09637703
-0.069237164
-0.013477301
-0.10851548
0.29539409
0.56315395
16.726835
39.897643
62.092055
83.455104
103.83864
125.25812
148.43224
173.01445
199.13785
227.73184
259.61193
293.59866
327.58439
357.41571
379.33673
390.79309
90.518916
90.548675
90.605222
90.656901
90.687396
90.691649
90.666292
90.61155
90.530138
90.425908
90.302865
90.164631
90.014233
89.853704
89.684661
89.507161
89.321919
89.127366
88.923083
88.708447
88.478008
88.239284
87.975899
87.708787
87.40745
87.107762
86.769531
86.427155
86.061176
85.670629
85.274028
84.850003
84.410549
83.961519
83.483223
83.005316
82.503971
81.988819
81.474839
80.93643
80.405943
79.856531
79.29871
78.7592
78.195842
77.621817
77.079867
76.504086
75.929856
75.381593
74.804272
74.218905
73.671622
73.091086
72.511559
71.959595
71.381357
70.816452
70.262679
69.699985
69.149344
68.6051
68.073682
67.511415
66.98011
66.474963
65.907223
65.39541
64.883059
64.326733
63.813188
63.280312
62.750637
62.223462
61.677992
61.152424
60.630897
60.079961
59.551553
59.035948
58.490705
57.98164
57.450979
56.924607
56.425887
55.891082
55.377794
54.848914
54.312467
53.787975
53.234638
52.6984
52.135794
51.590377
51.03441
50.441849
49.923981
49.344025
48.74143
48.209862
47.646436
47.03907
46.485221
45.943252
45.345669
44.764569
44.181795
43.606447
43.005768
42.376962
41.816521
41.231994
40.634385
40.036074
39.435758
38.891422
38.262049
37.645201
37.091285
36.480031
35.882059
35.302872
34.71045
34.129202
33.527638
32.910757
32.319
31.704767
31.109676
30.502957
29.876887
29.27551
28.641371
28.056854
27.435886
26.806605
26.237914
25.593781
24.960163
24.390998
23.779746
23.136824
22.547542
21.978618
21.369054
20.762197
20.140442
19.548921
18.972682
18.327535
17.715909
17.12253
16.499589
15.94945
15.332467
14.70716
14.13948
13.553039
12.967116
12.38729
11.78965
11.201214
10.629041
10.013999
9.4380759
8.869661
8.2154967
7.7160315
7.1825042
6.4636134
5.9524136
5.2447569
4.5897143
4.2074558
3.830825
3.5249206
3.2743034
3.003298
2.7260193
2.4674871
2.1963624
1.9162277
1.6439223
1.3579316
1.0758362
0.80526396
0.51425474
0.226577
-0.011563859
-0.16404075
-0.20604511
-0.19372073
-0.18270686
-0.17717733
-0.17205855
-0.16804692
-0.16559681
-0.16465737
-0.16514665
-0.16632638
-0.16824521
-0.17092021
-0.17209334
-0.17184188
-0.17127043
-0.1681791
-0.16086993
-0.15875434
-0.15686084
-0.15712489
-0.15930907
-0.16194461
-0.16512598
-0.17008148
-0.17695019
-0.18457206
-0.19297303
-0.20192706
-0.21113424
-0.22041667
-0.22922789
-0.23721672
-0.24307977
-0.2454542
-0.24256746
-0.23454115
-0.22229675
-0.20982271
-0.19796745
-0.18589071
-0.17379127
-0.16342336
-0.15469663
-0.14566886
-0.13628007
-0.12455718
-0.12296879
-0.13927742
-0.08645302
-0.022705153
-0.18103738
0.17017792
14.003013
39.464898
67.684317
96.121652
124.5539
154.67046
187.00068
221.26222
256.86716
292.47046
326.00966
354.27352
375.05374
386.92958
81.416552
81.440003
81.495762
81.541933
81.567678
81.564664
81.530627
81.466021
81.374467
81.260778
81.129789
80.985756
80.831982
80.670746
80.503196
80.329819
80.149555
79.962591
79.764568
79.558738
79.334464
79.102262
78.845565
78.577324
78.28671
77.975815
77.65073
77.29379
76.937113
76.533855
76.139181
75.707026
75.260753
74.80484
74.323797
73.829166
73.330458
72.797878
72.281146
71.733962
71.187019
70.644152
70.074589
69.520305
68.974016
68.382614
67.837163
67.273654
66.686729
66.138478
65.569691
64.977445
64.433313
63.853409
63.268162
62.720968
62.140822
61.577824
61.024222
60.468519
59.918565
59.374763
58.860006
58.297632
57.768538
57.280582
56.718781
56.205895
55.700493
55.161152
54.644433
54.114892
53.598795
53.067333
52.522899
52.005244
51.485885
50.922257
50.403142
49.900517
49.347807
48.84582
48.331585
47.825393
47.31808
46.779678
46.296365
45.766789
45.222327
44.7166
44.173537
43.624947
43.059019
42.532076
41.9624
41.355966
40.845221
40.283897
39.689066
39.133389
38.576639
37.977272
37.414868
36.880561