/*--------------------------------*- C++ -*----------------------------------*\
| =========                 |                                                 |
| \\      /  F ield         | OpenFOAM: The Open Source CFD Toolbox           |
|  \\    /   O peration     | Version:  2106                                  |
|   \\  /    A nd           | Website:  www.openfoam.com                      |
|    \\/     M anipulation  |                                                 |
\*---------------------------------------------------------------------------*/
FoamFile
{
    version     2.0;
    format      ascii;
    arch        "LSB;label=32;scalar=64";
    class       volVectorField;
    location    "0.255";
    object      U;
}
// * * * * * * * * * * * * * * * * * * * * * * * * * * * * * * * * * * * * * //

dimensions      [0 1 -1 0 0 0 0];

internalField   nonuniform List<vector> 
32768
(
(-0.00097902592 0.00029080026 0)
(-2.7507255e-06 -0.00062918039 0)
(0.0028395016 -0.0011910466 0)
(0.0066254449 -0.001568198 0)
(0.010989455 -0.0017502007 0)
(0.015624002 -0.0018495513 0)
(0.02037892 -0.0018956874 0)
(0.025191359 -0.0019071694 0)
(0.030035345 -0.0019440365 0)
(0.034875831 -0.0019933551 0)
(0.039695772 -0.0020461279 0)
(0.044471272 -0.0020840472 0)
(0.049218857 -0.0021267118 0)
(0.05390588 -0.0021534804 0)
(0.058564469 -0.0021689341 0)
(0.063176555 -0.0022254065 0)
(0.067741092 -0.0021769161 0)
(0.072272917 -0.0022810559 0)
(0.076807061 -0.0021951143 0)
(0.081279008 -0.002275268 0)
(0.085702294 -0.0022809503 0)
(0.090225258 -0.0022202503 0)
(0.094628292 -0.0023338688 0)
(0.098988978 -0.0022759721 0)
(0.10350967 -0.0022559162 0)
(0.10795038 -0.002363487 0)
(0.11225753 -0.0023101155 0)
(0.11669195 -0.0022834043 0)
(0.12121893 -0.0023611186 0)
(0.12563063 -0.0023840836 0)
(0.12996253 -0.0023072244 0)
(0.13437371 -0.0023567296 0)
(0.13889454 -0.0023931621 0)
(0.14339733 -0.002379391 0)
(0.1477396 -0.0023812244 0)
(0.15206415 -0.0023628646 0)
(0.15653368 -0.0023684822 0)
(0.16106551 -0.0024150772 0)
(0.16552175 -0.0024246235 0)
(0.16984705 -0.0023489253 0)
(0.17410178 -0.0023473387 0)
(0.17848623 -0.0023861994 0)
(0.1830253 -0.002415733 0)
(0.18746189 -0.002382672 0)
(0.1917094 -0.0023222211 0)
(0.19585936 -0.0023478944 0)
(0.20012425 -0.0023275147 0)
(0.20456463 -0.002337366 0)
(0.20886845 -0.0023762858 0)
(0.21301381 -0.0022906618 0)
(0.21724386 -0.0022628261 0)
(0.22146013 -0.0023143188 0)
(0.22550053 -0.0022647305 0)
(0.22950936 -0.0022153991 0)
(0.23368899 -0.0022674731 0)
(0.23795501 -0.0022861434 0)
(0.24206005 -0.0022188284 0)
(0.24595166 -0.0021723242 0)
(0.24981382 -0.0021628548 0)
(0.2537799 -0.0021707539 0)
(0.25774917 -0.0021952873 0)
(0.26164681 -0.0021555619 0)
(0.26558236 -0.0021178898 0)
(0.26958645 -0.0021675573 0)
(0.27352437 -0.0021288153 0)
(0.27721868 -0.0020311028 0)
(0.28070094 -0.002030899 0)
(0.28434687 -0.0020692353 0)
(0.28833399 -0.0020995858 0)
(0.29234488 -0.0021230876 0)
(0.29605672 -0.0020394612 0)
(0.29952122 -0.0019330162 0)
(0.30303509 -0.0019735995 0)
(0.30677832 -0.002048611 0)
(0.31057949 -0.0020145331 0)
(0.31414123 -0.0019634541 0)
(0.31747353 -0.001945439 0)
(0.32093516 -0.0019390171 0)
(0.32468273 -0.0019869501 0)
(0.32846443 -0.0020130354 0)
(0.33205592 -0.0019258821 0)
(0.33544479 -0.0018642417 0)
(0.33873068 -0.0018922717 0)
(0.34208773 -0.0018890115 0)
(0.34557302 -0.0018897246 0)
(0.34906308 -0.001954521 0)
(0.35251295 -0.0019082653 0)
(0.35597967 -0.0018212258 0)
(0.35941414 -0.0018696678 0)
(0.36280058 -0.001883849 0)
(0.3661969 -0.0018175808 0)
(0.3695528 -0.0018146026 0)
(0.37282185 -0.0018439241 0)
(0.3760501 -0.0018387507 0)
(0.37927511 -0.0018127106 0)
(0.38258407 -0.0018098485 0)
(0.38604991 -0.0018666752 0)
(0.38955487 -0.0018676652 0)
(0.39291793 -0.0017529542 0)
(0.3960548 -0.0017306363 0)
(0.3990754 -0.0017945771 0)
(0.40227036 -0.0017672575 0)
(0.40571136 -0.0017537788 0)
(0.40912379 -0.0018339328 0)
(0.41234459 -0.0017990125 0)
(0.41545401 -0.0017015475 0)
(0.41852326 -0.0017264342 0)
(0.4216316 -0.0017683238 0)
(0.42486909 -0.0017505468 0)
(0.4282084 -0.0017492376 0)
(0.43154616 -0.0017227311 0)
(0.43477844 -0.0016773344 0)
(0.43783235 -0.0016861274 0)
(0.44078584 -0.0016931736 0)
(0.44382191 -0.0016739184 0)
(0.44702002 -0.0017168081 0)
(0.45028808 -0.0017639122 0)
(0.45350367 -0.0016954148 0)
(0.45660973 -0.001605864 0)
(0.45956426 -0.0016431768 0)
(0.46243336 -0.0016583964 0)
(0.46539313 -0.0015925473 0)
(0.46851427 -0.0016338904 0)
(0.47172905 -0.0017312242 0)
(0.47497445 -0.0016413234 0)
(0.47815909 -0.0015411548 0)
(0.48116405 -0.0015970787 0)
(0.48404522 -0.0016116171 0)
(0.48690543 -0.0015487325 0)
(0.48975774 -0.0015652597 0)
(0.49267475 -0.0016406617 0)
(0.495728 -0.0016320483 0)
(0.49884426 -0.0015848271 0)
(0.50192385 -0.0015820456 0)
(0.50491551 -0.0015606374 0)
(0.50781349 -0.0015028983 0)
(0.51064342 -0.0015030457 0)
(0.51346836 -0.0015137356 0)
(0.51635845 -0.0015128042 0)
(0.51930529 -0.0014785833 0)
(0.52225838 -0.0015161095 0)
(0.52519052 -0.0015277803 0)
(0.52806071 -0.0014590569 0)
(0.53082277 -0.0014348443 0)
(0.53352714 -0.0014816185 0)
(0.53629148 -0.0014815267 0)
(0.53913247 -0.001415466 0)
(0.54198854 -0.001408416 0)
(0.54480749 -0.0014672483 0)
(0.54757099 -0.0014292738 0)
(0.55026858 -0.0013380045 0)
(0.552896 -0.0013703222 0)
(0.55552774 -0.001431454 0)
(0.55828457 -0.0013852541 0)
(0.56115942 -0.0013577504 0)
(0.56399759 -0.0013923869 0)
(0.56674748 -0.0013636684 0)
(0.56948334 -0.0013026611 0)
(0.57217808 -0.0012735673 0)
(0.57474979 -0.0013000721 0)
(0.57723811 -0.001328617 0)
(0.57972412 -0.0013248725 0)
(0.58223052 -0.0013114806 0)
(0.5847819 -0.0013389894 0)
(0.58742189 -0.0013447915 0)
(0.59015646 -0.0013229588 0)
(0.59292704 -0.0012966658 0)
(0.59563945 -0.0012909676 0)
(0.59821178 -0.0012959911 0)
(0.60065781 -0.001258975 0)
(0.60307311 -0.0012507899 0)
(0.60551875 -0.0012866119 0)
(0.60801014 -0.0012746262 0)
(0.61059111 -0.0012175461 0)
(0.61326392 -0.0012063061 0)
(0.61594746 -0.0012204023 0)
(0.61856714 -0.0012039018 0)
(0.62109198 -0.0011621383 0)
(0.62349217 -0.001154859 0)
(0.62575704 -0.0011946187 0)
(0.62795722 -0.0012304242 0)
(0.63022006 -0.0012078877 0)
(0.63263634 -0.0012122246 0)
(0.63521334 -0.0012534621 0)
(0.63787002 -0.0012793185 0)
(0.64050203 -0.001204274 0)
(0.64303775 -0.001140752 0)
(0.64546722 -0.0011427419 0)
(0.64780472 -0.0011696921 0)
(0.65003122 -0.0011538698 0)
(0.65222589 -0.0011128186 0)
(0.65443775 -0.0011483158 0)
(0.65679314 -0.0011507238 0)
(0.65926378 -0.0011288779 0)
(0.66177984 -0.001038149 0)
(0.6642459 -0.0010773943 0)
(0.66657257 -0.0010438153 0)
(0.66885174 -0.001020033 0)
(0.67105274 -0.00099308057 0)
(0.67321256 -0.00099430156 0)
(0.67533515 -0.001057923 0)
(0.6774169 -0.00099011318 0)
(0.67953959 -0.0010658034 0)
(0.6816545 -0.00096909961 0)
(0.68375331 -0.0010121758 0)
(0.68577161 -0.00087576101 0)
(0.68774062 -0.00089126259 0)
(0.68965815 -0.00090009933 0)
(0.69153465 -0.00083240575 0)
(0.69330243 -0.0006905213 0)
(0.69497181 -0.00065277935 0)
(0.69664057 -0.00062007028 0)
(0.69789792 -0.00042878123 0)
(0.69934972 -0.00037484819 0)
(0.70024658 -0.00033700385 0)
(0.70117387 1.4864817e-06 0)
(0.70175472 0.00015775647 0)
(0.70180944 0.00060050441 0)
(0.70143514 0.00079956539 0)
(0.70051208 0.001065452 0)
(0.69895095 0.0014633965 0)
(0.69671702 0.0019625315 0)
(0.6936326 0.0025938575 0)
(0.6895285 0.0034579879 0)
(0.68422268 0.0043244914 0)
(0.67727571 0.005279643 0)
(0.66870374 0.0064058878 0)
(0.65808828 0.0077102769 0)
(0.64464218 0.0093880477 0)
(0.62890769 0.011325396 0)
(0.60903466 0.013577917 0)
(0.58561246 0.01653981 0)
(0.55759039 0.019711753 0)
(0.52353653 0.023480326 0)
(0.48378523 0.027973689 0)
(0.43603611 0.032987999 0)
(0.37986713 0.038807175 0)
(0.31355893 0.045246004 0)
(0.23684442 0.051899392 0)
(0.14962552 0.056024774 0)
(0.052486007 0.046119811 0)
(-0.024243281 0.020909473 0)
(-0.081622545 -0.0026714468 0)
(-0.11885396 -0.0086318113 0)
(-0.12683906 0.0079318771 0)
(-0.13200211 0.031241338 0)
(-0.18035215 0.048712293 0)
(-0.25640105 0.049640303 0)
(-0.34334362 0.048704693 0)
(-0.42007395 0.039113958 0)
(-0.4734598 0.024925874 0)
(-0.49401426 0.0016884748 0)
(-0.4500539 -0.042435919 0)
(-0.35846932 -0.045602167 0)
(-0.23977265 -0.081230844 0)
(-0.11934593 -0.12081613 0)
(-0.0011104577 0.00071815772 0)
(8.5918609e-05 -0.003160964 0)
(0.003842895 -0.0053778954 0)
(0.0083051856 -0.0065904492 0)
(0.013524463 -0.0072078 0)
(0.018928815 -0.0075240057 0)
(0.024465868 -0.0076671043 0)
(0.030063247 -0.007726764 0)
(0.035654177 -0.0077060087 0)
(0.041185572 -0.00762756 0)
(0.046692764 -0.0075237008 0)
(0.052074902 -0.0074112299 0)
(0.057541428 -0.0072674428 0)
(0.062710787 -0.0072549455 0)
(0.068217744 -0.0068967843 0)
(0.073145056 -0.0073346569 0)
(0.078700398 -0.0064074138 0)
(0.08344322 -0.0073763915 0)
(0.088996309 -0.0064353249 0)
(0.093808905 -0.0066620206 0)
(0.098838432 -0.0071148449 0)
(0.10433434 -0.0062146689 0)
(0.10891577 -0.0066861611 0)
(0.11402786 -0.006824131 0)
(0.11944211 -0.0064330897 0)
(0.124229 -0.0065021682 0)
(0.12903394 -0.0065550298 0)
(0.13435348 -0.0067164051 0)
(0.13955685 -0.0064549704 0)
(0.14435122 -0.0065434203 0)
(0.14930238 -0.006355841 0)
(0.15437611 -0.0067489337 0)
(0.15971527 -0.0066233655 0)
(0.16478171 -0.0063922876 0)
(0.16946196 -0.0064081182 0)
(0.1744853 -0.006529591 0)
(0.17975094 -0.0066252835 0)
(0.18498545 -0.0065397587 0)
(0.18995742 -0.006536993 0)
(0.19478851 -0.0061028624 0)
(0.19948555 -0.0064389439 0)
(0.20482877 -0.0066300743 0)
(0.21018446 -0.0064946101 0)
(0.21505715 -0.0063936427 0)
(0.21980847 -0.0059985717 0)
(0.22435121 -0.006279725 0)
(0.22960667 -0.0064212786 0)
(0.23498979 -0.0062287644 0)
(0.23950088 -0.0062796371 0)
(0.24425329 -0.0061754474 0)
(0.24943638 -0.0060809137 0)
(0.25421843 -0.0060065641 0)
(0.25862703 -0.0058710535 0)
(0.26332435 -0.0059952186 0)
(0.26849166 -0.0062198278 0)
(0.27353825 -0.0061158557 0)
(0.27807458 -0.0057781602 0)
(0.2824062 -0.0056418943 0)
(0.28702005 -0.00575252 0)
(0.29188351 -0.0057149865 0)
(0.29640147 -0.0057342274 0)
(0.30085585 -0.0057845424 0)
(0.30564645 -0.0057626832 0)
(0.31052182 -0.0058734589 0)
(0.3151817 -0.0055227981 0)
(0.31915498 -0.0050649127 0)
(0.32294331 -0.0052458963 0)
(0.32764648 -0.0056793161 0)
(0.33287267 -0.0057881776 0)
(0.33754866 -0.0056179275 0)
(0.34154299 -0.0052142119 0)
(0.34539938 -0.0050424974 0)
(0.34977841 -0.0053704472 0)
(0.35463638 -0.0055524164 0)
(0.35925172 -0.0052585322 0)
(0.36308576 -0.0049257144 0)
(0.36673544 -0.0050268054 0)
(0.37120787 -0.0052803483 0)
(0.37607379 -0.0054760281 0)
(0.380565 -0.0054442499 0)
(0.38471868 -0.0050736701 0)
(0.38861978 -0.0047788177 0)
(0.39246523 -0.0048638331 0)
(0.39666297 -0.0050067656 0)
(0.40103441 -0.004969476 0)
(0.40512835 -0.005116555 0)
(0.40927101 -0.0051217419 0)
(0.41354947 -0.0049219017 0)
(0.41759442 -0.0050406547 0)
(0.42170058 -0.0050386822 0)
(0.42592286 -0.004849836 0)
(0.42992275 -0.0047943105 0)
(0.43380933 -0.0047562142 0)
(0.43766167 -0.0046323043 0)
(0.44145376 -0.0047295876 0)
(0.44560039 -0.0049958392 0)
(0.45006862 -0.0051465255 0)
(0.45434949 -0.0050956669 0)
(0.4583054 -0.0046643718 0)
(0.46180775 -0.0043794086 0)
(0.46528706 -0.0046769495 0)
(0.4695034 -0.0049061729 0)
(0.47401472 -0.004894594 0)
(0.4780366 -0.0049123909 0)
(0.48176854 -0.0047168226 0)
(0.48550244 -0.0043607918 0)
(0.48914355 -0.0044504484 0)
(0.49296141 -0.0047334225 0)
(0.49706335 -0.0048322253 0)
(0.50124288 -0.004941797 0)
(0.50538702 -0.004892535 0)
(0.50924768 -0.0046043329 0)
(0.51271947 -0.0043840588 0)
(0.51619173 -0.0043912283 0)
(0.52004849 -0.0045449232 0)
(0.52418588 -0.0047558644 0)
(0.5282782 -0.0048313281 0)
(0.5322411 -0.0046624881 0)
(0.53603452 -0.004395567 0)
(0.53943671 -0.0042615245 0)
(0.54277351 -0.0043209571 0)
(0.5465205 -0.0044074715 0)
(0.55045943 -0.004675646 0)
(0.5544646 -0.0049367948 0)
(0.55859972 -0.0047913645 0)
(0.56253921 -0.0045014325 0)
(0.56608521 -0.0044288199 0)
(0.56961628 -0.0042671279 0)
(0.57313203 -0.0040558146 0)
(0.57653402 -0.0042195047 0)
(0.58021336 -0.0044588291 0)
(0.58413597 -0.0045708302 0)
(0.58804896 -0.0045933664 0)
(0.59187068 -0.0045644617 0)
(0.59555396 -0.0043639761 0)
(0.59911253 -0.004220857 0)
(0.60253978 -0.0042239592 0)
(0.60602993 -0.004265086 0)
(0.60971555 -0.0043183156 0)
(0.61344783 -0.0044290869 0)
(0.617166 -0.0044677729 0)
(0.62087739 -0.0043642267 0)
(0.62447831 -0.0041036668 0)
(0.6278367 -0.0040551247 0)
(0.6312097 -0.0041503672 0)
(0.6347923 -0.0041733665 0)
(0.63846631 -0.0042189775 0)
(0.64212022 -0.0042795325 0)
(0.64567491 -0.0042587435 0)
(0.64912979 -0.0041049329 0)
(0.65245798 -0.0038995913 0)
(0.65561884 -0.0039193915 0)
(0.65886405 -0.0041400963 0)
(0.6625248 -0.00422748 0)
(0.66631342 -0.0042509517 0)
(0.66985004 -0.0043482535 0)
(0.67338255 -0.0042478516 0)
(0.67708858 -0.0040854874 0)
(0.68058672 -0.0039922235 0)
(0.6837707 -0.0038663314 0)
(0.68693172 -0.0036812058 0)
(0.69009986 -0.0036727122 0)
(0.6932201 -0.0037846022 0)
(0.69639568 -0.0039216999 0)
(0.69980791 -0.004054589 0)
(0.70341113 -0.0042154998 0)
(0.70706465 -0.0042314244 0)
(0.7105681 -0.0040107207 0)
(0.71378815 -0.0037585436 0)
(0.71685945 -0.0036859587 0)
(0.71997013 -0.003637333 0)
(0.72308665 -0.0036858091 0)
(0.72624638 -0.0038819132 0)
(0.72965873 -0.0040863614 0)
(0.73322726 -0.0041263622 0)
(0.7368404 -0.0041241212 0)
(0.7403469 -0.0040331499 0)
(0.74369254 -0.003833156 0)
(0.7467476 -0.0034775966 0)
(0.74956202 -0.0032769881 0)
(0.7522542 -0.0033011859 0)
(0.75509813 -0.0035309993 0)
(0.7581511 -0.0038195284 0)
(0.76160677 -0.0039344649 0)
(0.76508556 -0.0041228836 0)
(0.76863306 -0.0040077248 0)
(0.77181696 -0.0039542583 0)
(0.77517159 -0.0034958336 0)
(0.77817621 -0.0034563592 0)
(0.78103631 -0.0033527861 0)
(0.78378393 -0.0033069597 0)
(0.78650733 -0.0034735548 0)
(0.78986207 -0.0036568525 0)
(0.79292401 -0.0040330666 0)
(0.7965226 -0.0038632099 0)
(0.79958987 -0.0037400568 0)
(0.8028525 -0.0036526131 0)
(0.80599789 -0.0035015855 0)
(0.80888214 -0.003472025 0)
(0.81198381 -0.003156477 0)
(0.81470885 -0.003343769 0)
(0.81767795 -0.00312038 0)
(0.82057315 -0.0033958466 0)
(0.82353786 -0.0031666989 0)
(0.82639626 -0.0032715844 0)
(0.82917132 -0.0031157075 0)
(0.83195817 -0.0030789615 0)
(0.83472513 -0.0029418987 0)
(0.83732075 -0.0029188125 0)
(0.84003708 -0.0028353489 0)
(0.84247313 -0.0026864951 0)
(0.84513219 -0.0025908501 0)
(0.84741062 -0.0021779156 0)
(0.84968595 -0.0021693525 0)
(0.85178131 -0.0016494436 0)
(0.85382367 -0.0013004837 0)
(0.85597357 -0.0010214526 0)
(0.85765678 -8.5870826e-05 0)
(0.85909049 0.00052482521 0)
(0.85994863 0.0014197419 0)
(0.85977173 0.002337795 0)
(0.85974533 0.0031854318 0)
(0.8581563 0.0046996814 0)
(0.8568932 0.0056569581 0)
(0.8552848 0.0076848039 0)
(0.8505881 0.010330172 0)
(0.84787434 0.012523213 0)
(0.83961785 0.015949875 0)
(0.83176542 0.02015897 0)
(0.82236557 0.023043064 0)
(0.80506985 0.030572624 0)
(0.79382704 0.033886173 0)
(0.76963454 0.042192207 0)
(0.74927574 0.050680957 0)
(0.72118371 0.058254494 0)
(0.68833158 0.071614705 0)
(0.65196544 0.083275492 0)
(0.60444778 0.098076021 0)
(0.55453468 0.11340614 0)
(0.48536158 0.12600667 0)
(0.41594151 0.13663691 0)
(0.30911564 0.12559168 0)
(0.18732012 0.099691723 0)
(0.057411769 0.054145437 0)
(-0.042705957 0.013739224 0)
(-0.10542009 0.023346083 0)
(-0.13454366 0.079769793 0)
(-0.17647527 0.11342505 0)
(-0.27780546 0.10379097 0)
(-0.37093471 0.094769612 0)
(-0.42009652 0.058109882 0)
(-0.40365968 -0.030413431 0)
(-0.37612826 -0.091914177 0)
(-0.29933962 -0.15503774 0)
(-0.1515463 -0.20493059 0)
(-0.077975363 -0.23881424 0)
(-0.0011371497 0.0013121859 0)
(7.2078885e-05 -0.0055906858 0)
(0.0037663365 -0.009407046 0)
(0.0081859869 -0.011362386 0)
(0.013355389 -0.012376444 0)
(0.018711827 -0.012881522 0)
(0.024197303 -0.013106721 0)
(0.029730228 -0.013171972 0)
(0.035276097 -0.013147323 0)
(0.04078092 -0.013083182 0)
(0.046313562 -0.01298467 0)
(0.051658136 -0.012918207 0)
(0.057272832 -0.012743241 0)
(0.062248147 -0.012831428 0)
(0.06816563 -0.012375997 0)
(0.072648454 -0.012957869 0)
(0.078754839 -0.011889275 0)
(0.083235019 -0.013051986 0)
(0.088821045 -0.011936283 0)
(0.093917349 -0.012291585 0)
(0.098894372 -0.012791682 0)
(0.10421688 -0.011740483 0)
(0.10914509 -0.012403227 0)
(0.11437958 -0.012419467 0)
(0.11943029 -0.012271383 0)
(0.12442087 -0.012083556 0)
(0.12967189 -0.012085623 0)
(0.13462408 -0.012804573 0)
(0.13986229 -0.012152851 0)
(0.14475012 -0.012140417 0)
(0.15001669 -0.011972299 0)
(0.15496341 -0.012930358 0)
(0.16028283 -0.012455058 0)
(0.16528539 -0.012041487 0)
(0.17007839 -0.012040911 0)
(0.17563075 -0.012447542 0)
(0.18050078 -0.012715587 0)
(0.18563156 -0.012520043 0)
(0.19079164 -0.0122017 0)
(0.19570479 -0.01149844 0)
(0.20062368 -0.012469854 0)
(0.2059935 -0.012877634 0)
(0.21116536 -0.012499982 0)
(0.21604692 -0.011892683 0)
(0.22081615 -0.01142936 0)
(0.22557634 -0.012170616 0)
(0.23105309 -0.012619007 0)
(0.23638392 -0.012167504 0)
(0.2408842 -0.011669609 0)
(0.24543666 -0.011877915 0)
(0.25045294 -0.012143365 0)
(0.25572952 -0.011494364 0)
(0.26047022 -0.011120801 0)
(0.26502464 -0.011939056 0)
(0.27000882 -0.01244215 0)
(0.27509199 -0.011718417 0)
(0.27955436 -0.010925563 0)
(0.2838414 -0.011017614 0)
(0.2887826 -0.011500988 0)
(0.2939238 -0.011394134 0)
(0.29849436 -0.011122646 0)
(0.30286291 -0.011196692 0)
(0.30729532 -0.011623713 0)
(0.31214108 -0.011751184 0)
(0.31718905 -0.010510233 0)
(0.3211982 -0.0096415205 0)
(0.32493883 -0.010529826 0)
(0.32991052 -0.011793993 0)
(0.33527773 -0.011843863 0)
(0.33993367 -0.010876182 0)
(0.34384443 -0.0096862242 0)
(0.34729946 -0.0099577262 0)
(0.35160525 -0.011236731 0)
(0.35701055 -0.011407112 0)
(0.36199271 -0.010241789 0)
(0.36577996 -0.0094351095 0)
(0.36932858 -0.010031442 0)
(0.37373944 -0.011014072 0)
(0.37858322 -0.011273858 0)
(0.38320756 -0.010703024 0)
(0.38742188 -0.009786816 0)
(0.39112763 -0.0094617332 0)
(0.39495437 -0.0099134767 0)
(0.39947748 -0.010267901 0)
(0.40404138 -0.010211273 0)
(0.40825054 -0.010276663 0)
(0.41250856 -0.01007254 0)
(0.41651452 -0.009965261 0)
(0.42043722 -0.010171128 0)
(0.42471887 -0.010027047 0)
(0.42889265 -0.0098036822 0)
(0.43288848 -0.0097491472 0)
(0.43701885 -0.0095330526 0)
(0.44102881 -0.0092761334 0)
(0.444807 -0.0096204255 0)
(0.44893879 -0.010367817 0)
(0.45346388 -0.01056855 0)
(0.45792494 -0.010005149 0)
(0.46191685 -0.0089935904 0)
(0.46514706 -0.0087081974 0)
(0.46864571 -0.0094890723 0)
(0.47312806 -0.010186964 0)
(0.47755009 -0.010172831 0)
(0.48152556 -0.009728122 0)
(0.48548196 -0.0091000198 0)
(0.48922078 -0.0088077273 0)
(0.49285762 -0.0091852401 0)
(0.49695564 -0.0096212677 0)
(0.50113909 -0.0098531208 0)
(0.50522651 -0.0099973826 0)
(0.50942607 -0.0096114436 0)
(0.51326759 -0.0089317773 0)
(0.51657094 -0.0085657016 0)
(0.51999326 -0.0088212081 0)
(0.52394656 -0.0094965561 0)
(0.5282472 -0.0099604881 0)
(0.53250624 -0.0097546105 0)
(0.53653249 -0.0092290099 0)
(0.54031315 -0.0087024949 0)
(0.54378238 -0.0084425108 0)
(0.54722746 -0.0085820997 0)
(0.55097649 -0.0090138982 0)
(0.55488784 -0.0097033903 0)
(0.55906631 -0.0098667649 0)
(0.56321258 -0.0093589583 0)
(0.5668838 -0.0089559363 0)
(0.57045551 -0.0088660664 0)
(0.57420185 -0.0084316895 0)
(0.57766045 -0.0081797777 0)
(0.58103458 -0.008702325 0)
(0.58491184 -0.0092053033 0)
(0.58892844 -0.0091885456 0)
(0.59281718 -0.0092031594 0)
(0.59683242 -0.009083429 0)
(0.60067391 -0.0086193165 0)
(0.60423888 -0.0083582641 0)
(0.6077567 -0.0084234835 0)
(0.61120382 -0.0085409055 0)
(0.61469243 -0.0086943609 0)
(0.61828399 -0.0088420045 0)
(0.62203851 -0.0089847869 0)
(0.62591469 -0.008646469 0)
(0.62953214 -0.0081312026 0)
(0.63291657 -0.0081951002 0)
(0.63657324 -0.0084838109 0)
(0.64032847 -0.0084723176 0)
(0.64390046 -0.0085755528 0)
(0.64752959 -0.008696955 0)
(0.65121931 -0.0084731525 0)
(0.65476098 -0.0079403414 0)
(0.65801707 -0.0076778351 0)
(0.66111949 -0.0078730954 0)
(0.66452883 -0.0082998735 0)
(0.66831676 -0.0085637512 0)
(0.67200884 -0.0085989588 0)
(0.6755649 -0.008504261 0)
(0.67915716 -0.0084301247 0)
(0.68277961 -0.0082497262 0)
(0.68627013 -0.0079542917 0)
(0.68960337 -0.0077250597 0)
(0.69289263 -0.0075030909 0)
(0.69614703 -0.0073708511 0)
(0.69940761 -0.0075989513 0)
(0.70265802 -0.0079472029 0)
(0.70596172 -0.008209112 0)
(0.7094802 -0.0084489281 0)
(0.71327119 -0.0084168838 0)
(0.71684711 -0.0079407021 0)
(0.71995712 -0.0074375517 0)
(0.72311141 -0.0073021894 0)
(0.7264376 -0.0073544654 0)
(0.72958885 -0.0074633871 0)
(0.73268159 -0.0077453961 0)
(0.73620736 -0.0081697148 0)
(0.73985864 -0.0083148753 0)
(0.74345959 -0.0082008625 0)
(0.74695749 -0.0079903072 0)
(0.75056931 -0.0075760173 0)
(0.75367712 -0.0069714633 0)
(0.75657475 -0.0065527865 0)
(0.75905728 -0.006686114 0)
(0.76200434 -0.0070113721 0)
(0.76484979 -0.0077776371 0)
(0.76837631 -0.0079183598 0)
(0.77153475 -0.0082216515 0)
(0.77533221 -0.0077574944 0)
(0.77881207 -0.0078702338 0)
(0.78249959 -0.0072598052 0)
(0.78548825 -0.0069655403 0)
(0.78853429 -0.0066780243 0)
(0.79155759 -0.006535601 0)
(0.79411247 -0.0071721928 0)
(0.79742527 -0.007318628 0)
(0.8003396 -0.0079554872 0)
(0.80421017 -0.0075373826 0)
(0.8071154 -0.0074514743 0)
(0.81023502 -0.0071786815 0)
(0.81363595 -0.0070784856 0)
(0.81621393 -0.0069608537 0)
(0.81972307 -0.0066972114 0)
(0.82190535 -0.0067417439 0)
(0.82553789 -0.0066162497 0)
(0.82802492 -0.0068970914 0)
(0.83160007 -0.0066322603 0)
(0.83417525 -0.0066322497 0)
(0.83750807 -0.0063962816 0)
(0.84023386 -0.0063424492 0)
(0.84336909 -0.0061852909 0)
(0.84606244 -0.0061592696 0)
(0.84867458 -0.0057811674 0)
(0.85130051 -0.0058339222 0)
(0.85364128 -0.005506247 0)
(0.85597539 -0.0051213523 0)
(0.85861823 -0.0047679355 0)
(0.8603658 -0.0044937054 0)
(0.86269123 -0.0041366995 0)
(0.86482339 -0.0035266572 0)
(0.86672637 -0.002584952 0)
(0.86902892 -0.0015670074 0)
(0.87017226 0.00030133926 0)
(0.87121602 0.0017383607 0)
(0.87124969 0.00302253 0)
(0.87065656 0.0051885819 0)
(0.8700394 0.0067496476 0)
(0.86825378 0.0093784684 0)
(0.86630313 0.013239427 0)
(0.8635606 0.016202095 0)
(0.85850747 0.02330201 0)
(0.85338714 0.027199132 0)
(0.84480466 0.035466879 0)
(0.83564451 0.042790404 0)
(0.82353954 0.050464259 0)
(0.80805825 0.063278908 0)
(0.79305208 0.071719239 0)
(0.77019038 0.087131828 0)
(0.74979562 0.10255727 0)
(0.72458333 0.1178005 0)
(0.69403192 0.14083101 0)
(0.66277382 0.16154487 0)
(0.62499534 0.18323562 0)
(0.57711848 0.20519222 0)
(0.52810026 0.22298835 0)
(0.45248371 0.23081588 0)
(0.36347989 0.22384135 0)
(0.22394232 0.1830851 0)
(0.06063005 0.1233079 0)
(-0.044813355 0.11538712 0)
(-0.095809657 0.18036009 0)
(-0.13550471 0.21994754 0)
(-0.22530553 0.17917052 0)
(-0.26493201 0.075102879 0)
(-0.26501804 -0.045544757 0)
(-0.27500502 -0.15594833 0)
(-0.21243425 -0.26837321 0)
(-0.13453643 -0.32887786 0)
(-0.050955506 -0.34496737 0)
(-0.0011100948 0.001808364 0)
(0.00012538108 -0.0080360547 0)
(0.0038311699 -0.013452109 0)
(0.0082925921 -0.016227613 0)
(0.013505301 -0.017658342 0)
(0.018898273 -0.018366009 0)
(0.024415224 -0.018677642 0)
(0.029974859 -0.018767882 0)
(0.035540441 -0.018728354 0)
(0.041066327 -0.018624767 0)
(0.04658831 -0.018459709 0)
(0.051979712 -0.018338199 0)
(0.057499055 -0.018059467 0)
(0.062637163 -0.018098774 0)
(0.068277952 -0.017551907 0)
(0.073091616 -0.017997317 0)
(0.07880909 -0.017031425 0)
(0.083556891 -0.017869284 0)
(0.08900514 -0.016912186 0)
(0.09398867 -0.017203 0)
(0.09919278 -0.017469162 0)
(0.10419644 -0.016512412 0)
(0.10926238 -0.017340769 0)
(0.11456476 -0.016920505 0)
(0.11944208 -0.016973923 0)
(0.12426084 -0.016773569 0)
(0.13000129 -0.016871938 0)
(0.13453833 -0.017353486 0)
(0.13983321 -0.016561451 0)
(0.14451754 -0.016918863 0)
(0.15028161 -0.016794057 0)
(0.1550429 -0.017386514 0)
(0.1600336 -0.016756071 0)
(0.16502392 -0.016724759 0)
(0.17017114 -0.016858713 0)
(0.17589047 -0.017050017 0)
(0.18033447 -0.016940298 0)
(0.18529542 -0.017073606 0)
(0.19068429 -0.016712994 0)
(0.19563524 -0.016046226 0)
(0.20085331 -0.017208879 0)
(0.20607932 -0.017218152 0)
(0.21072237 -0.016715452 0)
(0.21558063 -0.016215703 0)
(0.22089911 -0.015949338 0)
(0.22595767 -0.016519687 0)
(0.23082277 -0.017353343 0)
(0.23602993 -0.016609059 0)
(0.24093399 -0.015242478 0)
(0.24526027 -0.015864447 0)
(0.24991025 -0.016887974 0)
(0.25571007 -0.016085524 0)
(0.26080991 -0.01521034 0)
(0.2650943 -0.015919202 0)
(0.26948192 -0.016518275 0)
(0.27456581 -0.015682602 0)
(0.27936383 -0.014794966 0)
(0.28384235 -0.015091868 0)
(0.28878625 -0.015967545 0)
(0.2936875 -0.015702971 0)
(0.29829797 -0.014843173 0)
(0.30285429 -0.014608099 0)
(0.30701944 -0.015486339 0)
(0.31158923 -0.015952139 0)
(0.31665303 -0.014444918 0)
(0.32092104 -0.013225425 0)
(0.32517578 -0.014286842 0)
(0.33018221 -0.01596786 0)
(0.33486033 -0.01610577 0)
(0.33922537 -0.01445369 0)
(0.34351817 -0.012511571 0)
(0.34705708 -0.013171313 0)
(0.35112434 -0.015384031 0)
(0.35651297 -0.015929981 0)
(0.36181584 -0.014235162 0)
(0.36589738 -0.012545229 0)
(0.36944718 -0.013089954 0)
(0.37347511 -0.014685869 0)
(0.37767933 -0.015212267 0)
(0.38224972 -0.01440812 0)
(0.38703777 -0.013040237 0)
(0.3910435 -0.012590532 0)
(0.39480862 -0.013391842 0)
(0.39923895 -0.014121061 0)
(0.40368572 -0.014119993 0)
(0.40799642 -0.013763627 0)
(0.41225528 -0.013208119 0)
(0.4158714 -0.01329872 0)
(0.41976342 -0.01348868 0)
(0.42426658 -0.013348664 0)
(0.42836086 -0.013268089 0)
(0.43233166 -0.013248536 0)
(0.43670176 -0.012918976 0)
(0.44094016 -0.012531564 0)
(0.44469786 -0.012866509 0)
(0.44857752 -0.013886763 0)
(0.45278507 -0.014270568 0)
(0.45718577 -0.013475421 0)
(0.4612656 -0.012000054 0)
(0.46466655 -0.011623215 0)
(0.4684608 -0.012579731 0)
(0.47295675 -0.013661511 0)
(0.47693743 -0.013812773 0)
(0.48076122 -0.013077962 0)
(0.4849314 -0.01210792 0)
(0.48875313 -0.012024588 0)
(0.49258163 -0.012562258 0)
(0.49690917 -0.01294016 0)
(0.5009079 -0.013190093 0)
(0.5046405 -0.013440654 0)
(0.50861472 -0.012882653 0)
(0.51241389 -0.011916505 0)
(0.51586086 -0.011289027 0)
(0.51954792 -0.011798377 0)
(0.52378708 -0.012921251 0)
(0.52809702 -0.013585631 0)
(0.53211878 -0.013157664 0)
(0.53602104 -0.012531079 0)
(0.53970481 -0.011837115 -6.8304299e-35)
(0.54319241 -0.011379152 -4.0210997e-30)
(0.54686726 -0.011431013 0)
(0.55060509 -0.012241833 0)
(0.55440552 -0.013150616 0)
(0.55863841 -0.013231015 0)
(0.56271693 -0.012539391 0)
(0.5660966 -0.01211924 0)
(0.56976692 -0.011894405 0)
(0.57385787 -0.011326893 0)
(0.57737721 -0.011055635 -6.8576006e-35)
(0.58070008 -0.011790589 -3.8954031e-30)
(0.58463397 -0.012391194 -7.5761687e-35)
(0.58854819 -0.012533116 -4.0261926e-30)
(0.59213102 -0.012677862 0)
(0.59605238 -0.012410368 0)
(0.60016281 -0.011829876 0)
(0.60396042 -0.01148541 0)
(0.60760184 -0.011235618 0)
(0.61108331 -0.011244875 0)
(0.6144276 -0.011546719 -7.0573925e-35)
(0.61761846 -0.01192869 -3.8463572e-30)
(0.62109695 -0.01217406 0)
(0.62512773 -0.01185788 0)
(0.62896274 -0.011240638 0)
(0.6324353 -0.011272801 0)
(0.63639131 -0.011577943 0)
(0.64047752 -0.011448763 0)
(0.64376425 -0.011566003 0)
(0.64689256 -0.011876912 0)
(0.65069314 -0.011569774 0)
(0.65436007 -0.010797935 0)
(0.65739686 -0.010446631 -6.4951975e-35)
(0.66055486 -0.010655576 -3.938814e-30)
(0.66429946 -0.011235201 0)
(0.66817715 -0.011739522 0)
(0.6717695 -0.011823991 0)
(0.67523086 -0.011470813 0)
(0.67875389 -0.011350896 0)
(0.68233015 -0.011289317 0)
(0.68557581 -0.010901482 0)
(0.68873747 -0.010460526 0)
(0.69234299 -0.01034405 7.4169717e-35)
(0.69604071 -0.010295963 3.8430668e-30)
(0.69934528 -0.010275818 0)
(0.70260507 -0.010508103 0)
(0.70593967 -0.011054974 7.130412e-35)
(0.70931225 -0.011578884 3.8391685e-30)
(0.71277744 -0.011549542 0)
(0.71616476 -0.010781844 0)
(0.71939802 -0.010186959 0)
(0.7227053 -0.010165149 0)
(0.72608271 -0.010094504 6.7921401e-35)
(0.72948849 -0.010015281 3.956395e-30)
(0.73272104 -0.010483146 0)
(0.73604537 -0.011204127 0)
(0.73937106 -0.011400184 0)
(0.74303914 -0.011343316 0)
(0.7464548 -0.011071365 0)
(0.75006193 -0.010439483 0)
(0.75304921 -0.0094884247 0)
(0.75647976 -0.0088545905 0)
(0.7592246 -0.0088002815 0)
(0.76218569 -0.0093022905 0)
(0.76466326 -0.010213082 0)
(0.76809444 -0.010809305 0)
(0.77114106 -0.011273586 0)
(0.77460866 -0.011053955 0)
(0.77812957 -0.010978692 0)
(0.78198972 -0.01019124 0)
(0.78537261 -0.0097468181 0)
(0.78839355 -0.0091932207 0)
(0.791557 -0.0088279853 0)
(0.79434617 -0.0094765032 0)
(0.79767227 -0.0099391569 0)
(0.80018227 -0.010775619 0)
(0.80386641 -0.010419807 0)
(0.8065752 -0.010124337 0)
(0.81039579 -0.010023111 0)
(0.81299743 -0.0096144 0)
(0.81615376 -0.0092467158 0)
(0.81908411 -0.0092156329 0)
(0.82170069 -0.0091310895 0)
(0.82547498 -0.0093448117 0)
(0.82764157 -0.009540467 0)
(0.83136784 -0.0092738102 0)
(0.83412469 -0.0092782592 0)
(0.83705584 -0.0089669923 0)
(0.84034048 -0.0090441291 0)
(0.84329952 -0.0088632022 0)
(0.84653162 -0.0081107463 0)
(0.84891142 -0.008113917 0)
(0.85186199 -0.0075688513 0)
(0.85369736 -0.0073217608 0)
(0.85678955 -0.0071151195 4.6625963e-36)
(0.85830861 -0.0064533731 8.2264893e-31)
(0.86091083 -0.0058699753 0)
(0.8631246 -0.0062763462 0)
(0.86513798 -0.0050303362 0)
(0.86728744 -0.0047412714 0)
(0.86964182 -0.0028634874 0)
(0.8710785 -0.00084319318 0)
(0.87326845 0.0013204537 0)
(0.87338488 0.0036889963 0)
(0.87387436 0.0058732163 0)
(0.87399544 0.0077462774 0)
(0.87223577 0.011395197 0)
(0.87078696 0.014402416 0)
(0.86881758 0.020377705 0)
(0.86309511 0.02598205 0)
(0.86111763 0.033458226 0)
(0.85282696 0.041735366 0)
(0.84552602 0.05182386 1.2424593e-33)
(0.83675041 0.062295772 7.9776166e-29)
(0.82304867 0.075199365 0)
(0.81047129 0.08930542 0)
(0.79213131 0.10531239 0)
(0.77519198 0.12056719 0)
(0.75320123 0.14269924 0)
(0.72820217 0.16378686 0)
(0.70975339 0.18525049 0)
(0.67587117 0.21455923 0)
(0.64960354 0.23645541 0)
(0.61620471 0.25875827 0)
(0.56877561 0.276392 0)
(0.51927144 0.28982603 0)
(0.44269974 0.29133638 2.1046415e-34)
(0.34393257 0.28043621 -2.8497338e-29)