/*--------------------------------*- C++ -*----------------------------------*\
| =========                 |                                                 |
| \\      /  F ield         | OpenFOAM: The Open Source CFD Toolbox           |
|  \\    /   O peration     | Version:  2306                                  |
|   \\  /    A nd           | Website:  www.openfoam.com                      |
|    \\/     M anipulation  |                                                 |
\*---------------------------------------------------------------------------*/
FoamFile
{
    version     2.0;
    format      ascii;
    arch        "LSB;label=32;scalar=64";
    class       surfaceScalarField;
    location    "0.16";
    object      phi;
}
// * * * * * * * * * * * * * * * * * * * * * * * * * * * * * * * * * * * * * //

dimensions      [0 3 -1 0 0 0 0];

oriented        oriented;

internalField   nonuniform List<scalar> 
12640
(
-1.9088004e-08
-1.970197e-07
-7.6189639e-08
-5.8988573e-07
-1.7032622e-07
-9.7547994e-07
-2.9980899e-07
-1.3484199e-06
-4.6218319e-07
-1.7027614e-06
-6.5433963e-07
-2.0332753e-06
-8.7263137e-07
-2.335469e-06
-1.112979e-06
-2.6054751e-06
-1.3709846e-06
-2.8401177e-06
-1.6420496e-06
-3.0369461e-06
-1.9214934e-06
-3.1942513e-06
-2.2046688e-06
-3.3110646e-06
-2.4870725e-06
-3.3871368e-06
-2.7644448e-06
-3.4228993e-06
-3.0328565e-06
-3.4194074e-06
-3.2887791e-06
-3.3782682e-06
-3.5291357e-06
-3.3015577e-06
-3.751332e-06
-3.1917301e-06
-3.9532663e-06
-3.0515237e-06
-4.1333212e-06
-2.8838688e-06
-4.2903385e-06
-2.6918014e-06
-4.4235819e-06
-2.4783868e-06
-4.5326892e-06
-2.2466532e-06
-4.6176217e-06
-1.99954e-06
-4.6786104e-06
-1.7398577e-06
-4.7161068e-06
-1.4702618e-06
-4.7307363e-06
-1.193239e-06
-4.7232583e-06
-9.1110007e-07
-4.6945324e-06
-6.2597794e-07
-4.6454952e-06
-3.3983207e-07
-4.577097e-06
-5.4444645e-08
-4.4905005e-06
2.2842868e-07
-4.3866542e-06
5.07249e-07
-4.2666667e-06
7.8076466e-07
-4.131642e-06
1.0476739e-06
-3.982699e-06
1.3068272e-06
-3.8209673e-06
1.557187e-06
-3.6475858e-06
1.7978242e-06
-3.463698e-06
2.0279148e-06
-3.2704491e-06
2.246738e-06
-3.0689805e-06
2.4536737e-06
-2.8604256e-06
2.6482011e-06
-2.6459036e-06
2.829897e-06
-2.4265137e-06
2.9984328e-06
-2.2033296e-06
3.1535726e-06
-1.9773926e-06
3.2951694e-06
-1.7497077e-06
3.423162e-06
-1.521237e-06
3.5375691e-06
-1.2928965e-06
3.6384851e-06
-1.065551e-06
3.7260741e-06
-8.4001215e-07
3.8005641e-06
-6.170353e-07
3.8622408e-06
-3.9731698e-07
3.9114412e-06
-1.8150091e-07
3.9485511e-06
2.9806426e-08
3.9739882e-06
2.3617958e-07
3.9881376e-06
4.3708992e-07
3.9916623e-06
6.3212724e-07
3.9849392e-06
8.2095169e-07
3.9684782e-06
1.0032688e-06
3.9428268e-06
1.1788316e-06
3.9085229e-06
1.3474408e-06
3.8661014e-06
1.5089426e-06
3.816096e-06
1.6632245e-06
3.7590364e-06
1.8102134e-06
3.6954436e-06
1.9498719e-06
3.6258283e-06
2.0821954e-06
3.5506885e-06
2.2072087e-06
3.470507e-06
2.3249648e-06
3.3857502e-06
2.4355394e-06
3.2968681e-06
2.5390309e-06
3.2042914e-06
2.6355561e-06
3.1084322e-06
2.725248e-06
3.0096823e-06
2.8082545e-06
2.9084146e-06
2.8847345e-06
2.8049818e-06
2.9548585e-06
2.6997161e-06
3.0188043e-06
2.5929309e-06
3.0767567e-06
2.4849195e-06
3.1289056e-06
2.3759569e-06
2.2662994e-06
-1.7175275e-08
-1.7984443e-07
-6.856115e-08
-5.3849985e-07
-1.5331095e-07
-8.9073013e-07
-2.6996191e-07
-1.231769e-06
-4.1638395e-07
-1.5563394e-06
-5.8987453e-07
-1.8597848e-06
-7.8725746e-07
-2.138086e-06
-1.004972e-06
-2.3877606e-06
-1.2391694e-06
-2.6059202e-06
-1.4858136e-06
-2.7903018e-06
-1.7407821e-06
-2.9392829e-06
-1.9999644e-06
-3.0518823e-06
-2.2593567e-06
-3.1277445e-06
-2.5151469e-06
-3.1671091e-06
-2.7637899e-06
-3.1707644e-06
-3.0020682e-06
-3.1399899e-06
-3.2271384e-06
-3.0764876e-06
-3.4365603e-06
-2.9823082e-06
-3.6283103e-06
-2.8597737e-06
-3.8007789e-06
-2.7114001e-06
-3.9527549e-06
-2.5398254e-06
-4.0833989e-06
-2.3477428e-06
-4.1922084e-06
-2.1378437e-06
-4.2789782e-06
-1.9127702e-06
-4.3437587e-06
-1.6750772e-06
-4.386815e-06
-1.4272055e-06
-4.4085889e-06
-1.1714651e-06
-4.4096646e-06
-9.1002435e-07
-4.3907377e-06
-6.4490483e-07
-4.3525903e-06
-3.7797952e-07
-4.2960608e-06
-1.1097419e-07
-4.2221297e-06
1.5449767e-07
-4.1316846e-06
4.1680393e-07
-4.0257151e-06
6.7479513e-07
-3.905231e-06
9.2718968e-07
-3.7712601e-06
1.1728563e-06
-3.6248471e-06
1.4107739e-06
-3.4670482e-06
1.6400253e-06
-3.2989278e-06
1.8597944e-06
-3.1215533e-06
2.0693634e-06
-2.9359903e-06
2.2681108e-06
-2.7432984e-06
2.4555093e-06
-2.5445251e-06
2.6311237e-06
-2.340701e-06
2.7946087e-06
-2.1328342e-06
2.9457057e-06
-1.9219046e-06
3.0842399e-06
-1.7088597e-06
3.210117e-06
-1.4946093e-06
3.3233188e-06
-1.2800217e-06
3.4238975e-06
-1.0659203e-06
3.5119728e-06
-8.530798e-07
3.5877237e-06
-6.4222537e-07
3.6513864e-06
-4.3402881e-07
3.7032446e-06
-2.2910818e-07
3.7436304e-06
-2.8026437e-08
3.7729065e-06
1.6868517e-07
3.791426e-06
3.6060254e-07
3.7997449e-06
5.4730764e-07
3.7982341e-06
7.2843973e-07
3.7873459e-06
9.0369777e-07
3.7675689e-06
1.0728235e-06
3.7393971e-06
1.2356032e-06
3.7033218e-06
1.3918652e-06
3.659834e-06
1.5414784e-06
3.6094231e-06
1.6843487e-06
3.5525734e-06
1.8204165e-06
3.4897605e-06
1.9496538e-06
3.4214512e-06
2.072062e-06
3.3480988e-06
2.1876684e-06
3.2701439e-06
2.2965247e-06
3.1880119e-06
2.3987037e-06
3.1021125e-06
2.494297e-06
3.0128388e-06
2.5834138e-06
2.9205655e-06
2.6661769e-06
2.8256513e-06
2.7427229e-06
2.7284359e-06
2.8131982e-06
2.6292408e-06
2.8777589e-06
2.5283702e-06
2.936568e-06
2.4261103e-06
2.989795e-06
2.3227301e-06
2.218481e-06
-1.5483014e-08
-1.6436141e-07
-6.1811073e-08
-4.9217179e-07
-1.3824966e-07
-8.1429155e-07
-2.4352825e-07
-1.1264904e-06
-3.7579379e-07
-1.4240738e-06
-5.3269142e-07
-1.7028871e-06
-7.1144864e-07
-1.9593288e-06
-9.0895048e-07
-2.1902588e-06
-1.1218218e-06
-2.3930489e-06
-1.3465128e-06
-2.5656108e-06
-1.579385e-06
-2.7064107e-06
-1.8167961e-06
-2.8144712e-06
-2.0551799e-06
-2.8893607e-06
-2.2911205e-06
-2.9311685e-06
-2.5214167e-06
-2.9404683e-06
-2.7431358e-06
-2.9182708e-06
-2.9536548e-06
-2.8659685e-06
-3.1506888e-06
-2.7852742e-06
-3.3323054e-06
-2.678157e-06
-3.4969271e-06
-2.5467785e-06
-3.643322e-06
-2.3934305e-06
-3.7705855e-06
-2.2204792e-06
-3.8781153e-06
-2.030314e-06
-3.9655803e-06
-1.8253052e-06
-4.0328887e-06
-1.6077688e-06
-4.0801541e-06
-1.3799401e-06
-4.107665e-06
-1.1439542e-06
-4.1158546e-06
-9.0183476e-07
-4.1052743e-06
-6.5548519e-07
-4.0765702e-06
-4.0668358e-07
-4.0304607e-06
-1.5708375e-07
-3.9677893e-06
9.1826244e-08
-3.8893499e-06
3.3836453e-07
-3.796032e-06
5.8147723e-07
-3.6887496e-06
8.1990731e-07
-3.5684418e-06
1.0525485e-06
-3.4360689e-06
1.2784009e-06
-3.2926063e-06
1.4965627e-06
-3.1390402e-06
1.7062284e-06
-2.9763625e-06
1.9066857e-06
-2.8055655e-06
2.0973138e-06
-2.6276376e-06
2.2775814e-06
-2.443558e-06
2.4470441e-06
-2.2542916e-06
2.6053423e-06
-2.0607838e-06
2.752198e-06
-1.8639564e-06
2.8874124e-06
-1.6647015e-06
3.0108622e-06
-1.463879e-06
3.1224962e-06
-1.2623116e-06
3.2223301e-06
-1.0607814e-06
3.3104425e-06
-8.6002866e-07
3.3869709e-06
-6.6074678e-07
3.4521046e-06
-4.6358343e-07
3.5060812e-06
-2.6913454e-07
3.5491816e-06
-7.7950563e-08
3.5817225e-06
1.0944044e-07
3.604035e-06
2.9264082e-07
3.6165446e-06
4.7122089e-07
3.6196542e-06
6.4481822e-07
3.6137486e-06
8.1312707e-07
3.5992601e-06
9.7588141e-07
3.5766427e-06
1.1328558e-06
3.5463474e-06
1.2838652e-06
3.5088246e-06
1.4287625e-06
3.4645258e-06
1.5674356e-06
3.4139001e-06
1.6998059e-06
3.3573901e-06
1.8258253e-06
3.2954318e-06
1.9454733e-06
3.2284509e-06
2.0587558e-06
3.1568614e-06
2.1657018e-06
3.0810658e-06
2.2663619e-06
3.0014525e-06
2.3608053e-06
2.9183954e-06
2.4491181e-06
2.8322526e-06
2.5314016e-06
2.7433678e-06
2.6077705e-06
2.6520671e-06
2.6783497e-06
2.5586615e-06
2.7432747e-06
2.4634452e-06
2.8026885e-06
2.3666964e-06
2.856741e-06
2.2686775e-06
2.1696344e-06
-1.3982318e-08
-1.503791e-07
-5.5824404e-08
-4.5032971e-07
-1.2488733e-07
-7.4522862e-07
-2.2006464e-07
-1.0313131e-06
-3.3974024e-07
-1.3043982e-06
-4.8185731e-07
-1.5607701e-06
-6.4399011e-07
-1.797196e-06
-8.2340766e-07
-2.0108412e-06
-1.0171438e-06
-2.1993127e-06
-1.2220701e-06
-2.3606846e-06
-1.434969e-06
-2.4935118e-06
-1.6526068e-06
-2.5968334e-06
-1.8718023e-06
-2.6701652e-06
-2.0894906e-06
-2.7134802e-06
-2.3027792e-06
-2.7271797e-06
-2.5089953e-06
-2.7120547e-06
-2.7057231e-06
-2.6692407e-06
-2.8908305e-06
-2.6001668e-06
-3.0624843e-06
-2.5065032e-06
-3.2191556e-06
-2.3901071e-06
-3.3596159e-06
-2.2529703e-06
-3.4829244e-06
-2.0971706e-06
-3.5884105e-06
-1.9248279e-06
-3.6756501e-06
-1.7380655e-06
-3.7444408e-06
-1.5389782e-06
-3.7947746e-06
-1.3296062e-06
-3.8268127e-06
-1.1119161e-06
-3.84086e-06
-8.8778759e-07
-3.8373423e-06
-6.5900283e-07
-3.8167857e-06
-4.2724018e-07
-3.7797976e-06
-1.9407179e-07
-3.7270741e-06
3.910269e-08
-3.6593673e-06
2.7065775e-07
-3.5774376e-06
4.9954752e-07
-3.4821123e-06
7.2458203e-07
-3.3742453e-06
9.4468141e-07
-3.2547146e-06
1.1588702e-06
-3.1244175e-06
1.3662656e-06
-2.984264e-06
1.5660748e-06
-2.8351726e-06
1.7575943e-06
-2.6780653e-06
1.9402065e-06
-2.5138621e-06
2.1133782e-06
-2.3434766e-06
2.2766586e-06
-2.1678107e-06
2.4296764e-06
-1.9877506e-06
2.5721379e-06
-1.8041616e-06
2.7038233e-06
-1.6178838e-06
2.8245844e-06
-1.4297285e-06
2.934341e-06
-1.2404745e-06
3.0330762e-06
-1.0508651e-06
3.120833e-06
-8.616043e-07
3.1977103e-06
-6.7335662e-07
3.2638569e-06
-4.8674353e-07
3.3194681e-06
-3.0234239e-07
3.3647805e-06
-1.2068899e-07
3.4000692e-06
5.7714191e-08
3.4256318e-06
2.3246254e-07
3.4417962e-06
4.0313967e-07
3.448977e-06
5.6937769e-07
3.4475105e-06
7.3086741e-07
3.4377704e-06
8.8733829e-07
3.4201718e-06
1.0385569e-06
3.3951289e-06
1.1843269e-06
3.3630546e-06
1.3244877e-06
3.324365e-06
1.4589132e-06
3.2794746e-06
1.5875077e-06
3.2287956e-06
1.7102053e-06
3.1727341e-06
1.8269677e-06
3.1116885e-06
1.9377809e-06
3.0460481e-06
2.0426541e-06
2.9761927e-06
2.1416173e-06
2.9024892e-06
2.2347199e-06
2.8252927e-06
2.3220274e-06
2.7449452e-06
2.403621e-06
2.6617741e-06
2.4795947e-06
2.5760934e-06
2.5500546e-06
2.4882017e-06
2.6151168e-06
2.3983831e-06
2.6749053e-06
2.3069078e-06
2.7295525e-06
2.2140305e-06
2.1199913e-06
-1.2648524e-08
-1.3773057e-07
-5.0502949e-08
-4.1247528e-07
-1.1300603e-07
-6.8272554e-07
-1.9919179e-07
-9.4512733e-07
-3.0764733e-07
-1.1959427e-06
-4.3657191e-07
-1.4318455e-06
-5.8383833e-07
-1.6499296e-06
-7.4704706e-07
-1.8476325e-06
-9.2358584e-07
-2.022774e-06
-1.1106918e-06
-2.1735787e-06
-1.3055144e-06
-2.2986892e-06
-1.5051776e-06
-2.3971702e-06
-1.7068392e-06
-2.4685036e-06
-1.907746e-06
-2.5125735e-06
-2.1052825e-06
-2.5296432e-06
-2.2970133e-06
-2.5203239e-06
-2.4807163e-06
-2.4855377e-06
-2.6544072e-06
-2.4264759e-06
-2.8163561e-06
-2.3445544e-06
-2.9650941e-06
-2.2413691e-06
-3.0994132e-06
-2.1186511e-06
-3.2183588e-06
-1.978225e-06
-3.3212166e-06
-1.8219701e-06
-3.407496e-06
-1.6517862e-06
-3.4769097e-06
-1.4695644e-06
-3.5293532e-06
-1.2771628e-06
-3.5648827e-06
-1.0763867e-06
-3.5836953e-06
-8.6897493e-07
-3.5861087e-06
-6.5658947e-07
-3.572543e-06
-4.4080585e-07
-3.5435079e-06
-2.2310687e-07
-3.4995478e-06
-4.85756e-09
-3.4414053e-06
2.1251537e-07
-3.3696986e-06
4.278408e-07
-3.2851775e-06
6.4006093e-07
-3.1886142e-06
8.4811815e-07
-3.0808079e-06
1.051064e-06
-2.9625799e-06
1.2480375e-06
-2.8347673e-06
1.4382622e-06
-2.698218e-06
1.6210451e-06
-2.5537861e-06
1.7957746e-06
-2.4023263e-06
1.9619184e-06
-2.2446891e-06
2.1190214e-06
-2.0817168e-06
2.2667041e-06
-1.9142383e-06
2.4046594e-06
-1.7430653e-06
2.5326503e-06
-1.5689879e-06
2.6505071e-06
-1.392771e-06
2.7581241e-06
-1.2151508e-06
2.855456e-06
-1.0368322e-06
2.9425143e-06
-8.5848553e-07
3.0193635e-06
-6.8074479e-07
3.0861162e-06
-5.0420652e-07
3.1429299e-06
-3.2942808e-07
3.190002e-06
-1.5692869e-07
3.2275697e-06
1.2802397e-08
3.2559007e-06
1.7938906e-07
3.2752097e-06
3.4239013e-07
3.2859759e-06
5.0145648e-07
3.2884442e-06
6.5627319e-07
3.2829535e-06
8.0656737e-07
3.2698778e-06
9.5209994e-07
3.2495963e-06
1.092666e-06
3.2224886e-06
1.2280945e-06
3.1889364e-06
1.3582464e-06
3.1493228e-06
1.4830123e-06
3.1040297e-06
1.6023115e-06
3.0534351e-06
1.7160887e-06
2.9979112e-06
1.8243133e-06
2.9378237e-06
1.926977e-06
2.8735289e-06
2.0240918e-06
2.8053744e-06
2.1156884e-06
2.7336963e-06
2.2018139e-06
2.6588196e-06
2.2825312e-06
2.5810568e-06
2.3579161e-06
2.5007086e-06
2.4280563e-06
2.4180614e-06
2.49305e-06
2.3333893e-06
2.5530046e-06
2.2469533e-06
2.608035e-06
2.1590001e-06
2.0697637e-06
-1.1460502e-08
-1.2627007e-07
-4.5762586e-08
-3.781732e-07
-1.0241904e-07
-6.2606908e-07
-1.8058442e-07
-8.6696195e-07
-2.7902055e-07
-1.0975066e-06
-3.9614724e-07
-1.3147188e-06
-5.3009487e-07
-1.5159819e-06
-6.7875059e-07
-1.6989768e-06
-8.3980897e-07
-1.8617156e-06
-1.0108252e-06
-2.0025625e-06
-1.1892691e-06
-2.1202453e-06
-1.3725783e-06
-2.2138609e-06
-1.55821e-06
-2.2828719e-06
-1.7436878e-06
-2.3270956e-06
-1.9266458e-06
-2.3466852e-06
-2.1048644e-06
-2.3421053e-06
-2.2763014e-06
-2.3141006e-06
-2.439115e-06
-2.2636623e-06
-2.5916789e-06
-2.1919904e-06
-2.7325918e-06
-2.1004562e-06
-2.8606787e-06
-1.9905643e-06
-2.9749873e-06
-1.8639164e-06
-3.0747795e-06
-1.7221779e-06
-3.1595186e-06
-1.5670471e-06
-3.2288543e-06
-1.4002287e-06
-3.2826059e-06
-1.2234111e-06
-3.3207446e-06
-1.038248e-06
-3.3433768e-06
-8.4634278e-07
-3.350727e-06
-6.4923927e-07
-3.3431218e-06
-4.4841104e-07
-3.3209749e-06
-2.452538e-07
-3.2847603e-06
-4.1072056e-08
-3.2350921e-06
1.6284716e-07
-3.1725384e-06
3.6528712e-07
-3.0977573e-06
5.6527983e-07
-3.0114437e-06
7.6180456e-07
-2.9143216e-06
9.5394193e-07
-2.8071394e-06
1.1408553e-06
-2.6906645e-06
1.3217873e-06
-2.5656775e-06
1.4960581e-06
-2.4329674e-06
1.6630644e-06
-2.2933261e-06
1.8222771e-06
-2.1475444e-06
1.9732397e-06
-1.9964071e-06
2.1155667e-06
-1.8406886e-06
2.2489408e-06
-1.6811494e-06
2.373111e-06
-1.5185316e-06
2.4878892e-06
-1.3535553e-06
2.5931479e-06
-1.1869159e-06
2.6888167e-06
-1.0192812e-06
2.7748795e-06
-8.5128793e-07
2.8513704e-06
-6.8354122e-07
2.9183694e-06
-5.1661121e-07
2.9759999e-06
-3.5103332e-07
3.0244241e-06
-1.8730315e-07
3.0638396e-06
-2.5875057e-08
3.0944726e-06
1.3278979e-07
3.1165448e-06
2.8834487e-07
3.1304207e-06
4.4043551e-07
3.1363535e-06
5.8873928e-07
3.1346498e-06
7.3298023e-07
3.1256367e-06
8.7291512e-07
3.1096614e-06
1.0083324e-06
3.0870713e-06
1.1390529e-06
3.0582159e-06
1.2649272e-06
3.0234484e-06
1.3858346e-06
2.9831223e-06
1.5016811e-06
2.9375885e-06
1.6123976e-06
2.8871947e-06
1.7179386e-06
2.8322826e-06
1.8182801e-06
2.7731874e-06
1.9134182e-06
2.7102363e-06
2.003367e-06
2.6437475e-06
2.0881573e-06
2.5740294e-06
2.1678345e-06
2.5013796e-06
2.2424583e-06
2.4260848e-06
2.3120997e-06
2.34842e-06
2.3768405e-06
2.2686486e-06
2.4367719e-06
2.1870219e-06
2.4919931e-06
2.1037789e-06
2.0191465e-06
-1.0400115e-08
-1.1586995e-07
-4.153108e-08
-3.4704224e-07
-9.2965881e-08
-5.7463428e-07
-1.639628e-07
-7.9596502e-07
-2.5343424e-07
-1.0080351e-06
-3.5999038e-07
-1.2081627e-06
-4.8198444e-07
-1.3939879e-06
-6.175519e-07
-1.5634094e-06
-7.6465401e-07
-1.7146135e-06
-9.2112327e-07
-1.8460932e-06
-1.0847097e-06
-1.9566589e-06
-1.2531268e-06
-2.0454438e-06
-1.424096e-06
-2.1119028e-06
-1.595388e-06
-2.1558036e-06
-1.7648605e-06
-2.1772127e-06
-1.9304911e-06
-2.1764747e-06
-2.0904044e-06
-2.1541874e-06
-2.2428934e-06
-2.1111733e-06
-2.3864349e-06
-2.0484489e-06
-2.5196988e-06
-1.9671923e-06
-2.6415519e-06
-1.8687111e-06
-2.7510569e-06
-1.7544115e-06
-2.8474665e-06
-1.6257684e-06
-2.9302147e-06
-1.4842989e-06
-2.9989054e-06
-1.331538e-06
-3.0532993e-06
-1.1690172e-06
-3.0932992e-06
-9.9824812e-07
-3.1189361e-06
-8.2070584e-07
-3.1303554e-06
-6.378199e-07
-3.1278024e-06
-4.5096406e-07
-3.1116088e-06
-2.6144742e-07
-3.0821751e-06
-7.050584e-08
-3.0400205e-06
1.2069263e-07
-2.9856404e-06
3.1090701e-07
-2.9196218e-06
4.9926125e-07
-2.842585e-06
6.8476773e-07
-2.7551826e-06
8.6653958e-07
-2.6580945e-06
1.0437672e-06
-2.5520214e-06
1.2157143e-06
-2.4376799e-06
1.3817166e-06
-2.3157966e-06
1.5411812e-06
-2.1871041e-06
1.6935846e-06
-2.052336e-06
1.8384716e-06
-1.9122224e-06
1.975453e-06
-1.7674858e-06
2.1042043e-06
-1.6188374e-06
2.2244627e-06
-1.4669734e-06
2.3360252e-06
-1.3125713e-06
2.4387457e-06
-1.156287e-06
2.5325323e-06
-9.9875187e-07
2.6173444e-06
-8.4057066e-07
2.6931892e-06
-6.8231925e-07
2.760118e-06
-5.245427e-07
2.8182234e-06
-3.6775418e-07
2.8676356e-06
-2.1243247e-07
2.9085179e-06
-5.9023105e-08
2.9410633e-06
9.2041777e-08
2.9654799e-06
2.4040987e-07
2.9820526e-06
3.857368e-07
2.9910265e-06
5.277007e-07
2.9926859e-06
6.6602539e-07
2.987312e-06
8.0046577e-07
2.9752212e-06
9.3080647e-07
2.9567306e-06
1.0568615e-06
2.9321609e-06
1.1784735e-06
2.9018364e-06
1.2955124e-06
2.8660835e-06
1.4078729e-06
2.825228e-06
1.5154745e-06
2.7795932e-06
1.6182582e-06
2.7294989e-06
1.7161867e-06
2.675259e-06
1.8092415e-06
2.6171814e-06
1.8974222e-06
2.5555668e-06
1.9807444e-06
2.4907072e-06
2.0592392e-06
2.4228849e-06
2.1329498e-06
2.3523741e-06
2.201933e-06
2.2794369e-06
2.2662553e-06
2.2043263e-06
2.3259932e-06
2.127284e-06
2.3812313e-06
2.0485409e-06
1.9683164e-06
-9.4517517e-09
-1.064182e-07
-3.7746243e-08
-3.1874775e-07
-8.4508334e-08
-5.2787219e-07
-1.4908582e-07
-7.3138755e-07
-2.3052114e-07
-9.265998e-07
-3.2758922e-07
-1.1110946e-06
-4.388364e-07
-1.2827407e-06
-5.6261393e-07
-1.4396318e-06
-6.9711528e-07
-1.5801121e-06
-8.4041511e-07
-1.7027933e-06
-9.9050907e-07
-1.8065649e-06
-1.1453536e-06
-1.8905994e-06
-1.3029041e-06
-1.9543523e-06
-1.4611514e-06
-1.9975562e-06
-1.6181548e-06
-2.0202093e-06
-1.772071e-06
-2.0225586e-06
-1.9211786e-06
-2.0050798e-06
-2.0638981e-06
-1.9684538e-06
-2.1988066e-06
-1.9135404e-06
-2.3246473e-06
-1.8413516e-06
-2.4403345e-06
-1.7530239e-06
-2.5449546e-06
-1.6497914e-06
-2.6377628e-06
-1.5329602e-06
-2.718177e-06
-1.4038847e-06
-2.7857694e-06
-1.2639455e-06
-2.8402562e-06
-1.1145304e-06
-2.8814863e-06
-9.570181e-07
-2.9094287e-06
-7.9276334e-07
-2.9241623e-06
-6.2308636e-07
-2.9258625e-06
-4.4926394e-07
-2.9147897e-06
-2.7252015e-07
-2.8912774e-06
-9.4018084e-08
-2.8557485e-06
8.5163589e-08
-2.8086576e-06
2.6381619e-07
-2.7505079e-06
4.4111161e-07
-2.6818532e-06
6.1611293e-07
-2.6032798e-06
7.8796612e-07
-2.5154029e-06
9.558903e-07
-2.4188604e-06
1.1191718e-06
-2.3143082e-06
1.2771644e-06
-2.2024143e-06
1.4292873e-06
-2.0838544e-06
1.5750248e-06
-1.9593079e-06
1.713925e-06
-1.8294527e-06
1.8455979e-06
-1.694962e-06
1.9697136e-06
-1.5565001e-06
2.0860008e-06
-1.4147191e-06
2.1942442e-06
-1.2702553e-06
2.294282e-06
-1.1237268e-06
2.3860039e-06
-9.7573012e-07
2.4693477e-06
-8.2683853e-07
2.5442975e-06
-6.7759933e-07
2.6108789e-06
-5.2853305e-07
2.6691571e-06
-3.8013115e-07
2.7192337e-06
-2.3285513e-07
2.7612419e-06
-8.7138158e-08
2.7953463e-06
5.6607965e-08
2.8217338e-06
1.9804878e-07
2.8406117e-06
3.3682623e-07
2.8522491e-06
4.7263118e-07
2.8568809e-06
6.0518682e-07
2.8547565e-06
7.3424878e-07
2.8461592e-06
8.5959897e-07
2.8313805e-06
9.8104677e-07
2.810713e-06
1.0984287e-06
2.7844544e-06
1.2116068e-06
2.7529053e-06
1.3204669e-06
2.7163679e-06
1.4249178e-06
2.6751422e-06
1.5248901e-06
2.6295266e-06
1.620334e-06
2.5798151e-06
1.7112186e-06
2.5262968e-06
1.7975305e-06
2.4692548e-06
1.8792721e-06
2.4089655e-06
1.9564602e-06
2.3456969e-06
2.0291251e-06
2.2797091e-06
2.0973092e-06
2.2112528e-06
2.1610654e-06
2.14057e-06
2.2204564e-06
2.0678932e-06
2.2755534e-06
1.9934437e-06
1.9174345e-06
-8.6019325e-09
-9.7816271e-08
-3.4354394e-08
-2.9299528e-07
-7.6927056e-08
-4.8529953e-07
-1.3574507e-07
-6.7256954e-07
-2.0996359e-07
-8.5238129e-07
-2.9850038e-07
-1.0225578e-06
-4.0006949e-07
-1.1811716e-06
-5.1321008e-07
-1.3264912e-06
-6.3631819e-07
-1.457004e-06
-7.6768044e-07
-1.5714311e-06
-9.0550829e-07
-1.668737e-06
-1.0479724e-06
-1.7481353e-06
-1.1932357e-06
-1.8090889e-06
-1.3394858e-06
-1.8513062e-06
-1.4849629e-06
-1.8747321e-06
-1.6279868e-06
-1.8795346e-06
-1.7669783e-06
-1.8660884e-06
-1.9004774e-06
-1.8349546e-06
-2.0271578e-06
-1.7868601e-06
-2.1458361e-06
-1.7226734e-06
-2.2554777e-06
-1.6433823e-06
-2.3551992e-06
-1.5500698e-06
-2.4442668e-06
-1.4438926e-06
-2.5220928e-06
-1.3260587e-06
-2.5882291e-06
-1.1978092e-06
-2.6423593e-06
-1.0604002e-06
-2.6842899e-06
-9.150875e-07
-2.7139403e-06
-7.6311291e-07
-2.7313332e-06
-6.0569348e-07
-2.7365842e-06
-4.4401299e-07
-2.7298916e-06
-2.7921268e-07
-2.7115265e-06
-1.1238316e-07
-2.6818399e-06
5.5476982e-08
-2.6412304e-06
2.232067e-07
-2.5901316e-06
3.9001279e-07
-2.5290371e-06
5.5501838e-07
-2.4584712e-06
7.1740022e-07
-2.3789883e-06
8.7640747e-07
-2.2911677e-06
1.0313512e-06
-2.1956074e-06
1.1816041e-06
-2.0929202e-06
1.3266e-06
-1.9837282e-06
1.4658329e-06
-1.8686593e-06
1.5988561e-06
-1.7483419e-06
1.7252805e-06
-1.6234022e-06
1.8447739e-06
-1.4944598e-06
1.9570583e-06
-1.3621245e-06
2.061909e-06
-1.2269937e-06
2.1591512e-06
-1.0896487e-06
2.2486588e-06
-9.5065249e-07
2.3303515e-06
-8.1054753e-07
2.4041926e-06
-6.6985367e-07
2.470185e-06
-5.2906671e-07
2.5283701e-06
-3.8865661e-07
2.5788236e-06
-2.4906703e-07
2.6216524e-06
-1.1071587e-07
2.6569952e-06
2.6002692e-08
2.6850152e-06
1.6076267e-07
2.7058518e-06
2.9320867e-07
2.7198031e-06
4.2304022e-07
2.7270494e-06
5.4998287e-07
2.7278137e-06
6.7379235e-07
2.7223498e-06
7.9425005e-07
2.7109228e-06
9.1116231e-07
2.6938007e-06
1.0243609e-06
2.6712558e-06
1.1337013e-06
2.643565e-06
1.2390624e-06
2.6110068e-06
1.3403442e-06
2.5738604e-06
1.4374679e-06
2.5324029e-06
1.5303735e-06
2.4869095e-06
1.6190189e-06
2.4376513e-06
1.7033791e-06
2.3848946e-06
1.783445e-06
2.3288996e-06
1.8592209e-06
2.2699211e-06
1.9307244e-06
2.2082055e-06
1.9979856e-06
2.1439917e-06
2.0610447e-06
2.077511e-06
2.1199522e-06
2.0089857e-06
2.1747666e-06
1.9386295e-06
1.8666465e-06
-7.8390002e-09
-8.997727e-08
-3.1309084e-08
-2.695252e-07
-7.0118705e-08
-4.4648991e-07
-1.2376011e-07
-6.1892812e-07
-1.9148627e-07
-7.8465513e-07
-2.7233908e-07
-9.4170499e-07
-3.6517869e-07
-1.088332e-06
-4.6870807e-07
-1.2229619e-06
-5.8150052e-07
-1.3442116e-06
-7.0202852e-07
-1.4509031e-06
-8.286934e-07
-1.5420722e-06
-9.5985508e-07
-1.6169736e-06
-1.0938612e-06
-1.6750828e-06
-1.2290745e-06
-1.7160929e-06
-1.3638988e-06
-1.7399078e-06
-1.4968017e-06
-1.7466317e-06
-1.6263349e-06
-1.7365552e-06
-1.7511503e-06
-1.7101392e-06
-1.8700137e-06
-1.6679967e-06
-1.9818139e-06
-1.6108731e-06
-2.0855696e-06
-1.5396267e-06
-2.1804317e-06
-1.4552078e-06
-2.265684e-06
-1.3586401e-06
-2.3407412e-06
-1.2510016e-06
-2.4051438e-06
-1.1334067e-06
-2.4585528e-06
-1.0069912e-06
-2.5007424e-06
-8.7289786e-07
-2.5315921e-06
-7.3226316e-07
-2.5510784e-06
-5.8620727e-07
-2.5592661e-06
-4.3582528e-07
-2.5562995e-06
-2.8217927e-07
-2.5423914e-06
-1.262913e-07
-2.5178436e-06
3.0929143e-08
-2.4829771e-06
1.8834017e-07
-2.4381869e-06
3.4522265e-07
-2.3839015e-06
5.0073295e-07
-2.3205884e-06
6.5408709e-07
-2.2487456e-06
8.045647e-07
-2.1688971e-06
9.515027e-07
-2.0815875e-06
1.0942944e-06
-1.9873773e-06
1.2323898e-06
-1.8868382e-06
1.3652938e-06
-1.7805491e-06
1.492567e-06
-1.6690919e-06
1.6138233e-06
-1.553048e-06
1.72873e-06
-1.4329945e-06
1.8370049e-06
-1.3095013e-06
1.9384157e-06
-1.1831278e-06
2.0327777e-06
-1.0544204e-06
2.1199514e-06
-9.2390967e-07
2.1998408e-06
-7.9210814e-07
2.272391e-06
-6.5950913e-07
2.337586e-06
-5.2658384e-07
2.3954449e-06
-3.93781e-07
2.4460207e-06
-2.615255e-07
2.4893968e-06
-1.3021657e-07
2.5256862e-06
-2.2813654e-10
2.5550268e-06
1.280917e-07
2.577532e-06
2.5442162e-07
2.5934731e-06
3.7847063e-07
2.6030003e-06
4.9996234e-07
2.6063222e-06
6.1865418e-07
2.6036579e-06
7.3432756e-07
2.5952495e-06
8.4678744e-07
2.581341e-06
9.5586161e-07
2.5621815e-06
1.0614013e-06
2.5380253e-06
1.1632791e-06
2.5091291e-06
1.2613886e-06
2.475751e-06
1.3556422e-06
2.4381493e-06
1.4459716e-06
2.3965802e-06
1.5323249e-06
2.3512979e-06
1.6146673e-06
2.3025522e-06
1.6929782e-06
2.2505886e-06
1.7672519e-06
2.1956475e-06
1.8374948e-06
2.1379627e-06
1.903725e-06
2.0777614e-06
1.9659719e-06
2.0152641e-06
2.0242741e-06
1.9506835e-06
2.0786788e-06
1.8842247e-06
1.8160837e-06
-7.1528433e-09
-8.2824428e-08
-2.8570003e-08
-2.4810804e-07
-6.3993621e-08
-4.1106629e-07
-1.1297424e-07
-5.699475e-07
-1.7484987e-07
-7.227795e-07
-2.4877065e-07
-8.6778421e-07
-3.3372413e-07
-1.0033785e-06
-4.2855659e-07
-1.1281294e-06
-5.3199659e-07
-1.2407716e-06
-6.4267991e-07
-1.3402198e-06
-7.5917536e-07
-1.4255767e-06
-8.8001044e-07
-1.4961385e-06
-1.0036968e-06
-1.5513965e-06
-1.1287542e-06
-1.5910355e-06
-1.2537336e-06
-1.6149284e-06
-1.3772373e-06
-1.6231281e-06
-1.4979367e-06
-1.6158557e-06
-1.6145882e-06
-1.5934877e-06
-1.7260449e-06
-1.55654e-06
-1.8312662e-06
-1.5056518e-06
-1.929324e-06
-1.4415688e-06
-2.0194068e-06
-1.365125e-06
-2.1008208e-06
-1.2772262e-06
-2.1729888e-06
-1.1788336e-06
-2.2354475e-06
-1.070948e-06
-2.2878433e-06
-9.5459542e-07
-2.3299265e-06
-8.3081467e-07
-2.3615448e-06
-7.0064484e-07
-2.3826372e-06
-5.6511485e-07
-2.3932262e-06
-4.2523633e-07
-2.3934109e-06
-2.8199459e-07
-2.3833611e-06
-1.3634116e-07
-2.3632792e-06
1.084714e-08
-2.3335126e-06
1.5857372e-07
-2.2943575e-06
3.0606743e-07
-2.2461956e-06
4.52571e-07
-2.1894424e-06
5.973339e-07
-2.1245447e-06
7.3966698e-07
-2.0519753e-06
8.7893328e-07
-1.9722287e-06
1.0145478e-06
-1.8858163e-06
1.1459774e-06
-1.7932625e-06
1.2727401e-06
-1.6951002e-06
1.3944048e-06
-1.5918673e-06
1.5105904e-06
-1.4841026e-06
1.6209653e-06
-1.372343e-06
1.7252453e-06
-1.25712e-06
1.8231928e-06
-1.1389574e-06
1.9146151e-06
-1.0183676e-06
1.9993617e-06
-8.9585024e-07
2.0773234e-06
-7.7188928e-07
2.1484301e-06
-6.4695149e-07
2.2126481e-06
-5.2148461e-07
2.269978e-06
-3.9591601e-07
2.3204521e-06
-2.7065155e-07
2.3641324e-06
-1.4607289e-07
2.4011076e-06
-2.2536699e-08
2.4314905e-06
9.9593664e-08
2.4554017e-06
2.2003541e-07
2.4730314e-06
3.3849618e-07
2.4845396e-06
4.5470537e-07
2.490113e-06
5.6842124e-07
2.4899421e-06
6.794269e-07
2.4842438e-06
7.8752648e-07
2.4732414e-06
8.9254607e-07
2.457162e-06
9.9433366e-07
2.4362377e-06
1.0927568e-06
2.4107059e-06
1.1877033e-06
2.3808044e-06
1.2790794e-06
2.3467732e-06
1.3668086e-06
2.308851e-06
1.4508315e-06
2.267275e-06
1.531104e-06
2.2222797e-06
1.6075966e-06
2.174096e-06
1.680293e-06
2.122951e-06
1.7491904e-06
2.0690653e-06
1.8142964e-06
2.0126553e-06
1.8756299e-06
1.9539307e-06
1.9332192e-06
1.8930942e-06
1.9871013e-06
1.8303427e-06
1.7658642e-06
-6.5346735e-09
-7.6289753e-08
-2.6102133e-08
-2.2854058e-07
-5.8473822e-08
-3.786946e-07
-1.0325106e-07
-5.2517027e-07
-1.5984603e-07
-6.6618453e-07
-2.2750336e-07
-8.0012689e-07
-3.0532205e-07
-9.2555979e-07
-3.9227389e-07
-1.0411776e-06
-4.8722376e-07
-1.1458217e-06
-5.8895129e-07
-1.2384922e-06
-6.9617317e-07
-1.3183549e-06
-8.0756548e-07
-1.3847462e-06
-9.2178592e-07
-1.4371761e-06
-1.0374951e-06
-1.4753263e-06
-1.1533763e-06
-1.4990471e-06
-1.2681542e-06
-1.5083502e-06
-1.3806105e-06
-1.5033994e-06
-1.4895982e-06
-1.4845e-06
-1.5940528e-06
-1.4520854e-06
-1.6930016e-06
-1.4067031e-06
-1.7855697e-06
-1.3490007e-06
-1.8709846e-06
-1.27971e-06
-1.9485781e-06
-1.1996328e-06
-2.017786e-06
-1.1096257e-06
-2.0781469e-06
-1.0105871e-06
-2.1292988e-06
-9.0344355e-07
-2.1709751e-06
-7.891384e-07
-2.2029994e-06
-6.6862056e-07
-2.2252797e-06
-5.4283453e-07
-2.2378031e-06
-4.1271289e-07
-2.2406291e-06
-2.7916861e-07
-2.233883e-06
-1.4308721e-07
-2.2177289e-06
-5.3070066e-09
-2.1924543e-06
1.3329912e-07
-2.15832e-06
2.7193323e-07
-2.1156551e-06
4.0990604e-07
-2.0648276e-06
5.4650643e-07
-2.006236e-06
6.8107538e-07
-1.940306e-06
8.1300325e-07
-1.8674855e-06
9.4172725e-07
-1.78824e-06
1.0667321e-06
-1.7030495e-06
1.1875495e-06
-1.6124037e-06
1.303759e-06
-1.5167988e-06
1.4149854e-06
-1.4167337e-06
1.5209001e-06
-1.3127071e-06
1.6212187e-06
-1.2052143e-06
1.7157e-06
-1.0947445e-06
1.8041453e-06
-9.817783e-07
1.8863955e-06
-8.6678508e-07
1.9623303e-06
-7.5022123e-07
2.0318663e-06
-6.3252828e-07
2.0949552e-06
-5.1413103e-07
2.1515807e-06
-3.9543578e-07
2.201757e-06
-2.7683022e-07
2.2455268e-06
-1.5868106e-07
2.2829585e-06
-4.1334368e-08
2.3141437e-06
7.4877963e-08
2.3391893e-06
1.8965376e-07
2.3582556e-06
3.027226e-07
2.3714707e-06
4.1382046e-07
2.3790151e-06
5.2270745e-07
2.3810551e-06
6.2916816e-07
2.3777831e-06
7.3300795e-07
2.3694016e-06
8.3405203e-07
2.3561178e-06
9.3214553e-07
2.3381442e-06
1.0271533e-06
2.315698e-06
1.1189583e-06
2.2889994e-06
1.2074614e-06
2.2582702e-06
1.2925796e-06
2.2237326e-06
1.3742468e-06
2.1856079e-06
1.4524112e-06
2.1441156e-06
1.5270343e-06
2.0994728e-06
1.5980927e-06
2.0518927e-06
1.6655732e-06
2.0015847e-06
1.7294753e-06
1.9487533e-06
1.7898077e-06
1.8935982e-06
1.8465895e-06
1.8363124e-06
1.8998481e-06
1.7770841e-06
1.7160933e-06
-5.9768295e-09
-7.0312925e-08
-2.3874931e-08
-2.1064248e-07
-5.3491321e-08
-3.4907821e-07
-9.4471626e-08
-4.8418997e-07
-1.462929e-07
-6.1436325e-07
-2.0828237e-07
-7.3813741e-07
-2.7963677e-07
-8.542054e-07
-3.5943805e-07
-9.6137628e-07
-4.4667105e-07
-1.0585887e-06
-5.4024231e-07
-1.144921e-06
-6.3899933e-07
-1.2195978e-06
-7.4175018e-07
-1.2819954e-06
-8.4728287e-07
-1.3316434e-06
-9.5438407e-07
-1.3682251e-06
-1.0618567e-06
-1.3915745e-06
-1.1685364e-06
-1.4016705e-06
-1.273306e-06
-1.3986299e-06
-1.375108e-06
-1.382698e-06
-1.4729554e-06
-1.3542379e-06
-1.5659403e-06
-1.3137182e-06
-1.65324e-06
-1.2617009e-06
-1.7341217e-06
-1.1988283e-06
-1.807945e-06
-1.1258096e-06
-1.874162e-06
-1.0434086e-06
-1.9323178e-06
-9.5243133e-07
-1.9820472e-06
-8.5371411e-07
-2.0230725e-06
-7.4811313e-07
-2.0551989e-06
-6.3649417e-07
-2.0783101e-06
-5.1972333e-07
-2.0923634e-06
-3.9865954e-07
-2.0973846e-06
-2.7414749e-07
-2.0934612e-06
-1.4701058e-07
-2.0807296e-06
-1.8038661e-08
-2.0594136e-06
1.1198309e-07
-2.0297442e-06
2.4226379e-07
-1.9920072e-06
3.7216914e-07
-1.9465256e-06
5.0102494e-07
-1.8936542e-06
6.2820395e-07
-1.8337744e-06
7.5312345e-07
-1.7672909e-06
8.7524382e-07
-1.6946271e-06
9.9406823e-07
-1.6162211e-06
1.1091435e-06
-1.5325223e-06
1.2200601e-06
-1.4439875e-06
1.3264507e-06
-1.3510782e-06
1.4279908e-06
-1.2542567e-06
1.5243972e-06
-1.1539842e-06
1.6154274e-06
-1.0507169e-06
1.700878e-06
-9.4490488e-07
1.7805835e-06
-8.3698918e-07
1.8544145e-06
-7.2739934e-07
1.9222766e-06