/*--------------------------------*- C++ -*----------------------------------*\
| =========                 |                                                 |
| \\      /  F ield         | OpenFOAM: The Open Source CFD Toolbox           |
|  \\    /   O peration     | Version:  2306                                  |
|   \\  /    A nd           | Website:  www.openfoam.com                      |
|    \\/     M anipulation  |                                                 |
\*---------------------------------------------------------------------------*/
FoamFile
{
    version     2.0;
    format      ascii;
    arch        "LSB;label=32;scalar=64";
    class       surfaceScalarField;
    location    "0.47";
    object      phi_0;
}
// * * * * * * * * * * * * * * * * * * * * * * * * * * * * * * * * * * * * * //

dimensions      [0 3 -1 0 0 0 0];

oriented        oriented;

internalField   nonuniform List<scalar> 
12640
(
-1.0522657e-06
1.0075774e-05
-7.2994773e-07
9.8843349e-06
-4.2689224e-07
9.6887326e-06
-1.4234512e-07
9.4897498e-06
1.247715e-07
9.2881636e-06
3.7504456e-07
9.0847694e-06
6.0931074e-07
8.8800374e-06
8.283405e-07
8.6745529e-06
1.0328655e-06
8.4688097e-06
1.2235894e-06
8.2632271e-06
1.4011828e-06
8.0581777e-06
1.566283e-06
7.853988e-06
1.7194937e-06
7.6509431e-06
1.8613861e-06
7.4492907e-06
1.9924995e-06
7.2492473e-06
2.113343e-06
7.0510012e-06
2.2243965e-06
6.8547165e-06
2.3261117e-06
6.6605379e-06
2.4189139e-06
6.4685907e-06
2.5032042e-06
6.2789864e-06
2.5793608e-06
6.0918211e-06
2.6477399e-06
5.9071824e-06
2.7086788e-06
5.7251471e-06
2.7624956e-06
5.5457837e-06
2.8094924e-06
5.3691542e-06
2.8499556e-06
5.1953135e-06
2.8841572e-06
5.0243119e-06
2.9123564e-06
4.8561954e-06
2.9347999e-06
4.6910049e-06
2.9517236e-06
4.528778e-06
2.9633518e-06
4.3695485e-06
2.9699015e-06
4.2133474e-06
2.9715784e-06
4.0602035e-06
2.968581e-06
3.9101411e-06
2.9610987e-06
3.7631835e-06
2.9493153e-06
3.6193512e-06
2.933406e-06
3.4786615e-06
2.9135393e-06
3.3411305e-06
2.8898782e-06
3.2067719e-06
2.8625784e-06
3.075598e-06
2.8317907e-06
2.9476169e-06
2.797659e-06
2.8228396e-06
2.7603215e-06
2.7012707e-06
2.7199136e-06
2.5829159e-06
2.6765621e-06
2.4677791e-06
2.6303914e-06
2.3558623e-06
2.5815199e-06
2.2471673e-06
2.5300597e-06
2.1416938e-06
2.4761225e-06
2.0394428e-06
2.4198117e-06
1.9404121e-06
2.3612274e-06
1.8446011e-06
2.3004664e-06
1.7520064e-06
2.2376207e-06
1.662627e-06
2.1727771e-06
1.5764579e-06
2.106015e-06
1.4934998e-06
2.0374286e-06
1.4137526e-06
1.9670851e-06
1.3372094e-06
1.89506e-06
1.2638711e-06
1.8214241e-06
1.1937376e-06
1.7462433e-06
1.126809e-06
1.6695823e-06
1.0630842e-06
1.5915024e-06
1.0025666e-06
1.5120671e-06
9.4525358e-07
1.4313262e-06
8.9116298e-07
1.3493233e-06
8.4028614e-07
1.2661357e-06
7.9264007e-07
1.1817792e-06
7.4822423e-07
1.0963342e-06
7.0706276e-07
1.0098228e-06
6.6915655e-07
9.2231411e-07
6.3450713e-07
8.3381792e-07
6.0317665e-07
7.443904e-07
5.7513576e-07
6.5407325e-07
5.5042455e-07
5.6289907e-07
5.2905005e-07
4.709123e-07
5.1105422e-07
3.7815196e-07
4.9642055e-07
2.8463241e-07
4.8514857e-07
1.9041931e-07
4.7720306e-07
9.5530019e-08
4.724466e-07
4.7082322e-07
-1.3674541e-06
9.734694e-06
-1.0455895e-06
9.5624704e-06
-7.4214358e-07
9.3852864e-06
-4.56363e-07
9.2039693e-06
-1.8753795e-07
9.0193386e-06
6.5115088e-08
8.8321163e-06
3.0220028e-07
8.6429521e-06
5.2445727e-07
8.4522959e-06
7.3255239e-07
8.2607144e-06
9.2714188e-07
8.0686376e-06
1.1088488e-06
7.8764706e-06
1.2782677e-06
7.6845692e-06
1.435965e-06
7.4932457e-06
1.5824802e-06
7.3027755e-06
1.7183253e-06
7.1134022e-06
1.8439856e-06
6.9253407e-06
1.9599206e-06
6.7387816e-06
2.0665653e-06
6.5538931e-06
2.1643312e-06
6.3708249e-06
2.2536073e-06
6.1897102e-06
2.3347614e-06
6.010667e-06
2.4081414e-06
5.8338025e-06
2.4740776e-06
5.6592107e-06
2.5328836e-06
5.4869779e-06
2.5848557e-06
5.3171821e-06
2.6302766e-06
5.1498925e-06
2.6694148e-06
4.9851737e-06
2.7025269e-06
4.8230834e-06
2.7298574e-06
4.6636745e-06
2.7516399e-06
4.5069955e-06
2.7680977e-06
4.3530907e-06
2.7794448e-06
4.2020005e-06
2.7858865e-06
4.0537617e-06
2.7876193e-06
3.9084083e-06
2.7848325e-06
3.7659705e-06
2.7777081e-06
3.6264756e-06
2.766421e-06
3.4899487e-06
2.7511383e-06
3.3564133e-06
2.7320218e-06
3.2258885e-06
2.7092277e-06
3.098392e-06
2.6829048e-06
2.9739397e-06
2.6531972e-06
2.8525473e-06
2.6202436e-06
2.7342244e-06
2.584179e-06
2.6189806e-06
2.5451284e-06
2.5068298e-06
2.5032177e-06
2.3977733e-06
2.458564e-06
2.2918209e-06
2.4112813e-06
2.1889764e-06
2.3614801e-06
2.0892441e-06
2.3092646e-06
1.9926275e-06
2.2547358e-06
1.8991298e-06
2.1979904e-06
1.8087519e-06
2.1391211e-06
1.7214962e-06
2.0782168e-06
1.6373623e-06
2.0153616e-06
1.5563548e-06
1.9506403e-06
1.4784741e-06
1.8841286e-06
1.4037211e-06
1.8159022e-06
1.3320975e-06
1.7460356e-06
1.2636042e-06
1.6745929e-06
1.1982515e-06
1.6016417e-06
1.1360354e-06
1.5272456e-06
1.0769627e-06
1.4514609e-06
1.0210382e-06
1.3743525e-06
9.6827142e-07
1.2959706e-06
9.1866794e-07
1.2163721e-06
8.7223869e-07
1.1356033e-06
8.2899289e-07
1.0537202e-06
7.8894589e-07
9.7076946e-07
7.521076e-07
8.8678562e-07
7.1849098e-07
8.0183245e-07
6.8812977e-07
7.1593993e-07
6.6102822e-07
6.2915376e-07
6.3721077e-07
5.4150986e-07
6.1669396e-07
4.5305669e-07
5.9950735e-07
3.638483e-07
5.8562913e-07
2.7388271e-07
5.7511428e-07
1.8323367e-07
5.6785204e-07
9.19274e-08
5.6375296e-07
5.6275063e-07
-1.6593358e-06
9.3959404e-06
-1.3388348e-06
9.2419695e-06
-1.0359382e-06
9.0823898e-06
-7.5001745e-07
8.9180486e-06
-4.8039457e-07
8.7497158e-06
-2.2642271e-07
8.5781445e-06
1.2595557e-08
8.4039339e-06
2.3723607e-07
8.2276555e-06
4.4806191e-07
8.0498886e-06
6.4572054e-07
7.8709791e-06
8.3078298e-07
7.6914081e-06
1.0037998e-06
7.5115523e-06
1.1653e-06
7.3317455e-06
1.31579e-06
7.1522855e-06
1.4557529e-06
6.9734391e-06
1.5856497e-06
6.795444e-06
1.7059183e-06
6.618513e-06
1.816975e-06
6.4428365e-06
1.9192152e-06
6.2685846e-06
2.0130138e-06
6.0959115e-06
2.0987275e-06
5.9249535e-06
2.1766948e-06
5.7558351e-06
2.247237e-06
5.5886686e-06
2.31066e-06
5.4235549e-06
2.3672547e-06
5.2605875e-06
2.4172979e-06
5.0998493e-06
2.4610543e-06
4.9414174e-06
2.4987759e-06
4.7853617e-06
2.5307038e-06
4.6317463e-06
2.5570695e-06
4.4806297e-06
2.5780929e-06
4.3320675e-06
2.5939854e-06
4.1861079e-06
2.6049509e-06
4.0427963e-06
2.6111838e-06
3.9021752e-06
2.6128718e-06
3.7642824e-06
2.6101952e-06
3.6291523e-06
2.6033264e-06
3.4968172e-06
2.5924329e-06
3.3673067e-06
2.5776755e-06
3.2406458e-06
2.5592079e-06
3.1168598e-06
2.537178e-06
2.9959695e-06
2.5117324e-06
2.877993e-06
2.4830054e-06
2.7629512e-06
2.4511303e-06
2.6508557e-06
2.4162374e-06
2.5417227e-06
2.3784475e-06
2.4355633e-06
2.3378796e-06
2.3323887e-06
2.2946478e-06
2.2322084e-06
2.2488608e-06
2.135031e-06
2.2006243e-06
2.040864e-06
2.1500397e-06
1.9497145e-06
2.0972037e-06
1.8615878e-06
2.0422107e-06
1.7764895e-06
1.9851484e-06
1.6944245e-06
1.9261043e-06
1.615399e-06
1.8651607e-06
1.5394175e-06
1.8023966e-06
1.4664854e-06
1.7378927e-06
1.3966015e-06
1.6717135e-06
1.3297835e-06
1.6039368e-06
1.2660282e-06
1.5346236e-06
1.2053487e-06
1.463842e-06
1.1477444e-06
1.3916528e-06
1.0932275e-06
1.3181168e-06
1.0418076e-06
1.2432904e-06
9.9349431e-07
1.1672303e-06
9.4829884e-07
1.0899891e-06
9.0623427e-07
1.0116177e-06
8.6731733e-07
9.3216468e-07
8.3156032e-07
8.5168921e-07
7.9896644e-07
7.7022151e-07
7.6959752e-07
6.8781682e-07
7.4343275e-07
6.0451933e-07
7.205081e-07
5.2036952e-07
7.0084402e-07
4.3541698e-07
6.8445963e-07
3.4968428e-07
6.7136188e-07
2.6324637e-07
6.6155209e-07
1.7612625e-07
6.5497227e-07
8.8364173e-08
6.5151487e-07
6.5111501e-07
-1.9288492e-06
9.0604354e-06
-1.6106674e-06
8.9237878e-06
-1.3092615e-06
8.7809838e-06
-1.0240655e-06
8.6328527e-06
-7.5453526e-07
8.4801854e-06
-5.0001311e-07
8.3236224e-06
-2.5993871e-07
8.1638594e-06
-3.3796541e-08
8.0015134e-06
1.790828e-07
7.8370093e-06
3.7907022e-07
7.6709917e-06
5.6677798e-07
7.5037002e-06
7.4271222e-07
7.3356179e-06
9.0736574e-07
7.167092e-06
1.061212e-06
6.9984392e-06
1.2047058e-06
6.8299453e-06
1.3382815e-06
6.6618682e-06
1.4623546e-06
6.4944399e-06
1.5773213e-06
6.3278697e-06
1.6835602e-06
6.1623459e-06
1.7814311e-06
5.9980405e-06
1.8712776e-06
5.835107e-06
1.9534263e-06
5.6736863e-06
2.0281895e-06
5.5139054e-06
2.0958636e-06
5.3558808e-06
2.1567328e-06
5.1997183e-06
2.2110675e-06
5.0455145e-06
2.2591268e-06
4.8933582e-06
2.3011576e-06
4.7433311e-06
2.3373968e-06
4.5955069e-06
2.368071e-06
4.4499555e-06
2.393398e-06
4.3067407e-06
2.4135864e-06
4.1659197e-06
2.4288357e-06
4.027547e-06
2.4393392e-06
3.8916716e-06
2.4452821e-06
3.7583393e-06
2.446842e-06
3.6275924e-06
2.4441905e-06
3.4994689e-06
2.4374925e-06
3.3740045e-06
2.4269072e-06
3.2512311e-06
2.4125879e-06
3.1311791e-06
2.394682e-06
3.0138755e-06
2.3733305e-06
2.8993444e-06
2.3486734e-06
2.7876084e-06
2.3208389e-06
2.6786903e-06
2.2899581e-06
2.5726034e-06
2.2561507e-06
2.4693705e-06
2.219534e-06
2.3690056e-06
2.1802259e-06
2.2715166e-06
2.1383305e-06
2.1769263e-06
2.0939565e-06
2.0852381e-06
2.0472038e-06
1.9964672e-06
1.9981707e-06
1.9106208e-06
1.9469505e-06
1.8277097e-06
1.8936329e-06
1.7477421e-06
1.8383051e-06
1.6707269e-06
1.7810506e-06
1.5966722e-06
1.7219489e-06
1.5255869e-06
1.6610822e-06
1.4574681e-06
1.5985155e-06
1.39235e-06
1.534324e-06
1.33022e-06
1.468579e-06
1.2710933e-06
1.4013443e-06
1.214979e-06
1.3326836e-06
1.1618882e-06
1.2626577e-06
1.1118333e-06
1.1913267e-06
1.0648254e-06
1.1187469e-06
1.0208789e-06
1.044978e-06
9.8000322e-07
9.7006583e-07
9.4222944e-07
8.9406834e-07
9.0755784e-07
8.1702103e-07
8.7601384e-07
7.3900628e-07
8.476118e-07
6.6003938e-07
8.2239995e-07
5.8018632e-07
8.0036096e-07
4.9948164e-07
7.8154883e-07
4.1797651e-07
7.6596474e-07
3.3571138e-07
7.5362698e-07
2.5274449e-07
7.4451874e-07
1.6910446e-07
7.3861266e-07
8.4844227e-08
7.3577493e-07
7.3595917e-07
-2.1769464e-06
8.7289748e-06
-1.8618987e-06
8.6087402e-06
-1.5627838e-06
8.4818688e-06
-1.2791158e-06
8.3491846e-06
-1.0103654e-06
8.2114351e-06
-7.5606967e-07
8.0693267e-06
-5.1572164e-07
7.9235114e-06
-2.8878614e-07
7.7745779e-06
-7.4788809e-08
7.623012e-06
1.2689725e-07
7.4693056e-06
3.1658802e-07
7.3140096e-06
4.9479911e-07
7.1574069e-06
6.6199182e-07
6.9998993e-06
8.1860796e-07
6.841823e-06
9.6507223e-07
6.6834809e-06
1.1017932e-06
6.5251472e-06
1.2291626e-06
6.3670704e-06
1.3475565e-06
6.2094758e-06
1.4573338e-06
6.0525685e-06
1.5588399e-06
5.8965345e-06
1.6524025e-06
5.7415443e-06
1.7383374e-06
5.5877516e-06
1.8169445e-06
5.4352983e-06
1.8885116e-06
5.2843137e-06
1.9533142e-06
5.1349158e-06
2.0116151e-06
4.9872136e-06
2.0636664e-06
4.841307e-06
2.1097101e-06
4.6972874e-06
2.1499768e-06
4.55524e-06
2.1846894e-06
4.4152431e-06
2.2140611e-06
4.277369e-06
2.2382962e-06
4.1416844e-06
2.2575927e-06
4.0082508e-06
2.2721388e-06
3.8771255e-06
2.2821176e-06
3.7483605e-06
2.2877049e-06
3.6220052e-06
2.2890694e-06
3.4981044e-06
2.2863744e-06
3.3766996e-06
2.2797767e-06
3.2578288e-06
2.2694278e-06
3.1415278e-06
2.2554748e-06
3.0278285e-06
2.2380563e-06
2.9167629e-06
2.2173099e-06
2.8083547e-06
2.1933666e-06
2.7026335e-06
2.1663504e-06
2.5996196e-06
2.1363862e-06
2.4993347e-06
2.1035903e-06
2.4018012e-06
2.0680736e-06
2.3070334e-06
2.0299482e-06
2.2150518e-06
1.9893204e-06
2.1258659e-06
1.9462868e-06
2.0395007e-06
1.9009478e-06
1.9559599e-06
1.853397e-06
1.8752607e-06
1.8037251e-06
1.7974138e-06
1.7520187e-06
1.7224333e-06
1.6983628e-06
1.6503282e-06
1.6428386e-06
1.5811112e-06
1.5855145e-06
1.5147922e-06
1.526487e-06
1.4513775e-06
1.4658074e-06
1.3908994e-06
1.4035552e-06
1.3333456e-06
1.3397967e-06
1.2787378e-06
1.2745958e-06
1.2270891e-06
1.2080161e-06
1.178413e-06
1.1401178e-06
1.1327238e-06
1.0709601e-06
1.0900364e-06
1.0005957e-06
1.0503677e-06
9.2908801e-07
1.0137369e-06
8.5648903e-07
9.8015687e-07
7.8284476e-07
9.4965799e-07
7.0820631e-07
9.2225038e-07
6.3263669e-07
8.9796958e-07
5.5617218e-07
8.7682521e-07
4.7886781e-07
8.5885324e-07
4.0076766e-07
8.4406474e-07
3.2192192e-07
8.3247278e-07
2.4237269e-07
8.2406808e-07
1.6216959e-07
8.1881564e-07
8.1368161e-08
8.1657639e-07
8.1732739e-07
-2.4045888e-06
8.4022606e-06
-2.0933811e-06
8.2975324e-06
-1.7972799e-06
8.1857679e-06
-1.5158702e-06
8.0677748e-06
-1.2487285e-06
7.9442934e-06
-9.9540565e-07
7.8160038e-06
-7.5542635e-07
7.6835322e-06
-5.2831679e-07
7.5474682e-06
-3.1371149e-07
7.4084068e-06
-1.1112191e-07
7.266716e-06
7.9935705e-08
7.122952e-06
2.5982068e-07
6.9775218e-06
4.2897387e-07
6.8307461e-06
5.8780443e-07
6.6829924e-06
7.367076e-07
6.5345778e-06
8.7606483e-07
6.38579e-06
1.0062446e-06
6.2368906e-06
1.1276011e-06
6.0881194e-06
1.2404749e-06
5.9396947e-06
1.345193e-06
5.7918165e-06
1.4420698e-06
5.6446675e-06
1.531406e-06
5.4984153e-06
1.6134908e-06
5.3532134e-06
1.6886013e-06
5.2092033e-06
1.7570031e-06
5.0665141e-06
1.818951e-06
4.9252656e-06
1.8746901e-06
4.7855679e-06
1.9244549e-06
4.6475228e-06
1.9684709e-06
4.5112242e-06
2.0069547e-06
4.3767592e-06
2.040115e-06
4.2442087e-06
2.0681528e-06
4.1136465e-06
2.0912606e-06
3.9851431e-06
2.1096246e-06
3.8587614e-06
2.1234236e-06
3.7345617e-06
2.1328306e-06
3.612598e-06
2.1380121e-06
3.4929229e-06
2.1391286e-06
3.3755832e-06
2.1363346e-06
3.2606228e-06
2.1297799e-06
3.1480825e-06
2.1196081e-06
3.0380003e-06
2.10596e-06
2.9304109e-06
2.0889683e-06
2.8253465e-06
2.0687634e-06
2.7228381e-06
2.0454713e-06
2.6229119e-06
2.0192105e-06
2.5255956e-06
1.9901006e-06
2.4309109e-06
1.9582513e-06
2.3388829e-06
1.9237733e-06
2.2495296e-06
1.8867686e-06
2.1628707e-06
1.8473423e-06
2.0789268e-06
1.8055886e-06
1.9977133e-06
1.7616043e-06
1.9192454e-06
1.7154763e-06
1.8435418e-06
1.6672959e-06
1.7706138e-06
1.6171446e-06
1.7004794e-06
1.5651052e-06
1.6331505e-06
1.5112564e-06
1.5686412e-06
1.455669e-06
1.5069651e-06
1.3984268e-06
1.4481417e-06
1.3395936e-06
1.3921786e-06
1.2792387e-06
1.3390929e-06
1.2174283e-06
1.2888994e-06
1.1542267e-06
1.2416146e-06
1.0896957e-06
1.1972546e-06
1.0238955e-06
1.1558367e-06
9.5688459e-07
1.1173786e-06
8.8872167e-07
1.0819e-06
8.194589e-07
1.0494196e-06
7.4915441e-07
1.0199623e-06
6.7785689e-07
9.9354817e-07
6.0562369e-07
9.7020301e-07
5.3250265e-07
9.4994618e-07
4.5854515e-07
9.3281075e-07
3.838012e-07
9.188088e-07
3.0831883e-07
9.0795521e-07
2.3215769e-07
9.0022913e-07
1.5535392e-07
8.9561953e-07
7.7950259e-08
8.9398025e-07
8.9527764e-07
-2.6127567e-06
8.0809176e-06
-2.3060192e-06
7.990795e-06
-2.0135787e-06
7.8933273e-06
-1.7350748e-06
7.7892708e-06
-1.4701404e-06
7.679359e-06
-1.2183954e-06
7.5642588e-06
-9.7943283e-07
7.4445697e-06
-7.5289151e-07
7.3209268e-06
-5.3828752e-07
7.1938029e-06
-3.3530673e-07
7.0637352e-06
-1.4351255e-07
6.9311577e-06
3.7502049e-08
6.7965071e-06
2.0807712e-07
6.660171e-06
3.685998e-07
6.5224697e-06
5.1943907e-07
6.3837386e-06
6.6095002e-07
6.2442791e-06
7.934768e-07
6.1043638e-06
9.1735233e-07
5.964244e-06
1.0328973e-06
5.8241497e-06
1.1404216e-06
5.6842921e-06
1.2402234e-06
5.5448659e-06
1.3325895e-06
5.4060492e-06
1.4177962e-06
5.2680067e-06
1.4961099e-06
5.1308897e-06
1.5677859e-06
4.9948382e-06
1.6330699e-06
4.8599817e-06
1.6921977e-06
4.72644e-06
1.7453981e-06
4.5943225e-06
1.7928896e-06
4.4637325e-06
1.8348828e-06
4.3347661e-06
1.8715806e-06
4.2075107e-06
1.9031796e-06
4.0820476e-06
1.9298678e-06
3.9584548e-06
1.9518269e-06
3.8368022e-06
1.9692331e-06
3.7171554e-06
1.9822548e-06
3.5995765e-06
1.9910558e-06
3.4841219e-06
1.9957944e-06
3.3708446e-06
1.9966219e-06
3.2597952e-06
1.9936858e-06
3.1510185e-06
1.9871288e-06
3.0445573e-06
1.9770877e-06
2.940452e-06
1.9636955e-06
2.8387388e-06
1.9470801e-06
2.7394535e-06
1.9273662e-06
2.6426259e-06
1.9046719e-06
2.5482898e-06
1.8791137e-06
2.4564691e-06
1.8508035e-06
2.3671931e-06
1.8198489e-06
2.2804844e-06
1.7863531e-06
2.1963664e-06
1.7504188e-06
2.1148612e-06
1.7121419e-06
2.0359903e-06
1.6716164e-06
1.9597707e-06
1.6289333e-06
1.8862249e-06
1.5841796e-06
1.8153675e-06
1.537441e-06
1.7472181e-06
1.4887988e-06
1.6817927e-06
1.4383313e-06
1.6191086e-06
1.3861146e-06
1.5591817e-06
1.3322252e-06
1.5020312e-06
1.2767334e-06
1.4476705e-06
1.2197081e-06
1.3961181e-06
1.161217e-06
1.3473905e-06
1.1013248e-06
1.3015069e-06
1.040095e-06
1.2584846e-06
9.7758908e-07
1.2183425e-06
9.1386775e-07
1.1811002e-06
8.4898871e-07
1.1467792e-06
7.8300863e-07
1.1153996e-06
7.1598438e-07
1.0869867e-06
6.4797063e-07
1.0615618e-06
5.7902102e-07
1.0391528e-06
5.0918941e-07
1.0197777e-06
4.3852784e-07
1.0034721e-06
3.670882e-07
9.9024868e-07
2.949259e-07
9.8011757e-07
2.2207792e-07
9.7307677e-07
1.4861597e-07
9.6908142e-07
7.4572976e-08
9.6802294e-07
9.6985053e-07
-2.8023721e-06
7.7654613e-06
-2.5006702e-06
7.6890931e-06
-2.2124516e-06
7.6051086e-06
-1.937434e-06
7.5142532e-06
-1.6752963e-06
7.4172215e-06
-1.4257208e-06
7.3146834e-06
-1.18838e-06
7.2072288e-06
-9.6287829e-07
7.095425e-06
-7.4888914e-07
6.9798138e-06
-5.460672e-07
6.8609132e-06
-3.5403581e-07
6.7391263e-06
-1.7246673e-07
6.6149382e-06
-9.7336454e-10
6.4886777e-06
1.6076622e-07
6.3607301e-06
3.1306878e-07
6.2314361e-06
4.5627637e-07
6.1010715e-06
5.9071077e-07
5.9699293e-06
7.1668294e-07
5.8382718e-06
8.344936e-07
5.7063389e-06
9.4443423e-07
5.5743515e-06
1.0467871e-06
5.4425129e-06
1.1418246e-06
5.3110118e-06
1.2298101e-06
5.1800214e-06
1.3109973e-06
5.0497026e-06
1.3856315e-06
4.920204e-06
1.4539477e-06
4.7916656e-06
1.5161753e-06
4.6642125e-06
1.5725324e-06
4.5379654e-06
1.6232316e-06
4.4130333e-06
1.6684776e-06
4.2895201e-06
1.708467e-06
4.1675212e-06
1.7433899e-06
4.0471248e-06
1.7734307e-06
3.9284141e-06
1.798767e-06
3.811466e-06
1.8195695e-06
3.6963529e-06
1.8360036e-06
3.5831424e-06
1.8482298e-06
3.4718956e-06
1.8564027e-06
3.3626719e-06
1.8606719e-06
3.255526e-06
1.8611818e-06
3.1505088e-06
1.8580721e-06
3.0476669e-06
1.8514782e-06
2.9470458e-06
1.8415306e-06
2.8486863e-06
1.8283563e-06
2.7526278e-06
1.8120764e-06
2.6589059e-06
1.792811e-06
2.5675553e-06
1.7706723e-06
2.4786078e-06
1.7457729e-06
2.3920925e-06
1.7182192e-06
2.3080381e-06
1.6881143e-06
2.2264711e-06
1.6555581e-06
2.1474172e-06
1.6206484e-06
2.0709e-06
1.5834775e-06
1.9969415e-06
1.5441377e-06
1.9255648e-06
1.5027145e-06
1.8567907e-06
1.4592943e-06
1.7906385e-06
1.4139583e-06
1.7271288e-06
1.366786e-06
1.6662808e-06
1.3178542e-06
1.6081138e-06
1.2672382e-06
1.552647e-06
1.2150099e-06
1.4998988e-06
1.1612385e-06
1.4498894e-06
1.105995e-06
1.4026339e-06
1.0493419e-06
1.35816e-06
9.9134545e-07
1.3164811e-06
9.3206845e-07
1.2776194e-06
8.7157165e-07
1.2415969e-06
8.0991492e-07
1.2084358e-06
7.4715632e-07
1.1781582e-06
6.8335442e-07
1.1507886e-06
6.1856703e-07
1.1263495e-06
5.5284681e-07
1.1048729e-06
4.8624704e-07
1.0863776e-06
4.1882689e-07
1.0708924e-06
3.5063826e-07
1.058437e-06
2.8173208e-07
1.0490237e-06
2.1216314e-07
1.0426457e-06
1.4198607e-07
1.0392586e-06
7.1249051e-08
1.0387599e-06
1.0410996e-06
-2.9743968e-06
7.4563537e-06
-2.6781998e-06
7.3928959e-06
-2.3947076e-06
7.3216164e-06
-2.1236794e-06
7.2432251e-06
-1.8648653e-06
7.1584073e-06
-1.6179635e-06
7.0677817e-06
-1.3827201e-06
6.9719854e-06
-1.1588161e-06
6.8715211e-06
-9.4595059e-07
6.7669483e-06
-7.4379529e-07
6.658758e-06
-5.5206103e-07
6.5473919e-06
-3.7034605e-07
6.4332231e-06
-1.9844104e-07
6.3167729e-06
-3.5973487e-08
6.1982624e-06
1.1737642e-07
6.0780863e-06
2.618494e-07
5.9565985e-06
3.9777635e-07
5.8340025e-06
5.2544449e-07
5.7106037e-06
6.4513423e-07
5.5866491e-06
7.5711955e-07
5.4623661e-06
8.6166586e-07
5.3379666e-06
9.5903052e-07
5.2136471e-06
1.0494636e-06
5.0895882e-06
1.1332067e-06
4.9659596e-06
1.2104928e-06
4.8429179e-06
1.2815486e-06
4.7206097e-06
1.3465925e-06
4.5991685e-06
1.405836e-06
4.478722e-06
1.4594824e-06
4.3593868e-06
1.5077299e-06
4.2412727e-06
1.5507694e-06
4.1244818e-06
1.5887851e-06
4.009109e-06
1.6219559e-06
3.8952433e-06
1.6504534e-06
3.7829682e-06
1.6744454e-06
3.6723609e-06
1.6940933e-06
3.5634944e-06
1.7095533e-06
3.4564356e-06
1.7209764e-06
3.351249e-06
1.7285093e-06
3.2479929e-06
1.7322938e-06
3.1467243e-06
1.7324667e-06
3.047494e-06
1.7291612e-06
2.9503514e-06
1.7225054e-06
2.855342e-06
1.7126241e-06
2.7625093e-06
1.6996374e-06
2.6718926e-06
1.6836629e-06
2.5835297e-06
1.6648133e-06
2.4974575e-06
1.6431977e-06
2.4137081e-06
1.6189221e-06
2.3323134e-06
1.5920892e-06
2.2533041e-06
1.5627984e-06
2.1767083e-06
1.531146e-06
2.1025524e-06
1.4972243e-06
2.030863e-06
1.461127e-06
1.9616619e-06
1.4229361e-06
1.8949815e-06
1.3827398e-06
1.8308347e-06
1.3406194e-06
1.7692495e-06
1.2966549e-06
1.7102454e-06
1.2509222e-06
1.6538464e-06
1.2034978e-06
1.6000716e-06
1.1544552e-06
1.5489413e-06
1.1038628e-06
1.5004816e-06
1.0517898e-06
1.454707e-06
9.9830584e-07
1.4116439e-06
9.4347391e-07
1.3713132e-06
8.8735813e-07
1.3337351e-06
8.3002114e-07
1.2989338e-06
7.7152366e-07
1.266933e-06
7.1192481e-07
1.2377569e-06
6.5128266e-07
1.2114308e-06
5.8966507e-07
1.1879671e-06
5.2711238e-07
1.1674256e-06
4.636918e-07
1.1497984e-06
3.9945553e-07
1.1351285e-06
3.3446035e-07
1.1234323e-06
2.6876109e-07
1.1147228e-06
2.0241317e-07
1.108994e-06
1.3546894e-07
1.1062028e-06
6.7981479e-08
1.1062474e-06
1.1090811e-06
-3.1297405e-06
7.1539758e-06
-2.8394561e-06
7.1026114e-06
-2.5611081e-06
7.0432685e-06
-2.2945169e-06
6.9766339e-06
-2.039466e-06
6.9033564e-06
-1.7957447e-06
6.8240604e-06
-1.5630729e-06
6.7393136e-06
-1.3412273e-06
6.6496755e-06
-1.1299324e-06
6.5556535e-06
-9.2889663e-07
6.4577222e-06
-7.3785042e-07
6.3563458e-06
-5.5654383e-07
6.2519164e-06
-3.8460489e-07
6.1448339e-06
-2.2182979e-07
6.0354872e-06
-6.7924341e-08
5.9241809e-06
7.7453674e-08
5.8112205e-06
2.1448457e-07
5.6969715e-06
3.4347073e-07
5.5816175e-06
4.64674e-07
5.465446e-06
5.7834956e-07
5.3486906e-06
6.8474702e-07
5.2315691e-06
7.8410996e-07
5.1142844e-06
8.7667282e-07
4.9970252e-06
9.6266487e-07
4.8799676e-06
1.0423087e-06
4.7632742e-06
1.1158197e-06
4.6470985e-06
1.1834069e-06
4.5315814e-06
1.2452725e-06
4.4168561e-06
1.3016134e-06
4.3030458e-06
1.3526189e-06
4.1902672e-06
1.3984732e-06
4.0786275e-06
1.439355e-06
3.9682271e-06
1.475437e-06
3.8591612e-06
1.5068866e-06
3.7515187e-06
1.5338658e-06
3.6453818e-06
1.5565322e-06
3.5408281e-06
1.5750375e-06
3.4379303e-06
1.5895294e-06
3.336757e-06
1.600151e-06
3.2373715e-06
1.6070414e-06
3.139834e-06
1.6103341e-06
3.0442015e-06
1.6101596e-06
2.9505258e-06
1.6066441e-06
2.8588575e-06
1.5999104e-06
2.769243e-06
1.5900764e-06
2.6817264e-06
1.5772574e-06
2.5963488e-06
1.561565e-06
2.5131498e-06
1.5431074e-06
2.4321657e-06
1.5219887e-06
2.3534319e-06
1.4983107e-06
2.2769821e-06
1.4721723e-06
2.2028467e-06
1.4436682e-06
2.1310565e-06
1.4128923e-06
2.0616392e-06
1.3799309e-06
1.9946234e-06
1.3448755e-06
1.930037e-06
1.3078103e-06
1.8678998e-06
1.2688135e-06
1.8082462e-06
1.227968e-06
1.7510907e-06
1.1853503e-06
1.6964641e-06
1.1410356e-06
1.6443863e-06
1.0950965e-06
1.5948805e-06
1.047606e-06
1.5479723e-06
9.9863247e-07
1.5036805e-06
9.4824312e-07
1.4620333e-06
8.965048e-07
1.4230515e-06
8.4348289e-07
1.386757e-06
7.8923855e-07
1.3531782e-06
7.3383493e-07
1.3223364e-06
6.7733411e-07
1.2942579e-06
6.1979631e-07
1.2689684e-06
5.6127287e-07
1.2464906e-06
5.0183463e-07
1.2268638e-06
4.4153097e-07
1.210102e-06
3.8042324e-07
1.1962363e-06
3.1856575e-07
1.1852898e-06
2.5601668e-07
1.1772721e-06
1.9283021e-07
1.1721803e-06
1.2906371e-07
1.1699694e-06
6.4769937e-08
1.1705416e-06
1.1738511e-06
-3.2693025e-06
6.8586459e-06
-2.9852774e-06
6.8185864e-06
-2.7124484e-06
6.7704394e-06
-2.4506741e-06
6.7148597e-06
-2.1997973e-06
6.6524797e-06
-1.959627e-06
6.5838899e-06
-1.7299732e-06
6.5096597e-06
-1.5106102e-06
6.4303124e-06
-1.3012983e-06
6.3463414e-06
-1.1018164e-06
6.2582402e-06
-9.1189986e-07
6.1664293e-06
-7.3132621e-07
6.0713428e-06
-5.5980514e-07
5.9733128e-06
-3.9709798e-07
5.8727802e-06
-2.429586e-07
5.7700414e-06
-9.7145611e-08
5.6654074e-06
4.0630903e-08
5.5591949e-06
1.7057958e-07
5.4516689e-06
2.9294929e-07
5.3430762e-06
4.0797915e-07
5.2336608e-06
5.1590315e-07
5.1236452e-06
6.1694842e-07
5.013239e-06
7.1133725e-07
4.9026365e-06
7.9928578e-07
4.7920192e-06
8.8100393e-07
4.6815563e-06
9.5669667e-07
4.5714055e-06
1.0265634e-06
4.4617147e-06
1.0907975e-06
4.3526221e-06
1.1495861e-06
4.2442573e-06
1.203112e-06
4.136741e-06
1.2515531e-06
4.0301866e-06
1.2950804e-06
3.9246999e-06
1.333861e-06
3.8203806e-06
1.368057e-06
3.7173227e-06
1.3978254e-06
3.6156135e-06
1.4233187e-06
3.5153348e-06
1.4446849e-06
3.416564e-06
1.4620677e-06
3.3193741e-06
1.475606e-06
3.2238331e-06
1.4854359e-06
3.1300041e-06
1.4916883e-06
3.037949e-06
1.4944904e-06
2.9477237e-06
1.4939664e-06
2.8593817e-06
1.4902357e-06
2.7729736e-06
1.4834159e-06
2.6885462e-06
1.4736181e-06
2.6061468e-06
1.4609536e-06
2.5258141e-06
1.4455284e-06
2.447591e-06
1.4274458e-06
2.3715147e-06
1.4068057e-06
2.2976222e-06
1.383707e-06
2.2259454e-06
1.3582425e-06
2.1565209e-06
1.3305052e-06
2.0893764e-06
1.3005829e-06
2.0245455e-06
1.2685649e-06
1.9620551e-06
1.2345315e-06
1.9019332e-06
1.1985688e-06
1.8442088e-06
1.1607525e-06
1.7889069e-06
1.121165e-06
1.7360516e-06
1.0798761e-06
1.6856752e-06
1.0369623e-06
1.6377943e-06
9.924935e-07
1.592441e-06
9.4654542e-07
1.5496286e-06
8.9917724e-07
1.5094016e-06
8.5046197e-07
1.4717668e-06
8.0046189e-07
1.4367571e-06
7.4924308e-07
1.404397e-06
6.9686789e-07
1.3747117e-06
6.4339902e-07
1.3477269e-06
5.8889682e-07
1.3234707e-06
5.3341746e-07
1.30197e-06
4.7702851e-07
1.2832529e-06
4.1978337e-07
1.2673471e-06
3.617415e-07
1.2542781e-06
3.0296343e-07
1.2440677e-06
2.4350283e-07
1.2367327e-06
1.8342082e-07
1.2322624e-06
1.2277456e-07
1.2306159e-06
6.1616502e-08
1.2316997e-06
1.2354675e-06
-3.393956e-06
6.5706229e-06
-3.1164776e-06
6.541108e-06
-2.8494748e-06
6.5034367e-06
-2.5928575e-06
6.4582423e-06
-2.3465006e-06
6.4061228e-06
-2.1102664e-06
6.3476556e-06
-1.883974e-06
6.2833673e-06
-1.6674542e-06
6.2137928e-06
-1.4605207e-06
6.1394079e-06
-1.2629563e-06
6.0606759e-06
-1.0745561e-06
5.9780292e-06
-8.9508162e-07
5.8918683e-06
-7.2434663e-07
5.802578e-06
-5.6209732e-07
5.7105308e-06
-4.0810841e-07
5.6160526e-06
-2.6216864e-07
5.5194676e-06
-1.2401011e-07
5.4210364e-06
6.569684e-09
5.321089e-06
1.2978362e-07
5.2198623e-06
2.4584924e-07
5.1175951e-06
3.5499101e-07
5.0145036e-06
4.5742075e-07
4.9108094e-06
5.533459e-07
4.8067115e-06
6.4296942e-07
4.7023956e-06
7.2649028e-07
4.5980355e-06
8.0410212e-07
4.4937937e-06
8.7599417e-07
4.3898226e-06
9.4235015e-07
4.2862662e-06
1.0033499e-06
4.1832576e-06
1.0591674e-06
4.0809234e-06
1.1099729e-06
3.9793811e-06
1.1559312e-06
3.8787415e-06
1.1972035e-06
3.7791083e-06
1.233946e-06
3.6805803e-06
1.26631e-06
3.5832493e-06
1.2944437e-06
3.4872012e-06
1.3184899e-06
3.3925178e-06
1.338589e-06
3.299275e-06
1.3548762e-06
3.2075459e-06
1.3674829e-06
3.1173977e-06
1.3765376e-06
3.0288943e-06
1.3821645e-06
2.9420968e-06
1.3844843e-06
2.8570617e-06
1.3836153e-06
2.7738428e-06
1.3796703e-06
2.6924913e-06
1.3727616e-06
2.6130552e-06
1.3629965e-06
2.5355794e-06
1.3504801e-06
2.4601073e-06
1.3353136e-06
2.3866812e-06
1.3175968e-06
2.315339e-06
1.2974244e-06
2.2461178e-06
1.2748924e-06
2.1790532e-06
1.2500887e-06
2.1141799e-06
1.2231044e-06
2.0515299e-06
1.1940246e-06
1.991135e-06
1.1629322e-06
1.9330256e-06
1.1299098e-06
1.8772312e-06
1.0950372e-06
1.8237797e-06
1.0583886e-06
1.7727e-06
1.0200442e-06
1.7240195e-06
9.8007392e-07
1.6777645e-06
9.3855278e-07
1.633962e-06
8.9554434e-07
1.592637e-06
8.5112679e-07
1.5538192e-06
8.0536108e-07
1.5175325e-06
7.5831494e-07
1.4838031e-06
7.1005346e-07
1.4526584e-06
6.6063942e-07
1.4241257e-06
6.1013565e-07
1.3982306e-06
5.586048e-07
1.3750016e-06
5.0610768e-07
1.3544673e-06
4.527043e-07
1.336656e-06
3.984555e-07
1.3215958e-06
3.4342114e-07
1.3093126e-06
2.8765848e-07
1.2998303e-06
2.312291e-07
1.2931619e-06
1.7419327e-07
1.2892982e-06
1.1660457e-07
1.2882048e-06
5.8522838e-08
1.2897813e-06
1.2939903e-06
-3.504549e-06
6.2901121e-06
-3.2338509e-06
6.27041e-06
-2.9729405e-06
6.2425261e-06
-2.7217594e-06
6.2070612e-06
-2.4802239e-06
6.1645873e-06
-2.2482169e-06
6.1156488e-06
-2.0256267e-06
6.0607771e-06
-1.8122965e-06
6.0004624e-06
-1.6080694e-06
5.9351808e-06
-1.412772e-06
5.8653784e-06
-1.2262189e-06
5.7914759e-06
-1.048226e-06
5.7138755e-06
-8.7859839e-07
5.6329505e-06
-7.1712599e-07
5.5490584e-06
-5.636081e-07
5.4625347e-06
-4.1784835e-07
5.3737078e-06
-2.7964061e-07
5.2828286e-06
-1.4877117e-07
5.1902196e-06
-2.5028793e-08
5.0961197e-06
9.1788696e-08
5.0007777e-06
2.0185739e-07
4.9044349e-06
3.0538822e-07
4.8072784e-06
4.0257375e-07
4.7095259e-06
4.936049e-07
4.6113646e-06
5.7866848e-07
4.5129719e-06
6.579478e-07
4.4145145e-06
7.3162094e-07
4.3161496e-06
7.9986277e-07
4.2180244e-06
8.6284385e-07
4.1202764e-06
9.2073122e-07
4.0230362e-06
9.7368699e-07
3.9264253e-06
1.0218692e-06
3.8305593e-06
1.0654323e-06
3.7355453e-06
1.1045262e-06
3.6414862e-06
1.1392978e-06
3.5484779e-06
1.1698893e-06
3.4566096e-06
1.1964401e-06
3.3659671e-06
1.2190847e-06
3.2766304e-06
1.2379552e-06
3.1886754e-06
1.2531798e-06
3.102173e-06
1.2648823e-06
3.0171916e-06
1.2731844e-06
2.9337947e-06
1.2782039e-06
2.8520421e-06
1.2800558e-06
2.7719908e-06
1.2788517e-06
2.6936952e-06
1.2747011e-06
2.617206e-06
1.2677093e-06
2.5425713e-06
1.2579783e-06
2.4698385e-06
1.2456096e-06
2.3990499e-06
1.2307004e-06
2.3302481e-06
1.2133451e-06
2.2634731e-06
1.193636e-06
2.1987621e-06
1.1716635e-06
2.1361525e-06
1.147515e-06
2.0756782e-06
1.1212761e-06
2.017374e-06
1.0930296e-06
1.9612722e-06
1.0628566e-06
1.9074041e-06
1.0308358e-06
1.8558004e-06
9.9704471e-07
1.8064911e-06
9.6155894e-07
1.7595051e-06
9.2445166e-07
1.7148718e-06
8.8579447e-07
1.672619e-06
8.4565902e-07
1.6327726e-06
8.0411223e-07
1.595366e-06
7.6122423e-07
1.5604206e-06
7.1705886e-07
1.5279683e-06
6.7168556e-07
1.4980318e-06
6.2516366e-07
1.4706475e-06
5.7755919e-07
1.445835e-06
5.2893447e-07
1.4236265e-06
4.7935271e-07
1.4040488e-06
4.2887276e-07
1.3871361e-06
3.7755675e-07
1.3729119e-06
3.2546659e-07
1.3614027e-06
2.726609e-07
1.3526359e-06
2.1920112e-07
1.3466216e-06
1.6514803e-07
1.3433515e-06
1.1055827e-07
1.3427943e-06
5.5490863e-08
1.3448489e-06
1.3494813e-06
-3.6019037e-06
6.0172709e-06
-3.3381756e-06
6.0066817e-06
-3.0835695e-06
5.98792e-06
-2.838059e-06
5.9615508e-06
-2.6015953e-06
5.9281237e-06
-2.3741064e-06
5.88816e-06
-2.1554898e-06
5.8421603e-06