/*--------------------------------*- C++ -*----------------------------------*\
| =========                 |                                                 |
| \\      /  F ield         | OpenFOAM: The Open Source CFD Toolbox           |
|  \\    /   O peration     | Version:  2306                                  |
|   \\  /    A nd           | Website:  www.openfoam.com                      |
|    \\/     M anipulation  |                                                 |
\*---------------------------------------------------------------------------*/
FoamFile
{
    version     2.0;
    format      ascii;
    arch        "LSB;label=32;scalar=64";
    class       surfaceScalarField;
    location    "0.49";
    object      phi_0;
}
// * * * * * * * * * * * * * * * * * * * * * * * * * * * * * * * * * * * * * //

dimensions      [0 3 -1 0 0 0 0];

oriented        oriented;

internalField   nonuniform List<scalar> 
12640
(
-9.9787362e-10
-2.9349973e-08
-3.990509e-09
-8.8028229e-08
-8.9715523e-09
-1.4656826e-07
-1.5929702e-08
-2.0486266e-07
-2.4847882e-08
-2.6278666e-07
-3.5703597e-08
-3.2022208e-07
-4.8469168e-08
-3.7705671e-07
-6.3111956e-08
-4.3318079e-07
-7.9594379e-08
-4.8848729e-07
-9.7874215e-08
-5.42872e-07
-1.1790474e-07
-5.9623367e-07
-1.3963492e-07
-6.4847401e-07
-1.6300949e-07
-6.9949809e-07
-1.8796934e-07
-7.4921456e-07
-2.1445166e-07
-7.9753562e-07
-2.4239008e-07
-8.4437761e-07
-2.7171515e-07
-8.8966067e-07
-3.0235422e-07
-9.3330956e-07
-3.3423202e-07
-9.7525326e-07
-3.6727084e-07
-1.0154255e-06
-4.0139074e-07
-1.0537645e-06
-4.3650988e-07
-1.0902136e-06
-4.7254474e-07
-1.1247209e-06
-5.0941038e-07
-1.1572394e-06
-5.4702092e-07
-1.1877273e-06
-5.8528934e-07
-1.216148e-06
-6.2412868e-07
-1.2424694e-06
-6.6345089e-07
-1.2666656e-06
-7.0316864e-07
-1.2887144e-06
-7.4319445e-07
-1.3085998e-06
-7.8344153e-07
-1.3263101e-06
-8.2382366e-07
-1.341839e-06
-8.6425569e-07
-1.3551848e-06
-9.0465388e-07
-1.3663502e-06
-9.4493556e-07
-1.3753432e-06
-9.850202e-07
-1.3821758e-06
-1.0248285e-06
-1.3868648e-06
-1.0642837e-06
-1.3894307e-06
-1.103311e-06
-1.3898983e-06
-1.141838e-06
-1.3882964e-06
-1.179795e-06
-1.3846574e-06
-1.2171147e-06
-1.3790171e-06
-1.2537326e-06
-1.3714149e-06
-1.2895872e-06
-1.3618933e-06
-1.3246199e-06
-1.3504974e-06
-1.3587754e-06
-1.3372754e-06
-1.392001e-06
-1.3222779e-06
-1.4242477e-06
-1.3055578e-06
-1.4554696e-06
-1.28717e-06
-1.4856237e-06
-1.2671715e-06
-1.5146708e-06
-1.2456214e-06
-1.5425747e-06
-1.2225792e-06
-1.5693027e-06
-1.1981067e-06
-1.5948253e-06
-1.1722661e-06
-1.6191159e-06
-1.1451209e-06
-1.6421514e-06
-1.1167351e-06
-1.6639122e-06
-1.0871732e-06
-1.6843813e-06
-1.0565002e-06
-1.7035451e-06
-1.0247814e-06
-1.7213927e-06
-9.9208161e-07
-1.7379166e-06
-9.5846538e-07
-1.7531112e-06
-9.2399774e-07
-1.7669748e-06
-8.887421e-07
-1.7795078e-06
-8.527625e-07
-1.790713e-06
-8.1612068e-07
-1.8005962e-06
-7.7887916e-07
-1.8091649e-06
-7.4109852e-07
-1.816429e-06
-7.0283784e-07
-1.8224013e-06
-6.6415606e-07
-1.8270955e-06
-6.2511015e-07
-1.8305284e-06
-5.8575504e-07
-1.8327173e-06
-5.4614563e-07
-1.8336821e-06
-5.0633435e-07
-1.8334441e-06
-4.6637202e-07
-1.8320259e-06
-4.2630802e-07
-1.8294515e-06
-3.8619008e-07
-1.8257462e-06
-3.4606384e-07
-1.8209366e-06
-3.0597344e-07
-1.8150495e-06
-2.659611e-07
-2.2606686e-07
-9.6017353e-10
-2.8389799e-08
-3.8397598e-09
-8.5148642e-08
-8.6327349e-09
-1.4177529e-07
-1.5328354e-08
-1.9816704e-07
-2.3910423e-08
-2.5420459e-07
-3.4357574e-08
-3.0977493e-07
-4.664352e-08
-3.6477076e-07
-6.0737228e-08
-4.1908708e-07
-7.6603043e-08
-4.7262148e-07
-9.4200856e-08
-5.2527419e-07
-1.134863e-07
-5.7694823e-07
-1.344108e-07
-6.275495e-07
-1.5692189e-07
-6.7698699e-07
-1.8096335e-07
-7.2517309e-07
-2.0647544e-07
-7.7202354e-07
-2.3339513e-07
-8.1745793e-07
-2.6165611e-07
-8.613997e-07
-2.9118943e-07
-9.0377622e-07
-3.2192343e-07
-9.4451929e-07
-3.5378403e-07
-9.8356488e-07
-3.866951e-07
-1.0208535e-06
-4.2057863e-07
-1.0563301e-06
-4.5535499e-07
-1.0899445e-06
-4.909432e-07
-1.1216512e-06
-5.2726125e-07
-1.1514093e-06
-5.6422626e-07
-1.1791829e-06
-6.0175469e-07
-1.204941e-06
-6.3976305e-07
-1.2286573e-06
-6.7816726e-07
-1.2503101e-06
-7.1688393e-07
-1.2698831e-06
-7.5582976e-07
-1.2873643e-06
-7.9492234e-07
-1.3027464e-06
-8.3408008e-07
-1.3160271e-06
-8.7322248e-07
-1.3272078e-06
-9.1227024e-07
-1.3362954e-06
-9.5114592e-07
-1.3433002e-06
-9.8977333e-07
-1.3482373e-06
-1.0280787e-06
-1.3511253e-06
-1.0659897e-06
-1.3519873e-06
-1.1034368e-06
-1.3508494e-06
-1.1403524e-06
-1.3477417e-06
-1.1766717e-06
-1.3426979e-06
-1.2123322e-06
-1.3357544e-06
-1.2472745e-06
-1.3269511e-06
-1.2814414e-06
-1.3163305e-06
-1.3147791e-06
-1.3039377e-06
-1.3472365e-06
-1.2898204e-06
-1.3787659e-06
-1.2740285e-06
-1.409322e-06
-1.2566139e-06
-1.438863e-06
-1.2376305e-06
-1.4673504e-06
-1.2171341e-06
-1.4947482e-06
-1.1951814e-06
-1.5210244e-06
-1.1718305e-06
-1.5461493e-06
-1.1471414e-06
-1.5700965e-06
-1.1211736e-06
-1.5928432e-06
-1.0939886e-06
-1.6143689e-06
-1.0656475e-06
-1.6346562e-06
-1.0362128e-06
-1.6536912e-06
-1.0057463e-06
-1.6714626e-06
-9.7431015e-07
-1.6879613e-06
-9.4196678e-07
-1.7031819e-06
-9.0877712e-07
-1.7171208e-06
-8.7480327e-07
-1.7297777e-06
-8.4010556e-07
-1.741154e-06
-8.0474434e-07
-1.7512542e-06
-7.6877897e-07
-1.7600847e-06
-7.3226798e-07
-1.7676539e-06
-6.9526868e-07
-1.7739728e-06
-6.5783722e-07
-1.7790539e-06
-6.2002883e-07
-1.782912e-06
-5.8189709e-07
-1.7855632e-06
-5.4349441e-07
-1.7870255e-06
-5.0487201e-07
-1.7873185e-06
-4.6607909e-07
-1.786463e-06
-4.271635e-07
-1.7844815e-06
-3.8817171e-07
-1.7813973e-06
-3.4914817e-07
-1.7772351e-06
-3.1013558e-07
-1.7720202e-06
-2.7117595e-07
-2.3230779e-07
-9.2413385e-10
-2.7465665e-08
-3.6956437e-09
-8.237713e-08
-8.3088016e-09
-1.3716213e-07
-1.475342e-08
-1.9172242e-07
-2.3014103e-08
-2.459439e-07
-3.3070549e-08
-2.9971848e-07
-4.4897811e-08
-3.5294351e-07
-5.8466382e-08
-4.0551851e-07
-7.3742412e-08
-4.5734545e-07
-9.068778e-08
-5.0832882e-07
-1.0926026e-07
-5.5837576e-07
-1.2941372e-07
-6.0739604e-07
-1.5109825e-07
-6.5530243e-07
-1.7426046e-07
-7.0201087e-07
-1.9884345e-07
-7.4744056e-07
-2.247872e-07
-7.9151418e-07
-2.5202872e-07
-8.3415818e-07
-2.805023e-07
-8.7530265e-07
-3.1013968e-07
-9.1488192e-07
-3.408704e-07
-9.5283418e-07
-3.7262173e-07
-9.891021e-07
-4.0531949e-07
-1.0236324e-06
-4.3888761e-07
-1.0563764e-06
-4.7324887e-07
-1.0872899e-06
-5.0832498e-07
-1.1163331e-06
-5.4403674e-07
-1.1434712e-06
-5.8030449e-07
-1.1686733e-06
-6.1704832e-07
-1.1919135e-06
-6.5418787e-07
-1.2131706e-06
-6.9164313e-07
-1.2324278e-06
-7.2933464e-07
-1.2496728e-06
-7.6718326e-07
-1.2648978e-06
-8.0511081e-07
-1.2780995e-06
-8.4303999e-07
-1.2892787e-06
-8.8089481e-07
-1.2984406e-06
-9.1860058e-07
-1.3055944e-06
-9.560845e-07
-1.3107535e-06
-9.9327489e-07
-1.3139349e-06
-1.0301028e-06
-1.3151594e-06
-1.0665007e-06
-1.3144515e-06
-1.1024036e-06
-1.3118389e-06
-1.1377486e-06
-1.3073528e-06
-1.1724754e-06
-1.3010276e-06
-1.2065261e-06
-1.2929003e-06
-1.2398458e-06
-1.2830107e-06
-1.2723818e-06
-1.2714017e-06
-1.3040846e-06
-1.2581177e-06
-1.3349073e-06
-1.2432057e-06
-1.364806e-06
-1.2267152e-06
-1.3937397e-06
-1.2086969e-06
-1.4216704e-06
-1.1892034e-06
-1.448563e-06
-1.1682888e-06
-1.4743852e-06
-1.1460082e-06
-1.4991081e-06
-1.1224184e-06
-1.5227053e-06
-1.0975765e-06
-1.5451537e-06
-1.0715402e-06
-1.5664328e-06
-1.0443684e-06
-1.5865251e-06
-1.0161205e-06
-1.6054157e-06
-9.8685573e-07
-1.6230926e-06
-9.5663326e-07
-1.6395468e-06
-9.2551253e-07
-1.6547714e-06
-8.9355261e-07
-1.6687622e-06
-8.608124e-07
-1.6815175e-06
-8.2735023e-07
-1.6930383e-06
-7.9322366e-07
-1.7033273e-06
-7.5848991e-07
-1.7123896e-06
-7.232057e-07
-1.7202327e-06
-6.8742549e-07
-1.7268661e-06
-6.5120385e-07
-1.7323007e-06
-6.1459425e-07
-1.7365497e-06
-5.7764798e-07
-1.7396279e-06
-5.4041643e-07
-1.7415514e-06
-5.0294835e-07
-1.7423387e-06
-4.6529174e-07
-1.7420085e-06
-4.2749367e-07
-1.7405817e-06
-3.8959841e-07
-1.7380802e-06
-3.5164966e-07
-1.7345264e-06
-3.1368931e-07
-1.7299447e-06
-2.7575767e-07
-2.378929e-07
-8.8966569e-10
-2.6576e-08
-3.5578129e-09
-7.9708982e-08
-7.9990092e-09
-1.3272093e-07
-1.4203573e-08
-1.8551786e-07
-2.2156878e-08
-2.379906e-07
-3.1839621e-08
-2.9003574e-07
-4.3228086e-08
-3.4155505e-07
-5.6294257e-08
-3.9245233e-07
-7.100596e-08
-4.4263376e-07
-8.7326892e-08
-4.9200789e-07
-1.0521701e-07
-5.4048566e-07
-1.2463235e-07
-5.8798069e-07
-1.4552555e-07
-6.3440925e-07
-1.6784566e-07
-6.7969076e-07
-1.9153864e-07
-7.2374758e-07
-2.1654734e-07
-7.6650547e-07
-2.4281185e-07
-8.0789365e-07
-2.7026952e-07
-8.47845e-07
-2.9885534e-07
-8.8629608e-07
-3.2850211e-07
-9.231874e-07
-3.591407e-07
-9.5846349e-07
-3.9070016e-07
-9.9207294e-07
-4.2310803e-07
-1.0239685e-06
-4.5629058e-07
-1.0541073e-06
-4.9017298e-07
-1.0824507e-06
-5.246798e-07
-1.1089644e-06
-5.5973484e-07
-1.1336183e-06
-5.9526146e-07
-1.1563869e-06
-6.3118297e-07
-1.177249e-06
-6.67423e-07
-1.1961878e-06
-7.0390508e-07
-1.2131907e-06
-7.4055358e-07
-1.2282494e-06
-7.7729349e-07
-1.2413596e-06
-8.1405056e-07
-1.2525215e-06
-8.507519e-07
-1.2617393e-06
-8.8732582e-07
-1.2690206e-06
-9.2370201e-07
-1.2743773e-06
-9.5981192e-07
-1.277825e-06
-9.9558877e-07
-1.2793826e-06
-1.0309676e-06
-1.2790727e-06
-1.0658853e-06
-1.2769211e-06
-1.1002816e-06
-1.2729566e-06
-1.1340979e-06
-1.2672114e-06
-1.1672783e-06
-1.2597199e-06
-1.1997691e-06
-1.2505199e-06
-1.2315197e-06
-1.2396512e-06
-1.2624814e-06
-1.2271559e-06
-1.2926086e-06
-1.2130785e-06
-1.3218585e-06
-1.1974652e-06
-1.3501912e-06
-1.1803643e-06
-1.377569e-06
-1.1618256e-06
-1.4039575e-06
-1.1419003e-06
-1.4293251e-06
-1.1206407e-06
-1.4536426e-06
-1.0981009e-06
-1.4768843e-06
-1.0743347e-06
-1.4990266e-06
-1.0493979e-06
-1.5200488e-06
-1.0233461e-06
-1.5399337e-06
-9.9623571e-07
-1.5586654e-06
-9.6812396e-07
-1.5762321e-06
-9.3906655e-07
-1.5926234e-06
-9.0912121e-07
-1.607832e-06
-8.7834409e-07
-1.621853e-06
-8.4679139e-07
-1.6346838e-06
-8.1451948e-07
-1.6463239e-06
-7.8158361e-07
-1.6567749e-06
-7.4803892e-07
-1.6660415e-06
-7.1393908e-07
-1.6741296e-06
-6.7933743e-07
-1.6810468e-06
-6.4428673e-07
-1.6868035e-06
-6.0883749e-07
-1.6914109e-06
-5.7304062e-07
-1.6948826e-06
-5.3694455e-07
-1.6972337e-06
-5.0059734e-07
-1.6984799e-06
-4.6404547e-07
-1.6986397e-06
-4.2733383e-07
-1.6977317e-06
-3.9050647e-07
-1.6957761e-06
-3.5360532e-07
-1.6927943e-06
-3.1667113e-07
-1.6888089e-06
-2.7974304e-07
-2.4285916e-07
-8.5669171e-10
-2.5719308e-08
-3.4259688e-09
-7.7139704e-08
-7.7026579e-09
-1.2844425e-07
-1.3677566e-08
-1.7954295e-07
-2.1336785e-08
-2.3033139e-07
-3.0661968e-08
-2.8071056e-07
-4.1630574e-08
-3.3058644e-07
-5.421597e-08
-3.7986694e-07
-6.8387492e-08
-4.2846223e-07
-8.4110752e-08
-4.7628464e-07
-1.0134754e-07
-5.2324886e-07
-1.2005614e-07
-5.692721e-07
-1.4019134e-07
-6.1427404e-07
-1.6170482e-07
-6.5817729e-07
-1.8454509e-07
-7.0090732e-07
-2.086577e-07
-7.4239286e-07
-2.3398561e-07
-7.8256574e-07
-2.6046913e-07
-8.2136148e-07
-2.8804633e-07
-8.5871884e-07
-3.1665315e-07
-8.9458059e-07
-3.462237e-07
-9.2889298e-07
-3.7669024e-07
-9.6160638e-07
-4.0798368e-07
-9.9267513e-07
-4.4003359e-07
-1.0220574e-06
-4.7276868e-07
-1.0497157e-06
-5.0611667e-07
-1.0756164e-06
-5.4000472e-07
-1.0997302e-06
-5.7435962e-07
-1.1220319e-06
-6.0910825e-07
-1.1425005e-06
-6.4417694e-07
-1.1611191e-06
-6.7949292e-07
-1.1778747e-06
-7.1498342e-07
-1.1927589e-06
-7.5057662e-07
-1.2057664e-06
-7.8620129e-07
-1.2168968e-06
-8.2178746e-07
-1.2261531e-06
-8.5726601e-07
-1.2335419e-06
-8.9256953e-07
-1.2390738e-06
-9.2763194e-07
-1.2427626e-06
-9.6238893e-07
-1.2446256e-06
-9.9677778e-07
-1.2446838e-06
-1.0307378e-06
-1.242961e-06
-1.0642105e-06
-1.2394839e-06
-1.0971391e-06
-1.2342827e-06
-1.1294697e-06
-1.2273893e-06
-1.1611502e-06
-1.2188394e-06
-1.1921312e-06
-1.2086702e-06
-1.2223657e-06
-1.1969215e-06
-1.251809e-06
-1.1836351e-06
-1.2804196e-06
-1.1688547e-06
-1.3081577e-06
-1.1526261e-06
-1.3349869e-06
-1.1349964e-06
-1.3608736e-06
-1.1160136e-06
-1.3857862e-06
-1.0957281e-06
-1.4096962e-06
-1.0741908e-06
-1.4325777e-06
-1.0514533e-06
-1.454407e-06
-1.0275685e-06
-1.475164e-06
-1.0025892e-06
-1.4948303e-06
-9.7656939e-07
-1.5133908e-06
-9.4956353e-07
-1.530832e-06
-9.2162533e-07
-1.5471439e-06
-8.9280922e-07
-1.5623183e-06
-8.631696e-07
-1.5763493e-06
-8.3276037e-07
-1.5892334e-06
-8.0163531e-07
-1.6009696e-06
-7.6984754e-07
-1.6115586e-06
-7.374498e-07
-1.6210033e-06
-7.0449435e-07
-1.6293086e-06
-6.7103215e-07
-1.6364817e-06
-6.3711363e-07
-1.6425307e-06
-6.027885e-07
-1.6474661e-06
-5.6810507e-07
-1.6513001e-06
-5.331106e-07
-1.6540459e-06
-4.9785146e-07
-1.6557187e-06
-4.623726e-07
-1.6563345e-06
-4.2671817e-07
-1.6559109e-06
-3.9093e-07
-1.6544669e-06
-3.5504923e-07
-1.6520221e-06
-3.1911589e-07
-1.6485975e-06
-2.8316768e-07
-2.47242e-07
-8.251418e-10
-2.4894166e-08
-3.2998041e-09
-7.4665041e-08
-7.4190758e-09
-1.2432497e-07
-1.3174206e-08
-1.7378782e-07
-2.0551976e-08
-2.2295361e-07
-2.9534945e-08
-2.7172759e-07
-4.0101677e-08
-3.2001971e-07
-5.2226803e-08
-3.6774181e-07
-6.5881241e-08
-4.148078e-07
-8.1032188e-08
-4.611337e-07
-9.7643339e-08
-5.0663771e-07
-1.1567497e-07
-5.5124047e-07
-1.3508411e-07
-5.9486488e-07
-1.5582466e-07
-6.3743672e-07
-1.7784768e-07
-6.7888432e-07
-2.0110128e-07
-7.1913926e-07
-2.2553106e-07
-7.5813597e-07
-2.5108028e-07
-7.9581224e-07
-2.7768984e-07
-8.321093e-07
-3.052987e-07
-8.6697176e-07
-3.3384388e-07
-9.003478e-07
-3.6326085e-07
-9.321894e-07
-3.9348365e-07
-9.6245231e-07
-4.2444511e-07
-9.9109596e-07
-4.5607697e-07
-1.0180837e-06
-4.8831037e-07
-1.0433831e-06
-5.2107542e-07
-1.0669651e-06
-5.5430237e-07
-1.088805e-06
-5.8792083e-07
-1.108882e-06
-6.218608e-07
-1.1271791e-06
-6.560521e-07
-1.1436834e-06
-6.9042529e-07
-1.1583857e-06
-7.2491124e-07
-1.1712805e-06
-7.5944172e-07
-1.1823664e-06
-7.939495e-07
-1.1916454e-06
-8.2836815e-07
-1.1991232e-06
-8.6263287e-07
-1.2048091e-06
-8.9667996e-07
-1.2087155e-06
-9.3044742e-07
-1.2108581e-06
-9.6387479e-07
-1.2112564e-06
-9.9690372e-07
-1.2099321e-06
-1.0294772e-06
-1.2069104e-06
-1.0615409e-06
-1.202219e-06
-1.093042e-06
-1.1958881e-06
-1.1239306e-06
-1.1879509e-06
-1.1541582e-06
-1.1784426e-06
-1.1836792e-06
-1.1674005e-06
-1.2124502e-06
-1.154864e-06
-1.2404305e-06
-1.1408745e-06
-1.2675816e-06
-1.125475e-06
-1.2938676e-06
-1.1087104e-06
-1.3192551e-06
-1.0906261e-06
-1.3437135e-06
-1.0712698e-06
-1.3672143e-06
-1.05069e-06
-1.3897316e-06
-1.0289359e-06
-1.4112426e-06
-1.0060576e-06
-1.4317264e-06
-9.821054e-07
-1.4511647e-06
-9.5713106e-07
-1.4695421e-06
-9.3118614e-07
-1.4868448e-06
-9.0432263e-07
-1.503062e-06
-8.7659208e-07
-1.5181851e-06
-8.4804647e-07
-1.5322077e-06
-8.1873778e-07
-1.5451251e-06
-7.8871774e-07
-1.5569358e-06
-7.5803687e-07
-1.5676395e-06
-7.2674614e-07
-1.5772381e-06
-6.9489589e-07
-1.5857353e-06
-6.6253476e-07
-1.5931372e-06
-6.297117e-07
-1.5994512e-06
-5.9647462e-07
-1.6046859e-06
-5.6287033e-07
-1.6088524e-06
-5.2894412e-07
-1.6119627e-06
-4.9474107e-07
-1.6140306e-06
-4.6030478e-07
-1.6150708e-06
-4.2567802e-07
-1.6150994e-06
-3.9090137e-07
-1.6141341e-06
-3.5601457e-07
-1.6121932e-06
-3.2105677e-07
-1.6092956e-06
-2.860652e-07
-2.5107556e-07
-7.9494248e-10
-2.4099225e-08
-3.1790439e-09
-7.2280939e-08
-7.1476354e-09
-1.2035638e-07
-1.2692391e-08
-1.6824307e-07
-1.9800718e-08
-2.1584528e-07
-2.8456089e-08
-2.6307223e-07
-3.8638029e-08
-3.0983776e-07
-5.0322483e-08
-3.5605737e-07
-6.3481703e-08
-4.0164857e-07
-7.8084528e-08
-4.4653087e-07
-9.4096361e-08
-4.9062589e-07
-1.1147943e-07
-5.338574e-07
-1.3019279e-07
-5.7615155e-07
-1.5019265e-07
-6.1743685e-07
-1.7143215e-07
-6.576448e-07
-1.9386209e-07
-6.9670931e-07
-2.1743056e-07
-7.3456751e-07
-2.4208343e-07
-7.7115937e-07
-2.6776442e-07
-8.064283e-07
-2.9441522e-07
-8.4032095e-07
-3.2197582e-07
-8.7278719e-07
-3.5038467e-07
-9.0378055e-07
-3.7957878e-07
-9.3325822e-07
-4.0949392e-07
-9.6118082e-07
-4.4006497e-07
-9.875127e-07
-4.712259e-07
-1.0122221e-06
-5.0291026e-07
-1.0352807e-06
-5.3505086e-07
-1.0566644e-06
-5.6758072e-07
-1.0763522e-06
-6.0043242e-07
-1.0943274e-06
-6.3353917e-07
-1.1105767e-06
-6.6683401e-07
-1.1250909e-06
-7.0025081e-07
-1.1378637e-06
-7.33724e-07
-1.1488932e-06
-7.6718894e-07
-1.1581804e-06
-8.0058192e-07
-1.1657303e-06
-8.3384056e-07
-1.1715505e-06
-8.6690353e-07
-1.1756525e-06
-8.9971091e-07
-1.1780507e-06
-9.3220485e-07
-1.1787625e-06
-9.6432832e-07
-1.1778086e-06
-9.960268e-07
-1.1752119e-06
-1.0272475e-06
-1.1709983e-06
-1.0579394e-06
-1.1651962e-06
-1.0880538e-06
-1.1578365e-06
-1.117544e-06
-1.1489524e-06
-1.1463656e-06
-1.138579e-06
-1.1744763e-06
-1.1267533e-06
-1.2018361e-06
-1.1135146e-06
-1.2284077e-06
-1.0989035e-06
-1.2541559e-06
-1.0829622e-06
-1.2790477e-06
-1.0657342e-06
-1.303053e-06
-1.0472644e-06
-1.3261438e-06
-1.0275992e-06
-1.3482948e-06
-1.006785e-06
-1.3694827e-06
-9.8486977e-07
-1.3896866e-06
-9.6190146e-07
-1.4088884e-06
-9.3792919e-07
-1.4270722e-06
-9.1300234e-07
-1.4442242e-06
-8.8717073e-07
-1.460333e-06
-8.6048319e-07
-1.4753894e-06
-8.3299011e-07
-1.4893862e-06
-8.0474111e-07
-1.5023186e-06
-7.7578529e-07
-1.5141838e-06
-7.461718e-07
-1.5249807e-06
-7.1594924e-07
-1.5347105e-06
-6.8516603e-07
-1.543376e-06
-6.5386939e-07
-1.5509818e-06
-6.2210583e-07
-1.5575343e-06
-5.899221e-07
-1.5630413e-06
-5.5736315e-07
-1.5675124e-06
-5.2447314e-07
-1.5709585e-06
-4.9129492e-07
-1.5733919e-06
-4.5787147e-07
-1.5748263e-06
-4.2424342e-07
-1.5752767e-06
-3.9045095e-07
-1.5747588e-06
-3.5653243e-07
-1.5732898e-06
-3.2252582e-07
-1.5708878e-06
-2.8846722e-07
-2.5439163e-07
-7.6602912e-10
-2.3333196e-08
-3.0634262e-09
-6.9983541e-08
-6.8877408e-09
-1.1653206e-07
-1.2231058e-08
-1.6289975e-07
-1.9081428e-08
-2.0899491e-07
-2.7423036e-08
-2.5473062e-07
-3.7236482e-08
-3.0002432e-07
-4.8498834e-08
-3.4479501e-07
-6.1183717e-08
-3.8896369e-07
-7.5261413e-08
-4.3245318e-07
-9.0699026e-08
-4.7518826e-07
-1.0746053e-07
-5.1709589e-07
-1.2550704e-07
-5.5810502e-07
-1.4479665e-07
-5.9814724e-07
-1.6528497e-07
-6.3715649e-07
-1.8692494e-07
-6.7506936e-07
-2.0966717e-07
-7.1182528e-07
-2.3345995e-07
-7.4736659e-07
-2.5824959e-07
-7.8163865e-07
-2.8398062e-07
-8.1458995e-07
-3.1059564e-07
-8.4617215e-07
-3.3803594e-07
-8.7634027e-07
-3.6624133e-07
-9.0505285e-07
-3.951505e-07
-9.3227162e-07
-4.2470114e-07
-9.5796207e-07
-4.5483022e-07
-9.8209303e-07
-4.8547405e-07
-1.0046369e-06
-5.1656858e-07
-1.0255699e-06
-5.4804943e-07
-1.0448713e-06
-5.7985222e-07
-1.0625246e-06
-6.1191266e-07
-1.0785163e-06
-6.4416681e-07
-1.0928366e-06
-6.7655107e-07
-1.1054794e-06
-7.0900253e-07
-1.1164417e-06
-7.4145905e-07
-1.1257239e-06
-7.7385954e-07
-1.1333298e-06
-8.061437e-07
-1.1392662e-06
-8.3825263e-07
-1.1435436e-06
-8.7012884e-07
-1.1461746e-06
-9.0171586e-07
-1.1471755e-06
-9.3295937e-07
-1.1465652e-06
-9.6380648e-07
-1.1443648e-06
-9.9420587e-07
-1.1405989e-06
-1.0241084e-06
-1.1352937e-06
-1.0534666e-06
-1.1284782e-06
-1.0822354e-06
-1.1201836e-06
-1.1103715e-06
-1.1104429e-06
-1.1378337e-06
-1.0992912e-06
-1.1645832e-06
-1.0867652e-06
-1.1905832e-06
-1.0729033e-06
-1.2157995e-06
-1.0577459e-06
-1.2401996e-06
-1.0413341e-06
-1.2637539e-06
-1.0237102e-06
-1.2864349e-06
-1.0049182e-06
-1.3082172e-06
-9.8500271e-07
-1.3290781e-06
-9.640089e-07
-1.3489966e-06
-9.4198292e-07
-1.3679545e-06
-9.1897138e-07
-1.3859356e-06
-8.9502126e-07
-1.402926e-06
-8.7018025e-07
-1.4189137e-06
-8.4449554e-07
-1.433889e-06
-8.1801475e-07
-1.4478444e-06
-7.9078563e-07
-1.4607744e-06
-7.6285523e-07
-1.4726756e-06
-7.3427058e-07
-1.4835461e-06
-7.0507881e-07
-1.4933859e-06
-6.753262e-07
-1.5021972e-06
-6.4505813e-07
-1.5099834e-06
-6.1431963e-07
-1.5167499e-06
-5.8315554e-07
-1.5225036e-06
-5.5160945e-07
-1.5272532e-06
-5.1972358e-07
-1.531008e-06
-4.8754018e-07
-1.5337793e-06
-4.5510016e-07
-1.5355793e-06
-4.2244331e-07
-1.5364223e-06
-3.8960795e-07
-1.5363223e-06
-3.5663242e-07
-1.5352955e-06
-3.2355242e-07
-1.5333586e-06
-2.904042e-07
-2.5722123e-07
-7.3833786e-10
-2.2594858e-08
-2.9526978e-09
-6.7769181e-08
-6.638839e-09
-1.1284592e-07
-1.1789234e-08
-1.5774936e-07
-1.8392486e-08
-2.0239166e-07
-2.6433582e-08
-2.4668952e-07
-3.5894036e-08
-2.9056385e-07
-4.6751999e-08
-3.3393705e-07
-5.8982352e-08
-3.7673333e-07
-7.2556832e-08
-4.188787e-07
-8.7444063e-08
-4.6030102e-07
-1.0360982e-07
-5.0093013e-07
-1.2101694e-07
-5.4069791e-07
-1.396256e-07
-5.7953857e-07
-1.5939341e-07
-6.1738867e-07
-1.8027554e-07
-6.5418722e-07
-2.0222486e-07
-6.8987596e-07
-2.2519209e-07
-7.2439937e-07
-2.4912605e-07
-7.5770469e-07
-2.7397377e-07
-7.8974224e-07
-2.9968049e-07
-8.2046542e-07
-3.2619002e-07
-8.4983073e-07
-3.5344498e-07
-8.7779786e-07
-3.8138677e-07
-9.0432987e-07
-4.0995584e-07
-9.29393e-07
-4.3909192e-07
-9.5295698e-07
-4.6873406e-07
-9.7499474e-07
-4.988209e-07
-9.9548303e-07
-5.292908e-07
-1.0144014e-06
-5.6008221e-07
-1.0317332e-06
-5.9113332e-07
-1.0474651e-06
-6.2238288e-07
-1.0615871e-06
-6.5376986e-07
-1.0740925e-06
-6.8523388e-07
-1.0849777e-06
-7.1671534e-07
-1.0942424e-06
-7.4815517e-07
-1.1018899e-06
-7.7949558e-07
-1.1079258e-06
-8.1067987e-07
-1.1123593e-06
-8.4165245e-07
-1.115202e-06
-8.7235925e-07
-1.1164687e-06
-9.0274742e-07
-1.116177e-06
-9.3276599e-07
-1.1143463e-06
-9.6236536e-07
-1.1109994e-06
-9.9149796e-07
-1.1061611e-06
-1.0201179e-06
-1.0998583e-06
-1.0481811e-06
-1.0921204e-06
-1.0756456e-06
-1.0829784e-06
-1.1024714e-06
-1.0724654e-06
-1.1286205e-06
-1.060616e-06
-1.1540573e-06
-1.0474666e-06
-1.1787478e-06
-1.0330553e-06
-1.2026608e-06
-1.0174212e-06
-1.2257666e-06
-1.0006044e-06
-1.2480385e-06
-9.8264632e-07
-1.2694513e-06
-9.6358992e-07
-1.289982e-06
-9.434781e-07
-1.3096103e-06
-9.2235463e-07
-1.3283178e-06
-9.0026393e-07
-1.346088e-06
-8.7725112e-07
-1.3629068e-06
-8.5336152e-07
-1.3787619e-06
-8.2864043e-07
-1.3936434e-06
-8.0313326e-07
-1.4075431e-06
-7.7688586e-07
-1.4204552e-06
-7.4994323e-07
-1.4323749e-06
-7.2235091e-07
-1.4433e-06
-6.9415366e-07
-1.4532303e-06
-6.65396e-07
-1.4621663e-06
-6.3612205e-07
-1.470111e-06
-6.0637494e-07
-1.4770686e-06
-5.7619789e-07
-1.4830454e-06
-5.4563271e-07
-1.4880485e-06
-5.1472054e-07
-1.4920862e-06
-4.8350253e-07
-1.495169e-06
-4.5201731e-07
-1.4973082e-06
-4.2030401e-07
-1.4985161e-06
-3.8840006e-07
-1.4988063e-06
-3.5634215e-07
-1.4981934e-06
-3.2416549e-07
-1.4966925e-06
-2.91905e-07
-2.5959336e-07
-7.1181081e-10
-2.1883046e-08
-2.846618e-09
-6.5634374e-08
-6.4003993e-09
-1.0929214e-07
-1.1365961e-08
-1.527838e-07
-1.7732478e-08
-1.9602514e-07
-2.5485631e-08
-2.3893637e-07
-3.4607813e-08
-2.8144167e-07
-4.5078255e-08
-3.2346661e-07
-5.687299e-08
-3.6493859e-07
-6.9965105e-08
-4.0578659e-07
-8.4324751e-08
-4.4594137e-07
-9.9919265e-08
-4.8533561e-07
-1.1671326e-07
-5.2390392e-07
-1.3466877e-07
-5.6158308e-07
-1.5374533e-07
-5.983121e-07
-1.7390026e-07
-6.3403228e-07
-1.9508856e-07
-6.6868766e-07
-2.1726333e-07
-7.0222458e-07
-2.4037566e-07
-7.3459237e-07
-2.6437486e-07
-7.6574303e-07
-2.892088e-07
-7.9563147e-07
-3.1482386e-07
-8.2421566e-07
-3.4116503e-07
-8.5145666e-07
-3.6817638e-07
-8.7731849e-07
-3.9580106e-07
-9.0176834e-07
-4.2398141e-07
-9.2477665e-07
-4.5265878e-07
-9.4631737e-07
-4.817748e-07
-9.6636703e-07
-5.1127044e-07
-9.8490578e-07
-5.4108638e-07
-1.0019173e-06
-5.7116368e-07
-1.0173878e-06
-6.0144346e-07
-1.0313074e-06
-6.3186721e-07
-1.0436687e-06
-6.6237695e-07
-1.054468e-06
-6.9291516e-07
-1.0637042e-06
-7.2342536e-07
-1.0713797e-06
-7.5385177e-07
-1.0774994e-06
-7.8413981e-07
-1.0820712e-06
-8.1423591e-07
-1.0851059e-06
-8.4408784e-07
-1.0866168e-06
-8.7364485e-07
-1.08662e-06
-9.0285736e-07
-1.0851338e-06
-9.3167766e-07
-1.0821792e-06
-9.6005951e-07
-1.0777792e-06
-9.8795832e-07
-1.0719594e-06
-1.0153317e-06
-1.0647471e-06
-1.0421385e-06
-1.0561716e-06
-1.06834e-06
-1.0462638e-06
-1.0938993e-06
-1.0350568e-06
-1.1187813e-06
-1.0225847e-06
-1.142953e-06
-1.0088837e-06
-1.1663836e-06
-9.9399048e-07
-1.1890442e-06
-9.7794372e-07
-1.2109079e-06
-9.6078269e-07
-1.2319503e-06
-9.4254742e-07
-1.2521491e-06
-9.2327934e-07
-1.2714834e-06
-9.030203e-07
-1.2899348e-06
-8.8181261e-07
-1.3074868e-06
-8.5969909e-07
-1.3241251e-06
-8.3672322e-07
-1.3398374e-06
-8.1292806e-07
-1.3546133e-06
-7.8835737e-07
-1.3684442e-06
-7.6305497e-07
-1.3813232e-06
-7.3706418e-07
-1.3932457e-06
-7.1042837e-07
-1.4042088e-06
-6.8319056e-07
-1.4142107e-06
-6.5539398e-07
-1.423252e-06
-6.2708076e-07
-1.4313346e-06
-5.9829238e-07
-1.438462e-06
-5.690704e-07
-1.4446393e-06
-5.3945554e-07
-1.4498722e-06
-5.0948755e-07
-1.4541693e-06
-4.7920548e-07
-1.4575388e-06
-4.4864762e-07
-1.4599915e-06
-4.1785134e-07
-1.4615384e-06
-3.8685318e-07
-1.4621919e-06
-3.5568864e-07
-1.4619656e-06
-3.2439198e-07
-1.4608737e-06
-2.9299692e-07
-2.6153564e-07
-6.8639409e-10
-2.1196652e-08
-2.7449786e-09
-6.3575788e-08
-6.1719171e-09
-1.0586521e-07
-1.0960364e-08
-1.4799535e-07
-1.7100008e-08
-1.8988549e-07
-2.4577192e-08
-2.3145919e-07
-3.3375172e-08
-2.7264369e-07
-4.3474124e-08
-3.1336766e-07
-5.4851249e-08
-3.5356147e-07
-6.7480902e-08
-3.9315694e-07
-8.1334618e-08
-4.3208765e-07
-9.6381279e-08
-4.7028896e-07
-1.1258714e-07
-5.0769806e-07
-1.2991597e-07
-5.4425426e-07
-1.4832926e-07
-5.798988e-07
-1.6778624e-07
-6.1457532e-07
-1.8824406e-07
-6.4822987e-07
-2.0965782e-07
-6.8081082e-07
-2.3198092e-07
-7.1226926e-07
-2.5516496e-07
-7.4255895e-07
-2.7916017e-07
-7.7163628e-07
-3.0391522e-07
-7.994606e-07
-3.2937771e-07
-8.2599421e-07
-3.5549407e-07
-8.5120212e-07
-3.8220991e-07
-8.7505251e-07
-4.094699e-07
-8.9751665e-07
-4.3721835e-07
-9.1856893e-07
-4.6539896e-07
-9.3818636e-07
-4.9395523e-07
-9.5634952e-07
-5.2283057e-07
-9.7304197e-07
-5.5196826e-07
-9.8825017e-07
-5.8131186e-07
-1.0019638e-06
-6.1080502e-07
-1.0141754e-06
-6.4039222e-07
-1.0248807e-06
-6.7001827e-07
-1.0340782e-06
-6.9962863e-07
-1.0417693e-06
-7.2916986e-07
-1.0479582e-06
-7.5858916e-07
-1.0526519e-06
-7.8783506e-07
-1.05586e-06
-8.1685708e-07
-1.0575947e-06
-8.4560619e-07
-1.0578709e-06
-8.740347e-07
-1.0567053e-06
-9.0209628e-07
-1.0541176e-06
-9.2974603e-07
-1.0501294e-06
-9.5694117e-07
-1.0447644e-06
-9.8364005e-07
-1.0380482e-06
-1.0098032e-06
-1.0300084e-06
-1.0353925e-06
-1.0206745e-06
-1.0603722e-06
-1.0100771e-06
-1.0847081e-06
-9.9824887e-07
-1.1083679e-06
-9.8522374e-07
-1.1313212e-06
-9.7103714e-07
-1.1535402e-06
-9.5572485e-07
-1.1749981e-06
-9.3932473e-07
-1.1956705e-06
-9.2187496e-07
-1.2155355e-06
-9.0341434e-07
-1.2345725e-06
-8.8398336e-07
-1.252763e-06
-8.6362209e-07
-1.2700905e-06
-8.4237157e-07
-1.2865408e-06
-8.2027292e-07
-1.3021011e-06
-7.9736787e-07
-1.3167604e-06
-7.7369801e-07
-1.3305102e-06
-7.4930526e-07
-1.3433429e-06
-7.2423142e-07
-1.3552536e-06
-6.9851779e-07
-1.3662382e-06
-6.7220583e-07
-1.376295e-06
-6.4533734e-07
-1.3854236e-06
-6.1795209e-07
-1.3936247e-06
-5.9009123e-07
-1.4009015e-06
-5.6179361e-07
-1.407258e-06
-5.3309899e-07
-1.4126995e-06
-5.0404602e-07
-1.4172328e-06
-4.7467214e-07
-1.4208658e-06
-4.4501474e-07
-1.4236078e-06
-4.1510946e-07
-1.4254689e-06
-3.8499203e-07
-1.4264607e-06
-3.5469676e-07
-1.4265956e-06
-3.2425717e-07
-1.4258864e-06
-2.9370612e-07
-2.6307444e-07
-6.6202946e-10
-2.0534622e-08
-2.6475566e-09
-6.1590264e-08
-5.9529165e-09
-1.0255985e-07
-1.0571593e-08
-1.4337667e-07
-1.6493745e-08
-1.8396334e-07
-2.3706393e-08
-2.2424654e-07
-3.219356e-08
-2.6415652e-07
-4.1936313e-08
-3.0362491e-07
-5.2912987e-08
-3.4258479e-07
-6.5099136e-08
-3.809708e-07
-7.8467571e-08
-4.1871921e-07
-9.2988684e-08
-4.5576787e-07
-1.0863024e-07
-4.920565e-07
-1.2535776e-07
-5.2752671e-07
-1.4313445e-07
-5.6212211e-07
-1.619214e-07
-5.9578837e-07
-1.8167771e-07
-6.2847351e-07
-2.0236062e-07
-6.6012791e-07
-2.2392552e-07
-6.9070436e-07
-2.4632624e-07
-7.2015822e-07
-2.6951519e-07
-7.4844734e-07
-2.9344336e-07
-7.7553245e-07
-3.1806066e-07
-8.0137691e-07
-3.4331584e-07
-8.2594694e-07
-3.6915679e-07
-8.4921152e-07
-3.9553069e-07
-8.7114278e-07
-4.2238432e-07
-8.9171532e-07
-4.4966356e-07
-9.1090714e-07
-4.7731427e-07
-9.286988e-07
-5.0528232e-07
-9.4507393e-07
-5.3351318e-07
-9.6001933e-07
-5.619527e-07
-9.7352428e-07
-5.9054699e-07
-9.8558116e-07
-6.1924249e-07
-9.9618526e-07
-6.4798608e-07
-1.0053346e-06
-6.7672566e-07
-1.0130298e-06
-7.0540939e-07
-1.0192744e-06
-7.3398669e-07
-1.0240746e-06
-7.6240771e-07
-1.027439e-06
-7.9062409e-07
-1.0293784e-06
-8.1858825e-07
-1.0299067e-06
-8.4625407e-07
-1.0290395e-06
-8.735768e-07
-1.0267948e-06
-9.005133e-07
-1.023193e-06
-9.2702149e-07
-1.0182562e-06
-9.5306143e-07
-1.0120082e-06
-9.7859458e-07
-1.0044752e-06
-1.003584e-06
-9.9568504e-07
-1.0279947e-06
-9.8566639e-07
-1.0517933e-06
-9.7445023e-07
-1.0749483e-06
-9.6206882e-07
-1.0974302e-06
-9.4855507e-07
-1.1192112e-06
-9.3394394e-07
-1.1402653e-06
-9.1827061e-07
-1.1605687e-06
-9.015715e-07
-1.1800989e-06
-8.8388399e-07
-1.1988363e-06
-8.6524602e-07
-1.216762e-06
-8.4569644e-07
-1.2338597e-06
-8.252739e-07
-1.2501148e-06
-8.0401769e-07
-1.2655147e-06
-7.8196811e-07
-1.2800478e-06
-7.5916483e-07
-1.2937053e-06
-7.3564778e-07
-1.3064795e-06
-7.1145732e-07
-1.3183644e-06
-6.8663286e-07
-1.329356e-06
-6.6121429e-07
-1.3394519e-06
-6.352414e-07
-1.3486507e-06
-6.087535e-07
-1.3569528e-06
-5.8178906e-07
-1.36436e-06
-5.5438637e-07
-1.3708761e-06
-5.2658305e-07
-1.3765052e-06
-4.9841701e-07
-1.3812533e-06
-4.699241e-07
-1.3851276e-06
-4.4114047e-07
-1.3881362e-06
-4.1210079e-07
-1.3902884e-06
-3.8283979e-07
-1.3915946e-06
-3.5339057e-07
-1.3920662e-06
-3.2378565e-07
-1.3917153e-06
-2.9405691e-07
-2.6423485e-07
-6.3867383e-10
-1.9895948e-08
-2.5541537e-09
-5.9674783e-08
-5.7429437e-09
-9.9371054e-08
-1.0198857e-08
-1.3892076e-07
-1.591247e-08
-1.7824972e-07
-2.2871436e-08
-2.1728758e-07
-3.1060522e-08
-2.5596744e-07
-4.0461704e-08
-2.9422373e-07
-5.1054303e-08
-3.3199219e-07
-6.2814992e-08
-3.6921011e-07
-7.5717895e-08
-4.0581629e-07
-8.9734692e-08
-4.4175108e-07
-1.0483472e-07
-4.7695649e-07
-1.2098502e-07
-5.1137639e-07
-1.3815054e-07
-5.4495656e-07
-1.5629416e-07
-5.7764475e-07
-1.7537676e-07
-6.0939091e-07
-1.9535754e-07
-6.4014716e-07
-2.1619388e-07
-6.69868e-07
-2.3784174e-07
-6.9851033e-07
-2.6025556e-07
-7.2603356e-07