/*--------------------------------*- C++ -*----------------------------------*\
| =========                 |                                                 |
| \\      /  F ield         | OpenFOAM: The Open Source CFD Toolbox           |
|  \\    /   O peration     | Version:  2306                                  |
|   \\  /    A nd           | Website:  www.openfoam.com                      |
|    \\/     M anipulation  |                                                 |
\*---------------------------------------------------------------------------*/
FoamFile
{
    version     2.0;
    format      ascii;
    arch        "LSB;label=32;scalar=64";
    class       surfaceScalarField;
    location    "0.02";
    object      phi;
}
// * * * * * * * * * * * * * * * * * * * * * * * * * * * * * * * * * * * * * //

dimensions      [0 3 -1 0 0 0 0];

oriented        oriented;

internalField   nonuniform List<scalar> 
12640
(
4.0742837e-07
2.5981521e-07
4.1110565e-07
2.4594048e-07
4.1418839e-07
2.3210821e-07
4.167022e-07
2.1833777e-07
4.1867219e-07
2.0464662e-07
4.2012272e-07
1.9105229e-07
4.2107754e-07
1.7756884e-07
4.2155994e-07
1.642101e-07
4.2159239e-07
1.5098764e-07
4.2119651e-07
1.3791263e-07
4.2039369e-07
1.2499417e-07
4.1920438e-07
1.1224064e-07
4.1764851e-07
9.9658898e-08
4.1574523e-07
8.7255871e-08
4.1351251e-07
7.5036712e-08
4.1096838e-07
6.3005539e-08
4.0812616e-07
5.1165717e-08
4.0501095e-07
3.9517647e-08
4.0162744e-07
2.8071238e-08
3.9799564e-07
1.6822942e-08
3.9413079e-07
5.7701093e-09
3.9005517e-07
-5.0738698e-09
3.8576609e-07
-1.5698685e-08
3.8128117e-07
-2.6134426e-08
3.7661203e-07
-3.6371077e-08
3.7177018e-07
-4.6409e-08
3.6676557e-07
-5.6247737e-08
3.6160861e-07
-6.5889542e-08
3.5630844e-07
-7.5335165e-08
3.5087394e-07
-8.4586922e-08
3.4531313e-07
-9.3647067e-08
3.3963451e-07
-1.0251741e-07
3.3384483e-07
-1.1120071e-07
3.2795162e-07
-1.1969858e-07
3.2196083e-07
-1.2801422e-07
3.1587934e-07
-1.3615025e-07
3.0971259e-07
-1.441097e-07
3.0346558e-07
-1.5189451e-07
2.9714312e-07
-1.5950798e-07
2.9075021e-07
-1.6695312e-07
2.8429105e-07
-1.742324e-07
2.7776934e-07
-1.813489e-07
2.7118923e-07
-1.8830533e-07
2.6455356e-07
-1.9510435e-07
2.5786588e-07
-2.0174894e-07
2.5112869e-07
-2.0824167e-07
2.4434518e-07
-2.1458558e-07
2.3751669e-07
-2.2078284e-07
2.3064605e-07
-2.2683621e-07
2.2373436e-07
-2.3274797e-07
2.1678395e-07
-2.3852089e-07
2.0979546e-07
-2.4415685e-07
2.0277088e-07
-2.4965873e-07
1.9571168e-07
-2.5502882e-07
1.8861778e-07
-2.6026806e-07
1.8149049e-07
-2.6537975e-07
1.7433022e-07
-2.7036432e-07
1.6713757e-07
-2.752246e-07
1.5991245e-07
-2.7996215e-07
1.5265497e-07
-2.8457876e-07
1.4536504e-07
-2.8907526e-07
1.3804321e-07
-2.9345351e-07
1.3068824e-07
-2.977145e-07
1.2330037e-07
-3.0185903e-07
1.1587929e-07
-3.0588833e-07
1.0842416e-07
-3.0980389e-07
1.0093468e-07
-3.1360531e-07
9.3409699e-08
-3.1729449e-07
8.5849e-08
-3.2087062e-07
7.8250879e-08
-3.2433477e-07
7.0615312e-08
-3.2768684e-07
6.2940655e-08
-3.3092729e-07
5.5225858e-08
-3.3405578e-07
4.7470016e-08
-3.3707217e-07
3.9671704e-08
-3.3997556e-07
3.1830047e-08
-3.4276592e-07
2.3943343e-08
-3.4544271e-07
1.6009883e-08
-3.4800492e-07
8.0295594e-09
-3.5045236e-07
-3.5278679e-07
3.9043154e-07
2.5528549e-07
3.9435712e-07
2.4201478e-07
3.9770313e-07
2.2876233e-07
4.004927e-07
2.1554815e-07
4.0274889e-07
2.0239041e-07
4.0449495e-07
1.8930627e-07
4.0575284e-07
1.7631094e-07
4.0654488e-07
1.6341806e-07
4.0689206e-07
1.5064064e-07
4.0681522e-07
1.3798932e-07
4.0633466e-07
1.2547472e-07
4.0546964e-07
1.1310574e-07
4.0423896e-07
1.0088963e-07
4.0266117e-07
8.8833751e-08
4.0075376e-07
7.6944229e-08
3.9853343e-07
6.5225592e-08
3.9601682e-07
5.3682403e-08
3.9321725e-07
4.2317344e-08
3.9015254e-07
3.1135903e-08
3.8683782e-07
2.0137666e-08
3.8328111e-07
9.3270037e-09
3.7951211e-07
-1.3050092e-09
3.7552629e-07
-1.1713157e-08
3.7134023e-07
-2.1948171e-08
3.669649e-07
-3.1995922e-08
3.6241192e-07
-4.1855954e-08
3.5769153e-07
-5.1527247e-08
3.5281324e-07
-6.1011487e-08
3.477872e-07
-7.0309124e-08
3.4262147e-07
-7.9421247e-08
3.3732447e-07
-8.8349911e-08
3.3190358e-07
-9.7096948e-08
3.2636685e-07
-1.0566365e-07
3.2072049e-07
-1.1405249e-07
3.1497174e-07
-1.2226558e-07
3.0912642e-07
-1.3030492e-07
3.0319067e-07
-1.3817373e-07
2.9716968e-07
-1.4587356e-07
2.9106832e-07
-1.5340656e-07
2.8489102e-07
-1.6077582e-07
2.7864254e-07
-1.6798381e-07
2.7232656e-07
-1.7503317e-07
2.6594711e-07
-1.8192568e-07
2.5950745e-07
-1.8866483e-07
2.5301149e-07
-1.9525294e-07
2.4646153e-07
-2.0169185e-07
2.3986059e-07
-2.0798463e-07
2.3321071e-07
-2.1413299e-07
2.2651401e-07
-2.2013956e-07
2.197731e-07
-2.2600705e-07
2.1298896e-07
-2.3173672e-07
2.0616366e-07
-2.3733165e-07
1.9929815e-07
-2.4279354e-07
1.9239393e-07
-2.4812447e-07
1.8545254e-07
-2.5332698e-07
1.7847457e-07
-2.5840168e-07
1.7146008e-07
-2.6335025e-07
1.6441013e-07
-2.6817472e-07
1.5732554e-07
-2.7287768e-07
1.5020606e-07
-2.7745909e-07
1.4305178e-07
-2.8192096e-07
1.3586283e-07
-2.8626443e-07
1.2863909e-07
-2.904906e-07
1.2138032e-07
-2.9460001e-07
1.1408639e-07
-2.9859464e-07
1.0675678e-07
-3.0247426e-07
9.9391263e-08
-3.0623999e-07
9.1988935e-08
-3.0989186e-07
8.4549086e-08
-3.1343097e-07
7.7071634e-08
-3.1685704e-07
6.9555507e-08
-3.2017068e-07
6.199931e-08
-3.2337125e-07
5.4402827e-08
-3.2645909e-07
4.6764351e-08
-3.2943374e-07
3.9083517e-08
-3.3229461e-07
3.1358693e-08
-3.3504122e-07
2.3589237e-08
-3.3767299e-07
1.5773812e-08
-3.4018938e-07
7.9108431e-09
-3.4258939e-07
-3.4487581e-07
3.7409092e-07
2.5055535e-07
3.7823366e-07
2.3787208e-07
3.8181154e-07
2.2518436e-07
3.8484646e-07
2.1251322e-07
3.8735974e-07
1.9987721e-07
3.893727e-07
1.8729318e-07
3.9090657e-07
1.7477715e-07
3.9198152e-07
1.6234327e-07
3.9261771e-07
1.500043e-07
3.9283507e-07
1.3777217e-07
3.9265233e-07
1.2565736e-07
3.9208871e-07
1.1366933e-07
3.9116155e-07
1.0181675e-07
3.8988821e-07
9.0106998e-08
3.8828565e-07
7.8546604e-08
3.8637035e-07
6.7140999e-08
3.8415685e-07
5.5895774e-08
3.8166243e-07
4.4811768e-08
3.788985e-07
3.3899439e-08
3.7588192e-07
2.3154404e-08
3.7262848e-07
1.2580295e-08
3.6913758e-07
2.1860059e-09
3.6544591e-07
-8.0214096e-09
3.6154599e-07
-1.8048144e-08
3.5745278e-07
-2.7902892e-08
3.5317753e-07
-3.7580882e-08
3.4873063e-07
-4.7080339e-08
3.4412154e-07
-5.6402174e-08
3.3935914e-07
-6.5546884e-08
3.3445273e-07
-7.4515002e-08
3.2941028e-07
-8.3307512e-08
3.242397e-07
-9.192617e-08
3.1894825e-07
-1.003722e-07
3.1354221e-07
-1.0864674e-07
3.0802898e-07
-1.1675208e-07
3.0241432e-07
-1.246903e-07
2.9670379e-07
-1.3246328e-07
2.9090304e-07
-1.400727e-07
2.8501702e-07
-1.4752068e-07
2.7905074e-07
-1.5480946e-07
2.7300853e-07
-1.619417e-07
2.668947e-07
-1.6891936e-07
2.6071303e-07
-1.7574383e-07
2.5446682e-07
-1.8241882e-07
2.4815943e-07
-1.8894533e-07
2.417939e-07
-1.9532622e-07
2.3537251e-07
-2.0156315e-07
2.2889867e-07
-2.0765914e-07
2.2237445e-07
-2.1361531e-07
2.1580197e-07
-2.1943415e-07
2.0918262e-07
-2.2511762e-07
2.0251897e-07
-2.3066775e-07
1.9581222e-07
-2.3608665e-07
1.8906346e-07
-2.4137567e-07
1.8227332e-07
-2.4653711e-07
1.7544354e-07
-2.515716e-07
1.6857433e-07
-2.5648091e-07
1.6166749e-07
-2.6126794e-07
1.5472272e-07
-2.6593289e-07
1.477406e-07
-2.7047721e-07
1.4072212e-07
-2.7490226e-07
1.3366632e-07
-2.792088e-07
1.2657392e-07
-2.8339794e-07
1.1944519e-07
-2.8747132e-07
1.1227847e-07
-2.9142805e-07
1.0507528e-07
-2.9527071e-07
9.7834399e-08
-2.989992e-07
9.0555797e-08
-3.0261321e-07
8.3238083e-08
-3.0611343e-07
7.5882034e-08
-3.0950071e-07
6.8485826e-08
-3.1277443e-07
6.1049415e-08
-3.1593481e-07
5.3571777e-08
-3.1898168e-07
4.6051842e-08
-3.2191371e-07
3.8489284e-08
-3.247321e-07
3.0882977e-08
-3.2743482e-07
2.3231802e-08
-3.3002195e-07
1.5534929e-08
-3.3249253e-07
7.7914183e-09
-3.3484609e-07
-3.3708427e-07
3.5839265e-07
2.456554e-07
3.627228e-07
2.335419e-07
3.6650364e-07
2.2140373e-07
3.697552e-07
2.092616e-07
3.7249739e-07
1.9713488e-07
3.7475073e-07
1.8504013e-07
3.7653391e-07
1.7299385e-07
3.7786662e-07
1.6101057e-07
3.7876766e-07
1.4910327e-07
3.7925562e-07
1.3728427e-07
3.7934842e-07
1.2556453e-07
3.7906357e-07
1.139542e-07
3.7841836e-07
1.0246202e-07
3.7742938e-07
9.1096044e-08
3.7611261e-07
7.9863459e-08
3.7448351e-07
6.8770169e-08
3.7255737e-07
5.7821954e-08
3.7034678e-07
4.7022381e-08
3.6786939e-07
3.6376979e-08
3.6513398e-07
2.5889713e-08
3.6215636e-07
1.555804e-08
3.5895212e-07
5.390215e-09
3.5553529e-07
-4.6046076e-09
3.5190693e-07
-1.4419768e-08
3.4808308e-07
-2.4078977e-08
3.440738e-07
-3.3571631e-08
3.3988948e-07
-4.2896049e-08
3.3553905e-07
-5.2051764e-08
3.3103139e-07
-6.1039077e-08
3.2637558e-07
-6.9859013e-08
3.2157932e-07
-7.8511393e-08
3.1665023e-07
-8.6997025e-08
3.1159568e-07
-9.5317791e-08
3.0642293e-07
-1.0347368e-07
3.0113827e-07
-1.1146749e-07
2.9574784e-07
-1.1929995e-07
2.9025721e-07
-1.269726e-07
2.8467191e-07
-1.3448746e-07
2.7899674e-07
-1.4184549e-07
2.7323695e-07
-1.4904962e-07
2.67397e-07
-1.5610198e-07
2.6148101e-07
-1.6300315e-07
2.5549312e-07
-1.6975594e-07
2.4943647e-07
-1.7636193e-07
2.4331444e-07
-1.8282355e-07
2.3713029e-07
-1.8914222e-07
2.3088688e-07
-1.9531975e-07
2.2458699e-07
-2.0135923e-07
2.1823304e-07
-2.0726147e-07
2.118271e-07
-2.1302833e-07
2.0537112e-07
-2.1866186e-07
1.9886727e-07
-2.2416384e-07
1.9231717e-07
-2.2953649e-07
1.857218e-07
-2.3478058e-07
1.7908255e-07
-2.3989758e-07
1.7240028e-07
-2.4488942e-07
1.6567659e-07
-2.4975743e-07
1.5891207e-07
-2.5450335e-07
1.5210771e-07
-2.5912844e-07
1.4526348e-07
-2.6363304e-07
1.3837991e-07
-2.6801865e-07
1.3145746e-07
-2.7228645e-07
1.2449688e-07
-2.7643721e-07
1.174969e-07
-2.8047157e-07
1.1045926e-07
-2.8439009e-07
1.0338211e-07
-2.8819361e-07
9.6266035e-08
-2.9188323e-07
8.9111131e-08
-2.9545818e-07
8.1916408e-08
-2.9891909e-07
7.4681846e-08
-3.0226619e-07
6.7407297e-08
-3.0549971e-07
6.0090977e-08
-3.0861853e-07
5.2733275e-08
-3.1162366e-07
4.5333194e-08
-3.1451361e-07
3.7889685e-08
-3.1728864e-07
3.0402937e-08
-3.1994797e-07
2.2870979e-08
-3.2249027e-07
1.5294032e-08
-3.249153e-07
7.6704757e-09
-3.2722252e-07
-3.2941369e-07
3.4332114e-07
2.4061371e-07
3.478107e-07
2.2905233e-07
3.5176718e-07
2.1744735e-07
3.5520884e-07
2.0581991e-07
3.5815435e-07
1.9418935e-07
3.6062192e-07
1.8257249e-07
3.626298e-07
1.709859e-07
3.641963e-07
1.5944416e-07
3.6533885e-07
1.479607e-07
3.6607481e-07
1.3654845e-07
3.6642093e-07
1.2521843e-07
3.6639415e-07
1.1398105e-07
3.6601051e-07
1.0284551e-07
3.6528591e-07
9.1820596e-08
3.6423591e-07
8.0913439e-08
3.6287483e-07
7.0131038e-08
3.6121752e-07
5.9479328e-08
3.5927721e-07
4.8962738e-08
3.570682e-07
3.8585924e-08
3.5460319e-07
2.8354846e-08
3.5189056e-07
1.8270416e-08
3.4894905e-07
8.3316244e-09
3.4579334e-07
-1.4486513e-09
3.4242704e-07
-1.1053493e-08
3.3886132e-07
-2.0513537e-08
3.3510723e-07
-2.9817368e-08
3.3117448e-07
-3.8962942e-08
3.2707245e-07
-4.7949915e-08
3.2281008e-07
-5.6776884e-08
3.1839552e-07
-6.5444471e-08
3.1383687e-07
-7.3952625e-08
3.09142e-07
-8.230228e-08
3.0431724e-07
-9.0492962e-08
2.9937042e-07
-9.8526774e-08
2.9430753e-07
-1.064046e-07
2.8913477e-07
-1.1412714e-07
2.8385812e-07
-1.2169582e-07
2.7848229e-07
-1.2911169e-07
2.73013e-07
-1.3637614e-07
2.6745515e-07
-1.4349188e-07
2.6181285e-07
-1.5045968e-07
2.5609087e-07
-1.5728121e-07
2.5029241e-07
-1.6395745e-07
2.4442195e-07
-1.704914e-07
2.38482e-07
-1.7688372e-07
2.3247623e-07
-1.8313631e-07
2.2640843e-07
-1.8925198e-07
2.2028028e-07
-1.9523084e-07
2.1409421e-07
-2.0107543e-07
2.0785283e-07
-2.0678695e-07
2.0155859e-07
-2.1236746e-07
1.9521296e-07
-2.1781839e-07
1.8881783e-07
-2.2314127e-07
1.8237427e-07
-2.2833716e-07
1.7588445e-07
-2.3340753e-07
1.6934922e-07
-2.3835417e-07
1.6277019e-07
-2.4317836e-07
1.5614781e-07
-2.4788111e-07
1.4948293e-07
-2.5246342e-07
1.4277611e-07
-2.5692594e-07
1.3602788e-07
-2.6127052e-07
1.2923881e-07
-2.6549738e-07
1.2240902e-07
-2.6960755e-07
1.15539e-07
-2.7360171e-07
1.0862904e-07
-2.7748005e-07
1.0167918e-07
-2.8124376e-07
9.4688606e-08
-2.8489279e-07
8.7657905e-08
-2.884276e-07
8.0586505e-08
-2.9184759e-07
7.347439e-08
-2.9515409e-07
6.632094e-08
-2.983463e-07
5.9126203e-08
-3.0142386e-07
5.1888856e-08
-3.0438644e-07
4.460913e-08
-3.0723365e-07
3.7285913e-08
-3.0996561e-07
2.9918903e-08
-3.125811e-07
2.2507805e-08
-3.1507905e-07
1.5051255e-08
-3.1745882e-07
7.5489864e-09
-3.1972037e-07
-3.2186496e-07
3.2886013e-07
2.3545677e-07
3.3348356e-07
2.2442892e-07
3.375898e-07
2.1334095e-07
3.4119658e-07
2.0221336e-07
3.4432071e-07
1.9106524e-07
3.4697911e-07
1.7991427e-07
3.4918849e-07
1.6877651e-07
3.5096571e-07
1.5766682e-07
3.5232723e-07
1.4659927e-07
3.5328936e-07
1.3558623e-07
3.5386819e-07
1.2463954e-07
3.5407928e-07
1.1376987e-07
3.5393789e-07
1.0298677e-07
3.534593e-07
9.2299193e-08
3.5265756e-07
8.1715169e-08
3.5154722e-07
7.1241383e-08
3.50142e-07
6.0884372e-08
3.4845472e-07
5.0650069e-08
3.464992e-07
4.0541461e-08
3.4428742e-07
3.0566719e-08
3.4183101e-07
2.0726785e-08
3.3913959e-07
1.1023156e-08
3.3622614e-07
1.4646782e-09
3.3311162e-07
-7.9388444e-09
3.2979293e-07
-1.7194787e-08
3.2628293e-07
-2.6307272e-08
3.225918e-07
-3.5271967e-08
3.1872815e-07
-4.4086332e-08
3.1470129e-07
-5.2749924e-08
3.1051915e-07
-6.1262367e-08
3.0618972e-07
-6.9623273e-08
3.0172019e-07
-7.7832717e-08
2.971182e-07
-8.5890843e-08
2.9238994e-07
-9.3798924e-08
2.8754226e-07
-1.015568e-07
2.8258115e-07
-1.0916597e-07
2.7751179e-07
-1.1662656e-07
2.7234046e-07
-1.2394015e-07
2.6707203e-07
-1.3110772e-07
2.6171109e-07
-1.38131e-07
2.5626222e-07
-1.4501065e-07
2.5072932e-07
-1.5174861e-07
2.4511722e-07
-1.5834522e-07
2.3942895e-07
-1.6480316e-07
2.3366807e-07
-1.7112296e-07
2.2783812e-07
-1.7730638e-07
2.2194183e-07
-1.8335594e-07
2.1598244e-07
-1.8927139e-07
2.0996199e-07
-1.9505517e-07
2.0388347e-07
-2.0070832e-07
1.9774854e-07
-2.062325e-07
1.9155974e-07
-2.1162944e-07
1.8531812e-07
-2.1689969e-07
1.790257e-07
-2.220448e-07
1.7268454e-07
-2.2706626e-07
1.6629534e-07
-2.3196495e-07
1.5985931e-07
-2.3674239e-07
1.533778e-07
-2.413996e-07
1.4685147e-07
-2.4593682e-07
1.4028137e-07
-2.5035594e-07
1.3366811e-07
-2.5465705e-07
1.2701208e-07
-2.5884142e-07
1.2031357e-07
-2.6290899e-07
1.1357326e-07
-2.668613e-07
1.0679167e-07
-2.7069851e-07
9.9968426e-08
-2.7442051e-07
9.3103819e-08
-2.7802832e-07
8.6197404e-08
-2.8152117e-07
7.9249877e-08
-2.8490017e-07
7.2260464e-08
-2.8816473e-07
6.5229149e-08
-2.9131506e-07
5.8155823e-08
-2.943503e-07
5.1039716e-08
-2.9727026e-07
4.3880933e-08
-3.0007504e-07
3.6678666e-08
-3.0276329e-07
2.9432872e-08
-3.0533485e-07
2.2141996e-08
-3.0778853e-07
1.4807102e-08
-3.1012379e-07
7.4262327e-09
-3.1233963e-07
-3.1443858e-07
3.1499333e-07
2.3020886e-07
3.1972635e-07
2.1969591e-07
3.2395929e-07
2.0910802e-07
3.2770775e-07
1.9846482e-07
3.309874e-07
1.8778561e-07
3.3381362e-07
1.7708796e-07
3.3620231e-07
1.6638794e-07
3.381687e-07
1.5570046e-07
3.3972814e-07
1.4503973e-07
3.4089617e-07
1.3441816e-07
3.416875e-07
1.2384822e-07
3.421171e-07
1.1334045e-07
3.4219938e-07
1.029046e-07
3.4194844e-07
9.2550178e-08
3.4137796e-07
8.228561e-08
3.4050141e-07
7.2117838e-08
3.3933223e-07
6.2053758e-08
3.3788283e-07
5.2099419e-08
3.361648e-07
4.2259303e-08
3.3419151e-07
3.2539985e-08
3.3197331e-07
2.2945092e-08
3.2952037e-07
1.3475975e-08
3.26848e-07
4.1369874e-09
3.2396826e-07
-5.0591683e-09
3.2088336e-07
-1.4109992e-08
3.1760611e-07
-2.3029944e-08
3.1414556e-07
-3.1811145e-08
3.1051058e-07
-4.0451315e-08
3.0670966e-07
-4.8949124e-08
3.0275104e-07
-5.7303814e-08
2.9864248e-07
-6.5514532e-08
2.9439097e-07
-7.3581212e-08
2.9000384e-07
-8.1503884e-08
2.8548711e-07
-8.9282198e-08
2.8084817e-07
-9.691797e-08
2.7609216e-07
-1.0440983e-07
2.7122489e-07
-1.117592e-07
2.6625226e-07
-1.1896765e-07
2.6117906e-07
-1.2603453e-07
2.5600979e-07
-1.3296176e-07
2.5074953e-07
-1.3975034e-07
2.4540199e-07
-1.4640091e-07
2.399717e-07
-1.5291488e-07
2.3446199e-07
-1.5929369e-07
2.2887699e-07
-1.6553773e-07
2.2321928e-07
-1.7164892e-07
2.1749228e-07
-1.7762891e-07
2.1169891e-07
-1.8347826e-07
2.058419e-07
-1.891979e-07
1.9992363e-07
-1.947901e-07
1.9394612e-07
-2.0025513e-07
1.8791179e-07
-2.0559492e-07
1.8182206e-07
-2.1081018e-07
1.7567937e-07
-2.1590216e-07
1.6948502e-07
-2.20872e-07
1.6324028e-07
-2.2572044e-07
1.5694658e-07
-2.3044891e-07
1.5060522e-07
-2.3505801e-07
1.4421695e-07
-2.3954849e-07
1.3778277e-07
-2.4392176e-07
1.3130384e-07
-2.4817817e-07
1.2478045e-07
-2.5231778e-07
1.1821326e-07
-2.5634181e-07
1.1160259e-07
-2.602508e-07
1.0494893e-07
-2.6404479e-07
9.8252365e-08
-2.67724e-07
9.1513223e-08
-2.7128903e-07
8.4731845e-08
-2.7473976e-07
7.7908123e-08
-2.7807642e-07
7.1041834e-08
-2.8129836e-07
6.4132906e-08
-2.8440624e-07
5.7181212e-08
-2.8739854e-07
5.0186963e-08
-2.902762e-07
4.314944e-08
-2.9303736e-07
3.6068342e-08
-2.9568227e-07
2.8943664e-08
-2.9821029e-07
2.1774992e-08
-3.006199e-07
1.4561867e-08
-3.0291029e-07
7.3035684e-09
-3.0508158e-07
-3.0713494e-07
3.0170356e-07
2.2489172e-07
3.0652407e-07
2.1487546e-07
3.1086168e-07
2.0477036e-07
3.1473002e-07
1.9459647e-07
3.1814356e-07
1.8437212e-07
3.2111652e-07
1.7411501e-07
3.2366337e-07
1.6384107e-07
3.2579866e-07
1.5356529e-07
3.2753634e-07
1.4330205e-07
3.2889067e-07
1.3306383e-07
3.298758e-07
1.2286297e-07
3.3050558e-07
1.1271068e-07
3.3079331e-07
1.0261693e-07
3.3075269e-07
9.2590818e-08
3.3039672e-07
8.2641647e-08
3.2973798e-07
7.2776449e-08
3.287893e-07
6.300244e-08
3.275621e-07
5.3326678e-08
3.260681e-07
4.3753504e-08
3.2431982e-07
3.4288143e-08
3.2232838e-07
2.4936627e-08
3.2010193e-07
1.5702419e-08
3.1765008e-07
6.5887158e-09
3.1499742e-07
-2.4066065e-09
3.1213548e-07
-1.1247978e-08
3.0908036e-07
-1.9974705e-08
3.058404e-07
-2.857151e-08
3.0242449e-07
-3.7035426e-08
2.9884064e-07
-4.536527e-08
2.9509673e-07
-5.3559964e-08
2.9120044e-07
-6.1618289e-08
2.8715883e-07
-6.9539614e-08
2.8297881e-07
-7.7323809e-08
2.7866712e-07
-8.4970584e-08
2.742298e-07
-9.2480455e-08
2.6967269e-07
-9.9852769e-08
2.650018e-07
-1.0708825e-07
2.6022191e-07
-1.1418788e-07
2.5533882e-07
-1.2115119e-07
2.5035683e-07
-1.2797969e-07
2.4528017e-07
-1.3467364e-07
2.4011362e-07
-1.4123447e-07
2.3486086e-07
-1.4766226e-07
2.2952641e-07
-1.5395898e-07
2.2411306e-07
-1.6012447e-07
2.186244e-07
-1.6616039e-07
2.1306387e-07
-1.7206819e-07
2.0743393e-07
-1.7784814e-07
2.0173742e-07
-1.8350167e-07
1.9597676e-07
-1.8902929e-07
1.9015461e-07
-1.9443284e-07
1.8427296e-07
-1.9971329e-07
1.7833351e-07
-2.0487086e-07
1.7233849e-07
-2.0990711e-07
1.6628948e-07
-2.14823e-07
1.6018826e-07
-2.1961914e-07
1.5403581e-07
-2.2429651e-07
1.4783356e-07
-2.2885587e-07
1.4158253e-07
-2.3329759e-07
1.3528394e-07
-2.3762307e-07
1.2893851e-07
-2.4183242e-07
1.2254705e-07
-2.4592632e-07
1.1611008e-07
-2.4990482e-07
1.0962878e-07
-2.5376938e-07
1.0310266e-07
-2.575185e-07
9.6532753e-08
-2.6115434e-07
8.9919452e-08
-2.6467572e-07
8.3262631e-08
-2.680831e-07
7.6562759e-08
-2.7137653e-07
6.9819656e-08
-2.7455521e-07
6.3033283e-08
-2.7761989e-07
5.6203984e-08
-2.8056922e-07
4.9331269e-08
-2.8340345e-07
4.2415615e-08
-2.8612172e-07
3.5456518e-08
-2.8872317e-07
2.8453371e-08
-2.9120743e-07
2.1406819e-08
-2.935732e-07
1.4316017e-08
-2.9581978e-07
7.1801271e-09
-2.9794566e-07
-2.9995469e-07
2.8897378e-07
2.1952626e-07
2.9386109e-07
2.0998824e-07
2.9828272e-07
2.0034866e-07
3.0225053e-07
1.9062855e-07
3.0577778e-07
1.8084502e-07
3.0887754e-07
1.7101521e-07
3.1156343e-07
1.6115538e-07
3.1384811e-07
1.5128072e-07
3.1574502e-07
1.4140499e-07
3.1726747e-07
1.3154143e-07
3.1842842e-07
1.2170201e-07
3.1924081e-07
1.1189833e-07
3.1971746e-07
1.0214033e-07
3.1987058e-07
9.2437735e-08
3.1971294e-07
8.2799293e-08
3.1925651e-07
7.3232949e-08
3.1851293e-07
6.3746202e-08
3.1749378e-07
5.4345875e-08
3.1620971e-07
4.5037654e-08
3.1467425e-07
3.5823755e-08
3.128937e-07
2.6717091e-08
3.1088104e-07
1.7714999e-08
3.0864872e-07
8.8210764e-09
3.0619802e-07
4.4290427e-11
3.0355189e-07
-8.6019385e-09
3.0070922e-07
-1.7132159e-08
2.9768034e-07
-2.5542447e-08
2.9447379e-07
-3.3828945e-08
2.91098e-07
-4.1989371e-08
2.8756009e-07
-5.0022087e-08
2.8386811e-07
-5.7926176e-08
2.8002873e-07
-6.5700296e-08
2.7604868e-07
-7.3343671e-08
2.719346e-07
-8.0856612e-08
2.6769215e-07
-8.8238013e-08
2.6332777e-07
-9.5488412e-08
2.5884681e-07
-1.0260725e-07
2.5425438e-07
-1.095955e-07
2.495559e-07
-1.1645274e-07
2.4475585e-07
-1.2317969e-07
2.3985851e-07
-1.2977648e-07
2.3486843e-07
-1.362444e-07
2.2978974e-07
-1.4258337e-07
2.2462599e-07
-1.4879522e-07
2.1938102e-07
-1.5487957e-07
2.1405853e-07
-1.6083774e-07
2.0866062e-07
-1.6667052e-07
2.0319108e-07
-1.7237855e-07
1.9765216e-07
-1.7796296e-07
1.9204717e-07
-1.8342418e-07
1.8637785e-07
-1.8876386e-07
1.8064669e-07
-1.9398188e-07
1.7485569e-07
-1.9907981e-07
1.6900678e-07
-2.0405853e-07
1.6310153e-07
-2.0891766e-07
1.5714221e-07
-2.1365969e-07
1.5112954e-07
-2.1828387e-07
1.4506538e-07
-2.2279189e-07
1.3895086e-07
-2.2718312e-07
1.3278655e-07
-2.3145904e-07
1.2657397e-07
-2.3561989e-07
1.2031375e-07
-2.3966615e-07
1.1400709e-07
-2.4359821e-07
1.0765395e-07
-2.4741627e-07
1.0125545e-07
-2.5112022e-07
9.4811919e-08
-2.5471067e-07
8.8323636e-08
-2.5818762e-07
8.1791605e-08
-2.6155078e-07
7.5215341e-08
-2.648003e-07
6.8595467e-08
-2.6793544e-07
6.1931715e-08
-2.7095635e-07
5.5225146e-08
-2.7386236e-07
4.8474426e-08
-2.7665267e-07
4.1680472e-08
-2.793277e-07
3.4842935e-08
-2.818858e-07
2.7961963e-08
-2.8432656e-07
2.1037396e-08
-2.8664877e-07
1.4068753e-08
-2.8885118e-07
7.0565166e-09
-2.9093355e-07
-2.9289815e-07
2.7678566e-07
2.1413088e-07
2.817211e-07
2.0505283e-07
2.8620749e-07
1.9586226e-07
2.9025608e-07
1.8657992e-07
2.9387837e-07
1.7722275e-07
2.9708676e-07
1.6780681e-07
2.9989283e-07
1.5834919e-07
3.023092e-07
1.4886422e-07
3.0434811e-07
1.3936611e-07
3.060211e-07
1.2986836e-07
3.0734066e-07
1.2038248e-07
3.0831919e-07
1.1091989e-07
3.0896802e-07
1.0149125e-07
3.0929954e-07
9.2106272e-08
3.0932479e-07
8.2773886e-08
3.0905582e-07
7.3501983e-08
3.0850331e-07
6.4298689e-08
3.0767844e-07
5.5170667e-08
3.0659194e-07
4.6124112e-08
3.0525297e-07
3.7162763e-08
3.0367394e-07
2.8296015e-08
3.0186315e-07
1.9525794e-08
2.9982931e-07
1.0854878e-08
2.9758217e-07
2.291281e-09
2.9513786e-07
-6.1576006e-09
2.9249692e-07
-1.4491114e-08
2.8966883e-07
-2.271454e-08
2.8666268e-07
-3.0822799e-08
2.834855e-07
-3.8812259e-08
2.8014555e-07
-4.6682134e-08
2.7664944e-07
-5.4430015e-08
2.7300416e-07
-6.2055026e-08
2.6921661e-07
-6.9556249e-08
2.6529318e-07
-7.6932996e-08
2.6123981e-07
-8.4184678e-08
2.5706143e-07
-9.1310156e-08
2.5276465e-07
-9.8310471e-08
2.4835376e-07
-1.0518453e-07
2.4383445e-07
-1.1193351e-07
2.3921102e-07
-1.1855626e-07
2.3448864e-07
-1.2505394e-07
2.2967097e-07
-1.3142661e-07
2.2476186e-07
-1.3767449e-07
2.1976524e-07
-1.4379865e-07
2.1468531e-07
-1.4979951e-07
2.0952458e-07
-1.5567704e-07
2.0428648e-07
-1.6143253e-07
1.9897395e-07
-1.6706619e-07
1.9359071e-07
-1.725793e-07
1.8813826e-07
-1.7797177e-07
1.8261961e-07
-1.8324485e-07
1.7703667e-07
-1.8839913e-07
1.713922e-07
-1.9343551e-07
1.6568728e-07
-1.9835343e-07
1.5992466e-07
-2.0315499e-07
1.5410533e-07
-2.0784017e-07
1.4823127e-07
-2.1240995e-07
1.4230348e-07
-2.1686405e-07
1.3632372e-07
-2.2120332e-07
1.3029278e-07
-2.2542834e-07
1.2421212e-07
-2.2953931e-07
1.1808287e-07
-2.3353663e-07
1.1190522e-07
-2.3742041e-07
1.0568028e-07
-2.4119142e-07
9.9409016e-08
-2.4484894e-07
9.3091502e-08
-2.4839325e-07
8.6728301e-08
-2.5182459e-07
8.0320057e-08
-2.5514284e-07
7.386746e-08
-2.5834742e-07
6.7370538e-08
-2.614386e-07
6.0829505e-08
-2.6441512e-07
5.4244732e-08
-2.6727766e-07
4.7616253e-08
-2.7002429e-07
4.0944144e-08
-2.726558e-07
3.4228418e-08
-2.7517026e-07
2.7469813e-08
-2.7756753e-07
2.0667214e-08
-2.7984608e-07
1.3821472e-08
-2.8200525e-07
6.9325592e-09
-2.8404467e-07
-2.8596546e-07
2.6512147e-07
2.0872285e-07
2.7008755e-07
2.000867e-07
2.7462136e-07
1.9132851e-07
2.7873315e-07
1.8246811e-07
2.8243341e-07
1.7352257e-07
2.8573293e-07
1.6450727e-07
2.8864266e-07
1.5543944e-07
2.9117361e-07
1.463332e-07
2.9333722e-07
1.372027e-07
2.9514461e-07
1.2806104e-07
2.9660709e-07
1.1891994e-07
2.9773569e-07
1.0979119e-07
2.9854166e-07
1.0068533e-07
2.990363e-07
9.1611633e-08
2.9923037e-07
8.2579892e-08
2.9913421e-07
7.3598097e-08
2.9875885e-07
6.467405e-08
2.9811452e-07
5.5814989e-08
2.9721169e-07
4.7026935e-08
2.9605879e-07
3.831558e-08
2.9466689e-07
2.968801e-08
2.9304605e-07
2.1146756e-08
2.912027e-07
1.2698553e-08
2.8914785e-07
4.3460134e-09
2.868956e-07
-3.9053905e-09
2.8444551e-07
-1.204099e-08
2.8180876e-07
-2.0077783e-08
2.7899288e-07
-2.8006846e-08
2.7600634e-07
-3.5825591e-08
2.7285536e-07
-4.3531318e-08
2.6954718e-07
-5.1122024e-08
2.6608906e-07
-5.8596873e-08
2.6248702e-07
-6.5954149e-08
2.5874728e-07
-7.3193171e-08
2.5487522e-07
-8.031269e-08
2.5087733e-07
-8.7312374e-08
2.4675862e-07
-9.4191737e-08
2.4252419e-07
-1.0095025e-07
2.3817904e-07
-1.0758838e-07
2.3372759e-07
-1.1410469e-07
2.2917461e-07
-1.2050097e-07
2.2452441e-07
-1.2677637e-07
2.1978108e-07
-1.3293084e-07
2.1494784e-07
-1.3896532e-07
2.1002819e-07
-1.4487988e-07
2.0502627e-07
-1.506752e-07
1.9994478e-07
-1.5635101e-07
1.9478732e-07
-1.6190852e-07
1.8955595e-07
-1.6734806e-07
1.842538e-07
-1.7266956e-07
1.7888303e-07
-1.7787428e-07
1.7344652e-07
-1.829627e-07
1.6794606e-07
-1.8793485e-07
1.6238361e-07
-1.9279108e-07
1.5676112e-07
-1.9753236e-07
1.5108061e-07
-2.0215961e-07
1.4534322e-07
-2.0667246e-07
1.3955069e-07
-2.1107164e-07
1.3370484e-07
-2.1535744e-07
1.2780643e-07
-2.1952978e-07
1.218566e-07
-2.2358963e-07
1.1585666e-07
-2.2753674e-07
1.098075e-07
-2.3137148e-07
1.0371e-07
-2.3509399e-07
9.7564736e-08
-2.3870343e-07
9.1372793e-08
-2.4220111e-07
8.513433e-08
-2.4558627e-07
7.8849921e-08
-2.4885842e-07
7.2520788e-08
-2.5201839e-07
6.6146447e-08
-2.5506418e-07
5.9727888e-08
-2.5799662e-07
5.3265151e-08
-2.6081483e-07
4.6758518e-08
-2.6351761e-07
4.0208091e-08
-2.6610538e-07
3.3614603e-08
-2.6857668e-07
2.6977307e-08
-2.7093055e-07
2.0297279e-08
-2.7316593e-07
1.3574413e-08
-2.7528239e-07
6.8084934e-09
-2.7727879e-07
-2.7915693e-07
2.5396335e-07
2.0331806e-07
2.5894432e-07
1.9510565e-07
2.6350952e-07
1.8676334e-07
2.6766829e-07
1.7830929e-07
2.7143068e-07
1.6976031e-07
2.7480504e-07
1.611329e-07
2.7780228e-07
1.5244225e-07
2.8043221e-07
1.4370331e-07
2.8270505e-07
1.3492972e-07
2.8463134e-07
1.261348e-07
2.8622127e-07
1.1733017e-07
2.8748534e-07
1.0852718e-07
2.8843394e-07
9.9736663e-08
2.8907728e-07
9.0968298e-08
2.8942602e-07
8.2231191e-08
2.8948972e-07
7.3534351e-08
2.8927832e-07
6.4885262e-08
2.8880215e-07
5.6291368e-08
2.8807005e-07
4.7759054e-08
2.8709107e-07
3.9294552e-08
2.8587596e-07
3.0903225e-08
2.84434e-07
2.2588824e-08
2.8276986e-07
1.4362382e-08
2.8089568e-07
6.2201674e-09
2.7882558e-07
-1.8353455e-09
2.7655686e-07
-9.772143e-09
2.741019e-07
-1.762287e-08
2.7146831e-07
-2.5373478e-08
2.6866308e-07
-3.3020466e-08
2.6569319e-07
-4.0561252e-08
2.6256554e-07
-4.79943e-08
2.5928668e-07
-5.5317992e-08
2.5586265e-07
-6.2530187e-08
2.5229967e-07
-6.9630019e-08
2.4860323e-07
-7.6616419e-08
2.4477914e-07
-8.3488145e-08
2.4083264e-07
-9.0245255e-08
2.3676866e-07
-9.6886411e-08
2.3259227e-07
-1.0341176e-07
2.283082e-07
-1.098208e-07
2.239205e-07
-1.1611315e-07
2.1943321e-07
-1.2228922e-07
2.148506e-07
-1.2834823e-07
2.1017656e-07
-1.3429157e-07
2.0541462e-07
-1.4011799e-07
2.0056775e-07
-1.4582825e-07
1.9563989e-07
-1.5142337e-07
1.9063342e-07
-1.5690207e-07
1.8555112e-07
-1.6226584e-07
1.8039624e-07
-1.6751483e-07
1.7517147e-07
-1.726496e-07
1.6987845e-07
-1.7766951e-07
1.6451987e-07
-1.8257608e-07
1.590976e-07
-1.8736876e-07
1.5361363e-07
-1.9204854e-07
1.4806972e-07
-1.9661584e-07
1.4246808e-07
-2.0107059e-07
1.3680948e-07
-2.0541308e-07
1.3109578e-07
-2.0964366e-07
1.2532863e-07
-2.1376253e-07
1.1950852e-07
-2.1776973e-07
1.136373e-07
-2.2166515e-07
1.0771558e-07
-2.2544964e-07
1.0174447e-07
-2.2912272e-07
9.5725073e-08
-2.3268408e-07
8.9657481e-08
-2.3613368e-07
8.3543231e-08
-2.3947188e-07
7.7382747e-08
-2.4269789e-07
7.1175975e-08
-2.4581154e-07
6.4923937e-08
-2.4881212e-07
5.8627113e-08
-2.5169986e-07
5.2286078e-08
-2.5447399e-07
4.5901082e-08
-2.5713262e-07
3.9472466e-08
-2.596769e-07
3.3000646e-08
-2.6210463e-07
2.6485558e-08
-2.6441567e-07
1.9927965e-08
-2.6660847e-07
1.3327416e-08
-2.6868188e-07
6.6847239e-09
-2.7063594e-07
-2.7247226e-07
2.4329364e-07
1.979301e-07
2.4827507e-07
1.901241e-07
2.5285707e-07
1.8218138e-07
2.570484e-07
1.7411806e-07
2.6085727e-07
1.6595139e-07
2.6429206e-07
1.5769816e-07
2.6736189e-07
1.4937244e-07
2.7007593e-07
1.4098917e-07
2.7244356e-07
1.3256228e-07
2.7447407e-07
1.2410408e-07
2.7617725e-07
1.1562691e-07
2.7756259e-07
1.071418e-07
2.7864007e-07
9.8659184e-08
2.7941902e-07
9.018939e-08
2.799089e-07
8.1741366e-08
2.8011934e-07
7.3323916e-08
2.8005934e-07
6.4945214e-08
2.797387e-07
5.6612144e-08
2.7916599e-07
4.8331796e-08
2.7834986e-07
4.0110499e-08
2.7730134e-07
3.1951922e-08
2.7602391e-07
2.386617e-08
2.7453179e-07
1.5854776e-08
2.728303e-07
7.9215271e-09
2.7092406e-07
7.0854804e-11
2.6883088e-07
-7.6789668e-09
2.6654962e-07
-1.5341619e-08
2.6408977e-07
-2.2913472e-08
2.6145779e-07
-3.0388424e-08
2.5866107e-07
-3.7764429e-08
2.5570623e-07
-4.5039549e-08
2.5259907e-07
-5.2210853e-08
2.4934616e-07
-5.9277306e-08
2.4595333e-07
-6.6237191e-08
2.4242602e-07
-7.3089092e-08
2.3876981e-07
-7.9832049e-08
2.349899e-07
-8.6465267e-08
2.3109089e-07
-9.2987434e-08
2.2707829e-07
-9.9399113e-08
2.2295595e-07
-1.0569841e-07
2.1872835e-07
-1.1188558e-07
2.143998e-07
-1.1796072e-07
2.0997441e-07
-1.2392296e-07
2.0545575e-07
-1.2977264e-07
2.0084697e-07
-1.3550932e-07
1.9615209e-07
-1.4113341e-07
1.91374e-07
-1.4664509e-07
1.8651549e-07
-1.5204376e-07
1.8157991e-07
-1.5733015e-07
1.7656958e-07
-1.6250467e-07
1.7148758e-07
-1.6756748e-07
1.6633583e-07
-1.7251783e-07
1.6111686e-07
-1.7735706e-07
1.5583269e-07
-1.8208464e-07
1.5048538e-07
-1.8670132e-07
1.4507682e-07
-1.9120709e-07
1.3960859e-07
-1.9560231e-07
1.3408234e-07
-1.9988716e-07
1.2849985e-07
-2.04061e-07
1.2286206e-07
-2.0812486e-07
1.171706e-07
-2.1207818e-07
1.1142712e-07
-2.1592158e-07
1.0563173e-07
-2.1965446e-07
9.978625e-08
-2.2327726e-07
9.3891368e-08
-2.2678906e-07
8.794827e-08