/*--------------------------------*- C++ -*----------------------------------*\
| =========                 |                                                 |
| \\      /  F ield         | OpenFOAM: The Open Source CFD Toolbox           |
|  \\    /   O peration     | Version:  2306                                  |
|   \\  /    A nd           | Website:  www.openfoam.com                      |
|    \\/     M anipulation  |                                                 |
\*---------------------------------------------------------------------------*/
FoamFile
{
    version     2.0;
    format      ascii;
    arch        "LSB;label=32;scalar=64";
    class       surfaceScalarField;
    location    "0.09";
    object      phi;
}
// * * * * * * * * * * * * * * * * * * * * * * * * * * * * * * * * * * * * * //

dimensions      [0 3 -1 0 0 0 0];

oriented        oriented;

internalField   nonuniform List<scalar> 
12640
(
1.5945168e-06
1.1990003e-06
1.6144202e-06
1.1408573e-06
1.6316601e-06
1.0828031e-06
1.6463479e-06
1.0249299e-06
1.6585929e-06
9.6732136e-07
1.6685021e-06
9.1005434e-07
1.6761805e-06
8.5319772e-07
1.6817305e-06
7.968146e-07
1.6852512e-06
7.4096095e-07
1.68684e-06
6.8568763e-07
1.6865901e-06
6.3103953e-07
1.6845926e-06
5.770567e-07
1.6809352e-06
5.2377379e-07
1.6757027e-06
4.7122179e-07
1.6689761e-06
4.1942707e-07
1.6608343e-06
3.6841215e-07
1.651352e-06
3.1819593e-07
1.6406023e-06
2.6879444e-07
1.6286537e-06
2.2022006e-07
1.6155723e-06
1.7248336e-07
1.6014217e-06
1.2559007e-07
1.5862622e-06
7.9544778e-08
1.5701359e-06
3.4348122e-08
1.5531441e-06
-9.995182e-09
1.5352987e-06
-5.3446276e-08
1.5166576e-06
-9.6063036e-08
1.4972677e-06
-1.3783509e-07
1.4771748e-06
-1.7876585e-07
1.4564212e-06
-2.1886063e-07
1.4350471e-06
-2.5812486e-07
1.4130896e-06
-2.9656688e-07
1.3905843e-06
-3.3419575e-07
1.367565e-06
-3.7101989e-07
1.3440637e-06
-4.0704993e-07
1.3201096e-06
-4.422951e-07
1.2957305e-06
-4.7676725e-07
1.2709525e-06
-5.1047663e-07
1.2458e-06
-5.4343512e-07
1.2202957e-06
-5.7565428e-07
1.194461e-06
-6.0714515e-07
1.1683155e-06
-6.3792026e-07
1.1418778e-06
-6.6799082e-07
1.1151643e-06
-6.9736862e-07
1.0881908e-06
-7.2606547e-07
1.0609721e-06
-7.5409264e-07
1.0335212e-06
-7.8146175e-07
1.0058497e-06
-8.0818382e-07
9.7796955e-07
-8.3427016e-07
9.4988993e-07
-8.5973125e-07
9.2162081e-07
-8.8457757e-07
8.9316911e-07
-9.0881967e-07
8.6454218e-07
-9.3246597e-07
8.3574656e-07
-9.555279e-07
8.0678779e-07
-9.7801402e-07
7.7767057e-07
-9.9993214e-07
7.4839887e-07
-1.0212919e-06
7.1897566e-07
-1.0421001e-06
6.8940365e-07
-1.0623644e-06
6.5968507e-07
-1.0820931e-06
6.2982107e-07
-1.1012914e-06
5.9981293e-07
-1.1199661e-06
5.6965987e-07
-1.1381224e-06
5.3936261e-07
-1.1557657e-06
5.0891993e-07
-1.1729005e-06
4.7833067e-07
-1.189531e-06
4.4759377e-07
-1.2056611e-06
4.1670651e-07
-1.2212936e-06
3.8566677e-07
-1.2364301e-06
3.5447131e-07
-1.2510736e-06
3.2311793e-07
-1.2652245e-06
2.9160225e-07
-1.2788847e-06
2.5992178e-07
-1.2920539e-06
2.2807171e-07
-1.3047309e-06
1.9604785e-07
-1.3169153e-06
1.6384572e-07
-1.3286047e-06
1.3146135e-07
-1.3397975e-06
9.8889405e-08
-1.3504906e-06
6.6125137e-08
-1.3606838e-06
3.3163541e-08
-1.370385e-06
-1.3796173e-06
1.5219123e-06
1.1754274e-06
1.5427872e-06
1.1199824e-06
1.5610679e-06
1.0645224e-06
1.5768578e-06
1.0091402e-06
1.590258e-06
9.5392125e-07
1.6013687e-06
8.9894367e-07
1.6102882e-06
8.4427822e-07
1.6171124e-06
7.8999023e-07
1.6219354e-06
7.3613788e-07
1.6248485e-06
6.8277463e-07
1.6259408e-06
6.2994723e-07
1.6252982e-06
5.7769907e-07
1.623005e-06
5.2606705e-07
1.6191415e-06
4.7508538e-07
1.6137861e-06
4.247825e-07
1.6070138e-06
3.7518427e-07
1.5988975e-06
3.2631245e-07
1.5895063e-06
2.781855e-07
1.5789072e-06
2.3081912e-07
1.567165e-06
1.8422559e-07
1.5543396e-06
1.3841534e-07
1.5404891e-06
9.33954e-08
1.5256674e-06
4.9169692e-08
1.5099437e-06
5.7285868e-09
1.4933584e-06
-3.6860963e-08
1.4759573e-06
-7.8661936e-08
1.4577882e-06
-1.1966585e-07
1.438895e-06
-1.5987227e-07
1.4193191e-06
-1.9928496e-07
1.3991014e-06
-2.3790718e-07
1.3782784e-06
-2.7574396e-07
1.3568855e-06
-3.1280271e-07
1.3349563e-06
-3.4909086e-07
1.3125221e-06
-3.8461559e-07
1.2896128e-06
-4.1938577e-07
1.2662558e-06
-4.5341057e-07
1.2424786e-06
-4.8669913e-07
1.2183042e-06
-5.1926094e-07
1.1937564e-06
-5.5110621e-07
1.1688563e-06
-5.8224505e-07
1.1436246e-06
-6.1268839e-07
1.118079e-06
-6.4244558e-07
1.0922379e-06
-6.7152718e-07
1.0661168e-06
-6.9994412e-07
1.0397305e-06
-7.2770619e-07
1.0130929e-06
-7.5482416e-07
9.862165e-07
-7.8130746e-07
9.5911271e-07
-8.071664e-07
9.3179221e-07
-8.324109e-07
9.0426438e-07
-8.5704973e-07
8.76538e-07
-8.8109325e-07
8.486207e-07
-9.0454876e-07
8.2051927e-07
-9.2742655e-07
7.9223965e-07
-9.4973427e-07
7.637877e-07
-9.7148054e-07
7.3516714e-07
-9.926714e-07
7.0638264e-07
-1.0133155e-06
6.7743699e-07
-1.0334187e-06
6.4833257e-07
-1.0529888e-06
6.1907211e-07
-1.0720309e-06
5.8965662e-07
-1.0905507e-06
5.6008715e-07
-1.1085529e-06
5.303634e-07
-1.1260423e-06
5.0048607e-07
-1.1430232e-06
4.7045492e-07
-1.1594996e-06
4.4026814e-07
-1.1754744e-06
4.099244e-07
-1.1909497e-06
3.7942255e-07
-1.2059282e-06
3.4875984e-07
-1.2204109e-06
3.1793456e-07
-1.2343995e-06
2.8694387e-07
-1.2478938e-06
2.5578422e-07
-1.2608942e-06
2.2445223e-07
-1.2733992e-06
1.9294508e-07
-1.285408e-06
1.6125884e-07
-1.2969185e-06
1.2938975e-07
-1.3079282e-06
9.7333435e-08
-1.3184346e-06
6.5085907e-08
-1.3284362e-06
3.2642506e-08
-1.3379417e-06
-1.3469748e-06
1.4522834e-06
1.151103e-06
1.4739905e-06
1.0982756e-06
1.4931756e-06
1.0453372e-06
1.5099338e-06
9.9238188e-07
1.5243597e-06
9.3949535e-07
1.5365461e-06
8.8675724e-07
1.5465844e-06
8.342399e-07
1.5545649e-06
7.8200984e-07
1.5605756e-06
7.3012719e-07
1.564703e-06
6.7864711e-07
1.5670309e-06
6.2761934e-07
1.5676416e-06
5.7708838e-07
1.5666141e-06
5.2709454e-07
1.5640257e-06
4.7767367e-07
1.5599511e-06
4.2885704e-07
1.5544624e-06
3.8067311e-07
1.5476286e-06
3.3314594e-07
1.5395178e-06
2.8629643e-07
1.5301937e-06
2.4014329e-07
1.5197181e-06
1.9470094e-07
1.5081509e-06
1.4998259e-07
1.4955485e-06
1.0599766e-07
1.4819649e-06
6.2753383e-08
1.4674482e-06
2.0245095e-08
1.4520713e-06
-2.1484255e-08
1.4358585e-06
-6.2449082e-08
1.4188601e-06
-1.0266745e-07
1.4011198e-06
-1.4213216e-07
1.3826789e-06
-1.8084373e-07
1.3635753e-06
-2.1880386e-07
1.343848e-06
-2.5601645e-07
1.3235309e-06
-2.9248558e-07
1.3026572e-06
-3.2821712e-07
1.2812579e-06
-3.6321653e-07
1.2593632e-06
-3.974911e-07
1.2370011e-06
-4.3104817e-07
1.2141968e-06
-4.638952e-07
1.1909763e-06
-4.9604023e-07
1.1673617e-06
-5.2749178e-07
1.1433754e-06
-5.5825897e-07
1.1190377e-06
-5.8835057e-07
1.0943666e-06
-6.1777472e-07
1.069381e-06
-6.4654155e-07
1.0440966e-06
-6.7465973e-07
1.018529e-06
-7.0213874e-07
9.9269172e-07
-7.2898686e-07
9.6659809e-07
-7.5521409e-07
9.4026042e-07
-7.808287e-07
9.1368946e-07
-8.0583983e-07
8.8689494e-07
-8.3025542e-07
8.5988613e-07
-8.5408428e-07
8.3267186e-07
-8.7733439e-07
8.0525849e-07
-9.0001311e-07
7.7765306e-07
-9.221291e-07
7.4986174e-07
-9.4368895e-07
7.2188906e-07
-9.6469898e-07
6.9373987e-07
-9.8516614e-07
6.6541841e-07
-1.0050973e-06
6.3692713e-07
-1.0244976e-06
6.0826921e-07
-1.0433729e-06
5.79446e-07
-1.0617276e-06
5.5045912e-07
-1.0795661e-06
5.2131026e-07
-1.0968932e-06
4.919994e-07
-1.1137125e-06
4.6252698e-07
-1.1300274e-06
4.3289186e-07
-1.1458395e-06
4.0309425e-07
-1.1611522e-06
3.7313245e-07
-1.1759664e-06
3.4300558e-07
-1.1902837e-06
3.1271109e-07
-1.2041052e-06
2.8224754e-07
-1.2174305e-06
2.5161238e-07
-1.230259e-06
2.2080331e-07
-1.2425899e-06
1.8981672e-07
-1.2544216e-06
1.5865038e-07
-1.2657517e-06
1.2730045e-07
-1.2765785e-06
9.576431e-08
-1.2868982e-06
6.4037675e-08
-1.2967097e-06
3.2117557e-08
-1.3060214e-06
-1.3148573e-06
1.3855593e-06
1.1261598e-06
1.4079678e-06
1.0758668e-06
1.4279296e-06
1.0253756e-06
1.4455316e-06
9.7477993e-07
1.4608607e-06
9.2416621e-07
1.4740034e-06
8.736145e-07
1.4850447e-06
8.231985e-07
1.494069e-06
7.7298554e-07
1.5011589e-06
7.2303731e-07
1.5063954e-06
6.7341066e-07
1.5098575e-06
6.2415706e-07
1.5116229e-06
5.7532304e-07
1.5117669e-06
5.2695059e-07
1.5103631e-06
4.7907761e-07
1.5074821e-06
4.3173813e-07
1.503193e-06
3.8496219e-07
1.4975626e-06
3.3877637e-07
1.490655e-06
2.932041e-07
1.4825322e-06
2.4826599e-07
1.4732541e-06
2.0397904e-07
1.4628782e-06
1.6035853e-07
1.4514589e-06
1.1741701e-07
1.4390498e-06
7.5162598e-08
1.4256921e-06
3.3602668e-08
1.4114675e-06
-7.2595165e-09
1.3963902e-06
-4.7371811e-08
1.3805133e-06
-8.679052e-08
1.3638793e-06
-1.254981e-07
1.3465283e-06
-1.6349288e-07
1.3284991e-06
-2.0077452e-07
1.3098278e-06
-2.3734501e-07
1.2905494e-06
-2.7320724e-07
1.2706961e-06
-3.0836375e-07
1.2502995e-06
-3.4281995e-07
1.2293893e-06
-3.7658074e-07
1.2079927e-06
-4.0965153e-07
1.1861362e-06
-4.420388e-07
1.1638442e-06
-4.7374815e-07
1.1411398e-06
-5.0478752e-07
1.1180455e-06
-5.3516435e-07
1.094581e-06
-5.6488631e-07
1.0707665e-06
-5.9396009e-07
1.0466189e-06
-6.2239398e-07
1.0221555e-06
-6.5019646e-07
9.9739121e-07
-6.7737429e-07
9.7234099e-07
-7.0393661e-07
9.4701852e-07
-7.298913e-07
9.2143536e-07
-7.5524567e-07
8.9560355e-07
-7.8000795e-07
8.695329e-07
-8.0418478e-07
8.4323378e-07
-8.27785e-07
8.1671428e-07
-8.5081489e-07
7.899828e-07
-8.7328169e-07
7.6304608e-07
-8.9519248e-07
7.3591031e-07
-9.1655318e-07
7.0858136e-07
-9.3736999e-07
6.8106419e-07
-9.5764934e-07
6.533637e-07
-9.7739671e-07
6.2548322e-07
-9.9661719e-07
5.9742561e-07
-1.0153151e-06
5.6919349e-07
-1.0334955e-06
5.4078949e-07
-1.0511619e-06
5.1221469e-07
-1.0683184e-06
4.8347013e-07
-1.0849682e-06
4.5455692e-07
-1.101114e-06
4.2547524e-07
-1.1167576e-06
3.9622447e-07
-1.1319015e-06
3.6680483e-07
-1.1465468e-06
3.3721517e-07
-1.1606944e-06
3.0745476e-07
-1.1743445e-06
2.7752108e-07
-1.1874967e-06
2.4741322e-07
-1.2001513e-06
2.1712914e-07
-1.2123059e-06
1.866666e-07
-1.2239587e-06
1.56023e-07
-1.2351081e-06
1.2519658e-07
-1.2457521e-06
9.4183633e-08
-1.2558852e-06
6.2981714e-08
-1.2655076e-06
3.1588002e-08
-1.2746279e-06
-1.2832693e-06
1.3216642e-06
1.1007204e-06
1.3446533e-06
1.0528774e-06
1.3652722e-06
1.0047568e-06
1.3836004e-06
9.5645163e-07
1.3997181e-06
9.0804847e-07
1.4137047e-06
8.5962784e-07
1.42564e-06
8.1126353e-07
1.4356018e-06
7.6302378e-07
1.4436672e-06
7.1497188e-07
1.4499122e-06
6.6716551e-07
1.4544115e-06
6.1965784e-07
1.4572381e-06
5.7249633e-07
1.4584633e-06
5.2572523e-07
1.4581565e-06
4.7938449e-07
1.4563854e-06
4.3350937e-07
1.4532153e-06
3.8813206e-07
1.4487104e-06
3.4328141e-07
1.442932e-06
2.9898258e-07
1.4359399e-06
2.5525811e-07
1.4277909e-06
2.1212798e-07
1.4185409e-06
1.6960862e-07
1.4082432e-06
1.2771474e-07
1.3969479e-06
8.645783e-08
1.3847036e-06
4.5847056e-08
1.3715642e-06
5.8797517e-09
1.357575e-06
-3.3382787e-08
1.3427725e-06
-7.1988095e-08
1.3271992e-06
-1.0992463e-07
1.3108951e-06
-1.4718873e-07
1.2938986e-06
-1.8377778e-07
1.2762452e-06
-2.1969163e-07
1.2579687e-06
-2.5493057e-07
1.2391022e-06
-2.8949728e-07
1.2196757e-06
-3.2339346e-07
1.1997188e-06
-3.56624e-07
1.1792593e-06
-3.8919216e-07
1.1583227e-06
-4.2110209e-07
1.136934e-06
-4.5235949e-07
1.1151164e-06
-4.8297002e-07
1.0928917e-06
-5.1293985e-07
1.0702807e-06
-5.4227504e-07
1.0473028e-06
-5.7098224e-07
1.0239757e-06
-5.9906699e-07
1.0003165e-06
-6.26537e-07
9.7634077e-07
-6.5339873e-07
9.5206371e-07
-6.7965966e-07
9.2749863e-07
-7.053262e-07
9.0265858e-07
-7.3040564e-07
8.7755493e-07
-7.5490429e-07
8.5219917e-07
-7.788287e-07
8.2660048e-07
-8.0218649e-07
8.0076816e-07
-8.2498272e-07
7.7471103e-07
-8.4722463e-07
7.4843636e-07
-8.6891789e-07
7.2195069e-07
-8.9006765e-07
6.9526069e-07
-9.1068009e-07
6.6837167e-07
-9.307599e-07
6.4128828e-07
-9.5031339e-07
6.140151e-07
-9.6934398e-07
5.8655566e-07
-9.8785563e-07
5.5891267e-07
-1.0058528e-06
5.310895e-07
-1.0233388e-06
5.0308809e-07
-1.0403171e-06
4.7490985e-07
-1.0567898e-06
4.4655597e-07
-1.0727601e-06
4.1802761e-07
-1.0882294e-06
3.8932497e-07
-1.1031988e-06
3.6044818e-07
-1.1176701e-06
3.3139697e-07
-1.131643e-06
3.0217104e-07
-1.1451185e-06
2.7276951e-07
-1.1580954e-06
2.4319152e-07
-1.170573e-06
2.1343475e-07
-1.1825492e-06
1.834985e-07
-1.1940224e-06
1.5338092e-07
-1.2049907e-06
1.2307987e-07
-1.2154508e-06
9.2593567e-08
-1.2253988e-06
6.19195e-08
-1.2348335e-06
3.1055439e-08
-1.243764e-06
-1.2522138e-06
1.2605208e-06
1.0748986e-06
1.2839779e-06
1.0294203e-06
1.3051424e-06
9.8359221e-07
1.3240873e-06
9.3750666e-07
1.3408858e-06
8.9125004e-07
1.3556115e-06
8.4490214e-07
1.3683371e-06
7.9853775e-07
1.3791353e-06
7.5222537e-07
1.3880782e-06
7.0602911e-07
1.3952367e-06
6.6000703e-07
1.4006809e-06
6.142137e-07
1.4044791e-06
5.6869816e-07
1.4066987e-06
5.2350569e-07
1.4074053e-06
4.7867786e-07
1.4066633e-06
4.3425132e-07
1.4045347e-06
3.9026069e-07
1.4010807e-06
3.4673552e-07
1.3963595e-06
3.0370366e-07
1.3904286e-06
2.6118898e-07
1.3833433e-06
2.192132e-07
1.3751565e-06
1.777954e-07
1.3659197e-06
1.3695152e-07
1.3556819e-06
9.6695566e-08
1.34449e-06
5.7038958e-08
1.3323886e-06
1.7981011e-08
1.319437e-06
-2.0431074e-08
1.3056605e-06
-5.8211336e-08
1.291103e-06
-9.5367222e-08
1.2758035e-06
-1.318891e-07
1.2597988e-06
-1.6777315e-07
1.2431243e-06
-2.0301746e-07
1.2258139e-06
-2.3762011e-07
1.2078989e-06
-2.7158198e-07
1.1894102e-06
-3.0490478e-07
1.1703765e-06
-3.3759013e-07
1.1508247e-06
-3.6964043e-07
1.1307812e-06
-4.0105867e-07
1.1102703e-06
-4.3184874e-07
1.0893156e-06
-4.6201516e-07
1.0679388e-06
-4.9156295e-07
1.0461602e-06
-5.2049659e-07
1.0239991e-06
-5.4882131e-07
1.0014738e-06
-5.7654157e-07
9.786018e-07
-6.0366503e-07
9.5539947e-07
-6.3019618e-07
9.3188104e-07
-6.5614092e-07
9.0806007e-07
-6.815056e-07
8.8395049e-07
-7.0629593e-07
8.595642e-07
-7.3051784e-07
8.3491202e-07
-7.5417663e-07
8.1000418e-07
-7.7727866e-07
7.8485094e-07
-7.9982944e-07
7.5946021e-07
-8.2183413e-07
7.3384033e-07
-8.4329799e-07
7.0799885e-07
-8.6422604e-07
6.8194213e-07
-8.8462345e-07
6.5567631e-07
-9.0449407e-07
6.2920584e-07
-9.2384331e-07
6.025365e-07
-9.4267468e-07
5.7567193e-07
-9.6099116e-07
5.4861588e-07
-9.7879673e-07
5.2137182e-07
-9.9609466e-07
4.9394192e-07
-1.0128871e-06
4.6632829e-07
-1.0291761e-06
4.3853327e-07
-1.0449652e-06
4.1055794e-07
-1.0602538e-06
3.8240338e-07
-1.0750444e-06
3.5407028e-07
-1.0893369e-06
3.2555825e-07
-1.1031314e-06
2.9686866e-07
-1.1164288e-06
2.6800029e-07
-1.129227e-06
2.3895276e-07
-1.1415255e-06
2.0972536e-07
-1.1533217e-06
1.8031738e-07
-1.1646146e-06
1.5072756e-07
-1.1754009e-06
1.2095413e-07
-1.1856778e-06
9.0996383e-08
-1.195441e-06
6.0852688e-08
-1.2046898e-06
3.0520955e-08
-1.2134322e-06
-1.2216928e-06
1.2020483e-06
1.0487991e-06
1.2258691e-06
1.0055993e-06
1.2474763e-06
9.619851e-07
1.2669357e-06
9.1804713e-07
1.2843145e-06
8.7387109e-07
1.2996797e-06
8.2953693e-07
1.3130988e-06
7.8511878e-07
1.3246387e-06
7.4068547e-07
1.3343665e-06
6.9630128e-07
1.3423481e-06
6.5202534e-07
1.3486491e-06
6.0791264e-07
1.3533335e-06
5.6401382e-07
1.3564646e-06
5.2037451e-07
1.3581047e-06
4.7703762e-07
1.3583142e-06
4.3404186e-07
1.3571528e-06
3.914224e-07
1.3546772e-06
3.492109e-07
1.3509442e-06
3.0743658e-07
1.3460081e-06
2.6612504e-07
1.3399219e-06
2.2529951e-07
1.3327369e-06
1.849806e-07
1.3245018e-06
1.4518663e-07
1.3152649e-06
1.0593267e-07
1.3050716e-06
6.7232081e-08
1.2939588e-06
2.9093964e-08
1.2819963e-06
-8.468401e-09
1.2691981e-06
-4.5413508e-08
1.2556116e-06
-8.1780575e-08
1.2412739e-06
-1.1755125e-07
1.2262209e-06
-1.5272042e-07
1.2104876e-06
-1.8728395e-07
1.1941068e-06
-2.2123923e-07
1.1771098e-06
-2.5458509e-07
1.1595262e-06
-2.873213e-07
1.1413847e-06
-3.1944849e-07
1.1227122e-06
-3.5096788e-07
1.1035347e-06
-3.8188116e-07
1.0838762e-06
-4.1219036e-07
1.0637605e-06
-4.4189933e-07
1.0432081e-06
-4.7101079e-07
1.0222407e-06
-4.995292e-07
1.0008766e-06
-5.2745709e-07
9.7913555e-07
-5.5480053e-07
9.5703358e-07
-5.8156337e-07
9.3458745e-07
-6.0775002e-07
9.118122e-07
-6.3336563e-07
8.8872213e-07
-6.5841549e-07
8.6533038e-07
-6.8290415e-07
8.4164913e-07
-7.068366e-07
8.1768972e-07
-7.302174e-07
7.9346357e-07
-7.5305229e-07
7.6897963e-07
-7.7534532e-07
7.4424711e-07
-7.9710164e-07
7.1927482e-07
-8.183258e-07
6.9407072e-07
-8.3902175e-07
6.6864098e-07
-8.5919369e-07
6.4299237e-07
-8.7884555e-07
6.1713087e-07
-8.9798165e-07
5.9106075e-07
-9.1660446e-07
5.6478764e-07
-9.3471811e-07
5.3831516e-07
-9.5232425e-07
5.1164735e-07
-9.69427e-07
4.8478699e-07
-9.8602649e-07
4.5773665e-07
-1.0021264e-06
4.30499e-07
-1.0177275e-06
4.0307592e-07
-1.0328306e-06
3.7546844e-07
-1.0474368e-06
3.4767835e-07
-1.0615465e-06
3.197065e-07
-1.0751595e-06
2.9155245e-07
-1.0882749e-06
2.6321781e-07
-1.1008922e-06
2.3470184e-07
-1.1130095e-06
2.0600491e-07
-1.1246248e-06
1.7712634e-07
-1.135736e-06
1.4806553e-07
-1.14634e-06
1.1882173e-07
-1.1564338e-06
8.9394319e-08
-1.1660136e-06
5.9782269e-08
-1.1750777e-06
2.9984667e-08
-1.1836344e-06
-1.1917083e-06
1.1461645e-06
1.0225179e-06
1.1702529e-06
9.8151093e-07
1.192207e-06
9.4003098e-07
1.2120863e-06
8.9816796e-07
1.2299512e-06
8.5600626e-07
1.2458635e-06
8.1362471e-07
1.2598848e-06
7.7109748e-07
1.2720771e-06
7.284932e-07
1.2825022e-06
6.8587628e-07
1.2912213e-06
6.4330632e-07
1.2982955e-06
6.0083856e-07
1.303785e-06
5.5852419e-07
1.307749e-06
5.1641068e-07
1.3102459e-06
4.7454063e-07
1.3113331e-06
4.3295471e-07
1.3110666e-06
3.9168902e-07
1.3095006e-06
3.5077684e-07
1.3066891e-06
3.1024806e-07
1.3026836e-06
2.701305e-07
1.297535e-06
2.3044828e-07
1.2912917e-06
1.9122367e-07
1.2840017e-06
1.524767e-07
1.2757104e-06
1.1422403e-07
1.2664612e-06
7.6481149e-08
1.2562949e-06
3.9260233e-08
1.2452649e-06
2.5615867e-09
1.2334017e-06
-3.3550389e-08
1.2207427e-06
-6.9121569e-08
1.2073252e-06
-1.0413368e-07
1.1931849e-06
-1.3858009e-07
1.1783548e-06
-1.724541e-07
1.1628678e-06
-2.0575215e-07
1.1467543e-06
-2.3847148e-07
1.1300438e-06
-2.7061091e-07
1.1127643e-06
-3.0216897e-07
1.0949425e-06
-3.3314614e-07
1.0766037e-06
-3.6354243e-07
1.0577721e-06
-3.9335891e-07
1.0384705e-06
-4.2259746e-07
1.0187206e-06
-4.5126099e-07
9.9854234e-07
-4.7935082e-07
9.779559e-07
-5.0687092e-07
9.5697954e-07
-5.3382429e-07
9.356305e-07
-5.6021398e-07
9.1392447e-07
-5.8604416e-07
8.9187766e-07
-6.1131872e-07
8.6950366e-07
-6.3604141e-07
8.4681619e-07
-6.6021675e-07
8.2382755e-07
-6.8384792e-07
8.0055002e-07
-7.0693993e-07
7.7699402e-07
-7.2949631e-07
7.531703e-07
-7.5152175e-07
7.2908758e-07
-7.7301881e-07
7.047548e-07
-7.9399292e-07
6.8017995e-07
-8.1444706e-07
6.5537104e-07
-8.3438473e-07
6.3033408e-07
-8.5380882e-07
6.0507521e-07
-8.7272293e-07
5.7960029e-07
-8.9112965e-07
5.5391409e-07
-9.0903188e-07
5.2802188e-07
-9.2643208e-07
5.0192713e-07
-9.4333193e-07
4.7563348e-07
-9.5973294e-07
4.4914415e-07
-9.7563703e-07
4.2246232e-07
-9.9104527e-07
3.9558959e-07
-1.0059581e-06
3.6852865e-07
-1.0203761e-06
3.4128052e-07
-1.0342986e-06
3.138473e-07
-1.0477264e-06
2.8622968e-07
-1.0606572e-06
2.5842868e-07
-1.0730914e-06
2.3044474e-07
-1.0850256e-06
2.0227841e-07
-1.0964585e-06
1.7392928e-07
-1.107387e-06
1.4539846e-07
-1.1178093e-06
1.1668535e-07
-1.1277207e-06
8.7789303e-08
-1.1371176e-06
5.8709999e-08
-1.1459984e-06
2.9447098e-08
-1.1543716e-06
-1.1622611e-06
1.0927862e-06
9.9614324e-07
1.1170537e-06
9.5724337e-07
1.1392664e-06
9.1781846e-07
1.1594772e-06
8.7795707e-07
1.1777411e-06
8.3774228e-07
1.1941141e-06
7.972517e-07
1.2086526e-06
7.5655899e-07
1.2214132e-06
7.1573253e-07
1.2324531e-06
6.748363e-07
1.2418291e-06
6.3393028e-07
1.2495976e-06
5.9307e-07
1.2558152e-06
5.5230659e-07
1.2605372e-06
5.116886e-07
1.263818e-06
4.7125985e-07
1.2657118e-06
4.3106098e-07
1.2662714e-06
3.9112944e-07
1.2655488e-06
3.5149951e-07
1.2635943e-06
3.1220261e-07
1.2604574e-06
2.7326737e-07
1.2561863e-06
2.3471936e-07
1.2508275e-06
1.9658234e-07
1.2444269e-06
1.5887728e-07
1.2370279e-06
1.2162291e-07
1.2286734e-06
8.483581e-08
1.2194035e-06
4.8530157e-08
1.2092583e-06
1.2706798e-08
1.1982859e-06
-2.2578071e-08
1.1865121e-06
-5.7347584e-08
1.1739741e-06
-9.1595825e-08
1.1607067e-06
-1.2531261e-07
1.1467432e-06
-1.5849046e-07
1.1321149e-06
-1.9112384e-07
1.1168515e-06
-2.23208e-07
1.1009824e-06
-2.5474182e-07
1.0845347e-06
-2.8572136e-07
1.0675347e-06
-3.1614602e-07
1.0500077e-06
-3.4601541e-07
1.0319771e-06
-3.7532814e-07
1.0134658e-06
-4.0408615e-07
9.944947e-07
-4.3228988e-07
9.7508499e-07
-4.5994106e-07
9.5525566e-07
-4.870416e-07
9.3502502e-07
-5.1359345e-07
9.1441046e-07
-5.3959962e-07
8.934283e-07
-5.6506189e-07
8.7209373e-07
-5.8998426e-07
8.5042128e-07
-6.1436872e-07
8.2842474e-07
-6.382201e-07
8.0611651e-07
-6.6153973e-07
7.8350867e-07
-6.8433207e-07
7.6061253e-07
-7.0660059e-07
7.3743877e-07
-7.2834737e-07
7.1399643e-07
-7.4957664e-07
6.902946e-07
-7.7029114e-07
6.6634156e-07
-7.9049439e-07
6.4214584e-07
-8.1018887e-07
6.1771366e-07
-8.2937682e-07
5.9305205e-07
-8.4806111e-07
5.6816672e-07
-8.6624444e-07
5.4306348e-07
-8.8392851e-07
5.177466e-07
-9.0111539e-07
4.9222167e-07
-9.1780675e-07
4.6649148e-07
-9.3400289e-07
4.4056062e-07
-9.4970605e-07
4.1443135e-07
-9.6491615e-07
3.8810706e-07
-9.7963382e-07
3.6159018e-07
-9.9385921e-07
3.3488336e-07
-1.0075916e-06
3.0798775e-07
-1.0208309e-06
2.8090563e-07
-1.033575e-06
2.5363722e-07
-1.0458232e-06
2.2618525e-07
-1.0575731e-06
1.985493e-07
-1.0688226e-06
1.7073035e-07
-1.0795683e-06
1.427294e-07
-1.0898082e-06
1.145466e-07
-1.0995375e-06
8.6181928e-08
-1.1087533e-06
5.7636279e-08
-1.1174527e-06
2.8908599e-08
-1.125644e-06
-1.1333524e-06
1.0418293e-06
9.6975537e-07
1.0661947e-06
9.3287787e-07
1.0885844e-06
8.9542875e-07
1.1090453e-06
8.5749607e-07
1.1276275e-06
8.1916023e-07
1.1443807e-06
7.8049848e-07
1.1593566e-06
7.4158321e-07
1.1726071e-06
7.0248208e-07
1.1841844e-06
6.632589e-07
1.1941411e-06
6.2397342e-07
1.2025297e-06
5.8468123e-07
1.2094024e-06
5.4543398e-07
1.2148106e-06
5.0628035e-07
1.218806e-06
4.6726434e-07
1.2214392e-06
4.2842789e-07
1.2227596e-06
3.8980906e-07
1.2228165e-06
3.5144276e-07
1.2216573e-06
3.1336179e-07
1.2193293e-06
2.755953e-07
1.2158782e-06
2.3817055e-07
1.2113489e-06
2.0111169e-07
1.205784e-06
1.6444231e-07
1.1992259e-06
1.2818086e-07
1.1917161e-06
9.2345828e-08
1.1832935e-06
5.6952396e-08
1.1739893e-06
2.2011105e-08
1.1638645e-06
-1.2453139e-08
1.1529332e-06
-4.6416316e-08
1.1412347e-06
-7.9897286e-08
1.1288025e-06
-1.1288055e-07
1.1156686e-06
-1.4535667e-07
1.1018638e-06
-1.773189e-07
1.087418e-06
-2.0876226e-07
1.0723585e-06
-2.3968222e-07
1.0567126e-06
-2.7007559e-07
1.0405063e-06
-2.9993975e-07
1.0237633e-06
-3.292725e-07
1.0065081e-06
-3.5807308e-07
9.8876271e-07
-3.8634084e-07
9.7054869e-07
-4.1407579e-07
9.5188578e-07
-4.412781e-07
9.3279295e-07
-4.6794903e-07
9.1328909e-07
-4.9408943e-07
8.9339103e-07
-5.1970129e-07
8.7311524e-07
-5.4478618e-07
8.5247766e-07
-5.6934663e-07
8.3149213e-07
-5.9338349e-07
8.1017188e-07
-6.1690001e-07
7.8853126e-07
-6.3989891e-07
7.6658143e-07
-6.6238232e-07
7.4433348e-07
-6.8435272e-07
7.2179882e-07
-7.0581293e-07
6.9898711e-07
-7.2676503e-07
6.7590766e-07
-7.4721175e-07
6.5256886e-07
-7.671556e-07
6.2897849e-07
-7.8659853e-07
6.0514436e-07
-8.0554279e-07
5.8107379e-07
-8.2399021e-07
5.5677216e-07
-8.4194274e-07
5.322462e-07
-8.5940265e-07
5.0750035e-07
-8.7636962e-07
4.8253981e-07
-8.9284626e-07
4.5736986e-07
-9.0883291e-07
4.3199305e-07
-9.2432901e-07
4.0641415e-07
-9.393371e-07
3.8063596e-07
-9.5385582e-07
3.5466153e-07
-9.6788484e-07
3.2849383e-07
-9.8142385e-07
3.0213416e-07
-9.9447112e-07
2.7558558e-07
-1.0070266e-06
2.4884973e-07
-1.0190875e-06
2.2192806e-07
-1.0306519e-06
1.9482195e-07
-1.0417164e-06
1.6753266e-07
-1.052279e-06
1.400608e-07
-1.0623365e-06
1.1240828e-07
-1.071885e-06
8.4575411e-08
-1.0809203e-06
5.656237e-08
-1.0894397e-06
2.8370518e-08
-1.0974521e-06
-1.1049819e-06
9.9320877e-07
9.4342774e-07
1.0175988e-06
9.0848785e-07
1.0400906e-06
8.7293692e-07
1.0607269e-06
8.3685978e-07
1.0795517e-06
8.0033545e-07
1.0966105e-06
7.6343986e-07
1.1119495e-06
7.2624401e-07
1.1256163e-06
6.8881543e-07
1.1376584e-06
6.5121663e-07
1.1481246e-06
6.1350743e-07
1.1570629e-06
5.7574301e-07
1.1645214e-06
5.3797526e-07
1.170549e-06
5.0025274e-07
1.175193e-06
4.6262026e-07
1.178501e-06
4.2511984e-07
1.1805198e-06
3.8779025e-07
1.1812951e-06
3.5066736e-07
1.1808725e-06
3.1378437e-07
1.1792961e-06
2.7717157e-07
1.1766098e-06
2.408569e-07
1.1728553e-06
2.048662e-07
1.1680747e-06
1.6922283e-07
1.162308e-06
1.3394754e-07
1.1555935e-06
9.9060232e-08
1.1479699e-06
6.4576146e-08
1.1394691e-06
3.0511802e-08
1.1301507e-06
-3.1348613e-09
1.1200185e-06
-3.6283891e-08
1.1091195e-06
-6.8998392e-08
1.0974845e-06
-1.012456e-07
1.0851445e-06
-1.3301659e-07
1.0721294e-06
-1.643038e-07
1.0584678e-06
-1.9510044e-07
1.0441867e-06
-2.2540141e-07
1.0293133e-06
-2.5520199e-07
1.0138721e-06
-2.8449844e-07
9.9788738e-07
-3.1328787e-07
9.813822e-07
-3.4156786e-07
9.6437872e-07
-3.6933741e-07
9.4689826e-07
-3.9659502e-07
9.2896022e-07
-4.2334014e-07
9.1058355e-07
-4.4957252e-07
8.9178736e-07
-4.7529309e-07
8.7258788e-07
-5.0050201e-07
8.530018e-07
-5.2520001e-07
8.3304416e-07
-5.4938912e-07
8.127303e-07
-5.730695e-07
7.9207304e-07
-5.9624299e-07
7.7108635e-07
-6.1891212e-07
7.4978177e-07
-6.410776e-07
7.2817094e-07
-6.6274229e-07
7.062651e-07
-6.8390679e-07
6.840738e-07
-7.045739e-07
6.6160672e-07
-7.2474475e-07
6.3887305e-07
-7.4442172e-07
6.1588075e-07
-7.636063e-07
5.9263748e-07
-7.8229974e-07
5.6915057e-07
-8.0050341e-07
5.4542682e-07
-8.1821903e-07
5.2147188e-07
-8.3544792e-07
4.9729214e-07
-8.5218989e-07
4.7289227e-07
-8.6844635e-07
4.4827764e-07
-8.842178e-07
4.2345192e-07
-8.9950357e-07
3.984193e-07
-9.1430491e-07
3.7318416e-07
-9.2862033e-07
3.4774939e-07
-9.4244999e-07
3.2211773e-07
-9.5579211e-07
2.9629225e-07
-9.686461e-07
2.7027582e-07
-9.8100988e-07
2.4407032e-07
-9.9288204e-07
2.1767774e-07
-1.0042591e-06
1.9110002e-07
-1.0151385e-06
1.6433905e-07
-1.0255182e-06
1.3739635e-07
-1.0353936e-06
1.1027315e-07
-1.0447616e-06
8.2970119e-08
-1.0536174e-06
5.5489968e-08
-1.0619594e-06
2.7833062e-08
-1.0697951e-06
-1.0771489e-06
9.4684085e-07
9.1722616e-07
9.7118728e-07
8.8414138e-07
9.9371345e-07
8.5041088e-07
1.0144562e-06
8.1611685e-07
1.0334549e-06
7.8133681e-07
1.0507498e-06
7.4614491e-07
1.0663831e-06
7.106109e-07
1.0803977e-06
6.7480106e-07
1.0928367e-06
6.3877761e-07
1.1037451e-06
6.0259934e-07
1.1131668e-06
5.6632114e-07
1.1211467e-06
5.2999537e-07
1.1277295e-06
4.9366997e-07
1.1329598e-06
4.5739007e-07
1.1368818e-06
4.2119777e-07
1.1395391e-06
3.8513302e-07
1.1409751e-06
3.4923133e-07
1.1412324e-06
3.1352695e-07
1.1403529e-06
2.7805116e-07
1.138378e-06
2.4283175e-07
1.1353477e-06
2.0789638e-07
1.1313018e-06
1.732689e-07
1.126278e-06
1.389714e-07
1.1203142e-06
1.0502385e-07
1.1134464e-06
7.1444015e-08
1.1057097e-06
3.8248301e-08
1.0971369e-06
5.4378736e-09
1.0877721e-06
-2.6919241e-08
1.0776368e-06
-5.8862849e-08
1.0667632e-06
-9.0372083e-08
1.0551822e-06
-1.214357e-07
1.0429233e-06
-1.5204514e-07
1.030014e-06
-1.8219106e-07
1.0164812e-06
-2.1186857e-07
1.0023506e-06
-2.410711e-07
9.8764674e-07
-2.6979461e-07
9.7239325e-07
-2.9803418e-07
9.5661308e-07
-3.2578758e-07
9.4032771e-07
-3.5305214e-07
9.2355774e-07
-3.798253e-07
9.0632315e-07
-4.0610584e-07
8.8864319e-07
-4.3189227e-07
8.7053455e-07
-4.5718452e-07
8.5201506e-07
-4.8198245e-07
8.3310154e-07
-5.0628645e-07
8.1380833e-07
-5.3009579e-07
7.9415086e-07
-5.5341195e-07
7.7414245e-07
-5.7623452e-07
7.5379561e-07
-5.985653e-07
7.3312376e-07
-6.2040595e-07
7.1213786e-07
-6.4175655e-07
6.908495e-07
-6.626182e-07
6.6926842e-07
-6.8299287e-07
6.4740477e-07
-7.0288098e-07
6.2526697e-07
-7.2228418e-07
6.0286392e-07
-7.4120324e-07
5.8020357e-07
-7.5963927e-07
5.5729377e-07
-7.7759368e-07
5.3414122e-07
-7.9506661e-07
5.1075167e-07
-8.120582e-07
4.871319e-07
-8.2857013e-07
4.6328757e-07
-8.4460201e-07
4.392231e-07
-8.6015326e-07
4.1494413e-07
-8.7522459e-07
3.9045489e-07
-8.898153e-07
3.6575859e-07
-9.0392408e-07
3.4085959e-07
-9.1755104e-07
3.1576185e-07
-9.3069451e-07
2.9046784e-07
-9.4335202e-07
2.649811e-07
-9.555231e-07
2.3930389e-07
-9.6720479e-07
2.1343826e-07
-9.7839373e-07
1.8738714e-07
-9.8908762e-07
1.6115306e-07
-9.9928396e-07
1.3473729e-07
-1.0089779e-06
1.0814225e-07
-1.0181665e-06
8.1369522e-08
-1.0268446e-06
5.442008e-08
-1.0350101e-06
2.7296446e-08
-1.0426714e-06
-1.0498526e-06
9.0264133e-07
8.9121009e-07
9.2688344e-07
8.5989947e-07
9.4938109e-07
8.2791307e-07
9.7016734e-07
7.9533058e-07
9.8927606e-07
7.6222804e-07
1.0067435e-06
7.2867758e-07
1.0226071e-06
6.9474712e-07
1.0369056e-06
6.6050233e-07
1.0496785e-06
6.260046e-07
1.0609662e-06
5.9131149e-07
1.0708095e-06
5.5647806e-07
1.0792494e-06
5.2155528e-07
1.0863275e-06
4.8659186e-07
1.092085e-06
4.5163256e-07
1.0965628e-06
4.1672003e-07
1.0998022e-06
3.8189345e-07
1.1018436e-06
3.4718997e-07
1.1027272e-06
3.126432e-07
1.1024924e-06
2.782859e-07
1.101178e-06
2.4414638e-07
1.0988221e-06
2.1025229e-07
1.0954625e-06
1.7662852e-07
1.091135e-06
1.432989e-07
1.0858765e-06
1.1028245e-07
1.0797205e-06
7.7599952e-08
1.0727009e-06
4.5267966e-08
1.0648486e-06
1.3290212e-08
1.0562069e-06
-1.8277451e-08
1.0467961e-06
-4.9451903e-08
1.0366478e-06
-8.0223795e-08
1.0257921e-06
-1.1057998e-07
1.0142564e-06
-1.4050927e-07
1.0020681e-06
-1.700028e-07
9.8925313e-07
-1.9905357e-07
9.7583666e-07
-2.2765469e-07
9.6184237e-07
-2.5580062e-07
9.4729398e-07
-2.8348605e-07
9.3221391e-07
-3.1070747e-07
9.1662263e-07
-3.3746101e-07
9.0054098e-07
-3.6374363e-07
8.839884e-07
-3.8955313e-07
8.6698364e-07
-4.1488745e-07
8.4954391e-07
-4.3974507e-07
8.3168697e-07
-4.6412538e-07
8.1342828e-07
-4.8802748e-07
7.9478304e-07
-5.1145074e-07
7.7576609e-07
-5.3439502e-07
7.5639139e-07
-5.5685993e-07
7.3667194e-07
-5.7884605e-07
7.1661965e-07
-6.003537e-07
6.9624674e-07
-6.2138351e-07
6.755645e-07
-6.4193607e-07
6.545828e-07
-6.6201104e-07
6.3331181e-07
-6.8161015e-07
6.1176124e-07
-7.007336e-07
5.8993898e-07
-7.1938108e-07
5.678543e-07
-7.3755453e-07
5.4551369e-07
-7.5525306e-07
5.2292457e-07
-7.7247742e-07
5.0009424e-07
-7.8922799e-07
4.7702878e-07
-8.055045e-07
4.5373409e-07
-8.2130704e-07
4.302153e-07
-8.3663472e-07
4.0647771e-07
-8.5148706e-07
3.8252653e-07
-8.6586385e-07
3.5836569e-07
-8.7976331e-07
3.339995e-07
-8.9318483e-07