/*--------------------------------*- C++ -*----------------------------------*\
| =========                 |                                                 |
| \\      /  F ield         | OpenFOAM: The Open Source CFD Toolbox           |
|  \\    /   O peration     | Version:  2306                                  |
|   \\  /    A nd           | Website:  www.openfoam.com                      |
|    \\/     M anipulation  |                                                 |
\*---------------------------------------------------------------------------*/
FoamFile
{
    version     2.0;
    format      ascii;
    arch        "LSB;label=32;scalar=64";
    class       surfaceScalarField;
    location    "0.03";
    object      phi_0;
}
// * * * * * * * * * * * * * * * * * * * * * * * * * * * * * * * * * * * * * //

dimensions      [0 3 -1 0 0 0 0];

oriented        oriented;

internalField   nonuniform List<scalar> 
12640
(
3.0262828e-08
2.7345564e-08
3.1186253e-08
2.688058e-08
3.2094789e-08
2.6371698e-08
3.2986362e-08
2.5820822e-08
3.3860187e-08
2.5227383e-08
3.4714201e-08
2.4591614e-08
3.5546549e-08
2.3913902e-08
3.635632e-08
2.3195839e-08
3.7142049e-08
2.2438177e-08
3.7902094e-08
2.1640744e-08
3.8635449e-08
2.0804346e-08
3.934086e-08
1.9930932e-08
4.0017879e-08
1.9020951e-08
4.0664373e-08
1.8075331e-08
4.12799e-08
1.709502e-08
4.1862669e-08
1.6081035e-08
4.2411803e-08
1.5034935e-08
4.2925878e-08
1.3957812e-08
4.3404067e-08
1.2850239e-08
4.3846297e-08
1.1713835e-08
4.4252206e-08
1.0550242e-08
4.462016e-08
9.3599876e-09
4.4949336e-08
8.1450844e-09
4.5240653e-08
6.9063533e-09
4.5492507e-08
5.6460136e-09
4.5703654e-08
4.3643369e-09
4.5873961e-08
3.0638837e-09
4.6002993e-08
1.7447386e-09
4.6090751e-08
4.0919199e-10
4.6136607e-08
-9.4128872e-10
4.6139814e-08
-2.3052997e-09
4.6101253e-08
-3.681536e-09
4.6019806e-08
-5.0684967e-09
4.5895827e-08
-6.4648184e-09
4.5729107e-08
-7.8687557e-09
4.551939e-08
-9.278865e-09
4.5267454e-08
-1.0693507e-08
4.4972117e-08
-1.2111936e-08
4.463404e-08
-1.3531853e-08
4.4252887e-08
-1.4952559e-08
4.3829481e-08
-1.6371846e-08
4.3364664e-08
-1.778895e-08
4.285775e-08
-1.9201535e-08
4.2309122e-08
-2.0608742e-08
4.1718753e-08
-2.2009485e-08
4.1087753e-08
-2.3401595e-08
4.0416459e-08
-2.4783752e-08
3.9704854e-08
-2.6155578e-08
3.8953047e-08
-2.7514046e-08
3.8161881e-08
-2.8859461e-08
3.7333124e-08
-3.0189587e-08
3.6465812e-08
-3.1503102e-08
3.5561455e-08
-3.279866e-08
3.462053e-08
-3.4075421e-08
3.3642727e-08
-3.533155e-08
3.2629837e-08
-3.6566479e-08
3.1582781e-08
-3.7778313e-08
3.0501359e-08
-3.8965925e-08
2.9387443e-08
-4.0128613e-08
2.8240768e-08
-4.126479e-08
2.7063161e-08
-4.2373327e-08
2.58547e-08
-4.3454264e-08
2.4616111e-08
-4.4504298e-08
2.3349159e-08
-4.5523275e-08
2.2053526e-08
-4.6511301e-08
2.0732525e-08
-4.7465674e-08
1.9385567e-08
-4.8386606e-08
1.8013352e-08
-4.9272551e-08
1.6617297e-08
-5.0122462e-08
1.5197879e-08
-5.0935858e-08
1.3756273e-08
-5.1711747e-08
1.2295347e-08
-5.2448616e-08
1.0814268e-08
-5.3146766e-08
9.315352e-09
-5.3805004e-08
7.7989239e-09
-5.442138e-08
6.2663362e-09
-5.4996553e-08
4.7188844e-09
-5.5528926e-08
3.1581008e-09
-5.6018347e-08
1.5845492e-09
-5.646525e-08
-5.6870431e-08
2.9463159e-08
2.6442051e-08
3.0353913e-08
2.5990249e-08
3.1229716e-08
2.5495978e-08
3.2089266e-08
2.496129e-08
3.2931605e-08
2.4385037e-08
3.3755142e-08
2.3768027e-08
3.4558046e-08
2.3110934e-08
3.5338966e-08
2.2414882e-08
3.6097227e-08
2.1680099e-08
3.6830795e-08
2.0907236e-08
3.7538747e-08
2.0096643e-08
3.8219682e-08
1.9249878e-08
3.8872647e-08
1.8368012e-08
3.9496927e-08
1.745133e-08
4.0090847e-08
1.6500988e-08
4.0654118e-08
1.5518154e-08
4.1184481e-08
1.4504354e-08
4.1681629e-08
1.3460591e-08
4.2144303e-08
1.2387496e-08
4.257199e-08
1.1286054e-08
4.296406e-08
1.0158039e-08
4.3319999e-08
9.0040997e-09
4.3638619e-08
7.8264617e-09
4.3919587e-08
6.6252806e-09
4.4163077e-08
5.4029282e-09
4.4367643e-08
4.1599407e-09
4.453294e-08
2.8986956e-09
4.4658123e-08
1.6193134e-09
4.4742859e-08
3.2450608e-10
4.478703e-08
-9.8564923e-10
4.4790939e-08
-2.3089583e-09
4.4753418e-08
-3.6437982e-09
4.467476e-08
-4.9899262e-09
4.4554703e-08
-6.3450468e-09
4.4393244e-08
-7.7072928e-09
4.4190557e-08
-9.0758761e-09
4.394616e-08
-1.0449595e-08
4.3660951e-08
-1.182639e-08
4.3333467e-08
-1.3205006e-08
4.2964783e-08
-1.4583903e-08
4.2554798e-08
-1.5961643e-08
4.2103514e-08
-1.7337838e-08
4.1612433e-08
-1.871009e-08
4.108031e-08
-2.0077258e-08
4.0508407e-08
-2.1437543e-08
3.9896231e-08
-2.278961e-08
3.9245469e-08
-2.4132718e-08
3.8555021e-08
-2.5465065e-08
3.782641e-08
-2.6785497e-08
3.7059672e-08
-2.8092523e-08
3.6254887e-08
-2.9385034e-08
3.5414067e-08
-3.0661644e-08
3.4535888e-08
-3.1921201e-08
3.3623019e-08
-3.3162484e-08
3.2674896e-08
-3.4383315e-08
3.1691995e-08
-3.5583424e-08
3.067528e-08
-3.6761472e-08
2.9625591e-08
-3.7916102e-08
2.854357e-08
-3.9046949e-08
2.7430979e-08
-4.0151879e-08
2.6287488e-08
-4.1230174e-08
2.5114462e-08
-4.2280618e-08
2.3911567e-08
-4.3301555e-08
2.268122e-08
-4.4293032e-08
2.1423295e-08
-4.5253381e-08
2.013968e-08
-4.6182327e-08
1.8831394e-08
-4.7078025e-08
1.7498319e-08
-4.7939733e-08
1.614315e-08
-4.8766482e-08
1.4764348e-08
-4.9557569e-08
1.3364768e-08
-5.0311424e-08
1.1944468e-08
-5.1028729e-08
1.0505846e-08
-5.1708289e-08
9.0497129e-09
-5.2348615e-08
7.5768524e-09
-5.2948336e-08
6.0876287e-09
-5.3507505e-08
4.5847221e-09
-5.4025658e-08
3.0684212e-09
-5.4502246e-08
1.5396457e-09
-5.4936817e-08
-5.5330318e-08
2.868813e-08
2.5571145e-08
2.9546526e-08
2.5131716e-08
3.0390665e-08
2.4651936e-08
3.1219345e-08
2.4132163e-08
3.2031785e-08
2.3572909e-08
3.2825585e-08
2.2973955e-08
3.3599909e-08
2.233671e-08
3.4353148e-08
2.1661557e-08
3.5084921e-08
2.094865e-08
3.5793107e-08
2.0198919e-08
3.6476398e-08
1.9413193e-08
3.7133705e-08
1.8592586e-08
3.7764075e-08
1.7737573e-08
3.836641e-08
1.6848999e-08
3.8939303e-08
1.5927761e-08
3.948235e-08
1.4975286e-08
3.9994257e-08
1.3992378e-08
4.0474663e-08
1.2980323e-08
4.0922696e-08
1.1939711e-08
4.1337018e-08
1.0871791e-08
4.1716757e-08
9.7780233e-09
4.2061301e-08
8.6599286e-09
4.2369579e-08
7.5176911e-09
4.2641572e-08
6.3535002e-09
4.2876211e-08
5.1681014e-09
4.3073331e-08
3.9627555e-09
4.3232703e-08
2.7392058e-09
4.3353318e-08
1.4989099e-09
4.343582e-08
2.4219646e-10
4.3478871e-08
-1.0285055e-09
4.34825e-08
-2.3127705e-09
4.3446606e-08
-3.6080965e-09
4.3370742e-08
-4.9140085e-09
4.3254343e-08
-6.2286629e-09
4.309809e-08
-7.5510199e-09
4.2901692e-08
-8.8796027e-09
4.2665068e-08
-1.0212728e-08
4.238775e-08
-1.1549215e-08
4.2070657e-08
-1.2887872e-08
4.171378e-08
-1.4226745e-08
4.1316697e-08
-1.5564774e-08
4.0880024e-08
-1.6901136e-08
4.040354e-08
-1.8233624e-08
3.9887584e-08
-1.9561175e-08
3.9333e-08
-2.088243e-08
3.8739638e-08
-2.2196213e-08
3.8108075e-08
-2.350133e-08
3.7438616e-08
-2.4796085e-08
3.673199e-08
-2.6078614e-08
3.5988116e-08
-2.7348968e-08
3.5208147e-08
-2.860514e-08
3.4391903e-08
-2.9845384e-08
3.3540511e-08
-3.106948e-08
3.2654051e-08
-3.2276252e-08
3.1733748e-08
-3.3462672e-08
3.0780028e-08
-3.4629478e-08
2.9793412e-08
-3.5774881e-08
2.8775025e-08
-3.6897578e-08
2.7724467e-08
-3.7996877e-08
2.6644114e-08
-3.9071152e-08
2.5533274e-08
-4.0119606e-08
2.4393726e-08
-4.1141066e-08
2.3225996e-08
-4.213425e-08
2.2031673e-08
-4.3098683e-08
2.0810848e-08
-4.4032606e-08
1.956417e-08
-4.4935569e-08
1.8292688e-08
-4.5806492e-08
1.6997656e-08
-4.6644622e-08
1.5680109e-08
-4.7449146e-08
1.4341417e-08
-4.8218865e-08
1.2982247e-08
-4.8952502e-08
1.160416e-08
-4.965019e-08
1.0207e-08
-5.0311134e-08
8.7917963e-09
-5.0933451e-08
7.3606779e-09
-5.1517195e-08
5.9142924e-09
-5.20609e-08
4.4540383e-09
-5.2565868e-08
2.9812783e-09
-5.3029482e-08
1.4970203e-09
-5.3452169e-08
-5.3833523e-08
2.7935834e-08
2.4731697e-08
2.8763181e-08
2.430431e-08
2.9576779e-08
2.3838106e-08
3.0375943e-08
2.3333249e-08
3.1159121e-08
2.2789511e-08
3.1924892e-08
2.2208122e-08
3.2671809e-08
2.1590049e-08
3.339852e-08
2.0934971e-08
3.4104068e-08
2.0242892e-08
3.4787336e-08
1.951541e-08
3.5446631e-08
1.8753876e-08
3.608086e-08
1.7958257e-08
3.6689861e-08
1.7129103e-08
3.7271312e-08
1.6267214e-08
3.7824936e-08
1.5374136e-08
3.8349147e-08
1.4451013e-08
3.8843425e-08
1.3498057e-08
3.930744e-08
1.2516193e-08
3.9739386e-08
1.1506996e-08
4.0139568e-08
1.0471905e-08
4.0506282e-08
9.411416e-09
4.0838986e-08
8.3271889e-09
4.1137612e-08
7.2196106e-09
4.1400514e-08
6.0902194e-09
4.162774e-08
4.941103e-09
4.1818679e-08
3.7720571e-09
4.1972313e-08
2.5855149e-09
4.2089187e-08
1.3817486e-09
4.216866e-08
1.6280733e-10
4.2210138e-08
-1.070319e-09
4.2213633e-08
-2.3160477e-09
4.2178957e-08
-3.5729364e-09
4.2105141e-08
-4.8404029e-09
4.1992431e-08
-6.1161325e-09
4.1841293e-08
-7.399881e-09
4.165105e-08
-8.6893236e-09
4.1421561e-08
-9.9830249e-09
4.1152945e-08
-1.1280647e-08
4.0845384e-08
-1.2580612e-08
4.0499275e-08
-1.3880309e-08
4.0114482e-08
-1.5180185e-08
3.969149e-08
-1.6477541e-08
3.9229611e-08
-1.7771827e-08
3.8729326e-08
-1.9060957e-08
3.8191681e-08
-2.0344803e-08
3.7616266e-08
-2.162074e-08
3.7003947e-08
-2.288883e-08
3.6354637e-08
-2.4146882e-08
3.5668765e-08
-2.5393105e-08
3.4947315e-08
-2.6627181e-08
3.4190704e-08
-2.7847876e-08
3.3398674e-08
-2.9053631e-08
3.2572357e-08
-3.0243284e-08
3.1712206e-08
-3.1415491e-08
3.0818941e-08
-3.2569733e-08
2.9892955e-08
-3.3703705e-08
2.8935722e-08
-3.4817778e-08
2.7946975e-08
-3.5909139e-08
2.6927506e-08
-3.6977672e-08
2.5878282e-08
-3.8021997e-08
2.4800108e-08
-3.90412e-08
2.3693852e-08
-4.0034673e-08
2.2560314e-08
-4.1000323e-08
2.1399911e-08
-4.1938069e-08
2.0214141e-08
-4.2846822e-08
1.9003944e-08
-4.3725305e-08
1.7769048e-08
-4.4572017e-08
1.6511719e-08
-4.5387344e-08
1.5232426e-08
-4.6169708e-08
1.3931613e-08
-4.6918324e-08
1.2611196e-08
-4.7632269e-08
1.1272393e-08
-4.8311208e-08
9.9152842e-09
-4.8953861e-08
8.5411048e-09
-4.9559427e-08
7.1501428e-09
-5.0126531e-08
5.7451051e-09
-5.0655923e-08
4.3265701e-09
-5.1147217e-08
2.8958044e-09
-5.1598582e-08
1.4528272e-09
-5.2009486e-08
-5.2380619e-08
2.7205648e-08
2.3922631e-08
2.8003141e-08
2.3506981e-08
2.8787673e-08
2.3053601e-08
2.9558229e-08
2.2562751e-08
3.0313286e-08
2.203468e-08
3.105145e-08
2.1469903e-08
3.1772121e-08
2.0869632e-08
3.2473111e-08
2.023355e-08
3.3153686e-08
1.9562615e-08
3.3812433e-08
1.8856835e-08
3.4448802e-08
1.8117918e-08
3.506091e-08
1.7345981e-08
3.5648403e-08
1.6541313e-08
3.6210027e-08
1.5705713e-08
3.6744471e-08
1.4839641e-08
3.725114e-08
1.3944478e-08
3.7728976e-08
1.3020163e-08
3.8176956e-08
1.206822e-08
3.8594322e-08
1.1090008e-08
3.8980096e-08
1.0086197e-08
3.9333913e-08
9.0574236e-09
3.9655421e-08
8.0056702e-09
3.9943617e-08
6.9314498e-09
4.0197056e-08
5.8365957e-09
4.0416451e-08
4.7215118e-09
4.0601542e-08
3.5870206e-09
4.0750892e-08
2.4358296e-09
4.0863822e-08
1.2688752e-09
4.0940245e-08
8.6386145e-11
4.0980313e-08
-1.1104526e-09
4.0983462e-08
-2.3190849e-09
4.0949356e-08
-3.5391563e-09
4.0877535e-08
-4.7686776e-09
4.0768507e-08
-6.0067834e-09
4.0621859e-08
-7.2531257e-09
4.0437092e-08
-8.5043431e-09
4.0215194e-08
-9.76103e-09
3.9954612e-08
-1.1020437e-08
3.965696e-08
-1.228235e-08
3.9321557e-08
-1.3545132e-08
3.894812e-08
-1.4806654e-08
3.8537184e-08
-1.606673e-08
3.8089386e-08
-1.7324437e-08
3.7604896e-08
-1.8576748e-08
3.7083804e-08
-1.982331e-08
3.6525435e-08
-2.1062885e-08
3.593121e-08
-2.2294738e-08
3.5301462e-08
-2.3516893e-08
3.4636826e-08
-2.4728168e-08
3.393651e-08
-2.592696e-08
3.3201793e-08
-2.7113404e-08
3.2433334e-08
-2.8285152e-08
3.1631507e-08
-2.9441741e-08
3.0797199e-08
-3.05815e-08
2.9930394e-08
-3.1702755e-08
2.9031702e-08
-3.2804834e-08
2.810195e-08
-3.3887908e-08
2.7142097e-08
-3.4949342e-08
2.6152619e-08
-3.598809e-08
2.5134356e-08
-3.7003396e-08
2.4087657e-08
-3.7994804e-08
2.3013403e-08
-3.8960653e-08
2.1912655e-08
-3.9899398e-08
2.0786068e-08
-4.0811524e-08
1.9634779e-08
-4.1695344e-08
1.845838e-08
-4.2549385e-08
1.7259826e-08
-4.3373203e-08
1.6039054e-08
-4.4166551e-08
1.4797059e-08
-4.49273e-08
1.3533751e-08
-4.5654936e-08
1.2250889e-08
-4.6349321e-08
1.0949602e-08
-4.7010351e-08
9.6307762e-09
-4.7635545e-08
8.2962374e-09
-4.8224441e-08
6.9459788e-09
-4.8776424e-08
5.5816499e-09
-4.9291174e-08
4.2035817e-09
-4.9768987e-08
2.8126656e-09
-5.0208493e-08
1.4111013e-09
-5.0607886e-08
-5.0969709e-08
2.6497375e-08
2.3143085e-08
2.7265996e-08
2.2738127e-08
2.8022084e-08
2.2297399e-08
2.8765053e-08
2.1819616e-08
2.9493126e-08
2.1306481e-08
3.0204776e-08
2.0758054e-08
3.0899592e-08
2.0174858e-08
3.1575852e-08
1.955749e-08
3.2232423e-08
1.8905949e-08
3.2868029e-08
1.8221122e-08
3.3481995e-08
1.7503918e-08
3.4072748e-08
1.6755135e-08
3.4639943e-08
1.5974485e-08
3.5181585e-08
1.5163906e-08
3.5697213e-08
1.4323922e-08
3.6186111e-08
1.3455621e-08
3.6647446e-08
1.255867e-08
3.708016e-08
1.1635632e-08
3.7483242e-08
1.0686829e-08
3.7856001e-08
9.7133798e-09
3.8197905e-08
8.7156272e-09
3.8508531e-08
7.6947468e-09
3.8786403e-08
6.6535529e-09
3.9031901e-08
5.591113e-09
3.9244024e-08
4.5094166e-09
3.942207e-08
3.4089521e-09
3.9565834e-08
2.2923323e-09
3.9674742e-08
1.1597981e-09
3.9748609e-08
1.2631452e-11
3.9787128e-08
-1.1490214e-09
3.9789885e-08
-2.3219812e-09
3.9756558e-08
-3.5059336e-09
3.9686843e-08
-4.6991976e-09
3.9580963e-08
-5.9009911e-09
3.9438791e-08
-7.1109219e-09
3.9259758e-08
-8.3256403e-09
3.9043877e-08
-9.5455554e-09
3.8791992e-08
-1.0768478e-08
3.8503161e-08
-1.1993635e-08
3.8177806e-08
-1.3219457e-08
3.7815611e-08
-1.4444891e-08
3.7417627e-08
-1.5668656e-08
3.6983094e-08
-1.68897e-08
3.6512901e-08
-1.8106561e-08
3.600714e-08
-1.9317258e-08
3.5466063e-08
-2.0521682e-08
3.4889585e-08
-2.1717933e-08
3.4278472e-08
-2.2905935e-08
3.3633443e-08
-2.4083047e-08
3.2954043e-08
-2.5247884e-08
3.2241637e-08
-2.6400469e-08
3.1496285e-08
-2.7539709e-08
3.071795e-08
-2.8663528e-08
2.9907828e-08
-2.9771136e-08
2.9066508e-08
-3.0861565e-08
2.8194578e-08
-3.1932864e-08
2.7291746e-08
-3.2985458e-08
2.6360208e-08
-3.4017338e-08
2.5399296e-08
-3.5027387e-08
2.4410994e-08
-3.6015177e-08
2.339435e-08
-3.6978409e-08
2.235162e-08
-3.79174e-08
2.1282887e-08
-3.8830769e-08
2.0189155e-08
-3.9717839e-08
1.9070918e-08
-4.0576844e-08
1.7929118e-08
-4.1407529e-08
1.6764578e-08
-4.2209057e-08
1.557881e-08
-4.2980415e-08
1.4372047e-08
-4.3720708e-08
1.3145468e-08
-4.4428726e-08
1.1900024e-08
-4.5104083e-08
1.0636751e-08
-4.5746469e-08
9.3559007e-09
-4.6354879e-08
8.0586415e-09
-4.6927213e-08
6.7468834e-09
-4.7465068e-08
5.4215244e-09
-4.7965727e-08
4.082872e-09
-4.8430373e-08
2.7325029e-09
-4.8857735e-08
1.3709632e-09
-4.9246429e-08
-4.959878e-08
2.5808832e-08
2.2391629e-08
2.6549798e-08
2.1997497e-08
2.7278656e-08
2.1568248e-08
2.7994964e-08
2.1103607e-08
2.869717e-08
2.0604342e-08
2.9383754e-08
2.0071542e-08
3.0053633e-08
1.9504907e-08
3.0706157e-08
1.8904983e-08
3.1339439e-08
1.8272487e-08
3.1952701e-08
1.7608004e-08
3.2544804e-08
1.6911647e-08
3.3115075e-08
1.6184623e-08
3.3662238e-08
1.5427407e-08
3.4184827e-08
1.4641239e-08
3.4682394e-08
1.3826442e-08
3.5154439e-08
1.2983695e-08
3.5599567e-08
1.2113627e-08
3.6016972e-08
1.1218076e-08
3.6406079e-08
1.0297513e-08
3.6766752e-08
9.3531092e-09
3.7096621e-08
8.385021e-09
3.739636e-08
7.395492e-09
3.766466e-08
6.3849233e-09
3.7901487e-08
5.3542939e-09
3.8106401e-08
4.3043844e-09
3.8278327e-08
3.237183e-09
3.8416778e-08
2.1537962e-09
3.8521938e-08
1.0547398e-09
3.85929e-08
-5.8517062e-11
3.8630218e-08
-1.1857835e-09
3.8632045e-08
-2.3239948e-09
3.8599043e-08
-3.4730283e-09
3.8531757e-08
-4.6316712e-09
3.8429094e-08
-5.7983685e-09
3.8290714e-08
-6.9726598e-09
3.8117233e-08
-8.1519762e-09
3.7908202e-08
-9.3362736e-09
3.76633e-08
-1.0523559e-08
3.7383119e-08
-1.1713668e-08
3.7067396e-08
-1.2903858e-08
3.6716452e-08
-1.4094086e-08
3.6330587e-08
-1.5282541e-08
3.5909257e-08
-1.6468333e-08
3.5452899e-08
-1.7649978e-08
3.4961955e-08
-1.8826875e-08
3.4436947e-08
-1.9996837e-08
3.3878173e-08
-2.1159226e-08
3.3285264e-08
-2.2312938e-08
3.2659042e-08
-2.3457059e-08
3.2000408e-08
-2.4589173e-08
3.130911e-08
-2.5709083e-08
3.0585234e-08
-2.6816063e-08
2.9830159e-08
-2.7908481e-08
2.9044008e-08
-2.8985176e-08
2.8227192e-08
-3.0044698e-08
2.738081e-08
-3.1086456e-08
2.6504873e-08
-3.2109788e-08
2.5600237e-08
-3.3112631e-08
2.4667938e-08
-3.4095136e-08
2.3707771e-08
-3.5054823e-08
2.2721085e-08
-3.5991611e-08
2.1708433e-08
-3.6904777e-08
2.0670955e-08
-3.7793082e-08
1.9608726e-08
-3.8655953e-08
1.8522486e-08
-3.9491302e-08
1.741431e-08
-4.0299045e-08
1.6283652e-08
-4.1078545e-08
1.5131817e-08
-4.1828812e-08
1.3959692e-08
-4.2548354e-08
1.2768313e-08
-4.3237262e-08
1.1558769e-08
-4.3894445e-08
1.0331325e-08
-4.4519439e-08
9.0873988e-09
-4.5110535e-08
7.8277911e-09
-4.5667903e-08
6.5536149e-09
-4.6190582e-08
5.2665286e-09
-4.6678381e-08
3.9661747e-09
-4.7130137e-08
2.653915e-09
-4.7545443e-08
1.331885e-09
-4.7924444e-08
-4.8266665e-08
2.5139735e-08
2.166727e-08
2.5853909e-08
2.1283214e-08
2.6557317e-08
2.0865203e-08
2.7247906e-08
2.0412898e-08
2.792474e-08
1.9927485e-08
2.8587047e-08
1.9409297e-08
2.9233333e-08
1.8858676e-08
2.9862415e-08
1.8275856e-08
3.047332e-08
1.7661723e-08
3.1064829e-08
1.7016469e-08
3.1636016e-08
1.6340354e-08
3.2186296e-08
1.5634768e-08
3.2713927e-08
1.489988e-08
3.3218334e-08
1.4136845e-08
3.3698785e-08
1.3346032e-08
3.4154481e-08
1.2528172e-08
3.4584121e-08
1.1684108e-08
3.4986945e-08
1.0815095e-08
3.5362494e-08
9.9221947e-09
3.5710159e-08
9.0053926e-09
3.6029055e-08
8.0663183e-09
3.6317871e-08
7.106799e-09
3.6577138e-08
6.1258894e-09
3.6805646e-08
5.1257052e-09
3.7003351e-08
4.1070783e-09
3.7168871e-08
3.0713642e-09
3.7302592e-08
2.0199674e-09
3.7403794e-08
9.5340186e-10
3.7472586e-08
-1.2735167e-10
3.7507632e-08
-1.2207288e-09
3.7509309e-08
-2.3255621e-09
3.7477303e-08
-3.4407281e-09
3.7411262e-08
-4.5660357e-09
3.7311944e-08
-5.6984873e-09
3.7177218e-08
-6.8379113e-09
3.700828e-08
-7.983234e-09
3.6805311e-08
-9.1331937e-09
3.6567973e-08
-1.0286513e-08
3.6295925e-08
-1.1441523e-08
3.598961e-08
-1.2597594e-08
3.5649369e-08
-1.3753761e-08
3.5274785e-08
-1.4908386e-08
3.4866145e-08
-1.6059836e-08
3.4423591e-08
-1.7207401e-08
3.3947524e-08
-1.8350434e-08
3.3438251e-08
-1.9487416e-08
3.2896018e-08
-2.0616479e-08
3.2321167e-08
-2.1737894e-08
3.1713205e-08
-2.2849287e-08
3.107369e-08
-2.3949689e-08
3.0402702e-08
-2.5038327e-08
2.9700764e-08
-2.6113663e-08
2.896758e-08
-2.7175621e-08
2.8204614e-08
-2.8222071e-08
2.7411828e-08
-2.9251938e-08
2.6590209e-08
-3.0264743e-08
2.5740022e-08
-3.1259232e-08
2.4861403e-08
-3.2234655e-08
2.3956178e-08
-3.3189662e-08
2.3024571e-08
-3.4123101e-08
2.2066792e-08
-3.5033719e-08
2.1083501e-08
-3.5921726e-08
2.0075889e-08
-3.6785453e-08
1.9044241e-08
-3.7624523e-08
1.7990053e-08
-3.8436799e-08
1.6913581e-08
-3.922263e-08
1.5815873e-08
-3.9980639e-08
1.469701e-08
-4.0709902e-08
1.3558903e-08
-4.140978e-08
1.2401588e-08
-4.2080169e-08
1.1227072e-08
-4.271972e-08
1.0034782e-08
-4.3327205e-08
8.8264624e-09
-4.3902488e-08
7.6035018e-09
-4.4444581e-08
6.3659724e-09
-4.4953201e-08
5.1152802e-09
-4.5427869e-08
3.8523084e-09
-4.5867308e-08
2.5775154e-09
-4.6271302e-08
1.2929915e-09
-4.6639792e-08
-4.6973648e-08
2.4489965e-08
2.0968835e-08
2.5178921e-08
2.059411e-08
2.5857203e-08
2.0187023e-08
2.6523144e-08
1.9746819e-08
2.71759e-08
1.9274708e-08
2.7814273e-08
1.8770923e-08
2.8437226e-08
1.8235611e-08
2.9044078e-08
1.7669117e-08
2.9633152e-08
1.7072391e-08
3.020372e-08
1.644588e-08
3.0755022e-08
1.5789442e-08
3.1285608e-08
1.5104009e-08
3.1794636e-08
1.439075e-08
3.2281568e-08
1.3650025e-08
3.2745042e-08
1.2882263e-08
3.3184694e-08
1.2088362e-08
3.3599265e-08
1.1269498e-08
3.3988043e-08
1.042659e-08
3.4350678e-08
9.5595316e-09
3.4686014e-08
8.6700169e-09
3.4993453e-08
7.759139e-09
3.5272377e-08
6.8271581e-09
3.5522807e-08
5.8754387e-09
3.574359e-08
4.9047643e-09
3.5934041e-08
3.9165601e-09
3.6093469e-08
2.9118856e-09
3.6222333e-08
1.8914384e-09
3.6319706e-08
8.5592471e-10
3.6385592e-08
-1.9316646e-10
3.6419113e-08
-1.2543645e-09
3.6419983e-08
-2.326748e-09
3.6388545e-08
-3.40937e-09
3.6324653e-08
-4.5016669e-09
3.6227053e-08
-5.6012626e-09
3.609647e-08
-6.707343e-09
3.5932538e-08
-7.8191499e-09
3.5735337e-08
-8.9362017e-09
3.5505049e-08
-1.005583e-08
3.5240913e-08
-1.1177366e-08
3.4944192e-08
-1.2300407e-08
3.4613769e-08
-1.3423333e-08
3.4250196e-08
-1.4544663e-08
3.3853402e-08
-1.5663076e-08
3.3424302e-08
-1.6778607e-08
3.2962354e-08
-1.7888602e-08
3.246805e-08
-1.8993278e-08
3.1941726e-08
-2.0090659e-08
3.1383592e-08
-2.1179837e-08
3.0793674e-08
-2.2259588e-08
3.0173664e-08
-2.3329426e-08
2.9521751e-08
-2.4386772e-08
2.8840666e-08
-2.5432256e-08
2.8129494e-08
-2.6464641e-08
2.7388917e-08
-2.748149e-08
2.6619782e-08
-2.8482628e-08
2.5822023e-08
-2.9467066e-08
2.4996902e-08
-3.0433843e-08
2.414419e-08
-3.1382225e-08
2.3265451e-08
-3.2310945e-08
2.2360623e-08
-3.3218048e-08
2.1430795e-08
-3.41038e-08
2.0475925e-08
-3.4966853e-08
1.9497405e-08
-3.5806931e-08
1.8496273e-08
-3.6622849e-08
1.7472225e-08
-3.741283e-08
1.6426774e-08
-3.8177088e-08
1.536052e-08
-3.8914281e-08
1.4274263e-08
-3.9623768e-08
1.3168914e-08
-4.0304548e-08
1.2044918e-08
-4.0956481e-08
1.090408e-08
-4.1578532e-08
9.7459805e-09
-4.2169272e-08
8.5729529e-09
-4.2729031e-08
7.3848674e-09
-4.32566e-08
6.1830277e-09
-4.3751527e-08
4.9681329e-09
-4.421267e-08
3.7413281e-09
-4.4640137e-08
2.5036682e-09
-4.5033074e-08
1.2558669e-09
-4.5392252e-08
-4.5717724e-08
2.3859169e-08
2.0295565e-08
2.4523372e-08
1.9929969e-08
2.5176915e-08
1.953332e-08
2.581871e-08
1.9104971e-08
2.6448115e-08
1.864537e-08
2.7063844e-08
1.8155218e-08
2.7664698e-08
1.7634552e-08
2.8249691e-08
1.7084188e-08
2.8817952e-08
1.6504144e-08
2.93686e-08
1.5895316e-08
2.9900215e-08
1.5257625e-08
3.0411931e-08
1.4592187e-08
3.0903059e-08
1.389965e-08
3.1372604e-08
1.3180448e-08
3.1820197e-08
1.2434797e-08
3.2244339e-08
1.1664524e-08
3.2644085e-08
1.0869392e-08
3.3019439e-08
1.0051252e-08
3.3368986e-08
9.2098972e-09
3.3692555e-08
8.3463777e-09
3.3989517e-08
7.462379e-09
3.4258757e-08
6.5578509e-09
3.4499824e-08
5.6344833e-09
3.4712678e-08
4.6918635e-09
3.4896256e-08
3.7329849e-09
3.5050332e-08
2.7578103e-09
3.517467e-08
1.766987e-09
3.5268278e-08
7.6228967e-10
3.5331292e-08
-2.5618232e-10
3.5363089e-08
-1.2861981e-09
3.5363414e-08
-2.3271184e-09
3.5332571e-08
-3.3785764e-09
3.5269235e-08
-4.4386612e-09
3.5174648e-08
-5.5062525e-09
3.50478e-08
-6.5805574e-09
3.4888705e-08
-7.6600469e-09
3.4696975e-08
-8.7447432e-09
3.447328e-08
-9.8318115e-09
3.4216903e-08
-1.0921222e-08
3.3928283e-08
-1.2012099e-08
3.3607756e-08
-1.3102671e-08
3.3254809e-08
-1.4192054e-08
3.2870154e-08
-1.5278333e-08
3.2453727e-08
-1.6361862e-08
3.2005554e-08
-1.7440382e-08
3.1525925e-08
-1.8513587e-08
3.1015021e-08
-1.9579988e-08
3.0473632e-08
-2.063822e-08
2.9901358e-08
-2.1687335e-08
2.9299154e-08
-2.2727039e-08
2.8667256e-08
-2.3754922e-08
2.8005732e-08
-2.4771122e-08
2.7315431e-08
-2.5773939e-08
2.6596664e-08
-2.6762803e-08
2.5849547e-08
-2.7736005e-08
2.5075456e-08
-2.8692796e-08
2.4274203e-08
-2.9632779e-08
2.3447111e-08
-3.0554494e-08
2.2593441e-08
-3.1457509e-08
2.1714979e-08
-3.2339864e-08
2.0811962e-08
-3.3200549e-08
1.9885345e-08
-3.4040905e-08
1.8935514e-08
-3.4857086e-08
1.7962763e-08
-3.5649934e-08
1.6968591e-08
-3.6418728e-08
1.5953465e-08
-3.7162118e-08
1.4918039e-08
-3.7879073e-08
1.3862975e-08
-3.8569072e-08
1.278982e-08
-3.9231158e-08
1.1698521e-08
-3.9865299e-08
1.0590359e-08
-4.0470082e-08
9.466191e-09
-4.1045064e-08
8.3266879e-09
-4.1589621e-08
7.1726126e-09
-4.2102598e-08
6.0053299e-09
-4.2584447e-08
4.8255437e-09
-4.3033168e-08
3.6340991e-09
-4.34491e-08
2.4319829e-09
-4.3831496e-08
1.2204588e-09
-4.4180769e-08
-4.4497154e-08
2.324519e-08
1.9646795e-08
2.3885127e-08
1.9289787e-08
2.4514976e-08
1.8903575e-08
2.5134088e-08
1.8486208e-08
2.5740867e-08
1.8038299e-08
2.6334948e-08
1.7561177e-08
2.6914609e-08
1.7054951e-08
2.7478816e-08
1.6520078e-08
2.8026769e-08
1.5956121e-08
2.8557835e-08
1.5364331e-08
2.9070689e-08
1.4744705e-08
2.9564366e-08
1.4098377e-08
3.0038321e-08
1.3425667e-08
3.0491355e-08
1.2727287e-08
3.0922994e-08
1.2003347e-08
3.1331881e-08
1.1255238e-08
3.1717529e-08
1.0483929e-08
3.2079675e-08
9.6893579e-09
3.2417137e-08
8.8724243e-09
3.2729224e-08
8.0341611e-09
3.3015421e-08
7.1762556e-09
3.3275335e-08
6.2984533e-09
3.3508066e-08
5.4014752e-09
3.3712942e-08
4.4869581e-09
3.3890026e-08
3.5559949e-09
3.4038329e-08
2.6093552e-09
3.4157789e-08
1.6476542e-09
3.424792e-08
6.7208732e-10
3.4307912e-08
-3.1639099e-10
3.4338262e-08
-1.3161294e-09
3.4338329e-08
-2.3272907e-09
3.4307557e-08
-3.3477634e-09
3.4245855e-08
-4.3770159e-09
3.4153499e-08
-5.4138231e-09
3.4029857e-08
-6.4571665e-09
3.3875244e-08
-7.5054054e-09
3.3689151e-08
-8.5585709e-09
3.3471639e-08
-9.614582e-09
3.3223187e-08
-1.0672664e-08
3.2942969e-08
-1.1731675e-08
3.2631449e-08
-1.2791277e-08
3.2289089e-08
-1.3849221e-08
3.1915766e-08
-1.4905094e-08
3.1511343e-08
-1.5957407e-08
3.1076371e-08
-1.7005575e-08
3.0610658e-08
-1.8048224e-08
3.0115219e-08
-1.9083987e-08
2.9589517e-08
-2.0112489e-08
2.9034355e-08
-2.1132119e-08
2.8449821e-08
-2.214213e-08
2.7836229e-08
-2.3141797e-08
2.7194593e-08
-2.4129368e-08
2.6524373e-08
-2.51039e-08
2.5826382e-08
-2.6064904e-08
2.5101434e-08
-2.7010702e-08
2.4349878e-08
-2.7941243e-08
2.3572355e-08
-2.8854956e-08
2.2769048e-08
-2.975146e-08
2.1940707e-08
-3.062929e-08
2.108771e-08
-3.1486865e-08
2.0211177e-08
-3.2323932e-08
1.931128e-08
-3.3140526e-08
1.8388803e-08
-3.3934538e-08
1.7444412e-08
-3.4705687e-08
1.6479294e-08
-3.5453518e-08
1.5493544e-08
-3.6176224e-08
1.4487969e-08
-3.6873635e-08
1.3463797e-08
-3.7544557e-08
1.2421306e-08
-3.8188498e-08
1.1361692e-08
-3.8805475e-08
1.0285435e-08
-3.9393907e-08
9.1938513e-09
-3.9953354e-08
8.0869297e-09
-4.0482523e-08
6.9661988e-09
-4.098173e-08
5.8327569e-09
-4.1450456e-08
4.6864969e-09
-4.1887226e-08
3.5297972e-09
-4.2292114e-08
2.3623197e-09
-4.2664296e-08
1.1860226e-09
-4.3004126e-08
-4.3311504e-08
2.2647362e-08
1.9021106e-08
2.3264563e-08
1.8672768e-08
2.3872275e-08
1.8295688e-08
2.446962e-08
1.7888913e-08
2.5054881e-08
1.7453138e-08
2.5627341e-08
1.698871e-08
2.6186406e-08
1.6496072e-08
2.6730452e-08
1.5975595e-08
2.7259132e-08
1.5427537e-08
2.7771154e-08
1.485201e-08
2.8266051e-08
1.4250122e-08
2.8742046e-08
1.3622097e-08
2.9199048e-08
1.2968704e-08
2.9636428e-08
1.2290097e-08
3.0052351e-08
1.1587215e-08
3.0447055e-08
1.0860875e-08
3.0819108e-08
1.0111813e-08
3.1168375e-08
9.3399797e-09
3.149377e-08
8.5471134e-09
3.1795095e-08
7.7332472e-09
3.2071186e-08
6.8997269e-09
3.2321329e-08
6.0476804e-09
3.2546026e-08
5.1772968e-09
3.2743074e-08
4.2896255e-09
3.2913925e-08
3.3856488e-09
3.3056535e-08
2.4664473e-09
3.3171402e-08
1.532797e-09
3.3257766e-08
5.859736e-10
3.3315461e-08
-3.7369894e-10
3.3343878e-08
-1.3449104e-09
3.3343396e-08
-2.3265163e-09
3.33131e-08
-3.3176032e-09
3.3253109e-08
-4.3166614e-09
3.3162513e-08
-5.3235377e-09
3.3042043e-08
-6.3367684e-09
3.28916e-08
-7.3550184e-09
3.2710448e-08
-8.3774446e-09
3.2499377e-08
-9.4035211e-09
3.2257712e-08
-1.0431057e-08
3.1985885e-08
-1.1460018e-08
3.1683517e-08
-1.2488993e-08
3.1351183e-08
-1.3516681e-08
3.0988684e-08
-1.4542509e-08
3.0596368e-08
-1.5565146e-08
3.0173974e-08
-1.6583095e-08
2.9722004e-08
-1.7596367e-08
2.9241127e-08
-1.8603239e-08
2.873118e-08
-1.9602573e-08
2.8192378e-08
-2.0593275e-08
2.7624743e-08
-2.1574746e-08
2.7029375e-08
-2.2546164e-08
2.6406239e-08
-2.3506027e-08
2.5755872e-08
-2.4453404e-08
2.5078625e-08
-2.5387615e-08
2.437496e-08
-2.6307271e-08
2.3645273e-08
-2.7211349e-08
2.2889799e-08
-2.8100268e-08
2.2110502e-08
-2.8971466e-08
2.1305792e-08
-2.9824652e-08
2.0477781e-08
-3.0658917e-08
1.9626812e-08
-3.1472941e-08
1.8753209e-08
-3.2266859e-08
1.7857596e-08
-3.3039241e-08
1.6940936e-08
-3.378885e-08
1.60035e-08
-3.4515926e-08
1.5046259e-08
-3.5219265e-08
1.4070195e-08
-3.5897058e-08
1.3075604e-08
-3.6549789e-08
1.2063227e-08
-3.7176353e-08
1.1033993e-08
-3.7776248e-08
9.9889198e-09
-3.8348966e-08
8.9282973e-09
-3.8892644e-08
7.8535552e-09
-3.940777e-08
6.7649984e-09
-3.9893672e-08
5.6635267e-09
-4.0349512e-08
4.5514445e-09
-4.077476e-08
3.4277526e-09
-4.11684e-08
2.2940721e-09
-4.1530306e-08
1.1510709e-09
-4.1861195e-08
-4.2159986e-08
2.2066805e-08
1.8417933e-08
2.2662129e-08
1.8077381e-08
2.3248104e-08
1.7709418e-08
2.3823783e-08
1.7313164e-08
2.4388379e-08
1.6888806e-08
2.4940254e-08
1.6436731e-08
2.5479209e-08
1.5957147e-08
2.6004066e-08
1.5450911e-08
2.6513869e-08
1.4917726e-08
2.7007813e-08
1.4358086e-08
2.7484743e-08
1.377303e-08
2.7944143e-08
1.3163021e-08
2.8384889e-08
1.2527813e-08
2.8806595e-08
1.1868463e-08
2.9208034e-08
1.1185807e-08
2.9588552e-08
1.0480163e-08
2.9947769e-08
9.7526555e-09
3.02844e-08
9.0033035e-09
3.0598514e-08
8.2330427e-09
3.0888652e-08
7.4432182e-09
3.1154575e-08
6.6339706e-09
3.1396087e-08
5.8064789e-09
3.161244e-08
4.9609213e-09
3.1802646e-08
4.0991809e-09
3.1966677e-08
3.2215603e-09
3.2103819e-08
2.3291446e-09
3.2214336e-08
1.4225447e-09
3.2297164e-08
5.0290686e-10
3.2352303e-08
-4.2911893e-10
3.2379224e-08
-1.3717148e-09
3.2378023e-08
-2.3251453e-09
3.2347646e-08
-3.2872747e-09
3.2288911e-08
-4.2577715e-09
3.2200621e-08
-5.2352901e-09
3.208387e-08
-6.2195103e-09
3.1937109e-08
-7.2085776e-09
3.1761021e-08
-8.2016955e-09
3.1555796e-08
-9.1979395e-09
3.1321014e-08
-1.0196616e-08
3.1056907e-08
-1.1195657e-08
3.0763363e-08
-1.2195413e-08
3.0440783e-08
-1.3194153e-08
3.0088781e-08
-1.4190677e-08
2.9707846e-08
-1.5184142e-08
2.9297549e-08
-1.617318e-08
2.8859325e-08
-1.7157221e-08
2.8392227e-08
-1.8136262e-08
2.7897198e-08
-1.9107378e-08
2.7373989e-08
-2.0070061e-08
2.6823143e-08
-2.1023873e-08
2.6245229e-08
-2.1968316e-08
2.5640731e-08
-2.2901417e-08
2.5009331e-08
-2.3821827e-08
2.435174e-08
-2.4730173e-08
2.3668762e-08
-2.5624127e-08
2.2960444e-08
-2.6503381e-08
2.2227777e-08
-2.7367097e-08
2.1470321e-08
-2.8214327e-08
2.0689633e-08
-2.90439e-08
1.9885658e-08
-2.9854853e-08
1.9059194e-08
-3.064667e-08
1.8211144e-08
-3.1418408e-08
1.7341427e-08
-3.2169961e-08
1.6451546e-08
-3.2898842e-08
1.5541587e-08
-3.3605726e-08
1.4611588e-08
-3.4289456e-08
1.3663707e-08
-3.494921e-08
1.2697392e-08
-3.5583797e-08
1.1714697e-08
-3.6193294e-08