/*--------------------------------*- C++ -*----------------------------------*\
| =========                 |                                                 |
| \\      /  F ield         | OpenFOAM: The Open Source CFD Toolbox           |
|  \\    /   O peration     | Version:  2306                                  |
|   \\  /    A nd           | Website:  www.openfoam.com                      |
|    \\/     M anipulation  |                                                 |
\*---------------------------------------------------------------------------*/
FoamFile
{
    version     2.0;
    format      ascii;
    arch        "LSB;label=32;scalar=64";
    class       surfaceScalarField;
    location    "0.27";
    object      phi_0;
}
// * * * * * * * * * * * * * * * * * * * * * * * * * * * * * * * * * * * * * //

dimensions      [0 3 -1 0 0 0 0];

oriented        oriented;

internalField   nonuniform List<scalar> 
12640
(
-6.9194828e-10
6.9194831e-10
-3.118303e-09
2.4263548e-09
-7.3218688e-09
4.2035659e-09
-1.3460407e-08
6.1385386e-09
-2.153333e-08
8.0729226e-09
-3.1490303e-08
9.9569726e-09
-4.3298806e-08
1.1808504e-08
-5.6930457e-08
1.3631651e-08
-7.2358625e-08
1.5428167e-08
-8.9557453e-08
1.7198827e-08
-1.0850062e-07
1.8943165e-08
-1.291603e-07
2.0659684e-08
-1.5150658e-07
2.2346278e-08
-1.7550708e-07
2.4000503e-08
-2.0112677e-07
2.5619688e-08
-2.2832777e-07
2.7200997e-08
-2.5706922e-07
2.8741452e-08
-2.8730721e-07
3.0237987e-08
-3.1899485e-07
3.1687643e-08
-3.5208341e-07
3.3088561e-08
-3.8652921e-07
3.4445802e-08
-4.2229041e-07
3.5761197e-08
-4.5929244e-07
3.7002025e-08
-4.9746792e-07
3.8175486e-08
-5.3675386e-07
3.9285939e-08
-5.7708572e-07
4.0331852e-08
-6.1839632e-07
4.1310607e-08
-6.6061591e-07
4.2219589e-08
-7.0367227e-07
4.3056357e-08
-7.4749099e-07
4.3818724e-08
-7.9199572e-07
4.4504723e-08
-8.3710835e-07
4.5112631e-08
-8.827493e-07
4.564095e-08
-9.288377e-07
4.6088411e-08
-9.752917e-07
4.645399e-08
-1.0220286e-06
4.6736916e-08
-1.0689653e-06
4.6936658e-08
-1.1160182e-06
4.7052943e-08
-1.163104e-06
4.7085758e-08
-1.2101393e-06
4.7035343e-08
-1.2570415e-06
4.6902197e-08
-1.3037286e-06
4.6687077e-08
-1.3501196e-06
4.6390986e-08
-1.3961347e-06
4.6015175e-08
-1.4416959e-06
4.5561128e-08
-1.4867264e-06
4.503057e-08
-1.5311519e-06
4.442543e-08
-1.5748997e-06
4.3747863e-08
-1.6178999e-06
4.3000205e-08
-1.660085e-06
4.2185009e-08
-1.7013899e-06
4.1304938e-08
-1.7417527e-06
4.0362852e-08
-1.7811145e-06
3.9361751e-08
-1.8194192e-06
3.8304734e-08
-1.8566142e-06
3.7195014e-08
-1.8926501e-06
3.603589e-08
-1.9274808e-06
3.4830715e-08
-1.9610638e-06
3.3582941e-08
-1.9933598e-06
3.2296012e-08
-2.0243332e-06
3.0973402e-08
-2.0539518e-06
2.9618582e-08
-2.0821868e-06
2.8235032e-08
-2.109013e-06
2.6826197e-08
-2.1344085e-06
2.5395468e-08
-2.1583547e-06
2.3946185e-08
-2.1808363e-06
2.2481637e-08
-2.2018413e-06
2.1005022e-08
-2.2213608e-06
1.9519465e-08
-2.2393888e-06
1.8027989e-08
-2.2559223e-06
1.6533538e-08
-2.2709613e-06
1.5039001e-08
-2.2845085e-06
1.3547143e-08
-2.2965692e-06
1.2060711e-08
-2.3071515e-06
1.0582323e-08
-2.316266e-06
9.1145404e-09
-2.323926e-06
7.6599678e-09
-2.3301475e-06
6.2214978e-09
-2.3349497e-06
4.8021474e-09
-2.3383509e-06
3.4012544e-09
2.0015842e-09
-2.2022425e-09
2.8941907e-09
-8.9211222e-09
9.1452344e-09
-2.0271202e-08
1.5553646e-08
-3.6328312e-08
2.2195648e-08
-5.7098848e-08
2.8843459e-08
-8.2546156e-08
3.540428e-08
-1.1261428e-07
4.1876627e-08
-1.4724009e-07
4.8257457e-08
-1.8635476e-07
5.4542838e-08
-2.2988371e-07
6.0727777e-08
-2.7774619e-07
6.6805646e-08
-3.2985481e-07
7.2768304e-08
-3.8611516e-07
7.8606635e-08
-4.464256e-07
8.4310944e-08
-5.1067718e-07
8.9871264e-08
-5.7875366e-07
9.5277478e-08
-6.505317e-07
1.0051949e-07
-7.2588103e-07
1.0558732e-07
-8.0466463e-07
1.1047125e-07
-8.8673809e-07
1.1516202e-07
-9.7194318e-07
1.1965089e-07
-1.0601083e-06
1.2392636e-07
-1.1510822e-06
1.2797591e-07
-1.2447007e-06
1.3179398e-07
-1.3407891e-06
1.3537435e-07
-1.4391672e-06
1.3870995e-07
-1.5396505e-06
1.4179385e-07
-1.6420505e-06
1.4461961e-07
-1.7461755e-06
1.4718141e-07
-1.8518309e-06
1.4947408e-07
-1.9588193e-06
1.5149317e-07
-2.0669417e-06
1.5323495e-07
-2.1759972e-06
1.5469646e-07
-2.2857843e-06
1.5587553e-07
-2.3961011e-06
1.5677076e-07
-2.5067457e-06
1.573816e-07
-2.6175174e-06
1.577083e-07
-2.7282164e-06
1.5775194e-07
-2.8386451e-06
1.5751444e-07
-2.9486082e-06
1.5699852e-07
-3.0579137e-06
1.562077e-07
-3.166373e-06
1.5514631e-07
-3.2738014e-06
1.538194e-07
-3.380019e-06
1.5223279e-07
-3.4848508e-06
1.5039297e-07
-3.5881274e-06
1.4830711e-07
-3.689685e-06
1.4598301e-07
-3.7893662e-06
1.4342904e-07
-3.8870201e-06
1.4065414e-07
-3.9825028e-06
1.376677e-07
-4.0756774e-06
1.3447958e-07
-4.1664146e-06
1.3110004e-07
-4.2545925e-06
1.2753963e-07
-4.340097e-06
1.2380925e-07
-4.422822e-06
1.1991998e-07
-4.5026692e-06
1.1588312e-07
-4.5795485e-06
1.1171004e-07
-4.6533778e-06
1.0741224e-07
-4.724083e-06
1.0300119e-07
-4.791598e-06
9.8488374e-08
-4.8558646e-06
9.3885178e-08
-4.9168324e-06
8.9202877e-08
-4.9744588e-06
8.445258e-08
-5.0287085e-06
7.964517e-08
-5.0795536e-06
7.4791338e-08
-5.1269735e-06
6.9901462e-08
-5.1709541e-06
6.4985631e-08
-5.2114882e-06
6.0053623e-08
-5.2485751e-06
5.5114902e-08
-5.2822202e-06
5.0178553e-08
-5.3124345e-06
4.5253396e-08
-5.3392353e-06
4.0347901e-08
-5.3626448e-06
3.5470215e-08
-5.3826906e-06
3.0628146e-08
-5.3994051e-06
2.5829076e-08
-5.4128251e-06
2.1079958e-08
-5.422991e-06
1.6387405e-08
-5.4299457e-06
1.1756794e-08
-5.4337312e-06
7.1867634e-09
2.6526455e-09
-3.219534e-09
6.1137248e-09
-1.2778988e-08
1.8704688e-08
-2.8727115e-08
3.1501773e-08
-5.1047125e-08
4.4515658e-08
-7.9732463e-08
5.7528798e-08
-1.147551e-07
7.0426917e-08
-1.5605621e-07
8.3177734e-08
-2.0355808e-07
9.5759329e-08
-2.5716876e-07
1.0815352e-07
-3.1678364e-07
1.2034266e-07
-3.8228636e-07
1.3230836e-07
-4.5354924e-07
1.4403118e-07
-5.3043355e-07
1.5549095e-07
-6.1278972e-07
1.6666711e-07
-7.0045747e-07
1.7753902e-07
-7.932661e-07
1.8808611e-07
-8.9103475e-07
1.9828814e-07
-9.9357266e-07
2.0812523e-07
-1.1006795e-06
2.1757811e-07
-1.2121456e-06
2.2662807e-07
-1.3277518e-06
2.352571e-07
-1.4472726e-06
2.4344719e-07
-1.5704772e-06
2.511805e-07
-1.6971251e-06
2.5844184e-07
-1.8269682e-06
2.6521752e-07
-1.9597531e-06
2.7149478e-07
-2.095221e-06
2.7726178e-07
-2.2331091e-06
2.8250777e-07
-2.373151e-06
2.8722325e-07
-2.515077e-06
2.9140006e-07
-2.6586153e-06
2.9503144e-07
-2.8034924e-06
2.9811209e-07
-2.9494342e-06
3.0063822e-07
-3.0961662e-06
3.0260754e-07
-3.2434148e-06
3.0401935e-07
-3.3909077e-06
3.0487452e-07
-3.5383749e-06
3.0517549e-07
-3.6855492e-06
3.0492628e-07
-3.8321672e-06
3.0413245e-07
-3.9779698e-06
3.0280112e-07
-4.122703e-06
3.0094085e-07
-4.2661184e-06
2.9856172e-07
-4.4079741e-06
2.9567512e-07
-4.5480352e-06
2.9229383e-07
-4.686074e-06
2.8843185e-07
-4.8218713e-06
2.8410439e-07
-4.955216e-06
2.7932775e-07
-5.0859062e-06
2.7411924e-07
-5.2137492e-06
2.6849713e-07
-5.3385621e-06
2.6248052e-07
-5.4601717e-06
2.5608921e-07
-5.5784153e-06
2.4934366e-07
-5.6931406e-06
2.4226489e-07
-5.8042056e-06
2.3487432e-07
-5.9114794e-06
2.2719371e-07
-6.0148414e-06
2.192451e-07
-6.1141819e-06
2.1105061e-07
-6.2094021e-06
2.0263242e-07
-6.3004136e-06
1.9401265e-07
-6.3871385e-06
1.8521332e-07
-6.4695095e-06
1.7625616e-07
-6.5474692e-06
1.6716262e-07
-6.6209705e-06
1.5795379e-07
-6.6899755e-06
1.4865026e-07
-6.7544563e-06
1.3927213e-07
-6.8143938e-06
1.2983893e-07
-6.8697777e-06
1.2036953e-07
-6.9206063e-06
1.108822e-07
-6.9668858e-06
1.0139448e-07
-7.0086305e-06
9.1923228e-08
-7.0458618e-06
8.2484647e-08
-7.0786081e-06
7.3094181e-08
-7.1069044e-06
6.376659e-08
-7.1307922e-06
5.4515894e-08
-7.1503185e-06
4.5355352e-08
-7.1655361e-06
3.6297615e-08
-7.1765039e-06
2.7355186e-08
-7.1832892e-06
1.8542038e-08
-7.1859792e-06
9.876831e-09
1.4150868e-09
-3.7445587e-09
9.8582835e-09
-1.4846369e-08
2.9806499e-08
-3.3270423e-08
4.9925827e-08
-5.8950551e-08
7.0195786e-08
-9.1858518e-08
9.0436765e-08
-1.3196117e-07
1.1052957e-07
-1.7919774e-07
1.3041431e-07
-2.3348469e-07
1.5004627e-07
-2.9471935e-07
1.6938818e-07
-3.6278222e-07
1.8840553e-07
-4.3753838e-07
2.0706452e-07
-5.1883859e-07
2.2533139e-07
-6.0652001e-07
2.4317237e-07
-7.0040672e-07
2.6055382e-07
-8.0031016e-07
2.7744246e-07
-9.0602957e-07
2.9380552e-07
-1.0173524e-06
3.0961098e-07
-1.1340549e-06
3.2482768e-07
-1.2559022e-06
3.3942547e-07
-1.3826495e-06
3.5337539e-07
-1.5140421e-06
3.666497e-07
-1.6498168e-06
3.7922181e-07
-1.7897025e-06
3.9106621e-07
-1.9334202e-06
4.0215955e-07
-2.0806833e-06
4.1248067e-07
-2.231199e-06
4.2201044e-07
-2.3846688e-06
4.3073159e-07
-2.5407899e-06
4.386288e-07
-2.6992555e-06
4.4568886e-07
-2.8597561e-06
4.5190068e-07
-3.0219801e-06
4.5725549e-07
-3.1856148e-06
4.6174679e-07
-3.3503471e-06
4.6537047e-07
-3.5158643e-06
4.681248e-07
-3.6818555e-06
4.7001049e-07
-3.8480116e-06
4.7103066e-07
-4.014027e-06
4.7119088e-07
-4.1795998e-06
4.704991e-07
-4.344433e-06
4.6896564e-07
-4.508235e-06
4.6660316e-07
-4.6707207e-06
4.6342653e-07
-4.8316118e-06
4.594528e-07
-4.9906378e-06
4.5470111e-07
-5.1475365e-06
4.4919257e-07
-5.3020548e-06
4.4295012e-07
-5.4539489e-06
4.3599847e-07
-5.6029851e-06
4.2836393e-07
-5.7489401e-06
4.2007427e-07
-5.8916016e-06
4.1115862e-07
-6.0307683e-06
4.0164726e-07
-6.1662506e-06
3.915715e-07
-6.2978705e-06
3.8096359e-07
-6.425462e-06
3.6985641e-07
-6.5488712e-06
3.5828345e-07
-6.6679561e-06
3.4627866e-07
-6.7825872e-06
3.3387618e-07
-6.8926469e-06
3.211103e-07
-6.9980297e-06
3.0801528e-07
-7.0986423e-06
2.9462521e-07
-7.1944029e-06
2.8097391e-07
-7.2852414e-06
2.670947e-07
-7.3710992e-06
2.5302041e-07
-7.4519286e-06
2.387832e-07
-7.5276928e-06
2.244145e-07
-7.5983655e-06
2.0994481e-07
-7.6639304e-06
1.9540377e-07
-7.7243808e-06
1.8082e-07
-7.7797197e-06
1.6622107e-07
-7.8299586e-06
1.516334e-07
-7.8751178e-06
1.3708236e-07
-7.9152252e-06
1.2259209e-07
-7.9503166e-06
1.0818563e-07
-7.9804349e-06
9.3884803e-08
-8.0056293e-06
7.9710323e-08
-8.0259556e-06
6.5681726e-08
-8.0414758e-06
5.181776e-08
-8.0522575e-06
3.8136867e-08
-8.0583748e-06
2.4659411e-08
-8.0599159e-06
1.1417917e-08
-1.5560287e-09
-3.9739712e-09
1.3832255e-08
-1.5790796e-08
4.1623323e-08
-3.5386602e-08
6.9521633e-08
-6.2679632e-08
9.7488817e-08
-9.7622622e-08
1.2537975e-07
-1.4016964e-07
1.5307659e-07
-1.9025419e-07
1.8049885e-07
-2.4778842e-07
2.075805e-07
-3.1266446e-07
2.3426422e-07
-3.8475599e-07
2.6049707e-07
-4.639197e-07
2.8622823e-07
-5.4999637e-07
3.1140806e-07
-6.4281182e-07
3.3598782e-07
-7.4217754e-07
3.5991954e-07
-8.4789133e-07
3.8315625e-07
-9.5973785e-07
4.0565204e-07
-1.0774891e-06
4.2736227e-07
-1.2009052e-06
4.4824372e-07
-1.3297345e-06
4.6825479e-07
-1.4637147e-06
4.8735563e-07
-1.6025733e-06
5.0550828e-07
-1.7460283e-06
5.2267675e-07
-1.8937892e-06
5.3882718e-07
-2.045558e-06
5.539283e-07
-2.2010289e-06
5.6795161e-07
-2.3598899e-06
5.808714e-07
-2.5218231e-06
5.9266477e-07
-2.686506e-06
6.033117e-07
-2.8536123e-06
6.1279521e-07
-3.022813e-06
6.2110139e-07
-3.1937771e-06
6.2821953e-07
-3.3661724e-06
6.3414215e-07
-3.5396671e-06
6.3886512e-07
-3.7139299e-06
6.4238758e-07
-3.8886314e-06
6.4471204e-07
-4.0634451e-06
6.4584437e-07
-4.238048e-06
6.4579371e-07
-4.4121214e-06
6.4457256e-07
-4.5853523e-06
6.4219654e-07
-4.7574336e-06
6.3868448e-07
-4.9280653e-06
6.3405822e-07
-5.0969551e-06
6.2834252e-07
-5.2638189e-06
6.2156492e-07
-5.4283819e-06
6.1375562e-07
-5.5903791e-06
6.0494728e-07
-5.7495555e-06
5.9517486e-07
-5.905667e-06
5.8447547e-07
-6.0584809e-06
5.7288814e-07
-6.2077759e-06
5.6045363e-07
-6.3533429e-06
5.4721426e-07
-6.494985e-06
5.332136e-07
-6.6325178e-06
5.1849642e-07
-6.7657698e-06
5.0310833e-07
-6.8945819e-06
4.8709565e-07
-7.0188085e-06
4.7050517e-07
-7.1383162e-06
4.5338394e-07
-7.252985e-06
4.3577911e-07
-7.3627075e-06
4.1773771e-07
-7.4673887e-06
3.9930644e-07
-7.5669463e-06
3.8053152e-07
-7.6613101e-06
3.6145852e-07
-7.7504219e-06
3.4213218e-07
-7.834235e-06
3.2259633e-07
-7.9127142e-06
3.0289365e-07
-7.9858351e-06
2.8306566e-07
-8.0535838e-06
2.631525e-07
-8.1159567e-06
2.4319291e-07
-8.1729598e-06
2.2322418e-07
-8.2246084e-06
2.03282e-07
-8.2709265e-06
1.8340049e-07
-8.3119465e-06
1.6361205e-07
-8.3477084e-06
1.4394751e-07
-8.3782596e-06
1.24436e-07
-8.4036542e-06
1.0510499e-07
-8.4239528e-06
8.5980301e-08
-8.4392215e-06
6.708647e-08
-8.4495321e-06
4.8447413e-08
-8.4549617e-06
3.0089037e-08
-8.4555966e-06
1.2052849e-08
-5.7115328e-09
-4.0615836e-09
1.7893838e-08
-1.6182536e-08
5.3744275e-08
-3.6300091e-08
8.9639188e-08
-6.4337203e-08
1.2552593e-07
-1.0023563e-07
1.6127818e-07
-1.43937e-07
1.9677796e-07
-1.9536732e-07
2.3192917e-07
-2.5443407e-07
2.6664725e-07
-3.2102571e-07
3.0085587e-07
-3.9501242e-07
3.3448377e-07
-4.7624697e-07
3.6746278e-07
-5.6456572e-07
3.9972681e-07
-6.5978938e-07
4.3121148e-07
-7.6172376e-07
4.6185392e-07
-8.7016038e-07
4.9159288e-07
-9.8487711e-07
5.2036877e-07
-1.1056387e-06
5.4812388e-07
-1.2321975e-06
5.7480253e-07
-1.364294e-06
6.0035126e-07
-1.5016574e-06
6.2471905e-07
-1.6440066e-06
6.4785746e-07
-1.7910507e-06
6.6972082e-07
-1.9424899e-06
6.9026645e-07
-2.0980166e-06
7.0945494e-07
-2.2573153e-06
7.2725039e-07
-2.4200644e-06
7.4362049e-07
-2.5859363e-06
7.5853665e-07
-2.7545987e-06
7.7197412e-07
-2.9257157e-06
7.8391213e-07
-3.0989482e-06
7.943339e-07
-3.2739555e-06
8.0322687e-07
-3.450396e-06
8.1058268e-07
-3.6279281e-06
8.1639723e-07
-3.8062113e-06
8.2067073e-07
-3.9849069e-06
8.2340769e-07
-4.1636795e-06
8.2461692e-07
-4.3421972e-06
8.2431146e-07
-4.5201332e-06
8.2250854e-07
-4.6971662e-06
8.192295e-07
-4.8729813e-06
8.1449963e-07
-5.0472712e-06
8.0834812e-07
-5.2197365e-06
8.008078e-07
-5.3900866e-06
7.9191504e-07
-5.5580405e-06
7.8170954e-07
-5.7233273e-06
7.7023409e-07
-5.8856869e-06
7.5753437e-07
-6.0448701e-06
7.4365873e-07
-6.2006399e-06
7.2865789e-07
-6.352771e-06
7.1258474e-07
-6.5010507e-06
6.95494e-07
-6.6452792e-06
6.7744208e-07
-6.7852694e-06
6.5848666e-07
-6.9208476e-06
6.3868651e-07
-7.0518531e-06
6.1810118e-07
-7.1781387e-06
5.9679079e-07
-7.2995705e-06
5.7481571e-07
-7.4160277e-06
5.522363e-07
-7.5274027e-06
5.2911273e-07
-7.6336009e-06
5.0550468e-07
-7.7345406e-06
4.8147116e-07
-7.8301523e-06
4.5707027e-07
-7.9203791e-06
4.3235899e-07
-8.0051759e-06
4.0739308e-07
-8.084509e-06
3.8222676e-07
-8.1583561e-06
3.5691274e-07
-8.2267055e-06
3.3150194e-07
-8.2895561e-06
3.0604343e-07
-8.3469162e-06
2.8058435e-07
-8.398804e-06
2.5516978e-07
-8.4452462e-06
2.2984268e-07
-8.4862781e-06
2.0464389e-07
-8.5219426e-06
1.7961204e-07
-8.5522901e-06
1.5478355e-07
-8.5773778e-06
1.3019263e-07
-8.5972689e-06
1.0587145e-07
-8.6120329e-06
8.1850427e-08
-8.6217446e-06
5.815919e-08
-8.6264852e-06
3.4829594e-08
-8.6263419e-06
1.1909478e-08
-1.0690766e-08
-4.0979294e-09
2.1991768e-08
-1.6358239e-08
6.6004584e-08
-3.6730385e-08
1.1001133e-07
-6.5148916e-08
1.5394446e-07
-1.0155166e-07
1.9768093e-07
-1.4587159e-07
2.4109788e-07
-1.9802799e-07
2.8408558e-07
-2.5792368e-07
3.2654293e-07
-3.2544382e-07
3.6837601e-07
-4.0045596e-07
4.0949591e-07
-4.8281052e-07
4.4981734e-07
-5.7234141e-07
4.8925771e-07
-6.6886671e-07
5.2773677e-07
-7.7218926e-07
5.6517647e-07
-8.8209732e-07
6.0150094e-07
-9.9836518e-07
6.3663663e-07
-1.1207537e-06
6.7051242e-07
-1.2490111e-06
7.0305991e-07
-1.3828734e-06
7.3421353e-07
-1.5220651e-06
7.6391083e-07
-1.6663004e-06
7.9209268e-07
-1.8152831e-06
8.1870352e-07
-1.9687082e-06
8.4369155e-07
-2.1262623e-06
8.6700905e-07
-2.2876245e-06
8.8861257e-07
-2.4524671e-06
9.0846314e-07
-2.6204569e-06
9.2652642e-07
-2.7912556e-06
9.4277285e-07
-2.9645213e-06
9.5717781e-07
-3.139909e-06
9.6972166e-07
-3.3170721e-06
9.8038996e-07
-3.4956629e-06
9.8917347e-07
-3.6753339e-06
9.9606821e-07
-3.8557387e-06
1.0010755e-06
-4.036533e-06
1.004202e-06
-4.2173756e-06
1.0054595e-06
-4.3979293e-06
1.0048652e-06
-4.5778619e-06
1.0024412e-06
-4.7568471e-06
9.9821468e-07
-4.9345652e-06
9.9221776e-07
-5.1107043e-06
9.8448714e-07
-5.2849605e-06
9.7506402e-07
-5.4570393e-06
9.6399388e-07
-5.626656e-06
9.513262e-07
-5.7935361e-06
9.3711422e-07
-5.9574164e-06
9.2141467e-07
-6.1180451e-06
9.0428744e-07
-6.2751825e-06
8.857953e-07
-6.4286014e-06
8.6600357e-07
-6.5780872e-06
8.449798e-07
-6.7234385e-06
8.2279343e-07
-6.8644673e-06
7.9951547e-07
-7.000999e-06
7.7521817e-07
-7.1328725e-06
7.4997466e-07
-7.2599403e-06
7.2385865e-07
-7.3820687e-06
6.9694411e-07
-7.4991374e-06
6.6930496e-07
-7.6110394e-06
6.4101476e-07
-7.7176812e-06
6.1214645e-07
-7.8189821e-06
5.8277202e-07
-7.9148742e-06
5.5296235e-07
-8.005302e-06
5.2278689e-07
-8.0902225e-06
4.9231349e-07
-8.1696038e-06
4.6160814e-07
-8.2434259e-06
4.3073481e-07
-8.3116793e-06
3.997554e-07
-8.3743653e-06
3.6872939e-07
-8.4314948e-06
3.3771389e-07
-8.4830885e-06
3.0676347e-07
-8.5291759e-06
2.7593005e-07
-8.5697949e-06
2.452629e-07
-8.6049914e-06
2.1480855e-07
-8.6348187e-06
1.846108e-07
-8.6593367e-06
1.547107e-07
-8.6786119e-06
1.2514666e-07
-8.6927161e-06
9.5954621e-08
-8.7017256e-06
6.7168633e-08
-8.7057186e-06
3.8822555e-08
-8.7047684e-06
1.0959373e-08
-1.648732e-08
-4.1229824e-09
2.611475e-08
-1.6475911e-08
7.8357513e-08
-3.7020666e-08
1.3055609e-07
-6.570307e-08
1.8262686e-07
-1.0246115e-07
2.3443901e-07
-1.4722307e-07
2.8585979e-07
-1.9990324e-07
3.3676575e-07
-2.6040047e-07
3.8704015e-07
-3.2859679e-07
4.3657234e-07
-4.0435734e-07
4.8525646e-07
-4.8753043e-07
5.3299042e-07
-5.7794797e-07
5.7967525e-07
-6.75426e-07
6.252148e-07
-7.7976516e-07
6.6951564e-07
-8.9075135e-07
7.1248713e-07
-1.0081562e-06
7.5404147e-07
-1.1317377e-06
7.9409396e-07
-1.261241e-06
8.325632e-07
-1.3963988e-06
8.6937128e-07
-1.5369321e-06
9.0444412e-07
-1.6825511e-06
9.3771168e-07
-1.8329558e-06
9.6910826e-07
-1.987837e-06
9.9857274e-07
-2.1468768e-06
1.0260489e-06
-2.3097498e-06
1.0514856e-06
-2.4761237e-06
1.074837e-06
-2.6456603e-06
1.096063e-06
-2.8180167e-06
1.1151292e-06
-2.9928458e-06
1.1320069e-06
-3.1697978e-06
1.1466737e-06
-3.348521e-06
1.1591131e-06
-3.5286627e-06
1.1693151e-06
-3.7098703e-06
1.1772759e-06
-3.8917926e-06
1.1829978e-06
-4.0740803e-06
1.1864897e-06
-4.2563876e-06
1.1877667e-06
-4.4383724e-06
1.18685e-06
-4.6196982e-06
1.183767e-06
-4.8000343e-06
1.1785507e-06
-4.9790569e-06
1.1712404e-06
-5.1564501e-06
1.1618803e-06
-5.3319065e-06
1.1505205e-06
-5.5051283e-06
1.1372157e-06
-5.6758275e-06
1.1220254e-06
-5.843727e-06
1.1050137e-06
-6.0085609e-06
1.0862486e-06
-6.1700753e-06
1.0658019e-06
-6.3280287e-06
1.0437486e-06
-6.4821921e-06
1.020167e-06
-6.6323499e-06
9.951376e-07
-6.7782998e-06
9.6874333e-07
-6.9198531e-06
9.410688e-07
-7.056835e-06
9.1220002e-07
-7.1890844e-06
8.8222404e-07
-7.3164542e-06
8.5122846e-07
-7.4388112e-06
8.1930115e-07
-7.5560361e-06
7.8652983e-07
-7.6680231e-06
7.5300173e-07
-7.7746799e-06
7.1880325e-07
-7.8759275e-06
6.8401969e-07
-7.9717e-06
6.4873482e-07
-8.0619439e-06
6.1303079e-07
-8.1466181e-06
5.7698769e-07
-8.2256934e-06
5.4068342e-07
-8.299152e-06
5.0419344e-07
-8.3669872e-06
4.6759062e-07
-8.4292029e-06
4.30945e-07
-8.4858127e-06
3.9432376e-07
-8.5368402e-06
3.5779094e-07
-8.5823177e-06
3.2140752e-07
-8.622286e-06
2.8523123e-07
-8.656794e-06
2.4931652e-07
-8.6858977e-06
2.1371454e-07
-8.7096601e-06
1.7847313e-07
-8.7281503e-06
1.4363682e-07
-8.7414426e-06
1.0924691e-07
-8.7496156e-06
7.5341689e-08
-8.7527506e-06
4.1957519e-08
-8.7509328e-06
9.1416477e-09
-2.3156141e-08
-4.1511077e-09
3.0265858e-08
-1.6597147e-08
9.0803553e-08
-3.7309188e-08
1.5126813e-07
-6.624157e-08
2.1155924e-07
-1.0333416e-07
2.7153161e-07
-1.48513e-07
3.3103862e-07
-2.0168936e-07
3.8994211e-07
-2.6275887e-07
4.4810966e-07
-3.316008e-07
5.0541427e-07
-4.0807783e-07
5.6173349e-07
-4.9203608e-07
6.1694867e-07
-5.8330537e-07
6.7094454e-07
-6.8169961e-07
7.2360903e-07
-7.8701723e-07
7.7483325e-07
-8.9904167e-07
8.2451157e-07
-1.017542e-06
8.7254178e-07
-1.1422734e-06
9.1882535e-07
-1.2729778e-06
9.6326762e-07
-1.4093847e-06
1.0057782e-06
-1.5512115e-06
1.046271e-06
-1.6981648e-06
1.0846649e-06
-1.8499404e-06
1.1208839e-06
-2.006225e-06
1.1548573e-06
-2.1666961e-06
1.18652e-06
-2.3310238e-06
1.2158132e-06
-2.498871e-06
1.2426842e-06
-2.6698946e-06
1.2670867e-06
-2.8437466e-06
1.2889813e-06
-3.020075e-06
1.3083353e-06
-3.1985248e-06
1.3251234e-06
-3.3787389e-06
1.3393272e-06
-3.5603595e-06
1.3509357e-06
-3.7430288e-06
1.3599452e-06
-3.9263905e-06
1.3663594e-06
-4.1100901e-06
1.3701894e-06
-4.2937768e-06
1.3714534e-06
-4.477104e-06
1.3701771e-06
-4.6597301e-06
1.3663931e-06
-4.84132e-06
1.3601407e-06
-5.0215459e-06
1.3514662e-06
-5.2000876e-06
1.3404221e-06
-5.3766342e-06
1.3270671e-06
-5.5508841e-06
1.3114656e-06
-5.7225463e-06
1.2936876e-06
-5.8913409e-06
1.2738083e-06
-6.0569995e-06
1.2519071e-06
-6.2192659e-06
1.2280683e-06
-6.3778968e-06
1.2023796e-06
-6.532662e-06
1.1749321e-06
-6.6833445e-06
1.1458201e-06
-6.8297413e-06
1.1151402e-06
-6.9716634e-06
1.0829909e-06
-7.1089358e-06
1.0494724e-06
-7.2413978e-06
1.0146861e-06
-7.3689029e-06
9.7873358e-07
-7.4913189e-06
9.4171709e-07
-7.6085274e-06
9.0373841e-07
-7.7204244e-06
8.6489872e-07
-7.8269193e-06
8.2529816e-07
-7.9279352e-06
7.8503552e-07
-8.0234081e-06
7.4420777e-07
-8.1132872e-06
7.0290988e-07
-8.1975339e-06
6.6123443e-07
-8.2761219e-06
6.1927136e-07
-8.3490362e-06
5.7710772e-07
-8.4162731e-06
5.3482752e-07
-8.4778395e-06
4.9251144e-07
-8.5337525e-06
4.5023674e-07
-8.5840386e-06
4.0807708e-07
-8.6287336e-06
3.6610247e-07
-8.6678815e-06
3.243791e-07
-8.7015343e-06
2.8296936e-07
-8.7297515e-06
2.4193176e-07
-8.7525993e-06
2.0132092e-07
-8.7701501e-06
1.6118758e-07
-8.7824818e-06
1.2157864e-07
-8.7896772e-06
8.253706e-08
-8.7918225e-06
4.4102839e-08
-8.788994e-06
6.3130681e-09
-3.0826297e-08
-4.186183e-09
3.4452041e-08
-1.6741451e-08
1.0335882e-07
-3.7642778e-08
1.7216946e-07
-6.6850214e-08
2.4076668e-07
-1.043057e-07
3.089871e-07
-1.4993457e-07
3.7666749e-07
-2.0364619e-07
4.4365373e-07
-2.6533375e-07
5.0979723e-07
-3.3487408e-07
5.749546e-07
-4.1212743e-07
6.3898685e-07
-4.9693762e-07
7.0175885e-07
-5.8913211e-07
7.6313904e-07
-6.885224e-07
8.2299933e-07
-7.9490437e-07
8.8121523e-07
-9.0805877e-07
9.3766596e-07
-1.0277517e-06
9.9223469e-07
-1.1537351e-06
1.0448088e-06
-1.2857477e-06
1.0952802e-06
-1.423515e-06
1.1435455e-06
-1.5667508e-06
1.1895067e-06
-1.7151571e-06
1.2330713e-06
-1.8684256e-06
1.2741524e-06
-2.026238e-06
1.3126696e-06
-2.1882671e-06
1.3485491e-06
-2.3541776e-06
1.3817238e-06
-2.5236273e-06
1.4121339e-06
-2.6962676e-06
1.439727e-06
-2.8717449e-06
1.4644586e-06
-3.0497015e-06
1.4862919e-06
-3.2297764e-06
1.5051984e-06
-3.411607e-06
1.5211578e-06
-3.5948294e-06
1.5341581e-06
-3.7790801e-06
1.544196e-06
-3.9639969e-06
1.5512762e-06
-4.1492199e-06
1.5554123e-06
-4.3343924e-06
1.556626e-06
-4.5191624e-06
1.5549472e-06
-4.7031834e-06
1.550414e-06
-4.8861151e-06
1.5430724e-06
-5.0676247e-06
1.5329759e-06
-5.247388e-06
1.5201853e-06
-5.4250896e-06
1.5047686e-06
-5.6004242e-06
1.4868002e-06
-5.7730973e-06
1.4663607e-06
-5.9428257e-06
1.4435367e-06
-6.1093384e-06
1.4184199e-06
-6.272377e-06
1.3911069e-06
-6.431696e-06
1.3616986e-06
-6.5870637e-06
1.3302998e-06
-6.738262e-06
1.2970185e-06
-6.8850873e-06
1.2619654e-06
-7.0273501e-06
1.2252537e-06
-7.1648755e-06
1.1869978e-06
-7.2975032e-06
1.1473138e-06
-7.4250876e-06
1.106318e-06
-7.5474976e-06
1.0641271e-06
-7.6646165e-06
1.0208573e-06
-7.7763418e-06
9.7662402e-07
-7.8825852e-06
9.3154157e-07
-7.983272e-06
8.857224e-07
-8.0783413e-06
8.3927698e-07
-8.1677447e-06
7.923133e-07
-8.2514469e-06
7.4493662e-07
-8.3294246e-06
6.972491e-07
-8.4016664e-06
6.4934958e-07
-8.4681722e-06
6.0133325e-07
-8.5289523e-06
5.5329157e-07
-8.5840275e-06
5.0531198e-07
-8.6334282e-06
4.5747777e-07
-8.6771938e-06
4.0986801e-07
-8.7153721e-06
3.625574e-07
-8.748019e-06
3.1561624e-07
-8.7751976e-06
2.6911038e-07
-8.7969779e-06
2.2310118e-07
-8.8134358e-06
1.7764553e-07
-8.824653e-06
1.3279585e-07
-8.8307159e-06
8.8599926e-08
-8.831714e-06
4.5101001e-08
-8.8277398e-06
2.3388785e-09
-3.965956e-08
-4.2286536e-09
3.8680694e-08
-1.6913092e-08
1.1604326e-07
-3.8033826e-08
1.9329019e-07
-6.7554491e-08
2.7028735e-07
-1.0541873e-07
3.4685133e-07
-1.5155176e-07
4.2280052e-07
-2.0586169e-07
4.9796366e-07
-2.6823984e-07
5.7217538e-07
-3.3856081e-07
6.4527557e-07
-4.1668252e-07
7.1710856e-07
-5.0244629e-07
7.8752263e-07
-5.9567705e-07
8.5636979e-07
-6.9618357e-07
9.2350584e-07
-8.0375882e-07
9.8879049e-07
-9.1818044e-07
1.0520876e-06
-1.0392111e-06
1.1132654e-06
-1.1665993e-06
1.172197e-06
-1.3000796e-06
1.2287605e-06
-1.4393736e-06
1.2828394e-06
-1.5841902e-06
1.3343234e-06
-1.7342269e-06
1.383108e-06
-1.8891703e-06
1.4290957e-06
-2.0486966e-06
1.472196e-06
-2.2124732e-06
1.5123257e-06
-2.380159e-06
1.5494096e-06
-2.5514056e-06
1.5833804e-06
-2.7258582e-06
1.6141796e-06
-2.9031569e-06
1.6417573e-06
-3.0829374e-06
1.6660724e-06
-3.2648324e-06
1.6870933e-06
-3.4484723e-06
1.7047977e-06
-3.6334869e-06
1.7191727e-06
-3.8195059e-06
1.730215e-06
-4.0061606e-06
1.7379309e-06
-4.1930845e-06
1.7423363e-06
-4.3799149e-06
1.7434563e-06
-4.5662935e-06
1.7413258e-06
-4.7518677e-06
1.7359883e-06
-4.9362919e-06
1.7274965e-06
-5.1192278e-06
1.7159118e-06
-5.300346e-06
1.7013035e-06
-5.4793265e-06
1.6837491e-06
-5.6558598e-06
1.6633335e-06
-5.8296473e-06
1.6401483e-06
-6.0004025e-06
1.6142919e-06
-6.1678513e-06
1.5858686e-06
-6.3317325e-06
1.5549881e-06
-6.4917988e-06
1.5217648e-06
-6.6478165e-06
1.4863175e-06
-6.7995665e-06
1.4487685e-06
-6.9468443e-06
1.4092432e-06
-7.0894601e-06
1.3678695e-06
-7.2272394e-06
1.3247771e-06
-7.3600223e-06
1.2800967e-06
-7.4876642e-06
1.2339599e-06
-7.6100355e-06
1.1864983e-06
-7.7270211e-06
1.1378429e-06
-7.838521e-06
1.0881239e-06
-7.9444491e-06
1.0374697e-06
-8.0447337e-06
9.8600699e-07
-8.1393166e-06
9.3385994e-07
-8.2281532e-06
8.8114985e-07
-8.3112115e-06
8.2799489e-07
-8.388472e-06
7.7450961e-07
-8.4599271e-06
7.2080475e-07
-8.5255808e-06
6.6698695e-07
-8.5854477e-06
6.1315845e-07
-8.6395527e-06
5.5941697e-07
-8.6879304e-06
5.058555e-07
-8.7306246e-06
4.5256221e-07
-8.7676875e-06
3.9962029e-07
-8.7991793e-06
3.4710798e-07
-8.8251672e-06
2.9509836e-07
-8.8457256e-06
2.4365954e-07
-8.8609345e-06
1.9285449e-07
-8.8708798e-06
1.4274107e-07
-8.8756518e-06
9.337192e-08
-8.8753448e-06
4.4794045e-08
-8.8700596e-06
-2.9462843e-09
-4.9816015e-08
-4.2781763e-09
4.2958871e-08
-1.7111972e-08
1.2887705e-07
-3.8483958e-08
2.1466218e-07
-6.8359935e-08
3.0016332e-07
-1.0668473e-07
3.8517612e-07
-1.5338354e-07
4.6949934e-07
-2.0836355e-07
5.5294367e-07
-2.7151446e-07
6.3532629e-07
-3.4270882e-07
7.1646994e-07
-4.2180224e-07
7.9620197e-07
-5.0863346e-07
8.7435385e-07
-6.0302462e-07
9.5076095e-07
-7.0478149e-07
1.0252627e-06
-8.1369381e-07
1.0977028e-06
-9.2953567e-07
1.1679294e-06
-1.052066e-06
1.2357957e-06
-1.1810291e-06
1.3011601e-06
-1.3161551e-06
1.3638865e-06
-1.4571608e-06
1.4238451e-06
-1.6037501e-06
1.4809127e-06
-1.7556152e-06
1.534973e-06
-1.9124366e-06
1.5859172e-06
-2.0738848e-06
1.6336442e-06
-2.2396208e-06
1.6780616e-06
-2.4092967e-06
1.7190855e-06
-2.5825575e-06
1.7566412e-06
-2.7590414e-06
1.7906635e-06
-2.9383811e-06
1.821097e-06
-3.1202051e-06
1.8478964e-06
-3.3041386e-06
1.8710268e-06
-3.4898046e-06
1.8904637e-06
-3.6768253e-06
1.9061934e-06
-3.864823e-06
1.9182127e-06
-4.0534216e-06
1.9265294e-06
-4.2422472e-06
1.9311619e-06
-4.4309301e-06
1.9321392e-06
-4.6191049e-06
1.9295006e-06
-4.8064127e-06
1.923296e-06
-4.9925011e-06
1.913585e-06
-5.1770261e-06
1.9004368e-06
-5.3596525e-06
1.8839299e-06
-5.540055e-06
1.8641517e-06
-5.7179193e-06
1.8411978e-06
-5.8929426e-06
1.8151715e-06
-6.0648343e-06
1.7861836e-06
-6.2333169e-06
1.7543512e-06
-6.3981265e-06
1.7197977e-06
-6.5590132e-06
1.6826515e-06
-6.7157416e-06
1.643046e-06
-6.8680915e-06
1.6011183e-06
-7.0158574e-06
1.5570091e-06
-7.1588494e-06
1.5108615e-06
-7.296893e-06
1.4628207e-06
-7.4298293e-06
1.413033e-06
-7.5575149e-06
1.3616455e-06
-7.6798217e-06
1.3088051e-06
-7.796637e-06
1.2546582e-06
-7.9078629e-06
1.1993498e-06
-8.0134166e-06
1.1430234e-06
-8.1132294e-06
1.0858198e-06
-8.2072468e-06
1.0278773e-06
-8.2954277e-06
9.6933081e-07
-8.3777445e-06
9.1031163e-07
-8.4541818e-06
8.5094692e-07
-8.5247366e-06
7.9135955e-07
-8.5894173e-06
7.3166766e-07
-8.6482433e-06
6.7198445e-07
-8.7012444e-06
6.1241803e-07
-8.74846e-06
5.5307109e-07
-8.7899387e-06
4.9404097e-07
-8.8257378e-06
4.3541932e-07
-8.8559221e-06
3.772923e-07
-8.880564e-06
3.1974023e-07
-8.8997423e-06
2.6283785e-07
-8.913542e-06
2.0665417e-07
-8.9220533e-06
1.5125246e-07
-8.9253717e-06
9.6690268e-08
-8.923595e-06
4.301736e-08
-8.916831e-06
-9.7103075e-09
-6.1460704e-08
-4.3344006e-09
4.7293271e-08
-1.7337265e-08
1.4187992e-07
-3.8992365e-08
2.3631728e-07
-6.9266779e-08
3.3043774e-07
-1.0810603e-07
4.2401538e-07
-1.5543523e-07
5.1682853e-07
-2.1116066e-07
6.086691e-07
-2.7517054e-07
6.9933617e-07
-3.4733547e-07
7.8863486e-07
-4.2750867e-07
8.7637517e-07
-5.1552623e-07
9.6237141e-07
-6.1120731e-07
1.046442e-06
-7.1435441e-07
1.1284098e-06
-8.2475368e-07
1.2081021e-06
-9.4217533e-07
1.2853511e-06
-1.066374e-06
1.3599944e-06
-1.1970894e-06
1.4318755e-06
-1.3340468e-06
1.5008438e-06
-1.4769576e-06
1.5667559e-06
-1.62552e-06
1.6294752e-06
-1.77942e-06
1.688873e-06
-1.9383319e-06
1.7448291e-06
-2.1019193e-06
1.7972316e-06
-2.269836e-06
1.8459784e-06
-2.441727e-06
1.8909765e-06
-2.6172294e-06
1.9321436e-06
-2.7959736e-06
1.9694077e-06
-2.9775843e-06
2.0027077e-06
-3.1616817e-06
2.0319938e-06
-3.3478826e-06
2.0572277e-06
-3.5358017e-06
2.0783828e-06
-3.7250527e-06
2.0954444e-06
-3.9152495e-06
2.1084096e-06
-4.1060077e-06
2.1172876e-06
-4.2969454e-06
2.1220996e-06
-4.4876847e-06
2.1228784e-06
-4.6778526e-06
2.1196686e-06
-4.8670826e-06
2.112526e-06
-5.0550154e-06
2.1015178e-06
-5.2413001e-06
2.0867214e-06
-5.4255951e-06
2.068225e-06
-5.6075696e-06
2.0461261e-06
-5.7869035e-06
2.0205318e-06
-5.9632894e-06
1.9915574e-06
-6.1364323e-06
1.9593265e-06
-6.3060511e-06
1.92397e-06
-6.4718785e-06
1.8856252e-06
-6.6336623e-06
1.8444353e-06
-6.7911651e-06
1.8005487e-06
-6.9441651e-06
1.7541183e-06
-7.0924562e-06
1.7053002e-06
-7.2358483e-06
1.6542536e-06
-7.3741672e-06
1.6011397e-06
-7.5072551e-06
1.5461209e-06
-7.6349698e-06
1.4893603e-06
-7.7571854e-06
1.4310207e-06