/*--------------------------------*- C++ -*----------------------------------*\
| =========                 |                                                 |
| \\      /  F ield         | OpenFOAM: The Open Source CFD Toolbox           |
|  \\    /   O peration     | Version:  2106                                  |
|   \\  /    A nd           | Website:  www.openfoam.com                      |
|    \\/     M anipulation  |                                                 |
\*---------------------------------------------------------------------------*/
FoamFile
{
    version     2.0;
    format      ascii;
    arch        "LSB;label=32;scalar=64";
    class       volScalarField;
    location    "0.015";
    object      p;
}
// * * * * * * * * * * * * * * * * * * * * * * * * * * * * * * * * * * * * * //

dimensions      [1 -1 -2 0 0 0 0];

internalField   nonuniform List<scalar> 
32768
(
391.42805
391.32801
391.12274
390.81224
390.39644
389.87496
389.24735
388.51304
387.67139
386.72166
385.66301
384.49451
383.21511
381.82366
380.31891
378.6995
376.96394
375.11064
373.13787
371.04379
368.82642
366.48363
364.01317
361.41262
358.6794
355.81077
352.80381
349.65542
346.3623
342.92091
339.32753
335.57817
331.66858
327.59424
323.35034
318.93171
314.33286
309.5479
304.57052
299.39394
294.01087
288.41346
282.59323
276.54099
270.24677
263.69969
256.8879
249.79836
242.41674
234.72718
226.7121
218.35173
209.62451
200.50401
190.96768
180.9695
170.50597
159.476
147.87294
135.67163
122.63565
109.09058
94.372773
78.541548
62.392442
43.653116
22.542016
0.5528759
0.74846235
0.69140829
0.65876959
0.63044429
0.60487251
0.58227103
0.56220429
0.54438405
0.5281486
0.51312876
0.49909669
0.48589282
0.47340551
0.46155278
0.45026673
0.43949283
0.42918627
0.41930932
0.40982971
0.40071945
0.39195399
0.3835116
0.37537289
0.36752042
0.35993842
0.35261256
0.34552973
0.3386779
0.33204598
0.32562373
0.31940163
0.31337084
0.30752309
0.30185067
0.29634633
0.29100326
0.28581506
0.28077569
0.27587944
0.27112091
0.26649499
0.26199682
0.2576218
0.25336552
0.24922383
0.24519273
0.24126843
0.23744732
0.23372593
0.23010096
0.22656927
0.2231274
0.21977341
0.21650379
0.2133159
0.21020731
0.20717539
0.20421782
0.20133241
0.19851696
0.1957694
0.19308762
0.19046999
0.18791419
0.18541785
0.18297906
0.18059984
0.17827532
0.17600374
0.1737843
0.17161462
0.16949363
0.16742262
0.16539796
0.16341774
0.16148158
0.15958835
0.15773683
0.15592634
0.15415541
0.15242302
0.15072824
0.14907009
0.1474476
0.14586007
0.14430642
0.14278588
0.14129767
0.13984099
0.13841508
0.13701922
0.13565273
0.13431511
0.13300589
0.13172268
0.13046644
0.12923658
0.12803228
0.12685334
0.12569925
0.12456763
0.12345964
0.12237478
0.12131243
0.12027188
0.11925285
0.1182548
0.11727733
0.11632005
0.11538256
0.11446448
0.11356542
0.11268503
0.11182295
0.11097884
0.11015237
0.10934322
0.10855109
0.10777565
0.10701668
0.10627368
0.10554656
0.10483503
0.10413884
0.10345773
0.10279146
0.1021398
0.10150252
0.10087939
0.1002702
0.099674754
0.099092845
0.098524274
0.097968857
0.097426406
0.096896774
0.096379654
0.095875005
0.095382654
0.094902445
0.094434227
0.09397785
0.093533174
0.093100059
0.092678378
0.092267976
0.091868794
0.091480637
0.091103508
0.090737217
0.090381714
0.090036928
0.089702244
0.089378004
0.089064439
0.088761074
0.088467823
0.088184647
0.087911478
0.087648238
0.087394857
0.087151263
0.086917393
0.086693172
0.086478574
0.086273509
0.08607793
0.085891785
0.085715025
0.085547606
0.085389442
0.085240526
0.0851008
0.084970218
0.084848908
0.084736672
0.084633493
0.084539363
0.084454262
0.084378187
0.08431103
0.084252859
0.084203631
0.084163334
0.084132001
0.084109565
0.084095872
0.084092252
382.78647
382.68654
382.48149
382.17128
381.75581
381.23473
380.60759
379.87382
379.0328
378.08378
377.02593
375.8583
374.57986
373.18947
371.68587
370.06769
368.33347
366.4816
364.51038
362.41794
360.20232
357.8614
355.39293
352.79448
350.06351
347.19726
344.19282
341.0471
337.75681
334.31842
330.72821
326.98221
323.07619
319.00563
314.76574
310.35136
305.75703
300.97688
296.00461
290.83348
285.45622
279.86502
274.05144
268.00632
261.71975
255.18091
248.378
241.29804
233.9268
226.24847
218.24561
209.89825
201.18583
192.07851
182.56313
172.57154
162.14634
151.11798
139.54126
127.35385
114.24613
100.75719
85.983943
69.707361
53.172259
34.591923
11.530839
0.49387015
0.64720895
0.65742581
0.63211385
0.6085757
0.58744725
0.56766032
0.54936743
0.5323986
0.51660751
0.50184158
0.48796392
0.47486313
0.46244947
0.45065037
0.43940549
0.42866452
0.41838501
0.40853076
0.3990705
0.38997697
0.38122612
0.37279661
0.36466935
0.35682713
0.34925437
0.34193686
0.33486163
0.32801675
0.3213912
0.31497482
0.30875815
0.30273238
0.29688931
0.29122124
0.28572096
0.28038169
0.27519706
0.27016105
0.26526796
0.26051241
0.25588931
0.2513938
0.2470213
0.24276741
0.23862799
0.23459905
0.2306768
0.22685761
0.22313801
0.21951462
0.21598414
0.21254309
0.20919138
0.2059238
0.20273756
0.19963046
0.19659986
0.19364353
0.19075929
0.18794489
0.18519816
0.1825166
0.17990062
0.17734651
0.17485216
0.17241695
0.17003663
0.1677119
0.16544131
0.16322346
0.16105481
0.15893612
0.15686421
0.1548397
0.1528594
0.1509234
0.14903046
0.14717903
0.14536947
0.14359934
0.14186754
0.14017321
0.13851536
0.13689285
0.1353062
0.13375326
0.13223325
0.13074548
0.1292892
0.12786367
0.12646814
0.12510185
0.12376408
0.12245401
0.12117224
0.1199169
0.1186875
0.11748356
0.11630437
0.11514932
0.11401914
0.11291203
0.11182782
0.11076613
0.10972551
0.10870646
0.10770853
0.10673123
0.10577414
0.10483686
0.10391897
0.1030201
0.1021399
0.101278
0.10043407
0.099607772
0.098798801
0.098006869
0.097231717
0.0964731
0.095730051
0.095002929
0.094291489
0.093595413
0.092914424
0.092248275
0.091596732
0.090959561
0.090336534
0.089727442
0.089132113
0.088550316
0.087981857
0.087426566
0.086884294
0.086354893
0.085837722
0.085333061
0.084840758
0.084360617
0.083892468
0.083436157
0.082991538
0.082558464
0.082136779
0.081726323
0.081327252
0.080939149
0.08056217
0.080195944
0.079840387
0.079495405
0.079161271
0.078837639
0.078523768
0.078220256
0.077926988
0.077643834
0.077370694
0.077107487
0.076854136
0.076610565
0.076376699
0.076152472
0.075937942
0.075732931
0.075537392
0.075351286
0.075174577
0.075007225
0.074849048
0.074700143
0.074560484
0.074430034
0.074308619
0.074196336
0.074093144
0.073999004
0.073913891
0.073837771
0.073770697
0.073712582
0.073663372
0.073623108
0.073591782
0.073569415
0.073555933
0.073552316
374.24326
374.14335
373.93861
373.62887
373.21404
372.69374
372.06754
371.33489
370.49514
369.54756
368.49132
367.32548
366.049
364.66075
363.15947
361.54382
359.81231
357.96336
355.99525
353.90616
351.6941
349.35698
346.89254
344.29839
341.57196
338.71054
335.71122
332.57092
329.28637
325.85406
322.27029
318.53111
314.63231
310.5694
306.33762
301.93185
297.34666
292.57621
287.61426
282.45412
277.08857
271.50988
265.70965
259.67884
253.4076
246.88523
240.10003
233.03917
225.68853
218.03247
210.0537
201.73239
193.0481
183.97112
174.48854
164.53201
154.14583
143.1498
131.61784
119.44143
106.356
92.862714
77.945844
61.459592
44.813542
24.582964
-3.0251171
0.62483058
0.62787969
0.62082025
0.6048133
0.58836159
0.57042159
0.55238021
0.53520873
0.51903114
0.5037996
0.48943314
0.47584913
0.46297005
0.45072792
0.43906424
0.42792855
0.41727733
0.40707289
0.39728236
0.3878769
0.37883101
0.37012199
0.36172953
0.35363531
0.34582276
0.33827679
0.33098361
0.32393057
0.31710601
0.31049916
0.30410002
0.29789931
0.29188836
0.28605909
0.28040389
0.27491566
0.26958769
0.26441367
0.25938764
0.25450396
0.2497573
0.2451426
0.24065505
0.23629009
0.23204337
0.22791075
0.22388829
0.21997222
0.21615895
0.21244508
0.20882749
0.20530321
0.20187112
0.19852116
0.19525609
0.19207365
0.18897061
0.18594374
0.18299113
0.18011059
0.17729996
0.17455716
0.17188091
0.16926667
0.16671524
0.16422283
0.16178966
0.15941184
0.15708937
0.15482051
0.15260317
0.150438
0.14832211
0.14625225
0.14422846
0.14225174
0.14031876
0.13842832
0.13657946
0.13477114
0.13300231
0.13127202
0.12957934
0.12792337
0.1263035
0.12471723
0.12316508
0.12164619
0.12015961
0.11870454
0.11728018
0.11588581
0.11452068
0.11318404
0.11187505
0.11059422
0.10933982
0.10811136
0.10690828
0.10573002
0.10457582
0.10344603
0.10233912
0.10125556
0.10019397
0.099154946
0.098137146
0.097140055
0.09616348
0.095207058
0.094270401
0.09335312
0.09245484
0.091575198
0.090713842
0.089870429
0.089044627
0.08823611
0.087444546
0.086669567
0.085910826
0.085168749
0.084442376
0.083731461
0.083035824
0.082355238
0.081689469
0.081038297
0.080401484
0.079778811
0.079170046
0.078575032
0.077993518
0.077425322
0.076870238
0.076328037
0.07579851
0.075281976
0.074777791
0.074285815
0.073805944
0.073338043
0.072881972
0.072437594
0.072004797
0.071583508
0.071173716
0.070774563
0.070386673
0.070009562
0.069643363
0.069287903
0.068943013
0.068608844
0.068285039
0.06797159
0.067668365
0.067375286
0.067092281
0.066819274
0.066556192
0.066302963
0.066059528
0.06582585
0.065601906
0.065387283
0.065182264
0.064986765
0.0648007
0.064623996
0.064456597
0.064298594
0.064149809
0.06401022
0.063879815
0.063758472
0.063646249
0.063543111
0.063449024
0.063363944
0.063287858
0.063220775
0.063162644
0.063113496
0.063073285
0.063041949
0.063019555
0.063006082
0.063002224
365.79796
365.69824
365.49395
365.18492
364.77102
364.25191
363.62714
362.89615
362.05832
361.11292
360.0591
358.89595
357.62243
356.2374
354.73964
353.12778
351.40036
349.5558
347.5924
345.50834
343.30165
340.97025
338.51189
335.9242
333.20463
330.35048
327.35886
324.22673
320.95082
317.52766
313.95359
310.22466
306.33673
302.28534
298.06576
293.67293
289.10148
284.34562
279.39918
274.25555
268.90759
263.34766
257.56749
251.55813
245.30988
238.81219
232.05354
225.02127
217.7015
210.07879
202.13611
193.85391
185.21197
176.18081
166.74806
156.84373
146.51867
135.57278
124.11349
111.98863
98.94127
85.582166
70.515611
53.960741
38.204939
16.945341
-1.7464661
0.57273249
0.59263636
0.58919532
0.57874837
0.56586242
0.55049607
0.53470228
0.51917359
0.50414272
0.48972506
0.47595066
0.46280729
0.45026457
0.43828548
0.42683199
0.41586757
0.40535838
0.39527353
0.38558507
0.37626774
0.36729873
0.35865739
0.35032497
0.34228441
0.33452009
0.32701774
0.31976419
0.31274733
0.30595593
0.29937959
0.29300863
0.28683401
0.2808473
0.27504059
0.26940647
0.26393796
0.25862848
0.25347184
0.24846216
0.2435939
0.2388618
0.23426087
0.22978636
0.22543377
0.22119879
0.21707734
0.21306549
0.20915953
0.20535588
0.20165112
0.19804191
0.19452497
0.19109667
0.18775727
0.18450162
0.18132689
0.17823155
0.17521069
0.17226397
0.16938932
0.16658438
0.16384702
0.16117579
0.15856596
0.15601731
0.15353058
0.15110114
0.14872941
0.14641209
0.14414773
0.14193503
0.13977288
0.13765958
0.1355937
0.13357378
0.13160034
0.12967061
0.12778361
0.12593921
0.12413249
0.12236574
0.12063792
0.11894774
0.11729421
0.11567669
0.11409273
0.11254278
0.11102604
0.10954156
0.10808849
0.1066661
0.10527363
0.10391041
0.10257571
0.10126889
0.099989274
0.098736228
0.097509071
0.096307198
0.095131027
0.093979356
0.092850793
0.091746153
0.090662682
0.089601723
0.08856369
0.087547169
0.086550924
0.085575307
0.084619914
0.083684274
0.08276798
0.081870655
0.080991937
0.080131475
0.079288927
0.078463962
0.077656259
0.076865503
0.076091404
0.075333658
0.074592062
0.073866258
0.073155992
0.072461002
0.071781045
0.071115883
0.070465315
0.069829077
0.069206896
0.068598516
0.068004169
0.067423232
0.066855533
0.066300934
0.065759269
0.065230357
0.064714087
0.064210235
0.063718648
0.063239169
0.062771648
0.062315941
0.061871901
0.061439387
0.061018234
0.060608302
0.060209811
0.059822335
0.05944568
0.059079853
0.0587248
0.058380491
0.058046236
0.057722471
0.057409269
0.057106286
0.056813429
0.056530632
0.056257823
0.055994927
0.055741872
0.055498585
0.05526498
0.055040986
0.054826712
0.05462193
0.054426593
0.054240666
0.054064103
0.05389686
0.05373892
0.05359021
0.053450684
0.053320304
0.053199105
0.053086989
0.052983935
0.052889924
0.052804906
0.052728886
0.052661836
0.052603742
0.052554602
0.052514388
0.05248309
0.052460713
0.052447284
0.052443373
357.45027
357.35084
357.14716
356.83906
356.42642
355.90888
355.28601
354.55725
353.72198
352.77947
351.72889
350.56932
349.29974
347.91903
346.42594
344.81914
343.09717
341.25848
339.30136
337.224
335.02447
332.70069
330.25045
327.67136
324.96093
322.11647
319.13513
316.01387
312.74947
309.33851
305.77734
302.06208
298.18862
294.15255
289.94921
285.57361
281.02043
276.28398
271.35817
266.23648
260.91191
255.37692
249.62338
243.64252
237.4248
230.95989
224.23647
217.24219
209.96341
202.38507
194.49047
186.26053
177.6753
168.70637
159.34044
149.51049
139.2653
128.4022
117.04833
105.01394
92.087107
78.902138
63.814595
47.50957
32.642948
9.4682823
-0.090693382
0.56668313
0.58513909
0.56717686
0.55632596
0.54441824
0.53070795
0.51653499
0.50232249
0.48833885
0.47474253
0.46161153
0.44897558
0.43683734
0.42518484
0.41399861
0.40325593
0.3929331
0.3830068
0.37345471
0.36425587
0.35539073
0.34684119
0.33859047
0.33062309
0.32292473
0.31548211
0.30828293
0.30131577
0.29456997
0.28803563
0.28170347
0.27556482
0.26961154
0.26383599
0.25823097
0.2527897
0.24750578
0.24237316
0.2373861
0.23253917
0.22782723
0.22324536
0.21878892
0.21445345
0.21023474
0.20612874
0.20213161
0.19823966
0.19444937
0.19075735
0.18716029
0.18365507
0.18023797
0.17690914
0.17366338
0.17049807
0.16741099
0.16439985
0.1614623
0.15859606
0.15579894
0.15306874
0.15040297
0.14780167
0.14526077
0.14278076
0.14035769
0.13799201
0.13568051
0.13342175
0.13121434
0.12905686
0.1269471
0.12488788
0.12287455
0.12090475
0.11897868
0.11709529
0.11525337
0.11345178
0.11168947
0.10996545
0.10827873
0.10662826
0.10501294
0.10343307
0.10188673
0.10037311
0.098891542
0.097441283
0.096021592
0.09463176
0.093271149
0.091939219
0.090635797
0.089357621
0.08810645
0.086881805
0.085683269
0.084507938
0.083357474
0.082230152
0.081126156
0.080045709
0.078987587
0.077950651
0.076935133
0.075940648
0.074966676
0.074012789
0.073078577
0.072163657
0.071267659
0.070390223
0.069531001
0.068689655
0.067865856
0.067059284
0.066269629
0.065496597
0.064739895
0.063999275
0.063274431
0.062565094
0.061871001
0.061191908
0.060527566
0.059877868
0.059242488
0.058621248
0.058014012
0.057420027
0.056839602
0.056272534
0.055718584
0.055177556
0.054649273
0.054133584
0.053630305
0.053139274
0.052660336
0.052193344
0.051738151
0.051294599
0.050862559
0.05044188
0.050032419
0.049634372
0.049247359
0.048871012
0.048505498
0.048150678
0.047806408
0.047472828
0.047149591
0.046836689
0.046533997
0.046241434
0.045958923
0.045686388
0.045423754
0.04517095
0.044927902
0.04469453
0.04447076
0.044256688
0.044052099
0.04385695
0.043671202
0.043494812
0.043327736
0.043169936
0.043021362
0.042881974
0.042751735
0.04263063
0.042518606
0.042415624
0.042321657
0.042236783
0.042160886
0.042093879
0.042035827
0.041986718
0.041946529
0.041915266
0.041892913
0.041879509
0.041875584
349.19994
349.10087
348.89797
348.59103
348.17995
347.66438
347.04388
346.3179
345.48583
344.54693
343.50039
342.3453
341.08065
339.70531
338.21806
336.61758
334.90242
333.07104
331.12176
329.05278
326.86218
324.54792
322.10779
319.53945
316.84042
314.00805
311.03951
307.93182
304.68179
301.28602
297.74094
294.04272
290.18728
286.17032
281.98721
277.63306
273.10264
268.39035
263.49021
258.39584
253.10035
247.59638
241.87597
235.93054
229.75079
223.32662
216.64704
209.7
202.47226
194.9492
187.11462
178.9501
170.43615
161.54587
152.26509
142.53148
132.38959
121.6429
110.4308
98.53978
85.809259
72.863396
57.897862
42.248732
27.108502
0.23718983
0.59711346
0.54042157
0.55288048
0.54297892
0.53370771
0.52278292
0.510622
0.49783211
0.48480647
0.47181459
0.45903218
0.44656469
0.43447063
0.42277761
0.41149389
0.40061599
0.39013362
0.38003271
0.37029738
0.36091109
0.35185739
0.34312026
0.3346844
0.32653529
0.31865924
0.31104341
0.30367573
0.29654489
0.2896403
0.28295202
0.27647072
0.27018762
0.2640945
0.25818357
0.25244751
0.24687941
0.24147273
0.23622127
0.23111918
0.22616088
0.2213411
0.2166548
0.2120972
0.20766375
0.2033501
0.19915211
0.19506582
0.19108745
0.18721337
0.18344013
0.1797644
0.17618307
0.17269317
0.16929251
0.16597566
0.16274165
0.15958794
0.15651041
0.15351237
0.15058683
0.14773141
0.14494451
0.14222429
0.13956877
0.13697658
0.13444597
0.13197345
0.12955922
0.12719974
0.12489487
0.12264311
0.12044274
0.11829238
0.11619058
0.11413607
0.11212758
0.11016366
0.10824316
0.10636489
0.10452746
0.10273141
0.10097426
0.09925502
0.097572845
0.095926858
0.094316135
0.092740029
0.091197468
0.089687634
0.088209745
0.086763041
0.085346782
0.083960251
0.082602758
0.081273599
0.07997215
0.078697703
0.077449674
0.076227375
0.07503012
0.073858158
0.072710079
0.071586132
0.070485134
0.069406668
0.068350308
0.067315351
0.066301258
0.065309452
0.064337729
0.063385781
0.06245339
0.061540222
0.060645917
0.059770119
0.058912483
0.058072673
0.057250363
0.056445235
0.055656982
0.054885309
0.054129929
0.053390577
0.052666966
0.051958825
0.051265884
0.050587857
0.049924451
0.049275942
0.048641641
0.048021393
0.047415098
0.046822045
0.046242519
0.045676319
0.045123212
0.044583002
0.044055512
0.043540581
0.043038036
0.042547719
0.04206948
0.041603169
0.041148648
0.040705709
0.040274289
0.039854279
0.039445574
0.039047771
0.038660955
0.038285305
0.037920382
0.037566066
0.037222268
0.036889128
0.036566329
0.03625382
0.035951515
0.035659329
0.035377181
0.035104995
0.034842696
0.034590215
0.034347485
0.034114455
0.033891075
0.033677162
0.033472774
0.033277851
0.033092328
0.032916154
0.032749282
0.032591672
0.032443277
0.03230406
0.032173983
0.032053018
0.03194113
0.031838293
0.031744482
0.031659646
0.03158379
0.031516886
0.031458921
0.031409881
0.031369754
0.03133852
0.03131619
0.031302797
0.031298865
341.04664
340.94801
340.74603
340.44048
340.03128
339.51807
338.9004
338.17775
337.3495
336.41493
335.37324
334.22351
332.96475
331.59584
330.11559
328.52267
326.81567
324.99304
323.05314
320.99418
318.81428
316.5114
314.08337
311.52789
308.8425
306.02458
303.07137
299.97989
296.74702
293.36943
289.84358
286.16571
282.33182
278.33766
274.17872
269.85018
265.34692
260.66346
255.79396
250.73216
245.47136
240.00437
234.32344
228.42023
222.28572
215.91011
209.28275
202.39202
195.22515
187.76807
180.00525
171.91909
163.49087
154.69552
145.51837
135.90314
125.88845
115.29226
104.25718
92.562099
80.097708
67.435801
52.793558
38.111143
22.719289
-1.1589839
0.52718123
0.52788278
0.5283789
0.52109936
0.51235765
0.50206334
0.49084688
0.47905689
0.46697827
0.45483719
0.44279624
0.43096434
0.41941079
0.40817677
0.39728373
0.38673986
0.37654471
0.36669239
0.35717365
0.34797732
0.3390913
0.33050309
0.32220026
0.31417061
0.30640238
0.29888432
0.29160566
0.28455622
0.27772633
0.27110682
0.26468905
0.25846481
0.25242636
0.24656636
0.24087784
0.23535422
0.22998924
0.22477696
0.21971173
0.21478818
0.2100012
0.20534592
0.20081769
0.19641207
0.19212484
0.18795195
0.18388954
0.1799339
0.17608148
0.17232891
0.16867294
0.16511048
0.16163848
0.15825422
0.15495432
0.15173663
0.1485988
0.14553882
0.14255255
0.13963899
0.13679607
0.13402145
0.13131308
0.12866902
0.1260875
0.12356678
0.12110475
0.11870061
0.11635059
0.11405479
0.1118118
0.10962
0.10747797
0.10538468
0.10333706
0.10133483
0.099378158
0.097464593
0.09559287
0.093761724
0.091971716
0.09022042
0.088506849
0.086830166
0.085189494
0.083583931
0.082012714
0.080474914
0.078969699
0.077496278
0.076053891
0.074641799
0.073259281
0.07190561
0.070580059
0.069281839
0.068011285
0.066766906
0.065548126
0.064354451
0.063185475
0.06204052
0.060919319
0.059821325
0.058745353
0.057691567
0.056659558
0.05564892
0.054658641
0.053688807
0.05273902
0.051808796
0.050897741
0.050005486
0.049131678
0.048275969
0.047438028
0.046617528
0.045814156
0.045027605
0.044257583
0.043503806
0.042766004
0.042043899
0.041337226
0.04064573
0.039969162
0.039307286
0.038659846
0.038026632
0.037407393
0.036801882
0.036210279
0.035632014
0.035066917
0.034514846
0.033975633
0.033449107
0.032935103
0.032433455
0.031944005
0.031466608
0.031001141
0.030547501
0.030105254
0.02967454
0.029255214
0.028847123
0.028450053
0.028063917
0.02768889
0.027324586
0.026970963
0.026628002
0.026295131
0.025972708
0.025660681
0.025358852
0.025067125
0.024785417
0.024513654
0.024251762
0.023999671
0.023757314
0.023524628
0.023301553
0.023087995
0.022883928
0.022689298
0.022504053
0.022328141
0.022161518
0.02200414
0.021855964
0.021716952
0.021587067
0.021466279
0.021354554
0.021251864
0.021158179
0.02107346
0.0209977
0.020930908
0.020873039
0.020824077
0.02078401
0.020752825
0.02073053
0.020717154
0.020713222
332.98995
332.89185
332.69093
332.38701
331.97999
331.46951
330.85515
330.13637
329.31257
328.38304
327.34697
326.20348
324.95157
323.59015
322.11803
320.53391
318.83638
317.02393
315.09493
313.04763
310.88015
308.5905
306.17654
303.636
300.96645
298.16533
295.2299
292.15726
288.94433
285.58783
282.08429
278.43003
274.62113
270.65343
266.52251
262.22366
257.75188
253.10183
248.2678
243.24372
238.02308
232.59888
226.96364
221.10927
215.02706
208.70759
202.14062
195.31499
188.21853
180.83783
173.15813
165.16288
156.83438
148.14962
139.09406
129.61794
119.75413
109.33872
98.512945
87.059413
74.912452
62.57314
48.369544
34.550146
19.701446
-0.35966966
0.52883357
0.51499828
0.50814821
0.50059962
0.49183045
0.48192658
0.47134088
0.46028989
0.44896756
0.43754798
0.42616775
0.41492651
0.40389375
0.39311555
0.38262045
0.37242415
0.36253331
0.35294834
0.34366547
0.3346782
0.32597835
0.3175567
0.30940357
0.30150908
0.29386338
0.28645684
0.27928009
0.27232407
0.26558012
0.25903992
0.25269555
0.24653943
0.24056435
0.23476345
0.22913017
0.22365829
0.21834187
0.21317524
0.208153
0.20327
0.19852133
0.19390229
0.18940839
0.18503533
0.18077902
0.17663552
0.17260106
0.16867204
0.16484502
0.16111666
0.15748381
0.15394341
0.15049251
0.14712834
0.14384798
0.14064892
0.13752874
0.13448503
0.13151554
0.12861798
0.12579016
0.12303
0.12033551
0.11770477
0.11513605
0.11262742
0.11017697
0.10778271
0.10544493
0.10316055
0.10092805
0.098746206
0.096613691
0.094529371
0.09249125
0.090499569
0.088549821
0.086643463
0.084779466
0.082956341
0.081172916
0.07942814
0.077721119
0.076050842
0.07441637
0.072816771
0.071251413
0.069719243
0.068219461
0.066751293
0.065313986
0.063906806
0.062529033
0.061179952
0.059858894
0.058565172
0.057298623
0.056058206
0.054843336
0.053653445
0.052488122
0.051346673
0.050228503
0.049132844
0.048060963
0.047010742
0.045981761
0.044973809
0.04398658
0.043019609
0.042072489
0.041144833
0.040236267
0.039346427
0.038474959
0.037621519
0.036785775
0.035967406
0.0351661
0.034381551
0.033613468
0.032861571
0.032125596
0.031405267
0.030700323
0.030010526
0.029335649
0.02867553
0.028029406
0.027397534
0.026779702
0.026175653
0.025585267
0.025008243
0.024444391
0.02389353
0.023355487
0.022830092
0.02231718
0.021816587
0.021328155
0.020851724
0.020387122
0.019934183
0.01949305
0.019063318
0.01864486
0.018237595
0.017841416
0.017456251
0.017081762
0.016718045
0.016364963
0.016022368
0.015690366
0.015368632
0.015057267
0.014756026
0.01446484
0.014183649
0.013912383
0.013650969
0.013399336
0.013157416
0.012925144
0.012702458
0.012489291
0.012285592
0.012091309
0.011906391
0.011730788
0.011564457
0.011407354
0.011259436
0.011120665
0.010991005
0.010870426
0.010758894
0.01065638
0.010562856
0.010478283
0.010402654
0.010335975
0.010278202
0.010229319
0.010189315
0.01015819
0.010135942
0.010122588
0.010118663
325.0294
324.9319
324.7322
324.43013
324.02559
323.51824
322.90763
322.19326
321.37453
320.45073
319.42107
318.28468
317.04057
315.68767
314.22481
312.6507
310.96395
309.16309
307.2465
305.21245
303.05911
300.78451
298.38655
295.86299
293.21146
290.42943
287.51422
284.46298
281.2727
277.94016
274.46197
270.83452
267.05399
263.11631
259.01718
254.752
250.31591
245.70372
240.9099
235.92854
230.75336
225.37761
219.79405
213.99492
207.97186
201.71584
195.21711
188.46506
181.44815
174.15376
166.56803
158.6756
150.46001
141.9005
132.98324
123.66496
113.97366
103.7645
93.174961
81.997637
70.204718
58.218137
44.522747
31.527578
17.217921
-0.0076387425
0.51151441
0.49856145
0.48873609
0.48085808
0.47190358
0.46221761
0.45206357
0.44156776
0.43085161
0.42004068
0.40924231
0.39854081
0.38799937
0.37766325
0.36756327
0.35771906
0.34814174
0.33883623
0.32980296
0.32103924
0.31254021
0.3042996
0.29631024
0.2885644
0.28105412
0.27377135
0.26670806
0.25985641
0.25320873
0.24675759
0.2404958
0.23441647
0.22851295
0.22277888
0.21720816
0.21179494
0.20653362
0.20141885
0.1964455
0.19160866
0.18690362
0.18232588
0.17787113
0.17353522
0.1693142
0.16520426
0.16120175
0.15730317
0.15350516
0.1498045
0.14619809
0.14268297
0.13925628
0.13591529
0.13265712
0.1294793
0.12637937
0.12335445
0.12040417
0.11752488
0.11471437
0.11197077
0.10929219
0.10667667
0.10412277
0.10162833
0.099191556
0.096810426
0.094485336
0.092213148
0.089992379
0.087821833
0.085700292
0.08362675
0.081598103
0.079614184
0.077675267
0.075779028
0.073924373
0.072111058
0.070334889
0.068597421
0.066897982
0.065235095
0.063607692
0.062014699
0.060456238
0.058930633
0.0574371
0.055974965
0.054543496
0.053141972
0.051769677
0.0504259
0.049109892
0.047820905
0.046559303
0.045323606
0.044113151
0.042927359
0.041766451
0.040629267
0.039515397
0.038424559
0.037355525
0.036308473
0.035282747
0.034277901
0.0332941
0.032330356
0.031386291
0.030461585
0.029555879
0.028668813
0.027800034
0.026949201
0.026115984
0.025300063
0.024501129
0.023718878
0.022953021
0.022203279
0.021469405
0.020751115
0.020048151
0.019360271
0.018687201
0.018028754
0.017384448
0.016754293
0.016138089
0.015535613
0.014946749
0.0143712
0.013808778
0.013259303
0.012722602
0.012198506
0.011686851
0.011187475
0.010700219
0.010224928
0.0097614569
0.0093096667
0.0088695005
0.0084407585
0.0080232503
0.0076169185
0.0072216283
0.006837291
0.0064636849
0.0061007994
0.0057485029
0.0054066767
0.0050754525
0.0047545089
0.0044437331
0.0041430868
0.0038525014
0.0035719003
0.0033012041
0.0030403379
0.0027892302
0.0025478131
0.0023160217
0.0020937937
0.0018810675
0.0016777882
0.0014839027
0.0012993601
0.0011241126
0.00095811525
0.00080133003
0.00065371004
0.00051521663
0.00038581474
0.00026547639
0.00015416644
5.185787e-05
-4.1478998e-05
-0.00012588653
-0.00020136672
-0.00026791396
-0.00032557006
-0.00037435113
-0.00041427014
-0.0004453392
-0.00046755082
-0.00048087878
-0.00048479601
317.16446
317.06762
316.86929
316.5693
316.16754
315.66367
315.05728
314.34785
313.53479
312.61741
311.59493
310.46649
309.23112
307.88776
306.43526
304.87236
303.19769
301.40979
299.50709
297.48788
295.35036
293.09259
290.71253
288.20796
285.57658
282.8159
279.92329
276.89598
273.731
270.42522
266.97534
263.37783
259.62896
255.72479
251.66111
247.43349
243.03719
238.46719
233.71814
228.78437
223.65978
218.33791
212.81183
207.07409
201.11674
194.93119
188.5082
181.83778
174.90908
167.71035
160.22877
152.45021
144.35969
135.93875
127.17472
118.03044
108.53038
98.547565
88.215328
77.338596
65.921551
54.309457
41.150552
28.885176
15.057584
0.14339615
0.49092273
0.48129592
0.46933623
0.4613418
0.45228752
0.44276137
0.43293387
0.42287597
0.41265818
0.40236685
0.39208231
0.38187206
0.37178996
0.36187707
0.35216334
0.34266956
0.3334092
0.32439002
0.31561547
0.30708577
0.2987988
0.29075078
0.28293676
0.27535098
0.2679872
0.26083888
0.25389935
0.24716188
0.24061983
0.23426665
0.22809592
0.22210142
0.2162771
0.21061713
0.20511586
0.19976785
0.19456788
0.1895109
0.18459208
0.17980676
0.17515047
0.17061892
0.16620797
0.16191365
0.15773217
0.15365984
0.14969315
0.14582871
0.14206327
0.13839368
0.13481697
0.13133025
0.12793081
0.12461601
0.12138268
0.11822882
0.11515215
0.11215088
0.10922067
0.1063608
0.1035695
0.10084451
0.098183772
0.095584989
0.093048031
0.090569895
0.088148893
0.085783939
0.083472139
0.081213018
0.079005253
0.076847237
0.074737841
0.072675486
0.07065877
0.068686253
0.066758147
0.064872123
0.06302708
0.061222139
0.059456083
0.057727836
0.056037455
0.054383176
0.052764146
0.051179849
0.049628213
0.048109453
0.046622847
0.045167494
0.043742608
0.042347472
0.040981389
0.03964371
0.038333587
0.037050578
0.035794037
0.034563411
0.033358274
0.032178389
0.03102136
0.029888298
0.028778773
0.02769224
0.026627436
0.025584699
0.024562916
0.023562288
0.022581672
0.02162122
0.020680531
0.019759144
0.018856665
0.017972729
0.017106987
0.016259097
0.015428733
0.014615576
0.01381932
0.01303966
0.012276308
0.011528973
0.01079749
0.010081505
0.0093807737
0.0086950786
0.008024079
0.0073677233
0.0067252954
0.0060970047
0.0054826106
0.0048818282
0.0042947718
0.0037209276
0.003160122
0.0026122089
0.0020770215
0.0015543911
0.0010441577
0.00054615675
6.0231447e-05
-0.0004137691
-0.00087598694
-0.0013265526
-0.0017655562
-0.0021931179
-0.0026095894
-0.003014874
-0.0034091539
-0.0037924693
-0.0041651466
-0.0045271012
-0.0048784367
-0.0052192252
-0.0055497086
-0.005869769
-0.0061799735
-0.006479973
-0.0067698789
-0.0070498115
-0.0073198627
-0.0075801094
-0.0078306229
-0.0080714711
-0.0083027184
-0.0085244269
-0.0087366566
-0.0089394632
-0.0091329
-0.0093170181
-0.009491866
-0.0096574903
-0.0098139109
-0.0099611931
-0.010099374
-0.010228489
-0.010348551
-0.010459612
-0.010561706
-0.010654858
-0.010739038
-0.010814321
-0.010880727
-0.010938265
-0.010986939
-0.01102677
-0.011057773
-0.011079938
-0.011093234
-0.011097141
309.39452
309.29842
309.1016
308.8039
308.40521
307.90521
307.30347
306.59951
305.79272
304.88243
303.86789
302.74824
301.52252
300.18971
298.74866
297.19814
295.53682
293.76324
291.87588
289.87305
287.753
285.51383
283.15352
280.66993
278.06078
275.32365
272.45597
269.45504
266.31796
263.04169
259.623
256.05847
252.34448
248.47719
244.45254
240.26623
235.91368
231.39006
226.69022
221.80869
216.73964
211.47689
206.01382
200.34336
194.45796
188.34952
182.00936
175.42813
168.59576
161.50139
154.13329
146.4787
138.52415
130.25349
121.65556
112.69865
103.40511
93.663522
83.603662
73.042551
62.011324
50.784459
38.15377
26.546855
13.172507
0.23001686
0.46890521
0.46302229
0.44978873