/*--------------------------------*- C++ -*----------------------------------*\
| =========                 |                                                 |
| \\      /  F ield         | OpenFOAM: The Open Source CFD Toolbox           |
|  \\    /   O peration     | Version:  2106                                  |
|   \\  /    A nd           | Website:  www.openfoam.com                      |
|    \\/     M anipulation  |                                                 |
\*---------------------------------------------------------------------------*/
FoamFile
{
    version     2.0;
    format      ascii;
    arch        "LSB;label=32;scalar=64";
    class       volVectorField;
    location    "0.015";
    object      U_0;
}
// * * * * * * * * * * * * * * * * * * * * * * * * * * * * * * * * * * * * * //

dimensions      [0 1 -1 0 0 0 0];

internalField   nonuniform List<vector> 
32768
(
(0.00088016204 -0.00088211584 0)
(0.0026809172 -0.00089179261 0)
(0.0044883868 -0.00089350612 0)
(0.0063021218 -0.00089592303 0)
(0.0081205355 -0.00089895602 0)
(0.0099457006 -0.00090268516 0)
(0.011779173 -0.00090715989 0)
(0.01362246 -0.00091239825 0)
(0.015477127 -0.00091841656 0)
(0.017344771 -0.00092523114 0)
(0.01922702 -0.00093285933 0)
(0.02112554 -0.00094132031 0)
(0.023042037 -0.00095063549 0)
(0.024978263 -0.00096082875 0)
(0.02693602 -0.0009719267 0)
(0.028917166 -0.00098395885 0)
(0.030923625 -0.00099695794 0)
(0.032957387 -0.0010109602 0)
(0.035020519 -0.0010260056 0)
(0.037115175 -0.0010421383 0)
(0.0392436 -0.0010594071 0)
(0.041408144 -0.0010778657 0)
(0.043611269 -0.0010975736 0)
(0.045855564 -0.0011185963 0)
(0.048143756 -0.0011410061 0)
(0.050478726 -0.0011648834 0)
(0.052863524 -0.0011903168 0)
(0.055301388 -0.0012174048 0)
(0.057795765 -0.0012462569 0)
(0.060350334 -0.0012769949 0)
(0.062969031 -0.0013097548 0)
(0.065656083 -0.0013446884 0)
(0.068416037 -0.0013819662 0)
(0.071253804 -0.0014217796 0)
(0.074174702 -0.0014643447 0)
(0.077184507 -0.0015099054 0)
(0.080289517 -0.0015587388 0)
(0.083496621 -0.0016111606 0)
(0.08681338 -0.0016675315 0)
(0.090248127 -0.0017282658 0)
(0.093810082 -0.0017938416 0)
(0.097509488 -0.0018648129 0)
(0.10135778 -0.0019418255 0)
(0.10536777 -0.0020256362 0)
(0.10955391 -0.0021171376 0)
(0.11393256 -0.0022173892 0)
(0.11852238 -0.0023276579 0)
(0.12334475 -0.0024494693 0)
(0.12842437 -0.0025846795 0)
(0.1337899 -0.0027355475 0)
(0.13947509 -0.0029049473 0)
(0.14551904 -0.0030960816 0)
(0.15197136 -0.0033146717 0)
(0.15887975 -0.0035613366 0)
(0.16634054 -0.0038601791 0)
(0.17435806 -0.0041713674 0)
(0.18322212 -0.0046306274 0)
(0.19273077 -0.0050288469 0)
(0.20349152 -0.0056862371 0)
(0.21534351 -0.0064787493 0)
(0.22859146 -0.0071078874 0)
(0.24430179 -0.0088546399 0)
(0.26182068 -0.009791426 0)
(0.28205073 -0.011340752 0)
(0.30770974 -0.014258719 0)
(0.33648039 -0.013899428 0)
(0.36468328 -0.014532531 0)
(0.39140117 -0.021278684 0)
(0.45140103 -0.027464305 0)
(0.3909376 0.026837318 0)
(0.31377647 0.037669618 0)
(0.26071149 0.027229506 0)
(0.22389898 0.016506668 0)
(0.1991088 0.010103577 0)
(0.18177872 0.0068495125 0)
(0.16834695 0.0051466779 0)
(0.15751162 0.0041418411 0)
(0.14838862 0.003488556 0)
(0.14048698 0.0030291222 0)
(0.13351037 0.0026850341 0)
(0.12725971 0.0024152681 0)
(0.12159573 0.0021962593 0)
(0.11641922 0.0020136662 0)
(0.11165495 0.0018584265 0)
(0.10724465 0.0017244465 0)
(0.10314213 0.0016074147 0)
(0.099310014 0.001504162 0)
(0.095717619 0.0014122898 0)
(0.092339393 0.0013299403 0)
(0.089153812 0.001255648 0)
(0.086142565 0.0011882394 0)
(0.083289932 0.0011267624 0)
(0.080582309 0.0010704364 0)
(0.078007836 0.0010186147 0)
(0.075556108 0.0009707571 0)
(0.073217938 0.00092640852 0)
(0.070985168 0.00088518309 0)
(0.068850519 0.00084675128 0)
(0.066807463 0.00081083001 0)
(0.064850121 0.00077717468 0)
(0.062973174 0.00074557287 0)
(0.061171793 0.00071583911 0)
(0.059441574 0.00068781076 0)
(0.057778494 0.00066134456 0)
(0.056178858 0.00063631375 0)
(0.054639268 0.00061260576 0)
(0.053156587 0.00059012024 0)
(0.051727912 0.0005687674 0)
(0.05035055 0.00054846665 0)
(0.049021997 0.00052914547 0)
(0.04773992 0.0005107385 0)
(0.046502137 0.00049318697 0)
(0.045306609 0.00047643866 0)
(0.044151418 0.00046044935 0)
(0.04303476 0.00044518866 0)
(0.041954933 0.00043065741 0)
(0.040910337 0.00041691959 0)
(0.039899367 0.00040410975 0)
(0.038921828 0.00039130202 0)
(0.037974169 0.00031783244 0)
(0.037054693 0.00035699283 0)
(0.036165764 0.00035450444 0)
(0.035304672 0.00034417657 0)
(0.034469912 0.00033323825 0)
(0.03366061 0.0003231812 0)
(0.032875158 0.00031365262 0)
(0.032112709 0.0003045133 0)
(0.031372672 0.00029591044 0)
(0.030654879 0.00028846519 0)
(0.029956395 0.00028341923 0)
(0.029277614 0.00027294435 0)
(0.028622159 0.00026201153 0)
(0.02798659 0.00025037127 0)
(0.027360558 0.00023902577 0)
(0.026750237 0.00023432799 0)
(0.026163671 0.00023134753 0)
(0.025592927 0.00022709037 0)
(0.025040646 0.00025975386 0)
(0.024503842 0.0002178729 0)
(0.023972822 0.00024430281 0)
(0.023454285 0.00020650077 0)
(0.022956789 0.00023487184 0)
(0.022474223 0.00019809617 0)
(0.022000341 0.00018933111 0)
(0.021538778 0.00018516154 0)
(0.021087232 0.000182734 0)
(0.020646454 0.00017659918 0)
(0.020218759 0.00017124691 0)
(0.019801917 0.00016683744 0)
(0.019395004 0.0001629547 0)
(0.018998217 0.00015985973 0)
(0.018609803 0.00015801957 0)
(0.018230273 0.00015275138 0)
(0.017860916 0.00014813826 0)
(0.017500107 0.00014436292 0)
(0.017147391 0.00014095101 0)
(0.01680268 0.00013773663 0)
(0.016465704 0.00013470695 0)
(0.016136078 0.00013193686 0)
(0.015813128 0.0001296023 0)
(0.015496909 0.00012682789 0)
(0.015191051 0.000100327 0)
(0.0148924 0.00011986479 0)
(0.014596522 0.00011872169 0)
(0.014306567 0.00011415474 0)
(0.014022367 8.8774196e-05 0)
(0.013743752 0.00010958822 0)
(0.013474933 0.00011201075 0)
(0.01321172 0.00011055768 0)
(0.012950371 0.00012770499 0)
(0.012693949 0.00010419088 0)
(0.012443452 9.771712e-05 0)
(0.01219873 9.6598659e-05 0)
(0.011957998 9.5490819e-05 0)
(0.011721892 9.4070076e-05 0)
(0.011490117 9.2479115e-05 0)
(0.011262537 9.0831061e-05 0)
(0.011039091 8.9191426e-05 0)
(0.010819677 8.758704e-05 0)
(0.010604174 8.6027743e-05 0)
(0.010392459 8.4515703e-05 0)
(0.010184412 8.3049831e-05 0)
(0.0099799155 8.1625832e-05 0)
(0.0097788496 8.0233037e-05 0)
(0.0095810926 7.8851625e-05 0)
(0.0093866106 7.7497228e-05 0)
(0.009194881 7.7023354e-05 0)
(0.0090073502 8.9558133e-05 0)
(0.0088229949 7.5194964e-05 0)
(0.0086402804 7.2754908e-05 0)
(0.008460567 7.163709e-05 0)
(0.008283582 7.0602478e-05 0)
(0.008109233 6.957922e-05 0)
(0.0079374324 6.8573567e-05 0)
(0.0077681117 6.758417e-05 0)
(0.0076012071 6.6627804e-05 0)
(0.0074366232 6.5719082e-05 0)
(0.0072742167 6.4853541e-05 0)
(0.0071139825 6.3950954e-05 0)
(0.0069559303 6.3073671e-05 0)
(0.0067999237 6.2219166e-05 0)
(0.006645921 6.1395966e-05 0)
(0.0064935774 6.1239675e-05 0)
(0.0063438958 7.0145001e-05 0)
(0.0061961285 6.0061562e-05 0)
(0.0060492659 5.8501411e-05 0)
(0.0059042714 5.7823618e-05 0)
(0.0057609395 5.7194882e-05 0)
(0.0056192333 5.6572829e-05 0)
(0.0054790978 5.5973485e-05 0)
(0.0053404763 5.5416646e-05 0)
(0.0052032889 5.4892188e-05 0)
(0.0050677101 5.3896199e-05 0)
(0.0049331085 4.585513e-05 0)
(0.0047999489 5.2195074e-05 0)
(0.004667905 4.5197441e-05 0)
(0.004536817 5.1695174e-05 0)
(0.0044072872 5.2034813e-05 0)
(0.0042786486 5.2041166e-05 0)
(0.0041525503 5.1750525e-05 0)
(0.0040275461 5.0792841e-05 0)
(0.0039015922 5.52388e-05 0)
(0.0037767259 4.9265092e-05 0)
(0.0036536394 4.8874739e-05 0)
(0.0035315607 4.8714116e-05 0)
(0.0034102173 4.8456888e-05 0)
(0.0032896762 4.815863e-05 0)
(0.0031699422 4.7855147e-05 0)
(0.0030509913 4.756445e-05 0)
(0.0029327748 4.7277377e-05 0)
(0.0028153798 4.6684382e-05 0)
(0.0026984546 4.227328e-05 0)
(0.0025821755 4.6094267e-05 0)
(0.002466734 4.6212464e-05 0)
(0.0023517732 4.5973721e-05 0)
(0.002237388 4.5738011e-05 0)
(0.0021234647 4.5749853e-05 0)
(0.0020103089 4.8583175e-05 0)
(0.0018976695 4.5341883e-05 0)
(0.0017852847 4.4818331e-05 0)
(0.0016734298 4.4424918e-05 0)
(0.0015614828 4.4116577e-05 0)
(0.0014499151 4.414287e-05 0)
(0.0013391758 4.4265922e-05 0)
(0.0012286589 4.4449429e-05 0)
(0.0011183748 4.6209001e-05 0)
(0.0010083089 4.4299463e-05 0)
(0.00089866364 4.26493e-05 0)
(0.00078924312 4.3978157e-05 0)
(0.0006798695 4.4940742e-05 0)
(0.00057069978 4.3750297e-05 0)
(0.00046147039 4.3536391e-05 0)
(0.00035243596 4.3447132e-05 0)
(0.00024387749 4.3615028e-05 0)
(0.00013426842 4.2331321e-05 0)
(3.5024706e-05 3.4935896e-05 0)
(0.00088906577 -0.002678441 0)
(0.0027241547 -0.0027291104 0)
(0.0045651352 -0.0027343855 0)
(0.0064117464 -0.0027413616 0)
(0.0082629134 -0.0027504677 0)
(0.010120881 -0.0027618026 0)
(0.011987215 -0.0027754384 0)
(0.013863492 -0.0027914169 0)
(0.015751307 -0.0028097812 0)
(0.017652286 -0.0028305784 0)
(0.019568081 -0.0028538599 0)
(0.021500383 -0.0028796838 0)
(0.023450923 -0.0029081148 0)
(0.025421479 -0.0029392254 0)
(0.027413877 -0.0029730962 0)
(0.029430003 -0.003009817 0)
(0.031471803 -0.003049487 0)
(0.033541296 -0.0030922161 0)
(0.035640577 -0.0031381256 0)
(0.037771823 -0.0031873496 0)
(0.03993731 -0.0032400358 0)
(0.042139414 -0.0032963472 0)
(0.044380625 -0.0033564637 0)
(0.046663562 -0.0034205839 0)
(0.04899098 -0.003488927 0)
(0.051365788 -0.0035617356 0)
(0.053791065 -0.0036392783 0)
(0.056270078 -0.0037218528 0)
(0.058806302 -0.0038097897 0)
(0.061403445 -0.003903457 0)
(0.064065469 -0.0040032646 0)
(0.066796625 -0.0041096711 0)
(0.069601486 -0.0042231895 0)
(0.072484982 -0.0043443964 0)
(0.075452446 -0.004473941 0)
(0.078509669 -0.0046125569 0)
(0.081662952 -0.0047610753 0)
(0.084919178 -0.0049204419 0)
(0.088285894 -0.0050917365 0)
(0.091771399 -0.0052761972 0)
(0.095384861 -0.0054752494 0)
(0.099136443 -0.0056905426 0)
(0.10303746 -0.0059239949 0)
(0.10710056 -0.0061778485 0)
(0.11133997 -0.0064547407 0)
(0.11577173 -0.0067577919 0)
(0.12041406 -0.0070907195 0)
(0.12528775 -0.0074579826 0)
(0.1304167 -0.0078649753 0)
(0.13582835 -0.0083182459 0)
(0.14155548 -0.0088259651 0)
(0.14763237 -0.0093976121 0)
(0.15411725 -0.010048003 0)
(0.16100981 -0.01078325 0)
(0.1685526 -0.011658725 0)
(0.1762723 -0.01259001 0)
(0.18569109 -0.013898523 0)
(0.1937019 -0.015088735 0)
(0.20649747 -0.01682497 0)
(0.21521027 -0.01930027 0)
(0.2305603 -0.020732248 0)
(0.2446825 -0.02577504 0)
(0.25966832 -0.02781214 0)
(0.28086721 -0.032690345 0)
(0.30656483 -0.043648989 0)
(0.33235434 -0.045228212 0)
(0.36272839 -0.049865611 0)
(0.39451786 -0.058555839 0)
(0.41926812 0.042910154 0)
(0.335875 0.096249924 0)
(0.30800224 0.089937792 0)
(0.28157577 0.063018613 0)
(0.25929246 0.043438043 0)
(0.24002504 0.031238946 0)
(0.22324801 0.023711231 0)
(0.2087542 0.019001018 0)
(0.19620985 0.015849675 0)
(0.18527242 0.013608577 0)
(0.17562569 0.011933319 0)
(0.16702027 0.010630043 0)
(0.15926625 0.0095844463 0)
(0.15221886 0.0087245907 0)
(0.14576629 0.0080030404 0)
(0.13982098 0.0073876056 0)
(0.1343134 0.0068556045 0)
(0.12918763 0.0063905295 0)
(0.12439804 0.005980045 0)
(0.11990689 0.0056147262 0)
(0.11568269 0.0052872362 0)
(0.11169879 0.0049917708 0)
(0.1079325 0.0047236747 0)
(0.10436431 0.0044791684 0)
(0.10097729 0.0042551505 0)
(0.09775668 0.0040490512 0)
(0.094689525 0.0038587232 0)
(0.091764364 0.0036823577 0)
(0.088971021 0.0035184204 0)
(0.086300409 0.0033656007 0)
(0.083744375 0.0032227728 0)
(0.08129557 0.0030889637 0)
(0.078947348 0.0029633282 0)
(0.076693668 0.0028451284 0)
(0.074529025 0.0027337171 0)
(0.072448383 0.0026285239 0)
(0.070447121 0.0025290444 0)
(0.068520983 0.0024348302 0)
(0.066666044 0.0023454819 0)
(0.06487867 0.0022606417 0)
(0.063155489 0.0021799886 0)
(0.061493367 0.0021032335 0)
(0.059889382 0.002030115 0)
(0.058340805 0.0019603966 0)
(0.056845085 0.0018938636 0)
(0.055399834 0.0018303194 0)
(0.054002822 0.0017695781 0)
(0.052652001 0.0017114461 0)
(0.051345622 0.0016556343 0)
(0.050082443 0.0016015919 0)
(0.048862193 0.001546603 0)
(0.047671453 0.0015668181 0)
(0.046515494 0.0014634827 0)
(0.045404776 0.001410064 0)
(0.044328502 0.00136629 0)
(0.043284998 0.0013238259 0)
(0.042273074 0.0012849039 0)
(0.041290114 0.0012472765 0)
(0.040336115 0.001210376 0)
(0.03941077 0.001174219 0)
(0.038514791 0.0011383 0)
(0.037636837 0.0011062246 0)
(0.036780795 0.0010720718 0)
(0.035958768 0.0010385602 0)
(0.03515719 0.0010100489 0)
(0.034383303 0.0010314578 0)
(0.033633302 0.00096412822 0)
(0.032893257 0.0009345315 0)
(0.032171166 0.00090971933 0)
(0.031477075 0.00083653307 0)
(0.030801179 0.00085191845 0)
(0.030143161 0.00083267982 0)
(0.029503091 0.00081309705 0)
(0.028878002 0.00075111395 0)
(0.028271951 0.00076906404 0)
(0.027676323 0.00075404528 0)
(0.027098294 0.00073417787 0)
(0.026529366 0.00071883363 0)
(0.025974016 0.00069765342 0)
(0.025439457 0.00068022614 0)
(0.02491786 0.00066379356 0)
(0.02440875 0.00064750925 0)
(0.023912795 0.00063100456 0)
(0.023423573 0.00061674535 0)
(0.022945172 0.00060128844 0)
(0.02248308 0.00058820477 0)
(0.022031298 0.00057514397 0)
(0.021589238 0.00056223736 0)
(0.021157013 0.00054960941 0)
(0.020734544 0.00053736794 0)
(0.020321734 0.00052563811 0)
(0.019918416 0.00051467997 0)
(0.019525221 0.00050533173 0)
(0.019135466 0.00049628824 0)
(0.018753444 0.00048445182 0)
(0.018384927 0.00047226876 0)
(0.018023653 0.00046328771 0)
(0.01766959 0.00047947059 0)
(0.017323657 0.00044694066 0)
(0.016980451 0.00041175252 0)
(0.016643479 0.00042332457 0)
(0.016316893 0.00039485941 0)
(0.015995338 0.00040746571 0)
(0.015683764 0.00040117433 0)
(0.015378375 0.00039380962 0)
(0.015075325 0.000385149 0)
(0.014778103 0.00037778427 0)
(0.014486396 0.00037079808 0)
(0.014200163 0.00036399166 0)
(0.013919189 0.00035738095 0)
(0.013643293 0.00035097356 0)
(0.0133723 0.0003447688 0)
(0.013106048 0.00033876239 0)
(0.012844381 0.00033295109 0)
(0.012587141 0.00032733584 0)
(0.012334158 0.000321927 0)
(0.012085205 0.0003167609 0)
(0.011840038 0.00031186225 0)
(0.0115983 0.00030620308 0)
(0.011363353 0.00028473912 0)
(0.01113242 0.00029569953 0)
(0.010902074 0.00029267367 0)
(0.010675384 0.00028811494 0)
(0.010452381 0.00028368636 0)
(0.010232805 0.00027947621 0)
(0.010016435 0.00027542642 0)
(0.0098031854 0.00027146182 0)
(0.0095929883 0.00026762957 0)
(0.0093857167 0.00026398053 0)
(0.0091810838 0.00026056735 0)
(0.0089791579 0.00025697303 0)
(0.0087800232 0.00025360428 0)
(0.0085833615 0.00025045043 0)
(0.0083889818 0.00024747667 0)
(0.0081966682 0.00024386496 0)
(0.0080087579 0.00022930452 0)
(0.0078232688 0.0002375671 0)
(0.0076378751 0.00023579049 0)
(0.0074547618 0.00023297668 0)
(0.0072739365 0.00023024368 0)
(0.0070952444 0.00022763783 0)
(0.0069185676 0.00022512734 0)
(0.0067438569 0.00022267929 0)
(0.0065711463 0.00022023743 0)
(0.0064004109 0.00021822886 0)
(0.0062302878 0.00022426699 0)
(0.0060619522 0.00021454091 0)
(0.0058950585 0.00022055979 0)
(0.0057296759 0.00021063157 0)
(0.0055670819 0.00020831771 0)
(0.0054057603 0.00020645747 0)
(0.0052440489 0.0001978437 0)
(0.0050830323 0.00020264473 0)
(0.0049274595 0.00020071441 0)
(0.004773027 0.00019960879 0)
(0.0046167749 0.00019832122 0)
(0.0044619762 0.00019690106 0)
(0.0043085449 0.0001955003 0)
(0.0041563132 0.00019414916 0)
(0.0040051604 0.00019284757 0)
(0.0038550335 0.00019158498 0)
(0.0037059117 0.00019035269 0)
(0.0035577663 0.00018945899 0)
(0.0034099355 0.00019297311 0)
(0.0032629268 0.00018742388 0)
(0.003117231 0.00018616173 0)
(0.0029721638 0.00018530754 0)
(0.002827682 0.00018449338 0)
(0.0026837501 0.00018341416 0)
(0.0025410479 0.00017896156 0)
(0.0023989367 0.00018178844 0)
(0.0022567153 0.00018131667 0)
(0.0021149809 0.00018068522 0)
(0.0019743656 0.00018259447 0)
(0.0018342683 0.00017948991 0)
(0.0016940497 0.00017886721 0)
(0.0015543164 0.00017825837 0)
(0.0014150499 0.0001759442 0)
(0.0012761887 0.0001776082 0)
(0.0011372767 0.00017754096 0)
(0.00099861235 0.00017705854 0)
(0.00086066765 0.0001753932 0)
(0.00072283614 0.00017633012 0)
(0.00058502896 0.00017698013 0)
(0.00044728437 0.00017589371 0)
(0.00030963041 0.00017531124 0)
(0.0001714002 0.00017127896 0)
(4.2373914e-05 0.0001343688 0)
(0.00088796997 -0.0044799315 0)
(0.0027203486 -0.0045665448 0)
(0.0045578654 -0.0045747951 0)
(0.0064014808 -0.0045860494 0)
(0.0082496898 -0.0046011032 0)
(0.010104671 -0.0046199809 0)
(0.011967972 -0.0046427285 0)
(0.013841163 -0.0046694016 0)
(0.015725834 -0.0047000651 0)
(0.0176236 -0.0047347934 0)
(0.019536108 -0.0047736713 0)
(0.021465039 -0.0048167944 0)
(0.023412112 -0.0048642702 0)
(0.025379095 -0.0049162189 0)
(0.027367803 -0.0049727747 0)
(0.029380107 -0.0050340864 0)
(0.031417942 -0.0051003191 0)
(0.033483309 -0.0051716551 0)
(0.035578287 -0.005248296 0)
(0.037705036 -0.0053304642 0)
(0.039865811 -0.005418405 0)
(0.042062965 -0.0055123888 0)
(0.044298965 -0.005612714 0)
(0.046576402 -0.0057197097 0)
(0.048898 -0.0058337396 0)
(0.051266635 -0.0059552056 0)
(0.053685348 -0.0060845522 0)
(0.056157363 -0.0062222725 0)
(0.058686107 -0.0063689135 0)
(0.061275232 -0.0065250835 0)
(0.063928638 -0.0066914604 0)
(0.066650507 -0.006868801 0)
(0.069445329 -0.0070579525 0)
(0.072317941 -0.0072598657 0)
(0.075273569 -0.0074756104 0)
(0.078317878 -0.007706394 0)
(0.081457024 -0.0079535838 0)
(0.084697721 -0.0082187333 0)
(0.088047315 -0.0085036142 0)
(0.091513871 -0.008810255 0)
(0.095106274 -0.009140988 0)
(0.098834354 -0.0094985072 0)
(0.10270902 -0.0098859394 0)
(0.10674244 -0.010306933 0)
(0.11094823 -0.010765767 0)
(0.11534172 -0.011267495 0)
(0.11994021 -0.011818116 0)
(0.12476337 -0.012424807 0)
(0.12983367 -0.013096211 0)
(0.13517677 -0.013842822 0)
(0.14082315 -0.014677455 0)
(0.14680424 -0.015616042 0)
(0.15317394 -0.016677872 0)
(0.1599287 -0.017889269 0)
(0.16729804 -0.019276834 0)
(0.17481073 -0.020895678 0)
(0.18396663 -0.022763782 0)
(0.19160123 -0.025058504 0)
(0.20409495 -0.027482314 0)
(0.21204398 -0.031327588 0)
(0.22689154 -0.034450422 0)
(0.24011692 -0.040411337 0)
(0.25325114 -0.046172588 0)
(0.27442747 -0.054140918 0)
(0.29663436 -0.067601494 0)
(0.31356705 -0.07742732 0)
(0.34367052 -0.090244808 0)
(0.38432832 -0.045871161 0)
(0.32235218 0.053461388 0)
(0.29862122 0.11130877 0)
(0.28996988 0.10489054 0)
(0.270712 0.079165818 0)
(0.2540518 0.06039941 0)
(0.23759997 0.047544459 0)
(0.22248098 0.038559609 0)
(0.20908748 0.032132951 0)
(0.19726189 0.02741429 0)
(0.18676492 0.023845241 0)
(0.17737979 0.021068495 0)
(0.16892378 0.018853005 0)
(0.16124813 0.01704609 0)
(0.15423362 0.015544223 0)
(0.14778462 0.014275406 0)
(0.14182396 0.013188407 0)
(0.13628886 0.012245935 0)
(0.13112778 0.011420258 0)
(0.12629799 0.01069034 0)
(0.12176372 0.010039946 0)
(0.11749477 0.0094563444 0)
(0.11346543 0.0089294092 0)
(0.10965363 0.0084509872 0)
(0.10604028 0.0080144382 0)
(0.10260877 0.0076142996 0)
(0.099344533 0.0072460367 0)
(0.09623475 0.006905853 0)
(0.093268052 0.0065905465 0)
(0.090434312 0.0062973972 0)
(0.087724472 0.0060240798 0)
(0.085130387 0.0057685944 0)
(0.082644704 0.0055292115 0)
(0.080260761 0.0053044275 0)
(0.077972498 0.0050929288 0)
(0.075774384 0.0048935625 0)
(0.073661352 0.0047053122 0)
(0.07162875 0.0045272782 0)
(0.069672291 0.0043586611 0)
(0.067788015 0.0041987477 0)
(0.065972256 0.0040468994 0)
(0.064221608 0.0039025428 0)
(0.062532905 0.003765161 0)
(0.060903191 0.0036342868 0)
(0.059329706 0.0035094967 0)
(0.057809865 0.0033904057 0)
(0.056341237 0.0032766629 0)
(0.05492151 0.0031679468 0)
(0.053548444 0.0030639587 0)
(0.052219409 0.0029644204 0)
(0.050931765 0.0028690883 0)
(0.049676022 0.0027775424 0)
(0.048480143 0.0026916351 0)
(0.047330911 0.0026068709 0)
(0.0461951 0.0025260186 0)
(0.045092263 0.0024477619 0)
(0.044029852 0.0023687205 0)
(0.043002297 0.0023001407 0)
(0.042001825 0.0022335171 0)
(0.041030437 0.0021676259 0)
(0.040087264 0.0021032043 0)
(0.039167643 0.0020403233 0)
(0.038283716 0.0020372327 0)
(0.037425997 0.001936826 0)
(0.03658839 0.0018761809 0)
(0.03577352 0.001826781 0)
(0.034983946 0.0017261398 0)
(0.034219925 0.0017188728 0)
(0.033469688 0.0016778385 0)
(0.03274265 0.0016344856 0)
(0.032029347 0.0015896816 0)
(0.031331423 0.0015508201 0)
(0.030667798 0.001507997 0)
(0.030025789 0.0014712146 0)
(0.029383034 0.0014322094 0)
(0.028755373 0.001392679 0)
(0.028153138 0.0013522354 0)
(0.027565468 0.0013144813 0)
(0.026993475 0.0013193392 0)
(0.026435883 0.0012523618 0)
(0.025890062 0.0012186263 0)
(0.025357267 0.0011894293 0)
(0.024836968 0.0011605626 0)
(0.024327298 0.001132666 0)
(0.023836184 0.0011388042 0)
(0.023358259 0.0010831253 0)
(0.022884942 0.0010549805 0)
(0.022423038 0.0010309165 0)
(0.021972491 0.0010075909 0)
(0.021532559 0.00098481085 0)
(0.021102735 0.00096260619 0)
(0.020682794 0.00094092175 0)
(0.020272567 0.00091959791 0)
(0.019872789 0.00089854698 0)
(0.019476362 0.00088018145 0)
(0.01908781 0.00086028951 0)
(0.018713073 0.0008426577 0)
(0.018345834 0.00082429607 0)
(0.017985358 0.00078320671 0)
(0.017633205 0.00078847607 0)
(0.01728537 0.00079842439 0)
(0.016944692 0.00076207363 0)
(0.016612378 0.00076789426 0)
(0.016286518 0.00073313404 0)
(0.015964823 0.00069596359 0)
(0.015648246 0.00070218567 0)
(0.015343085 0.00068910502 0)
(0.015043124 0.00067712199 0)
(0.014746843 0.00066499677 0)
(0.014455754 0.00065283536 0)
(0.014169918 0.00064098281 0)
(0.013889231 0.00062950253 0)
(0.013613523 0.00061839167 0)
(0.013342633 0.00060763826 0)
(0.013076413 0.00059723288 0)
(0.012814725 0.00058717402 0)
(0.012557455 0.00057747579 0)
(0.012304558 0.00056818739 0)
(0.012056102 0.00055941055 0)
(0.011812204 0.00055118403 0)
(0.011569584 0.00054194026 0)
(0.011330573 0.00053411611 0)
(0.011097882 0.00052527534 0)
(0.010868362 0.00051689695 0)
(0.010641914 0.00050901248 0)
(0.010418633 0.00050151853 0)
(0.010198445 0.00049431213 0)
(0.0099813968 0.00048717551 0)
(0.0097675221 0.00048029676 0)
(0.0095567678 0.00047394272 0)
(0.0093483036 0.00046832981 0)
(0.009142595 0.0004614323 0)
(0.0089401904 0.00045518324 0)
(0.0087403659 0.00044949577 0)
(0.0085432446 0.00044419538 0)
(0.0083489082 0.00043925408 0)
(0.0081551289 0.00043356645 0)
(0.0079635745 0.00042885916 0)
(0.0077760776 0.00042339444 0)
(0.0075904533 0.00041822728 0)
(0.0074066888 0.0004133591 0)
(0.0072248679 0.00040871027 0)
(0.0070449797 0.00040424204 0)
(0.0068668599 0.00039995676 0)
(0.0066901829 0.00039580585 0)
(0.006514553 0.00039175328 0)
(0.0063433734 0.0003878091 0)
(0.0061738458 0.0003836763 0)
(0.0060044533 0.00038036016 0)
(0.0058371101 0.00037661657 0)
(0.0056702997 0.00037353648 0)
(0.0055055046 0.00037078124 0)
(0.0053413321 0.00037461434 0)
(0.0051785401 0.00036520064 0)
(0.005018175 0.00035512226 0)
(0.0048589085 0.0003592367 0)
(0.0047006922 0.00035676533 0)
(0.0045436155 0.00035390388 0)
(0.0043876163 0.00035124637 0)
(0.0042326857 0.00034876776 0)
(0.004078778 0.00034642488 0)
(0.0039258085 0.00034419573 0)
(0.0037736346 0.00034207273 0)
(0.0036220532 0.00034007375 0)
(0.0034727318 0.00033820876 0)
(0.0033243113 0.00033631658 0)
(0.003175294 0.00033455758 0)
(0.0030273049 0.00033293766 0)
(0.0028802557 0.00033145482 0)
(0.0027340442 0.00033011167 0)
(0.0025880004 0.00032856974 0)
(0.0024425469 0.00032739982 0)
(0.0022981106 0.00032603225 0)
(0.0021540216 0.00032461062 0)
(0.0020108451 0.00032079229 0)
(0.00186813 0.00032240293 0)
(0.001725369 0.00032163224 0)
(0.001583073 0.00032089308 0)
(0.001441297 0.00032190014 0)
(0.0012999319 0.00031929471 0)
(0.0011585515 0.00031855327 0)
(0.0010174796 0.00031793248 0)
(0.00087673966 0.00031742201 0)
(0.00073610681 0.00031709537 0)
(0.00059596357 0.00031675551 0)
(0.00045586093 0.00031641808 0)
(0.00031563697 0.00031578465 0)
(0.00017539309 0.00030959122 0)
(4.3314732e-05 0.0002439129 0)
(0.00088592875 -0.006278911 0)
(0.002713848 -0.0064024284 0)
(0.0045467017 -0.0064140029 0)
(0.0063857265 -0.0064297024 0)
(0.0082293411 -0.0064507274 0)
(0.010079694 -0.0064771229 0)
(0.01193831 -0.006508945 0)
(0.013806746 -0.0065462667 0)
(0.015686581 -0.0065891757 0)
(0.017579416 -0.0066377741 0)
(0.019486884 -0.0066921789 0)
(0.021410654 -0.006752523 0)
(0.02335243 -0.0068189557 0)
(0.025313964 -0.0068916442 0)
(0.027297052 -0.006970775 0)
(0.02930355 -0.0070565551 0)
(0.031335369 -0.007149214 0)
(0.033394491 -0.0072490052 0)
(0.03548297 -0.0073562088 0)
(0.03760294 -0.0074711337 0)
(0.039756626 -0.0075941207 0)
(0.041946352 -0.0077255452 0)
(0.044174548 -0.0078658214 0)
(0.046443766 -0.0080154058 0)
(0.048756688 -0.0081748027 0)
(0.05111614 -0.0083445689 0)
(0.053525109 -0.0085253206 0)
(0.055986758 -0.00871774 0)
(0.058504445 -0.008922584 0)
(0.061081744 -0.0091406936 0)
(0.063722469 -0.0093730054 0)
(0.066430697 -0.0096205641 0)
(0.069210804 -0.0098845381 0)
(0.072067496 -0.010166237 0)
(0.075005846 -0.010467134 0)
(0.07803134 -0.010788888 0)
(0.081149931 -0.011133378 0)
(0.084368093 -0.011502731 0)
(0.087692889 -0.011899375 0)
(0.091132052 -0.012326081 0)
(0.094694076 -0.01278603 0)
(0.098388319 -0.013282887 0)
(0.10222513 -0.0138209 0)
(0.10621599 -0.014405006 0)
(0.11037371 -0.015040986 0)
(0.11471259 -0.015735634 0)
(0.11924869 -0.016496996 0)
(0.12400015 -0.017334649 0)
(0.12898751 -0.018260077 0)
(0.13423398 -0.019287156 0)
(0.13976688 -0.02043272 0)
(0.14561396 -0.021717675 0)
(0.15182291 -0.023166801 0)
(0.1583863 -0.024815232 0)
(0.16551745 -0.026693223 0)
(0.17274374 -0.028880889 0)
(0.18154404 -0.031373366 0)
(0.18870553 -0.034432808 0)
(0.20066709 -0.037682422 0)
(0.20775419 -0.04251928 0)
(0.22174274 -0.046953373 0)
(0.23369352 -0.054247594 0)
(0.24445812 -0.06191562 0)
(0.26439641 -0.072514278 0)
(0.28210572 -0.087199289 0)
(0.28964192 -0.10245028 0)
(0.31540935 -0.11514791 0)
(0.34108931 -0.0234635 0)
(0.26845914 0.102342 0)
(0.26237477 0.1289353 0)
(0.25727054 0.11869906 0)
(0.24792666 0.094452391 0)
(0.23758767 0.075679673 0)
(0.22585553 0.061847313 0)
(0.21415806 0.051600768 0)
(0.20308156 0.043900006 0)
(0.19281174 0.037999435 0)
(0.18338039 0.03338605 0)
(0.17474228 0.029706217 0)
(0.16682297 0.026714916 0)
(0.15954262 0.024240986 0)
(0.15282608 0.022163115 0)
(0.14660643 0.020393863 0)
(0.14082561 0.018869121 0)
(0.13543387 0.01754107 0)
(0.13038875 0.01637345 0)
(0.12565395 0.015338332 0)
(0.12119839 0.014413889 0)
(0.11699534 0.01358284 0)
(0.11302165 0.012831329 0)
(0.10925725 0.012148129 0)
(0.10568457 0.011524047 0)
(0.10228819 0.010951486 0)
(0.099054485 0.010424118 0)
(0.095971392 0.0099366258 0)
(0.093028148 0.0094845141 0)
(0.090215123 0.0090639547 0)
(0.08752366 0.0086716681 0)
(0.084945948 0.0083048287 0)
(0.082474914 0.0079609888 0)
(0.080104127 0.0076380174 0)
(0.07782772 0.0073340503 0)
(0.075640327 0.0070474495 0)
(0.073537021 0.0067767695 0)
(0.07151327 0.0065207294 0)
(0.069564887 0.0062781899 0)
(0.067688002 0.006048134 0)
(0.065879023 0.0058296504 0)
(0.06413461 0.0056219201 0)
(0.062451654 0.0054242042 0)
(0.060827249 0.0052358346 0)
(0.059258681 0.0050562054 0)
(0.057743406 0.0048847669 0)
(0.056279041 0.0047210224 0)
(0.054863354 0.0045645355 0)
(0.053494283 0.0044149588 0)
(0.052170106 0.0042721498 0)
(0.050889255 0.0041364094 0)
(0.049652532 0.0040104336 -6.8165506e-35)
(0.04844565 0.0038204152 -3.7186929e-30)
(0.047273054 0.0037533236 0)
(0.046146186 0.0036438841 0)
(0.045050094 0.003532725 0)
(0.043994824 0.003418823 0)
(0.042974349 0.0033201489 0)
(0.041974568 0.0032215845 0)
(0.041004067 0.0031260387 0)
(0.040062708 0.0030348489 0)
(0.039145959 0.0029483694 -5.3145758e-35)
(0.038266273 0.002809872 -2.9052692e-30)
(0.037418635 0.0027764017 -5.069998e-35)
(0.036575727 0.0026525972 -2.7707766e-30)
(0.035756873 0.0026239721 0)
(0.034964305 0.0025581368 0)
(0.034192178 0.0024866379 0)
(0.03344896 0.0024152654 0)
(0.032725507 0.0023476638 0)
(0.032017996 0.00228142 0)
(0.031329112 0.002224728 -4.2060706e-35)
(0.030660097 0.0021220729 -2.3018301e-30)
(0.03001029 0.0021027019 0)
(0.029370697 0.0020505075 0)
(0.028745446 0.00199711 0)
(0.028143083 0.0019473347 0)
(0.027550438 0.0018986419 0)
(0.02698591 0.001851779 0)
(0.026438542 0.0018052847 0)
(0.025889576 0.0017605988 0)
(0.02535479 0.0017176701 0)
(0.024834116 0.0016765313 0)
(0.024324728 0.0016362311 -3.2223601e-35)
(0.023833962 0.0015642181 -1.7657418e-30)
(0.023356371 0.001556351 0)
(0.022883494 0.001523212 0)
(0.022421974 0.0014878077 0)
(0.021971763 0.0014534551 0)
(0.021532109 0.0014203004 0)
(0.021102439 0.001388187 0)
(0.020682323 0.0013568894 0)
(0.020271494 0.0013260787 0)
(0.019869401 0.0012964073 2.603877e-35)
(0.019476955 0.0012957617 1.428018e-30)
(0.019093245 0.0012431416 0)
(0.018717028 0.0012148501 0)
(0.018349071 0.0011901428 2.395357e-35)
(0.017985711 0.0011895975 1.3134729e-30)
(0.01762818 0.001142003 0)
(0.017284036 0.001115996 0)
(0.016945347 0.0010940392 0)
(0.016616805 0.0010734239 0)
(0.01629705 0.0010538612 2.1158731e-35)
(0.015971598 0.0010563542 1.1599789e-30)
(0.015652023 0.0010168312 0)
(0.015346938 0.00099368589 0)
(0.015047926 0.00097735967 0)
(0.014750819 0.00095952345 0)
(0.01445941 0.00094180115 0)
(0.014173575 0.00092464885 0)
(0.013892976 0.00090808413 0)
(0.013617363 0.00089206759 0)
(0.013346559 0.00087656612 0)
(0.013080416 0.00086155411 0)
(0.012818799 0.00084701089 0)
(0.012561588 0.00083291525 0)
(0.012308684 0.00081923329 0)
(0.01205995 0.00080587492 0)
(0.011815334 0.00079248198 0)
(0.011573694 0.00077872349 0)
(0.01133578 0.00076772072 0)
(0.011102454 0.00075651462 0)
(0.010872615 0.00074520352 0)
(0.010646141 0.00073417907 0)
(0.010422905 0.00072357959 0)
(0.010202596 0.00071341418 0)
(0.0099854404 0.00070292151 0)
(0.0097717839 0.00069270522 0)
(0.0095615 0.00068272537 0)
(0.0093524802 0.0006739418 0)
(0.0091461511 0.00066456345 0)
(0.0089441379 0.00065634418 0)
(0.0087444625 0.00064822395 0)
(0.0085471302 0.00064016929 0)
(0.0083522479 0.00063199754 0)
(0.0081590664 0.00062353531 0)
(0.0079681601 0.00061694321 0)
(0.0077801462 0.00061014488 0)
(0.0075942386 0.00060323202 0)
(0.00741038 0.00059644603 0)
(0.0072285263 0.0005898418 0)
(0.0070486905 0.00058346029 0)
(0.0068708104 0.00057744617 0)
(0.0066948551 0.00057177017 0)
(0.0065208454 0.0005660936 -8.2272522e-36)
(0.0063471831 0.00055292598 -4.4801375e-31)