/*--------------------------------*- C++ -*----------------------------------*\
| =========                 |                                                 |
| \\      /  F ield         | OpenFOAM: The Open Source CFD Toolbox           |
|  \\    /   O peration     | Version:  2106                                  |
|   \\  /    A nd           | Website:  www.openfoam.com                      |
|    \\/     M anipulation  |                                                 |
\*---------------------------------------------------------------------------*/
FoamFile
{
    version     2.0;
    format      ascii;
    arch        "LSB;label=32;scalar=64";
    class       volVectorField;
    location    "0.045";
    object      U_0;
}
// * * * * * * * * * * * * * * * * * * * * * * * * * * * * * * * * * * * * * //

dimensions      [0 1 -1 0 0 0 0];

internalField   nonuniform List<vector> 
65536
(
(0.00029581479 -0.0002957274 0)
(0.00088726053 -0.00029554361 0)
(0.0014781549 -0.00029517617 0)
(0.0020681306 -0.00029462531 0)
(0.0026568212 -0.00029389142 0)
(0.003243861 -0.00029297498 0)
(0.0038288853 -0.00029187661 0)
(0.004411531 -0.00029059706 0)
(0.0049914364 -0.00028913718 0)
(0.0055682418 -0.00028749796 0)
(0.0061415893 -0.0002856805 0)
(0.0067111238 -0.00028368603 0)
(0.0072764924 -0.00028151588 0)
(0.0078373451 -0.00027917152 0)
(0.0083933349 -0.00027665451 0)
(0.0089441181 -0.00027396656 0)
(0.0094893545 -0.00027110945 0)
(0.010028708 -0.0002680851 0)
(0.010561845 -0.00026489554 0)
(0.011088438 -0.00026154289 0)
(0.011608163 -0.0002580294 0)
(0.0121207 -0.00025435741 0)
(0.012625735 -0.00025052937 0)
(0.013122958 -0.00024654781 0)
(0.013612064 -0.0002424154 0)
(0.014092755 -0.00023813486 0)
(0.014564737 -0.00023370903 0)
(0.015027722 -0.00022914085 0)
(0.015481429 -0.00022443333 0)
(0.015925581 -0.00021958958 0)
(0.01635991 -0.00021461278 0)
(0.016784152 -0.00020950621 0)
(0.017198052 -0.00020427321 0)
(0.017601359 -0.00019891722 0)
(0.017993832 -0.00019344174 0)
(0.018375234 -0.00018785034 0)
(0.018745338 -0.00018214666 0)
(0.019103922 -0.00017633441 0)
(0.019450774 -0.00017041737 0)
(0.019785687 -0.00016439936 0)
(0.020108463 -0.00015828427 0)
(0.020418912 -0.00015207604 0)
(0.020716852 -0.00014577867 0)
(0.021002108 -0.00013939619 0)
(0.021274514 -0.0001329327 0)
(0.021533913 -0.00012639232 0)
(0.021780154 -0.00011977922 0)
(0.022013096 -0.0001130976 0)
(0.022232607 -0.0001063517 0)
(0.022438562 -9.9545786e-05 0)
(0.022630845 -9.2684151e-05 0)
(0.02280935 -8.5771112e-05 0)
(0.022973977 -7.8811007e-05 0)
(0.023124637 -7.180819e-05 0)
(0.023261249 -6.4767032e-05 0)
(0.023383741 -5.7691914e-05 0)
(0.023492049 -5.0587226e-05 0)
(0.023586118 -4.3457365e-05 0)
(0.023665902 -3.630673e-05 0)
(0.023731364 -2.9139719e-05 0)
(0.023782476 -2.1960727e-05 0)
(0.023819219 -1.4774144e-05 0)
(0.023841581 -7.5843474e-06 0)
(0.02384956 -3.9568324e-07 0)
(0.023843163 6.7873418e-06 0)
(0.023822406 1.3960636e-05 0)
(0.023787312 2.1119755e-05 0)
(0.023737914 2.8260385e-05 0)
(0.023674254 3.5378275e-05 0)
(0.023596381 4.2469182e-05 0)
(0.023504353 4.9528895e-05 0)
(0.023398237 5.6553232e-05 0)
(0.023278107 6.3538046e-05 0)
(0.023144048 7.0479227e-05 0)
(0.02299615 7.7372707e-05 0)
(0.022834514 8.4214455e-05 0)
(0.022659245 9.1000488e-05 0)
(0.02247046 9.7726866e-05 0)
(0.022268282 0.0001043897 0)
(0.022052842 0.00011098515 0)
(0.021824279 0.00011750942 0)
(0.021582738 0.00012395878 0)
(0.021328374 0.00013032955 0)
(0.021061347 0.0001366181 0)
(0.020781825 0.00014282088 0)
(0.020489983 0.00014893438 0)
(0.020186004 0.00015495516 0)
(0.019870075 0.00016087984 0)
(0.019542394 0.0001667051 0)
(0.019203162 0.00017242771 0)
(0.018852587 0.00017804449 0)
(0.018490884 0.00018355232 0)
(0.018118275 0.00018894816 0)
(0.017734985 0.00019422906 0)
(0.01734125 0.00019939211 0)
(0.016937305 0.00020443449 0)
(0.016523397 0.00020935346 0)
(0.016099775 0.00021414635 0)
(0.015666692 0.00021881055 0)
(0.01522441 0.00022334356 0)
(0.014773193 0.00022774293 0)
(0.014313311 0.0002320063 0)
(0.013845039 0.00023613138 0)
(0.013368654 0.00024011599 0)
(0.012884441 0.00024395799 0)
(0.012392686 0.00024765534 0)
(0.011893682 0.00025120609 0)
(0.011387722 0.00025460837 0)
(0.010875106 0.00025786037 0)
(0.010356137 0.00026096038 0)
(0.0098311195 0.00026390679 0)
(0.0093003629 0.00026669805 0)
(0.0087641789 0.00026933269 0)
(0.0082228823 0.00027180934 0)
(0.0076767903 0.00027412672 0)
(0.0071262229 0.00027628362 0)
(0.0065715022 0.00027827892 0)
(0.0060129525 0.00028011159 0)
(0.0054509002 0.00028178067 0)
(0.0048856732 0.0002832853 0)
(0.0043176015 0.00028462471 0)
(0.0037470162 0.00028579821 0)
(0.0031742498 0.00028680519 0)
(0.0025996361 0.00028764513 0)
(0.0020235095 0.00028831761 0)
(0.0014462055 0.00028882226 0)
(0.00086805999 0.00028915885 0)
(0.00028940946 0.00028932718 0)
(-0.00028940946 0.00028932718 0)
(-0.00086805999 0.00028915885 0)
(-0.0014462055 0.00028882226 0)
(-0.0020235095 0.00028831761 0)
(-0.0025996361 0.00028764513 0)
(-0.0031742498 0.00028680519 0)
(-0.0037470162 0.00028579821 0)
(-0.0043176015 0.00028462471 0)
(-0.0048856732 0.0002832853 0)
(-0.0054509002 0.00028178067 0)
(-0.0060129525 0.00028011159 0)
(-0.0065715022 0.00027827892 0)
(-0.0071262229 0.00027628362 0)
(-0.0076767903 0.00027412672 0)
(-0.0082228823 0.00027180934 0)
(-0.0087641789 0.00026933269 0)
(-0.0093003629 0.00026669805 0)
(-0.0098311195 0.00026390679 0)
(-0.010356137 0.00026096038 0)
(-0.010875106 0.00025786037 0)
(-0.011387722 0.00025460837 0)
(-0.011893682 0.00025120609 0)
(-0.012392686 0.00024765534 0)
(-0.012884441 0.00024395799 0)
(-0.013368654 0.00024011599 0)
(-0.013845039 0.00023613138 0)
(-0.014313311 0.00023200629 0)
(-0.014773193 0.00022774293 0)
(-0.01522441 0.00022334356 0)
(-0.015666692 0.00021881055 0)
(-0.016099775 0.00021414635 0)
(-0.016523397 0.00020935346 0)
(-0.016937305 0.00020443449 0)
(-0.01734125 0.00019939211 0)
(-0.017734985 0.00019422906 0)
(-0.018118275 0.00018894816 0)
(-0.018490884 0.00018355232 0)
(-0.018852587 0.00017804449 0)
(-0.019203162 0.00017242771 0)
(-0.019542394 0.0001667051 0)
(-0.019870075 0.00016087984 0)
(-0.020186004 0.00015495516 0)
(-0.020489983 0.00014893438 0)
(-0.020781825 0.00014282088 0)
(-0.021061347 0.0001366181 0)
(-0.021328374 0.00013032955 0)
(-0.021582738 0.00012395878 0)
(-0.021824279 0.00011750942 0)
(-0.022052842 0.00011098515 0)
(-0.022268282 0.0001043897 0)
(-0.02247046 9.7726866e-05 0)
(-0.022659245 9.1000488e-05 0)
(-0.022834514 8.4214455e-05 0)
(-0.02299615 7.7372707e-05 0)
(-0.023144048 7.0479227e-05 0)
(-0.023278107 6.3538046e-05 0)
(-0.023398237 5.6553232e-05 0)
(-0.023504353 4.9528895e-05 0)
(-0.023596381 4.2469182e-05 0)
(-0.023674254 3.5378275e-05 0)
(-0.023737914 2.8260385e-05 0)
(-0.023787312 2.1119755e-05 0)
(-0.023822406 1.3960636e-05 0)
(-0.023843163 6.7873418e-06 0)
(-0.02384956 -3.9568325e-07 0)
(-0.023841581 -7.5843474e-06 0)
(-0.023819219 -1.4774144e-05 0)
(-0.023782476 -2.1960727e-05 0)
(-0.023731364 -2.9139719e-05 0)
(-0.023665902 -3.630673e-05 0)
(-0.023586118 -4.3457365e-05 0)
(-0.023492049 -5.0587226e-05 0)
(-0.023383741 -5.7691914e-05 0)
(-0.023261249 -6.4767032e-05 0)
(-0.023124637 -7.180819e-05 0)
(-0.022973977 -7.8811007e-05 0)
(-0.02280935 -8.5771112e-05 0)
(-0.022630845 -9.2684151e-05 0)
(-0.022438562 -9.9545786e-05 0)
(-0.022232607 -0.0001063517 0)
(-0.022013096 -0.0001130976 0)
(-0.021780154 -0.00011977922 0)
(-0.021533913 -0.00012639232 0)
(-0.021274514 -0.0001329327 0)
(-0.021002108 -0.00013939619 0)
(-0.020716852 -0.00014577867 0)
(-0.020418912 -0.00015207604 0)
(-0.020108463 -0.00015828427 0)
(-0.019785687 -0.00016439936 0)
(-0.019450774 -0.00017041737 0)
(-0.019103922 -0.00017633441 0)
(-0.018745338 -0.00018214666 0)
(-0.018375234 -0.00018785034 0)
(-0.017993832 -0.00019344174 0)
(-0.017601359 -0.00019891722 0)
(-0.017198052 -0.00020427321 0)
(-0.016784152 -0.00020950621 0)
(-0.01635991 -0.00021461278 0)
(-0.015925581 -0.00021958958 0)
(-0.015481429 -0.00022443333 0)
(-0.015027722 -0.00022914085 0)
(-0.014564737 -0.00023370903 0)
(-0.014092755 -0.00023813486 0)
(-0.013612064 -0.0002424154 0)
(-0.013122958 -0.00024654781 0)
(-0.012625735 -0.00025052937 0)
(-0.0121207 -0.00025435741 0)
(-0.011608163 -0.0002580294 0)
(-0.011088438 -0.00026154289 0)
(-0.010561845 -0.00026489554 0)
(-0.010028708 -0.0002680851 0)
(-0.0094893545 -0.00027110945 0)
(-0.0089441181 -0.00027396656 0)
(-0.0083933349 -0.00027665451 0)
(-0.0078373451 -0.00027917152 0)
(-0.0072764924 -0.00028151588 0)
(-0.0067111238 -0.00028368603 0)
(-0.0061415893 -0.0002856805 0)
(-0.0055682418 -0.00028749796 0)
(-0.0049914364 -0.00028913718 0)
(-0.004411531 -0.00029059706 0)
(-0.0038288853 -0.00029187661 0)
(-0.003243861 -0.00029297498 0)
(-0.0026568212 -0.00029389142 0)
(-0.0020681306 -0.00029462531 0)
(-0.0014781549 -0.00029517617 0)
(-0.00088726053 -0.00029554361 0)
(-0.00029581479 -0.0002957274 0)
(0.00029610543 -0.00088739979 0)
(0.00088813226 -0.0008868483 0)
(0.0014796071 -0.0008857457 0)
(0.0020701625 -0.00088409272 0)
(0.0026594315 -0.00088189049 0)
(0.003247048 -0.00087914048 0)
(0.003832647 -0.00087584456 0)
(0.004415865 -0.00087200494 0)
(0.0049963401 -0.00086762421 0)
(0.0055737119 -0.00086270532 0)
(0.0061476226 -0.00085725159 0)
(0.0067177164 -0.00085126668 0)
(0.0072836402 -0.00084475461 0)
(0.0078450435 -0.00083771977 0)
(0.0084015792 -0.00083016687 0)
(0.0089529031 -0.00082210099 0)
(0.0094986747 -0.00081352753 0)
(0.010038557 -0.00080445222 0)
(0.010572218 -0.00079488115 0)
(0.011099328 -0.00078482072 0)
(0.011619562 -0.00077427762 0)
(0.012132602 -0.00076325891 0)
(0.012638132 -0.00075177192 0)
(0.013135843 -0.00073982428 0)
(0.013625429 -0.00072742395 0)
(0.014106591 -0.00071457914 0)
(0.014579035 -0.00070129837 0)
(0.015042473 -0.00068759042 0)
(0.015496624 -0.00067346435 0)
(0.015941212 -0.00065892947 0)
(0.016375965 -0.00064399536 0)
(0.016800623 -0.00062867184 0)
(0.017214927 -0.00061296896 0)
(0.017618629 -0.000596897 0)
(0.018011486 -0.00058046648 0)
(0.018393261 -0.00056368812 0)
(0.018763726 -0.00054657284 0)
(0.019122661 -0.00052913178 0)
(0.019469851 -0.00051137625 0)
(0.01980509 -0.00049331775 0)
(0.020128181 -0.00047496794 0)
(0.020438933 -0.00045633864 0)
(0.020737163 -0.00043744186 0)
(0.021022697 -0.0004182897 0)
(0.021295368 -0.00039889443 0)
(0.021555018 -0.00037926844 0)
(0.021801498 -0.00035942424 0)
(0.022034667 -0.00033937444 0)
(0.02225439 -0.00031913176 0)
(0.022460545 -0.00029870899 0)
(0.022653014 -0.00027811901 0)
(0.022831691 -0.00025737479 0)
(0.022996477 -0.00023648934 0)
(0.023147282 -0.00021547572 0)
(0.023284025 -0.00019434705 0)
(0.023406633 -0.00017311648 0)
(0.023515044 -0.00015179719 0)
(0.023609202 -0.00013040236 0)
(0.023689062 -0.0001089452 0)
(0.023754585 -8.7438895e-05 0)
(0.023805744 -6.5896647e-05 0)
(0.023842519 -4.4331626e-05 0)
(0.0238649 -2.2756981e-05 0)
(0.023872884 -1.1858326e-06 0)
(0.023866477 2.0368761e-05 0)
(0.023845697 4.189383e-05 0)
(0.023810565 6.3376369e-05 0)
(0.023761116 8.4803473e-05 0)
(0.02369739 0.00010616234 0)
(0.023619437 0.00012744024 0)
(0.023527316 0.00014862452 0)
(0.023421093 0.00016970265 0)
(0.023300843 0.00019066218 0)
(0.02316665 0.00021149077 0)
(0.023018604 0.00023217622 0)
(0.022856806 0.00025270643 0)
(0.022681363 0.00027306945 0)
(0.022492391 0.00029325346 0)
(0.022290012 0.00031324679 0)
(0.022074359 0.0003330379 0)
(0.02184557 0.00035261543 0)
(0.02160379 0.00037196817 0)
(0.021349175 0.00039108507 0)
(0.021081884 0.00040995527 0)
(0.020802087 0.00042856808 0)
(0.020509957 0.00044691297 0)
(0.020205679 0.00046497963 0)
(0.01988944 0.00048275792 0)
(0.019561436 0.0005002379 0)
(0.019221871 0.00051740983 0)
(0.018870951 0.00053426417 0)
(0.018508894 0.0005507916 0)
(0.018135919 0.000566983 0)
(0.017752255 0.00058282946 0)
(0.017358133 0.0005983223 0)
(0.016953794 0.00061345304 0)
(0.01653948 0.00062821346 0)
(0.016115443 0.00064259552 0)
(0.015681938 0.00065659145 0)
(0.015239223 0.00067019369 0)
(0.014787566 0.00068339492 0)
(0.014327235 0.00069618805 0)
(0.013858505 0.00070856623 0)
(0.013381656 0.00072052286 0)
(0.01289697 0.00073205158 0)
(0.012404736 0.00074314626 0)
(0.011905245 0.00075380102 0)
(0.011398793 0.00076401025 0)
(0.010885678 0.00077376854 0)
(0.010366203 0.00078307078 0)
(0.0098406743 0.00079191208 0)
(0.0093094011 0.00080028781 0)
(0.0087726954 0.00080819359 0)
(0.0082308722 0.0008156253 0)
(0.0076842492 0.00082257907 0)
(0.0071331464 0.00082905129 0)
(0.0065778864 0.00083503858 0)
(0.0060187937 0.00084053786 0)
(0.0054561951 0.00084554628 0)
(0.0048904189 0.00085006124 0)
(0.0043217952 0.00085408041 0)
(0.0037506556 0.00085760173 0)
(0.0031773328 0.00086062337 0)
(0.0026021609 0.00086314379 0)
(0.0020254747 0.00086516168 0)
(0.00144761 0.000866676 0)
(0.00086890303 0.00086768598 0)
(0.00028969052 0.00086819111 0)
(-0.00028969052 0.00086819111 0)
(-0.00086890303 0.00086768598 0)
(-0.00144761 0.000866676 0)
(-0.0020254747 0.00086516168 0)
(-0.0026021609 0.00086314379 0)
(-0.0031773328 0.00086062337 0)
(-0.0037506556 0.00085760173 0)
(-0.0043217952 0.00085408041 0)
(-0.0048904189 0.00085006124 0)
(-0.0054561951 0.00084554628 0)
(-0.0060187937 0.00084053786 0)
(-0.0065778864 0.00083503858 0)
(-0.0071331464 0.00082905129 0)
(-0.0076842492 0.00082257907 0)
(-0.0082308722 0.0008156253 0)
(-0.0087726954 0.00080819359 0)
(-0.0093094011 0.00080028781 0)
(-0.0098406743 0.00079191208 0)
(-0.010366203 0.00078307078 0)
(-0.010885678 0.00077376854 0)
(-0.011398793 0.00076401025 0)
(-0.011905245 0.00075380102 0)
(-0.012404736 0.00074314626 0)
(-0.01289697 0.00073205158 0)
(-0.013381656 0.00072052286 0)
(-0.013858505 0.00070856623 0)
(-0.014327235 0.00069618805 0)
(-0.014787566 0.00068339492 0)
(-0.015239223 0.00067019369 0)
(-0.015681938 0.00065659145 0)
(-0.016115443 0.00064259552 0)
(-0.01653948 0.00062821346 0)
(-0.016953794 0.00061345304 0)
(-0.017358133 0.0005983223 0)
(-0.017752255 0.00058282946 0)
(-0.018135919 0.000566983 0)
(-0.018508894 0.0005507916 0)
(-0.018870951 0.00053426417 0)
(-0.019221871 0.00051740983 0)
(-0.019561436 0.0005002379 0)
(-0.01988944 0.00048275792 0)
(-0.020205679 0.00046497963 0)
(-0.020509957 0.00044691297 0)
(-0.020802087 0.00042856808 0)
(-0.021081884 0.00040995527 0)
(-0.021349175 0.00039108507 0)
(-0.02160379 0.00037196817 0)
(-0.02184557 0.00035261543 0)
(-0.022074359 0.0003330379 0)
(-0.022290012 0.00031324679 0)
(-0.022492391 0.00029325346 0)
(-0.022681363 0.00027306945 0)
(-0.022856806 0.00025270643 0)
(-0.023018604 0.00023217622 0)
(-0.02316665 0.00021149077 0)
(-0.023300843 0.00019066218 0)
(-0.023421093 0.00016970265 0)
(-0.023527316 0.00014862452 0)
(-0.023619437 0.00012744024 0)
(-0.02369739 0.00010616234 0)
(-0.023761116 8.4803473e-05 0)
(-0.023810565 6.3376369e-05 0)
(-0.023845697 4.189383e-05 0)
(-0.023866477 2.0368762e-05 0)
(-0.023872884 -1.1858325e-06 0)
(-0.0238649 -2.2756981e-05 0)
(-0.023842519 -4.4331626e-05 0)
(-0.023805744 -6.5896647e-05 0)
(-0.023754585 -8.7438895e-05 0)
(-0.023689062 -0.0001089452 0)
(-0.023609202 -0.00013040236 0)
(-0.023515044 -0.00015179719 0)
(-0.023406633 -0.00017311648 0)
(-0.023284025 -0.00019434705 0)
(-0.023147282 -0.00021547572 0)
(-0.022996477 -0.00023648934 0)
(-0.022831691 -0.00025737479 0)
(-0.022653014 -0.00027811901 0)
(-0.022460545 -0.00029870899 0)
(-0.02225439 -0.00031913176 0)
(-0.022034667 -0.00033937444 0)
(-0.021801498 -0.00035942424 0)
(-0.021555018 -0.00037926844 0)
(-0.021295368 -0.00039889443 0)
(-0.021022697 -0.0004182897 0)
(-0.020737163 -0.00043744186 0)
(-0.020438933 -0.00045633864 0)
(-0.020128181 -0.00047496794 0)
(-0.01980509 -0.00049331775 0)
(-0.019469851 -0.00051137625 0)
(-0.019122661 -0.00052913178 0)
(-0.018763726 -0.00054657284 0)
(-0.018393261 -0.00056368812 0)
(-0.018011486 -0.00058046648 0)
(-0.017618629 -0.000596897 0)
(-0.017214927 -0.00061296896 0)
(-0.016800623 -0.00062867184 0)
(-0.016375965 -0.00064399536 0)
(-0.015941212 -0.00065892947 0)
(-0.015496624 -0.00067346435 0)
(-0.015042473 -0.00068759042 0)
(-0.014579035 -0.00070129837 0)
(-0.014106591 -0.00071457914 0)
(-0.013625429 -0.00072742395 0)
(-0.013135843 -0.00073982428 0)
(-0.012638132 -0.00075177192 0)
(-0.012132602 -0.00076325891 0)
(-0.011619562 -0.00077427762 0)
(-0.011099328 -0.00078482072 0)
(-0.010572218 -0.00079488115 0)
(-0.010038557 -0.00080445222 0)
(-0.0094986747 -0.00081352753 0)
(-0.0089529031 -0.00082210099 0)
(-0.0084015792 -0.00083016687 0)
(-0.0078450435 -0.00083771977 0)
(-0.0072836402 -0.00084475461 0)
(-0.0067177164 -0.00085126668 0)
(-0.0061476226 -0.00085725159 0)
(-0.0055737119 -0.00086270532 0)
(-0.0049963401 -0.00086762421 0)
(-0.004415865 -0.00087200494 0)
(-0.003832647 -0.00087584456 0)
(-0.003247048 -0.00087914048 0)
(-0.0026594315 -0.00088189049 0)
(-0.0020701625 -0.00088409272 0)
(-0.0014796071 -0.0008857457 0)
(-0.00088813226 -0.0008868483 0)
(-0.00029610543 -0.00088739979 0)
(0.00029659445 -0.0014799066 0)
(0.00088959902 -0.0014789869 0)
(0.0014820507 -0.0014771481 0)
(0.0020735814 -0.0014743914 0)
(0.0026638236 -0.0014707188 0)
(0.0032524106 -0.0014661326 0)
(0.0038389767 -0.001460636 0)
(0.004423158 -0.0014542327 0)
(0.0050045917 -0.001446927 0)
(0.0055829172 -0.0014387238 0)
(0.0061577758 -0.0014296286 0)
(0.0067288112 -0.0014196476 0)
(0.0072956697 -0.0014087874 0)
(0.0078580003 -0.0013970555 0)
(0.0084154552 -0.0013844595 0)
(0.0089676898 -0.0013710081 0)
(0.0095143629 -0.0013567102 0)
(0.010055137 -0.0013415754 0)
(0.010589679 -0.0013256137 0)
(0.01111766 -0.001308836 0)
(0.011638754 -0.0012912533 0)
(0.012152641 -0.0012728775 0)
(0.012659007 -0.0012537207 0)
(0.013157539 -0.0012337957 0)
(0.013647934 -0.0012131157 0)
(0.014129891 -0.0011916945 0)
(0.014603116 -0.0011695462 0)
(0.01506732 -0.0011466856 0)
(0.015522221 -0.0011231276 0)
(0.015967543 -0.0010988879 0)
(0.016403015 -0.0010739823 0)
(0.016828375 -0.0010484274 0)
(0.017243364 -0.0010222398 0)
(0.017647733 -0.00099543667 0)
(0.018041238 -0.00096803559 0)
(0.018423644 -0.00094005442 0)
(0.018794722 -0.00091151139 0)
(0.019154249 -0.00088242505 0)
(0.019502013 -0.00085281427 0)
(0.019837807 -0.00082269822 0)
(0.020161432 -0.00079209636 0)
(0.020472697 -0.00076102842 0)
(0.020771419 -0.00072951438 0)
(0.021057425 -0.00069757446 0)
(0.021330547 -0.00066522912 0)
(0.021590626 -0.000632499 0)
(0.021837514 -0.00059940498 0)
(0.022071067 -0.00056596809 0)
(0.022291154 -0.00053220952 0)
(0.022497648 -0.00049815063 0)
(0.022690436 -0.0004638129 0)
(0.022869407 -0.00042921794 0)
(0.023034465 -0.00039438745 0)
(0.023185519 -0.00035934323 0)
(0.023322488 -0.00032410715 0)
(0.023445299 -0.00028870113 0)
(0.023553889 -0.00025314715 0)
(0.023648202 -0.00021746721 0)
(0.023728193 -0.00018168331 0)
(0.023793824 -0.00014581748 0)
(0.023845067 -0.00010989171 0)
(0.023881902 -7.3927966e-05 0)
(0.023904319 -3.7948176e-05 0)
(0.023912316 -1.9742104e-06 0)
(0.023905898 3.3972144e-05 0)
(0.023885082 6.9869207e-05 0)
(0.023849892 0.00010569534 0)
(0.02380036 0.00014142904 0)
(0.023736528 0.00017704894 0)
(0.023658446 0.00021253379 0)
(0.023566171 0.00024786252 0)
(0.023459772 0.0002830142 0)
(0.023339322 0.00031796808 0)
(0.023204906 0.00035270359 0)
(0.023056615 0.00038720037 0)
(0.022894549 0.00042143826 0)
(0.022718815 0.00045539732 0)
(0.022529529 0.00048905784 0)
(0.022326815 0.00052240034 0)
(0.022110805 0.0005554056 0)
(0.021881636 0.00058805467 0)
(0.021639456 0.00062032885 0)
(0.021384419 0.00065220972 0)
(0.021116686 0.00068367916 0)
(0.020836425 0.00071471933 0)
(0.020543812 0.00074531271 0)
(0.02023903 0.00077544206 0)
(0.019922268 0.0008050905 0)
(0.019593722 0.00083424144 0)
(0.019253594 0.00086287865 0)
(0.018902095 0.00089098622 0)
(0.018539438 0.00091854859 0)
(0.018165847 0.00094555056 0)
(0.017781548 0.00097197728 0)
(0.017386775 0.00099781426 0)
(0.016981767 0.0010230474 0)
(0.016566769 0.0010476629 0)
(0.016142031 0.0010716475 0)
(0.015707809 0.0010949881 0)
(0.015264364 0.0011176721 0)
(0.01481196 0.0011396874 0)
(0.014350869 0.0011610221 0)
(0.013881365 0.0011816648 0)
(0.013403728 0.0012016045 0)
(0.012918242 0.0012208305 0)
(0.012425196 0.0012393328 0)
(0.01192488 0.0012571014 0)
(0.011417591 0.0012741269 0)
(0.01090363 0.0012904005 0)
(0.010383298 0.0013059135 0)
(0.009856902 0.0013206578 0)
(0.0093247523 0.0013346257 0)
(0.0087871612 0.0013478099 0)
(0.0082444442 0.0013602035 0)
(0.0076969195 0.0013718001 0)
(0.0071449077 0.0013825935 0)
(0.0065887319 0.0013925783 0)
(0.0060287173 0.0014017493 0)
(0.0054651909 0.0014101016 0)
(0.0048984818 0.001417631 0)
(0.0043289205 0.0014243336 0)
(0.0037568391 0.001430206 0)
(0.0031825711 0.0014352451 0)
(0.0026064509 0.0014394483 0)
(0.002028814 0.0014428134 0)
(0.0014499965 0.0014453388 0)
(0.0008703355 0.0014470231 0)
(0.0002901681 0.0014478655 0)
(-0.0002901681 0.0014478655 0)
(-0.0008703355 0.0014470231 0)
(-0.0014499965 0.0014453388 0)
(-0.002028814 0.0014428134 0)
(-0.0026064509 0.0014394483 0)
(-0.0031825711 0.0014352451 0)
(-0.0037568391 0.001430206 0)
(-0.0043289205 0.0014243336 0)
(-0.0048984818 0.001417631 0)
(-0.0054651909 0.0014101016 0)
(-0.0060287173 0.0014017493 0)
(-0.0065887319 0.0013925783 0)
(-0.0071449077 0.0013825935 0)
(-0.0076969195 0.0013718001 0)
(-0.0082444442 0.0013602035 0)
(-0.0087871612 0.0013478099 0)
(-0.0093247523 0.0013346257 0)
(-0.009856902 0.0013206578 0)
(-0.010383298 0.0013059135 0)
(-0.01090363 0.0012904005 0)
(-0.011417591 0.0012741269 0)
(-0.01192488 0.0012571014 0)
(-0.012425196 0.0012393328 0)
(-0.012918242 0.0012208305 0)
(-0.013403728 0.0012016045 0)
(-0.013881365 0.0011816648 0)
(-0.014350869 0.0011610221 0)
(-0.01481196 0.0011396874 0)
(-0.015264364 0.0011176721 0)
(-0.015707809 0.0010949881 0)
(-0.016142031 0.0010716475 0)
(-0.016566769 0.0010476629 0)
(-0.016981767 0.0010230474 0)
(-0.017386775 0.00099781426 0)
(-0.017781548 0.00097197728 0)
(-0.018165847 0.00094555056 0)
(-0.018539438 0.00091854859 0)
(-0.018902095 0.00089098622 0)
(-0.019253594 0.00086287865 0)
(-0.019593722 0.00083424144 0)
(-0.019922268 0.0008050905 0)
(-0.02023903 0.00077544206 0)
(-0.020543812 0.00074531271 0)
(-0.020836425 0.00071471933 0)
(-0.021116686 0.00068367916 0)
(-0.021384419 0.00065220972 0)
(-0.021639456 0.00062032885 0)
(-0.021881636 0.00058805467 0)
(-0.022110805 0.0005554056 0)
(-0.022326815 0.00052240034 0)
(-0.022529529 0.00048905784 0)
(-0.022718815 0.00045539732 0)
(-0.022894549 0.00042143826 0)
(-0.023056615 0.00038720037 0)
(-0.023204906 0.00035270359 0)
(-0.023339322 0.00031796808 0)
(-0.023459772 0.0002830142 0)
(-0.023566171 0.00024786252 0)
(-0.023658446 0.00021253379 0)
(-0.023736528 0.00017704894 0)
(-0.02380036 0.00014142904 0)
(-0.023849892 0.00010569534 0)
(-0.023885082 6.9869208e-05 0)
(-0.023905898 3.3972144e-05 0)
(-0.023912316 -1.9742102e-06 0)
(-0.023904319 -3.7948176e-05 0)
(-0.023881902 -7.3927966e-05 0)
(-0.023845067 -0.00010989171 0)
(-0.023793824 -0.00014581748 0)
(-0.023728193 -0.00018168331 0)
(-0.023648202 -0.00021746721 0)
(-0.023553889 -0.00025314715 0)
(-0.023445299 -0.00028870113 0)
(-0.023322488 -0.00032410715 0)
(-0.023185519 -0.00035934323 0)
(-0.023034465 -0.00039438745 0)
(-0.022869407 -0.00042921794 0)
(-0.022690436 -0.0004638129 0)
(-0.022497648 -0.00049815063 0)
(-0.022291154 -0.00053220952 0)
(-0.022071067 -0.00056596809 0)
(-0.021837514 -0.00059940498 0)
(-0.021590626 -0.000632499 0)
(-0.021330547 -0.00066522912 0)
(-0.021057425 -0.00069757446 0)
(-0.020771419 -0.00072951438 0)
(-0.020472697 -0.00076102842 0)
(-0.020161432 -0.00079209636 0)
(-0.019837807 -0.00082269822 0)
(-0.019502013 -0.00085281427 0)
(-0.019154249 -0.00088242505 0)
(-0.018794722 -0.00091151139 0)
(-0.018423644 -0.00094005442 0)
(-0.018041238 -0.00096803559 0)
(-0.017647733 -0.00099543667 0)
(-0.017243364 -0.0010222398 0)
(-0.016828375 -0.0010484274 0)
(-0.016403015 -0.0010739823 0)
(-0.015967543 -0.0010988879 0)
(-0.015522221 -0.0011231276 0)
(-0.01506732 -0.0011466856 0)
(-0.014603116 -0.0011695462 0)
(-0.014129891 -0.0011916945 0)
(-0.013647934 -0.0012131157 0)
(-0.013157539 -0.0012337957 0)
(-0.012659007 -0.0012537207 0)
(-0.012152641 -0.0012728775 0)
(-0.011638754 -0.0012912533 0)
(-0.01111766 -0.001308836 0)
(-0.010589679 -0.0013256137 0)
(-0.010055137 -0.0013415754 0)
(-0.0095143629 -0.0013567102 0)
(-0.0089676898 -0.0013710081 0)
(-0.0084154552 -0.0013844595 0)
(-0.0078580003 -0.0013970555 0)
(-0.0072956697 -0.0014087874 0)
(-0.0067288112 -0.0014196476 0)
(-0.0061577758 -0.0014296286 0)
(-0.0055829172 -0.0014387238 0)
(-0.0050045917 -0.001446927 0)
(-0.004423158 -0.0014542327 0)
(-0.0038389767 -0.001460636 0)
(-0.0032524106 -0.0014661326 0)
(-0.0026638236 -0.0014707188 0)
(-0.0020735814 -0.0014743914 0)
(-0.0014820507 -0.0014771481 0)
(-0.00088959902 -0.0014789869 0)
(-0.00029659445 -0.0014799066 0)
(0.00029728168 -0.0020735941 0)
(0.00089166028 -0.0020723054 0)
(0.0014854848 -0.0020697289 0)
(0.0020783861 -0.0020658664 0)
(0.002669996 -0.0020607204 0)
(0.0032599468 -0.0020542944 0)
(0.0038478722 -0.0020465928 0)
(0.0044334072 -0.0020376207 0)
(0.0050161884 -0.0020273842 0)
(0.0055958542 -0.0020158902 0)
(0.0061720451 -0.0020031464 0)
(0.006744404 -0.0019891613 0)
(0.0073125764 -0.0019739445 0)
(0.0078762106 -0.0019575061 0)
(0.0084349578 -0.0019398571 0)
(0.0089884727 -0.0019210095 0)
(0.0095364133 -0.0019009757 0)
(0.010078442 -0.0018797694 0)
(0.010614223 -0.0018574045 0)
(0.011143428 -0.0018338961 0)
(0.011665731 -0.0018092599 0)
(0.012180811 -0.0017835123 0)
(0.012688351 -0.0017566705 0)
(0.01318804 -0.0017287523 0)
(0.013679572 -0.0016997763 0)
(0.014162648 -0.0016697616 0)
(0.014636971 -0.0016387282 0)
(0.015102253 -0.0016066966 0)
(0.01555821 -0.001573688 0)
(0.016004566 -0.0015397242 0)
(0.01644105 -0.0015048274 0)
(0.016867397 -0.0014690207 0)
(0.01728335 -0.0014323275 0)
(0.017688658 -0.0013947719 0)
(0.018083078 -0.0013563785 0)
(0.018466373 -0.0013171722 0)
(0.018838313 -0.0012771787 0)
(0.019198677 -0.0012364238 0)
(0.019547249 -0.0011949342 0)
(0.019883824 -0.0011527366 0)
(0.020208202 -0.0011098583 0)
(0.020520191 -0.0010663269 0)
(0.020819609 -0.0010221705 0)
(0.021106281 -0.00097741734 0)
(0.021380038 -0.0009320961 0)
(0.021640724 -0.00088623574 0)
(0.021888186 -0.00083986547 0)
(0.022122284 -0.00079301478 0)
(0.022342884 -0.00074571337 0)
(0.02254986 -0.00069799115 0)
(0.022743097 -0.00064987823 0)
(0.022922486 -0.00060140489 0)
(0.02308793 -0.00055260152 0)
(0.023239337 -0.00050349868 0)
(0.023376626 -0.00045412701 0)
(0.023499724 -0.00040451723 0)
(0.023608568 -0.00035470013 0)
(0.023703102 -0.00030470653 0)
(0.023783281 -0.00025456728 0)
(0.023849067 -0.00020431322 0)
(0.023900431 -0.00015397518 0)
(0.023937354 -0.00010358393 0)
(0.023959824 -5.3170202e-05 0)
(0.023967841 -2.7646257e-06 0)
(0.02396141 4.7602263e-05 0)
(0.023940548 9.7900059e-05 0)
(0.023905278 0.00014809847 0)
(0.023855632 0.00019816737 0)
(0.023791654 0.0002480768 0)
(0.023713391 0.00029779702 0)
(0.023620904 0.00034729847 0)
(0.023514259 0.00039655184 0)
(0.02339353 0.00044552806 0)
(0.023258803 0.0004941983 0)
(0.023110169 0.00054253403 0)
(0.022947727 0.000590507 0)
(0.022771585 0.00063808927 0)
(0.022581861 0.00068525323 0)
(0.022378677 0.00073197158 0)
(0.022162165 0.00077821741 0)
(0.021932465 0.00082396413 0)
(0.021689723 0.00086918556 0)
(0.021434093 0.0009138559 0)
(0.021165739 0.00095794974 0)
(0.020884827 0.0010014421 0)
(0.020591535 0.0010443084 0)
(0.020286045 0.0010865245 0)
(0.019968547 0.0011280668 0)
(0.019639237 0.001168912 0)
(0.01929832 0.0012090374 0)
(0.018946004 0.0012484206 0)
(0.018582505 0.0012870399 0)
(0.018208045 0.001324874 0)
(0.017822853 0.0013619021 0)
(0.017427163 0.0013981038 0)
(0.017021214 0.0014334594 0)
(0.016605252 0.0014679497 0)
(0.016179528 0.0015015558 0)
(0.015744297 0.0015342597 0)
(0.015299821 0.0015660436 0)
(0.014846366 0.0015968905 0)
(0.014384203 0.0016267838 0)
(0.013913609 0.0016557074 0)
(0.013434862 0.001683646 0)
(0.012948248 0.0017105848 0)
(0.012454056 0.0017365092 0)
(0.011952578 0.0017614058 0)
(0.011444111 0.0017852613 0)
(0.010928955 0.001808063 0)
(0.010407415 0.0018297992 0)
(0.0098797961 0.0018504582 0)
(0.0093464102 0.0018700294 0)
(0.0088075703 0.0018885025 0)
(0.0082635926 0.0019058678 0)
(0.0077147961 0.0019221163 0)
(0.0071615022 0.0019372396 0)
(0.0066040345 0.0019512298 0)
(0.0060427191 0.0019640797 0)
(0.0054778838 0.0019757826 0)
(0.0049098585 0.0019863325 0)
(0.0043389743 0.0019957238 0)
(0.0037655643 0.0020039519 0)
(0.0031899625 0.0020110124 0)
(0.0026125042 0.0020169017 0)
(0.0020335258 0.0020216168 0)
(0.0014533641 0.0020251553 0)
(0.0008723568 0.0020275152 0)
(0.000290842 0.0020286955 0)
(-0.000290842 0.0020286955 0)
(-0.0008723568 0.0020275152 0)
(-0.0014533641 0.0020251553 0)
(-0.0020335258 0.0020216168 0)
(-0.0026125042 0.0020169017 0)
(-0.0031899625 0.0020110124 0)
(-0.0037655643 0.0020039519 0)
(-0.0043389743 0.0019957238 0)
(-0.0049098585 0.0019863325 0)
(-0.0054778838 0.0019757826 0)
(-0.0060427191 0.0019640797 0)
(-0.0066040345 0.0019512298 0)
(-0.0071615022 0.0019372396 0)
(-0.0077147961 0.0019221163 0)
(-0.0082635926 0.0019058678 0)
(-0.0088075703 0.0018885025 0)
(-0.0093464102 0.0018700294 0)
(-0.0098797961 0.0018504582 0)
(-0.010407415 0.0018297992 0)
(-0.010928955 0.001808063 0)
(-0.011444111 0.0017852613 0)
(-0.011952578 0.0017614058 0)
(-0.012454056 0.0017365092 0)
(-0.012948248 0.0017105848 0)
(-0.013434862 0.001683646 0)
(-0.013913609 0.0016557074 0)
(-0.014384203 0.0016267838 0)
(-0.014846366 0.0015968905 0)
(-0.015299821 0.0015660436 0)
(-0.015744297 0.0015342597 0)
(-0.016179528 0.0015015558 0)
(-0.016605252 0.0014679497 0)
(-0.017021214 0.0014334594 0)
(-0.017427163 0.0013981038 0)
(-0.017822853 0.0013619021 0)
(-0.018208045 0.001324874 0)
(-0.018582505 0.0012870399 0)
(-0.018946004 0.0012484206 0)
(-0.01929832 0.0012090374 0)
(-0.019639237 0.001168912 0)
(-0.019968547 0.0011280668 0)
(-0.020286045 0.0010865245 0)
(-0.020591535 0.0010443084 0)
(-0.020884827 0.0010014421 0)
(-0.021165739 0.00095794974 0)
(-0.021434093 0.0009138559 0)
(-0.021689723 0.00086918556 0)
(-0.021932465 0.00082396413 0)
(-0.022162165 0.00077821741 0)
(-0.022378677 0.00073197158 0)