/*--------------------------------*- C++ -*----------------------------------*\
| =========                 |                                                 |
| \\      /  F ield         | OpenFOAM: The Open Source CFD Toolbox           |
|  \\    /   O peration     | Version:  2106                                  |
|   \\  /    A nd           | Website:  www.openfoam.com                      |
|    \\/     M anipulation  |                                                 |
\*---------------------------------------------------------------------------*/
FoamFile
{
    version     2.0;
    format      ascii;
    arch        "LSB;label=32;scalar=64";
    class       volScalarField;
    location    "1.7";
    object      p_rgh;
}
// * * * * * * * * * * * * * * * * * * * * * * * * * * * * * * * * * * * * * //

dimensions      [1 -1 -2 0 0 0 0];

internalField   nonuniform List<scalar> 
90000
(
0.00333333
0.00333336
0.00333343
0.00333352
0.00333364
0.00333379
0.00333397
0.00333418
0.00333442
0.00333469
0.00333499
0.00333531
0.00333566
0.00333604
0.00333644
0.00333687
0.00333733
0.0033378
0.0033383
0.00333882
0.00333936
0.00333993
0.00334051
0.0033411
0.00334172
0.00334235
0.003343
0.00334366
0.00334433
0.00334501
0.00334571
0.00334641
0.00334712
0.00334783
0.00334855
0.00334928
0.00335001
0.00335074
0.00335146
0.00335219
0.00335292
0.00335364
0.00335435
0.00335506
0.00335577
0.00335646
0.00335714
0.00335781
0.00335847
0.00335912
0.00335975
0.00336037
0.00336097
0.00336155
0.00336211
0.00336265
0.00336317
0.00336367
0.00336415
0.0033646
0.00336503
0.00336543
0.00336581
0.00336616
0.00336648
0.00336678
0.00336705
0.00336729
0.0033675
0.00336768
0.00336783
0.00336795
0.00336804
0.00336811
0.00336814
0.00336814
0.00336811
0.00336804
0.00336795
0.00336783
0.00336768
0.0033675
0.00336729
0.00336705
0.00336678
0.00336648
0.00336616
0.00336581
0.00336543
0.00336503
0.0033646
0.00336415
0.00336367
0.00336317
0.00336265
0.00336211
0.00336155
0.00336097
0.00336037
0.00335975
0.00335912
0.00335847
0.00335781
0.00335714
0.00335646
0.00335577
0.00335506
0.00335435
0.00335364
0.00335292
0.00335219
0.00335146
0.00335074
0.00335001
0.00334928
0.00334855
0.00334783
0.00334712
0.00334641
0.00334571
0.00334501
0.00334433
0.00334366
0.003343
0.00334235
0.00334172
0.0033411
0.00334051
0.00333993
0.00333936
0.00333882
0.0033383
0.0033378
0.00333733
0.00333687
0.00333644
0.00333604
0.00333566
0.00333531
0.00333499
0.00333469
0.00333442
0.00333418
0.00333397
0.00333379
0.00333364
0.00333352
0.00333342
0.00333336
0.00333333
0.0033333
0.00333333
0.0033334
0.00333349
0.00333361
0.00333376
0.00333394
0.00333415
0.00333439
0.00333466
0.00333496
0.00333528
0.00333564
0.00333602
0.00333642
0.00333685
0.0033373
0.00333778
0.00333828
0.0033388
0.00333934
0.00333991
0.00334049
0.00334109
0.0033417
0.00334234
0.00334298
0.00334364
0.00334432
0.003345
0.0033457
0.0033464
0.00334711
0.00334783
0.00334855
0.00334928
0.00335001
0.00335074
0.00335147
0.00335219
0.00335292
0.00335364
0.00335436
0.00335507
0.00335577
0.00335647
0.00335715
0.00335783
0.00335849
0.00335913
0.00335977
0.00336038
0.00336098
0.00336156
0.00336213
0.00336267
0.00336319
0.00336369
0.00336417
0.00336462
0.00336505
0.00336546
0.00336583
0.00336619
0.00336651
0.00336681
0.00336708
0.00336732
0.00336753
0.00336771
0.00336786
0.00336798
0.00336807
0.00336814
0.00336817
0.00336817
0.00336814
0.00336807
0.00336798
0.00336786
0.00336771
0.00336753
0.00336732
0.00336708
0.00336681
0.00336651
0.00336619
0.00336583
0.00336546
0.00336505
0.00336462
0.00336417
0.00336369
0.00336319
0.00336267
0.00336213
0.00336156
0.00336098
0.00336038
0.00335977
0.00335913
0.00335849
0.00335783
0.00335715
0.00335647
0.00335577
0.00335507
0.00335436
0.00335364
0.00335292
0.00335219
0.00335147
0.00335074
0.00335001
0.00334928
0.00334855
0.00334783
0.00334711
0.0033464
0.0033457
0.003345
0.00334432
0.00334364
0.00334298
0.00334234
0.0033417
0.00334109
0.00334049
0.00333991
0.00333934
0.0033388
0.00333828
0.00333778
0.0033373
0.00333685
0.00333642
0.00333602
0.00333564
0.00333528
0.00333496
0.00333466
0.00333439
0.00333415
0.00333394
0.00333376
0.00333361
0.00333349
0.00333339
0.00333333
0.0033333
0.00333324
0.00333327
0.00333333
0.00333343
0.00333355
0.0033337
0.00333388
0.0033341
0.00333434
0.00333461
0.00333491
0.00333523
0.00333558
0.00333596
0.00333637
0.0033368
0.00333726
0.00333773
0.00333824
0.00333876
0.0033393
0.00333987
0.00334045
0.00334105
0.00334167
0.00334231
0.00334296
0.00334362
0.0033443
0.00334498
0.00334568
0.00334639
0.0033471
0.00334782
0.00334854
0.00334927
0.00335
0.00335074
0.00335147
0.0033522
0.00335293
0.00335365
0.00335437
0.00335509
0.00335579
0.00335649
0.00335718
0.00335785
0.00335851
0.00335916
0.0033598
0.00336042
0.00336102
0.0033616
0.00336217
0.00336271
0.00336324
0.00336374
0.00336422
0.00336467
0.0033651
0.00336551
0.00336589
0.00336624
0.00336657
0.00336686
0.00336713
0.00336737
0.00336759
0.00336777
0.00336792
0.00336804
0.00336814
0.0033682
0.00336823
0.00336823
0.0033682
0.00336814
0.00336804
0.00336792
0.00336777
0.00336759
0.00336737
0.00336713
0.00336686
0.00336657
0.00336624
0.00336589
0.00336551
0.0033651
0.00336467
0.00336422
0.00336374
0.00336324
0.00336271
0.00336217
0.0033616
0.00336102
0.00336042
0.0033598
0.00335916
0.00335851
0.00335785
0.00335718
0.00335649
0.00335579
0.00335509
0.00335437
0.00335365
0.00335293
0.0033522
0.00335147
0.00335074
0.00335
0.00334927
0.00334854
0.00334782
0.0033471
0.00334639
0.00334568
0.00334498
0.0033443
0.00334362
0.00334296
0.00334231
0.00334167
0.00334105
0.00334045
0.00333987
0.0033393
0.00333876
0.00333824
0.00333773
0.00333726
0.0033368
0.00333637
0.00333596
0.00333558
0.00333523
0.0033349
0.00333461
0.00333434
0.0033341
0.00333388
0.0033337
0.00333355
0.00333343
0.00333333
0.00333327
0.00333324
0.00333315
0.00333318
0.00333324
0.00333334
0.00333346
0.00333361
0.0033338
0.00333401
0.00333425
0.00333452
0.00333482
0.00333515
0.0033355
0.00333589
0.00333629
0.00333673
0.00333718
0.00333767
0.00333817
0.0033387
0.00333924
0.00333981
0.0033404
0.003341
0.00334163
0.00334226
0.00334292
0.00334358
0.00334426
0.00334495
0.00334565
0.00334636
0.00334708
0.0033478
0.00334853
0.00334926
0.00335
0.00335074
0.00335147
0.00335221
0.00335294
0.00335367
0.00335439
0.00335511
0.00335582
0.00335652
0.00335721
0.00335789
0.00335856
0.00335921
0.00335985
0.00336047
0.00336107
0.00336166
0.00336223
0.00336277
0.0033633
0.00336381
0.00336429
0.00336474
0.00336518
0.00336558
0.00336597
0.00336632
0.00336665
0.00336695
0.00336722
0.00336746
0.00336767
0.00336786
0.00336801
0.00336813
0.00336823
0.00336829
0.00336832
0.00336832
0.00336829
0.00336823
0.00336813
0.00336801
0.00336786
0.00336767
0.00336746
0.00336722
0.00336695
0.00336665
0.00336632
0.00336597
0.00336558
0.00336518
0.00336474
0.00336429
0.00336381
0.0033633
0.00336277
0.00336223
0.00336166
0.00336107
0.00336047
0.00335985
0.00335921
0.00335856
0.00335789
0.00335721
0.00335652
0.00335582
0.00335511
0.00335439
0.00335367
0.00335294
0.00335221
0.00335147
0.00335074
0.00335
0.00334926
0.00334853
0.0033478
0.00334708
0.00334636
0.00334565
0.00334495
0.00334426
0.00334358
0.00334292
0.00334226
0.00334163
0.003341
0.0033404
0.00333981
0.00333924
0.0033387
0.00333817
0.00333767
0.00333718
0.00333673
0.00333629
0.00333589
0.0033355
0.00333515
0.00333482
0.00333452
0.00333425
0.00333401
0.0033338
0.00333361
0.00333346
0.00333334
0.00333324
0.00333318
0.00333315
0.00333303
0.00333306
0.00333312
0.00333322
0.00333334
0.00333349
0.00333368
0.00333389
0.00333414
0.00333441
0.00333471
0.00333504
0.0033354
0.00333578
0.00333619
0.00333663
0.00333709
0.00333758
0.00333808
0.00333861
0.00333916
0.00333974
0.00334033
0.00334094
0.00334156
0.0033422
0.00334286
0.00334353
0.00334422
0.00334491
0.00334562
0.00334633
0.00334705
0.00334778
0.00334852
0.00334925
0.00334999
0.00335074
0.00335148
0.00335222
0.00335296
0.00335369
0.00335442
0.00335514
0.00335585
0.00335656
0.00335725
0.00335794
0.00335861
0.00335927
0.00335991
0.00336054
0.00336114
0.00336174
0.00336231
0.00336286
0.00336339
0.0033639
0.00336438
0.00336484
0.00336528
0.00336569
0.00336607
0.00336643
0.00336676
0.00336706
0.00336733
0.00336758
0.00336779
0.00336798
0.00336813
0.00336825
0.00336835
0.00336841
0.00336844
0.00336844
0.00336841
0.00336835
0.00336825
0.00336813
0.00336798
0.00336779
0.00336758
0.00336733
0.00336706
0.00336676
0.00336643
0.00336607
0.00336569
0.00336528
0.00336484
0.00336438
0.0033639
0.00336339
0.00336286
0.00336231
0.00336174
0.00336114
0.00336054
0.00335991
0.00335927
0.00335861
0.00335794
0.00335725
0.00335656
0.00335585
0.00335514
0.00335442
0.00335369
0.00335296
0.00335222
0.00335148
0.00335074
0.00334999
0.00334925
0.00334852
0.00334778
0.00334705
0.00334633
0.00334562
0.00334491
0.00334422
0.00334353
0.00334286
0.0033422
0.00334156
0.00334094
0.00334033
0.00333974
0.00333916
0.00333861
0.00333808
0.00333758
0.00333709
0.00333663
0.00333619
0.00333578
0.0033354
0.00333504
0.00333471
0.00333441
0.00333414
0.00333389
0.00333368
0.00333349
0.00333334
0.00333321
0.00333312
0.00333306
0.00333303
0.00333288
0.00333291
0.00333297
0.00333306
0.00333319
0.00333334
0.00333353
0.00333375
0.00333399
0.00333427
0.00333457
0.00333491
0.00333527
0.00333565
0.00333607
0.00333651
0.00333697
0.00333746
0.00333797
0.00333851
0.00333906
0.00333964
0.00334024
0.00334085
0.00334148
0.00334213
0.00334279
0.00334347
0.00334416
0.00334486
0.00334557
0.00334629
0.00334702
0.00334776
0.0033485
0.00334924
0.00334999
0.00335074
0.00335148
0.00335223
0.00335297
0.00335371
0.00335445
0.00335518
0.0033559
0.00335661
0.00335731
0.003358
0.00335868
0.00335934
0.00335999
0.00336062
0.00336123
0.00336183
0.00336241
0.00336296
0.0033635
0.00336401
0.0033645
0.00336496
0.0033654
0.00336582
0.0033662
0.00336657
0.0033669
0.0033672
0.00336748
0.00336772
0.00336794
0.00336813
0.00336828
0.00336841
0.0033685
0.00336856
0.00336859
0.00336859
0.00336856
0.0033685
0.00336841
0.00336828
0.00336813
0.00336794
0.00336772
0.00336748
0.0033672
0.0033669
0.00336657
0.0033662
0.00336582
0.0033654
0.00336496
0.0033645
0.00336401
0.0033635
0.00336296
0.00336241
0.00336183
0.00336123
0.00336062
0.00335999
0.00335934
0.00335868
0.003358
0.00335731
0.00335661
0.0033559
0.00335518
0.00335445
0.00335371
0.00335297
0.00335223
0.00335148
0.00335074
0.00334999
0.00334924
0.0033485
0.00334776
0.00334702
0.00334629
0.00334557
0.00334486
0.00334416
0.00334347
0.00334279
0.00334213
0.00334148
0.00334085
0.00334024
0.00333964
0.00333906
0.00333851
0.00333797
0.00333746
0.00333697
0.00333651
0.00333607
0.00333565
0.00333527
0.00333491
0.00333457
0.00333427
0.00333399
0.00333375
0.00333353
0.00333334
0.00333319
0.00333306
0.00333297
0.00333291
0.00333287
0.00333269
0.00333272
0.00333279
0.00333288
0.00333301
0.00333316
0.00333335
0.00333357
0.00333382
0.0033341
0.00333441
0.00333474
0.00333511
0.0033355
0.00333592
0.00333636
0.00333683
0.00333732
0.00333784
0.00333838
0.00333894
0.00333953
0.00334013
0.00334075
0.00334139
0.00334204
0.00334271
0.0033434
0.00334409
0.0033448
0.00334552
0.00334625
0.00334698
0.00334773
0.00334847
0.00334923
0.00334998
0.00335074
0.00335149
0.00335225
0.003353
0.00335375
0.00335449
0.00335522
0.00335595
0.00335667
0.00335738
0.00335808
0.00335876
0.00335943
0.00336008
0.00336072
0.00336134
0.00336195
0.00336253
0.00336309
0.00336363
0.00336415
0.00336464
0.00336511
0.00336555
0.00336597
0.00336636
0.00336673
0.00336707
0.00336737
0.00336765
0.0033679
0.00336812
0.00336831
0.00336846
0.00336859
0.00336868
0.00336875
0.00336878
0.00336878
0.00336875
0.00336868
0.00336859
0.00336846
0.00336831
0.00336812
0.0033679
0.00336765
0.00336737
0.00336707
0.00336673
0.00336636
0.00336597
0.00336555
0.00336511
0.00336464
0.00336415
0.00336363
0.00336309
0.00336253
0.00336195
0.00336134
0.00336072
0.00336008
0.00335943
0.00335876
0.00335808
0.00335738
0.00335667
0.00335595
0.00335522
0.00335449
0.00335375
0.003353
0.00335225
0.00335149
0.00335074
0.00334998
0.00334923
0.00334847
0.00334773
0.00334698
0.00334625
0.00334552
0.0033448
0.00334409
0.0033434
0.00334271
0.00334204
0.00334139
0.00334075
0.00334013
0.00333953
0.00333894
0.00333838
0.00333784
0.00333732
0.00333683
0.00333636
0.00333592
0.0033355
0.00333511
0.00333474
0.00333441
0.0033341
0.00333382
0.00333357
0.00333335
0.00333316
0.00333301
0.00333288
0.00333279
0.00333272
0.00333269
0.00333247
0.00333251
0.00333257
0.00333267
0.00333279
0.00333295
0.00333314
0.00333337
0.00333362
0.0033339
0.00333421
0.00333455
0.00333492
0.00333532
0.00333574
0.00333619
0.00333666
0.00333716
0.00333769
0.00333823
0.0033388
0.00333939
0.00334
0.00334063
0.00334128
0.00334194
0.00334262
0.00334331
0.00334401
0.00334473
0.00334546
0.00334619
0.00334694
0.00334769
0.00334845
0.00334921
0.00334997
0.00335074
0.0033515
0.00335226
0.00335302
0.00335378
0.00335453
0.00335528
0.00335601
0.00335674
0.00335746
0.00335816
0.00335886
0.00335953
0.0033602
0.00336084
0.00336147
0.00336208
0.00336267
0.00336324
0.00336378
0.00336431
0.00336481
0.00336528
0.00336573
0.00336616
0.00336655
0.00336692
0.00336726
0.00336757
0.00336785
0.00336811
0.00336833
0.00336852
0.00336868
0.0033688
0.0033689
0.00336896
0.00336899
0.00336899
0.00336896
0.0033689
0.0033688
0.00336868
0.00336852
0.00336833
0.00336811
0.00336785
0.00336757
0.00336726
0.00336692
0.00336655
0.00336616
0.00336573
0.00336528
0.00336481
0.00336431
0.00336378
0.00336324
0.00336267
0.00336208
0.00336147
0.00336084
0.0033602
0.00335953
0.00335886
0.00335816
0.00335746
0.00335674
0.00335601
0.00335528
0.00335453
0.00335378
0.00335302
0.00335226
0.0033515
0.00335074
0.00334997
0.00334921
0.00334845
0.00334769
0.00334694
0.00334619
0.00334546
0.00334473
0.00334401
0.00334331
0.00334262
0.00334194
0.00334128
0.00334063
0.00334
0.00333939
0.0033388
0.00333823
0.00333769
0.00333716
0.00333666
0.00333619
0.00333574
0.00333532
0.00333492
0.00333455
0.00333421
0.0033339
0.00333362
0.00333337
0.00333314
0.00333295
0.00333279
0.00333267
0.00333257
0.00333251
0.00333247
0.00333223
0.00333226
0.00333232
0.00333242
0.00333255
0.00333271
0.00333291
0.00333313
0.00333338
0.00333367
0.00333399
0.00333433
0.0033347
0.00333511
0.00333553
0.00333599
0.00333647
0.00333698
0.00333751
0.00333806
0.00333864
0.00333924
0.00333986
0.00334049
0.00334115
0.00334182
0.00334251
0.00334321
0.00334392
0.00334465
0.00334539
0.00334613
0.00334689
0.00334765
0.00334842
0.00334919
0.00334996
0.00335074
0.00335151
0.00335228
0.00335306
0.00335382
0.00335458
0.00335534
0.00335609
0.00335682
0.00335755
0.00335826
0.00335897
0.00335965
0.00336033
0.00336098
0.00336162
0.00336223
0.00336283
0.00336341
0.00336396
0.00336449
0.003365
0.00336548
0.00336594
0.00336637
0.00336677
0.00336714
0.00336749
0.0033678
0.00336809
0.00336834
0.00336857
0.00336876
0.00336892
0.00336905
0.00336915
0.00336921
0.00336924
0.00336924
0.00336921
0.00336915
0.00336905
0.00336892
0.00336876
0.00336857
0.00336834
0.00336809
0.0033678
0.00336749
0.00336714
0.00336677
0.00336637
0.00336594
0.00336548
0.003365
0.00336449
0.00336396
0.00336341
0.00336283
0.00336223
0.00336162
0.00336098
0.00336033
0.00335965
0.00335897
0.00335827
0.00335755
0.00335682
0.00335609
0.00335534
0.00335458
0.00335382
0.00335306
0.00335228
0.00335151
0.00335074
0.00334996
0.00334919
0.00334842
0.00334765
0.00334689
0.00334613
0.00334539
0.00334465
0.00334392
0.00334321
0.00334251
0.00334182
0.00334115
0.00334049
0.00333986
0.00333924
0.00333864
0.00333806
0.00333751
0.00333698
0.00333647
0.00333599
0.00333553
0.00333511
0.0033347
0.00333433
0.00333399
0.00333367
0.00333338
0.00333313
0.0033329
0.00333271
0.00333255
0.00333242
0.00333232
0.00333226
0.00333223
0.00333195
0.00333198
0.00333204
0.00333214
0.00333227
0.00333244
0.00333263
0.00333286
0.00333312
0.00333341
0.00333373
0.00333408
0.00333446
0.00333487
0.0033353
0.00333577
0.00333626
0.00333677
0.00333731
0.00333787
0.00333846
0.00333906
0.00333969
0.00334034
0.003341
0.00334168
0.00334238
0.00334309
0.00334382
0.00334456
0.0033453
0.00334606
0.00334683
0.0033476
0.00334838
0.00334916
0.00334995
0.00335074
0.00335152
0.00335231
0.00335309
0.00335387
0.00335464
0.00335541
0.00335617
0.00335692
0.00335765
0.00335838
0.00335909
0.00335979
0.00336047
0.00336114
0.00336178
0.00336241
0.00336301
0.0033636
0.00336416
0.0033647
0.00336522
0.0033657
0.00336617
0.0033666
0.00336701
0.00336739
0.00336774
0.00336806
0.00336835
0.00336861
0.00336884
0.00336903
0.0033692
0.00336933
0.00336943
0.00336949
0.00336952
0.00336952
0.00336949
0.00336943
0.00336933
0.0033692
0.00336903
0.00336884
0.00336861
0.00336835
0.00336806
0.00336774
0.00336739
0.00336701
0.0033666
0.00336617
0.0033657
0.00336522
0.0033647
0.00336416
0.0033636
0.00336301
0.00336241
0.00336178
0.00336114
0.00336047
0.00335979
0.00335909
0.00335838
0.00335765
0.00335692
0.00335617
0.00335541
0.00335464
0.00335387
0.00335309
0.00335231
0.00335152
0.00335074
0.00334995
0.00334916
0.00334838
0.0033476
0.00334683
0.00334606
0.0033453
0.00334456
0.00334382
0.00334309
0.00334238
0.00334168
0.003341
0.00334034
0.00333969
0.00333906
0.00333846
0.00333787
0.00333731
0.00333677
0.00333626
0.00333577
0.0033353
0.00333487
0.00333446
0.00333408
0.00333373
0.00333341
0.00333312
0.00333286
0.00333263
0.00333244
0.00333227
0.00333214
0.00333204
0.00333198
0.00333195
0.00333163
0.00333167
0.00333173
0.00333183
0.00333197
0.00333213
0.00333233
0.00333256
0.00333283
0.00333312
0.00333345
0.0033338
0.00333419
0.0033346
0.00333505
0.00333552
0.00333601
0.00333654
0.00333709
0.00333766
0.00333825
0.00333887
0.00333951
0.00334016
0.00334084
0.00334153
0.00334224
0.00334296
0.0033437
0.00334445
0.00334521
0.00334598
0.00334676
0.00334755
0.00334834
0.00334914
0.00334994
0.00335074
0.00335154
0.00335233
0.00335313
0.00335392
0.00335471
0.00335549
0.00335626
0.00335702
0.00335777
0.00335851
0.00335923
0.00335994
0.00336063
0.00336131
0.00336197
0.0033626
0.00336322
0.00336381
0.00336439
0.00336493
0.00336546
0.00336595
0.00336642
0.00336687
0.00336728
0.00336767
0.00336802
0.00336835
0.00336864
0.00336891
0.00336914
0.00336934
0.0033695
0.00336964
0.00336974
0.0033698
0.00336984
0.00336984
0.0033698
0.00336974
0.00336964
0.0033695
0.00336934
0.00336914
0.00336891
0.00336864
0.00336835
0.00336802
0.00336767
0.00336728
0.00336687
0.00336642
0.00336595
0.00336546
0.00336493
0.00336439
0.00336381
0.00336322
0.0033626
0.00336197
0.00336131
0.00336063
0.00335994
0.00335923
0.00335851
0.00335777
0.00335702
0.00335626
0.00335549
0.00335471
0.00335392
0.00335313
0.00335233
0.00335154
0.00335074
0.00334994
0.00334914
0.00334834
0.00334755
0.00334676
0.00334598
0.00334521
0.00334445
0.0033437
0.00334296
0.00334224
0.00334153
0.00334084
0.00334016
0.00333951
0.00333887
0.00333825
0.00333766
0.00333709
0.00333654
0.00333601
0.00333552
0.00333505
0.0033346
0.00333419
0.0033338
0.00333345
0.00333312
0.00333283
0.00333256
0.00333233
0.00333213
0.00333197
0.00333183
0.00333173
0.00333167
0.00333163
0.00333128
0.00333132
0.00333139
0.00333149
0.00333163
0.0033318
0.003332
0.00333223
0.0033325
0.0033328
0.00333313
0.0033335
0.00333389
0.00333431
0.00333476
0.00333524
0.00333575
0.00333628
0.00333684
0.00333742
0.00333802
0.00333865
0.0033393
0.00333997
0.00334066
0.00334136
0.00334209
0.00334282
0.00334357
0.00334434
0.00334511
0.0033459
0.00334669
0.00334749
0.0033483
0.00334911
0.00334992
0.00335074
0.00335155
0.00335236
0.00335317
0.00335398
0.00335478
0.00335557
0.00335636
0.00335713
0.0033579
0.00335865
0.00335939
0.00336011
0.00336081
0.0033615
0.00336217
0.00336282
0.00336345
0.00336405
0.00336463
0.00336519
0.00336572
0.00336623
0.00336671
0.00336716
0.00336758
0.00336798
0.00336834
0.00336867
0.00336897
0.00336924
0.00336947
0.00336967
0.00336984
0.00336998
0.00337008
0.00337015
0.00337018
0.00337018
0.00337015
0.00337008
0.00336998
0.00336984
0.00336967
0.00336947
0.00336924
0.00336897
0.00336867
0.00336834
0.00336798
0.00336758
0.00336716
0.00336671
0.00336623
0.00336572
0.00336519
0.00336463
0.00336405
0.00336345
0.00336282
0.00336217
0.0033615
0.00336081
0.00336011
0.00335939
0.00335865
0.0033579
0.00335713
0.00335636
0.00335557
0.00335478
0.00335398
0.00335317
0.00335236
0.00335155
0.00335074
0.00334992
0.00334911
0.0033483
0.00334749
0.00334669
0.0033459
0.00334511
0.00334434
0.00334357
0.00334282
0.00334209
0.00334136
0.00334066
0.00333997
0.0033393
0.00333865
0.00333802
0.00333742
0.00333684
0.00333628
0.00333575
0.00333524
0.00333476
0.00333431
0.00333389
0.0033335
0.00333313
0.0033328
0.0033325
0.00333223
0.003332
0.0033318
0.00333163
0.00333149
0.00333139
0.00333132
0.00333128
0.0033309
0.00333094
0.00333101
0.00333111
0.00333125
0.00333142
0.00333163
0.00333187
0.00333214
0.00333245
0.00333279
0.00333316
0.00333356
0.00333399
0.00333445
0.00333494
0.00333545
0.003336
0.00333656
0.00333716
0.00333778
0.00333842
0.00333908
0.00333976
0.00334046
0.00334118
0.00334192
0.00334267
0.00334343
0.00334421
0.003345
0.0033458
0.00334661
0.00334743
0.00334825
0.00334908
0.00334991
0.00335074
0.00335157
0.0033524
0.00335322
0.00335404
0.00335486
0.00335567
0.00335647
0.00335726
0.00335804
0.0033588
0.00335955
0.00336029
0.00336101
0.00336171
0.00336239
0.00336306
0.0033637
0.00336431
0.00336491
0.00336548
0.00336602
0.00336653
0.00336702
0.00336748
0.00336791
0.00336831
0.00336868
0.00336902
0.00336933
0.0033696
0.00336984
0.00337005
0.00337022
0.00337036
0.00337046
0.00337053
0.00337057
0.00337057
0.00337053
0.00337046
0.00337036
0.00337022
0.00337005
0.00336984
0.0033696
0.00336933
0.00336902
0.00336868
0.00336831
0.00336791
0.00336748
0.00336702
0.00336653
0.00336602
0.00336548
0.00336491
0.00336431
0.0033637
0.00336306
0.00336239
0.00336171
0.00336101
0.00336029
0.00335955
0.0033588
0.00335804
0.00335726
0.00335647
0.00335567
0.00335486
0.00335404
0.00335322
0.0033524
0.00335157
0.00335074
0.00334991
0.00334908
0.00334825
0.00334743
0.00334661
0.0033458
0.003345
0.00334421
0.00334343
0.00334267
0.00334192
0.00334118
0.00334046
0.00333976
0.00333908
0.00333842
0.00333778
0.00333716
0.00333656
0.003336
0.00333545
0.00333494
0.00333445
0.00333399
0.00333356
0.00333316
0.00333279
0.00333245
0.00333214
0.00333187
0.00333163
0.00333142
0.00333125
0.00333111
0.00333101
0.00333094
0.0033309
0.00333049
0.00333052
0.00333059
0.0033307
0.00333084
0.00333102
0.00333123
0.00333148
0.00333175
0.00333207
0.00333241
0.00333279
0.0033332
0.00333364
0.00333411
0.00333461
0.00333513
0.00333569
0.00333627
0.00333687
0.0033375
0.00333816
0.00333883
0.00333953
0.00334025
0.00334098
0.00334173
0.0033425
0.00334328
0.00334408
0.00334488
0.0033457
0.00334653
0.00334736
0.0033482
0.00334904
0.00334989
0.00335074
0.00335158
0.00335243
0.00335327
0.00335411
0.00335495
0.00335577
0.00335659
0.0033574
0.00335819
0.00335897
0.00335974
0.00336049
0.00336123
0.00336194
0.00336264
0.00336331
0.00336397
0.0033646
0.0033652
0.00336578
0.00336634
0.00336687
0.00336736
0.00336783
0.00336827
0.00336868
0.00336906
0.0033694
0.00336972
0.00336999
0.00337024
0.00337045
0.00337063
0.00337077
0.00337088
0.00337095
0.00337098
0.00337098
0.00337095
0.00337088
0.00337077
0.00337063
0.00337045
0.00337024
0.00336999
0.00336972
0.0033694
0.00336906
0.00336868
0.00336827
0.00336783
0.00336736
0.00336687
0.00336634
0.00336578
0.0033652
0.0033646
0.00336397
0.00336331
0.00336264
0.00336194
0.00336123
0.00336049
0.00335974
0.00335897
0.00335819
0.0033574
0.00335659
0.00335577
0.00335495
0.00335411
0.00335327
0.00335243
0.00335158
0.00335074
0.00334989
0.00334904
0.0033482
0.00334736
0.00334653
0.0033457
0.00334488
0.00334408
0.00334328
0.0033425
0.00334173
0.00334098
0.00334025
0.00333953
0.00333883
0.00333816
0.0033375
0.00333687
0.00333627
0.00333569
0.00333513
0.00333461
0.00333411
0.00333364
0.0033332
0.00333279
0.00333241
0.00333207
0.00333175
0.00333148
0.00333123
0.00333102
0.00333084
0.0033307
0.00333059
0.00333052
0.00333049
0.00333004
0.00333007
0.00333015
0.00333025
0.0033304
0.00333058
0.0033308
0.00333105
0.00333133
0.00333165
0.003332
0.00333239
0.00333281
0.00333326
0.00333374
0.00333425
0.00333478
0.00333535
0.00333595
0.00333656
0.00333721
0.00333788
0.00333857
0.00333928
0.00334001
0.00334076
0.00334153
0.00334232
0.00334312
0.00334393
0.00334475
0.00334559
0.00334643
0.00334728
0.00334814
0.003349
0.00334987
0.00335074
0.0033516
0.00335247
0.00335333
0.00335419
0.00335504
0.00335588
0.00335672
0.00335754
0.00335836
0.00335916
0.00335994
0.00336071
0.00336146
0.00336219
0.0033629
0.00336359
0.00336426
0.00336491
0.00336553
0.00336612
0.00336669
0.00336723
0.00336773
0.00336821
0.00336866
0.00336908
0.00336947
0.00336982
0.00337014
0.00337042
0.00337067
0.00337089
0.00337107
0.00337122
0.00337132
0.0033714
0.00337143
0.00337143
0.0033714
0.00337132
0.00337122
0.00337107
0.00337089
0.00337067
0.00337042
0.00337014
0.00336982
0.00336947
0.00336908
0.00336866
0.00336821
0.00336773
0.00336723
0.00336669
0.00336612
0.00336553
0.00336491
0.00336426
0.00336359
0.0033629
0.00336219
0.00336146
0.00336071
0.00335994
0.00335916
0.00335836
0.00335754
0.00335672
0.00335588
0.00335504
0.00335419
0.00335333
0.00335247
0.0033516
0.00335074
0.00334987
0.003349
0.00334814
0.00334728
0.00334643
0.00334559
0.00334475
0.00334393
0.00334312
0.00334232
0.00334153
0.00334076
0.00334001
0.00333928
0.00333857
0.00333788
0.00333721
0.00333656
0.00333595
0.00333535
0.00333478
0.00333425
0.00333374
0.00333326
0.00333281
0.00333239
0.003332
0.00333165
0.00333133
0.00333105
0.0033308
0.00333058
0.0033304
0.00333025
0.00333015
0.00333007
0.00333004
0.00332955
0.00332959
0.00332966
0.00332977
0.00332992
0.0033301
0.00333033
0.00333058
0.00333087
0.0033312
0.00333156
0.00333196
0.00333238
0.00333284
0.00333334
0.00333386
0.00333441
0.00333499
0.0033356
0.00333623
0.00333689
0.00333757
0.00333828
0.00333901
0.00333976
0.00334053
0.00334131
0.00334212
0.00334294
0.00334377
0.00334461
0.00334547
0.00334633
0.0033472
0.00334808
0.00334896
0.00334985
0.00335074
0.00335162
0.00335251
0.00335339
0.00335427
0.00335514
0.00335601
0.00335686
0.0033577
0.00335854
0.00335935
0.00336016
0.00336094
0.00336171
0.00336246
0.00336319
0.0033639
0.00336458
0.00336524
0.00336587
0.00336648
0.00336706
0.00336761
0.00336814
0.00336863
0.00336909
0.00336951
0.00336991
0.00337027
0.0033706
0.00337089
0.00337114
0.00337137
0.00337155
0.0033717
0.00337181
0.00337188
0.00337192
0.00337192
0.00337188
0.00337181
0.0033717
0.00337155
0.00337137
0.00337114
0.00337089
0.0033706
0.00337027
0.00336991
0.00336951
0.00336909
0.00336863
0.00336814
0.00336761
0.00336706
0.00336648
0.00336588
0.00336524
0.00336458
0.0033639
0.00336319
0.00336246
0.00336171
0.00336094
0.00336016
0.00335935
0.00335854
0.0033577
0.00335686
0.00335601
0.00335514
0.00335427
0.00335339
0.00335251
0.00335162
0.00335074
0.00334985
0.00334896
0.00334808
0.0033472
0.00334633
0.00334547
0.00334461
0.00334377
0.00334294
0.00334212
0.00334131
0.00334053
0.00333976
0.00333901
0.00333828
0.00333757
0.00333689
0.00333623
0.0033356
0.00333499
0.00333441
0.00333386
0.00333334
0.00333284
0.00333238
0.00333196
0.00333156
0.0033312
0.00333087
0.00333058
0.00333033
0.0033301
0.00332992
0.00332977
0.00332966
0.00332959
0.00332955
0.00332902
0.00332906
0.00332914
0.00332925
0.0033294
0.00332959
0.00332982
0.00333008
0.00333038
0.00333072
0.00333109
0.00333149
0.00333193
0.0033324
0.0033329
0.00333344
0.003334
0.0033346
0.00333522
0.00333587
0.00333655
0.00333725
0.00333797
0.00333872
0.00333949
0.00334028
0.00334108
0.0033419
0.00334274
0.00334359
0.00334446
0.00334534
0.00334622
0.00334711
0.00334801
0.00334892
0.00334983
0.00335074
0.00335165
0.00335255
0.00335346
0.00335436
0.00335525
0.00335614
0.00335701
0.00335788
0.00335873
0.00335957
0.00336039
0.0033612
0.00336198
0.00336275
0.0033635
0.00336422
0.00336492
0.0033656
0.00336625
0.00336687
0.00336747
0.00336803
0.00336857
0.00336907
0.00336954
0.00336998
0.00337038
0.00337075
0.00337109
0.00337139
0.00337165
0.00337188
0.00337207
0.00337222
0.00337233
0.00337241
0.00337245
0.00337245
0.00337241
0.00337233
0.00337222
0.00337207
0.00337188
0.00337165
0.00337139
0.00337109
0.00337075
0.00337038
0.00336998
0.00336954
0.00336907
0.00336857
0.00336803
0.00336747
0.00336687
0.00336625
0.0033656
0.00336492
0.00336422
0.0033635
0.00336275
0.00336198
0.0033612
0.00336039
0.00335957
0.00335873
0.00335788
0.00335701
0.00335614
0.00335525
0.00335436
0.00335346
0.00335255
0.00335165
0.00335074
0.00334983
0.00334892
0.00334801
0.00334711
0.00334622
0.00334534
0.00334446
0.00334359
0.00334274
0.0033419
0.00334108
0.00334028
0.00333949
0.00333872
0.00333797
0.00333725
0.00333655
0.00333587
0.00333522
0.0033346
0.003334
0.00333344
0.0033329
0.0033324
0.00333193
0.00333149
0.00333109
0.00333072
0.00333038
0.00333008
0.00332982
0.00332959
0.0033294
0.00332925
0.00332914
0.00332906
0.00332902
0.00332846
0.0033285
0.00332858
0.0033287
0.00332885
0.00332905
0.00332928
0.00332955
0.00332985
0.0033302
0.00333058
0.00333099
0.00333144
0.00333193
0.00333244
0.00333299
0.00333357
0.00333418
0.00333482
0.00333549
0.00333618
0.0033369
0.00333764
0.00333841
0.0033392
0.00334
0.00334083
0.00334168
0.00334254
0.00334341
0.0033443
0.0033452
0.0033461
0.00334702
0.00334794
0.00334887
0.0033498
0.00335074
0.00335167
0.0033526
0.00335353
0.00335445
0.00335537
0.00335628
0.00335717
0.00335806
0.00335894
0.0033598
0.00336064
0.00336147
0.00336228
0.00336306
0.00336383
0.00336457
0.00336529
0.00336599
0.00336665
0.00336729
0.0033679
0.00336848
0.00336903
0.00336955
0.00337003
0.00337048
0.00337089
0.00337127
0.00337162
0.00337192
0.00337219
0.00337242
0.00337262
0.00337277
0.00337289
0.00337297
0.00337301
0.00337301
0.00337297
0.00337289
0.00337277
0.00337262
0.00337242
0.00337219
0.00337192
0.00337162
0.00337127
0.00337089
0.00337048
0.00337003
0.00336955
0.00336903
0.00336848
0.0033679
0.00336729
0.00336665
0.00336599
0.00336529
0.00336457
0.00336383
0.00336306
0.00336228
0.00336147
0.00336064
0.0033598
0.00335894
0.00335806
0.00335717
0.00335628
0.00335537
0.00335445
0.00335353
0.0033526
0.00335167
0.00335074
0.0033498
0.00334887
0.00334794
0.00334702
0.0033461
0.0033452
0.0033443
0.00334341
0.00334254
0.00334168
0.00334083