/*--------------------------------*- C++ -*----------------------------------*\
| =========                 |                                                 |
| \\      /  F ield         | OpenFOAM: The Open Source CFD Toolbox           |
|  \\    /   O peration     | Version:  2106                                  |
|   \\  /    A nd           | Website:  www.openfoam.com                      |
|    \\/     M anipulation  |                                                 |
\*---------------------------------------------------------------------------*/
FoamFile
{
    version     2.0;
    format      ascii;
    arch        "LSB;label=32;scalar=64";
    class       surfaceScalarField;
    location    "1.7";
    object      phi_0;
}
// * * * * * * * * * * * * * * * * * * * * * * * * * * * * * * * * * * * * * //

dimensions      [0 3 -1 0 0 0 0];

oriented        oriented;

internalField   nonuniform List<scalar> 
179250
(
-1.05871e-08
1.0598e-08
-2.11556e-08
1.05693e-08
-3.16812e-08
1.05261e-08
-4.21478e-08
1.04669e-08
-5.2538e-08
1.03903e-08
-6.28342e-08
1.02963e-08
-7.30189e-08
1.01848e-08
-8.30747e-08
1.00558e-08
-9.29841e-08
9.90943e-09
-1.0273e-07
9.74589e-09
-1.12295e-07
9.56539e-09
-1.21664e-07
9.36821e-09
-1.30818e-07
9.15467e-09
-1.39743e-07
8.92511e-09
-1.48423e-07
8.67994e-09
-1.56843e-07
8.41958e-09
-1.64987e-07
8.14446e-09
-1.72842e-07
7.85507e-09
-1.80394e-07
7.55191e-09
-1.8763e-07
7.23551e-09
-1.94536e-07
6.90643e-09
-2.01102e-07
6.56523e-09
-2.07314e-07
6.21253e-09
-2.13163e-07
5.84892e-09
-2.18638e-07
5.47506e-09
-2.2373e-07
5.09159e-09
-2.28429e-07
4.69919e-09
-2.32727e-07
4.29855e-09
-2.36618e-07
3.89037e-09
-2.40093e-07
3.47536e-09
-2.43147e-07
3.05426e-09
-2.45775e-07
2.62779e-09
-2.47972e-07
2.19672e-09
-2.49734e-07
1.76179e-09
-2.51057e-07
1.32376e-09
-2.51941e-07
8.83416e-10
-2.52382e-07
4.41517e-10
-2.52381e-07
-1.15869e-12
-2.51937e-07
-4.43835e-10
-2.51052e-07
-8.85735e-10
-2.49726e-07
-1.32608e-09
-2.47961e-07
-1.76411e-09
-2.45762e-07
-2.19904e-09
-2.43132e-07
-2.63012e-09
-2.40076e-07
-3.05659e-09
-2.36598e-07
-3.4777e-09
-2.32705e-07
-3.89271e-09
-2.28404e-07
-4.3009e-09
-2.23703e-07
-4.70154e-09
-2.18609e-07
-5.09394e-09
-2.13131e-07
-5.4774e-09
-2.0728e-07
-5.85126e-09
-2.01065e-07
-6.21486e-09
-1.94498e-07
-6.56755e-09
-1.87589e-07
-6.90873e-09
-1.80351e-07
-7.23779e-09
-1.72797e-07
-7.55416e-09
-1.6494e-07
-7.85727e-09
-1.56793e-07
-8.14661e-09
-1.48372e-07
-8.42165e-09
-1.3969e-07
-8.68192e-09
-1.30763e-07
-8.92697e-09
-1.21606e-07
-9.15635e-09
-1.12237e-07
-9.36967e-09
-1.0267e-07
-9.56656e-09
-9.29235e-08
-9.74666e-09
-8.30138e-08
-9.90967e-09
-7.29585e-08
-1.00553e-08
-6.27752e-08
-1.01833e-08
-5.24818e-08
-1.02934e-08
-4.20963e-08
-1.03855e-08
-3.1637e-08
-1.04593e-08
-2.11222e-08
-1.05148e-08
-1.05703e-08
-1.05519e-08
8.60736e-14
-1.05704e-08
1.05705e-08
-1.05704e-08
2.11224e-08
-1.05519e-08
3.16372e-08
-1.05148e-08
4.20965e-08
-1.04593e-08
5.2482e-08
-1.03855e-08
6.27754e-08
-1.02934e-08
7.29587e-08
-1.01833e-08
8.3014e-08
-1.00553e-08
9.29237e-08
-9.90967e-09
1.0267e-07
-9.74666e-09
1.12237e-07
-9.56656e-09
1.21607e-07
-9.36967e-09
1.30763e-07
-9.15635e-09
1.3969e-07
-8.92697e-09
1.48372e-07
-8.68192e-09
1.56793e-07
-8.42165e-09
1.6494e-07
-8.14661e-09
1.72797e-07
-7.85728e-09
1.80351e-07
-7.55416e-09
1.87589e-07
-7.2378e-09
1.94498e-07
-6.90874e-09
2.01066e-07
-6.56756e-09
2.0728e-07
-6.21486e-09
2.13132e-07
-5.85127e-09
2.18609e-07
-5.47741e-09
2.23703e-07
-5.09394e-09
2.28405e-07
-4.70154e-09
2.32705e-07
-4.3009e-09
2.36598e-07
-3.89272e-09
2.40076e-07
-3.47771e-09
2.43133e-07
-3.0566e-09
2.45763e-07
-2.63013e-09
2.47962e-07
-2.19905e-09
2.49726e-07
-1.76412e-09
2.51052e-07
-1.32609e-09
2.51938e-07
-8.85743e-10
2.52382e-07
-4.43841e-10
2.52383e-07
-1.16462e-12
2.51941e-07
4.41511e-10
2.51058e-07
8.8341e-10
2.49734e-07
1.32376e-09
2.47972e-07
1.76178e-09
2.45776e-07
2.19671e-09
2.43148e-07
2.62778e-09
2.40093e-07
3.05424e-09
2.36618e-07
3.47535e-09
2.32728e-07
3.89035e-09
2.28429e-07
4.29854e-09
2.2373e-07
4.69918e-09
2.18638e-07
5.09157e-09
2.13163e-07
5.47504e-09
2.07315e-07
5.8489e-09
2.01102e-07
6.2125e-09
1.94537e-07
6.56521e-09
1.8763e-07
6.9064e-09
1.80395e-07
7.23548e-09
1.72843e-07
7.55188e-09
1.64988e-07
7.85503e-09
1.56844e-07
8.14442e-09
1.48424e-07
8.41953e-09
1.39744e-07
8.67989e-09
1.30819e-07
8.92505e-09
1.21665e-07
9.15459e-09
1.12296e-07
9.36812e-09
1.02731e-07
9.56529e-09
9.29854e-08
9.74576e-09
8.30761e-08
9.90927e-09
7.30205e-08
1.00556e-08
6.28361e-08
1.01845e-08
5.25402e-08
1.02959e-08
4.21505e-08
1.03897e-08
3.16844e-08
1.0466e-08
2.11595e-08
1.0525e-08
1.05925e-08
1.0567e-08
1.05925e-08
-1.06158e-08
2.12144e-08
-2.12078e-08
2.11621e-08
-3.1758e-08
2.10768e-08
-4.22492e-08
2.09582e-08
-5.26638e-08
2.0805e-08
-6.29844e-08
2.06169e-08
-7.31932e-08
2.03937e-08
-8.32728e-08
2.01354e-08
-9.32058e-08
1.98424e-08
-1.02975e-07
1.95149e-08
-1.12563e-07
1.91535e-08
-1.21953e-07
1.87587e-08
-1.3113e-07
1.83311e-08
-1.40076e-07
1.78715e-08
-1.48777e-07
1.73805e-08
-1.57216e-07
1.68592e-08
-1.6538e-07
1.63083e-08
-1.73254e-07
1.57288e-08
-1.80824e-07
1.51218e-08
-1.88077e-07
1.44883e-08
-1.95e-07
1.38293e-08
-2.0158e-07
1.31461e-08
-2.07808e-07
1.24398e-08
-2.13671e-07
1.17118e-08
-2.19159e-07
1.09632e-08
-2.24262e-07
1.01953e-08
-2.28973e-07
9.40958e-09
-2.33282e-07
8.60734e-09
-2.37181e-07
7.79001e-09
-2.40665e-07
6.959e-09
-2.43726e-07
6.11579e-09
-2.4636e-07
5.26185e-09
-2.48562e-07
4.39867e-09
-2.50328e-07
3.52777e-09
-2.51655e-07
2.65069e-09
-2.52541e-07
1.76894e-09
-2.52983e-07
8.84093e-10
-2.52982e-07
-2.31298e-12
-2.52537e-07
-8.8872e-10
-2.5165e-07
-1.77357e-09
-2.5032e-07
-2.65532e-09
-2.48552e-07
-3.53242e-09
-2.46348e-07
-4.40332e-09
-2.43711e-07
-5.26651e-09
-2.40647e-07
-6.12046e-09
-2.37161e-07
-6.96368e-09
-2.33259e-07
-7.79469e-09
-2.28948e-07
-8.61204e-09
-2.24236e-07
-9.41428e-09
-2.1913e-07
-1.02e-08
-2.13639e-07
-1.09679e-08
-2.07774e-07
-1.17165e-08
-2.01544e-07
-1.24445e-08
-1.94961e-07
-1.31508e-08
-1.88036e-07
-1.38339e-08
-1.80781e-07
-1.44928e-08
-1.73209e-07
-1.51263e-08
-1.65333e-07
-1.57333e-08
-1.57167e-07
-1.63126e-08
-1.48725e-07
-1.68634e-08
-1.40022e-07
-1.73845e-08
-1.31074e-07
-1.78752e-08
-1.21896e-07
-1.83345e-08
-1.12504e-07
-1.87617e-08
-1.02915e-07
-1.91559e-08
-9.31448e-08
-1.95165e-08
-8.32115e-08
-1.98429e-08
-7.31323e-08
-2.01345e-08
-6.29247e-08
-2.03908e-08
-5.26068e-08
-2.06113e-08
-4.21966e-08
-2.07957e-08
-3.17124e-08
-2.09435e-08
-2.11725e-08
-2.10547e-08
-1.05955e-08
-2.11289e-08
8.53161e-14
-2.1166e-08
1.05957e-08
-2.1166e-08
2.11727e-08
-2.11289e-08
3.17125e-08
-2.10547e-08
4.21968e-08
-2.09435e-08
5.2607e-08
-2.07957e-08
6.29249e-08
-2.06113e-08
7.31325e-08
-2.03908e-08
8.32117e-08
-2.01345e-08
9.3145e-08
-1.98429e-08
1.02915e-07
-1.95165e-08
1.12504e-07
-1.91559e-08
1.21896e-07
-1.87617e-08
1.31074e-07
-1.83345e-08
1.40023e-07
-1.78752e-08
1.48725e-07
-1.73845e-08
1.57167e-07
-1.68634e-08
1.65333e-07
-1.63126e-08
1.73209e-07
-1.57333e-08
1.80781e-07
-1.51263e-08
1.88036e-07
-1.44928e-08
1.94961e-07
-1.38339e-08
2.01544e-07
-1.31508e-08
2.07774e-07
-1.24445e-08
2.13639e-07
-1.17165e-08
2.1913e-07
-1.09679e-08
2.24236e-07
-1.02e-08
2.28949e-07
-9.41428e-09
2.3326e-07
-8.61204e-09
2.37162e-07
-7.7947e-09
2.40648e-07
-6.96369e-09
2.43712e-07
-6.12047e-09
2.46348e-07
-5.26652e-09
2.48552e-07
-4.40333e-09
2.50321e-07
-3.53243e-09
2.5165e-07
-2.65533e-09
2.52538e-07
-1.77359e-09
2.52983e-07
-8.88734e-10
2.52984e-07
-2.32764e-12
2.52541e-07
8.84077e-10
2.51656e-07
1.76893e-09
2.50329e-07
2.65067e-09
2.48563e-07
3.52775e-09
2.46361e-07
4.39865e-09
2.43727e-07
5.26182e-09
2.40665e-07
6.11576e-09
2.37182e-07
6.95897e-09
2.33282e-07
7.78997e-09
2.28973e-07
8.60731e-09
2.24263e-07
9.40954e-09
2.19159e-07
1.01953e-08
2.13671e-07
1.09631e-08
2.07808e-07
1.17117e-08
2.01581e-07
1.24398e-08
1.95e-07
1.31461e-08
1.88077e-07
1.38292e-08
1.80825e-07
1.44882e-08
1.73255e-07
1.51217e-08
1.65381e-07
1.57288e-08
1.57217e-07
1.63082e-08
1.48778e-07
1.68591e-08
1.40077e-07
1.73804e-08
1.31131e-07
1.78713e-08
1.21954e-07
1.8331e-08
1.12564e-07
1.87585e-08
1.02976e-07
1.91533e-08
9.3207e-08
1.95147e-08
8.32742e-08
1.98421e-08
7.31947e-08
2.0135e-08
6.29861e-08
2.03931e-08
5.26658e-08
2.06162e-08
4.22515e-08
2.08041e-08
3.17606e-08
2.09569e-08
2.12105e-08
2.1075e-08
1.06181e-08
2.11594e-08
2.12106e-08
-1.06589e-08
3.18739e-08
-2.12929e-08
3.17965e-08
-3.18848e-08
3.1669e-08
-4.24174e-08
3.14909e-08
-5.28732e-08
3.12609e-08
-6.32346e-08
3.09783e-08
-7.34838e-08
3.06429e-08
-8.36033e-08
3.02549e-08
-9.35756e-08
2.98147e-08
-1.03383e-07
2.93227e-08
-1.13009e-07
2.87796e-08
-1.22437e-07
2.81864e-08
-1.3165e-07
2.75439e-08
-1.40632e-07
2.68533e-08
-1.49367e-07
2.61156e-08
-1.5784e-07
2.53323e-08
-1.66036e-07
2.45045e-08
-1.73941e-07
2.36338e-08
-1.81541e-07
2.27217e-08
-1.88823e-07
2.17698e-08
-1.95773e-07
2.07796e-08
-2.0238e-07
1.97531e-08
-2.08632e-07
1.86919e-08
-2.14518e-07
1.75979e-08
-2.20028e-07
1.6473e-08
-2.25152e-07
1.53193e-08
-2.29881e-07
1.41387e-08
-2.34207e-07
1.29332e-08
-2.38122e-07
1.17051e-08
-2.41619e-07
1.04565e-08
-2.44693e-07
9.18947e-09
-2.47338e-07
7.90635e-09
-2.49548e-07
6.60936e-09
-2.51321e-07
5.30077e-09
-2.52653e-07
3.98287e-09
-2.53542e-07
2.65799e-09
-2.53987e-07
1.32843e-09
-2.53986e-07
-3.46827e-12
-2.53539e-07
-1.33537e-09
-2.52648e-07
-2.66493e-09
-2.51313e-07
-3.98983e-09
-2.49538e-07
-5.30773e-09
-2.47325e-07
-6.61634e-09
-2.44678e-07
-7.91334e-09
-2.41602e-07
-9.19648e-09
-2.38102e-07
-1.04635e-08
-2.34185e-07
-1.17121e-08
-2.29856e-07
-1.29403e-08
-2.25125e-07
-1.41457e-08
-2.19999e-07
-1.53263e-08
-2.14486e-07
-1.64801e-08
-2.08598e-07
-1.76049e-08
-2.02344e-07
-1.86989e-08
-1.95734e-07
-1.97601e-08
-1.88782e-07
-2.07866e-08
-1.81498e-07
-2.17766e-08
-1.73896e-07
-2.27285e-08
-1.65988e-07
-2.36405e-08
-1.5779e-07
-2.4511e-08
-1.49315e-07
-2.53386e-08
-1.40578e-07
-2.61216e-08
-1.31594e-07
-2.68589e-08
-1.2238e-07
-2.75491e-08
-1.1295e-07
-2.81909e-08
-1.03323e-07
-2.87833e-08
-9.35143e-08
-2.93252e-08
-8.35416e-08
-2.98156e-08
-7.34224e-08
-3.02538e-08
-6.31743e-08
-3.06388e-08
-5.28155e-08
-3.09702e-08
-4.2364e-08
-3.12472e-08
-3.18382e-08
-3.14694e-08
-2.12565e-08
-3.16363e-08
-1.06375e-08
-3.17478e-08
8.49149e-14
-3.18036e-08
1.06377e-08
-3.18036e-08
2.12567e-08
-3.17478e-08
3.18383e-08
-3.16363e-08
4.23642e-08
-3.14694e-08
5.28157e-08
-3.12472e-08
6.31745e-08
-3.09702e-08
7.34225e-08
-3.06388e-08
8.35418e-08
-3.02538e-08
9.35145e-08
-2.98156e-08
1.03323e-07
-2.93252e-08
1.1295e-07
-2.87833e-08
1.2238e-07
-2.81909e-08
1.31594e-07
-2.75491e-08
1.40578e-07
-2.68589e-08
1.49315e-07
-2.61216e-08
1.5779e-07
-2.53386e-08
1.65989e-07
-2.4511e-08
1.73896e-07
-2.36405e-08
1.81498e-07
-2.27285e-08
1.88782e-07
-2.17766e-08
1.95735e-07
-2.07866e-08
2.02344e-07
-1.97601e-08
2.08598e-07
-1.86989e-08
2.14487e-07
-1.76049e-08
2.19999e-07
-1.64801e-08
2.25125e-07
-1.53263e-08
2.29857e-07
-1.41457e-08
2.34185e-07
-1.29403e-08
2.38102e-07
-1.17122e-08
2.41602e-07
-1.04635e-08
2.44678e-07
-9.19649e-09
2.47325e-07
-7.91336e-09
2.49538e-07
-6.61636e-09
2.51313e-07
-5.30775e-09
2.52648e-07
-3.98984e-09
2.53539e-07
-2.66495e-09
2.53986e-07
-1.33539e-09
2.53987e-07
-3.49069e-12
2.53543e-07
1.3284e-09
2.52654e-07
2.65796e-09
2.51322e-07
3.98284e-09
2.49549e-07
5.30074e-09
2.47338e-07
6.60933e-09
2.44693e-07
7.90631e-09
2.4162e-07
9.18943e-09
2.38122e-07
1.04564e-08
2.34207e-07
1.17051e-08
2.29881e-07
1.29332e-08
2.25152e-07
1.41386e-08
2.20028e-07
1.53192e-08
2.14518e-07
1.6473e-08
2.08632e-07
1.75978e-08
2.0238e-07
1.86918e-08
1.95773e-07
1.9753e-08
1.88823e-07
2.07796e-08
1.81542e-07
2.17697e-08
1.73942e-07
2.27216e-08
1.66037e-07
2.36337e-08
1.57841e-07
2.45044e-08
1.49368e-07
2.53321e-08
1.40633e-07
2.61155e-08
1.31651e-07
2.68531e-08
1.22438e-07
2.75437e-08
1.1301e-07
2.81862e-08
1.03384e-07
2.87793e-08
9.35768e-08
2.93223e-08
8.36046e-08
2.98142e-08
7.34852e-08
3.02544e-08
6.32361e-08
3.06422e-08
5.28749e-08
3.09774e-08
4.24192e-08
3.12597e-08
3.18867e-08
3.14894e-08
2.12946e-08
3.16671e-08
1.06601e-08
3.17939e-08
3.18707e-08
-1.07184e-08
4.25926e-08
-2.14117e-08
4.24899e-08
-3.20625e-08
4.232e-08
-4.26537e-08
4.20822e-08
-5.31676e-08
4.17748e-08
-6.35866e-08
4.13972e-08
-7.38928e-08
4.09491e-08
-8.40685e-08
4.04307e-08
-9.40963e-08
3.98424e-08
-1.03959e-07
3.91849e-08
-1.13638e-07
3.84593e-08
-1.23118e-07
3.76665e-08
-1.32382e-07
3.6808e-08
-1.41414e-07
3.58851e-08
-1.50198e-07
3.48993e-08
-1.58718e-07
3.38525e-08
-1.6696e-07
3.27463e-08
-1.74909e-07
3.15828e-08
-1.82551e-07
3.03639e-08
-1.89873e-07
2.90918e-08
-1.96862e-07
2.77686e-08
-2.03506e-07
2.63968e-08
-2.09792e-07
2.49787e-08
-2.15711e-07
2.35167e-08
-2.21252e-07
2.20135e-08
-2.26404e-07
2.04717e-08
-2.3116e-07
1.8894e-08
-2.3551e-07
1.72832e-08
-2.39447e-07
1.5642e-08
-2.42963e-07
1.39734e-08
-2.46054e-07
1.22803e-08
-2.48713e-07
1.05656e-08
-2.50936e-07
8.83236e-09
-2.52719e-07
7.08363e-09
-2.54059e-07
5.32248e-09
-2.54953e-07
3.55198e-09
-2.554e-07
1.77524e-09
-2.55399e-07
-4.62332e-12
-2.54949e-07
-1.78449e-09
-2.54053e-07
-3.56124e-09
-2.52711e-07
-5.33175e-09
-2.50926e-07
-7.09292e-09
-2.48701e-07
-8.84166e-09
-2.46039e-07
-1.05749e-08
-2.42946e-07
-1.22896e-08
-2.39427e-07
-1.39828e-08
-2.35488e-07
-1.56514e-08
-2.31135e-07
-1.72926e-08
-2.26377e-07
-1.89034e-08
-2.21223e-07
-2.04812e-08
-2.1568e-07
-2.2023e-08
-2.09759e-07
-2.35261e-08
-2.03469e-07
-2.4988e-08
-1.96823e-07
-2.64061e-08
-1.89832e-07
-2.77779e-08
-1.82508e-07
-2.9101e-08
-1.74863e-07
-3.0373e-08
-1.66912e-07
-3.15917e-08
-1.58668e-07
-3.2755e-08
-1.50146e-07
-3.38609e-08
-1.4136e-07
-3.49074e-08
-1.32326e-07
-3.58926e-08
-1.2306e-07
-3.68149e-08
-1.13579e-07
-3.76726e-08
-1.03898e-07
-3.84642e-08
-9.40346e-08
-3.91884e-08
-8.40064e-08
-3.98438e-08
-7.38309e-08
-4.04293e-08
-6.35258e-08
-4.09439e-08
-5.31093e-08
-4.13866e-08
-4.25997e-08
-4.17568e-08
-3.20153e-08
-4.20537e-08
-2.13748e-08
-4.22769e-08
-1.06967e-08
-4.24259e-08
8.4643e-14
-4.25004e-08
1.06969e-08
-4.25004e-08
2.13749e-08
-4.24259e-08
3.20155e-08
-4.22769e-08
4.25999e-08
-4.20537e-08
5.31095e-08
-4.17568e-08
6.3526e-08
-4.13866e-08
7.3831e-08
-4.09439e-08
8.40066e-08
-4.04293e-08
9.40347e-08
-3.98438e-08
1.03898e-07
-3.91884e-08
1.13579e-07
-3.84642e-08
1.23061e-07
-3.76726e-08
1.32326e-07
-3.68149e-08
1.4136e-07
-3.58926e-08
1.50146e-07
-3.49074e-08
1.58668e-07
-3.38609e-08
1.66912e-07
-3.2755e-08
1.74863e-07
-3.15917e-08
1.82508e-07
-3.0373e-08
1.89832e-07
-2.9101e-08
1.96824e-07
-2.77779e-08
2.0347e-07
-2.64061e-08
2.09759e-07
-2.49881e-08
2.1568e-07
-2.35261e-08
2.21223e-07
-2.2023e-08
2.26378e-07
-2.04812e-08
2.31135e-07
-1.89035e-08
2.35488e-07
-1.72926e-08
2.39427e-07
-1.56514e-08
2.42946e-07
-1.39828e-08
2.46039e-07
-1.22896e-08
2.48701e-07
-1.05749e-08
2.50926e-07
-8.84168e-09
2.52712e-07
-7.09294e-09
2.54053e-07
-5.33177e-09
2.5495e-07
-3.56126e-09
2.55399e-07
-1.78452e-09
2.554e-07
-4.65282e-12
2.54953e-07
1.77521e-09
2.54059e-07
3.55195e-09
2.5272e-07
5.32244e-09
2.50937e-07
7.08359e-09
2.48714e-07
8.83231e-09
2.46055e-07
1.05655e-08
2.42964e-07
1.22802e-08
2.39447e-07
1.39733e-08
2.3551e-07
1.56419e-08
2.3116e-07
1.72831e-08
2.26405e-07
1.8894e-08
2.21252e-07
2.04717e-08
2.15712e-07
2.20135e-08
2.09793e-07
2.35166e-08
2.03506e-07
2.49786e-08
1.96862e-07
2.63967e-08
1.89873e-07
2.77685e-08
1.82552e-07
2.90917e-08
1.74909e-07
3.03638e-08
1.6696e-07
3.15827e-08
1.58719e-07
3.27462e-08
1.50198e-07
3.38523e-08
1.41415e-07
3.48991e-08
1.32383e-07
3.58848e-08
1.23119e-07
3.68077e-08
1.13639e-07
3.76662e-08
1.0396e-07
3.84589e-08
9.40974e-08
3.91845e-08
8.40697e-08
3.98419e-08
7.38941e-08
4.04301e-08
6.35879e-08
4.09483e-08
5.31691e-08
4.13963e-08
4.26552e-08
4.17736e-08
3.2064e-08
4.20806e-08
2.1413e-08
4.23182e-08
1.07192e-08
4.24877e-08
4.25899e-08
-1.07956e-08
5.33883e-08
-2.15658e-08
5.32602e-08
-3.22932e-08
5.30475e-08
-4.29605e-08
5.27495e-08
-5.355e-08
5.23643e-08
-6.40438e-08
5.1891e-08
-7.4424e-08
5.13294e-08
-8.46729e-08
5.06796e-08
-9.47727e-08
4.99422e-08
-1.04706e-07
4.91181e-08
-1.14455e-07
4.82085e-08
-1.24003e-07
4.72148e-08
-1.33334e-07
4.61386e-08
-1.42431e-07
4.49817e-08
-1.51277e-07
4.37461e-08
-1.59859e-07
4.24339e-08
-1.6816e-07
4.10474e-08
-1.76166e-07
3.95889e-08
-1.83863e-07
3.8061e-08
-1.91238e-07
3.64664e-08
-1.98277e-07
3.48079e-08
-2.04968e-07
3.30883e-08
-2.113e-07
3.13107e-08
-2.17262e-07
2.94781e-08
-2.22842e-07
2.75939e-08
-2.28032e-07
2.56613e-08
-2.32821e-07
2.36836e-08
-2.37202e-07
2.16644e-08
-2.41168e-07
1.96072e-08
-2.4471e-07
1.75156e-08
-2.47823e-07
1.53933e-08
-2.50501e-07
1.32439e-08
-2.5274e-07
1.10713e-08
-2.54536e-07
8.87932e-09
-2.55885e-07
6.67172e-09
-2.56785e-07
4.45241e-09
-2.57236e-07
2.22527e-09
-2.57234e-07
-5.77733e-12
-2.56782e-07
-2.23683e-09
-2.55879e-07
-4.46398e-09
-2.54528e-07
-6.68331e-09
-2.5273e-07
-8.89093e-09
-2.50488e-07
-1.1083e-08
-2.47808e-07
-1.32556e-08
-2.44692e-07
-1.54049e-08
-2.41148e-07
-1.75273e-08
-2.3718e-07
-1.96189e-08
-2.32797e-07
-2.16762e-08
-2.28005e-07
-2.36954e-08
-2.22813e-07
-2.5673e-08
-2.1723e-07
-2.76057e-08
-2.11266e-07
-2.94899e-08
-2.04932e-07
-3.13224e-08
-1.98238e-07
-3.31e-08
-1.91197e-07
-3.48195e-08
-1.8382e-07
-3.64779e-08
-1.7612e-07
-3.80724e-08
-1.68112e-07
-3.96001e-08
-1.59809e-07
-4.10583e-08
-1.51225e-07
-4.24445e-08
-1.42376e-07
-4.37562e-08
-1.33277e-07
-4.49912e-08
-1.23945e-07
-4.61473e-08
-1.14395e-07
-4.72225e-08
-1.04645e-07
-4.82148e-08
-9.47106e-08
-4.91225e-08
-8.46103e-08
-4.9944e-08
-7.43616e-08
-5.0678e-08
-6.39825e-08
-5.1323e-08
-5.34911e-08
-5.1878e-08
-4.29059e-08
-5.2342e-08
-3.22455e-08
-5.27142e-08
-2.15284e-08
-5.29939e-08
-1.07736e-08
-5.31807e-08
8.44736e-14
-5.32741e-08
1.07738e-08
-5.32741e-08
2.15286e-08
-5.31807e-08
3.22456e-08
-5.29939e-08
4.29061e-08
-5.27142e-08
5.34913e-08
-5.2342e-08
6.39827e-08
-5.1878e-08
7.43618e-08
-5.1323e-08
8.46105e-08
-5.0678e-08
9.47107e-08
-4.9944e-08
1.04645e-07
-4.91225e-08
1.14395e-07
-4.82148e-08
1.23945e-07
-4.72225e-08
1.33278e-07
-4.61473e-08
1.42376e-07
-4.49913e-08
1.51225e-07
-4.37563e-08
1.59809e-07
-4.24445e-08
1.68112e-07
-4.10583e-08
1.7612e-07
-3.96001e-08
1.8382e-07
-3.80724e-08
1.91197e-07
-3.64779e-08
1.98238e-07
-3.48195e-08
2.04932e-07
-3.31e-08
2.11267e-07
-3.13224e-08
2.1723e-07
-2.94899e-08
2.22813e-07
-2.76057e-08
2.28005e-07
-2.56731e-08
2.32797e-07
-2.36954e-08
2.37181e-07
-2.16762e-08
2.41148e-07
-1.9619e-08
2.44693e-07
-1.75273e-08
2.47808e-07
-1.5405e-08
2.50489e-07
-1.32556e-08
2.5273e-07
-1.1083e-08
2.54528e-07
-8.89095e-09
2.5588e-07
-6.68334e-09
2.56782e-07
-4.46401e-09
2.57235e-07
-2.23687e-09
2.57236e-07
-5.81365e-12
2.56786e-07
2.22524e-09
2.55885e-07
4.45237e-09
2.54536e-07
6.67168e-09
2.5274e-07
8.87927e-09
2.50501e-07
1.10713e-08
2.47823e-07
1.32439e-08
2.4471e-07
1.53932e-08
2.41168e-07
1.75155e-08
2.37203e-07
1.96071e-08
2.32822e-07
2.16643e-08
2.28032e-07
2.36835e-08
2.22843e-07
2.56612e-08
2.17262e-07
2.75938e-08
2.11301e-07
2.9478e-08
2.04969e-07
3.13105e-08
1.98277e-07
3.30882e-08
1.91238e-07
3.48077e-08
1.83864e-07
3.64663e-08
1.76166e-07
3.80609e-08
1.6816e-07
3.95887e-08
1.59859e-07
4.10472e-08
1.51278e-07
4.24337e-08
1.42431e-07
4.37459e-08
1.33335e-07
4.49815e-08
1.24004e-07
4.61383e-08
1.14456e-07
4.72144e-08
1.04707e-07
4.8208e-08
9.47737e-08
4.91176e-08
8.4674e-08
4.99416e-08
7.44252e-08
5.06789e-08
6.4045e-08
5.13286e-08
5.35512e-08
5.189e-08
4.29617e-08
5.23631e-08
3.22943e-08
5.2748e-08
2.15667e-08
5.30458e-08
1.07962e-08
5.32582e-08
5.33861e-08
-1.0891e-08
6.42794e-08
-2.17562e-08
6.41255e-08
-3.25782e-08
6.38696e-08
-4.33396e-08
6.35109e-08
-5.40225e-08
6.30472e-08
-6.46088e-08
6.24774e-08
-7.50806e-08
6.18012e-08
-8.54199e-08
6.10188e-08
-9.56088e-08
6.0131e-08
-1.05629e-07
5.91388e-08
-1.15465e-07
5.80436e-08
-1.25097e-07
5.68472e-08
-1.3451e-07
5.55515e-08
-1.43687e-07
5.41586e-08
-1.52612e-07
5.2671e-08
-1.61269e-07
5.10911e-08
-1.69643e-07
4.94216e-08
-1.7772e-07
4.76656e-08
-1.85485e-07
4.5826e-08
-1.92925e-07
4.39061e-08
-2.00026e-07
4.19092e-08
-2.06776e-07
3.98388e-08
-2.13164e-07
3.76985e-08
-2.19178e-07
3.54921e-08
-2.24808e-07
3.32235e-08
-2.30043e-07
3.08966e-08
-2.34875e-07
2.85154e-08
-2.39295e-07
2.60843e-08
-2.43295e-07
2.36074e-08
-2.46869e-07
2.10891e-08
-2.50009e-07
1.85337e-08
-2.52711e-07
1.59459e-08
-2.5497e-07
1.33301e-08
-2.56781e-07
1.06909e-08
-2.58142e-07
8.03288e-09
-2.59051e-07
5.3608e-09
-2.59505e-07
2.67929e-09
-2.59504e-07
-6.92921e-12
-2.59047e-07
-2.69315e-09
-2.58137e-07
-5.37467e-09
-2.56773e-07
-8.04678e-09
-2.54959e-07
-1.07048e-08
-2.52698e-07
-1.3344e-08
-2.49994e-07
-1.59599e-08
-2.46851e-07
-1.85478e-08
-2.43275e-07
-2.11031e-08
-2.39273e-07
-2.36215e-08
-2.34851e-07
-2.60984e-08
-2.30016e-07
-2.85296e-08
-2.24779e-07
-3.09107e-08
-2.19147e-07
-3.32376e-08
-2.1313e-07
-3.55063e-08
-2.0674e-07
-3.77126e-08
-1.99987e-07
-3.98529e-08
-1.92884e-07
-4.19232e-08
-1.85441e-07
-4.392e-08
-1.77674e-07
-4.58397e-08
-1.69595e-07
-4.76791e-08
-1.61219e-07
-4.94348e-08
-1.52559e-07
-5.11038e-08
-1.43632e-07
-5.26832e-08
-1.34453e-07
-5.41702e-08
-1.25039e-07
-5.55621e-08
-1.15405e-07
-5.68566e-08
-1.05568e-07
-5.80513e-08
-9.55462e-08
-5.91442e-08
-8.53568e-08
-6.01334e-08
-7.50177e-08
-6.10171e-08
-6.4547e-08
-6.17937e-08
-5.39631e-08
-6.24619e-08
-4.32845e-08
-6.30206e-08
-3.253e-08
-6.34687e-08
-2.17184e-08
-6.38055e-08
-1.08687e-08
-6.40303e-08
8.41759e-14
-6.41429e-08
1.08688e-08
-6.41429e-08
2.17185e-08
-6.40303e-08
3.25301e-08
-6.38055e-08
4.32847e-08
-6.34687e-08
5.39633e-08
-6.30206e-08
6.45472e-08
-6.24619e-08
7.50179e-08
-6.17937e-08
8.5357e-08
-6.10171e-08
9.55464e-08
-6.01334e-08
1.05568e-07
-5.91442e-08
1.15405e-07
-5.80513e-08
1.25039e-07
-5.68566e-08
1.34454e-07
-5.55621e-08
1.43633e-07
-5.41702e-08
1.52559e-07
-5.26832e-08
1.61219e-07
-5.11038e-08
1.69595e-07
-4.94348e-08
1.77674e-07
-4.76791e-08
1.85442e-07
-4.58397e-08
1.92884e-07
-4.392e-08
1.99987e-07
-4.19232e-08
2.0674e-07
-3.98529e-08
2.13131e-07
-3.77127e-08
2.19147e-07
-3.55063e-08
2.24779e-07
-3.32377e-08
2.30017e-07
-3.09107e-08
2.34851e-07
-2.85296e-08
2.39273e-07
-2.60984e-08
2.43276e-07
-2.36215e-08
2.46851e-07
-2.11031e-08
2.49994e-07
-1.85478e-08
2.52699e-07
-1.59599e-08
2.5496e-07
-1.33441e-08
2.56774e-07
-1.07048e-08
2.58137e-07
-8.04681e-09
2.59048e-07
-5.37471e-09
2.59504e-07
-2.69319e-09
2.59505e-07
-6.97259e-12
2.59051e-07
2.67924e-09
2.58143e-07
5.36075e-09
2.56782e-07
8.03283e-09
2.5497e-07
1.06908e-08
2.52711e-07
1.333e-08
2.50009e-07
1.59458e-08
2.46869e-07
1.85337e-08
2.43295e-07
2.1089e-08
2.39295e-07
2.36073e-08
2.34875e-07
2.60842e-08
2.30044e-07
2.85153e-08
2.24808e-07
3.08965e-08
2.19179e-07
3.32234e-08
2.13165e-07
3.5492e-08
2.06777e-07
3.76984e-08
2.00026e-07
3.98386e-08
1.92925e-07
4.1909e-08
1.85485e-07
4.39059e-08
1.7772e-07
4.58259e-08
1.69644e-07
4.76654e-08
1.6127e-07
4.94214e-08
1.52612e-07
5.10908e-08
1.43688e-07
5.26707e-08
1.34511e-07
5.41583e-08
1.25098e-07
5.55512e-08
1.15465e-07
5.68468e-08
1.0563e-07
5.80432e-08
9.56097e-08
5.91382e-08
8.54209e-08
6.01304e-08
7.50816e-08
6.10181e-08
6.46099e-08
6.18003e-08
5.40235e-08
6.24764e-08
4.33406e-08
6.3046e-08
3.25791e-08
6.35095e-08
2.17569e-08
6.3868e-08
1.08914e-08
6.41237e-08
6.42775e-08
-1.10049e-08
7.52843e-08
-2.19837e-08
7.51043e-08
-3.29188e-08
7.48047e-08
-4.37926e-08
7.43847e-08
-5.45871e-08
7.38417e-08
-6.52841e-08
7.31744e-08
-7.58653e-08
7.23824e-08
-8.63126e-08
7.14661e-08
-9.66079e-08
7.04263e-08
-1.06733e-07
6.92642e-08
-1.16671e-07
6.79816e-08
-1.26404e-07
6.65803e-08
-1.35916e-07
6.50628e-08
-1.45188e-07
6.34314e-08
-1.54207e-07
6.16891e-08
-1.62954e-07
5.98387e-08
-1.71416e-07
5.78834e-08
-1.79577e-07
5.58267e-08
-1.87423e-07
5.36722e-08
-1.94941e-07
5.14235e-08
-2.02116e-07
4.90847e-08
-2.08937e-07
4.66598e-08
-2.15392e-07
4.41531e-08
-2.21469e-07
4.1569e-08
-2.27157e-07
3.89119e-08
-2.32447e-07
3.61866e-08
-2.3733e-07
3.33978e-08
-2.41796e-07
3.05504e-08
-2.45838e-07
2.76494e-08
-2.49448e-07
2.46999e-08
-2.52622e-07
2.17071e-08
-2.55352e-07
1.86761e-08
-2.57634e-07
1.56124e-08
-2.59465e-07
1.25214e-08
-2.6084e-07
9.40828e-09
-2.61758e-07
6.27869e-09
-2.62217e-07
3.13807e-09
-2.62216e-07
-8.07775e-12
-2.61755e-07
-3.15423e-09
-2.60835e-07
-6.29487e-09
-2.59457e-07
-9.42448e-09
-2.57624e-07
-1.25376e-08
-2.55339e-07
-1.56287e-08
-2.52607e-07
-1.86925e-08
-2.49431e-07
-2.17234e-08
-2.45818e-07
-2.47163e-08
-2.41774e-07
-2.76658e-08
-2.37305e-07
-3.05669e-08
-2.3242e-07
-3.34143e-08
-2.27128e-07
-3.62031e-08
-2.21437e-07
-3.89285e-08
-2.15358e-07
-4.15855e-08
-2.08901e-07
-4.41697e-08
-2.02077e-07
-4.66763e-08
-1.949e-07
-4.91011e-08
-1.8738e-07
-5.14398e-08
-1.79531e-07
-5.36883e-08
-1.71368e-07
-5.58425e-08
-1.62904e-07
-5.78989e-08
-1.54154e-07
-5.98537e-08
-1.45134e-07
-6.17034e-08
-1.35859e-07
-6.3445e-08
-1.26346e-07
-6.50753e-08
-1.16611e-07
-6.65914e-08
-1.06671e-07
-6.79907e-08
-9.65449e-08
-6.92707e-08
-8.6249e-08
-7.04292e-08
-7.58018e-08
-7.14642e-08
-6.52217e-08
-7.23738e-08
-5.45271e-08
-7.31565e-08
-4.37369e-08
-7.38108e-08
-3.287e-08
-7.43357e-08
-2.19454e-08
-7.47301e-08
-1.09823e-08
-7.49934e-08
8.38096e-14
-7.51252e-08
1.09825e-08
-7.51252e-08
2.19456e-08
-7.49934e-08
3.28702e-08
-7.47301e-08
4.37371e-08
-7.43357e-08
5.45273e-08
-7.38108e-08
6.52219e-08
-7.31565e-08
7.5802e-08
-7.23738e-08
8.62492e-08
-7.14642e-08
9.65451e-08
-7.04293e-08
1.06672e-07
-6.92707e-08
1.16611e-07
-6.79907e-08
1.26346e-07
-6.65914e-08
1.35859e-07
-6.50753e-08
1.45134e-07
-6.3445e-08
1.54154e-07
-6.17035e-08
1.62904e-07
-5.98537e-08
1.71368e-07
-5.78989e-08
1.79531e-07
-5.58426e-08
1.8738e-07
-5.36883e-08
1.949e-07
-5.14398e-08
2.02078e-07
-4.91011e-08
2.08901e-07
-4.66763e-08
2.15358e-07
-4.41697e-08
2.21437e-07
-4.15855e-08
2.27128e-07
-3.89285e-08
2.32421e-07
-3.62031e-08
2.37305e-07
-3.34143e-08
2.41774e-07
-3.05669e-08
2.45818e-07
-2.76659e-08
2.49431e-07
-2.47163e-08
2.52607e-07
-2.17234e-08
2.5534e-07
-1.86925e-08
2.57624e-07
-1.56288e-08
2.59457e-07
-1.25376e-08
2.60835e-07
-9.42452e-09
2.61755e-07
-6.29491e-09
2.62216e-07
-3.15428e-09
2.62217e-07
-8.12855e-12
2.61758e-07
3.13801e-09
2.60841e-07
6.27863e-09
2.59465e-07
9.40822e-09
2.57635e-07
1.25213e-08
2.55352e-07
1.56124e-08
2.52622e-07
1.86761e-08
2.49449e-07
2.1707e-08
2.45838e-07
2.46998e-08
2.41796e-07
2.76493e-08
2.3733e-07
3.05503e-08
2.32448e-07
3.33977e-08
2.27158e-07
3.61865e-08
2.21469e-07
3.89118e-08
2.15392e-07
4.15688e-08
2.08938e-07
4.4153e-08
2.02117e-07
4.66597e-08
1.94941e-07
4.90846e-08
1.87424e-07
5.14234e-08
1.79578e-07
5.3672e-08
1.71417e-07
5.58265e-08
1.62955e-07
5.78832e-08
1.54207e-07
5.98384e-08
1.45189e-07
6.16888e-08
1.35916e-07
6.34311e-08
1.26405e-07
6.50624e-08
1.16672e-07
6.65799e-08
1.06734e-07
6.79811e-08
9.66087e-08
6.92637e-08
8.63135e-08
7.04256e-08
7.58662e-08
7.14654e-08
6.5285e-08
7.23816e-08
5.4588e-08
7.31734e-08
4.37934e-08
7.38405e-08
3.29195e-08
7.43834e-08
2.19842e-08
7.48033e-08
1.10052e-08
7.51027e-08
7.52826e-08
-1.11377e-08
8.6422e-08
-2.22489e-08
8.62155e-08
-3.3316e-08
8.58718e-08
-4.43209e-08
8.53897e-08
-5.52456e-08
8.47664e-08
-6.60716e-08
8.40004e-08
-7.67805e-08
8.30913e-08
-8.73538e-08
8.20394e-08
-9.77733e-08
8.08458e-08
-1.08021e-07
7.95118e-08
-1.18079e-07
7.80394e-08
-1.27929e-07
7.64308e-08
-1.37555e-07
7.46888e-08
-1.4694e-07
7.28161e-08
-1.56067e-07
7.08159e-08
-1.6492e-07
6.86918e-08
-1.73484e-07
6.64473e-08
-1.81743e-07
6.40863e-08
-1.89684e-07
6.1613e-08
-1.97292e-07
5.90317e-08
-2.04554e-07
5.63468e-08
-2.11458e-07
5.35632e-08
-2.1799e-07
5.06856e-08
-2.2414e-07
4.77191e-08
-2.29897e-07
4.46689e-08
-2.35251e-07
4.15404e-08
-2.40192e-07
3.8339e-08
-2.44712e-07
3.50704e-08
-2.48803e-07
3.17402e-08
-2.52458e-07
2.83543e-08
-2.55669e-07
2.49187e-08
-2.58432e-07
2.14393e-08
-2.60742e-07
1.79224e-08
-2.62595e-07
1.43739e-08
-2.63987e-07
1.08003e-08
-2.64916e-07
7.20768e-09
-2.6538e-07
3.6024e-09
-2.65379e-07
-9.22194e-12
-2.64912e-07
-3.62085e-09
-2.63981e-07
-7.22614e-09
-2.62587e-07
-1.08188e-08
-2.60732e-07
-1.43925e-08
-2.5842e-07
-1.79409e-08
-2.55654e-07
-2.1458e-08
-2.5244e-07
-2.49374e-08
-2.48783e-07
-2.8373e-08
-2.4469e-07
-3.1759e-08
-2.40168e-07
-3.50892e-08
-2.35224e-07
-3.83579e-08
-2.29868e-07
-4.15594e-08
-2.24109e-07
-4.46879e-08
-2.17956e-07
-4.77381e-08
-2.11421e-07
-5.07046e-08
-2.04515e-07
-5.35821e-08
-1.97251e-07
-5.63656e-08
-1.8964e-07
-5.90503e-08
-1.81697e-07
-6.16315e-08
-1.73435e-07
-6.41045e-08
-1.64869e-07
-6.6465e-08
-1.56014e-07
-6.8709e-08
-1.46885e-07
-7.08325e-08
-1.37498e-07
-7.28317e-08
-1.2787e-07
-7.47032e-08
-1.18018e-07
-7.64436e-08
-1.07958e-07
-7.805e-08
-9.77097e-08
-7.95194e-08
-8.72896e-08
-8.08493e-08
-7.67164e-08
-8.20374e-08
-6.60086e-08
-8.30816e-08
-5.5185e-08
-8.39801e-08
-4.42646e-08
-8.47312e-08
-3.32666e-08
-8.53337e-08
-2.22102e-08
-8.57865e-08
-1.11148e-08
-8.60888e-08
8.32765e-14
-8.62401e-08
1.1115e-08
-8.62401e-08
2.22103e-08
-8.60888e-08
3.32667e-08
-8.57865e-08
4.42648e-08
-8.53337e-08
5.51852e-08
-8.47312e-08
6.60088e-08
-8.39801e-08
7.67166e-08
-8.30816e-08
8.72898e-08
-8.20374e-08
9.77099e-08
-8.08493e-08
1.07959e-07
-7.95194e-08
1.18018e-07
-7.805e-08
1.2787e-07
-7.64436e-08
1.37498e-07
-7.47032e-08
1.46885e-07
-7.28318e-08
1.56014e-07
-7.08325e-08
1.64869e-07
-6.87091e-08
1.73435e-07
-6.64651e-08
1.81697e-07
-6.41045e-08
1.89641e-07
-6.16315e-08
1.97251e-07
-5.90504e-08
2.04516e-07
-5.63657e-08
2.11421e-07
-5.35821e-08
2.17956e-07
-5.07046e-08
2.24109e-07
-4.77381e-08
2.29868e-07
-4.46879e-08
2.35225e-07
-4.15594e-08
2.40168e-07
-3.83579e-08
2.44691e-07
-3.50892e-08
2.48784e-07
-3.1759e-08
2.5244e-07
-2.83731e-08
2.55654e-07
-2.49374e-08
2.5842e-07
-2.1458e-08
2.60732e-07
-1.7941e-08
2.62587e-07
-1.43925e-08
2.63981e-07
-1.08188e-08
2.64913e-07
-7.2262e-09
2.65379e-07
-3.6209e-09
2.6538e-07
-9.2801e-12
2.64916e-07
3.60234e-09
2.63987e-07
7.20761e-09
2.62595e-07
1.08002e-08
2.60743e-07
1.43739e-08
2.58433e-07
1.79223e-08
2.55669e-07
2.14393e-08
2.52458e-07
2.49186e-08
2.48803e-07
2.83542e-08
2.44713e-07
3.17401e-08
2.40193e-07
3.50702e-08
2.35252e-07
3.83389e-08
2.29898e-07
4.15403e-08
2.24141e-07