/*--------------------------------*- C++ -*----------------------------------*\
| =========                 |                                                 |
| \\      /  F ield         | OpenFOAM: The Open Source CFD Toolbox           |
|  \\    /   O peration     | Version:  2106                                  |
|   \\  /    A nd           | Website:  www.openfoam.com                      |
|    \\/     M anipulation  |                                                 |
\*---------------------------------------------------------------------------*/
FoamFile
{
    version     2.0;
    format      ascii;
    arch        "LSB;label=32;scalar=64";
    class       volVectorField;
    location    "1.7";
    object      U;
}
// * * * * * * * * * * * * * * * * * * * * * * * * * * * * * * * * * * * * * //

dimensions      [0 1 -1 0 0 0 0];

internalField   nonuniform List<vector> 
90000
(
(-7.94628e-07 7.94706e-07 0)
(-2.38245e-06 7.92537e-07 0)
(-3.9657e-06 7.89253e-07 0)
(-5.54126e-06 7.84791e-07 0)
(-7.10658e-06 7.79047e-07 0)
(-8.65913e-06 7.71996e-07 0)
(-1.01963e-05 7.63632e-07 0)
(-1.17154e-05 7.5396e-07 0)
(-1.32138e-05 7.42987e-07 0)
(-1.4689e-05 7.30725e-07 0)
(-1.61384e-05 7.17191e-07 0)
(-1.75594e-05 7.02407e-07 0)
(-1.89496e-05 6.86395e-07 0)
(-2.03066e-05 6.69184e-07 0)
(-2.16279e-05 6.50802e-07 0)
(-2.29113e-05 6.3128e-07 0)
(-2.41545e-05 6.10652e-07 0)
(-2.53553e-05 5.88954e-07 0)
(-2.65116e-05 5.66224e-07 0)
(-2.76215e-05 5.42501e-07 0)
(-2.86829e-05 5.17827e-07 0)
(-2.9694e-05 4.92245e-07 0)
(-3.0653e-05 4.658e-07 0)
(-3.15582e-05 4.38538e-07 0)
(-3.24081e-05 4.10507e-07 0)
(-3.32012e-05 3.81755e-07 0)
(-3.3936e-05 3.52334e-07 0)
(-3.46113e-05 3.22295e-07 0)
(-3.52259e-05 2.9169e-07 0)
(-3.57788e-05 2.60574e-07 0)
(-3.62688e-05 2.29001e-07 0)
(-3.66953e-05 1.97025e-07 0)
(-3.70574e-05 1.64704e-07 0)
(-3.73545e-05 1.32094e-07 0)
(-3.75861e-05 9.92525e-08 0)
(-3.77517e-05 6.62363e-08 0)
(-3.78512e-05 3.31038e-08 0)
(-3.78842e-05 -8.69512e-11 0)
(-3.78508e-05 -3.32777e-08 0)
(-3.7751e-05 -6.64103e-08 0)
(-3.7585e-05 -9.94266e-08 0)
(-3.73531e-05 -1.32269e-07 0)
(-3.70556e-05 -1.64879e-07 0)
(-3.66932e-05 -1.972e-07 0)
(-3.62664e-05 -2.29176e-07 0)
(-3.5776e-05 -2.60749e-07 0)
(-3.52228e-05 -2.91866e-07 0)
(-3.46078e-05 -3.22471e-07 0)
(-3.39322e-05 -3.5251e-07 0)
(-3.3197e-05 -3.81931e-07 0)
(-3.24036e-05 -4.10682e-07 0)
(-3.15533e-05 -4.38713e-07 0)
(-3.06477e-05 -4.65975e-07 0)
(-2.96884e-05 -4.92419e-07 0)
(-2.86769e-05 -5.18e-07 0)
(-2.76152e-05 -5.42672e-07 0)
(-2.6505e-05 -5.66392e-07 0)
(-2.53483e-05 -5.89119e-07 0)
(-2.41472e-05 -6.10813e-07 0)
(-2.29037e-05 -6.31435e-07 0)
(-2.162e-05 -6.5095e-07 0)
(-2.02984e-05 -6.69322e-07 0)
(-1.89412e-05 -6.86521e-07 0)
(-1.75507e-05 -7.02515e-07 0)
(-1.61295e-05 -7.17278e-07 0)
(-1.468e-05 -7.30781e-07 0)
(-1.32047e-05 -7.43003e-07 0)
(-1.17063e-05 -7.53922e-07 0)
(-1.01873e-05 -7.63518e-07 0)
(-8.65043e-06 -7.71775e-07 0)
(-7.09841e-06 -7.78678e-07 0)
(-5.53394e-06 -7.84214e-07 0)
(-3.95976e-06 -7.88376e-07 0)
(-2.37863e-06 -7.91154e-07 0)
(-7.93334e-07 -7.92544e-07 0)
(7.93359e-07 -7.92544e-07 0)
(2.37866e-06 -7.91154e-07 0)
(3.95978e-06 -7.88376e-07 0)
(5.53396e-06 -7.84214e-07 0)
(7.09844e-06 -7.78678e-07 0)
(8.65046e-06 -7.71775e-07 0)
(1.01873e-05 -7.63518e-07 0)
(1.17063e-05 -7.53922e-07 0)
(1.32047e-05 -7.43003e-07 0)
(1.468e-05 -7.30782e-07 0)
(1.61295e-05 -7.17278e-07 0)
(1.75507e-05 -7.02516e-07 0)
(1.89412e-05 -6.86521e-07 0)
(2.02984e-05 -6.69322e-07 0)
(2.162e-05 -6.5095e-07 0)
(2.29037e-05 -6.31435e-07 0)
(2.41472e-05 -6.10813e-07 0)
(2.53483e-05 -5.8912e-07 0)
(2.6505e-05 -5.66393e-07 0)
(2.76152e-05 -5.42672e-07 0)
(2.86769e-05 -5.18e-07 0)
(2.96884e-05 -4.9242e-07 0)
(3.06478e-05 -4.65975e-07 0)
(3.15534e-05 -4.38714e-07 0)
(3.24036e-05 -4.10683e-07 0)
(3.3197e-05 -3.81931e-07 0)
(3.39322e-05 -3.5251e-07 0)
(3.46079e-05 -3.22471e-07 0)
(3.52228e-05 -2.91866e-07 0)
(3.5776e-05 -2.6075e-07 0)
(3.62664e-05 -2.29176e-07 0)
(3.66932e-05 -1.97201e-07 0)
(3.70557e-05 -1.6488e-07 0)
(3.73531e-05 -1.32269e-07 0)
(3.75851e-05 -9.94272e-08 0)
(3.77511e-05 -6.64109e-08 0)
(3.78509e-05 -3.32782e-08 0)
(3.78843e-05 -8.7388e-11 0)
(3.78512e-05 3.31034e-08 0)
(3.77518e-05 6.62358e-08 0)
(3.75861e-05 9.92519e-08 0)
(3.73545e-05 1.32094e-07 0)
(3.70574e-05 1.64704e-07 0)
(3.66953e-05 1.97025e-07 0)
(3.62689e-05 2.29e-07 0)
(3.57788e-05 2.60573e-07 0)
(3.5226e-05 2.91689e-07 0)
(3.46114e-05 3.22294e-07 0)
(3.39361e-05 3.52333e-07 0)
(3.32013e-05 3.81754e-07 0)
(3.24082e-05 4.10505e-07 0)
(3.15583e-05 4.38536e-07 0)
(3.06531e-05 4.65798e-07 0)
(2.9694e-05 4.92244e-07 0)
(2.8683e-05 5.17825e-07 0)
(2.76216e-05 5.42499e-07 0)
(2.65117e-05 5.66221e-07 0)
(2.53554e-05 5.88951e-07 0)
(2.41546e-05 6.10649e-07 0)
(2.29114e-05 6.31276e-07 0)
(2.1628e-05 6.50798e-07 0)
(2.03067e-05 6.69179e-07 0)
(1.89498e-05 6.8639e-07 0)
(1.75596e-05 7.024e-07 0)
(1.61386e-05 7.17183e-07 0)
(1.46892e-05 7.30715e-07 0)
(1.3214e-05 7.42975e-07 0)
(1.17156e-05 7.53944e-07 0)
(1.01965e-05 7.6361e-07 0)
(8.65943e-06 7.71963e-07 0)
(7.10693e-06 7.78998e-07 0)
(5.54167e-06 7.84719e-07 0)
(3.96627e-06 7.89138e-07 0)
(2.38328e-06 7.923e-07 0)
(7.95084e-07 7.9425e-07 0)
(-7.96796e-07 2.38555e-06 0)
(-2.38858e-06 2.37941e-06 0)
(-3.97542e-06 2.36973e-06 0)
(-5.55463e-06 2.35637e-06 0)
(-7.12364e-06 2.33914e-06 0)
(-8.67986e-06 2.31798e-06 0)
(-1.02206e-05 2.29287e-06 0)
(-1.17433e-05 2.26384e-06 0)
(-1.32454e-05 2.23089e-06 0)
(-1.4724e-05 2.19407e-06 0)
(-1.61769e-05 2.15344e-06 0)
(-1.76013e-05 2.10905e-06 0)
(-1.89948e-05 2.06097e-06 0)
(-2.0355e-05 2.0093e-06 0)
(-2.16794e-05 1.9541e-06 0)
(-2.29659e-05 1.89549e-06 0)
(-2.4212e-05 1.83355e-06 0)
(-2.54157e-05 1.7684e-06 0)
(-2.65748e-05 1.70015e-06 0)
(-2.76873e-05 1.62892e-06 0)
(-2.87512e-05 1.55483e-06 0)
(-2.97647e-05 1.47802e-06 0)
(-3.0726e-05 1.39862e-06 0)
(-3.16334e-05 1.31676e-06 0)
(-3.24853e-05 1.23259e-06 0)
(-3.32803e-05 1.14626e-06 0)
(-3.40169e-05 1.05792e-06 0)
(-3.46938e-05 9.67726e-07 0)
(-3.53099e-05 8.75833e-07 0)
(-3.5864e-05 7.82403e-07 0)
(-3.63553e-05 6.876e-07 0)
(-3.67827e-05 5.91591e-07 0)
(-3.71457e-05 4.94544e-07 0)
(-3.74435e-05 3.96628e-07 0)
(-3.76756e-05 2.98017e-07 0)
(-3.78417e-05 1.98882e-07 0)
(-3.79414e-05 9.93984e-08 0)
(-3.79745e-05 -2.6049e-10 0)
(-3.7941e-05 -9.99195e-08 0)
(-3.7841e-05 -1.99404e-07 0)
(-3.76746e-05 -2.98539e-07 0)
(-3.74421e-05 -3.97151e-07 0)
(-3.71439e-05 -4.95067e-07 0)
(-3.67806e-05 -5.92115e-07 0)
(-3.63528e-05 -6.88126e-07 0)
(-3.58612e-05 -7.82929e-07 0)
(-3.53067e-05 -8.7636e-07 0)
(-3.46903e-05 -9.68254e-07 0)
(-3.4013e-05 -1.05845e-06 0)
(-3.32761e-05 -1.14679e-06 0)
(-3.24808e-05 -1.23312e-06 0)
(-3.16285e-05 -1.31729e-06 0)
(-3.07208e-05 -1.39914e-06 0)
(-2.97591e-05 -1.47854e-06 0)
(-2.87453e-05 -1.55535e-06 0)
(-2.7681e-05 -1.62943e-06 0)
(-2.65681e-05 -1.70066e-06 0)
(-2.54087e-05 -1.7689e-06 0)
(-2.42047e-05 -1.83403e-06 0)
(-2.29582e-05 -1.89595e-06 0)
(-2.16715e-05 -1.95455e-06 0)
(-2.03467e-05 -2.00971e-06 0)
(-1.89863e-05 -2.06135e-06 0)
(-1.75925e-05 -2.10938e-06 0)
(-1.61679e-05 -2.1537e-06 0)
(-1.47149e-05 -2.19425e-06 0)
(-1.32362e-05 -2.23095e-06 0)
(-1.17341e-05 -2.26373e-06 0)
(-1.02116e-05 -2.29255e-06 0)
(-8.67105e-06 -2.31734e-06 0)
(-7.11533e-06 -2.33806e-06 0)
(-5.54713e-06 -2.35469e-06 0)
(-3.96919e-06 -2.36718e-06 0)
(-2.3843e-06 -2.37553e-06 0)
(-7.95225e-07 -2.3797e-06 0)
(7.9525e-07 -2.3797e-06 0)
(2.38433e-06 -2.37553e-06 0)
(3.96922e-06 -2.36718e-06 0)
(5.54715e-06 -2.35469e-06 0)
(7.11535e-06 -2.33806e-06 0)
(8.67107e-06 -2.31734e-06 0)
(1.02116e-05 -2.29255e-06 0)
(1.17342e-05 -2.26373e-06 0)
(1.32362e-05 -2.23095e-06 0)
(1.4715e-05 -2.19425e-06 0)
(1.6168e-05 -2.1537e-06 0)
(1.75926e-05 -2.10938e-06 0)
(1.89863e-05 -2.06135e-06 0)
(2.03468e-05 -2.00971e-06 0)
(2.16715e-05 -1.95455e-06 0)
(2.29583e-05 -1.89595e-06 0)
(2.42047e-05 -1.83403e-06 0)
(2.54087e-05 -1.7689e-06 0)
(2.65682e-05 -1.70066e-06 0)
(2.7681e-05 -1.62943e-06 0)
(2.87453e-05 -1.55535e-06 0)
(2.97591e-05 -1.47854e-06 0)
(3.07208e-05 -1.39914e-06 0)
(3.16285e-05 -1.31729e-06 0)
(3.24808e-05 -1.23312e-06 0)
(3.32761e-05 -1.14679e-06 0)
(3.40131e-05 -1.05845e-06 0)
(3.46903e-05 -9.68255e-07 0)
(3.53068e-05 -8.76361e-07 0)
(3.58613e-05 -7.8293e-07 0)
(3.63529e-05 -6.88127e-07 0)
(3.67807e-05 -5.92117e-07 0)
(3.7144e-05 -4.95069e-07 0)
(3.74421e-05 -3.97153e-07 0)
(3.76746e-05 -2.98541e-07 0)
(3.7841e-05 -1.99405e-07 0)
(3.79411e-05 -9.9921e-08 0)
(3.79745e-05 -2.6202e-10 0)
(3.79414e-05 9.93968e-08 0)
(3.78417e-05 1.98881e-07 0)
(3.76757e-05 2.98015e-07 0)
(3.74435e-05 3.96626e-07 0)
(3.71457e-05 4.94541e-07 0)
(3.67828e-05 5.91588e-07 0)
(3.63553e-05 6.87597e-07 0)
(3.58641e-05 7.824e-07 0)
(3.53099e-05 8.75829e-07 0)
(3.46939e-05 9.67722e-07 0)
(3.40169e-05 1.05792e-06 0)
(3.32804e-05 1.14626e-06 0)
(3.24854e-05 1.23259e-06 0)
(3.16335e-05 1.31675e-06 0)
(3.07261e-05 1.39861e-06 0)
(2.97648e-05 1.47802e-06 0)
(2.87513e-05 1.55483e-06 0)
(2.76874e-05 1.62891e-06 0)
(2.65749e-05 1.70014e-06 0)
(2.54158e-05 1.76839e-06 0)
(2.42121e-05 1.83354e-06 0)
(2.2966e-05 1.89548e-06 0)
(2.16795e-05 1.95409e-06 0)
(2.03551e-05 2.00928e-06 0)
(1.89949e-05 2.06096e-06 0)
(1.76014e-05 2.10903e-06 0)
(1.6177e-05 2.15342e-06 0)
(1.47242e-05 2.19405e-06 0)
(1.32455e-05 2.23086e-06 0)
(1.17436e-05 2.26379e-06 0)
(1.02209e-05 2.29281e-06 0)
(8.68013e-06 2.31789e-06 0)
(7.12395e-06 2.33901e-06 0)
(5.55497e-06 2.35619e-06 0)
(3.97582e-06 2.36947e-06 0)
(2.38905e-06 2.37894e-06 0)
(7.97032e-07 2.38473e-06 0)
(-8.00084e-07 3.98097e-06 0)
(-2.39826e-06 3.97121e-06 0)
(-3.99132e-06 3.95525e-06 0)
(-5.57675e-06 3.933e-06 0)
(-7.15197e-06 3.90426e-06 0)
(-8.71435e-06 3.86896e-06 0)
(-1.02612e-05 3.82708e-06 0)
(-1.179e-05 3.77862e-06 0)
(-1.32979e-05 3.72363e-06 0)
(-1.47825e-05 3.66218e-06 0)
(-1.6241e-05 3.59436e-06 0)
(-1.76711e-05 3.52027e-06 0)
(-1.90701e-05 3.44003e-06 0)
(-2.04357e-05 3.35377e-06 0)
(-2.17654e-05 3.26164e-06 0)
(-2.30569e-05 3.16381e-06 0)
(-2.4308e-05 3.06043e-06 0)
(-2.55165e-05 2.95168e-06 0)
(-2.66802e-05 2.83777e-06 0)
(-2.77971e-05 2.71888e-06 0)
(-2.88652e-05 2.59522e-06 0)
(-2.98828e-05 2.46701e-06 0)
(-3.08479e-05 2.33447e-06 0)
(-3.17589e-05 2.19784e-06 0)
(-3.26142e-05 2.05735e-06 0)
(-3.34123e-05 1.91326e-06 0)
(-3.41518e-05 1.76581e-06 0)
(-3.48314e-05 1.61526e-06 0)
(-3.54499e-05 1.46188e-06 0)
(-3.60063e-05 1.30593e-06 0)
(-3.64994e-05 1.14769e-06 0)
(-3.69286e-05 9.87442e-07 0)
(-3.7293e-05 8.25458e-07 0)
(-3.7592e-05 6.62025e-07 0)
(-3.78251e-05 4.9743e-07 0)
(-3.79918e-05 3.31961e-07 0)
(-3.80918e-05 1.6591e-07 0)
(-3.81251e-05 -4.33736e-10 0)
(-3.80915e-05 -1.66778e-07 0)
(-3.79911e-05 -3.3283e-07 0)
(-3.7824e-05 -4.98299e-07 0)
(-3.75906e-05 -6.62896e-07 0)
(-3.72913e-05 -8.2633e-07 0)
(-3.69265e-05 -9.88316e-07 0)
(-3.6497e-05 -1.14857e-06 0)
(-3.60035e-05 -1.30681e-06 0)
(-3.54468e-05 -1.46276e-06 0)
(-3.48279e-05 -1.61614e-06 0)
(-3.41479e-05 -1.76669e-06 0)
(-3.34081e-05 -1.91414e-06 0)
(-3.26096e-05 -2.05823e-06 0)
(-3.1754e-05 -2.19872e-06 0)
(-3.08426e-05 -2.33535e-06 0)
(-2.98771e-05 -2.46788e-06 0)
(-2.88593e-05 -2.59608e-06 0)
(-2.77908e-05 -2.71973e-06 0)
(-2.66735e-05 -2.83861e-06 0)
(-2.55095e-05 -2.95251e-06 0)
(-2.43007e-05 -3.06124e-06 0)
(-2.30493e-05 -3.16459e-06 0)
(-2.17575e-05 -3.26239e-06 0)
(-2.04274e-05 -3.35447e-06 0)
(-1.90616e-05 -3.44067e-06 0)
(-1.76623e-05 -3.52083e-06 0)
(-1.62321e-05 -3.59481e-06 0)
(-1.47733e-05 -3.66249e-06 0)
(-1.32887e-05 -3.72374e-06 0)
(-1.17807e-05 -3.77846e-06 0)
(-1.02521e-05 -3.82655e-06 0)
(-8.70544e-06 -3.86794e-06 0)
(-7.14355e-06 -3.90253e-06 0)
(-5.56913e-06 -3.93028e-06 0)
(-3.98494e-06 -3.95113e-06 0)
(-2.39376e-06 -3.96506e-06 0)
(-7.98379e-07 -3.97203e-06 0)
(7.98404e-07 -3.97203e-06 0)
(2.39378e-06 -3.96506e-06 0)
(3.98496e-06 -3.95113e-06 0)
(5.56916e-06 -3.93028e-06 0)
(7.14358e-06 -3.90253e-06 0)
(8.70547e-06 -3.86794e-06 0)
(1.02521e-05 -3.82656e-06 0)
(1.17807e-05 -3.77846e-06 0)
(1.32887e-05 -3.72374e-06 0)
(1.47733e-05 -3.66249e-06 0)
(1.62321e-05 -3.59481e-06 0)
(1.76624e-05 -3.52083e-06 0)
(1.90616e-05 -3.44067e-06 0)
(2.04275e-05 -3.35447e-06 0)
(2.17575e-05 -3.26239e-06 0)
(2.30493e-05 -3.16459e-06 0)
(2.43007e-05 -3.06124e-06 0)
(2.55095e-05 -2.95252e-06 0)
(2.66736e-05 -2.83861e-06 0)
(2.77908e-05 -2.71973e-06 0)
(2.88593e-05 -2.59608e-06 0)
(2.98772e-05 -2.46788e-06 0)
(3.08426e-05 -2.33535e-06 0)
(3.1754e-05 -2.19872e-06 0)
(3.26097e-05 -2.05824e-06 0)
(3.34081e-05 -1.91414e-06 0)
(3.4148e-05 -1.76669e-06 0)
(3.48279e-05 -1.61614e-06 0)
(3.54468e-05 -1.46276e-06 0)
(3.60035e-05 -1.30681e-06 0)
(3.6497e-05 -1.14857e-06 0)
(3.69266e-05 -9.88319e-07 0)
(3.72913e-05 -8.26333e-07 0)
(3.75906e-05 -6.62898e-07 0)
(3.78241e-05 -4.98302e-07 0)
(3.79911e-05 -3.32832e-07 0)
(3.80915e-05 -1.6678e-07 0)
(3.81251e-05 -4.3651e-10 0)
(3.80919e-05 1.65907e-07 0)
(3.79918e-05 3.31958e-07 0)
(3.78251e-05 4.97426e-07 0)
(3.75921e-05 6.62021e-07 0)
(3.72931e-05 8.25453e-07 0)
(3.69287e-05 9.87437e-07 0)
(3.64995e-05 1.14769e-06 0)
(3.60063e-05 1.30593e-06 0)
(3.545e-05 1.46187e-06 0)
(3.48315e-05 1.61525e-06 0)
(3.41519e-05 1.7658e-06 0)
(3.34124e-05 1.91325e-06 0)
(3.26143e-05 2.05735e-06 0)
(3.17589e-05 2.19783e-06 0)
(3.08479e-05 2.33446e-06 0)
(2.98828e-05 2.467e-06 0)
(2.88653e-05 2.59521e-06 0)
(2.77972e-05 2.71886e-06 0)
(2.66803e-05 2.83776e-06 0)
(2.55166e-05 2.95167e-06 0)
(2.43081e-05 3.06041e-06 0)
(2.30571e-05 3.16379e-06 0)
(2.17655e-05 3.26163e-06 0)
(2.04358e-05 3.35375e-06 0)
(1.90703e-05 3.44e-06 0)
(1.76712e-05 3.52024e-06 0)
(1.62412e-05 3.59432e-06 0)
(1.47826e-05 3.66214e-06 0)
(1.32981e-05 3.72357e-06 0)
(1.17902e-05 3.77855e-06 0)
(1.02614e-05 3.82698e-06 0)
(8.71459e-06 3.86884e-06 0)
(7.15223e-06 3.9041e-06 0)
(5.57703e-06 3.93279e-06 0)
(3.9916e-06 3.95497e-06 0)
(2.39852e-06 3.9708e-06 0)
(8.00198e-07 3.9804e-06 0)
(-8.04567e-07 5.58409e-06 0)
(-2.41166e-06 5.5706e-06 0)
(-4.01358e-06 5.54831e-06 0)
(-5.60783e-06 5.51712e-06 0)
(-7.1918e-06 5.47682e-06 0)
(-8.76286e-06 5.42732e-06 0)
(-1.03183e-05 5.36857e-06 0)
(-1.18556e-05 5.3006e-06 0)
(-1.33719e-05 5.22347e-06 0)
(-1.48647e-05 5.13727e-06 0)
(-1.63314e-05 5.04213e-06 0)
(-1.77694e-05 4.9382e-06 0)
(-1.91762e-05 4.82564e-06 0)
(-2.05494e-05 4.70464e-06 0)
(-2.18865e-05 4.57541e-06 0)
(-2.31852e-05 4.43817e-06 0)
(-2.44433e-05 4.29315e-06 0)
(-2.56584e-05 4.1406e-06 0)
(-2.68286e-05 3.9808e-06 0)
(-2.79517e-05 3.81402e-06 0)
(-2.90258e-05 3.64055e-06 0)
(-3.0049e-05 3.4607e-06 0)
(-3.10195e-05 3.27478e-06 0)
(-3.19355e-05 3.08312e-06 0)
(-3.27956e-05 2.88604e-06 0)
(-3.35982e-05 2.68391e-06 0)
(-3.43418e-05 2.47707e-06 0)
(-3.50252e-05 2.26588e-06 0)
(-3.56471e-05 2.05071e-06 0)
(-3.62065e-05 1.83195e-06 0)
(-3.67025e-05 1.60998e-06 0)
(-3.7134e-05 1.38518e-06 0)
(-3.75005e-05 1.15795e-06 0)
(-3.78011e-05 9.28685e-07 0)
(-3.80355e-05 6.97793e-07 0)
(-3.82031e-05 4.65675e-07 0)
(-3.83037e-05 2.32739e-07 0)
(-3.83372e-05 -6.0707e-10 0)
(-3.83034e-05 -2.33953e-07 0)
(-3.82024e-05 -4.6689e-07 0)
(-3.80344e-05 -6.9901e-07 0)
(-3.77997e-05 -9.29904e-07 0)
(-3.74987e-05 -1.15917e-06 0)
(-3.71319e-05 -1.3864e-06 0)
(-3.67e-05 -1.6112e-06 0)
(-3.62038e-05 -1.83318e-06 0)
(-3.5644e-05 -2.05195e-06 0)
(-3.50217e-05 -2.26711e-06 0)
(-3.43379e-05 -2.4783e-06 0)
(-3.35939e-05 -2.68514e-06 0)
(-3.2791e-05 -2.88728e-06 0)
(-3.19306e-05 -3.08435e-06 0)
(-3.10142e-05 -3.27601e-06 0)
(-3.00434e-05 -3.46192e-06 0)
(-2.90198e-05 -3.64177e-06 0)
(-2.79454e-05 -3.81522e-06 0)
(-2.68219e-05 -3.98199e-06 0)
(-2.56514e-05 -4.14177e-06 0)
(-2.44359e-05 -4.29428e-06 0)
(-2.31775e-05 -4.43927e-06 0)
(-2.18785e-05 -4.57646e-06 0)
(-2.05411e-05 -4.70563e-06 0)
(-1.91677e-05 -4.82654e-06 0)
(-1.77606e-05 -4.93899e-06 0)
(-1.63224e-05 -5.04278e-06 0)
(-1.48555e-05 -5.13771e-06 0)
(-1.33626e-05 -5.22364e-06 0)
(-1.18462e-05 -5.3004e-06 0)
(-1.03091e-05 -5.36787e-06 0)
(-8.75388e-06 -5.42592e-06 0)
(-7.1833e-06 -5.47445e-06 0)
(-5.60012e-06 -5.51337e-06 0)
(-4.00711e-06 -5.54263e-06 0)
(-2.40708e-06 -5.56216e-06 0)
(-8.02821e-07 -5.57193e-06 0)
(8.02846e-07 -5.57193e-06 0)
(2.4071e-06 -5.56216e-06 0)
(4.00714e-06 -5.54263e-06 0)
(5.60014e-06 -5.51337e-06 0)
(7.18332e-06 -5.47445e-06 0)
(8.7539e-06 -5.42592e-06 0)
(1.03091e-05 -5.36787e-06 0)
(1.18463e-05 -5.3004e-06 0)
(1.33626e-05 -5.22364e-06 0)
(1.48555e-05 -5.13772e-06 0)
(1.63224e-05 -5.04278e-06 0)
(1.77606e-05 -4.93899e-06 0)
(1.91677e-05 -4.82655e-06 0)
(2.05411e-05 -4.70563e-06 0)
(2.18785e-05 -4.57646e-06 0)
(2.31776e-05 -4.43927e-06 0)
(2.44359e-05 -4.29429e-06 0)
(2.56515e-05 -4.14177e-06 0)
(2.6822e-05 -3.98199e-06 0)
(2.79454e-05 -3.81523e-06 0)
(2.90199e-05 -3.64177e-06 0)
(3.00434e-05 -3.46193e-06 0)
(3.10142e-05 -3.27601e-06 0)
(3.19307e-05 -3.08435e-06 0)
(3.27911e-05 -2.88728e-06 0)
(3.3594e-05 -2.68514e-06 0)
(3.4338e-05 -2.4783e-06 0)
(3.50217e-05 -2.26711e-06 0)
(3.5644e-05 -2.05195e-06 0)
(3.62038e-05 -1.83318e-06 0)
(3.67001e-05 -1.61121e-06 0)
(3.7132e-05 -1.38641e-06 0)
(3.74988e-05 -1.15917e-06 0)
(3.77998e-05 -9.29907e-07 0)
(3.80345e-05 -6.99013e-07 0)
(3.82025e-05 -4.66893e-07 0)
(3.83034e-05 -2.33957e-07 0)
(3.83372e-05 -6.10938e-10 0)
(3.83038e-05 2.32734e-07 0)
(3.82032e-05 4.6567e-07 0)
(3.80355e-05 6.97787e-07 0)
(3.78012e-05 9.2868e-07 0)
(3.75005e-05 1.15794e-06 0)
(3.71341e-05 1.38517e-06 0)
(3.67025e-05 1.60997e-06 0)
(3.62066e-05 1.83195e-06 0)
(3.56472e-05 2.05071e-06 0)
(3.50252e-05 2.26587e-06 0)
(3.43418e-05 2.47706e-06 0)
(3.35982e-05 2.6839e-06 0)
(3.27957e-05 2.88603e-06 0)
(3.19356e-05 3.0831e-06 0)
(3.10195e-05 3.27477e-06 0)
(3.00491e-05 3.46069e-06 0)
(2.90259e-05 3.64054e-06 0)
(2.79518e-05 3.81401e-06 0)
(2.68287e-05 3.98078e-06 0)
(2.56585e-05 4.14058e-06 0)
(2.44434e-05 4.29312e-06 0)
(2.31853e-05 4.43814e-06 0)
(2.18866e-05 4.57538e-06 0)
(2.05495e-05 4.70461e-06 0)
(1.91763e-05 4.82561e-06 0)
(1.77695e-05 4.93816e-06 0)
(1.63315e-05 5.04208e-06 0)
(1.48649e-05 5.13721e-06 0)
(1.33721e-05 5.22339e-06 0)
(1.18558e-05 5.30051e-06 0)
(1.03185e-05 5.36846e-06 0)
(8.76308e-06 5.42718e-06 0)
(7.19202e-06 5.47665e-06 0)
(5.60805e-06 5.5169e-06 0)
(4.01379e-06 5.54803e-06 0)
(2.41184e-06 5.57025e-06 0)
(8.0464e-07 5.58368e-06 0)
(-8.10368e-07 7.1975e-06 0)
(-2.42903e-06 7.1802e-06 0)
(-4.04246e-06 7.15151e-06 0)
(-5.64817e-06 7.11133e-06 0)
(-7.24352e-06 7.0594e-06 0)
(-8.82587e-06 6.99559e-06 0)
(-1.03925e-05 6.91987e-06 0)
(-1.19408e-05 6.83227e-06 0)
(-1.3468e-05 6.73285e-06 0)
(-1.49716e-05 6.62175e-06 0)
(-1.64488e-05 6.49913e-06 0)
(-1.78971e-05 6.36516e-06 0)
(-1.9314e-05 6.22008e-06 0)
(-2.06971e-05 6.06412e-06 0)
(-2.20438e-05 5.89754e-06 0)
(-2.33518e-05 5.72064e-06 0)
(-2.46189e-05 5.53372e-06 0)
(-2.58428e-05 5.33709e-06 0)
(-2.70214e-05 5.13112e-06 0)
(-2.81526e-05 4.91614e-06 0)
(-2.92344e-05 4.69255e-06 0)
(-3.0265e-05 4.46073e-06 0)
(-3.12424e-05 4.22108e-06 0)
(-3.21651e-05 3.97403e-06 0)
(-3.30313e-05 3.72001e-06 0)
(-3.38396e-05 3.45947e-06 0)
(-3.45886e-05 3.19285e-06 0)
(-3.52769e-05 2.92064e-06 0)
(-3.59033e-05 2.6433e-06 0)
(-3.64668e-05 2.36133e-06 0)
(-3.69663e-05 2.07521e-06 0)
(-3.74009e-05 1.78545e-06 0)
(-3.777e-05 1.49256e-06 0)
(-3.80728e-05 1.19705e-06 0)
(-3.83089e-05 8.99433e-07 0)
(-3.84777e-05 6.00241e-07 0)
(-3.85791e-05 2.99994e-07 0)
(-3.86128e-05 -7.80329e-10 0)
(-3.85787e-05 -3.01555e-07 0)
(-3.8477e-05 -6.01803e-07 0)
(-3.83078e-05 -9.00997e-07 0)
(-3.80714e-05 -1.19861e-06 0)
(-3.77683e-05 -1.49413e-06 0)
(-3.73989e-05 -1.78702e-06 0)
(-3.69638e-05 -2.07679e-06 0)
(-3.6464e-05 -2.36291e-06 0)
(-3.59002e-05 -2.64489e-06 0)
(-3.52734e-05 -2.92223e-06 0)
(-3.45848e-05 -3.19444e-06 0)
(-3.38354e-05 -3.46106e-06 0)
(-3.30268e-05 -3.7216e-06 0)
(-3.21602e-05 -3.97562e-06 0)
(-3.12371e-05 -4.22266e-06 0)
(-3.02593e-05 -4.4623e-06 0)
(-2.92284e-05 -4.69411e-06 0)
(-2.81463e-05 -4.91769e-06 0)
(-2.70147e-05 -5.13265e-06 0)
(-2.58358e-05 -5.3386e-06 0)
(-2.46116e-05 -5.53519e-06 0)
(-2.33442e-05 -5.72206e-06 0)
(-2.20358e-05 -5.8989e-06 0)
(-2.06888e-05 -6.0654e-06 0)
(-1.93054e-05 -6.22125e-06 0)
(-1.78883e-05 -6.36619e-06 0)
(-1.64397e-05 -6.49997e-06 0)
(-1.49623e-05 -6.62234e-06 0)
(-1.34587e-05 -6.73309e-06 0)
(-1.19314e-05 -6.83204e-06 0)
(-1.03832e-05 -6.919e-06 0)
(-8.81681e-06 -6.99382e-06 0)
(-7.23494e-06 -7.05637e-06 0)
(-5.64037e-06 -7.10655e-06 0)
(-4.03592e-06 -7.14426e-06 0)
(-2.42438e-06 -7.16943e-06 0)
(-8.08593e-07 -7.18203e-06 0)
(8.08618e-07 -7.18203e-06 0)
(2.42441e-06 -7.16943e-06 0)
(4.03594e-06 -7.14426e-06 0)
(5.6404e-06 -7.10655e-06 0)
(7.23496e-06 -7.05638e-06 0)
(8.81683e-06 -6.99382e-06 0)
(1.03832e-05 -6.919e-06 0)
(1.19314e-05 -6.83204e-06 0)
(1.34587e-05 -6.7331e-06 0)
(1.49623e-05 -6.62234e-06 0)
(1.64397e-05 -6.49997e-06 0)
(1.78883e-05 -6.36619e-06 0)
(1.93055e-05 -6.22125e-06 0)
(2.06888e-05 -6.0654e-06 0)
(2.20358e-05 -5.89891e-06 0)
(2.33442e-05 -5.72207e-06 0)
(2.46116e-05 -5.53519e-06 0)
(2.58359e-05 -5.3386e-06 0)
(2.70148e-05 -5.13265e-06 0)
(2.81463e-05 -4.9177e-06 0)
(2.92285e-05 -4.69412e-06 0)
(3.02594e-05 -4.4623e-06 0)
(3.12372e-05 -4.22267e-06 0)
(3.21602e-05 -3.97562e-06 0)
(3.30268e-05 -3.7216e-06 0)
(3.38355e-05 -3.46106e-06 0)
(3.45848e-05 -3.19445e-06 0)
(3.52734e-05 -2.92223e-06 0)
(3.59002e-05 -2.64489e-06 0)
(3.6464e-05 -2.36291e-06 0)
(3.69639e-05 -2.07679e-06 0)
(3.73989e-05 -1.78703e-06 0)
(3.77683e-05 -1.49413e-06 0)
(3.80715e-05 -1.19862e-06 0)
(3.83079e-05 -9.01001e-07 0)
(3.84771e-05 -6.01807e-07 0)
(3.85788e-05 -3.0156e-07 0)
(3.86128e-05 -7.85216e-10 0)
(3.85791e-05 2.99989e-07 0)
(3.84778e-05 6.00235e-07 0)
(3.83089e-05 8.99426e-07 0)
(3.80729e-05 1.19704e-06 0)
(3.77701e-05 1.49255e-06 0)
(3.7401e-05 1.78544e-06 0)
(3.69663e-05 2.0752e-06 0)
(3.64668e-05 2.36132e-06 0)
(3.59034e-05 2.64329e-06 0)
(3.5277e-05 2.92063e-06 0)
(3.45887e-05 3.19284e-06 0)
(3.38397e-05 3.45945e-06 0)
(3.30314e-05 3.72e-06 0)
(3.21651e-05 3.97402e-06 0)
(3.12425e-05 4.22106e-06 0)
(3.0265e-05 4.46071e-06 0)
(2.92345e-05 4.69253e-06 0)
(2.81527e-05 4.91612e-06 0)
(2.70215e-05 5.13109e-06 0)
(2.58429e-05 5.33707e-06 0)
(2.4619e-05 5.53369e-06 0)
(2.33519e-05 5.72061e-06 0)
(2.20439e-05 5.89751e-06 0)
(2.06972e-05 6.06408e-06 0)
(1.93142e-05 6.22004e-06 0)
(1.78973e-05 6.36511e-06 0)
(1.64489e-05 6.49907e-06 0)
(1.49717e-05 6.62168e-06 0)
(1.34682e-05 6.73277e-06 0)
(1.1941e-05 6.83217e-06 0)
(1.03927e-05 6.91975e-06 0)
(8.82605e-06 6.99544e-06 0)
(7.24371e-06 7.05921e-06 0)
(5.64834e-06 7.1111e-06 0)
(4.04262e-06 7.15125e-06 0)
(2.42915e-06 7.17989e-06 0)
(8.10417e-07 7.19715e-06 0)
(-8.1753e-07 8.82382e-06 0)
(-2.45048e-06 8.80267e-06 0)
(-4.07814e-06 8.76753e-06 0)
(-5.69801e-06 8.71828e-06 0)
(-7.30744e-06 8.65463e-06 0)
(-8.90375e-06 8.57641e-06 0)
(-1.04842e-05 8.48359e-06 0)
(-1.20462e-05 8.37619e-06 0)
(-1.35869e-05 8.25431e-06 0)
(-1.51036e-05 8.11811e-06 0)
(-1.65939e-05 7.96777e-06 0)
(-1.8055e-05 7.80354e-06 0)
(-1.94844e-05 7.62567e-06 0)
(-2.08797e-05 7.43447e-06 0)
(-2.22383e-05 7.23025e-06 0)
(-2.35578e-05 7.01337e-06 0)
(-2.48361e-05 6.78421e-06 0)
(-2.60708e-05 6.54316e-06 0)
(-2.72598e-05 6.29063e-06 0)
(-2.8401e-05 6.02708e-06 0)
(-2.94923e-05 5.75296e-06 0)
(-3.05319e-05 5.46875e-06 0)
(-3.1518e-05 5.17495e-06 0)
(-3.24488e-05 4.87207e-06 0)
(-3.33227e-05 4.56065e-06 0)
(-3.41382e-05 4.24123e-06 0)
(-3.48937e-05 3.91437e-06 0)
(-3.55881e-05 3.58064e-06 0)
(-3.62201e-05 3.24063e-06 0)
(-3.67885e-05 2.89494e-06 0)
(-3.72924e-05 2.54416e-06 0)
(-3.77309e-05 2.18892e-06 0)
(-3.81032e-05 1.82985e-06 0)
(-3.84087e-05 1.46755e-06 0)
(-3.86468e-05 1.10269e-06 0)
(-3.88172e-05 7.35885e-07 0)
(-3.89194e-05 3.6779e-07 0)
(-3.89534e-05 -9.53358e-10 0)
(-3.89191e-05 -3.69697e-07 0)
(-3.88165e-05 -7.37794e-07 0)
(-3.86458e-05 -1.1046e-06 0)
(-3.84073e-05 -1.46947e-06 0)
(-3.81015e-05 -1.83176e-06 0)
(-3.77288e-05 -2.19085e-06 0)
(-3.729e-05 -2.54609e-06 0)
(-3.67857e-05 -2.89687e-06 0)
(-3.62169e-05 -3.24257e-06 0)
(-3.55846e-05 -3.58258e-06 0)
(-3.48899e-05 -3.91631e-06 0)
(-3.4134e-05 -4.24318e-06 0)
(-3.33181e-05 -4.5626e-06 0)
(-3.24439e-05 -4.87402e-06 0)
(-3.15127e-05 -5.17689e-06 0)
(-3.05263e-05 -5.47068e-06 0)
(-2.94863e-05 -5.75488e-06 0)
(-2.83946e-05 -6.02898e-06 0)
(-2.72531e-05 -6.29251e-06 0)
(-2.60638e-05 -6.545e-06 0)
(-2.48287e-05 -6.78602e-06 0)
(-2.35501e-05 -7.01512e-06 0)
(-2.22302e-05 -7.23193e-06 0)
(-2.08713e-05 -7.43605e-06 0)
(-1.94758e-05 -7.62712e-06 0)
(-1.80461e-05 -7.80481e-06 0)
(-1.65848e-05 -7.96882e-06 0)
(-1.50943e-05 -8.11884e-06 0)
(-1.35774e-05 -8.25463e-06 0)
(-1.20367e-05 -8.37593e-06 0)
(-1.04748e-05 -8.48254e-06 0)
(-8.8946e-06 -8.57427e-06 0)
(-7.29877e-06 -8.65096e-06 0)
(-5.69014e-06 -8.71248e-06 0)
(-4.07153e-06 -8.75871e-06 0)
(-2.44577e-06 -8.78957e-06 0)
(-8.15727e-07 -8.80502e-06 0)
(8.15752e-07 -8.80502e-06 0)
(2.4458e-06 -8.78957e-06 0)
(4.07155e-06 -8.75871e-06 0)
(5.69017e-06 -8.71248e-06 0)
(7.2988e-06 -8.65096e-06 0)
(8.89462e-06 -8.57427e-06 0)
(1.04748e-05 -8.48254e-06 0)
(1.20367e-05 -8.37593e-06 0)
(1.35774e-05 -8.25463e-06 0)
(1.50943e-05 -8.11885e-06 0)
(1.65848e-05 -7.96882e-06 0)
(1.80461e-05 -7.80482e-06 0)
(1.94758e-05 -7.62712e-06 0)
(2.08713e-05 -7.43605e-06 0)
(2.22302e-05 -7.23193e-06 0)
(2.35502e-05 -7.01513e-06 0)
(2.48288e-05 -6.78602e-06 0)
(2.60638e-05 -6.54501e-06 0)
(2.72531e-05 -6.29251e-06 0)
(2.83946e-05 -6.02899e-06 0)
(2.94864e-05 -5.75488e-06 0)
(3.05263e-05 -5.47069e-06 0)
(3.15128e-05 -5.17689e-06 0)
(3.24439e-05 -4.87402e-06 0)
(3.33182e-05 -4.5626e-06 0)
(3.4134e-05 -4.24318e-06 0)
(3.48899e-05 -3.91632e-06 0)
(3.55846e-05 -3.58259e-06 0)
(3.6217e-05 -3.24257e-06 0)
(3.67857e-05 -2.89687e-06 0)
(3.729e-05 -2.54609e-06 0)
(3.77288e-05 -2.19085e-06 0)
(3.81015e-05 -1.83177e-06 0)
(3.84074e-05 -1.46947e-06 0)
(3.86458e-05 -1.1046e-06 0)
(3.88165e-05 -7.37799e-07 0)
(3.89191e-05 -3.69702e-07 0)
(3.89534e-05 -9.59273e-10 0)
(3.89195e-05 3.67783e-07 0)
(3.88172e-05 7.35878e-07 0)
(3.86469e-05 1.10268e-06 0)
(3.84088e-05 1.46755e-06 0)
(3.81033e-05 1.82984e-06 0)
(3.77309e-05 2.18892e-06 0)
(3.72924e-05 2.54415e-06 0)
(3.67885e-05 2.89493e-06 0)
(3.62201e-05 3.24062e-06 0)
(3.55882e-05 3.58063e-06 0)
(3.48938e-05 3.91436e-06 0)
(3.41382e-05 4.24122e-06 0)
(3.33228e-05 4.56064e-06 0)
(3.24489e-05 4.87206e-06 0)
(3.15181e-05 5.17493e-06 0)
(3.0532e-05 5.46873e-06 0)
(2.94924e-05 5.75294e-06 0)
(2.8401e-05 6.02706e-06 0)
(2.72599e-05 6.29061e-06 0)
(2.60709e-05 6.54313e-06 0)
(2.48362e-05 6.78418e-06 0)
(2.35579e-05 7.01334e-06 0)
(2.22384e-05 7.23021e-06 0)
(2.08798e-05 7.43442e-06 0)
(1.94845e-05 7.62562e-06 0)
(1.80551e-05 7.80348e-06 0)
(1.6594e-05 7.96771e-06 0)
(1.51038e-05 8.11803e-06 0)
(1.3587e-05 8.25422e-06 0)
(1.20463e-05 8.37608e-06 0)
(1.04844e-05 8.48346e-06 0)
(8.9039e-06 8.57626e-06 0)
(7.30759e-06 8.65445e-06 0)
(5.69815e-06 8.71807e-06 0)
(4.07826e-06 8.76729e-06 0)
(2.45057e-06 8.80239e-06 0)
(8.17562e-07 8.82352e-06 0)
(-8.26082e-07 1.04658e-05 0)
(-2.47611e-06 1.04408e-05 0)
(-4.12078e-06 1.03991e-05 0)
(-5.75757e-06 1.03407e-05 0)
(-7.38382e-06 1.02652e-05 0)
(-8.99681e-06 1.01725e-05 0)
(-1.05938e-05 1.00624e-05 0)
(-1.2172e-05 9.93498e-06 0)
(-1.37288e-05 9.79043e-06 0)
(-1.52615e-05 9.62888e-06 0)
(-1.67673e-05 9.45057e-06 0)
(-1.82437e-05 9.25577e-06 0)
(-1.9688e-05 9.04481e-06 0)
(-2.10979e-05 8.81802e-06 0)
(-2.24706e-05 8.5758e-06 0)
(-2.3804e-05 8.31856e-06 0)
(-2.50956e-05 8.04675e-06 0)
(-2.63433e-05 7.76084e-06 0)
(-2.75447e-05 7.46132e-06 0)
(-2.86977e-05 7.14872e-06 0)
(-2.98005e-05 6.82359e-06 0)
(-3.0851e-05 6.48649e-06 0)
(-3.18474e-05 6.13801e-06 0)
(-3.27879e-05 5.77877e-06 0)
(-3.36709e-05 5.4094e-06 0)
(-3.44949e-05 5.03053e-06 0)
(-3.52584e-05 4.64284e-06 0)
(-3.596e-05 4.247e-06 0)
(-3.65986e-05 3.84372e-06 0)
(-3.71729e-05 3.43369e-06 0)
(-3.76821e-05 3.01764e-06 0)
(-3.81252e-05 2.59629e-06 0)
(-3.85014e-05 2.17039e-06 0)
(-3.88101e-05 1.74067e-06 0)
(-3.90507e-05 1.3079e-06 0)
(-3.92228e-05 8.72839e-07 0)
(-3.93262e-05 4.3624e-07 0)
(-3.93605e-05 -1.12598e-09 0)
(-3.93258e-05 -4.38493e-07 0)
(-3.92221e-05 -8.75093e-07 0)
(-3.90497e-05 -1.31016e-06 0)
(-3.88087e-05 -1.74293e-06 0)
(-3.84997e-05 -2.17265e-06 0)
(-3.81231e-05 -2.59856e-06 0)
(-3.76797e-05 -3.01992e-06 0)
(-3.71702e-05 -3.43598e-06 0)
(-3.65954e-05 -3.84601e-06 0)
(-3.59565e-05 -4.2493e-06 0)
(-3.52545e-05 -4.64514e-06 0)
(-3.44907e-05 -5.03283e-06 0)
(-3.36664e-05 -5.4117e-06 0)
(-3.2783e-05 -5.78108e-06 0)
(-3.18421e-05 -6.14031e-06 0)
(-3.08454e-05 -6.48878e-06 0)
(-2.97945e-05 -6.82587e-06 0)
(-2.86914e-05 -7.15098e-06 0)
(-2.75379e-05 -7.46355e-06 0)
(-2.63362e-05 -7.76303e-06 0)
(-2.50882e-05 -8.0489e-06 0)
(-2.37963e-05 -8.32065e-06 0)
(-2.24626e-05 -8.5778e-06 0)
(-2.10895e-05 -8.8199e-06 0)
(-1.96793e-05 -9.04653e-06 0)
(-1.82347e-05 -9.2573e-06 0)
(-1.67581e-05 -9.45183e-06 0)
(-1.52521e-05 -9.62977e-06 0)
(-1.37193e-05 -9.79083e-06 0)
(-1.21625e-05 -9.9347e-06 0)
(-1.05843e-05 -1.00612e-05 0)
(-8.98757e-06 -1.017e-05 0)
(-7.37506e-06 -1.02609e-05 0)
(-5.74962e-06 -1.03339e-05 0)
(-4.11409e-06 -1.03887e-05 0)
(-2.47134e-06 -1.04253e-05 0)
(-8.24254e-07 -1.04436e-05 0)
(8.24279e-07 -1.04436e-05 0)
(2.47136e-06 -1.04253e-05 0)
(4.11411e-06 -1.03887e-05 0)
(5.74964e-06 -1.03339e-05 0)
(7.37509e-06 -1.02609e-05 0)
(8.98759e-06 -1.017e-05 0)
(1.05843e-05 -1.00612e-05 0)
(1.21625e-05 -9.93471e-06 0)
(1.37193e-05 -9.79083e-06 0)
(1.52521e-05 -9.62977e-06 0)
(1.67581e-05 -9.45183e-06 0)
(1.82347e-05 -9.2573e-06 0)
(1.96794e-05 -9.04654e-06 0)
(2.10895e-05 -8.8199e-06 0)
(2.24626e-05 -8.5778e-06 0)
(2.37963e-05 -8.32065e-06 0)
(2.50883e-05 -8.0489e-06 0)
(2.63362e-05 -7.76304e-06 0)
(2.7538e-05 -7.46356e-06 0)
(2.86914e-05 -7.15098e-06 0)
(2.97945e-05 -6.82587e-06 0)
(3.08454e-05 -6.48878e-06 0)
(3.18421e-05 -6.14032e-06 0)
(3.2783e-05 -5.78108e-06 0)
(3.36664e-05 -5.4117e-06 0)
(3.44907e-05 -5.03284e-06 0)
(3.52546e-05 -4.64514e-06 0)
(3.59566e-05 -4.2493e-06 0)
(3.65955e-05 -3.84601e-06 0)
(3.71702e-05 -3.43598e-06 0)
(3.76797e-05 -3.01992e-06 0)
(3.81232e-05 -2.59857e-06 0)
(3.84997e-05 -2.17266e-06 0)
(3.88088e-05 -1.74294e-06 0)
(3.90497e-05 -1.31017e-06 0)