/*--------------------------------*- C++ -*----------------------------------*\
| =========                 |                                                 |
| \\      /  F ield         | OpenFOAM: The Open Source CFD Toolbox           |
|  \\    /   O peration     | Version:  2106                                  |
|   \\  /    A nd           | Website:  www.openfoam.com                      |
|    \\/     M anipulation  |                                                 |
\*---------------------------------------------------------------------------*/
FoamFile
{
    version     2.0;
    format      ascii;
    arch        "LSB;label=32;scalar=64";
    class       volVectorField;
    location    "1.7";
    object      U_0;
}
// * * * * * * * * * * * * * * * * * * * * * * * * * * * * * * * * * * * * * //

dimensions      [0 1 -1 0 0 0 0];

internalField   nonuniform List<vector> 
90000
(
(-7.94395e-07 7.94481e-07 0)
(-2.38176e-06 7.9231e-07 0)
(-3.96455e-06 7.89026e-07 0)
(-5.53966e-06 7.84566e-07 0)
(-7.10453e-06 7.78823e-07 0)
(-8.65664e-06 7.71774e-07 0)
(-1.01933e-05 7.63413e-07 0)
(-1.1712e-05 7.53743e-07 0)
(-1.321e-05 7.42773e-07 0)
(-1.46848e-05 7.30515e-07 0)
(-1.61338e-05 7.16985e-07 0)
(-1.75544e-05 7.02204e-07 0)
(-1.89442e-05 6.86198e-07 0)
(-2.03007e-05 6.68991e-07 0)
(-2.16217e-05 6.50614e-07 0)
(-2.29047e-05 6.31098e-07 0)
(-2.41475e-05 6.10476e-07 0)
(-2.5348e-05 5.88785e-07 0)
(-2.6504e-05 5.66061e-07 0)
(-2.76135e-05 5.42345e-07 0)
(-2.86746e-05 5.17678e-07 0)
(-2.96854e-05 4.92104e-07 0)
(-3.06441e-05 4.65666e-07 0)
(-3.15491e-05 4.38412e-07 0)
(-3.23988e-05 4.10388e-07 0)
(-3.31916e-05 3.81645e-07 0)
(-3.39263e-05 3.52233e-07 0)
(-3.46014e-05 3.22202e-07 0)
(-3.52158e-05 2.91606e-07 0)
(-3.57685e-05 2.60499e-07 0)
(-3.62584e-05 2.28935e-07 0)
(-3.66847e-05 1.96969e-07 0)
(-3.70467e-05 1.64657e-07 0)
(-3.73437e-05 1.32056e-07 0)
(-3.75752e-05 9.92239e-08 0)
(-3.77409e-05 6.62172e-08 0)
(-3.78403e-05 3.30943e-08 0)
(-3.78733e-05 -8.69217e-11 0)
(-3.78399e-05 -3.32681e-08 0)
(-3.77402e-05 -6.63912e-08 0)
(-3.75742e-05 -9.9398e-08 0)
(-3.73423e-05 -1.32231e-07 0)
(-3.7045e-05 -1.64831e-07 0)
(-3.66826e-05 -1.97143e-07 0)
(-3.6256e-05 -2.2911e-07 0)
(-3.57657e-05 -2.60674e-07 0)
(-3.52127e-05 -2.91782e-07 0)
(-3.45979e-05 -3.22378e-07 0)
(-3.39224e-05 -3.52409e-07 0)
(-3.31874e-05 -3.81821e-07 0)
(-3.23942e-05 -4.10564e-07 0)
(-3.15442e-05 -4.38587e-07 0)
(-3.06389e-05 -4.65841e-07 0)
(-2.96798e-05 -4.92278e-07 0)
(-2.86687e-05 -5.17851e-07 0)
(-2.76072e-05 -5.42516e-07 0)
(-2.64974e-05 -5.66229e-07 0)
(-2.5341e-05 -5.8895e-07 0)
(-2.41402e-05 -6.10637e-07 0)
(-2.28971e-05 -6.31253e-07 0)
(-2.16138e-05 -6.50762e-07 0)
(-2.02925e-05 -6.6913e-07 0)
(-1.89357e-05 -6.86323e-07 0)
(-1.75457e-05 -7.02313e-07 0)
(-1.61248e-05 -7.17071e-07 0)
(-1.46757e-05 -7.30571e-07 0)
(-1.32009e-05 -7.4279e-07 0)
(-1.17029e-05 -7.53705e-07 0)
(-1.01843e-05 -7.63298e-07 0)
(-8.64794e-06 -7.71553e-07 0)
(-7.09637e-06 -7.78453e-07 0)
(-5.53235e-06 -7.83989e-07 0)
(-3.95862e-06 -7.88149e-07 0)
(-2.37795e-06 -7.90926e-07 0)
(-7.93105e-07 -7.92316e-07 0)
(7.93131e-07 -7.92316e-07 0)
(2.37797e-06 -7.90926e-07 0)
(3.95864e-06 -7.88149e-07 0)
(5.53237e-06 -7.83989e-07 0)
(7.09639e-06 -7.78453e-07 0)
(8.64797e-06 -7.71553e-07 0)
(1.01844e-05 -7.63298e-07 0)
(1.17029e-05 -7.53705e-07 0)
(1.32009e-05 -7.4279e-07 0)
(1.46758e-05 -7.30571e-07 0)
(1.61249e-05 -7.17071e-07 0)
(1.75457e-05 -7.02313e-07 0)
(1.89357e-05 -6.86323e-07 0)
(2.02926e-05 -6.6913e-07 0)
(2.16138e-05 -6.50762e-07 0)
(2.28971e-05 -6.31253e-07 0)
(2.41402e-05 -6.10637e-07 0)
(2.5341e-05 -5.8895e-07 0)
(2.64974e-05 -5.6623e-07 0)
(2.76073e-05 -5.42516e-07 0)
(2.86687e-05 -5.17851e-07 0)
(2.96798e-05 -4.92278e-07 0)
(3.06389e-05 -4.65841e-07 0)
(3.15443e-05 -4.38587e-07 0)
(3.23943e-05 -4.10564e-07 0)
(3.31875e-05 -3.81821e-07 0)
(3.39224e-05 -3.52409e-07 0)
(3.45979e-05 -3.22378e-07 0)
(3.52127e-05 -2.91782e-07 0)
(3.57657e-05 -2.60675e-07 0)
(3.6256e-05 -2.2911e-07 0)
(3.66827e-05 -1.97144e-07 0)
(3.7045e-05 -1.64832e-07 0)
(3.73424e-05 -1.32231e-07 0)
(3.75742e-05 -9.93986e-08 0)
(3.77402e-05 -6.63917e-08 0)
(3.784e-05 -3.32686e-08 0)
(3.78734e-05 -8.73637e-11 0)
(3.78403e-05 3.30938e-08 0)
(3.77409e-05 6.62168e-08 0)
(3.75753e-05 9.92233e-08 0)
(3.73438e-05 1.32056e-07 0)
(3.70468e-05 1.64656e-07 0)
(3.66848e-05 1.96968e-07 0)
(3.62585e-05 2.28934e-07 0)
(3.57685e-05 2.60498e-07 0)
(3.52159e-05 2.91605e-07 0)
(3.46014e-05 3.22201e-07 0)
(3.39263e-05 3.52231e-07 0)
(3.31917e-05 3.81644e-07 0)
(3.23989e-05 4.10387e-07 0)
(3.15492e-05 4.3841e-07 0)
(3.06442e-05 4.65664e-07 0)
(2.96855e-05 4.92102e-07 0)
(2.86747e-05 5.17676e-07 0)
(2.76136e-05 5.42343e-07 0)
(2.65041e-05 5.66058e-07 0)
(2.53481e-05 5.88782e-07 0)
(2.41476e-05 6.10473e-07 0)
(2.29048e-05 6.31095e-07 0)
(2.16218e-05 6.5061e-07 0)
(2.03009e-05 6.68987e-07 0)
(1.89443e-05 6.86192e-07 0)
(1.75545e-05 7.02198e-07 0)
(1.61339e-05 7.16976e-07 0)
(1.4685e-05 7.30505e-07 0)
(1.32102e-05 7.42761e-07 0)
(1.17122e-05 7.53727e-07 0)
(1.01936e-05 7.6339e-07 0)
(8.65694e-06 7.71741e-07 0)
(7.10488e-06 7.78774e-07 0)
(5.54008e-06 7.84493e-07 0)
(3.96513e-06 7.88911e-07 0)
(2.38259e-06 7.92073e-07 0)
(7.94855e-07 7.94021e-07 0)
(-7.96565e-07 2.38487e-06 0)
(-2.38789e-06 2.37873e-06 0)
(-3.97427e-06 2.36905e-06 0)
(-5.55302e-06 2.35569e-06 0)
(-7.12158e-06 2.33847e-06 0)
(-8.67735e-06 2.31731e-06 0)
(-1.02177e-05 2.29222e-06 0)
(-1.174e-05 2.26319e-06 0)
(-1.32415e-05 2.23025e-06 0)
(-1.47198e-05 2.19344e-06 0)
(-1.61722e-05 2.15282e-06 0)
(-1.75962e-05 2.10844e-06 0)
(-1.89893e-05 2.06038e-06 0)
(-2.03491e-05 2.00872e-06 0)
(-2.16732e-05 1.95354e-06 0)
(-2.29593e-05 1.89494e-06 0)
(-2.4205e-05 1.83302e-06 0)
(-2.54084e-05 1.76789e-06 0)
(-2.65671e-05 1.69966e-06 0)
(-2.76793e-05 1.62845e-06 0)
(-2.87429e-05 1.55439e-06 0)
(-2.97561e-05 1.4776e-06 0)
(-3.07172e-05 1.39821e-06 0)
(-3.16243e-05 1.31638e-06 0)
(-3.2476e-05 1.23224e-06 0)
(-3.32707e-05 1.14593e-06 0)
(-3.40071e-05 1.05762e-06 0)
(-3.46838e-05 9.67448e-07 0)
(-3.52997e-05 8.75581e-07 0)
(-3.58537e-05 7.82178e-07 0)
(-3.63448e-05 6.87402e-07 0)
(-3.67721e-05 5.91421e-07 0)
(-3.7135e-05 4.94401e-07 0)
(-3.74327e-05 3.96514e-07 0)
(-3.76648e-05 2.97931e-07 0)
(-3.78308e-05 1.98825e-07 0)
(-3.79304e-05 9.93698e-08 0)
(-3.79636e-05 -2.60403e-10 0)
(-3.79301e-05 -9.98907e-08 0)
(-3.78301e-05 -1.99346e-07 0)
(-3.76637e-05 -2.98453e-07 0)
(-3.74313e-05 -3.97037e-07 0)
(-3.71333e-05 -4.94925e-07 0)
(-3.677e-05 -5.91945e-07 0)
(-3.63423e-05 -6.87927e-07 0)
(-3.58509e-05 -7.82704e-07 0)
(-3.52966e-05 -8.76108e-07 0)
(-3.46803e-05 -9.67975e-07 0)
(-3.40032e-05 -1.05815e-06 0)
(-3.32665e-05 -1.14646e-06 0)
(-3.24714e-05 -1.23276e-06 0)
(-3.16194e-05 -1.31691e-06 0)
(-3.07119e-05 -1.39874e-06 0)
(-2.97505e-05 -1.47812e-06 0)
(-2.8737e-05 -1.5549e-06 0)
(-2.7673e-05 -1.62896e-06 0)
(-2.65605e-05 -1.70017e-06 0)
(-2.54014e-05 -1.76839e-06 0)
(-2.41977e-05 -1.8335e-06 0)
(-2.29516e-05 -1.89541e-06 0)
(-2.16653e-05 -1.95399e-06 0)
(-2.03409e-05 -2.00914e-06 0)
(-1.89808e-05 -2.06076e-06 0)
(-1.75875e-05 -2.10877e-06 0)
(-1.61633e-05 -2.15308e-06 0)
(-1.47107e-05 -2.19362e-06 0)
(-1.32323e-05 -2.23031e-06 0)
(-1.17308e-05 -2.26308e-06 0)
(-1.02086e-05 -2.29189e-06 0)
(-8.66855e-06 -2.31667e-06 0)
(-7.11328e-06 -2.33739e-06 0)
(-5.54553e-06 -2.35401e-06 0)
(-3.96805e-06 -2.3665e-06 0)
(-2.38361e-06 -2.37484e-06 0)
(-7.94995e-07 -2.37901e-06 0)
(7.95021e-07 -2.37901e-06 0)
(2.38364e-06 -2.37484e-06 0)
(3.96808e-06 -2.3665e-06 0)
(5.54556e-06 -2.35401e-06 0)
(7.1133e-06 -2.33739e-06 0)
(8.66858e-06 -2.31667e-06 0)
(1.02086e-05 -2.29189e-06 0)
(1.17308e-05 -2.26308e-06 0)
(1.32324e-05 -2.23031e-06 0)
(1.47107e-05 -2.19362e-06 0)
(1.61633e-05 -2.15308e-06 0)
(1.75875e-05 -2.10877e-06 0)
(1.89809e-05 -2.06076e-06 0)
(2.03409e-05 -2.00914e-06 0)
(2.16653e-05 -1.95399e-06 0)
(2.29517e-05 -1.89541e-06 0)
(2.41978e-05 -1.83351e-06 0)
(2.54014e-05 -1.76839e-06 0)
(2.65605e-05 -1.70017e-06 0)
(2.7673e-05 -1.62896e-06 0)
(2.8737e-05 -1.5549e-06 0)
(2.97506e-05 -1.47812e-06 0)
(3.07119e-05 -1.39874e-06 0)
(3.16194e-05 -1.31691e-06 0)
(3.24715e-05 -1.23276e-06 0)
(3.32666e-05 -1.14646e-06 0)
(3.40033e-05 -1.05815e-06 0)
(3.46804e-05 -9.67976e-07 0)
(3.52966e-05 -8.76109e-07 0)
(3.58509e-05 -7.82705e-07 0)
(3.63424e-05 -6.87929e-07 0)
(3.67701e-05 -5.91946e-07 0)
(3.71333e-05 -4.94926e-07 0)
(3.74314e-05 -3.97038e-07 0)
(3.76638e-05 -2.98455e-07 0)
(3.78301e-05 -1.99348e-07 0)
(3.79301e-05 -9.98923e-08 0)
(3.79636e-05 -2.6195e-10 0)
(3.79305e-05 9.93682e-08 0)
(3.78308e-05 1.98823e-07 0)
(3.76648e-05 2.97929e-07 0)
(3.74328e-05 3.96512e-07 0)
(3.7135e-05 4.94399e-07 0)
(3.67722e-05 5.91418e-07 0)
(3.63448e-05 6.87399e-07 0)
(3.58538e-05 7.82174e-07 0)
(3.52998e-05 8.75577e-07 0)
(3.46839e-05 9.67444e-07 0)
(3.40072e-05 1.05761e-06 0)
(3.32708e-05 1.14593e-06 0)
(3.24761e-05 1.23223e-06 0)
(3.16244e-05 1.31637e-06 0)
(3.07172e-05 1.39821e-06 0)
(2.97562e-05 1.47759e-06 0)
(2.8743e-05 1.55438e-06 0)
(2.76794e-05 1.62844e-06 0)
(2.65672e-05 1.69965e-06 0)
(2.54085e-05 1.76788e-06 0)
(2.42051e-05 1.83301e-06 0)
(2.29594e-05 1.89493e-06 0)
(2.16733e-05 1.95353e-06 0)
(2.03492e-05 2.0087e-06 0)
(1.89895e-05 2.06036e-06 0)
(1.75964e-05 2.10842e-06 0)
(1.61724e-05 2.1528e-06 0)
(1.472e-05 2.19341e-06 0)
(1.32417e-05 2.23021e-06 0)
(1.17402e-05 2.26314e-06 0)
(1.02179e-05 2.29215e-06 0)
(8.67763e-06 2.31722e-06 0)
(7.12189e-06 2.33834e-06 0)
(5.55337e-06 2.35551e-06 0)
(3.97468e-06 2.36879e-06 0)
(2.38836e-06 2.37825e-06 0)
(7.96802e-07 2.38404e-06 0)
(-7.99853e-07 3.97983e-06 0)
(-2.39756e-06 3.97007e-06 0)
(-3.99017e-06 3.95412e-06 0)
(-5.57514e-06 3.93187e-06 0)
(-7.14991e-06 3.90314e-06 0)
(-8.71184e-06 3.86785e-06 0)
(-1.02583e-05 3.82597e-06 0)
(-1.17866e-05 3.77753e-06 0)
(-1.32941e-05 3.72256e-06 0)
(-1.47782e-05 3.66113e-06 0)
(-1.62364e-05 3.59332e-06 0)
(-1.7666e-05 3.51925e-06 0)
(-1.90646e-05 3.43904e-06 0)
(-2.04298e-05 3.35281e-06 0)
(-2.17591e-05 3.26071e-06 0)
(-2.30503e-05 3.1629e-06 0)
(-2.4301e-05 3.05955e-06 0)
(-2.55091e-05 2.95083e-06 0)
(-2.66725e-05 2.83695e-06 0)
(-2.77891e-05 2.71809e-06 0)
(-2.88569e-05 2.59447e-06 0)
(-2.98741e-05 2.4663e-06 0)
(-3.0839e-05 2.3338e-06 0)
(-3.17497e-05 2.19721e-06 0)
(-3.26048e-05 2.05676e-06 0)
(-3.34027e-05 1.91271e-06 0)
(-3.4142e-05 1.7653e-06 0)
(-3.48214e-05 1.6148e-06 0)
(-3.54397e-05 1.46146e-06 0)
(-3.59959e-05 1.30556e-06 0)
(-3.64889e-05 1.14736e-06 0)
(-3.6918e-05 9.87158e-07 0)
(-3.72823e-05 8.2522e-07 0)
(-3.75812e-05 6.61834e-07 0)
(-3.78142e-05 4.97287e-07 0)
(-3.79808e-05 3.31866e-07 0)
(-3.80809e-05 1.65862e-07 0)
(-3.81141e-05 -4.33594e-10 0)
(-3.80805e-05 -1.66729e-07 0)
(-3.79801e-05 -3.32734e-07 0)
(-3.78131e-05 -4.98156e-07 0)
(-3.75798e-05 -6.62705e-07 0)
(-3.72805e-05 -8.26092e-07 0)
(-3.69159e-05 -9.88032e-07 0)
(-3.64865e-05 -1.14824e-06 0)
(-3.59931e-05 -1.30643e-06 0)
(-3.54366e-05 -1.46234e-06 0)
(-3.48179e-05 -1.61568e-06 0)
(-3.41381e-05 -1.76618e-06 0)
(-3.33985e-05 -1.91359e-06 0)
(-3.26002e-05 -2.05764e-06 0)
(-3.17448e-05 -2.19809e-06 0)
(-3.08337e-05 -2.33467e-06 0)
(-2.98685e-05 -2.46717e-06 0)
(-2.8851e-05 -2.59534e-06 0)
(-2.77828e-05 -2.71895e-06 0)
(-2.66659e-05 -2.8378e-06 0)
(-2.55022e-05 -2.95166e-06 0)
(-2.42937e-05 -3.06036e-06 0)
(-2.30427e-05 -3.16368e-06 0)
(-2.17512e-05 -3.26145e-06 0)
(-2.04216e-05 -3.35351e-06 0)
(-1.90561e-05 -3.43968e-06 0)
(-1.76572e-05 -3.51981e-06 0)
(-1.62274e-05 -3.59378e-06 0)
(-1.47691e-05 -3.66143e-06 0)
(-1.32848e-05 -3.72267e-06 0)
(-1.17773e-05 -3.77737e-06 0)
(-1.02491e-05 -3.82545e-06 0)
(-8.70293e-06 -3.86682e-06 0)
(-7.14149e-06 -3.90141e-06 0)
(-5.56753e-06 -3.92915e-06 0)
(-3.98379e-06 -3.95e-06 0)
(-2.39307e-06 -3.96392e-06 0)
(-7.98149e-07 -3.97088e-06 0)
(7.98175e-07 -3.97088e-06 0)
(2.39309e-06 -3.96392e-06 0)
(3.98382e-06 -3.95e-06 0)
(5.56755e-06 -3.92915e-06 0)
(7.14152e-06 -3.90141e-06 0)
(8.70296e-06 -3.86682e-06 0)
(1.02491e-05 -3.82545e-06 0)
(1.17773e-05 -3.77737e-06 0)
(1.32849e-05 -3.72267e-06 0)
(1.47691e-05 -3.66143e-06 0)
(1.62274e-05 -3.59378e-06 0)
(1.76573e-05 -3.51981e-06 0)
(1.90561e-05 -3.43968e-06 0)
(2.04216e-05 -3.35351e-06 0)
(2.17512e-05 -3.26145e-06 0)
(2.30427e-05 -3.16368e-06 0)
(2.42937e-05 -3.06036e-06 0)
(2.55022e-05 -2.95167e-06 0)
(2.66659e-05 -2.8378e-06 0)
(2.77828e-05 -2.71895e-06 0)
(2.8851e-05 -2.59534e-06 0)
(2.98686e-05 -2.46717e-06 0)
(3.08338e-05 -2.33468e-06 0)
(3.17449e-05 -2.19809e-06 0)
(3.26003e-05 -2.05764e-06 0)
(3.33985e-05 -1.91359e-06 0)
(3.41382e-05 -1.76618e-06 0)
(3.48179e-05 -1.61568e-06 0)
(3.54366e-05 -1.46234e-06 0)
(3.59931e-05 -1.30643e-06 0)
(3.64865e-05 -1.14824e-06 0)
(3.69159e-05 -9.88034e-07 0)
(3.72806e-05 -8.26095e-07 0)
(3.75798e-05 -6.62707e-07 0)
(3.78132e-05 -4.98158e-07 0)
(3.79802e-05 -3.32736e-07 0)
(3.80806e-05 -1.66732e-07 0)
(3.81142e-05 -4.36397e-10 0)
(3.80809e-05 1.65859e-07 0)
(3.79809e-05 3.31862e-07 0)
(3.78142e-05 4.97283e-07 0)
(3.75812e-05 6.6183e-07 0)
(3.72823e-05 8.25216e-07 0)
(3.6918e-05 9.87153e-07 0)
(3.6489e-05 1.14736e-06 0)
(3.59959e-05 1.30555e-06 0)
(3.54398e-05 1.46145e-06 0)
(3.48214e-05 1.61479e-06 0)
(3.4142e-05 1.76529e-06 0)
(3.34027e-05 1.9127e-06 0)
(3.26049e-05 2.05675e-06 0)
(3.17498e-05 2.1972e-06 0)
(3.08391e-05 2.33379e-06 0)
(2.98742e-05 2.46629e-06 0)
(2.8857e-05 2.59446e-06 0)
(2.77892e-05 2.71808e-06 0)
(2.66726e-05 2.83694e-06 0)
(2.55092e-05 2.95082e-06 0)
(2.43011e-05 3.05953e-06 0)
(2.30504e-05 3.16288e-06 0)
(2.17593e-05 3.26069e-06 0)
(2.04299e-05 3.35278e-06 0)
(1.90648e-05 3.43901e-06 0)
(1.76661e-05 3.51922e-06 0)
(1.62365e-05 3.59329e-06 0)
(1.47784e-05 3.66108e-06 0)
(1.32943e-05 3.7225e-06 0)
(1.17868e-05 3.77746e-06 0)
(1.02585e-05 3.82588e-06 0)
(8.71208e-06 3.86773e-06 0)
(7.15017e-06 3.90298e-06 0)
(5.57542e-06 3.93165e-06 0)
(3.99045e-06 3.95383e-06 0)
(2.39783e-06 3.96966e-06 0)
(7.99968e-07 3.97926e-06 0)
(-8.04335e-07 5.58248e-06 0)
(-2.41096e-06 5.569e-06 0)
(-4.01242e-06 5.54671e-06 0)
(-5.60621e-06 5.51553e-06 0)
(-7.18973e-06 5.47525e-06 0)
(-8.76034e-06 5.42575e-06 0)
(-1.03154e-05 5.36702e-06 0)
(-1.18522e-05 5.29907e-06 0)
(-1.33681e-05 5.22196e-06 0)
(-1.48604e-05 5.13579e-06 0)
(-1.63267e-05 5.04068e-06 0)
(-1.77643e-05 4.93678e-06 0)
(-1.91707e-05 4.82425e-06 0)
(-2.05435e-05 4.70329e-06 0)
(-2.18802e-05 4.57409e-06 0)
(-2.31785e-05 4.43689e-06 0)
(-2.44362e-05 4.29191e-06 0)
(-2.5651e-05 4.13941e-06 0)
(-2.68209e-05 3.97966e-06 0)
(-2.79437e-05 3.81292e-06 0)
(-2.90174e-05 3.63951e-06 0)
(-3.00403e-05 3.4597e-06 0)
(-3.10105e-05 3.27384e-06 0)
(-3.19263e-05 3.08223e-06 0)
(-3.27862e-05 2.88521e-06 0)
(-3.35885e-05 2.68314e-06 0)
(-3.43319e-05 2.47635e-06 0)
(-3.50151e-05 2.26522e-06 0)
(-3.56369e-05 2.05012e-06 0)
(-3.61961e-05 1.83143e-06 0)
(-3.66919e-05 1.60951e-06 0)
(-3.71233e-05 1.38478e-06 0)
(-3.74897e-05 1.15761e-06 0)
(-3.77902e-05 9.28418e-07 0)
(-3.80245e-05 6.97592e-07 0)
(-3.81921e-05 4.65541e-07 0)
(-3.82927e-05 2.32672e-07 0)
(-3.83262e-05 -6.06872e-10 0)
(-3.82924e-05 -2.33886e-07 0)
(-3.81914e-05 -4.66756e-07 0)
(-3.80235e-05 -6.98808e-07 0)
(-3.77888e-05 -9.29637e-07 0)
(-3.74879e-05 -1.15884e-06 0)
(-3.71213e-05 -1.386e-06 0)
(-3.66895e-05 -1.61074e-06 0)
(-3.61933e-05 -1.83265e-06 0)
(-3.56337e-05 -2.05135e-06 0)
(-3.50116e-05 -2.26646e-06 0)
(-3.4328e-05 -2.47759e-06 0)
(-3.35843e-05 -2.68437e-06 0)
(-3.27816e-05 -2.88645e-06 0)
(-3.19214e-05 -3.08346e-06 0)
(-3.10053e-05 -3.27507e-06 0)
(-3.00347e-05 -3.46093e-06 0)
(-2.90115e-05 -3.64072e-06 0)
(-2.79373e-05 -3.81413e-06 0)
(-2.68142e-05 -3.98084e-06 0)
(-2.5644e-05 -4.14058e-06 0)
(-2.44289e-05 -4.29305e-06 0)
(-2.31709e-05 -4.43799e-06 0)
(-2.18722e-05 -4.57515e-06 0)
(-2.05352e-05 -4.70428e-06 0)
(-1.91621e-05 -4.82516e-06 0)
(-1.77555e-05 -4.93757e-06 0)
(-1.63177e-05 -5.04132e-06 0)
(-1.48512e-05 -5.13624e-06 0)
(-1.33587e-05 -5.22214e-06 0)
(-1.18428e-05 -5.29888e-06 0)
(-1.03061e-05 -5.36632e-06 0)
(-8.75136e-06 -5.42435e-06 0)
(-7.18123e-06 -5.47287e-06 0)
(-5.5985e-06 -5.51178e-06 0)
(-4.00596e-06 -5.54103e-06 0)
(-2.40638e-06 -5.56056e-06 0)
(-8.0259e-07 -5.57033e-06 0)
(8.02615e-07 -5.57033e-06 0)
(2.40641e-06 -5.56056e-06 0)
(4.00598e-06 -5.54103e-06 0)
(5.59853e-06 -5.51178e-06 0)
(7.18125e-06 -5.47287e-06 0)
(8.75138e-06 -5.42435e-06 0)
(1.03062e-05 -5.36632e-06 0)
(1.18429e-05 -5.29888e-06 0)
(1.33588e-05 -5.22214e-06 0)
(1.48513e-05 -5.13624e-06 0)
(1.63177e-05 -5.04133e-06 0)
(1.77555e-05 -4.93757e-06 0)
(1.91622e-05 -4.82516e-06 0)
(2.05352e-05 -4.70428e-06 0)
(2.18722e-05 -4.57515e-06 0)
(2.31709e-05 -4.43799e-06 0)
(2.44289e-05 -4.29305e-06 0)
(2.56441e-05 -4.14058e-06 0)
(2.68142e-05 -3.98084e-06 0)
(2.79374e-05 -3.81413e-06 0)
(2.90115e-05 -3.64072e-06 0)
(3.00348e-05 -3.46093e-06 0)
(3.10053e-05 -3.27507e-06 0)
(3.19215e-05 -3.08346e-06 0)
(3.27816e-05 -2.88645e-06 0)
(3.35843e-05 -2.68437e-06 0)
(3.43281e-05 -2.47759e-06 0)
(3.50116e-05 -2.26646e-06 0)
(3.56338e-05 -2.05136e-06 0)
(3.61934e-05 -1.83266e-06 0)
(3.66895e-05 -1.61074e-06 0)
(3.71213e-05 -1.38601e-06 0)
(3.7488e-05 -1.15884e-06 0)
(3.77889e-05 -9.2964e-07 0)
(3.80235e-05 -6.98811e-07 0)
(3.81915e-05 -4.66759e-07 0)
(3.82924e-05 -2.33889e-07 0)
(3.83262e-05 -6.10778e-10 0)
(3.82928e-05 2.32667e-07 0)
(3.81922e-05 4.65536e-07 0)
(3.80246e-05 6.97587e-07 0)
(3.77903e-05 9.28412e-07 0)
(3.74897e-05 1.15761e-06 0)
(3.71234e-05 1.38477e-06 0)
(3.6692e-05 1.60951e-06 0)
(3.61962e-05 1.83142e-06 0)
(3.56369e-05 2.05012e-06 0)
(3.50151e-05 2.26522e-06 0)
(3.43319e-05 2.47634e-06 0)
(3.35885e-05 2.68313e-06 0)
(3.27862e-05 2.8852e-06 0)
(3.19264e-05 3.08222e-06 0)
(3.10106e-05 3.27382e-06 0)
(3.00404e-05 3.45969e-06 0)
(2.90175e-05 3.63949e-06 0)
(2.79437e-05 3.81291e-06 0)
(2.6821e-05 3.97964e-06 0)
(2.56511e-05 4.13939e-06 0)
(2.44363e-05 4.29189e-06 0)
(2.31786e-05 4.43686e-06 0)
(2.18803e-05 4.57407e-06 0)
(2.05436e-05 4.70326e-06 0)
(1.91708e-05 4.82422e-06 0)
(1.77644e-05 4.93674e-06 0)
(1.63268e-05 5.04063e-06 0)
(1.48606e-05 5.13573e-06 0)
(1.33682e-05 5.22189e-06 0)
(1.18523e-05 5.29898e-06 0)
(1.03156e-05 5.36691e-06 0)
(8.76055e-06 5.42561e-06 0)
(7.18995e-06 5.47507e-06 0)
(5.60644e-06 5.51531e-06 0)
(4.01263e-06 5.54643e-06 0)
(2.41114e-06 5.56865e-06 0)
(8.04408e-07 5.58207e-06 0)
(-8.10134e-07 7.19543e-06 0)
(-2.42833e-06 7.17813e-06 0)
(-4.04129e-06 7.14945e-06 0)
(-5.64654e-06 7.10928e-06 0)
(-7.24144e-06 7.05737e-06 0)
(-8.82333e-06 6.99358e-06 0)
(-1.03895e-05 6.91788e-06 0)
(-1.19374e-05 6.8303e-06 0)
(-1.34642e-05 6.73092e-06 0)
(-1.49673e-05 6.61985e-06 0)
(-1.64441e-05 6.49726e-06 0)
(-1.7892e-05 6.36333e-06 0)
(-1.93085e-05 6.21829e-06 0)
(-2.06911e-05 6.06237e-06 0)
(-2.20375e-05 5.89585e-06 0)
(-2.33451e-05 5.71899e-06 0)
(-2.46118e-05 5.53212e-06 0)
(-2.58354e-05 5.33556e-06 0)
(-2.70136e-05 5.12964e-06 0)
(-2.81445e-05 4.91473e-06 0)
(-2.9226e-05 4.6912e-06 0)
(-3.02562e-05 4.45944e-06 0)
(-3.12334e-05 4.21986e-06 0)
(-3.21558e-05 3.97289e-06 0)
(-3.30218e-05 3.71894e-06 0)
(-3.38299e-05 3.45847e-06 0)
(-3.45786e-05 3.19193e-06 0)
(-3.52667e-05 2.9198e-06 0)
(-3.5893e-05 2.64254e-06 0)
(-3.64563e-05 2.36065e-06 0)
(-3.69556e-05 2.07461e-06 0)
(-3.73902e-05 1.78494e-06 0)
(-3.77591e-05 1.49213e-06 0)
(-3.80619e-05 1.1967e-06 0)
(-3.82978e-05 8.99174e-07 0)
(-3.84666e-05 6.00068e-07 0)
(-3.8568e-05 2.99908e-07 0)
(-3.86016e-05 -7.80072e-10 0)
(-3.85676e-05 -3.01468e-07 0)
(-3.84659e-05 -6.0163e-07 0)
(-3.82968e-05 -9.00738e-07 0)
(-3.80605e-05 -1.19827e-06 0)
(-3.77574e-05 -1.4937e-06 0)
(-3.73881e-05 -1.78651e-06 0)
(-3.69532e-05 -2.07619e-06 0)
(-3.64535e-05 -2.36223e-06 0)
(-3.58899e-05 -2.64412e-06 0)
(-3.52633e-05 -2.92138e-06 0)
(-3.45748e-05 -3.19352e-06 0)
(-3.38257e-05 -3.46006e-06 0)
(-3.30173e-05 -3.72053e-06 0)
(-3.21509e-05 -3.97447e-06 0)
(-3.12282e-05 -4.22145e-06 0)
(-3.02506e-05 -4.46102e-06 0)
(-2.922e-05 -4.69276e-06 0)
(-2.81382e-05 -4.91628e-06 0)
(-2.7007e-05 -5.13117e-06 0)
(-2.58284e-05 -5.33706e-06 0)
(-2.46045e-05 -5.53359e-06 0)
(-2.33374e-05 -5.72042e-06 0)
(-2.20294e-05 -5.89721e-06 0)
(-2.06828e-05 -6.06365e-06 0)
(-1.92999e-05 -6.21946e-06 0)
(-1.78831e-05 -6.36436e-06 0)
(-1.6435e-05 -6.4981e-06 0)
(-1.4958e-05 -6.62043e-06 0)
(-1.34548e-05 -6.73116e-06 0)
(-1.1928e-05 -6.83007e-06 0)
(-1.03802e-05 -6.91701e-06 0)
(-8.81427e-06 -6.99181e-06 0)
(-7.23285e-06 -7.05434e-06 0)
(-5.63875e-06 -7.1045e-06 0)
(-4.03476e-06 -7.1422e-06 0)
(-2.42368e-06 -7.16737e-06 0)
(-8.0836e-07 -7.17997e-06 0)
(8.08385e-07 -7.17997e-06 0)
(2.42371e-06 -7.16737e-06 0)
(4.03478e-06 -7.1422e-06 0)
(5.63878e-06 -7.1045e-06 0)
(7.23288e-06 -7.05434e-06 0)
(8.81429e-06 -6.99181e-06 0)
(1.03802e-05 -6.91701e-06 0)
(1.1928e-05 -6.83007e-06 0)
(1.34548e-05 -6.73116e-06 0)
(1.4958e-05 -6.62043e-06 0)
(1.6435e-05 -6.4981e-06 0)
(1.78831e-05 -6.36436e-06 0)
(1.92999e-05 -6.21946e-06 0)
(2.06828e-05 -6.06365e-06 0)
(2.20295e-05 -5.89721e-06 0)
(2.33375e-05 -5.72042e-06 0)
(2.46045e-05 -5.53359e-06 0)
(2.58284e-05 -5.33706e-06 0)
(2.7007e-05 -5.13117e-06 0)
(2.81382e-05 -4.91628e-06 0)
(2.92201e-05 -4.69276e-06 0)
(3.02507e-05 -4.46102e-06 0)
(3.12282e-05 -4.22145e-06 0)
(3.21509e-05 -3.97448e-06 0)
(3.30173e-05 -3.72053e-06 0)
(3.38257e-05 -3.46006e-06 0)
(3.45748e-05 -3.19353e-06 0)
(3.52633e-05 -2.92139e-06 0)
(3.58899e-05 -2.64413e-06 0)
(3.64535e-05 -2.36223e-06 0)
(3.69532e-05 -2.07619e-06 0)
(3.73881e-05 -1.78651e-06 0)
(3.77574e-05 -1.4937e-06 0)
(3.80605e-05 -1.19827e-06 0)
(3.82968e-05 -9.00742e-07 0)
(3.8466e-05 -6.01634e-07 0)
(3.85677e-05 -3.01473e-07 0)
(3.86017e-05 -7.85004e-10 0)
(3.8568e-05 2.99902e-07 0)
(3.84667e-05 6.00062e-07 0)
(3.82979e-05 8.99168e-07 0)
(3.80619e-05 1.19669e-06 0)
(3.77592e-05 1.49212e-06 0)
(3.73902e-05 1.78493e-06 0)
(3.69557e-05 2.0746e-06 0)
(3.64563e-05 2.36064e-06 0)
(3.58931e-05 2.64253e-06 0)
(3.52668e-05 2.91979e-06 0)
(3.45787e-05 3.19192e-06 0)
(3.383e-05 3.45846e-06 0)
(3.30219e-05 3.71893e-06 0)
(3.21559e-05 3.97287e-06 0)
(3.12335e-05 4.21985e-06 0)
(3.02563e-05 4.45942e-06 0)
(2.92261e-05 4.69118e-06 0)
(2.81446e-05 4.91471e-06 0)
(2.70137e-05 5.12962e-06 0)
(2.58355e-05 5.33553e-06 0)
(2.46119e-05 5.5321e-06 0)
(2.33452e-05 5.71896e-06 0)
(2.20376e-05 5.89581e-06 0)
(2.06912e-05 6.06233e-06 0)
(1.93086e-05 6.21825e-06 0)
(1.78921e-05 6.36328e-06 0)
(1.64442e-05 6.4972e-06 0)
(1.49674e-05 6.61978e-06 0)
(1.34643e-05 6.73083e-06 0)
(1.19375e-05 6.8302e-06 0)
(1.03897e-05 6.91776e-06 0)
(8.82351e-06 6.99343e-06 0)
(7.24162e-06 7.05718e-06 0)
(5.64672e-06 7.10906e-06 0)
(4.04146e-06 7.14919e-06 0)
(2.42845e-06 7.17782e-06 0)
(8.10183e-07 7.19508e-06 0)
(-8.17294e-07 8.82128e-06 0)
(-2.44978e-06 8.80013e-06 0)
(-4.07697e-06 8.76501e-06 0)
(-5.69637e-06 8.71577e-06 0)
(-7.30534e-06 8.65214e-06 0)
(-8.90118e-06 8.57394e-06 0)
(-1.04812e-05 8.48115e-06 0)
(-1.20427e-05 8.37378e-06 0)
(-1.35829e-05 8.25194e-06 0)
(-1.50993e-05 8.11577e-06 0)
(-1.65891e-05 7.96548e-06 0)
(-1.80498e-05 7.80129e-06 0)
(-1.94788e-05 7.62348e-06 0)
(-2.08736e-05 7.43233e-06 0)
(-2.22319e-05 7.22817e-06 0)
(-2.35511e-05 7.01136e-06 0)
(-2.4829e-05 6.78226e-06 0)
(-2.60633e-05 6.54127e-06 0)
(-2.72519e-05 6.28882e-06 0)
(-2.83928e-05 6.02535e-06 0)
(-2.94838e-05 5.7513e-06 0)
(-3.05231e-05 5.46718e-06 0)
(-3.15089e-05 5.17346e-06 0)
(-3.24395e-05 4.87067e-06 0)
(-3.33131e-05 4.55934e-06 0)
(-3.41283e-05 4.24001e-06 0)
(-3.48837e-05 3.91324e-06 0)
(-3.55779e-05 3.57961e-06 0)
(-3.62096e-05 3.2397e-06 0)
(-3.67779e-05 2.8941e-06 0)
(-3.72817e-05 2.54343e-06 0)
(-3.772e-05 2.18829e-06 0)
(-3.80922e-05 1.82932e-06 0)
(-3.83976e-05 1.46713e-06 0)
(-3.86357e-05 1.10237e-06 0)
(-3.8806e-05 7.35673e-07 0)
(-3.89082e-05 3.67684e-07 0)
(-3.89422e-05 -9.5304e-10 0)
(-3.89079e-05 -3.6959e-07 0)
(-3.88053e-05 -7.37582e-07 0)
(-3.86347e-05 -1.10428e-06 0)
(-3.83963e-05 -1.46905e-06 0)
(-3.80905e-05 -1.83124e-06 0)
(-3.77179e-05 -2.19022e-06 0)
(-3.72792e-05 -2.54536e-06 0)
(-3.67751e-05 -2.89604e-06 0)
(-3.62065e-05 -3.24164e-06 0)
(-3.55744e-05 -3.58155e-06 0)
(-3.48798e-05 -3.91519e-06 0)
(-3.41241e-05 -4.24195e-06 0)
(-3.33086e-05 -4.56128e-06 0)
(-3.24346e-05 -4.87262e-06 0)
(-3.15037e-05 -5.1754e-06 0)
(-3.05175e-05 -5.46911e-06 0)
(-2.94778e-05 -5.75322e-06 0)
(-2.83864e-05 -6.02725e-06 0)
(-2.72452e-05 -6.2907e-06 0)
(-2.60563e-05 -6.54312e-06 0)
(-2.48216e-05 -6.78406e-06 0)
(-2.35433e-05 -7.01311e-06 0)
(-2.22238e-05 -7.22985e-06 0)
(-2.08653e-05 -7.43391e-06 0)
(-1.94702e-05 -7.62492e-06 0)
(-1.80409e-05 -7.80257e-06 0)
(-1.658e-05 -7.96653e-06 0)
(-1.509e-05 -8.11651e-06 0)
(-1.35735e-05 -8.25225e-06 0)
(-1.20332e-05 -8.37352e-06 0)
(-1.04718e-05 -8.4801e-06 0)
(-8.89204e-06 -8.57181e-06 0)
(-7.29667e-06 -8.64847e-06 0)
(-5.6885e-06 -8.70997e-06 0)
(-4.07036e-06 -8.75619e-06 0)
(-2.44507e-06 -8.78704e-06 0)
(-8.15492e-07 -8.80248e-06 0)
(8.15518e-07 -8.80248e-06 0)
(2.44509e-06 -8.78704e-06 0)
(4.07038e-06 -8.75619e-06 0)
(5.68853e-06 -8.70997e-06 0)
(7.2967e-06 -8.64847e-06 0)
(8.89206e-06 -8.57181e-06 0)
(1.04718e-05 -8.4801e-06 0)
(1.20332e-05 -8.37352e-06 0)
(1.35735e-05 -8.25225e-06 0)
(1.509e-05 -8.11651e-06 0)
(1.658e-05 -7.96653e-06 0)
(1.80409e-05 -7.80257e-06 0)
(1.94702e-05 -7.62493e-06 0)
(2.08653e-05 -7.43391e-06 0)
(2.22238e-05 -7.22985e-06 0)
(2.35434e-05 -7.01311e-06 0)
(2.48216e-05 -6.78406e-06 0)
(2.60563e-05 -6.54312e-06 0)
(2.72453e-05 -6.2907e-06 0)
(2.83865e-05 -6.02725e-06 0)
(2.94779e-05 -5.75323e-06 0)
(3.05175e-05 -5.46911e-06 0)
(3.15037e-05 -5.1754e-06 0)
(3.24346e-05 -4.87262e-06 0)
(3.33086e-05 -4.56129e-06 0)
(3.41242e-05 -4.24196e-06 0)
(3.48799e-05 -3.91519e-06 0)
(3.55744e-05 -3.58155e-06 0)
(3.62065e-05 -3.24164e-06 0)
(3.67752e-05 -2.89604e-06 0)
(3.72793e-05 -2.54536e-06 0)
(3.7718e-05 -2.19022e-06 0)
(3.80905e-05 -1.83124e-06 0)
(3.83963e-05 -1.46905e-06 0)
(3.86347e-05 -1.10429e-06 0)
(3.88053e-05 -7.37587e-07 0)
(3.89079e-05 -3.69596e-07 0)
(3.89422e-05 -9.59008e-10 0)
(3.89083e-05 3.67677e-07 0)
(3.8806e-05 7.35666e-07 0)
(3.86357e-05 1.10236e-06 0)
(3.83977e-05 1.46712e-06 0)
(3.80923e-05 1.82931e-06 0)
(3.77201e-05 2.18829e-06 0)
(3.72817e-05 2.54342e-06 0)
(3.6778e-05 2.89409e-06 0)
(3.62097e-05 3.23969e-06 0)
(3.55779e-05 3.5796e-06 0)
(3.48837e-05 3.91323e-06 0)
(3.41284e-05 4.24e-06 0)
(3.33132e-05 4.55932e-06 0)
(3.24395e-05 4.87066e-06 0)
(3.1509e-05 5.17344e-06 0)
(3.05232e-05 5.46716e-06 0)
(2.94839e-05 5.75128e-06 0)
(2.83929e-05 6.02532e-06 0)
(2.7252e-05 6.2888e-06 0)
(2.60634e-05 6.54125e-06 0)
(2.4829e-05 6.78223e-06 0)
(2.35512e-05 7.01132e-06 0)
(2.2232e-05 7.22813e-06 0)
(2.08738e-05 7.43228e-06 0)
(1.94789e-05 7.62343e-06 0)
(1.80499e-05 7.80123e-06 0)
(1.65892e-05 7.96541e-06 0)
(1.50994e-05 8.11569e-06 0)
(1.35831e-05 8.25184e-06 0)
(1.20428e-05 8.37367e-06 0)
(1.04814e-05 8.48102e-06 0)
(8.90134e-06 8.57379e-06 0)
(7.30549e-06 8.65196e-06 0)
(5.69651e-06 8.71556e-06 0)
(4.07709e-06 8.76476e-06 0)
(2.44986e-06 8.79986e-06 0)
(8.17327e-07 8.82098e-06 0)
(-8.25844e-07 1.04628e-05 0)
(-2.4754e-06 1.04378e-05 0)
(-4.11959e-06 1.03961e-05 0)
(-5.75592e-06 1.03377e-05 0)
(-7.3817e-06 1.02623e-05 0)
(-8.99422e-06 1.01695e-05 0)
(-1.05907e-05 1.00595e-05 0)
(-1.21685e-05 9.93212e-06 0)
(-1.37249e-05 9.78761e-06 0)
(-1.52571e-05 9.62611e-06 0)
(-1.67625e-05 9.44785e-06 0)
(-1.82384e-05 9.25311e-06 0)
(-1.96824e-05 9.0422e-06 0)
(-2.10918e-05 8.81548e-06 0)
(-2.24642e-05 8.57333e-06 0)
(-2.37972e-05 8.31617e-06 0)
(-2.50884e-05 8.04444e-06 0)
(-2.63357e-05 7.75861e-06 0)
(-2.75367e-05 7.45917e-06 0)
(-2.86895e-05 7.14667e-06 0)
(-2.97919e-05 6.82163e-06 0)
(-3.08421e-05 6.48462e-06 0)
(-3.18382e-05 6.13625e-06 0)
(-3.27785e-05 5.77711e-06 0)
(-3.36612e-05 5.40784e-06 0)
(-3.4485e-05 5.02908e-06 0)
(-3.52482e-05 4.6415e-06 0)
(-3.59497e-05 4.24578e-06 0)
(-3.6588e-05 3.84261e-06 0)
(-3.71622e-05 3.4327e-06 0)
(-3.76713e-05 3.01677e-06 0)
(-3.81142e-05 2.59554e-06 0)
(-3.84903e-05 2.16976e-06 0)
(-3.87989e-05 1.74017e-06 0)
(-3.90395e-05 1.30753e-06 0)
(-3.92115e-05 8.72588e-07 0)
(-3.93148e-05 4.36115e-07 0)
(-3.93492e-05 -1.1256e-09 0)
(-3.93145e-05 -4.38367e-07 0)
(-3.92109e-05 -8.74841e-07 0)
(-3.90384e-05 -1.30978e-06 0)
(-3.87975e-05 -1.74243e-06 0)
(-3.84886e-05 -2.17203e-06 0)
(-3.81121e-05 -2.59781e-06 0)
(-3.76688e-05 -3.01905e-06 0)
(-3.71595e-05 -3.43499e-06 0)
(-3.65849e-05 -3.8449e-06 0)
(-3.59462e-05 -4.24808e-06 0)
(-3.52444e-05 -4.6438e-06 0)
(-3.44808e-05 -5.03138e-06 0)
(-3.36567e-05 -5.41014e-06 0)
(-3.27736e-05 -5.77941e-06 0)
(-3.18329e-05 -6.13854e-06 0)
(-3.08365e-05 -6.48691e-06 0)
(-2.97859e-05 -6.8239e-06 0)
(-2.86831e-05 -7.14892e-06 0)
(-2.753e-05 -7.46141e-06 0)
(-2.63286e-05 -7.7608e-06 0)
(-2.5081e-05 -8.04658e-06 0)
(-2.37894e-05 -8.31825e-06 0)
(-2.24561e-05 -8.57533e-06 0)
(-2.10834e-05 -8.81736e-06 0)
(-1.96737e-05 -9.04393e-06 0)
(-1.82295e-05 -9.25463e-06 0)
(-1.67533e-05 -9.4491e-06 0)
(-1.52477e-05 -9.627e-06 0)
(-1.37154e-05 -9.78801e-06 0)
(-1.2159e-05 -9.93184e-06 0)
(-1.05813e-05 -1.00583e-05 0)
(-8.98498e-06 -1.0167e-05 0)
(-7.37294e-06 -1.0258e-05 0)
(-5.74796e-06 -1.03309e-05 0)
(-4.1129e-06 -1.03857e-05 0)
(-2.47063e-06 -1.04223e-05 0)
(-8.24016e-07 -1.04406e-05 0)
(8.24042e-07 -1.04406e-05 0)
(2.47065e-06 -1.04223e-05 0)
(4.11293e-06 -1.03857e-05 0)
(5.74799e-06 -1.03309e-05 0)
(7.37296e-06 -1.0258e-05 0)
(8.98501e-06 -1.0167e-05 0)
(1.05813e-05 -1.00583e-05 0)
(1.2159e-05 -9.93184e-06 0)
(1.37154e-05 -9.78801e-06 0)
(1.52477e-05 -9.627e-06 0)
(1.67533e-05 -9.44911e-06 0)
(1.82295e-05 -9.25464e-06 0)
(1.96737e-05 -9.04393e-06 0)
(2.10834e-05 -8.81736e-06 0)
(2.24561e-05 -8.57533e-06 0)
(2.37895e-05 -8.31825e-06 0)
(2.5081e-05 -8.04658e-06 0)
(2.63286e-05 -7.7608e-06 0)
(2.753e-05 -7.46141e-06 0)
(2.86832e-05 -7.14893e-06 0)
(2.9786e-05 -6.8239e-06 0)
(3.08365e-05 -6.48691e-06 0)
(3.1833e-05 -6.13855e-06 0)
(3.27736e-05 -5.77941e-06 0)
(3.36567e-05 -5.41014e-06 0)
(3.44808e-05 -5.03139e-06 0)
(3.52444e-05 -4.64381e-06 0)
(3.59462e-05 -4.24808e-06 0)
(3.65849e-05 -3.84491e-06 0)
(3.71595e-05 -3.43499e-06 0)
(3.76689e-05 -3.01905e-06 0)
(3.81122e-05 -2.59782e-06 0)
(3.84886e-05 -2.17203e-06 0)