/*--------------------------------*- C++ -*----------------------------------*\
| =========                 |                                                 |
| \\      /  F ield         | OpenFOAM: The Open Source CFD Toolbox           |
|  \\    /   O peration     | Version:  2106                                  |
|   \\  /    A nd           | Website:  www.openfoam.com                      |
|    \\/     M anipulation  |                                                 |
\*---------------------------------------------------------------------------*/
FoamFile
{
    version     2.0;
    format      ascii;
    arch        "LSB;label=32;scalar=64";
    class       surfaceScalarField;
    location    "0.043";
    object      phi_0;
}
// * * * * * * * * * * * * * * * * * * * * * * * * * * * * * * * * * * * * * //

dimensions      [0 3 -1 0 0 0 0];

oriented        oriented;

internalField   nonuniform List<scalar> 
8064
(
5.1157004e-05
-5.1160919e-05
0.00010182778
-5.0670771e-05
0.00015152284
-4.9695061e-05
0.00019976583
-4.8242996e-05
0.00024609412
-4.6328285e-05
0.00029006314
-4.396902e-05
0.00033125064
-4.1187509e-05
0.00036926073
-3.8010081e-05
0.00040372758
-3.4466853e-05
0.00043431903
-3.0591449e-05
0.00046073973
-2.6420706e-05
0.00048273406
-2.1994329e-05
0.0005000886
-1.7354532e-05
0.00051263424
-1.2545644e-05
0.00052024794
-7.6136977e-06
0.00052285394
-2.6060049e-06
0.00052042465
2.4292898e-06
0.00051298094
7.4437115e-06
0.00050059193
1.2389012e-05
0.00048337475
1.7217176e-05
0.00046149325
2.1881499e-05
0.00043515653
2.6336722e-05
0.00040461701
3.053952e-05
0.00037016806
3.4448957e-05
0.00033214117
3.802689e-05
0.0002909028
4.1238362e-05
0.00024685085
4.405195e-05
0.00020041076
4.6440094e-05
0.00015203138
4.8379376e-05
0.00010218062
4.9850765e-05
5.134081e-05
5.083981e-05
4.0163893e-09
5.1336793e-05
-5.1332815e-05
5.1336831e-05
-0.00010217274
5.0839923e-05
-0.00015202369
4.9850953e-05
-0.00020040333
4.8379637e-05
-0.00024684375
4.6440425e-05
-0.0002908961
4.4052349e-05
-0.00033213493
4.1238824e-05
-0.00037016234
3.8027412e-05
-0.00040461187
3.4449533e-05
-0.00043515202
3.0540145e-05
-0.00046148941
2.633739e-05
-0.00048337161
2.1882204e-05
-0.00050058952
1.721791e-05
-0.00051297929
1.2389769e-05
-0.00052042377
7.4444834e-06
-0.00052285384
2.4300694e-06
-0.00052024862
-2.6052254e-06
-0.00051263569
-7.6129258e-06
-0.0005000908
-1.2544887e-05
-0.000482737
-1.7353798e-05
-0.00046074338
-2.1993625e-05
-0.00043432334
-2.6420038e-05
-0.00040373252
-3.0590824e-05
-0.00036926624
-3.4466277e-05
-0.00033125668
-3.800956e-05
-0.00029006963
-4.1187046e-05
-0.00024610101
-4.3968621e-05
-0.00019977306
-4.6327954e-05
-0.00015153033
-4.8242735e-05
-0.00010183545
-4.9694872e-05
-5.1164796e-05
-5.0670657e-05
-5.1160881e-05
5.1896987e-05
-0.00010306187
0.00010330072
-0.0001020745
0.00015371467
-0.00010010901
0.0002026556
-9.7183932e-05
0.00024965421
-9.3326887e-05
0.0002942595
-8.8574314e-05
0.00033604314
-8.2971149e-05
0.00037460349
-7.6570429e-05
0.00040956945
-6.9432814e-05
0.00044060404
-6.1626039e-05
0.00046740764
-5.3224302e-05
0.00048972089
-4.4307585e-05
0.00050732728
-3.4960922e-05
0.00052005525
-2.527361e-05
0.00052777993
-1.5338378e-05
0.00053042445
-5.2505235e-06
0.00052796074
4.8929973e-06
0.00052040991
1.4994538e-05
0.00050784225
2.4956678e-05
0.00049037642
3.4683e-05
0.00046817862
4.4079299e-05
0.00044146096
5.3054382e-05
0.00041047951
6.1520977e-05
0.00037553185
6.9396611e-05
0.0003369543
7.6604443e-05
0.00029511862
8.3074043e-05
0.00025042846
8.8742107e-05
0.00020331545
9.3553108e-05
0.00015423496
9.7459867e-05
0.00010366168
0.00010042404
5.208498e-05
0.00010241651
4.0652273e-09
0.00010341771
-5.2076888e-05
0.00010341778
-0.00010365371
0.00010241674
-0.00015422717
0.00010042442
-0.00020330793
9.7460392e-05
-0.00025042128
9.3553774e-05
-0.00029511184
8.8742909e-05
-0.00033694799
8.3074973e-05
-0.00037552607
7.6605493e-05
-0.0004104743
6.939777e-05
-0.00044145639
6.1522234e-05
-0.00046817473
5.3055726e-05
-0.00049037324
4.4080716e-05
-0.00050783981
3.4684477e-05
-0.00052040824
2.4958201e-05
-0.00052795985
1.4996091e-05
-0.00053042434
4.8945661e-06
-0.00052778062
-5.2489547e-06
-0.00052005672
-1.5336825e-05
-0.00050732952
-2.5272087e-05
-0.00048972387
-3.4959445e-05
-0.00046741133
-4.4306168e-05
-0.00044060841
-5.3222958e-05
-0.00040957445
-6.1624781e-05
-0.00037460907
-6.9431655e-05
-0.00033604925
-7.6569379e-05
-0.00029426608
-8.2970219e-05
-0.00024966119
-8.8573511e-05
-0.00020266292
-9.3326221e-05
-0.00015372225
-9.7183407e-05
-0.00010330849
-0.00010010863
-5.1904875e-05
-0.00010207427
-0.00010306179
5.3143453e-05
-0.00015620937
0.00010578179
-0.00015471284
0.00015740659
-0.0001517338
0.000207523
-0.00014730035
0.00025565046
-0.00014145434
0.00030132714
-0.000134251
0.00034411442
-0.00012575843
0.00038360103
-0.00011605703
0.00041940695
-0.00010523874
0.00045118711
-9.3406198e-05
0.00047863469
-8.067188e-05
0.00050148411
-6.7157006e-05
0.00051951364
-5.2990456e-05
0.0005325476
-3.8307572e-05
0.00054045813
-2.3248901e-05
0.00054316647
-7.9588687e-06
0.00054064389
7.4155827e-06
0.00053291199
2.2726429e-05
0.00052004272
3.7825947e-05
0.00050215762
5.2568106e-05
0.00047942683
6.6810089e-05
0.00045206755
8.0413662e-05
0.00042034198
9.3246543e-05
0.00038455487
0.00010518372
0.00034505058
0.00011610873
0.00030220982
0.0001259148
0.00025644594
0.00013450599
0.00020820093
0.00014179812
0.00015794112
0.00014771968
0.00010615262
0.00015221254
5.3336554e-05
0.00015523258
4.1465515e-09
0.00015675012
-5.33283e-05
0.00015675023
-0.00010614448
0.00015523293
-0.00015793318
0.00015221311
-0.00020819326
0.00014772047
-0.00025643861
0.00014179913
-0.0003022029
0.0001345072
-0.00034504414
0.00012591621
-0.00038454896
0.00011611032
-0.00042033667
0.00010518548
-0.00045206288
9.3248446e-05
-0.00047942285
8.0415696e-05
-0.00050215437
6.6812234e-05
-0.00052004024
5.2570342e-05
-0.00053291029
3.7828252e-05
-0.00054064298
2.272878e-05
-0.00054316637
7.4179569e-06
-0.00054045883
-7.9564945e-06
-0.0005325491
-2.324655e-05
-0.00051951592
-3.8305268e-05
-0.00050148715
-5.298822e-05
-0.00047863845
-6.715486e-05
-0.00045119157
-8.0669845e-05
-0.00041941205
-9.3404294e-05
-0.00038360673
-0.00010523698
-0.00034412066
-0.00011605545
-0.00030133385
-0.00012575703
-0.00025565758
-0.00013424978
-0.00020753047
-0.00014145333
-0.00015741432
-0.00014729955
-0.00010578972
-0.00015173323
-5.3151501e-05
-0.0001547125
-0.00015620925
5.4910022e-05
-0.00021112355
0.00010929811
-0.00020910093
0.00016263894
-0.00020507463
0.00021442122
-0.00019908263
0.00026414838
-0.0001911815
0.00031134327
-0.00018144589
0.00035555267
-0.00016996784
0.00039635164
-0.000156856
0.00043334754
-0.00014223463
0.00046618383
-0.00012624249
0.0004945435
-0.00010903156
0.00051815218
-9.0765677e-05
0.00053678076
-7.1619035e-05
0.00055024773
-5.1774548e-05
0.00055842099
-3.1422163e-05
0.0005612192
-1.0757073e-05
0.00055861265
1.0022135e-05
0.00055062369
3.0715382e-05
0.00053732664
5.1123005e-05
0.00051884707
7.1047674e-05
0.00049536079
9.0296363e-05
0.00046709222
0.00010868224
0.00043431225
0.00012602651
0.00039733576
0.00014216022
0.00035651855
0.00015692594
0.00031225398
0.00017017938
0.00026496912
0.00018179085
0.00021512066
0.00019164658
0.00016319043
0.00019964991
0.00010968069
0.00020572228
5.510923e-05
0.00020980404
4.2633645e-09
0.00021185508
-5.5100743e-05
0.00021185524
-0.00010967232
0.00020980451
-0.00016318226
0.00020572305
-0.00021511277
0.00019965098
-0.00026496158
0.00019164794
-0.00031224686
0.00018179248
-0.00035651193
0.00017018128
-0.00039732969
0.00015692808
-0.00043430679
0.00014216258
-0.00046708742
0.00012602908
-0.00049535671
0.00010868498
-0.00051884373
9.0299257e-05
-0.00053732408
7.105069e-05
-0.00055062194
5.1126114e-05
-0.00055861171
3.0718553e-05
-0.00056121909
1.0025337e-05
-0.00055842172
-1.075387e-05
-0.00055024928
-3.1418992e-05
-0.0005367831
-5.1771439e-05
-0.00051815531
-7.1616019e-05
-0.00049454738
-9.0762783e-05
-0.00046618842
-0.00010902881
-0.00043335279
-0.00012623992
-0.0003963575
-0.00014223227
-0.00035555909
-0.00015685386
-0.00031135018
-0.00016996594
-0.00026415571
-0.00018144425
-0.0002144289
-0.00019118014
-0.0001626469
-0.00019908156
-0.00010930627
-0.00020507386
-5.49183e-05
-0.00020910047
-0.00021112339
5.721423e-05
-0.00026834209
0.00011388458
-0.00026577128
0.00016946366
-0.00026065372
0.00022341872
-0.00025303769
0.00027523233
-0.00024299511
0.0003244073
-0.00023062085
0.00037047139
-0.00021603193
0.00041298182
-0.00019936643
0.0004515295
-0.00018078231
0.00048574294
-0.00016045593
0.00051529186
-0.00013858048
0.00053989039
-0.0001153642
0.00055929984
-9.1028492e-05
0.00057333114
-6.5805842e-05
0.00058184665
-3.9937673e-05
0.00058476164
-1.3672069e-05
0.00058204521
1.2738568e-05
0.00057372066
3.9039935e-05
0.0005598654
6.4978257e-05
0.00054061033
9.030275e-05
0.00051613861
0.00011476808
0.00048668408
0.00013813677
0.00045252899
0.0001601816
0.00041400141
0.00018068779
0.00037147208
0.00019945527
0.00032535083
0.00021630063
0.00027608265
0.00023105902
0.00022414338
0.00024358585
0.00017003503
0.00025375825
0.00011428095
0.00026147636
5.7420623e-05
0.00026666437
4.4185314e-09
0.00026927129
-5.7411827e-05
0.00026927148
-0.00011427228
0.00026666496
-0.00017002657
0.00026147734
-0.0002241352
0.00025375961
-0.00027607484
0.00024358757
-0.00032534345
0.0002310611
-0.00037146521
0.00021630304
-0.00041399512
0.00019945799
-0.00045252333
0.00018069079
-0.0004866791
0.00016018485
-0.00051613437
0.00013814025
-0.00054060687
0.00011477175
-0.00055986275
9.0306575e-05
-0.00057371884
6.4982201e-05
-0.00058204424
3.9043958e-05
-0.00058476154
1.2742631e-05
-0.0005818474
-1.3668006e-05
-0.00057333274
-3.9933649e-05
-0.00055930228
-6.5801898e-05
-0.00053989364
-9.1024666e-05
-0.00051529589
-0.00011536053
-0.0004857477
-0.000138577
-0.00045153495
-0.00016045268
-0.0004129879
-0.00018077931
-0.00037047804
-0.00019936372
-0.00032441446
-0.00021602952
-0.00027523993
-0.00023061878
-0.00022342669
-0.00024299339
-0.00016947192
-0.00025303633
-0.00011389304
-0.00026065274
-5.7222814e-05
-0.00026577069
-0.00026834189
6.0078915e-05
-0.00032842551
0.00011958665
-0.00032527901
0.00017794839
-0.00031901546
0.00023460467
-0.00030969397
0.00028901212
-0.00029740256
0.00034064863
-0.00028225737
0.00038901833
-0.00026440162
0.00043365626
-0.00024400436
0.00047413287
-0.00022125892
0.00051005809
-0.00019638116
0.00054108516
-0.00016960754
0.00056691391
-0.00014119296
0.00058729379
-0.00011140837
0.00060202628
-8.0538335e-05
0.00061096693
-4.8878321e-05
0.00061402681
-1.673195e-05
0.0006111735
1.5591875e-05
0.00060243152
4.7781921e-05
0.00058788217
7.9527608e-05
0.0005676629
0.00011052202
0.00054196607
0.00014046491
0.0005110372
0.00016906564
0.00047517268
0.00019604611
0.000434717
0.00022114348
0.0003900594
0.00024411286
0.00034163024
0.00026472979
0.00028989675
0.00028279251
0.00023535857
0.00029812403
0.00017854283
0.00031057399
0.00011999904
0.00032002016
6.0293667e-05
0.00032636974
4.6146405e-09
0.00032956034
-6.0284481e-05
0.00032956058
-0.00011998998
0.00032637046
-0.00017853399
0.00032002135
-0.00023535003
0.00031057564
-0.00028988859
0.00029812614
-0.00034162253
0.00028279504
-0.00039005222
0.00026473273
-0.00043471042
0.00024411618
-0.00047516677
0.00022114714
-0.000511032
0.00019605008
-0.00054196164
0.00016906989
-0.00056765928
0.00014046939
-0.0005878794
0.00011052669
-0.00060242962
7.9532424e-05
-0.0006111725
4.7786834e-05
-0.0006140267
1.5596837e-05
-0.00061096772
-1.6726988e-05
-0.00060202796
-4.8873407e-05
-0.00058729634
-8.0533519e-05
-0.00056691731
-0.0001114037
-0.00054108937
-0.00014118847
-0.00051006307
-0.00016960329
-0.00047413857
-0.00019637718
-0.00043366262
-0.00022125526
-0.00038902529
-0.00024400105
-0.00034065612
-0.00026439869
-0.00028902006
-0.00028225483
-0.00023461299
-0.00029740045
-0.00017795702
-0.00030969231
-0.00011959549
-0.00031901427
-6.0087885e-05
-0.00032527829
-0.00032842527
6.353519e-05
-0.00039196545
0.00012646625
-0.00038821007
0.00018818527
-0.00038073448
0.00024810052
-0.00036960923
0.00030563735
-0.00035493939
0.00036024359
-0.00033686361
0.00041139482
-0.00031555285
0.00045859934
-0.00029120889
0.00050140291
-0.00026406249
0.00053939308
-0.00023437133
0.00057220317
-0.00020241763
0.00059951584
-0.00016850562
0.00062106618
-0.00013295871
0.00063664434
-9.6116494e-05
0.00064609762
-5.8331603e-05
0.00064933206
-1.9966387e-05
0.00064631342
1.8610511e-05
0.00063706767
5.7027669e-05
0.00062168083
9.4914447e-05
0.00060029827
0.00013190458
0.00057312342
0.00016763976
0.0005404159
0.00020177316
0.00050248916
0.00023397286
0.00045970744
0.0002639252
0.00041248238
0.00029133792
0.00036126904
0.00031594313
0.00030656151
0.00033750004
0.00024888812
0.00035579743
0.00018880629
0.00037065582
0.0001268971
0.00038192934
6.3759589e-05
0.00038950726
4.8541393e-09
0.00039331507
-6.3749927e-05
0.00039331536
-0.00012688758
0.00038950811
-0.00018879699
0.00038193076
-0.00024887913
0.00037065778
-0.00030655292
0.00035579993
-0.00036126093
0.00033750305
-0.00041247483
0.00031594663
-0.00045970052
0.00029134187
-0.00050248293
0.00026392956
-0.00054041043
0.00023397759
-0.00057311875
0.00020177821
-0.00060029446
0.0001676451
-0.00062167792
0.00013191014
-0.00063706567
9.4920182e-05
-0.00064631236
5.703352e-05
-0.00064933194
1.8616421e-05
-0.00064609846
-1.9960477e-05
-0.00063664611
-5.8325751e-05
-0.00062106887
-9.6110758e-05
-0.00059951942
-0.00013295315
-0.00057220761
-0.00016850029
-0.00053939833
-0.00020241257
-0.00050140892
-0.0002343666
-0.00045860604
-0.00026405813
-0.00041140215
-0.00029120494
-0.00036025148
-0.00031554935
-0.00030564572
-0.00033686059
-0.00024810929
-0.00035493689
-0.00018819435
-0.00036960726
-0.00012647556
-0.00038073306
-6.3544633e-05
-0.00038820922
-0.00039196516
6.7627111e-05
-0.00045959758
0.00013461107
-0.00045519403
0.00020030476
-0.00044642816
0.00026407827
-0.00043338274
0.00032531988
-0.000416181
0.00038344182
-0.00039498555
0.00043788588
-0.00036999691
0.00048812872
-0.00034145173
0.00053368687
-0.00030962064
0.00057412138
-0.00027480583
0.00060904202
-0.00023733828
0.00063811113
-0.00019757473
0.00066104682
-0.0001558944
0.00067762584
-0.00011269551
0.00068768575
-6.8391517e-05
0.00069112663
-2.3407267e-05
0.00068791212
2.1825024e-05
0.0006780699
6.6869886e-05
0.00066169157
0.00011129278
0.00063893187
0.00015466428
0.00061000733
0.0001965643
0.00057519429
0.0002365862
0.00053482631
0.00027434083
0.00048929109
0.00030946042
0.00043902671
0.0003416023
0.0003845175
0.00037045234
0.00032628932
0.00039572823
0.00026490447
0.00041718227
0.00020095624
0.00043460404
0.00013506309
0.00044782249
6.7862581e-05
0.00045670776
5.1395204e-09
0.00046117252
-6.785235e-05
0.00046117285
-0.000135053
0.00045670876
-0.00020094639
0.00044782415
-0.00026489495
0.00043460634
-0.00032628022
0.00041718519
-0.00038450891
0.00039573174
-0.00043901871
0.00037045643
-0.00048928375
0.00034160691
-0.00053481971
0.00030946552
-0.00057518849
0.00027434636
-0.00061000239
0.00023659212
-0.00063892784
0.00019657054
-0.00066168848
0.00015467079
-0.00067806778
0.00011129949
-0.000687911
6.6876733e-05
-0.00069112652
2.1831939e-05
-0.00068768664
-2.3400351e-05
-0.00067762772
-6.838467e-05
-0.00066104968
-0.0001126888
-0.00063811493
-0.00015588789
-0.00060904674
-0.00019756848
-0.00057412695
-0.00023733236
-0.00053369324
-0.0002748003
-0.00048813583
-0.00030961554
-0.00043789366
-0.00034144711
-0.00038345019
-0.00036999282
-0.00032532875
-0.00039498203
-0.00026408756
-0.00041617808
-0.00020031438
-0.00043338044
-0.00013462093
-0.0004464265
-6.7637117e-05
-0.00045519303
-0.00045959725
7.2417799e-05
-0.00053202074
0.00014414675
-0.00052692298
0.00021449379
-0.00051677521
0.00028278432
-0.00050167327
0.0003483632
-0.00048175988
0.00041060099
-0.00045722333
0.0004688999
-0.00042829582
0.00052269955
-0.00039525137
0.00057148226
-0.00035840336
0.00061477808
-0.00031810165
0.00065216924
-0.00027472944
0.00068329426
-0.00022869975
0.00070785146
-0.0001804516
0.00072560189
-0.00013044594
0.00073637173
-7.9161364e-05
0.00074005411
-2.708964e-05
0.00073661016
2.5268969e-05
0.00072606961
7.7410439e-05
0.00070853056
0.00012883182
0.00068415874
0.00017903611
0.00065318597
0.00022753707
0.00061590814
0.00027386403
0.00057268241
0.00031756657
0.00052392384
0.00035821899
0.00047010152
0.00039542462
0.00041173399
0.00042881987
0.00034938432
0.0004580779
0.00028365459
0.00048291201
0.00021518005
0.00050307858
0.00014462293
0.00051837962
7.2665917e-05
0.00052866478
5.4734751e-09
0.00053383296
-7.2655021e-05
0.00053383334
-0.00014461219
0.00052866593
-0.00021516956
0.00051838152
-0.00028364445
0.00050308123
-0.00034937463
0.00048291537
-0.00041172484
0.00045808195
-0.00047009299
0.00042882458
-0.00052391602
0.00039542994
-0.00057267537
0.00035822487
-0.00061590196
0.00031757295
-0.0006531807
0.00027387086
-0.00068415443
0.00022754427
-0.00070852727
0.00017904362
-0.00072606736
0.00012883957
-0.00073660897
7.7418348e-05
-0.00074005399
2.5276958e-05
-0.00073637269
-2.7081651e-05
-0.00072560391
-7.9153454e-05
-0.00070785452
-0.00013043818
-0.00068329833
-0.00018044408
-0.00065217427
-0.00022869254
-0.00061478403
-0.00027472261
-0.00057148907
-0.00031809526
-0.00052270714
-0.00035839748
-0.0004689082
-0.00039524605
-0.00041060991
-0.00042829111
-0.00034837267
-0.00045721927
-0.00028279423
-0.00048175651
-0.00021450405
-0.00050167062
-0.00014415726
-0.0005167733
-7.2428464e-05
-0.00052692183
-0.00053202036
7.7996618e-05
-0.0006100231
0.00015525114
-0.0006041775
0.00023101701
-0.00059254108
0.00030456754
-0.0005752238
0.00037519702
-0.00055238936
0.00044222746
-0.00052425377
0.00050501503
-0.00049108339
0.00056295617
-0.00045319252
0.00061549342
-0.00041094061
0.00066212071
-0.00036472893
0.00070238825
-0.00031499698
0.00073590686
-0.00026221837
0.00076235181
-0.00020689654
0.00078146591
-0.00014956004
0.00079306213
-9.0757591e-05
0.0007970255
-3.1053004e-05
0.00079331427
2.8980195e-05
0.00078196052
8.8764186e-05
0.00076306996
0.00014772239
0.00073682104
0.00020528502
0.00070346344
0.00026089467
0.00066331575
0.00031401171
0.00061676258
0.00036411975
0.00056425087
0.00041073069
0.00050628575
0.00045338974
0.00044342564
0.00049167998
0.00037627689
0.00052522665
0.00030548789
0.000553701
0.0002317428
0.00057682367
0.0001557548
0.00059436762
7.8259123e-05
0.00060616045
5.8590036e-09
0.00061208622
-7.8247459e-05
0.00061208666
-0.00015574329
0.00060616176
-0.00023173157
0.0005943698
-0.00030547703
0.0005768267
-0.0003762665
0.00055370484
-0.00044341583
0.00052523128
-0.00050627661
0.00049168536
-0.00056424249
0.00045339582
-0.00061675503
0.00041073741
-0.00066330912
0.00036412705
-0.00070345779
0.00031401952
-0.00073681643
0.00026090291
-0.00076306643
0.00020529362
-0.00078195811
0.00014773126
-0.000793313
8.8773236e-05
-0.00079702538
2.8989337e-05
-0.00079306317
-3.1043862e-05
-0.00078146808
-9.074854e-05
-0.0007623551
-0.00014955117
-0.00073591124
-0.00020688794
-0.00070239366
-0.00026221013
-0.0006621271
-0.00031498917
-0.00061550073
-0.00036472163
-0.00056296432
-0.00041093389
-0.00050502393
-0.00045318644
-0.00044223703
-0.00049107801
-0.00037520717
-0.00052424914
-0.00030457816
-0.00055238552
-0.00023102801
-0.00057522077
-0.0001552624
-0.0005925389
-7.8008045e-05
-0.00060417618
-0.00061002266
8.4486742e-05
-0.00069451602
0.0001681694
-0.00068786016
0.00025023918
-0.00067461086
0.00032990876
-0.00065489337
0.0004064136
-0.0006288942
0.00047901921
-0.00059685938
0.00054702817
-0.00055909235
0.00060978675
-0.0005159511
0.00066669117
-0.00046784503
0.00071719341
-0.00041523117
0.00076080643
-0.00035860999
0.0007971089
-0.00029852084
0.00082574927
-0.00023553692
0.00084644922
-0.00017025998
0.00085900635
-0.00010331473
0.0008632963
-3.534295e-05
0.00085927399
3.3002506e-05
0.00084697423
0.00010106394
0.00082651156
0.00016818506
0.00079807925
0.00023371733
0.00076194769
0.00029702623
0.00071846189
0.00035749752
0.00066803832
0.00041454332
0.00061116101
0.000467608
0.00054837699
0.00051617376
0.00048029104
0.00055976593
0.00040755986
0.00059795783
0.00033088573
0.00063037513
0.00025100966
0.00065669975
0.00016870412
0.00067667316
8.4765513e-05
0.00069009906
6.2994886e-09
0.00069684544
-8.4752972e-05
0.00069684593
-0.00016869175
0.00069010054
-0.00025099758
0.00067667562
-0.00033087405
0.00065670317
-0.00040754869
0.00063037948
-0.00048028048
0.00059796308
-0.00054836715
0.00055977203
-0.00061115198
0.00051618065
-0.00066803019
0.00046761562
-0.00071845475
0.0004145516
-0.00076194161
0.00035750638
-0.00079807428
0.00029703559
-0.00082650775
0.0002337271
-0.00084697163
0.00016819514
-0.00085927262
0.00010107422
-0.00086329618
3.3012893e-05
-0.00085900747
-3.5332563e-05
-0.00084645157
-0.00010330444
-0.00082575283
-0.0001702499
-0.00079711362
-0.00023552715
-0.00076081227
-0.00029851148
-0.00071720031
-0.00035860113
-0.00066669906
-0.00041522288
-0.00060979553
-0.00046783741
-0.00054703777
-0.00051594421
-0.00047902953
-0.00055908625
-0.00040642453
-0.00059685414
-0.0003299202
-0.00062888984
-0.00025025102
-0.00065488995
-0.00016818153
-0.00067460839
-8.449904e-05
-0.00068785867
-0.00069451552
9.2052092e-05
-0.00078657478
0.00018322781
-0.00077903588
0.00027264574
-0.0007640288
0.0003594479
-0.00074169553
0.00044280112
-0.00071224742
0.00052190506
-0.00067596333
0.00059599982
-0.00063318711
0.00066437319
-0.00058432446
0.00072636743
-0.00052983927
0.00078138563
-0.00047024937
0.00082889739
-0.00040612175
0.00086844394
-0.00033806739
0.00089964254
-0.00026673552
0.00092219025
-0.00019280769
0.00093586683
-0.00011699131
0.000940537
-4.0013119e-05
0.00093615182
3.7387694e-05
0.00092274929
0.00011446646
0.00090045423
0.00019048013
0.00086947718
0.00026469438
0.00083011262
0.00033639079
0.00078273631
0.00040487382
0.00072780187
0.00046947776
0.00066583651
0.00052957336
0.00059743606
0.0005845742
0.00052325933
0.00063394267
0.0004440217
0.00067719546
0.00036048824
0.00071390859
0.00027346623
0.00074372175
0.00018379729
0.0007663421
9.2349079e-05
0.00078154727
6.7987454e-09
0.00078918772
-9.2335543e-05
0.00078918828
-0.00018378394
0.00078154894
-0.00027345319
0.00076634487
-0.00036047562
0.0007437256
-0.00044400962
0.00071391348
-0.00052324791
0.00067720137
-0.00059742542
0.00063394953
-0.00066582674
0.00058458197
-0.00072779308
0.00052958196
-0.00078272858
0.00046948711
-0.00083010603
0.00040488383
-0.0008694718
0.00033640136
-0.00090045011
0.00026470541
-0.00092274648
0.00019049151
-0.00093615034
0.00011447808
-0.00094053688
3.739943e-05
-0.00093586806
-4.0001383e-05
-0.00092219281
-0.00011697969
-0.00089964641
-0.00019279631
-0.00086844906
-0.00026672449
-0.00082890373
-0.00033805681
-0.00078139311
-0.00040611175
-0.00072637597
-0.00047024002
-0.0006643827
-0.00052983068
-0.00059601022
-0.00058431669
-0.00052191622
-0.00063318024
-0.00044281294
-0.00067595742
-0.00035946027
-0.00071224252
-0.00027265854
-0.00074169167
-0.00018324091
-0.00076402603
-9.2065378e-05
-0.0007790342
-0.00078657423
0.00010090212
-0.00088748414
0.00020084321
-0.00087897697
0.00029885695
-0.00086204254
0.00039400258
-0.00083684115
0.00048536667
-0.0008036115
0.00057207181
-0.00076266847
0.00065328501
-0.00071440031
0.00072822563
-0.00065926508
0.00079617286
-0.00059778651
0.00085647263
-0.00053054914
0.00090854386
-0.00045819299
0.00095188404
-0.00038140756
0.00098607402
-0.00030092551
0.0010107821
-0.00021751579
0.0010257673
-0.00013197648
0.0010308815
-4.5127352e-05
0.0010260714
4.219784e-05
0.0010113786
0.0001291592
0.00098694012
0.00021491865
0.00095298654
0.00029864797
0.00090984054
0.00037953678
0.00085791384
0.00045680052
0.00079770343
0.00052968817
0.00072978701
0.00059748978
0.0006548175
0.00065954371
0.00057351685
0.00071524332
0.00048666908
0.00076404323
0.0003951127
0.00080546497
0.00029973252
0.00083910194
0.00020145099
0.00086462362
0.00010121918
0.00088177908
7.361072e-09
0.00089039954
-0.00010120453
0.00089040016
-0.00020143654
0.00088178095
-0.00029971839
0.00086462672
-0.00039509903
0.00083910624
-0.00048665599
0.00080547045
-0.00057350447
0.00076404985
-0.00065480596
0.00071525102
-0.00072977641
0.00065955242
-0.00079769388
0.00059749943
-0.00085790544
0.00052969866
-0.00090983338
0.00045681177
-0.00095298069
0.00037954867
-0.00098693565
0.00029866037
-0.0010113756
0.00021493145
-0.0010260698
0.00012917227
-0.0010308814
4.2211045e-05
-0.0010257686
-4.5114148e-05
-0.0010107849
-0.00013196341
-0.00098607824
-0.00021750299
-0.00095188963
-0.0003009131
-0.00090855077
-0.00038139567
-0.00085648078
-0.00045818174
-0.00079618215
-0.00053053864
-0.00072823597
-0.00059777686
-0.0006532963
-0.00065925637
-0.00057208393
-0.00071439261
-0.0004853795
-0.00076266185
-0.000394016
-0.00080360602
-0.00029887083
-0.00083683685
-0.00020085742
-0.00086203944
-0.00010091652
-0.0008789751
-0.00088748351
0.00011129232
-0.00099878432
0.00022152416
-0.00098920881
0.00032962943
-0.00097014781
0.00043457021
-0.00094178193
0.00053533875
-0.00090438005
0.00063096716
-0.00085829688
0.00072053661
-0.00080396976
0.00080318615
-0.00074191462
0.00087812093
-0.00067272128
0.00094461981
-0.00059704802
0.0010020423
-0.00051561545
0.0010498345
-0.0004291998
0.0010875347
-0.00033862574
0.0011147776
-0.00024475866
0.0011312977
-0.00014849658
0.0011369321
-5.0761803e-05
0.0011316223
4.7507711e-05
0.0011154143
0.00014536715
0.0010884592
0.00024187378
0.0010510113
0.00033609588
0.0010034263
0.00042712177
0.00094615809
0.00051406873
0.00087975459
0.00059609166
0.00080485271
0.00067239167
0.00072217234
0.00074222408
0.00063250956
0.0008049061
0.00053672894
0.00085982385
0.00043575518
0.00090643873
0.00033056409
0.00094429302
0.00022217304
0.00097301467
0.00011163096
0.00099232116
7.9913484e-09
0.0010020225
-0.00011161505
0.0010020232
-0.00022215734
0.00099232324
-0.00033054874
0.00097301812
-0.00043574031
0.00094429782
-0.0005367147
0.00090644484
-0.00063249608
0.00085983123
-0.00072215976
0.00080491469
-0.00080484115
0.00074223381
-0.00087974418
0.00067240246
-0.00094614893
0.00059610341
-0.0010034185
0.00051408132
-0.0010510049
0.00042713509
-0.0010884543
0.00033610978
-0.001115411
0.00024188813
-0.0011316205
0.00014538181
-0.001136932
4.7522521e-05
-0.0011312992
-5.0746992e-05
-0.0011147807
-0.00014848192
-0.0010875394
-0.0002447443
-0.0010498406
-0.00033861183
-0.0010020498
-0.00042918648
-0.00094462871
-0.00051560285
-0.00087813108
-0.00059703627
-0.00080319745
-0.00067271049
-0.00072054893
-0.00074190488
-0.00063098038
-0.00080396116
-0.00053535273
-0.0008582895
-0.00043458481
-0.00090437394
-0.00032964452
-0.00094177713
-0.0002215396
-0.00097014436
-0.00011130797
-0.00098920673
-0.00099878362
0.00012351779
-0.0011223107
0.00024585797
-0.001111549
0.00036583705
-0.0010901269
0.00048230271
-0.0010582476
0.00059413619
-0.0010162135
0.00070026308
-0.00096442377
0.00079966354
-0.00090337022
0.00089138212
-0.00083363319
0.00097453685
-0.00075587602
0.0010483278
-0.00067083892
0.0011120444
-0.0005793321
0.0011650728
-0.00048222815
0.0012069009
-0.00038045391
0.0012371241
-0.00027498179
0.0012554482
-0.0001668207
0.001261693
-5.700665e-05
0.0012557938
5.3406911e-05
0.0012378021
0.00016335889
0.0012078854
0.00027179051
0.0011663259
0.00037765537
0.0011135182
0.00047992945
0.0010499658
0.00057762113
0.00097627647
0.000669781
0.00089315675
0.00075551138
0.00080140536
0.00083397547
0.00070190554
0.00090440593
0.0005956166
0.00096611279
0.00048356463
0.0010184907
0.00036683249
0.0010610252
0.00024654916
0.001093298
0.0001238787
0.0011149916
8.6952911e-09
0.0011258925
-0.00012386138
0.0011258933
-0.00024653207
0.0011149939
-0.00036681577
0.0010933018
-0.00048354843
0.0010610305
-0.00059560107
0.0010184975
-0.00070189083
0.00096612099
-0.00080139162
0.00090441548
-0.00089314412
0.00083398631
-0.00097626507
0.00075552341
-0.0010499558
0.00066979411
-0.0011135097
0.0005776352
-0.0011663189
0.00047994433
-0.00120788
0.00037767092
-0.0012377985
0.00027180657
-0.0012557919
0.00016337529
-0.0012616929
5.3423483e-05
-0.0012554498
-5.6990077e-05
-0.0012371274
-0.0001668043
-0.001206906
-0.00027496573
-0.0011650795
-0.00038043835
-0.0011120527
-0.00048221326
-0.0010483375
-0.00057931803
-0.00097454798
-0.00067082581
-0.00089139449
-0.00075586399
-0.00079967702
-0.00083362235
-0.00070027752
-0.00090336066
-0.00059415146
-0.00096441557
-0.00048231864
-0.0010162068
-0.00036585351
-0.0010582423
-0.0002458748
-0.0010901231
-0.00012353484
-0.0011115467
-0.0011223099
0.00013789642
-0.0012602164
0.00027447734
-0.0012481299
0.00040842117
-0.0012240707
0.00053844096
-0.0011882674
0.00066328736
-0.0011410599
0.0007817606
-0.001082897
0.00089272202
-0.0010143316
0.000995105
-0.00093601617
0.0010879252
-0.00084869617
0.0011702898
-0.00075320354
0.0012414063
-0.00065044864
0.0013005899
-0.00054141178
0.00134727
-0.00042713395
0.0013809953
-0.00030870707
0.0014014383
-0.00018726378
0.0014083986
-6.3966898e-05
0.0014018042
6.0001317e-05
0.0013817129
0.00018345015
0.0013483119
0.0003051915
0.0013019162
0.00042405106
0.0012429661
0.00053887954
0.0011720234
0.00064856385
0.0010897663
0.00075203813
0.0009969832
0.00084829447
0.0008945655
0.00093639317
0.00078349895
0.0010154725
0.00066485426
0.0010847575
0.0005397767
0.0011435683
0.00040947494
0.0011913269
0.00027520921
0.0012275637
0.00013827883
0.001251922
9.4800634e-09
0.0012641619
-0.00013825995
0.0012641627
-0.00027519056
0.0012519245
-0.00040945669
0.0012275679
-0.000539759
0.0011913328
-0.00066483727
0.0011435758
-0.00078348285
0.0010847666
-0.00089455044
0.0010154831
-0.00099696933
0.00093640521
-0.0010897538
0.00084830785
-0.0011720124
0.00075205273
-0.0012429567
0.00064857954
-0.0013019085
0.00053889615
-0.001348306
0.00042406843
-0.0013817089
0.00030520944
-0.0014018021
0.00018346847
-0.0014083985
6.0019832e-05
-0.0014014401
-6.3948383e-05
-0.001380999
-0.00018724546
-0.0013472756
-0.00030868913
-0.0013005974
-0.00042711659
-0.0012414154
-0.00054139517
-0.0011703005
-0.00065043296
-0.0010879374
-0.00075318893
-0.0009951186
-0.00084868279
-0.00089273682
-0.00093600413
-0.00078177643
-0.001014321
-0.00066330407
-0.0010828879
-0.00053845839
-0.0011410524
-0.00040843915
-0.0011882615
-0.00027449571
-0.0012240665