/*--------------------------------*- C++ -*----------------------------------*\
| =========                 |                                                 |
| \\      /  F ield         | OpenFOAM: The Open Source CFD Toolbox           |
|  \\    /   O peration     | Version:  2106                                  |
|   \\  /    A nd           | Website:  www.openfoam.com                      |
|    \\/     M anipulation  |                                                 |
\*---------------------------------------------------------------------------*/
FoamFile
{
    version     2.0;
    format      ascii;
    arch        "LSB;label=32;scalar=64";
    class       surfaceScalarField;
    location    "0.006";
    object      phi_0;
}
// * * * * * * * * * * * * * * * * * * * * * * * * * * * * * * * * * * * * * //

dimensions      [0 3 -1 0 0 0 0];

oriented        oriented;

internalField   nonuniform List<scalar> 
130560
(
-8.8388241e-06
8.8388241e-06
-1.7672956e-05
8.8341317e-06
-2.6497704e-05
8.824748e-06
-3.5308379e-05
8.8106755e-06
-4.4100297e-05
8.7919175e-06
-5.2868776e-05
8.7684789e-06
-6.1609141e-05
8.7403655e-06
-7.0316726e-05
8.7075845e-06
-7.898687e-05
8.6701443e-06
-8.7614925e-05
8.6280546e-06
-9.6196251e-05
8.5813263e-06
-0.00010472622
8.5299718e-06
-0.00011320023
8.4740049e-06
-0.00012161367
8.4134406e-06
-0.00012996196
8.3482956e-06
-0.00013824055
8.278588e-06
-0.00014644489
8.2043376e-06
-0.00015457045
8.1255656e-06
-0.00016261275
8.042295e-06
-0.0001705673
7.9545505e-06
-0.00017842966
7.8623586e-06
-0.00018619541
7.7657477e-06
-0.00019386015
7.664748e-06
-0.00020141955
7.5593916e-06
-0.00020886926
7.4497128e-06
-0.00021620501
7.3357479e-06
-0.00022342254
7.2175352e-06
-0.00023051766
7.0951154e-06
-0.00023748619
6.9685314e-06
-0.00024432402
6.8378284e-06
-0.00025102707
6.7030538e-06
-0.00025759133
6.5642578e-06
-0.00026401282
6.4214927e-06
-0.00027028764
6.2748136e-06
-0.00027641191
6.1242779e-06
-0.00028238186
5.9699459e-06
-0.00028819374
5.8118804e-06
-0.00029384389
5.6501469e-06
-0.0002993287
5.4848137e-06
-0.00030464465
5.3159519e-06
-0.00030978829
5.1436353e-06
-0.00031475623
4.9679405e-06
-0.00031954517
4.7889471e-06
-0.00032415191
4.6067373e-06
-0.00032857331
4.4213965e-06
-0.00033280632
4.2330126e-06
-0.000336848
4.0416767e-06
-0.00034069548
3.8474825e-06
-0.00034434601
3.6505268e-06
-0.00034779692
3.4509091e-06
-0.00035104565
3.2487318e-06
-0.00035408975
3.0440999e-06
-0.00035692687
2.8371215e-06
-0.00035955478
2.6279072e-06
-0.00036197135
2.4165704e-06
-0.00036417457
2.2032271e-06
-0.00036616257
1.9879959e-06
-0.00036793357
1.770998e-06
-0.00036948593
1.5523571e-06
-0.00037081812
1.3321992e-06
-0.00037192878
1.1106528e-06
-0.00037281663
8.8784849e-07
-0.00037348054
6.6391912e-07
-0.00037391954
4.3899827e-07
-0.00037413277
2.1322386e-07
-0.00037411951
-1.3259444e-08
-0.00037387919
-2.4031944e-07
-0.00037341138
-4.6781028e-07
-0.00037271579
-6.9558821e-07
-0.00037179228
-9.2350749e-07
-0.00037064086
-1.1514212e-06
-0.00036926168
-1.3791811e-06
-0.00036765504
-1.606638e-06
-0.0003658214
-1.8336415e-06
-0.00036376136
-2.0600404e-06
-0.00036147568
-2.2856828e-06
-0.00035896526
-2.5104159e-06
-0.00035623117
-2.7340868e-06
-0.00035327463
-2.9565421e-06
-0.000350097
-3.1776281e-06
-0.00034669981
-3.3971911e-06
-0.00034308474
-3.6150777e-06
-0.0003392536
-3.8311343e-06
-0.00033520839
-4.045208e-06
-0.00033095125
-4.2571464e-06
-0.00032648445
-4.4667977e-06
-0.00032181044
-4.6740108e-06
-0.0003169318
-4.8786359e-06
-0.00031185128
-5.080524e-06
-0.00030657175
-5.2795274e-06
-0.00030109625
-5.4755001e-06
-0.00029542795
-5.6682973e-06
-0.00028957018
-5.8577762e-06
-0.00028352638
-6.0437956e-06
-0.00027730017
-6.2262166e-06
-0.00027089526
-6.4049022e-06
-0.00026431555
-6.5797178e-06
-0.00025756501
-6.7505311e-06
-0.0002506478
-6.9172126e-06
-0.00024356817
-7.0796353e-06
-0.00023633049
-7.2376752e-06
-0.00022893928
-7.3912111e-06
-0.00022139915
-7.5401249e-06
-0.00021371485
-7.684302e-06
-0.00020589122
-7.8236308e-06
-0.00019793322
-7.9580032e-06
-0.0001898459
-8.087315e-06
-0.00018163444
-8.2114654e-06
-0.00017330408
-8.3303574e-06
-0.00016486018
-8.443898e-06
-0.00015630818
-8.5519983e-06
-0.00014765361
-8.6545732e-06
-0.00013890207
-8.7515421e-06
-0.00013005924
-8.8428285e-06
-0.00012113088
-8.9283604e-06
-0.00011212281
-9.00807e-06
-0.00010304092
-9.0818944e-06
-9.3891141e-05
-9.1497748e-06
-8.4679484e-05
-9.2116576e-06
-7.541199e-05
-9.2674934e-06
-6.6094752e-05
-9.3172379e-06
-5.6733901e-05
-9.3608514e-06
-4.7335602e-05
-9.3982993e-06
-3.790605e-05
-9.4295516e-06
-2.8451467e-05
-9.4545834e-06
-1.8978092e-05
-9.4733748e-06
-9.4921812e-06
-9.4859107e-06
-9.263946e-16
-9.4921812e-06
9.4921812e-06
-9.4921812e-06
1.8978092e-05
-9.4859107e-06
2.8451467e-05
-9.4733748e-06
3.790605e-05
-9.4545834e-06
4.7335602e-05
-9.4295516e-06
5.6733901e-05
-9.3982993e-06
6.6094752e-05
-9.3608514e-06
7.541199e-05
-9.3172379e-06
8.4679484e-05
-9.2674934e-06
9.3891141e-05
-9.2116576e-06
0.00010304092
-9.1497748e-06
0.00011212281
-9.0818944e-06
0.00012113088
-9.00807e-06
0.00013005924
-8.9283604e-06
0.00013890207
-8.8428285e-06
0.00014765361
-8.7515421e-06
0.00015630818
-8.6545732e-06
0.00016486018
-8.5519983e-06
0.00017330408
-8.443898e-06
0.00018163444
-8.3303574e-06
0.0001898459
-8.2114654e-06
0.00019793322
-8.087315e-06
0.00020589122
-7.9580032e-06
0.00021371485
-7.8236308e-06
0.00022139915
-7.684302e-06
0.00022893928
-7.5401249e-06
0.00023633049
-7.3912111e-06
0.00024356817
-7.2376752e-06
0.0002506478
-7.0796353e-06
0.00025756501
-6.9172126e-06
0.00026431555
-6.7505311e-06
0.00027089526
-6.5797178e-06
0.00027730017
-6.4049022e-06
0.00028352638
-6.2262166e-06
0.00028957018
-6.0437956e-06
0.00029542795
-5.8577762e-06
0.00030109625
-5.6682973e-06
0.00030657175
-5.4755001e-06
0.00031185128
-5.2795274e-06
0.0003169318
-5.0805239e-06
0.00032181044
-4.8786359e-06
0.00032648445
-4.6740108e-06
0.00033095125
-4.4667977e-06
0.00033520839
-4.2571464e-06
0.0003392536
-4.045208e-06
0.00034308474
-3.8311343e-06
0.00034669981
-3.6150776e-06
0.000350097
-3.3971911e-06
0.00035327463
-3.1776281e-06
0.00035623117
-2.9565421e-06
0.00035896526
-2.7340868e-06
0.00036147568
-2.5104159e-06
0.00036376136
-2.2856827e-06
0.0003658214
-2.0600404e-06
0.00036765504
-1.8336415e-06
0.00036926168
-1.606638e-06
0.00037064086
-1.3791811e-06
0.00037179228
-1.1514212e-06
0.00037271579
-9.2350749e-07
0.00037341138
-6.9558821e-07
0.00037387919
-4.6781028e-07
0.00037411951
-2.4031944e-07
0.00037413277
-1.3259446e-08
0.00037391954
2.1322386e-07
0.00037348054
4.3899827e-07
0.00037281663
6.6391912e-07
0.00037192878
8.8784849e-07
0.00037081812
1.1106528e-06
0.00036948593
1.3321992e-06
0.00036793357
1.5523571e-06
0.00036616257
1.7709981e-06
0.00036417457
1.9879959e-06
0.00036197135
2.2032271e-06
0.00035955478
2.4165704e-06
0.00035692687
2.6279072e-06
0.00035408975
2.8371215e-06
0.00035104565
3.0440999e-06
0.00034779692
3.2487318e-06
0.00034434601
3.4509091e-06
0.00034069548
3.6505268e-06
0.000336848
3.8474825e-06
0.00033280632
4.0416767e-06
0.00032857331
4.2330126e-06
0.00032415191
4.4213965e-06
0.00031954517
4.6067373e-06
0.00031475623
4.7889471e-06
0.00030978829
4.9679405e-06
0.00030464465
5.1436353e-06
0.0002993287
5.3159519e-06
0.00029384389
5.4848137e-06
0.00028819374
5.6501469e-06
0.00028238186
5.8118804e-06
0.00027641191
5.9699459e-06
0.00027028764
6.1242779e-06
0.00026401282
6.2748136e-06
0.00025759133
6.4214927e-06
0.00025102707
6.5642578e-06
0.00024432402
6.7030538e-06
0.00023748619
6.8378284e-06
0.00023051766
6.9685314e-06
0.00022342254
7.0951154e-06
0.00021620501
7.2175352e-06
0.00020886926
7.3357479e-06
0.00020141955
7.4497128e-06
0.00019386015
7.5593916e-06
0.00018619541
7.664748e-06
0.00017842966
7.7657477e-06
0.0001705673
7.8623586e-06
0.00016261275
7.9545505e-06
0.00015457045
8.042295e-06
0.00014644489
8.1255656e-06
0.00013824055
8.2043376e-06
0.00012996196
8.278588e-06
0.00012161367
8.3482956e-06
0.00011320023
8.4134406e-06
0.00010472622
8.4740049e-06
9.6196251e-05
8.5299718e-06
8.7614925e-05
8.5813263e-06
7.898687e-05
8.6280546e-06
7.0316726e-05
8.6701443e-06
6.1609141e-05
8.7075845e-06
5.2868776e-05
8.7403655e-06
4.4100297e-05
8.7684789e-06
3.5308379e-05
8.7919175e-06
2.6497704e-05
8.8106755e-06
1.7672956e-05
8.824748e-06
8.8388241e-06
8.8341317e-06
8.8388241e-06
-8.8465493e-06
1.7685373e-05
-1.7688404e-05
1.7675986e-05
-2.6520871e-05
1.7657215e-05
-3.5339258e-05
1.7629063e-05
-4.4138878e-05
1.7591538e-05
-5.2915048e-05
1.7544649e-05
-6.1663092e-05
1.7488409e-05
-7.0378338e-05
1.7422831e-05
-7.9056125e-05
1.7347932e-05
-8.7691802e-05
1.7263732e-05
-9.6280728e-05
1.7170252e-05
-0.00010481827
1.7067517e-05
-0.00011329982
1.6955555e-05
-0.00012172078
1.6834395e-05
-0.00013007655
1.6704071e-05
-0.00013836258
1.6564619e-05
-0.00014657432
1.6416079e-05
-0.00015470725
1.6258492e-05
-0.00016275686
1.6091906e-05
-0.00017071868
1.5916368e-05
-0.00017858825
1.5731933e-05
-0.00018636116
1.5538656e-05
-0.00019403301
1.5336598e-05
-0.00020159945
1.5125824e-05
-0.00020905613
1.4906401e-05
-0.00021639879
1.4678403e-05
-0.00022362316
1.4441905e-05
-0.00023072503
1.419699e-05
-0.00023770024
1.3943742e-05
-0.00024454467
1.3682252e-05
-0.00025125423
1.3412616e-05
-0.0002578249
1.3134932e-05
-0.00026425272
1.2849306e-05
-0.00027053375
1.2555848e-05
-0.00027666415
1.2254673e-05
-0.0002826401
1.1945901e-05
-0.00028845788
1.1629657e-05
-0.0002941138
1.1306073e-05
-0.00029960428
1.0975286e-05
-0.00030492576
1.0637437e-05
-0.0003100748
1.0292674e-05
-0.00031504801
9.9411498e-06
-0.00031984209
9.5830242e-06
-0.00032445381
9.2184614e-06
-0.00032888005
8.8476321e-06
-0.00033311775
8.4707123e-06
-0.00033716395
8.087884e-06
-0.00034101581
7.6993348e-06
-0.00034467054
7.3052582e-06
-0.00034812548
6.9058532e-06
-0.00035137807
6.5013247e-06
-0.00035442586
6.091883e-06
-0.00035726648
5.6777441e-06
-0.0003598977
5.2591293e-06
-0.0003623174
4.8362654e-06
-0.00036452355
4.4093847e-06
-0.00036651428
3.9787244e-06
-0.00036828781
3.544527e-06
-0.00036984249
3.1070399e-06
-0.00037117681
2.6665153e-06
-0.00037228937
2.2232102e-06
-0.00037317891
1.7773861e-06
-0.00037384429
1.3293085e-06
-0.00037428454
8.7924716e-07
-0.0003744988
4.2747715e-07
-0.00037448634
-2.572113e-08
-0.00037424659
-4.8006963e-07
-0.00037377911
-9.3528282e-07
-0.00037308363
-1.3910722e-06
-0.00037215999
-1.8471462e-06
-0.0003710082
-2.303211e-06
-0.00036962841
-2.7589698e-06
-0.00036802093
-3.2141239e-06
-0.00036618619
-3.6683723e-06
-0.00036412482
-4.1214126e-06
-0.00036183757
-4.5729404e-06
-0.00035932533
-5.0226504e-06
-0.00035658918
-5.4702363e-06
-0.00035363033
-5.915391e-06
-0.00035045015
-6.3578071e-06
-0.00034705017
-6.7971769e-06
-0.00034343205
-7.2331931e-06
-0.00033959764
-7.6655488e-06
-0.00033554891
-8.0939377e-06
-0.000331288
-8.5180546e-06
-0.0003268172
-8.9375959e-06
-0.00032213895
-9.3522592e-06
-0.00031725584
-9.7617444e-06
-0.00031217061
-1.0165753e-05
-0.00030688615
-1.0563991e-05
-0.00030140549
-1.0956164e-05
-0.0002957318
-1.1341984e-05
-0.00028986841
-1.1721164e-05
-0.00028381879
-1.2093421e-05
-0.00027758653
-1.2458479e-05
-0.00027117537
-1.2816062e-05
-0.00026458918
-1.31659e-05
-0.00025783198
-1.3507731e-05
-0.0002509079
-1.3841293e-05
-0.00024382121
-1.4166333e-05
-0.00023657628
-1.4482603e-05
-0.00022917763
-1.478986e-05
-0.00022162989
-1.5087867e-05
-0.00021393779
-1.5376396e-05
-0.0002061062
-1.5655223e-05
-0.00019814007
-1.5924131e-05
-0.00019004447
-1.6182913e-05
-0.00018182457
-1.6431365e-05
-0.00017348564
-1.6669295e-05
-0.00016503302
-1.6896515e-05
-0.00015647217
-1.7112848e-05
-0.00014780862
-1.7318124e-05
-0.00013904798
-1.7512182e-05
-0.00013019594
-1.7694867e-05
-0.00012125826
-1.7866037e-05
-0.00011224078
-1.8025554e-05
-0.00010314938
-1.8173295e-05
-9.3990015e-05
-1.830914e-05
-8.4768691e-05
-1.8432982e-05
-7.5491461e-05
-1.8544723e-05
-6.6164426e-05
-1.8644274e-05
-5.6793722e-05
-1.8731555e-05
-4.7385524e-05
-1.8806497e-05
-3.7946035e-05
-1.8869041e-05
-2.8481482e-05
-1.8919136e-05
-1.8998115e-05
-1.8956742e-05
-9.5021969e-06
-1.8981829e-05
1.5678358e-15
-1.8994378e-05
9.5021969e-06
-1.8994378e-05
1.8998115e-05
-1.8981829e-05
2.8481483e-05
-1.8956742e-05
3.7946035e-05
-1.8919136e-05
4.7385524e-05
-1.8869041e-05
5.6793722e-05
-1.8806497e-05
6.6164426e-05
-1.8731555e-05
7.5491461e-05
-1.8644274e-05
8.4768691e-05
-1.8544723e-05
9.3990015e-05
-1.8432982e-05
0.00010314938
-1.830914e-05
0.00011224078
-1.8173295e-05
0.00012125826
-1.8025554e-05
0.00013019594
-1.7866037e-05
0.00013904798
-1.7694867e-05
0.00014780862
-1.7512182e-05
0.00015647217
-1.7318124e-05
0.00016503302
-1.7112848e-05
0.00017348564
-1.6896515e-05
0.00018182457
-1.6669295e-05
0.00019004447
-1.6431365e-05
0.00019814007
-1.6182913e-05
0.0002061062
-1.5924131e-05
0.00021393779
-1.5655223e-05
0.00022162989
-1.5376396e-05
0.00022917763
-1.5087867e-05
0.00023657628
-1.478986e-05
0.00024382121
-1.4482603e-05
0.0002509079
-1.4166333e-05
0.00025783198
-1.3841293e-05
0.00026458918
-1.3507731e-05
0.00027117537
-1.31659e-05
0.00027758653
-1.2816062e-05
0.00028381879
-1.2458479e-05
0.00028986841
-1.2093421e-05
0.0002957318
-1.1721164e-05
0.00030140549
-1.1341984e-05
0.00030688615
-1.0956164e-05
0.00031217061
-1.0563991e-05
0.00031725584
-1.0165753e-05
0.00032213895
-9.7617444e-06
0.0003268172
-9.3522592e-06
0.000331288
-8.9375959e-06
0.00033554891
-8.5180546e-06
0.00033959764
-8.0939377e-06
0.00034343205
-7.6655488e-06
0.00034705017
-7.2331931e-06
0.00035045015
-6.7971769e-06
0.00035363033
-6.3578071e-06
0.00035658918
-5.915391e-06
0.00035932533
-5.4702363e-06
0.00036183757
-5.0226504e-06
0.00036412482
-4.5729404e-06
0.00036618619
-4.1214126e-06
0.00036802093
-3.6683723e-06
0.00036962841
-3.2141239e-06
0.0003710082
-2.7589698e-06
0.00037215999
-2.303211e-06
0.00037308363
-1.8471462e-06
0.00037377911
-1.3910722e-06
0.00037424659
-9.3528282e-07
0.00037448634
-4.8006964e-07
0.0003744988
-2.5721133e-08
0.00037428454
4.2747715e-07
0.00037384429
8.7924716e-07
0.00037317891
1.3293085e-06
0.00037228937
1.7773861e-06
0.00037117681
2.2232102e-06
0.00036984249
2.6665153e-06
0.00036828781
3.1070399e-06
0.00036651428
3.544527e-06
0.00036452355
3.9787244e-06
0.0003623174
4.4093847e-06
0.0003598977
4.8362655e-06
0.00035726648
5.2591293e-06
0.00035442586
5.6777441e-06
0.00035137807
6.091883e-06
0.00034812548
6.5013247e-06
0.00034467054
6.9058532e-06
0.00034101581
7.3052582e-06
0.00033716395
7.6993348e-06
0.00033311775
8.0878839e-06
0.00032888005
8.4707123e-06
0.00032445381
8.8476321e-06
0.00031984209
9.2184614e-06
0.00031504801
9.5830242e-06
0.0003100748
9.9411498e-06
0.00030492576
1.0292674e-05
0.00029960428
1.0637437e-05
0.0002941138
1.0975286e-05
0.00028845788
1.1306073e-05
0.0002826401
1.1629657e-05
0.00027666415
1.1945901e-05
0.00027053375
1.2254673e-05
0.00026425272
1.2555848e-05
0.0002578249
1.2849306e-05
0.00025125423
1.3134932e-05
0.00024454467
1.3412616e-05
0.00023770024
1.3682252e-05
0.00023072503
1.3943742e-05
0.00022362316
1.419699e-05
0.00021639879
1.4441905e-05
0.00020905613
1.4678403e-05
0.00020159945
1.4906401e-05
0.00019403301
1.5125824e-05
0.00018636116
1.5336598e-05
0.00017858825
1.5538656e-05
0.00017071868
1.5731933e-05
0.00016275686
1.5916368e-05
0.00015470725
1.6091906e-05
0.00014657432
1.6258492e-05
0.00013836258
1.6416079e-05
0.00013007655
1.6564619e-05
0.00012172078
1.6704071e-05
0.00011329982
1.6834395e-05
0.00010481827
1.6955555e-05
9.6280728e-05
1.7067517e-05
8.7691802e-05
1.7170252e-05
7.9056125e-05
1.7263732e-05
7.0378338e-05
1.7347932e-05
6.1663092e-05
1.7422831e-05
5.2915048e-05
1.7488409e-05
4.4138878e-05
1.7544649e-05
3.5339258e-05
1.7591538e-05
2.6520871e-05
1.7629063e-05
1.7688404e-05
1.7657215e-05
8.8465493e-06
1.7675986e-05
1.7685373e-05
-8.8595583e-06
2.6544932e-05
-1.7714418e-05
2.6530846e-05
-2.6559882e-05
2.6502679e-05
-3.5391255e-05
2.6460436e-05
-4.4203846e-05
2.6404128e-05
-5.2992967e-05
2.6333771e-05
-6.1753938e-05
2.624938e-05
-7.0482085e-05
2.6150977e-05
-7.9172741e-05
2.6038588e-05
-8.7821251e-05
2.5912242e-05
-9.642297e-05
2.5771971e-05
-0.00010497326
2.5617811e-05
-0.00011346751
2.5449805e-05
-0.00012190112
2.5267997e-05
-0.00013026948
2.5072436e-05
-0.00013856804
2.4863178e-05
-0.00014679224
2.464028e-05
-0.00015493756
2.4403807e-05
-0.00016299948
2.4153827e-05
-0.00017097352
2.3890414e-05
-0.00017885524
2.3613647e-05
-0.00018664019
2.3323611e-05
-0.00019432399
2.3020396e-05
-0.00020190226
2.2704099e-05
-0.00020937068
2.2374822e-05
-0.00021672496
2.2032673e-05
-0.00022396082
2.1677768e-05
-0.00023107406
2.1310228e-05
-0.0002380605
2.0930181e-05
-0.00024491601
2.0537763e-05
-0.00025163651
2.0133116e-05
-0.00025821796
1.9716389e-05
-0.0002646564
1.9287741e-05
-0.00027094788
1.8847335e-05
-0.00027708856
1.8395344e-05
-0.0002830746
1.7931949e-05
-0.00028890228
1.7457337e-05
-0.00029456792
1.6971706e-05
-0.00030006789
1.6475259e-05
-0.00030539866
1.5968211e-05
-0.00031055677
1.5450782e-05
-0.00031553882
1.4923202e-05
-0.00032034151
1.438571e-05
-0.0003249616
1.3838552e-05
-0.00032939595
1.3281986e-05
-0.00033364151
1.2716273e-05
-0.00033769532
1.2141689e-05
-0.0003415545
1.1558513e-05
-0.00034521628
1.0967037e-05
-0.00034867798
1.036756e-05
-0.00035193705
9.7603873e-06
-0.000354991
9.145836e-06
-0.00035783748
8.5242298e-06
-0.00036047426
7.8959011e-06
-0.00036289918
7.2611901e-06
-0.00036511024
6.6204453e-06
-0.00036710554
5.9740229e-06
-0.0003688833
5.3222868e-06
-0.00037044187
4.6656083e-06
-0.00037177972
4.004366e-06
-0.00037289545
3.3389457e-06
-0.00037378781
2.6697398e-06
-0.00037445565
1.9971474e-06
-0.00037489797
1.3215737e-06
-0.00037511393
6.4343104e-07
-0.00037510279
-3.6862425e-08
-0.00037486397
-7.1888522e-07
-0.00037439704
-1.4022097e-06
-0.00037370171
-2.0864028e-06
-0.00037277783
-2.7710273e-06
-0.0003716254
-3.4556415e-06
-0.00037024457
-4.1398003e-06
-0.00036863564
-4.8230549e-06
-0.00036679906
-5.5049535e-06
-0.00036473543
-6.1850419e-06
-0.00036244551
-6.8628633e-06
-0.0003599302
-7.5379591e-06
-0.00035719056
-8.2098694e-06
-0.00035422782
-8.8781332e-06
-0.00035104334
-9.5422887e-06
-0.00034763864
-1.0201874e-05
-0.00034401541
-1.0856428e-05
-0.00034017547
-1.1505489e-05
-0.00033612081
-1.2148598e-05
-0.00033185357
-1.2785296e-05
-0.00032737604
-1.3415127e-05
-0.00032269066
-1.4037638e-05
-0.00031780002
-1.4652378e-05
-0.00031270688
-1.5258898e-05
-0.00030741411
-1.5856756e-05
-0.00030192476
-1.6445512e-05
-0.00029624202
-1.7024732e-05
-0.0002903692
-1.7593985e-05
-0.00028430977
-1.8152848e-05
-0.00027806735
-1.8700902e-05
-0.00027164567
-1.9237737e-05
-0.00026504862
-1.9762947e-05
-0.00025828022
-2.0276135e-05
-0.0002513446
-2.0776912e-05
-0.00024424604
-2.1264896e-05
-0.00023698893
-2.1739714e-05
-0.00022957778
-2.2201002e-05
-0.00022201725
-2.2648405e-05
-0.00021431207
-2.3081578e-05
-0.0002064671
-2.3500186e-05
-0.00019848733
-2.3903904e-05
-0.00019037782
-2.4292419e-05
-0.00018214376
-2.4665428e-05
-0.00017379042
-2.5022639e-05
-0.00016532316
-2.5363772e-05
-0.00015674745
-2.5688561e-05
-0.00014806882
-2.5996749e-05
-0.00013929291
-2.6288095e-05
-0.00013042541
-2.6562368e-05
-0.00012147209
-2.6819352e-05
-0.0001124388
-2.7058843e-05
-0.00010333145
-2.7280652e-05
-9.4155982e-05
-2.7484603e-05
-8.491843e-05
-2.7670533e-05
-7.5624857e-05
-2.7838296e-05
-6.6281375e-05
-2.7987756e-05
-5.6894134e-05
-2.8118796e-05
-4.746932e-05
-2.8231311e-05
-3.801315e-05
-2.8325211e-05
-2.8531865e-05
-2.8400421e-05
-1.9031725e-05
-2.8456881e-05
-9.5190083e-06
-2.8494546e-05
2.7378187e-15
-2.8513386e-05
9.5190084e-06
-2.8513386e-05
1.9031725e-05
-2.8494546e-05
2.8531865e-05
-2.8456881e-05
3.801315e-05
-2.8400421e-05
4.746932e-05
-2.8325211e-05
5.6894134e-05
-2.8231311e-05
6.6281375e-05
-2.8118796e-05
7.5624857e-05
-2.7987756e-05
8.491843e-05
-2.7838296e-05
9.4155982e-05
-2.7670533e-05
0.00010333145
-2.7484603e-05
0.0001124388
-2.7280652e-05
0.00012147209
-2.7058843e-05
0.00013042541
-2.6819352e-05
0.00013929291
-2.6562368e-05
0.00014806882
-2.6288095e-05
0.00015674745
-2.5996749e-05
0.00016532316
-2.5688561e-05
0.00017379042
-2.5363772e-05
0.00018214376
-2.5022639e-05
0.00019037782
-2.4665428e-05
0.00019848733
-2.4292419e-05
0.0002064671
-2.3903904e-05
0.00021431207
-2.3500186e-05
0.00022201725
-2.3081578e-05
0.00022957778
-2.2648405e-05
0.00023698893
-2.2201002e-05
0.00024424604
-2.1739714e-05
0.0002513446
-2.1264896e-05
0.00025828022
-2.0776912e-05
0.00026504862
-2.0276135e-05
0.00027164567
-1.9762947e-05
0.00027806735
-1.9237737e-05
0.00028430977
-1.8700902e-05
0.0002903692
-1.8152848e-05
0.00029624202
-1.7593985e-05
0.00030192476
-1.7024732e-05
0.00030741411
-1.6445512e-05
0.00031270688
-1.5856756e-05
0.00031780002
-1.5258898e-05
0.00032269066
-1.4652378e-05
0.00032737604
-1.4037638e-05
0.00033185357
-1.3415127e-05
0.00033612081
-1.2785296e-05
0.00034017547
-1.2148598e-05
0.00034401541
-1.1505489e-05
0.00034763864
-1.0856428e-05
0.00035104334
-1.0201874e-05
0.00035422782
-9.5422887e-06
0.00035719056
-8.8781331e-06
0.0003599302
-8.2098694e-06
0.00036244551
-7.5379591e-06
0.00036473543
-6.8628633e-06
0.00036679906
-6.1850419e-06
0.00036863564
-5.5049535e-06
0.00037024457
-4.8230548e-06
0.0003716254
-4.1398003e-06
0.00037277783
-3.4556415e-06
0.00037370171
-2.7710273e-06
0.00037439704
-2.0864028e-06
0.00037486397
-1.4022097e-06
0.00037510279
-7.1888522e-07
0.00037511393
-3.6862423e-08
0.00037489797
6.4343104e-07
0.00037445565
1.3215737e-06
0.00037378781
1.9971474e-06
0.00037289545
2.6697398e-06
0.00037177972
3.3389457e-06
0.00037044187
4.004366e-06
0.0003688833
4.6656083e-06
0.00036710554
5.3222868e-06
0.00036511024
5.9740229e-06
0.00036289918
6.6204453e-06
0.00036047426
7.2611901e-06
0.00035783748
7.8959011e-06
0.000354991
8.5242298e-06
0.00035193705
9.145836e-06
0.00034867798
9.7603873e-06
0.00034521628
1.036756e-05
0.0003415545
1.0967037e-05
0.00033769532
1.1558513e-05
0.00033364151
1.2141689e-05
0.00032939595
1.2716273e-05
0.0003249616
1.3281986e-05
0.00032034151
1.3838552e-05
0.00031553882
1.438571e-05
0.00031055677
1.4923202e-05
0.00030539866
1.5450782e-05
0.00030006789
1.5968211e-05
0.00029456792
1.6475259e-05
0.00028890228
1.6971706e-05
0.0002830746
1.7457337e-05
0.00027708856
1.7931949e-05
0.00027094788
1.8395344e-05
0.0002646564
1.8847335e-05
0.00025821796
1.9287741e-05
0.00025163651
1.9716389e-05
0.00024491601
2.0133116e-05
0.0002380605
2.0537763e-05
0.00023107406
2.0930181e-05
0.00022396082
2.1310228e-05
0.00021672496
2.1677768e-05
0.00020937068
2.2032673e-05
0.00020190226
2.2374822e-05
0.00019432399
2.2704099e-05
0.00018664019
2.3020396e-05
0.00017885524
2.3323611e-05
0.00017097352
2.3613647e-05
0.00016299948
2.3890414e-05
0.00015493756
2.4153827e-05
0.00014679224
2.4403807e-05
0.00013856804
2.464028e-05
0.00013026948
2.4863178e-05
0.00012190112
2.5072436e-05
0.00011346751
2.5267997e-05
0.00010497326
2.5449805e-05
9.642297e-05
2.5617811e-05
8.7821251e-05
2.5771971e-05
7.9172741e-05
2.5912242e-05
7.0482085e-05
2.6038588e-05
6.1753938e-05
2.6150977e-05
5.2992967e-05
2.624938e-05
4.4203846e-05
2.6333771e-05
3.5391255e-05
2.6404128e-05
2.6559882e-05
2.6460436e-05
1.7714418e-05
2.6502679e-05
8.8595583e-06
2.6530846e-05
2.6544932e-05
-8.8777657e-06
3.5422697e-05
-1.7750828e-05
3.5403908e-05
-2.6614483e-05
3.5366334e-05
-3.5464031e-05
3.5309984e-05
-4.4294775e-05
3.5234873e-05
-5.3102023e-05
3.5141018e-05
-6.1881088e-05
3.5028444e-05
-7.062729e-05
3.4897179e-05
-7.9335958e-05
3.4747256e-05
-8.800243e-05
3.4578714e-05
-9.6622055e-05
3.4391595e-05
-0.00010519019
3.4185949e-05
-0.00011370222
3.3961831e-05
-0.00012215352
3.37193e-05
-0.00013053951
3.3458422e-05
-0.0001388556
3.317927e-05
-0.00014709724
3.2881921e-05
-0.00015525989
3.2566459e-05
-0.00016333904
3.2232978e-05
-0.0001713302
3.1881574e-05
-0.00017922891
3.1512352e-05
-0.00018703073
3.1125426e-05
-0.00019473125
3.0720916e-05
-0.0002023261
3.029895e-05
-0.00020981094
2.9859664e-05
-0.00021718147
2.9403202e-05
-0.00022443342
2.8929717e-05
-0.00023156256
2.8439371e-05
-0.00023856471
2.7932336e-05
-0.00024543574
2.7408791e-05
-0.00025217155
2.6868925e-05
-0.0002587681
2.6312939e-05
-0.0002652214
2.5741041e-05
-0.00027152752
2.5153451e-05
-0.00027768257
2.4550399e-05
-0.00028368275
2.3932124e-05
-0.00028952429
2.3298878e-05
-0.00029520351
2.2650923e-05
-0.00030071678
2.1988531e-05
-0.00030606056
2.1311987e-05
-0.00031123136
2.0621585e-05
-0.00031622579
1.9917632e-05
-0.00032104053
1.9200445e-05
-0.00032567233
1.8470355e-05
-0.00033011804
1.7727702e-05
-0.00033437461
1.6972839e-05
-0.00033843905
1.6206129e-05
-0.00034230848
1.5427948e-05
-0.00034598013
1.4638683e-05
-0.0003494513
1.3838732e-05
-0.00035271942
1.3028506e-05
-0.00035578201
1.2208426e-05
-0.00035863671
1.1378923e-05
-0.00036128125
1.0540442e-05
-0.00036371349
9.6934359e-06
-0.00036593142
8.8383699e-06
-0.00036793311
7.9757194e-06
-0.0003697168
7.1059699e-06
-0.0003712808
6.229617e-06
-0.0003726236
5.3471659e-06
-0.00037374379
4.4591314e-06
-0.00037464009
3.5660373e-06
-0.00037531136
2.6684163e-06
-0.00037575659
1.7668097e-06
-0.00037597493
8.6176698e-07
-0.00037596564
-4.6154365e-08
-0.00037572813
-9.5639057e-07
-0.00037526197
-1.8683707e-06
-0.00037456686
-2.7815169e-06
-0.00037364264
-3.6952454e-06
-0.00037248931
-4.6089669e-06
-0.00037110703
-5.522087e-06
-0.00036949607
-6.4340067e-06
-0.0003676569
-7.3441228e-06
-0.00036559012
-8.2518287e-06
-0.00036329647
-9.1565149e-06
-0.00036077686
-1.0057569e-05
-0.00035803235
-1.0954377e-05
-0.00035506416
-1.1846323e-05
-0.00035187366
-1.2732791e-05
-0.00034846237
-1.3613164e-05
-0.00034483197
-1.4486826e-05
-0.0003409843
-1.5353162e-05
-0.00033692134
-1.6211558e-05
-0.00033264523
-1.7061401e-05
-0.00032815828
-1.7902082e-05
-0.00032346292
-1.8732997e-05
-0.00031856175
-1.9553542e-05
-0.00031345753
-2.0363121e-05
-0.00030815315
-2.1161141e-05
-0.00030265164
-2.1947014e-05
-0.00029695621
-2.2720162e-05
-0.00029107019
-2.3480009e-05
-0.00028499705
-2.422599e-05
-0.0002787404
-2.4957547e-05
-0.00027230401
-2.567413e-05
-0.00026569175
-2.6375199e-05
-0.00025890767
-2.7060223e-05
-0.0002519559
-2.7728682e-05
-0.00024484073
-2.8380067e-05
-0.00023756656
-2.9013879e-05
-0.00023013793
-2.9629632e-05
-0.00022255948
-3.0226852e-05
-0.00021483598
-3.0805079e-05
-0.0002069723
-3.1363865e-05
-0.00019897343
-3.1902777e-05
-0.00019084446
-3.2421395e-05
-0.00018259057
-3.2919315e-05
-0.00017421706
-3.3396149e-05
-0.00016572931
-3.3851522e-05
-0.00015713279
-3.4285078e-05
-0.00014843307
-3.4696475e-05
-0.00013963577
-3.5085389e-05
-0.00013074663
-3.5451514e-05
-0.00012177142
-3.579456e-05
-0.000112716
-3.6114256e-05
-0.00010358631
-3.6410348e-05
-9.438831e-05
-3.6682602e-05
-8.5128043e-05
-3.69308e-05
-7.5811592e-05
-3.7154746e-05
-6.6445087e-05
-3.7354262e-05
-5.7034695e-05
-3.7529188e-05
-4.7586622e-05
-3.7679384e-05
-3.8107101e-05
-3.7804732e-05
-2.8602392e-05
-3.790513e-05
-1.9078774e-05
-3.7980499e-05
-9.542542e-06
-3.8030779e-05
4.0842241e-15
-3.8055928e-05
9.542542e-06
-3.8055928e-05
1.9078774e-05
-3.8030779e-05
2.8602392e-05
-3.7980499e-05
3.8107101e-05
-3.790513e-05
4.7586622e-05
-3.7804732e-05
5.7034695e-05
-3.7679384e-05
6.6445087e-05
-3.7529188e-05
7.5811592e-05
-3.7354262e-05
8.5128043e-05
-3.7154746e-05
9.438831e-05
-3.69308e-05
0.00010358631
-3.6682602e-05
0.000112716
-3.6410348e-05
0.00012177142
-3.6114256e-05
0.00013074663
-3.579456e-05
0.00013963577
-3.5451514e-05
0.00014843307
-3.5085389e-05
0.00015713279
-3.4696475e-05
0.00016572931
-3.4285078e-05
0.00017421706
-3.3851522e-05
0.00018259057
-3.3396149e-05
0.00019084446
-3.2919315e-05
0.00019897343
-3.2421395e-05
0.0002069723
-3.1902777e-05
0.00021483598
-3.1363865e-05
0.00022255948
-3.0805079e-05
0.00023013793
-3.0226852e-05
0.00023756656
-2.9629632e-05
0.00024484073
-2.9013879e-05
0.0002519559
-2.8380067e-05
0.00025890767
-2.7728682e-05
0.00026569175
-2.7060223e-05
0.00027230401
-2.6375199e-05
0.0002787404
-2.567413e-05
0.00028499705
-2.4957547e-05
0.00029107019
-2.422599e-05
0.00029695621
-2.3480009e-05
0.00030265164
-2.2720162e-05
0.00030815315
-2.1947014e-05
0.00031345753
-2.1161141e-05
0.00031856175
-2.0363121e-05
0.00032346292
-1.9553542e-05
0.00032815828
-1.8732997e-05
0.00033264523
-1.7902082e-05
0.00033692134
-1.7061401e-05
0.0003409843
-1.6211558e-05
0.00034483197
-1.5353162e-05
0.00034846237
-1.4486826e-05
0.00035187366
-1.3613164e-05
0.00035506416
-1.2732791e-05
0.00035803235
-1.1846323e-05
0.00036077686
-1.0954377e-05
0.00036329647
-1.0057569e-05
0.00036559012
-9.1565148e-06
0.0003676569
-8.2518287e-06
0.00036949607
-7.3441228e-06
0.00037110703
-6.4340066e-06
0.00037248931
-5.522087e-06
0.00037364264
-4.6089669e-06
0.00037456686
-3.6952454e-06
0.00037526197
-2.7815169e-06
0.00037572813
-1.8683706e-06
0.00037596564
-9.5639056e-07
0.00037597493
-4.6154357e-08
0.00037575659
8.6176699e-07
0.00037531136
1.7668097e-06
0.00037464009
2.6684163e-06
0.00037374379
3.5660373e-06
0.0003726236
4.4591314e-06
0.0003712808
5.3471659e-06
0.0003697168
6.229617e-06
0.00036793311
7.1059699e-06
0.00036593142
7.9757194e-06
0.00036371349
8.83837e-06
0.00036128125
9.6934359e-06
0.00035863671
1.0540442e-05
0.00035578201
1.1378923e-05
0.00035271942
1.2208426e-05
0.0003494513
1.3028506e-05
0.00034598013
1.3838732e-05
0.00034230848
1.4638683e-05
0.00033843905
1.5427948e-05
0.00033437461
1.6206129e-05
0.00033011804
1.6972839e-05
0.00032567233
1.7727702e-05
0.00032104053
1.8470355e-05
0.00031622579
1.9200445e-05
0.00031123136
1.9917632e-05
0.00030606056
2.0621585e-05
0.00030071678
2.1311987e-05
0.00029520351
2.1988531e-05
0.00028952429
2.2650923e-05
0.00028368275
2.3298878e-05
0.00027768257
2.3932124e-05
0.00027152752
2.4550399e-05
0.0002652214
2.5153451e-05
0.0002587681
2.5741041e-05
0.00025217155
2.6312939e-05
0.00024543574
2.6868925e-05
0.00023856471
2.7408791e-05
0.00023156256
2.7932336e-05
0.00022443342
2.8439371e-05
0.00021718147
2.8929717e-05
0.00020981094
2.9403202e-05
0.0002023261
2.9859664e-05
0.00019473125
3.029895e-05
0.00018703073
3.0720916e-05
0.00017922891
3.1125426e-05
0.0001713302
3.1512352e-05
0.00016333904
3.1881574e-05
0.00015525989
3.2232978e-05
0.00014709724
3.2566459e-05
0.0001388556
3.2881921e-05
0.00013053951
3.317927e-05
0.00012215352
3.3458422e-05
0.00011370222