/*--------------------------------*- C++ -*----------------------------------*\
| =========                 |                                                 |
| \\      /  F ield         | OpenFOAM: The Open Source CFD Toolbox           |
|  \\    /   O peration     | Version:  2106                                  |
|   \\  /    A nd           | Website:  www.openfoam.com                      |
|    \\/     M anipulation  |                                                 |
\*---------------------------------------------------------------------------*/
FoamFile
{
    version     2.0;
    format      ascii;
    arch        "LSB;label=32;scalar=64";
    class       volVectorField;
    location    "0.275";
    object      U;
}
// * * * * * * * * * * * * * * * * * * * * * * * * * * * * * * * * * * * * * //

dimensions      [0 1 -1 0 0 0 0];

internalField   nonuniform List<vector> 
32768
(
(-0.0012126154 0.00056290155 0)
(-0.00095746681 -0.00033308104 0)
(0.0012634463 -0.00095939085 0)
(0.0045939914 -0.0013852485 0)
(0.0086180855 -0.0016070391 0)
(0.01298605 -0.0017472723 0)
(0.017549966 -0.001814001 0)
(0.022198255 -0.0018367284 0)
(0.026893272 -0.0018840096 0)
(0.031584777 -0.0019307714 0)
(0.036256219 -0.0019819502 0)
(0.040872359 -0.0020079196 0)
(0.045431852 -0.00203429 0)
(0.049980975 -0.0020628861 0)
(0.054371461 -0.0020481623 0)
(0.058796107 -0.002092905 0)
(0.063195973 -0.0020439141 0)
(0.067398791 -0.0021169693 0)
(0.071732656 -0.0020494682 0)
(0.07600486 -0.002080038 0)
(0.080133054 -0.0021380477 0)
(0.084373574 -0.0020195166 0)
(0.088622818 -0.0021086571 0)
(0.09274323 -0.0021523632 0)
(0.096841627 -0.002066518 0)
(0.1010571 -0.0020946352 0)
(0.10528036 -0.002159594 0)
(0.10938489 -0.0021440977 0)
(0.11345897 -0.0020813883 0)
(0.11763032 -0.0021426548 0)
(0.12186065 -0.0021655824 0)
(0.12602816 -0.0021480728 0)
(0.13006399 -0.0021418418 0)
(0.13412815 -0.0021215737 0)
(0.13833461 -0.0021440001 0)
(0.14253642 -0.0021796728 0)
(0.1466371 -0.0021744948 0)
(0.15067553 -0.0020987871 0)
(0.15466735 -0.0021118545 0)
(0.15871393 -0.0021487448 0)
(0.16292502 -0.0021513638 0)
(0.16707322 -0.0021495072 0)
(0.1709953 -0.0020918853 0)
(0.17484567 -0.0020703734 0)
(0.1787555 -0.0020758478 0)
(0.18281575 -0.0020911138 0)
(0.18694772 -0.0021480772 0)
(0.19089119 -0.0020757131 0)
(0.19460761 -0.0019676334 0)
(0.19834082 -0.0020161958 0)
(0.20225775 -0.0020758542 0)
(0.20618579 -0.0020268774 0)
(0.20993539 -0.0019838883 0)
(0.21365021 -0.0019859541 0)
(0.2174901 -0.0019877184 0)
(0.22130199 -0.0019689784 0)
(0.22488677 -0.0019342476 0)
(0.22835738 -0.0018950371 0)
(0.23198083 -0.0019125467 0)
(0.23575811 -0.0019724141 0)
(0.23949159 -0.0019280913 0)
(0.24306486 -0.0018598668 0)
(0.24650525 -0.0018581998 0)
(0.24999349 -0.0018445261 0)
(0.25356049 -0.0018498162 0)
(0.25698973 -0.0018649886 0)
(0.26029425 -0.0017997275 0)
(0.26372599 -0.0017818879 0)
(0.26735313 -0.0018871542 0)
(0.27102763 -0.0018776347 0)
(0.27448287 -0.0017524429 0)
(0.27757072 -0.0016952086 0)
(0.28056224 -0.0017105861 0)
(0.28387287 -0.0017648325 0)
(0.28752641 -0.0018524427 0)
(0.29113261 -0.0018556209 0)
(0.29439603 -0.0017121098 0)
(0.29744092 -0.0016196581 0)
(0.30057042 -0.0017030408 0)
(0.30394769 -0.001784485 0)
(0.30744091 -0.0017429726 0)
(0.31074246 -0.0017188885 0)
(0.31375669 -0.0016794585 0)
(0.31674055 -0.0016085849 0)
(0.3199062 -0.0016802406 0)
(0.32325186 -0.0017638661 0)
(0.32666943 -0.0016881061 0)
(0.32997349 -0.0016543475 0)
(0.33306469 -0.0016553117 0)
(0.33607625 -0.0015920953 0)
(0.33913036 -0.001603622 0)
(0.34220881 -0.0016776618 0)
(0.34531347 -0.0016516801 0)
(0.34847643 -0.0016134334 0)
(0.35164205 -0.0016370308 0)
(0.35476732 -0.0016175201 0)
(0.35787219 -0.0015925644 0)
(0.3609799 -0.0015911981 0)
(0.36412947 -0.0015791775 0)
(0.36729643 -0.0016130246 0)
(0.37035562 -0.0016170457 0)
(0.37324799 -0.001524531 0)
(0.37606738 -0.0015175035 0)
(0.37899417 -0.001619875 0)
(0.38217448 -0.0016130839 0)
(0.38551819 -0.0015546394 0)
(0.38871194 -0.0015790984 0)
(0.3916278 -0.0015303514 0)
(0.39442792 -0.0014471838 0)
(0.39727429 -0.0014811808 0)
(0.400247 -0.0015458345 0)
(0.4033384 -0.0015476396 0)
(0.40644544 -0.0015291395 0)
(0.40948446 -0.0015037325 0)
(0.4124152 -0.0014836874 0)
(0.41521045 -0.0014773073 0)
(0.41794986 -0.0014781076 0)
(0.42079875 -0.0014844248 0)
(0.42384161 -0.001468521 0)
(0.4269708 -0.0014843408 0)
(0.43000632 -0.0014684536 0)
(0.43288665 -0.0013747379 0)
(0.4356393 -0.0013525338 0)
(0.438316 -0.0014401795 0)
(0.44102572 -0.0014474196 0)
(0.44389356 -0.0013983791 0)
(0.44692266 -0.0014681575 0)
(0.44995194 -0.0014892617 0)
(0.45285847 -0.0013641791 0)
(0.45561638 -0.0013277377 0)
(0.45823912 -0.0013924741 0)
(0.46085249 -0.0013746013 0)
(0.46356646 -0.001340304 0)
(0.46637543 -0.0013923245 0)
(0.46927925 -0.0014128287 0)
(0.47226329 -0.0013515535 0)
(0.47520948 -0.001334298 0)
(0.4780328 -0.0013150387 0)
(0.48072592 -0.0013084353 0)
(0.48329192 -0.0012902557 0)
(0.48582326 -0.001301087 0)
(0.48843594 -0.0013303779 0)
(0.49113192 -0.0013330863 0)
(0.49388711 -0.0012936515 0)
(0.49669752 -0.0013070253 0)
(0.49951493 -0.0013207181 0)
(0.50226547 -0.0012483876 0)
(0.50489882 -0.0011952185 0)
(0.50743253 -0.0012250077 0)
(0.50995893 -0.0012423191 0)
(0.51254946 -0.0011895145 0)
(0.51520408 -0.0011671403 0)
(0.51786531 -0.0012274094 0)
(0.52051083 -0.0012393856 0)
(0.52314372 -0.0011592438 0)
(0.52570994 -0.0011653913 0)
(0.52816111 -0.0012300206 0)
(0.53059971 -0.0011955046 0)
(0.53313675 -0.0011278883 0)
(0.53575445 -0.0011752718 0)
(0.53836845 -0.0011979753 0)
(0.54092243 -0.0011240704 0)
(0.54337454 -0.001070429 0)
(0.54573614 -0.0011137298 0)
(0.54809847 -0.0011561913 0)
(0.5505134 -0.0011265061 0)
(0.55296056 -0.0011130829 0)
(0.5554509 -0.0011321652 0)
(0.55800744 -0.0011402103 0)
(0.56057296 -0.001069222 0)
(0.56308144 -0.0010343668 0)
(0.5655625 -0.0010279222 0)
(0.56802775 -0.001046195 0)
(0.57038255 -0.0010406968 0)
(0.5726313 -0.0010399143 0)
(0.57480763 -0.0010626529 0)
(0.57701944 -0.0010704474 0)
(0.57927265 -0.0010720548 0)
(0.58163226 -0.0010578411 0)
(0.58410098 -0.0010921812 0)
(0.58657791 -0.001029942 0)
(0.58906673 -0.0010182039 0)
(0.59142544 -0.00099210705 0)
(0.59369267 -0.00099661993 0)
(0.59587854 -0.0010173757 0)
(0.59802428 -0.00098815408 0)
(0.60019801 -0.0010126636 0)
(0.60237883 -0.00097576047 0)
(0.60466559 -0.0010108741 0)
(0.60705698 -0.0009604637 0)
(0.60953328 -0.00092722349 0)
(0.61197286 -0.00089606415 0)
(0.61421219 -0.00089861406 0)
(0.61632434 -0.00088980592 0)
(0.61828659 -0.0008753602 0)
(0.62018076 -0.00090254979 0)
(0.6220857 -0.00094328473 0)
(0.62405141 -0.00089763374 0)
(0.62609233 -0.0008855637 0)
(0.6281915 -0.00088408229 0)
(0.630376 -0.00083199788 0)
(0.63259788 -0.00081665022 0)
(0.63460137 -0.0006236169 0)
(0.63640911 -0.00069768657 0)
(0.63802723 -0.00065692985 0)
(0.63953861 -0.00059912989 0)
(0.64103235 -0.00062859686 0)
(0.64240465 -0.00053758111 0)
(0.64389385 -0.00053603046 0)
(0.64521681 -0.00035390069 0)
(0.64636646 -0.00010716777 0)
(0.64736958 5.649192e-05 0)
(0.64789453 0.00027510938 0)
(0.64822369 0.00052043122 0)
(0.64803873 0.00063824504 0)
(0.64746077 0.00081737236 0)
(0.64642944 0.0010624964 0)
(0.64484691 0.0013789716 0)
(0.64264763 0.0017249315 0)
(0.63972575 0.0021927784 0)
(0.63590909 0.0027644874 0)
(0.63103645 0.0034467523 0)
(0.62498602 0.0042299547 0)
(0.61748263 0.0051896657 0)
(0.60832462 0.0063338327 0)
(0.59699792 0.0076800955 0)
(0.5833877 0.0092674003 0)
(0.56720249 0.011140636 0)
(0.54715821 0.013300517 0)
(0.52391611 0.015941094 0)
(0.49587469 0.018838011 0)
(0.46250951 0.022438804 0)
(0.42357129 0.026448382 0)
(0.37699593 0.031124126 0)
(0.32271971 0.036321629 0)
(0.25953629 0.041781017 0)
(0.18694334 0.045595173 0)
(0.10656129 0.044278058 0)
(0.023029106 0.027059073 0)
(-0.041879737 0.0057172571 0)
(-0.092328702 -0.0093897063 0)
(-0.12052698 -0.0060528469 0)
(-0.12439816 0.0046632424 0)
(-0.1184698 0.013200408 0)
(-0.14322002 0.035005588 0)
(-0.20462007 0.048007123 0)
(-0.27681848 0.0446926 0)
(-0.35513665 0.034737236 0)
(-0.43568537 0.030279663 0)
(-0.49855212 0.024681936 0)
(-0.53391724 0.010743719 0)
(-0.53216479 -0.026686099 0)
(-0.45917775 -0.037795895 0)
(-0.36398604 -0.056131892 0)
(-0.23425184 -0.079395931 0)
(-0.10721773 -0.11130492 0)
(-0.0013668887 0.001617946 0)
(-0.00093306052 -0.0021387442 0)
(0.0021169336 -0.0045691871 0)
(0.0061145425 -0.0059770913 0)
(0.010990565 -0.0067483533 0)
(0.016120229 -0.0071842485 0)
(0.021479332 -0.007394822 0)
(0.026912298 -0.0074988823 0)
(0.032364823 -0.007494778 0)
(0.037738388 -0.0074138378 0)
(0.043127824 -0.0072937643 0)
(0.04830684 -0.0071967826 0)
(0.053648596 -0.0069425804 0)
(0.05862869 -0.0071167632 0)
(0.063901345 -0.0064593513 0)
(0.068640716 -0.0071257931 0)
(0.074033821 -0.0062207707 0)
(0.078474919 -0.0066450861 0)
(0.083674711 -0.0067037208 0)
(0.088627204 -0.005987385 0)
(0.093076305 -0.00656158 0)
(0.098213501 -0.006388119 0)
(0.10309617 -0.006171647 0)
(0.10765318 -0.0062171836 0)
(0.11239277 -0.006243599 0)
(0.11739831 -0.0064005479 0)
(0.1222709 -0.0060678525 0)
(0.12677508 -0.0061878563 0)
(0.13153323 -0.0060921768 0)
(0.13640199 -0.006380107 0)
(0.14136881 -0.0062150632 0)
(0.14609427 -0.0059978756 0)
(0.15050234 -0.006093439 0)
(0.15535425 -0.0061540143 0)
(0.16034632 -0.0062890225 0)
(0.1651442 -0.0060581356 0)
(0.16974935 -0.0061437336 0)
(0.17447175 -0.0058305412 0)
(0.17891756 -0.0059246526 0)
(0.18368817 -0.0063165419 0)
(0.18891301 -0.006085476 0)
(0.19349195 -0.0059484267 0)
(0.19785364 -0.005739325 0)
(0.20230767 -0.0057157285 0)
(0.20685343 -0.0059525163 0)
(0.21188981 -0.0060667106 0)
(0.21679993 -0.0059844621 0)
(0.22110997 -0.0056029419 0)
(0.22520135 -0.0054471992 0)
(0.22971619 -0.0057444613 0)
(0.23464299 -0.0058098051 0)
(0.23918273 -0.0055530234 0)
(0.24328232 -0.0055516259 0)
(0.24775083 -0.0056769418 0)
(0.25254375 -0.0056440004 0)
(0.25701181 -0.0053730437 0)
(0.26091711 -0.0051781798 0)
(0.26496379 -0.0052961712 0)
(0.26956996 -0.0054373259 0)
(0.2741839 -0.0055913731 0)
(0.27857437 -0.0053969005 0)
(0.2826477 -0.0051208539 0)
(0.28660368 -0.005188262 0)
(0.29105103 -0.0052306849 0)
(0.2954868 -0.0050355836 0)
(0.29922908 -0.0049829744 0)
(0.30305162 -0.0050078575 0)
(0.30738654 -0.0051839077 0)
(0.31200548 -0.005530876 0)
(0.31664082 -0.0052869091 0)
(0.32054717 -0.0046784725 0)
(0.32374029 -0.004448414 0)
(0.32725854 -0.0047156435 0)
(0.33175713 -0.0051674895 0)
(0.33664405 -0.005361724 0)
(0.34085231 -0.0050936022 0)
(0.34434867 -0.0046085263 0)
(0.34784197 -0.0045167826 0)
(0.35178718 -0.004885159 0)
(0.35624564 -0.0051867241 0)
(0.36072368 -0.0049392496 0)
(0.36446244 -0.0045703531 0)
(0.36777708 -0.004494948 0)
(0.37147633 -0.0044694787 0)
(0.37547399 -0.0048186702 0)
(0.37972011 -0.0051536579 0)
(0.38405892 -0.0049486016 0)
(0.38795562 -0.00471655 0)
(0.39152734 -0.0045908745 0)
(0.39525613 -0.0044508178 0)
(0.3990892 -0.0044507062 0)
(0.40281263 -0.0046287417 0)
(0.4066592 -0.0046642708 0)
(0.41062637 -0.0046253312 0)
(0.41444985 -0.0047190668 0)
(0.41824569 -0.0046662148 0)
(0.42201691 -0.0046040173 0)
(0.42583077 -0.0047101753 0)
(0.42986937 -0.0047311008 0)
(0.43389508 -0.0046218182 0)
(0.43752041 -0.0044155689 0)
(0.44086161 -0.0041493092 0)
(0.44419365 -0.0041667264 0)
(0.44783883 -0.0046649232 0)
(0.45210852 -0.004956603 0)
(0.45646657 -0.0048153995 0)
(0.46018541 -0.0046009854 0)
(0.46352411 -0.0043233708 0)
(0.46692168 -0.0041202404 0)
(0.47044749 -0.0043189544 0)
(0.4742486 -0.0046170553 0)
(0.47819337 -0.004657697 0)
(0.48203812 -0.0046353842 0)
(0.48583175 -0.0044645439 0)
(0.48939276 -0.0042435717 0)
(0.49266113 -0.0040849267 0)
(0.4959326 -0.0041570897 0)
(0.49956933 -0.0044356357 0)
(0.50362046 -0.0046541613 0)
(0.50761929 -0.0047105334 0)
(0.51131278 -0.0045569799 0)
(0.51480736 -0.0042271799 0)
(0.51813866 -0.003995667 0)
(0.52131963 -0.0040584094 0)
(0.52462044 -0.0042084409 0)
(0.52840198 -0.0043901379 0)
(0.53241573 -0.0046038525 0)
(0.53620965 -0.0046012814 0)
(0.53984115 -0.0042332573 0)
(0.54321758 -0.0039631836 0)
(0.54632696 -0.003989504 0)
(0.54955093 -0.0040089162 0)
(0.55295715 -0.0040498541 0)
(0.55642255 -0.0043808506 0)
(0.5601606 -0.0045961792 0)
(0.56404286 -0.0045236963 0)
(0.56775062 -0.0044199977 0)
(0.57134862 -0.0042538338 0)
(0.57471227 -0.0039602478 0)
(0.57780135 -0.0038143345 0)
(0.58099056 -0.0038608748 0)
(0.58432788 -0.0040046112 0)
(0.58767974 -0.0041392476 0)
(0.59119662 -0.0042483657 0)
(0.59485637 -0.0043573969 0)
(0.59849044 -0.0043446723 0)
(0.60199443 -0.0040819312 0)
(0.60528097 -0.0039203989 0)
(0.60845208 -0.0039217874 0)
(0.61165914 -0.0039443398 0)
(0.6150146 -0.003999488 0)
(0.61845509 -0.0041090319 0)
(0.62184918 -0.0041649517 0)
(0.62525909 -0.0041318059 0)
(0.62871099 -0.0039609045 0)
(0.63196254 -0.0037950196 0)
(0.63497569 -0.0037679838 0)
(0.63814773 -0.003863078 0)
(0.6415449 -0.0039163503 0)
(0.64505689 -0.0040580301 0)
(0.64849568 -0.0040804986 0)
(0.65181913 -0.0039177042 0)
(0.65487404 -0.0036511521 0)
(0.65788846 -0.0036380013 0)
(0.66092745 -0.0037165252 0)
(0.66402054 -0.0037334255 0)
(0.66705007 -0.0037818207 0)
(0.67036086 -0.0039106103 0)
(0.6737379 -0.0041030325 0)
(0.67715589 -0.003944381 0)
(0.68033884 -0.0040319553 0)
(0.68390754 -0.003823611 0)
(0.68720744 -0.0038741143 0)
(0.69034669 -0.0035594031 0)
(0.69322832 -0.0033904157 0)
(0.69599467 -0.0033567613 0)
(0.69895306 -0.0033454754 0)
(0.70159435 -0.0036820111 0)
(0.70496111 -0.0036194696 0)
(0.70801755 -0.0039951744 0)
(0.71145857 -0.0039124475 0)
(0.71478167 -0.0038340344 0)
(0.717792 -0.0036527622 0)
(0.72098639 -0.0034098879 0)
(0.72362006 -0.0034688223 0)
(0.72662657 -0.0031767294 0)
(0.72924457 -0.0035073527 0)
(0.73216386 -0.0033363647 0)
(0.73512162 -0.0038371963 0)
(0.73845551 -0.003842586 0)
(0.74187334 -0.0039844746 0)
(0.74534794 -0.0038540054 0)
(0.74859719 -0.0034382438 0)
(0.75147614 -0.0032600973 0)
(0.75401814 -0.0029155423 0)
(0.75661649 -0.0029260586 0)
(0.75903069 -0.0029513442 0)
(0.76165057 -0.00314051 0)
(0.76422708 -0.0032307858 0)
(0.76703013 -0.0034653606 0)
(0.77016377 -0.0035470513 0)
(0.77327047 -0.0034726087 0)
(0.77638292 -0.0032178532 0)
(0.77920896 -0.0027166396 0)
(0.7816275 -0.0025693145 0)
(0.78402297 -0.0024058669 0)
(0.7861901 -0.0022727623 0)
(0.78832897 -0.0023516984 0)
(0.79072884 -0.0023142721 0)
(0.79266398 -0.0021711678 0)
(0.79504102 -0.0020799474 0)
(0.79733936 -0.0016415674 0)
(0.79906992 -0.00096920968 0)
(0.80108252 -0.00067630268 0)
(0.80222019 0.00022839252 0)
(0.80335952 0.00083393666 0)
(0.80398327 0.0015625762 0)
(0.80410776 0.0025087003 0)
(0.80420703 0.0033783756 0)
(0.80271194 0.0046239349 0)
(0.80213669 0.0059985919 0)
(0.79877707 0.0074708238 0)
(0.79678661 0.0095710202 0)
(0.79092961 0.011303443 0)
(0.78704774 0.014477928 0)
(0.7775692 0.017220144 0)
(0.7709983 0.020722388 0)
(0.75852755 0.024968524 0)
(0.74450113 0.030689778 0)
(0.73076044 0.034935372 0)
(0.70799704 0.043192919 0)
(0.68786669 0.05037691 0)
(0.65975452 0.059228336 0)
(0.62706692 0.070772379 0)
(0.59096521 0.081931208 0)
(0.54472801 0.094848554 0)
(0.49489619 0.10874937 0)
(0.43407302 0.11955672 0)
(0.35949443 0.12532643 0)
(0.26119477 0.11229066 0)
(0.15321243 0.087277878 0)
(0.036752691 0.040127771 0)
(-0.049621367 -0.005475347 0)
(-0.11009442 0.0028421581 0)
(-0.12691623 0.055917676 0)
(-0.15565054 0.085827945 0)
(-0.23970758 0.10277455 0)
(-0.32541088 0.12420511 0)
(-0.39651514 0.11507368 0)
(-0.46644928 0.075691047 0)
(-0.49363194 0.026861647 0)
(-0.47865223 -0.053207038 0)
(-0.4256866 -0.12217029 0)
(-0.32927989 -0.1708698 0)
(-0.16045765 -0.18780779 0)
(-0.080269473 -0.22941885 0)
(-0.0013960654 0.002852168 0)
(-0.00094988034 -0.0038301158 0)
(0.0020469666 -0.0080130122 0)
(0.0060142609 -0.010315195 0)
(0.010844022 -0.011599908 0)
(0.015928928 -0.012292514 0)
(0.021243953 -0.012636003 0)
(0.02660819 -0.012766147 0)
(0.032021451 -0.012763851 0)
(0.037346653 -0.012709751 0)
(0.042811569 -0.012571952 0)
(0.047858076 -0.012545088 0)
(0.053503655 -0.012204851 0)
(0.058086008 -0.012497979 0)
(0.063927651 -0.011700851 0)
(0.068308479 -0.01252901 0)
(0.073823438 -0.011469609 0)
(0.078576497 -0.011975562 0)
(0.083554465 -0.012094958 0)
(0.088517148 -0.011176416 0)
(0.093370996 -0.012011512 0)
(0.09831089 -0.011652969 0)
(0.10310246 -0.011675944 0)
(0.10791725 -0.011391901 0)
(0.11294623 -0.011600036 0)
(0.1175431 -0.012045401 0)
(0.12261366 -0.011333181 0)
(0.12718296 -0.011454516 0)
(0.13220298 -0.011498434 0)
(0.1370229 -0.012067772 0)
(0.1417859 -0.011645338 0)
(0.14666461 -0.01124426 0)
(0.15118528 -0.011411435 0)
(0.15644899 -0.011777838 0)
(0.16115738 -0.011933467 0)
(0.16565459 -0.011449545 0)
(0.17062233 -0.011553687 0)
(0.17553177 -0.011000902 0)
(0.18001806 -0.011376528 0)
(0.18487356 -0.012113872 0)
(0.18992011 -0.011745365 0)
(0.19440109 -0.011107995 0)
(0.19887635 -0.010811774 0)
(0.2037326 -0.0110292 0)
(0.20843126 -0.011517142 0)
(0.21313426 -0.011987259 0)
(0.21801717 -0.01139621 0)
(0.22258106 -0.010258231 0)
(0.22646004 -0.01049656 0)
(0.23104018 -0.011532862 0)
(0.23639787 -0.011384148 0)
(0.241116 -0.01051427 0)
(0.24501466 -0.010602261 0)
(0.24918687 -0.011167555 0)
(0.25395332 -0.011117645 0)
(0.25865117 -0.010288559 0)
(0.26281868 -0.0098502681 0)
(0.26705861 -0.010461469 0)
(0.27164235 -0.011030752 0)
(0.27619315 -0.010975638 0)
(0.28055256 -0.010248594 0)
(0.28445025 -0.0098452884 0)
(0.28839421 -0.010241651 0)
(0.29308927 -0.010569282 0)
(0.29776844 -0.0099776152 0)
(0.30169761 -0.0094789952 0)
(0.30559581 -0.0097458155 0)
(0.30970545 -0.010674509 0)
(0.31418225 -0.011239731 0)
(0.31893232 -0.010231633 0)
(0.32282976 -0.0087328583 0)
(0.32606176 -0.0084730236 0)
(0.3297729 -0.0096434815 0)
(0.33440873 -0.011004269 0)
(0.33950758 -0.010951353 0)
(0.34391187 -0.0095681474 0)
(0.34723165 -0.0085306122 0)
(0.35033868 -0.0089866133 0)
(0.35416303 -0.010169957 0)
(0.35887162 -0.010633269 0)
(0.36362364 -0.0097597488 0)
(0.36752017 -0.0088471891 0)
(0.37108027 -0.0086692757 0)
(0.37470461 -0.0090649085 0)
(0.37846337 -0.0099994372 0)
(0.3829035 -0.0103175 0)
(0.38733191 -0.0097177954 0)
(0.39105844 -0.0092001087 0)
(0.3946417 -0.0089180401 0)
(0.3983826 -0.0089541417 0)
(0.4022493 -0.0091755695 0)
(0.40627584 -0.0092956793 0)
(0.41033472 -0.0092735336 0)
(0.41423945 -0.009342192 0)
(0.41811566 -0.0093160572 0)
(0.42199635 -0.0090758496 0)
(0.42562153 -0.0090967907 0)
(0.42932378 -0.0094224527 0)
(0.43338513 -0.0095609123 0)
(0.43748929 -0.0092447771 0)
(0.44132035 -0.0085129754 0)
(0.44480037 -0.0080589717 0)
(0.44807286 -0.0085053369 0)
(0.45180495 -0.009567109 0)
(0.4562378 -0.010022465 0)
(0.46051165 -0.0095827206 0)
(0.46420861 -0.0087482455 0)
(0.46767002 -0.008141798 0)
(0.47103806 -0.0082206536 0)
(0.47460514 -0.0088481612 0)
(0.47855591 -0.0092478817 0)
(0.48244115 -0.0092474463 0)
(0.48615797 -0.0091195326 0)
(0.49000869 -0.0087635192 0)
(0.49371879 -0.0083118174 0)
(0.49708503 -0.0079868189 0)
(0.50044073 -0.0083191581 0)
(0.50425287 -0.0091067233 0)
(0.50841051 -0.0094733223 0)
(0.51235923 -0.0091998641 0)
(0.51600114 -0.0086371358 0)
(0.51943875 -0.0080525887 0)
(0.52267202 -0.0078604043 0)
(0.52595043 -0.0079859692 0)
(0.52939055 -0.0083903479 0)
(0.5331412 -0.0090885651 0)
(0.53724233 -0.0093727389 0)
(0.54123353 -0.0088709156 0)
(0.54484682 -0.0081954299 0)
(0.54810188 -0.007837895 0)
(0.55137104 -0.0077981892 0)
(0.55484251 -0.007823742 0)
(0.55820644 -0.0081169019 0)
(0.56164892 -0.0086818335 0)
(0.56551387 -0.0089689867 0)
(0.56935966 -0.0088163715 0)
(0.57292653 -0.0086323883 0)
(0.57655153 -0.0082319607 0)
(0.58003253 -0.0077094377 0)
(0.58316176 -0.0075146916 0)
(0.58639359 -0.0077603162 0)
(0.58987982 -0.0079735481 0)
(0.59325458 -0.0081595429 0)
(0.59661248 -0.0083926053 0)
(0.60028713 -0.0086401327 0)
(0.60423552 -0.0084441946 0)
(0.60788651 -0.0079067088 0)
(0.61114624 -0.0076521465 0)
(0.61450456 -0.0077007772 0)
(0.61785192 -0.0077153979 0)
(0.6210423 -0.0078635428 0)
(0.62429235 -0.0080376375 0)
(0.6276121 -0.0080822583 0)
(0.6310127 -0.0080039538 0)
(0.63455655 -0.0077488203 0)
(0.63796228 -0.0074806747 0)
(0.64108188 -0.0074327712 0)
(0.64441852 -0.0076517501 0)
(0.6479129 -0.0079594418 0)
(0.65145159 -0.008159409 0)
(0.6548793 -0.007917766 0)
(0.65832615 -0.0074335617 0)
(0.66129734 -0.0071261222 0)
(0.66435888 -0.007156647 0)
(0.66739095 -0.0072722299 0)
(0.67073855 -0.0071695426 0)
(0.67364607 -0.0074895579 0)
(0.67716406 -0.0077191265 0)
(0.68055342 -0.0080102801 0)
(0.68406178 -0.0075457472 0)
(0.68698728 -0.0078735421 0)
(0.6905146 -0.0076892989 0)
(0.69390123 -0.0076000857 0)
(0.69714162 -0.0069728416 0)
(0.70023076 -0.0066762866 0)
(0.70301589 -0.0067307167 0)
(0.70623815 -0.0066096631 0)
(0.70894251 -0.0071930228 0)
(0.71239335 -0.0072679258 0)
(0.71529546 -0.0077336142 0)
(0.71861445 -0.0075880321 0)
(0.72214965 -0.007486386 0)
(0.72491327 -0.0070447128 0)
(0.72845896 -0.0068414221 0)
(0.73090898 -0.0066780572 0)
(0.73440487 -0.0064906781 0)
(0.73681139 -0.00666327 0)
(0.7399926 -0.0066164684 0)
(0.74273331 -0.0074778387 0)
(0.74625083 -0.0075219972 0)
(0.74949412 -0.0078458121 0)
(0.75302873 -0.0075416136 0)
(0.75644025 -0.006994162 0)
(0.75945855 -0.0063478805 0)
(0.76238837 -0.0059483605 0)
(0.76490921 -0.0058816805 0)
(0.767425 -0.0059895097 0)
(0.7700305 -0.0060454716 0)
(0.77229533 -0.0063115262 0)
(0.77521485 -0.0067517374 0)
(0.77818005 -0.0071032652 0)
(0.7810581 -0.0070100497 0)
(0.78480024 -0.0065645406 0)
(0.78746293 -0.0059303826 0)
(0.79032936 -0.0053984206 0)
(0.79311695 -0.0052459196 0)
(0.79511144 -0.0048869498 0)
(0.79788745 -0.0051159585 0)
(0.79984811 -0.0049135029 0)
(0.80209615 -0.0046085722 0)
(0.80453605 -0.0048587654 0)
(0.80680862 -0.0040245054 0)
(0.80886748 -0.0033803306 0)
(0.81097552 -0.0028564238 0)
(0.81219268 -0.0016512916 0)
(0.81383857 -0.0010930617 0)
(0.81475109 0.00017765707 0)
(0.8155082 0.0012343526 0)
(0.81526855 0.0024773624 0)
(0.8155573 0.00456185 0)
(0.81442835 0.0059471069 0)
(0.81349535 0.0090792045 0)
(0.81109913 0.011395643 0)
(0.80883561 0.014511865 0)
(0.80380635 0.019649464 0)
(0.79988568 0.022918855 0)
(0.79271564 0.02807004 0)
(0.78392777 0.036998563 0)
(0.77561969 0.040610223 0)
(0.7624429 0.051836671 0)
(0.74754261 0.061069823 0)
(0.73308998 0.070415427 0)
(0.71270311 0.085280486 0)
(0.69098092 0.099268957 0)
(0.66945059 0.11546476 0)
(0.63741421 0.13499495 0)
(0.61005295 0.15284942 0)
(0.57294185 0.17348387 0)
(0.53077728 0.19242683 0)
(0.48479413 0.20562008 0)
(0.41428552 0.2099656 0)
(0.32206053 0.19941237 0)
(0.19366698 0.15441182 0)
(0.044247262 0.090858573 0)
(-0.051176545 0.077233406 0)
(-0.094293136 0.1628313 0)
(-0.13594181 0.21045808 0)
(-0.2260949 0.18634824 0)
(-0.29660024 0.16437011 0)
(-0.3586737 0.12174171 0)
(-0.37677773 0.021340019 0)
(-0.38468482 -0.088134208 0)
(-0.35384335 -0.1999041 0)
(-0.29108153 -0.31391726 0)
(-0.16572416 -0.3381225 0)
(-0.051091623 -0.35101264 0)
(-0.0013721834 0.0039800754 0)
(-0.00089938877 -0.0055645292 0)
(0.0021114544 -0.011504316 0)
(0.0061304861 -0.014779728 0)
(0.011012964 -0.016596992 0)
(0.016146291 -0.017572413 0)
(0.021502453 -0.018049704 0)
(0.026906685 -0.018232732 0)
(0.032345373 -0.018222141 0)
(0.037712848 -0.01812756 0)
(0.043136839 -0.017894808 0)
(0.04829269 -0.017808602 0)
(0.053755145 -0.017336825 0)
(0.05859277 -0.017531223 0)
(0.064078771 -0.0166997 0)
(0.068762002 -0.017295305 0)
(0.07403005 -0.016318859 0)
(0.078817295 -0.01669935 0)
(0.083877332 -0.01662008 0)
(0.088537512 -0.015799661 0)
(0.093684877 -0.016744047 0)
(0.098374107 -0.015871109 0)
(0.10325252 -0.016255025 0)
(0.10785346 -0.015816214 0)
(0.11327583 -0.016231914 0)
(0.11747446 -0.016121184 0)
(0.12260305 -0.015747163 0)
(0.12711648 -0.015886636 0)
(0.13241945 -0.016145738 0)
(0.13712422 -0.016041979 0)
(0.14150035 -0.01583901 0)
(0.14652537 -0.015696865 0)
(0.15136808 -0.015887548 0)
(0.15660769 -0.016200238 0)
(0.16102688 -0.015730038 0)
(0.16527534 -0.015587436 0)
(0.17061038 -0.016127226 0)
(0.17563214 -0.015281735 0)
(0.18007625 -0.015526997 0)
(0.18485064 -0.01622673 0)
(0.18968128 -0.015760211 0)
(0.19405023 -0.014985231 0)
(0.19863729 -0.015284352 0)
(0.20411406 -0.01531657 0)
(0.20871977 -0.015331638 0)
(0.21266516 -0.016037543 0)
(0.21736646 -0.015415927 0)
(0.22256736 -0.013977936 0)
(0.22663902 -0.014274568 0)
(0.2309865 -0.015786511 0)
(0.23607888 -0.015821412 0)
(0.24100884 -0.014379805 0)
(0.24511824 -0.013839915 0)
(0.2488284 -0.01457075 0)
(0.25329943 -0.01525647 0)
(0.25838677 -0.014428524 0)
(0.26301138 -0.013623051 0)
(0.26731606 -0.014196006 0)
(0.27146064 -0.014773013 0)
(0.27551634 -0.014552804 0)
(0.27996197 -0.013718583 0)
(0.28430683 -0.013185266 0)
(0.28847229 -0.013843847 0)
(0.29286987 -0.014647883 0)
(0.29722629 -0.013925296 0)
(0.30139852 -0.012847953 0)
(0.30570871 -0.012931957 0)
(0.30972439 -0.014130748 0)
(0.31369558 -0.014871309 0)
(0.31797968 -0.013794066 0)
(0.32205301 -0.012071468 0)
(0.32609088 -0.011555396 0)
(0.33013011 -0.012995939 0)
(0.33428685 -0.015112446 0)
(0.33886947 -0.015066742 0)
(0.34324307 -0.012771461 0)
(0.34694679 -0.011082586 0)
(0.3502263 -0.011673903 0)
(0.35369833 -0.013554762 0)
(0.35806214 -0.014596689 0)
(0.36281833 -0.013704013 0)
(0.36719617 -0.012308348 0)
(0.3713994 -0.011526948 0)
(0.37489191 -0.011965136 0)
(0.37795946 -0.013339717 0)
(0.38203718 -0.013888397 0)
(0.38644947 -0.013214242 0)
(0.39040713 -0.012306054 0)
(0.3942481 -0.011780264 0)
(0.39806439 -0.012149626 0)
(0.40191173 -0.012649293 0)
(0.40601114 -0.012687548 0)
(0.41004031 -0.012583055 0)
(0.41378125 -0.012710556 0)
(0.4175857 -0.012529585 0)
(0.42151542 -0.012141485 0)
(0.42516067 -0.012102578 0)
(0.42870126 -0.012533597 0)
(0.43260651 -0.01296254 0)
(0.43679439 -0.012728813 0)
(0.44081983 -0.011626755 0)
(0.44453443 -0.010961937 0)
(0.44806352 -0.01148501 0)
(0.4517829 -0.012807903 0)
(0.45573427 -0.013514795 0)
(0.45950945 -0.013142073 0)
(0.46333043 -0.011866883 0)
(0.46712303 -0.010955788 0)
(0.47059926 -0.011202292 0)
(0.47439663 -0.012082019 0)
(0.4784211 -0.012351288 0)
(0.48192035 -0.012353242 0)
(0.48539812 -0.01228308 0)
(0.48919538 -0.012041644 0)
(0.49304515 -0.011415312 0)
(0.49669323 -0.010901838 0)
(0.50026097 -0.011342457 0)
(0.50422729 -0.012455214 0)
(0.50828266 -0.012888537 -3.79905e-36)
(0.51179819 -0.01246704 -2.1585151e-31)
(0.51509619 -0.011554679 0)
(0.51849989 -0.010922382 0)
(0.52194014 -0.01076741 0)
(0.52550427 -0.010790018 0)
(0.52921246 -0.011327957 0)
(0.5329943 -0.012467623 0)
(0.53690403 -0.012820839 0)
(0.5407332 -0.012068085 0)
(0.54426201 -0.011160472 -3.8637073e-36)
(0.54748861 -0.010776806 -2.1481882e-31)
(0.55090013 -0.010642356 -4.1773749e-36)
(0.55453235 -0.010730649 -2.2466928e-31)
(0.55790184 -0.011153065 0)
(0.56133044 -0.01177383 0)
(0.56511435 -0.012161222 0)
(0.56874095 -0.01206147 0)
(0.57219477 -0.011756618 0)
(0.57581218 -0.011277155 0)
(0.57943882 -0.010602405 -3.9989779e-36)
(0.58285918 -0.010327139 -2.2483373e-31)
(0.58626319 -0.010614801 0)
(0.58976293 -0.010837935 0)
(0.59310682 -0.010968145 0)
(0.59619564 -0.011401734 0)
(0.59948116 -0.012010207 0)
(0.60348085 -0.011860665 0)
(0.60736707 -0.011074162 0)
(0.61067574 -0.010682522 0)
(0.61423037 -0.010593398 0)
(0.61796844 -0.010442738 0)
(0.6210838 -0.010565623 -3.8656768e-36)
(0.62388228 -0.010766129 -2.1676107e-31)
(0.62689412 -0.010872678 0)
(0.63023741 -0.011027396 0)
(0.63374889 -0.010964683 0)
(0.63731221 -0.010455859 0)
(0.64084799 -0.010217445 0)
(0.64450529 -0.010604698 0)
(0.64784843 -0.011086911 0)
(0.65137273 -0.011215027 0)
(0.65464113 -0.010829627 4.2876626e-36)
(0.65792729 -0.010238959 2.2172726e-31)
(0.66058072 -0.0098372455 0)
(0.66393621 -0.0098868386 0)
(0.66689392 -0.0099621221 4.1382908e-36)
(0.67035533 -0.0099055983 2.1795701e-31)
(0.6732364 -0.010349418 0)
(0.67712883 -0.010881689 0)
(0.6806467 -0.010924095 0)
(0.6839285 -0.010310834 0)
(0.68677739 -0.01063501 4.0125937e-36)
(0.69001199 -0.010687071 2.2666319e-31)
(0.69340253 -0.010559925 0)
(0.69626192 -0.0098127787 0)
(0.69974635 -0.009367942 0)
(0.70269027 -0.009354612 0)
(0.70614514 -0.0092588596 0)
(0.70893184 -0.0097876343 0)
(0.71272113 -0.009990229 0)
(0.71530163 -0.010386153 0)
(0.71855899 -0.010573784 0)
(0.72142409 -0.010229531 0)
(0.7247411 -0.0098885807 0)
(0.72773599 -0.009627151 0)
(0.73057195 -0.0091722572 0)
(0.73417639 -0.0092350665 0)
(0.73673185 -0.008994691 0)
(0.74005656 -0.0093163811 0)
(0.74291682 -0.01010769 0)
(0.74603801 -0.010554193 0)
(0.74955893 -0.010856389 0)
(0.75221272 -0.010722694 0)
(0.75593724 -0.0099486131 0)
(0.75898458 -0.0091656437 0)
(0.76232854 -0.0082969348 0)
(0.76472576 -0.0081009751 0)
(0.767992 -0.0079911301 0)
(0.76999403 -0.0080447816 0)
(0.77262124 -0.0083291495 0)
(0.77536073 -0.00937805 0)
(0.77799987 -0.0094088538 0)
(0.78096098 -0.010186915 0)
(0.78413932 -0.0094487318 0)
(0.78680492 -0.0085387509 0)
(0.79054913 -0.0080625602 0)
(0.79301256 -0.0073938983 0)
(0.79554977 -0.0068856118 0)
(0.79827251 -0.0071029895 0)
(0.80047786 -0.0066738479 0)
(0.80244925 -0.0068028545 0)
(0.805469 -0.0067534556 0)
(0.80699119 -0.0060994981 0)
(0.80956603 -0.0049420342 4.2411698e-36)
(0.81132703 -0.0040374397 3.200038e-31)
(0.81244935 -0.0024981085 0)
(0.81477443 -0.0016352063 0)
(0.81522901 6.1351037e-05 0)
(0.81679035 0.0019365966 0)
(0.81687925 0.0037521574 0)
(0.81732293 0.0055840036 0)
(0.81726475 0.008402458 0)
(0.81563274 0.011063534 0)
(0.81565631 0.014882134 0)
(0.81204123 0.018644613 0)
(0.81030678 0.024444258 0)
(0.80593706 0.028583978 0)
(0.79976135 0.03748032 0)
(0.79382919 0.043118409 0)
(0.78579259 0.053079294 0)
(0.77399191 0.064596162 0)
(0.76320526 0.074216236 1.0296869e-34)
(0.74944737 0.087797601 6.2546759e-30)
(0.73081378 0.10378444 0)
(0.71760841 0.11727429 0)
(0.69390369 0.13876986 0)
(0.67753587 0.15780574 0)
(0.65016865 0.17843866 0)
(0.62692589 0.20237399 0)
(0.59676338 0.22004993 0)
(0.56868868 0.23837221 0)
(0.52536798 0.25491599 0)
(0.48003448 0.26358176 0)
(0.40729704 0.26451098 0)
(0.30758154 0.24857232 0)
(0.15981409 0.199408 -6.9086641e-35)