/*--------------------------------*- C++ -*----------------------------------*\
| =========                 |                                                 |
| \\      /  F ield         | OpenFOAM: The Open Source CFD Toolbox           |
|  \\    /   O peration     | Version:  2106                                  |
|   \\  /    A nd           | Website:  www.openfoam.com                      |
|    \\/     M anipulation  |                                                 |
\*---------------------------------------------------------------------------*/
FoamFile
{
    version     2.0;
    format      ascii;
    arch        "LSB;label=32;scalar=64";
    class       surfaceScalarField;
    location    "0.031";
    object      phi_0;
}
// * * * * * * * * * * * * * * * * * * * * * * * * * * * * * * * * * * * * * //

dimensions      [0 3 -1 0 0 0 0];

oriented        oriented;

internalField   nonuniform List<scalar> 
130560
(
5.7497234e-06
-5.7497234e-06
1.149575e-05
-5.7460264e-06
1.7234385e-05
-5.7386352e-06
2.296194e-05
-5.7275554e-06
2.8674736e-05
-5.7127953e-06
3.4369102e-05
-5.694366e-06
4.0041383e-05
-5.6722814e-06
4.5687941e-05
-5.6465581e-06
5.1305157e-05
-5.6172155e-06
5.6889432e-05
-5.5842755e-06
6.2437195e-05
-5.5477629e-06
6.79449e-05
-5.507705e-06
7.3409032e-05
-5.4641318e-06
7.8826108e-05
-5.4170759e-06
8.419268e-05
-5.3665725e-06
8.9505339e-05
-5.312659e-06
9.4760715e-05
-5.2553758e-06
9.995548e-05
-5.1947653e-06
0.00010508635
-5.1308724e-06
0.0001101501
-5.0637445e-06
0.00011514353
-4.9934312e-06
0.00012006351
-4.9199841e-06
0.00012490697
-4.8434575e-06
0.00012967088
-4.7639073e-06
0.00013435227
-4.6813918e-06
0.00013894824
-4.5959713e-06
0.00014345595
-4.5077078e-06
0.00014787261
-4.4166655e-06
0.00015219552
-4.3229102e-06
0.00015642203
-4.2265097e-06
0.00016054957
-4.1275332e-06
0.00016457562
-4.0260516e-06
0.00016849776
-3.9221376e-06
0.00017231362
-3.8158651e-06
0.00017602093
-3.7073095e-06
0.00017961748
-3.5965476e-06
0.00018310114
-3.4836574e-06
0.00018646985
-3.3687181e-06
0.00018972166
-3.25181e-06
0.00019285468
-3.1330145e-06
0.00019586709
-3.0124139e-06
0.00019875718
-2.8900915e-06
0.00020152332
-2.7661314e-06
0.00020416393
-2.6406183e-06
0.00020667757
-2.5136376e-06
0.00020906285
-2.3852756e-06
0.00021131847
-2.2556187e-06
0.00021344322
-2.124754e-06
0.00021543599
-1.9927689e-06
0.00021729574
-1.859751e-06
0.00021902153
-1.7257885e-06
0.0002206125
-1.5909693e-06
0.00022206788
-1.4553816e-06
0.00022338699
-1.3191136e-06
0.00022456925
-1.1822535e-06
0.00022561413
-1.0448893e-06
0.00022652124
-9.0710881e-07
0.00022729024
-7.6899968e-07
0.00022792089
-6.3064917e-07
0.00022841304
-4.9214418e-07
0.00022876661
-3.5357115e-07
0.00022898162
-2.1501606e-07
0.00022905819
-7.6564408e-08
0.00022899649
6.169876e-08
0.0002287968
1.9968948e-07
0.00022845947
3.3732608e-07
0.00022798495
4.745234e-07
0.00022737375
6.1120053e-07
0.00022662647
7.4727664e-07
0.0002257438
8.8267169e-07
0.0002247265
1.0173066e-06
0.00022357539
1.1511034e-06
0.00022229141
1.283985e-06
0.00022087553
1.4158755e-06
0.00021932883
1.5467002e-06
0.00021765245
1.6763854e-06
0.00021584759
1.8048586e-06
0.00021391554
1.9320486e-06
0.00021185765
2.0578855e-06
0.00020967535
2.1823005e-06
0.00020737013
2.3052264e-06
0.00020494353
2.426597e-06
0.00020239718
2.5463476e-06
0.00019973277
2.6644148e-06
0.00019695203
2.7807369e-06
0.00019405678
2.895253e-06
0.00019104887
3.0079043e-06
0.00018793024
3.1186329e-06
0.00018470286
3.2273826e-06
0.00018136876
3.3340986e-06
0.00017793003
3.4387275e-06
0.00017438881
3.5412175e-06
0.0001707473
3.6415181e-06
0.00016700771
3.7395804e-06
0.00016317236
3.835357e-06
0.00015924356
3.9288018e-06
0.00015522369
4.0198703e-06
0.00015111517
4.1085195e-06
0.00014692046
4.1947077e-06
0.00014264206
4.2783949e-06
0.00013828252
4.3595425e-06
0.00013384441
4.4381131e-06
0.00012933034
4.514071e-06
0.00012474296
4.5873819e-06
0.00012008494
4.658013e-06
0.00011535901
4.7259327e-06
0.0001105679
4.791111e-06
0.00010571438
4.8535193e-06
0.00010080125
4.9131302e-06
9.5831331e-05
4.9699179e-06
9.0807473e-05
5.0238579e-06
8.5732546e-05
5.0749271e-06
8.0609442e-05
5.1231036e-06
7.5441075e-05
5.1683671e-06
7.0230377e-05
5.2106984e-06
6.4980297e-05
5.2500797e-06
5.9693802e-05
5.2864945e-06
5.4373875e-05
5.3199277e-06
4.9023509e-05
5.3503655e-06
4.3645714e-05
5.3777951e-06
3.8243509e-05
5.4022054e-06
3.2819923e-05
5.4235862e-06
2.7377994e-05
5.4419289e-06
2.1920768e-05
5.4572259e-06
1.6451297e-05
5.469471e-06
1.0972638e-05
5.4786591e-06
5.487851e-06
5.4847866e-06
-2.7735564e-15
5.487851e-06
-5.487851e-06
5.487851e-06
-1.0972638e-05
5.4847866e-06
-1.6451297e-05
5.4786591e-06
-2.1920768e-05
5.469471e-06
-2.7377994e-05
5.4572259e-06
-3.2819923e-05
5.4419289e-06
-3.8243509e-05
5.4235862e-06
-4.3645714e-05
5.4022054e-06
-4.9023509e-05
5.3777951e-06
-5.4373875e-05
5.3503655e-06
-5.9693802e-05
5.3199277e-06
-6.4980297e-05
5.2864945e-06
-7.0230377e-05
5.2500797e-06
-7.5441075e-05
5.2106984e-06
-8.0609442e-05
5.1683671e-06
-8.5732546e-05
5.1231036e-06
-9.0807473e-05
5.0749271e-06
-9.5831331e-05
5.0238579e-06
-0.00010080125
4.9699179e-06
-0.00010571438
4.9131302e-06
-0.0001105679
4.8535193e-06
-0.00011535901
4.791111e-06
-0.00012008494
4.7259327e-06
-0.00012474296
4.658013e-06
-0.00012933034
4.5873819e-06
-0.00013384441
4.514071e-06
-0.00013828252
4.4381131e-06
-0.00014264206
4.3595425e-06
-0.00014692046
4.2783949e-06
-0.00015111517
4.1947077e-06
-0.00015522369
4.1085195e-06
-0.00015924356
4.0198703e-06
-0.00016317236
3.9288018e-06
-0.00016700771
3.835357e-06
-0.0001707473
3.7395804e-06
-0.00017438881
3.6415181e-06
-0.00017793003
3.5412175e-06
-0.00018136876
3.4387275e-06
-0.00018470286
3.3340986e-06
-0.00018793024
3.2273826e-06
-0.00019104887
3.1186329e-06
-0.00019405678
3.0079043e-06
-0.00019695203
2.895253e-06
-0.00019973277
2.7807369e-06
-0.00020239718
2.6644148e-06
-0.00020494353
2.5463476e-06
-0.00020737013
2.426597e-06
-0.00020967535
2.3052264e-06
-0.00021185765
2.1823005e-06
-0.00021391554
2.0578855e-06
-0.00021584759
1.9320486e-06
-0.00021765245
1.8048586e-06
-0.00021932883
1.6763854e-06
-0.00022087553
1.5467002e-06
-0.00022229141
1.4158755e-06
-0.00022357539
1.283985e-06
-0.0002247265
1.1511034e-06
-0.0002257438
1.0173066e-06
-0.00022662647
8.8267169e-07
-0.00022737375
7.4727664e-07
-0.00022798495
6.1120053e-07
-0.00022845947
4.745234e-07
-0.0002287968
3.3732608e-07
-0.00022899649
1.9968948e-07
-0.00022905819
6.169876e-08
-0.00022898162
-7.6564408e-08
-0.00022876661
-2.1501606e-07
-0.00022841304
-3.5357115e-07
-0.00022792089
-4.9214418e-07
-0.00022729024
-6.3064917e-07
-0.00022652124
-7.6899968e-07
-0.00022561413
-9.0710881e-07
-0.00022456925
-1.0448893e-06
-0.00022338699
-1.1822535e-06
-0.00022206788
-1.3191136e-06
-0.0002206125
-1.4553816e-06
-0.00021902153
-1.5909693e-06
-0.00021729574
-1.7257885e-06
-0.00021543599
-1.859751e-06
-0.00021344322
-1.9927689e-06
-0.00021131847
-2.124754e-06
-0.00020906285
-2.2556187e-06
-0.00020667757
-2.3852756e-06
-0.00020416393
-2.5136376e-06
-0.00020152332
-2.6406183e-06
-0.00019875718
-2.7661314e-06
-0.00019586709
-2.8900915e-06
-0.00019285468
-3.0124139e-06
-0.00018972166
-3.1330145e-06
-0.00018646985
-3.25181e-06
-0.00018310114
-3.3687181e-06
-0.00017961748
-3.4836574e-06
-0.00017602093
-3.5965476e-06
-0.00017231362
-3.7073095e-06
-0.00016849776
-3.8158651e-06
-0.00016457562
-3.9221376e-06
-0.00016054957
-4.0260516e-06
-0.00015642203
-4.1275332e-06
-0.00015219552
-4.2265097e-06
-0.00014787261
-4.3229102e-06
-0.00014345595
-4.4166655e-06
-0.00013894824
-4.5077078e-06
-0.00013435227
-4.5959713e-06
-0.00012967088
-4.6813918e-06
-0.00012490697
-4.7639073e-06
-0.00012006351
-4.8434575e-06
-0.00011514353
-4.9199841e-06
-0.0001101501
-4.9934312e-06
-0.00010508635
-5.0637445e-06
-9.995548e-05
-5.1308724e-06
-9.4760715e-05
-5.1947653e-06
-8.9505339e-05
-5.2553758e-06
-8.419268e-05
-5.3126591e-06
-7.8826108e-05
-5.3665725e-06
-7.3409032e-05
-5.4170759e-06
-6.79449e-05
-5.4641318e-06
-6.2437195e-05
-5.507705e-06
-5.6889432e-05
-5.5477629e-06
-5.1305157e-05
-5.5842755e-06
-4.5687941e-05
-5.6172155e-06
-4.0041383e-05
-5.6465581e-06
-3.4369102e-05
-5.6722814e-06
-2.8674736e-05
-5.694366e-06
-2.296194e-05
-5.7127953e-06
-1.7234385e-05
-5.7275554e-06
-1.149575e-05
-5.7386352e-06
-5.7497234e-06
-5.7460264e-06
-5.7497234e-06
5.7561287e-06
-1.1505852e-05
1.1508556e-05
-1.1498454e-05
1.7253584e-05
-1.1483663e-05
2.2987519e-05
-1.1461491e-05
2.8706677e-05
-1.1431953e-05
3.4407385e-05
-1.1395074e-05
4.0085983e-05
-1.1350879e-05
4.5738828e-05
-1.1299403e-05
5.1362296e-05
-1.1240684e-05
5.6952787e-05
-1.1174766e-05
6.2506723e-05
-1.1101699e-05
6.8020555e-05
-1.1021537e-05
7.3490764e-05
-1.0934341e-05
7.8913863e-05
-1.0840175e-05
8.4286401e-05
-1.073911e-05
8.9604963e-05
-1.0631221e-05
9.4866177e-05
-1.0516589e-05
0.00010006671
-1.0395299e-05
0.00010520328
-1.026744e-05
0.00011027264
-1.0133107e-05
0.00011527161
-9.9923999e-06
0.00012019705
-9.8454219e-06
0.00012504587
-9.692281e-06
0.00012981505
-9.5330898e-06
0.00013450163
-9.3679646e-06
0.00013910268
-9.197026e-06
0.00014361537
-9.0203984e-06
0.00014803692
-8.83821e-06
0.0001523646
-8.6505926e-06
0.00015659577
-8.4576818e-06
0.00016072785
-8.2596161e-06
0.00016475834
-8.0565377e-06
0.00016868479
-7.8485916e-06
0.00017250485
-7.635926e-06
0.00017621624
-7.4186916e-06
0.00017981673
-7.1970423e-06
0.00018330421
-6.971134e-06
0.00018667661
-6.7411252e-06
0.00018993198
-6.5071768e-06
0.00019306842
-6.2694516e-06
0.00019608412
-6.0281143e-06
0.00019897736
-5.7833316e-06
0.0002017465
-5.5352716e-06
0.00020438998
-5.284104e-06
0.00020690635
-5.0299999e-06
0.0002092942
-4.7731315e-06
0.00021155226
-4.5136721e-06
0.0002136793
-4.2517958e-06
0.00021567421
-3.9876776e-06
0.00021753595
-3.7214931e-06
0.00021926358
-3.4534181e-06
0.00022085624
-3.1836289e-06
0.00022231316
-2.9123021e-06
0.00022363366
-2.6396142e-06
0.00022481715
-2.3657415e-06
0.00022586312
-2.0908602e-06
0.00022677116
-1.815146e-06
0.00022754093
-1.5387743e-06
0.0002281722
-1.2619198e-06
0.00022866481
-9.8475631e-07
0.0002290187
-7.0745686e-07
0.00022923388
-4.3019351e-07
0.00022931045
-1.5313727e-07
0.00022924861
1.2354205e-07
0.00022904862
3.9967649e-07
0.00022871084
6.750998e-07
0.00022823572
9.4964544e-07
0.00022762377
1.22315e-06
0.0002268756
1.4954515e-06
0.00022599188
1.76639e-06
0.00022497338
2.0358072e-06
0.00022382094
2.303547e-06
0.00022253547
2.5694553e-06
0.00022111796
2.8333802e-06
0.00021956949
3.095172e-06
0.00021789119
3.3546833e-06
0.00021608428
3.6117693e-06
0.00021415004
3.8662873e-06
0.00021208983
4.1180975e-06
0.00020990507
4.3670622e-06
0.00020759725
4.6130467e-06
0.00020516793
4.8559188e-06
0.00020261872
5.095549e-06
0.00019995133
5.3318107e-06
0.00019716749
5.5645797e-06
0.000194269
5.7937349e-06
0.00019125775
6.0191582e-06
0.00018813565
6.2407339e-06
0.00018490468
6.4583495e-06
0.00018156689
6.6718953e-06
0.00017812435
6.8812647e-06
0.00017457921
7.0863538e-06
0.00017093367
7.2870617e-06
0.00016718996
7.4832904e-06
0.00016335037
7.6749451e-06
0.00015941724
7.8619336e-06
0.00015539294
8.0441669e-06
0.0001512799
8.2215588e-06
0.00014708058
8.3940262e-06
0.00014279749
8.5614888e-06
0.00013843316
8.7238691e-06
0.00013399018
8.8810929e-06
0.00012947117
9.0330885e-06
0.00012487876
9.1797872e-06
0.00012021565
9.3211233e-06
0.00011548455
9.4570337e-06
0.0001106882
9.5874584e-06
0.00010582938
9.71234e-06
0.00010091089
9.831624e-06
9.5935547e-05
9.9452585e-06
9.090621e-05
1.0053195e-05
8.5825751e-05
1.0155386e-05
8.0697066e-05
1.0251789e-05
7.552307e-05
1.0342363e-05
7.0306699e-05
1.042707e-05
6.5050906e-05
1.0505873e-05
5.975866e-05
1.057874e-05
5.4432946e-05
1.0645641e-05
4.9076763e-05
1.0706548e-05
4.3693123e-05
1.0761436e-05
3.8285046e-05
1.0810282e-05
3.2855567e-05
1.0853065e-05
2.7407727e-05
1.088977e-05
2.1944573e-05
1.0920379e-05
1.6469162e-05
1.0944882e-05
1.0984553e-05
1.0963268e-05
5.4938103e-06
1.0975529e-05
-2.7808174e-15
1.0981661e-05
-5.4938103e-06
1.0981661e-05
-1.0984553e-05
1.0975529e-05
-1.6469162e-05
1.0963268e-05
-2.1944573e-05
1.0944882e-05
-2.7407727e-05
1.0920379e-05
-3.2855567e-05
1.088977e-05
-3.8285047e-05
1.0853065e-05
-4.3693123e-05
1.0810282e-05
-4.9076763e-05
1.0761436e-05
-5.4432946e-05
1.0706548e-05
-5.975866e-05
1.0645641e-05
-6.5050906e-05
1.057874e-05
-7.0306699e-05
1.0505873e-05
-7.552307e-05
1.042707e-05
-8.0697066e-05
1.0342363e-05
-8.5825751e-05
1.0251789e-05
-9.090621e-05
1.0155386e-05
-9.5935547e-05
1.0053195e-05
-0.00010091089
9.9452585e-06
-0.00010582938
9.831624e-06
-0.0001106882
9.71234e-06
-0.00011548455
9.5874584e-06
-0.00012021565
9.4570337e-06
-0.00012487876
9.3211233e-06
-0.00012947117
9.1797872e-06
-0.00013399018
9.0330885e-06
-0.00013843316
8.8810929e-06
-0.00014279749
8.7238691e-06
-0.00014708058
8.5614888e-06
-0.0001512799
8.3940262e-06
-0.00015539294
8.2215588e-06
-0.00015941724
8.0441669e-06
-0.00016335037
7.8619336e-06
-0.00016718996
7.6749451e-06
-0.00017093367
7.4832904e-06
-0.00017457921
7.2870617e-06
-0.00017812435
7.0863538e-06
-0.00018156689
6.8812647e-06
-0.00018490468
6.6718953e-06
-0.00018813565
6.4583495e-06
-0.00019125775
6.2407339e-06
-0.000194269
6.0191582e-06
-0.00019716749
5.7937349e-06
-0.00019995133
5.5645797e-06
-0.00020261872
5.3318107e-06
-0.00020516793
5.095549e-06
-0.00020759725
4.8559188e-06
-0.00020990507
4.6130467e-06
-0.00021208983
4.3670622e-06
-0.00021415004
4.1180975e-06
-0.00021608428
3.8662873e-06
-0.00021789119
3.6117693e-06
-0.00021956949
3.3546833e-06
-0.00022111796
3.095172e-06
-0.00022253547
2.8333802e-06
-0.00022382094
2.5694553e-06
-0.00022497338
2.303547e-06
-0.00022599188
2.0358072e-06
-0.0002268756
1.76639e-06
-0.00022762377
1.4954515e-06
-0.00022823572
1.22315e-06
-0.00022871084
9.4964544e-07
-0.00022904862
6.750998e-07
-0.00022924861
3.9967649e-07
-0.00022931045
1.2354205e-07
-0.00022923388
-1.5313728e-07
-0.0002290187
-4.3019351e-07
-0.00022866481
-7.0745686e-07
-0.0002281722
-9.8475631e-07
-0.00022754093
-1.2619198e-06
-0.00022677116
-1.5387743e-06
-0.00022586312
-1.815146e-06
-0.00022481715
-2.0908602e-06
-0.00022363366
-2.3657415e-06
-0.00022231316
-2.6396142e-06
-0.00022085624
-2.9123021e-06
-0.00021926358
-3.1836289e-06
-0.00021753595
-3.4534181e-06
-0.00021567421
-3.7214931e-06
-0.0002136793
-3.9876776e-06
-0.00021155226
-4.2517958e-06
-0.0002092942
-4.5136721e-06
-0.00020690635
-4.7731315e-06
-0.00020438998
-5.0299999e-06
-0.0002017465
-5.284104e-06
-0.00019897736
-5.5352716e-06
-0.00019608412
-5.7833316e-06
-0.00019306842
-6.0281143e-06
-0.00018993198
-6.2694516e-06
-0.00018667661
-6.5071768e-06
-0.00018330421
-6.7411252e-06
-0.00017981673
-6.971134e-06
-0.00017621624
-7.1970423e-06
-0.00017250485
-7.4186916e-06
-0.00016868479
-7.635926e-06
-0.00016475834
-7.8485916e-06
-0.00016072785
-8.0565377e-06
-0.00015659577
-8.2596161e-06
-0.0001523646
-8.4576818e-06
-0.00014803692
-8.6505926e-06
-0.00014361537
-8.83821e-06
-0.00013910268
-9.0203984e-06
-0.00013450163
-9.197026e-06
-0.00012981505
-9.3679646e-06
-0.00012504587
-9.5330898e-06
-0.00012019705
-9.692281e-06
-0.00011527161
-9.8454219e-06
-0.00011027264
-9.9923999e-06
-0.00010520328
-1.0133107e-05
-0.00010006671
-1.026744e-05
-9.4866177e-05
-1.0395299e-05
-8.9604963e-05
-1.0516589e-05
-8.4286401e-05
-1.0631221e-05
-7.8913863e-05
-1.073911e-05
-7.3490764e-05
-1.0840175e-05
-6.8020555e-05
-1.0934341e-05
-6.2506723e-05
-1.1021537e-05
-5.6952787e-05
-1.1101699e-05
-5.1362296e-05
-1.1174766e-05
-4.5738828e-05
-1.1240684e-05
-4.0085983e-05
-1.1299403e-05
-3.4407385e-05
-1.1350879e-05
-2.8706677e-05
-1.1395074e-05
-2.2987519e-05
-1.1431953e-05
-1.7253584e-05
-1.1461491e-05
-1.1508556e-05
-1.1483663e-05
-5.7561287e-06
-1.1498454e-05
-1.1505852e-05
5.7671029e-06
-1.7272955e-05
1.1530498e-05
-1.7261848e-05
1.7286478e-05
-1.7239644e-05
2.3031345e-05
-1.7206357e-05
2.8761406e-05
-1.7162015e-05
3.4472981e-05
-1.7106649e-05
4.0162404e-05
-1.7040302e-05
4.5826025e-05
-1.6963023e-05
5.1460212e-05
-1.6874871e-05
5.7061358e-05
-1.6775912e-05
6.2625879e-05
-1.666622e-05
6.815022e-05
-1.6545877e-05
7.3630853e-05
-1.6414974e-05
7.9064286e-05
-1.6273608e-05
8.444706e-05
-1.6121884e-05
8.9775755e-05
-1.5959916e-05
9.5046991e-05
-1.5787825e-05
0.00010025743
-1.5605738e-05
0.00010540378
-1.541379e-05
0.0001104828
-1.5212124e-05
0.00011549128
-1.5000887e-05
0.0001204261
-1.4780237e-05
0.00012528415
-1.4550335e-05
0.00013006241
-1.431135e-05
0.00013475791
-1.4063456e-05
0.00013936771
-1.3806835e-05
0.00014388899
-1.3541674e-05
0.00014831895
-1.3268165e-05
0.00015265486
-1.2986506e-05
0.00015689408
-1.2696899e-05
0.00016103401
-1.2399555e-05
0.00016507216
-1.2094684e-05
0.00016900608
-1.1782507e-05
0.00017283339
-1.1463244e-05
0.00017655183
-1.1137123e-05
0.00018015916
-1.0804374e-05
0.00018365326
-1.0465231e-05
0.00018703206
-1.0119933e-05
0.00019029361
-9.7687201e-06
0.00019343599
-9.4118376e-06
0.00019645741
-9.0495327e-06
0.00019935613
-8.6820554e-06
0.00020213052
-8.3096582e-06
0.00020477901
-7.9325959e-06
0.00020730014
-7.5511254e-06
0.00020969251
-7.1655051e-06
0.00021195484
-6.7759952e-06
0.0002140859
-6.3828572e-06
0.00021608457
-5.9863536e-06
0.00021794983
-5.5867481e-06
0.00021968071
-5.1843047e-06
0.00022127637
-4.7792881e-06
0.00022273603
-4.3719632e-06
0.00022405902
-3.9625951e-06
0.00022524472
-3.5514484e-06
0.00022629265
-3.1387878e-06
0.00022720238
-2.7248771e-06
0.00022797359
-2.3099794e-06
0.00022860602
-1.894357e-06
0.00022909954
-1.4782708e-06
0.00022945406
-1.0619808e-06
0.00022966961
-6.4574511e-07
0.0002297463
-2.298204e-07
0.0002296843
1.8553857e-07
0.0002294839
6.0007935e-07
0.00022914545
1.0135516e-06
0.00022866938
1.4257065e-06
0.00022805624
1.8362985e-06
0.0002273066
2.2450843e-06
0.00022642117
2.6518237e-06
0.0002254007
3.0562792e-06
0.00022424603
3.4582163e-06
0.00022295808
3.8574038e-06
0.00022153785
4.2536135e-06
0.0002199864
4.6466208e-06
0.00021830488
5.0362045e-06
0.0002164945
5.4221469e-06
0.00021455655
5.8042341e-06
0.00021249239
6.182256e-06
0.00021030345
6.5560062e-06
0.00020799121
6.9252822e-06
0.00020555725
7.2898856e-06
0.00020300317
7.6496221e-06
0.00020033068
8.0043014e-06
0.00019754153
8.3537374e-06
0.00019463751
8.6977482e-06
0.00019162051
9.0361562e-06
0.00018849246
9.3687881e-06
0.00018525533
9.6954748e-06
0.00018191118
1.0016052e-05
0.00017846208
1.0330359e-05
0.0001749102
1.063824e-05
0.00017125771
1.0939544e-05
0.00016750688
1.1234124e-05
0.00016365999
1.1521837e-05
0.00015971938
1.1802545e-05
0.00015568743
1.2076114e-05
0.00015156657
1.2342416e-05
0.00014735928
1.2601324e-05
0.00014306804
1.2852719e-05
0.00013869543
1.3096484e-05
0.00013424401
1.3332509e-05
0.00012971642
1.3560684e-05
0.0001251153
1.3780908e-05
0.00012044334
1.3993081e-05
0.00011570326
1.419711e-05
0.00011089782
1.4392903e-05
0.00010602978
1.4580374e-05
0.00010110197
1.4759443e-05
9.6117193e-05
1.493003e-05
9.1078325e-05
1.5092063e-05
8.5988238e-05
1.5245472e-05
8.0849836e-05
1.5390192e-05
7.5666038e-05
1.5526161e-05
7.0439787e-05
1.5653321e-05
6.5174039e-05
1.577162e-05
5.9871772e-05
1.5881008e-05
5.4535974e-05
1.5981439e-05
4.9169651e-05
1.6072872e-05
4.3775818e-05
1.6155269e-05
3.8357504e-05
1.6228595e-05
3.2917748e-05
1.6292822e-05
2.7459596e-05
1.6347922e-05
2.1986103e-05
1.6393873e-05
1.6500329e-05
1.6430656e-05
1.1005341e-05
1.6458256e-05
5.5042069e-06
1.6476663e-05
-2.7532662e-15
1.6485868e-05
-5.504207e-06
1.6485868e-05
-1.1005341e-05
1.6476663e-05
-1.6500329e-05
1.6458256e-05
-2.1986103e-05
1.6430656e-05
-2.7459596e-05
1.6393873e-05
-3.2917748e-05
1.6347922e-05
-3.8357504e-05
1.6292822e-05
-4.3775818e-05
1.6228595e-05
-4.9169651e-05
1.6155269e-05
-5.4535974e-05
1.6072872e-05
-5.9871772e-05
1.5981439e-05
-6.5174039e-05
1.5881008e-05
-7.0439787e-05
1.577162e-05
-7.5666038e-05
1.5653321e-05
-8.0849836e-05
1.5526161e-05
-8.5988238e-05
1.5390192e-05
-9.1078325e-05
1.5245472e-05
-9.6117193e-05
1.5092063e-05
-0.00010110197
1.493003e-05
-0.00010602978
1.4759443e-05
-0.00011089782
1.4580374e-05
-0.00011570326
1.4392903e-05
-0.00012044334
1.419711e-05
-0.0001251153
1.3993081e-05
-0.00012971642
1.3780908e-05
-0.00013424401
1.3560684e-05
-0.00013869543
1.3332509e-05
-0.00014306804
1.3096484e-05
-0.00014735928
1.2852719e-05
-0.00015156657
1.2601324e-05
-0.00015568743
1.2342416e-05
-0.00015971938
1.2076114e-05
-0.00016365999
1.1802545e-05
-0.00016750688
1.1521837e-05
-0.00017125771
1.1234124e-05
-0.0001749102
1.0939544e-05
-0.00017846208
1.063824e-05
-0.00018191118
1.0330359e-05
-0.00018525533
1.0016052e-05
-0.00018849246
9.6954748e-06
-0.00019162051
9.3687881e-06
-0.00019463751
9.0361562e-06
-0.00019754153
8.6977482e-06
-0.00020033068
8.3537374e-06
-0.00020300317
8.0043014e-06
-0.00020555725
7.6496221e-06
-0.00020799121
7.2898856e-06
-0.00021030345
6.9252822e-06
-0.00021249239
6.5560062e-06
-0.00021455655
6.182256e-06
-0.0002164945
5.8042341e-06
-0.00021830488
5.4221469e-06
-0.0002199864
5.0362045e-06
-0.00022153785
4.6466208e-06
-0.00022295808
4.2536135e-06
-0.00022424603
3.8574038e-06
-0.0002254007
3.4582163e-06
-0.00022642117
3.0562792e-06
-0.0002273066
2.6518237e-06
-0.00022805624
2.2450843e-06
-0.00022866938
1.8362985e-06
-0.00022914545
1.4257065e-06
-0.0002294839
1.0135516e-06
-0.0002296843
6.0007935e-07
-0.0002297463
1.8553857e-07
-0.00022966961
-2.298204e-07
-0.00022945406
-6.4574511e-07
-0.00022909954
-1.0619808e-06
-0.00022860602
-1.4782708e-06
-0.00022797359
-1.894357e-06
-0.00022720238
-2.3099794e-06
-0.00022629265
-2.7248771e-06
-0.00022524472
-3.1387878e-06
-0.00022405902
-3.5514484e-06
-0.00022273603
-3.9625951e-06
-0.00022127637
-4.3719632e-06
-0.00021968071
-4.7792881e-06
-0.00021794983
-5.1843047e-06
-0.00021608457
-5.5867481e-06
-0.0002140859
-5.9863536e-06
-0.00021195484
-6.3828572e-06
-0.00020969251
-6.7759952e-06
-0.00020730014
-7.1655051e-06
-0.00020477901
-7.5511254e-06
-0.00020213052
-7.9325959e-06
-0.00019935613
-8.3096582e-06
-0.00019645741
-8.6820554e-06
-0.00019343599
-9.0495327e-06
-0.00019029361
-9.4118376e-06
-0.00018703206
-9.7687201e-06
-0.00018365326
-1.0119933e-05
-0.00018015916
-1.0465231e-05
-0.00017655183
-1.0804374e-05
-0.00017283339
-1.1137123e-05
-0.00016900608
-1.1463244e-05
-0.00016507216
-1.1782507e-05
-0.00016103401
-1.2094684e-05
-0.00015689408
-1.2399555e-05
-0.00015265486
-1.2696899e-05
-0.00014831895
-1.2986506e-05
-0.00014388899
-1.3268165e-05
-0.00013936771
-1.3541674e-05
-0.00013475791
-1.3806835e-05
-0.00013006241
-1.4063456e-05
-0.00012528415
-1.431135e-05
-0.0001204261
-1.4550335e-05
-0.00011549128
-1.4780237e-05
-0.0001104828
-1.5000887e-05
-0.00010540378
-1.5212124e-05
-0.00010025743
-1.541379e-05
-9.5046991e-05
-1.5605738e-05
-8.9775755e-05
-1.5787825e-05
-8.444706e-05
-1.5959916e-05
-7.9064286e-05
-1.6121884e-05
-7.3630853e-05
-1.6273608e-05
-6.815022e-05
-1.6414974e-05
-6.2625879e-05
-1.6545877e-05
-5.7061358e-05
-1.666622e-05
-5.1460212e-05
-1.6775912e-05
-4.5826025e-05
-1.6874871e-05
-4.0162404e-05
-1.6963023e-05
-3.4472981e-05
-1.7040302e-05
-2.8761406e-05
-1.7106649e-05
-2.3031345e-05
-1.7162015e-05
-1.7286478e-05
-1.7206357e-05
-1.1530498e-05
-1.7239644e-05
-5.7671029e-06
-1.7261848e-05
-1.7272955e-05
5.7826541e-06
-2.3055609e-05
1.156159e-05
-2.3040784e-05
1.7333092e-05
-2.3011145e-05
2.309345e-05
-2.2966715e-05
2.8838962e-05
-2.2907527e-05
3.4565939e-05
-2.2833626e-05
4.0270703e-05
-2.2745066e-05
4.5949596e-05
-2.2641916e-05
5.1598976e-05
-2.2524252e-05
5.7215226e-05
-2.2392162e-05
6.2794753e-05
-2.2245747e-05
6.833399e-05
-2.2085115e-05
7.3829402e-05
-2.1910386e-05
7.9277486e-05
-2.1721692e-05
8.4674776e-05
-2.1519174e-05
9.001784e-05
-2.1302981e-05
9.5303291e-05
-2.1073276e-05
0.00010052778
-2.0830228e-05
0.00010568801
-2.0574019e-05
0.00011078072
-2.0304837e-05
0.00011580272
-2.0022882e-05
0.00012075084
-1.972836e-05
0.000125622
-1.942149e-05
0.00013041314
-1.9102496e-05
0.0001351213
-1.8771611e-05
0.00013974354
-1.8429078e-05
0.00014427701
-1.8075144e-05
0.00014871891
-1.7710068e-05
0.00015306652
-1.7334113e-05
0.00015731717
-1.6947551e-05
0.00016146828
-1.655066e-05
0.00016551732
-1.6143724e-05
0.00016946184
-1.5727034e-05
0.00017329949
-1.5300887e-05
0.00017702795
-1.4865586e-05
0.00018064501
-1.4421438e-05
0.00018414854
-1.3968756e-05
0.00018753646
-1.3507857e-05
0.00019080681
-1.3039064e-05
0.00019395767
-1.2562703e-05
0.00019698724
-1.2079105e-05
0.00019989379
-1.1588602e-05
0.00020267566
-1.1091533e-05
0.00020533131
-1.0588237e-05
0.00020785924
-1.0079056e-05
0.00021025807
-9.5643372e-06
0.0002125265
-9.0444263e-06
0.00021466331
-8.5196727e-06
0.00021666739
-7.9904269e-06
0.00021853768
-7.4570406e-06
0.00022027324
-6.9198665e-06
0.00022187321
-6.3792578e-06
0.00022333682
-5.8355681e-06
0.00022466337
-5.2891512e-06
0.00022585229
-4.7403604e-06
0.00022690305
-4.1895488e-06
0.00022781524
-3.6370687e-06
0.00022858853
-3.0832712e-06
0.00022922268
-2.5285064e-06
0.00022971753
-1.9731228e-06
0.00023007302
-1.417467e-06
0.00023028916
-8.6188384e-07
0.00023036605
-3.0671577e-07
0.00023030389
2.4769721e-07
0.00023010295
8.0101791e-07
0.00022976359
1.3529119e-06
0.00022928625
1.9030477e-06
0.00022867145
2.4510973e-06
0.0002279198
2.996736e-06
0.00022703198
3.5396431e-06
0.00022600876
4.0795016e-06
0.00022485098
4.6159986e-06
0.00022355956
5.1488252e-06
0.00022213549
5.677677e-06
0.00022057986
6.2022543e-06
0.0002188938
6.7222617e-06
0.00021707854
7.2374087e-06
0.00021513536
7.7474097e-06
0.00021306564
8.2519843e-06
0.00021087079
8.750857e-06
0.00020855231
9.2437575e-06
0.00020611177
9.7304211e-06
0.00020355081
1.0210588e-05
0.00020087111
1.0684005e-05
0.00019807442
1.1150423e-05
0.00019516257
1.1609599e-05
0.00019213743
1.2061297e-05
0.00018900093
1.2505285e-05
0.00018575507
1.2941337e-05
0.00018240188
1.3369235e-05
0.00017894348
1.3788763e-05
0.00017538201
1.4199713e-05
0.00017171967
1.4601885e-05
0.00016795871
1.4995081e-05
0.00016410144
1.5379112e-05
0.00016015019
1.5753792e-05
0.00015610736
1.6118943e-05
0.00015197538
1.6474393e-05
0.00014775673
1.6819976e-05
0.00014345392
1.7155529e-05
0.00013906951
1.7480899e-05
0.00013460608
1.7795936e-05
0.00013006627
1.8100497e-05
0.00012545273
1.8394443e-05
0.00012076817
1.8677645e-05
0.0001160153
1.8949974e-05
0.0001111969
1.9211311e-05
0.00010631573
1.9461541e-05
0.00010137462
1.9700555e-05
9.6376398e-05
1.9928249e-05
9.1323937e-05
2.0144524e-05
8.6220122e-05
2.0349288e-05
8.106786e-05
2.0542454e-05
7.5870081e-05
2.072394e-05
7.0629734e-05
2.0893668e-05
6.5349785e-05
2.1051569e-05
6.0033218e-05
2.1197575e-05
5.4683031e-05
2.1331626e-05
4.9302236e-05
2.1453667e-05
4.3893858e-05
2.1563646e-05
3.8460933e-05
2.166152e-05
3.3006509e-05
2.1747246e-05
2.7533639e-05
2.1820792e-05
2.2045386e-05
2.1882125e-05
1.6544821e-05
2.1931222e-05
1.1035015e-05
2.1968062e-05
5.5190484e-06
2.199263e-05
-2.6947347e-15
2.2004917e-05
-5.5190484e-06
2.2004917e-05
-1.1035015e-05
2.199263e-05
-1.6544821e-05
2.1968062e-05
-2.2045386e-05
2.1931222e-05
-2.7533639e-05
2.1882125e-05
-3.3006509e-05
2.1820792e-05
-3.8460933e-05
2.1747246e-05
-4.3893858e-05
2.166152e-05
-4.9302236e-05
2.1563646e-05
-5.4683031e-05
2.1453667e-05
-6.0033218e-05
2.1331626e-05
-6.5349785e-05
2.1197575e-05
-7.0629734e-05
2.1051569e-05
-7.5870081e-05
2.0893668e-05
-8.106786e-05
2.072394e-05
-8.6220122e-05
2.0542454e-05
-9.1323938e-05
2.0349288e-05
-9.6376398e-05
2.0144524e-05
-0.00010137462
1.9928249e-05
-0.00010631573
1.9700555e-05
-0.0001111969
1.9461541e-05
-0.0001160153
1.9211311e-05
-0.00012076817
1.8949974e-05
-0.00012545273
1.8677645e-05
-0.00013006627
1.8394443e-05
-0.00013460608
1.8100497e-05
-0.00013906951
1.7795936e-05
-0.00014345392
1.7480899e-05
-0.00014775673
1.7155529e-05
-0.00015197538
1.6819976e-05
-0.00015610736
1.6474393e-05
-0.00016015019
1.6118943e-05
-0.00016410144
1.5753792e-05
-0.00016795871
1.5379112e-05
-0.00017171967
1.4995081e-05
-0.00017538201
1.4601885e-05
-0.00017894348
1.4199713e-05
-0.00018240188
1.3788763e-05
-0.00018575507
1.3369235e-05
-0.00018900093
1.2941337e-05
-0.00019213743
1.2505285e-05
-0.00019516257
1.2061297e-05
-0.00019807442
1.1609599e-05
-0.00020087111
1.1150423e-05
-0.00020355081
1.0684005e-05
-0.00020611177
1.0210588e-05
-0.00020855231
9.7304211e-06
-0.00021087079
9.2437575e-06
-0.00021306564
8.750857e-06
-0.00021513536
8.2519843e-06
-0.00021707854
7.7474097e-06
-0.0002188938
7.2374087e-06
-0.00022057986
6.7222617e-06
-0.00022213549
6.2022543e-06
-0.00022355956
5.677677e-06
-0.00022485098
5.1488252e-06
-0.00022600876
4.6159986e-06
-0.00022703198
4.0795016e-06
-0.0002279198
3.5396431e-06
-0.00022867145
2.996736e-06
-0.00022928625
2.4510973e-06
-0.00022976359
1.9030477e-06
-0.00023010295
1.3529119e-06
-0.00023030389
8.0101791e-07
-0.00023036605
2.4769721e-07
-0.00023028916
-3.0671577e-07
-0.00023007302
-8.6188384e-07
-0.00022971753
-1.417467e-06
-0.00022922268
-1.9731228e-06
-0.00022858853
-2.5285064e-06
-0.00022781524
-3.0832712e-06
-0.00022690305
-3.6370687e-06
-0.00022585229
-4.1895488e-06
-0.00022466337
-4.7403604e-06
-0.00022333682
-5.2891512e-06
-0.00022187321
-5.8355681e-06
-0.00022027324
-6.3792578e-06
-0.00021853768
-6.9198665e-06
-0.00021666739
-7.4570406e-06
-0.00021466331
-7.9904269e-06
-0.0002125265
-8.5196727e-06
-0.00021025807
-9.0444263e-06
-0.00020785924
-9.5643372e-06
-0.00020533131
-1.0079056e-05
-0.00020267566
-1.0588237e-05
-0.00019989379
-1.1091533e-05
-0.00019698724
-1.1588602e-05
-0.00019395767
-1.2079105e-05
-0.00019080681
-1.2562703e-05
-0.00018753646
-1.3039064e-05
-0.00018414854
-1.3507857e-05
-0.00018064501
-1.3968756e-05
-0.00017702795
-1.4421438e-05
-0.00017329949
-1.4865586e-05
-0.00016946184
-1.5300887e-05
-0.00016551732
-1.5727034e-05
-0.00016146828
-1.6143724e-05
-0.00015731717
-1.655066e-05
-0.00015306652
-1.6947551e-05
-0.00014871891
-1.7334113e-05
-0.00014427701
-1.7710068e-05
-0.00013974354
-1.8075144e-05
-0.0001351213
-1.8429078e-05
-0.00013041314
-1.8771611e-05
-0.000125622
-1.9102496e-05
-0.00012075084
-1.942149e-05
-0.00011580272
-1.972836e-05
-0.00011078072
-2.0022882e-05
-0.00010568801
-2.0304837e-05
-0.00010052778
-2.0574019e-05
-9.5303291e-05
-2.0830228e-05
-9.001784e-05
-2.1073276e-05
-8.4674776e-05
-2.1302981e-05
-7.9277486e-05
-2.1519174e-05
-7.3829402e-05
-2.1721692e-05
-6.833399e-05
-2.1910386e-05