/*--------------------------------*- C++ -*----------------------------------*\
| =========                 |                                                 |
| \\      /  F ield         | OpenFOAM: The Open Source CFD Toolbox           |
|  \\    /   O peration     | Version:  2306                                  |
|   \\  /    A nd           | Website:  www.openfoam.com                      |
|    \\/     M anipulation  |                                                 |
\*---------------------------------------------------------------------------*/
FoamFile
{
    version     2.0;
    format      ascii;
    arch        "LSB;label=32;scalar=64";
    class       surfaceScalarField;
    location    "0.6";
    object      phi_0;
}
// * * * * * * * * * * * * * * * * * * * * * * * * * * * * * * * * * * * * * //

dimensions      [0 3 -1 0 0 0 0];

oriented        oriented;

internalField   nonuniform List<scalar> 
12640
(
-3.2895255e-06
-5.6631042e-07
-3.2843653e-06
-4.9721727e-07
-3.2774578e-06
-4.2808129e-07
-3.268838e-06
-3.589607e-07
-3.2585414e-06
-2.8991065e-07
-3.2466051e-06
-2.2098474e-07
-3.2330657e-06
-1.5223313e-07
-3.2179616e-06
-8.3703679e-08
-3.2013346e-06
-1.5440955e-08
-3.1832186e-06
5.2498881e-08
-3.1636551e-06
1.2009e-07
-3.1426834e-06
1.8728789e-07
-3.1203434e-06
2.5405498e-07
-3.0966742e-06
3.2035697e-07
-3.0717154e-06
3.8616112e-07
-3.0455061e-06
4.5143725e-07
-3.0180859e-06
5.1615698e-07
-2.989493e-06
5.8029379e-07
-2.9597656e-06
6.4382349e-07
-2.9289419e-06
7.0672325e-07
-2.897059e-06
7.6897288e-07
-2.8641534e-06
8.305537e-07
-2.8302609e-06
8.9144837e-07
-2.7954174e-06
9.5164122e-07
-2.7596575e-06
1.0111185e-06
-2.7230146e-06
1.0698682e-06
-2.685522e-06
1.1278794e-06
-2.6472118e-06
1.1851431e-06
-2.6081151e-06
1.2416506e-06
-2.5682622e-06
1.2973948e-06
-2.5276832e-06
1.3523714e-06
-2.4864057e-06
1.4065747e-06
-2.4444576e-06
1.460002e-06
-2.4018649e-06
1.512651e-06
-2.3586537e-06
1.5645194e-06
-2.3148481e-06
1.6156074e-06
-2.270472e-06
1.6659163e-06
-2.2255471e-06
1.7154452e-06
-2.1800959e-06
1.7641971e-06
-2.1341374e-06
1.8121741e-06
-2.0876917e-06
1.8593801e-06
-2.0407775e-06
1.9058175e-06
-1.9934116e-06
1.9514906e-06
-1.9456106e-06
1.9964043e-06
-1.8973899e-06
2.0405636e-06
-1.8487629e-06
2.083973e-06
-1.7997439e-06
2.1266385e-06
-1.7503448e-06
2.1685655e-06
-1.7005779e-06
2.2097598e-06
-1.650453e-06
2.2502274e-06
-1.59998e-06
2.2899746e-06
-1.5491674e-06
2.329007e-06
-1.4980232e-06
2.3673307e-06
-1.4465538e-06
2.4049522e-06
-1.3947666e-06
2.4418771e-06
-1.3426653e-06
2.4781109e-06
-1.2902557e-06
2.5136596e-06
-1.2375404e-06
2.5485284e-06
-1.1845234e-06
2.5827224e-06
-1.1312068e-06
2.6162465e-06
-1.0775916e-06
2.6491056e-06
-1.023679e-06
2.6813034e-06
-9.6946901e-07
2.7128439e-06
-9.1496114e-07
2.7437303e-06
-8.6015452e-07
2.7739656e-06
-8.0504794e-07
2.8035523e-06
-7.4963829e-07
2.8324929e-06
-6.9392353e-07
2.8607876e-06
-6.3790048e-07
2.8884384e-06
-5.815653e-07
2.9154451e-06
-5.2491408e-07
2.9418072e-06
-4.6794219e-07
2.9675232e-06
-4.1064444e-07
2.9925907e-06
-3.5301647e-07
3.017006e-06
-2.9505218e-07
3.0407641e-06
-2.3674679e-07
3.0638585e-06
-1.7809417e-07
3.0862834e-06
-1.1908911e-07
3.1080416e-06
-5.9726415e-08
3.1291599e-06
3.1496858e-06
-3.2137726e-06
-5.6884376e-07
-3.2094963e-06
-5.0149363e-07
-3.2035086e-06
-4.3406901e-07
-3.1958418e-06
-3.666272e-07
-3.1865301e-06
-2.9922271e-07
-3.1756071e-06
-2.3190754e-07
-3.163109e-06
-1.6473151e-07
-3.1490701e-06
-9.7742525e-08
-3.1335287e-06
-3.0982281e-08
-3.1165214e-06
3.5491653e-08
-3.0980848e-06
1.0165347e-07
-3.0782562e-06
1.674593e-07
-3.0570737e-06
2.3287218e-07
-3.0345746e-06
2.9785771e-07
-3.0107967e-06
3.6238326e-07
-2.9857776e-06
4.2641808e-07
-2.9595549e-06
4.8993404e-07
-2.9321648e-06
5.529043e-07
-2.903645e-06
6.1530341e-07
-2.874031e-06
6.7710922e-07
-2.8433586e-06
7.3830079e-07
-2.8116639e-06
7.9885863e-07
-2.7789807e-06
8.5876506e-07
-2.7453438e-06
9.180045e-07
-2.7107863e-06
9.7656111e-07
-2.6753413e-06
1.0344228e-06
-2.6390398e-06
1.0915781e-06
-2.6019134e-06
1.1480166e-06
-2.5639928e-06
1.2037298e-06
-2.5253072e-06
1.2587096e-06
-2.4858855e-06
1.3129494e-06
-2.4457547e-06
1.3664442e-06
-2.4049425e-06
1.4191897e-06
-2.3634742e-06
1.4711826e-06
-2.3213745e-06
1.5224199e-06
-2.2786684e-06
1.5729012e-06
-2.2353773e-06
1.6226254e-06
-2.1915247e-06
1.6715923e-06
-2.1471313e-06
1.7198038e-06
-2.1022172e-06
1.76726e-06
-2.0568009e-06
1.8139639e-06
-2.0109017e-06
1.859918e-06
-1.9645352e-06
1.9051248e-06
-1.9177194e-06
1.9495885e-06
-1.8704685e-06
1.9933128e-06
-1.8227971e-06
2.0363014e-06
-1.7747181e-06
2.0785598e-06
-1.7262455e-06
2.1200922e-06
-1.6773892e-06
2.1609035e-06
-1.6281609e-06
2.2009996e-06
-1.5785704e-06
2.2403839e-06
-1.528626e-06
2.2790624e-06
-1.4783364e-06
2.3170408e-06
-1.4277086e-06
2.3543246e-06
-1.3767492e-06
2.3909174e-06
-1.3254639e-06
2.4268254e-06
-1.273857e-06
2.462053e-06
-1.2219336e-06
2.4966047e-06
-1.1696967e-06
2.5304857e-06
-1.1171488e-06
2.5636986e-06
-1.0642922e-06
2.596249e-06
-1.0111288e-06
2.6281396e-06
-9.5765783e-07
2.6593732e-06
-9.0388081e-07
2.6899533e-06
-8.4979756e-07
2.7198818e-06
-7.9540614e-07
2.7491612e-06
-7.4070543e-07
2.777792e-06
-6.8569392e-07
2.805776e-06
-6.3036761e-07
2.8331126e-06
-5.7472552e-07
2.8598027e-06
-5.1876306e-07
2.8858442e-06
-4.6247665e-07
2.9112369e-06
-4.0586248e-07
2.9359761e-06
-3.4891584e-07
2.9600594e-06
-2.9163247e-07
2.9834807e-06
-2.3400755e-07
3.0062339e-06
-1.7603621e-07
3.0283126e-06
-1.1771465e-07
3.04972e-06
-5.9037566e-08
3.0704824e-06
3.0906483e-06
-3.1397226e-06
-5.7058321e-07
-3.1362782e-06
-5.0493773e-07
-3.1311581e-06
-4.3918947e-07
-3.1243921e-06
-3.7339312e-07
-3.1160123e-06
-3.0760275e-07
-3.1060504e-06
-2.4186925e-07
-3.0945402e-06
-1.7624182e-07
-3.0815151e-06
-1.1076755e-07
-3.0670077e-06
-4.5489718e-08
-3.051058e-06
1.95417e-08
-3.0336972e-06
8.4292436e-08
-3.0149615e-06
1.4872362e-07
-2.9948866e-06
2.1279776e-07
-2.9735086e-06
2.7647995e-07
-2.9508637e-06
3.3973835e-07
-2.9269873e-06
4.025417e-07
-2.901915e-06
4.6486189e-07
-2.8756823e-06
5.2667152e-07
-2.8483249e-06
5.879459e-07
-2.8198772e-06
6.4866156e-07
-2.7903734e-06
7.0879725e-07
-2.7598477e-06
7.6833284e-07
-2.7283336e-06
8.2725084e-07
-2.6958637e-06
8.8553446e-07
-2.6624705e-06
9.4316792e-07
-2.6281852e-06
1.0001378e-06
-2.5930394e-06
1.056432e-06
-2.5570624e-06
1.1120399e-06
-2.5202844e-06
1.1669519e-06
-2.4827338e-06
1.2211588e-06
-2.4444385e-06
1.2746541e-06
-2.4054253e-06
1.3274308e-06
-2.3657201e-06
1.3794844e-06
-2.3253482e-06
1.4308105e-06
-2.2843341e-06
1.4814059e-06
-2.2427013e-06
1.5312682e-06
-2.2004722e-06
1.5803966e-06
-2.1576692e-06
1.6287896e-06
-2.1143123e-06
1.6764465e-06
-2.0704215e-06
1.7233689e-06
-2.0260159e-06
1.769558e-06
-1.9811126e-06
1.815015e-06
-1.9357301e-06
1.8597419e-06
-1.8898831e-06
1.9037416e-06
-1.8435879e-06
1.9470171e-06
-1.7968579e-06
1.9895718e-06
-1.7497075e-06
2.0314091e-06
-1.7021483e-06
2.0725333e-06
-1.6541931e-06
2.1129486e-06
-1.6058521e-06
2.1526582e-06
-1.5571347e-06
2.1916671e-06
-1.508051e-06
2.2299788e-06
-1.4586089e-06
2.267599e-06
-1.4088161e-06
2.3045316e-06
-1.3586793e-06
2.3407811e-06
-1.3082047e-06
2.3763509e-06
-1.2573973e-06
2.4112455e-06
-1.2062623e-06
2.4454694e-06
-1.1548029e-06
2.4790259e-06
-1.1030224e-06
2.5119188e-06
-1.0509239e-06
2.5441503e-06
-9.9850891e-07
2.5757242e-06
-9.4577812e-07
2.6066424e-06
-8.9273338e-07
2.6369083e-06
-8.3937395e-07
2.6665225e-06
-7.856999e-07
2.6954869e-06
-7.3171084e-07
2.7238029e-06
-6.7740435e-07
2.7514695e-06
-6.2277941e-07
2.7784877e-06
-5.6783306e-07
2.8048565e-06
-5.1256348e-07
2.8305753e-06
-4.5696734e-07
2.8556403e-06
-4.0104073e-07
2.8800499e-06
-3.4478103e-07
2.9037997e-06
-2.8818328e-07
2.9268839e-06
-2.3124519e-07
2.9492952e-06
-1.7396128e-07
2.9710286e-06
-1.1632887e-07
2.992087e-06
-5.8342972e-08
3.0124972e-06
3.0323052e-06
-3.0673481e-06
-5.7157724e-07
-3.0646862e-06
-5.0759997e-07
-3.0603833e-06
-4.4349204e-07
-3.0544681e-06
-3.7930829e-07
-3.0469702e-06
-3.1510077e-07
-3.0379192e-06
-2.5092008e-07
-3.0273467e-06
-1.8681432e-07
-3.0152844e-06
-1.2283e-07
-3.001764e-06
-5.901018e-08
-2.9868214e-06
4.599393e-09
-2.970487e-06
6.795817e-08
-2.9527953e-06
1.3103199e-07
-2.9337807e-06
1.9378269e-07
-2.9134769e-06
2.5617595e-07
-2.8919179e-06
3.1817945e-07
-2.869138e-06
3.7976215e-07
-2.8451718e-06
4.4089518e-07
-2.8200522e-06
5.0155217e-07
-2.793814e-06
5.6170766e-07
-2.7664899e-06
6.2133764e-07
-2.7381133e-06
6.8042045e-07
-2.7087165e-06
7.3893612e-07
-2.6783315e-06
7.9686607e-07
-2.6469904e-06
8.5419322e-07
-2.6147238e-06
9.109017e-07
-2.581563e-06
9.6697684e-07
-2.5475377e-06
1.0224065e-06
-2.5126763e-06
1.077179e-06
-2.4770082e-06
1.1312833e-06
-2.4405606e-06
1.1847115e-06
-2.4033608e-06
1.2374543e-06
-2.3654352e-06
1.2895052e-06
-2.3268088e-06
1.3408582e-06
-2.2875069e-06
1.3915086e-06
-2.2475525e-06
1.4414518e-06
-2.2069693e-06
1.4906851e-06
-2.1657788e-06
1.539206e-06
-2.124002e-06
1.5870129e-06
-2.0816607e-06
1.6341051e-06
-2.0387731e-06
1.6804818e-06
-1.9953586e-06
1.7261435e-06
-1.9514344e-06
1.7710906e-06
-1.9070175e-06
1.8153249e-06
-1.862124e-06
1.8588481e-06
-1.8167693e-06
1.9016626e-06
-1.7709673e-06
1.9437695e-06
-1.7247314e-06
1.9851735e-06
-1.6780749e-06
2.0258764e-06
-1.6310088e-06
2.0658825e-06
-1.5835445e-06
2.1051936e-06
-1.5356914e-06
2.1438141e-06
-1.4874604e-06
2.1817474e-06
-1.4388585e-06
2.2189975e-06
-1.389894e-06
2.2555675e-06
-1.3405747e-06
2.2914611e-06
-1.2909059e-06
2.3266821e-06
-1.240894e-06
2.3612338e-06
-1.1905435e-06
2.395119e-06
-1.1398589e-06
2.4283418e-06
-1.0888436e-06
2.4609032e-06
-1.0375011e-06
2.4928081e-06
-9.8583364e-07
2.5240572e-06
-9.3384299e-07
2.5546519e-06
-8.8153023e-07
2.5845957e-06
-8.2889611e-07
2.6138886e-06
-7.7594091e-07
2.6425319e-06
-7.2266472e-07
2.6705267e-06
-6.690661e-07
2.697871e-06
-6.1514438e-07
2.7245661e-06
-5.6089743e-07
2.75061e-06
-5.0632381e-07
2.776001e-06
-4.514211e-07
2.8007376e-06
-3.9618674e-07
2.8248155e-06
-3.4061754e-07
2.8482307e-06
-2.8471126e-07
2.8709765e-06
-2.2846314e-07
2.8930473e-06
-1.7187142e-07
2.914437e-06
-1.149325e-07
2.9351482e-06
-5.7643161e-08
2.9552074e-06
2.9746619e-06
-2.9966212e-06
-5.7187324e-07
-2.9946942e-06
-5.0952694e-07
-2.9911615e-06
-4.4702486e-07
-2.9860492e-06
-3.8442049e-07
-2.9793849e-06
-3.2176494e-07
-2.9711969e-06
-2.5910802e-07
-2.9615143e-06
-1.9649689e-07
-2.950367e-06
-1.3397728e-07
-2.9377847e-06
-7.1592468e-08
-2.9238035e-06
-9.3820456e-09
-2.9084482e-06
5.260297e-08
-2.8917543e-06
1.14338e-07
-2.8737535e-06
1.757818e-07
-2.8544778e-06
2.3690057e-07
-2.8339602e-06
2.9766176e-07
-2.8122332e-06
3.5803501e-07
-2.7893291e-06
4.1799126e-07
-2.7652805e-06
4.775035e-07
-2.740119e-06
5.3654641e-07
-2.7138776e-06
5.9509616e-07
-2.6865877e-06
6.5313066e-07
-2.6582803e-06
7.1062875e-07
-2.6289865e-06
7.6757242e-07
-2.5987368e-06
8.2394337e-07
-2.567561e-06
8.7972602e-07
-2.5354892e-06
9.3490507e-07
-2.5025499e-06
9.8946696e-07
-2.4687705e-06
1.0434e-06
-2.4341804e-06
1.0966931e-06
-2.3988051e-06
1.1493359e-06
-2.3626712e-06
1.2013202e-06
-2.325804e-06
1.2526382e-06
-2.2882288e-06
1.303283e-06
-2.2499698e-06
1.3532493e-06
-2.2110498e-06
1.4025313e-06
-2.171491e-06
1.4511262e-06
-2.1313156e-06
1.4990307e-06
-2.0905445e-06
1.5462416e-06
-2.049197e-06
1.5927575e-06
-2.0072929e-06
1.6385776e-06
-1.9648501e-06
1.6837012e-06
-1.9218865e-06
1.728127e-06
-1.8784187e-06
1.7718574e-06
-1.8344627e-06
1.8148922e-06
-1.7900335e-06
1.8572329e-06
-1.745145e-06
1.8988812e-06
-1.6998114e-06
1.9398397e-06
-1.6540443e-06
1.9801097e-06
-1.6078564e-06
2.0196946e-06
-1.5612582e-06
2.0585958e-06
-1.5142608e-06
2.0968165e-06
-1.4668729e-06
2.1343597e-06
-1.4191033e-06
2.1712278e-06
-1.3709608e-06
2.2074248e-06
-1.3224522e-06
2.2429527e-06
-1.2735841e-06
2.2778139e-06
-1.2243621e-06
2.3120121e-06
-1.1747926e-06
2.3455494e-06
-1.1248794e-06
2.3784283e-06
-1.0746272e-06
2.410651e-06
-1.0240384e-06
2.4422194e-06
-9.7311715e-07
2.4731354e-06
-9.218648e-07
2.5033997e-06
-8.70284e-07
2.5330145e-06
-8.1837524e-07
2.5619796e-06
-7.6613946e-07
2.5902962e-06
-7.1357677e-07
2.6179637e-06
-6.6068766e-07
2.644982e-06
-6.0747097e-07
2.6713489e-06
-5.539254e-07
2.6970645e-06
-5.0005095e-07
2.7221262e-06
-4.458446e-07
2.7465313e-06
-3.91305e-07
2.7702759e-06
-3.3643043e-07
2.7933557e-06
-2.812176e-07
2.815764e-06
-2.2566416e-07
2.8374944e-06
-1.6976863e-07
2.858541e-06
-1.1352764e-07
2.8789071e-06
-5.6939111e-08
2.8986194e-06
2.9177227e-06
-2.9275137e-06
-5.7151527e-07
-2.926277e-06
-5.1076359e-07
-2.923469e-06
-4.4983296e-07
-2.919114e-06
-3.8877549e-07
-2.9132378e-06
-3.2764108e-07
-2.9058671e-06
-2.6647908e-07
-2.8970285e-06
-2.0533535e-07
-2.8867508e-06
-1.4425477e-07
-2.8750625e-06
-8.3280706e-08
-2.8619932e-06
-2.2451315e-08
-2.8475735e-06
3.8183405e-08
-2.8318326e-06
9.8597144e-08
-2.8148014e-06
1.5875052e-07
-2.7965103e-06
2.1860961e-07
-2.7769905e-06
2.781423e-07
-2.7562735e-06
3.3731788e-07
-2.7343893e-06
3.9610741e-07
-2.7113699e-06
4.5448381e-07
-2.6872456e-06
5.1242204e-07
-2.6620465e-06
5.6989744e-07
-2.6358043e-06
6.2688833e-07
-2.6085485e-06
6.8337292e-07
-2.5803089e-06
7.3933237e-07
-2.5511141e-06
7.9474894e-07
-2.5209939e-06
8.4960568e-07
-2.4899764e-06
9.0388734e-07
-2.4580893e-06
9.5758013e-07
-2.4253605e-06
1.010671e-06
-2.3918161e-06
1.0631486e-06
-2.3574826e-06
1.1150023e-06
-2.3223849e-06
1.166223e-06
-2.2865491e-06
1.2168023e-06
-2.2499981e-06
1.2667319e-06
-2.2127553e-06
1.3160065e-06
-2.1748442e-06
1.3646205e-06
-2.1362865e-06
1.4125683e-06
-2.097103e-06
1.459847e-06
-2.0573144e-06
1.506453e-06
-2.0169401e-06
1.5523832e-06
-1.9759989e-06
1.5976366e-06
-1.9345092e-06
1.6422111e-06
-1.8924883e-06
1.6861062e-06
-1.8499528e-06
1.7293216e-06
-1.8069178e-06
1.7718576e-06
-1.763399e-06
1.8137141e-06
-1.7194105e-06
1.8548928e-06
-1.6749651e-06
1.8953943e-06
-1.6300759e-06
1.9352205e-06
-1.5847545e-06
1.974373e-06
-1.539012e-06
2.0128535e-06
-1.4928595e-06
2.0506636e-06
-1.446306e-06
2.0878062e-06
-1.3993611e-06
2.1242833e-06
-1.3520325e-06
2.1600962e-06
-1.304328e-06
2.1952482e-06
-1.2562543e-06
2.2297399e-06
-1.2078178e-06
2.2635754e-06
-1.1590243e-06
2.2967559e-06
-1.1098788e-06
2.3292832e-06
-1.0603856e-06
2.3611578e-06
-1.010549e-06
2.3923827e-06
-9.6037111e-07
2.4229577e-06
-9.0985658e-07
2.4528853e-06
-8.5900577e-07
2.4821642e-06
-8.0782197e-07
2.5107957e-06
-7.563055e-07
2.5387795e-06
-7.0445691e-07
2.5661157e-06
-6.5227784e-07
2.5928023e-06
-5.9976713e-07
2.6188386e-06
-5.4692514e-07
2.6442226e-06
-4.9375097e-07
2.6689523e-06
-4.4024378e-07
2.6930238e-06
-3.8640127e-07
2.7164339e-06
-3.3222351e-07
2.7391775e-06
-2.7770765e-07
2.7612481e-06
-2.2285221e-07
2.7826388e-06
-1.6765568e-07
2.8033446e-06
-1.1211608e-07
2.8233672e-06
-5.6231487e-08
2.8427347e-06
2.8614914e-06
-2.8599978e-06
-5.7054545e-07
-2.8594085e-06
-5.1135278e-07
-2.8572822e-06
-4.5195937e-07
-2.8536412e-06
-3.9241647e-07
-2.8485093e-06
-3.3277303e-07
-2.8419116e-06
-2.7307674e-07
-2.8338734e-06
-2.133735e-07
-2.8244213e-06
-1.5370704e-07
-2.8135821e-06
-9.4119816e-08
-2.8013836e-06
-3.4649845e-08
-2.7878553e-06
2.4654771e-08
-2.7730242e-06
8.3766213e-08
-2.7569196e-06
1.4264605e-07
-2.7395711e-06
2.0126099e-07
-2.7210076e-06
2.5957888e-07
-2.7012589e-06
3.1756926e-07
-2.6803546e-06
3.7520301e-07
-2.6583243e-06
4.3245341e-07
-2.6351974e-06
4.8929501e-07
-2.6110032e-06
5.4570324e-07
-2.5857708e-06
6.0165574e-07
-2.5595295e-06
6.5713172e-07
-2.5323073e-06
7.1210999e-07
-2.5041323e-06
7.6657389e-07
-2.4750331e-06
8.2050655e-07
-2.4450362e-06
8.738906e-07
-2.4141693e-06
9.2671316e-07
-2.3824584e-06
9.7896012e-07
-2.34993e-06
1.0306202e-06
-2.3166088e-06
1.0816811e-06
-2.2825193e-06
1.1321333e-06
-2.2476858e-06
1.1819687e-06
-2.2121319e-06
1.2311782e-06
-2.1758803e-06
1.2797551e-06
-2.1389532e-06
1.3276936e-06
-2.1013721e-06
1.3749874e-06
-2.0631579e-06
1.4216327e-06
-2.0243298e-06
1.467625e-06
-1.9849077e-06
1.5129613e-06
-1.9449102e-06
1.5576386e-06
-1.9043545e-06
1.6016556e-06
-1.8632581e-06
1.6450097e-06
-1.8216376e-06
1.687701e-06
-1.7795081e-06
1.729728e-06
-1.7368847e-06
1.7710904e-06
-1.6937808e-06
1.8117889e-06
-1.6502102e-06
1.8518242e-06
-1.6061864e-06
1.8911963e-06
-1.5617201e-06
1.9299067e-06
-1.5168227e-06
1.9679562e-06
-1.4715055e-06
2.0053461e-06
-1.4257773e-06
2.0420782e-06
-1.3796475e-06
2.0781533e-06
-1.3331255e-06
2.1135739e-06
-1.286218e-06
2.1483405e-06
-1.2389328e-06
2.182455e-06
-1.1912757e-06
2.2159192e-06
-1.1432536e-06
2.2487337e-06
-1.094871e-06
2.2809006e-06
-1.0461334e-06
2.3124199e-06
-9.9704489e-07
2.3432937e-06
-9.4760873e-07
2.3735221e-06
-8.9782879e-07
2.403105e-06
-8.477074e-07
2.4320425e-06
-7.9724692e-07
2.4603355e-06
-7.4644883e-07
2.4879816e-06
-6.9531493e-07
2.5149816e-06
-6.438457e-07
2.5413335e-06
-5.920421e-07
2.5670349e-06
-5.3990409e-07
2.5920847e-06
-4.8743154e-07
2.6164796e-06
-4.3462414e-07
2.6402165e-06
-3.8148113e-07
2.6632909e-06
-3.2800177e-07
2.6856982e-06
-2.7418493e-07
2.7074313e-06
-2.2002959e-07
2.7284835e-06
-1.6553466e-07
2.7488493e-06
-1.1069893e-07
2.7685318e-06
-5.5520982e-08
2.7875572e-06
2.80597e-06
-2.794045e-06
-5.6900419e-07
-2.794063e-06
-5.1133502e-07
-2.7925768e-06
-4.5344542e-07
-2.7896083e-06
-3.9538489e-07
-2.7851793e-06
-3.3720222e-07
-2.7793129e-06
-2.7894325e-07
-2.7720332e-06
-2.2065323e-07
-2.7633647e-06
-1.6237567e-07
-2.7533329e-06
-1.0415136e-07
-2.7419632e-06
-4.6019802e-08
-2.7292845e-06
1.197652e-08
-2.7153219e-06
6.9803388e-08
-2.7001034e-06
1.2742737e-07
-2.6836563e-06
1.8481393e-07
-2.6660089e-06
2.419314e-07
-2.6471893e-06
2.9874951e-07
-2.6272256e-06
3.5523947e-07
-2.606146e-06
4.1137408e-07
-2.5839784e-06
4.6712766e-07
-2.5607513e-06
5.2247588e-07
-2.5364923e-06
5.7739675e-07
-2.5112287e-06
6.3186825e-07
-2.4849895e-06
6.8587031e-07
-2.4578004e-06
7.3938507e-07
-2.4296881e-06
7.9239409e-07
-2.4006801e-06
8.448825e-07
-2.3708015e-06
8.968345e-07
-2.3400779e-06
9.4823663e-07
-2.3085348e-06
9.990769e-07
-2.276196e-06
1.0493425e-06
-2.2430864e-06
1.0990237e-06
-2.2092286e-06
1.148111e-06
-2.1746456e-06
1.1965951e-06
-2.1393597e-06
1.2444694e-06
-2.1033922e-06
1.291726e-06
-2.0667648e-06
1.33836e-06
-2.0294968e-06
1.3843648e-06
-1.9916081e-06
1.4297364e-06
-1.9531178e-06
1.4744707e-06
-1.9140437e-06
1.5185644e-06
-1.874403e-06
1.5620152e-06
-1.8342138e-06
1.6048208e-06
-1.7934913e-06
1.6469782e-06
-1.7522504e-06
1.6884872e-06
-1.7105068e-06
1.7293467e-06
-1.6682739e-06
1.769556e-06
-1.6255653e-06
1.8091151e-06
-1.5823933e-06
1.8480245e-06
-1.5387702e-06
1.8862832e-06
-1.4947066e-06
1.9238927e-06
-1.4502142e-06
1.9608535e-06
-1.4053012e-06
1.9971658e-06
-1.359979e-06
2.032831e-06
-1.3142546e-06
2.0678496e-06
-1.2681368e-06
2.1022226e-06
-1.2216333e-06
2.135951e-06
-1.1747501e-06
2.1690356e-06
-1.1274931e-06
2.201477e-06
-1.0798693e-06
2.2332765e-06
-1.0318832e-06
2.2644339e-06
-9.8353889e-07
2.2949498e-06
-9.3484144e-07
2.3248242e-06
-8.8579353e-07
2.3540573e-06
-8.363992e-07
2.3826483e-06
-7.8666045e-07
2.4105968e-06
-7.3657953e-07
2.4379008e-06
-6.8615831e-07
2.4645605e-06
-6.3539928e-07
2.4905737e-06
-5.8430195e-07
2.5159378e-06
-5.3286818e-07
2.540651e-06
-4.8109808e-07
2.5647094e-06
-4.2899144e-07
2.5881098e-06
-3.7654847e-07
2.610848e-06
-3.2376919e-07
2.6329188e-06
-2.7065304e-07
2.6543153e-06
-2.1719944e-07
2.6750297e-06
-1.634079e-07
2.6950575e-06
-1.0927792e-07
2.7144018e-06
-5.4808994e-08
2.7330884e-06
2.751161e-06
-2.729628e-06
-5.6692945e-07
-2.7302138e-06
-5.1074907e-07
-2.7293292e-06
-4.5432994e-07
-2.7269939e-06
-3.9772036e-07
-2.7232278e-06
-3.4096805e-07
-2.7180528e-06
-2.8411829e-07
-2.7114912e-06
-2.2721481e-07
-2.7035661e-06
-1.703007e-07
-2.6943013e-06
-1.1341618e-07
-2.6837207e-06
-5.6600532e-08
-2.6718526e-06
1.0832777e-10
-2.6587186e-06
5.666948e-08
-2.6443461e-06
1.1305495e-07
-2.6287617e-06
1.6922956e-07
-2.6119916e-06
2.2516147e-07
-2.5940627e-06
2.8082058e-07
-2.5750015e-06
3.361784e-07
-2.5548352e-06
3.912075e-07
-2.5335904e-06
4.4588305e-07
-2.5112941e-06
5.0017947e-07
-2.4879733e-06
5.5407588e-07
-2.4636538e-06
6.0754872e-07
-2.4383625e-06
6.6057911e-07
-2.4121253e-06
7.1314768e-07
-2.3849683e-06
7.6523741e-07
-2.3569165e-06
8.1683085e-07
-2.3279952e-06
8.6791315e-07
-2.2982291e-06
9.1847069e-07
-2.2676419e-06
9.6848981e-07
-2.2362583e-06
1.0179586e-06
-2.2041004e-06
1.0668656e-06
-2.171191e-06
1.1152018e-06
-2.1375533e-06
1.1629576e-06
-2.1032082e-06
1.2101239e-06
-2.0681765e-06
1.2566946e-06
-2.032479e-06
1.3026624e-06
-1.9961353e-06
1.348021e-06
-1.9591645e-06
1.3927656e-06
-1.9215855e-06
1.4368915e-06
-1.883415e-06
1.4803943e-06
-1.8446714e-06
1.5232718e-06
-1.8053707e-06
1.5655195e-06
-1.7655288e-06
1.6071363e-06
-1.7251616e-06
1.6481201e-06
-1.6842825e-06
1.6884678e-06
-1.6429057e-06
1.7281796e-06
-1.6010451e-06
1.7672545e-06
-1.5587129e-06
1.8056918e-06
-1.5159203e-06
1.843491e-06
-1.4726794e-06
1.8806523e-06
-1.4290008e-06
1.9171749e-06
-1.3848945e-06
1.9530593e-06
-1.3403697e-06
1.9883064e-06
-1.2954351e-06
2.0229152e-06
-1.2500995e-06
2.056887e-06
-1.20437e-06
2.0902212e-06
-1.1582535e-06
2.1229192e-06
-1.1117569e-06
2.1549806e-06
-1.0648859e-06
2.1864058e-06
-1.017646e-06
2.2171943e-06
-9.7004255e-07
2.2473465e-06
-9.2207944e-07
2.2768612e-06
-8.7376101e-07
2.3057387e-06
-8.2509029e-07
2.3339776e-06
-7.7607092e-07
2.3615772e-06
-7.2670614e-07
2.3885357e-06
-6.7699654e-07
2.4148514e-06
-6.2694553e-07
2.4405229e-06
-5.7655459e-07
2.4655469e-06
-5.2582446e-07
2.4899205e-06
-4.7475653e-07
2.5136414e-06
-4.2335153e-07
2.536705e-06
-3.7160926e-07
2.559106e-06
-3.195308e-07
2.5808404e-06
-2.6711555e-07
2.6019e-06
-2.1436477e-07
2.6222787e-06
-1.6127745e-07
2.6419703e-06
-1.078544e-07
2.6609785e-06
-5.4095295e-08
2.6793292e-06
2.6970658e-06
-2.6667175e-06
-5.6435708e-07
-2.6678354e-06
-5.0963159e-07
-2.6675151e-06
-4.5465003e-07
-2.6657751e-06
-3.9946054e-07
-2.6626343e-06
-3.4410891e-07
-2.6581127e-06
-2.8863981e-07
-2.652231e-06
-2.3309663e-07
-2.6450109e-06
-1.7752076e-07
-2.6364746e-06
-1.2195256e-07
-2.626645e-06
-6.6430288e-08
-2.6155484e-06
-1.0988176e-08
-2.6032049e-06
4.4325916e-08
-2.5896409e-06
9.9491031e-08
-2.5748814e-06
1.5447019e-07
-2.5589515e-06
2.0923136e-07
-2.5418761e-06
2.6374535e-07
-2.5236809e-06
3.1798331e-07
-2.5043917e-06
3.7191848e-07
-2.4840341e-06
4.2552538e-07
-2.4626342e-06
4.7877958e-07
-2.4402167e-06
5.3165828e-07
-2.4168074e-06
5.8413946e-07
-2.3924316e-06
6.3620342e-07
-2.3671142e-06
6.8783025e-07
-2.34088e-06
7.3900309e-07
-2.3137538e-06
7.8970463e-07
-2.2857597e-06
8.3991886e-07
-2.2569212e-06
8.8963212e-07
-2.2272618e-06
9.3883056e-07
-2.1968045e-06
9.8750099e-07
-2.1655719e-06
1.0356331e-06
-2.1335858e-06
1.0832157e-06
-2.1008675e-06
1.1302395e-06
-2.0674391e-06
1.1766953e-06
-2.0333194e-06
1.2225752e-06
-1.9985295e-06
1.2678723e-06
-1.9630878e-06
1.3125797e-06
-1.9270138e-06
1.3566915e-06
-1.8903251e-06
1.4002028e-06
-1.8530397e-06
1.4431089e-06
-1.8151741e-06
1.4854062e-06
-1.7767447e-06
1.52709e-06
-1.7377668e-06
1.5681587e-06
-1.6982555e-06
1.6086087e-06
-1.6582262e-06
1.6484382e-06
-1.6176915e-06
1.6876449e-06
-1.5766652e-06
1.7262279e-06
-1.5351588e-06
1.7641859e-06
-1.4931851e-06
1.8015175e-06
-1.4507557e-06
1.8382223e-06
-1.4078803e-06
1.8742995e-06
-1.3645699e-06
1.9097489e-06
-1.3208335e-06
1.9445694e-06
-1.2766798e-06
1.9787617e-06
-1.2321177e-06
2.0123249e-06
-1.1871549e-06
2.0452587e-06
-1.1417986e-06
2.0775627e-06
-1.0960558e-06
2.1092377e-06
-1.0499325e-06
2.1402821e-06
-1.0034338e-06
2.1706959e-06
-9.5656596e-07
2.2004781e-06
-9.0933335e-07
2.2296287e-06
-8.6174044e-07
2.258146e-06
-8.1379127e-07
2.2860279e-06
-7.6548882e-07
2.3132748e-06
-7.1683652e-07
2.3398836e-06
-6.6783724e-07
2.3658525e-06
-6.1849353e-07
2.3911791e-06
-5.6880686e-07
2.4158605e-06
-5.1877983e-07
2.4398936e-06
-4.6841354e-07
2.463275e-06
-4.1770839e-07
2.4860002e-06
-3.6666717e-07
2.5080646e-06
-3.1528869e-07
2.5294624e-06
-2.6357582e-07
2.5501867e-06
-2.1152744e-07
2.5702306e-06
-1.5914563e-07
2.5895882e-06
-1.0642966e-07
2.6082631e-06
-5.338126e-08
2.6262809e-06
2.6436844e-06
-2.6052867e-06
-5.6132162e-07
-2.6069012e-06
-5.0801679e-07
-2.6071104e-06
-4.5444105e-07
-2.60593e-06
-4.006408e-07
-2.6033783e-06
-3.4666048e-07
-2.5994735e-06
-2.9254479e-07
-2.5942352e-06
-2.3833478e-07
-2.5876835e-06
-1.8407236e-07
-2.5798395e-06
-1.2979648e-07
-2.5707245e-06
-7.5545092e-08
-2.5603602e-06
-2.1352452e-08
-2.5487715e-06
3.2737105e-08
-2.5359801e-06
8.6699422e-08
-2.5220093e-06
1.4049918e-07
-2.5068834e-06
1.9410545e-07
-2.490626e-06
2.4748813e-07
-2.4732622e-06
3.0061907e-07
-2.4548155e-06
3.53472e-07
-2.4353109e-06
4.0602067e-07
-2.4147729e-06
4.5824162e-07
-2.3932254e-06
5.1011077e-07
-2.3706939e-06
5.6160761e-07
-2.3472011e-06
6.1271067e-07
-2.3227722e-06
6.634014e-07
-2.2974307e-06
7.1366161e-07
-2.2711998e-06
7.6347366e-07
-2.2441032e-06
8.1282257e-07
-2.2161638e-06
8.6169264e-07
-2.1874043e-06
9.1007085e-07
-2.1578462e-06
9.5794326e-07
-2.1275123e-06
1.0052989e-06
-2.0964235e-06
1.0521267e-06
-2.0646006e-06
1.0984166e-06
-2.0320637e-06
1.1441584e-06
-1.9988329e-06
1.1893445e-06
-1.9649277e-06
1.2339671e-06
-1.9303671e-06
1.2780187e-06
-1.8951688e-06
1.3214933e-06
-1.8593511e-06
1.3643853e-06
-1.8229311e-06
1.4066887e-06
-1.7859249e-06
1.4484002e-06
-1.7483491e-06
1.4895143e-06
-1.7102187e-06
1.5300281e-06
-1.6715485e-06
1.5699386e-06
-1.6323526e-06
1.6092427e-06
-1.5926455e-06
1.6479377e-06
-1.5524389e-06
1.6860218e-06
-1.5117464e-06
1.7234932e-06
-1.4705797e-06
1.7603504e-06
-1.4289493e-06
1.7965918e-06
-1.3868666e-06
1.8322167e-06
-1.3443414e-06
1.8672238e-06
-1.301384e-06
1.901612e-06
-1.2580026e-06
1.9353804e-06
-1.2142059e-06
1.9685285e-06
-1.1700019e-06
2.001055e-06
-1.1253989e-06
2.0329598e-06
-1.0804028e-06
2.0642416e-06
-1.0350204e-06
2.0948997e-06
-9.8925797e-07
2.1249338e-06
-9.4312105e-07
2.1543411e-06
-8.9661431e-07
2.1831224e-06
-8.4974288e-07
2.2112746e-06
-8.0251088e-07
2.2387962e-06
-7.5492183e-07
2.2656862e-06
-7.0698016e-07
2.2919417e-06
-6.5868839e-07
2.3175604e-06
-6.1004921e-07
2.34254e-06
-5.6106535e-07
2.3668769e-06
-5.1173944e-07
2.3905674e-06
-4.6207329e-07
2.4136088e-06
-4.1206834e-07
2.4359951e-06
-3.6172636e-07
2.4577227e-06
-3.1104891e-07
2.4787846e-06
-2.6003676e-07
2.4991749e-06
-2.0869096e-07
2.5188848e-06
-1.570131e-07
2.5379103e-06
-1.0500482e-07
2.5562545e-06
-5.266718e-08
2.5739429e-06
2.5910173e-06
-2.5453076e-06
-5.5785524e-07
-2.5473859e-06
-5.0593848e-07
-2.5480901e-06
-4.5373678e-07
-2.5474356e-06
-4.0129509e-07
-2.5454386e-06
-3.4865775e-07
-2.5421164e-06
-2.9586698e-07
-2.5374862e-06
-2.4296487e-07
-2.5315679e-06
-1.8999107e-07
-2.5243805e-06
-1.3698406e-07
-2.5159446e-06
-8.3981071e-08
-2.5062794e-06
-3.101735e-08
-2.4954097e-06
2.1867479e-08
-2.4833556e-06
7.4645058e-08
-2.4701387e-06
1.2728264e-07
-2.4557822e-06
1.7974893e-07
-2.4403087e-06
2.3201479e-07
-2.4237415e-06
2.8405219e-07
-2.4061044e-06
3.3583434e-07
-2.3874195e-06
3.8733621e-07
-2.3677109e-06
4.3853286e-07
-2.3470017e-06
4.894018e-07
-2.3253156e-06
5.3992118e-07
-2.3026751e-06
5.9007047e-07
-2.2791041e-06
6.3983022e-07
-2.2546247e-06
6.8918217e-07
-2.2292603e-06
7.3810886e-07
-2.2030329e-06
7.8659484e-07
-2.1759646e-06
8.3462459e-07
-2.1480776e-06
8.8218366e-07
-2.119393e-06
9.2925836e-07
-2.0899318e-06
9.758381e-07
-2.0597149e-06
1.0219101e-06
-2.0287622e-06
1.0674637e-06
-1.9970941e-06
1.1124901e-06
-1.9647296e-06
1.1569802e-06
-1.9316877e-06
1.2009247e-06
-1.8979859e-06
1.2443172e-06
-1.8636432e-06
1.287151e-06
-1.8286769e-06
1.3294185e-06
-1.7931029e-06
1.3711151e-06
-1.7569381e-06
1.4122352e-06
-1.7201984e-06
1.4527745e-06
-1.6828982e-06
1.4927282e-06
-1.6450525e-06
1.5320927e-06
-1.6066756e-06
1.5708658e-06
-1.567781e-06
1.6090431e-06
-1.5283814e-06
1.6466221e-06
-1.4884891e-06
1.6836011e-06
-1.448116e-06
1.7199773e-06
-1.4072733e-06
1.7557496e-06
-1.3659722e-06
1.7909154e-06
-1.3242219e-06
1.8254736e-06
-1.2820327e-06
1.859423e-06
-1.2394148e-06
1.8927617e-06
-1.1963748e-06
1.9254886e-06
-1.1529222e-06
1.9576026e-06
-1.1090645e-06
1.9891018e-06
-1.0648084e-06
2.0199854e-06
-1.020161e-06
2.0502525e-06
-9.7512842e-07
2.0799009e-06
-9.2971674e-07
2.1089294e-06
-8.83931e-07
2.1373365e-06
-8.3777613e-07
2.1651198e-06
-7.9125746e-07
2.1922774e-06
-7.4437897e-07
2.2188069e-06
-6.9714361e-07
2.2447066e-06
-6.4955652e-07
2.2699732e-06
-6.0161965e-07
2.2946031e-06
-5.5333663e-07
2.3185937e-06
-5.0471009e-07
2.341941e-06
-4.5574192e-07
2.364641e-06
-4.0643555e-07
2.3866885e-06
-3.567915e-07
2.4080788e-06
-3.068129e-07
2.4288054e-06
-2.5650062e-07
2.4488624e-06
-2.0585685e-07
2.468241e-06
-1.5488328e-07
2.4869366e-06
-1.0358153e-07
2.504953e-06
-5.1953608e-08
2.5223149e-06
2.5390636e-06
-2.4867521e-06
-5.53989e-07
-2.4892628e-06
-5.0342788e-07
-2.4904307e-06
-4.5256882e-07
-2.4902698e-06
-4.0145624e-07
-2.4887945e-06
-3.5013276e-07
-2.4860214e-06
-2.9864037e-07
-2.4819667e-06
-2.4701959e-07
-2.4766479e-06
-1.953097e-07
-2.4700834e-06
-1.4354828e-07
-2.4622925e-06
-9.1772159e-08
-2.4532935e-06
-4.0015944e-08
-2.4431091e-06
1.1682967e-08
-2.4317582e-06
6.3294079e-08
-2.4192619e-06
1.1478619e-07
-2.4056416e-06
1.661286e-07
-2.390919e-06
2.1729216e-07
-2.3751165e-06
2.6824925e-07
-2.3582551e-06
3.1897349e-07
-2.3403583e-06
3.6943911e-07
-2.3214476e-06
4.1962215e-07
-2.3015455e-06
4.6949975e-07
-2.2806741e-06
5.1904984e-07
-2.2588563e-06
5.6825244e-07
-2.2361133e-06
6.1708722e-07
-2.2124675e-06
6.6553647e-07
-2.1879404e-06
7.1358262e-07
-2.1625543e-06
7.6120881e-07
-2.1363305e-06
8.084007e-07
-2.1092892e-06
8.5514215e-07
-2.0814515e-06
9.0142099e-07
-2.0528381e-06
9.4722459e-07
-2.0234687e-06
9.9254051e-07
-1.9933633e-06
1.037358e-06
-1.9625405e-06
1.0816675e-06
-1.9310192e-06
1.125459e-06
-1.8988184e-06
1.168724e-06
-1.8659557e-06
1.2114544e-06
-1.8324478e-06
1.253643e-06
-1.7983129e-06
1.2952835e-06
-1.7635666e-06
1.3363686e-06
-1.7282253e-06
1.376894e-06
-1.6923042e-06
1.4168533e-06
-1.6558179e-06
1.4562421e-06
-1.618781e-06
1.4950562e-06
-1.5812077e-06
1.5332924e-06
-1.5431116e-06
1.5709466e-06
-1.5045042e-06
1.6080149e-06
-1.4653987e-06
1.6444958e-06
-1.4258069e-06
1.6803857e-06
-1.3857404e-06
1.7156827e-06
-1.345209e-06
1.7503843e-06
-1.3042234e-06
1.7844881e-06