/*--------------------------------*- C++ -*----------------------------------*\
| =========                 |                                                 |
| \\      /  F ield         | OpenFOAM: The Open Source CFD Toolbox           |
|  \\    /   O peration     | Version:  2306                                  |
|   \\  /    A nd           | Website:  www.openfoam.com                      |
|    \\/     M anipulation  |                                                 |
\*---------------------------------------------------------------------------*/
FoamFile
{
    version     2.0;
    format      ascii;
    arch        "LSB;label=32;scalar=64";
    class       surfaceScalarField;
    location    "0.5";
    object      phi;
}
// * * * * * * * * * * * * * * * * * * * * * * * * * * * * * * * * * * * * * //

dimensions      [0 3 -1 0 0 0 0];

oriented        oriented;

internalField   nonuniform List<scalar> 
101920
(
1.3970332e-09
-1.3970332e-09
5.6065205e-09
-4.2094872e-09
1.2472463e-08
-6.8659427e-09
2.1899414e-08
-9.4269512e-09
3.380913e-08
-1.1909716e-08
4.8141246e-08
-1.4332116e-08
6.4841253e-08
-1.6700008e-08
8.384455e-08
-1.9003297e-08
1.0507384e-07
-2.1229295e-08
1.2843904e-07
-2.3365201e-08
1.5383825e-07
-2.5399209e-08
1.8115879e-07
-2.7320532e-08
2.1027855e-07
-2.911976e-08
2.4106688e-07
-3.0788338e-08
2.7338575e-07
-3.2318869e-08
3.0709081e-07
-3.3705054e-08
3.4203177e-07
-3.4940966e-08
3.780535e-07
-3.6021725e-08
4.1499691e-07
-3.694341e-08
4.5270004e-07
-3.7703136e-08
4.9099926e-07
-3.8299218e-08
5.2972835e-07
-3.8729091e-08
5.6872198e-07
-3.8993628e-08
6.0781388e-07
-3.9091903e-08
6.4684026e-07
-3.9026375e-08
6.8563774e-07
-3.8797476e-08
7.2404632e-07
-3.8408579e-08
7.6190818e-07
-3.7861864e-08
7.9907507e-07
-3.7166887e-08
8.3539874e-07
-3.6323673e-08
8.7074065e-07
-3.5341908e-08
9.0496587e-07
-3.4225227e-08
9.3794944e-07
-3.2983572e-08
9.6957821e-07
-3.1628772e-08
9.9974885e-07
-3.0170638e-08
1.0283655e-06
-2.861665e-08
1.055318e-06
-2.6952545e-08
1.0805128e-06
-2.5194747e-08
1.1038803e-06
-2.336752e-08
1.1253613e-06
-2.1481027e-08
1.1449035e-06
-1.9542104e-08
1.1624471e-06
-1.7543648e-08
1.1779325e-06
-1.5485404e-08
1.191353e-06
-1.3420463e-08
1.2026899e-06
-1.1336969e-08
1.2119336e-06
-9.2436411e-09
1.2190841e-06
-7.1505274e-09
1.2241475e-06
-5.0633524e-09
1.2271228e-06
-2.9753035e-09
1.2279907e-06
-8.6792694e-10
1.2268708e-06
1.1198448e-09
1.2238338e-06
3.0369966e-09
1.2188928e-06
4.9410112e-09
1.2120785e-06
6.8143474e-09
1.2034647e-06
8.6137773e-09
1.1931071e-06
1.0357619e-08
1.1810778e-06
1.2029268e-08
1.1674429e-06
1.3634895e-08
1.1522992e-06
1.514378e-08
1.1357217e-06
1.6577452e-08
1.1177992e-06
1.7922542e-08
1.0986178e-06
1.9181333e-08
1.0782666e-06
2.0351237e-08
1.0568365e-06
2.1430138e-08
1.0344112e-06
2.2425305e-08
1.0110925e-06
2.3318686e-08
9.8696755e-07
2.412492e-08
9.6212485e-07
2.4842693e-08
9.3665996e-07
2.5464901e-08
9.1065804e-07
2.6001914e-08
8.8420591e-07
2.6452124e-08
8.5738824e-07
2.6817675e-08
8.3028866e-07
2.7099584e-08
8.0298947e-07
2.7299191e-08
7.7554081e-07
2.7448653e-08
7.4804795e-07
2.7492866e-08
7.2057397e-07
2.7473983e-08
6.9318334e-07
2.7390624e-08
6.6594142e-07
2.7241931e-08
6.3890377e-07
2.7037643e-08
6.121261e-07
2.6777669e-08
5.8566101e-07
2.6465091e-08
5.5955744e-07
2.6103575e-08
5.3386011e-07
2.5697335e-08
5.086081e-07
2.5252012e-08
4.8383825e-07
2.4769841e-08
4.5958408e-07
2.4254186e-08
4.3587657e-07
2.3707506e-08
4.1274022e-07
2.3136347e-08
3.9019791e-07
2.2542303e-08
3.6826899e-07
2.1928926e-08
3.4696974e-07
2.1299248e-08
3.2631365e-07
2.0656093e-08
3.0631088e-07
2.0002771e-08
2.869692e-07
1.934168e-08
2.6829415e-07
1.8675052e-08
2.5028934e-07
1.8004804e-08
2.329562e-07
1.7333144e-08
2.1629378e-07
1.6662415e-08
2.0029947e-07
1.5994312e-08
1.849692e-07
1.5330269e-08
1.7029771e-07
1.4671482e-08
1.5627854e-07
1.4019175e-08
1.4290317e-07
1.3375377e-08
1.301617e-07
1.2741465e-08
1.1804289e-07
1.211883e-08
1.0653442e-07
1.1508462e-08
9.5622367e-08
1.0912051e-08
8.5289339e-08
1.0333038e-08
7.551984e-08
9.7695005e-09
6.6300161e-08
9.2196793e-09
5.7616044e-08
8.6841129e-09
4.9453541e-08
8.1625052e-09
4.1800462e-08
7.6530696e-09
3.4648712e-08
7.1517567e-09
2.797891e-08
6.6697956e-09
2.175787e-08
6.2210444e-09
1.5972374e-08
5.7854903e-09
1.0609708e-08
5.362656e-09
5.6559836e-09
4.9537309e-09
1.0964598e-09
4.5595261e-09
-3.0839282e-09
4.1803907e-09
-6.9000673e-09
3.8161231e-09
-1.0366761e-08
3.4667035e-09
-1.3498584e-08
3.1318156e-09
-1.6309786e-08
2.8112031e-09
-1.8814302e-08
2.5045086e-09
-2.1025702e-08
2.2113929e-09
-2.29572e-08
1.9314991e-09
-2.4621656e-08
1.6644447e-09
-2.60315e-08
1.4098435e-09
-2.7198793e-08
1.1672988e-09
-2.8135191e-08
9.364017e-10
-2.885185e-08
7.1664388e-10
-2.9359182e-08
5.0734828e-10
-2.9666345e-08
3.0716055e-10
-2.9775378e-08
1.090166e-10
-2.971239e-08
-6.2974147e-11
-2.9489375e-08
-2.2301271e-10
-2.9109329e-08
-3.8004839e-10
-2.8579832e-08
-5.2948845e-10
-2.7909403e-08
-6.7043178e-10
-2.7106576e-08
-8.0283011e-10
-2.6179715e-08
-9.268588e-10
-2.5137099e-08
-1.0426156e-09
-2.3986917e-08
-1.1501788e-09
-2.2737421e-08
-1.2494901e-09
-2.1397228e-08
-1.34019e-09
-1.9975652e-08
-1.4215875e-09
-1.8483498e-08
-1.4921491e-09
-1.6934506e-08
-1.5490042e-09
-1.5347695e-08
-1.5868085e-09
-1.3751604e-08
-1.5960842e-09
-1.2190325e-08
-1.5612907e-09
-1.0729678e-08
-1.4606532e-09
-9.452911e-09
-1.2767671e-09
-8.4078457e-09
-1.045069e-09
-7.4016099e-09
-1.0062298e-09
-5.3758979e-09
-2.0257006e-09
-5.3759043e-09
2.1856018e-09
-3.582635e-09
8.5412043e-09
-1.056509e-08
1.8895145e-08
-1.7219884e-08
3.3031297e-08
-2.3563103e-08
5.0805903e-08
-2.9684322e-08
7.2112017e-08
-3.563823e-08
9.68398e-08
-4.142779e-08
1.2486677e-07
-4.7030265e-08
1.5605075e-07
-5.2413276e-08
1.9022816e-07
-5.7542611e-08
2.272151e-07
-6.2386151e-08
2.668087e-07
-6.6914134e-08
3.0878936e-07
-7.1100416e-08
3.529224e-07
-7.4921381e-08
3.9896135e-07
-7.8357815e-08
4.4664814e-07
-8.1391846e-08
4.9571571e-07
-8.4008533e-08
5.4588912e-07
-8.6195133e-08
5.9688862e-07
-8.7942915e-08
6.484293e-07
-8.9243816e-08
7.0022583e-07
-9.0095747e-08
7.5198993e-07
-9.0493191e-08
8.0343668e-07
-9.0440379e-08
8.5428153e-07
-8.9936754e-08
9.0424618e-07
-8.8991023e-08
9.5305755e-07
-8.7608848e-08
1.0004493e-06
-8.5800339e-08
1.0461629e-06
-8.357541e-08
1.0899578e-06
-8.0961847e-08
1.1315962e-06
-7.796208e-08
1.1708623e-06
-7.4608024e-08
1.2075421e-06
-7.0905006e-08
1.2414524e-06
-6.6893807e-08
1.2724134e-06
-6.2589865e-08
1.3002513e-06
-5.8008444e-08
1.3248256e-06
-5.3190998e-08
1.346006e-06
-4.8132932e-08
1.3636911e-06
-4.2879879e-08
1.3777987e-06
-3.7475074e-08
1.3882617e-06
-3.1944091e-08
1.3950378e-06
-2.6318124e-08
1.3980807e-06
-2.0586628e-08
1.3973348e-06
-1.4739435e-08
1.3928488e-06
-8.934507e-09
1.3846775e-06
-3.1656533e-09
1.3727767e-06
2.6571526e-09
1.3571622e-06
8.4639294e-09
1.3379579e-06
1.4140947e-08
1.3152694e-06
1.9713225e-08
1.2892364e-06
2.5165052e-08
1.2598776e-06
3.0478735e-08
1.2272997e-06
3.561484e-08
1.191674e-06
4.056667e-08
1.1531513e-06
4.5337063e-08
1.1118966e-06
4.9868538e-08
1.0680613e-06
5.4192908e-08
1.0218257e-06
5.8264815e-08
9.7332393e-07
6.2136698e-08
9.2278318e-07
6.568453e-08
8.7039359e-07
6.8967042e-08
8.1632182e-07
7.1994308e-08
7.6075783e-07
7.4745325e-08
7.0388916e-07
7.7219909e-08
6.4590655e-07
7.9412747e-08
5.8702472e-07
8.1307134e-08
5.2739843e-07
8.2944969e-08
4.6722085e-07
8.4302504e-08
4.066822e-07
8.5381342e-08
3.4594728e-07
8.6199827e-08
2.8519112e-07
8.6758068e-08
2.2458052e-07
8.7062723e-08
1.6428019e-07
8.711801e-08
1.0443708e-07
8.6942687e-08
4.5190702e-08
8.6545577e-08
-1.3260885e-08
8.5900237e-08
-7.0858404e-08
8.5090385e-08
-1.2746404e-07
8.4079619e-08
-1.8295656e-07
8.288315e-08
-2.3722685e-07
8.1512219e-08
-2.9017413e-07
7.9984919e-08
-3.4170676e-07
7.8310307e-08
-3.9174172e-07
7.6500047e-08
-4.4020423e-07
7.4566078e-08
-4.870274e-07
7.252051e-08
-5.3215177e-07
7.037638e-08
-5.7552583e-07
6.8143897e-08
-6.1710563e-07
6.5833978e-08
-6.5685466e-07
6.3456539e-08
-6.9474248e-07
6.1024175e-08
-7.3074574e-07
5.8545558e-08
-7.6484731e-07
5.6030492e-08
-7.9703614e-07
5.3488095e-08
-8.27307e-07
5.0926947e-08
-8.5565982e-07
4.8355585e-08
-8.8209965e-07
4.5781521e-08
-9.0663636e-07
4.3211754e-08
-9.2928424e-07
4.0652691e-08
-9.5006143e-07
3.8110326e-08
-9.6898904e-07
3.5590047e-08
-9.8609104e-07
3.3096301e-08
-1.0013942e-06
3.0633406e-08
-1.0149274e-06
2.8204738e-08
-1.0267209e-06
2.5812639e-08
-1.0368093e-06
2.3463742e-08
-1.0452294e-06
2.1161648e-08
-1.0520203e-06
1.8909644e-08
-1.0572204e-06
1.6708614e-08
-1.0608668e-06
1.455848e-08
-1.0630006e-06
1.2466761e-08
-1.0636732e-06
1.0442098e-08
-1.0629239e-06
8.4703663e-09
-1.0607914e-06
6.5516803e-09
-1.0573145e-06
4.685612e-09
-1.0525292e-06
2.8677478e-09
-1.0464582e-06
1.080744e-09
-1.0391862e-06
-6.0220872e-10
-1.0307796e-06
-2.1855493e-09
-1.0212477e-06
-3.7463512e-09
-1.0106241e-06
-5.2609799e-09
-9.9894669e-07
-6.7236753e-09
-9.8625391e-07
-8.1332528e-09
-9.7258346e-07
-9.4900587e-09
-9.5797227e-07
-1.079507e-08
-9.4245612e-07
-1.2049449e-08
-9.2606985e-07
-1.3254453e-08
-9.088472e-07
-1.4411453e-08
-8.9082088e-07
-1.5521801e-08
-8.7202245e-07
-1.6587025e-08
-8.5248244e-07
-1.7608516e-08
-8.3223021e-07
-1.8587789e-08
-8.1129406e-07
-1.952631e-08
-7.8970121e-07
-2.0425546e-08
-7.6747776e-07
-2.1287034e-08
-7.4464882e-07
-2.2112316e-08
-7.2123849e-07
-2.2902992e-08
-6.9727048e-07
-2.3660869e-08
-6.7277385e-07
-2.4387606e-08
-6.4775805e-07
-2.5078769e-08
-6.2224318e-07
-2.5737873e-08
-5.9625384e-07
-2.636939e-08
-5.6980927e-07
-2.6974063e-08
-5.4292734e-07
-2.7552362e-08
-5.1562517e-07
-2.8105002e-08
-4.8791939e-07
-2.8632645e-08
-4.5982621e-07
-2.9135798e-08
-4.3136161e-07
-2.9614783e-08
-4.0254159e-07
-3.0069525e-08
-3.7338256e-07
-3.0499202e-08
-3.4390209e-07
-3.0902061e-08
-3.1411988e-07
-3.1274357e-08
-2.8405944e-07
-3.1609434e-08
-2.5375032e-07
-3.1895916e-08
-2.232306e-07
-3.2115813e-08
-1.9254726e-07
-3.2244636e-08
-1.6174903e-07
-3.225888e-08
-1.3085691e-07
-3.2168885e-08
-9.9783826e-08
-3.2118152e-08
-6.8170098e-08
-3.2619969e-08
-3.5259348e-08
-3.4936476e-08
-4.0635247e-08
1.974071e-09
-5.5567061e-09
7.729479e-09
-1.6320497e-08
1.7132368e-08
-2.6622773e-08
2.9990383e-08
-3.6421119e-08
4.6152859e-08
-4.5846797e-08
6.5485927e-08
-5.4971299e-08
8.7850996e-08
-6.3792858e-08
1.1309743e-07
-7.2276704e-08
1.4105617e-07
-8.0372014e-08
1.715377e-07
-8.8024135e-08
2.0433238e-07
-9.5180833e-08
2.3921083e-07
-1.0179259e-07
2.7592641e-07
-1.07816e-07
3.1421639e-07
-1.1321136e-07
3.5380672e-07
-1.1794815e-07
3.9440975e-07
-1.2199488e-07
4.3572972e-07
-1.253285e-07
4.7746291e-07
-1.2792833e-07
5.1930347e-07
-1.2978348e-07
5.609376e-07
-1.3087794e-07
6.0205523e-07
-1.3121337e-07
6.423478e-07
-1.3078577e-07
6.8150581e-07
-1.2959839e-07
7.1922539e-07
-1.2765633e-07
7.5521482e-07
-1.2498045e-07
7.891846e-07
-1.2157863e-07
8.2086036e-07
-1.1747611e-07
8.4996564e-07
-1.1268069e-07
8.762628e-07
-1.07259e-07
8.9950354e-07
-1.0120282e-07
9.1948187e-07
-9.4586355e-08
9.3598225e-07
-8.7405391e-08
9.488399e-07
-7.9751459e-08
9.5788094e-07
-7.1630898e-08
9.6297075e-07
-6.3098252e-08
9.6398642e-07
-5.4206668e-08
9.6081932e-07
-4.4965836e-08
9.5340299e-07
-3.5463547e-08
9.4167522e-07
-2.5747301e-08
9.2562551e-07
-1.5894376e-08
9.0529631e-07
-5.9889304e-09
8.8056828e-07
4.1414097e-09
8.514277e-07
1.4401144e-08
8.1798166e-07
2.4511529e-08
7.8026325e-07
3.4552754e-08
7.384836e-07
4.4436806e-08
6.9271585e-07
5.4231684e-08
6.4308805e-07
6.376875e-08
5.8973684e-07
7.3064429e-08
5.3280658e-07
8.209531e-08
4.7248283e-07
9.0802493e-08
4.0893552e-07
9.9162145e-08
3.4235717e-07
1.0714503e-07
2.7300234e-07
1.1469189e-07
2.0102943e-07
1.2184145e-07
1.2670282e-07
1.2851952e-07
5.0233797e-08
1.3473383e-07
-2.8046199e-08
1.4041669e-07
-1.0802912e-07
1.4566745e-07
-1.894446e-07
1.5038252e-07
-2.7203574e-07
1.5458545e-07
-3.5555314e-07
1.5826273e-07
-4.3975059e-07
1.6141736e-07
-5.2438698e-07
1.6404914e-07
-6.0922879e-07
1.6614894e-07
-6.940365e-07
1.6775268e-07
-7.7858262e-07
1.6884862e-07
-8.6264811e-07
1.6944683e-07
-9.4601614e-07
1.6956786e-07
-1.0284797e-06
1.692216e-07
-1.1098406e-06
1.6842369e-07
-1.1899126e-06
1.6719003e-07
-1.2685127e-06
1.6554273e-07
-1.3454666e-06
1.6349947e-07
-1.4206407e-06
1.6107432e-07
-1.4938552e-06
1.5830494e-07
-1.5649795e-06
1.5520386e-07
-1.6338882e-06
1.5179188e-07
-1.7004669e-06
1.4809092e-07
-1.7646081e-06
1.4412612e-07
-1.826217e-06
1.399192e-07
-1.8852094e-06
1.3549251e-07
-1.9415118e-06
1.3086848e-07
-1.9950606e-06
1.2606932e-07
-2.0458014e-06
1.2111712e-07
-2.0936899e-06
1.1603245e-07
-2.1386914e-06
1.1083549e-07
-2.1807806e-06
1.0554567e-07
-2.219939e-06
1.0018261e-07
-2.2561575e-06
9.4764033e-08
-2.2894342e-06
8.9307174e-08
-2.3197745e-06
8.3828396e-08
-2.3471906e-06
7.8343111e-08
-2.3717009e-06
7.2865867e-08
-2.3933295e-06
6.7410146e-08
-2.4121062e-06
6.1988419e-08
-2.4280658e-06
5.661226e-08
-2.4412475e-06
5.1292033e-08
-2.4516943e-06
4.6036846e-08
-2.4594528e-06
4.0854773e-08
-2.4645718e-06
3.5752444e-08
-2.4671035e-06
3.0736468e-08
-2.4670978e-06
2.5806947e-08
-2.4646136e-06
2.0979517e-08
-2.4597093e-06
1.6257361e-08
-2.4524445e-06
1.164478e-08
-2.4428763e-06
7.1404788e-09
-2.4310429e-06
2.7250795e-09
-2.4170723e-06
-1.5038609e-09
-2.4010205e-06
-5.6096876e-09
-2.3829238e-06
-9.6263466e-09
-2.3628417e-06
-1.3530466e-08
-2.3408373e-06
-1.7318798e-08
-2.316977e-06
-2.0992503e-08
-2.2913443e-06
-2.455194e-08
-2.2639677e-06
-2.7978827e-08
-2.2348808e-06
-3.1272514e-08
-2.2041707e-06
-3.4456394e-08
-2.1718995e-06
-3.7532219e-08
-2.1381229e-06
-4.0500257e-08
-2.1028945e-06
-4.336166e-08
-2.0662663e-06
-4.6118213e-08
-2.0282891e-06
-4.8772328e-08
-1.9890119e-06
-5.1326576e-08
-1.9484826e-06
-5.3783786e-08
-1.9067471e-06
-5.6146898e-08
-1.8638501e-06
-5.8418871e-08
-1.8198343e-06
-6.0602854e-08
-1.7747409e-06
-6.2701849e-08
-1.7286097e-06
-6.4719018e-08
-1.6814785e-06
-6.6657445e-08
-1.6333839e-06
-6.8520237e-08
-1.5843604e-06
-7.0310447e-08
-1.5344416e-06
-7.2031147e-08
-1.4836593e-06
-7.3685306e-08
-1.4320443e-06
-7.527582e-08
-1.3796269e-06
-7.6805056e-08
-1.3264315e-06
-7.8274194e-08
-1.272483e-06
-7.9686313e-08
-1.2178075e-06
-8.1044916e-08
-1.1624291e-06
-8.2352492e-08
-1.1063704e-06
-8.3611073e-08
-1.0496528e-06
-8.4822557e-08
-9.9229692e-07
-8.5988519e-08
-9.3432243e-07
-8.7110285e-08
-8.7574849e-07
-8.8188735e-08
-8.1659388e-07
-8.9224112e-08
-7.5687748e-07
-9.0215608e-08
-6.966187e-07
-9.1160835e-08
-6.3583811e-07
-9.2054956e-08
-5.7455817e-07
-9.2889376e-08
-5.1280362e-07
-9.3650458e-08
-4.5060022e-07
-9.4319215e-08
-3.8796971e-07
-9.487514e-08
-3.2491607e-07
-9.5312525e-08
-2.6139893e-07
-9.5686019e-08
-1.972983e-07
-9.6218778e-08
-1.3240866e-07
-9.7509618e-08
-6.6572534e-08
-1.0077259e-07
-1.0720779e-07
1.4732447e-09
-7.0299508e-09
5.8674177e-09
-2.0714671e-08
1.3111619e-08
-3.3866974e-08
2.3093759e-08
-4.6403259e-08
3.5685334e-08
-5.8438371e-08
5.0742424e-08
-7.0028388e-08
6.8111537e-08
-8.1161972e-08
8.762712e-08
-9.1792286e-08
1.091081e-07
-1.01853e-07
1.323573e-07
-1.1127334e-07
1.5715997e-07
-1.1998349e-07
1.8328439e-07
-1.2791701e-07
2.1048392e-07
-1.3501553e-07
2.3849655e-07
-1.4122398e-07
2.6704981e-07
-1.4650141e-07
2.9586069e-07
-1.5080576e-07
3.2463779e-07
-1.541056e-07
3.5308099e-07
-1.5637153e-07
3.8089036e-07
-1.5759284e-07
4.0776734e-07
-1.5775492e-07
4.3340761e-07
-1.5685364e-07
4.5750732e-07
-1.5488548e-07
4.7977825e-07
-1.5186932e-07
4.999239e-07
-1.4780198e-07
5.176659e-07
-1.4272245e-07
5.3274975e-07
-1.3666248e-07
5.4490423e-07
-1.2963058e-07
5.5388477e-07
-1.2166123e-07
5.5947237e-07
-1.1284661e-07
5.6142768e-07
-1.0315812e-07
5.5958702e-07
-9.2745695e-08
5.5377797e-07
-8.1596339e-08
5.4384136e-07
-6.9814849e-08
5.2964528e-07
-5.7434824e-08
5.1109864e-07
-4.4551606e-08
4.8809489e-07
-3.1202918e-08
4.6057057e-07
-1.744152e-08
4.2856254e-07
-3.4555137e-09
3.9189347e-07
1.0921768e-08
3.5066195e-07
2.5337141e-08
3.0481069e-07
3.9862331e-08
2.5447503e-07
5.4477077e-08
1.998978e-07
6.8978364e-08
1.4095056e-07
8.3458774e-08
7.7840176e-08
9.7663135e-08
1.0637977e-08
1.11639e-07
-6.041604e-08
1.2528571e-07
-1.3525572e-07
1.3860843e-07
-2.136698e-07
1.5147851e-07
-2.9543909e-07
1.6386461e-07
-3.8034764e-07
1.7571105e-07
-4.6816332e-07
1.8697782e-07
-5.5864156e-07
1.9762327e-07
-6.5155235e-07
2.0760267e-07
-7.466113e-07
2.169004e-07
-8.4356846e-07
2.2547668e-07
-9.4214412e-07
2.333095e-07
-1.042102e-06
2.4037461e-07
-1.1431139e-06
2.4667936e-07
-1.2449248e-06
2.5219333e-07
-1.347256e-06
2.5691672e-07
-1.4498365e-06
2.6084317e-07
-1.5523945e-06
2.6397538e-07
-1.6546631e-06
2.663178e-07
-1.75639e-06
2.6787577e-07
-1.8573102e-06
2.6867287e-07
-1.9571797e-06
2.6871816e-07
-2.0557625e-06
2.6802963e-07
-2.1528264e-06
2.6663181e-07
-2.2481524e-06
2.6454759e-07
-2.3415316e-06
2.6180283e-07
-2.432767e-06
2.5842543e-07
-2.5216708e-06
2.5444654e-07
-2.6080682e-06
2.4989691e-07
-2.6918021e-06
2.4480816e-07
-2.7727149e-06
2.3921775e-07
-2.8506691e-06
2.3315811e-07
-2.9255402e-06
2.266629e-07
-2.9972159e-06
2.1976669e-07
-3.0655951e-06
2.125053e-07
-3.1305892e-06
2.0491325e-07
-3.1921216e-06
1.9702498e-07
-3.2501277e-06
1.8887452e-07
-3.3045537e-06
1.8049534e-07
-3.3553567e-06
1.7192015e-07
-3.4025047e-06
1.6318039e-07
-3.4459756e-06
1.5430645e-07
-3.4857576e-06
1.453276e-07
-3.5218471e-06
1.3627216e-07
-3.5542499e-06
1.2716677e-07
-3.5829795e-06
1.1803686e-07
-3.6080575e-06
1.0890638e-07
-3.6295125e-06
9.9798046e-08
-3.6473796e-06
9.0733029e-08
-3.6617003e-06
8.1730826e-08
-3.6725221e-06
7.2810229e-08
-3.6798973e-06
6.3987442e-08
-3.6838828e-06
5.5277599e-08
-3.6845414e-06
4.669539e-08
-3.6819329e-06
3.8246294e-08
-3.6761274e-06
2.9946948e-08
-3.6671972e-06
2.1806216e-08
-3.655195e-06
1.3804796e-08
-3.6402013e-06
5.9858241e-09
-3.6222895e-06
-1.6545e-09
-3.6015453e-06
-9.0993987e-09
-3.5780492e-06
-1.635565e-08
-3.551902e-06
-2.3422076e-08
-3.5231307e-06
-3.0275126e-08
-3.4918157e-06
-3.6924729e-08
-3.4580562e-06
-4.3385862e-08
-3.4219303e-06
-4.9656325e-08
-3.3835142e-06
-5.5734914e-08
-3.3428848e-06
-6.1621941e-08
-3.3001198e-06
-6.7316961e-08
-3.2552824e-06
-7.2816238e-08
-3.2084329e-06
-7.8122e-08
-3.1596456e-06
-8.3243648e-08
-3.1089911e-06
-8.8186687e-08
-3.0565363e-06
-9.2955055e-08
-3.0023454e-06
-9.7552575e-08
-2.9464803e-06
-1.0198334e-07
-2.8890009e-06
-1.0625175e-07
-2.829965e-06
-1.1036248e-07
-2.7694285e-06
-1.143203e-07
-2.7074451e-06
-1.1813028e-07
-2.6440666e-06
-1.2179737e-07
-2.5793427e-06
-1.2532678e-07
-2.5133209e-06
-1.2872357e-07
-2.446047e-06
-1.3199292e-07
-2.3775645e-06
-1.3513996e-07
-2.3079151e-06
-1.3816967e-07
-2.2371384e-06
-1.4108712e-07
-2.1652723e-06
-1.4389719e-07
-2.0923529e-06
-1.4660473e-07
-2.0184145e-06
-1.492142e-07
-1.9434896e-06
-1.5172998e-07
-1.8676079e-06
-1.5415588e-07
-1.7907979e-06
-1.5649632e-07
-1.7130872e-06
-1.5875562e-07
-1.6345019e-06
-1.6093776e-07
-1.5550667e-06
-1.6304629e-07
-1.4748048e-06
-1.6508446e-07
-1.3937382e-06
-1.6705515e-07
-1.3118877e-06
-1.6896075e-07
-1.2292734e-06
-1.708031e-07
-1.1459143e-06
-1.7258322e-07
-1.0618289e-06
-1.7430097e-07
-9.7703529e-07
-1.7595446e-07
-8.9155078e-07
-1.7753946e-07
-8.0539181e-07
-1.7904835e-07
-7.185723e-07
-1.8046999e-07
-6.3110057e-07
-1.8179094e-07
-5.4297311e-07
-1.8300259e-07
-4.5416519e-07
-1.8412045e-07
-3.6462241e-07
-1.8522881e-07
-2.7427228e-07
-1.8656891e-07
-1.8310737e-07
-1.886745e-07
-9.1406856e-08
-1.924731e-07
-1.9861465e-07
1.0441457e-09
-8.0740965e-09
4.2301891e-09
-2.3900714e-08
9.5583369e-09
-3.9195122e-08
1.6986873e-08
-5.3831795e-08
2.6414834e-08
-6.7866332e-08
3.7702752e-08
-8.1316306e-08
5.06916e-08
-9.415082e-08
6.521055e-08
-1.0631124e-07
8.1072311e-08
-1.1771476e-07
9.8076949e-08
-1.2827797e-07
1.1601158e-07
-1.3791812e-07
1.3464454e-07
-1.4654998e-07
1.5373293e-07
-1.5410391e-07
1.7303077e-07
-1.6052182e-07
1.9226485e-07
-1.6573549e-07
2.1116283e-07
-1.6970373e-07
2.2944278e-07
-1.7238555e-07
2.4683351e-07
-1.7376227e-07
2.630228e-07
-1.7378213e-07
2.7773731e-07
-1.7246943e-07
2.9068189e-07
-1.6979822e-07
3.0158605e-07
-1.6578964e-07
3.1015204e-07
-1.6043531e-07
3.1614402e-07
-1.5379395e-07
3.1926264e-07
-1.4584107e-07
3.1929098e-07
-1.3669082e-07
3.1594549e-07
-1.2628509e-07
3.0906756e-07
-1.1478331e-07
2.9840057e-07
-1.0217962e-07
2.838195e-07
-8.8577057e-08
2.6511119e-07
-7.4037393e-08
2.42092e-07
-5.8577141e-08
2.1468542e-07
-4.2408274e-08
1.8282613e-07
-2.5575529e-08
1.4640597e-07
-8.1314408e-09
1.0535493e-07
9.8481112e-09
5.9720265e-08
2.8193149e-08
9.3592243e-09
4.6905526e-08
-4.5560333e-08
6.5841327e-08
-1.0515556e-07
8.4932364e-08
-1.6933872e-07
1.0404549e-07
-2.3797198e-07
1.2311034e-07
-3.1099917e-07
1.4200556e-07
-3.8822024e-07
1.6067984e-07
-4.6955747e-07
1.7900037e-07
-5.5482052e-07
1.9690205e-07
-6.4384191e-07
2.143071e-07
-7.3638109e-07
2.3114761e-07
-8.322379e-07
2.4733532e-07
-9.3117974e-07
2.6280644e-07
-1.0329644e-06
2.774957e-07
-1.1373341e-06
2.9134757e-07
-1.2440215e-06
3.0431059e-07
-1.3527558e-06
3.16337e-07
-1.4632485e-06
3.2739316e-07
-1.5752138e-06
3.3744191e-07
-1.6883601e-06
3.4645578e-07
-1.8023988e-06
3.5441337e-07
-1.9170233e-06
3.6130378e-07
-2.0319426e-06
3.671127e-07
-2.1468626e-06
3.7183672e-07
-2.2614949e-06
3.7547541e-07
-2.3755545e-06
3.7803499e-07
-2.4887629e-06
3.7952619e-07
-2.6008514e-06
3.7996432e-07
-2.7115517e-06
3.7937312e-07
-2.8206091e-06
3.7777564e-07
-2.9277796e-06
3.7520009e-07
-3.0328271e-06
3.7167934e-07
-3.135528e-06
3.6724851e-07
-3.2356707e-06
3.6194549e-07
-3.333056e-06
3.5581073e-07
-3.4274968e-06
3.4888731e-07
-3.5188194e-06
3.4121954e-07
-3.6068645e-06
3.3285323e-07
-3.691483e-06
3.2383633e-07
-3.7725411e-06
3.1421615e-07
-3.8499186e-06
3.0404038e-07
-3.9235089e-06
2.9335706e-07
-3.9932183e-06
2.8221467e-07
-4.0589659e-06
2.7066088e-07
-4.1206838e-06
2.5874282e-07
-4.1783161e-06
2.4650686e-07
-4.2318191e-06
2.3399834e-07
-4.2811603e-06
2.2126136e-07
-4.3263185e-06
2.083385e-07
-4.3672828e-06
1.9527077e-07
-4.4040527e-06
1.820975e-07
-4.4366369e-06
1.6885635e-07
-4.4650531e-06
1.5558305e-07
-4.4893277e-06
1.423114e-07
-4.5094945e-06
1.2907324e-07
-4.525595e-06
1.1589848e-07
-4.537677e-06
1.0281502e-07
-4.5457948e-06
8.9848638e-08
-4.5500076e-06
7.7023062e-08
-4.5503807e-06
6.4360526e-08
-4.546983e-06
5.1879867e-08
-4.5398874e-06
3.9599868e-08
-4.529175e-06
2.7533843e-08
-4.514916e-06
1.568799e-08
-4.4972277e-06
4.1178867e-09
-4.4760946e-06
-7.3282641e-09
-4.4516644e-06
-1.8444427e-08
-4.424036e-06
-2.9282939e-08
-4.3932885e-06
-3.9846844e-08
-4.3595108e-06
-5.0133351e-08
-4.3227944e-06
-6.0138491e-08
-4.2832145e-06
-6.9855024e-08
-4.2408539e-06
-7.9285367e-08
-4.195805e-06
-8.8434695e-08
-4.1481565e-06
-9.7304847e-08
-4.0979941e-06
-1.0589733e-07
-4.0454021e-06
-1.1421396e-07
-3.9904625e-06
-1.2225656e-07
-3.9332518e-06
-1.3002695e-07
-3.873844e-06
-1.3752978e-07
-3.8123155e-06
-1.4477212e-07
-3.7487415e-06
-1.5176074e-07
-3.6831945e-06
-1.5850202e-07
-3.6157447e-06
-1.650024e-07
-3.5464596e-06
-1.712684e-07
-3.4754045e-06
-1.7730681e-07
-3.4026424e-06
-1.8312466e-07
-3.3282335e-06
-1.8872914e-07
-3.2522362e-06
-1.9412756e-07
-3.1747063e-06
-1.9932727e-07
-3.0956973e-06
-2.0433579e-07
-3.0152604e-06
-2.0916053e-07
-2.9334444e-06
-2.1380891e-07
-2.850296e-06
-2.1828833e-07
-2.7658597e-06
-2.2260602e-07
-2.6801776e-06
-2.2676917e-07
-2.59329e-06
-2.3078481e-07
-2.505235e-06
-2.3465978e-07
-2.4160485e-06
-2.3840068e-07
-2.3257646e-06
-2.420139e-07
-2.2344149e-06
-2.4550549e-07
-2.1420297e-06
-2.4888158e-07
-2.0486373e-06
-2.5214803e-07
-1.9542646e-06
-2.5531043e-07
-1.8589369e-06
-2.5837396e-07
-1.7626779e-06
-2.6134343e-07
-1.66551e-06
-2.6422312e-07
-1.5674539e-06
-2.6701682e-07
-1.4685293e-06
-2.697277e-07
-1.3687545e-06
-2.7235798e-07
-1.2681467e-06
-2.749088e-07
-1.1667213e-06
-2.7737982e-07
-1.064492e-06
-2.7976876e-07
-9.6146918e-07
-2.8207121e-07
-8.5765813e-07
-2.8428103e-07
-7.5305586e-07
-2.8639319e-07
-6.4764701e-07
-2.8841146e-07
-5.4140146e-07
-2.90366e-07
-4.3428198e-07
-2.9234828e-07
-3.2628178e-07
-2.9456909e-07
-2.1752959e-07
-2.9742667e-07
-1.0848085e-07
-3.0152186e-07
-3.0709549e-07
7.7869624e-10
-8.8527928e-09
3.1923217e-09
-2.631434e-08
7.2768585e-09
-4.3279659e-08
1.303034e-08
-5.9585276e-08
2.0375221e-08
-7.5211214e-08
2.918224e-08
-9.0123325e-08
3.9297002e-08
-1.0426558e-07
5.0544782e-08
-1.1755902e-07
6.2738102e-08
-1.2990808e-07
7.5674448e-08
-1.4121432e-07
8.9138161e-08
-1.5138183e-07
1.0290712e-07
-1.6031894e-07
1.1673987e-07
-1.6793667e-07
1.3038e-07
-1.7416195e-07
1.4357328e-07
-1.7892878e-07
1.5604898e-07
-1.8217943e-07
1.6753217e-07
-1.8386874e-07
1.7773647e-07
-1.8396657e-07
1.8641544e-07
-1.824611e-07
1.9325136e-07
-1.7930535e-07
1.9798932e-07
-1.7453617e-07
2.0034575e-07
-1.6814607e-07
2.0006449e-07
-1.6015406e-07
1.9686434e-07
-1.505938e-07
1.9053382e-07
-1.3951055e-07
1.8078062e-07
-1.2693761e-07
1.674709e-07
-1.1297537e-07
1.5038606e-07
-9.7698464e-08
1.2923803e-07
-8.1031589e-08
1.0390572e-07
-6.3244742e-08
7.4208851e-08
-4.4340524e-08
4.0223164e-08
-2.4591455e-08
1.6414392e-09
-3.8265503e-09
-4.1499254e-08
1.7565162e-08
-8.9373643e-08
3.9742947e-08
-1.4198395e-07
6.2458414e-08
-1.9937272e-07
8.5581923e-08
-2.6149181e-07
1.0902462e-07
-3.2831482e-07
1.3266434e-07
-3.9976461e-07
1.5638215e-07
-4.7577156e-07
1.8005245e-07
-5.5622238e-07
2.0356116e-07
-6.4100101e-07
2.2678419e-07
-7.299423e-07
2.4962113e-07
-8.2289273e-07
2.719508e-07
-9.1966444e-07
2.9367375e-07
-1.0200511e-06
3.1469376e-07
-1.1238218e-06
3.3491836e-07
-1.2307423e-06
3.542558e-07
-1.3405606e-06
3.7262472e-07
-1.4530139e-06
3.8994896e-07
-1.5678271e-06
4.061608e-07
-1.6847159e-06
4.2119937e-07
-1.8033897e-06
4.3501088e-07
-1.9235479e-06
4.475513e-07
-2.0448877e-06
4.587817e-07
-2.1671033e-06
4.686714e-07
-2.2898877e-06
4.7719777e-07
-2.4129301e-06
4.8434623e-07
-2.5359247e-06
4.901073e-07
-2.6585677e-06
4.9447964e-07
-2.7805602e-06
4.9746798e-07
-2.9016092e-06
4.9908397e-07
-3.0214284e-06
4.9934543e-07
-3.1397403e-06
4.9827621e-07
-3.2562741e-06
4.9590689e-07
-3.3707702e-06
4.9227171e-07
-3.4829799e-06
4.8740985e-07
-3.5926658e-06
4.8136521e-07
-3.6996025e-06
4.7418522e-07
-3.8035777e-06
4.6592069e-07
-3.9043923e-06
4.5662534e-07
-4.0018606e-06
4.463556e-07
-4.0958108e-06
4.3516978e-07
-4.1860854e-06
4.2312782e-07
-4.2725402e-06
4.102911e-07
-4.3550454e-06
3.9672134e-07
-4.4334856e-06
3.8248059e-07
-4.5077595e-06
3.6763098e-07
-4.5777793e-06
3.5223449e-07
-4.6434708e-06
3.3635232e-07
-4.7047728e-06
3.2004479e-07
-4.7616368e-06
3.0337094e-07
-4.8140269e-06
2.8638841e-07
-4.8619186e-06
2.6915306e-07
-4.9052989e-06
2.5171881e-07
-4.9441656e-06
2.3413747e-07
-4.9785267e-06
2.1645861e-07
-5.0083998e-06
1.9872946e-07
-5.0338116e-06
1.8099484e-07
-5.0547972e-06
1.63297e-07
-5.0713995e-06
1.4567551e-07
-5.0836686e-06
1.2816762e-07
-5.0916616e-06
1.1080801e-07
-5.0954416e-06
9.3628609e-08
-5.0950776e-06
7.6659037e-08
-5.0906437e-06
5.9926635e-08
-5.0822224e-06
4.3458565e-08
-5.0698948e-06
2.7272329e-08
-5.0537609e-06
1.1399938e-08
-5.0338305e-06
-4.2424131e-09
-5.0101851e-06
-1.952757e-08
-4.9830449e-06
-3.4468381e-08
-4.9524386e-06
-4.9050776e-08
-4.9184543e-06
-6.3267251e-08
-4.8811868e-06
-7.7114355e-08
-4.8407314e-06
-9.058871e-08
-4.7971829e-06
-1.03687e-07
-4.7506314e-06
-1.1640652e-07
-4.7011682e-06
-1.2874857e-07
-4.6488868e-06
-1.4071612e-07
-4.5938795e-06
-1.5231214e-07
-4.5362369e-06
-1.6353991e-07
-4.4760476e-06
-1.7440327e-07
-4.4133976e-06
-1.8490655e-07
-4.3483697e-06
-1.9505489e-07
-4.2810446e-06
-2.0485491e-07
-4.211502e-06
-2.1431468e-07
-4.1398201e-06
-2.2344269e-07
-4.0660745e-06
-2.3224759e-07
-3.9903386e-06
-2.407383e-07
-3.9126831e-06
-2.4892393e-07
-3.833176e-06
-2.5681384e-07
-3.7518831e-06
-2.6441762e-07
-3.6688672e-06
-2.7174496e-07
-3.5841891e-06
-2.7880572e-07
-3.4979065e-06
-2.8560983e-07
-3.4100751e-06
-2.9216723e-07
-3.3207477e-06
-2.984879e-07
-3.229975e-06
-3.0458164e-07
-3.137805e-06
-3.104583e-07
-3.0442835e-06
-3.161275e-07
-2.949454e-06
-3.215987e-07
-2.8533576e-06
-3.2688124e-07
-2.7560332e-06
-3.3198416e-07
-2.6575176e-06
-3.3691626e-07
-2.5578454e-06
-3.4168608e-07
-2.4570491e-06
-3.4630183e-07
-2.3551592e-06
-3.5077148e-07
-2.2522044e-06
-3.5510278e-07
-2.1482118e-06
-3.5930307e-07
-2.0432066e-06
-3.6337923e-07
-1.9372122e-06
-3.6733774e-07
-1.8302508e-06
-3.7118453e-07
-1.7223428e-06
-3.7492492e-07
-1.6135069e-06
-3.7856359e-07
-1.5037605e-06
-3.821044e-07
-1.393119e-06
-3.8555024e-07
-1.281596e-06
-3.8890282e-07
-1.1692021e-06
-3.9216269e-07
-1.055944e-06
-3.9532923e-07
-9.4182305e-07
-3.98402e-07
-8.2683285e-07
-4.0138342e-07
-7.1095841e-07
-4.042859e-07
-5.9417931e-07
-4.0714511e-07
-4.7648491e-07
-4.1004269e-07
-3.5791587e-07
-4.1313813e-07
-2.3865002e-07
-4.1669253e-07
-1.1912418e-07
-4.2104769e-07
-4.2621968e-07
6.5935251e-10
-9.5121453e-09
2.7049602e-09
-2.8359947e-08
6.1777893e-09
-4.6752488e-08
1.1086863e-08
-6.449435e-08
1.7366262e-08
-8.1490613e-08
2.4899073e-08
-9.7656136e-08
3.3536441e-08
-1.1290295e-07
4.3102722e-08
-1.271253e-07
5.3412048e-08
-1.402174e-07
6.4260737e-08
-1.5206301e-07
7.5431127e-08
-1.6255222e-07
8.6692225e-08
-1.7158003e-07
9.7802936e-08
-1.7904738e-07
1.0851332e-07
-1.8487234e-07
1.1855849e-07
-1.8897395e-07
1.2767508e-07
-1.9129602e-07
1.3560034e-07
-1.91794e-07
1.4203112e-07
-1.9039735e-07
1.467001e-07
-1.8713008e-07
1.4935897e-07
-1.8196422e-07
1.4968562e-07
-1.7486282e-07
1.4744189e-07
-1.6590235e-07
1.4235838e-07
-1.5507055e-07
1.3416337e-07
-1.423988e-07
1.2265753e-07
-1.2800471e-07
1.0755567e-07
-1.1183575e-07
8.8690128e-08
-9.4109825e-08
6.577283e-08
-7.4781164e-08
3.8798601e-08
-5.4057364e-08
7.4642388e-09
-3.1910375e-08
-2.8247038e-08
-8.6292479e-09
-6.8586501e-08
1.5748009e-08
-1.1357233e-07
4.1159287e-08
-1.6338737e-07
6.7380201e-08
-2.1798044e-07
9.4336016e-08
-2.7739002e-07
1.21868e-07
-3.416335e-07
1.498254e-07
-4.1068153e-07
1.7807264e-07
-4.8448384e-07
2.0646665e-07
-5.6296455e-07
2.3486287e-07
-6.4602923e-07
2.6311713e-07
-7.3355684e-07
2.9108876e-07
-8.2541026e-07
3.1863761e-07
-9.2142203e-07
3.4563289e-07
-1.0214137e-06
3.7194243e-07
-1.1251837e-06
3.9744383e-07
-1.2325111e-06
4.2202114e-07
-1.3431568e-06
4.4556406e-07