/*--------------------------------*- C++ -*----------------------------------*\
| =========                 |                                                 |
| \\      /  F ield         | OpenFOAM: The Open Source CFD Toolbox           |
|  \\    /   O peration     | Version:  2306                                  |
|   \\  /    A nd           | Website:  www.openfoam.com                      |
|    \\/     M anipulation  |                                                 |
\*---------------------------------------------------------------------------*/
FoamFile
{
    version     2.0;
    format      ascii;
    arch        "LSB;label=32;scalar=64";
    class       volVectorField;
    location    "0.08";
    object      U;
}
// * * * * * * * * * * * * * * * * * * * * * * * * * * * * * * * * * * * * * //

dimensions      [0 1 -1 0 0 0 0];

internalField   nonuniform List<vector> 
6400
(
(-0.00021723385 -0.0071962877 7.1018173e-18)
(-0.00048888622 -0.0071803939 1.0751934e-17)
(-0.00079894784 -0.0071248765 1.8060922e-18)
(-0.0010941464 -0.0070382633 -1.3724451e-18)
(-0.0013882674 -0.006920192 -1.0142789e-17)
(-0.0016703458 -0.0067725597 -3.224026e-18)
(-0.0019385908 -0.0065976045 -4.1562069e-18)
(-0.0021911009 -0.0063975451 -2.8104757e-18)
(-0.0024260675 -0.0061747515 1.4441108e-19)
(-0.0026419587 -0.0059317143 -2.260331e-18)
(-0.0028375774 -0.0056710099 -9.6402305e-19)
(-0.0030120346 -0.0053952657 -6.0003546e-19)
(-0.003164734 -0.0051071254 -9.4361956e-19)
(-0.0032953589 -0.0048092135 -2.6488852e-20)
(-0.0034038552 -0.0045041029 4.4093192e-20)
(-0.0034904137 -0.0041942849 5.5650495e-19)
(-0.0035554491 -0.0038821428 -8.5229169e-19)
(-0.003599578 -0.0035699291 -1.213998e-19)
(-0.003623595 -0.003259746 3.7057103e-19)
(-0.0036284482 -0.0029535301 2.2144699e-19)
(-0.0036152141 -0.0026530406 -1.8536592e-19)
(-0.0035850729 -0.0023598522 -2.7957965e-19)
(-0.0035392836 -0.0020753504 -4.5912102e-19)
(-0.003479161 -0.0018007314 3.123976e-19)
(-0.0034060507 -0.0015370045 9.1353185e-19)
(-0.003321309 -0.0012850014 -2.6130142e-19)
(-0.0032262889 -0.0010453783 -4.3224415e-19)
(-0.0031223234 -0.00081862719 2.0500815e-20)
(-0.00301071 -0.00060508802 4.6803339e-19)
(-0.0028926978 -0.00040496025 5.7622595e-19)
(-0.0027694702 -0.00021832618 -1.4846461e-19)
(-0.0026421279 -4.5160391e-05 -2.4107938e-19)
(-0.0025118204 0.00011480101 -7.0604739e-20)
(-0.0023795427 0.00026169071 1.9667836e-19)
(-0.0022461266 0.00039583442 2.5628873e-19)
(-0.0021124137 0.00051761486 -3.1859124e-19)
(-0.0019791618 0.00062746048 -1.0970054e-19)
(-0.0018470489 0.00072584314 1.7841715e-21)
(-0.001716678 0.00081326829 6.0643065e-20)
(-0.0015885811 0.00089026603 1.3798476e-19)
(-0.0014632215 0.00095738372 3.8117819e-20)
(-0.0013409981 0.0010151786 5.111619e-20)
(-0.0012222486 0.0010642117 -1.4944294e-19)
(-0.0011072539 0.0011050426 -2.2075669e-19)
(-0.0009962431 0.0011382257 -5.6832266e-20)
(-0.00088939724 0.0011643056 5.0703238e-20)
(-0.00078685316 0.0011838136 -2.9921123e-20)
(-0.00068870699 0.0011972657 -2.9783614e-20)
(-0.00059501806 0.0012051591 -1.6293686e-19)
(-0.0005058154 0.0012079723 -7.1981363e-20)
(-0.00042109645 0.0012061618 3.3928311e-20)
(-0.00034083365 0.0012001624 1.198452e-20)
(-0.00026497729 0.0011903865 -1.0984642e-20)
(-0.00019345735 0.0011772226 -6.5601452e-20)
(-0.00012618686 0.0011610371 3.7186702e-20)
(-6.3027382e-05 0.0011421688 7.2049588e-20)
(-3.9539419e-06 0.0011209127 1.7770431e-21)
(5.1122105e-05 0.0010977052 -1.9613353e-20)
(0.00010243199 0.0010726736 -6.2880345e-20)
(0.00015010591 0.001046123 -4.9939235e-21)
(0.00019426427 0.0010182929 3.3154427e-20)
(0.0002350485 0.00098940034 5.9069432e-21)
(0.00027260121 0.00095964632 -6.5761666e-20)
(0.00030706598 0.00092921453 -6.9073803e-20)
(0.00033858614 0.00089827246 3.6452475e-20)
(0.00036730409 0.00086697212 2.6796242e-20)
(0.00039336043 0.00083545116 2.2444646e-20)
(0.0004168932 0.00080383341 -3.5102461e-21)
(0.00043803759 0.00077223055 -2.5845596e-20)
(0.00045692541 0.00074074223 2.9432202e-20)
(0.00047368462 0.00070945715 5.8841931e-20)
(0.0004884392 0.00067845402 -3.1190076e-20)
(0.00050130891 0.00064780211 -1.9011816e-20)
(0.00051240911 0.00061756201 -2.8522172e-20)
(0.00052185063 0.00058778648 2.0155506e-20)
(0.00052973977 0.00055852086 1.2915527e-20)
(0.00053617827 0.00052980371 -1.6064397e-21)
(0.00054126326 0.00050166802 -1.2244104e-20)
(0.00054508735 0.0004741407 -1.525482e-20)
(0.00054773871 0.00044724377 -4.435965e-21)
(-0.00019662278 -0.0065988183 2.1745809e-18)
(-0.0004424959 -0.0065846885 -7.4284545e-18)
(-0.00072325125 -0.0065353013 -5.7851458e-19)
(-0.00099079796 -0.0064582102 -6.06489e-19)
(-0.0012576669 -0.0063530317 2.8672401e-19)
(-0.0015139886 -0.0062214062 -1.4301507e-19)
(-0.0017581932 -0.0060652675 -1.6581154e-18)
(-0.0019885921 -0.0058865261 7.4114267e-19)
(-0.0022035685 -0.0056872275 -3.2326759e-19)
(-0.0024017313 -0.0054695289 -7.0391773e-19)
(-0.0025819783 -0.0052356703 6.8095107e-19)
(-0.0027434741 -0.004987945 7.0414221e-19)
(-0.0028856378 -0.0047286699 4.3552023e-19)
(-0.003008133 -0.0044601542 8.5428757e-19)
(-0.0031108544 -0.0041846707 2.3493844e-19)
(-0.0031939132 -0.0039044298 -4.2679062e-19)
(-0.0032576204 -0.003621555 4.6617749e-19)
(-0.0033024675 -0.0033380626 6.5961763e-19)
(-0.003329107 -0.0030558434 8.7241824e-19)
(-0.0033383317 -0.0027766492 7.5205993e-19)
(-0.0033310528 -0.0025020814 1.2533153e-18)
(-0.0033082786 -0.0022335833 6.0428646e-19)
(-0.0032710938 -0.0019724359 5.3078177e-20)
(-0.0032206388 -0.001719756 8.8680726e-19)
(-0.0031580897 -0.0014764971 -7.7894042e-19)
(-0.0030846379 -0.0012434566 -4.8800295e-19)
(-0.0030014776 -0.0010212782 3.1345185e-19)
(-0.0029097926 -0.000810459 4.10687e-19)
(-0.0028107415 -0.00061135952 6.7980691e-19)
(-0.0027054457 -0.00042421291 -6.6289797e-19)
(-0.0025949756 -0.00024913743 -3.4061362e-19)
(-0.002480332 -8.6145389e-05 8.2460879e-20)
(-0.0023625604 6.4837377e-05 8.072357e-20)
(-0.0022425696 0.00020399235 2.3769728e-19)
(-0.0021211372 0.0003315627 -6.8923296e-19)
(-0.0019990481 0.00044784402 -2.619116e-19)
(-0.0018770104 0.00055318666 1.0745531e-19)
(-0.001755663 0.00064798481 8.3428138e-20)
(-0.0016355788 0.00073266735 8.3591677e-20)
(-0.0015172674 0.00080768965 -4.2207716e-19)
(-0.0014011774 0.00087352673 -2.666916e-19)
(-0.0012876991 0.00093066645 -1.4361945e-19)
(-0.0011771674 0.00097960367 -2.5936108e-19)
(-0.001069865 0.0010208351 -1.9119834e-19)
(-0.00096602631 0.0010548554 -9.2676555e-20)
(-0.00086584187 0.0010821535 -1.7467039e-20)
(-0.00076946088 0.0011032093 -1.5203927e-19)
(-0.00067699462 0.0011184903 -1.6814769e-19)
(-0.00058851924 0.00112845 -1.6539088e-19)
(-0.00050408231 0.0011335258 -7.8556784e-20)
(-0.00042370102 0.0011341382 -3.077377e-20)
(-0.00034736835 0.0011306875 -7.6002176e-20)
(-0.00027505597 0.0011235567 -6.3916758e-20)
(-0.00020671538 0.0011131072 -1.0066477e-19)
(-0.00014228032 0.0010996808 -8.0630657e-20)
(-8.1659067e-05 0.0010836019 1.7009698e-20)
(-2.4761839e-05 0.0010651242 2.1200841e-20)
(2.8418859e-05 0.0010446799 -2.6516007e-21)
(7.8036761e-05 0.0010223981 -1.0311467e-19)
(0.00012428649 0.00099855383 -1.0130635e-19)
(0.00016724379 0.00097338036 -4.4370796e-21)
(0.00020703267 0.00094708634 -7.0839959e-21)
(0.00024377909 0.00091986513 -8.0415396e-20)
(0.00027761043 0.00089189432 -7.6200677e-20)
(0.00030865487 0.00086333674 -2.557758e-20)
(0.00033704041 0.00083434051 -2.5601449e-21)
(0.0003628942 0.00080504075 7.0917731e-21)
(0.00038634161 0.00077555944 -3.0139236e-20)
(0.00040750592 0.000746007 -3.8279447e-20)
(0.00042650793 0.00071648277 -9.5233148e-21)
(0.00044346538 0.00068707558 2.4320723e-20)
(0.0004584927 0.00065786472 -1.8974005e-21)
(0.00047170086 0.00062892059 -2.9045505e-20)
(0.00048319702 0.00060030525 -3.3137753e-20)
(0.00049308457 0.00057207299 -3.1625701e-21)
(0.00050146296 0.00054427132 5.7566177e-22)
(0.00050842761 0.00051694084 -2.7144567e-21)
(0.00051406982 0.00049011699 -2.1812663e-20)
(0.00051847695 0.00046382905 -1.7905011e-20)
(0.00052173255 0.00043810159 -8.3572373e-21)
(-0.00017825765 -0.0060575869 4.1236395e-19)
(-0.00040115947 -0.0060449928 -7.1879221e-18)
(-0.00065578345 -0.0060009533 1.2827629e-18)
(-0.0008986344 -0.0059321765 5.922432e-18)
(-0.0011411188 -0.0058382738 5.215163e-18)
(-0.00137434 -0.005720669 8.18008e-19)
(-0.001596918 -0.0055810386 2.5975e-18)
(-0.0018073513 -0.0054210345 2.9815416e-18)
(-0.0020041956 -0.0052424273 3.2406969e-18)
(-0.0021861894 -0.0050470902 1.7339561e-18)
(-0.0023523212 -0.0048369747 1.720119e-18)
(-0.0025018107 -0.0046140858 5.7182468e-20)
(-0.002634099 -0.0043804566 3.3322775e-19)
(-0.0027488407 -0.0041381206 -2.4622053e-19)
(-0.0028458939 -0.0038890874 -4.1162953e-19)
(-0.0029253078 -0.0036353189 7.0106453e-19)
(-0.0029873092 -0.0033787078 1.7201557e-19)
(-0.0030322869 -0.0031210591 4.5160508e-20)
(-0.0030607747 -0.0028640734 -2.3157298e-19)
(-0.0030734339 -0.0026093346 -2.7160051e-19)
(-0.0030710352 -0.0023582992 -6.1698092e-19)
(-0.0030544398 -0.0021122883 -9.4412738e-19)
(-0.0030245817 -0.0018724839 1.8793259e-19)
(-0.0029824499 -0.0016399252 -3.2493677e-19)
(-0.0029290715 -0.0014155098 3.1235688e-19)
(-0.0028654937 -0.0011999969 5.668489e-19)
(-0.0027927702 -0.00099401171 -2.8983421e-19)
(-0.0027119513 -0.00079804928 -3.5577595e-21)
(-0.0026240713 -0.0006124821 -2.9678565e-19)
(-0.0025301359 -0.00043756775 2.1584018e-19)
(-0.0024311107 -0.00027345892 5.969418e-19)
(-0.0023279094 -0.00012021467 -2.4598322e-19)
(-0.0022214816 2.218095e-05 -1.2883927e-19)
(-0.0021126507 0.00015387723 -2.9448875e-19)
(-0.0020021382 0.00027503221 5.092997e-20)
(-0.0018906795 0.00038588035 5.9356573e-19)
(-0.001778935 0.00048670844 1.5716352e-22)
(-0.0016675036 0.00057784391 3.9495301e-20)
(-0.0015569273 0.00065964908 -1.7085655e-19)
(-0.0014476921 0.00073251376 -1.4710814e-19)
(-0.0013402293 0.00079684865 3.2251927e-19)
(-0.0012349179 0.00085307947 1.4217062e-20)
(-0.0011320871 0.00090164164 -1.4301284e-19)
(-0.0010320182 0.00094297503 1.464584e-20)
(-0.00093494809 0.00097752021 -1.4470658e-20)
(-0.00084107293 0.0010057151 -8.8962391e-23)
(-0.00075055089 0.0010279918 -1.3631539e-19)
(-0.00066350467 0.0010447737 -4.765868e-20)
(-0.0005800239 0.0010564731 -5.382075e-22)
(-0.00050017106 0.0010634894 2.1498762e-20)
(-0.00042398031 0.0010662087 6.4914718e-21)
(-0.00035146182 0.0010649995 -3.7092851e-20)
(-0.00028260506 0.001060216 1.0594777e-21)
(-0.00021738093 0.0010521939 2.4539941e-20)
(-0.00015574167 0.0010412516 6.8396979e-20)
(-9.7628422e-05 0.0010276918 -1.9458302e-20)
(-4.2920419e-05 0.0010117794 -1.6590284e-20)
(8.3465035e-06 0.00099381583 4.1351925e-20)
(5.6262091e-05 0.00097407794 2.2508502e-20)
(0.00010104602 0.0009527316 2.5355283e-20)
(0.00014275489 0.00093001767 -4.179579e-20)
(0.00018149275 0.00090613849 -4.4058859e-20)
(0.00021737039 0.00088127872 -2.3384506e-21)
(0.0002505003 0.00085560976 2.9170074e-20)
(0.00028099653 0.0008292891 3.1885421e-20)
(0.0003089738 0.00080246085 -3.6630888e-20)
(0.00033454649 0.00077525674 -2.3596413e-20)
(0.00035782821 0.00074779657 2.4212594e-20)
(0.00037893122 0.00072018904 3.0344051e-20)
(0.00039796576 0.00069253254 4.2218634e-21)
(0.00041503981 0.00066491557 -2.5901689e-20)
(0.00043025882 0.00063741743 -1.4860453e-20)
(0.00044372526 0.00061010916 -9.428767e-21)
(0.00045553863 0.0005830537 1.8990218e-20)
(0.00046579512 0.00055630664 1.7081192e-20)
(0.00047458742 0.00052991687 -3.4108419e-20)
(0.00048200486 0.0005039269 -2.6324685e-20)
(0.0004881332 0.00047837386 1.6402481e-21)
(0.00049305471 0.00045328926 1.4378668e-20)
(0.00049684815 0.00042869972 3.9965547e-21)
(-0.00016185705 -0.0055665247 4.6509853e-18)
(-0.00036424412 -0.0055552727 6.9702766e-18)
(-0.00059551698 -0.0055159138 2.1825208e-18)
(-0.00081626838 -0.0054544208 9.2326123e-19)
(-0.0010368949 -0.0053704101 9.8834611e-19)
(-0.0012493646 -0.0052651213 4.2027485e-19)
(-0.0014524616 -0.0051400128 2.3180139e-19)
(-0.0016448489 -0.0049965182 2.7495794e-18)
(-0.0018252363 -0.0048361743 8.2612697e-19)
(-0.0019924811 -0.004660612 -4.4043799e-19)
(-0.0021456571 -0.0044715347 -7.3619989e-19)
(-0.0022840388 -0.0042706986 -5.9923754e-19)
(-0.0024070933 -0.0040598899 1.1320903e-19)
(-0.0025144746 -0.0038409016 2.5790663e-20)
(-0.0026060151 -0.0036155119 1.1607553e-18)
(-0.0026817163 -0.0033854635 -1.727103e-18)
(-0.0027417376 -0.0031524442 -9.2851622e-19)
(-0.002786383 -0.0029180699 -3.6528005e-19)
(-0.0028160874 -0.0026838704 2.2560401e-20)
(-0.0028314014 -0.0024512773 1.1094057e-18)
(-0.0028329757 -0.0022216143 -6.856481e-19)
(-0.0028215455 -0.0019960896 -3.7350703e-19)
(-0.0027979151 -0.0017757915 -1.745248e-19)
(-0.0027629419 -0.0015616852 5.2953841e-20)
(-0.0027175227 -0.0013546119 9.3878372e-19)
(-0.0026625774 -0.0011552911 -2.0454757e-19)
(-0.0025990365 -0.00096432542 -3.001115e-19)
(-0.0025278316 -0.00078220126 6.1342449e-20)
(-0.0024498848 -0.00060929591 -5.2202874e-20)
(-0.0023660985 -0.00044588375 7.010012e-19)
(-0.0022773443 -0.00029214422 -9.2663091e-20)
(-0.0021844542 -0.00014817765 -4.2400883e-19)
(-0.002088267 -1.4010196e-05 -1.6539873e-19)
(-0.0019895538 0.00011051072 -2.0630197e-19)
(-0.0018889972 0.00022543355 4.0050861e-19)
(-0.00178726 0.00033094681 -5.0165823e-20)
(-0.0016849585 0.00042728638 -1.9916765e-19)
(-0.0015826544 0.00051472222 -1.3826221e-19)
(-0.0014808589 0.00059355892 -1.8087065e-19)
(-0.0013800335 0.00066412863 6.2963361e-20)
(-0.001280591 0.00072678521 -1.0709187e-19)
(-0.0011828974 0.0007818989 -1.3369078e-19)
(-0.0010872734 0.0008298516 -1.4768219e-20)
(-0.00099399671 0.00087103198 2.5899643e-20)
(-0.00090330403 0.00090583169 -9.8382307e-20)
(-0.00081539417 0.00093464207 -4.2084545e-20)
(-0.00073043118 0.00095785145 -1.7075047e-21)
(-0.00064854626 0.00097584238 2.41622e-20)
(-0.00056983965 0.00098898909 -5.4997756e-21)
(-0.00049438556 0.00099765547 -2.0315496e-20)
(-0.00042223186 0.0010021954 -2.7570691e-20)
(-0.00035340331 0.0010029473 8.9010496e-21)
(-0.00028790469 0.0010002385 -2.5639001e-20)
(-0.00022572319 0.00099437961 1.6907849e-20)
(-0.00016682686 0.0009856675 1.1437382e-19)
(-0.00011117409 0.00097438347 -7.4300707e-20)
(-5.8678042e-05 0.00096079435 -1.007334e-19)
(-9.3266558e-06 0.0009451036 -3.0991969e-20)
(3.6908801e-05 0.00092770143 1.4143196e-21)
(8.018746e-05 0.00090865147 5.5301597e-20)
(0.00012061197 0.00088821027 -4.9675451e-20)
(0.00015825547 0.00086657099 -9.0608264e-20)
(0.00019321358 0.00084390922 -2.9336849e-20)
(0.00022558537 0.00082038967 5.472795e-22)
(0.00025547191 0.00079616423 5.216384e-20)
(0.00028297542 0.0007713725 -8.9815054e-21)
(0.00030819865 0.00074614258 -5.03181e-20)
(0.00033124412 0.0007205915 -6.3388592e-21)
(0.00035221355 0.00069482583 -4.1123883e-21)
(0.00037120747 0.00066894264 1.8734267e-20)
(0.00038832468 0.00064302955 -3.5440761e-21)
(0.00040366194 0.00061716552 -4.3568091e-20)
(0.00041731385 0.00059142166 -3.5056819e-20)
(0.00042937243 0.00056586132 -6.7810347e-21)
(0.00043992686 0.00054054108 2.0557348e-20)
(0.00044906357 0.00051551072 -8.2169848e-22)
(0.00045686601 0.00049081431 -2.8225907e-20)
(0.00046341442 0.00046649018 -1.6628855e-20)
(0.00046878613 0.00044257174 -1.9845271e-20)
(0.00047305528 0.00041908737 5.4118847e-21)
(-0.00014718014 -0.0051203144 5.0589339e-18)
(-0.00033120814 -0.0051102393 6.3268633e-18)
(-0.00054157181 -0.0050749901 -2.8605041e-19)
(-0.00074250932 -0.0050198975 -5.4179598e-18)
(-0.000943509 -0.0049445892 -1.7386797e-18)
(-0.0011373084 -0.0048501479 -5.2821732e-18)
(-0.0013228341 -0.0047378455 -2.5596121e-18)
(-0.0014988938 -0.0046089312 -9.9864398e-19)
(-0.0016643345 -0.0044647423 -2.8130295e-18)
(-0.0018181217 -0.0043067019 -9.6725773e-19)
(-0.0019594085 -0.0041363002 5.1426117e-19)
(-0.0020875229 -0.0039550778 2.0510899e-18)
(-0.0022019607 -0.0037646063 6.1028452e-19)
(-0.0023023806 -0.0035664689 1.3096877e-18)
(-0.0023885983 -0.0033622405 1.782091e-19)
(-0.0024605792 -0.00315347 2.9898372e-19)
(-0.0025184287 -0.0029416633 1.008797e-18)
(-0.0025623814 -0.002728268 3.3806007e-19)
(-0.0025927896 -0.00251466 7.2132022e-19)
(-0.0026101105 -0.0023021333 1.1523708e-19)
(-0.0026148931 -0.0020918902 1.5897008e-19)
(-0.0026077646 -0.0018850347 -9.9531253e-20)
(-0.0025894171 -0.0016825672 -6.8897251e-20)
(-0.0025605941 -0.001485382 4.4385911e-19)
(-0.0025220781 -0.0012942656 -9.023992e-21)
(-0.0024746774 -0.0011098971 -3.9852045e-19)
(-0.0024192134 -0.00093285246 -1.2720319e-19)
(-0.0023565122 -0.00076360577 9.132431e-20)
(-0.0022873964 -0.00060253286 3.2155936e-19)
(-0.0022126758 -0.00044991788 1.0375269e-19)
(-0.0021331398 -0.00030595854 -3.8466599e-19)
(-0.0020495453 -0.00017077762 -2.8926074e-19)
(-0.001962594 -4.4426607e-05 -1.470339e-19)
(-0.0018730431 7.316547e-05 1.9210472e-19)
(-0.0017815634 0.00018204 1.8400508e-19)
(-0.0016887136 0.00028233854 -3.8898509e-19)
(-0.0015950697 0.00037424456 -1.4700947e-19)
(-0.0015011607 0.00045797771 -1.2581307e-19)
(-0.0014074677 0.00053379165 2.5959188e-19)
(-0.0013144277 0.00060196762 1.2613223e-19)
(-0.0012224342 0.00066280921 -1.2562708e-19)
(-0.0011318383 0.00071663723 -5.50726e-20)
(-0.0010429508 0.0007637856 -1.8825292e-19)
(-0.00095604333 0.00080459693 -1.1130686e-19)
(-0.0008713506 0.00083941861 -1.5534138e-19)
(-0.00078907191 0.00086859967 -1.5144144e-20)
(-0.00070937439 0.00089248837 7.2164597e-20)
(-0.00063239503 0.00091142968 -2.1966966e-20)
(-0.00055824217 0.00092576252 -7.2807128e-20)
(-0.0004869992 0.00093581815 -6.5290284e-20)
(-0.00041872512 0.00094191971 -5.6938356e-20)
(-0.00035345677 0.00094437809 3.6057654e-21)
(-0.00029121195 0.00094349456 -2.8585642e-20)
(-0.00023199137 0.00093955667 4.3152891e-20)
(-0.00017577758 0.00093284017 8.8468314e-20)
(-0.00012254286 0.00092360568 -1.9635575e-20)
(-7.2237427e-05 0.00091210584 -3.9692037e-20)
(-2.4784988e-05 0.00089853702 -2.6724199e-20)
(1.9767437e-05 0.00088322469 2.7767531e-20)
(6.1518749e-05 0.00086629643 7.760175e-20)
(0.00010063848 0.00084795426 -1.7103001e-20)
(0.00013715574 0.00082838924 -4.5687655e-20)
(0.00017115447 0.00080777019 -4.903185e-20)
(0.00020272192 0.00078625452 4.2924263e-21)
(0.00023194721 0.00076398858 5.8230718e-20)
(0.00025892119 0.00074110697 4.8989797e-23)
(0.00028373582 0.00071773397 -2.0238342e-20)
(0.00030648325 0.00069398348 1.0263777e-20)
(0.0003272554 0.00066995958 4.3124745e-21)
(0.0003461436 0.00064575742 5.1407509e-20)
(0.00036323808 0.00062146362 4.1795607e-21)
(0.00037862747 0.00059715622 -3.0210662e-20)
(0.00039239871 0.00057290609 -2.1514639e-20)
(0.00040463675 0.00054877663 6.0388894e-21)
(0.00041542431 0.00052482486 3.4881271e-20)
(0.00042484158 0.00050110126 -5.3758413e-22)
(0.00043296632 0.00047765093 -2.5276146e-20)
(0.00043987361 0.00045451329 -1.7483161e-20)
(0.00044563581 0.00043172298 -8.261801e-21)
(0.00045032267 0.00040931003 2.4015457e-20)
(-0.00013401972 -0.0047142836 5.1020556e-19)
(-0.00030158549 -0.0047052441 -8.1730075e-18)
(-0.00049319061 -0.0046736138 2.8542459e-18)
(-0.000676332 -0.0046241609 -3.351061e-18)
(-0.00085967899 -0.0045565283 -7.57283e-19)
(-0.0010366551 -0.0044716644 7.7941619e-19)
(-0.0012063115 -0.004370682 -1.3017361e-18)
(-0.0013675827 -0.0042546725 -1.708681e-18)
(-0.0015194378 -0.0041248031 -9.1177256e-19)
(-0.0016609405 -0.003982318 -5.9778883e-19)
(-0.0017913176 -0.0038285238 -3.2012743e-19)
(-0.0019099481 -0.0036647743 -9.0074789e-19)
(-0.0020163572 -0.0034924544 -1.1192512e-18)
(-0.002110213 -0.0033129636 -9.3123387e-19)
(-0.0021913215 -0.0031276984 -8.3384865e-19)
(-0.0022596206 -0.0029380367 8.6264693e-20)
(-0.0023151729 -0.002745323 -6.0337333e-19)
(-0.0023581562 -0.0025508542 -6.2729537e-19)
(-0.0023888543 -0.0023558688 -3.7953314e-19)
(-0.0024076457 -0.002161536 -4.3114863e-19)
(-0.0024149929 -0.0019689475 -3.4205121e-19)
(-0.0024114306 -0.0017791111 -3.1368704e-19)
(-0.0023975543 -0.0015929458 -4.8289616e-19)
(-0.0023740084 -0.0014112786 -2.0360985e-20)
(-0.0023414757 -0.0012348424 7.7204025e-20)
(-0.0023006659 -0.0010642765 -3.7971121e-19)
(-0.0022523043 -0.0009001284 -4.057705e-19)
(-0.0021971236 -0.00074285612 -1.4437883e-19)
(-0.0021358566 -0.00059283011 2.8122375e-19)
(-0.0020692281 -0.00045033797 2.6311669e-19)
(-0.0019979473 -0.00031558948 -2.9353572e-19)
(-0.0019226991 -0.00018872055 -2.5925965e-19)
(-0.0018441328 -6.9800728e-05 3.3468094e-20)
(-0.0017629281 4.1144946e-05 4.1817372e-19)
(-0.0016796887 0.00014418145 2.496442e-19)
(-0.0015949437 0.00023940917 -1.2590966e-19)
(-0.0015092289 0.00032696332 1.2573023e-19)
(-0.0014230353 0.00040701996 1.4992178e-19)
(-0.0013368134 0.00047978834 3.2263849e-19)
(-0.0012509749 0.00054550502 2.8215636e-19)
(-0.0011658931 0.00060442913 1.6691226e-19)
(-0.0010819039 0.00065683776 -1.0410794e-19)
(-0.00099930634 0.00070302188 -2.1054452e-19)
(-0.00091836469 0.00074328268 -6.3515996e-20)
(-0.00083930933 0.00077792749 -8.1010246e-20)
(-0.0007623385 0.00080726724 -6.4402736e-22)
(-0.00068762048 0.00083161354 -7.8229047e-20)
(-0.00061529576 0.00085127673 -7.5527483e-20)
(-0.00054547832 0.00086656335 -2.5386361e-20)
(-0.00047825838 0.00087777428 -1.2026663e-20)
(-0.00041370416 0.00088520428 -3.7038163e-20)
(-0.00035186245 0.00088913819 -5.4489891e-20)
(-0.00029276149 0.00088985291 -5.1674559e-20)
(-0.00023641361 0.00088761431 -4.316001e-20)
(-0.00018281428 0.00088267765 5.9457362e-20)
(-0.00013194667 0.00087528477 1.8646614e-20)
(-8.3781378e-05 0.00086567172 -5.3138222e-20)
(-3.8241914e-05 0.00085404586 -4.7909885e-20)
(4.6293624e-06 0.0008406176 -1.7218761e-20)
(4.4881605e-05 0.00082564736 4.4057471e-20)
(8.2671408e-05 0.00080923902 -1.2562703e-20)
(0.00011803803 0.00079159135 -5.7495501e-20)
(0.0001510464 0.00077286759 -7.9765516e-20)
(0.00018177237 0.00075321736 -3.5357358e-20)
(0.00021029399 0.00073278116 5.0729974e-20)
(0.00023669161 0.00071168857 -1.27355e-20)
(0.00026104699 0.00069005968 -3.9902594e-20)
(0.00028344275 0.00066800494 -3.2084477e-20)
(0.00030396179 0.00064562574 3.1405792e-21)
(0.00032268674 0.00062301497 6.2280561e-20)
(0.00033969972 0.00060025776 -2.0493671e-20)
(0.00035508182 0.00057743103 -3.0980365e-20)
(0.00036891278 0.00055460501 -2.8231495e-20)
(0.00038127077 0.00053184285 -1.6070596e-21)
(0.00039223215 0.00050920165 3.6684719e-20)
(0.00040187134 0.00048673233 -1.4181342e-20)
(0.00041026061 0.00046448045 -2.322714e-20)
(0.00041747008 0.00044248639 -1.5957445e-20)
(0.00042356745 0.00042078578 9.0894517e-22)
(0.00042861804 0.00039940977 1.7371898e-20)
(-0.0001221973 -0.0043443156 1.5516235e-18)
(-0.00027497437 -0.00433619 -4.5544472e-19)
(-0.00044971983 -0.0043077547 1.6411028e-18)
(-0.00061684994 -0.0042632841 3.4593972e-18)
(-0.00078429462 -0.004202438 2.2609656e-18)
(-0.00094608974 -0.00412605 2.2517056e-18)
(-0.0011013953 -0.0040350959 1.3324799e-18)
(-0.0012492581 -0.0039305324 1.9381459e-18)
(-0.0013887547 -0.0038133802 1.3347648e-18)
(-0.0015190385 -0.0036847302 4.2931071e-19)
(-0.0016394037 -0.0035457298 7.1941356e-19)
(-0.0017492777 -0.0033975708 -7.1815394e-19)
(-0.0018482155 -0.0032414756 4.8202028e-20)
(-0.0019358971 -0.0030786828 -5.5212308e-19)
(-0.0020121241 -0.0029104322 2.0718311e-19)
(-0.0020768145 -0.0027379508 7.2890448e-20)
(-0.0021299968 -0.0025624393 -5.607179e-19)
(-0.0021718029 -0.0023850612 -1.3556402e-19)
(-0.0022024592 -0.0022069307 -5.4172049e-20)
(-0.0022222783 -0.0020291048 1.7273425e-19)
(-0.0022316493 -0.0018525746 9.3852879e-19)
(-0.0022310275 -0.0016782595 6.736868e-19)
(-0.002220925 -0.0015070029 -1.0200523e-19)
(-0.0022019005 -0.001339568 3.1025003e-19)
(-0.0021745494 -0.001176637 -9.7105019e-20)
(-0.0021394947 -0.0010188094 -1.1401698e-19)
(-0.0020973772 -0.00086660369 2.4392027e-19)
(-0.0020488464 -0.00072045953 1.0423199e-19)
(-0.0019945547 -0.0005807386 2.9972383e-19)
(-0.0019351513 -0.00044772868 -1.0216049e-19)
(-0.0018712739 -0.00032164682 -1.9596704e-19)
(-0.0018035412 -0.00020264422 7.0972839e-20)
(-0.0017325453 -9.0812654e-05 2.2150263e-20)
(-0.0016589057 1.3805075e-05 1.6378328e-19)
(-0.0015831689 0.00011124677 -2.0558941e-19)
(-0.0015058225 0.00020156984 -1.0414798e-19)
(-0.0014273684 0.00028487658 1.6733709e-19)
(-0.0013482625 0.00036130754 6.5862499e-20)
(-0.0012689253 0.00043103411 1.28298e-19)
(-0.0011897435 0.00049425418 1.6865896e-19)
(-0.0011110702 0.00055118789 7.5639055e-20)
(-0.001033225 0.0006020736 -2.2953988e-19)
(-0.00095649489 0.00064716421 -1.6670958e-19)
(-0.00088113499 0.00068672355 3.7821541e-20)
(-0.00080737017 0.00072102293 9.6307367e-20)
(-0.000735396 0.00075033879 5.258899e-20)
(-0.00066538023 0.00077494954 -1.7481288e-19)
(-0.00059746493 0.00079513367 -6.8834709e-20)
(-0.00053176782 0.00081116796 4.2578702e-20)
(-0.00046838429 0.0008233252 8.7067255e-20)
(-0.00040738961 0.00083187378 2.4621092e-20)
(-0.00034883839 0.00083707441 -4.8187953e-20)
(-0.00029276766 0.00083918105 6.0621399e-21)
(-0.00023919953 0.000838439 -4.9925744e-21)
(-0.0001881402 0.00083508395 1.3149519e-19)
(-0.00013958277 0.00082934075 6.2816928e-20)
(-9.3510041e-05 0.00082142785 -1.1985564e-20)
(-4.9870673e-05 0.00081154956 5.8028655e-20)
(-8.6653478e-06 0.00079986336 1.1087752e-20)
(3.0105092e-05 0.00078668408 5.2535839e-20)
(6.6551716e-05 0.00077204797 3.2515212e-20)
(0.00010075345 0.0007561692 -3.3652347e-20)
(0.00013274982 0.00073920084 -3.9934832e-21)
(0.00016260587 0.00072128457 6.422092e-21)
(0.00019038975 0.00070255449 5.916397e-20)
(0.00021617209 0.00068313512 1.5683342e-20)
(0.00024002533 0.00066314206 -2.3533736e-20)
(0.0002620234 0.00064268211 2.7508379e-20)
(0.00028224074 0.00062185373 3.7766546e-20)
(0.00030075193 0.00060074744 3.3215973e-20)
(0.00031763145 0.00057944629 1.3263645e-20)
(0.00033295318 0.00055802608 4.4793228e-21)
(0.00034679005 0.00053655591 1.4237844e-20)
(0.00035921389 0.00051509847 1.7774215e-20)
(0.00037029517 0.00049371059 2.2121663e-20)
(0.00038010275 0.0004724433 1.1384223e-21)
(0.00038870366 0.00045134241 -9.4486478e-21)
(0.00039616313 0.00043044891 6.9961692e-21)
(0.00040254435 0.00040979924 1.600849e-20)
(0.00040790848 0.00038942529 6.4369279e-21)
(-0.00011155795 -0.0040067737 2.8185734e-18)
(-0.0002510264 -0.0039994569 1.9299075e-18)
(-0.00041059301 -0.0039738496 1.2340653e-18)
(-0.00056329431 -0.0039337908 4.2271268e-18)
(-0.00071639152 -0.0038789588 1.7748494e-18)
(-0.00086446814 -0.0038100882 -2.6148293e-18)
(-0.0010067798 -0.0037280369 3.7727098e-18)
(-0.0011424723 -0.0036336454 1.759061e-18)
(-0.0012707176 -0.0035278091 1.0565986e-18)
(-0.0013907498 -0.0034114858 2.2401909e-18)
(-0.0015019253 -0.0032856854 8.0481717e-19)
(-0.0016037167 -0.003151459 7.1175291e-19)
(-0.0016957084 -0.0030098872 7.8006771e-19)
(-0.0017775943 -0.0028620675 5.8962072e-19)
(-0.0018491754 -0.0027091019 9.1991138e-19)
(-0.0019103557 -0.0025520839 -4.6631003e-19)
(-0.0019611371 -0.0023920873 9.2154207e-19)
(-0.0020016138 -0.0022301558 7.0684343e-19)
(-0.0020319652 -0.0020672928 5.5546967e-19)
(-0.0020524481 -0.0019044534 1.0175074e-18)
(-0.0020633891 -0.0017425376 9.5756981e-20)
(-0.0020651759 -0.0015823839 -3.9224548e-19)
(-0.0020582487 -0.0014247655 2.954248e-19)
(-0.0020430914 -0.0012703862 2.3501562e-19)
(-0.0020202237 -0.0011198792 -1.346782e-19)
(-0.0019901922 -0.00097380562 2.443361e-19)
(-0.0019535627 -0.00083265504 -2.1195816e-19)
(-0.001910911 -0.00069684678 2.4818829e-20)
(-0.0018628186 -0.00056673155 1.5326335e-19)
(-0.0018098661 -0.00044259369 -1.0098779e-19)
(-0.0017526268 -0.00032465393 1.7503845e-19)
(-0.0016916604 -0.000213074 -2.1993624e-19)
(-0.0016275057 -0.00010796434 -8.1924483e-20)
(-0.0015607152 -9.3890447e-06 2.1107362e-20)
(-0.0014917959 8.2699861e-05 -1.1415643e-19)
(-0.0014212058 0.00016829348 2.3733217e-19)
(-0.0013494009 0.00024747142 -2.3601402e-20)
(-0.0012768041 0.00032034597 1.6951365e-20)
(-0.0012038082 0.0003870559 -3.3122929e-20)
(-0.0011307758 0.00044776563 -2.3137642e-19)
(-0.0010580401 0.00050266119 -1.1179713e-19)
(-0.00098590427 0.00055194671 3.320765e-20)
(-0.00091464236 0.00059584121 9.2120345e-20)
(-0.00084449987 0.00063457516 1.3315285e-20)
(-0.00077569479 0.00066838753 -4.4250118e-20)
(-0.00070841866 0.00069752332 -4.9041906e-20)
(-0.00064283748 0.00072223095 6.4170984e-21)
(-0.00057909344 0.00074276002 6.2188181e-20)
(-0.00051730638 0.00075935983 3.8448525e-22)
(-0.00045757521 0.00077227736 1.2701824e-20)
(-0.00039998012 0.00078175645 4.8743454e-21)
(-0.00034458207 0.00078803546 1.8152442e-20)
(-0.00029142553 0.00079134677 1.498344e-20)
(-0.00024054065 0.00079191634 4.0909142e-20)
(-0.00019194256 0.00078996168 9.4535439e-20)
(-0.00014563334 0.0007856917 -6.8487967e-21)
(-0.00010160512 0.0007793081 -9.3626807e-21)
(-5.9835645e-05 0.00077100431 4.5764509e-20)
(-2.0266237e-05 0.00076093278 4.0041086e-20)
(1.7032525e-05 0.00074935225 3.90207e-20)
(5.2127625e-05 0.00073635376 -1.5667179e-20)
(8.5161946e-05 0.00072210764 -2.944623e-20)
(0.0001161328 0.00070676325 -1.8204031e-21)
(0.00014509808 0.00069045652 2.2558334e-20)
(0.00017211753 0.00067331515 2.2907094e-20)
(0.00019725303 0.00065545852 4.6111169e-22)
(0.0002205686 0.00063699769 -3.0683786e-20)
(0.00024212987 0.00061803558 2.0738728e-20)
(0.00026200349 0.00059866761 1.3256736e-20)
(0.00028025669 0.0005789816 -5.668824e-21)
(0.0002969568 0.00055905846 7.3369706e-21)
(0.00031217093 0.00053897249 -2.0179923e-20)
(0.00032596563 0.00051879159 -3.4616354e-21)
(0.00033840672 0.00049857745 8.9928144e-21)
(0.000349559 0.00047838649 6.2868878e-21)
(0.00035948612 0.0004582695 3.6606607e-21)
(0.00036825011 0.00043827253 -2.7717899e-20)
(0.00037591147 0.0004184367 -4.101068e-21)
(0.00038252927 0.00039879898 -4.9395153e-21)
(0.00038816057 0.00037939196 -1.1479382e-20)
(-0.00010196727 -0.0036984383 2.2630417e-18)
(-0.00022943904 -0.0036918388 1.2215519e-18)
(-0.00037531779 -0.0036687403 -8.2917704e-20)
(-0.000514996 -0.0036325969 -3.1250782e-18)
(-0.00065512957 -0.003583106 -6.4018383e-19)
(-0.00079079254 -0.0035209163 -2.481855e-19)
(-0.00092132459 -0.0034467844 5.6979878e-19)
(-0.0010459587 -0.0033614503 -9.9086262e-19)
(-0.0011639517 -0.0032657008 1.1184331e-18)
(-0.0012746107 -0.0031603792 -5.8377752e-19)
(-0.0013773487 -0.0030463758 -1.2803579e-18)
(-0.0014716808 -0.0029246193 9.193544e-21)
(-0.0015572195 -0.0027960661 -6.419274e-19)
(-0.001633674 -0.0026616905 -1.1222485e-19)
(-0.0017008476 -0.0025224727 -3.5813361e-19)