/*--------------------------------*- C++ -*----------------------------------*\
| =========                 |                                                 |
| \\      /  F ield         | OpenFOAM: The Open Source CFD Toolbox           |
|  \\    /   O peration     | Version:  2306                                  |
|   \\  /    A nd           | Website:  www.openfoam.com                      |
|    \\/     M anipulation  |                                                 |
\*---------------------------------------------------------------------------*/
FoamFile
{
    version     2.0;
    format      ascii;
    arch        "LSB;label=32;scalar=64";
    class       volVectorField;
    location    "0.57";
    object      U;
}
// * * * * * * * * * * * * * * * * * * * * * * * * * * * * * * * * * * * * * //

dimensions      [0 1 -1 0 0 0 0];

internalField   nonuniform List<vector> 
6400
(
(0.012705233 -0.4259506 3.2593364e-16)
(0.028845505 -0.42511234 5.6709865e-17)
(0.046714641 -0.42269543 2.7518048e-16)
(0.063525377 -0.41913168 4.3538587e-16)
(0.080619002 -0.41472626 1.2505897e-16)
(0.097778949 -0.40928445 4.9072056e-17)
(0.11509248 -0.40253262 -2.1206883e-17)
(0.13250975 -0.39403718 2.606183e-17)
(0.14973005 -0.38343655 -2.0481985e-17)
(0.16633694 -0.37052924 -4.4984249e-17)
(0.18187461 -0.35530309 -1.5577923e-17)
(0.1959217 -0.33792264 -4.8678869e-17)
(0.20813969 -0.31868741 -3.9936735e-17)
(0.21829677 -0.29798228 -4.3522962e-18)
(0.22627255 -0.2762307 2.2677569e-18)
(0.23204872 -0.25385649 -9.4754479e-17)
(0.23569174 -0.23125622 -5.7367737e-17)
(0.23733251 -0.2087814 -4.6791598e-17)
(0.23714646 -0.18672896 -1.2744206e-17)
(0.2353359 -0.16533786 4.0153047e-17)
(0.23211523 -0.14479007 1.474834e-17)
(0.22769933 -0.12521462 -1.1316268e-18)
(0.22229466 -0.10669348 5.0773075e-19)
(0.21609299 -0.089268414 -3.5009512e-17)
(0.20926722 -0.072948129 -5.055862e-17)
(0.20196903 -0.057715234 -1.7239823e-17)
(0.19432791 -0.043532732 1.5623002e-17)
(0.18645128 -0.030349844 4.7267082e-17)
(0.1784256 -0.018107176 3.0482321e-17)
(0.17031941 -0.0067405348 -8.3779868e-19)
(0.16218816 0.0038174317 -2.9487038e-19)
(0.15405431 0.013627709 2.1334721e-18)
(0.1459489 0.022751441 9.8500066e-18)
(0.13788152 0.031242228 -8.05161e-19)
(0.12985511 0.039147612 -1.1124369e-17)
(0.12186643 0.04650795 1.8916166e-18)
(0.1139076 0.053356034 2.664786e-17)
(0.10596784 0.059717046 4.1464123e-17)
(0.098035031 0.065608719 3.3730064e-17)
(0.090097033 0.071041683 3.3251142e-17)
(0.082142866 0.07601995 2.2422607e-17)
(0.074163731 0.080541511 3.1624934e-18)
(0.066153901 0.084599009 4.3347186e-18)
(0.058111471 0.088180487 1.5646283e-17)
(0.050039052 0.091270204 5.3840105e-17)
(0.041944274 0.093849522 7.6140952e-17)
(0.03384038 0.095897706 5.5033412e-17)
(0.025746648 0.097393206 1.9645903e-17)
(0.017689049 0.098314774 6.5861532e-18)
(0.0097001302 0.098642236 4.2634855e-17)
(0.0017979012 0.09835643 3.9710726e-17)
(-0.0059609049 0.097438168 3.232869e-17)
(-0.013521429 0.095881717 3.4018038e-17)
(-0.020835991 0.09368155 1.5182518e-17)
(-0.027846223 0.090840316 7.5021876e-18)
(-0.034491559 0.087369017 1.8588217e-17)
(-0.040709432 0.083288043 1.5321355e-17)
(-0.046436909 0.078628006 -1.5738959e-18)
(-0.051612537 0.073430335 -3.2635442e-18)
(-0.05617835 0.067747517 -9.7955307e-18)
(-0.060082019 0.06164293 -4.9787667e-18)
(-0.063279013 0.05519019 1.0543183e-19)
(-0.065734697 0.048472 -9.5387267e-18)
(-0.067426161 0.041578493 -1.0784264e-17)
(-0.068343595 0.034605097 -1.5293449e-17)
(-0.068491244 0.027650068 -7.9030028e-18)
(-0.067887937 0.020811861 7.1763577e-18)
(-0.066567138 0.014186257 -9.1132439e-18)
(-0.064576186 0.0078631924 -1.7634975e-17)
(-0.061975074 0.0019238157 -1.8145399e-17)
(-0.058829671 -0.0035513341 -1.9848369e-17)
(-0.055220435 -0.008508941 -6.3552081e-18)
(-0.051236765 -0.012900406 -9.1939167e-18)
(-0.046966515 -0.016692385 -5.9296607e-18)
(-0.042499846 -0.019866053 -6.7281809e-18)
(-0.037925712 -0.022416475 -1.3510398e-17)
(-0.033329657 -0.024351914 -3.0723437e-18)
(-0.028791918 -0.025692745 -3.9529787e-19)
(-0.02438585 -0.02647012 7.9032914e-19)
(-0.020176655 -0.02672446 -7.4402794e-19)
(0.013450128 -0.46477094 4.6291804e-16)
(0.030368711 -0.46307497 6.0966306e-17)
(0.049130237 -0.4598737 3.0430107e-16)
(0.066853477 -0.45557842 -2.1581027e-19)
(0.085105882 -0.45100129 -1.1358656e-16)
(0.10387746 -0.44571676 1.9862278e-16)
(0.12323987 -0.43924914 -1.1929642e-17)
(0.14310608 -0.4308358 3.6161702e-17)
(0.16299546 -0.41987304 1.0018386e-16)
(0.18229756 -0.40602561 1.1807507e-17)
(0.20036588 -0.3892532 4.5612462e-17)
(0.21662253 -0.36977793 -9.110505e-17)
(0.23062016 -0.34801072 -9.1736597e-17)
(0.24206874 -0.32447267 -7.5451715e-17)
(0.25083623 -0.29972528 -8.1418533e-17)
(0.25693019 -0.27431675 -4.470208e-17)
(0.26046895 -0.24874609 -6.5095768e-17)
(0.26164988 -0.22344271 -8.8802482e-17)
(0.26071993 -0.19875788 -7.977064e-17)
(0.25795116 -0.17496425 -6.4432028e-17)
(0.25362189 -0.15226046 1.2318055e-17)
(0.24800291 -0.13077869 5.1432773e-18)
(0.24134792 -0.11059379 -1.4970516e-18)
(0.23388722 -0.091732995 -3.7422831e-17)
(0.22582405 -0.074185548 -3.9180324e-17)
(0.21733291 -0.05791165 1.0321888e-17)
(0.20855942 -0.042850607 3.2857984e-17)
(0.19962128 -0.02892796 4.7502463e-17)
(0.19061036 -0.016061389 3.5147427e-17)
(0.18159946 -0.0041655455 9.3854626e-19)
(0.17263553 0.0068479455 2.034602e-17)
(0.16374295 0.017056311 2.1327048e-17)
(0.15494432 0.026534724 7.0147874e-18)
(0.14624182 0.035349386 -2.9266944e-18)
(0.13763037 0.043558072 7.7771969e-19)
(0.12909811 0.051209062 2.1845658e-18)
(0.12062844 0.058341024 1.5437574e-17)
(0.11220203 0.064983145 3.2546696e-17)
(0.10379859 0.071155475 3.8224766e-17)
(0.095398299 0.076869444 4.3477917e-17)
(0.08698315 0.08212852 2.8458055e-17)
(0.078538042 0.086928957 8.6495716e-18)
(0.070051737 0.09126062 -2.1517244e-18)
(0.061517669 0.095107864 1.1538308e-17)
(0.052934707 0.098450457 3.3114379e-17)
(0.04430766 0.10126454 6.5374173e-17)
(0.035648033 0.10352362 6.609877e-17)
(0.026974595 0.10520006 2.2012172e-17)
(0.018314055 0.10626592 4.467078e-18)
(0.0096996516 0.10669422 2.5234513e-17)
(0.0011491292 0.10645915 3.3460331e-17)
(-0.0072706197 0.10553518 3.6867383e-17)
(-0.01550187 0.10390912 2.4286906e-17)
(-0.023490234 0.10157038 1.9303374e-17)
(-0.031168985 0.098516811 2.5021721e-17)
(-0.038468068 0.094755772 2.1011075e-17)
(-0.045314361 0.090305529 1.1263772e-17)
(-0.051633538 0.085196407 -1.0167743e-17)
(-0.057352229 0.079471662 -5.6189613e-18)
(-0.062400454 0.073187946 6.2394366e-18)
(-0.066714252 0.066415274 -5.7476633e-18)
(-0.070238401 0.059236394 -3.6932096e-18)
(-0.072929069 0.051745503 -1.6882438e-17)
(-0.074756211 0.044046311 -1.8016547e-17)
(-0.075705399 0.036249474 -5.5088004e-18)
(-0.075779045 0.02846955 -9.710508e-18)
(-0.074997279 0.020821819 5.0706607e-18)
(-0.073398243 0.013418778 -1.3034884e-17)
(-0.071037548 0.006366681 -2.3411454e-17)
(-0.067979204 -0.00024030485 -1.4635877e-17)
(-0.064302594 -0.0063100124 -1.3153619e-17)
(-0.06011096 -0.011777779 -5.1408037e-18)
(-0.055500795 -0.016588576 -1.3612372e-17)
(-0.050576819 -0.020705269 -1.8902679e-17)
(-0.04544469 -0.024107782 -1.1974469e-17)
(-0.040208061 -0.026792554 -1.1265358e-17)
(-0.034966117 -0.028771556 -3.5912185e-18)
(-0.029811372 -0.030070883 -3.0150616e-18)
(-0.02482787 -0.030729064 -6.0102158e-18)
(-0.020089761 -0.030795197 -7.4793269e-18)
(0.013410462 -0.50493346 7.7494427e-16)
(0.030154953 -0.50219626 1.0008908e-15)
(0.049114673 -0.49843455 7.4744819e-16)
(0.067372059 -0.49364531 2.7983628e-16)
(0.086713491 -0.4895294 1.508971e-16)
(0.10743814 -0.48512732 1.7384448e-16)
(0.12946208 -0.47968695 1.0615836e-16)
(0.15260618 -0.47193679 3.7523321e-17)
(0.17607381 -0.46094766 3.3040094e-17)
(0.19897212 -0.44622711 9.6580526e-17)
(0.22039236 -0.42772588 9.0662762e-17)
(0.23955074 -0.40577136 7.988427e-17)
(0.25586037 -0.38094661 1.8008479e-17)
(0.26895911 -0.35397178 2.6365923e-17)
(0.27870546 -0.32560327 -1.0069591e-17)
(0.28514948 -0.29655906 1.5989281e-17)
(0.28848879 -0.26747197 -1.894059e-17)
(0.28901998 -0.23886697 -2.6223242e-17)
(0.28709424 -0.21115617 -3.6457001e-17)
(0.28308206 -0.18464467 -4.5812792e-17)
(0.27734829 -0.15954181 3.8254956e-17)
(0.27023603 -0.13597466 9.2106329e-17)
(0.26205719 -0.11400182 2.1889782e-17)
(0.25308738 -0.093626837 -3.2391618e-17)
(0.24356385 -0.074810755 -2.5595487e-17)
(0.2336854 -0.057483331 2.0017583e-17)
(0.22361365 -0.041552952 7.244394e-17)
(0.21347542 -0.026915218 4.0542329e-17)
(0.20336563 -0.013459209 -6.2399542e-18)
(0.19336525 -0.0010715724 -2.7577547e-19)
(0.18349698 0.010354248 1.4013039e-17)
(0.17379376 0.020919992 3.7573368e-17)
(0.16426497 0.030716187 8.6780956e-18)
(0.15490299 0.039823159 -1.2510869e-17)
(0.14569194 0.048309943 -1.1512259e-17)
(0.13660892 0.056233434 -9.8348531e-18)
(0.12762645 0.063638523 1.2229427e-17)
(0.11871471 0.07055847 1.0726542e-17)
(0.10984349 0.077015474 -5.5670436e-18)
(0.10098377 0.083021424 1.0594671e-17)
(0.092109162 0.08857875 -1.9094798e-17)
(0.083197086 0.093681367 -3.0818926e-17)
(0.074229756 0.098315647 -3.066902e-17)
(0.065195036 0.10246146 -3.0382046e-17)
(0.05608725 0.10609323 -1.6013809e-17)
(0.046907738 0.10918089 7.3418149e-18)
(0.037665789 0.11169117 2.7419622e-17)
(0.02837911 0.11358921 -9.7028833e-18)
(0.019074448 0.11483914 -3.4650102e-17)
(0.0097866546 0.1154058 -2.5350076e-17)
(0.00053250938 0.1152556 -2.0542068e-17)
(-0.0086114916 0.11435435 -6.2656218e-18)
(-0.017583103 0.11268076 1.9139536e-18)
(-0.026320772 0.11021719 5.4631554e-19)
(-0.034748413 0.1069551 3.4757816e-18)
(-0.042785052 0.10289675 -5.7427986e-19)
(-0.050345224 0.098057023 -1.611731e-17)
(-0.057341077 0.092464958 -1.3763819e-17)
(-0.063684903 0.086165043 -5.4873598e-18)
(-0.06929206 0.079217996 2.368018e-18)
(-0.074084209 0.071700952 1.2093512e-17)
(-0.077992727 0.063706912 -6.5632893e-18)
(-0.080962104 0.055343344 -1.3266876e-17)
(-0.082953067 0.04672992 -1.4990142e-17)
(-0.083945033 0.037995429 2.7111307e-19)
(-0.083937686 0.029274055 1.5547179e-17)
(-0.082951961 0.020701316 1.8792115e-17)
(-0.08103035 0.01240962 8.8984596e-18)
(-0.078238769 0.0045246611 -1.8051515e-17)
(-0.074652032 -0.0028392935 -4.813375e-18)
(-0.07036282 -0.0095833519 1.3794483e-17)
(-0.065491481 -0.015624904 1.3723968e-17)
(-0.06015408 -0.020902344 -1.4402176e-18)
(-0.054473425 -0.025374387 -1.467607e-17)
(-0.048573256 -0.029019951 -5.7659667e-18)
(-0.042574548 -0.031837589 1.8218867e-19)
(-0.036592465 -0.033844158 9.3372135e-18)
(-0.030733755 -0.035072972 5.3728311e-18)
(-0.025094702 -0.035571654 -2.0693093e-18)
(-0.019759572 -0.035399829 -3.5659044e-18)
(0.012172049 -0.54351027 8.3489598e-16)
(0.027301951 -0.53990931 8.779083e-16)
(0.045529687 -0.53651892 4.1018326e-16)
(0.063807871 -0.53199657 1.6320315e-16)
(0.08412421 -0.52969773 1.0844068e-16)
(0.10727 -0.52748658 -2.6210744e-17)
(0.13273668 -0.52431105 4.2816363e-17)
(0.16020435 -0.51813687 4.2455727e-17)
(0.18836343 -0.50763795 4.0200182e-17)
(0.21594974 -0.49217046 6.6031292e-17)
(0.24172325 -0.47172349 2.5652639e-17)
(0.26464831 -0.44680184 2.5748112e-17)
(0.28396479 -0.41824221 3.9922409e-18)
(0.29921407 -0.38704689 -1.4563007e-17)
(0.31023421 -0.35424477 4.1645527e-17)
(0.3171247 -0.32078819 1.8327941e-18)
(0.32018773 -0.28748967 -5.8014915e-17)
(0.31985794 -0.25499514 -6.2660142e-17)
(0.31663498 -0.22378506 -6.1788586e-17)
(0.31102937 -0.19419172 -4.6819e-18)
(0.30352626 -0.16642296 2.3222692e-17)
(0.29456528 -0.14058582 5.9341754e-17)
(0.28453187 -0.11670779 3.3818393e-17)
(0.27375548 -0.09475518 3.4388054e-17)
(0.26251116 -0.074648851 4.0251041e-17)
(0.2510227 -0.056277787 5.0743236e-17)
(0.23946658 -0.039510595 6.2965407e-17)
(0.22797651 -0.024205452 6.3423617e-17)
(0.21664887 -0.010216722 5.9558396e-17)
(0.20556157 0.0026038141 5.6117539e-17)
(0.19472135 0.014382986 2.4481516e-17)
(0.18416057 0.025250078 2.7480353e-17)
(0.17387079 0.03531415 3.7414981e-17)
(0.16383195 0.044671241 3.5784542e-17)
(0.15401449 0.053402607 3.1968546e-17)
(0.14438174 0.061574318 3.1062098e-17)
(0.13489284 0.069237682 3.8048092e-17)
(0.12550529 0.076429921 4.1915654e-17)
(0.11617702 0.083175048 3.3425459e-17)
(0.10686812 0.089484895 1.9522287e-17)
(0.097542351 0.095360215 -2.3792442e-17)
(0.08816836 0.10079183 -5.1114177e-17)
(0.078720692 0.10576181 -4.5201327e-17)
(0.069180662 0.11024463 -5.736671e-17)
(0.059537165 0.11420834 -4.0455882e-17)
(0.049787302 0.11761572 -2.6133395e-18)
(0.039937527 0.12042553 2.3067814e-17)
(0.030003956 0.12259425 3.8710095e-18)
(0.020013162 0.12407685 -2.3459023e-17)
(0.010000633 0.12482846 -2.9826514e-17)
(-1.7400424e-05 0.12480641 -4.5298171e-17)
(-0.0099544954 0.12396546 -3.619914e-17)
(-0.019744016 0.12227487 -6.8936438e-18)
(-0.029316161 0.11970782 1.4042125e-17)
(-0.038584405 0.11624739 3.1055617e-17)
(-0.047455295 0.11188887 1.3928791e-17)
(-0.055828994 0.10664204 -1.6736274e-17)
(-0.063601634 0.10053327 -1.9090044e-17)
(-0.070668262 0.09360734 1.7905793e-17)
(-0.076926336 0.085928681 3.6827574e-17)
(-0.082279715 0.07758193 3.1258166e-17)
(-0.086642952 0.068671527 -3.1243674e-18)
(-0.089945652 0.059320248 -7.2107501e-18)
(-0.092136543 0.049666585 -6.0417945e-19)
(-0.093186755 0.039861007 1.8240593e-17)
(-0.09309208 0.030061321 4.5827708e-17)
(-0.091874513 0.020427468 2.0026171e-17)
(-0.089581953 0.011115586 3.9914729e-18)
(-0.086289923 0.002271515 -1.0413655e-17)
(-0.08208421 -0.0059550469 2.5769355e-18)
(-0.077081566 -0.013461008 1.5088186e-17)
(-0.071419826 -0.020148538 2.1192456e-17)
(-0.065237273 -0.025945854 7.152997e-18)
(-0.058679132 -0.030806589 -1.5320877e-17)
(-0.051890958 -0.034708987 -1.188805e-17)
(-0.045014292 -0.037654755 2.2124216e-18)
(-0.038183036 -0.039667196 1.4278373e-17)
(-0.031520416 -0.040788771 1.0674425e-17)
(-0.025136698 -0.041078348 -2.8239214e-19)
(-0.019127537 -0.040608352 -9.6997697e-18)
(0.0096561378 -0.57656075 8.8580764e-16)
(0.021493493 -0.5728645 9.3807751e-16)
(0.038199339 -0.57180374 2.0293342e-16)
(0.056011581 -0.56890051 1.3840994e-16)
(0.077150904 -0.5707103 1.7337737e-16)
(0.10328215 -0.57269517 1.1087162e-16)
(0.13298889 -0.57360598 6.9194003e-17)
(0.16584162 -0.57028725 9.9632787e-17)
(0.19976431 -0.5609882 2.5966595e-17)
(0.23307533 -0.54497387 8.2152945e-17)
(0.26416962 -0.52235451 1.2931297e-16)
(0.29174179 -0.49390267 9.6183024e-17)
(0.31483343 -0.46079842 9.5772103e-17)
(0.33285185 -0.42441882 5.7026814e-17)
(0.34557477 -0.38616025 1.0225307e-16)
(0.3531254 -0.34729858 1.0430226e-16)
(0.35591137 -0.30889709 1.3903343e-18)
(0.3545347 -0.27176676 -1.0467621e-17)
(0.34969266 -0.23647206 -2.4842693e-17)
(0.34209138 -0.20336565 7.0105097e-17)
(0.33238625 -0.17263358 7.6966528e-17)
(0.32115097 -0.1443379 3.7995692e-17)
(0.30886858 -0.11845082 8.1390728e-17)
(0.29593504 -0.094880625 3.8818832e-17)
(0.28266801 -0.073491103 5.0269394e-17)
(0.26931635 -0.054116943 1.2639815e-16)
(0.25606868 -0.036576186 9.3818872e-17)
(0.24306162 -0.020680439 8.4453367e-17)
(0.2303929 -0.0062425578 7.0220421e-17)
(0.21811949 0.0069242825 7.9839518e-17)
(0.20624491 0.018978581 1.0857743e-16)
(0.19478364 0.030073738 6.6719779e-17)
(0.18370961 0.040341025 3.9578981e-17)
(0.17298579 0.049894058 3.8595406e-17)
(0.16256521 0.058827262 7.5566658e-17)
(0.15239417 0.067216264 1.087123e-16)
(0.14241562 0.075118752 8.9201012e-17)
(0.13257185 0.082575565 7.8620144e-17)
(0.12280681 0.089611962 8.2207772e-17)
(0.11306787 0.096239 5.1359455e-17)
(0.10330734 0.10245492 -1.190337e-17)
(0.093483738 0.10824657 -6.9519778e-17)
(0.083562739 0.11359074 -6.4910476e-17)
(0.073518064 0.11845547 -4.6007481e-17)
(0.063332251 0.1228014 -2.8964141e-17)
(0.052997313 0.12658299 -1.1780196e-19)
(0.042516051 0.12974984 1.5757115e-17)
(0.031902294 0.13224818 -2.940594e-18)
(0.0211817 0.13402257 -1.5430703e-17)
(0.010391175 0.13501646 -2.5501878e-17)
(-0.0004552321 0.13517722 -4.1554315e-17)
(-0.011261389 0.13444495 -2.8519068e-17)
(-0.021954713 0.13277839 -6.5156938e-18)
(-0.032457177 0.1301389 1.2677321e-17)
(-0.042670579 0.12649871 2.768031e-17)
(-0.052487287 0.12184373 2.1779534e-17)
(-0.061790808 0.11617637 4.9182206e-18)
(-0.070458373 0.10951839 -7.732404e-18)
(-0.078364308 0.10191341 1.3713463e-17)
(-0.085384216 0.093428875 2.5694993e-17)
(-0.09139987 0.084157081 2.9066069e-17)
(-0.096304633 0.074215133 1.1512851e-17)
(-0.10000907 0.063743447 -1.0844658e-18)
(-0.10244632 0.052902743 1.5797833e-18)
(-0.10357662 0.041869542 1.4216606e-17)
(-0.10339026 0.030830458 4.3567022e-17)
(-0.1019099 0.0199757 3.8239176e-17)
(-0.099192025 0.0094919661 1.7166093e-17)
(-0.095312787 -0.00044772246 -1.1012791e-17)
(-0.090379373 -0.0096699759 -4.5099479e-18)
(-0.084546976 -0.018046645 7.518214e-18)
(-0.077963126 -0.025464686 2.5840893e-17)
(-0.070795782 -0.031842172 1.3181362e-17)
(-0.063217763 -0.037127672 -1.0540116e-17)
(-0.055400937 -0.041299554 -5.5965249e-18)
(-0.047511282 -0.044364202 7.642536e-19)
(-0.039704647 -0.046353466 1.5423463e-17)
(-0.032123285 -0.047321437 1.3838257e-17)
(-0.024893353 -0.047340943 2.3326241e-18)
(-0.01812326 -0.046499987 -5.1422436e-18)
(0.0062986687 -0.60036471 9.5863336e-16)
(0.013393343 -0.59804401 9.7358908e-16)
(0.028639056 -0.60245809 4.6353204e-16)
(0.045863341 -0.60288496 1.8090149e-16)
(0.06770485 -0.61197358 2.0167815e-16)
(0.097468752 -0.62075395 4.163094e-17)
(0.13201133 -0.62806368 2.8381511e-17)
(0.17101867 -0.62913826 -2.0170434e-16)
(0.21134827 -0.62186463 -8.3956573e-17)
(0.2509559 -0.60555973 -6.5271351e-17)
(0.28791754 -0.58057447 -1.9149371e-16)
(0.32070521 -0.54803898 -1.1379906e-16)
(0.34817442 -0.50954477 -1.8610888e-16)
(0.36956188 -0.46691521 -2.2410858e-17)
(0.38451144 -0.42200606 -4.5566232e-17)
(0.3930885 -0.37652566 -8.8299504e-17)
(0.39574873 -0.33189484 -8.8147348e-17)
(0.39324848 -0.28917094 -1.2363273e-16)
(0.38651437 -0.24904416 -3.2029455e-17)
(0.3765086 -0.21188994 9.7003934e-17)
(0.36412446 -0.17784737 1.4636981e-16)
(0.35012751 -0.14689566 4.9047097e-17)
(0.33513828 -0.11891332 6.3856931e-17)
(0.31964145 -0.093717965 5.6791684e-17)
(0.30400609 -0.071091263 3.4026787e-17)
(0.28850662 -0.050795131 9.7852201e-17)
(0.27334015 -0.032583713 8.1552062e-17)
(0.25863981 -0.016211262 6.4368734e-17)
(0.2445089 -0.0014351489 7.866756e-17)
(0.23094919 0.011961361 5.984446e-17)
(0.21798122 0.024184345 9.4183655e-17)
(0.20558583 0.035412486 6.4705059e-17)
(0.1937154 0.045801084 1.5904819e-17)
(0.18231086 0.055482415 2.7590399e-17)
(0.17130342 0.064564639 5.3319662e-17)
(0.16061857 0.073132968 8.9606153e-17)
(0.15017983 0.081251095 9.1709716e-17)
(0.13991156 0.088962808 6.9204133e-17)
(0.12974139 0.096293753 9.0443163e-17)
(0.11960201 0.10325323 5.810449e-17)
(0.10943265 0.10983592 -1.1747613e-17)
(0.099180242 0.11602361 -5.8215715e-17)
(0.088800384 0.12178671 -7.3223073e-17)
(0.07825809 0.12708576 -3.5833753e-17)
(0.067528556 0.13187276 -1.2304892e-17)
(0.056597785 0.13609263 1.0886263e-17)
(0.045463927 0.13968458 1.5784885e-17)
(0.034137912 0.14258306 -1.6255228e-17)
(0.022643713 0.14472044 -2.4940437e-17)
(0.01101948 0.14602806 -2.4177003e-17)
(-0.00072466331 0.14643675 -4.0289471e-17)
(-0.012482354 0.14587583 -3.2448593e-17)
(-0.02417434 0.14428756 -1.9118836e-17)
(-0.035714699 0.14161897 -9.990547e-18)
(-0.046992259 0.13782862 7.901866e-18)
(-0.05788343 0.13288991 6.490777e-18)
(-0.068252557 0.12679493 -2.0160165e-17)
(-0.07795465 0.11955814 -3.682351e-17)
(-0.086839193 0.1112199 2.0769346e-18)
(-0.094755092 0.10184934 2.3912149e-17)
(-0.10155667 0.091546283 4.0552112e-18)
(-0.10711052 0.080441636 -2.2342223e-17)
(-0.11130277 0.068696083 -3.8492413e-17)
(-0.11404618 0.056496637 2.5528962e-18)
(-0.11528615 0.04405124 3.7388549e-17)
(-0.11500491 0.031581743 2.6371051e-17)
(-0.11322432 0.019315627 1.6937225e-17)
(-0.11000962 0.0074776622 -7.8632948e-18)
(-0.10545186 -0.0037235837 -2.5555083e-18)
(-0.099675816 -0.014094045 1.949857e-17)
(-0.0928638 -0.023466609 3.9833376e-18)
(-0.085198534 -0.031712198 5.0495774e-18)
(-0.076879951 -0.038737528 2.387676e-18)
(-0.068113595 -0.044486204 1.9591913e-19)
(-0.059102839 -0.048937943 1.7345501e-17)
(-0.050042648 -0.052105966 9.3358374e-19)
(-0.041114517 -0.054033484 9.4754355e-18)
(-0.032482593 -0.054789416 1.7040663e-17)
(-0.024290945 -0.054463973 4.6714746e-18)
(-0.01666212 -0.05316423 1.832559e-18)
(0.0030233717 -0.61300743 7.8735883e-16)
(0.0045587252 -0.61427561 5.8814781e-16)
(0.020077817 -0.62852857 4.4337512e-16)
(0.037389454 -0.63369778 8.0845487e-18)
(0.059964285 -0.65371931 5.3750227e-17)
(0.094154688 -0.6721127 2.8854889e-17)
(0.13377539 -0.68826607 2.3745388e-16)
(0.17916454 -0.69521024 2.5945009e-16)
(0.22576762 -0.69068169 2.2362624e-16)
(0.27137613 -0.67429822 3.0379905e-16)
(0.31390529 -0.64680463 2.448195e-16)
(0.35174852 -0.6097553 4.3007927e-17)
(0.38366335 -0.56516169 1.2204592e-17)
(0.40872074 -0.51529666 5.823662e-18)
(0.42635193 -0.46251815 4.3390265e-17)
(0.43643027 -0.4090661 -8.1724518e-17)
(0.43931878 -0.35685668 6.6133375e-17)
(0.43583023 -0.3073303 -7.3912168e-17)
(0.42709222 -0.26139931 -1.611277e-16)
(0.41435964 -0.21949955 -1.1753184e-16)
(0.39883805 -0.18170773 -1.0107043e-17)
(0.38156538 -0.14787269 5.0387988e-17)
(0.36336422 -0.11772228 1.0098445e-17)
(0.34484843 -0.090932354 4.5417467e-17)
(0.32645733 -0.067163598 1.6208458e-17)
(0.30849507 -0.046078286 1.7814083e-17)
(0.29116364 -0.027348591 7.6436032e-17)
(0.27458919 -0.010659706 7.3926092e-17)
(0.25885684 0.0042984071 8.4623572e-17)
(0.24392958 0.017779213 3.6790376e-17)
(0.22982055 0.030036097 4.8598195e-17)
(0.2164715 0.041278222 7.2982919e-17)
(0.20380792 0.051687193 2.3807758e-17)
(0.19174301 0.061414562 3.2780253e-17)
(0.18018116 0.07058232 4.3895345e-17)
(0.16902285 0.079284839 3.6210448e-17)
(0.15816857 0.087590988 7.1719537e-17)
(0.14752177 0.095546426 6.8804117e-17)
(0.13699131 0.10317595 8.9446103e-17)
(0.12649315 0.11048581 7.8671642e-17)
(0.11595177 0.11746584 1.5689857e-17)
(0.10530113 0.12409145 -2.4138532e-18)
(0.09448548 0.13032548 -2.6767985e-17)
(0.083460015 0.13611971 -1.1173903e-17)
(0.072191561 0.14141634 -1.0807798e-17)
(0.060659193 0.14614945 3.1462918e-17)
(0.04885531 0.1502464 6.0389383e-17)
(0.036786789 0.1536286 1.3649732e-17)
(0.024475998 0.15621424 -1.5381894e-17)
(0.011958634 0.15792107 -1.7671851e-17)
(-0.00075666661 0.15865987 -1.5490744e-17)
(-0.013552863 0.15834848 3.9542459e-18)
(-0.026348638 0.1569086 8.3297666e-18)
(-0.039047365 0.15426968 -1.3446225e-17)
(-0.051524193 0.15037295 -3.1982634e-17)
(-0.063637949 0.14517545 9.4619238e-18)
(-0.075231151 0.138655 2.5557269e-17)
(-0.086132846 0.13081511 -1.4400513e-17)
(-0.096162815 0.12168978 -5.2648702e-18)
(-0.10513736 0.11134774 -2.0207598e-17)
(-0.11287665 0.099895538 -1.977464e-17)
(-0.11921336 0.087478898 4.8007562e-18)
(-0.12400213 0.074281667 -2.5733328e-17)
(-0.12712901 0.060522013 -5.3733125e-18)
(-0.12851954 0.046445827 2.1625996e-18)
(-0.12814464 0.032317649 -1.1617511e-17)
(-0.12602404 0.018409941 1.2689119e-17)
(-0.12223536 0.0049935241 -1.8600986e-17)
(-0.11687987 -0.0076730729 -2.8211193e-18)
(-0.11011181 -0.019360504 1.4457007e-17)
(-0.10214872 -0.02987311 -1.1844384e-17)
(-0.093212809 -0.039057432 -1.1095475e-17)
(-0.083544703 -0.046806154 -1.8895467e-17)
(-0.073390303 -0.053058061 -1.1046259e-17)
(-0.062991066 -0.057796085 1.8895074e-17)
(-0.052576398 -0.061043347 -7.2741244e-18)
(-0.042357692 -0.062858208 -1.3686009e-17)
(-0.032524139 -0.063328537 -3.3806748e-18)
(-0.023239904 -0.062566332 -3.1376193e-19)
(-0.014642923 -0.060701797 1.9485664e-17)
(0.00079502552 -0.61533818 8.4068548e-16)
(-0.0033616542 -0.62329932 7.8626274e-16)
(0.01633556 -0.65310152 5.9468681e-16)
(0.035437708 -0.66301503 3.0922376e-16)
(0.059000397 -0.69757129 1.4710054e-16)
(0.0988099 -0.72805454 -2.6321363e-17)
(0.14349721 -0.75507416 -7.0960648e-17)
(0.1949782 -0.76881033 3.4879588e-16)
(0.24688771 -0.76728063 1.3057413e-16)
(0.29720092 -0.75077204 7.4539698e-17)
(0.34394002 -0.72060713 3.4725363e-16)
(0.38566023 -0.67879723 1.2094269e-16)
(0.4212076 -0.62770246 2.0806111e-16)
(0.4495832 -0.56994046 1.1291537e-16)
(0.46998675 -0.50830638 4.1234164e-17)
(0.48196771 -0.44559899 1.1564963e-16)
(0.48559267 -0.38435747 1.6343894e-17)
(0.48152619 -0.32659172 1.9634251e-18)
(0.47095935 -0.27361393 6.4320265e-18)
(0.45540103 -0.22603284 5.9863001e-17)
(0.43641567 -0.18389095 1.4120306e-16)
(0.41540432 -0.14686735 1.0341201e-16)
(0.39348432 -0.11446614 6.228264e-17)
(0.37146774 -0.086145695 5.4268257e-17)
(0.34990306 -0.061384949 6.6440449e-18)
(0.32913891 -0.03970544 -3.9877244e-17)
(0.30938165 -0.020670018 -5.8372637e-17)
(0.29076017 -0.003872027 -4.2073003e-17)
(0.27328078 0.011056291 -1.5727142e-17)
(0.25691863 0.024436397 -1.1073767e-17)
(0.24163362 0.036559141 -3.9321147e-17)
(0.22732906 0.047669777 -4.2571307e-17)
(0.21389508 0.057977376 -4.135041e-17)
(0.20121007 0.067652945 -1.8773628e-17)
(0.18914592 0.076831784 -1.5450207e-17)
(0.17757333 0.08561636 -5.7163002e-17)
(0.16636584 0.094079308 -4.278831e-17)
(0.15540283 0.10226654 -5.606469e-18)
(0.14457182 0.11020033 -3.1131489e-18)
(0.13377005 0.11788217 1.3530592e-17)
(0.12290557 0.12529547 -1.0058642e-17)
(0.11189803 0.13240779 -1.5510198e-17)
(0.10067918 0.13917298 -1.4389378e-17)
(0.089193321 0.14553281 -1.6237176e-17)
(0.077397829 0.15141842 -1.211767e-17)
(0.065263742 0.15675185 3.6037112e-17)
(0.05277666 0.16144708 7.1635502e-17)
(0.039938281 0.16541117 1.9828116e-17)
(0.026768471 0.16854657 -1.1136241e-17)
(0.013298798 0.1707533 -1.7876952e-17)
(-0.0004648145 0.17192608 -2.3916676e-17)
(-0.014394414 0.17196025 1.0255227e-17)
(-0.028408364 0.17075803 3.2815733e-17)
(-0.042399439 0.16822673 -7.8112222e-18)
(-0.056228356 0.16428565 -3.77717e-17)
(-0.069734865 0.15887058 3.1473869e-17)
(-0.082736929 0.15193995 1.4777321e-17)
(-0.09503349 0.14348131 -6.7502639e-18)
(-0.10640895 0.13351786 7.5470966e-18)
(-0.11663986 0.12211459 -3.8619577e-18)
(-0.12550378 0.10938314 2.4807699e-17)
(-0.13279024 0.095484583 -1.2818673e-17)
(-0.13831316 0.08062908 -2.8664084e-17)
(-0.14192349 0.065071785 1.0353752e-18)
(-0.14352057 0.049104876 1.9362854e-17)
(-0.14306006 0.033045598 1.2428282e-17)
(-0.14055737 0.017222243 -5.3229859e-18)
(-0.13609796 0.0019576262 -1.6061005e-17)
(-0.12979804 -0.012408909 -1.1029426e-17)
(-0.1218611 -0.025624095 3.0480628e-17)
(-0.11253932 -0.037448482 -2.1860767e-18)
(-0.10210472 -0.047700188 -2.7394781e-17)
(-0.090849464 -0.056256318 -2.8430045e-17)
(-0.079069448 -0.06305194 -1.7403182e-17)
(-0.067052327 -0.068076267 1.9650114e-17)
(-0.055068398 -0.071366741 -2.1062567e-17)
(-0.043363728 -0.073001993 -1.8412586e-17)
(-0.032155921 -0.073094144 -4.9165033e-18)
(-0.021631265 -0.071782665 -4.3582882e-18)
(-0.011944391 -0.069225271 1.650197e-17)
(-0.00015078854 -0.61051009 8.1472726e-16)
(-0.010127489 -0.62930928 6.185844e-16)
(0.019225098 -0.6823197 5.3856815e-16)
(0.042538755 -0.69421251 2.3608438e-16)
(0.067649334 -0.74672694 3.4304085e-16)
(0.11541776 -0.7909555 -5.3591932e-16)
(0.16544923 -0.82990835 -2.9365114e-16)
(0.22268829 -0.85027969 -2.4705382e-16)
(0.27849362 -0.85111456 -3.4925192e-16)
(0.33152414 -0.83387043 -1.6698009e-16)
(0.38026152 -0.80065497 -1.3382904e-16)
(0.42372443 -0.7539396 -7.3358177e-17)
(0.46111275 -0.69629829 -1.1049325e-16)
(0.49156221 -0.6304836 -4.0845381e-17)
(0.51414567 -0.55952204 -9.5848899e-17)
(0.5280534 -0.4866557 -1.532897e-17)
(0.53287543 -0.4150814 -6.5414345e-17)
(0.5288579 -0.34755821 -1.02882e-16)
(0.51699232 -0.28604911 -4.0622361e-17)
(0.49887315 -0.23155777 3.2093873e-17)
(0.47638356 -0.18421462 1.3063919e-17)
(0.45134953 -0.14353832 3.1193035e-17)
(0.4252905 -0.10873955 4.2132239e-17)
(0.39931837 -0.078959884 -2.3492363e-17)
(0.37416067 -0.053405994 -1.5347869e-17)
(0.35024619 -0.031394411 -6.7419871e-17)
(0.32779994 -0.012339043 -1.4657821e-16)
(0.3069501 0.0043009532 -1.2151613e-16)
(0.28760206 0.018937121 -1.1600747e-16)
(0.26974992 0.031981842 -9.3143059e-17)
(0.25327556 0.043764401 -1.4623492e-16)
(0.23803725 0.054568602 -1.7645092e-16)
(0.22387995 0.064630743 -1.4558718e-16)
(0.21063928 0.074140549 -1.4099341e-16)
(0.19814816 0.083245199 -1.2139838e-16)
(0.18624223 0.092053344 -1.4825656e-16)
(0.17476388 0.1006392 -1.4723712e-16)
(0.16356512 0.10904667 -1.0059593e-16)
(0.1525096 0.11729323 -9.9862241e-17)
(0.14147385 0.12537354 -5.1676397e-17)
(0.13034802 0.13326258 -2.3585562e-17)
(0.11903624 0.1409184 -2.4526022e-17)
(0.10745674 0.14828432 -8.0275348e-18)
(0.095541949 0.15529079 -3.1525058e-17)
(0.083238816 0.16185669 -1.6117772e-18)
(0.070509175 0.16789075 5.2268418e-17)
(0.057330649 0.17329253 8.3465412e-17)
(0.043698485 0.17795327 4.997655e-17)
(0.029627626 0.18175791 1.3365184e-17)
(0.015147158 0.18458596 -3.9670246e-18)
(0.00025555204 0.18631482 -3.0653335e-17)
(-0.014910415 0.1868143 -1.2875745e-17)
(-0.030266621 0.18596271 2.365719e-17)
(-0.045698558 0.18364079 -7.4085408e-18)
(-0.061051956 0.17974063 -1.0120513e-17)
(-0.076146399 0.17417074 3.8047733e-17)
(-0.090772711 0.16686351 5.2063948e-18)
(-0.10469528 0.15778378 -6.4890235e-18)
(-0.11765661 0.14693766 1.4924379e-17)
(-0.12938481 0.13438133 2.3687222e-17)
(-0.13960429 0.12022847 3.9832155e-17)
(-0.14804959 0.10465529 -1.5605729e-17)
(-0.15448162 0.087901535 -3.6704325e-18)
(-0.15870477 0.070266371 5.1186084e-18)
(-0.1605829 0.052098579 2.3945992e-17)
(-0.16005086 0.033781847 5.502838e-17)
(-0.15712245 0.015716882 -6.9375412e-19)
(-0.15187325 -0.0017036665 -5.6729142e-18)
(-0.14445188 -0.018076424 -8.2263413e-18)
(-0.13513216 -0.033075211 2.2089014e-17)
(-0.12419718 -0.046415088 3.1107302e-18)
(-0.11198634 -0.057882438 -2.8014484e-18)
(-0.098857233 -0.067338157 -1.1912286e-18)
(-0.085167876 -0.074716124 -1.7449632e-17)
(-0.071261936 -0.080016717 2.3903177e-20)
(-0.05745803 -0.083298008 -1.5856042e-17)
(-0.044042076 -0.084665817 2.7730815e-19)
(-0.031263647 -0.084263632 7.7728014e-18)
(-0.019332417 -0.082264974 -9.4964421e-19)
(-0.0084177743 -0.078862604 -4.6383105e-18)
(-0.00088612792 -0.6008036 7.2183974e-16)
(-0.018873687 -0.6359109 5.0657428e-16)
(0.024593809 -0.72319571 1.2521703e-16)
(0.054549128 -0.7309297 2.9139586e-16)
(0.082608396 -0.80577984 6.3836335e-16)