/*--------------------------------*- C++ -*----------------------------------*\
| =========                 |                                                 |
| \\      /  F ield         | OpenFOAM: The Open Source CFD Toolbox           |
|  \\    /   O peration     | Version:  2106                                  |
|   \\  /    A nd           | Website:  www.openfoam.com                      |
|    \\/     M anipulation  |                                                 |
\*---------------------------------------------------------------------------*/
FoamFile
{
    version     2.0;
    format      ascii;
    arch        "LSB;label=32;scalar=64";
    class       volVectorField;
    location    "0.011";
    object      U_0;
}
// * * * * * * * * * * * * * * * * * * * * * * * * * * * * * * * * * * * * * //

dimensions      [0 1 -1 0 0 0 0];

internalField   nonuniform List<vector> 
256
(
(0.025750987 -0.022844412 0)
(0.072963974 -0.019233521 0)
(0.10893534 -0.012747262 0)
(0.12813611 -0.0043383332 0)
(0.1278145 0.0046516878 0)
(0.10823731 0.01289908 0)
(0.072221762 0.019200763 0)
(0.025431803 0.022636799 0)
(-0.025431802 0.022636799 0)
(-0.072221761 0.019200763 0)
(-0.10823731 0.012899081 0)
(-0.1278145 0.004651688 0)
(-0.12813611 -0.004338333 0)
(-0.10893534 -0.012747261 0)
(-0.072963976 -0.019233521 0)
(-0.025750988 -0.022844412 0)
(0.032192244 -0.075379754 0)
(0.091107132 -0.063491832 0)
(0.13586188 -0.04213919 0)
(0.15972369 -0.014475896 0)
(0.15931065 0.015160798 0)
(0.13490217 0.042357423 0)
(0.090102197 0.063140812 0)
(0.031742207 0.074493107 0)
(-0.031742205 0.074493107 0)
(-0.090102196 0.063140812 0)
(-0.13490217 0.042357424 0)
(-0.15931065 0.015160799 0)
(-0.15972369 -0.014475895 0)
(-0.13586188 -0.042139189 0)
(-0.091107133 -0.063491832 0)
(-0.032192246 -0.075379754 0)
(0.04746523 -0.14450182 0)
(0.13417785 -0.12147281 0)
(0.19982517 -0.080393348 0)
(0.23485213 -0.027532199 0)
(0.23418203 0.029226468 0)
(0.19831364 0.081158294 0)
(0.13262492 0.12105046 0)
(0.046747614 0.14291301 0)
(-0.046747613 0.14291301 0)
(-0.13262492 0.12105046 0)
(-0.19831364 0.081158295 0)
(-0.23418203 0.029226469 0)
(-0.23485213 -0.027532198 0)
(-0.19982517 -0.080393347 0)
(-0.13417785 -0.12147281 0)
(-0.047465232 -0.14450182 0)
(0.07731221 -0.2549823 0)
(0.21832129 -0.2140019 0)
(0.32463991 -0.14138896 0)
(0.38148296 -0.048568334 0)
(0.3802068 0.051555893 0)
(0.32179996 0.14243591 0)
(0.21542017 0.21283213 0)
(0.075943458 0.25159655 0)
(-0.075943456 0.25159655 0)
(-0.21542017 0.21283213 0)
(-0.32179996 0.14243591 0)
(-0.3802068 0.051555895 0)
(-0.38148296 -0.048568332 0)
(-0.32463992 -0.14138896 0)
(-0.21832129 -0.21400189 0)
(-0.077312212 -0.2549823 0)
(0.1255497 -0.44467117 0)
(0.35473136 -0.37299702 0)
(0.5278884 -0.24628165 0)
(0.62167688 -0.085055525 0)
(0.61929622 0.090253625 0)
(0.52327033 0.2485026 0)
(0.35062959 0.37186051 0)
(0.12362573 0.43971588 0)
(-0.12362573 0.43971588 0)
(-0.35062959 0.37186051 0)
(-0.52327033 0.2485026 0)
(-0.61929622 0.090253625 0)
(-0.62167688 -0.085055525 0)
(-0.5278884 -0.24628165 0)
(-0.35473136 -0.37299702 0)
(-0.12554971 -0.44467117 0)
(0.17013191 -0.71748979 0)
(0.48224624 -0.60043025 0)
(0.71999804 -0.39594571 0)
(0.85377173 -0.13725083 0)
(0.85259757 0.14817953 0)
(0.71868925 0.39881944 0)
(0.48201062 0.59648543 0)
(0.1698494 0.70662013 0)
(-0.1698494 0.70662013 0)
(-0.48201061 0.59648544 0)
(-0.71868925 0.39881945 0)
(-0.85259757 0.14817954 0)
(-0.85377173 -0.13725081 0)
(-0.71999804 -0.3959457 0)
(-0.48224624 -0.60043024 0)
(-0.17013191 -0.71748979 0)
(0.13856257 -1.1295452 0)
(0.39310333 -0.95234231 0)
(0.58683122 -0.63610183 0)
(0.71083953 -0.22891777 0)
(0.70994031 0.23462179 0)
(0.59067399 0.63611183 0)
(0.4017256 0.95115497 0)
(0.14281692 1.1249459 0)
(-0.14281691 1.1249459 0)
(-0.40172559 0.95115497 0)
(-0.59067398 0.63611182 0)
(-0.70994031 0.23462179 0)
(-0.71083953 -0.22891778 0)
(-0.58683123 -0.63610184 0)
(-0.39310334 -0.95234231 0)
(-0.13856258 -1.1295452 0)
(-0.0024672818 -1.1870095 0)
(-0.012450595 -0.99260868 0)
(-0.034919968 -0.67012818 0)
(-0.035480333 -0.25023727 0)
(-0.043294232 0.26018896 0)
(-0.049014002 0.66439183 0)
(-0.026489333 0.9899156 0)
(-0.01022158 1.1858066 0)
(0.010221579 1.1858066 0)
(0.026489332 0.98991562 0)
(0.049014002 0.66439185 0)
(0.043294233 0.260189 0)
(0.035480334 -0.25023724 0)
(0.034919969 -0.67012815 0)
(0.012450593 -0.99260866 0)
(0.0024672795 -1.1870095 0)
(0.006847148 -1.2030559 0)
(0.022400259 -0.99865466 0)
(0.045018091 -0.6669797 0)
(0.041654142 -0.24219295 0)
(0.042746515 0.2698272 0)
(0.043707436 0.67219242 0)
(0.01958049 0.99085432 0)
(0.0067115485 1.1776721 0)
(-0.0067114894 1.1776721 0)
(-0.019580441 0.99085431 0)
(-0.043707404 0.6721924 0)
(-0.042746512 0.26982718 0)
(-0.041654166 -0.24219297 0)
(-0.045018125 -0.66697971 0)
(-0.022400303 -0.99865467 0)
(-0.0068471936 -1.2030559 0)
(-0.14434756 -1.1250158 0)
(-0.40326685 -0.95030587 0)
(-0.59306589 -0.63467007 0)
(-0.70862704 -0.22684778 0)
(-0.69786152 0.23527642 0)
(-0.57240011 0.63336864 0)
(-0.38371593 0.9469095 0)
(-0.13428878 1.1214781 0)
(0.13428878 1.1214782 0)
(0.38371594 0.94690956 0)
(0.57240011 0.63336872 0)
(0.69786152 0.23527652 0)
(0.70862703 -0.2268477 0)
(0.59306588 -0.63467001 0)
(0.40326684 -0.95030584 0)
(0.14434756 -1.1250158 0)
(-0.16972702 -0.72692785 0)
(-0.48119692 -0.61263893 0)
(-0.71827266 -0.40840386 0)
(-0.85073378 -0.14674073 0)
(-0.84760413 0.1454538 0)
(-0.71358768 0.40574648 0)
(-0.47814832 0.61311155 0)
(-0.1684056 0.73095945 0)
(0.16840574 0.73095944 0)
(0.47814843 0.61311153 0)
(0.71358777 0.40574645 0)
(0.84760413 0.14545377 0)
(0.85073371 -0.14674076 0)
(0.71827258 -0.40840389 0)
(0.48119682 -0.61263895 0)
(0.16972692 -0.72692786 0)
(-0.11853256 -0.42553044 0)
(-0.33589565 -0.35924306 0)
(-0.50150064 -0.23930744 0)
(-0.59299463 -0.084842282 0)
(-0.5933185 0.08418034 0)
(-0.50325355 0.23774361 0)
(-0.33857039 0.35892413 0)
(-0.1198495 0.42733009 0)
(0.11984948 0.42733013 0)
(0.33857038 0.35892426 0)
(0.50325355 0.23774381 0)
(0.59331849 0.084180636 0)
(0.59299462 -0.084842114 0)
(0.50150065 -0.23930732 0)
(0.33589567 -0.35924301 0)
(0.11853259 -0.42553042 0)
(-0.076201774 -0.31587013 0)
(-0.21626719 -0.26659896 0)
(-0.32342376 -0.17727921 0)
(-0.38195374 -0.06196342 0)
(-0.38253172 0.062963278 0)
(-0.32529555 0.17725156 0)
(-0.21872669 0.26625125 0)
(-0.077403111 0.31593854 0)
(0.077403418 0.31593854 0)
(0.21872696 0.26625119 0)
(0.3252958 0.17725154 0)
(0.38253168 0.062963206 0)
(0.3819535 -0.061963462 0)
(0.32342358 -0.1772793 0)
(0.216267 -0.266599 0)
(0.0762016 -0.31587015 0)
(-0.035043957 -0.096560616 0)
(-0.099222173 -0.081073559 0)
(-0.14821853 -0.053423275 0)
(-0.17482101 -0.017985491 0)
(-0.17498691 0.019588336 0)
(-0.14883611 0.053750278 0)
(-0.10014238 0.080071131 0)
(-0.035521443 0.094948641 0)
(0.035521341 0.094948697 0)
(0.10014232 0.08007135 0)
(0.14883607 0.053750757 0)
(0.1749869 0.019589177 0)
(0.17482102 -0.017985221 0)
(0.14821856 -0.053423168 0)
(0.099222263 -0.08107352 0)
(0.035044043 -0.096560603 0)
(-0.056271926 -0.21922475 0)
(-0.15994257 -0.18527127 0)
(-0.23906633 -0.12304459 0)
(-0.2814579 -0.042350863 0)
(-0.28116935 0.044278757 0)
(-0.2384084 0.12384775 0)
(-0.15941435 0.18465029 0)
(-0.056101049 0.21777296 0)
(0.056101506 0.21777297 0)
(0.15941487 0.18465009 0)
(0.23840905 0.12384778 0)
(0.28116916 0.04427854 0)
(0.28145718 -0.042350854 0)
(0.23906603 -0.12304483 0)
(0.15994234 -0.1852713 0)
(0.056271744 -0.2192248 0)
(-0.021974881 0.15065142 0)
(-0.062079928 0.12788265 0)
(-0.092468835 0.085460457 0)
(-0.10835397 0.030127948 0)
(-0.1076278 -0.029745409 0)
(-0.090710919 -0.085450532 0)
(-0.060463102 -0.12828394 0)
(-0.021336905 -0.15129551 0)
(0.021336009 -0.15129558 0)
(0.060462262 -0.12828376 0)
(0.090709841 -0.085449744 0)
(0.10762805 -0.029742909 0)
(0.10835511 0.030127941 0)
(0.092469308 0.085460309 0)
(0.062080484 0.12788249 0)
(0.021975284 0.15065143 0)
)
;

boundaryField
{
    leftWall
    {
        type            cyclic;
    }
    rightWall
    {
        type            cyclic;
    }
    lowerWall
    {
        type            slip;
    }
    atmosphere
    {
        type            slip;
    }
    defaultFaces
    {
        type            empty;
    }
}


// ************************************************************************* //
