/*--------------------------------*- C++ -*----------------------------------*\
| =========                 |                                                 |
| \\      /  F ield         | OpenFOAM: The Open Source CFD Toolbox           |
|  \\    /   O peration     | Version:  2306                                  |
|   \\  /    A nd           | Website:  www.openfoam.com                      |
|    \\/     M anipulation  |                                                 |
\*---------------------------------------------------------------------------*/
FoamFile
{
    version     2.0;
    format      ascii;
    arch        "LSB;label=32;scalar=64";
    class       surfaceScalarField;
    location    "0.55";
    object      phi_0;
}
// * * * * * * * * * * * * * * * * * * * * * * * * * * * * * * * * * * * * * //

dimensions      [0 3 -1 0 0 0 0];

oriented        oriented;

internalField   nonuniform List<scalar> 
12640
(
5.718308e-07
-6.5571932e-06
2.2582038e-06
-1.962596e-05
5.006412e-06
-3.2490858e-05
8.7625595e-06
-4.5041916e-05
1.3519237e-05
-5.7221403e-05
1.9280942e-05
-6.8919388e-05
2.6047427e-05
-7.9990193e-05
3.3776971e-05
-9.0212539e-05
4.2371339e-05
-9.9330961e-05
5.1675069e-05
-0.00010709358
6.1486204e-05
-0.00011328588
7.1574219e-05
-0.00011775508
8.1699426e-05
-0.00012042049
9.1630403e-05
-0.0001212732
0.00010115747
-0.00012036813
0.00011010164
-0.0001178118
0.00011831934
-0.0001137487
0.00012570367
-0.00010834775
0.00013218304
-0.0001017902
0.00013771797
-9.4259358e-05
0.00014229665
-8.5932343e-05
0.00014593
-7.6973975e-05
0.00014864637
-6.7532643e-05
0.00015048656
-5.7737939e-05
0.0001514991
-4.7699778e-05
0.00015173616
-3.7508715e-05
0.00015125009
-2.7237181e-05
0.00015009051
-1.6941378e-05
0.00014830203
-6.662706e-06
0.00014592521
3.5639464e-06
0.0001429897
1.3720113e-05
0.00013951991
2.3789622e-05
0.00013553254
3.3758343e-05
0.0001310373
4.3613909e-05
0.00012603771
5.3343052e-05
0.00012053218
6.2929595e-05
0.00011451515
7.2352861e-05
0.00010797852
8.1586399e-05
0.00010091312
9.0597007e-05
9.3310242e-05
9.9344038e-05
8.5163213e-05
0.00010777899
7.6469076e-05
0.00011584537
6.7230147e-05
0.00012347883
5.7455541e-05
0.0001306076
4.7162858e-05
0.00013715314
3.6379371e-05
0.00014303143
2.5143753e-05
0.00014815357
1.3506307e-05
0.000152429
1.5341288e-06
0.00015576411
-1.069714e-05
0.00015806974
-2.309153e-05
0.0001592507
-3.5542523e-05
0.00015923456
-4.7928442e-05
0.00015795103
-6.0114709e-05
0.00015534473
-7.1955876e-05
0.00015137814
-8.3298236e-05
0.00014603507
-9.398317e-05
0.00013932404
-0.00010385122
0.0001312811
-0.00011274677
0.00012197203
-0.0001205232
0.0001114934
-0.00012704822
9.9972572e-05
-0.00013220917
8.7566141e-05
-0.00013591777
7.4456916e-05
-0.00013811449
6.0849737e-05
-0.00013877143
4.6965856e-05
-0.00013789421
3.3036574e-05
-0.00013552483
1.9298337e-05
-0.00013173729
5.9842126e-06
-0.00012661573
-6.7379387e-06
-0.00012031363
-1.8606082e-05
-0.00011298331
-2.9457259e-05
-0.00010479792
-3.9151082e-05
-9.5943382e-05
-4.7576544e-05
-8.661252e-05
-5.4655226e-05
-7.6999626e-05
-6.0341792e-05
-6.7295202e-05
-6.4624724e-05
-5.7681254e-05
-6.7524874e-05
-4.8327173e-05
-6.9092967e-05
-3.9386255e-05
-6.9406594e-05
-6.8566772e-05
6.2299053e-07
-7.1801837e-06
2.4444597e-06
-2.1447429e-05
5.4024499e-06
-3.5448848e-05
9.4334296e-06
-4.9072896e-05
1.4565385e-05
-6.2353358e-05
2.0836155e-05
-7.5190158e-05
2.8280128e-05
-8.7434166e-05
3.686546e-05
-9.8797871e-05
4.6477732e-05
-0.00010894323
5.6922673e-05
-0.00011753852
6.7944187e-05
-0.0001243074
7.9251622e-05
-0.00012906251
9.0547474e-05
-0.00013171634
0.000101551
-0.00013227673
0.00011201528
-0.0001308324
0.00012173723
-0.00012753376
0.00013056161
-0.00012257308
0.00013838038
-0.00011616652
0.0001451291
-0.00010853892
0.00015078145
-9.9911716e-05
0.00015534289
-9.0493783e-05
0.00015884387
-8.0474952e-05
0.00016133321
-7.0021979e-05
0.00016287186
-5.9276592e-05
0.00016352735
-4.8355266e-05
0.00016336898
-3.7350345e-05
0.00016246387
-2.6332073e-05
0.00016087391
-1.5351415e-05
0.00015865152
-4.4403145e-06
0.00015584704
6.3684263e-06
0.00015249207
1.7075085e-05
0.00014861264
2.7669045e-05
0.00014422499
3.8145994e-05
0.00013933636
4.8502545e-05
0.00013394616
5.873325e-05
0.00012804734
6.8828412e-05
0.0001216279
7.8772306e-05
0.00011467252
8.8541775e-05
0.00010716438
9.8105152e-05
9.9086912e-05
0.0001074215
9.0425705e-05
0.0001164402
8.1170309e-05
0.00012510077
7.1316154e-05
0.00013333299
6.0866266e-05
0.00014105749
4.983314e-05
0.00014818626
3.8240766e-05
0.0001546238
2.6125356e-05
0.00016026898
1.3536528e-05
0.00016501783
5.3575082e-07
0.00016876488
-1.2769381e-05
0.00017137487
-2.6300959e-05
0.00017278228
-3.9936157e-05
0.00017286976
-5.3538274e-05
0.00017155314
-6.6955375e-05
0.00016876183
-8.0021663e-05
0.00016444443
-9.2560237e-05
0.00015857365
-0.0001043869
0.00015115071
-0.00011531498
0.00014220917
-0.00012516091
0.00013181796
-0.0001337506
0.00012008309
-0.00014092601
0.00010714799
-0.0001465518
9.3191927e-05
-0.00015052151
7.842663e-05
-0.00015276265
6.3090876e-05
-0.000153241
4.7444207e-05
-0.00015196279
3.1758367e-05
-0.00014897526
1.6310801e-05
-0.00014437019
1.3791482e-06
-0.00013824704
-1.2861087e-05
-0.00013078937
-2.6063754e-05
-0.00012217872
-3.8067912e-05
-0.00011262041
-4.8709394e-05
-0.00010233414
-5.7862814e-05
-9.1546719e-05
-6.5442645e-05
-8.0485456e-05
-7.1403055e-05
-6.9371967e-05
-7.5738214e-05
-5.8416692e-05
-7.8480148e-05
-4.7814192e-05
-7.9695467e-05
-3.7739249e-05
-7.9481538e-05
-7.7962249e-05
6.5030757e-07
-7.8304913e-06
2.5403731e-06
-2.3337495e-05
5.6268351e-06
-3.853531e-05
9.8504741e-06
-5.3296535e-05
1.531633e-05
-6.7819214e-05
2.2111248e-05
-8.1985076e-05
3.0320016e-05
-9.5642934e-05
3.9917223e-05
-0.00010839508
5.0758549e-05
-0.00011978456
6.2591117e-05
-0.00012937109
7.5082076e-05
-0.00013679836
8.7858478e-05
-0.00014183892
0.00010054577
-0.00014440363
0.00011279957
-0.00014453053
0.00012432749
-0.00014236033
0.00013490041
-0.00013810667
0.0001443546
-0.00013202726
0.00015258758
-0.00012439951
0.00015955051
-0.00011550184
0.00016523903
-0.00010560023
0.00016968404
-9.4938796e-05
0.00017294283
-8.3733747e-05
0.00017509087
-7.2170012e-05
0.00017621438
-6.0400107e-05
0.00017640398
-4.8544863e-05
0.00017574919
-3.6695559e-05
0.00017433434
-2.4917223e-05
0.00017223444
-1.3251514e-05
0.00016951393
-1.7197979e-06
0.00016622688
9.6554715e-06
0.00016240997
2.0892001e-05
0.00015809
3.1989012e-05
0.0001532814
4.2954591e-05
0.00014798746
5.3796487e-05
0.00014220184
6.4518865e-05
0.00013591031
7.5119944e-05
0.00012909258
8.559004e-05
0.0001217243
9.5910049e-05
0.00011377916
0.0001060503
0.00010523091
0.00011596974
9.6055586e-05
0.00012561553
8.6233511e-05
0.00013492284
7.5751512e-05
0.00014381498
6.4605088e-05
0.00015220391
5.2800151e-05
0.0001599912
4.0355347e-05
0.0001670686
2.7304636e-05
0.00017331969
1.3697601e-05
0.00017862486
-3.9522496e-07
0.00018285771
-1.489493e-05
0.00018587458
-2.9683553e-05
0.0001875709
-4.4633795e-05
0.00018782
-5.9595238e-05
0.00018651459
-7.4397052e-05
0.00018356365
-8.8850297e-05
0.00017889767
-0.00010275111
0.00017247446
-0.00011588512
0.00016428471
-0.00012803306
0.00015435711
-0.00013897759
0.00014276249
-0.00014851102
0.00012961652
-0.00015644357
0.00011508054
-0.00016261174
9.9360098e-05
-0.00016688612
8.2701008e-05
-0.00016917821
6.5382962e-05
-0.0001694459
4.7711894e-05
-0.00016769794
3.0010414e-05
-0.00016399611
1.2608972e-05
-0.00015839562
-4.2213512e-06
-0.00015110832
-2.0148378e-05
-0.0001422992
-3.4872877e-05
-0.00013219263
-4.8174481e-05
-0.0001210346
-5.9867426e-05
-0.00010908575
-6.9811667e-05
-9.6613416e-05
-7.7914976e-05
-8.3883868e-05
-8.4132603e-05
-7.1155058e-05
-8.8467024e-05
-5.8670288e-05
-9.0964918e-05
-4.6652902e-05
-9.1712853e-05
-3.5302045e-05
-9.0832395e-05
-8.8474957e-05
6.2925551e-07
-8.4597468e-06
2.4596726e-06
-2.5167912e-05
5.5248156e-06
-4.1600453e-05
9.7884744e-06
-5.7560194e-05
1.5506036e-05
-7.3536776e-05
2.2826383e-05
-8.9305423e-05
3.1904621e-05
-0.00010472117
4.2710437e-05
-0.00011920089
5.5048385e-05
-0.00013212251
6.8581527e-05
-0.00014290423
8.2873013e-05
-0.00015108984
9.7440646e-05
-0.00015640655
0.00011180781
-0.0001587708
0.00012554591
-0.00015826863
0.00013830369
-0.00015511811
0.00014982126
-0.00014962424
0.0001599301
-0.00014213611
0.00016854321
-0.00013301262
0.00017564036
-0.00012259899
0.00018125268
-0.00011121255
0.00018544877
-9.9134885e-05
0.00018832292
-8.6607893e-05
0.00018998526
-7.3832352e-05
0.00019055349
-6.096834e-05
0.00019014591
-4.8137278e-05
0.00018887566
-3.5425319e-05
0.0001868463
-2.2887854e-05
0.00018414764
-1.0552855e-05
0.00018085774
1.5700997e-06
0.00017702965
1.348356e-05
0.00017270842
2.5213228e-05
0.00016791964
3.6777798e-05
0.00016267407
4.8200162e-05
0.00015696915
5.9501401e-05
0.0001507908
7.0697221e-05
0.00014411547
8.1795275e-05
0.00013691246
9.2793049e-05
0.00012914625
0.00010367625
0.00012077891
0.00011441764
0.00011177244
0.00012497622
0.00010209124
0.00013529672
9.170451e-05
0.00014530958
8.0588489e-05
0.00015493101
6.8728988e-05
0.00016406342
5.6123914e-05
0.00017259627
4.2785203e-05
0.00018040731
2.8741141e-05
0.00018736375
1.4039867e-05
0.00019332614
-1.2479589e-06
0.00019814554
-1.7037928e-05
0.00020166455
-3.3208607e-05
0.00020374158
-4.9618848e-05
0.00020423024
-6.6101577e-05
0.00020299732
-8.2464568e-05
0.00019992664
-9.8492423e-05
0.00019492553
-0.00011394995
0.00018793199
-0.00012858711
0.00017892188
-0.00014214563
0.00016791563
-0.00015436713
0.000154984
-0.00016500271
0.0001402521
-0.00017382327
0.00012390109
-0.0001806301
0.00010616693
-0.00018526496
8.7335861e-05
-0.00018761875
6.7736753e-05
-0.00018763808
4.7731229e-05
-0.00018532951
2.7701841e-05
-0.0001807704
8.0498655e-06
-0.00017404208
-1.0949678e-05
-0.0001653669
-2.8823558e-05
-0.00015496687
-4.5272905e-05
-0.0001431074
-6.0033956e-05
-0.00013008162
-7.2893202e-05
-0.00011619899
-8.3694297e-05
-0.00010177505
-9.233891e-05
-8.7121989e-05
-9.8785669e-05
-7.2540108e-05
-0.0001030489
-5.8310579e-05
-0.00010519445
-4.4689437e-05
-0.000105334
-3.1903052e-05
-0.00010361878
-0.00010023344
5.391941e-07
-8.9989409e-06
2.1333473e-06
-2.6762065e-05
4.9808585e-06
-4.4447964e-05
9.0751893e-06
-6.1654525e-05
1.4932257e-05
-7.9393844e-05
2.276555e-05
-9.7138715e-05
3.2825378e-05
-0.000114781
4.5055393e-05
-0.00013143091
5.918367e-05
-0.00014625079
7.4764746e-05
-0.00015848531
9.1233639e-05
-0.00016755874
0.00010797338
-0.00017314629
0.00012437706
-0.00017517448
0.00013990309
-0.00017379467
0.00015411722
-0.00016933224
0.00016671481
-0.00016222183
0.00017752143
-0.00015294273
0.00018647601
-0.0001419672
0.00019360482
-0.0001297278
0.00019899466
-0.0001166024
0.00020277045
-0.00010291067
0.00020507853
-8.8915975e-05
0.00020607489
-7.482871e-05
0.0002059165
-6.0809948e-05
0.00020475466
-4.6975437e-05
0.00020272963
-3.3400294e-05
0.00019996606
-2.0124285e-05
0.00019656881
-7.1555965e-06
0.00019262824
5.5106612e-06
0.00018820293
1.7908871e-05
0.00018333773
3.0078433e-05
0.00017805653
4.2059e-05
0.00017236472
5.3891967e-05
0.00016625164
6.5614477e-05
0.00015969297
7.7255892e-05
0.00015265336
8.8834886e-05
0.00014508917
0.00010035724
0.00013695123
0.00011181419
0.00012818757
0.00012318131
0.00011874611
0.00013441768
0.00010857735
0.00014546548
9.7637044e-05
0.00015624989
8.5888795e-05
0.00016667925
7.3306707e-05
0.0001766455
5.9878174e-05
0.00018602481
4.5606553e-05
0.00019467894
3.0513414e-05
0.00020245689
1.4644684e-05
0.00020919487
-1.9368904e-06
0.00021472711
-1.9136025e-05
0.00021886368
-3.6828681e-05
0.00022143423
-5.486123e-05
0.00022226279
-7.3048809e-05
0.00022118489
-9.1175471e-05
0.0002180533
-0.0001089958
0.00021274586
-0.00012623828
0.00020517447
-0.00014261077
0.00019529437
-0.00015780816
0.00018311302
-0.00017152217
0.00016869801
-0.00018345309
0.00015218302
-0.00019332282
0.00013377082
-0.00020088839
0.0001137325
-0.00020595511
9.2402581e-05
-0.00020838757
7.0169209e-05
-0.00020811905
4.7462709e-05
-0.00020515753
2.4740324e-05
-0.00019957704
2.4693741e-06
-0.0001915087
-1.901802e-05
-0.000181202
-3.9130255e-05
-0.00016892998
-5.7544926e-05
-0.00015501295
-7.3950985e-05
-0.00013980242
-8.8103733e-05
-0.00012366694
-9.9829784e-05
-0.00010697961
-0.00010902624
-9.0106711e-05
-0.00011565857
-7.3397781e-05
-0.00011975783
-5.7177332e-05
-0.0001214149
-4.1738329e-05
-0.000120773
-2.7337086e-05
-0.00011802002
-0.00011338018
3.7861466e-07
-9.3775555e-06
1.5628355e-06
-2.7946286e-05
4.0220561e-06
-4.6907185e-05
7.7513727e-06
-6.5383841e-05
1.3648984e-05
-8.5291455e-05
2.1986489e-05
-0.00010547622
3.3133274e-05
-0.00012592779
4.6976021e-05
-0.00014527366
6.3144484e-05
-0.00016241925
8.1073308e-05
-0.00017641413
0.00010006266
-0.00018654809
0.00011935039
-0.00019243402
0.00013817761
-0.0001940017
0.00015585579
-0.00019147284
0.00017182829
-0.00018530475
0.00018571236
-0.00017610589
0.00019731024
-0.00016454061
0.00020658915
-0.00015124611
0.00021364052
-0.00013677917
0.00021863404
-0.00012159591
0.00022177874
-0.00010605538
0.00022329635
-9.0433585e-05
0.00022340557
-7.4937923e-05
0.00022231363
-5.9718012e-05
0.00022021146
-4.4873272e-05
0.0002172703
-3.0459127e-05
0.00021363772
-1.6491706e-05
0.00020943247
-2.9503481e-06
0.00020475922
1.0183913e-05
0.00019967749
2.2990601e-05
0.00019423174
3.5524181e-05
0.00018844129
4.7849452e-05
0.00018230331
6.0029952e-05
0.00017579603
7.2121758e-05
0.00016888187
8.4170044e-05
0.00016151069
9.6206066e-05
0.00015362298
0.00010824495
0.00014515309
0.00012028409
0.00013603231
0.0001323021
0.00012619187
0.00014425811
0.0001155659
0.00015609145
0.00010409425
0.00016772153
9.1725403e-05
0.0001790481
7.841936e-05
0.00018995155
6.4150701e-05
0.00020029347
4.8911908e-05
0.00020991773
3.2715283e-05
0.00021865352
1.5596704e-05
0.00022631345
-2.3736744e-06
0.00023269749
-2.110941e-05
0.00023759942
-4.0477998e-05
0.00024080282
-6.0313971e-05
0.00024209877
-8.0414159e-05
0.00024128508
-0.00010053679
0.00023817593
-0.0001204027
0.00023261176
-0.00013969849
0.00022447025
-0.00015808238
0.00021367826
-0.00017519302
0.00020022366
-0.00019066121
0.0001841662
-0.00020412436
0.00016564617
-0.00021524296
0.00014488943
-0.00022371813
0.00012220768
-0.00022930841
9.7992853e-05
-0.00023184527
7.2706068e-05
-0.00023124547
4.6862911e-05
-0.00022752457
2.1019426e-05
-0.00022070967
-4.3455267e-06
-0.00021106233
-2.866536e-05
-0.00019882755
-5.1365028e-05
-0.000184346
-7.2026478e-05
-0.0001680077
-9.0289291e-05
-0.00015023617
-0.00010587526
-0.00013147167
-0.00011859429
-0.00011215606
-0.00012834184
-9.2719287e-05
-0.00013509534
-7.356785e-05
-0.00013890927
-5.5075573e-05
-0.00013990717
-3.7576856e-05
-0.00013827171
-2.1360993e-05
-0.00013423589
-0.00012807548
1.7335017e-07
-9.5509057e-06
8.5534001e-07
-2.8628276e-05
2.9012605e-06
-4.8953105e-05
6.1945161e-06
-6.8677097e-05
1.2123069e-05
-9.1220008e-05
2.1008472e-05
-0.00011436162
3.3337365e-05
-0.00013825668
4.8904384e-05
-0.00016084067
6.7231362e-05
-0.00018074623
8.764582e-05
-0.00019682859
0.00010933849
-0.00020824076
0.00013142441
-0.00021451994
0.00015299608
-0.00021557336
0.00017319324
-0.00021167001
0.00019128711
-0.00020339861
0.00020675711
-0.00019157589
0.00021933319
-0.0001771167
0.00022898802
-0.00016090094
0.00023588508
-0.00014367623
0.00024030581
-0.00012601664
0.00024258131
-0.00010833088
0.00024304415
-9.0896431e-05
0.00024200272
-7.3896488e-05
0.0002397319
-5.7447195e-05
0.00023647202
-4.1613388e-05
0.00023242991
-2.641702e-05
0.00022777689
-1.1838687e-05
0.00022265375
2.1727926e-06
0.00021715759
1.5680075e-05
0.00021136179
2.87864e-05
0.00020530546
4.158051e-05
0.00019899897
5.4155945e-05
0.00019242743
6.6601492e-05
0.00018555424
7.8994946e-05
0.00017832492
9.1399363e-05
0.00017067097
0.00010386001
0.00016251368
0.00011640224
0.00015376773
0.00012903003
0.0001443447
0.00014172512
0.00013415631
0.0001544465
0.00012311757
0.0001671302
0.00011114979
0.0001796893
9.8183753e-05
0.00019201414
8.4162707e-05
0.00020397259
6.9045607e-05
0.00021541057
5.2810431e-05
0.0002261529
3.5459624e-05
0.00023600433
1.7021191e-05
0.00024475188
-2.4476307e-06
0.00025216631
-2.2856122e-05
0.00025800791
-4.4068563e-05
0.00026201526
-6.5909154e-05
0.00026393936
-8.8156449e-05
0.00026353238
-0.00011054121
0.0002605607
-0.00013274677
0.00025481732
-0.00015441171
0.0002461352
-0.00017513594
0.00023440248
-0.00019449053
0.00021957825
-0.00021203173
0.0002017074
-0.00022731878
0.00018093323
-0.0002399349
0.00015750554
-0.00024950977
0.00013178255
-0.00025574204
0.00010422513
-0.00025841906
7.5383085e-05
-0.00025743283
4.5876685e-05
-0.00025279601
1.6382604e-05
-0.00024456431
-1.2577232e-05
-0.00023302176
-4.0207905e-05
-0.0002184934
-6.5893386e-05
-0.0002013938
-8.9126078e-05
-0.00018219784
-0.00010948526
-0.00016141737
-0.00012665573
-0.0001395796
-0.00014043206
-0.00011720848
-0.00015071296
-9.4808618e-05
-0.00015749521
-7.2852093e-05
-0.0001608658
-5.1768331e-05
-0.00016099094
-3.1936613e-05
-0.00015810343
-1.3682696e-05
-0.0001524898
-0.000144476
-3.38079e-08
-9.5170978e-06
2.0840005e-07
-2.8870484e-05
2.083786e-06
-5.0828491e-05
5.1029923e-06
-7.1696303e-05
1.1220601e-05
-9.7337616e-05
2.0811787e-05
-0.00012395281
3.4426413e-05
-0.0001518713
5.1734153e-05
-0.00017814841
7.2153574e-05
-0.00020116565
9.4941885e-05
-0.0002196169
0.00011924091
-0.00023253979
0.00014410785
-0.00023938688
0.00016853439
-0.0002399999
0.00019149895
-0.00023463456
0.00021206341
-0.00022396307
0.0002294935
-0.00020900598
0.00024335865
-0.00019098186
0.00025356843
-0.00017111072
0.00026033047
-0.00015043826
0.00026405203
-0.0001297382
0.00026522771
-0.00010950656
0.00026435019
-9.001891e-05
0.00026185978
-7.1406082e-05
0.0002581281
-5.371552e-05
0.00025346168
-3.6946961e-05
0.00024810974
-2.1065078e-05
0.00024226815
-5.9970967e-06
0.00023609915
8.3417865e-06
0.00022969971
2.2079519e-05
0.00022314101
3.53451e-05
0.00021645519
4.826633e-05
0.00020963993
6.0971204e-05
0.00020266384
7.3577579e-05
0.00019547101
8.6187781e-05
0.00018798571
9.8884663e-05
0.00018011702
0.0001117287
0.0001717632
0.00012475606
0.0001628158
0.00013797744
0.00015316341
0.00015137751
0.00014269523
0.00016491468
0.00013130428
0.00017852115
0.0001188906
0.00019210298
0.00010536435
0.00020554039
9.0649119e-05
0.00021868782
7.4685632e-05
0.00023137405
5.7434875e-05
0.00024340366
3.8883295e-05
0.00025455591
1.9047709e-05
0.00026458747
-2.0233776e-06
0.0002732374
-2.4248672e-05
0.00028023321
-4.748657e-05
0.00028525316
-7.1553829e-05
0.00028800662
-9.6211884e-05
0.00028819043
-0.00012116311
0.00028551192
-0.00014604978
0.00027970399
-0.00017045597
0.00027054139
-0.00019391327
0.00025785978
-0.00021591165
0.00024157663
-0.00023591597
0.00022171173
-0.00025338792
0.00019840518
-0.00026781269
0.00017193031
-0.00027872855
0.00014269841
-0.00028575595
0.00011125253
-0.00028862399
7.8251126e-05
-0.00028719345
4.4446145e-05
-0.00028148401
1.067316e-05
-0.00027155145
-2.2509792e-05
-0.00025774938
-5.4009977e-05
-0.00024048637
-8.3156389e-05
-0.00022027434
-0.00010933812
-0.00019769549
-0.00013206411
-0.00017337135
-0.00015097986
-0.00014793498
-0.00016586843
-0.00012200817
-0.00017663977
-9.6182707e-05
-0.00018332067
-7.1005359e-05
-0.00018604314
-4.6966967e-05
-0.00018502933
-2.4497791e-05
-0.00018057261
-3.949501e-06
-0.00017303809
-0.00016276104
-1.956126e-07
-9.3214852e-06
-2.0355486e-07
-2.8862541e-05
2.0980646e-06
-5.3130111e-05
5.2569225e-06
-7.4855161e-05
1.1927299e-05
-0.00010400799
2.2532924e-05
-0.00013455843
3.7587999e-05
-0.00016692638
5.6605507e-05
-0.00019716592
7.8899788e-05
-0.00022345993
0.00010370791
-0.00024442503
0.00013020381
-0.00025903569
0.00015748357
-0.00026666664
0.00018453379
-0.00026705012
0.00021024001
-0.00026034079
0.00023346805
-0.00024719111
0.00025321441
-0.00022875233
0.00026877915
-0.0002065466
0.0002798875
-0.00018221907
0.00028670293
-0.00015725369
0.00028972856
-0.00013276383
0.00028964704
-0.00010942504
0.00028716662
-8.7538495e-05
0.0002829193
-6.7158756e-05
0.00027742052
-4.821675e-05
0.00027107308
-3.0599518e-05
0.00026418323
-1.4175223e-05
0.00025697891
1.2072248e-06
0.00024963198
1.5688715e-05
0.00024224574
2.9465757e-05
0.00023488381
4.2707033e-05
0.00022756411
5.5586027e-05
0.00022026565
6.8269665e-05
0.00021293468
8.0908544e-05
0.00020549047
9.3631991e-05
0.00019783093
0.00010654421
0.000189838
0.00011972162
0.00018138269
0.00013321137
0.00017232957
0.00014703056
0.00016254086
0.00016116622
0.00015188006
0.00017557548
0.00014021531
0.0001901859
0.00012742246
0.00020489583
0.00011338827
0.00021957458
9.8013624e-05
0.00023406247
8.1216976e-05
0.0002481707
6.2939615e-05
0.00026168102
4.3147991e-05
0.00027434753
2.1842676e-05
0.00028589278
-9.3627831e-07
0.00029601635
-2.513052e-05
0.00030442745
-5.058817e-05
0.00031071081
-7.7125805e-05
0.00031454425
-0.00010449012
0.00031555474
-0.00013235519
0.00031337699
-0.00016031939
0.00030766819
-0.0001879056
0.00029812761
-0.00021456593
0.0002845201
-0.00023969316
0.00026670386
-0.00026263988
0.00024465845
-0.00028274547
0.00021851077
-0.00029937037
0.0001885552
-0.00031193478
0.00015526282
-0.00031995855
0.0001192763
-0.00032309619
8.1388762e-05
-0.00032115852
4.2508481e-05
-0.00031415835
3.6729901e-06
-0.00030218869
-3.4479457e-05
-0.00028567874
-7.0519922e-05
-0.00026514043
-0.0001036947
-0.00024121274
-0.00013326581
-0.00021461551
-0.00015866133
-0.00018610743
-0.00017948794
-0.00015645059
-0.00019552528
-0.00012638294
-0.00020670741
-9.6597169e-05
-0.00021310644
-6.7724284e-05
-0.00021491603
-4.032262e-05
-0.00021243099
-1.4876492e-05
-0.00020601874
8.1952194e-06
-0.0001961098
-0.00018315546
-3.2842652e-07
-8.9930587e-06
-3.4607463e-07
-2.8844893e-05
3.1826381e-06
-5.6658824e-05
7.0248317e-06
-7.8697355e-05
1.4789956e-05
-0.00011177312
2.6905879e-05
-0.00014667436
4.3696813e-05
-0.00018371731
6.4452687e-05
-0.0002179218
8.837699e-05
-0.00024738423
0.0001147331
-0.00027078114
0.00014280383
-0.00028710641
0.00017182357
-0.00029568638
0.00020089394
-0.00029612049
0.0002289313
-0.00028837815
0.00025469604
-0.00027295585
0.00027693179
-0.00025098809
0.00029459256
-0.00022420736
0.00030707399
-0.00019470051
0.00031434079
-0.00016452049
0.00031688727
-0.00013531031
0.0003155568
-0.00010809457
0.00031131097
-8.3292672e-05
0.00030504221
-6.0889996e-05
0.00029747738
-4.0651919e-05
0.00028916268
-2.2284814e-05
0.00028048691
-5.4994508e-06
0.00027174101
9.9531179e-06
0.00026308886
2.4340867e-05
0.00025464302
3.7911597e-05
0.00024645329
5.0896761e-05
0.00023851589
6.3523427e-05
0.00023078362
7.6001941e-05
0.00022317325
8.8518908e-05
0.0002155726
0.00010123264
0.00020784719
0.00011426962
0.0001998465
0.00012772232
0.00019140957
0.0001416483
0.00018236993
0.0001560702
0.00017255987
0.00017097628
0.00016181407
0.00018632128
0.00014997281
0.00020202716
0.00013688498
0.00021798366
0.00012241099
0.00023404858
0.00010642566
0.00025004779
8.8822386e-05
0.00026577398
6.9516954e-05
0.00028098646
4.8452522e-05
0.00029541196
2.560226e-05
0.00030874304
9.8472427e-07
0.00032063389
-2.5309445e-05
0.00033072162
-5.3191102e-05
0.00033859247
-8.246662e-05
0.00034381977
-0.0001128689
0.00034595702
-0.00014404522
0.00034455332
-0.00017554864
0.0003391716
-0.00020683453
0.0003294135
-0.00023726321
0.00031494878
-0.00026611123
0.00029555188
-0.0002925931
0.00027114031
-0.00031589402
0.00024181169
-0.00033521382
0.00020787501
-0.00034981911
0.0001698681
-0.00035909723
0.00012855442
-0.00036260694
8.4898473e-05
-0.00036013134
4.0032881e-05
-0.00035151437
-4.9439789e-06
-0.00033711332
-4.8880515e-05
-0.00031733633
-9.0296908e-05
-0.00029284902
-0.00012818201
-0.00026446098
-0.00016165384
-0.00023307038
-0.00019005193
-0.00019960832
-0.00021295001
-0.00016499382
-0.00023013978
-0.00013010182
-0.0002415994
-9.5740173e-05
-0.00024746809
-6.2631417e-05
-0.00024802479
-3.1405847e-05
-0.00024365656
-2.5850366e-06
-0.00023483955
2.329927e-05
-0.00022199411
-0.00020584082
-5.3366596e-07
-8.4593927e-06
-5.979129e-07
-2.8780646e-05
4.6679261e-06
-6.1924663e-05
9.6616541e-06
-8.3691083e-05
1.9245986e-05
-0.00012135745
3.3689632e-05
-0.000161118
5.2798152e-05
-0.00020282583
7.5525866e-05
-0.00024064951
0.00010097519
-0.00027283356
0.00012847775
-0.0002982837
0.00015748383
-0.00031611249
0.00018744031
-0.00032564286
0.00021766918
-0.00032634936
0.00024725982
-0.00031796879
0.00027502343
-0.00030071946
0.00029956788
-0.00027553254
0.0003195205
-0.00024415997
0.00033384649
-0.0002090265
0.00034212895
-0.00017280296
0.00034466887
-0.00013785023
0.00034235586
-0.00010578155
0.00033638503
-7.7321838e-05
0.00032796086
-5.2465827e-05
0.000318101
-3.0792063e-05
0.00030756349
-1.1747301e-05
0.00029687703
5.1870036e-06
0.00028639544
2.0434711e-05
0.00027631884
3.4417466e-05
0.00026675663
4.7473803e-05
0.00025773683
5.9916566e-05
0.0002492253
7.2034958e-05
0.00024113934
8.4087899e-05
0.00023335743
9.6300818e-05
0.0002257279
0.00010886217
0.00021807684
0.00012192068
0.00021021519
0.00013558396
0.00020194495
0.00014991854
0.00019306433
0.00016495081
0.0001833721
0.00018066852
0.00017267102
0.00019702236
0.00016077079
0.00021392739
0.00014749058
0.00023126386
0.00013266158
0.00024887758
0.00011612988
0.00026657949
9.7759525e-05
0.00028414433
7.7436596e-05
0.00030130938
5.5076438e-05
0.00031777212
3.0630493e-05
0.00033318899
4.0847238e-06
0.00034717966
-2.450221e-05
0.00035930855
-5.5041652e-05
0.00036913191
-8.7354701e-05
0.00037613282
-0.00012117123
0.00037977355
-0.00015611754
0.00037949963
-0.00019170294
0.000374757
-0.00022731029
0.00036502086
-0.0002621949
0.00034983339
-0.00029549473
0.00032885172
-0.00032625441
0.00030189999
-0.00035346426
0.00026902154
-0.00037611668
0.00023052743
-0.00039327648
0.0001870279
-0.00040415418
0.00013943213
-0.00040817445
8.8918741e-05
-0.00040501448
3.6872906e-05
-0.00039455558
-1.5402872e-05
-0.00037716049
-6.6275609e-05
-0.00035338929
-0.00011406811
-0.00032409428
-0.00015747703
-0.0002903102
-0.00019543792
-0.00025316843
-0.0002271937
-0.00021381824
-0.0002523002
-0.00017336893
-0.00027058909
-0.0001328541
-0.00028211423
-9.320953e-05
-0.00028711266
-5.5259309e-05
-0.00028597501
-1.9713679e-05
-0.00027920219
1.2804107e-05
-0.00026735733
4.187433e-05
-0.00025106433
-0.000231052
-1.0329717e-06
-7.426421e-06
-2.06913e-06
-2.7744488e-05
4.3495074e-06
-6.83433e-05
1.082035e-05
-9.0161925e-05
2.3337574e-05
-0.00013387467
4.1534784e-05
-0.00017931521
6.3973773e-05
-0.00022526482
8.9211211e-05
-0.00026588695
0.0001163275
-0.00029994984
0.0001447857
-0.0003267419
0.00017424927
-0.00034557606
0.00020441633
-0.00035580992
0.00023489
-0.00035682304
0.00026504453
-0.00034812332
0.00029391163
-0.00032958656
0.00032015665
-0.00030177756
0.00034222293
-0.00026622625
0.00035866181
-0.00022546538
0.0003685443
-0.00018268544
0.00037175869
-0.00014106462
0.0003690339
-0.00010305677
0.0003616828
-6.997073e-05
0.00035121324
-4.1996268e-05
0.00033898684
-1.8565662e-05
0.00032604863
1.1909026e-06
0.00031317631
1.8059332e-05
0.00030081121
3.2799808e-05
0.00028921941
4.6009262e-05
0.00027851344
5.8179779e-05
0.00026869537
6.9734637e-05
0.00025969163
8.1038691e-05
0.00025137324
9.2406296e-05
0.00024356977
0.00010410429
0.00023608055
0.00011635138
0.00022868407
0.00012931716
0.00022114594
0.0001431221
0.00021322558
0.0001578389
0.00020468156
0.00017349484
0.0001952756
0.00019007447
0.00018477574
0.00020752223
0.00017295856
0.00022574457
0.00015961108
0.00024461135
0.00014453257
0.00026395609
0.00012753683
0.00028357523
0.00010845485
0.00030322632
8.713936e-05
0.00032262487
6.3469637e-05
0.00034144184
3.7361639e-05
0.00035929699
8.7790844e-06
0.00037576221
-2.2276853e-05
0.00039036449
-5.5724632e-05
0.00040257969
-9.141149e-05
0.00041181968
-0.00012907597
0.00041743804
-0.00016833242
0.00041875607
-0.00020865222
0.0004150768
-0.00024934384
0.00040571248
-0.00028954318
0.00039003273
-0.00032822249
0.00036753103
-0.00036421574
0.00033789323
-0.00039626262
0.00030106842
-0.00042308054
0.00025734535
-0.00044346412
0.00020741148
-0.00045639326
0.00015236127
-0.00046111801
9.3643488e-05
-0.0004573059
3.3060797e-05
-0.00044458527
-2.81235e-05
-0.00042347157
-8.7389307e-05
-0.00039475702
-0.00014278266
-0.00035953541
-0.00019269864
-0.00031914949
-0.00023582383
-0.00027504406
-0.00027129914
-0.00022864981
-0.00029869445
-0.00018130668
-0.00031793221
-0.00013422761
-0.0003291933
-8.8488516e-05
-0.00033285175
-4.501204e-05
-0.00032945148
-4.5619574e-06
-0.00031965227
3.2114106e-05
-0.0003040334
6.4629126e-05
-0.00028357935
-0.00025899482
-2.1453826e-06
-5.2810385e-06
-6.5834821e-06
-2.3306388e-05
-1.1940825e-06
-7.37327e-05
7.4620433e-06
-9.8818051e-05
2.4780664e-05
-0.00015119329
4.887852e-05
-0.00020341307
7.5948564e-05
-0.00025233487
0.00010439718
-0.00029433557
0.00013347987
-0.00032903254
0.00016288913
-0.00035615116
0.00019253577
-0.0003752227
0.00022237449
-0.00038564863
0.00025229898
-0.00038674753
0.00028201954
-0.00037784388
0.00031091292
-0.00035847995
0.00033790257
-0.00032876721
0.00036147471
-0.00028979839
0.00037992402
-0.00024391469
0.00039181
-0.00019457142
0.00039644188
-0.0001456965
0.00039413678
-0.00010075167
0.00038610785
-6.1941794e-05
0.00037405405
-2.9942467e-05
0.00035966096
-4.1725723e-06
0.0003443822
1.6469656e-05
0.00032924735
3.3194186e-05
0.00031492906
4.7118102e-05
0.00030179181
5.9146512e-05
0.00028996802
7.0003564e-05
0.00027943712
8.0265537e-05
0.00027007891
9.0396906e-05
0.00026170679
0.00010077841
0.00025408952
0.00011172156
0.00024696644
0.00012347446
0.00024005907
0.00013622454
0.00023308022
0.00015010095
0.00022574106
0.00016517806
0.00021775625
0.00018147965
0.00020884746
0.00019898326
0.00019874559
0.00021762409
0.00018719212
0.00023729803
0.00017393987
0.0002578636
0.00015875368
0.00027914229
0.00014141169
0.00030091722
0.00012170735
0.00032293066
9.9452542e-05
0.00034487968
7.4485114e-05
0.00036640927
4.6674852e-05
0.00038710725
1.5938264e-05
0.0004064988
-1.7752616e-05
0.00042405537
-5.4371023e-05
0.0004391981
-9.3801701e-05
0.00045125035
-0.00013580981
0.00045944614
-0.00018001238
0.00046295864
-0.00022585651
0.00046092093
-0.00027258341
0.00045243938
-0.00031919786
0.00043664718
-0.00036447932
0.00041281249
-0.00040701007
0.00038042398
-0.00044521808
0.00033927643
-0.00047745857
0.00028958584