/*--------------------------------*- C++ -*----------------------------------*\
| =========                 |                                                 |
| \\      /  F ield         | OpenFOAM: The Open Source CFD Toolbox           |
|  \\    /   O peration     | Version:  2306                                  |
|   \\  /    A nd           | Website:  www.openfoam.com                      |
|    \\/     M anipulation  |                                                 |
\*---------------------------------------------------------------------------*/
FoamFile
{
    version     2.0;
    format      ascii;
    arch        "LSB;label=32;scalar=64";
    class       volVectorField;
    location    "0.55";
    object      U_0;
}
// * * * * * * * * * * * * * * * * * * * * * * * * * * * * * * * * * * * * * //

dimensions      [0 1 -1 0 0 0 0];

internalField   nonuniform List<vector> 
6400
(
(0.012432167 -0.40040091 2.9402387e-16)
(0.028278629 -0.3998094 2.8686604e-18)
(0.045786839 -0.39747237 2.2655108e-16)
(0.062146989 -0.39388076 4.1540337e-16)
(0.078628692 -0.38924172 1.2247517e-16)
(0.094954227 -0.38344063 3.0637e-17)
(0.11121154 -0.37630701 -2.8092962e-17)
(0.12737604 -0.3675348 1.9333109e-17)
(0.14321765 -0.35686631 -2.0120951e-17)
(0.15840464 -0.34416399 -4.2047881e-17)
(0.17256802 -0.32943618 -1.815959e-17)
(0.1853619 -0.31283004 -4.8872251e-17)
(0.19650407 -0.29460104 -4.1644775e-17)
(0.20579684 -0.27507533 -2.9204058e-18)
(0.21313238 -0.25461333 2.8691566e-18)
(0.21848679 -0.23357927 -9.0407846e-17)
(0.22190751 -0.21231813 -5.4628677e-17)
(0.22349804 -0.19114017 -4.2381733e-17)
(0.22340233 -0.17031176 -9.2349685e-18)
(0.22179047 -0.15005129 4.0206579e-17)
(0.21884615 -0.13052892 1.6775663e-17)
(0.2147564 -0.11186915 -5.3881996e-20)
(0.20970346 -0.094155123 -8.5421727e-20)
(0.20385873 -0.077434039 -3.3434672e-17)
(0.19737862 -0.061723041 -4.7931477e-17)
(0.19040187 -0.04701509 -1.4026408e-17)
(0.18304821 -0.033284611 1.8620172e-17)
(0.1754182 -0.020492799 4.8911933e-17)
(0.16759445 -0.0085916947 3.1467067e-17)
(0.15964966 0.0024734154 4.2886231e-19)
(0.15161888 0.012754405 7.6212105e-19)
(0.14354672 0.022306746 3.4400177e-18)
(0.13545543 0.031180099 1.1587057e-17)
(0.12735882 0.039419814 1.6256812e-18)
(0.11926326 0.047065487 -8.1868503e-18)
(0.11116921 0.054150134 3.9728545e-18)
(0.10307309 0.060699811 2.7448387e-17)
(0.094968918 0.06673352 4.3345769e-17)
(0.086849822 0.072263351 3.5462334e-17)
(0.078709385 0.077294826 3.5727671e-17)
(0.07054284 0.081827397 2.5975567e-17)
(0.062348112 0.085855086 5.8720011e-18)
(0.054126728 0.089367227 4.6978982e-18)
(0.045884582 0.092349293 1.2413992e-17)
(0.037632753 0.094783819 5.1200023e-17)
(0.029387928 0.096651544 7.5268283e-17)
(0.021173198 0.097932111 5.1469854e-17)
(0.013018262 0.098605949 1.4905573e-17)
(0.0049554227 0.098654724 2.3446659e-18)
(-0.0029917536 0.098061877 3.8219592e-17)
(-0.010759105 0.096812109 3.6668988e-17)
(-0.018288389 0.094902254 3.0333525e-17)
(-0.025529164 0.092332178 2.8977579e-17)
(-0.032420726 0.089110008 1.1377486e-17)
(-0.038899677 0.085253083 2.5144238e-18)
(-0.044901525 0.080788989 1.2927661e-17)
(-0.05036251 0.075756298 1.1641766e-17)
(-0.055221641 0.070204983 -6.5003138e-18)
(-0.059422907 0.064196436 -5.7811743e-18)
(-0.062917567 0.057802984 -1.163247e-17)
(-0.065666398 0.051106882 -7.2861538e-18)
(-0.067641755 0.044198748 -2.0640928e-18)
(-0.068829198 0.037175477 -1.3630322e-17)
(-0.069228598 0.030137774 -1.1613092e-17)
(-0.068854861 0.023187431 -1.6100207e-17)
(-0.067738208 0.016424322 -9.9645303e-18)
(-0.06592377 0.0099434677 6.7885435e-18)
(-0.063470673 0.0038329823 -8.0860425e-18)
(-0.060444914 -0.0018300823 -1.6152282e-17)
(-0.056923993 -0.0069793698 -1.6377488e-17)
(-0.053001444 -0.011562992 -1.8914756e-17)
(-0.048766718 -0.015543789 -6.5648583e-18)
(-0.04431255 -0.018899556 -6.2510338e-18)
(-0.039730901 -0.021622561 -3.8404895e-18)
(-0.035110529 -0.023718988 -3.8844021e-18)
(-0.030534938 -0.025207867 -1.0980397e-17)
(-0.026080632 -0.026119696 -3.0398068e-18)
(-0.021815735 -0.026494827 6.589258e-19)
(-0.017799006 -0.026381766 1.5240251e-18)
(-0.014079083 -0.025835412 7.4349432e-19)
(0.013588738 -0.43882087 4.1626641e-16)
(0.030695271 -0.43740974 6.0419451e-18)
(0.049481358 -0.43412615 2.4331612e-16)
(0.066947233 -0.42957294 -8.931047e-18)
(0.084618239 -0.42442468 -1.1003765e-16)
(0.10240482 -0.41840043 1.8171261e-16)
(0.12042207 -0.41118013 -2.0192417e-17)
(0.13864572 -0.40218661 3.0673755e-17)
(0.15671809 -0.39095736 9.7129661e-17)
(0.17415721 -0.37723645 8.0453417e-18)
(0.19044005 -0.36100058 3.9393023e-17)
(0.20509128 -0.34243682 -9.1442869e-17)
(0.2177373 -0.32188644 -8.9786532e-17)
(0.22813024 -0.29978351 -6.8952906e-17)
(0.23614989 -0.27659989 -7.6943924e-17)
(0.24179012 -0.25280209 -4.2865991e-17)
(0.24513715 -0.22882154 -6.2474582e-17)
(0.24634549 -0.20503636 -8.2864919e-17)
(0.24561531 -0.1817623 -7.2704039e-17)
(0.24317296 -0.15925034 -5.9822315e-17)
(0.23925516 -0.13768868 1.3962005e-17)
(0.23409671 -0.11720788 4.2716066e-18)
(0.22792132 -0.097887682 -2.8871426e-18)
(0.22093517 -0.079764841 -3.5661717e-17)
(0.21332272 -0.062841062 -3.7227365e-17)
(0.20524433 -0.047090735 1.0621786e-17)
(0.19683548 -0.032468072 3.2855164e-17)
(0.18820725 -0.018913602 4.7714626e-17)
(0.17944975 -0.0063591404 3.5468347e-17)
(0.17063482 0.0052704313 1.5591784e-18)
(0.16179906 0.016044001 1.9981947e-17)
(0.15298324 0.026032001 2.0575939e-17)
(0.14420383 0.03529774 8.1544669e-18)
(0.13546828 0.043898028 -1.4097358e-18)
(0.12677555 0.051881674 1.7769488e-18)
(0.1181182 0.05928881 2.6196672e-18)
(0.10948456 0.066150637 1.622042e-17)
(0.10086069 0.072489466 3.359402e-17)
(0.092232109 0.078319014 3.9046527e-17)
(0.083585287 0.08364491 4.5056767e-17)
(0.074909009 0.088465352 3.0293957e-17)
(0.066195526 0.092771888 9.8553545e-18)
(0.05744157 0.096550313 1.2326668e-19)
(0.048649189 0.099781668 8.2730082e-18)
(0.039826706 0.10244325 3.0084332e-17)
(0.030989095 0.10450983 6.2913015e-17)
(0.022159021 0.10595479 6.3047439e-17)
(0.013366755 0.10675232 1.8426311e-17)
(0.0046459969 0.10687735 1.5393896e-18)
(-0.0039762678 0.10629851 2.166937e-17)
(-0.012431352 0.10500726 2.8927373e-17)
(-0.020652011 0.10298655 3.4853321e-17)
(-0.028582206 0.10023144 1.8418893e-17)
(-0.036151732 0.09674589 1.3649463e-17)
(-0.043286684 0.092544375 2.0925134e-17)
(-0.049911099 0.087653374 1.5773475e-17)
(-0.055949038 0.082112437 7.6011244e-18)
(-0.06132703 0.075974893 -1.3646903e-17)
(-0.065976767 0.069308052 -1.0293773e-17)
(-0.069837972 0.062192801 2.8086132e-18)
(-0.072861248 0.054722516 -7.3333413e-18)
(-0.075010753 0.047001264 -4.8924798e-18)
(-0.076266333 0.039141315 -2.0463385e-17)
(-0.076625005 0.0312601 -2.1305872e-17)
(-0.076102018 0.023476833 -8.2307772e-18)
(-0.074731158 0.015908631 -1.1613302e-17)
(-0.072563615 0.0086666813 3.7425493e-18)
(-0.069669616 0.0018523316 -1.025239e-17)
(-0.066124073 -0.0044332656 -2.0767813e-17)
(-0.062021442 -0.010123556 -1.4074268e-17)
(-0.057470001 -0.015156862 -1.2610371e-17)
(-0.052575316 -0.019490713 -5.0824001e-18)
(-0.047446126 -0.02310086 -9.5979482e-18)
(-0.04218985 -0.025980484 -1.6055048e-17)
(-0.036909696 -0.028139252 -9.6199339e-18)
(-0.03170223 -0.029601883 -8.7329785e-18)
(-0.026655361 -0.030406392 -3.9910471e-18)
(-0.021846777 -0.03060208 -1.7214217e-18)
(-0.017342891 -0.030247446 -3.7002023e-18)
(-0.013198041 -0.029408073 -4.8210446e-18)
(0.014223932 -0.48014028 7.6048571e-16)
(0.031901513 -0.47751198 9.6961759e-16)
(0.051460526 -0.47317945 7.4616957e-16)
(0.06975122 -0.467568 3.1687921e-16)
(0.088572779 -0.46220975 1.5482367e-16)
(0.10811752 -0.45638821 1.8179607e-16)
(0.12841103 -0.44958191 1.0893369e-16)
(0.14939378 -0.44077503 3.8102196e-17)
(0.17046579 -0.42921791 2.3253076e-17)
(0.19091784 -0.41450451 8.4908718e-17)
(0.21000823 -0.39658756 7.9856741e-17)
(0.22708747 -0.37572973 7.7128871e-17)
(0.24166479 -0.35240675 2.0706349e-17)
(0.25343358 -0.32721154 2.7511766e-17)
(0.26226769 -0.30077289 -8.6741975e-18)
(0.26819688 -0.27369551 1.4178622e-17)
(0.27137124 -0.24652193 -1.7109075e-17)
(0.27202373 -0.21971259 -2.1769169e-17)
(0.27043657 -0.19363899 -3.2360975e-17)
(0.26691437 -0.16858523 -4.0853468e-17)
(0.26176423 -0.14475441 3.6783668e-17)
(0.2552816 -0.12227777 8.847808e-17)
(0.24774075 -0.10122508 2.0143182e-17)
(0.23938867 -0.081615523 -3.3628193e-17)
(0.23044155 -0.063428211 -2.4843509e-17)
(0.22108326 -0.046612077 1.9270003e-17)
(0.21146544 -0.031094821 7.0825701e-17)
(0.20170902 -0.016790402 3.8657e-17)
(0.191914 -0.0036053972 -7.9279699e-18)
(0.18214193 0.0085601057 -1.6957263e-18)
(0.17243397 0.0197957 1.2685158e-17)
(0.16282314 0.030189396 3.5740869e-17)
(0.15331827 0.039820447 6.3657037e-18)
(0.14391776 0.048758836 -1.3632909e-17)
(0.13461074 0.057063778 -1.1523027e-17)
(0.12537954 0.064783278 -1.2681891e-17)
(0.11620234 0.071954072 9.3767023e-18)
(0.1070553 0.078601867 8.460395e-18)
(0.097914576 0.084741848 -7.4238327e-18)
(0.088757997 0.090379371 9.1829281e-18)
(0.079566517 0.095510837 -1.9240986e-17)
(0.0703255 0.10012464 -2.9420712e-17)
(0.061025824 0.1042022 -2.9383613e-17)
(0.051664766 0.10771917 -3.4589425e-17)
(0.042247091 0.11064662 -2.2374846e-17)
(0.032785535 0.11295214 5.4695289e-18)
(0.023302332 0.11460144 2.7904617e-17)
(0.013828948 0.11556122 -1.1039273e-17)
(0.0043900943 0.11579807 -3.761883e-17)
(-0.0049683276 0.11526647 -2.9629713e-17)
(-0.014173741 0.11395862 -2.0064332e-17)
(-0.023162559 0.11184456 -4.1142552e-18)
(-0.031863307 0.10891252 -7.3428551e-20)
(-0.040195901 0.10516059 -4.4358737e-18)
(-0.048074444 0.10059892 2.3528349e-18)
(-0.055409458 0.095251653 2.293278e-18)
(-0.062110407 0.089158492 -1.2042088e-17)
(-0.068088626 0.082375777 -1.14634e-17)
(-0.073260639 0.074976989 -8.3545405e-18)
(-0.077551736 0.067052491 1.1532721e-18)
(-0.080899608 0.058708402 1.7236411e-17)
(-0.083257803 0.050064542 -1.7966549e-18)
(-0.084598602 0.041251462 -1.3456148e-17)
(-0.084915035 0.032406665 -1.5957288e-17)
(-0.084222388 0.023670447 -1.7349095e-19)
(-0.082558909 0.015181288 1.7904488e-17)
(-0.07998552 0.0070713255 2.2559501e-17)
(-0.076573713 -0.00054110293 1.1073044e-17)
(-0.072417471 -0.0075386625 -1.6231315e-17)
(-0.067641124 -0.013840558 -3.4917637e-18)
(-0.062359238 -0.019376451 1.2517887e-17)
(-0.05669901 -0.024098658 1.2362928e-17)
(-0.050788811 -0.027981141 1.5163165e-18)
(-0.044754542 -0.031018726 -1.2428152e-17)
(-0.038716452 -0.033225757 -5.2205563e-18)
(-0.032786331 -0.034634194 -1.3557916e-18)
(-0.027065219 -0.035291379 8.0647303e-18)
(-0.021641665 -0.035257523 5.0690865e-18)
(-0.016590607 -0.034603138 -8.9014826e-19)
(-0.011972572 -0.033406543 -1.2323412e-18)
(0.013774697 -0.52210559 8.1368314e-16)
(0.030681063 -0.51807534 8.5450693e-16)
(0.050144164 -0.51317874 4.2309241e-16)
(0.068788578 -0.5068161 2.2197595e-16)
(0.088693795 -0.50217241 1.5454342e-16)
(0.11048139 -0.4974624 -1.1743067e-17)
(0.13382108 -0.49199273 5.3663229e-17)
(0.15858176 -0.48406076 4.3850176e-17)
(0.18373126 -0.47255715 4.3512507e-17)
(0.20824383 -0.45691584 5.4139139e-17)
(0.2310855 -0.4370971 1.6759128e-17)
(0.25138376 -0.41349918 2.0423459e-17)
(0.26849988 -0.38680378 1.7029547e-18)
(0.28205384 -0.35783502 -1.4548818e-17)
(0.29191609 -0.32744334 4.1888607e-17)
(0.29817139 -0.2964225 -1.3178615e-18)
(0.30106578 -0.26546018 -5.5959176e-17)
(0.30094918 -0.23511702 -5.8773687e-17)
(0.29822416 -0.20582533 -5.5965087e-17)
(0.29330663 -0.17789892 -1.961098e-18)
(0.28659952 -0.15154769 2.0311273e-17)
(0.27847688 -0.12689345 5.6427748e-17)
(0.26927517 -0.10398543 3.0841363e-17)
(0.25928909 -0.082814925 3.0447117e-17)
(0.24877013 -0.063328842 3.8442443e-17)
(0.23792688 -0.045441858 4.9902388e-17)
(0.22692681 -0.029047366 6.2273791e-17)
(0.21589882 -0.014025583 6.1350582e-17)
(0.20495574 -0.00024865448 5.7198762e-17)
(0.19413337 0.012404293 5.4649083e-17)
(0.18348604 0.024054347 2.4586084e-17)
(0.17303172 0.034809369 2.7330756e-17)
(0.16276877 0.044766702 3.605377e-17)
(0.15268351 0.054011079 3.4803564e-17)
(0.14275221 0.062613236 3.1627236e-17)
(0.13294433 0.070629712 2.9634426e-17)
(0.12322539 0.078103037 3.6557037e-17)
(0.11355947 0.085062259 4.0300037e-17)
(0.1039114 0.09152371 3.2728914e-17)
(0.094248609 0.097491961 2.0687808e-17)
(0.084542686 0.10296091 -2.2977614e-17)
(0.074770753 0.10791497 -4.9575465e-17)
(0.064916648 0.11233027 -4.4500443e-17)
(0.054971881 0.11617595 -5.7314582e-17)
(0.044936719 0.11941562 -4.2295558e-17)
(0.034820824 0.12200856 -3.7143983e-18)
(0.024645552 0.12391128 2.4042496e-17)
(0.014442382 0.12508058 2.8612389e-18)
(0.0042302704 0.12547189 -2.4288285e-17)
(-0.0059311195 0.12503551 -2.7711495e-17)
(-0.015964653 0.12374352 -4.0702203e-17)
(-0.025804858 0.12156156 -3.5798994e-17)
(-0.035367654 0.11846788 -8.8905896e-18)
(-0.044560976 0.1144523 1.070008e-17)
(-0.053284881 0.10951863 3.212066e-17)
(-0.061433929 0.103687 2.1132475e-17)
(-0.068900075 0.096996025 -1.020307e-17)
(-0.075576161 0.089504394 -1.8231524e-17)
(-0.081359965 0.081291835 1.4259414e-17)
(-0.086158679 0.072459105 3.4639313e-17)
(-0.089893562 0.063126896 3.8022636e-17)
(-0.092504453 0.053433507 3.2885245e-18)
(-0.093953626 0.043531272 -6.7229336e-18)
(-0.094228455 0.033581939 -3.3039728e-18)
(-0.093343215 0.023751422 1.3310326e-17)
(-0.091339905 0.014203946 4.5618329e-17)
(-0.088290261 0.0050968451 2.5364e-17)
(-0.08427984 -0.0034241441 6.6699723e-18)
(-0.079418398 -0.011235444 -1.3448639e-17)
(-0.073850199 -0.018229704 -2.6748962e-18)
(-0.067715866 -0.024328132 1.330868e-17)
(-0.061165221 -0.029477539 1.8464397e-17)
(-0.054349523 -0.03365047 7.1350569e-18)
(-0.047416556 -0.03684443 -1.4362864e-17)
(-0.04050661 -0.039080034 -1.2125943e-17)
(-0.033749174 -0.040398483 -1.6966565e-18)
(-0.027260352 -0.040858723 1.1215047e-17)
(-0.021140943 -0.040534307 9.5927565e-18)
(-0.015475354 -0.039510227 7.6871218e-19)
(-0.010330803 -0.037879995 -6.5637345e-18)
(0.011834847 -0.56075852 9.3071037e-16)
(0.026010812 -0.55565754 1.0128669e-15)
(0.044352012 -0.55176053 2.2661665e-16)
(0.062733848 -0.54556831 1.8143478e-16)
(0.083586254 -0.543577 2.0728447e-16)
(0.10827594 -0.54157824 1.0975489e-16)
(0.13558846 -0.53896197 8.0086058e-17)
(0.16536248 -0.5329597 9.7380197e-17)
(0.19584914 -0.522078 3.8083042e-17)
(0.22563882 -0.50562849 8.189827e-17)
(0.25334293 -0.48364476 1.2229072e-16)
(0.27782595 -0.45674577 8.4942153e-17)
(0.29826708 -0.42591006 8.9198948e-17)
(0.31418283 -0.39228538 4.6578887e-17)
(0.32542214 -0.35703144 9.6166461e-17)
(0.33212764 -0.32120468 9.884968e-17)
(0.33466767 -0.28568987 1.1987052e-18)
(0.33355346 -0.25117524 -8.4527029e-18)
(0.32935968 -0.21815994 -2.2589936e-17)
(0.32266235 -0.18697893 7.1190909e-17)
(0.31399931 -0.15783289 7.512014e-17)
(0.30385045 -0.13081609 3.6546264e-17)
(0.29263112 -0.10593996 7.9170824e-17)
(0.28069255 -0.083152702 3.3345653e-17)
(0.26832505 -0.062355913 4.8217765e-17)
(0.25576227 -0.043418832 1.2663778e-16)
(0.24318599 -0.02619089 9.5265146e-17)
(0.23073269 -0.01051054 8.4097134e-17)
(0.21851288 0.0037916044 6.9975447e-17)
(0.2065521 0.016865007 8.069897e-17)
(0.19490102 0.028863226 1.0947666e-16)
(0.18356019 0.039918695 6.7370299e-17)
(0.1725139 0.050149462 4.008644e-17)
(0.16173272 0.059656659 4.0794742e-17)
(0.15117669 0.068523585 7.7488536e-17)
(0.14079921 0.076815821 1.1075345e-16)
(0.13055031 0.084581771 9.0389825e-17)
(0.12037949 0.091853556 8.0601002e-17)
(0.11023804 0.098648142 8.6898189e-17)
(0.10008106 0.1049686 5.7307464e-17)
(0.08986909 0.11080548 -9.018207e-18)
(0.079569544 0.1161382 -6.7519646e-17)
(0.069157905 0.12093652 -6.4001361e-17)
(0.05861877 0.12516189 -4.586664e-17)
(0.04794695 0.12876907 -3.0627398e-17)
(0.037148162 0.13170761 5.6172657e-19)
(0.026241801 0.13392354 1.724801e-17)
(0.015258556 0.13536105 -2.2224261e-18)
(0.0042140387 0.13596507 -1.5677888e-17)
(-0.0068222394 0.13567494 -2.415243e-17)
(-0.01776864 0.13444563 -3.6818137e-17)
(-0.028554202 0.13223262 -2.6904396e-17)
(-0.039082916 0.12900228 -6.4648002e-18)
(-0.049249177 0.12473368 1.0502852e-17)
(-0.058936813 0.11942176 2.7614446e-17)
(-0.068021613 0.11308038 2.6455583e-17)
(-0.076374576 0.10574526 1.1780865e-17)
(-0.083866028 0.09747634 -5.7009401e-18)
(-0.090370557 0.088359354 1.1134819e-17)
(-0.095772615 0.078506296 2.3360583e-17)
(-0.09997249 0.06805446 3.5089589e-17)
(-0.10289222 0.057163834 1.9770366e-17)
(-0.10448076 0.046012876 -3.0122717e-19)
(-0.10471768 0.034792712 -1.5215156e-18)
(-0.10361584 0.023700433 8.4890361e-18)
(-0.10122204 0.012931317 3.9807996e-17)
(-0.0976179 0.0026699676 4.0915927e-17)
(-0.092902533 -0.0068964237 1.9879634e-17)
(-0.08721518 -0.015631492 -1.1717451e-17)
(-0.080721687 -0.023409646 -9.5207601e-18)
(-0.073591439 -0.03013826 3.8329579e-18)
(-0.06600295 -0.035757269 2.2836727e-17)
(-0.058135339 -0.040238243 1.3525763e-17)
(-0.050162527 -0.043582793 -9.5946844e-18)
(-0.042248409 -0.045819952 -5.7539561e-18)
(-0.034543018 -0.047002759 -1.9948298e-18)
(-0.027179648 -0.047204639 1.1037456e-17)
(-0.02027282 -0.046515483 1.1332709e-17)
(-0.013917347 -0.045037837 3.2009678e-18)
(-0.0081876803 -0.042883181 -3.6675997e-18)
(0.0084941752 -0.59118705 1.0061767e-15)
(0.017710888 -0.58611196 1.0469375e-15)
(0.034365482 -0.58621405 4.7188766e-16)
(0.05194263 -0.58173349 1.7752887e-16)
(0.073509884 -0.58554221 2.092162e-16)
(0.10187215 -0.58861647 6.2009836e-17)
(0.13397715 -0.59103684 4.0496666e-17)
(0.16991633 -0.58839368 -1.9275433e-16)
(0.2068305 -0.57888926 -8.4051737e-17)
(0.24294515 -0.56182615 -6.3206958e-17)
(0.27650286 -0.53741436 -1.9953141e-16)
(0.30610129 -0.50659079 -1.1880417e-16)
(0.33071335 -0.47072086 -1.8209946e-16)
(0.34970233 -0.43137168 -2.7558381e-17)
(0.3628369 -0.39011699 -4.7432095e-17)
(0.37027415 -0.34837905 -8.3793096e-17)
(0.37249561 -0.30732391 -8.545205e-17)
(0.37020299 -0.2678194 -1.1741703e-16)
(0.36419962 -0.23044859 -2.7833926e-17)
(0.35528745 -0.19555707 9.5587789e-17)
(0.34419848 -0.16331032 1.4089088e-16)
(0.33156233 -0.13374449 4.556407e-17)
(0.31790047 -0.10680482 6.1837432e-17)
(0.30363437 -0.082372911 5.3851269e-17)
(0.28909795 -0.060286526 3.5023538e-17)
(0.2745494 -0.04035505 9.8648926e-17)
(0.26018174 -0.02237199 8.2676326e-17)
(0.24613935 -0.006125056 6.5887066e-17)
(0.2325105 0.008604542 7.9305363e-17)
(0.21932285 0.022005449 6.1716584e-17)
(0.20660697 0.034262919 9.6337935e-17)
(0.19434413 0.045538543 6.5534915e-17)
(0.18249931 0.055973911 1.5631836e-17)
(0.17102263 0.065688216 2.8823004e-17)
(0.15985371 0.074778177 5.5959433e-17)
(0.14892621 0.083318667 9.3599785e-17)
(0.13817145 0.091363766 9.4498584e-17)
(0.1275215 0.098948135 7.2044641e-17)
(0.11691172 0.10608859 9.6391695e-17)
(0.10628277 0.11278575 6.4953409e-17)
(0.095582342 0.11902575 -1.0266983e-17)
(0.084766551 0.12478187 -5.5922428e-17)
(0.07380114 0.13001624 -6.9946285e-17)
(0.06266251 0.13468136 -3.5641262e-17)
(0.051338915 0.13872166 -1.5128089e-17)
(0.039831197 0.14207534 9.8409029e-18)
(0.028155279 0.14467643 1.6824795e-17)
(0.016341796 0.14645497 -1.2507861e-17)
(0.0044019947 0.14734181 -2.4804443e-17)
(-0.007587657 0.14726424 -2.7580869e-17)
(-0.019538787 0.14615783 -4.1130035e-17)
(-0.03137475 0.14396403 -3.2178416e-17)
(-0.042987071 0.14063438 -2.1311566e-17)
(-0.054255119 0.13613397 -7.6637675e-18)
(-0.065044192 0.1304456 1.5890236e-17)
(-0.075208146 0.12357383 8.4135559e-18)
(-0.084592982 0.11554892 -2.0261355e-17)
(-0.093041641 0.10643023 -3.9447989e-17)
(-0.10039999 0.096308827 2.8321317e-18)
(-0.10652383 0.085308583 3.1048676e-17)
(-0.11128659 0.073585581 1.1069975e-17)
(-0.11458707 0.06132531 -1.7795699e-17)
(-0.11635656 0.048737615 -3.8803301e-17)
(-0.11656395 0.036049505 3.2788072e-18)
(-0.11521946 0.0234967 3.669914e-17)
(-0.11237747 0.011314397 2.5406677e-17)
(-0.10812258 -0.0002756579 2.1301544e-17)
(-0.10257539 -0.011053799 -3.6883172e-19)
(-0.095920586 -0.020851273 -2.4760889e-18)
(-0.088341161 -0.029521299 1.5958513e-17)
(-0.080043819 -0.036957143 3.5167168e-18)
(-0.071242559 -0.043091771 6.7751799e-18)
(-0.062150366 -0.047896863 9.8337956e-18)
(-0.052972421 -0.051380283 1.0073314e-18)
(-0.043900384 -0.053582399 1.4111323e-17)
(-0.035108039 -0.05457147 7.4265303e-19)
(-0.026748184 -0.054439051 8.0276087e-18)
(-0.018950628 -0.053295081 1.7555765e-17)
(-0.01182133 -0.051263299 4.8460781e-18)
(-0.0054418529 -0.04847702 -2.1653283e-19)
(0.0045013006 -0.60923547 8.177323e-16)
(0.0068053627 -0.6061899 5.996145e-16)
(0.022645853 -0.61481729 3.7808695e-16)
(0.039429852 -0.61379727 -9.3701127e-17)
(0.06143517 -0.62750891 -3.9148902e-18)
(0.094267953 -0.63859545 2.1438342e-18)
(0.13153461 -0.64871114 2.2636505e-16)
(0.17429659 -0.65105747 2.4974631e-16)
(0.21806939 -0.64377436 2.2028468e-16)
(0.26089166 -0.62635674 2.905159e-16)
(0.30071227 -0.59932475 2.2583765e-16)
(0.33593041 -0.56401575 3.5971815e-17)
(0.36532995 -0.52223213 7.4803342e-18)
(0.38807124 -0.47601947 -1.4055675e-18)
(0.40374095 -0.42745932 4.0189484e-17)
(0.41239497 -0.3784652 -7.9180772e-17)
(0.41454196 -0.33061443 5.74927e-17)
(0.41104627 -0.28505586 -7.3748802e-17)
(0.402972 -0.2425085 -1.5498058e-16)
(0.39141833 -0.20333102 -1.1258286e-16)
(0.37739294 -0.16762172 -1.1613386e-17)
(0.36174461 -0.13531206 4.5849692e-17)
(0.34514801 -0.10623517 7.2994037e-18)
(0.3281202 -0.080168479 4.0570163e-17)
(0.31104813 -0.056858109 1.3555475e-17)
(0.29421472 -0.036034067 1.7517453e-17)
(0.27781851 -0.017418833 7.8092336e-17)
(0.26202176 -0.00072952457 7.68502e-17)
(0.24684539 0.014289945 8.6658096e-17)
(0.23234388 0.027889843 3.9014932e-17)
(0.2185103 0.040289148 5.1181178e-17)
(0.20530164 0.051681688 7.5765614e-17)
(0.19265696 0.062234587 2.687134e-17)
(0.18050024 0.072086326 3.6422379e-17)
(0.16874579 0.08134751 4.7765575e-17)
(0.15730325 0.090102174 4.047565e-17)
(0.14608159 0.098409481 7.6629929e-17)
(0.13499238 0.10630573 7.4336039e-17)
(0.1239524 0.11380646 9.692041e-17)
(0.11288567 0.12090862 8.5690796e-17)
(0.10172514 0.12759261 2.0926037e-17)
(0.090413983 0.13382425 1.510983e-18)
(0.078906742 0.13955664 -2.3085255e-17)
(0.067170264 0.14473191 -1.243362e-17)
(0.055184981 0.14928276 -1.3149331e-17)
(0.042945988 0.15313437 3.1593872e-17)
(0.030464589 0.15620642 6.1083308e-17)
(0.017768584 0.15841387 1.2432425e-17)
(0.004867958 0.1596698 -1.6979953e-17)
(-0.0081574296 0.1598886 -1.8383261e-17)
(-0.021213905 0.15898192 -1.5593887e-17)
(-0.034217078 0.15687416 4.9917611e-18)
(-0.047045878 0.15349831 4.4634709e-18)
(-0.059563375 0.14880135 -1.0243999e-17)
(-0.071613977 0.1427497 -2.8719871e-17)
(-0.083026105 0.13533448 3.5706879e-18)
(-0.093616061 0.12657687 2.1355608e-17)
(-0.10319352 0.11653291 -1.9505684e-17)
(-0.11156876 0.10529753 -3.2906692e-18)
(-0.11856137 0.093006743 -1.3601293e-17)
(-0.12401026 0.079837716 -2.0722747e-17)
(-0.12778388 0.066005875 6.7679332e-19)
(-0.12978984 0.051758937 -3.2404642e-17)
(-0.12998196 0.037368045 -5.4327846e-18)
(-0.12836499 0.023116992 7.8978138e-18)
(-0.12499975 0.0092910514 -1.337342e-17)
(-0.11998694 -0.003841419 7.6635453e-18)
(-0.11346969 -0.016026421 -1.4394166e-17)
(-0.10566787 -0.027047579 -1.2534961e-19)
(-0.096807347 -0.036734579 1.9836698e-17)
(-0.087137378 -0.04496468 -8.8335021e-18)
(-0.076914939 -0.051664015 -1.2658684e-17)
(-0.066394031 -0.056806173 -1.1466573e-17)
(-0.055817166 -0.060408376 -1.0395317e-17)
(-0.045408568 -0.062526284 2.038539e-17)
(-0.035369345 -0.06324782 -2.3562332e-18)
(-0.025874233 -0.062687328 -1.4538815e-17)
(-0.017069853 -0.060979389 -4.8656602e-19)
(-0.009074392 -0.058272888 1.5800877e-18)
(-0.0019702147 -0.054723954 1.8536802e-17)
(0.0009586893 -0.61329962 9.1840982e-16)
(-0.0047959568 -0.61532036 8.0883383e-16)
(0.013613511 -0.63862302 4.5912607e-16)
(0.030789528 -0.64198154 1.4482272e-16)
(0.052938799 -0.6699035 -1.6480925e-17)
(0.091015613 -0.69204373 -9.2952597e-17)
(0.13314776 -0.71245532 -5.5334556e-17)
(0.18258712 -0.72123093 3.3362522e-16)
(0.23261514 -0.71686354 1.049472e-16)
(0.28144973 -0.69932299 6.1853892e-17)
(0.32692239 -0.66959208 3.3204273e-16)
(0.36739494 -0.62945082 1.0653803e-16)
(0.40156004 -0.58110881 1.9302565e-16)
(0.42837568 -0.52705827 1.0040989e-16)
(0.44714473 -0.46991471 4.6325969e-17)
(0.4576473 -0.41219068 1.1303346e-16)
(0.46023196 -0.3560422 9.985483e-18)
(0.45579066 -0.30307207 1.0669131e-19)
(0.44560283 -0.25425959 6.0324394e-18)
(0.43110457 -0.21002572 6.0378364e-17)
(0.41366906 -0.17038297 1.4066925e-16)
(0.39446245 -0.13509943 9.7155541e-17)
(0.37439068 -0.10382706 5.5421963e-17)
(0.35411435 -0.076179061 4.9763302e-17)
(0.33409515 -0.051766041 2.505657e-18)
(0.31464575 -0.030209213 -4.0565655e-17)
(0.29597232 -0.011141626 -5.4561132e-17)
(0.2782197 0.0058075306 -3.8147607e-17)
(0.26137638 0.020943231 -1.1885405e-17)
(0.24548479 0.034576439 -8.4468769e-18)
(0.23049536 0.046968385 -3.7222367e-17)
(0.21633386 0.058348782 -4.0141453e-17)
(0.20290629 0.068911892 -3.9031823e-17)
(0.19010401 0.078816226 -1.4825487e-17)
(0.1778104 0.088186218 -1.2625903e-17)
(0.16590629 0.097114383 -5.718559e-17)
(0.15427427 0.10566386 -4.089145e-17)
(0.14280203 0.1138712 -2.2403858e-18)
(0.13138501 0.12174914 9.7241175e-19)
(0.11992834 0.12928937 1.7388924e-17)
(0.1083483 0.13646498 -3.5503762e-18)
(0.096573468 0.14323279 -7.8290299e-18)
(0.084545735 0.14953538 -9.0912094e-18)
(0.072221038 0.15530296 -1.6377239e-17)
(0.059570599 0.16045499 -1.8363548e-17)
(0.04658214 0.16490205 3.1513212e-17)
(0.033261382 0.16854715 7.2765892e-17)
(0.019632487 0.17128786 2.0212582e-17)
(0.0057041636 0.17301942 -1.3536025e-17)
(-0.0084458387 0.17363868 -2.3910342e-17)
(-0.02271641 0.17302847 -2.779802e-17)
(-0.037015685 0.17109411 8.310093e-18)
(-0.051210273 0.16774518 2.8776412e-17)
(-0.065145963 0.1629054 -6.4604508e-18)
(-0.078643962 0.15651928 -2.8492467e-17)
(-0.091503468 0.14855903 2.9397309e-17)
(-0.1035057 0.13903161 7.3264805e-18)
(-0.11442002 0.12798563 -1.1635108e-17)
(-0.12401256 0.11551725 8.8438671e-18)
(-0.13205713 0.10177422 5.9656323e-18)
(-0.13834805 0.086957017 2.442656e-17)
(-0.14271381 0.071316156 -2.2565666e-17)
(-0.14503016 0.055145105 -4.0204329e-17)
(-0.14523003 0.038769032 2.3175119e-19)
(-0.14330974 0.02253095 2.8073741e-17)
(-0.13934115 0.0067785377 9.4718569e-18)
(-0.13343549 -0.0081589243 -8.110563e-18)
(-0.12576927 -0.021973175 -1.5997216e-17)
(-0.11660909 -0.034406332 -1.1084432e-17)
(-0.10623249 -0.04525496 3.4491402e-17)
(-0.094942639 -0.054376988 -5.2040752e-18)
(-0.083049989 -0.061692123 -2.8424749e-17)
(-0.070858561 -0.067178729 -1.9744246e-17)
(-0.058655467 -0.070867889 -1.6506089e-17)
(-0.046702964 -0.072835902 1.7360772e-17)
(-0.035233372 -0.073196262 -2.0501381e-17)
(-0.02444584 -0.072092081 -1.3866484e-17)
(-0.014504665 -0.069687682 1.9945893e-19)
(-0.0055375673 -0.066163907 -3.2628121e-18)
(0.0023664884 -0.061692307 1.1650568e-17)
(-0.0013720821 -0.60516781 9.5133132e-16)
(-0.015387646 -0.61647511 7.8357642e-16)
(0.012027142 -0.66292663 4.0717585e-16)
(0.032422966 -0.66891275 6.5066604e-17)
(0.054251955 -0.71460165 1.3792512e-16)
(0.098441451 -0.75027023 -5.6614549e-16)
(0.14462522 -0.78282951 -3.1470997e-16)
(0.199842 -0.79879869 -2.6518933e-16)
(0.25452332 -0.79754392 -3.8495568e-16)
(0.30756835 -0.77988404 -1.7279128e-16)
(0.35693985 -0.74742585 -1.320637e-16)
(0.40119643 -0.70238813 -8.9324974e-17)
(0.43913139 -0.64727002 -1.1971434e-16)
(0.46960545 -0.58485494 -3.8452701e-17)
(0.49161863 -0.5181864 -9.1841573e-17)
(0.50452095 -0.4503891 -2.3374899e-17)
(0.50825117 -0.38434583 -7.468434e-17)
(0.50346936 -0.32234576 -1.0207016e-16)
(0.4914902 -0.265856 -3.3107306e-17)
(0.47403099 -0.21550614 3.8229936e-17)
(0.45288424 -0.17126111 1.6668309e-17)
(0.42964424 -0.13267766 2.8910602e-17)
(0.40556154 -0.09913721 3.7642981e-17)
(0.38152352 -0.069998168 -2.5519494e-17)
(0.35811293 -0.044666313 -1.5901081e-17)
(0.33568893 -0.022606318 -6.8684267e-17)
(0.31449294 -0.003321016 -1.456601e-16)
(0.29457014 0.013633329 -1.2140197e-16)
(0.27594531 0.028657947 -1.1636169e-16)
(0.25859685 0.042114624 -9.1762219e-17)
(0.24243087 0.054313943 -1.4665692e-16)
(0.22733078 0.065524263 -1.7696843e-16)
(0.21316015 0.075968144 -1.4540755e-16)
(0.19977001 0.085824164 -1.4127408e-16)
(0.18700631 0.095229774 -1.2273927e-16)
(0.17471568 0.10428455 -1.5490854e-16)
(0.16274991 0.11305382 -1.5248002e-16)
(0.1509693 0.12157236 -1.0150613e-16)
(0.13924512 0.1298481 -9.9442648e-17)
(0.12746131 0.13786543 -4.6741405e-17)
(0.11551563 0.14558827 -1.5906234e-17)
(0.10332055 0.15296266 -1.6310074e-17)
(0.090803826 0.1599191 -1.803636e-18)
(0.077909151 0.16637434 -2.9749643e-17)
(0.064597194 0.17223301 -5.7423597e-18)
(0.050846585 0.17738931 4.9532394e-17)
(0.036655713 0.18172841 8.4604133e-17)
(0.022044557 0.18512746 4.9870392e-17)
(0.0070220358 0.18746002 9.6420946e-18)
(-0.0083472063 0.18861019 -9.4631664e-18)
(-0.023949757 0.18841637 -3.2838562e-17)
(-0.039686368 0.18676805 -1.9227186e-17)
(-0.055413833 0.18354452 2.1044269e-17)
(-0.07096007 0.17863973 -7.4755949e-18)
(-0.086121001 0.17196931 -3.941123e-18)
(-0.10066268 0.16347925 4.1374851e-17)
(-0.11432518 0.15315524 3.0406998e-18)
(-0.12682919 0.14103233 -1.029899e-17)
(-0.13788615 0.12720366 1.6018605e-17)
(-0.14721172 0.11182711 2.9506364e-17)
(-0.15454243 0.095128414 4.5932006e-17)
(-0.15965416 0.077399078 -1.6289761e-17)
(-0.16238025 0.058988067 -1.0711539e-17)
(-0.16262509 0.040287567 3.8352551e-18)
(-0.16037094 0.021713406 2.3710018e-17)
(-0.1556985 0.0036832807 5.1894503e-17)
(-0.14873193 -0.013364377 4.0330989e-18)
(-0.13970073 -0.029082808 -4.0740891e-18)
(-0.12892406 -0.043153304 -1.3120979e-17)
(-0.116745 -0.055331923 1.5521037e-17)
(-0.10353588 -0.065454769 6.5882531e-19)
(-0.089674238 -0.073436847 -5.1560867e-18)
(-0.075525318 -0.079266042 -1.1743336e-18)
(-0.06142936 -0.082993872 -1.5645744e-17)
(-0.04769276 -0.084724625 -6.2512728e-19)
(-0.034583097 -0.084605105 -2.0140401e-17)
(-0.02232582 -0.082814649 4.6045732e-19)
(-0.011105392 -0.079552921 7.9177995e-18)
(-0.0010438158 -0.075033633 -3.8456106e-20)
(0.0077356222 -0.069465241 -5.0566183e-18)
(-0.0025620008 -0.58819465 7.4896798e-16)
(-0.025361169 -0.61518085 5.1690037e-16)
(0.019482265 -0.69729934 7.41231e-17)
(0.04755498 -0.69917302 1.6337373e-16)
(0.068346871 -0.76480626 5.0603921e-16)