/*--------------------------------*- C++ -*----------------------------------*\
| =========                 |                                                 |
| \\      /  F ield         | OpenFOAM: The Open Source CFD Toolbox           |
|  \\    /   O peration     | Version:  2306                                  |
|   \\  /    A nd           | Website:  www.openfoam.com                      |
|    \\/     M anipulation  |                                                 |
\*---------------------------------------------------------------------------*/
FoamFile
{
    version     2.0;
    format      ascii;
    arch        "LSB;label=32;scalar=64";
    class       volVectorField;
    location    "0.14";
    object      U_0;
}
// * * * * * * * * * * * * * * * * * * * * * * * * * * * * * * * * * * * * * //

dimensions      [0 1 -1 0 0 0 0];

internalField   nonuniform List<vector> 
6400
(
(0.0011029134 0.00077396632 1.0166547e-19)
(0.0011025692 0.00072527373 1.3975156e-20)
(0.0011004899 0.00067782578 -1.5295429e-20)
(0.0010968066 0.00063163831 2.8533402e-20)
(0.0010916431 0.00058672121 -2.5993406e-20)
(0.0010851169 0.0005430791 3.2644782e-20)
(0.0010773387 0.00050071205 5.5821465e-21)
(0.0010684132 0.00045961568 2.8096789e-20)
(0.0010584387 0.00041978201 1.6782921e-20)
(0.001047508 0.00038119983 1.4885521e-20)
(0.001035708 0.00034385499 1.8897377e-21)
(0.0010231204 0.00030773085 3.6251911e-20)
(0.0010098218 0.00027280881 1.1871252e-20)
(0.00099588374 0.00023906808 -1.7038952e-20)
(0.00098137317 0.00020648654 -8.4605972e-21)
(0.00096635254 0.00017504073 1.0725604e-20)
(0.00095088018 0.00014470606 -2.0554346e-22)
(0.00093501033 0.00011545707 2.1502847e-20)
(0.00091879337 8.7267797e-05 -1.1651162e-20)
(0.00090227621 6.0111636e-05 -9.6007026e-21)
(0.00088550169 3.3961136e-05 1.0659212e-20)
(0.00086850773 8.789648e-06 -1.0399911e-20)
(0.00085133852 -1.5427678e-05 8.2478312e-21)
(0.00083402797 -3.8722944e-05 -6.1850728e-21)
(0.00081660155 -6.112149e-05 -1.2122055e-20)
(0.00079909075 -8.2649149e-05 9.0416239e-21)
(0.0007815225 -0.00010333305 3.7841365e-21)
(0.00076392147 -0.00012319965 9.2052908e-21)
(0.0007463101 -0.00014227481 3.047984e-21)
(0.00072870897 -0.00016058376 -1.2040681e-20)
(0.00071113665 -0.0001781518 -1.7018167e-21)
(0.00069361004 -0.00019500341 2.3802537e-20)
(0.00067614457 -0.00021116238 2.2602622e-20)
(0.00065875402 -0.00022665222 -2.7948699e-21)
(0.00064145086 -0.00024149566 -6.686412e-21)
(0.00062424621 -0.00025571481 2.7419591e-21)
(0.00060715002 -0.00026933161 2.542441e-21)
(0.00059017111 -0.0002823665 1.322808e-20)
(0.00057331716 -0.00029484034 2.687698e-21)
(0.00055659494 -0.0003067725 -1.8020299e-20)
(0.00054001034 -0.00031818236 -2.3904674e-21)
(0.00052356834 -0.00032908815 1.1889246e-20)
(0.00050727313 -0.00033950776 4.6561499e-21)
(0.00049112823 -0.00034945849 6.2778532e-22)
(0.00047513654 -0.00035895697 -4.628389e-21)
(0.00045930029 -0.0003680192 -2.7748771e-21)
(0.00044362102 -0.00037666073 9.2257659e-21)
(0.00042809995 -0.00038489616 1.3186121e-20)
(0.00041273774 -0.00039274003 -6.5796813e-21)
(0.0003975345 -0.00040020589 -6.3843185e-21)
(0.00038249007 -0.00040730709 -8.1803219e-22)
(0.00036760381 -0.00041405605 1.7177899e-22)
(0.00035287484 -0.00042046501 1.022667e-20)
(0.00033830191 -0.00042654557 7.1738747e-21)
(0.00032388343 -0.00043230881 -4.5822788e-21)
(0.00030961767 -0.00043776528 2.9486901e-23)
(0.00029550254 -0.00044292498 3.3916111e-21)
(0.00028153582 -0.00044779767 5.2649962e-21)
(0.00026771508 -0.00045239252 -7.2423572e-22)
(0.00025403776 -0.00045671826 -9.3331053e-21)
(0.00024050114 -0.00046078318 -1.0543554e-21)
(0.00022710218 -0.0004645951 1.2541185e-21)
(0.00021383787 -0.00046816148 4.6339651e-21)
(0.00020070518 -0.00047148944 1.2935974e-22)
(0.0001877009 -0.00047458558 -3.9448614e-21)
(0.00017482175 -0.00047745601 -5.1435286e-22)
(0.00016206427 -0.00048010696 5.8039849e-22)
(0.00014942507 -0.00048254363 5.2084933e-21)
(0.00013690072 -0.00048477124 1.9601589e-21)
(0.00012448765 -0.00048679461 -4.9816737e-21)
(0.00011218243 -0.00048861825 3.3409933e-21)
(9.9981514e-05 -0.00049024625 1.908611e-21)
(8.7881285e-05 -0.00049168235 -6.0698768e-23)
(7.5878229e-05 -0.00049293 5.4349097e-22)
(6.3968874e-05 -0.00049399236 1.9320536e-21)
(5.2149872e-05 -0.00049487252 6.0587161e-21)
(4.0417881e-05 -0.00049557319 -1.8675084e-22)
(2.8765924e-05 -0.00049609839 -1.6446609e-21)
(1.7182712e-05 -0.00049645576 -3.131273e-21)
(5.6893314e-06 -0.00049665756 -5.1389862e-21)
(0.0010545963 0.00075938176 1.4819094e-20)
(0.0010554273 0.00071264241 1.615492e-20)
(0.0010545446 0.0006670336 6.613174e-22)
(0.001052073 0.0006225756 -4.486732e-20)
(0.001048131 0.00057928282 -4.6817883e-20)
(0.0010428308 0.00053716446 -4.7140283e-22)
(0.0010362787 0.00049622501 -2.1515836e-21)
(0.0010285754 0.00045646456 1.9778339e-20)
(0.0010198157 0.00041787955 -2.7769481e-20)
(0.0010100892 0.00038046301 -8.562159e-21)
(0.00099948025 0.00034420497 5.0728847e-22)
(0.000988068 0.00030909287 2.7046367e-20)
(0.000975927 0.00027511198 -3.6560135e-21)
(0.00096312704 0.00024224547 -4.611117e-20)
(0.00094973355 0.00021047482 -1.3741834e-20)
(0.0009358078 0.00017978006 3.5235606e-21)
(0.00092140704 0.00015014009 -1.1870643e-21)
(0.00090658458 0.00012153276 -2.8942408e-21)
(0.00089139019 9.3935224e-05 -2.4137877e-20)
(0.00087587034 6.732376e-05 -3.0163327e-21)
(0.00086006772 4.1674399e-05 5.689179e-21)
(0.00084402058 1.6963526e-05 1.2340961e-21)
(0.00082777019 -6.8308448e-06 4.4083338e-21)
(0.00081135186 -2.9745079e-05 -8.2651721e-21)
(0.00079479371 -5.1793628e-05 -4.7406414e-21)
(0.00077812543 -7.3002723e-05 7.0723942e-21)
(0.00076137398 -9.3397478e-05 4.3966742e-23)
(0.00074456454 -0.0001130023 5.8593382e-21)
(0.00072771994 -0.00013184146 -1.8503808e-21)
(0.00071086116 -0.00014993833 5.6743057e-21)
(0.00069400733 -0.00016731641 1.3480384e-20)
(0.00067717578 -0.00018399845 9.347146e-21)
(0.00066038231 -0.00020000709 1.1412029e-20)
(0.00064364143 -0.00021536421 -1.1996366e-21)
(0.0006269661 -0.0002300912 -1.8756407e-21)
(0.000610368 -0.00024420891 3.4626428e-21)
(0.00059385763 -0.00025773807 3.0305422e-21)
(0.00057744434 -0.00027069815 7.3223412e-21)
(0.00056113646 -0.00028310864 -2.6619453e-21)
(0.00054494142 -0.00029498833 -7.4089219e-21)
(0.00052886566 -0.00030635539 6.8680422e-22)
(0.00051291472 -0.00031722723 6.2915741e-21)
(0.00049709347 -0.00032762095 3.715873e-21)
(0.00048140599 -0.00033755316 8.1791888e-22)
(0.00046585568 -0.00034703973 1.4719583e-21)
(0.00045044537 -0.00035609595 3.6526417e-21)
(0.00043517724 -0.00036473672 8.9273093e-21)
(0.00042005293 -0.00037297613 8.2815034e-21)
(0.00040507373 -0.00038082821 3.5329277e-21)
(0.0003902404 -0.00038830591 4.8711172e-21)
(0.00037555314 -0.00039542204 -1.0055369e-21)
(0.00036101187 -0.00040218879 -5.2171877e-21)
(0.00034661629 -0.00040861785 2.8459926e-21)
(0.00033236555 -0.0004147204 7.6197106e-21)
(0.00031825857 -0.00042050726 5.6842062e-21)
(0.00030429412 -0.00042598858 7.7339205e-21)
(0.00029047062 -0.00043117411 3.4768862e-21)
(0.00027678628 -0.00043607322 8.2204347e-21)
(0.00026323906 -0.000440695 3.2758138e-21)
(0.00024982685 -0.00044504779 -4.9076114e-22)
(0.00023654733 -0.00044913973 3.5510899e-21)
(0.00022339796 -0.00045297827 -2.8151729e-21)
(0.0002103761 -0.00045657087 3.8436148e-21)
(0.00019747909 -0.00045992448 5.1137253e-21)
(0.00018470405 -0.00046304539 4.6863009e-21)
(0.00017204811 -0.00046593977 1.167345e-21)
(0.00015950828 -0.00046861339 -1.1331606e-21)
(0.0001470814 -0.00047107167 3.0778524e-21)
(0.00013476441 -0.00047331958 -2.9788169e-22)
(0.00012255423 -0.0004753618 3.1181143e-21)
(0.00011044764 -0.00047720287 4.5288416e-21)
(9.8441384e-05 -0.00047884668 1.9505563e-21)
(8.653222e-05 -0.000480297 3.499714e-21)
(7.4716944e-05 -0.00048155724 1.7004397e-21)
(6.2992424e-05 -0.00048263039 4.2640504e-21)
(5.1355564e-05 -0.00048351962 3.1507391e-21)
(3.9803333e-05 -0.00048422756 1.2393705e-21)
(2.8329127e-05 -0.00048475825 3.2033792e-21)
(1.6922079e-05 -0.00048511938 2.0633838e-21)
(5.603104e-06 -0.00048532326 -3.4403615e-21)
(0.0010082678 0.00074428239 9.0673909e-21)
(0.001010161 0.00069944846 -3.7069338e-21)
(0.0010103662 0.00065563762 -3.1937819e-20)
(0.0010090018 0.000612874 -2.9565931e-20)
(0.0010061809 0.00057117616 -1.2033242e-20)
(0.0010020107 0.00053055729 -1.1354942e-20)
(0.00099659308 0.00049102592 -2.2737716e-20)
(0.00099002444 0.00045258614 -3.2502747e-20)
(0.0009823962 0.00041523836 -2.7519881e-20)
(0.00097379472 0.00037897951 -1.1337614e-21)
(0.00096430139 0.00034380346 -9.3888515e-22)
(0.00095399292 0.00030970137 -1.9985838e-20)
(0.00094294172 0.00027666218 -6.1189702e-20)
(0.00093121574 0.0002446726 -4.4293095e-20)
(0.00091887873 0.00021371756 1.8091207e-20)
(0.00090599054 0.00018378037 4.4917196e-21)
(0.00089260722 0.00015484311 -2.5264125e-20)
(0.00087878125 0.00012688681 -3.2951211e-20)
(0.0008645616 9.9891419e-05 -2.6581768e-20)
(0.00084999403 7.3836175e-05 3.4996433e-21)
(0.00083512133 4.8699988e-05 8.4142142e-21)
(0.00081998315 2.4460989e-05 -1.2254487e-20)
(0.00080461149 1.0987189e-06 -2.4072764e-20)
(0.00078904836 -2.1414849e-05 -1.6017423e-21)
(0.00077332811 -4.3098002e-05 -3.8164723e-21)
(0.00075747191 -6.3973712e-05 1.9199562e-21)
(0.00074150874 -8.4064353e-05 -1.0704534e-20)
(0.00072546436 -0.0001033924 -1.8429081e-20)
(0.00070936184 -0.00012198046 -8.5225869e-21)
(0.00069322244 -0.00013985012 6.3761829e-21)
(0.0006770656 -0.00015702322 7.1079524e-21)
(0.00066090918 -0.00017352086 -1.3663624e-20)
(0.00064476938 -0.00018936435 -1.2961573e-20)
(0.00062866103 -0.00020457411 2.0896221e-21)
(0.00061259765 -0.00021917026 1.2771729e-21)
(0.00059659144 -0.00023317254 -9.9433924e-21)
(0.00058065344 -0.0002466001 -1.7447527e-20)
(0.00056479345 -0.00025947169 -5.7945576e-21)
(0.00054902036 -0.00027180572 -4.3801778e-21)
(0.00053334213 -0.00028361991 -8.1838074e-21)
(0.00051776568 -0.00029493153 5.875064e-21)
(0.0005022972 -0.0003057572 -2.5222351e-21)
(0.00048694204 -0.00031611312 -5.8479738e-21)
(0.00047170477 -0.00032601523 8.807307e-22)
(0.00045658944 -0.00033547864 -1.9641584e-21)
(0.0004415993 -0.00034451793 -5.3072838e-22)
(0.00042673703 -0.00035314742 -3.1404819e-21)
(0.00041200491 -0.00036138078 -7.2776773e-21)
(0.00039740466 -0.00036923122 8.6928474e-22)
(0.00038293752 -0.00037671137 1.0164488e-20)
(0.0003686043 -0.00038383348 2.9747862e-21)
(0.00035440536 -0.00039060927 -1.0037896e-20)
(0.00034034079 -0.00039705012 -7.7580353e-21)
(0.00032641029 -0.00040316667 -5.6138812e-22)
(0.00031261328 -0.00040896957 1.5650168e-21)
(0.0002989489 -0.00041446839 5.2499471e-21)
(0.00028541596 -0.00041967286 -1.4551648e-21)
(0.00027201325 -0.00042459188 2.8294986e-21)
(0.00025873916 -0.00042923429 -8.4375011e-22)
(0.00024559186 -0.00043360814 -1.7619465e-21)
(0.00023256947 -0.00043772144 5.2585657e-21)
(0.00021966987 -0.00044158141 -5.2379672e-21)
(0.00020689085 -0.00044519522 3.7079058e-22)
(0.00019423005 -0.00044856977 4.6051923e-22)
(0.00018168505 -0.00045171111 1.0202799e-21)
(0.00016925325 -0.00045462533 2.826714e-22)
(0.00015693195 -0.00045731787 -4.6820072e-21)
(0.00014471854 -0.00045979424 -9.4129925e-22)
(0.00013261024 -0.00046205933 -3.8551701e-22)
(0.00012060421 -0.00046411747 1.2059639e-21)
(0.00010869752 -0.00046597331 1.2206119e-21)
(9.6887377e-05 -0.00046763058 -1.5441662e-21)
(8.5170838e-05 -0.00046909299 1.2076592e-21)
(7.3544904e-05 -0.00047036397 -1.8438617e-21)
(6.2006784e-05 -0.00047144643 -1.4169609e-21)
(5.0553704e-05 -0.00047234342 -1.3098474e-21)
(3.9182922e-05 -0.00047305761 -3.2542281e-22)
(2.7888114e-05 -0.00047359302 -6.662166e-23)
(1.6658889e-05 -0.00047395741 -4.8457054e-23)
(5.5160183e-06 -0.00047416308 -8.6747243e-22)
(0.0009638751 0.0007287552 3.3256096e-20)
(0.00096672457 0.00068577665 -1.8368276e-20)
(0.00096791516 0.00064372013 -4.556885e-21)
(0.00096755945 0.00060261336 6.8293939e-21)
(0.00096576477 0.00056247843 1.2850663e-20)
(0.00096263352 0.00052333213 -1.9743691e-20)
(0.000958263 0.00048518645 -3.4043984e-20)
(0.00095274563 0.00044804931 -2.4917609e-20)
(0.00094616915 0.00041192448 2.9328872e-21)
(0.00093861661 0.00037681256 -8.0673722e-21)
(0.00093016651 0.00034271088 -2.1163146e-20)
(0.00092089306 0.00030961408 -2.6513812e-20)
(0.00091086632 0.00027751439 -2.6196136e-21)
(0.00090015223 0.00024640183 -2.2614887e-22)
(0.00088881288 0.00021626451 -1.1686431e-21)
(0.00087690666 0.00018708884 -6.6851453e-21)
(0.00086448828 0.00015885992 -1.7814834e-21)
(0.0008516091 0.00013156159 1.3755932e-20)
(0.00083831725 0.0001051766 -2.5452303e-21)
(0.00082465768 7.9686832e-05 9.7179852e-21)
(0.00081067247 5.5073709e-05 -7.8353403e-21)
(0.00079640057 3.1317265e-05 -1.0726278e-20)
(0.00078187626 8.3976462e-06 4.4991179e-21)
(0.00076713827 -1.3701503e-05 3.9649602e-21)
(0.00075221928 -3.5006625e-05 -1.4102775e-21)
(0.00073714425 -5.5535787e-05 -5.2863063e-21)
(0.00072194117 -7.5308941e-05 -1.2823054e-20)
(0.00070663532 -9.4346885e-05 -9.0776737e-22)
(0.00069125011 -0.00011267013 3.5860522e-21)
(0.00067580696 -0.00013029886 8.5124762e-21)
(0.00066032565 -0.00014725321 1.4817662e-20)
(0.00064482429 -0.00016355295 -6.8298755e-21)
(0.00062931954 -0.0001792177 -9.11105e-21)
(0.00061382659 -0.00019426664 2.9171895e-21)
(0.00059835927 -0.00020871861 1.6792563e-21)
(0.00058293021 -0.00022259235 2.5277709e-21)
(0.00056755085 -0.00023590556 -9.6299688e-21)
(0.00055223164 -0.00024867594 -1.2004332e-21)
(0.00053698183 -0.00026092113 -3.465712e-21)
(0.00052180967 -0.00027265765 -4.4576015e-22)
(0.00050672273 -0.00028390193 4.9487003e-21)
(0.00049172773 -0.00029466994 -8.0280701e-22)
(0.00047683043 -0.00030497684 6.0795102e-21)
(0.0004620359 -0.00031483793 7.2517807e-22)
(0.00044734862 -0.0003242675 3.2659627e-21)
(0.00043277243 -0.00033327963 9.9764716e-22)
(0.00041831056 -0.00034188795 -3.0616565e-21)
(0.00040396566 -0.00035010558 -3.8794184e-21)
(0.00038973993 -0.00035794505 -3.5557557e-21)
(0.00037563512 -0.00036541873 1.2826548e-20)
(0.0003616524 -0.0003725382 1.0082655e-20)
(0.00034779268 -0.00037931477 -5.291357e-22)
(0.00033405647 -0.0003857594 2.7708756e-21)
(0.00032044391 -0.00039188244 5.580045e-22)
(0.0003069549 -0.00039769399 1.2186247e-21)
(0.00029358897 -0.00040320333 1.1044112e-21)
(0.00028034538 -0.00040842002 -2.447956e-21)
(0.00026722322 -0.00041335273 3.8656669e-21)
(0.00025422139 -0.00041800967 -2.3962915e-22)
(0.0002413385 -0.00042239896 5.0756391e-22)
(0.00022857296 -0.00042652817 3.8706923e-21)
(0.00021592303 -0.00043040446 -2.3727685e-21)
(0.00020338692 -0.00043403473 5.3277932e-21)
(0.00019096257 -0.00043742565 5.2598108e-21)
(0.00017864791 -0.00044058324 5.5659954e-22)
(0.00016644083 -0.0004435133 -1.3885251e-21)
(0.00015433888 -0.00044622119 -2.550516e-21)
(0.00014233972 -0.00044871228 4.289788e-21)
(0.00013044096 -0.00045099136 2.0569287e-21)
(0.00011864004 -0.00045306267 3.9188202e-23)
(0.00010693447 -0.00045493068 1.1932414e-21)
(9.5321619e-05 -0.0004565992 3.6472812e-23)
(8.3798886e-05 -0.00045807169 1.9489051e-21)
(7.2363679e-05 -0.0004593516 3.3541307e-21)
(6.1013363e-05 -0.00046044191 -2.0503514e-21)
(4.9745453e-05 -0.00046134538 -1.5156378e-21)
(3.8557504e-05 -0.00046206486 3.8735472e-21)
(2.7443558e-05 -0.00046260422 3.6325916e-21)
(1.6393575e-05 -0.00046297133 -2.8801918e-21)
(5.4282101e-06 -0.00046317858 -1.4248878e-21)
(0.00092136365 0.00071288074 8.5825728e-20)
(0.00092507005 0.00067170566 4.5903601e-20)
(0.00092714987 0.00063135797 -2.0226802e-20)
(0.00092770979 0.00059186844 2.8605523e-20)
(0.00092685179 0.00055326217 4.5766495e-20)
(0.00092467319 0.00051555908 1.0944238e-20)
(0.00092126693 0.00047877439 1.7375659e-20)
(0.00091672144 0.00044291923 -1.6262349e-21)
(0.00091112069 0.00040800059 2.7391469e-20)
(0.00090454439 0.00037402236 1.5860293e-20)
(0.00089706813 0.00034098491 6.4320908e-21)
(0.00088876352 0.00030888617 3.2515843e-20)
(0.00087969825 0.0002777213 2.6650194e-20)
(0.00086993629 0.00024748345 1.3845402e-20)
(0.00085953787 0.00021816362 -1.2414982e-21)
(0.00084855969 0.00018975112 7.6793114e-21)
(0.00083705517 0.00016223382 5.0485149e-20)
(0.00082507449 0.00013559825 2.3135151e-20)
(0.00081266478 0.00010982976 -1.7885566e-20)
(0.00079987013 8.4912813e-05 7.3560281e-21)
(0.00078673191 6.0831037e-05 -1.8735447e-21)
(0.00077328853 3.7567358e-05 7.5328754e-21)
(0.00075957474 1.5104632e-05 1.8459766e-20)
(0.00074562728 -6.5729417e-06 -4.7132743e-21)
(0.00073147858 -2.7491417e-05 3.1420656e-21)
(0.00071715512 -4.7662806e-05 -2.8655349e-21)
(0.0007026839 -6.7106793e-05 5.2633224e-21)
(0.00068809021 -8.5842589e-05 4.2944272e-21)
(0.00067339765 -0.00010388887 -9.0194493e-22)
(0.00065862778 -0.00012126437 3.9459571e-21)
(0.0006438006 -0.00013798766 -2.1813234e-21)
(0.00062893435 -0.00015407698 7.3983141e-21)
(0.00061404594 -0.00016955064 1.4262483e-20)
(0.00059915095 -0.0001844265 6.3986359e-21)
(0.00058426356 -0.00019872215 4.2293502e-21)
(0.00056939671 -0.00021245508 6.2090739e-22)
(0.0005545622 -0.00022564202 1.9699037e-21)
(0.0005397708 -0.00023829955 1.3795341e-20)
(0.00052503222 -0.00025044421 -2.0415665e-21)
(0.00051035524 -0.00026209179 5.1085774e-21)
(0.00049574783 -0.00027325772 6.2112531e-21)
(0.00048121697 -0.00028395715 -1.6991941e-21)
(0.00046676901 -0.0002942045 7.623005e-21)
(0.00045240953 -0.00030401422 3.2629074e-21)
(0.00043814329 -0.00031339995 7.2282751e-22)
(0.00042397465 -0.00032237525 -7.168494e-23)
(0.00040990728 -0.00033095301 3.6116493e-21)
(0.00039594432 -0.00033914575 9.4427387e-21)
(0.00038208831 -0.00034696549 -2.4023981e-21)
(0.00036834143 -0.00035442416 2.8327995e-21)
(0.00035470543 -0.00036153278 1.822876e-21)
(0.00034118159 -0.00036830228 -2.8083426e-21)
(0.00032777077 -0.00037474306 1.2290416e-20)
(0.00031447356 -0.00038086527 3.1422459e-21)
(0.00030129027 -0.00038667845 2.5683344e-21)
(0.00028822085 -0.00039219177 5.9206085e-22)
(0.00027526499 -0.00039741426 -1.6784115e-21)
(0.00026242217 -0.00040235453 6.6580532e-21)
(0.00024969157 -0.00040702029 -2.1123188e-21)
(0.00023707218 -0.00041141953 -1.0168336e-21)
(0.00022456284 -0.00041555944 3.0679448e-21)
(0.00021216216 -0.00041944712 -4.223863e-21)
(0.00019986875 -0.00042308927 6.8138614e-21)
(0.00018768091 -0.00042649223 5.845414e-21)
(0.00017559681 -0.00042966194 1.6550938e-21)
(0.00016361462 -0.00043260407 2.1630287e-21)
(0.00015173243 -0.00043532383 -2.8655686e-21)
(0.00013994812 -0.0004378264 6.5723942e-21)
(0.00012825957 -0.00044011643 1.0662725e-21)
(0.00011666459 -0.00044219823 -1.8888865e-21)
(0.00010516091 -0.00044407596 1.4482183e-21)
(9.3746279e-05 -0.0004457535 8.5510165e-22)
(8.2418407e-05 -0.00044723419 2.7932107e-21)
(7.1174923e-05 -0.00044852133 4.2022049e-21)
(6.001342e-05 -0.00044961794 5.4115724e-21)
(4.8931772e-05 -0.00045052673 2.7462355e-21)
(3.7927843e-05 -0.00045125052 -1.035588e-21)
(2.6995919e-05 -0.00045179317 1.4425235e-21)
(1.6126408e-05 -0.0004521625 -5.5643657e-21)
(5.3398062e-06 -0.00045237102 -6.0915227e-21)
(0.00088067746 0.00069673341 4.2820014e-20)
(0.00088514782 0.00065730863 7.5756575e-20)
(0.0008880267 0.0006186227 -2.8182537e-21)
(0.00088941485 0.00058070897 -3.2029754e-21)
(0.00088940896 0.00054359519 2.0317375e-20)
(0.00088810161 0.00050730395 4.7594916e-20)
(0.00088558117 0.00047185347 4.0976098e-20)
(0.00088193202 0.00043725751 -1.0547596e-20)
(0.0008772345 0.00040352613 -1.9074033e-20)
(0.00087156507 0.00037066605 1.2248338e-20)
(0.00086499638 0.00033868054 3.2225445e-20)
(0.00085759732 0.00030757031 3.1845089e-20)
(0.00084943312 0.00027733336 8.2986858e-21)
(0.00084056561 0.00024796565 1.1372952e-20)
(0.00083105323 0.0002194609 2.7799399e-21)
(0.00082095107 0.00019181106 1.8090161e-20)
(0.00081031103 0.00016500658 3.2826379e-20)
(0.000799182 0.00013903653 3.7149093e-22)
(0.00078761004 0.00011388861 -8.0732673e-22)
(0.00077563838 8.9549803e-05 1.2343439e-21)
(0.00076330757 6.600576e-05 1.7231192e-21)
(0.00075065572 4.3241899e-05 7.1696924e-21)
(0.00073771828 2.1242882e-05 1.6461554e-21)
(0.00072452563 -6.2250255e-09 -5.854633e-21)
(0.00071111436 -2.0525872e-05 8.083911e-21)
(0.00069751468 -4.032916e-05 7.4316193e-21)
(0.00068374787 -5.9433829e-05 -8.5427038e-22)
(0.00066984041 -7.785686e-05 1.5042465e-21)
(0.00065581614 -9.5615463e-05 4.328432e-21)
(0.00064169675 -0.00011272678 -4.8257071e-21)
(0.00062750224 -0.0001292078 -2.8941608e-21)
(0.00061325115 -0.00014507556 1.9286349e-20)
(0.00059896055 -0.0001603468 1.6750133e-20)
(0.00058464614 -0.00017503835 -2.5607451e-21)
(0.00057032244 -0.00018916647 -4.5807016e-21)
(0.00055600264 -0.00020274744 -1.63971e-21)
(0.00054169884 -0.00021579703 1.4740123e-20)
(0.00052742223 -0.00022833087 1.6612307e-20)
(0.00051318293 -0.00024036433 -7.6117715e-21)
(0.00049899005 -0.00025191244 -1.487574e-20)
(0.00048485181 -0.00026298972 2.0760199e-21)
(0.00047077567 -0.00027361034 1.7495573e-20)
(0.00045676827 -0.00028378824 4.7319934e-21)
(0.00044283562 -0.00029353694 -2.9567135e-21)
(0.0004289831 -0.00030286948 -5.1477639e-21)
(0.0004152153 -0.0003117988 -1.6629982e-21)
(0.0004015363 -0.00032033705 8.2419792e-21)
(0.00038794964 -0.00032849624 7.9567397e-21)
(0.00037445833 -0.00033628799 5.2883489e-24)
(0.00036106492 -0.00034372352 -2.3708905e-21)
(0.00034777144 -0.00035081352 -5.0795508e-21)
(0.0003345797 -0.00035756839 -1.239763e-21)
(0.00032149098 -0.00036399816 5.8819757e-21)
(0.00030850627 -0.00037011255 -7.7739968e-23)
(0.00029562622 -0.00037592077 -2.5022297e-21)
(0.00028285106 -0.00038143171 3.9949991e-21)
(0.00027018101 -0.00038665403 5.0081345e-21)
(0.00025761585 -0.00039159589 6.7733545e-21)
(0.0002451551 -0.000396265 -4.5794267e-21)
(0.00023279811 -0.00040066883 -4.8130748e-21)
(0.00022054406 -0.00040481453 1.7810912e-21)
(0.00020839209 -0.00040870893 -4.4096137e-21)
(0.0001963409 -0.00041235851 9.7285414e-22)
(0.00018438912 -0.00041576932 1.8312506e-21)
(0.0001725355 -0.00041894726 -1.5245547e-21)
(0.00016077832 -0.00042189775 2.3444006e-21)
(0.000149116 -0.00042462609 -3.1649316e-21)
(0.00013754684 -0.00042713697 2.7187493e-21)
(0.00012606886 -0.0004294351 4.0136457e-21)
(0.00011468025 -0.00043152477 -6.2256716e-22)
(0.00010337911 -0.00043340991 2.8261271e-21)
(9.2163412e-05 -0.00043509429 1.7662952e-21)
(8.1031095e-05 -0.00043658126 3.1174684e-21)
(6.998005e-05 -0.00043787403 9.4088873e-22)
(5.9008245e-05 -0.00043897554 3.1086786e-21)
(4.8113777e-05 -0.00043988855 2.7808559e-21)
(3.7294804e-05 -0.00044061567 -6.9170892e-22)
(2.6545943e-05 -0.00044116091 -1.2718704e-21)
(1.5857863e-05 -0.00044153199 -4.2222879e-21)
(5.2509301e-06 -0.0004417415 -6.1912554e-21)
(0.00084175953 0.00068038184 1.9019892e-21)
(0.00084690724 0.0006426531 2.6509809e-20)
(0.0008505007 0.00060558067 -1.2614313e-20)
(0.00085263507 0.00056919991 -6.682206e-20)
(0.00085340181 0.00053354084 -2.0880748e-20)
(0.00085288872 0.00049862851 2.494289e-20)
(0.00085117983 0.00046448353 6.2531748e-21)
(0.00084835551 0.00043112229 -8.8066986e-21)
(0.00084449241 0.00039855723 -4.8756309e-20)
(0.00083966376 0.00036679775 -1.7723484e-21)
(0.00083393927 0.0003358498 2.2431565e-20)
(0.00082738506 0.00030571654 1.4190827e-20)
(0.00082006399 0.00027639866 -1.323814e-20)
(0.00081203569 0.00024789456 -3.601546e-20)
(0.00080335663 0.00022020044 -2.3355933e-21)
(0.00079408018 0.0001933108 2.183112e-20)
(0.00078425673 0.00016721844 8.8113384e-21)
(0.00077393394 0.0001419147 -2.6724373e-20)
(0.00076315671 0.00011738962 -2.2360998e-20)
(0.00075196719 9.3632384e-05 3.9168077e-22)
(0.00074040508 7.0630697e-05 1.5781035e-20)
(0.00072850775 4.8372059e-05 3.8334184e-21)
(0.00071630976 2.6842739e-05 -1.1607213e-20)
(0.00070384232 6.0285787e-06 -7.3018454e-21)
(0.00069114053 -1.408285e-05 4.8602983e-21)
(0.00067823313 -3.350988e-05 1.7091608e-20)
(0.00066514282 -5.2266459e-05 -1.0673779e-21)
(0.00065189592 -7.0367557e-05 -5.8476967e-21)
(0.00063851575 -8.7828953e-05 -5.5845345e-21)
(0.0006250241 -0.00010466626 -1.0377811e-21)
(0.00061144112 -0.00012089514 1.4978575e-20)
(0.00059778531 -0.00013653124 8.0893807e-21)
(0.00058407385 -0.00015158994 4.843754e-21)
(0.00057032263 -0.00016608686 3.5808813e-22)
(0.00055654633 -0.00018003722 1.4807961e-21)
(0.00054275845 -0.00019345602 2.8883184e-21)
(0.00052897135 -0.00020635824 7.3392666e-21)
(0.00051519644 -0.00021875828 3.5277215e-21)
(0.00050144419 -0.00023067071 -4.2905789e-21)
(0.000487724 -0.00024210954 -9.016112e-21)
(0.00047404436 -0.00025308848 1.5120595e-21)
(0.00046041315 -0.00026362093 9.0263764e-21)
(0.00044683741 -0.00027372007 -3.8477973e-22)
(0.00043332342 -0.0002833987 2.8478736e-21)
(0.00041987694 -0.00029266932 2.108969e-21)
(0.00040650303 -0.00030154405 4.9273705e-21)
(0.00039320604 -0.00031003438 8.538026e-21)
(0.00037998987 -0.00031815194 -2.4636612e-21)
(0.00036685788 -0.00032590774 1.0588616e-21)
(0.00035381301 -0.00033331248 5.5633444e-21)
(0.00034085777 -0.00034037643 3.3260566e-21)
(0.00032799424 -0.00034710959 -2.4862021e-21)
(0.00031522412 -0.00035352152 -1.9713623e-21)
(0.00030254866 -0.00035962154 2.2542513e-21)
(0.00028996891 -0.00036541851 -1.2333524e-21)
(0.00027748566 -0.00037092098 7.4204384e-21)
(0.0002650993 -0.0003761373 5.5350283e-21)
(0.00025280986 -0.00038107517 5.2145261e-21)
(0.00024061729 -0.00038574234 -8.7759767e-22)
(0.00022852134 -0.00039014575 -6.9621046e-22)
(0.00021652152 -0.00039429249 6.8303568e-21)
(0.00020461716 -0.00039818911 -4.18129e-21)
(0.00019280741 -0.00040184182 -5.4760068e-21)
(0.00018109128 -0.00040525654 2.2323437e-21)
(0.00016946769 -0.00040843899 3.2035013e-21)
(0.00015793533 -0.00041139436 4.6507893e-21)
(0.0001464928 -0.00041412797 -1.677595e-21)
(0.00013513875 -0.00041664417 -2.3814732e-21)
(0.00012387154 -0.00041894764 4.2531791e-21)
(0.00011268957 -0.00042104263 4.1192803e-21)
(0.00010159128 -0.00042293289 6.0183614e-21)
(9.0574875e-05 -0.00042462209 2.9785679e-21)
(7.9638573e-05 -0.00042611353 -7.0328878e-22)
(6.878062e-05 -0.00042741035 2.6381228e-21)
(5.7999183e-05 -0.00042851547 5.2377584e-23)
(4.7292609e-05 -0.00042943153 -1.0071546e-21)
(3.6659246e-05 -0.00043016113 2.1377005e-21)
(2.6094099e-05 -0.00043070827 1.9993664e-21)
(1.5588218e-05 -0.00043108068 5.3732861e-22)
(5.1616961e-06 -0.00043129085 -4.3251744e-21)
(0.00080455203 0.00066388888 -7.4088279e-21)
(0.00081029645 0.00062780132 -7.958205e-20)
(0.00081452572 0.00059229321 -3.0610592e-21)
(0.00081732956 0.00055740151 7.5180135e-21)
(0.00081879423 0.00052315828 8.0573086e-21)
(0.00081900292 0.00048959048 -1.4129956e-21)
(0.00081803543 0.00045672084 -7.8504759e-20)
(0.00081596817 0.00042456805 -2.0303033e-20)
(0.0008128743 0.00039314678 -7.0522235e-22)
(0.00080882367 0.00036246872 5.5143815e-21)
(0.00080388298 0.00033254214 2.60449e-21)
(0.00079811569 0.00030337255 -6.2042409e-20)
(0.00079158221 0.00027496302 -3.0623943e-20)
(0.00078433999 0.00024731415 -3.8624858e-21)
(0.00077644349 0.00022042448 2.7417457e-20)
(0.00076794437 0.00019429077 4.5351724e-22)
(0.00075889149 0.00016890802 -6.3830539e-20)
(0.00074933107 0.00014426971 -2.2987945e-20)
(0.00073930678 0.00012036795 1.337483e-21)
(0.00072885979 9.7194111e-05 1.377795e-20)
(0.00071802879 7.4737813e-05 2.8942327e-21)
(0.00070685019 5.2988561e-05 -4.2539994e-20)
(0.00069535822 3.1934501e-05 -1.3196974e-20)
(0.00068358411 1.1563745e-05 1.5788455e-20)
(0.00067156099 -8.1354944e-06 -2.05542e-22)
(0.0006593174 -2.7180284e-05 -6.6951979e-21)
(0.00064687707 -4.5581389e-05 -3.6479926e-20)
(0.00063426537 -6.3352725e-05 -8.7372424e-21)
(0.00062150557 -8.0508709e-05 4.2666416e-21)
(0.00060861942 -9.7063418e-05 -1.8733975e-21)
(0.00059562683 -0.00011303132 2.3552734e-21)
(0.00058254644 -0.00012842674 -3.1423275e-20)
(0.00056939552 -0.00014326383 -1.7169907e-20)
(0.00055619012 -0.0001575569 9.9805843e-21)
(0.00054294502 -0.00017132022 -5.5383766e-22)
(0.00052967384 -0.00018456757 -1.1810824e-20)
(0.00051638928 -0.00019731319 -2.6118248e-20)
(0.00050310297 -0.00020957026 -7.6425694e-21)
(0.00048982542 -0.00022135244 1.7914812e-21)
(0.00047656637 -0.00023267292 -9.9691906e-21)
(0.00046333474 -0.00024354462 -3.9937354e-22)
(0.00045013865 -0.00025398015 -2.0854057e-20)
(0.00043698543 -0.00026399195 -1.0055948e-20)
(0.00042388178 -0.00027359209 5.2304097e-21)
(0.00041083362 -0.00028279243 -5.116795e-21)
(0.00039784622 -0.00029160444 -4.9218474e-21)
(0.00038492449 -0.00030003908 -1.3566986e-20)
(0.0003720727 -0.00030810741 -1.0428417e-20)
(0.00035929452 -0.0003158198 2.1339067e-21)
(0.00034659318 -0.00032318659 7.3206885e-22)
(0.00033397153 -0.00033021753 5.1597013e-22)
(0.00032143201 -0.00033692227 -1.2372287e-20)
(0.00030897664 -0.00034330983 -9.6049797e-21)
(0.0002966071 -0.0003493892 3.0727798e-22)
(0.00028432468 -0.00035516889 -4.248216e-21)
(0.00027213046 -0.00036065717 -3.0317967e-21)
(0.00026002516 -0.00036586185 -1.0568495e-20)
(0.0002480093 -0.00037079053 -3.2892252e-21)
(0.00023608312 -0.00037545064 -8.5172024e-22)
(0.00022424658 -0.00037984894 -4.7842288e-21)
(0.00021249957 -0.00038399216 1.5911398e-22)
(0.00020084173 -0.00038788664 -1.1858154e-20)
(0.00018927247 -0.00039153843 -6.7543289e-21)
(0.00017779119 -0.00039495328 -2.4123942e-21)
(0.00016639701 -0.00039813659 -2.8486535e-21)
(0.00015508892 -0.00040109359 -2.5805193e-21)
(0.00014386585 -0.00040382922 -7.1187759e-21)
(0.00013272668 -0.00040634793 -4.3919838e-21)
(0.00012167015 -0.00040865412 -1.2887225e-21)
(0.00011069486 -0.00041075196 -2.7583157e-21)
(9.9799523e-05 -0.00041264519 -2.0299351e-21)
(8.8982665e-05 -0.0004143372 -4.0560564e-21)
(7.8242701e-05 -0.00041583138 -6.0407675e-21)
(6.7578153e-05 -0.00041713078 -4.3446331e-21)
(5.6987457e-05 -0.00041823819 -4.2084968e-21)
(4.6469183e-05 -0.00041915623 -3.4616762e-21)
(3.6021939e-05 -0.00041988746 -1.8081661e-21)
(2.5640942e-05 -0.00042043584 -2.1142978e-21)
(1.5317654e-05 -0.00042080912 -1.5377821e-22)
(5.0721303e-06 -0.00042101973 -2.5449734e-21)
(0.00076899706 0.00064731213 7.9154272e-20)
(0.00077526323 0.00061281065 -4.3355443e-21)
(0.00078005484 0.00057881703 1.448861e-21)
(0.00078345618 0.00054536972 -2.2800777e-20)
(0.00078554881 0.00051250237 -3.4429701e-20)
(0.00078641125 0.00048024362 -2.0362798e-20)
(0.00078611914 0.00044861799 -1.9260278e-20)
(0.00078474502 0.00041764604 -3.2589951e-21)
(0.00078235847 0.00038734457 -1.6511939e-20)