/*--------------------------------*- C++ -*----------------------------------*\
| =========                 |                                                 |
| \\      /  F ield         | OpenFOAM: The Open Source CFD Toolbox           |
|  \\    /   O peration     | Version:  2306                                  |
|   \\  /    A nd           | Website:  www.openfoam.com                      |
|    \\/     M anipulation  |                                                 |
\*---------------------------------------------------------------------------*/
FoamFile
{
    version     2.0;
    format      ascii;
    arch        "LSB;label=32;scalar=64";
    class       surfaceScalarField;
    location    "0.23";
    object      phi;
}
// * * * * * * * * * * * * * * * * * * * * * * * * * * * * * * * * * * * * * //

dimensions      [0 3 -1 0 0 0 0];

oriented        oriented;

internalField   nonuniform List<scalar> 
12640
(
-8.4273176e-06
-1.4154775e-05
-8.1172022e-06
-1.3927395e-05
-7.8224798e-06
-1.3708125e-05
-7.5421425e-06
-1.3496657e-05
-7.2752608e-06
-1.3292695e-05
-7.0209764e-06
-1.3095959e-05
-6.7784955e-06
-1.2906183e-05
-6.5470831e-06
-1.2723113e-05
-6.3260576e-06
-1.2546508e-05
-6.1147862e-06
-1.237614e-05
-5.9126808e-06
-1.221179e-05
-5.7191943e-06
-1.2053253e-05
-5.5338172e-06
-1.1900332e-05
-5.3560745e-06
-1.1752841e-05
-5.1855231e-06
-1.1610602e-05
-5.0217491e-06
-1.1473446e-05
-4.8643655e-06
-1.1341215e-05
-4.7130106e-06
-1.1213756e-05
-4.5673452e-06
-1.1090926e-05
-4.427052e-06
-1.0972587e-05
-4.2918328e-06
-1.085861e-05
-4.1614082e-06
-1.0748872e-05
-4.0355153e-06
-1.0643257e-05
-3.9139073e-06
-1.0541655e-05
-3.7963516e-06
-1.0443959e-05
-3.6826294e-06
-1.0350072e-05
-3.5725345e-06
-1.02599e-05
-3.4658723e-06
-1.0173353e-05
-3.3624592e-06
-1.0090349e-05
-3.2621217e-06
-1.0010807e-05
-3.1646959e-06
-9.9346532e-06
-3.0700266e-06
-9.8618165e-06
-2.9779668e-06
-9.7922303e-06
-2.8883774e-06
-9.7258317e-06
-2.8011262e-06
-9.6625617e-06
-2.716088e-06
-9.6023645e-06
-2.6331435e-06
-9.5451877e-06
-2.5521796e-06
-9.4909821e-06
-2.4730884e-06
-9.4397015e-06
-2.3957674e-06
-9.3913025e-06
-2.3201189e-06
-9.3457444e-06
-2.2460496e-06
-9.3029891e-06
-2.1734707e-06
-9.2630008e-06
-2.1022972e-06
-9.2257461e-06
-2.0324484e-06
-9.1911939e-06
-1.9638469e-06
-9.159315e-06
-1.8964189e-06
-9.1300822e-06
-1.8300941e-06
-9.1034703e-06
-1.7648054e-06
-9.0794559e-06
-1.7004888e-06
-9.0580173e-06
-1.6370833e-06
-9.0391349e-06
-1.5745309e-06
-9.0227904e-06
-1.5127764e-06
-9.0089674e-06
-1.4517675e-06
-8.9976515e-06
-1.3914544e-06
-8.9888299e-06
-1.3317901e-06
-8.9824918e-06
-1.2727299e-06
-8.9786283e-06
-1.2142318e-06
-8.9772328e-06
-1.1562556e-06
-8.9783007e-06
-1.0987639e-06
-8.9818301e-06
-1.0417206e-06
-8.9878214e-06
-9.8509193e-07
-8.9962778e-06
-9.2884531e-07
-9.0072057e-06
-8.7294962e-07
-9.0206141e-06
-8.1737463e-07
-9.0365159e-06
-7.6209078e-07
-9.054927e-06
-7.0706869e-07
-9.0758672e-06
-6.5227887e-07
-9.0993597e-06
-5.9769111e-07
-9.1254316e-06
-5.4327414e-07
-9.1541138e-06
-4.8899504e-07
-9.1854406e-06
-4.3481884e-07
-9.2194496e-06
-3.8070797e-07
-9.2561811e-06
-3.2662212e-07
-9.2956776e-06
-2.7251764e-07
-9.3379811e-06
-2.1834783e-07
-9.3831289e-06
-1.6406304e-07
-9.4311419e-06
-1.0961143e-07
-9.4820029e-06
-5.4940979e-08
-9.5356213e-06
-9.5919133e-06
-8.0255572e-06
-1.4467831e-05
-7.728439e-06
-1.4224513e-05
-7.44619e-06
-1.3990374e-05
-7.1778277e-06
-1.3765019e-05
-6.9224475e-06
-1.3548075e-05
-6.6792148e-06
-1.3339192e-05
-6.4473586e-06
-1.3138039e-05
-6.226165e-06
-1.2944307e-05
-6.0149728e-06
-1.27577e-05
-5.8131683e-06
-1.2577944e-05
-5.6201814e-06
-1.2404777e-05
-5.4354823e-06
-1.2237952e-05
-5.2585775e-06
-1.2077237e-05
-5.0890076e-06
-1.1922411e-05
-4.926344e-06
-1.1773265e-05
-4.7701866e-06
-1.1629604e-05
-4.6201619e-06
-1.149124e-05
-4.4759203e-06
-1.1357998e-05
-4.3371348e-06
-1.1229711e-05
-4.2034992e-06
-1.1106222e-05
-4.0747261e-06
-1.0987383e-05
-3.9505462e-06
-1.0873052e-05
-3.8307065e-06
-1.0763097e-05
-3.7149691e-06
-1.0657392e-05
-3.6031104e-06
-1.0555818e-05
-3.4949199e-06
-1.0458263e-05
-3.3901993e-06
-1.036462e-05
-3.2887615e-06
-1.0274791e-05
-3.1904302e-06
-1.018868e-05
-3.0950388e-06
-1.0106199e-05
-3.0024297e-06
-1.0027262e-05
-2.912454e-06
-9.9517922e-06
-2.8249708e-06
-9.8797135e-06
-2.7398464e-06
-9.8109561e-06
-2.6569541e-06
-9.745454e-06
-2.5761736e-06
-9.683145e-06
-2.4973907e-06
-9.6239706e-06
-2.4204967e-06
-9.5678761e-06
-2.3453882e-06
-9.51481e-06
-2.2719668e-06
-9.4647239e-06
-2.2001387e-06
-9.4175725e-06
-2.1298144e-06
-9.3733133e-06
-2.0609086e-06
-9.3319065e-06
-1.9933399e-06
-9.2933148e-06
-1.9270305e-06
-9.2575033e-06
-1.8619063e-06
-9.2244392e-06
-1.7978964e-06
-9.1940921e-06
-1.7349334e-06
-9.1664333e-06
-1.6729528e-06
-9.1414365e-06
-1.6118934e-06
-9.1190768e-06
-1.5516967e-06
-9.0993316e-06
-1.4923074e-06
-9.0821797e-06
-1.4336728e-06
-9.067602e-06
-1.3757433e-06
-9.0555811e-06
-1.3184715e-06
-9.0461016e-06
-1.2618133e-06
-9.03915e-06
-1.2057267e-06
-9.0347149e-06
-1.1501724e-06
-9.032787e-06
-1.0951135e-06
-9.0333596e-06
-1.0405154e-06
-9.0364282e-06
-9.8634552e-07
-9.0419913e-06
-9.3257325e-07
-9.0500501e-06
-8.7916973e-07
-9.0606092e-06
-8.2610747e-07
-9.0736764e-06
-7.7336006e-07
-9.0892633e-06
-7.2090182e-07
-9.1073852e-06
-6.6870741e-07
-9.1280616e-06
-6.1675122e-07
-9.1513158e-06
-5.6500697e-07
-9.1771759e-06
-5.1344711e-07
-9.2056737e-06
-4.620422e-07
-9.2368455e-06
-4.1076039e-07
-9.2707314e-06
-3.5956677e-07
-9.3073747e-06
-3.0842299e-07
-9.3468213e-06
-2.5728688e-07
-9.3891172e-06
-2.0611227e-07
-9.4343035e-06
-1.5484934e-07
-9.4824048e-06
-1.0344538e-07
-9.5334069e-06
-5.1846811e-08
-9.5872199e-06
-9.6437601e-06
-7.6040001e-06
-1.4765913e-05
-7.3211902e-06
-1.4507323e-05
-7.0526201e-06
-1.4258944e-05
-6.7973434e-06
-1.4020296e-05
-6.5544897e-06
-1.3790929e-05
-6.3232561e-06
-1.3570426e-05
-6.1029014e-06
-1.3358394e-05
-5.8927394e-06
-1.3154469e-05
-5.6921347e-06
-1.2958305e-05
-5.5004975e-06
-1.2769581e-05
-5.3172805e-06
-1.2587994e-05
-5.1419749e-06
-1.2413258e-05
-4.9741072e-06
-1.2245105e-05
-4.8132367e-06
-1.2083281e-05
-4.6589523e-06
-1.192755e-05
-4.5108708e-06
-1.1777685e-05
-4.368634e-06
-1.1633476e-05
-4.2319074e-06
-1.1494724e-05
-4.1003779e-06
-1.1361241e-05
-3.9737523e-06
-1.1232848e-05
-3.851756e-06
-1.1109379e-05
-3.7341312e-06
-1.0990677e-05
-3.6206361e-06
-1.0876592e-05
-3.5110434e-06
-1.0766985e-05
-3.4051396e-06
-1.0661722e-05
-3.3027236e-06
-1.0560679e-05
-3.203606e-06
-1.0463738e-05
-3.1076084e-06
-1.0370789e-05
-3.0145625e-06
-1.0281726e-05
-2.9243093e-06
-1.0196452e-05
-2.8366986e-06
-1.0114873e-05
-2.7515885e-06
-1.0036902e-05
-2.6688444e-06
-9.9624575e-06
-2.588339e-06
-9.8914615e-06
-2.5099516e-06
-9.8238414e-06
-2.4335674e-06
-9.7595291e-06
-2.3590776e-06
-9.6984605e-06
-2.2863784e-06
-9.6405753e-06
-2.2153714e-06
-9.585817e-06
-2.1459626e-06
-9.5341327e-06
-2.0780625e-06
-9.4854726e-06
-2.0115856e-06
-9.4397902e-06
-1.9464505e-06
-9.3970416e-06
-1.8825794e-06
-9.3571859e-06
-1.819898e-06
-9.3201847e-06
-1.7583354e-06
-9.2860018e-06
-1.6978239e-06
-9.2546035e-06
-1.638299e-06
-9.2259582e-06
-1.5796992e-06
-9.2000363e-06
-1.5219659e-06
-9.1768101e-06
-1.4650435e-06
-9.1562539e-06
-1.4088794e-06
-9.1383438e-06
-1.3534236e-06
-9.1230578e-06
-1.2986289e-06
-9.1103758e-06
-1.2444509e-06
-9.1002795e-06
-1.1908482e-06
-9.0927528e-06
-1.1377816e-06
-9.0877815e-06
-1.0852149e-06
-9.0853537e-06
-1.0331144e-06
-9.0854602e-06
-9.8144853e-07
-9.088094e-06
-9.301884e-07
-9.0932514e-06
-8.7930706e-07
-9.1009314e-06
-8.2877942e-07
-9.1111368e-06
-7.7858202e-07
-9.1238738e-06
-7.2869269e-07
-9.1391526e-06
-6.7909006e-07
-9.1569878e-06
-6.2975328e-07
-9.1773984e-06
-5.806612e-07
-9.2004079e-06
-5.3179199e-07
-9.2260451e-06
-4.8312239e-07
-9.2543433e-06
-4.3462701e-07
-9.2853409e-06
-3.8627759e-07
-9.3190808e-06
-3.3804237e-07
-9.3556099e-06
-2.8988542e-07
-9.3949783e-06
-2.4176609e-07
-9.4372366e-06
-1.9363881e-07
-9.4824307e-06
-1.4545336e-07
-9.5305903e-06
-9.7155648e-08
-9.5817046e-06
-4.8689974e-08
-9.6356856e-06
-9.6924501e-06
-7.1634962e-06
-1.504764e-05
-6.896258e-06
-1.4774561e-05
-6.6425269e-06
-1.4512675e-05
-6.4014036e-06
-1.4261419e-05
-6.172061e-06
-1.4020272e-05
-5.9537365e-06
-1.378875e-05
-5.7457252e-06
-1.3566405e-05
-5.5473751e-06
-1.3352819e-05
-5.3580814e-06
-1.3147599e-05
-5.1772837e-06
-1.2950379e-05
-5.0044611e-06
-1.2760817e-05
-4.8391301e-06
-1.2578589e-05
-4.6808407e-06
-1.2403394e-05
-4.5291739e-06
-1.2234948e-05
-4.3837393e-06
-1.2072984e-05
-4.244173e-06
-1.1917251e-05
-4.1101348e-06
-1.1767515e-05
-3.9813073e-06
-1.1623552e-05
-3.8573932e-06
-1.1485155e-05
-3.7381145e-06
-1.1352127e-05
-3.6232107e-06
-1.1224283e-05
-3.5124374e-06
-1.110145e-05
-3.4055653e-06
-1.0983464e-05
-3.302379e-06
-1.0870171e-05
-3.2026761e-06
-1.0761425e-05
-3.1062661e-06
-1.0657089e-05
-3.0129697e-06
-1.0557034e-05
-2.9226179e-06
-1.046114e-05
-2.8350514e-06
-1.0369293e-05
-2.7501196e-06
-1.0281384e-05
-2.6676804e-06
-1.0197312e-05
-2.5875994e-06
-1.0116983e-05
-2.5097494e-06
-1.0040308e-05
-2.4340098e-06
-9.967201e-06
-2.3602663e-06
-9.8975849e-06
-2.2884104e-06
-9.8313851e-06
-2.2183389e-06
-9.768532e-06
-2.1499537e-06
-9.7089605e-06
-2.0831614e-06
-9.6526094e-06
-2.0178729e-06
-9.5994212e-06
-1.9540032e-06
-9.5493423e-06
-1.8914714e-06
-9.502322e-06
-1.8302e-06
-9.458313e-06
-1.7701151e-06
-9.4172708e-06
-1.7111461e-06
-9.3791537e-06
-1.6532255e-06
-9.3439224e-06
-1.596289e-06
-9.3115401e-06
-1.5402749e-06
-9.2819722e-06
-1.4851251e-06
-9.2551862e-06
-1.4307836e-06
-9.2311515e-06
-1.3771979e-06
-9.2098396e-06
-1.3243178e-06
-9.1912239e-06
-1.2720961e-06
-9.1752795e-06
-1.2204886e-06
-9.1619833e-06
-1.1694536e-06
-9.1513145e-06
-1.1189524e-06
-9.143254e-06
-1.068949e-06
-9.1377849e-06
-1.0194101e-06
-9.1348926e-06
-9.7030528e-07
-9.134565e-06
-9.2160666e-07
-9.1367927e-06
-8.7328879e-07
-9.1415692e-06
-8.2532867e-07
-9.1488916e-06
-7.7770544e-07
-9.1587601e-06
-7.3039995e-07
-9.1711793e-06
-6.8339468e-07
-9.1861579e-06
-6.3667314e-07
-9.2037094e-06
-5.9021939e-07
-9.2238521e-06
-5.4401741e-07
-9.2466099e-06
-4.9805043e-07
-9.272012e-06
-4.5230021e-07
-9.3000935e-06
-4.0674612e-07
-9.330895e-06
-3.6136415e-07
-9.3644627e-06
-3.1612628e-07
-9.4008478e-06
-2.7099939e-07
-9.4401052e-06
-2.2594467e-07
-9.4822913e-06
-1.8091732e-07
-9.5274581e-06
-1.3586636e-07
-9.5756412e-06
-9.0735862e-08
-9.6268351e-06
-4.5467088e-08
-9.6809544e-06
-9.7379172e-06
-6.7050282e-06
-1.5311697e-05
-6.4545637e-06
-1.5025026e-05
-6.2167739e-06
-1.4750465e-05
-5.9908179e-06
-1.4487375e-05
-5.7759218e-06
-1.4235168e-05
-5.5713706e-06
-1.3993301e-05
-5.376503e-06
-1.3761273e-05
-5.1907059e-06
-1.3538616e-05
-5.0134112e-06
-1.3324894e-05
-4.8440913e-06
-1.3119699e-05
-4.6822566e-06
-1.2922651e-05
-4.5274522e-06
-1.2733394e-05
-4.3792548e-06
-1.2551592e-05
-4.2372705e-06
-1.2376932e-05
-4.1011323e-06
-1.2209122e-05
-3.9704979e-06
-1.2047886e-05
-3.8450478e-06
-1.1892965e-05
-3.7244835e-06
-1.1744116e-05
-3.6085258e-06
-1.1601112e-05
-3.4969133e-06
-1.1463739e-05
-3.3894013e-06
-1.1331795e-05
-3.2857602e-06
-1.1205092e-05
-3.1857747e-06
-1.108345e-05
-3.0892425e-06
-1.0966703e-05
-2.9959734e-06
-1.0854694e-05
-2.9057887e-06
-1.0747273e-05
-2.81852e-06
-1.0644303e-05
-2.7340086e-06
-1.0545652e-05
-2.6521049e-06
-1.0451196e-05
-2.5726678e-06
-1.0360821e-05
-2.4955637e-06
-1.0274416e-05
-2.4206667e-06
-1.019188e-05
-2.3478573e-06
-1.0113117e-05
-2.2770222e-06
-1.0038036e-05
-2.2080543e-06
-9.9665529e-06
-2.1408514e-06
-9.8985879e-06
-2.0753169e-06
-9.8340666e-06
-2.0113583e-06
-9.7729191e-06
-1.9488878e-06
-9.7150799e-06
-1.8878215e-06
-9.6604874e-06
-1.8280796e-06
-9.6090843e-06
-1.7695854e-06
-9.5608161e-06
-1.712266e-06
-9.5156324e-06
-1.6560514e-06
-9.4734854e-06
-1.6008749e-06
-9.4343302e-06
-1.5466727e-06
-9.3981247e-06
-1.4933837e-06
-9.3648292e-06
-1.4409497e-06
-9.3344062e-06
-1.3893154e-06
-9.3068205e-06
-1.338428e-06
-9.2820389e-06
-1.2882376e-06
-9.26003e-06
-1.238697e-06
-9.2407645e-06
-1.1897619e-06
-9.2242146e-06
-1.1413905e-06
-9.2103547e-06
-1.0935443e-06
-9.1991608e-06
-1.0461872e-06
-9.1906111e-06
-9.992864e-07
-9.1846857e-06
-9.5281184e-07
-9.1813671e-06
-9.0673635e-07
-9.1806404e-06
-8.6103571e-07
-9.1824933e-06
-8.1568836e-07
-9.1869166e-06
-7.7067539e-07
-9.1939045e-06
-7.2598041e-07
-9.2034551e-06
-6.8158909e-07
-9.2155706e-06
-6.3748891e-07
-9.2302581e-06
-5.9366878e-07
-9.2475295e-06
-5.5011833e-07
-9.2674026e-06
-5.0682729e-07
-9.2899009e-06
-4.6378485e-07
-9.3150545e-06
-4.209785e-07
-9.3428999e-06
-3.7839319e-07
-9.3734803e-06
-3.3601016e-07
-9.4068458e-06
-2.9380578e-07
-9.4430522e-06
-2.5175051e-07
-9.4821605e-06
-2.0980784e-07
-9.5242339e-06
-1.6793372e-07
-9.5693322e-06
-1.2607633e-07
-9.6174986e-06
-8.4177146e-08
-9.6687342e-06
-4.2173405e-08
-9.7229581e-06
-9.7800906e-06
-6.2297093e-06
-1.555685e-05
-5.9971436e-06
-1.5257591e-05
-5.7763264e-06
-1.4971282e-05
-5.5664872e-06
-1.4697214e-05
-5.3669143e-06
-1.4434741e-05
-5.1769478e-06
-1.4183268e-05
-4.9959753e-06
-1.3942246e-05
-4.8234283e-06
-1.3711163e-05
-4.658779e-06
-1.3489543e-05
-4.5015374e-06
-1.3276941e-05
-4.3512485e-06
-1.307294e-05
-4.2074894e-06
-1.2877153e-05
-4.0698669e-06
-1.2689214e-05
-3.9380151e-06
-1.2508784e-05
-3.8115929e-06
-1.2335545e-05
-3.6902821e-06
-1.2169197e-05
-3.573786e-06
-1.2009461e-05
-3.461827e-06
-1.1856075e-05
-3.3541458e-06
-1.1708794e-05
-3.2504993e-06
-1.1567386e-05
-3.1506601e-06
-1.1431634e-05
-3.0544149e-06
-1.1301337e-05
-2.9615635e-06
-1.1176301e-05
-2.8719178e-06
-1.1056349e-05
-2.7853012e-06
-1.094131e-05
-2.7015474e-06
-1.0831027e-05
-2.6205e-06
-1.0725351e-05
-2.5420116e-06
-1.062414e-05
-2.465943e-06
-1.0527265e-05
-2.392163e-06
-1.0434601e-05
-2.3205478e-06
-1.0346031e-05
-2.2509799e-06
-1.0261448e-05
-2.1833484e-06
-1.0180748e-05
-2.1175481e-06
-1.0103836e-05
-2.0534791e-06
-1.0030622e-05
-1.9910466e-06
-9.9610204e-06
-1.9301603e-06
-9.8949529e-06
-1.8707342e-06
-9.8323452e-06
-1.8126863e-06
-9.7731277e-06
-1.7559384e-06
-9.7172354e-06
-1.7004156e-06
-9.6646071e-06
-1.6460463e-06
-9.6151855e-06
-1.592762e-06
-9.5689167e-06
-1.5404971e-06
-9.5257503e-06
-1.4891889e-06
-9.4856385e-06
-1.438777e-06
-9.4485365e-06
-1.3892042e-06
-9.414402e-06
-1.3404155e-06
-9.3831949e-06
-1.2923587e-06
-9.3548774e-06
-1.244984e-06
-9.3294136e-06
-1.1982444e-06
-9.3067696e-06
-1.1520955e-06
-9.2869134e-06
-1.1064956e-06
-9.2698145e-06
-1.061406e-06
-9.2554442e-06
-1.0167908e-06
-9.243776e-06
-9.7261702e-07
-9.2347849e-06
-9.2885473e-07
-9.228448e-06
-8.8547712e-07
-9.2247447e-06
-8.4246056e-07
-9.223657e-06
-7.9978446e-07
-9.2251694e-06
-7.5743137e-07
-9.2292697e-06
-7.1538674e-07
-9.2359491e-06
-6.736389e-07
-9.2452029e-06
-6.3217864e-07
-9.2570309e-06
-5.9099908e-07
-9.2714376e-06
-5.5009495e-07
-9.2884337e-06
-5.0946219e-07
-9.3080353e-06
-4.6909715e-07
-9.330266e-06
-4.2899571e-07
-9.3551559e-06
-3.891522e-07
-9.3827434e-06
-3.4955822e-07
-9.4130743e-06
-3.1020128e-07
-9.4462027e-06
-2.7106329e-07
-9.4821902e-06
-2.3211915e-07
-9.5211046e-06
-1.9333529e-07
-9.5630178e-06
-1.5466881e-07
-9.6079987e-06
-1.1606679e-07
-9.6561006e-06
-7.7467369e-08
-9.7073337e-06
-3.8802434e-08
-9.7616231e-06
-9.818893e-06
-5.7387778e-06
-1.5781967e-05
-5.525142e-06
-1.5471227e-05
-5.3222443e-06
-1.517418e-05
-5.1293965e-06
-1.4890062e-05
-4.9459569e-06
-1.461818e-05
-4.7713265e-06
-1.4357898e-05
-4.6049464e-06
-1.4108626e-05
-4.4462965e-06
-1.3869813e-05
-4.2948934e-06
-1.3640946e-05
-4.150288e-06
-1.3421546e-05
-4.0120632e-06
-1.3211165e-05
-3.8798316e-06
-1.3009384e-05
-3.7532329e-06
-1.2815813e-05
-3.6319316e-06
-1.2630086e-05
-3.5156152e-06
-1.2451861e-05
-3.403992e-06
-1.228082e-05
-3.2967898e-06
-1.2116663e-05
-3.193754e-06
-1.1959111e-05
-3.0946467e-06
-1.1807901e-05
-2.9992449e-06
-1.1662787e-05
-2.9073397e-06
-1.152354e-05
-2.8187354e-06
-1.1389941e-05
-2.733248e-06
-1.1261789e-05
-2.6507049e-06
-1.1138892e-05
-2.5709439e-06
-1.1021071e-05
-2.4938123e-06
-1.0908159e-05
-2.4191662e-06
-1.0799997e-05
-2.3468703e-06
-1.0696436e-05
-2.2767968e-06
-1.0597338e-05
-2.2088251e-06
-1.0502572e-05
-2.1428413e-06
-1.0412015e-05
-2.0787375e-06
-1.0325552e-05
-2.0164118e-06
-1.0243074e-05
-1.9557672e-06
-1.0164481e-05
-1.8967121e-06
-1.0089677e-05
-1.8391589e-06
-1.0018574e-05
-1.7830246e-06
-9.9510872e-06
-1.7282297e-06
-9.8871401e-06
-1.6746985e-06
-9.8266589e-06
-1.6223585e-06
-9.7695754e-06
-1.5711403e-06
-9.7158252e-06
-1.5209775e-06
-9.6653482e-06
-1.4718063e-06
-9.6180879e-06
-1.4235656e-06
-9.5739911e-06
-1.3761965e-06
-9.5330076e-06
-1.3296428e-06
-9.4950901e-06
-1.2838507e-06
-9.460194e-06
-1.2387687e-06
-9.4282769e-06
-1.1943475e-06
-9.3992986e-06
-1.1505405e-06
-9.3732206e-06
-1.1073035e-06
-9.3500066e-06
-1.064595e-06
-9.329622e-06
-1.0223759e-06
-9.3120335e-06
-9.8061028e-07
-9.2972099e-06
-9.3926495e-07
-9.2851213e-06
-8.9830986e-07
-9.27574e-06
-8.5771817e-07
-9.2690397e-06
-8.1746629e-07
-9.2649966e-06
-7.7753403e-07
-9.2635893e-06
-7.3790464e-07
-9.2647988e-06
-6.9856479e-07
-9.2686095e-06
-6.5950458e-07
-9.2750093e-06
-6.2071732e-07
-9.2839902e-06
-5.8219936e-07
-9.2955488e-06
-5.4394976e-07
-9.3096872e-06
-5.0596983e-07
-9.3264136e-06
-4.6826256e-07
-9.3457426e-06
-4.3083176e-07
-9.3676968e-06
-3.9368105e-07
-9.3923066e-06
-3.5681285e-07
-9.4196116e-06
-3.2022672e-07
-9.4496605e-06
-2.8391776e-07
-9.4825117e-06
-2.4787487e-07
-9.5182331e-06
-2.1207869e-07
-9.5569008e-06
-1.764997e-07
-9.5985967e-06
-1.4109659e-07
-9.6434018e-06
-1.058154e-07
-9.6913818e-06
-7.0590035e-08
-9.7425591e-06
-3.5345345e-08
-9.7968677e-06
-9.8542384e-06
-5.2335882e-06
-1.5986044e-05
-5.0398006e-06
-1.5665015e-05
-4.855672e-06
-1.5358309e-05
-4.680606e-06
-1.5065128e-05
-4.5140363e-06
-1.478475e-05
-4.3554279e-06
-1.4516507e-05
-4.2042785e-06
-1.4259775e-05
-4.0601189e-06
-1.4013972e-05
-3.9225127e-06
-1.3778552e-05
-3.7910549e-06
-1.3553004e-05
-3.6653695e-06
-1.333685e-05
-3.5451073e-06
-1.3129646e-05
-3.4299437e-06
-1.2930976e-05
-3.3195763e-06
-1.2740453e-05
-3.2137233e-06
-1.2557714e-05
-3.1121215e-06
-1.2382422e-05
-3.0145252e-06
-1.2214259e-05
-2.9207044e-06
-1.2052932e-05
-2.8304441e-06
-1.1898161e-05
-2.7435427e-06
-1.1749689e-05
-2.6598114e-06
-1.1607271e-05
-2.5790729e-06
-1.147068e-05
-2.5011608e-06
-1.1339701e-05
-2.4259189e-06
-1.1214134e-05
-2.3532001e-06
-1.109379e-05
-2.2828662e-06
-1.0978493e-05
-2.2147868e-06
-1.0868076e-05
-2.1488394e-06
-1.0762384e-05
-2.084908e-06
-1.066127e-05
-2.0228832e-06
-1.0564597e-05
-1.962662e-06
-1.0472237e-05
-1.9041464e-06
-1.0384067e-05
-1.8472439e-06
-1.0299977e-05
-1.7918666e-06
-1.0219858e-05
-1.737931e-06
-1.0143613e-05
-1.6853577e-06
-1.0071147e-05
-1.634071e-06
-1.0002374e-05
-1.5839984e-06
-9.9372127e-06
-1.5350707e-06
-9.8755866e-06
-1.4872216e-06
-9.8174245e-06
-1.4403874e-06
-9.7626594e-06
-1.3945069e-06
-9.7112287e-06
-1.3495213e-06
-9.6630735e-06
-1.3053738e-06
-9.6181385e-06
-1.2620102e-06
-9.5763712e-06
-1.219378e-06
-9.5377223e-06
-1.1774269e-06
-9.5021451e-06
-1.1361089e-06
-9.469595e-06
-1.0953778e-06
-9.4400296e-06
-1.05519e-06
-9.4134084e-06
-1.015504e-06
-9.3896926e-06
-9.7628103e-07
-9.3688449e-06
-9.3748481e-07
-9.3508298e-06
-8.9908189e-07
-9.3356128e-06
-8.6104182e-07
-9.3231614e-06
-8.2333738e-07
-9.3134444e-06
-7.8594461e-07
-9.3064324e-06
-7.4884316e-07
-9.3020981e-06
-7.1201632e-07
-9.3004161e-06
-6.7545118e-07
-9.3013639e-06
-6.3913866e-07
-9.3049221e-06
-6.0307355e-07
-9.3110744e-06
-5.672545e-07
-9.3198092e-06
-5.3168369e-07
-9.3311196e-06
-4.9636675e-07
-9.3450042e-06
-4.6131211e-07
-9.3614682e-06
-4.2653058e-07
-9.3805242e-06
-3.9203441e-07
-9.4021929e-06
-3.5783634e-07
-9.4265047e-06
-3.2394813e-07
-9.4534998e-06
-2.903789e-07
-9.4832297e-06
-2.5713324e-07
-9.5157573e-06
-2.2420887e-07
-9.5511574e-06
-1.9159396e-07
-9.5895157e-06
-1.5926458e-07
-9.6309261e-06
-1.2718218e-07
-9.6754842e-06
-9.5291897e-08
-9.7232721e-06
-6.3522607e-08
-9.7743283e-06
-3.178996e-08
-9.8286004e-06
-9.8860283e-06
-4.7155946e-06
-1.6168233e-05
-4.5424419e-06
-1.5838167e-05
-4.3778233e-06
-1.5522927e-05
-4.2212387e-06
-1.5221713e-05
-4.0721977e-06
-1.4933791e-05
-3.9302289e-06
-1.4658475e-05
-3.794886e-06
-1.4395118e-05
-3.665752e-06
-1.4143106e-05
-3.54244e-06
-1.3901864e-05
-3.4245913e-06
-1.3670853e-05
-3.311874e-06
-1.3449568e-05
-3.2039799e-06
-1.323754e-05
-3.1006226e-06
-1.3034334e-05
-3.0015352e-06
-1.283954e-05
-2.9064685e-06
-1.2652781e-05
-2.8151898e-06
-1.24737e-05
-2.7274814e-06
-1.2301968e-05
-2.6431395e-06
-1.2137274e-05
-2.5619733e-06
-1.1979328e-05
-2.4838039e-06
-1.1827858e-05
-2.4084634e-06
-1.1682611e-05
-2.3357945e-06
-1.1543349e-05
-2.2656491e-06
-1.1409846e-05
-2.1978881e-06
-1.1281895e-05
-2.1323807e-06
-1.1159297e-05
-2.0690037e-06
-1.104187e-05
-2.0076411e-06
-1.0929439e-05
-1.9481833e-06
-1.0821841e-05
-1.8905274e-06
-1.0718926e-05
-1.8345756e-06
-1.0620549e-05
-1.780236e-06
-1.0526576e-05
-1.7274212e-06
-1.0436882e-05
-1.6760486e-06
-1.0351349e-05
-1.6260397e-06
-1.0269867e-05
-1.5773199e-06
-1.0192332e-05
-1.5298179e-06
-1.0118649e-05
-1.4834659e-06
-1.0048726e-05
-1.4381988e-06
-9.9824798e-06
-1.3939541e-06
-9.9198313e-06
-1.3506719e-06
-9.8607067e-06
-1.3082944e-06
-9.8050369e-06
-1.266766e-06
-9.7527572e-06
-1.2260328e-06
-9.7038068e-06
-1.1860428e-06
-9.6581284e-06
-1.1467461e-06
-9.615668e-06
-1.108094e-06
-9.5763744e-06
-1.07004e-06
-9.5401991e-06
-1.0325393e-06
-9.5070957e-06
-9.955489e-07
-9.47702e-06
-9.5902807e-07
-9.4499293e-06
-9.2293808e-07
-9.4257826e-06
-8.8724263e-07
-9.4045404e-06
-8.5190797e-07
-9.3861644e-06
-8.1690316e-07
-9.3706176e-06
-7.8220032e-07
-9.3578642e-06
-7.4777483e-07
-9.3478699e-06
-7.1360558e-07
-9.3406017e-06
-6.7967529e-07
-9.3360284e-06
-6.4597068e-07
-9.3341207e-06
-6.1248259e-07
-9.334852e-06
-5.7920625e-07
-9.3381984e-06
-5.4614134e-07
-9.3441394e-06
-5.1329191e-07
-9.3526587e-06
-4.8066638e-07
-9.3637451e-06
-4.4827734e-07
-9.3773932e-06
-4.1614106e-07
-9.3936045e-06
-3.84277e-07
-9.4123882e-06
-3.5270699e-07
-9.4337629e-06
-3.2145408e-07
-9.4577576e-06
-2.9054113e-07
-9.4844128e-06
-2.5998883e-07
-9.513782e-06
-2.2981348e-07
-9.5459327e-06
-2.0002401e-07
-9.5809469e-06
-1.7061876e-07
-9.618921e-06
-1.4158168e-07
-9.6599632e-06
-1.1287886e-07
-9.7041871e-06
-8.4455349e-08
-9.7516956e-06
-5.6234273e-08
-9.8025494e-06
-2.8119502e-08
-9.8567152e-06
-9.9141478e-06
-4.1863215e-06
-1.632788e-05
-4.0344426e-06
-1.5990046e-05
-3.8899603e-06
-1.566741e-05
-3.7524648e-06
-1.5359208e-05
-3.6215338e-06
-1.5064722e-05
-3.4967526e-06
-1.4783257e-05
-3.3777283e-06
-1.4514142e-05
-3.2640955e-06
-1.4256739e-05
-3.1555182e-06
-1.4010442e-05
-3.051687e-06
-1.3774684e-05
-2.9523169e-06
-1.3548938e-05
-2.8571434e-06
-1.3332714e-05
-2.7659209e-06
-1.3125556e-05
-2.6784199e-06
-1.2927041e-05
-2.5944257e-06
-1.2736775e-05
-2.5137377e-06
-1.2554388e-05
-2.4361675e-06
-1.2379538e-05
-2.3615389e-06
-1.2211902e-05
-2.2896864e-06
-1.205118e-05
-2.220455e-06
-1.189709e-05
-2.1536987e-06
-1.1749368e-05
-2.0892808e-06
-1.1607766e-05
-2.0270726e-06
-1.1472054e-05
-1.9669528e-06
-1.1342014e-05
-1.9088076e-06
-1.1217443e-05
-1.8525296e-06
-1.1098148e-05
-1.7980173e-06
-1.0983951e-05
-1.7451755e-06
-1.0874683e-05
-1.693914e-06
-1.0770187e-05
-1.6441476e-06
-1.0670315e-05
-1.5957959e-06
-1.0574928e-05
-1.5487825e-06
-1.0483896e-05
-1.5030353e-06
-1.0397097e-05
-1.4584854e-06
-1.0314417e-05
-1.4150675e-06
-1.023575e-05
-1.372719e-06
-1.0160997e-05
-1.3313801e-06
-1.0090065e-05
-1.2909934e-06
-1.0022867e-05
-1.2515035e-06
-9.9593212e-06
-1.212857e-06
-9.8993531e-06
-1.1750024e-06
-9.8428915e-06
-1.1378896e-06
-9.7898701e-06
-1.1014699e-06
-9.7402265e-06
-1.0656962e-06
-9.6939021e-06
-1.0305226e-06
-9.6508415e-06
-9.9590483e-07
-9.6109922e-06
-9.6179973e-07
-9.5743042e-06
-9.2816579e-07
-9.5407297e-06
-8.9496313e-07
-9.5102226e-06
-8.6215366e-07
-9.4827387e-06
-8.2970121e-07
-9.458235e-06
-7.9757194e-07
-9.4366697e-06
-7.6573439e-07
-9.418002e-06
-7.3415991e-07
-9.4021921e-06
-7.0282291e-07
-9.3892012e-06
-6.7170127e-07
-9.3789916e-06
-6.4077648e-07
-9.3715265e-06
-6.1003414e-07
-9.3667707e-06
-5.7946418e-07
-9.3646907e-06
-5.490612e-07
-9.365255e-06
-5.1882464e-07
-9.3684349e-06
-4.8875905e-07
-9.3742049e-06
-4.588741e-07
-9.3825436e-06
-4.2918473e-07
-9.3934345e-06
-3.9971081e-07
-9.4068672e-06
-3.7047713e-07
-9.4228382e-06
-3.4151268e-07
-9.4413527e-06
-3.1284992e-07
-9.4624257e-06
-2.8452382e-07
-9.4860837e-06
-2.5657015e-07
-9.5123664e-06
-2.2902356e-07
-9.5413286e-06
-2.0191479e-07
-9.5730415e-06
-1.7526728e-07
-9.6075944e-06
-1.49093e-07
-9.6450953e-06
-1.233874e-07
-9.6856688e-06
-9.8124143e-08
-9.7294503e-06
-7.3250151e-08
-9.7765696e-06
-4.868266e-08
-9.8271169e-06
-2.4310785e-08
-9.8810871e-06
-9.9384586e-06
-3.6473127e-06
-1.6464547e-05
-3.5171929e-06
-1.6120166e-05
-3.3933633e-06
-1.5791239e-05
-3.2754805e-06
-1.5477091e-05
-3.163169e-06
-1.5177033e-05
-3.0560577e-06
-1.4890368e-05
-2.9538004e-06
-1.46164e-05
-2.8560827e-06
-1.4354457e-05
-2.7626214e-06
-1.4103903e-05
-2.6731599e-06
-1.3864145e-05
-2.5874634e-06
-1.3634634e-05
-2.5053144e-06
-1.3414863e-05
-2.4265101e-06
-1.3204361e-05
-2.3508603e-06
-1.3002691e-05
-2.2781866e-06
-1.2809448e-05
-2.2083213e-06
-1.2624254e-05
-2.1411068e-06
-1.2446752e-05
-2.0763953e-06
-1.2276614e-05
-2.0140478e-06
-1.2113528e-05
-1.9539336e-06
-1.1957204e-05
-1.89593e-06
-1.1807371e-05
-1.8399215e-06
-1.1663775e-05
-1.7857992e-06
-1.1526177e-05
-1.7334608e-06
-1.1394353e-05
-1.6828097e-06
-1.1268094e-05
-1.6337548e-06
-1.1147203e-05
-1.5862101e-06
-1.1031495e-05
-1.5400946e-06
-1.0920799e-05
-1.4953318e-06
-1.081495e-05
-1.4518493e-06
-1.0713798e-05
-1.4095786e-06
-1.0617199e-05
-1.368455e-06
-1.0525019e-05
-1.3284169e-06
-1.0437135e-05
-1.2894056e-06
-1.0353428e-05
-1.2513654e-06
-1.0273791e-05
-1.2142428e-06
-1.019812e-05
-1.1779864e-06
-1.0126321e-05
-1.1425465e-06
-1.0058306e-05
-1.1078753e-06
-9.9939924e-06
-1.0739261e-06
-9.9333022e-06
-1.0406537e-06
-9.8761639e-06
-1.0080137e-06
-9.82251e-06
-9.7596286e-07
-9.7722773e-06
-9.4445881e-07
-9.7254061e-06
-9.1346008e-07
-9.6818402e-06
-8.8292619e-07
-9.6415261e-06
-8.5281765e-07
-9.6044128e-06
-8.2309613e-07
-9.5704512e-06
-7.9372457e-07
-9.5395942e-06
-7.646675e-07
-9.5117958e-06
-7.3589107e-07
-9.4870114e-06
-7.0736358e-07
-9.4651971e-06
-6.790557e-07
-9.4463098e-06
-6.5094078e-07
-9.430307e-06
-6.2299525e-07
-9.4171468e-06
-5.9519909e-07
-9.4067877e-06
-5.675362e-07
-9.3991894e-06
-5.3999472e-07
-9.3943122e-06
-5.1256767e-07
-9.3921177e-06
-4.8525309e-07
-9.3925696e-06
-4.5805457e-07
-9.3956335e-06
-4.3098142e-07
-9.4012781e-06
-4.0404903e-07
-9.409476e-06
-3.772789e-07
-9.4202046e-06
-3.5069872e-07
-9.4334473e-06
-3.2434217e-07
-9.4491947e-06
-2.9824864e-07
-9.4674462e-06
-2.7246247e-07
-9.4882119e-06
-2.4703201e-07
-9.5115142e-06
-2.2200812e-07
-9.5373903e-06
-1.9744205e-07
-9.5658947e-06
-1.7338242e-07
-9.5971011e-06
-1.4987137e-07
-9.6311055e-06
-1.2693919e-07
-9.6680274e-06
-1.045981e-07
-9.7080099e-06
-8.2834395e-08
-9.7512141e-06
-6.1600493e-08
-9.7978035e-06
-4.080892e-08
-9.8479085e-06
-2.0331145e-08
-9.9015648e-06
-9.9587897e-06
-3.1000403e-06
-1.6578027e-05
-2.9920277e-06
-1.6228179e-05
-2.889282e-06
-1.5893985e-05
-2.7914731e-06
-1.55749e-05
-2.6982342e-06
-1.5270272e-05
-2.6092165e-06
-1.4979386e-05
-2.524113e-06
-1.4701503e-05
-2.4426611e-06
-1.4435909e-05
-2.3646351e-06
-1.4181929e-05
-2.2898366e-06
-1.3938944e-05
-2.2180853e-06
-1.3706386e-05
-2.1492139e-06
-1.3483734e-05
-2.0830649e-06
-1.327051e-05
-2.0194888e-06
-1.3066267e-05
-1.9583443e-06
-1.2870593e-05
-1.8994977e-06
-1.26831e-05
-1.8428229e-06
-1.2503427e-05
-1.7882012e-06
-1.2331235e-05
-1.7355207e-06
-1.2166208e-05
-1.6846763e-06
-1.2008048e-05
-1.6355687e-06
-1.1856479e-05
-1.5881044e-06
-1.1711239e-05
-1.5421952e-06
-1.1572086e-05
-1.4977577e-06
-1.143879e-05
-1.4547134e-06
-1.1311138e-05
-1.4129879e-06
-1.1188928e-05
-1.3725111e-06
-1.1071972e-05
-1.3332166e-06
-1.0960093e-05
-1.2950419e-06
-1.0853125e-05
-1.2579277e-06
-1.0750912e-05
-1.2218181e-06
-1.0653308e-05
-1.18666e-06
-1.0560177e-05
-1.1524029e-06
-1.0471392e-05
-1.118999e-06
-1.0386832e-05
-1.086402e-06
-1.0306387e-05
-1.054568e-06
-1.0229954e-05
-1.0234542e-06
-1.0157435e-05
-9.9301923e-07
-1.0088741e-05
-9.6322271e-07
-1.0023789e-05
-9.3402509e-07
-9.9624998e-06
-9.0538747e-07
-9.9048016e-06
-8.7727145e-07
-9.8506261e-06
-8.4963912e-07
-9.7999096e-06
-8.22453e-07
-9.7525923e-06
-7.9567593e-07
-9.7086173e-06
-7.6927134e-07
-9.6679307e-06
-7.432032e-07
-9.6304809e-06
-7.174362e-07
-9.5962182e-06
-6.9193598e-07
-9.5650944e-06
-6.6666935e-07
-9.5370624e-06
-6.4160466e-07
-9.5120761e-06
-6.1671204e-07
-9.4900898e-06
-5.9196386e-07
-9.471058e-06
-5.6733513e-07
-9.4549357e-06
-5.4280398e-07
-9.4416779e-06
-5.1835216e-07
-9.4312395e-06
-4.9396547e-07
-9.4235761e-06
-4.6963441e-07
-9.4186432e-06
-4.4535454e-07
-9.4163976e-06
-4.2112722e-07
-9.416797e-06
-3.9695977e-07
-9.4198009e-06
-3.7286621e-07
-9.4253716e-06
-3.4886747e-07
-9.4334747e-06
-3.2499175e-07
-9.4440804e-06
-3.012747e-07
-9.4571644e-06
-2.7775942e-07
-9.47271e-06
-2.5449631e-07
-9.4907093e-06
-2.3154272e-07
-9.5111655e-06
-2.0896197e-07
-9.5340949e-06
-1.8682221e-07
-9.5595301e-06
-1.6519435e-07
-9.5875225e-06
-1.4414894e-07
-9.6181465e-06
-1.2375179e-07
-9.6515026e-06
-1.0405814e-07
-9.6877211e-06
-8.510434e-08
-9.7269637e-06
-6.6897412e-08
-9.769421e-06
-4.9402291e-08
-9.8152986e-06
-3.2530252e-08
-9.8647805e-06
-1.6134173e-08
-9.9179609e-06
-9.9749239e-06
-2.5457431e-06
-1.6668306e-05
-2.4601081e-06
-1.6313814e-05
-2.3788501e-06
-1.5975243e-05
-2.3015569e-06
-1.5652193e-05
-2.2278125e-06
-1.5344017e-05
-2.1572652e-06
-1.5049933e-05
-2.0896434e-06
-1.4769125e-05
-2.0247435e-06
-1.4500808e-05
-1.9624076e-06
-1.4244265e-05
-1.902504e-06
-1.3998847e-05
-1.8449135e-06
-1.3763976e-05
-1.7895225e-06
-1.3539125e-05
-1.7362203e-06
-1.3323812e-05
-1.684899e-06
-1.3117589e-05
-1.6354546e-06
-1.2920037e-05
-1.5877877e-06
-1.2730767e-05
-1.5418041e-06
-1.2549411e-05
-1.4974149e-06
-1.2375625e-05
-1.4545359e-06
-1.2209087e-05
-1.4130877e-06
-1.2049497e-05
-1.3729954e-06
-1.1896571e-05
-1.3341878e-06
-1.1750047e-05