/*--------------------------------*- C++ -*----------------------------------*\
| =========                 |                                                 |
| \\      /  F ield         | OpenFOAM: The Open Source CFD Toolbox           |
|  \\    /   O peration     | Version:  2306                                  |
|   \\  /    A nd           | Website:  www.openfoam.com                      |
|    \\/     M anipulation  |                                                 |
\*---------------------------------------------------------------------------*/
FoamFile
{
    version     2.0;
    format      ascii;
    arch        "LSB;label=32;scalar=64";
    class       volVectorField;
    location    "0.23";
    object      U_0;
}
// * * * * * * * * * * * * * * * * * * * * * * * * * * * * * * * * * * * * * //

dimensions      [0 1 -1 0 0 0 0];

internalField   nonuniform List<vector> 
6400
(
(-0.0034112466 -0.005560545 -3.4362681e-19)
(-0.0032445919 -0.0054062896 -3.9099749e-19)
(-0.0030881461 -0.0052587062 -3.6938556e-19)
(-0.0029411407 -0.0051174535 -4.6338396e-19)
(-0.0028028747 -0.00498221 -2.4049094e-19)
(-0.002672708 -0.0048526734 3.0083474e-19)
(-0.002550055 -0.0047285591 2.5251949e-20)
(-0.0024343791 -0.0046095992 1.1253478e-19)
(-0.0023251885 -0.0044955418 4.7718049e-20)
(-0.0022220314 -0.0043861495 -1.002083e-19)
(-0.0021244926 -0.0042811987 -4.2165659e-20)
(-0.0020321898 -0.0041804786 4.1855328e-20)
(-0.0019447708 -0.0040837907 -7.3578618e-20)
(-0.0018619109 -0.0039909477 -7.1743094e-20)
(-0.0017833104 -0.0039017729 -4.0493716e-20)
(-0.001708692 -0.0038160997 -7.4427255e-20)
(-0.0016377996 -0.0037337706 -4.1680684e-20)
(-0.0015703959 -0.003654637 -7.6439926e-20)
(-0.001506261 -0.0035785586 -1.2768391e-19)
(-0.001445191 -0.0035054028 -4.1987323e-20)
(-0.0013869968 -0.0034350441 -7.5163848e-20)
(-0.0013315023 -0.0033673641 -7.8312019e-20)
(-0.0012785441 -0.0033022505 -4.0167711e-20)
(-0.0012279701 -0.0032395974 -4.7245894e-20)
(-0.0011796385 -0.0031793042 -2.2116461e-21)
(-0.0011334172 -0.0031212758 -1.0236369e-21)
(-0.0010891831 -0.0030654222 -3.0315926e-20)
(-0.0010468212 -0.003011658 2.2439201e-20)
(-0.0010062241 -0.0029599023 -1.4432727e-20)
(-0.00096729119 -0.0029100784 -3.5898708e-20)
(-0.00092992866 -0.0028621135 -1.917079e-20)
(-0.00089404851 -0.0028159386 1.2323575e-20)
(-0.00085956832 -0.0027714881 -3.6371367e-20)
(-0.00082641081 -0.0027286999 -2.48265e-20)
(-0.00079450347 -0.0026875149 2.1091177e-20)
(-0.00076377824 -0.0026478768 3.5232413e-21)
(-0.00073417114 -0.0026097325 3.9647886e-21)
(-0.00070562203 -0.002573031 -2.4261686e-20)
(-0.00067807434 -0.0025377241 -5.3030325e-20)
(-0.0006514748 -0.002503766 -1.7129856e-20)
(-0.00062577325 -0.0024711128 1.0001731e-20)
(-0.00060092241 -0.0024397229 1.7883473e-20)
(-0.00057687769 -0.0024095565 -1.7002543e-20)
(-0.00055359703 -0.0023805759 -2.6808959e-20)
(-0.00053104075 -0.0023527448 -7.8145509e-21)
(-0.00050917138 -0.002326029 3.0581433e-20)
(-0.00048795356 -0.0023003955 3.7704828e-20)
(-0.00046735389 -0.0022758129 1.4135192e-20)
(-0.00044734084 -0.0022522513 -6.9007814e-21)
(-0.00042788464 -0.002229682 2.0575059e-20)
(-0.00040895719 -0.0022080778 2.6312736e-20)
(-0.00039053195 -0.0021874126 9.0580904e-21)
(-0.0003725839 -0.0021676616 -4.861077e-21)
(-0.00035508945 -0.002148801 -1.4275658e-20)
(-0.00033802633 -0.0021308082 -2.0527267e-20)
(-0.00032137359 -0.0021136619 -2.2714023e-21)
(-0.00030511146 -0.0020973417 -8.3210343e-21)
(-0.00028922134 -0.0020818281 -1.288313e-22)
(-0.0002736857 -0.0020671032 -3.5413867e-21)
(-0.00025848801 -0.0020531495 -8.9751728e-21)
(-0.00024361271 -0.0020399511 5.8190379e-21)
(-0.00022904509 -0.0020274927 3.4376206e-21)
(-0.0002147712 -0.0020157606 2.2642458e-21)
(-0.00020077784 -0.0020047416 3.7733823e-22)
(-0.0001870524 -0.0019944238 -1.2747962e-20)
(-0.00017358281 -0.0019847965 4.5857769e-21)
(-0.00016035741 -0.0019758498 2.6343206e-21)
(-0.00014736486 -0.0019675749 -1.6512611e-20)
(-0.00013459407 -0.001959964 -3.1491902e-21)
(-0.00012203401 -0.0019530102 1.6239166e-20)
(-0.0001096737 -0.0019467075 8.2841245e-21)
(-9.7502026e-05 -0.0019410508 1.350684e-21)
(-8.5507696e-05 -0.0019360355 8.8112821e-21)
(-7.3679122e-05 -0.0019316576 1.4163366e-20)
(-6.2004412e-05 -0.0019279131 1.3609874e-20)
(-5.0471591e-05 -0.001924797 1.4049279e-20)
(-3.9068363e-05 -0.0019223013 -1.0320385e-20)
(-2.777755e-05 -0.0019204104 -2.3804415e-21)
(-1.6577416e-05 -0.0019190945 1.1332393e-20)
(-5.4844548e-06 -0.0019183249 2.0034345e-20)
(-0.0032490102 -0.0056877438 -5.980917e-19)
(-0.00308955 -0.0055255559 -5.0762232e-19)
(-0.0029399165 -0.0053706526 -3.4718155e-19)
(-0.0027993646 -0.0052226373 -3.6805291e-19)
(-0.0026672157 -0.005081139 -1.6546903e-19)
(-0.0025428506 -0.004945811 7.3344532e-20)
(-0.002425703 -0.004816329 -8.4951668e-20)
(-0.0023152547 -0.0046923895 -2.1780732e-20)
(-0.0022110308 -0.0045737079 -5.1527318e-21)
(-0.0021125953 -0.0044600179 -1.3814241e-19)
(-0.0020195474 -0.0043510693 -3.1260085e-20)
(-0.0019315188 -0.0042466273 -1.3620484e-19)
(-0.00184817 -0.0041464717 -2.1019095e-19)
(-0.0017691883 -0.0040503952 -5.2284249e-20)
(-0.001694285 -0.003958203 -7.7653145e-20)
(-0.0016231935 -0.0038697121 -1.1741225e-19)
(-0.0015556672 -0.0037847498 -1.5503401e-19)
(-0.0014914782 -0.003703154 -1.3755139e-19)
(-0.001430415 -0.0036247717 1.7361773e-20)
(-0.0013722818 -0.0035494586 -2.300045e-20)
(-0.0013168969 -0.0034770788 -8.2204106e-20)
(-0.0012640915 -0.0034075041 -9.7112823e-20)
(-0.0012137087 -0.0033406134 -9.3168102e-20)
(-0.0011656025 -0.0032762925 -4.4946776e-20)
(-0.001119637 -0.0032144333 -1.8088685e-20)
(-0.0010756858 -0.0031549337 -3.4170828e-20)
(-0.0010336306 -0.0030976974 -6.5054793e-20)
(-0.00099336142 -0.0030426331 -1.4923609e-21)
(-0.00095477534 -0.0029896543 -2.0689894e-21)
(-0.0009177762 -0.0029386793 -1.3305429e-20)
(-0.00088227408 -0.0028896308 -3.1467111e-20)
(-0.00084818481 -0.0028424353 -1.2710458e-20)
(-0.00081542954 -0.0027970235 1.4492323e-20)
(-0.00078393437 -0.0027533293 -2.4314613e-21)
(-0.00075362997 -0.0027112903 2.6538714e-21)
(-0.00072445123 -0.0026708471 -3.8941897e-20)
(-0.00069633703 -0.0026319435 -3.9191804e-21)
(-0.00066922986 -0.0025945259 4.4766137e-21)
(-0.00064307566 -0.0025585435 -2.9329496e-20)
(-0.00061782352 -0.0025239481 -8.2616665e-21)
(-0.00059342549 -0.0024906936 -1.317978e-20)
(-0.00056983638 -0.0024587364 -1.5768932e-20)
(-0.00054701359 -0.0024280348 -1.792658e-20)
(-0.00052491693 -0.0023985491 -1.3705433e-20)
(-0.00050350846 -0.0023702415 -1.2647652e-20)
(-0.00048275239 -0.0023430761 -1.1943352e-20)
(-0.00046261494 -0.0023170183 1.8017082e-21)
(-0.00044306422 -0.0022920354 -6.9537314e-21)
(-0.00042407011 -0.0022680961 1.6750444e-21)
(-0.0004056042 -0.0022451705 4.4033913e-21)
(-0.0003876397 -0.00222323 -7.0061836e-22)
(-0.00037015135 -0.0022022475 -1.6908628e-20)
(-0.00035311531 -0.0021821969 -1.3983464e-20)
(-0.00033650917 -0.0021630534 -9.2120359e-21)
(-0.00032031183 -0.0021447936 -1.1790772e-20)
(-0.00030450344 -0.002127395 -1.9452966e-20)
(-0.00028906534 -0.0021108362 -4.7609782e-21)
(-0.00027398003 -0.0020950971 -1.9329936e-20)
(-0.00025923107 -0.0020801587 -4.3428186e-21)
(-0.00024480303 -0.002066003 5.3091172e-21)
(-0.00023068142 -0.0020526132 -6.8271625e-22)
(-0.00021685261 -0.0020399735 -7.6347317e-21)
(-0.00020330377 -0.0020280694 -1.4224399e-20)
(-0.00019002278 -0.0020168874 -2.0236501e-20)
(-0.00017699814 -0.0020064153 -1.9478411e-20)
(-0.00016421885 -0.0019966417 -3.4789588e-21)
(-0.00015167433 -0.0019875568 -8.7778421e-22)
(-0.00013935431 -0.0019791516 -1.0378475e-20)
(-0.00012724869 -0.0019714181 3.4130691e-21)
(-0.00011534743 -0.0019643498 5.4294527e-21)
(-0.00010364043 -0.0019579408 -6.0949083e-21)
(-9.2117403e-05 -0.0019521862 -1.0066446e-20)
(-8.0767745e-05 -0.0019470819 -6.9333336e-21)
(-6.9580441e-05 -0.0019426244 -1.6043766e-21)
(-5.8544027e-05 -0.0019388102 6.6872075e-21)
(-4.7646765e-05 -0.0019356349 6.6147418e-21)
(-3.6876445e-05 -0.0019330908 3.3559431e-21)
(-2.621606e-05 -0.0019311628 6.5717766e-21)
(-1.5644162e-05 -0.001929821 1.4344728e-20)
(-5.1754165e-06 -0.0019290361 2.1483974e-20)
(-0.0030786381 -0.0058092745 -4.6833261e-19)
(-0.0029270084 -0.0056394624 -5.2335342e-19)
(-0.0027847647 -0.0054775278 -3.094172e-19)
(-0.0026511918 -0.0053230196 -2.4728679e-19)
(-0.002525639 -0.0051755187 -1.2688836e-19)
(-0.0024075127 -0.0050346354 -5.7739757e-20)
(-0.0022962706 -0.0049000067 -1.8932272e-19)
(-0.0021914162 -0.0047712943 1.223299e-19)
(-0.0020924949 -0.0046481825 1.4566605e-19)
(-0.0019990891 -0.0045303766 -1.4784776e-19)
(-0.0019108157 -0.0044176008 -5.7502301e-20)
(-0.0018273221 -0.0043095972 -7.019298e-20)
(-0.0017482838 -0.0042061243 -1.238717e-19)
(-0.0016734017 -0.0041069557 -1.4830604e-20)
(-0.0016024001 -0.0040118791 -4.773367e-20)
(-0.0015350242 -0.0039206956 -5.324248e-20)
(-0.0014710388 -0.003833218 -8.49413e-20)
(-0.0014102261 -0.0037492708 -8.9483251e-20)
(-0.0013523844 -0.0036686888 2.6868728e-21)
(-0.0012973269 -0.0035913168 4.2337103e-20)
(-0.0012448803 -0.0035170086 -3.206194e-20)
(-0.0011948837 -0.0034456266 -4.7491685e-20)
(-0.0011471875 -0.0033770413 -2.1618389e-20)
(-0.0011016527 -0.0033111303 -3.7817795e-20)
(-0.0010581498 -0.0032477785 -1.4853505e-20)
(-0.0010165584 -0.0031868772 2.089658e-20)
(-0.00097676604 -0.0031283236 -4.8252939e-20)
(-0.00093866784 -0.003072021 -1.5965835e-20)
(-0.00090216594 -0.0030178776 -5.9483773e-21)
(-0.00086716887 -0.0029658069 -8.5179638e-21)
(-0.00083359109 -0.0029157271 -9.7182056e-21)
(-0.00080135257 -0.0028675606 -2.1199202e-20)
(-0.00077037833 -0.0028212341 1.484205e-20)
(-0.00074059811 -0.0027766783 3.9794538e-20)
(-0.00071194601 -0.0027338272 4.352079e-20)
(-0.00068436016 -0.0026926187 -2.0965614e-20)
(-0.00065778245 -0.0026529935 -3.340355e-21)
(-0.00063215824 -0.0026148955 3.6109683e-20)
(-0.00060743613 -0.0025782716 1.1284496e-20)
(-0.00058356774 -0.002543071 -2.7415355e-21)
(-0.00056050749 -0.0025092458 -1.3476872e-20)
(-0.00053821243 -0.0024767503 -2.7653412e-20)
(-0.00051664204 -0.002445541 9.345938e-21)
(-0.00049575811 -0.0024155765 1.4483497e-20)
(-0.00047552458 -0.0023868173 2.8347339e-21)
(-0.00045590742 -0.0023592259 4.6580416e-21)
(-0.0004368745 -0.0023327665 1.1166694e-22)
(-0.0004183955 -0.0023074048 -2.8457231e-20)
(-0.00040044182 -0.0022831082 -2.0203195e-20)
(-0.00038298645 -0.0022598457 2.0913441e-20)
(-0.00036600398 -0.0022375875 6.2318918e-21)
(-0.00034947043 -0.0022163052 2.2523422e-21)
(-0.00033336325 -0.0021959717 5.0570559e-21)
(-0.00031766125 -0.0021765613 -1.1561875e-20)
(-0.0003023445 -0.0021580493 -7.8107112e-21)
(-0.00028739433 -0.0021404124 -1.0981087e-20)
(-0.00027279325 -0.0021236283 -6.3460858e-21)
(-0.00025852488 -0.002107676 1.4348945e-21)
(-0.00024457393 -0.0020925356 -7.8227978e-21)
(-0.00023092611 -0.0020781884 2.7797244e-21)
(-0.00021756808 -0.0020646168 6.0777231e-21)
(-0.00020448738 -0.0020518044 -1.0687393e-21)
(-0.00019167234 -0.0020397362 -1.5440838e-20)
(-0.00017911202 -0.002028398 -2.6461953e-20)
(-0.00016679608 -0.0020177772 -1.5551165e-20)
(-0.00015471474 -0.0020078623 -1.1401334e-20)
(-0.00014285858 -0.0019986429 -9.2259866e-21)
(-0.00013121851 -0.0019901102 9.4355442e-22)
(-0.00011978556 -0.0019822562 1.643921e-21)
(-0.00010855078 -0.0019750744 4.8736978e-21)
(-9.750508e-05 -0.0019685593 -6.7600363e-21)
(-8.6639088e-05 -0.0019627063 -7.7404103e-21)
(-7.5943e-05 -0.001957512 -5.0469264e-23)
(-6.5406455e-05 -0.0019529734 -4.5915535e-21)
(-5.5018454e-05 -0.0019490877 3.29738e-21)
(-4.4767516e-05 -0.0019458513 -1.2127266e-21)
(-3.4641476e-05 -0.0019432571 1.0878112e-20)
(-2.4623416e-05 -0.0019412905 1.1421189e-20)
(-1.4692065e-05 -0.0019399214 5.414304e-21)
(-4.8600932e-06 -0.0019391206 1.8104789e-20)
(-0.0029004772 -0.0059245785 -2.7460363e-19)
(-0.0027572908 -0.005747503 -4.6228722e-19)
(-0.0026229925 -0.0055788722 -5.8440345e-19)
(-0.0024969036 -0.0054181824 -3.3162213e-19)
(-0.0023784068 -0.0052649683 -7.05842e-21)
(-0.0022669392 -0.0051187987 1.5188275e-19)
(-0.0021619862 -0.0049792737 3.7519544e-20)
(-0.0020630771 -0.004846022 1.2029657e-19)
(-0.0019697804 -0.0047186981 -2.8436219e-20)
(-0.0018817001 -0.0045969799 -9.3174208e-20)
(-0.0017984728 -0.0044805674 -1.3387355e-19)
(-0.001719764 -0.0043691803 2.2992982e-21)
(-0.0016452661 -0.004262557 -1.1442828e-19)
(-0.0015746957 -0.0041604526 -1.3187323e-19)
(-0.0015077914 -0.0040626382 -5.2846989e-20)
(-0.0014443119 -0.0039688995 -2.3644384e-20)
(-0.0013840343 -0.0038790356 3.1204338e-20)
(-0.0013267524 -0.0037928581 -3.0081644e-20)
(-0.0012722753 -0.0037101904 -1.5199447e-19)
(-0.0012204261 -0.0036308664 -3.1239354e-20)
(-0.0011710409 -0.0035547305 1.6650101e-20)
(-0.0011239673 -0.0034816359 -1.515972e-20)
(-0.001079064 -0.003411445 -2.1891206e-20)
(-0.0010361994 -0.003344028 -6.0808516e-20)
(-0.00099525116 -0.0032792627 1.2616831e-20)
(-0.00095610528 -0.0032170341 3.8948982e-20)
(-0.00091865555 -0.0031572337 6.338407e-20)
(-0.0008828029 -0.003099759 -1.4328102e-20)
(-0.00084845482 -0.0030445136 -1.8852734e-20)
(-0.00081552489 -0.0029914063 -3.2458449e-20)
(-0.00078393234 -0.0029403509 -2.2250371e-20)
(-0.00075360156 -0.0028912661 3.0398827e-20)
(-0.00072446175 -0.0028440749 1.6135587e-21)
(-0.00069644657 -0.0027987044 2.6436514e-21)
(-0.00066949377 -0.002755086 2.2321384e-20)
(-0.00064354495 -0.0027131542 3.4079711e-21)
(-0.00061854523 -0.0026728473 -2.4561183e-21)
(-0.000594443 -0.0026341067 -1.0083673e-20)
(-0.00057118973 -0.0025968769 -1.3370878e-20)
(-0.00054873971 -0.0025611052 -1.6183267e-21)
(-0.00052704987 -0.0025267415 1.304786e-20)
(-0.00050607961 -0.0024937383 2.5276306e-20)
(-0.00048579065 -0.0024620502 2.4003274e-20)
(-0.00046614685 -0.0024316344 -8.1341584e-21)
(-0.00044711411 -0.0024024499 3.3702197e-21)
(-0.00042866025 -0.0023744575 2.6221353e-20)
(-0.00041075487 -0.0023476201 3.390131e-21)
(-0.00039336929 -0.0023219023 -1.5264983e-20)
(-0.00037647647 -0.00229727 -4.4673374e-20)
(-0.0003600509 -0.0022736911 -4.6701761e-21)
(-0.00034406855 -0.0022511346 -1.6441615e-21)
(-0.00032850681 -0.002229571 6.6501517e-21)
(-0.00031334443 -0.0022089723 1.5774882e-21)
(-0.00029856147 -0.0021893116 -1.4952369e-21)
(-0.00028413925 -0.0021705632 8.7401704e-21)
(-0.00027006029 -0.0021527029 7.3606218e-21)
(-0.00025630831 -0.0021357074 4.7876809e-21)
(-0.00024286811 -0.002119555 1.4420545e-20)
(-0.00022972559 -0.0021042247 1.2166231e-21)
(-0.00021686765 -0.0020896972 -2.4224175e-21)
(-0.00020428216 -0.002075954 2.3049397e-21)
(-0.00019195787 -0.0020629782 9.1948806e-22)
(-0.00017988437 -0.0020507539 -1.221806e-20)
(-0.00016805198 -0.0020392667 -1.5975365e-20)
(-0.00015645163 -0.0020285033 -1.5326959e-20)
(-0.00014507484 -0.002018452 -1.1166461e-20)
(-0.00013391351 -0.0020091021 -1.5939641e-21)
(-0.00012295981 -0.0020004447 -5.8034341e-21)
(-0.00011220605 -0.0019924719 -4.8724708e-21)
(-0.00010164452 -0.0019851773 1.1243892e-20)
(-9.1267288e-05 -0.0019785558 5.2705318e-21)
(-8.106603e-05 -0.0019726035 1.3574838e-20)
(-7.103187e-05 -0.0019673174 1.0606426e-20)
(-6.1155191e-05 -0.0019626955 3.8122288e-21)
(-5.1425528e-05 -0.0019587357 2.5419725e-21)
(-4.1831678e-05 -0.0019554355 8.0231301e-21)
(-3.2361493e-05 -0.0019527887 6.8698617e-21)
(-2.2998051e-05 -0.0019507812 7.9997298e-22)
(-1.3720113e-05 -0.0019493833 6.1791835e-21)
(-4.5381342e-06 -0.0019485657 1.3617672e-20)
(-0.0027149301 -0.0060331192 -1.5468727e-19)
(-0.0025807702 -0.0058491929 -3.7120836e-19)
(-0.0024549453 -0.0056742464 -4.4692067e-19)
(-0.0023368199 -0.0055077265 -4.9884368e-20)
(-0.0022258158 -0.0053491237 3.6168206e-19)
(-0.0021214054 -0.0051979684 3.4328067e-19)
(-0.0020231061 -0.0050538261 9.3957471e-20)
(-0.001930476 -0.0049162943 9.4870447e-20)
(-0.0018431098 -0.0047849992 -7.2733678e-20)
(-0.0017606357 -0.0046595934 6.1350275e-20)
(-0.0016827123 -0.0045397536 5.9793595e-20)
(-0.0016090255 -0.0044251785 -6.7145976e-20)
(-0.0015392864 -0.0043155872 -1.4087967e-19)
(-0.0014732288 -0.0042107176 3.1204031e-20)
(-0.0014106074 -0.004110325 7.1883213e-20)
(-0.0013511955 -0.0040141804 4.6696451e-20)
(-0.0012947841 -0.0039220699 1.8034396e-20)
(-0.0012411795 -0.0038337932 -4.3617642e-20)
(-0.0011902026 -0.0037491626 -3.8820193e-20)
(-0.0011416875 -0.003668002 3.1197885e-20)
(-0.0010954802 -0.0035901464 2.1607281e-20)
(-0.0010514379 -0.003515441 1.5552777e-20)
(-0.001009428 -0.00344374 -3.4855123e-20)
(-0.00096932716 -0.0033749068 2.0927593e-20)
(-0.00093102053 -0.0033088125 9.9566859e-20)
(-0.00089440126 -0.0032453362 5.1947063e-20)
(-0.00085936978 -0.0031843637 4.2823205e-20)
(-0.00082583319 -0.0031257876 5.1400375e-22)
(-0.00079370477 -0.0030695067 6.9436876e-21)
(-0.00076290354 -0.0030154254 2.2191902e-20)
(-0.00073335377 -0.0029634536 5.2784154e-20)
(-0.00070498461 -0.0029135062 6.4036796e-20)
(-0.00067772971 -0.0028655028 -6.6787359e-21)
(-0.00065152689 -0.0028193676 -4.48001e-21)
(-0.00062631783 -0.0027750285 2.7428329e-21)
(-0.00060204777 -0.0027324179 1.6802095e-20)
(-0.00057866526 -0.0026914713 -2.5767368e-21)
(-0.00055612194 -0.0026521278 -3.7588348e-20)
(-0.00053437227 -0.0026143298 5.9483008e-21)
(-0.00051337335 -0.0025780225 1.5631665e-20)
(-0.0004930848 -0.0025431541 3.1150211e-20)
(-0.00047346848 -0.0025096751 3.0785769e-20)
(-0.00045448844 -0.0024775388 1.1747824e-20)
(-0.00043611072 -0.0024467006 -6.3956479e-21)
(-0.00041830327 -0.0024171181 6.8866941e-21)
(-0.00040103582 -0.0023887509 5.3981496e-21)
(-0.00038427979 -0.0023615605 -1.1369742e-20)
(-0.0003680082 -0.0023355101 1.5211581e-20)
(-0.00035219561 -0.0023105647 -4.940823e-22)
(-0.00033681804 -0.0022866908 -6.6779208e-21)
(-0.00032185292 -0.0022638565 -9.1040333e-21)
(-0.00030727902 -0.0022420312 1.4101664e-21)
(-0.00029307644 -0.0022211856 -6.7473539e-22)
(-0.00027922651 -0.0022012921 -8.3979937e-22)
(-0.00026571184 -0.002182324 2.2642225e-20)
(-0.00025251617 -0.002164256 1.6554778e-20)
(-0.00023962444 -0.0021470639 2.4133119e-20)
(-0.0002270227 -0.0021307251 1.4816435e-20)
(-0.00021469805 -0.0021152179 1.1819505e-20)
(-0.00020263865 -0.0021005219 1.3990409e-21)
(-0.00019083362 -0.002086618 -1.6881011e-21)
(-0.00017927301 -0.0020734885 1.6486799e-21)
(-0.00016794772 -0.0020611169 -2.634666e-21)
(-0.00015684941 -0.0020494881 -2.7841428e-21)
(-0.00014597041 -0.0020385885 -3.4667349e-22)
(-0.00013530364 -0.0020284058 1.4349111e-21)
(-0.00012484242 -0.0020189293 1.1117772e-20)
(-0.00011458037 -0.0020101499 -7.271316e-21)
(-0.00010451124 -0.0020020597 4.4493585e-22)
(-9.4628695e-05 -0.0019946527 5.9383534e-21)
(-8.492614e-05 -0.0019879241 7.3990591e-21)
(-7.5396489e-05 -0.0019818707 1.776215e-20)
(-6.6031948e-05 -0.0019764902 1.7804051e-20)
(-5.6823785e-05 -0.0019717817 1.70281e-20)
(-4.7762171e-05 -0.0019677443 8.0099829e-21)
(-3.8836225e-05 -0.0019643766 8.086352e-21)
(-3.0033777e-05 -0.0019616737 1.1547313e-20)
(-2.1337799e-05 -0.0019596223 3.0573373e-21)
(-1.27269e-05 -0.0019581934 8.9017149e-22)
(-4.2090487e-06 -0.0019573575 3.5612901e-21)
(-0.0025224543 -0.0061343888 -2.6342409e-19)
(-0.0023978676 -0.0059440744 -4.2221077e-19)
(-0.0022810104 -0.0057632361 -9.4436636e-20)
(-0.0021712974 -0.0055912748 1.0818477e-19)
(-0.0020681953 -0.0054276413 1.9417323e-19)
(-0.0019712161 -0.0052718305 2.7032206e-19)
(-0.0018799126 -0.0051233764 -5.0050205e-20)
(-0.0017938749 -0.0049818476 1.1283536e-19)
(-0.0017127268 -0.0048468443 3.2439495e-20)
(-0.0016361229 -0.0047179953 9.1233485e-20)
(-0.0015637458 -0.0045949556 2.1168531e-19)
(-0.0014953039 -0.0044774042 -2.8180156e-20)
(-0.0014305287 -0.0043650423 -5.5365055e-20)
(-0.001369173 -0.0042575916 1.3755361e-19)
(-0.0013110087 -0.0041547925 8.8069286e-20)
(-0.0012558255 -0.0040564026 5.9658457e-20)
(-0.0012034289 -0.0039621957 -6.6180772e-20)
(-0.0011536391 -0.0038719601 -2.4125564e-20)
(-0.0011062898 -0.0037854979 4.7912975e-20)
(-0.0010612266 -0.0037026238 2.8905987e-20)
(-0.0010183067 -0.003623164 2.0728425e-20)
(-0.00097739739 -0.0035469559 -3.0990664e-21)
(-0.00093837531 -0.0034738465 9.1208671e-21)
(-0.00090112591 -0.0034036923 7.8708791e-20)
(-0.00086554256 -0.0033363587 7.3130786e-20)
(-0.00083152598 -0.0032717189 3.2657195e-20)
(-0.00079898364 -0.0032096536 -2.2973188e-20)
(-0.00076782925 -0.0031500506 2.8777268e-20)
(-0.00073798226 -0.0030928043 3.1896701e-20)
(-0.00070936743 -0.0030378151 1.2688635e-20)
(-0.00068191442 -0.0029849891 2.4055789e-20)
(-0.0006555574 -0.0029342378 1.7266871e-20)
(-0.00063023475 -0.0028854776 1.4888017e-21)
(-0.00060588869 -0.0028386296 2.2781149e-21)
(-0.00058246503 -0.0027936194 -7.6426497e-24)
(-0.00055991287 -0.0027503763 3.4644793e-21)
(-0.0005381844 -0.0027088339 4.458007e-21)
(-0.00051723463 -0.0026689291 -6.2175995e-21)
(-0.00049702119 -0.0026306021 1.5180291e-20)
(-0.00047750417 -0.0025937965 1.4072302e-20)
(-0.00045864594 -0.0025584585 1.4092205e-20)
(-0.00044041097 -0.0025245372 1.1851399e-20)
(-0.00042276572 -0.0024919844 -3.2298185e-21)
(-0.00040567853 -0.0024607539 1.4884335e-20)
(-0.00038911944 -0.002430802 1.6421561e-21)
(-0.00037306019 -0.0024020872 1.2799269e-20)
(-0.00035747407 -0.0023745696 9.725714e-21)
(-0.00034233585 -0.0023482114 -4.0993522e-21)
(-0.00032762174 -0.0023229763 7.3019251e-21)
(-0.00031330933 -0.0022988299 -1.1090809e-20)
(-0.00029937752 -0.0022757391 -8.04292e-21)
(-0.00028580652 -0.0022536724 -1.0555616e-21)
(-0.00027257776 -0.0022325995 -1.9260083e-20)
(-0.00025967391 -0.0022124916 6.5229658e-23)
(-0.00024707885 -0.0021933212 2.128981e-21)
(-0.0002347776 -0.002175062 2.0379833e-21)
(-0.00022275634 -0.002157689 -6.9730582e-21)
(-0.00021100236 -0.0021411784 3.2879683e-21)
(-0.00019950403 -0.0021255078 -5.4041482e-21)
(-0.00018825079 -0.0021106558 2.1236204e-21)
(-0.00017723309 -0.0020966027 -3.8213184e-21)
(-0.00016644229 -0.0020833298 8.6535489e-21)
(-0.00015587071 -0.0020708201 1.4793111e-20)
(-0.00014551143 -0.0020590577 1.1516412e-20)
(-0.00013535829 -0.0020480285 6.134685e-21)
(-0.00012540571 -0.0020377199 1.129314e-20)
(-0.00011564861 -0.0020281208 3.2695824e-21)
(-0.0001060822 -0.0020192219 1.1930307e-21)
(-9.6701836e-05 -0.0020110156 1.1821034e-20)
(-8.7502791e-05 -0.002003496 3.0359052e-22)
(-7.848001e-05 -0.0019966588 8.9449904e-22)
(-6.9627858e-05 -0.0019905016 2.2841678e-21)
(-6.0939839e-05 -0.0019850231 1.8275312e-20)
(-5.2408297e-05 -0.0019802236 1.2724483e-20)
(-4.4024184e-05 -0.0019761037 8.9673912e-21)
(-3.5777019e-05 -0.0019726636 9.627051e-22)
(-2.7654612e-05 -0.0019698998 -1.2719578e-21)
(-1.96397e-05 -0.0019678005 5.6115046e-22)
(-1.1710504e-05 -0.0019663374 -4.5471425e-21)
(-3.8721716e-06 -0.0019654814 -2.3025569e-20)
(-0.002323561 -0.0062279161 2.7267507e-19)
(-0.0022090494 -0.0060317234 -1.1994948e-19)
(-0.002101614 -0.0058454569 1.8001335e-19)
(-0.002000727 -0.0056684774 -3.4091964e-19)
(-0.0019059048 -0.0055002012 -2.5398589e-19)
(-0.0018167029 -0.0053400923 3.7307516e-20)
(-0.0017327127 -0.0051876563 1.3819745e-20)
(-0.0016535585 -0.005042436 2.5595075e-19)
(-0.0015788956 -0.0049040077 -3.084209e-20)
(-0.0015084069 -0.0047719783 -1.0925484e-19)
(-0.0014418015 -0.0046459829 1.1413014e-19)
(-0.0013788115 -0.0045256822 -6.6933792e-21)
(-0.0013191909 -0.004410761 6.0764252e-20)
(-0.0012627126 -0.0043009259 1.360711e-20)
(-0.0012091675 -0.0041959037 -5.3806225e-20)
(-0.0011583623 -0.0040954394 -4.1221203e-20)
(-0.0011101187 -0.0039992956 -1.0521787e-19)
(-0.0010642716 -0.0039072503 2.0803847e-20)
(-0.0010206681 -0.003819096 5.0003538e-20)
(-0.00097916663 -0.0037346387 -3.8055678e-20)
(-0.00093963581 -0.0036536969 -1.6204955e-20)
(-0.00090195375 -0.0035761004 -2.4882258e-20)
(-0.00086600718 -0.0035016897 5.4279118e-20)
(-0.0008316908 -0.0034303153 -3.3292813e-21)
(-0.00079890663 -0.0033618367 -6.9545513e-21)
(-0.0007675634 -0.003296122 -1.2428099e-20)
(-0.00073757608 -0.0032330471 -2.888108e-20)
(-0.00070886535 -0.0031724955 8.0721932e-20)
(-0.00068135716 -0.0031143574 2.9855213e-20)
(-0.00065498234 -0.0030585295 -2.2311227e-20)
(-0.00062967623 -0.0030049145 -1.9737743e-20)
(-0.00060537831 -0.0029534207 -2.2214706e-20)
(-0.00058203189 -0.0029039615 1.6945419e-20)
(-0.00055958384 -0.0028564553 -1.64299e-20)
(-0.00053798432 -0.0028108251 -2.7935186e-20)
(-0.00051718648 -0.0027669982 -1.9027406e-21)
(-0.0004971463 -0.0027249057 2.4713853e-20)
(-0.00047782234 -0.0026844827 1.9844426e-20)
(-0.00045917556 -0.0026456676 -4.0024748e-20)
(-0.00044116912 -0.0026084022 5.0846255e-21)
(-0.0004237683 -0.0025726313 2.7161108e-20)
(-0.00040694027 -0.0025383024 2.7884921e-20)
(-0.00039065401 -0.0025053658 5.8565024e-21)
(-0.0003748802 -0.0024737742 1.2099242e-20)
(-0.0003595911 -0.0024434828 -1.2129579e-21)
(-0.00034476047 -0.0024144485 1.4717276e-20)
(-0.00033036353 -0.0023866306 1.3475578e-20)
(-0.00031637685 -0.0023599902 -5.2697438e-21)
(-0.00030277833 -0.00233449 1.1533829e-20)
(-0.00028954713 -0.0023100944 -1.0747907e-20)
(-0.00027666368 -0.0022867694 -1.0388523e-20)
(-0.00026410961 -0.0022644825 -8.88025e-21)
(-0.00025186774 -0.0022432025 7.9992817e-21)
(-0.00023992206 -0.0022228996 1.0226099e-20)
(-0.00022825773 -0.0022035452 -1.3465112e-20)
(-0.00021686106 -0.0021851123 2.0007339e-21)
(-0.00020571949 -0.0021675746 -1.6484662e-20)
(-0.00019482157 -0.0021509077 -3.80528e-21)
(-0.00018415698 -0.002135088 -8.4113791e-21)
(-0.00017371645 -0.0021200935 9.0524848e-21)
(-0.00016349178 -0.0021059033 1.8126801e-20)
(-0.00015347576 -0.0020924981 1.1180463e-20)
(-0.00014366214 -0.0020798599 2.3341666e-20)
(-0.00013404554 -0.0020679724 2.6008795e-20)
(-0.00012462139 -0.0020568207 1.752286e-20)
(-0.00011538578 -0.0020463916 1.6165253e-20)
(-0.00010633533 -0.002036674 7.2363911e-21)
(-9.7467062e-05 -0.0020276581 1.0367847e-22)
(-8.8778148e-05 -0.0020193366 6.8342346e-22)
(-8.0265684e-05 -0.0020117036 5.911412e-22)
(-7.1926433e-05 -0.0020047556 4.8561912e-21)
(-6.3756481e-05 -0.001998491 6.5243754e-22)
(-5.5750903e-05 -0.0019929096 1.5721863e-20)
(-4.7903388e-05 -0.0019880133 8.1764247e-21)
(-4.0205893e-05 -0.0019838044 5.2852471e-21)
(-3.2648483e-05 -0.001980285 -2.6475233e-21)
(-2.5218961e-05 -0.001977454 -7.4298017e-21)
(-1.7899721e-05 -0.0019753013 1.6971878e-21)
(-1.0668306e-05 -0.0019737998 -3.5914117e-21)
(-3.5265883e-06 -0.0019729211 -2.0143863e-20)
(-0.0021188121 -0.0063132753 -1.189115e-19)
(-0.0020148235 -0.0061117563 -6.9194105e-20)
(-0.0019172175 -0.0059205597 -2.6651535e-20)
(-0.00182553 -0.0057390148 -2.5998817e-19)
(-0.001739331 -0.0055665102 3.9580638e-20)
(-0.0016582222 -0.0054024844 1.0858933e-19)
(-0.0015818354 -0.0052464186 1.8567684e-19)
(-0.0015098315 -0.0050978325 2.9959313e-19)
(-0.0014418985 -0.004956281 1.4223566e-19)
(-0.00137775 -0.0048213511 1.2800802e-20)
(-0.0013171227 -0.0046926596 7.898712e-20)
(-0.0012597747 -0.0045698508 1.9244305e-19)
(-0.0012054834 -0.0044525944 7.7489277e-20)
(-0.0011540436 -0.0043405833 -2.6852906e-20)
(-0.0011052662 -0.0042335318 2.5833177e-20)
(-0.0010589764 -0.0041311739 5.0357353e-20)
(-0.0010150126 -0.0040332616 7.022326e-20)
(-0.00097322538 -0.0039395637 2.7362068e-20)
(-0.00093347636 -0.003849864 1.5725884e-20)
(-0.00089563719 -0.0037639608 8.1856047e-20)
(-0.00085958883 -0.0036816652 6.9961667e-20)
(-0.00082522075 -0.0036028004 1.0346608e-19)
(-0.00079243024 -0.0035272009 6.3628361e-20)
(-0.00076112179 -0.0034547116 -4.4314252e-20)
(-0.0007312065 -0.0033851868 4.0520598e-20)
(-0.00070260156 -0.0033184898 1.0284744e-19)
(-0.00067522979 -0.0032544924 5.693472e-20)
(-0.00064901918 -0.0031930739 3.2429856e-20)
(-0.00062390252 -0.0031341208 -4.435775e-21)
(-0.00059981699 -0.0030775264 2.1628312e-20)
(-0.00057670387 -0.0030231902 2.6144396e-20)
(-0.00055450818 -0.0029710177 2.4874824e-20)
(-0.00053317845 -0.0029209195 4.0588651e-20)
(-0.00051266637 -0.0028728117 3.0916069e-20)
(-0.00049292663 -0.0028266149 2.1858674e-20)
(-0.00047391664 -0.0027822543 -1.2407121e-21)
(-0.00045559631 -0.0027396592 1.6710876e-20)
(-0.00043792791 -0.0026987627 3.6904101e-20)
(-0.00042087583 -0.0026595018 -5.2367508e-21)
(-0.0004044065 -0.0026218166 1.3493234e-20)
(-0.00038848816 -0.0025856505 -5.0908079e-21)
(-0.00037309077 -0.0025509498 -6.4370634e-21)
(-0.00035818594 -0.0025176635 9.0613265e-21)
(-0.00034374675 -0.0024857431 -1.4877299e-21)
(-0.00032974772 -0.0024551426 5.9550385e-21)
(-0.00031616472 -0.0024258182 -2.3738415e-21)
(-0.00030297491 -0.0023977278 2.6095843e-20)
(-0.00029015671 -0.0023708317 1.4416617e-20)
(-0.00027768972 -0.0023450917 2.0429258e-20)
(-0.00026555471 -0.0023204711 2.5541624e-20)
(-0.00025373362 -0.0022969351 6.9670718e-21)
(-0.00024220952 -0.0022744501 1.3986375e-20)
(-0.00023096661 -0.0022529841 3.7143818e-20)
(-0.00021999021 -0.0022325063 1.2381002e-21)
(-0.00020926678 -0.0022129872 8.3426574e-21)
(-0.00019878388 -0.0021943987 8.4240304e-21)
(-0.00018853024 -0.0021767138 7.7602638e-21)
(-0.00017849568 -0.0021599068 8.4113266e-21)
(-0.00016867116 -0.0021439533 6.3041147e-21)
(-0.00015904878 -0.0021288303 2.0498855e-20)
(-0.00014962169 -0.0021145161 2.9841898e-20)
(-0.00014038414 -0.0021009903 2.3619131e-20)
(-0.0001313314 -0.0020882341 2.6015064e-20)
(-0.00012245972 -0.0020762304 1.9423109e-20)
(-0.0001137662 -0.0020649636 1.474365e-20)
(-0.00010524874 -0.0020544201 1.6990609e-20)
(-9.6905858e-05 -0.002044588 1.550967e-20)
(-8.8736547e-05 -0.0020354576 1.3595623e-20)
(-8.0740042e-05 -0.0020270213 -3.109889e-21)
(-7.291556e-05 -0.0020192738 1.9029628e-20)
(-6.5261972e-05 -0.0020122119 2.208733e-20)
(-5.7777441e-05 -0.0020058349 1.9299752e-20)
(-5.0458986e-05 -0.0020001442 8.5492702e-21)
(-4.3302002e-05 -0.0019951433 1.2382144e-20)
(-3.6299773e-05 -0.0019908368 8.5456906e-22)
(-2.9443141e-05 -0.0019872294 -9.535722e-21)
(-2.2720024e-05 -0.0019843225 2.0285797e-22)
(-1.611238e-05 -0.0019821089 5.9097283e-21)
(-9.5967134e-06 -0.0019805633 -1.8467292e-21)
(-3.1710417e-06 -0.0019796583 -4.6672093e-21)
(-0.0019088144 -0.0063900973 -2.2777891e-19)
(-0.001815733 -0.0061838377 -2.5982728e-19)
(-0.0017283111 -0.0059882355 -3.8537293e-19)
(-0.0016461527 -0.0058026009 -4.0421142e-20)
(-0.0015688833 -0.0056263038 1.7829733e-19)
(-0.0014961514 -0.0054587625 1.7664696e-19)
(-0.0014276299 -0.0052994382 2.3307778e-19)
(-0.0013630171 -0.0051478304 1.1585773e-19)
(-0.0013020353 -0.0050034744 1.0801792e-19)