/*--------------------------------*- C++ -*----------------------------------*\
| =========                 |                                                 |
| \\      /  F ield         | OpenFOAM: The Open Source CFD Toolbox           |
|  \\    /   O peration     | Version:  2106                                  |
|   \\  /    A nd           | Website:  www.openfoam.com                      |
|    \\/     M anipulation  |                                                 |
\*---------------------------------------------------------------------------*/
FoamFile
{
    version     2.0;
    format      ascii;
    arch        "LSB;label=32;scalar=64";
    class       surfaceScalarField;
    location    "1";
    object      phi_0;
}
// * * * * * * * * * * * * * * * * * * * * * * * * * * * * * * * * * * * * * //

dimensions      [0 3 -1 0 0 0 0];

oriented        oriented;

internalField   nonuniform List<scalar> 
179250
(
-1.46112e-09
1.46114e-09
-2.9187e-09
1.45756e-09
-4.37043e-09
1.45174e-09
-5.81404e-09
1.44361e-09
-7.2471e-09
1.43307e-09
-8.66722e-09
1.42011e-09
-1.00719e-08
1.40473e-09
-1.14589e-08
1.38694e-09
-1.28256e-08
1.36676e-09
-1.41698e-08
1.3442e-09
-1.54891e-08
1.31931e-09
-1.67813e-08
1.29211e-09
-1.80439e-08
1.26266e-09
-1.92749e-08
1.231e-09
-2.04721e-08
1.19718e-09
-2.16334e-08
1.16128e-09
-2.27567e-08
1.12333e-09
-2.38401e-08
1.08341e-09
-2.48817e-08
1.0416e-09
-2.58797e-08
9.97955e-10
-2.68322e-08
9.52563e-10
-2.77377e-08
9.055e-10
-2.85946e-08
8.56852e-10
-2.94013e-08
8.06698e-10
-3.01564e-08
7.55128e-10
-3.08586e-08
7.02238e-10
-3.15067e-08
6.48112e-10
-3.20996e-08
5.92849e-10
-3.26361e-08
5.36548e-10
-3.31154e-08
4.79305e-10
-3.35367e-08
4.21222e-10
-3.38991e-08
3.62399e-10
-3.4202e-08
3.0294e-10
-3.4445e-08
2.42952e-10
-3.46275e-08
1.82537e-10
-3.47493e-08
1.21799e-10
-3.48101e-08
6.08501e-11
-3.48099e-08
-2.05177e-13
-3.47487e-08
-6.1262e-11
-3.46265e-08
-1.2221e-10
-3.44435e-08
-1.82945e-10
-3.42002e-08
-2.4336e-10
-3.38968e-08
-3.03347e-10
-3.3534e-08
-3.62802e-10
-3.31124e-08
-4.21622e-10
-3.26327e-08
-4.79702e-10
-3.20957e-08
-5.36939e-10
-3.15025e-08
-5.93236e-10
-3.0854e-08
-6.48492e-10
-3.01514e-08
-7.0261e-10
-2.93959e-08
-7.55497e-10
-2.85888e-08
-8.07058e-10
-2.77316e-08
-8.57203e-10
-2.68258e-08
-9.05845e-10
-2.58729e-08
-9.529e-10
-2.48746e-08
-9.98283e-10
-2.38327e-08
-1.04191e-09
-2.2749e-08
-1.08372e-09
-2.16254e-08
-1.12362e-09
-2.04638e-08
-1.16155e-09
-1.92664e-08
-1.19745e-09
-1.80351e-08
-1.23124e-09
-1.67722e-08
-1.26288e-09
-1.54799e-08
-1.2923e-09
-1.41605e-08
-1.31945e-09
-1.28162e-08
-1.34429e-09
-1.14494e-08
-1.36677e-09
-1.00626e-08
-1.38685e-09
-8.65808e-09
-1.4045e-09
-7.23839e-09
-1.41969e-09
-5.806e-09
-1.43239e-09
-4.36344e-09
-1.44257e-09
-2.91321e-09
-1.45022e-09
-1.45788e-09
-1.45533e-09
9.96428e-15
-1.45789e-09
1.4579e-09
-1.45789e-09
2.91323e-09
-1.45533e-09
4.36346e-09
-1.45022e-09
5.80603e-09
-1.44257e-09
7.23841e-09
-1.43239e-09
8.6581e-09
-1.41969e-09
1.00626e-08
-1.4045e-09
1.14495e-08
-1.38685e-09
1.28162e-08
-1.36677e-09
1.41605e-08
-1.34429e-09
1.548e-08
-1.31945e-09
1.67723e-08
-1.2923e-09
1.80351e-08
-1.26288e-09
1.92664e-08
-1.23124e-09
2.04638e-08
-1.19745e-09
2.16254e-08
-1.16155e-09
2.2749e-08
-1.12362e-09
2.38327e-08
-1.08372e-09
2.48746e-08
-1.04191e-09
2.58729e-08
-9.98283e-10
2.68258e-08
-9.52901e-10
2.77317e-08
-9.05847e-10
2.85889e-08
-8.57205e-10
2.93959e-08
-8.07059e-10
3.01514e-08
-7.55497e-10
3.0854e-08
-7.02611e-10
3.15025e-08
-6.48492e-10
3.20958e-08
-5.93236e-10
3.26327e-08
-5.36939e-10
3.31124e-08
-4.79701e-10
3.3534e-08
-4.21622e-10
3.38968e-08
-3.62802e-10
3.42002e-08
-3.03346e-10
3.44435e-08
-2.43358e-10
3.46265e-08
-1.82944e-10
3.47487e-08
-1.2221e-10
3.48099e-08
-6.12614e-11
3.48102e-08
-2.05168e-13
3.47493e-08
6.0852e-11
3.46275e-08
1.21802e-10
3.4445e-08
1.82538e-10
3.4202e-08
2.42953e-10
3.38991e-08
3.02942e-10
3.35367e-08
3.624e-10
3.31155e-08
4.21224e-10
3.26361e-08
4.79308e-10
3.20996e-08
5.3655e-10
3.15068e-08
5.9285e-10
3.08586e-08
6.48111e-10
3.01564e-08
7.02236e-10
2.94013e-08
7.55129e-10
2.85946e-08
8.06697e-10
2.77377e-08
8.5685e-10
2.68322e-08
9.055e-10
2.58797e-08
9.52562e-10
2.48817e-08
9.97954e-10
2.38401e-08
1.0416e-09
2.27567e-08
1.08341e-09
2.16334e-08
1.12333e-09
2.04721e-08
1.16127e-09
1.92749e-08
1.19719e-09
1.80439e-08
1.231e-09
1.67813e-08
1.26266e-09
1.54891e-08
1.29211e-09
1.41698e-08
1.31931e-09
1.28256e-08
1.3442e-09
1.14589e-08
1.36675e-09
1.0072e-08
1.38694e-09
8.66723e-09
1.40472e-09
7.24713e-09
1.4201e-09
5.81408e-09
1.43306e-09
4.37047e-09
1.44361e-09
2.91871e-09
1.45176e-09
1.46113e-09
1.45758e-09
1.46113e-09
-1.46469e-09
2.92582e-09
-2.9258e-09
2.91869e-09
-4.38105e-09
2.90698e-09
-5.82808e-09
2.89066e-09
-7.26456e-09
2.86954e-09
-8.68804e-09
2.8436e-09
-1.00961e-08
2.81281e-09
-1.14864e-08
2.77719e-09
-1.28564e-08
2.73677e-09
-1.42038e-08
2.69161e-09
-1.55262e-08
2.64176e-09
-1.68214e-08
2.58731e-09
-1.80871e-08
2.52834e-09
-1.93211e-08
2.46494e-09
-2.05211e-08
2.39724e-09
-2.16852e-08
2.32533e-09
-2.28112e-08
2.24934e-09
-2.38972e-08
2.16942e-09
-2.49413e-08
2.08569e-09
-2.59416e-08
1.9983e-09
-2.68965e-08
1.90741e-09
-2.78041e-08
1.81317e-09
-2.8663e-08
1.71575e-09
-2.94717e-08
1.61533e-09
-3.02286e-08
1.51207e-09
-3.09325e-08
1.40615e-09
-3.15822e-08
1.29777e-09
-3.21765e-08
1.18712e-09
-3.27143e-08
1.07438e-09
-3.31947e-08
9.59759e-10
-3.3617e-08
8.43452e-10
-3.39802e-08
7.25665e-10
-3.42839e-08
6.06608e-10
-3.45274e-08
4.86486e-10
-3.47104e-08
3.65509e-10
-3.48325e-08
2.43892e-10
-3.48935e-08
1.21849e-10
-3.48933e-08
-4.11173e-13
-3.48319e-08
-1.2267e-10
-3.47094e-08
-2.44714e-10
-3.4526e-08
-3.66331e-10
-3.42821e-08
-4.87303e-10
-3.3978e-08
-6.07421e-10
-3.36143e-08
-7.26475e-10
-3.31917e-08
-8.44253e-10
-3.27108e-08
-9.6055e-10
-3.21726e-08
-1.07516e-09
-3.1578e-08
-1.18789e-09
-3.09279e-08
-1.29853e-09
-3.02236e-08
-1.4069e-09
-2.94663e-08
-1.5128e-09
-2.86573e-08
-1.61605e-09
-2.77981e-08
-1.71646e-09
-2.689e-08
-1.81386e-09
-2.59349e-08
-1.90808e-09
-2.49342e-08
-1.99896e-09
-2.38898e-08
-2.08632e-09
-2.28035e-08
-2.17003e-09
-2.16771e-08
-2.24993e-09
-2.05128e-08
-2.32589e-09
-1.93125e-08
-2.39777e-09
-1.80783e-08
-2.46543e-09
-1.68124e-08
-2.52878e-09
-1.5517e-08
-2.58769e-09
-1.41944e-08
-2.64206e-09
-1.28469e-08
-2.6918e-09
-1.14769e-08
-2.73681e-09
-1.00867e-08
-2.77703e-09
-8.67881e-09
-2.81237e-09
-7.25572e-09
-2.84278e-09
-5.81991e-09
-2.8682e-09
-4.37389e-09
-2.8886e-09
-2.92019e-09
-2.90392e-09
-1.46137e-09
-2.91415e-09
9.27707e-15
-2.91927e-09
1.46139e-09
-2.91928e-09
2.92021e-09
-2.91415e-09
4.37391e-09
-2.90392e-09
5.81993e-09
-2.8886e-09
7.25575e-09
-2.8682e-09
8.67884e-09
-2.84278e-09
1.00867e-08
-2.81237e-09
1.14769e-08
-2.77702e-09
1.28469e-08
-2.73681e-09
1.41944e-08
-2.69179e-09
1.5517e-08
-2.64206e-09
1.68124e-08
-2.58769e-09
1.80783e-08
-2.52878e-09
1.93125e-08
-2.46543e-09
2.05128e-08
-2.39776e-09
2.16772e-08
-2.32589e-09
2.28035e-08
-2.24993e-09
2.38898e-08
-2.17003e-09
2.49342e-08
-2.08632e-09
2.59349e-08
-1.99896e-09
2.68901e-08
-1.90808e-09
2.77981e-08
-1.81386e-09
2.86573e-08
-1.71646e-09
2.94663e-08
-1.61605e-09
3.02236e-08
-1.5128e-09
3.09279e-08
-1.4069e-09
3.1578e-08
-1.29854e-09
3.21726e-08
-1.18789e-09
3.27108e-08
-1.07516e-09
3.31917e-08
-9.6055e-10
3.36143e-08
-8.4425e-10
3.3978e-08
-7.2647e-10
3.42821e-08
-6.07417e-10
3.4526e-08
-4.87299e-10
3.47094e-08
-3.66327e-10
3.48319e-08
-2.44712e-10
3.48933e-08
-1.22669e-10
3.48935e-08
-4.09316e-13
3.48325e-08
1.21851e-10
3.47104e-08
2.43896e-10
3.45275e-08
3.65513e-10
3.42839e-08
4.86489e-10
3.39803e-08
6.06612e-10
3.3617e-08
7.25671e-10
3.31948e-08
8.43457e-10
3.27143e-08
9.59762e-10
3.21765e-08
1.07438e-09
3.15822e-08
1.18712e-09
3.09325e-08
1.29777e-09
3.02286e-08
1.40615e-09
2.94717e-08
1.51206e-09
2.86631e-08
1.61532e-09
2.78041e-08
1.71575e-09
2.68965e-08
1.81317e-09
2.59416e-08
1.90741e-09
2.49413e-08
1.9983e-09
2.38972e-08
2.08569e-09
2.28112e-08
2.16942e-09
2.16852e-08
2.24935e-09
2.05211e-08
2.32533e-09
1.93211e-08
2.39724e-09
1.80871e-08
2.46495e-09
1.68215e-08
2.52834e-09
1.55263e-08
2.58731e-09
1.42038e-08
2.64176e-09
1.28564e-08
2.69161e-09
1.14864e-08
2.73677e-09
1.00961e-08
2.77718e-09
8.68805e-09
2.8128e-09
7.26456e-09
2.84358e-09
5.82809e-09
2.86953e-09
4.38104e-09
2.89066e-09
2.92579e-09
2.90701e-09
1.46467e-09
2.91869e-09
2.9258e-09
-1.47051e-09
4.39634e-09
-2.93748e-09
4.38564e-09
-4.39854e-09
4.36805e-09
-5.85136e-09
4.34347e-09
-7.29355e-09
4.31173e-09
-8.72269e-09
4.27274e-09
-1.01364e-08
4.22648e-09
-1.15321e-08
4.17296e-09
-1.29076e-08
4.11224e-09
-1.42604e-08
4.04438e-09
-1.55881e-08
3.96949e-09
-1.68885e-08
3.88767e-09
-1.81592e-08
3.79906e-09
-1.9398e-08
3.70381e-09
-2.06029e-08
3.60207e-09
-2.17716e-08
3.49402e-09
-2.29021e-08
3.37985e-09
-2.39924e-08
3.25975e-09
-2.50406e-08
3.13394e-09
-2.6045e-08
3.00263e-09
-2.70036e-08
2.86606e-09
-2.79149e-08
2.72446e-09
-2.87772e-08
2.57808e-09
-2.95891e-08
2.42718e-09
-3.0349e-08
2.27202e-09
-3.10558e-08
2.11287e-09
-3.1708e-08
1.95002e-09
-3.23046e-08
1.78375e-09
-3.28446e-08
1.61436e-09
-3.3327e-08
1.44213e-09
-3.37509e-08
1.26736e-09
-3.41156e-08
1.09038e-09
-3.44205e-08
9.11487e-10
-3.4665e-08
7.3099e-10
-3.48487e-08
5.49213e-10
-3.49713e-08
3.66473e-10
-3.50325e-08
1.83089e-10
-3.50323e-08
-6.17139e-13
-3.49707e-08
-1.84323e-10
-3.48477e-08
-3.67707e-10
-3.46636e-08
-5.50445e-10
-3.44186e-08
-7.32216e-10
-3.41134e-08
-9.12706e-10
-3.37482e-08
-1.09159e-09
-3.33239e-08
-1.26857e-09
-3.28412e-08
-1.44331e-09
-3.23008e-08
-1.61553e-09
-3.17038e-08
-1.78492e-09
-3.10511e-08
-1.95117e-09
-3.0344e-08
-2.114e-09
-2.95837e-08
-2.27312e-09
-2.87715e-08
-2.42826e-09
-2.79088e-08
-2.57914e-09
-2.69972e-08
-2.7255e-09
-2.60382e-08
-2.86707e-09
-2.50335e-08
-3.00362e-09
-2.3985e-08
-3.1349e-09
-2.28943e-08
-3.26067e-09
-2.17635e-08
-3.38073e-09
-2.05945e-08
-3.49486e-09
-1.93894e-08
-3.60286e-09
-1.81503e-08
-3.70454e-09
-1.68794e-08
-3.79972e-09
-1.55788e-08
-3.88824e-09
-1.4251e-08
-3.96994e-09
-1.28981e-08
-4.04467e-09
-1.15226e-08
-4.11231e-09
-1.01269e-08
-4.17274e-09
-8.71339e-09
-4.22584e-09
-7.28463e-09
-4.27154e-09
-5.8431e-09
-4.30974e-09
-4.39131e-09
-4.34038e-09
-2.93182e-09
-4.36341e-09
-1.46719e-09
-4.37879e-09
8.4216e-15
-4.38648e-09
1.46721e-09
-4.38648e-09
2.93184e-09
-4.37879e-09
4.39133e-09
-4.36341e-09
5.84312e-09
-4.34038e-09
7.28465e-09
-4.30974e-09
8.71341e-09
-4.27154e-09
1.01269e-08
-4.22584e-09
1.15226e-08
-4.17274e-09
1.28981e-08
-4.11231e-09
1.4251e-08
-4.04467e-09
1.55789e-08
-3.96994e-09
1.68794e-08
-3.88824e-09
1.81504e-08
-3.79972e-09
1.93895e-08
-3.70454e-09
2.05946e-08
-3.60286e-09
2.17635e-08
-3.49486e-09
2.28943e-08
-3.38073e-09
2.3985e-08
-3.26067e-09
2.50335e-08
-3.13489e-09
2.60382e-08
-3.00362e-09
2.69972e-08
-2.86707e-09
2.79088e-08
-2.7255e-09
2.87715e-08
-2.57914e-09
2.95837e-08
-2.42827e-09
3.0344e-08
-2.27313e-09
3.10511e-08
-2.114e-09
3.17038e-08
-1.95117e-09
3.23008e-08
-1.78492e-09
3.28412e-08
-1.61553e-09
3.33239e-08
-1.44331e-09
3.37482e-08
-1.26856e-09
3.41134e-08
-1.09159e-09
3.44187e-08
-9.12701e-10
3.46636e-08
-7.32213e-10
3.48477e-08
-5.5044e-10
3.49707e-08
-3.67703e-10
3.50323e-08
-1.8432e-10
3.50325e-08
-6.14683e-13
3.49713e-08
1.83092e-10
3.48487e-08
3.66476e-10
3.4665e-08
5.49217e-10
3.44205e-08
7.30995e-10
3.41156e-08
9.11491e-10
3.37509e-08
1.09039e-09
3.3327e-08
1.26737e-09
3.28446e-08
1.44213e-09
3.23047e-08
1.61436e-09
3.1708e-08
1.78376e-09
3.10558e-08
1.95003e-09
3.0349e-08
2.11287e-09
2.95891e-08
2.27202e-09
2.87772e-08
2.42717e-09
2.79149e-08
2.57808e-09
2.70036e-08
2.72445e-09
2.6045e-08
2.86606e-09
2.50407e-08
3.00263e-09
2.39924e-08
3.13394e-09
2.29021e-08
3.25975e-09
2.17716e-08
3.37985e-09
2.06029e-08
3.49402e-09
1.93981e-08
3.60207e-09
1.81592e-08
3.70381e-09
1.68885e-08
3.79906e-09
1.55881e-08
3.88767e-09
1.42604e-08
3.96949e-09
1.29076e-08
4.04438e-09
1.15321e-08
4.11224e-09
1.01364e-08
4.17296e-09
8.72269e-09
4.22647e-09
7.29354e-09
4.27274e-09
5.85134e-09
4.31173e-09
4.39851e-09
4.34348e-09
2.93745e-09
4.36807e-09
1.47049e-09
4.38565e-09
4.3963e-09
-1.47868e-09
5.87501e-09
-2.95382e-09
5.8608e-09
-4.42306e-09
5.83728e-09
-5.88401e-09
5.80442e-09
-7.33426e-09
5.76198e-09
-8.77139e-09
5.70987e-09
-1.01929e-08
5.64804e-09
-1.15965e-08
5.57653e-09
-1.29797e-08
5.49538e-09
-1.434e-08
5.4047e-09
-1.56751e-08
5.30462e-09
-1.69827e-08
5.19528e-09
-1.82605e-08
5.07687e-09
-1.95063e-08
4.94958e-09
-2.07178e-08
4.81362e-09
-2.18931e-08
4.66923e-09
-2.30299e-08
4.51666e-09
-2.41263e-08
4.35617e-09
-2.51804e-08
4.18804e-09
-2.61903e-08
4.01256e-09
-2.71543e-08
3.83005e-09
-2.80707e-08
3.64083e-09
-2.89378e-08
3.44521e-09
-2.97542e-08
3.24356e-09
-3.05184e-08
3.03621e-09
-3.12291e-08
2.82354e-09
-3.18849e-08
2.60592e-09
-3.24849e-08
2.38372e-09
-3.30279e-08
2.15735e-09
-3.3513e-08
1.92719e-09
-3.39392e-08
1.69364e-09
-3.4306e-08
1.45713e-09
-3.46126e-08
1.21807e-09
-3.48584e-08
9.7686e-10
-3.50432e-08
7.33943e-10
-3.51664e-08
4.89737e-10
-3.5228e-08
2.44671e-10
-3.52278e-08
-8.24473e-13
-3.51658e-08
-2.46321e-10
-3.50421e-08
-4.91384e-10
-3.4857e-08
-7.35585e-10
-3.46107e-08
-9.78497e-10
-3.43037e-08
-1.21969e-09
-3.39366e-08
-1.45875e-09
-3.35099e-08
-1.69525e-09
-3.30244e-08
-1.92877e-09
-3.2481e-08
-2.15892e-09
-3.18807e-08
-2.38527e-09
-3.12244e-08
-2.60745e-09
-3.05134e-08
-2.82505e-09
-2.97488e-08
-3.03769e-09
-2.8932e-08
-3.24501e-09
-2.80646e-08
-3.44664e-09
-2.71478e-08
-3.64222e-09
-2.61835e-08
-3.83141e-09
-2.51732e-08
-4.01388e-09
-2.41188e-08
-4.18932e-09
-2.30221e-08
-4.3574e-09
-2.1885e-08
-4.51784e-09
-2.07095e-08
-4.67036e-09
-1.94976e-08
-4.81468e-09
-1.82516e-08
-4.95056e-09
-1.69736e-08
-5.07776e-09
-1.56658e-08
-5.19605e-09
-1.43305e-08
-5.30523e-09
-1.29701e-08
-5.4051e-09
-1.15869e-08
-5.49549e-09
-1.01834e-08
-5.57624e-09
-8.76202e-09
-5.64721e-09
-7.32529e-09
-5.70827e-09
-5.87571e-09
-5.75932e-09
-4.41582e-09
-5.80027e-09
-2.94819e-09
-5.83104e-09
-1.47538e-09
-5.85159e-09
8.54419e-15
-5.86187e-09
1.4754e-09
-5.86187e-09
2.94821e-09
-5.85159e-09
4.41584e-09
-5.83104e-09
5.87573e-09
-5.80027e-09
7.32531e-09
-5.75932e-09
8.76204e-09
-5.70827e-09
1.01834e-08
-5.64721e-09
1.15869e-08
-5.57624e-09
1.29701e-08
-5.49549e-09
1.43305e-08
-5.4051e-09
1.56658e-08
-5.30523e-09
1.69736e-08
-5.19605e-09
1.82516e-08
-5.07776e-09
1.94977e-08
-4.95057e-09
2.07095e-08
-4.81469e-09
2.1885e-08
-4.67036e-09
2.30221e-08
-4.51784e-09
2.41188e-08
-4.3574e-09
2.51732e-08
-4.18932e-09
2.61835e-08
-4.01388e-09
2.71479e-08
-3.83141e-09
2.80646e-08
-3.64222e-09
2.89321e-08
-3.44664e-09
2.97488e-08
-3.24501e-09
3.05134e-08
-3.03769e-09
3.12244e-08
-2.82505e-09
3.18807e-08
-2.60745e-09
3.24811e-08
-2.38527e-09
3.30244e-08
-2.15891e-09
3.35099e-08
-1.92877e-09
3.39366e-08
-1.69524e-09
3.43037e-08
-1.45875e-09
3.46107e-08
-1.21969e-09
3.4857e-08
-9.78492e-10
3.50421e-08
-7.35581e-10
3.51658e-08
-4.91379e-10
3.52278e-08
-2.46316e-10
3.5228e-08
-8.21084e-13
3.51664e-08
2.44674e-10
3.50432e-08
4.8974e-10
3.48585e-08
7.33947e-10
3.46126e-08
9.76866e-10
3.4306e-08
1.21807e-09
3.39393e-08
1.45714e-09
3.3513e-08
1.69365e-09
3.30279e-08
1.92719e-09
3.24849e-08
2.15735e-09
3.1885e-08
2.38372e-09
3.12291e-08
2.60592e-09
3.05184e-08
2.82354e-09
2.97542e-08
3.03621e-09
2.89378e-08
3.24356e-09
2.80707e-08
3.44521e-09
2.71543e-08
3.64083e-09
2.61903e-08
3.83005e-09
2.51804e-08
4.01256e-09
2.41263e-08
4.18804e-09
2.30299e-08
4.35617e-09
2.18931e-08
4.51666e-09
2.07179e-08
4.66923e-09
1.95063e-08
4.81362e-09
1.82605e-08
4.94958e-09
1.69827e-08
5.07687e-09
1.56751e-08
5.19528e-09
1.434e-08
5.30462e-09
1.29797e-08
5.4047e-09
1.15965e-08
5.49538e-09
1.01929e-08
5.57652e-09
8.77138e-09
5.64804e-09
7.33425e-09
5.70987e-09
5.88399e-09
5.76199e-09
4.42305e-09
5.80443e-09
2.95382e-09
5.8373e-09
1.47868e-09
5.86079e-09
5.87498e-09
-1.4893e-09
7.36433e-09
-2.97507e-09
7.34656e-09
-4.45489e-09
7.31711e-09
-5.92637e-09
7.27589e-09
-7.38707e-09
7.22268e-09
-8.83455e-09
7.15735e-09
-1.02664e-08
7.07985e-09
-1.168e-08
6.9902e-09
-1.30731e-08
6.88849e-09
-1.44433e-08
6.77482e-09
-1.5788e-08
6.64936e-09
-1.7105e-08
6.51232e-09
-1.8392e-08
6.36389e-09
-1.96468e-08
6.20432e-09
-2.08671e-08
6.0339e-09
-2.20507e-08
5.85291e-09
-2.31957e-08
5.66166e-09
-2.43e-08
5.46048e-09
-2.53617e-08
5.24973e-09
-2.63789e-08
5.02977e-09
-2.73499e-08
4.80099e-09
-2.82728e-08
4.56379e-09
-2.91462e-08
4.31859e-09
-2.99685e-08
4.06581e-09
-3.07382e-08
3.80591e-09
-3.1454e-08
3.53932e-09
-3.21146e-08
3.26653e-09
-3.27189e-08
2.98801e-09
-3.32658e-08
2.70425e-09
-3.37543e-08
2.41574e-09
-3.41837e-08
2.123e-09
-3.45531e-08
1.82653e-09
-3.48619e-08
1.52685e-09
-3.51095e-08
1.2245e-09
-3.52956e-08
9.20003e-10
-3.54197e-08
6.13889e-10
-3.54817e-08
3.06697e-10
-3.54815e-08
-1.03381e-12
-3.54191e-08
-3.08764e-10
-3.52945e-08
-6.1595e-10
-3.5108e-08
-9.22058e-10
-3.486e-08
-1.22655e-09
-3.45508e-08
-1.52889e-09
-3.4181e-08
-1.82855e-09
-3.37512e-08
-2.125e-09
-3.32623e-08
-2.41773e-09
-3.2715e-08
-2.70621e-09
-3.21103e-08
-2.98996e-09
-3.14493e-08
-3.26845e-09
-3.07331e-08
-3.54121e-09
-2.99631e-08
-3.80776e-09
-2.91404e-08
-4.06764e-09
-2.82667e-08
-4.32038e-09
-2.73434e-08
-4.56554e-09
-2.63721e-08
-4.8027e-09
-2.53545e-08
-5.03143e-09
-2.42925e-08
-5.25133e-09
-2.31879e-08
-5.46203e-09
-2.20426e-08
-5.66314e-09
-2.08586e-08
-5.85432e-09
-1.96381e-08
-6.03523e-09
-1.83831e-08
-6.20556e-09
-1.70958e-08
-6.365e-09
-1.57786e-08
-6.51328e-09
-1.44337e-08
-6.65013e-09
-1.30635e-08
-6.77532e-09
-1.16703e-08
-6.88862e-09
-1.02567e-08
-6.98985e-09
-8.82513e-09
-7.07881e-09
-7.37805e-09
-7.15535e-09
-5.91803e-09
-7.21934e-09
-4.44762e-09
-7.27067e-09
-2.96942e-09
-7.30925e-09
-1.48601e-09
-7.335e-09
9.79741e-15
-7.34789e-09
1.48603e-09
-7.34789e-09
2.96944e-09
-7.335e-09
4.44765e-09
-7.30925e-09
5.91805e-09
-7.27067e-09
7.37807e-09
-7.21934e-09
8.82515e-09
-7.15535e-09
1.02567e-08
-7.07881e-09
1.16704e-08
-6.98985e-09
1.30635e-08
-6.88863e-09
1.44337e-08
-6.77532e-09
1.57786e-08
-6.65014e-09
1.70959e-08
-6.51328e-09
1.83831e-08
-6.365e-09
1.96381e-08
-6.20556e-09
2.08586e-08
-6.03524e-09
2.20426e-08
-5.85432e-09
2.31879e-08
-5.66314e-09
2.42925e-08
-5.46203e-09
2.53546e-08
-5.25133e-09
2.63721e-08
-5.03143e-09
2.73434e-08
-4.80269e-09
2.82667e-08
-4.56554e-09
2.91404e-08
-4.32038e-09
2.99631e-08
-4.06764e-09
3.07331e-08
-3.80776e-09
3.14493e-08
-3.54121e-09
3.21103e-08
-3.26845e-09
3.2715e-08
-2.98995e-09
3.32623e-08
-2.70621e-09
3.37512e-08
-2.41772e-09
3.4181e-08
-2.125e-09
3.45508e-08
-1.82855e-09
3.486e-08
-1.52889e-09
3.51081e-08
-1.22655e-09
3.52945e-08
-9.22054e-10
3.54191e-08
-6.15946e-10
3.54815e-08
-3.08757e-10
3.54817e-08
-1.02851e-12
3.54197e-08
3.06701e-10
3.52956e-08
6.13893e-10
3.51095e-08
9.20007e-10
3.48619e-08
1.22451e-09
3.45531e-08
1.52686e-09
3.41837e-08
1.82653e-09
3.37543e-08
2.123e-09
3.32658e-08
2.41574e-09
3.27189e-08
2.70425e-09
3.21146e-08
2.98801e-09
3.1454e-08
3.26653e-09
3.07382e-08
3.53933e-09
2.99685e-08
3.80591e-09
2.91462e-08
4.06582e-09
2.82729e-08
4.31859e-09
2.73499e-08
4.5638e-09
2.63789e-08
4.80099e-09
2.53617e-08
5.02977e-09
2.43e-08
5.24973e-09
2.31957e-08
5.46048e-09
2.20507e-08
5.66165e-09
2.08671e-08
5.8529e-09
1.96468e-08
6.0339e-09
1.8392e-08
6.20432e-09
1.7105e-08
6.36388e-09
1.5788e-08
6.51231e-09
1.44433e-08
6.64936e-09
1.30731e-08
6.77482e-09
1.168e-08
6.88848e-09
1.02664e-08
6.9902e-09
8.83455e-09
7.07985e-09
7.38706e-09
7.15735e-09
5.92636e-09
7.22269e-09
4.45489e-09
7.2759e-09
2.97508e-09
7.31711e-09
1.48932e-09
7.34655e-09
7.36429e-09
-1.50246e-09
8.86678e-09
-3.00133e-09
8.84543e-09
-4.49422e-09
8.80999e-09
-5.97869e-09
8.76037e-09
-7.4523e-09
8.6963e-09
-8.91257e-09
8.61763e-09
-1.0357e-08
8.5243e-09
-1.17832e-08
8.41636e-09
-1.31886e-08
8.29389e-09
-1.45708e-08
8.15704e-09
-1.59274e-08
8.00599e-09
-1.72561e-08
7.84098e-09
-1.85545e-08
7.66226e-09
-1.98203e-08
7.47015e-09
-2.10514e-08
7.26496e-09
-2.22455e-08
7.04704e-09
-2.34006e-08
6.81676e-09
-2.45147e-08
6.57454e-09
-2.55857e-08
6.3208e-09
-2.66119e-08
6.05596e-09
-2.75914e-08
5.78051e-09
-2.85226e-08
5.49492e-09
-2.94037e-08
5.19969e-09
-3.02332e-08
4.89534e-09
-3.10097e-08
4.5824e-09
-3.17318e-08
4.26143e-09
-3.23982e-08
3.93298e-09
-3.30079e-08
3.59764e-09
-3.35596e-08
3.25598e-09
-3.40525e-08
2.90861e-09
-3.44856e-08
2.55614e-09
-3.48582e-08
2.19918e-09
-3.51698e-08
1.83837e-09
-3.54196e-08
1.47433e-09
-3.56073e-08
1.10771e-09
-3.57325e-08
7.39138e-10
-3.57951e-08
3.69272e-10
-3.57949e-08
-1.24368e-12
-3.57319e-08
-3.71755e-10
-3.56062e-08
-7.41615e-10
-3.54181e-08
-1.11018e-09
-3.51679e-08
-1.47679e-09
-3.4856e-08
-1.84082e-09
-3.44829e-08
-2.20162e-09
-3.40493e-08
-2.55855e-09
-3.35561e-08
-2.911e-09
-3.30039e-08
-3.25835e-09
-3.23939e-08
-3.59998e-09
-3.17271e-08
-3.93529e-09
-3.10046e-08
-4.2637e-09
-3.02277e-08
-4.58464e-09
-2.93978e-08
-4.89753e-09
-2.85164e-08
-5.20184e-09
-2.75849e-08
-5.49702e-09
-2.6605e-08
-5.78256e-09
-2.55785e-08
-6.05796e-09
-2.45071e-08
-6.32273e-09
-2.33927e-08
-6.57641e-09
-2.22373e-08
-6.81856e-09
-2.10429e-08
-7.04874e-09
-1.98115e-08
-7.26656e-09
-1.85455e-08
-7.47164e-09
-1.72468e-08
-7.66361e-09
-1.5918e-08
-7.84214e-09
-1.45612e-08
-8.00692e-09
-1.31789e-08
-8.15765e-09
-1.17734e-08
-8.29407e-09
-1.03473e-08
-8.41594e-09
-8.90308e-09
-8.52305e-09
-7.44322e-09
-8.61521e-09
-5.9703e-09
-8.69226e-09
-4.48691e-09
-8.75406e-09
-2.99565e-09
-8.80051e-09
-1.49913e-09
-8.83152e-09
1.12257e-14
-8.84704e-09
1.49916e-09
-8.84704e-09
2.99567e-09
-8.83152e-09
4.48693e-09
-8.80051e-09
5.97032e-09
-8.75406e-09
7.44324e-09
-8.69226e-09
8.9031e-09
-8.61521e-09
1.03473e-08
-8.52305e-09
1.17734e-08
-8.41594e-09
1.31789e-08
-8.29407e-09
1.45612e-08
-8.15765e-09
1.5918e-08
-8.00692e-09
1.72469e-08
-7.84215e-09
1.85455e-08
-7.66362e-09
1.98116e-08
-7.47164e-09
2.10429e-08
-7.26657e-09
2.22373e-08
-7.04874e-09
2.33927e-08
-6.81855e-09
2.45071e-08
-6.57641e-09
2.55785e-08
-6.32273e-09
2.6605e-08
-6.05795e-09
2.75849e-08
-5.78256e-09
2.85164e-08
-5.49702e-09
2.93978e-08
-5.20184e-09
3.02277e-08
-4.89753e-09
3.10046e-08
-4.58464e-09
3.17271e-08
-4.2637e-09
3.23939e-08
-3.93529e-09
3.3004e-08
-3.59997e-09
3.35561e-08
-3.25834e-09
3.40494e-08
-2.911e-09
3.44829e-08
-2.55855e-09
3.4856e-08
-2.20161e-09
3.51679e-08
-1.84081e-09
3.54181e-08
-1.47679e-09
3.56063e-08
-1.11017e-09
3.57319e-08
-7.41612e-10
3.57949e-08
-3.7175e-10
3.57951e-08
-1.23727e-12
3.57326e-08
3.69277e-10
3.56073e-08
7.39142e-10
3.54196e-08
1.10771e-09
3.51698e-08
1.47434e-09
3.48583e-08
1.83837e-09
3.44856e-08
2.19919e-09
3.40525e-08
2.55614e-09
3.35596e-08
2.90861e-09
3.30079e-08
3.25598e-09
3.23982e-08
3.59764e-09
3.17318e-08
3.93299e-09
3.10097e-08
4.26143e-09
3.02332e-08
4.58241e-09
2.94037e-08
4.89534e-09
2.85226e-08
5.19969e-09
2.75914e-08
5.49492e-09
2.66119e-08
5.78051e-09
2.55857e-08
6.05596e-09
2.45147e-08
6.32079e-09
2.34006e-08
6.57454e-09
2.22455e-08
6.81676e-09
2.10514e-08
7.04703e-09
1.98203e-08
7.26495e-09
1.85545e-08
7.47015e-09
1.72561e-08
7.66226e-09
1.59274e-08
7.84098e-09
1.45708e-08
8.00599e-09
1.31886e-08
8.15704e-09
1.17832e-08
8.29389e-09
1.0357e-08
8.41636e-09
8.91257e-09
8.52431e-09
7.4523e-09
8.61763e-09
5.97869e-09
8.6963e-09
4.49422e-09
8.76037e-09
3.00134e-09
8.80999e-09
1.50246e-09
8.84542e-09
8.86676e-09
-1.51817e-09
1.03849e-08
-3.03271e-09
1.036e-08
-4.5412e-09
1.03185e-08
-6.0412e-09
1.02604e-08
-7.53022e-09
1.01853e-08
-9.00576e-09
1.00932e-08
-1.04653e-08
9.98387e-09
-1.19064e-08
9.85744e-09
-1.33265e-08
9.714e-09
-1.47232e-08
9.55371e-09
-1.6094e-08
9.3768e-09
-1.74365e-08
9.18353e-09
-1.87485e-08
8.97422e-09
-2.00276e-08
8.74921e-09
-2.12715e-08
8.50889e-09
-2.24781e-08
8.25365e-09
-2.36453e-08
7.98395e-09
-2.4771e-08
7.70026e-09
-2.58533e-08
7.40306e-09
-2.68902e-08
7.09288e-09
-2.788e-08
6.77027e-09
-2.88208e-08
6.43577e-09
-2.97111e-08
6.08999e-09
-3.05493e-08
5.73353e-09
-3.13339e-08
5.36702e-09
-3.20636e-08
4.99109e-09
-3.2737e-08
4.6064e-09
-3.3353e-08
4.21364e-09
-3.39105e-08
3.81348e-09
-3.44085e-08
3.40663e-09
-3.48462e-08
2.99381e-09
-3.52228e-08
2.57574e-09
-3.55375e-08
2.15314e-09
-3.579e-08
1.72677e-09
-3.59797e-08
1.29737e-09
-3.61062e-08
8.65698e-10
-3.61694e-08
4.32501e-10
-3.61692e-08
-1.45301e-12
-3.61056e-08
-4.35405e-10
-3.59786e-08
-8.68595e-10
-3.57885e-08
-1.30026e-09
-3.55357e-08
-1.72965e-09
-3.52205e-08
-2.15601e-09
-3.48435e-08
-2.57858e-09
-3.44054e-08
-2.99663e-09
-3.3907e-08
-3.40943e-09
-3.33491e-08
-3.81625e-09
-3.27327e-08
-4.21637e-09
-3.20589e-08
-4.6091e-09
-3.13288e-08
-4.99375e-09
-3.05438e-08
-5.36964e-09
-2.97052e-08
-5.73611e-09
-2.88146e-08
-6.09251e-09
-2.78734e-08
-6.43824e-09
-2.68832e-08
-6.77267e-09
-2.5846e-08
-7.09522e-09
-2.47634e-08
-7.40533e-09
-2.36373e-08
-7.70245e-09
-2.24698e-08
-7.98605e-09
-2.12629e-08
-8.25565e-09
-2.00187e-08
-8.51077e-09
-1.87394e-08
-8.75096e-09
-1.74272e-08
-8.9758e-09
-1.60844e-08
-9.1849e-09
-1.47135e-08
-9.37789e-09
-1.33167e-08
-9.55443e-09
-1.18965e-08
-9.71421e-09
-1.04555e-08
-9.85695e-09
-8.99619e-09
-9.9824e-09
-7.52106e-09
-1.00903e-08
-6.03274e-09
-1.01806e-08
-4.53383e-09
-1.0253e-08
-3.02698e-09
-1.03074e-08
-1.51481e-09
-1.03437e-08
1.17382e-14
-1.03619e-08
1.51483e-09
-1.03619e-08
3.027e-09
-1.03437e-08
4.53385e-09
-1.03074e-08
6.03276e-09
-1.0253e-08
7.52108e-09
-1.01806e-08
8.99621e-09
-1.00903e-08
1.04556e-08
-9.9824e-09
1.18966e-08
-9.85695e-09
1.33167e-08
-9.71421e-09
1.47135e-08
-9.55443e-09
1.60845e-08
-9.37789e-09
1.74272e-08
-9.18491e-09
1.87394e-08
-8.97581e-09
2.00187e-08
-8.75096e-09
2.12629e-08
-8.51077e-09
2.24699e-08
-8.25565e-09
2.36374e-08
-7.98605e-09
2.47634e-08
-7.70244e-09
2.5846e-08
-7.40532e-09
2.68833e-08
-7.09522e-09
2.78734e-08
-6.77267e-09
2.88146e-08
-6.43823e-09
2.97053e-08
-6.09251e-09
3.05438e-08
-5.7361e-09
3.13288e-08
-5.36963e-09
3.20589e-08
-4.99375e-09
3.27327e-08
-4.6091e-09
3.33491e-08
-4.21637e-09
3.3907e-08
-3.81624e-09
3.44054e-08
-3.40943e-09
3.48435e-08
-2.99663e-09
3.52205e-08
-2.57858e-09
3.55357e-08
-2.156e-09
3.57885e-08
-1.72965e-09
3.59786e-08
-1.30026e-09
3.61056e-08
-8.68591e-10
3.61692e-08
-4.35401e-10
3.61695e-08
-1.44775e-12
3.61062e-08
4.32507e-10
3.59797e-08
8.65702e-10
3.579e-08
1.29738e-09
3.55376e-08
1.72678e-09
3.52228e-08
2.15315e-09
3.48462e-08
2.57574e-09
3.44086e-08
2.99382e-09
3.39105e-08
3.40664e-09
3.3353e-08
3.81348e-09
3.2737e-08
4.21364e-09
3.20636e-08
4.60641e-09
3.1334e-08
4.99109e-09
3.05493e-08
5.36702e-09
2.97111e-08
5.73354e-09
2.88208e-08
6.09e-09
2.788e-08
6.43578e-09
2.68902e-08
6.77027e-09
2.58533e-08
7.09288e-09
2.4771e-08
7.40306e-09
2.36453e-08
7.70026e-09
2.24781e-08
7.98395e-09
2.12715e-08
8.25365e-09
2.00276e-08
8.50889e-09
1.87485e-08
8.74921e-09
1.74366e-08
8.97422e-09
1.6094e-08
9.18353e-09
1.47232e-08
9.3768e-09
1.33265e-08
9.55371e-09
1.19064e-08
9.714e-09
1.04653e-08
9.85744e-09
9.00576e-09
9.98387e-09
7.53021e-09
1.00932e-08
6.04119e-09
1.01853e-08
4.5412e-09
1.02604e-08
3.03272e-09
1.03185e-08
1.51817e-09
1.036e-08
1.03849e-08
-1.53649e-09
1.19214e-08
-3.0693e-09
1.18928e-08
-4.59599e-09
1.18452e-08
-6.11408e-09
1.17785e-08
-7.62107e-09
1.16923e-08
-9.11442e-09
1.15865e-08
-1.05916e-08
1.1461e-08
-1.20501e-08
1.13159e-08
-1.34873e-08
1.11512e-08
-1.49008e-08
1.09672e-08
-1.62882e-08
1.07641e-08
-1.76469e-08
1.05423e-08
-1.89747e-08
1.0302e-08
-2.02692e-08
1.00437e-08
-2.15282e-08
9.76782e-09
-2.27493e-08
9.47482e-09
-2.39306e-08
9.16522e-09
-2.50699e-08
8.83955e-09
-2.61652e-08
8.49839e-09
-2.72147e-08
8.14232e-09
-2.82164e-08
7.77197e-09
-2.91686e-08
7.38799e-09
-3.00696e-08
6.99105e-09
-3.09179e-08
6.58185e-09
-3.1712e-08
6.1611e-09
-3.24505e-08
5.72955e-09
-3.3132e-08
5.28795e-09
-3.37555e-08
4.83707e-09
-3.43197e-08
4.37771e-09
-3.48237e-08
3.91067e-09
-3.52667e-08
3.43677e-09
-3.56478e-08
2.95683e-09
-3.59664e-08
2.47172e-09
-3.62218e-08
1.98226e-09
-3.64138e-08
1.48933e-09
-3.65419e-08
9.93785e-10
-3.66059e-08
4.96496e-10
-3.66057e-08
-1.66364e-12
-3.65412e-08
-4.99823e-10
-3.64127e-08
-9.97107e-10
-3.62204e-08
-1.49264e-09
-3.59644e-08
-1.98556e-09
-3.56455e-08
-2.475e-09
-3.52639e-08
-2.9601e-09
-3.48206e-08
-3.44e-09
-3.43161e-08
-3.91387e-09
-3.37515e-08
-4.38088e-09
-3.31277e-08
-4.84021e-09
-3.24457e-08
-5.29104e-09
-3.17069e-08
-5.7326e-09
-3.09124e-08
-6.1641e-09
-3.00637e-08
-6.5848e-09
-2.91623e-08
-6.99394e-09
-2.82097e-08
-7.39081e-09
-2.72076e-08
-7.77472e-09
-2.61579e-08
-8.145e-09
-2.50622e-08
-8.50099e-09
-2.39226e-08
-8.84207e-09
-2.2741e-08
-9.16764e-09
-2.15195e-08
-9.47713e-09
-2.02603e-08
-9.76999e-09
-1.89655e-08
-1.00457e-08
-1.76375e-08
-1.03038e-08
-1.62785e-08
-1.05439e-08
-1.4891e-08
-1.07654e-08
-1.34774e-08
-1.09681e-08
-1.20401e-08
-1.11515e-08
-1.05817e-08
-1.13153e-08
-9.10475e-09
-1.14594e-08
-7.61182e-09
-1.15833e-08
-6.10553e-09
-1.16869e-08
-4.58854e-09
-1.177e-08
-3.0635e-09
-1.18324e-08
-1.53309e-09
-1.18741e-08
1.12278e-14
-1.1895e-08
1.53311e-09
-1.1895e-08
3.06353e-09
-1.18741e-08
4.58856e-09
-1.18324e-08
6.10555e-09
-1.177e-08
7.61183e-09
-1.16869e-08
9.10476e-09
-1.15833e-08
1.05817e-08
-1.14594e-08
1.20401e-08
-1.13153e-08
1.34774e-08
-1.11515e-08
1.4891e-08
-1.09681e-08
1.62786e-08
-1.07654e-08
1.76375e-08
-1.05439e-08
1.89655e-08
-1.03038e-08
2.02603e-08
-1.00457e-08
2.15195e-08
-9.76999e-09
2.2741e-08
-9.47713e-09
2.39226e-08
-9.16764e-09
2.50622e-08
-8.84207e-09
2.61579e-08
-8.50099e-09
2.72077e-08
-8.145e-09
2.82097e-08
-7.77472e-09
2.91623e-08
-7.39081e-09
3.00637e-08
-6.99394e-09
3.09124e-08
-6.58479e-09
3.17069e-08
-6.1641e-09
3.24457e-08
-5.7326e-09
3.31277e-08
-5.29104e-09
3.37515e-08
-4.84021e-09
3.43161e-08
-4.38088e-09
3.48206e-08
-3.91387e-09
3.5264e-08
-3.44e-09
3.56455e-08
-2.96009e-09
3.59645e-08
-2.47499e-09
3.62204e-08
-1.98556e-09
3.64127e-08
-1.49264e-09
3.65413e-08
-9.97103e-10
3.66057e-08
-4.99819e-10
3.66059e-08
-1.65996e-12
3.65419e-08
4.96501e-10
3.64138e-08
9.9379e-10
3.62219e-08
1.48934e-09
3.59664e-08
1.98227e-09
3.56478e-08
2.47172e-09
3.52667e-08
2.95684e-09
3.48237e-08
3.43677e-09
3.43197e-08
3.91067e-09
3.37555e-08
4.37771e-09
3.3132e-08
4.83708e-09
3.24505e-08
5.28795e-09
3.1712e-08
5.72956e-09
3.09179e-08
6.16111e-09
3.00696e-08
6.58185e-09
2.91686e-08