/*--------------------------------*- C++ -*----------------------------------*\
| =========                 |                                                 |
| \\      /  F ield         | OpenFOAM: The Open Source CFD Toolbox           |
|  \\    /   O peration     | Version:  2106                                  |
|   \\  /    A nd           | Website:  www.openfoam.com                      |
|    \\/     M anipulation  |                                                 |
\*---------------------------------------------------------------------------*/
FoamFile
{
    version     2.0;
    format      ascii;
    arch        "LSB;label=32;scalar=64";
    class       volVectorField;
    location    "1";
    object      U;
}
// * * * * * * * * * * * * * * * * * * * * * * * * * * * * * * * * * * * * * //

dimensions      [0 1 -1 0 0 0 0];

internalField   nonuniform List<vector> 
90000
(
(-1.09659e-07 1.09566e-07 0)
(-3.28712e-07 1.09292e-07 0)
(-5.4707e-07 1.08848e-07 0)
(-7.64373e-07 1.08236e-07 0)
(-9.80266e-07 1.07445e-07 0)
(-1.1944e-06 1.06473e-07 0)
(-1.4064e-06 1.0532e-07 0)
(-1.61592e-06 1.03986e-07 0)
(-1.82258e-06 1.02473e-07 0)
(-2.02604e-06 1.00781e-07 0)
(-2.22594e-06 9.8915e-08 0)
(-2.42193e-06 9.68761e-08 0)
(-2.61367e-06 9.46679e-08 0)
(-2.80082e-06 9.22942e-08 0)
(-2.98306e-06 8.97589e-08 0)
(-3.16007e-06 8.70664e-08 0)
(-3.33153e-06 8.42214e-08 0)
(-3.49715e-06 8.12287e-08 0)
(-3.65663e-06 7.80935e-08 0)
(-3.8097e-06 7.48214e-08 0)
(-3.95609e-06 7.14183e-08 0)
(-4.09554e-06 6.78897e-08 0)
(-4.22781e-06 6.42422e-08 0)
(-4.35266e-06 6.0482e-08 0)
(-4.46988e-06 5.66157e-08 0)
(-4.57925e-06 5.26501e-08 0)
(-4.6806e-06 4.8592e-08 0)
(-4.77373e-06 4.44488e-08 0)
(-4.8585e-06 4.02276e-08 0)
(-4.93474e-06 3.59358e-08 0)
(-5.00232e-06 3.15811e-08 0)
(-5.06113e-06 2.71709e-08 0)
(-5.11107e-06 2.27129e-08 0)
(-5.15204e-06 1.82153e-08 0)
(-5.18397e-06 1.36856e-08 0)
(-5.20681e-06 9.13197e-09 0)
(-5.22052e-06 4.56234e-09 0)
(-5.22507e-06 -1.53e-11 0)
(-5.22046e-06 -4.593e-09 0)
(-5.20669e-06 -9.16265e-09 0)
(-5.18379e-06 -1.37163e-08 0)
(-5.15179e-06 -1.82459e-08 0)
(-5.11076e-06 -2.27434e-08 0)
(-5.06077e-06 -2.72011e-08 0)
(-5.0019e-06 -3.16111e-08 0)
(-4.93425e-06 -3.59656e-08 0)
(-4.85795e-06 -4.02569e-08 0)
(-4.77313e-06 -4.44778e-08 0)
(-4.67994e-06 -4.86206e-08 0)
(-4.57853e-06 -5.26782e-08 0)
(-4.4691e-06 -5.66433e-08 0)
(-4.35183e-06 -6.05091e-08 0)
(-4.22692e-06 -6.42688e-08 0)
(-4.0946e-06 -6.79157e-08 0)
(-3.9551e-06 -7.14436e-08 0)
(-3.80866e-06 -7.48462e-08 0)
(-3.65554e-06 -7.81174e-08 0)
(-3.49601e-06 -8.12517e-08 0)
(-3.33035e-06 -8.42434e-08 0)
(-3.15884e-06 -8.70873e-08 0)
(-2.9818e-06 -8.97785e-08 0)
(-2.79952e-06 -9.23123e-08 0)
(-2.61234e-06 -9.46841e-08 0)
(-2.42057e-06 -9.68899e-08 0)
(-2.22455e-06 -9.89257e-08 0)
(-2.02464e-06 -1.00788e-07 0)
(-1.82117e-06 -1.02473e-07 0)
(-1.6145e-06 -1.03979e-07 0)
(-1.40501e-06 -1.05302e-07 0)
(-1.19305e-06 -1.06441e-07 0)
(-9.79e-07 -1.07393e-07 0)
(-7.63231e-07 -1.08157e-07 0)
(-5.46123e-07 -1.0873e-07 0)
(-3.28057e-07 -1.09114e-07 0)
(-1.09416e-07 -1.09305e-07 0)
(1.09417e-07 -1.09305e-07 0)
(3.28059e-07 -1.09114e-07 0)
(5.46124e-07 -1.0873e-07 0)
(7.63232e-07 -1.08157e-07 0)
(9.79001e-07 -1.07393e-07 0)
(1.19305e-06 -1.06441e-07 0)
(1.40501e-06 -1.05303e-07 0)
(1.61451e-06 -1.03979e-07 0)
(1.82117e-06 -1.02473e-07 0)
(2.02464e-06 -1.00788e-07 0)
(2.22455e-06 -9.89256e-08 0)
(2.42057e-06 -9.68898e-08 0)
(2.61234e-06 -9.46841e-08 0)
(2.79952e-06 -9.23123e-08 0)
(2.9818e-06 -8.97786e-08 0)
(3.15885e-06 -8.70874e-08 0)
(3.33035e-06 -8.42434e-08 0)
(3.49602e-06 -8.12517e-08 0)
(3.65555e-06 -7.81174e-08 0)
(3.80867e-06 -7.48462e-08 0)
(3.9551e-06 -7.14437e-08 0)
(4.09461e-06 -6.79158e-08 0)
(4.22693e-06 -6.42689e-08 0)
(4.35183e-06 -6.05092e-08 0)
(4.4691e-06 -5.66434e-08 0)
(4.57854e-06 -5.26782e-08 0)
(4.67994e-06 -4.86206e-08 0)
(4.77313e-06 -4.44778e-08 0)
(4.85795e-06 -4.0257e-08 0)
(4.93425e-06 -3.59656e-08 0)
(5.0019e-06 -3.16111e-08 0)
(5.06077e-06 -2.72011e-08 0)
(5.11076e-06 -2.27434e-08 0)
(5.1518e-06 -1.82459e-08 0)
(5.18379e-06 -1.37163e-08 0)
(5.20669e-06 -9.16279e-09 0)
(5.22046e-06 -4.59319e-09 0)
(5.22507e-06 -1.55073e-11 0)
(5.22052e-06 4.56225e-09 0)
(5.20681e-06 9.13201e-09 0)
(5.18397e-06 1.36857e-08 0)
(5.15204e-06 1.82153e-08 0)
(5.11107e-06 2.2713e-08 0)
(5.06114e-06 2.71708e-08 0)
(5.00232e-06 3.15811e-08 0)
(4.93474e-06 3.59359e-08 0)
(4.8585e-06 4.02277e-08 0)
(4.77373e-06 4.44488e-08 0)
(4.6806e-06 4.8592e-08 0)
(4.57925e-06 5.265e-08 0)
(4.46988e-06 5.66156e-08 0)
(4.35266e-06 6.0482e-08 0)
(4.22781e-06 6.42422e-08 0)
(4.09554e-06 6.78898e-08 0)
(3.95609e-06 7.14182e-08 0)
(3.8097e-06 7.48215e-08 0)
(3.65663e-06 7.80935e-08 0)
(3.49715e-06 8.12287e-08 0)
(3.33153e-06 8.42214e-08 0)
(3.16007e-06 8.70664e-08 0)
(2.98306e-06 8.97589e-08 0)
(2.80082e-06 9.22941e-08 0)
(2.61367e-06 9.46678e-08 0)
(2.42193e-06 9.6876e-08 0)
(2.22594e-06 9.89149e-08 0)
(2.02605e-06 1.00781e-07 0)
(1.82259e-06 1.02472e-07 0)
(1.61592e-06 1.03986e-07 0)
(1.4064e-06 1.05319e-07 0)
(1.1944e-06 1.06472e-07 0)
(9.80271e-07 1.07444e-07 0)
(7.64379e-07 1.08234e-07 0)
(5.47084e-07 1.08846e-07 0)
(3.28738e-07 1.09284e-07 0)
(1.09671e-07 1.09554e-07 0)
(-1.09933e-07 3.28964e-07 0)
(-3.29527e-07 3.28147e-07 0)
(-5.48407e-07 3.26825e-07 0)
(-7.66223e-07 3.24989e-07 0)
(-9.8263e-07 3.22615e-07 0)
(-1.19727e-06 3.19697e-07 0)
(-1.40978e-06 3.16234e-07 0)
(-1.6198e-06 3.1223e-07 0)
(-1.82696e-06 3.07686e-07 0)
(-2.0309e-06 3.02608e-07 0)
(-2.23128e-06 2.97004e-07 0)
(-2.42774e-06 2.90882e-07 0)
(-2.61993e-06 2.84252e-07 0)
(-2.80753e-06 2.77125e-07 0)
(-2.99021e-06 2.69512e-07 0)
(-3.16764e-06 2.61428e-07 0)
(-3.33951e-06 2.52885e-07 0)
(-3.50553e-06 2.43899e-07 0)
(-3.66539e-06 2.34486e-07 0)
(-3.81883e-06 2.24661e-07 0)
(-3.96557e-06 2.14442e-07 0)
(-4.10535e-06 2.03848e-07 0)
(-4.23794e-06 1.92896e-07 0)
(-4.36309e-06 1.81605e-07 0)
(-4.48058e-06 1.69996e-07 0)
(-4.59022e-06 1.58089e-07 0)
(-4.69181e-06 1.45904e-07 0)
(-4.78517e-06 1.33463e-07 0)
(-4.87014e-06 1.20789e-07 0)
(-4.94656e-06 1.07902e-07 0)
(-5.01431e-06 9.48263e-08 0)
(-5.07326e-06 8.1584e-08 0)
(-5.12331e-06 6.81986e-08 0)
(-5.16438e-06 5.46938e-08 0)
(-5.19639e-06 4.10929e-08 0)
(-5.21929e-06 2.742e-08 0)
(-5.23303e-06 1.36991e-08 0)
(-5.23759e-06 -4.59951e-11 0)
(-5.23297e-06 -1.37911e-08 0)
(-5.21916e-06 -2.75121e-08 0)
(-5.19621e-06 -4.1185e-08 0)
(-5.16414e-06 -5.47856e-08 0)
(-5.12301e-06 -6.82901e-08 0)
(-5.07289e-06 -8.16748e-08 0)
(-5.01388e-06 -9.49162e-08 0)
(-4.94607e-06 -1.07991e-07 0)
(-4.86959e-06 -1.20877e-07 0)
(-4.78456e-06 -1.3355e-07 0)
(-4.69115e-06 -1.4599e-07 0)
(-4.5895e-06 -1.58173e-07 0)
(-4.47981e-06 -1.70079e-07 0)
(-4.36226e-06 -1.81686e-07 0)
(-4.23705e-06 -1.92975e-07 0)
(-4.10441e-06 -2.03926e-07 0)
(-3.96458e-06 -2.14519e-07 0)
(-3.81779e-06 -2.24735e-07 0)
(-3.6643e-06 -2.34558e-07 0)
(-3.50439e-06 -2.43969e-07 0)
(-3.33833e-06 -2.52952e-07 0)
(-3.16641e-06 -2.61491e-07 0)
(-2.98894e-06 -2.69571e-07 0)
(-2.80623e-06 -2.77179e-07 0)
(-2.61859e-06 -2.84301e-07 0)
(-2.42637e-06 -2.90924e-07 0)
(-2.22988e-06 -2.97037e-07 0)
(-2.02949e-06 -3.02629e-07 0)
(-1.82553e-06 -3.07689e-07 0)
(-1.61837e-06 -3.12211e-07 0)
(-1.40838e-06 -3.16184e-07 0)
(-1.19591e-06 -3.19603e-07 0)
(-9.81345e-07 -3.22461e-07 0)
(-7.65059e-07 -3.24754e-07 0)
(-5.47431e-07 -3.26477e-07 0)
(-3.28843e-07 -3.27627e-07 0)
(-1.09678e-07 -3.28203e-07 0)
(1.0968e-07 -3.28203e-07 0)
(3.28845e-07 -3.27627e-07 0)
(5.47433e-07 -3.26477e-07 0)
(7.65061e-07 -3.24754e-07 0)
(9.81346e-07 -3.22461e-07 0)
(1.19591e-06 -3.19603e-07 0)
(1.40838e-06 -3.16184e-07 0)
(1.61837e-06 -3.12211e-07 0)
(1.82553e-06 -3.07689e-07 0)
(2.02949e-06 -3.02628e-07 0)
(2.22988e-06 -2.97037e-07 0)
(2.42637e-06 -2.90924e-07 0)
(2.6186e-06 -2.84301e-07 0)
(2.80623e-06 -2.77179e-07 0)
(2.98894e-06 -2.69572e-07 0)
(3.16641e-06 -2.61491e-07 0)
(3.33833e-06 -2.52951e-07 0)
(3.50439e-06 -2.43968e-07 0)
(3.66431e-06 -2.34558e-07 0)
(3.81779e-06 -2.24735e-07 0)
(3.96458e-06 -2.14519e-07 0)
(4.10442e-06 -2.03926e-07 0)
(4.23705e-06 -1.92975e-07 0)
(4.36226e-06 -1.81686e-07 0)
(4.47981e-06 -1.70079e-07 0)
(4.58951e-06 -1.58173e-07 0)
(4.69115e-06 -1.4599e-07 0)
(4.78457e-06 -1.3355e-07 0)
(4.86959e-06 -1.20877e-07 0)
(4.94607e-06 -1.07991e-07 0)
(5.01388e-06 -9.49163e-08 0)
(5.07289e-06 -8.16748e-08 0)
(5.12301e-06 -6.82901e-08 0)
(5.16414e-06 -5.47857e-08 0)
(5.19621e-06 -4.11852e-08 0)
(5.21917e-06 -2.75126e-08 0)
(5.23297e-06 -1.37916e-08 0)
(5.23759e-06 -4.64785e-11 0)
(5.23303e-06 1.36988e-08 0)
(5.21929e-06 2.742e-08 0)
(5.19639e-06 4.10929e-08 0)
(5.16438e-06 5.46937e-08 0)
(5.12332e-06 6.81986e-08 0)
(5.07326e-06 8.1584e-08 0)
(5.01431e-06 9.48263e-08 0)
(4.94656e-06 1.07902e-07 0)
(4.87014e-06 1.20789e-07 0)
(4.78517e-06 1.33463e-07 0)
(4.69181e-06 1.45904e-07 0)
(4.59022e-06 1.58088e-07 0)
(4.48059e-06 1.69996e-07 0)
(4.36309e-06 1.81605e-07 0)
(4.23794e-06 1.92895e-07 0)
(4.10535e-06 2.03848e-07 0)
(3.96557e-06 2.14442e-07 0)
(3.81883e-06 2.24661e-07 0)
(3.66539e-06 2.34486e-07 0)
(3.50553e-06 2.43899e-07 0)
(3.33951e-06 2.52885e-07 0)
(3.16764e-06 2.61428e-07 0)
(2.99021e-06 2.69512e-07 0)
(2.80754e-06 2.77125e-07 0)
(2.61994e-06 2.84252e-07 0)
(2.42774e-06 2.90882e-07 0)
(2.23128e-06 2.97004e-07 0)
(2.0309e-06 3.02608e-07 0)
(1.82696e-06 3.07685e-07 0)
(1.6198e-06 3.12229e-07 0)
(1.40978e-06 3.16233e-07 0)
(1.19727e-06 3.19694e-07 0)
(9.82632e-07 3.22611e-07 0)
(7.66224e-07 3.24986e-07 0)
(5.4841e-07 3.26823e-07 0)
(3.29539e-07 3.28135e-07 0)
(1.09941e-07 3.28938e-07 0)
(-1.10377e-07 5.49057e-07 0)
(-3.30848e-07 5.47714e-07 0)
(-5.50597e-07 5.45515e-07 0)
(-7.69282e-07 5.42448e-07 0)
(-9.86552e-07 5.38484e-07 0)
(-1.20205e-06 5.33615e-07 0)
(-1.4154e-06 5.27837e-07 0)
(-1.62625e-06 5.21153e-07 0)
(-1.83424e-06 5.13569e-07 0)
(-2.03899e-06 5.05095e-07 0)
(-2.24017e-06 4.95741e-07 0)
(-2.43741e-06 4.85523e-07 0)
(-2.63037e-06 4.74456e-07 0)
(-2.81872e-06 4.6256e-07 0)
(-3.00212e-06 4.49854e-07 0)
(-3.18026e-06 4.3636e-07 0)
(-3.35281e-06 4.22101e-07 0)
(-3.51949e-06 4.07102e-07 0)
(-3.67999e-06 3.9139e-07 0)
(-3.83404e-06 3.74991e-07 0)
(-3.98137e-06 3.57935e-07 0)
(-4.12171e-06 3.40251e-07 0)
(-4.25482e-06 3.2197e-07 0)
(-4.38047e-06 3.03125e-07 0)
(-4.49843e-06 2.83747e-07 0)
(-4.60851e-06 2.63872e-07 0)
(-4.7105e-06 2.43534e-07 0)
(-4.80423e-06 2.22769e-07 0)
(-4.88954e-06 2.01613e-07 0)
(-4.96627e-06 1.80104e-07 0)
(-5.03428e-06 1.58278e-07 0)
(-5.09347e-06 1.36175e-07 0)
(-5.14372e-06 1.13833e-07 0)
(-5.18496e-06 9.12918e-08 0)
(-5.21709e-06 6.85901e-08 0)
(-5.24008e-06 4.57681e-08 0)
(-5.25388e-06 2.28657e-08 0)
(-5.25846e-06 -7.69029e-11 0)
(-5.25381e-06 -2.30195e-08 0)
(-5.23996e-06 -4.59219e-08 0)
(-5.21691e-06 -6.87438e-08 0)
(-5.18471e-06 -9.1445e-08 0)
(-5.14342e-06 -1.13986e-07 0)
(-5.0931e-06 -1.36327e-07 0)
(-5.03385e-06 -1.58428e-07 0)
(-4.96578e-06 -1.80252e-07 0)
(-4.88899e-06 -2.0176e-07 0)
(-4.80363e-06 -2.22914e-07 0)
(-4.70984e-06 -2.43677e-07 0)
(-4.60779e-06 -2.64013e-07 0)
(-4.49766e-06 -2.83885e-07 0)
(-4.37963e-06 -3.0326e-07 0)
(-4.25393e-06 -3.22103e-07 0)
(-4.12077e-06 -3.40381e-07 0)
(-3.98037e-06 -3.58062e-07 0)
(-3.833e-06 -3.75115e-07 0)
(-3.6789e-06 -3.9151e-07 0)
(-3.51835e-06 -4.07218e-07 0)
(-3.35163e-06 -4.22212e-07 0)
(-3.17903e-06 -4.36465e-07 0)
(-3.00085e-06 -4.49953e-07 0)
(-2.81741e-06 -4.62652e-07 0)
(-2.62903e-06 -4.74539e-07 0)
(-2.43603e-06 -4.85594e-07 0)
(-2.23877e-06 -4.95797e-07 0)
(-2.03757e-06 -5.0513e-07 0)
(-1.8328e-06 -5.13577e-07 0)
(-1.62482e-06 -5.21124e-07 0)
(-1.41399e-06 -5.27756e-07 0)
(-1.20067e-06 -5.33463e-07 0)
(-9.85255e-07 -5.38234e-07 0)
(-7.68107e-07 -5.4206e-07 0)
(-5.49612e-07 -5.44936e-07 0)
(-3.30153e-07 -5.46856e-07 0)
(-1.10115e-07 -5.47817e-07 0)
(1.10116e-07 -5.47818e-07 0)
(3.30155e-07 -5.46857e-07 0)
(5.49614e-07 -5.44937e-07 0)
(7.68109e-07 -5.42061e-07 0)
(9.85256e-07 -5.38234e-07 0)
(1.20068e-06 -5.33463e-07 0)
(1.41399e-06 -5.27756e-07 0)
(1.62482e-06 -5.21124e-07 0)
(1.83281e-06 -5.13577e-07 0)
(2.03757e-06 -5.0513e-07 0)
(2.23877e-06 -4.95796e-07 0)
(2.43603e-06 -4.85594e-07 0)
(2.62903e-06 -4.74539e-07 0)
(2.81741e-06 -4.62652e-07 0)
(3.00085e-06 -4.49953e-07 0)
(3.17903e-06 -4.36465e-07 0)
(3.35163e-06 -4.22212e-07 0)
(3.51835e-06 -4.07218e-07 0)
(3.6789e-06 -3.9151e-07 0)
(3.833e-06 -3.75115e-07 0)
(3.98038e-06 -3.58062e-07 0)
(4.12077e-06 -3.40381e-07 0)
(4.25393e-06 -3.22103e-07 0)
(4.37964e-06 -3.03261e-07 0)
(4.49766e-06 -2.83886e-07 0)
(4.60779e-06 -2.64013e-07 0)
(4.70984e-06 -2.43677e-07 0)
(4.80363e-06 -2.22915e-07 0)
(4.88899e-06 -2.01761e-07 0)
(4.96578e-06 -1.80253e-07 0)
(5.03386e-06 -1.58429e-07 0)
(5.0931e-06 -1.36327e-07 0)
(5.14342e-06 -1.13986e-07 0)
(5.18471e-06 -9.14452e-08 0)
(5.21691e-06 -6.87441e-08 0)
(5.23996e-06 -4.59224e-08 0)
(5.25382e-06 -2.30201e-08 0)
(5.25846e-06 -7.7441e-11 0)
(5.25388e-06 2.28653e-08 0)
(5.24008e-06 4.57677e-08 0)
(5.2171e-06 6.85898e-08 0)
(5.18496e-06 9.12916e-08 0)
(5.14373e-06 1.13833e-07 0)
(5.09347e-06 1.36175e-07 0)
(5.03428e-06 1.58279e-07 0)
(4.96627e-06 1.80104e-07 0)
(4.88954e-06 2.01613e-07 0)
(4.80423e-06 2.22769e-07 0)
(4.7105e-06 2.43534e-07 0)
(4.60851e-06 2.63872e-07 0)
(4.49844e-06 2.83747e-07 0)
(4.38047e-06 3.03124e-07 0)
(4.25482e-06 3.2197e-07 0)
(4.12171e-06 3.40251e-07 0)
(3.98137e-06 3.57935e-07 0)
(3.83404e-06 3.74991e-07 0)
(3.68e-06 3.9139e-07 0)
(3.51949e-06 4.07103e-07 0)
(3.35282e-06 4.22101e-07 0)
(3.18026e-06 4.3636e-07 0)
(3.00212e-06 4.49854e-07 0)
(2.81872e-06 4.6256e-07 0)
(2.63037e-06 4.74456e-07 0)
(2.43741e-06 4.85523e-07 0)
(2.24017e-06 4.95741e-07 0)
(2.039e-06 5.05094e-07 0)
(1.83424e-06 5.13568e-07 0)
(1.62625e-06 5.21152e-07 0)
(1.4154e-06 5.27835e-07 0)
(1.20205e-06 5.33613e-07 0)
(9.86551e-07 5.38483e-07 0)
(7.69281e-07 5.42447e-07 0)
(5.50596e-07 5.45517e-07 0)
(3.30851e-07 5.47711e-07 0)
(1.1038e-07 5.49043e-07 0)
(-1.10992e-07 7.70206e-07 0)
(-3.32691e-07 7.68338e-07 0)
(-5.53666e-07 7.65256e-07 0)
(-7.73574e-07 7.60949e-07 0)
(-9.92058e-07 7.55386e-07 0)
(-1.20876e-06 7.48555e-07 0)
(-1.4233e-06 7.4045e-07 0)
(-1.63533e-06 7.31074e-07 0)
(-1.84447e-06 7.20436e-07 0)
(-2.05037e-06 7.08548e-07 0)
(-2.25267e-06 6.95427e-07 0)
(-2.45101e-06 6.81093e-07 0)
(-2.64505e-06 6.65569e-07 0)
(-2.83445e-06 6.48881e-07 0)
(-3.01887e-06 6.31058e-07 0)
(-3.198e-06 6.12128e-07 0)
(-3.37152e-06 5.92126e-07 0)
(-3.53913e-06 5.71085e-07 0)
(-3.70053e-06 5.49044e-07 0)
(-3.85544e-06 5.2604e-07 0)
(-4.00358e-06 5.02113e-07 0)
(-4.14471e-06 4.77306e-07 0)
(-4.27856e-06 4.51662e-07 0)
(-4.40491e-06 4.25225e-07 0)
(-4.52354e-06 3.98042e-07 0)
(-4.63423e-06 3.70161e-07 0)
(-4.73679e-06 3.41631e-07 0)
(-4.83104e-06 3.12502e-07 0)
(-4.91682e-06 2.82824e-07 0)
(-4.99398e-06 2.52651e-07 0)
(-5.06238e-06 2.22034e-07 0)
(-5.12189e-06 1.91028e-07 0)
(-5.17243e-06 1.59686e-07 0)
(-5.21389e-06 1.28065e-07 0)
(-5.24621e-06 9.62188e-08 0)
(-5.26932e-06 6.42038e-08 0)
(-5.2832e-06 3.20761e-08 0)
(-5.2878e-06 -1.08067e-10 0)
(-5.28313e-06 -3.22922e-08 0)
(-5.2692e-06 -6.44197e-08 0)
(-5.24602e-06 -9.64341e-08 0)
(-5.21364e-06 -1.28279e-07 0)
(-5.17212e-06 -1.599e-07 0)
(-5.12152e-06 -1.9124e-07 0)
(-5.06195e-06 -2.22244e-07 0)
(-4.99349e-06 -2.52859e-07 0)
(-4.91627e-06 -2.8303e-07 0)
(-4.83043e-06 -3.12705e-07 0)
(-4.73612e-06 -3.41832e-07 0)
(-4.6335e-06 -3.70359e-07 0)
(-4.52276e-06 -3.98236e-07 0)
(-4.40408e-06 -4.25415e-07 0)
(-4.27767e-06 -4.51848e-07 0)
(-4.14376e-06 -4.77489e-07 0)
(-4.00259e-06 -5.02292e-07 0)
(-3.85439e-06 -5.26213e-07 0)
(-3.69943e-06 -5.49212e-07 0)
(-3.53799e-06 -5.71248e-07 0)
(-3.37033e-06 -5.92281e-07 0)
(-3.19677e-06 -6.12276e-07 0)
(-3.0176e-06 -6.31197e-07 0)
(-2.83313e-06 -6.49011e-07 0)
(-2.6437e-06 -6.65686e-07 0)
(-2.44963e-06 -6.81194e-07 0)
(-2.25126e-06 -6.95506e-07 0)
(-2.04894e-06 -7.08599e-07 0)
(-1.84303e-06 -7.20449e-07 0)
(-1.63389e-06 -7.31035e-07 0)
(-1.42188e-06 -7.40339e-07 0)
(-1.20737e-06 -7.48345e-07 0)
(-9.90753e-07 -7.55037e-07 0)
(-7.72394e-07 -7.60405e-07 0)
(-5.5268e-07 -7.6444e-07 0)
(-3.31996e-07 -7.67133e-07 0)
(-1.1073e-07 -7.68482e-07 0)
(1.10731e-07 -7.68482e-07 0)
(3.31997e-07 -7.67134e-07 0)
(5.52681e-07 -7.6444e-07 0)
(7.72395e-07 -7.60406e-07 0)
(9.90755e-07 -7.55037e-07 0)
(1.20738e-06 -7.48345e-07 0)
(1.42188e-06 -7.40339e-07 0)
(1.63389e-06 -7.31035e-07 0)
(1.84303e-06 -7.20449e-07 0)
(2.04894e-06 -7.08599e-07 0)
(2.25126e-06 -6.95506e-07 0)
(2.44963e-06 -6.81193e-07 0)
(2.6437e-06 -6.65686e-07 0)
(2.83313e-06 -6.49011e-07 0)
(3.0176e-06 -6.31197e-07 0)
(3.19677e-06 -6.12276e-07 0)
(3.37034e-06 -5.92281e-07 0)
(3.53799e-06 -5.71248e-07 0)
(3.69943e-06 -5.49212e-07 0)
(3.85439e-06 -5.26213e-07 0)
(4.00259e-06 -5.02292e-07 0)
(4.14377e-06 -4.77489e-07 0)
(4.27767e-06 -4.51849e-07 0)
(4.40408e-06 -4.25416e-07 0)
(4.52276e-06 -3.98237e-07 0)
(4.6335e-06 -3.70359e-07 0)
(4.73612e-06 -3.41832e-07 0)
(4.83044e-06 -3.12706e-07 0)
(4.91627e-06 -2.83031e-07 0)
(4.99349e-06 -2.52859e-07 0)
(5.06195e-06 -2.22245e-07 0)
(5.12153e-06 -1.9124e-07 0)
(5.17212e-06 -1.599e-07 0)
(5.21365e-06 -1.2828e-07 0)
(5.24602e-06 -9.64345e-08 0)
(5.2692e-06 -6.442e-08 0)
(5.28314e-06 -3.22925e-08 0)
(5.2878e-06 -1.08519e-10 0)
(5.2832e-06 3.20755e-08 0)
(5.26932e-06 6.42032e-08 0)
(5.24621e-06 9.62183e-08 0)
(5.21389e-06 1.28065e-07 0)
(5.17243e-06 1.59686e-07 0)
(5.1219e-06 1.91028e-07 0)
(5.06238e-06 2.22034e-07 0)
(4.99398e-06 2.52651e-07 0)
(4.91682e-06 2.82824e-07 0)
(4.83104e-06 3.12502e-07 0)
(4.73679e-06 3.41631e-07 0)
(4.63423e-06 3.70161e-07 0)
(4.52354e-06 3.98042e-07 0)
(4.40491e-06 4.25224e-07 0)
(4.27856e-06 4.51661e-07 0)
(4.14471e-06 4.77306e-07 0)
(4.00359e-06 5.02113e-07 0)
(3.85544e-06 5.2604e-07 0)
(3.70053e-06 5.49044e-07 0)
(3.53913e-06 5.71086e-07 0)
(3.37153e-06 5.92126e-07 0)
(3.19801e-06 6.12128e-07 0)
(3.01888e-06 6.31057e-07 0)
(2.83445e-06 6.48881e-07 0)
(2.64505e-06 6.65569e-07 0)
(2.45101e-06 6.81093e-07 0)
(2.25267e-06 6.95427e-07 0)
(2.05038e-06 7.08547e-07 0)
(1.84448e-06 7.20435e-07 0)
(1.63533e-06 7.31073e-07 0)
(1.4233e-06 7.40449e-07 0)
(1.20876e-06 7.48554e-07 0)
(9.92057e-07 7.55386e-07 0)
(7.73573e-07 7.6095e-07 0)
(5.53666e-07 7.65258e-07 0)
(3.32694e-07 7.68338e-07 0)
(1.10994e-07 7.70201e-07 0)
(-1.11791e-07 9.92773e-07 0)
(-3.35084e-07 9.90374e-07 0)
(-5.57649e-07 9.86403e-07 0)
(-7.79142e-07 9.80848e-07 0)
(-9.99201e-07 9.73675e-07 0)
(-1.21746e-06 9.64869e-07 0)
(-1.43355e-06 9.54421e-07 0)
(-1.64711e-06 9.42335e-07 0)
(-1.85776e-06 9.28623e-07 0)
(-2.06514e-06 9.133e-07 0)
(-2.2689e-06 8.96388e-07 0)
(-2.46866e-06 8.77912e-07 0)
(-2.6641e-06 8.57903e-07 0)
(-2.85486e-06 8.36393e-07 0)
(-3.04062e-06 8.13418e-07 0)
(-3.22104e-06 7.89018e-07 0)
(-3.39581e-06 7.63236e-07 0)
(-3.56462e-06 7.36116e-07 0)
(-3.72718e-06 7.07705e-07 0)
(-3.88321e-06 6.78053e-07 0)
(-4.03242e-06 6.47212e-07 0)
(-4.17456e-06 6.15236e-07 0)
(-4.30938e-06 5.82181e-07 0)
(-4.43664e-06 5.48105e-07 0)
(-4.55612e-06 5.13067e-07 0)
(-4.6676e-06 4.77129e-07 0)
(-4.7709e-06 4.40355e-07 0)
(-4.86584e-06 4.02808e-07 0)
(-4.95223e-06 3.64554e-07 0)
(-5.02995e-06 3.25661e-07 0)
(-5.09884e-06 2.86197e-07 0)
(-5.15878e-06 2.46231e-07 0)
(-5.20968e-06 2.05832e-07 0)
(-5.25144e-06 1.65073e-07 0)
(-5.28399e-06 1.24024e-07 0)
(-5.30727e-06 8.27571e-08 0)
(-5.32125e-06 4.13452e-08 0)
(-5.32589e-06 -1.39479e-10 0)
(-5.32118e-06 -4.1624e-08 0)
(-5.30715e-06 -8.30354e-08 0)
(-5.28381e-06 -1.24301e-07 0)
(-5.25119e-06 -1.65349e-07 0)
(-5.20937e-06 -2.06107e-07 0)
(-5.15841e-06 -2.46503e-07 0)
(-5.0984e-06 -2.86468e-07 0)
(-5.02945e-06 -3.25929e-07 0)
(-4.95168e-06 -3.6482e-07 0)
(-4.86522e-06 -4.0307e-07 0)
(-4.77023e-06 -4.40613e-07 0)
(-4.66687e-06 -4.77384e-07 0)
(-4.55533e-06 -5.13318e-07 0)
(-4.4358e-06 -5.48351e-07 0)
(-4.30848e-06 -5.82422e-07 0)
(-4.17361e-06 -6.15472e-07 0)
(-4.03142e-06 -6.47442e-07 0)
(-3.88215e-06 -6.78277e-07 0)
(-3.72608e-06 -7.07922e-07 0)
(-3.56347e-06 -7.36325e-07 0)
(-3.39461e-06 -7.63437e-07 0)
(-3.21979e-06 -7.8921e-07 0)
(-3.03933e-06 -8.13598e-07 0)
(-2.85354e-06 -8.3656e-07 0)
(-2.66274e-06 -8.58054e-07 0)
(-2.46727e-06 -8.78043e-07 0)
(-2.26747e-06 -8.96491e-07 0)
(-2.0637e-06 -9.13368e-07 0)
(-1.85631e-06 -9.28642e-07 0)
(-1.64566e-06 -9.42288e-07 0)
(-1.43212e-06 -9.5428e-07 0)
(-1.21607e-06 -9.64599e-07 0)
(-9.97889e-07 -9.73226e-07 0)
(-7.77957e-07 -9.80145e-07 0)
(-5.5666e-07 -9.85345e-07 0)
(-3.34387e-07 -9.88817e-07 0)
(-1.11527e-07 -9.90555e-07 0)
(1.11528e-07 -9.90555e-07 0)
(3.34388e-07 -9.88817e-07 0)
(5.56662e-07 -9.85345e-07 0)
(7.77958e-07 -9.80145e-07 0)
(9.97891e-07 -9.73225e-07 0)
(1.21607e-06 -9.64599e-07 0)
(1.43212e-06 -9.5428e-07 0)
(1.64566e-06 -9.42287e-07 0)
(1.85631e-06 -9.28642e-07 0)
(2.0637e-06 -9.13368e-07 0)
(2.26748e-06 -8.96492e-07 0)
(2.46727e-06 -8.78043e-07 0)
(2.66274e-06 -8.58054e-07 0)
(2.85354e-06 -8.3656e-07 0)
(3.03933e-06 -8.13598e-07 0)
(3.2198e-06 -7.8921e-07 0)
(3.39461e-06 -7.63437e-07 0)
(3.56347e-06 -7.36325e-07 0)
(3.72608e-06 -7.07922e-07 0)
(3.88215e-06 -6.78277e-07 0)
(4.03142e-06 -6.47442e-07 0)
(4.17361e-06 -6.15472e-07 0)
(4.30848e-06 -5.82422e-07 0)
(4.4358e-06 -5.48351e-07 0)
(4.55533e-06 -5.13318e-07 0)
(4.66688e-06 -4.77385e-07 0)
(4.77023e-06 -4.40614e-07 0)
(4.86523e-06 -4.0307e-07 0)
(4.95168e-06 -3.6482e-07 0)
(5.02946e-06 -3.2593e-07 0)
(5.09841e-06 -2.86468e-07 0)
(5.15841e-06 -2.46504e-07 0)
(5.20937e-06 -2.06107e-07 0)
(5.2512e-06 -1.65349e-07 0)
(5.28381e-06 -1.24301e-07 0)
(5.30715e-06 -8.30356e-08 0)
(5.32119e-06 -4.16241e-08 0)
(5.32589e-06 -1.39769e-10 0)
(5.32125e-06 4.13447e-08 0)
(5.30728e-06 8.27566e-08 0)
(5.28399e-06 1.24023e-07 0)
(5.25144e-06 1.65072e-07 0)
(5.20968e-06 2.05832e-07 0)
(5.15878e-06 2.4623e-07 0)
(5.09884e-06 2.86197e-07 0)
(5.02995e-06 3.25661e-07 0)
(4.95224e-06 3.64554e-07 0)
(4.86584e-06 4.02808e-07 0)
(4.7709e-06 4.40355e-07 0)
(4.6676e-06 4.77129e-07 0)
(4.55612e-06 5.13067e-07 0)
(4.43664e-06 5.48105e-07 0)
(4.30938e-06 5.82181e-07 0)
(4.17456e-06 6.15236e-07 0)
(4.03242e-06 6.47212e-07 0)
(3.88321e-06 6.78053e-07 0)
(3.72718e-06 7.07705e-07 0)
(3.56462e-06 7.36116e-07 0)
(3.39581e-06 7.63236e-07 0)
(3.22104e-06 7.89018e-07 0)
(3.04062e-06 8.13418e-07 0)
(2.85486e-06 8.36392e-07 0)
(2.6641e-06 8.57903e-07 0)
(2.46867e-06 8.77912e-07 0)
(2.2689e-06 8.96388e-07 0)
(2.06514e-06 9.133e-07 0)
(1.85776e-06 9.28623e-07 0)
(1.64711e-06 9.42335e-07 0)
(1.43355e-06 9.54421e-07 0)
(1.21746e-06 9.64869e-07 0)
(9.99201e-07 9.73676e-07 0)
(7.79142e-07 9.80849e-07 0)
(5.57651e-07 9.86404e-07 0)
(3.35088e-07 9.90373e-07 0)
(1.11793e-07 9.92768e-07 0)
(-1.12778e-07 1.21712e-06 0)
(-3.38043e-07 1.21419e-06 0)
(-5.62572e-07 1.20932e-06 0)
(-7.86021e-07 1.20251e-06 0)
(-1.00802e-06 1.19372e-06 0)
(-1.22821e-06 1.18292e-06 0)
(-1.44621e-06 1.17011e-06 0)
(-1.66166e-06 1.15529e-06 0)
(-1.87417e-06 1.13848e-06 0)
(-2.08338e-06 1.11969e-06 0)
(-2.28893e-06 1.09896e-06 0)
(-2.49047e-06 1.07631e-06 0)
(-2.68763e-06 1.05178e-06 0)
(-2.88008e-06 1.02541e-06 0)
(-3.06747e-06 9.9724e-07 0)
(-3.24949e-06 9.67326e-07 0)
(-3.4258e-06 9.35718e-07 0)
(-3.5961e-06 9.02469e-07 0)
(-3.7601e-06 8.67638e-07 0)
(-3.9175e-06 8.31285e-07 0)
(-4.06803e-06 7.93474e-07 0)
(-4.21143e-06 7.54272e-07 0)
(-4.34744e-06 7.13747e-07 0)
(-4.47582e-06 6.71969e-07 0)
(-4.59636e-06 6.29014e-07 0)
(-4.70883e-06 5.84954e-07 0)
(-4.81304e-06 5.39869e-07 0)
(-4.90881e-06 4.93838e-07 0)
(-4.99597e-06 4.46939e-07 0)
(-5.07437e-06 3.99257e-07 0)
(-5.14387e-06 3.50874e-07 0)
(-5.20435e-06 3.01876e-07 0)
(-5.25569e-06 2.52348e-07 0)
(-5.29782e-06 2.02377e-07 0)
(-5.33066e-06 1.52052e-07 0)
(-5.35415e-06 1.01459e-07 0)
(-5.36825e-06 5.06886e-08 0)
(-5.37293e-06 -1.71004e-10 0)
(-5.36818e-06 -5.10303e-08 0)
(-5.35402e-06 -1.018e-07 0)
(-5.33047e-06 -1.52391e-07 0)
(-5.29757e-06 -2.02716e-07 0)
(-5.25538e-06 -2.52684e-07 0)
(-5.20397e-06 -3.0221e-07 0)
(-5.14344e-06 -3.51205e-07 0)
(-5.07388e-06 -3.99585e-07 0)
(-4.99542e-06 -4.47264e-07 0)
(-4.9082e-06 -4.94159e-07 0)
(-4.81237e-06 -5.40186e-07 0)
(-4.70809e-06 -5.85267e-07 0)
(-4.59557e-06 -6.29321e-07 0)
(-4.47498e-06 -6.72271e-07 0)
(-4.34654e-06 -7.14042e-07 0)
(-4.21047e-06 -7.54561e-07 0)
(-4.06702e-06 -7.93756e-07 0)
(-3.91644e-06 -8.31559e-07 0)
(-3.75899e-06 -8.67903e-07 0)
(-3.59494e-06 -9.02725e-07 0)
(-3.42459e-06 -9.35964e-07 0)
(-3.24823e-06 -9.67561e-07 0)
(-3.06618e-06 -9.97461e-07 0)
(-2.87874e-06 -1.02561e-06 0)
(-2.68626e-06 -1.05196e-06 0)
(-2.48906e-06 -1.07647e-06 0)
(-2.2875e-06 -1.09909e-06 0)
(-2.08193e-06 -1.11978e-06 0)
(-1.8727e-06 -1.1385e-06 0)
(-1.66019e-06 -1.15523e-06 0)
(-1.44477e-06 -1.16994e-06 0)
(-1.22681e-06 -1.18259e-06 0)
(-1.0067e-06 -1.19316e-06 0)
(-7.84829e-07 -1.20165e-06 0)
(-5.61577e-07 -1.20802e-06 0)
(-3.37341e-07 -1.21228e-06 0)
(-1.12512e-07 -1.21441e-06 0)
(1.12514e-07 -1.21441e-06 0)
(3.37342e-07 -1.21228e-06 0)
(5.61578e-07 -1.20802e-06 0)
(7.8483e-07 -1.20165e-06 0)
(1.0067e-06 -1.19316e-06 0)
(1.22681e-06 -1.18259e-06 0)
(1.44477e-06 -1.16994e-06 0)
(1.66019e-06 -1.15523e-06 0)
(1.8727e-06 -1.1385e-06 0)
(2.08193e-06 -1.11978e-06 0)
(2.2875e-06 -1.09909e-06 0)
(2.48907e-06 -1.07647e-06 0)
(2.68626e-06 -1.05196e-06 0)
(2.87874e-06 -1.02561e-06 0)
(3.06618e-06 -9.97461e-07 0)
(3.24824e-06 -9.67561e-07 0)
(3.42459e-06 -9.35964e-07 0)
(3.59495e-06 -9.02726e-07 0)
(3.75899e-06 -8.67903e-07 0)
(3.91644e-06 -8.31559e-07 0)
(4.06703e-06 -7.93756e-07 0)
(4.21047e-06 -7.54561e-07 0)
(4.34654e-06 -7.14042e-07 0)
(4.47498e-06 -6.72271e-07 0)
(4.59557e-06 -6.29321e-07 0)
(4.7081e-06 -5.85267e-07 0)
(4.81237e-06 -5.40187e-07 0)
(4.9082e-06 -4.94159e-07 0)
(4.99542e-06 -4.47265e-07 0)
(5.07388e-06 -3.99586e-07 0)
(5.14344e-06 -3.51206e-07 0)
(5.20397e-06 -3.0221e-07 0)
(5.25538e-06 -2.52685e-07 0)
(5.29758e-06 -2.02716e-07 0)
(5.33048e-06 -1.52392e-07 0)
(5.35403e-06 -1.018e-07 0)
(5.36818e-06 -5.10304e-08 0)
(5.37293e-06 -1.71192e-10 0)
(5.36825e-06 5.06882e-08 0)
(5.35415e-06 1.01459e-07 0)
(5.33066e-06 1.52051e-07 0)
(5.29783e-06 2.02377e-07 0)
(5.2557e-06 2.52347e-07 0)
(5.20435e-06 3.01875e-07 0)
(5.14387e-06 3.50873e-07 0)
(5.07437e-06 3.99256e-07 0)
(4.99597e-06 4.46939e-07 0)
(4.90881e-06 4.93837e-07 0)
(4.81304e-06 5.39869e-07 0)
(4.70883e-06 5.84954e-07 0)
(4.59636e-06 6.29014e-07 0)
(4.47582e-06 6.71969e-07 0)
(4.34744e-06 7.13747e-07 0)
(4.21143e-06 7.54272e-07 0)
(4.06803e-06 7.93474e-07 0)
(3.9175e-06 8.31285e-07 0)
(3.7601e-06 8.67637e-07 0)
(3.5961e-06 9.02469e-07 0)
(3.4258e-06 9.35718e-07 0)
(3.24949e-06 9.67326e-07 0)
(3.06747e-06 9.9724e-07 0)
(2.88008e-06 1.02541e-06 0)
(2.68763e-06 1.05178e-06 0)
(2.49047e-06 1.07631e-06 0)
(2.28894e-06 1.09896e-06 0)
(2.08338e-06 1.11969e-06 0)
(1.87417e-06 1.13848e-06 0)
(1.66166e-06 1.15529e-06 0)
(1.44621e-06 1.17011e-06 0)
(1.22821e-06 1.18292e-06 0)
(1.00802e-06 1.19372e-06 0)
(7.86022e-07 1.20251e-06 0)
(5.62574e-07 1.20932e-06 0)
(3.38046e-07 1.21419e-06 0)
(1.1278e-07 1.21712e-06 0)
(-1.13958e-07 1.44363e-06 0)
(-3.41578e-07 1.44016e-06 0)
(-5.68454e-07 1.43439e-06 0)
(-7.94238e-07 1.42631e-06 0)
(-1.01856e-06 1.41588e-06 0)
(-1.24105e-06 1.40307e-06 0)
(-1.46134e-06 1.38787e-06 0)
(-1.67903e-06 1.3703e-06 0)
(-1.89376e-06 1.35036e-06 0)
(-2.10517e-06 1.32808e-06 0)
(-2.31287e-06 1.30348e-06 0)
(-2.51651e-06 1.27662e-06 0)
(-2.71574e-06 1.24752e-06 0)
(-2.91019e-06 1.21624e-06 0)
(-3.09955e-06 1.18283e-06 0)
(-3.28347e-06 1.14735e-06 0)
(-3.46162e-06 1.10986e-06 0)
(-3.63371e-06 1.07043e-06 0)
(-3.79942e-06 1.02911e-06 0)
(-3.95847e-06 9.85994e-07 0)
(-4.11057e-06 9.41146e-07 0)
(-4.25547e-06 8.94648e-07 0)
(-4.3929e-06 8.46581e-07 0)
(-4.52263e-06 7.97029e-07 0)
(-4.64442e-06 7.46078e-07 0)
(-4.75807e-06 6.9382e-07 0)
(-4.86337e-06 6.40344e-07 0)
(-4.96014e-06 5.85745e-07 0)
(-5.04822e-06 5.30119e-07 0)
(-5.12744e-06 4.73562e-07 0)
(-5.19766e-06 4.16175e-07 0)
(-5.25877e-06 3.58058e-07 0)
(-5.31066e-06 2.99312e-07 0)
(-5.35323e-06 2.40042e-07 0)
(-5.38641e-06 1.8035e-07 0)
(-5.41014e-06 1.20342e-07 0)
(-5.42438e-06 6.01224e-08 0)
(-5.42911e-06 -2.025e-10 0)
(-5.42432e-06 -6.0527e-08 0)
(-5.41001e-06 -1.20746e-07 0)
(-5.38622e-06 -1.80752e-07 0)
(-5.35297e-06 -2.40442e-07 0)
(-5.31034e-06 -2.99711e-07 0)
(-5.25839e-06 -3.58453e-07 0)
(-5.19722e-06 -4.16568e-07 0)
(-5.12694e-06 -4.73951e-07 0)
(-5.04766e-06 -5.30504e-07 0)
(-4.95952e-06 -5.86126e-07 0)
(-4.86269e-06 -6.4072e-07 0)
(-4.75733e-06 -6.9419e-07 0)
(-4.64362e-06 -7.46443e-07 0)
(-4.52177e-06 -7.97386e-07 0)
(-4.39199e-06 -8.46931e-07 0)
(-4.2545e-06 -8.94991e-07 0)
(-4.10956e-06 -9.4148e-07 0)
(-3.9574e-06 -9.86319e-07 0)
(-3.7983e-06 -1.02943e-06 0)
(-3.63254e-06 -1.07073e-06 0)
(-3.46041e-06 -1.11016e-06 0)
(-3.2822e-06 -1.14763e-06 0)
(-3.09824e-06 -1.1831e-06 0)
(-2.90885e-06 -1.21649e-06 0)
(-2.71435e-06 -1.24774e-06 0)
(-2.51509e-06 -1.27681e-06 0)
(-2.31143e-06 -1.30364e-06 0)
(-2.1037e-06 -1.32818e-06 0)
(-1.89229e-06 -1.35039e-06 0)
(-1.67755e-06 -1.37023e-06 0)
(-1.45988e-06 -1.38767e-06 0)
(-1.23964e-06 -1.40268e-06 0)
(-1.01723e-06 -1.41522e-06 0)
(-7.93036e-07 -1.42528e-06 0)
(-5.6745e-07 -1.43284e-06 0)
(-3.40868e-07 -1.43789e-06 0)
(-1.13689e-07 -1.44042e-06 0)
(1.1369e-07 -1.44042e-06 0)
(3.4087e-07 -1.43789e-06 0)
(5.67451e-07 -1.43284e-06 0)
(7.93038e-07 -1.42528e-06 0)
(1.01723e-06 -1.41522e-06 0)
(1.23964e-06 -1.40268e-06 0)
(1.45988e-06 -1.38767e-06 0)
(1.67756e-06 -1.37023e-06 0)
(1.89229e-06 -1.35039e-06 0)
(2.1037e-06 -1.32818e-06 0)
(2.31143e-06 -1.30364e-06 0)
(2.5151e-06 -1.27681e-06 0)
(2.71435e-06 -1.24774e-06 0)
(2.90885e-06 -1.21649e-06 0)
(3.09824e-06 -1.1831e-06 0)
(3.2822e-06 -1.14763e-06 0)
(3.46041e-06 -1.11016e-06 0)
(3.63254e-06 -1.07073e-06 0)
(3.7983e-06 -1.02943e-06 0)
(3.9574e-06 -9.86319e-07 0)
(4.10956e-06 -9.41481e-07 0)
(4.25451e-06 -8.94991e-07 0)
(4.39199e-06 -8.46932e-07 0)
(4.52178e-06 -7.97387e-07 0)
(4.64363e-06 -7.46443e-07 0)
(4.75733e-06 -6.9419e-07 0)
(4.86269e-06 -6.4072e-07 0)
(4.95953e-06 -5.86126e-07 0)
(5.04766e-06 -5.30504e-07 0)
(5.12694e-06 -4.73952e-07 0)
(5.19722e-06 -4.16568e-07 0)
(5.2584e-06 -3.58454e-07 0)
(5.31034e-06 -2.99711e-07 0)
(5.35298e-06 -2.40443e-07 0)