/*--------------------------------*- C++ -*----------------------------------*\
| =========                 |                                                 |
| \\      /  F ield         | OpenFOAM: The Open Source CFD Toolbox           |
|  \\    /   O peration     | Version:  2106                                  |
|   \\  /    A nd           | Website:  www.openfoam.com                      |
|    \\/     M anipulation  |                                                 |
\*---------------------------------------------------------------------------*/
FoamFile
{
    version     2.0;
    format      ascii;
    arch        "LSB;label=32;scalar=64";
    class       volVectorField;
    location    "1";
    object      U_0;
}
// * * * * * * * * * * * * * * * * * * * * * * * * * * * * * * * * * * * * * //

dimensions      [0 1 -1 0 0 0 0];

internalField   nonuniform List<vector> 
90000
(
(-1.09634e-07 1.09535e-07 0)
(-3.28633e-07 1.09262e-07 0)
(-5.46933e-07 1.0882e-07 0)
(-7.64179e-07 1.08208e-07 0)
(-9.80016e-07 1.07418e-07 0)
(-1.19409e-06 1.06446e-07 0)
(-1.40604e-06 1.05293e-07 0)
(-1.6155e-06 1.03959e-07 0)
(-1.82212e-06 1.02446e-07 0)
(-2.02552e-06 1.00756e-07 0)
(-2.22537e-06 9.88896e-08 0)
(-2.42131e-06 9.6851e-08 0)
(-2.613e-06 9.46436e-08 0)
(-2.8001e-06 9.22703e-08 0)
(-2.98229e-06 8.97357e-08 0)
(-3.15925e-06 8.70441e-08 0)
(-3.33067e-06 8.41996e-08 0)
(-3.49625e-06 8.12078e-08 0)
(-3.65569e-06 7.80735e-08 0)
(-3.80872e-06 7.48023e-08 0)
(-3.95507e-06 7.13999e-08 0)
(-4.09449e-06 6.78723e-08 0)
(-4.22672e-06 6.42258e-08 0)
(-4.35154e-06 6.04665e-08 0)
(-4.46872e-06 5.66011e-08 0)
(-4.57807e-06 5.26366e-08 0)
(-4.67939e-06 4.85796e-08 0)
(-4.7725e-06 4.44373e-08 0)
(-4.85724e-06 4.02173e-08 0)
(-4.93347e-06 3.59266e-08 0)
(-5.00103e-06 3.15729e-08 0)
(-5.05983e-06 2.71638e-08 0)
(-5.10975e-06 2.2707e-08 0)
(-5.15071e-06 1.82106e-08 0)
(-5.18264e-06 1.36822e-08 0)
(-5.20547e-06 9.12951e-09 0)
(-5.21918e-06 4.56106e-09 0)
(-5.22373e-06 -1.53776e-11 0)
(-5.21912e-06 -4.59193e-09 0)
(-5.20535e-06 -9.16035e-09 0)
(-5.18245e-06 -1.37128e-08 0)
(-5.15047e-06 -1.82412e-08 0)
(-5.10945e-06 -2.27375e-08 0)
(-5.05946e-06 -2.7194e-08 0)
(-5.00061e-06 -3.1603e-08 0)
(-4.93298e-06 -3.59563e-08 0)
(-4.8567e-06 -4.02466e-08 0)
(-4.7719e-06 -4.44663e-08 0)
(-4.67873e-06 -4.86081e-08 0)
(-4.57735e-06 -5.26646e-08 0)
(-4.46795e-06 -5.66287e-08 0)
(-4.35071e-06 -6.04935e-08 0)
(-4.22583e-06 -6.42521e-08 0)
(-4.09355e-06 -6.78982e-08 0)
(-3.95408e-06 -7.14252e-08 0)
(-3.80768e-06 -7.48269e-08 0)
(-3.6546e-06 -7.80973e-08 0)
(-3.49511e-06 -8.12308e-08 0)
(-3.32949e-06 -8.42218e-08 0)
(-3.15803e-06 -8.70649e-08 0)
(-2.98103e-06 -8.97554e-08 0)
(-2.7988e-06 -9.22886e-08 0)
(-2.61166e-06 -9.46597e-08 0)
(-2.41994e-06 -9.68649e-08 0)
(-2.22398e-06 -9.89002e-08 0)
(-2.02411e-06 -1.00762e-07 0)
(-1.8207e-06 -1.02447e-07 0)
(-1.61409e-06 -1.03952e-07 0)
(-1.40465e-06 -1.05275e-07 0)
(-1.19274e-06 -1.06414e-07 0)
(-9.78746e-07 -1.07365e-07 0)
(-7.63033e-07 -1.08129e-07 0)
(-5.45981e-07 -1.08702e-07 0)
(-3.27972e-07 -1.09085e-07 0)
(-1.09387e-07 -1.09277e-07 0)
(1.0939e-07 -1.09277e-07 0)
(3.27974e-07 -1.09085e-07 0)
(5.45984e-07 -1.08702e-07 0)
(7.63036e-07 -1.08129e-07 0)
(9.78749e-07 -1.07365e-07 0)
(1.19275e-06 -1.06414e-07 0)
(1.40465e-06 -1.05275e-07 0)
(1.61409e-06 -1.03952e-07 0)
(1.8207e-06 -1.02447e-07 0)
(2.02412e-06 -1.00762e-07 0)
(2.22398e-06 -9.89001e-08 0)
(2.41995e-06 -9.68648e-08 0)
(2.61167e-06 -9.46597e-08 0)
(2.7988e-06 -9.22885e-08 0)
(2.98103e-06 -8.97554e-08 0)
(3.15803e-06 -8.70649e-08 0)
(3.32949e-06 -8.42217e-08 0)
(3.49511e-06 -8.12308e-08 0)
(3.65461e-06 -7.80973e-08 0)
(3.80769e-06 -7.48269e-08 0)
(3.95409e-06 -7.14253e-08 0)
(4.09355e-06 -6.78983e-08 0)
(4.22584e-06 -6.42523e-08 0)
(4.35071e-06 -6.04936e-08 0)
(4.46795e-06 -5.66288e-08 0)
(4.57736e-06 -5.26646e-08 0)
(4.67873e-06 -4.86081e-08 0)
(4.7719e-06 -4.44663e-08 0)
(4.8567e-06 -4.02466e-08 0)
(4.93298e-06 -3.59563e-08 0)
(5.00061e-06 -3.16029e-08 0)
(5.05946e-06 -2.7194e-08 0)
(5.10945e-06 -2.27375e-08 0)
(5.15047e-06 -1.82411e-08 0)
(5.18245e-06 -1.37127e-08 0)
(5.20535e-06 -9.16033e-09 0)
(5.21912e-06 -4.59189e-09 0)
(5.22373e-06 -1.53832e-11 0)
(5.21918e-06 4.5612e-09 0)
(5.20547e-06 9.12977e-09 0)
(5.18264e-06 1.36823e-08 0)
(5.15071e-06 1.82107e-08 0)
(5.10975e-06 2.27072e-08 0)
(5.05983e-06 2.71639e-08 0)
(5.00104e-06 3.15731e-08 0)
(4.93347e-06 3.59268e-08 0)
(4.85725e-06 4.02174e-08 0)
(4.77251e-06 4.44374e-08 0)
(4.67939e-06 4.85796e-08 0)
(4.57808e-06 5.26365e-08 0)
(4.46873e-06 5.66011e-08 0)
(4.35154e-06 6.04664e-08 0)
(4.22672e-06 6.42257e-08 0)
(4.09449e-06 6.78723e-08 0)
(3.95507e-06 7.13999e-08 0)
(3.80872e-06 7.48023e-08 0)
(3.65569e-06 7.80735e-08 0)
(3.49625e-06 8.12078e-08 0)
(3.33067e-06 8.41998e-08 0)
(3.15925e-06 8.70441e-08 0)
(2.9823e-06 8.97358e-08 0)
(2.8001e-06 9.22704e-08 0)
(2.613e-06 9.46435e-08 0)
(2.42131e-06 9.68511e-08 0)
(2.22537e-06 9.88894e-08 0)
(2.02552e-06 1.00755e-07 0)
(1.82212e-06 1.02446e-07 0)
(1.6155e-06 1.03959e-07 0)
(1.40604e-06 1.05292e-07 0)
(1.19409e-06 1.06445e-07 0)
(9.80019e-07 1.07416e-07 0)
(7.64182e-07 1.08207e-07 0)
(5.46944e-07 1.08818e-07 0)
(3.28653e-07 1.09256e-07 0)
(1.09642e-07 1.09526e-07 0)
(-1.09907e-07 3.28874e-07 0)
(-3.29445e-07 3.2806e-07 0)
(-5.48268e-07 3.2674e-07 0)
(-7.66029e-07 3.24905e-07 0)
(-9.82379e-07 3.22531e-07 0)
(-1.19696e-06 3.19614e-07 0)
(-1.40942e-06 3.16153e-07 0)
(-1.61938e-06 3.12149e-07 0)
(-1.82649e-06 3.07607e-07 0)
(-2.03038e-06 3.0253e-07 0)
(-2.2307e-06 2.96928e-07 0)
(-2.42711e-06 2.90807e-07 0)
(-2.61926e-06 2.84179e-07 0)
(-2.80681e-06 2.77053e-07 0)
(-2.98944e-06 2.69443e-07 0)
(-3.16682e-06 2.61361e-07 0)
(-3.33865e-06 2.5282e-07 0)
(-3.50462e-06 2.43837e-07 0)
(-3.66445e-06 2.34426e-07 0)
(-3.81785e-06 2.24603e-07 0)
(-3.96455e-06 2.14387e-07 0)
(-4.1043e-06 2.03795e-07 0)
(-4.23684e-06 1.92846e-07 0)
(-4.36196e-06 1.81558e-07 0)
(-4.47943e-06 1.69952e-07 0)
(-4.58904e-06 1.58048e-07 0)
(-4.6906e-06 1.45866e-07 0)
(-4.78394e-06 1.33429e-07 0)
(-4.86888e-06 1.20757e-07 0)
(-4.94529e-06 1.07874e-07 0)
(-5.01302e-06 9.48017e-08 0)
(-5.07195e-06 8.15628e-08 0)
(-5.12199e-06 6.81809e-08 0)
(-5.16305e-06 5.46797e-08 0)
(-5.19505e-06 4.10823e-08 0)
(-5.21794e-06 2.74127e-08 0)
(-5.23168e-06 1.36953e-08 0)
(-5.23624e-06 -4.62051e-11 0)
(-5.23162e-06 -1.37878e-08 0)
(-5.21782e-06 -2.75052e-08 0)
(-5.19487e-06 -4.11745e-08 0)
(-5.16281e-06 -5.47715e-08 0)
(-5.12169e-06 -6.82724e-08 0)
(-5.07158e-06 -8.16537e-08 0)
(-5.01259e-06 -9.48918e-08 0)
(-4.9448e-06 -1.07963e-07 0)
(-4.86833e-06 -1.20845e-07 0)
(-4.78333e-06 -1.33516e-07 0)
(-4.68994e-06 -1.45952e-07 0)
(-4.58832e-06 -1.58132e-07 0)
(-4.47865e-06 -1.70035e-07 0)
(-4.36113e-06 -1.81639e-07 0)
(-4.23596e-06 -1.92925e-07 0)
(-4.10336e-06 -2.03873e-07 0)
(-3.96356e-06 -2.14463e-07 0)
(-3.81681e-06 -2.24677e-07 0)
(-3.66336e-06 -2.34497e-07 0)
(-3.50349e-06 -2.43906e-07 0)
(-3.33747e-06 -2.52886e-07 0)
(-3.1656e-06 -2.61423e-07 0)
(-2.98817e-06 -2.69502e-07 0)
(-2.80551e-06 -2.77108e-07 0)
(-2.61792e-06 -2.84228e-07 0)
(-2.42574e-06 -2.90849e-07 0)
(-2.22931e-06 -2.9696e-07 0)
(-2.02896e-06 -3.02551e-07 0)
(-1.82506e-06 -3.0761e-07 0)
(-1.61795e-06 -3.1213e-07 0)
(-1.40801e-06 -3.16103e-07 0)
(-1.1956e-06 -3.19521e-07 0)
(-9.81091e-07 -3.22378e-07 0)
(-7.64861e-07 -3.2467e-07 0)
(-5.47289e-07 -3.26393e-07 0)
(-3.28757e-07 -3.27543e-07 0)
(-1.09649e-07 -3.28118e-07 0)
(1.09652e-07 -3.28118e-07 0)
(3.2876e-07 -3.27543e-07 0)
(5.47292e-07 -3.26393e-07 0)
(7.64864e-07 -3.2467e-07 0)
(9.81094e-07 -3.22378e-07 0)
(1.1956e-06 -3.1952e-07 0)
(1.40802e-06 -3.16102e-07 0)
(1.61796e-06 -3.1213e-07 0)
(1.82506e-06 -3.0761e-07 0)
(2.02897e-06 -3.0255e-07 0)
(2.22931e-06 -2.9696e-07 0)
(2.42574e-06 -2.90849e-07 0)
(2.61792e-06 -2.84228e-07 0)
(2.80551e-06 -2.77108e-07 0)
(2.98818e-06 -2.69502e-07 0)
(3.1656e-06 -2.61423e-07 0)
(3.33747e-06 -2.52886e-07 0)
(3.50349e-06 -2.43906e-07 0)
(3.66336e-06 -2.34497e-07 0)
(3.81681e-06 -2.24677e-07 0)
(3.96356e-06 -2.14463e-07 0)
(4.10336e-06 -2.03873e-07 0)
(4.23596e-06 -1.92926e-07 0)
(4.36113e-06 -1.8164e-07 0)
(4.47866e-06 -1.70035e-07 0)
(4.58832e-06 -1.58132e-07 0)
(4.68994e-06 -1.45952e-07 0)
(4.78333e-06 -1.33516e-07 0)
(4.86834e-06 -1.20846e-07 0)
(4.9448e-06 -1.07963e-07 0)
(5.01259e-06 -9.48915e-08 0)
(5.07159e-06 -8.16533e-08 0)
(5.12169e-06 -6.8272e-08 0)
(5.16281e-06 -5.47711e-08 0)
(5.19487e-06 -4.11741e-08 0)
(5.21782e-06 -2.7505e-08 0)
(5.23162e-06 -1.37877e-08 0)
(5.23624e-06 -4.60702e-11 0)
(5.23168e-06 1.36956e-08 0)
(5.21795e-06 2.74133e-08 0)
(5.19506e-06 4.10827e-08 0)
(5.16305e-06 5.46799e-08 0)
(5.122e-06 6.81814e-08 0)
(5.07196e-06 8.15633e-08 0)
(5.01302e-06 9.48022e-08 0)
(4.94529e-06 1.07875e-07 0)
(4.86888e-06 1.20758e-07 0)
(4.78394e-06 1.33429e-07 0)
(4.6906e-06 1.45866e-07 0)
(4.58904e-06 1.58048e-07 0)
(4.47943e-06 1.69952e-07 0)
(4.36196e-06 1.81558e-07 0)
(4.23685e-06 1.92846e-07 0)
(4.1043e-06 2.03795e-07 0)
(3.96455e-06 2.14387e-07 0)
(3.81785e-06 2.24603e-07 0)
(3.66445e-06 2.34426e-07 0)
(3.50462e-06 2.43837e-07 0)
(3.33865e-06 2.5282e-07 0)
(3.16682e-06 2.61361e-07 0)
(2.98944e-06 2.69443e-07 0)
(2.80681e-06 2.77053e-07 0)
(2.61926e-06 2.84179e-07 0)
(2.42711e-06 2.90807e-07 0)
(2.23071e-06 2.96927e-07 0)
(2.03038e-06 3.0253e-07 0)
(1.82649e-06 3.07606e-07 0)
(1.61938e-06 3.12148e-07 0)
(1.40942e-06 3.16151e-07 0)
(1.19696e-06 3.19612e-07 0)
(9.82379e-07 3.22528e-07 0)
(7.66027e-07 3.24902e-07 0)
(5.48269e-07 3.26739e-07 0)
(3.29454e-07 3.28051e-07 0)
(1.09913e-07 3.28854e-07 0)
(-1.1035e-07 5.48913e-07 0)
(-3.30765e-07 5.47571e-07 0)
(-5.50457e-07 5.45374e-07 0)
(-7.69086e-07 5.42308e-07 0)
(-9.863e-07 5.38345e-07 0)
(-1.20174e-06 5.33477e-07 0)
(-1.41504e-06 5.27701e-07 0)
(-1.62584e-06 5.21019e-07 0)
(-1.83377e-06 5.13437e-07 0)
(-2.03847e-06 5.04964e-07 0)
(-2.23959e-06 4.95613e-07 0)
(-2.43678e-06 4.85398e-07 0)
(-2.6297e-06 4.74334e-07 0)
(-2.81799e-06 4.62441e-07 0)
(-3.00135e-06 4.49738e-07 0)
(-3.17944e-06 4.36248e-07 0)
(-3.35195e-06 4.21993e-07 0)
(-3.51859e-06 4.06998e-07 0)
(-3.67905e-06 3.91289e-07 0)
(-3.83306e-06 3.74895e-07 0)
(-3.98034e-06 3.57843e-07 0)
(-4.12065e-06 3.40164e-07 0)
(-4.25372e-06 3.21887e-07 0)
(-4.37934e-06 3.03046e-07 0)
(-4.49728e-06 2.83674e-07 0)
(-4.60732e-06 2.63804e-07 0)
(-4.70929e-06 2.43471e-07 0)
(-4.803e-06 2.22712e-07 0)
(-4.88828e-06 2.01561e-07 0)
(-4.96499e-06 1.80057e-07 0)
(-5.03299e-06 1.58237e-07 0)
(-5.09216e-06 1.3614e-07 0)
(-5.1424e-06 1.13804e-07 0)
(-5.18362e-06 9.12682e-08 0)
(-5.21575e-06 6.85721e-08 0)
(-5.23873e-06 4.57561e-08 0)
(-5.25252e-06 2.28596e-08 0)
(-5.2571e-06 -7.70961e-11 0)
(-5.25246e-06 -2.30137e-08 0)
(-5.23861e-06 -4.59102e-08 0)
(-5.21556e-06 -6.87261e-08 0)
(-5.18337e-06 -9.14214e-08 0)
(-5.14209e-06 -1.13956e-07 0)
(-5.09179e-06 -1.36292e-07 0)
(-5.03256e-06 -1.58388e-07 0)
(-4.9645e-06 -1.80206e-07 0)
(-4.88773e-06 -2.01708e-07 0)
(-4.80239e-06 -2.22857e-07 0)
(-4.70862e-06 -2.43614e-07 0)
(-4.6066e-06 -2.63945e-07 0)
(-4.4965e-06 -2.83812e-07 0)
(-4.37851e-06 -3.03182e-07 0)
(-4.25283e-06 -3.2202e-07 0)
(-4.1197e-06 -3.40293e-07 0)
(-3.97935e-06 -3.5797e-07 0)
(-3.83201e-06 -3.75018e-07 0)
(-3.67795e-06 -3.91409e-07 0)
(-3.51744e-06 -4.07113e-07 0)
(-3.35077e-06 -4.22103e-07 0)
(-3.17821e-06 -4.36353e-07 0)
(-3.00008e-06 -4.49837e-07 0)
(-2.81668e-06 -4.62533e-07 0)
(-2.62835e-06 -4.74417e-07 0)
(-2.43541e-06 -4.85469e-07 0)
(-2.23819e-06 -4.95669e-07 0)
(-2.03705e-06 -5.05e-07 0)
(-1.83233e-06 -5.13445e-07 0)
(-1.6244e-06 -5.20989e-07 0)
(-1.41362e-06 -5.2762e-07 0)
(-1.20036e-06 -5.33325e-07 0)
(-9.85e-07 -5.38095e-07 0)
(-7.67908e-07 -5.41921e-07 0)
(-5.49469e-07 -5.44796e-07 0)
(-3.30067e-07 -5.46716e-07 0)
(-1.10086e-07 -5.47676e-07 0)
(1.10089e-07 -5.47676e-07 0)
(3.3007e-07 -5.46716e-07 0)
(5.49473e-07 -5.44796e-07 0)
(7.67911e-07 -5.41921e-07 0)
(9.85003e-07 -5.38095e-07 0)
(1.20037e-06 -5.33325e-07 0)
(1.41363e-06 -5.2762e-07 0)
(1.6244e-06 -5.20989e-07 0)
(1.83233e-06 -5.13445e-07 0)
(2.03705e-06 -5.04999e-07 0)
(2.23819e-06 -4.95668e-07 0)
(2.43541e-06 -4.85468e-07 0)
(2.62835e-06 -4.74417e-07 0)
(2.81669e-06 -4.62533e-07 0)
(3.00008e-06 -4.49837e-07 0)
(3.17821e-06 -4.36353e-07 0)
(3.35077e-06 -4.22103e-07 0)
(3.51745e-06 -4.07113e-07 0)
(3.67796e-06 -3.91409e-07 0)
(3.83201e-06 -3.75018e-07 0)
(3.97935e-06 -3.5797e-07 0)
(4.11971e-06 -3.40294e-07 0)
(4.25284e-06 -3.2202e-07 0)
(4.37851e-06 -3.03182e-07 0)
(4.4965e-06 -2.83813e-07 0)
(4.6066e-06 -2.63945e-07 0)
(4.70863e-06 -2.43615e-07 0)
(4.80239e-06 -2.22857e-07 0)
(4.88773e-06 -2.01708e-07 0)
(4.9645e-06 -1.80206e-07 0)
(5.03256e-06 -1.58387e-07 0)
(5.09179e-06 -1.36291e-07 0)
(5.14209e-06 -1.13956e-07 0)
(5.18338e-06 -9.14208e-08 0)
(5.21557e-06 -6.87255e-08 0)
(5.23861e-06 -4.59097e-08 0)
(5.25246e-06 -2.30135e-08 0)
(5.25711e-06 -7.67725e-11 0)
(5.25253e-06 2.286e-08 0)
(5.23873e-06 4.57566e-08 0)
(5.21575e-06 6.85728e-08 0)
(5.18362e-06 9.12687e-08 0)
(5.1424e-06 1.13805e-07 0)
(5.09216e-06 1.36141e-07 0)
(5.03299e-06 1.58238e-07 0)
(4.96499e-06 1.80058e-07 0)
(4.88828e-06 2.01562e-07 0)
(4.803e-06 2.22712e-07 0)
(4.70929e-06 2.43472e-07 0)
(4.60733e-06 2.63804e-07 0)
(4.49728e-06 2.83674e-07 0)
(4.37934e-06 3.03046e-07 0)
(4.25373e-06 3.21887e-07 0)
(4.12065e-06 3.40163e-07 0)
(3.98034e-06 3.57843e-07 0)
(3.83306e-06 3.74895e-07 0)
(3.67905e-06 3.9129e-07 0)
(3.51859e-06 4.06998e-07 0)
(3.35195e-06 4.21993e-07 0)
(3.17944e-06 4.36248e-07 0)
(3.00135e-06 4.49738e-07 0)
(2.818e-06 4.62441e-07 0)
(2.6297e-06 4.74334e-07 0)
(2.43678e-06 4.85397e-07 0)
(2.23959e-06 4.95613e-07 0)
(2.03847e-06 5.04964e-07 0)
(1.83377e-06 5.13436e-07 0)
(1.62584e-06 5.21018e-07 0)
(1.41504e-06 5.27699e-07 0)
(1.20174e-06 5.33476e-07 0)
(9.86298e-07 5.38344e-07 0)
(7.69083e-07 5.42308e-07 0)
(5.50455e-07 5.45376e-07 0)
(3.30766e-07 5.4757e-07 0)
(1.10351e-07 5.48902e-07 0)
(-1.10964e-07 7.70006e-07 0)
(-3.32606e-07 7.68139e-07 0)
(-5.53524e-07 7.65059e-07 0)
(-7.73376e-07 7.60752e-07 0)
(-9.91804e-07 7.55192e-07 0)
(-1.20845e-06 7.48362e-07 0)
(-1.42294e-06 7.40259e-07 0)
(-1.63491e-06 7.30886e-07 0)
(-1.844e-06 7.2025e-07 0)
(-2.04985e-06 7.08365e-07 0)
(-2.25209e-06 6.95248e-07 0)
(-2.45038e-06 6.80918e-07 0)
(-2.64437e-06 6.65398e-07 0)
(-2.83372e-06 6.48715e-07 0)
(-3.0181e-06 6.30895e-07 0)
(-3.19718e-06 6.11971e-07 0)
(-3.37066e-06 5.91974e-07 0)
(-3.53822e-06 5.70939e-07 0)
(-3.69958e-06 5.48903e-07 0)
(-3.85445e-06 5.25905e-07 0)
(-4.00255e-06 5.01984e-07 0)
(-4.14364e-06 4.77183e-07 0)
(-4.27746e-06 4.51545e-07 0)
(-4.40378e-06 4.25115e-07 0)
(-4.52237e-06 3.9794e-07 0)
(-4.63303e-06 3.70066e-07 0)
(-4.73557e-06 3.41543e-07 0)
(-4.8298e-06 3.12421e-07 0)
(-4.91556e-06 2.82751e-07 0)
(-4.99269e-06 2.52586e-07 0)
(-5.06107e-06 2.21977e-07 0)
(-5.12058e-06 1.90978e-07 0)
(-5.1711e-06 1.59645e-07 0)
(-5.21255e-06 1.28032e-07 0)
(-5.24486e-06 9.61937e-08 0)
(-5.26797e-06 6.41871e-08 0)
(-5.28184e-06 3.20676e-08 0)
(-5.28644e-06 -1.08088e-10 0)
(-5.28177e-06 -3.22838e-08 0)
(-5.26784e-06 -6.44031e-08 0)
(-5.24467e-06 -9.64092e-08 0)
(-5.2123e-06 -1.28246e-07 0)
(-5.17079e-06 -1.59859e-07 0)
(-5.1202e-06 -1.9119e-07 0)
(-5.06064e-06 -2.22187e-07 0)
(-4.9922e-06 -2.52794e-07 0)
(-4.91501e-06 -2.82957e-07 0)
(-4.82919e-06 -3.12625e-07 0)
(-4.7349e-06 -3.41744e-07 0)
(-4.63231e-06 -3.70263e-07 0)
(-4.52159e-06 -3.98133e-07 0)
(-4.40294e-06 -4.25305e-07 0)
(-4.27657e-06 -4.51732e-07 0)
(-4.1427e-06 -4.77366e-07 0)
(-4.00156e-06 -5.02162e-07 0)
(-3.8534e-06 -5.26078e-07 0)
(-3.69848e-06 -5.49071e-07 0)
(-3.53707e-06 -5.71101e-07 0)
(-3.36947e-06 -5.92129e-07 0)
(-3.19595e-06 -6.12118e-07 0)
(-3.01682e-06 -6.31034e-07 0)
(-2.8324e-06 -6.48843e-07 0)
(-2.64302e-06 -6.65514e-07 0)
(-2.449e-06 -6.81018e-07 0)
(-2.25068e-06 -6.95327e-07 0)
(-2.04841e-06 -7.08416e-07 0)
(-1.84256e-06 -7.20263e-07 0)
(-1.63347e-06 -7.30847e-07 0)
(-1.42151e-06 -7.40148e-07 0)
(-1.20706e-06 -7.48152e-07 0)
(-9.90497e-07 -7.54843e-07 0)
(-7.72194e-07 -7.6021e-07 0)
(-5.52536e-07 -7.64243e-07 0)
(-3.31909e-07 -7.66936e-07 0)
(-1.107e-07 -7.68284e-07 0)
(1.10703e-07 -7.68283e-07 0)
(3.31912e-07 -7.66936e-07 0)
(5.52539e-07 -7.64243e-07 0)
(7.72197e-07 -7.60209e-07 0)
(9.905e-07 -7.54842e-07 0)
(1.20707e-06 -7.48151e-07 0)
(1.42151e-06 -7.40148e-07 0)
(1.63347e-06 -7.30847e-07 0)
(1.84256e-06 -7.20263e-07 0)
(2.04842e-06 -7.08416e-07 0)
(2.25068e-06 -6.95327e-07 0)
(2.449e-06 -6.81018e-07 0)
(2.64302e-06 -6.65514e-07 0)
(2.83241e-06 -6.48843e-07 0)
(3.01682e-06 -6.31034e-07 0)
(3.19595e-06 -6.12118e-07 0)
(3.36947e-06 -5.92129e-07 0)
(3.53708e-06 -5.711e-07 0)
(3.69848e-06 -5.49071e-07 0)
(3.8534e-06 -5.26078e-07 0)
(4.00156e-06 -5.02162e-07 0)
(4.1427e-06 -4.77366e-07 0)
(4.27657e-06 -4.51732e-07 0)
(4.40294e-06 -4.25306e-07 0)
(4.52159e-06 -3.98134e-07 0)
(4.63231e-06 -3.70263e-07 0)
(4.7349e-06 -3.41744e-07 0)
(4.82919e-06 -3.12625e-07 0)
(4.91501e-06 -2.82957e-07 0)
(4.9922e-06 -2.52793e-07 0)
(5.06064e-06 -2.22186e-07 0)
(5.12021e-06 -1.9119e-07 0)
(5.17079e-06 -1.59858e-07 0)
(5.2123e-06 -1.28246e-07 0)
(5.24467e-06 -9.64085e-08 0)
(5.26784e-06 -6.44024e-08 0)
(5.28178e-06 -3.22833e-08 0)
(5.28644e-06 -1.07646e-10 0)
(5.28184e-06 3.20681e-08 0)
(5.26797e-06 6.41875e-08 0)
(5.24486e-06 9.61943e-08 0)
(5.21255e-06 1.28032e-07 0)
(5.1711e-06 1.59646e-07 0)
(5.12058e-06 1.90979e-07 0)
(5.06108e-06 2.21977e-07 0)
(4.9927e-06 2.52586e-07 0)
(4.91556e-06 2.82752e-07 0)
(4.8298e-06 3.12422e-07 0)
(4.73557e-06 3.41543e-07 0)
(4.63304e-06 3.70066e-07 0)
(4.52237e-06 3.97939e-07 0)
(4.40378e-06 4.25115e-07 0)
(4.27746e-06 4.51545e-07 0)
(4.14364e-06 4.77183e-07 0)
(4.00255e-06 5.01984e-07 0)
(3.85445e-06 5.25905e-07 0)
(3.69958e-06 5.48903e-07 0)
(3.53822e-06 5.70939e-07 0)
(3.37066e-06 5.91974e-07 0)
(3.19718e-06 6.1197e-07 0)
(3.0181e-06 6.30895e-07 0)
(2.83372e-06 6.48714e-07 0)
(2.64437e-06 6.65398e-07 0)
(2.45038e-06 6.80917e-07 0)
(2.25209e-06 6.95248e-07 0)
(2.04985e-06 7.08365e-07 0)
(1.844e-06 7.20249e-07 0)
(1.63491e-06 7.30885e-07 0)
(1.42294e-06 7.40258e-07 0)
(1.20845e-06 7.48361e-07 0)
(9.91802e-07 7.55192e-07 0)
(7.73374e-07 7.60754e-07 0)
(5.53524e-07 7.65061e-07 0)
(3.32608e-07 7.6814e-07 0)
(1.10966e-07 7.70002e-07 0)
(-1.11762e-07 9.92516e-07 0)
(-3.34999e-07 9.90118e-07 0)
(-5.57507e-07 9.86148e-07 0)
(-7.78942e-07 9.80595e-07 0)
(-9.98945e-07 9.73425e-07 0)
(-1.21715e-06 9.6462e-07 0)
(-1.43319e-06 9.54175e-07 0)
(-1.64669e-06 9.42093e-07 0)
(-1.85728e-06 9.28384e-07 0)
(-2.06461e-06 9.13065e-07 0)
(-2.26831e-06 8.96157e-07 0)
(-2.46803e-06 8.77686e-07 0)
(-2.66342e-06 8.57682e-07 0)
(-2.85413e-06 8.36177e-07 0)
(-3.03983e-06 8.13209e-07 0)
(-3.22021e-06 7.88816e-07 0)
(-3.39493e-06 7.6304e-07 0)
(-3.5637e-06 7.35927e-07 0)
(-3.72622e-06 7.07523e-07 0)
(-3.88221e-06 6.77879e-07 0)
(-4.03138e-06 6.47046e-07 0)
(-4.17348e-06 6.15078e-07 0)
(-4.30827e-06 5.82031e-07 0)
(-4.43549e-06 5.47963e-07 0)
(-4.55494e-06 5.12935e-07 0)
(-4.6664e-06 4.77006e-07 0)
(-4.76968e-06 4.40241e-07 0)
(-4.86458e-06 4.02704e-07 0)
(-4.95096e-06 3.6446e-07 0)
(-5.02865e-06 3.25577e-07 0)
(-5.09752e-06 2.86123e-07 0)
(-5.15745e-06 2.46167e-07 0)
(-5.20834e-06 2.05779e-07 0)
(-5.25009e-06 1.6503e-07 0)
(-5.28263e-06 1.23992e-07 0)
(-5.30591e-06 8.27357e-08 0)
(-5.31988e-06 4.13345e-08 0)
(-5.32451e-06 -1.39331e-10 0)
(-5.31981e-06 -4.16131e-08 0)
(-5.30578e-06 -8.30138e-08 0)
(-5.28244e-06 -1.24269e-07 0)
(-5.24984e-06 -1.65306e-07 0)
(-5.20803e-06 -2.06054e-07 0)
(-5.15708e-06 -2.4644e-07 0)
(-5.09709e-06 -2.86394e-07 0)
(-5.02816e-06 -3.25845e-07 0)
(-4.9504e-06 -3.64725e-07 0)
(-4.86397e-06 -4.02966e-07 0)
(-4.769e-06 -4.405e-07 0)
(-4.66567e-06 -4.77261e-07 0)
(-4.55416e-06 -5.13185e-07 0)
(-4.43465e-06 -5.48209e-07 0)
(-4.30737e-06 -5.82272e-07 0)
(-4.17253e-06 -6.15313e-07 0)
(-4.03038e-06 -6.47275e-07 0)
(-3.88115e-06 -6.78102e-07 0)
(-3.72512e-06 -7.07739e-07 0)
(-3.56255e-06 -7.36135e-07 0)
(-3.39373e-06 -7.6324e-07 0)
(-3.21896e-06 -7.89006e-07 0)
(-3.03855e-06 -8.13388e-07 0)
(-2.8528e-06 -8.36344e-07 0)
(-2.66205e-06 -8.57832e-07 0)
(-2.46664e-06 -8.77816e-07 0)
(-2.26689e-06 -8.9626e-07 0)
(-2.06317e-06 -9.13132e-07 0)
(-1.85583e-06 -9.28403e-07 0)
(-1.64523e-06 -9.42044e-07 0)
(-1.43175e-06 -9.54034e-07 0)
(-1.21576e-06 -9.6435e-07 0)
(-9.97631e-07 -9.72975e-07 0)
(-7.77755e-07 -9.79893e-07 0)
(-5.56516e-07 -9.85092e-07 0)
(-3.343e-07 -9.88563e-07 0)
(-1.11498e-07 -9.903e-07 0)
(1.11501e-07 -9.90299e-07 0)
(3.34303e-07 -9.88562e-07 0)
(5.56519e-07 -9.85091e-07 0)
(7.77759e-07 -9.79892e-07 0)
(9.97634e-07 -9.72974e-07 0)
(1.21576e-06 -9.6435e-07 0)
(1.43175e-06 -9.54034e-07 0)
(1.64523e-06 -9.42044e-07 0)
(1.85583e-06 -9.28403e-07 0)
(2.06317e-06 -9.13132e-07 0)
(2.26689e-06 -8.96261e-07 0)
(2.46664e-06 -8.77816e-07 0)
(2.66206e-06 -8.57833e-07 0)
(2.85281e-06 -8.36344e-07 0)
(3.03855e-06 -8.13389e-07 0)
(3.21897e-06 -7.89006e-07 0)
(3.39374e-06 -7.6324e-07 0)
(3.56255e-06 -7.36135e-07 0)
(3.72512e-06 -7.07739e-07 0)
(3.88115e-06 -6.78102e-07 0)
(4.03038e-06 -6.47275e-07 0)
(4.17254e-06 -6.15313e-07 0)
(4.30737e-06 -5.82272e-07 0)
(4.43466e-06 -5.48209e-07 0)
(4.55416e-06 -5.13185e-07 0)
(4.66567e-06 -4.77261e-07 0)
(4.76901e-06 -4.405e-07 0)
(4.86397e-06 -4.02966e-07 0)
(4.95041e-06 -3.64725e-07 0)
(5.02816e-06 -3.25845e-07 0)
(5.09709e-06 -2.86393e-07 0)
(5.15708e-06 -2.46439e-07 0)
(5.20803e-06 -2.06053e-07 0)
(5.24984e-06 -1.65306e-07 0)
(5.28245e-06 -1.24268e-07 0)
(5.30578e-06 -8.30131e-08 0)
(5.31982e-06 -4.16123e-08 0)
(5.32452e-06 -1.38677e-10 0)
(5.31988e-06 4.13351e-08 0)
(5.30591e-06 8.27363e-08 0)
(5.28263e-06 1.23992e-07 0)
(5.25009e-06 1.65031e-07 0)
(5.20834e-06 2.0578e-07 0)
(5.15746e-06 2.46168e-07 0)
(5.09753e-06 2.86124e-07 0)
(5.02865e-06 3.25578e-07 0)
(4.95096e-06 3.64461e-07 0)
(4.86459e-06 4.02704e-07 0)
(4.76968e-06 4.40241e-07 0)
(4.6664e-06 4.77006e-07 0)
(4.55494e-06 5.12935e-07 0)
(4.4355e-06 5.47963e-07 0)
(4.30827e-06 5.82031e-07 0)
(4.17349e-06 6.15078e-07 0)
(4.03138e-06 6.47046e-07 0)
(3.88221e-06 6.77879e-07 0)
(3.72622e-06 7.07523e-07 0)
(3.5637e-06 7.35927e-07 0)
(3.39493e-06 7.6304e-07 0)
(3.22021e-06 7.88815e-07 0)
(3.03984e-06 8.13208e-07 0)
(2.85413e-06 8.36177e-07 0)
(2.66342e-06 8.57682e-07 0)
(2.46803e-06 8.77686e-07 0)
(2.26831e-06 8.96157e-07 0)
(2.06461e-06 9.13065e-07 0)
(1.85728e-06 9.28384e-07 0)
(1.64669e-06 9.42092e-07 0)
(1.43318e-06 9.54175e-07 0)
(1.21715e-06 9.6462e-07 0)
(9.98944e-07 9.73425e-07 0)
(7.78942e-07 9.80596e-07 0)
(5.57508e-07 9.8615e-07 0)
(3.35001e-07 9.90118e-07 0)
(1.11764e-07 9.92513e-07 0)
(-1.1275e-07 1.21681e-06 0)
(-3.37957e-07 1.21387e-06 0)
(-5.62428e-07 1.20901e-06 0)
(-7.85819e-07 1.2022e-06 0)
(-1.00777e-06 1.19341e-06 0)
(-1.2279e-06 1.18261e-06 0)
(-1.44584e-06 1.16981e-06 0)
(-1.66123e-06 1.15499e-06 0)
(-1.87369e-06 1.13819e-06 0)
(-2.08285e-06 1.11941e-06 0)
(-2.28835e-06 1.09868e-06 0)
(-2.48983e-06 1.07603e-06 0)
(-2.68694e-06 1.05151e-06 0)
(-2.87934e-06 1.02514e-06 0)
(-3.06668e-06 9.96983e-07 0)
(-3.24865e-06 9.67078e-07 0)
(-3.42492e-06 9.35477e-07 0)
(-3.59518e-06 9.02236e-07 0)
(-3.75913e-06 8.67414e-07 0)
(-3.91649e-06 8.31071e-07 0)
(-4.06699e-06 7.9327e-07 0)
(-4.21034e-06 7.54077e-07 0)
(-4.34632e-06 7.13562e-07 0)
(-4.47467e-06 6.71796e-07 0)
(-4.59517e-06 6.28851e-07 0)
(-4.70762e-06 5.84803e-07 0)
(-4.8118e-06 5.3973e-07 0)
(-4.90755e-06 4.9371e-07 0)
(-4.99469e-06 4.46824e-07 0)
(-5.07307e-06 3.99154e-07 0)
(-5.14255e-06 3.50784e-07 0)
(-5.20301e-06 3.01798e-07 0)
(-5.25434e-06 2.52283e-07 0)
(-5.29646e-06 2.02325e-07 0)
(-5.32929e-06 1.52012e-07 0)
(-5.35277e-06 1.01433e-07 0)
(-5.36686e-06 5.06757e-08 0)
(-5.37154e-06 -1.70763e-10 0)
(-5.3668e-06 -5.10169e-08 0)
(-5.35264e-06 -1.01773e-07 0)
(-5.3291e-06 -1.52352e-07 0)
(-5.29621e-06 -2.02663e-07 0)
(-5.25403e-06 -2.52619e-07 0)
(-5.20263e-06 -3.02132e-07 0)
(-5.14211e-06 -3.51115e-07 0)
(-5.07257e-06 -3.99482e-07 0)
(-4.99413e-06 -4.47149e-07 0)
(-4.90693e-06 -4.94031e-07 0)
(-4.81113e-06 -5.40047e-07 0)
(-4.70688e-06 -5.85116e-07 0)
(-4.59438e-06 -6.29158e-07 0)
(-4.47382e-06 -6.72098e-07 0)
(-4.34542e-06 -7.13858e-07 0)
(-4.20939e-06 -7.54366e-07 0)
(-4.06598e-06 -7.93551e-07 0)
(-3.91543e-06 -8.31344e-07 0)
(-3.75802e-06 -8.67679e-07 0)
(-3.59402e-06 -9.02493e-07 0)
(-3.42371e-06 -9.35723e-07 0)
(-3.2474e-06 -9.67312e-07 0)
(-3.06539e-06 -9.97204e-07 0)
(-2.878e-06 -1.02535e-06 0)
(-2.68557e-06 -1.05169e-06 0)
(-2.48842e-06 -1.07619e-06 0)
(-2.28691e-06 -1.0988e-06 0)
(-2.08139e-06 -1.11949e-06 0)
(-1.87222e-06 -1.13821e-06 0)
(-1.65976e-06 -1.15493e-06 0)
(-1.4444e-06 -1.16963e-06 0)
(-1.2265e-06 -1.18228e-06 0)
(-1.00644e-06 -1.19285e-06 0)
(-7.84625e-07 -1.20134e-06 0)
(-5.61431e-07 -1.20771e-06 0)
(-3.37253e-07 -1.21197e-06 0)
(-1.12482e-07 -1.21409e-06 0)
(1.12486e-07 -1.21409e-06 0)
(3.37256e-07 -1.21196e-06 0)
(5.61434e-07 -1.20771e-06 0)
(7.84628e-07 -1.20134e-06 0)
(1.00645e-06 -1.19285e-06 0)
(1.2265e-06 -1.18228e-06 0)
(1.4444e-06 -1.16963e-06 0)
(1.65977e-06 -1.15493e-06 0)
(1.87222e-06 -1.13821e-06 0)
(2.08139e-06 -1.11949e-06 0)
(2.28692e-06 -1.0988e-06 0)
(2.48843e-06 -1.07619e-06 0)
(2.68557e-06 -1.05169e-06 0)
(2.878e-06 -1.02535e-06 0)
(3.06539e-06 -9.97204e-07 0)
(3.2474e-06 -9.67312e-07 0)
(3.42371e-06 -9.35723e-07 0)
(3.59402e-06 -9.02492e-07 0)
(3.75802e-06 -8.67679e-07 0)
(3.91543e-06 -8.31344e-07 0)
(4.06598e-06 -7.93551e-07 0)
(4.20939e-06 -7.54366e-07 0)
(4.34542e-06 -7.13857e-07 0)
(4.47382e-06 -6.72097e-07 0)
(4.59438e-06 -6.29158e-07 0)
(4.70688e-06 -5.85115e-07 0)
(4.81113e-06 -5.40047e-07 0)
(4.90693e-06 -4.94031e-07 0)
(4.99413e-06 -4.47148e-07 0)
(5.07257e-06 -3.99481e-07 0)
(5.14211e-06 -3.51114e-07 0)
(5.20263e-06 -3.02131e-07 0)
(5.25403e-06 -2.52618e-07 0)
(5.29621e-06 -2.02662e-07 0)
(5.3291e-06 -1.52351e-07 0)
(5.35265e-06 -1.01773e-07 0)
(5.3668e-06 -5.1016e-08 0)
(5.37154e-06 -1.69885e-10 0)
(5.36687e-06 5.06764e-08 0)
(5.35277e-06 1.01434e-07 0)
(5.32929e-06 1.52013e-07 0)
(5.29646e-06 2.02326e-07 0)
(5.25434e-06 2.52283e-07 0)
(5.20301e-06 3.01798e-07 0)
(5.14255e-06 3.50784e-07 0)
(5.07307e-06 3.99154e-07 0)
(4.99469e-06 4.46824e-07 0)
(4.90755e-06 4.9371e-07 0)
(4.8118e-06 5.39731e-07 0)
(4.70762e-06 5.84804e-07 0)
(4.59517e-06 6.28852e-07 0)
(4.47467e-06 6.71796e-07 0)
(4.34632e-06 7.13563e-07 0)
(4.21035e-06 7.54077e-07 0)
(4.06699e-06 7.9327e-07 0)
(3.91649e-06 8.31071e-07 0)
(3.75913e-06 8.67414e-07 0)
(3.59518e-06 9.02236e-07 0)
(3.42492e-06 9.35477e-07 0)
(3.24865e-06 9.67077e-07 0)
(3.06668e-06 9.96983e-07 0)
(2.87934e-06 1.02514e-06 0)
(2.68694e-06 1.05151e-06 0)
(2.48983e-06 1.07603e-06 0)
(2.28835e-06 1.09868e-06 0)
(2.08285e-06 1.11941e-06 0)
(1.87369e-06 1.13819e-06 0)
(1.66123e-06 1.15499e-06 0)
(1.44584e-06 1.16981e-06 0)
(1.2279e-06 1.18261e-06 0)
(1.00776e-06 1.19341e-06 0)
(7.85819e-07 1.2022e-06 0)
(5.62429e-07 1.20901e-06 0)
(3.37959e-07 1.21387e-06 0)
(1.12751e-07 1.2168e-06 0)
(-1.13929e-07 1.44326e-06 0)
(-3.4149e-07 1.43979e-06 0)
(-5.68308e-07 1.43402e-06 0)
(-7.94035e-07 1.42594e-06 0)
(-1.0183e-06 1.41551e-06 0)
(-1.24074e-06 1.40271e-06 0)
(-1.46096e-06 1.38752e-06 0)
(-1.6786e-06 1.36995e-06 0)
(-1.89328e-06 1.35001e-06 0)
(-2.10463e-06 1.32774e-06 0)
(-2.31228e-06 1.30315e-06 0)
(-2.51586e-06 1.27629e-06 0)
(-2.71504e-06 1.2472e-06 0)
(-2.90945e-06 1.21593e-06 0)
(-3.09875e-06 1.18253e-06 0)
(-3.28262e-06 1.14706e-06 0)
(-3.46073e-06 1.10958e-06 0)
(-3.63277e-06 1.07015e-06 0)
(-3.79844e-06 1.02885e-06 0)
(-3.95745e-06 9.8574e-07 0)
(-4.10951e-06 9.40904e-07 0)
(-4.25437e-06 8.94417e-07 0)
(-4.39177e-06 8.46362e-07 0)
(-4.52146e-06 7.96823e-07 0)
(-4.64323e-06 7.45886e-07 0)
(-4.75684e-06 6.93641e-07 0)
(-4.86212e-06 6.40179e-07 0)
(-4.95887e-06 5.85594e-07 0)
(-5.04692e-06 5.29982e-07 0)
(-5.12612e-06 4.7344e-07 0)
(-5.19632e-06 4.16067e-07 0)
(-5.25742e-06 3.57965e-07 0)
(-5.30929e-06 2.99235e-07 0)
(-5.35185e-06 2.3998e-07 0)
(-5.38502e-06 1.80304e-07 0)
(-5.40875e-06 1.20311e-07 0)
(-5.42299e-06 6.01071e-08 0)
(-5.42772e-06 -2.02194e-10 0)
(-5.42292e-06 -6.0511e-08 0)
(-5.40862e-06 -1.20714e-07 0)
(-5.38483e-06 -1.80705e-07 0)
(-5.35159e-06 -2.4038e-07 0)
(-5.30897e-06 -2.99633e-07 0)
(-5.25704e-06 -3.58361e-07 0)
(-5.19588e-06 -4.1646e-07 0)
(-5.12561e-06 -4.73829e-07 0)
(-5.04636e-06 -5.30367e-07 0)
(-4.95825e-06 -5.85974e-07 0)
(-4.86144e-06 -6.40554e-07 0)
(-4.7561e-06 -6.94011e-07 0)
(-4.64243e-06 -7.4625e-07 0)
(-4.52061e-06 -7.9718e-07 0)
(-4.39086e-06 -8.46713e-07 0)
(-4.25341e-06 -8.9476e-07 0)
(-4.1085e-06 -9.41238e-07 0)
(-3.95638e-06 -9.86064e-07 0)
(-3.79732e-06 -1.02916e-06 0)
(-3.6316e-06 -1.07045e-06 0)
(-3.45951e-06 -1.10987e-06 0)
(-3.28136e-06 -1.14734e-06 0)
(-3.09744e-06 -1.18279e-06 0)
(-2.9081e-06 -1.21617e-06 0)
(-2.71365e-06 -1.24742e-06 0)
(-2.51445e-06 -1.27648e-06 0)
(-2.31083e-06 -1.3033e-06 0)
(-2.10316e-06 -1.32784e-06 0)
(-1.8918e-06 -1.35004e-06 0)
(-1.67712e-06 -1.36988e-06 0)
(-1.4595e-06 -1.38731e-06 0)
(-1.23932e-06 -1.40231e-06 0)
(-1.01697e-06 -1.41486e-06 0)
(-7.92831e-07 -1.42491e-06 0)
(-5.67303e-07 -1.43248e-06 0)
(-3.40779e-07 -1.43752e-06 0)
(-1.13658e-07 -1.44005e-06 0)
(1.13662e-07 -1.44005e-06 0)
(3.40783e-07 -1.43752e-06 0)
(5.67306e-07 -1.43247e-06 0)
(7.92834e-07 -1.42491e-06 0)
(1.01697e-06 -1.41486e-06 0)
(1.23932e-06 -1.40231e-06 0)
(1.4595e-06 -1.38731e-06 0)
(1.67712e-06 -1.36988e-06 0)
(1.8918e-06 -1.35004e-06 0)
(2.10316e-06 -1.32784e-06 0)
(2.31083e-06 -1.3033e-06 0)
(2.51445e-06 -1.27648e-06 0)
(2.71366e-06 -1.24742e-06 0)
(2.9081e-06 -1.21617e-06 0)
(3.09745e-06 -1.18279e-06 0)
(3.28136e-06 -1.14734e-06 0)
(3.45952e-06 -1.10987e-06 0)
(3.6316e-06 -1.07045e-06 0)
(3.79732e-06 -1.02916e-06 0)
(3.95638e-06 -9.86064e-07 0)
(4.1085e-06 -9.41237e-07 0)
(4.25341e-06 -8.94759e-07 0)
(4.39086e-06 -8.46712e-07 0)
(4.52061e-06 -7.9718e-07 0)
(4.64243e-06 -7.4625e-07 0)
(4.75611e-06 -6.9401e-07 0)
(4.86144e-06 -6.40554e-07 0)
(4.95825e-06 -5.85974e-07 0)
(5.04636e-06 -5.30366e-07 0)
(5.12562e-06 -4.73828e-07 0)
(5.19589e-06 -4.16459e-07 0)
(5.25704e-06 -3.5836e-07 0)
(5.30897e-06 -2.99632e-07 0)
(5.3516e-06 -2.40379e-07 0)
(5.38483e-06 -1.80705e-07 0)