/*--------------------------------*- C++ -*----------------------------------*\
| =========                 |                                                 |
| \\      /  F ield         | OpenFOAM: The Open Source CFD Toolbox           |
|  \\    /   O peration     | Version:  2306                                  |
|   \\  /    A nd           | Website:  www.openfoam.com                      |
|    \\/     M anipulation  |                                                 |
\*---------------------------------------------------------------------------*/
FoamFile
{
    version     2.0;
    format      ascii;
    arch        "LSB;label=32;scalar=64";
    class       surfaceScalarField;
    location    "0.01";
    object      phi_0;
}
// * * * * * * * * * * * * * * * * * * * * * * * * * * * * * * * * * * * * * //

dimensions      [0 3 -1 0 0 0 0];

oriented        oriented;

internalField   nonuniform List<scalar> 
12640
(
-2.167977e-10
2.1679768e-10
-8.7207555e-10
6.5527785e-10
-1.9615369e-09
1.0894613e-09
-3.4829067e-09
1.5213698e-09
-5.431415e-09
1.9485081e-09
-7.800883e-09
2.3694683e-09
-1.0583994e-08
2.7831109e-09
-1.3772187e-08
3.1881921e-09
-1.7355719e-08
3.5835321e-09
-2.1323711e-08
3.9679927e-09
-2.5664199e-08
4.3404878e-09
-3.0364186e-08
4.6999862e-09
-3.5409707e-08
5.0455213e-09
-4.0785903e-08
5.3761956e-09
-4.6477087e-08
5.6911832e-09
-5.2466818e-08
5.9897323e-09
-5.8737985e-08
6.2711667e-09
-6.5272874e-08
6.53489e-09
-7.205326e-08
6.7803857e-09
-7.9060472e-08
7.007212e-09
-8.6275489e-08
7.2150179e-09
-9.3679014e-08
7.4035259e-09
-1.0125156e-07
7.5725422e-09
-1.0897351e-07
7.7219536e-09
-1.1682523e-07
7.851717e-09
-1.2478709e-07
7.9618675e-09
-1.328396e-07
8.0525015e-09
-1.409634e-07
8.1238022e-09
-1.4913941e-07
8.1760065e-09
-1.5734882e-07
8.2094125e-09
-1.6557321e-07
8.2243844e-09
-1.7379455e-07
8.2213438e-09
-1.8199531e-07
8.2007572e-09
-1.9015844e-07
8.1631304e-09
-1.9826746e-07
8.1090221e-09
-2.0630649e-07
8.0390208e-09
-2.1426023e-07
7.9537484e-09
-2.2211409e-07
7.8538592e-09
-2.2985412e-07
7.7400289e-09
-2.3746708e-07
7.6129624e-09
-2.4494046e-07
7.4733731e-09
-2.5226245e-07
7.3219925e-09
-2.5942203e-07
7.1595778e-09
-2.6640893e-07
6.9869067e-09
-2.7321379e-07
6.8048613e-09
-2.7982791e-07
6.614118e-09
-2.8624297e-07
6.4150556e-09
-2.9245147e-07
6.2085017e-09
-2.984467e-07
5.9952341e-09
-3.0422269e-07
5.7759851e-09
-3.0977415e-07
5.5514667e-09
-3.1509649e-07
5.3223298e-09
-3.2018574e-07
5.0892561e-09
-3.2503861e-07
4.8528651e-09
-3.2965237e-07
4.613763e-09
-3.3402491e-07
4.3725441e-09
-3.3815469e-07
4.1297744e-09
-3.4204068e-07
3.8859887e-09
-3.4568238e-07
3.6416996e-09
-3.4907976e-07
3.3973891e-09
-3.5223329e-07
3.1535222e-09
-3.5514382e-07
2.9105363e-09
-3.5781265e-07
2.668828e-09
-3.6024143e-07
2.4287805e-09
-3.624322e-07
2.1907672e-09
-3.6438731e-07
1.9551174e-09
-3.6610945e-07
1.7221426e-09
-3.6760161e-07
1.4921538e-09
-3.6886704e-07
1.2654301e-09
-3.6990927e-07
1.0422307e-09
-3.7073205e-07
8.2277424e-10
-3.7133915e-07
6.0710247e-10
-3.7173376e-07
3.94597e-10
-3.719162e-07
1.8244377e-10
-3.7188258e-07
-3.3620525e-11
-3.7166402e-07
-2.1854783e-10
-3.7125352e-07
-4.1051202e-10
-3.7065316e-07
-6.0035263e-10
-3.6986701e-07
-7.8615208e-10
-9.6740352e-10
-2.4900464e-10
4.6580228e-10
-9.9207182e-10
1.3983449e-09
-2.2287154e-09
2.3261051e-09
-3.9545888e-09
3.2472429e-09
-6.1644599e-09
4.1583789e-09
-8.8515985e-09
5.0566071e-09
-1.2007719e-08
5.9392315e-09
-1.5623135e-08
6.8036074e-09
-1.9686794e-08
7.6471919e-09
-2.4186344e-08
8.4675426e-09
-2.9108194e-08
9.2623367e-09
-3.4437581e-08
1.0029372e-08
-4.0158644e-08
1.0766585e-08
-4.6254507e-08
1.1472059e-08
-5.2707349e-08
1.2144025e-08
-5.9498503e-08
1.2780884e-08
-6.6608525e-08
1.338119e-08
-7.4017303e-08
1.394367e-08
-8.1704138e-08
1.4467222e-08
-8.9647838e-08
1.4950914e-08
-9.7826815e-08
1.5393991e-08
-1.0621916e-07
1.5795869e-08
-1.1480274e-07
1.615613e-08
-1.2355532e-07
1.647453e-08
-1.3245458e-07
1.6750979e-08
-1.4147828e-07
1.6985562e-08
-1.5060427e-07
1.7178493e-08
-1.5981062e-07
1.7330157e-08
-1.6907569e-07
1.7441069e-08
-1.7837816e-07
1.751188e-08
-1.8769713e-07
1.7543353e-08
-1.9701217e-07
1.753639e-08
-2.0630339e-07
1.7491986e-08
-2.1555149e-07
1.7411228e-08
-2.2473778e-07
1.7295307e-08
-2.3384425e-07
1.714549e-08
-2.428536e-07
1.6963105e-08
-2.517493e-07
1.6749562e-08
-2.6051556e-07
1.6506291e-08
-2.691374e-07
1.6234803e-08
-2.7760066e-07
1.5936631e-08
-2.8589198e-07
1.5613316e-08
-2.9399886e-07
1.5266461e-08
-3.0190963e-07
1.4897671e-08
-3.0961332e-07
1.4508555e-08
-3.1709985e-07
1.4100649e-08
-3.2436021e-07
1.3675424e-08
-3.3138615e-07
1.323443e-08
-3.3817013e-07
1.2779217e-08
-3.4470544e-07
1.2311299e-08
-3.5098614e-07
1.1832162e-08
-3.5700704e-07
1.1343232e-08
-3.627637e-07
1.0845921e-08
-3.6825239e-07
1.0341552e-08
-3.7347007e-07
9.8314387e-09
-3.7841437e-07
9.3168428e-09
-3.8308356e-07
8.7989618e-09
-3.8747649e-07
8.2789254e-09
-3.9159263e-07
7.7578366e-09
-3.9543197e-07
7.2367295e-09
-3.9899502e-07
6.7165793e-09
-4.022828e-07
6.1983123e-09
-4.0529676e-07
5.682796e-09
-4.0803879e-07
5.1708145e-09
-4.1051118e-07
4.6631597e-09
-4.1271655e-07
4.160489e-09
-4.1465787e-07
3.6634548e-09
-4.1633835e-07
3.1726384e-09
-4.1776146e-07
2.6885391e-09
-4.1893088e-07
2.2116432e-09
-4.1985057e-07
1.7424632e-09
-4.205252e-07
1.281725e-09
-4.2096124e-07
8.3065463e-10
-4.2117068e-07
3.9188142e-10
-4.2117886e-07
-2.5449378e-11
-4.2092921e-07
-4.682055e-10
-4.2045336e-07
-8.8636245e-10
-4.1976157e-07
-1.2921423e-09
-4.1886044e-07
-1.6872902e-09
-2.0724208e-09
-2.5065028e-10
7.164525e-10
-1.0007108e-09
2.1484056e-09
-2.24845e-09
3.5738439e-09
-3.9897782e-09
4.9885715e-09
-6.2193212e-09
6.387922e-09
-8.9302297e-09
7.7675156e-09
-1.2114142e-08
9.1231435e-09
-1.5761261e-08
1.0450727e-08
-1.9860411e-08
1.1746342e-08
-2.4399093e-08
1.3006224e-08
-2.9363551e-08
1.4226795e-08
-3.4738845e-08
1.5404666e-08
-4.0508925e-08
1.6536665e-08
-4.6656709e-08
1.7619843e-08
-5.3164167e-08
1.8651484e-08
-6.0012409e-08
1.9629125e-08
-6.7181772e-08
2.0550552e-08
-7.4651909e-08
2.1413805e-08
-8.2401889e-08
2.2217199e-08
-9.0410279e-08
2.2959307e-08
-9.865525e-08
2.3638962e-08
-1.0711466e-07
2.4255276e-08
-1.1576614e-07
2.4807612e-08
-1.2458721e-07
2.5295597e-08
-1.3355534e-07
2.5719108e-08
-1.4264805e-07
2.6078271e-08
-1.5184299e-07
2.6373432e-08
-1.6111802e-07
2.6605186e-08
-1.7045127e-07
2.6774325e-08
-1.7982125e-07
2.6881855e-08
-1.8920686e-07
2.6928967e-08
-1.9858752e-07
2.6917044e-08
-2.0794315e-07
2.6847615e-08
-2.172543e-07
2.6722381e-08
-2.2650214e-07
2.6543152e-08
-2.3566855e-07
2.631189e-08
-2.4473609e-07
2.6030652e-08
-2.5368812e-07
2.5701583e-08
-2.6250875e-07
2.5326924e-08
-2.7118293e-07
2.4908979e-08
-2.7969639e-07
2.4450088e-08
-2.8803573e-07
2.3952658e-08
-2.9618838e-07
2.3419114e-08
-3.041426e-07
2.2851895e-08
-3.1188749e-07
2.2253441e-08
-3.19413e-07
2.1626165e-08
-3.2671001e-07
2.0972433e-08
-3.337702e-07
2.029462e-08
-3.4058606e-07
1.9595083e-08
-3.471509e-07
1.8876145e-08
-3.5345878e-07
1.814004e-08
-3.5950455e-07
1.7388995e-08
-3.6528377e-07
1.6625143e-08
-3.7079277e-07
1.585055e-08
-3.7602854e-07
1.5067218e-08
-3.8098876e-07
1.4277061e-08
-3.8567172e-07
1.3481924e-08
-3.9007637e-07
1.2683573e-08
-3.9420218e-07
1.1883659e-08
-3.9804925e-07
1.1083796e-08
-4.0161813e-07
1.0285456e-08
-4.049099e-07
9.4900856e-09
-4.0792611e-07
8.6990022e-09
-4.1066873e-07
7.9134282e-09
-4.1314013e-07
7.1345516e-09
-4.1534306e-07
6.3634238e-09
-4.1728065e-07
5.6010466e-09
-4.1895635e-07
4.8483305e-09
-4.2037394e-07
4.1061379e-09
-4.2153756e-07
3.3752674e-09
-4.2245163e-07
2.6565317e-09
-4.2312065e-07
1.9507338e-09
-4.2354868e-07
1.2586761e-09
-4.2373835e-07
5.8155748e-10
-4.2368625e-07
-7.7550151e-11
-4.2341841e-07
-7.3604659e-10
-4.2293068e-07
-1.3740925e-09
-4.2222653e-07
-1.9962942e-09
-4.2131084e-07
-2.6029658e-09
-3.1941954e-09
-2.5186997e-10
9.6832252e-10
-1.0066057e-09
2.9031412e-09
-2.2619199e-09
4.8291583e-09
-4.0138561e-09
6.7405072e-09
-6.2569538e-09
8.63102e-09
-8.984243e-09
1.0494804e-08
-1.2187256e-08
1.2326157e-08
-1.5856082e-08
1.4119553e-08
-1.997941e-08
1.5869671e-08
-2.45446e-08
1.7571415e-08
-2.9537744e-08
1.9219938e-08
-3.4943731e-08
2.0810652e-08
-4.074633e-08
2.2339266e-08
-4.6928276e-08
2.3801788e-08
-5.3471345e-08
2.5194552e-08
-6.0356442e-08
2.6514225e-08
-6.7563702e-08
2.7757814e-08
-7.5072575e-08
2.8922676e-08
-8.2861914e-08
3.0006539e-08
-9.0910087e-08
3.1007478e-08
-9.9195052e-08
3.1923927e-08
-1.0769447e-07
3.275469e-08
-1.1638577e-07
3.3498918e-08
-1.2524629e-07
3.4156117e-08
-1.342533e-07
3.4726125e-08
-1.4338416e-07
3.5209129e-08
-1.5261635e-07
3.5605618e-08
-1.6192756e-07
3.5916395e-08
-1.7129578e-07
3.6142547e-08
-1.8069938e-07
3.6285455e-08
-1.9011714e-07
3.6346735e-08
-1.9952836e-07
3.632826e-08
-2.0891287e-07
3.6232125e-08
-2.1825111e-07
3.6060631e-08
-2.2752421e-07
3.5816247e-08
-2.3671394e-07
3.5501625e-08
-2.4580285e-07
3.511956e-08
-2.5477424e-07
3.4672968e-08
-2.6361219e-07
3.416488e-08
-2.7230162e-07
3.3598408e-08
-2.8082828e-07
3.2976743e-08
-2.8917874e-07
3.2303124e-08
-2.9734046e-07
3.1580829e-08
-3.0530172e-07
3.0813156e-08
-3.1305167e-07
3.000339e-08
-3.2058033e-07
2.9154823e-08
-3.2787858e-07
2.8270682e-08
-3.3493814e-07
2.7354193e-08
-3.4175159e-07
2.6408527e-08
-3.4831225e-07
2.5436796e-08
-3.5461428e-07
2.4442063e-08
-3.6065258e-07
2.3427299e-08
-3.6642283e-07
2.2395388e-08
-3.719214e-07
2.1349121e-08
-3.7714537e-07
2.0291185e-08
-3.820925e-07
1.9224184e-08
-3.8676117e-07
1.8150593e-08
-3.9115039e-07
1.7072793e-08
-3.9525975e-07
1.5993022e-08
-3.9908941e-07
1.4913443e-08
-4.0264002e-07
1.3836057e-08
-4.0591273e-07
1.2762806e-08
-4.0890918e-07
1.1695452e-08
-4.1163141e-07
1.0635667e-08
-4.1408189e-07
9.5850295e-09
-4.1626344e-07
8.5449716e-09
-4.1817924e-07
7.516841e-09
-4.1983281e-07
6.5018986e-09
-4.2122794e-07
5.5012635e-09
-4.2236869e-07
4.5160161e-09
-4.2325928e-07
3.5471363e-09
-4.2390409e-07
2.5955519e-09
-4.2430741e-07
1.66199e-09
-4.2447259e-07
7.4674035e-10
-4.2439896e-07
-1.5117173e-10
-4.2410769e-07
-1.0273134e-09
-4.23596e-07
-1.885791e-09
-4.2286838e-07
-2.7239035e-09
-4.2192995e-07
-3.5414065e-09
-4.3381784e-09
-2.5379906e-10
1.2221215e-09
-1.0145558e-09
3.6638979e-09
-2.2798703e-09
6.0944731e-09
-4.0457781e-09
8.5064148e-09
-6.3067168e-09
1.0891959e-08
-9.0555881e-09
1.3243676e-08
-1.2283783e-08
1.5554352e-08
-1.5981229e-08
1.7816998e-08
-2.0136442e-08
2.0024884e-08
-2.4736585e-08
2.2171559e-08
-2.9767539e-08
2.4250891e-08
-3.5213966e-08
2.625708e-08
-4.1059398e-08
2.8184697e-08
-4.7286316e-08
3.0028706e-08
-5.3876235e-08
3.1784473e-08
-6.0809794e-08
3.3447785e-08
-6.8066851e-08
3.5014869e-08
-7.5626579e-08
3.6482407e-08
-8.346756e-08
3.7847521e-08
-9.1567877e-08
3.9107793e-08
-9.9905218e-08
4.0261269e-08
-1.0845697e-07
4.130644e-08
-1.1720031e-07
4.2242258e-08
-1.261123e-07
4.3068112e-08
-1.3517e-07
4.3783823e-08
-1.4435051e-07
4.4389637e-08
-1.5363108e-07
4.4886191e-08
-1.6298921e-07
4.5274525e-08
-1.724027e-07
4.5556035e-08
-1.8184972e-07
4.5732474e-08
-1.9130889e-07
4.580591e-08
-2.0075937e-07
4.5778737e-08
-2.1018085e-07
4.5653609e-08
-2.1955367e-07
4.5433454e-08
-2.2885884e-07
4.5121415e-08
-2.3807806e-07
4.4720854e-08
-2.4719382e-07
4.4235312e-08
-2.5618934e-07
4.3668502e-08
-2.6504871e-07
4.3024243e-08
-2.7375679e-07
4.2306492e-08
-2.8229933e-07
4.1519288e-08
-2.9066293e-07
4.066672e-08
-2.9883504e-07
3.975294e-08
-3.0680399e-07
3.878211e-08
-3.14559e-07
3.7758397e-08
-3.2209012e-07
3.6685947e-08
-3.2938831e-07
3.5568874e-08
-3.3644536e-07
3.4411239e-08
-3.4325388e-07
3.3217047e-08
-3.4980733e-07
3.1990249e-08
-3.5609992e-07
3.0734667e-08
-3.6212669e-07
2.9454067e-08
-3.678834e-07
2.8152093e-08
-3.7336652e-07
2.6832241e-08
-3.7857324e-07
2.5497911e-08
-3.8350145e-07
2.4152389e-08
-3.8814962e-07
2.2798769e-08
-3.9251689e-07
2.1440057e-08
-3.9660296e-07
2.0079092e-08
-4.0040808e-07
1.8718563e-08
-4.0393303e-07
1.7361002e-08
-4.0717906e-07
1.6008845e-08
-4.1014792e-07
1.4664312e-08
-4.1284176e-07
1.3329503e-08
-4.1526312e-07
1.2006398e-08
-4.1741496e-07
1.0696796e-08
-4.1930051e-07
9.402399e-09
-4.2092336e-07
8.1247481e-09
-4.2228735e-07
6.865257e-09
-4.2339657e-07
5.6252343e-09
-4.2425527e-07
4.4058316e-09
-4.2486781e-07
3.208095e-09
-4.2523861e-07
2.0327873e-09
-4.2537214e-07
8.8027055e-10
-4.252744e-07
-2.4890545e-10
-4.2495079e-07
-1.3509314e-09
-4.244071e-07
-2.4294741e-09
-4.2364815e-07
-3.4828567e-09
-4.22679e-07
-4.510553e-09
-5.5122839e-09
-2.5632248e-10
1.4784439e-09
-1.0247023e-09
4.4322778e-09
-2.3026901e-09
7.3724608e-09
-4.0862651e-09
1.028999e-08
-6.3697518e-09
1.3175445e-08
-9.1459004e-09
1.6019824e-08
-1.2405928e-08
1.8814379e-08
-1.6139561e-08
2.1550631e-08
-2.0335089e-08
2.4220411e-08
-2.4979427e-08
2.6815897e-08
-3.0058185e-08
2.9329648e-08
-3.5555742e-08
3.1754636e-08
-4.1455321e-08
3.4084277e-08
-4.7739084e-08
3.631247e-08
-5.4388213e-08
3.8433602e-08
-6.1383012e-08
4.0442582e-08
-6.8702989e-08
4.2334848e-08
-7.6326969e-08
4.4106385e-08
-8.4233173e-08
4.5753725e-08
-9.239934e-08
4.727396e-08
-1.0080281e-07
4.8664738e-08
-1.0942063e-07
4.9924257e-08
-1.1822964e-07
5.1051273e-08
-1.2720659e-07
5.2045064e-08
-1.3632822e-07
5.2905447e-08
-1.4557132e-07
5.3632743e-08
-1.549129e-07
5.4227762e-08
-1.6433015e-07
5.4691781e-08
-1.7380065e-07
5.5026533e-08
-1.8330234e-07
5.523416e-08
-1.9281364e-07
5.5317211e-08
-2.0231351e-07
5.5278603e-08
-2.1178148e-07
5.5121587e-08
-2.2119775e-07
5.4849721e-08
-2.305432e-07
5.446686e-08
-2.3979944e-07
5.3977085e-08
-2.4894884e-07
5.3384721e-08
-2.5797461e-07
5.2694264e-08
-2.6686075e-07
5.1910379e-08
-2.7559212e-07
5.1037866e-08
-2.8415446e-07
5.0081627e-08
-2.9253437e-07
4.9046632e-08
-3.0071935e-07
4.7937914e-08
-3.0869777e-07
4.6760527e-08
-3.1645889e-07
4.5519519e-08
-3.2399286e-07
4.4219912e-08
-3.312907e-07
4.2866713e-08
-3.3834428e-07
4.1464827e-08
-3.4514635e-07
4.0019114e-08
-3.5169044e-07
3.8534333e-08
-3.579709e-07
3.7015134e-08
-3.6398287e-07
3.5466037e-08
-3.6972224e-07
3.3891469e-08
-3.7518566e-07
3.2295644e-08
-3.8037042e-07
3.0682679e-08
-3.8527454e-07
2.9056512e-08
-3.8989667e-07
2.7420899e-08
-3.9423607e-07
2.5779457e-08
-3.9829257e-07
2.4135593e-08
-4.0206657e-07
2.2492562e-08
-4.0555899e-07
2.0853427e-08
-4.0877124e-07
1.9221088e-08
-4.1170517e-07
1.7598238e-08
-4.1436307e-07
1.59874e-08
-4.1674762e-07
1.4390946e-08
-4.1886186e-07
1.2811047e-08
-4.2070918e-07
1.1249723e-08
-4.2229327e-07
9.7088336e-09
-4.2361806e-07
8.1900483e-09
-4.2468772e-07
6.6949031e-09
-4.2550665e-07
5.2247631e-09
-4.2607938e-07
3.7808116e-09
-4.2641055e-07
2.3639657e-09
-4.2650485e-07
9.7457005e-10
-4.2636772e-07
-3.8603437e-10
-4.2600541e-07
-1.7132343e-09
-4.2542283e-07
-3.0120659e-09
-4.2462517e-07
-4.2805153e-09
-4.2361773e-07
-5.5179888e-09
-6.7241301e-09
-2.5941272e-10
1.7378567e-09
-1.0370658e-09
5.2099309e-09
-2.3304582e-09
8.6658531e-09
-4.1354874e-09
1.2095019e-08
-6.4463407e-09
1.5486299e-08
-9.2555951e-09
1.8829078e-08
-1.2554254e-08
2.2113039e-08
-1.6331802e-08
2.5328179e-08
-2.0576254e-08
2.8464864e-08
-2.5274223e-08
3.1513867e-08
-3.041099e-08
3.4466417e-08
-3.5970579e-08
3.7314225e-08
-4.1935848e-08
4.0049545e-08
-4.8288562e-08
4.2665186e-08
-5.5009504e-08
4.5154546e-08
-6.2078563e-08
4.751164e-08
-6.9474822e-08
4.9731108e-08
-7.7176678e-08
5.1808242e-08
-8.516193e-08
5.3738977e-08
-9.3407883e-08
5.5519915e-08
-1.0189146e-07
5.7148311e-08
-1.1058928e-07
5.8622085e-08
-1.194778e-07
5.9939793e-08
-1.2853337e-07
6.1100633e-08
-1.3773234e-07
6.2104418e-08
-1.4705117e-07
6.2951572e-08
-1.5646649e-07
6.3643084e-08
-1.6595521e-07
6.4180505e-08
-1.7549459e-07
6.4565911e-08
-1.8506231e-07
6.4801874e-08
-1.9463652e-07
6.4891431e-08
-2.0419598e-07
6.4838054e-08
-2.1372e-07
6.4645612e-08
-2.2318862e-07
6.4318348e-08
-2.3258257e-07
6.3860803e-08
-2.4188332e-07
6.3277837e-08
-2.5107316e-07
6.2574567e-08
-2.6013522e-07
6.1756321e-08
-2.6905345e-07
6.0828609e-08
-2.7781269e-07
5.9797105e-08
-2.8639866e-07
5.8667598e-08
-2.9479798e-07
5.744596e-08
-3.029982e-07
5.613813e-08
-3.1098773e-07
5.4750057e-08
-3.1875591e-07
5.32877e-08
-3.2629297e-07
5.175698e-08
-3.3359003e-07
5.0163775e-08
-3.4063909e-07
4.8513883e-08
-3.4743299e-07
4.6813014e-08
-3.5396542e-07
4.5066765e-08
-3.6023088e-07
4.3280589e-08
-3.6622465e-07
4.1459805e-08
-3.7194278e-07
3.9609591e-08
-3.7738205e-07
3.7734927e-08
-3.8253998e-07
3.5840597e-08
-3.8741472e-07
3.3931248e-08
-3.9200509e-07
3.2011265e-08
-3.9631052e-07
3.0084895e-08
-4.0033104e-07
2.8156115e-08
-4.0406721e-07
2.6228735e-08
-4.0752012e-07
2.4306337e-08
-4.1069132e-07
2.2392288e-08
-4.1358284e-07
2.0489758e-08
-4.1619714e-07
1.8601704e-08
-4.1853703e-07
1.6730841e-08
-4.2060573e-07
1.4879745e-08
-4.2240674e-07
1.3050736e-08
-4.2394389e-07
1.1245978e-08
-4.2522124e-07
9.4674047e-09
-4.2624311e-07
7.7167821e-09
-4.2701404e-07
5.9956811e-09
-4.2753865e-07
4.3054336e-09
-4.2782177e-07
2.6470904e-09
-4.2786816e-07
1.0209569e-09
-4.2768392e-07
-5.7027947e-10
-4.2727431e-07
-2.1228456e-09
-4.2664469e-07
-3.6416821e-09
-4.258004e-07
-5.1248082e-09
-4.2474685e-07
-6.5715462e-09
-7.9814867e-09
-2.630704e-10
2.000927e-09
-1.0516845e-09
5.998545e-09
-2.3632773e-09
9.9774464e-09
-4.1936399e-09
1.3925382e-08
-6.5367993e-09
1.7829458e-08
-9.3851275e-09
2.1677406e-08
-1.272938e-08
2.5457292e-08
-1.6558754e-08
2.9157552e-08
-2.0860937e-08
3.2767047e-08
-2.5622185e-08
3.6275115e-08
-3.082739e-08
3.967162e-08
-3.6460158e-08
4.2946992e-08
-4.2502898e-08
4.6092289e-08
-4.8936928e-08
4.9099214e-08
-5.574254e-08
5.1960159e-08
-6.2899136e-08
5.4668234e-08
-7.0385297e-08
5.721727e-08
-7.8178913e-08
5.9601857e-08
-8.6257278e-08
6.181734e-08
-9.4597192e-08
6.3859827e-08
-1.0317508e-07
6.5726197e-08
-1.1196707e-07
6.7414076e-08
-1.2094913e-07
6.8921861e-08
-1.3009717e-07
7.0248665e-08
-1.3938708e-07
7.1394329e-08
-1.487949e-07
7.235939e-08
-1.5829686e-07
7.3145051e-08
-1.678695e-07
7.3753145e-08
-1.7748972e-07
7.4186131e-08
-1.8713488e-07
7.4447033e-08
-1.9678286e-07
7.4539408e-08
-2.0641212e-07
7.4467316e-08
-2.1600177e-07
7.423527e-08
-2.2553164e-07
7.3848204e-08
-2.3498225e-07
7.3311419e-08
-2.4433498e-07
7.2630566e-08
-2.5357199e-07
7.1811572e-08
-2.626763e-07
7.0860636e-08
-2.7163183e-07
6.978414e-08
-2.8042339e-07
6.8588661e-08
-2.8903669e-07
6.72809e-08
-2.9745838e-07
6.5867654e-08
-3.0567604e-07
6.4355782e-08
-3.1367815e-07
6.2752174e-08
-3.2145415e-07
6.1063696e-08
-3.2899436e-07
5.9297192e-08
-3.3629004e-07
5.7459452e-08
-3.433333e-07
5.5557147e-08
-3.5011714e-07
5.3596858e-08
-3.5663541e-07
5.1585035e-08
-3.6288278e-07
4.9527954e-08
-3.6885473e-07
4.7431748e-08
-3.7454747e-07
4.5302333e-08
-3.7995798e-07
4.3145438e-08
-3.8508398e-07
4.0966592e-08
-3.8992381e-07
3.8771078e-08
-3.9447652e-07
3.6563981e-08
-3.9874172e-07
3.4350098e-08
-4.0271965e-07
3.2134046e-08
-4.0641108e-07
2.9920156e-08
-4.0981727e-07
2.7712528e-08
-4.1294e-07
2.5515017e-08
-4.1578148e-07
2.3331234e-08
-4.1834434e-07
2.1164558e-08
-4.206316e-07
1.90181e-08
-4.2264662e-07
1.6894772e-08
-4.243931e-07
1.4797215e-08
-4.2587501e-07
1.2727882e-08
-4.2709659e-07
1.0688977e-08
-4.280623e-07
8.6824918e-09
-4.2877681e-07
6.7101836e-09
-4.2924494e-07
4.7735608e-09
-4.2947162e-07
2.8737704e-09
-4.2946166e-07
1.0110117e-09
-4.2922169e-07
-8.1025485e-10
-4.2875655e-07
-2.5879784e-09
-4.2807177e-07
-4.3264629e-09
-4.2717282e-07
-6.0237641e-09
-4.2606523e-07
-7.6791351e-09
-9.2921697e-09
-2.6730673e-10
2.2682339e-09
-1.0686126e-09
6.7998508e-09
-2.4012775e-09
1.1310111e-08
-4.2609594e-09
1.5785064e-08
-6.6415029e-09
2.0210002e-08
-9.5350401e-09
2.4570943e-08
-1.293204e-08
2.8854292e-08
-1.6821363e-08
3.3046875e-08
-2.119032e-08
3.7136005e-08
-2.6024749e-08
4.1109544e-08
-3.1309087e-08
4.4955958e-08
-3.7026455e-08
4.8664361e-08
-4.3158752e-08
5.2224586e-08
-4.9686752e-08
5.5627214e-08
-5.6590196e-08
5.8863604e-08
-6.3847908e-08
6.1925948e-08
-7.1437897e-08
6.4807257e-08
-7.9337459e-08
6.7501422e-08
-8.7523297e-08
7.0003179e-08
-9.597163e-08
7.2308161e-08
-1.046583e-07
7.4412862e-08
-1.1355887e-07
7.6314651e-08
-1.2264876e-07
7.8011753e-08
-1.3190333e-07
7.9503234e-08
-1.4129798e-07
8.0788973e-08
-1.5080824e-07
8.1869652e-08
-1.6040989e-07
8.2746697e-08
-1.7007903e-07
8.3422288e-08
-1.7979217e-07
8.3899268e-08
-1.8952629e-07
8.4181152e-08
-1.9925893e-07
8.4272049e-08
-2.0896825e-07
8.4176645e-08
-2.1863311e-07
8.3900129e-08
-2.2823308e-07
8.3448169e-08
-2.3774852e-07
8.2826861e-08
-2.4716062e-07
8.2042663e-08
-2.5645142e-07
8.1102372e-08
-2.6560385e-07
8.0013073e-08
-2.7460177e-07
7.878206e-08
-2.8342996e-07
7.7416845e-08
-2.9207413e-07
7.592507e-08
-3.0052096e-07
7.4314485e-08
-3.0875808e-07
7.2592898e-08
-3.1677405e-07
7.0768144e-08
-3.2455841e-07
6.8848061e-08
-3.3210163e-07
6.6840407e-08
-3.3939506e-07
6.4752888e-08
-3.4643102e-07
6.2593101e-08
-3.5320267e-07
6.0368509e-08
-3.5970404e-07
5.8086401e-08
-3.6592999e-07
5.5753919e-08
-3.7187622e-07
5.3377965e-08
-3.7753916e-07
5.0965274e-08
-3.8291604e-07
4.8522323e-08
-3.8800477e-07
4.6055326e-08
-3.9280396e-07
4.3570269e-08
-3.9731285e-07
4.1072873e-08
-4.0153133e-07
3.8568573e-08
-4.0545983e-07
3.6062555e-08
-4.0909937e-07
3.3559695e-08
-4.1245146e-07
3.1064613e-08
-4.1551809e-07
2.8581642e-08
-4.1830169e-07
2.6114833e-08
-4.208051e-07
2.366797e-08
-4.2303156e-07
2.1244558e-08
-4.2498462e-07
1.8847833e-08
-4.2666818e-07
1.6480776e-08
-4.280864e-07
1.4146103e-08
-4.2924369e-07
1.1846269e-08
-4.3014471e-07
9.5835035e-09
-4.3079427e-07
7.3597497e-09
-4.3119738e-07
5.176668e-09
-4.3135909e-07
3.0354793e-09
-4.3128423e-07
9.3614863e-10
-4.3098003e-07
-1.1144523e-09
-4.3045103e-07
-3.116984e-09
-4.2970285e-07
-5.0746395e-09
-4.2874112e-07
-6.9854906e-09
-4.2757148e-07
-8.8487721e-09
-1.0664071e-08
-2.7213833e-10
2.5403721e-09
-1.0879196e-09
7.6156322e-09
-2.4446149e-09
1.2666806e-08
-4.3377297e-09
1.7678178e-08
-6.7608947e-09
2.2633167e-08
-9.705967e-09
2.7516016e-08
-1.3163088e-08
3.2311412e-08
-1.712073e-08
3.7004518e-08
-2.1565775e-08
4.1581051e-08
-2.648358e-08
4.6027348e-08
-3.1858061e-08
5.0330439e-08
-3.7671782e-08
5.4478082e-08
-4.3906055e-08
5.8458858e-08
-5.0541032e-08
6.2262189e-08
-5.7555822e-08
6.5878396e-08
-6.4928593e-08
6.9298718e-08
-7.2636681e-08
7.2515347e-08
-8.0656715e-08
7.5521456e-08
-8.896473e-08
7.8311192e-08
-9.7536262e-08
8.0879693e-08
-1.063465e-07
8.32231e-08
-1.1537036e-07
8.5338516e-08
-1.2458264e-07
8.7224028e-08
-1.3395807e-07
8.8878665e-08
-1.4347148e-07
9.0302378e-08
-1.5309783e-07
9.1496009e-08
-1.628124e-07
9.2461266e-08
-1.7259078e-07
9.3200669e-08
-1.8240902e-07
9.3717511e-08
-1.922437e-07
9.4015825e-08
-2.0207197e-07
9.410032e-08
-2.1187165e-07
9.3976327e-08
-2.216213e-07
9.3649777e-08
-2.3130023e-07
9.3127102e-08
-2.4088859e-07
9.2415218e-08
-2.5036738e-07
9.1521449e-08
-2.5971851e-07
9.0453498e-08
-2.6892481e-07
8.921937e-08
-2.7797006e-07
8.7827315e-08
-2.8683902e-07
8.6285804e-08
-2.9551741e-07
8.4603457e-08
-3.0399193e-07
8.2789012e-08
-3.122503e-07
8.0851263e-08
-3.2028117e-07
7.8799017e-08
-3.2807419e-07
7.6641081e-08
-3.3561997e-07
7.4386186e-08
-3.4291006e-07
7.204298e-08
-3.4993694e-07
6.9619974e-08
-3.5669396e-07
6.7125528e-08
-3.6317539e-07
6.456783e-08
-3.6937632e-07
6.1954845e-08
-3.7529267e-07
5.9294323e-08
-3.8092115e-07
5.6593753e-08
-3.8625922e-07
5.3860386e-08
-3.9130506e-07
5.1101164e-08
-3.9605756e-07
4.8322759e-08
-4.0051621e-07
4.5531526e-08
-4.0468118e-07
4.2733545e-08
-4.0855318e-07
3.9934546e-08
-4.1213346e-07
3.7139981e-08
-4.1542381e-07
3.4354952e-08
-4.1842645e-07
3.158429e-08
-4.2114409e-07
2.883248e-08
-4.2357982e-07
2.6103702e-08
-4.2573709e-07
2.3401836e-08
-4.2761972e-07
2.0730454e-08
-4.2923178e-07
1.809284e-08
-4.3057767e-07
1.5491995e-08
-4.3166201e-07
1.2930616e-08
-4.3248964e-07
1.0411143e-08
-4.3306558e-07
7.9356884e-09
-4.33395e-07
5.5060818e-09
-4.334831e-07
3.1235849e-09
-4.3333464e-07
7.8768613e-10
-4.3295768e-07
-1.4914053e-09
-4.3235636e-07
-3.7183127e-09
-4.3153647e-07
-5.8945319e-09
-4.3050376e-07
-8.018192e-09
-4.29264e-07
-1.0088541e-08
-1.2105142e-08
-2.7758566e-10
2.8179578e-09
-1.1096876e-09
8.4477341e-09
-2.4934756e-09
1.4050595e-08
-4.4242773e-09
1.9608981e-08
-6.8954822e-09
2.5104372e-08
-9.8986365e-09
3.051917e-08
-1.3423503e-08
3.583628e-08
-1.7458124e-08
4.1039137e-08
-2.1988884e-08
4.6111811e-08
-2.7000597e-08
5.1039062e-08
-3.2476589e-08
5.580643e-08
-3.8398791e-08
6.0400285e-08
-4.4747845e-08
6.4807913e-08
-5.1503207e-08
6.9017551e-08
-5.8643259e-08
7.3018448e-08
-6.6145427e-08
7.6800885e-08
-7.3986294e-08
8.0356217e-08
-8.2141731e-08
8.3676892e-08
-9.0587001e-08
8.6756461e-08
-9.9296894e-08
8.9589591e-08
-1.0824585e-07
9.2172051e-08
-1.1740805e-07
9.450072e-08
-1.2675758e-07
9.6573553e-08
-1.3626848e-07
9.8389571e-08
-1.4591493e-07
9.9948823e-08
-1.5567128e-07
1.0125236e-07
-1.6551218e-07
1.0230217e-07
-1.7541271e-07
1.0310119e-07
-1.8534839e-07
1.0365319e-07
-1.9529533e-07
1.0396276e-07
-2.0523026e-07
1.0403525e-07
-2.1513063e-07
1.038767e-07
-2.2497466e-07
1.0349381e-07
-2.3474137e-07
1.0289382e-07
-2.4441069e-07
1.0208452e-07
-2.539634e-07
1.0107416e-07
-2.6338126e-07
9.9871371e-08
-2.7264702e-07
9.8485123e-08
-2.8174437e-07
9.6924667e-08
-2.9065804e-07
9.5199483e-08
-2.9937378e-07
9.3319194e-08
-3.0787833e-07
9.1293572e-08
-3.1615948e-07
8.9132411e-08
-3.2420601e-07
8.6845546e-08
-3.3200771e-07
8.4442776e-08
-3.3955535e-07
8.1933826e-08
-3.4684066e-07
7.9328296e-08
-3.5385634e-07
7.6635657e-08
-3.6059599e-07
7.3865178e-08
-3.6705411e-07
7.102595e-08
-3.7322607e-07
6.8126804e-08
-3.7910805e-07
6.5176304e-08
-3.8469706e-07
6.2182759e-08
-3.8999083e-07
5.9154158e-08
-3.9498784e-07
5.6098185e-08
-3.9968729e-07
5.3022206e-08
-4.0408898e-07
4.9933216e-08
-4.0819335e-07
4.6837919e-08
-4.1200143e-07
4.3742629e-08
-4.1551478e-07
4.0653327e-08
-4.1873546e-07
3.7575641e-08
-4.2166601e-07
3.4514836e-08
-4.2430938e-07
3.1475853e-08
-4.2666895e-07
2.8463262e-08
-4.2874843e-07
2.5481319e-08
-4.305519e-07
2.2533918e-08
-4.3208369e-07
1.9624627e-08
-4.3334841e-07
1.675672e-08
-4.3435093e-07
1.3933129e-08
-4.3509629e-07
1.1156508e-08
-4.3558975e-07
8.4291428e-09
-4.3583664e-07
5.7529752e-09
-4.3584239e-07
3.1293382e-09
-4.356115e-07
5.5680871e-10
-4.3515318e-07
-1.9497277e-09
-4.34471e-07
-4.4004864e-09
-4.3357098e-07
-6.7945586e-09
-4.3245898e-07
-9.1301921e-09
-4.3114092e-07
-1.1406606e-08
-1.3623391e-08
-2.8367288e-10
3.1016307e-09
-1.1340115e-09
9.2980726e-09
-2.5480706e-09
1.5464654e-08
-4.5209784e-09
2.1581888e-08
-7.0458486e-09
2.7629242e-08
-1.0113878e-08
3.35872e-08
-1.3714408e-08
3.9436808e-08
-1.7834984e-08
4.5159714e-08
-2.246144e-08
5.0738267e-08
-2.7577976e-08
5.6155599e-08
-3.3167251e-08
6.1395706e-08
-3.9210489e-08
6.6443522e-08
-4.5687573e-08
7.1284996e-08
-5.2577174e-08
7.5907153e-08
-5.9856864e-08
8.0298136e-08
-6.7503229e-08
8.4447251e-08
-7.5492011e-08
8.8345e-08
-8.3798219e-08
9.1983099e-08
-9.2396269e-08
9.5354511e-08
-1.012601e-07
9.845342e-08
-1.1036331e-07
1.0127526e-07
-1.1967928e-07
1.0381669e-07
-1.2918127e-07
1.0607555e-07
-1.3884259e-07
1.0805089e-07
-1.4863666e-07
1.0974289e-07
-1.5853714e-07
1.1115283e-07
-1.6851803e-07
1.1228307e-07
-1.7855379e-07
1.1313695e-07
-1.8861939e-07
1.1371879e-07
-1.9869041e-07
1.1403378e-07
-2.0874311e-07
1.1408796e-07
-2.1875454e-07
1.1388813e-07
-2.2870254e-07
1.1344181e-07
-2.3856583e-07
1.1275711e-07
-2.4832405e-07
1.1184274e-07
-2.579578e-07
1.1070792e-07
-2.6744869e-07
1.0936225e-07
-2.7677932e-07
1.0781575e-07
-2.8593333e-07
1.0607868e-07
-2.9489544e-07
1.0416159e-07
-3.036514e-07
1.0207516e-07
-3.1218804e-07
9.98302e-08
-3.2049321e-07
9.7437582e-08
-3.2855584e-07
9.4908185e-08
-3.3636589e-07
9.2252825e-08
-3.4391432e-07
8.9482253e-08
-3.5119308e-07
8.6607065e-08
-3.5819512e-07
8.363769e-08
-3.649143e-07
8.0584347e-08
-3.7134538e-07
7.745704e-08
-3.7748404e-07
7.4265462e-08
-3.8332679e-07
7.1019047e-08
-3.8887091e-07
6.7726887e-08
-3.9411452e-07
6.4397767e-08
-3.9905641e-07
6.1040071e-08
-4.0369609e-07
5.7661882e-08
-4.0803372e-07
5.427085e-08
-4.1207008e-07
5.0874278e-08
-4.1580652e-07
4.7479073e-08
-4.1924495e-07
4.4091747e-08
-4.2238773e-07
4.0718425e-08
-4.2523773e-07
3.7364839e-08
-4.2779823e-07
3.4036357e-08
-4.3007289e-07
3.0737928e-08
-4.3206573e-07
2.7474156e-08
-4.3378107e-07
2.4249261e-08
-4.3522355e-07
2.1067111e-08
-4.3639805e-07
1.7931218e-08
-4.3730968e-07
1.4844757e-08
-4.379637e-07
1.1810537e-08
-4.3836561e-07
8.8310522e-09
-4.3852098e-07
5.9083546e-09
-4.3843549e-07
3.0438311e-09
-4.3811324e-07
2.345581e-10
-4.3756488e-07
-2.4981019e-09
-4.3679319e-07
-5.1721631e-09
-4.3580448e-07
-7.7832683e-09
-4.3460478e-07
-1.0329896e-08
-4.3320014e-07
-1.2811249e-08
-1.5226936e-08
-2.904272e-10
3.3920579e-09
-1.1609988e-09
1.0168644e-08
-2.6086385e-09
1.6912293e-08
-4.6282532e-09
2.3601504e-08
-7.2126501e-09
3.0213638e-08
-1.0352629e-08
3.6727179e-08
-1.4037058e-08
4.3121236e-08
-1.8252932e-08
4.9375589e-08
-2.2985465e-08
5.54708e-08
-2.8218171e-08
6.1388304e-08
-3.3932963e-08
6.7110498e-08
-4.0110265e-08
7.2620823e-08
-4.6729123e-08
7.7903854e-08
-5.3767327e-08
8.2945358e-08
-6.1201539e-08
8.7732349e-08
-6.9007417e-08
9.225313e-08
-7.7159756e-08
9.6497337e-08
-8.5632613e-08
1.0045596e-07
-9.4399451e-08
1.0412135e-07
-1.0343327e-07
1.0748724e-07
-1.1270673e-07
1.1054872e-07
-1.221923e-07
1.1330226e-07
-1.3186238e-07
1.1574563e-07
-1.416894e-07
1.1787792e-07
-1.5164599e-07
1.1969948e-07
-1.6170503e-07
1.2121188e-07
-1.7183982e-07
1.2241785e-07
-1.820241e-07
1.2332124e-07
-1.9223225e-07
1.2392694e-07
-2.0243928e-07
1.2424081e-07
-2.1262095e-07
1.2426962e-07
-2.2275382e-07
1.2402101e-07
-2.3281537e-07
1.2350335e-07
-2.4278396e-07
1.227257e-07
-2.5263898e-07
1.2169775e-07
-2.6236078e-07
1.2042972e-07
-2.7193079e-07
1.1893227e-07
-2.8133151e-07
1.1721647e-07
-2.9054653e-07
1.152937e-07
-2.9956053e-07
1.1317559e-07
-3.0835931e-07
1.1087394e-07
-3.1692976e-07
1.0840064e-07
-3.2525986e-07
1.0576769e-07
-3.333387e-07
1.0298702e-07
-3.4115641e-07
1.0007054e-07
-3.4870418e-07
9.7030031e-08
-3.5597423e-07
9.3877107e-08
-3.6295975e-07
9.0623213e-08
-3.6965492e-07
8.7279518e-08
-3.7605482e-07
8.3856945e-08
-3.8215546e-07
8.0366102e-08
-3.8795368e-07
7.6817264e-08
-3.9344715e-07
7.3220357e-08
-3.9863432e-07