/*--------------------------------*- C++ -*----------------------------------*\
| =========                 |                                                 |
| \\      /  F ield         | OpenFOAM: The Open Source CFD Toolbox           |
|  \\    /   O peration     | Version:  2306                                  |
|   \\  /    A nd           | Website:  www.openfoam.com                      |
|    \\/     M anipulation  |                                                 |
\*---------------------------------------------------------------------------*/
FoamFile
{
    version     2.0;
    format      ascii;
    arch        "LSB;label=32;scalar=64";
    class       volVectorField;
    location    "0.33";
    object      U_0;
}
// * * * * * * * * * * * * * * * * * * * * * * * * * * * * * * * * * * * * * //

dimensions      [0 1 -1 0 0 0 0];

internalField   nonuniform List<vector> 
51200
(
(-3.7997847e-06 -1.0001958e-05 2.3504901e-20)
(-1.4822831e-05 -5.3198134e-06 -2.3657467e-21)
(-2.9112327e-05 -4.3949093e-06 -1.2440755e-20)
(-4.3921482e-05 -3.2236025e-06 1.2581979e-20)
(-6.0513983e-05 -2.5426535e-06 2.0939194e-20)
(-7.7463377e-05 -2.2388729e-06 -9.1891963e-21)
(-9.4507797e-05 -2.0539971e-06 -5.2557687e-21)
(-0.00011155894 -1.9246389e-06 9.3631238e-21)
(-0.00012859217 -1.8207474e-06 1.3393012e-20)
(-0.00014560799 -1.7274069e-06 -4.6652888e-21)
(-0.00016261712 -1.6383906e-06 -9.2687252e-21)
(-0.00017963259 -1.5519908e-06 3.9804723e-20)
(-0.00019666684 -1.468284e-06 2.2145428e-20)
(-0.00021373119 -1.3862454e-06 -2.5831766e-20)
(-0.00023083304 -1.3017451e-06 -1.806885e-20)
(-0.00024797363 -1.2097428e-06 2.163926e-20)
(-0.00026514951 -1.1072218e-06 5.348958e-20)
(-0.0002823552 -9.9398677e-07 -3.4363801e-21)
(-0.00029958454 -8.7155284e-07 -4.1655945e-20)
(-0.00031683035 -7.4190067e-07 5.0828469e-22)
(-0.0003340839 -6.0688049e-07 7.2694527e-21)
(-0.00035133473 -4.6804678e-07 1.390354e-20)
(-0.00036857063 -3.2668991e-07 7.3818286e-20)
(-0.00038577778 -1.8391429e-07 1.216505e-19)
(-0.00040294077 -4.0713152e-08 1.243648e-19)
(-0.00042004272 1.0203802e-07 -1.2818082e-19)
(-0.00043706546 2.4351964e-07 -3.5075224e-19)
(-0.0004539896 3.8298714e-07 -9.8920581e-20)
(-0.00047079469 5.1975312e-07 1.2523717e-19)
(-0.00048745938 6.5318487e-07 2.0337069e-19)
(-0.00050396157 7.8270089e-07 1.620708e-19)
(-0.0005202785 9.0775867e-07 -6.8727689e-20)
(-0.00053638693 1.0278752e-06 -6.2446142e-20)
(-0.00055226329 1.1426091e-06 -1.7295739e-19)
(-0.00056788377 1.2515626e-06 -1.373488e-19)
(-0.00058322452 1.3543898e-06 2.4361993e-19)
(-0.00059826174 1.4507933e-06 -4.0680168e-20)
(-0.00061297185 1.5405163e-06 -5.0449505e-19)
(-0.00062733161 1.6233505e-06 1.6157989e-19)
(-0.00064131821 1.6991363e-06 6.8404722e-19)
(-0.00065490949 1.7677537e-06 1.1789468e-19)
(-0.00066808394 1.8291272e-06 -3.1030153e-19)
(-0.0006808209 1.8832263e-06 -2.6058065e-19)
(-0.00069310062 1.9300551e-06 -1.2874102e-19)
(-0.00070490436 1.9696639e-06 2.30768e-19)
(-0.00071621447 2.0021303e-06 6.497348e-19)
(-0.00072701452 2.0275694e-06 -1.6803793e-19)
(-0.00073728929 2.046134e-06 -2.8989628e-19)
(-0.00074702487 2.057997e-06 -2.1524521e-19)
(-0.00075620875 2.063366e-06 -8.8002952e-19)
(-0.00076482978 2.0624675e-06 4.2311823e-19)
(-0.00077287827 2.0555558e-06 6.8177668e-19)
(-0.00078034599 2.0429008e-06 6.1022734e-20)
(-0.00078722616 2.0247892e-06 2.6715937e-19)
(-0.00079351349 2.0015207e-06 -7.7587583e-19)
(-0.00079920416 1.9734167e-06 -6.1078191e-19)
(-0.00080429583 1.9407951e-06 5.8597813e-19)
(-0.00080878758 1.9039804e-06 2.2419205e-19)
(-0.0008126799 1.8633199e-06 -6.6850989e-20)
(-0.00081597467 1.8191367e-06 1.0234422e-19)
(-0.00081867509 1.7717791e-06 -4.8996802e-20)
(-0.00082078568 1.7215783e-06 5.7690396e-20)
(-0.00082231218 1.6688698e-06 -4.3647639e-20)
(-0.00082326151 1.6139773e-06 -4.0037752e-19)
(-0.00082364171 1.5572276e-06 -5.3936361e-19)
(-0.00082346188 1.4989276e-06 7.0566259e-20)
(-0.00082273212 1.439386e-06 9.307587e-19)
(-0.00082146342 1.3789e-06 5.3928673e-21)
(-0.00081966766 1.3177503e-06 -3.8138346e-19)
(-0.00081735746 1.2562104e-06 5.3900735e-19)
(-0.00081454618 1.1945451e-06 -8.1631551e-20)
(-0.00081124782 1.133002e-06 -3.6387432e-19)
(-0.00080747695 1.0718196e-06 1.3657677e-19)
(-0.00080324865 1.011224e-06 1.8782323e-19)
(-0.00079857841 9.5142746e-07 2.1754027e-19)
(-0.00079348212 8.9263443e-07 -3.9708832e-19)
(-0.00078797597 8.3507642e-07 -4.0574559e-19)
(-0.00078207653 7.7904516e-07 3.121462e-19)
(-0.00077580077 7.2494317e-07 4.2111696e-19)
(-0.00076916615 6.733233e-07 -2.1533423e-19)
(-0.00076219052 6.2485169e-07 -7.3386913e-19)
(-0.00075489144 5.8008189e-07 3.1572442e-19)
(-0.00074728391 5.3990166e-07 5.8654076e-19)
(-0.00073937702 5.0660821e-07 1.4911215e-21)
(-0.00073117347 4.9776506e-07 1.5997885e-19)
(-0.00072268559 4.6578114e-07 -2.3893954e-19)
(-0.00071395839 3.928588e-07 3.1629763e-20)
(-0.0007050203 3.1240983e-07 1.4335605e-20)
(-0.00069587138 2.3350336e-07 -4.3879011e-19)
(-0.00068652231 1.5848566e-07 9.4740333e-20)
(-0.00067698665 8.774124e-08 -2.8834172e-19)
(-0.0006672784 2.1025724e-08 -1.8353058e-19)
(-0.00065741139 -4.2002188e-08 4.4265633e-19)
(-0.00064739912 -1.0165091e-07 2.423389e-19)
(-0.00063725464 -1.5816576e-07 -6.2586452e-20)
(-0.00062699056 -2.117424e-07 -4.3983978e-19)
(-0.00061661901 -2.625431e-07 6.1325152e-20)
(-0.0006061517 -3.107056e-07 3.6972593e-19)
(-0.00059559985 -3.5633437e-07 1.8590633e-19)
(-0.00058497422 -3.9954868e-07 -1.3320976e-19)
(-0.00057428512 -4.4043763e-07 -4.9709656e-19)
(-0.00056354241 -4.7909657e-07 1.3411811e-19)
(-0.00055275549 -5.1560469e-07 2.4699308e-19)
(-0.00054193329 -5.5005341e-07 1.2663677e-19)
(-0.00053108433 -5.8252069e-07 -4.3857275e-20)
(-0.00052021668 -6.1309153e-07 -5.0592155e-19)
(-0.00050933797 -6.4182815e-07 1.2005771e-19)
(-0.00049845542 -6.6882284e-07 3.4576204e-19)
(-0.00048757584 -6.9414411e-07 6.6014059e-20)
(-0.00047670562 -7.1786017e-07 3.9576683e-20)
(-0.00046585079 -7.4004793e-07 -3.6839081e-19)
(-0.00045501696 -7.607708e-07 -1.6653113e-19)
(-0.0004442094 -7.8010853e-07 2.3969702e-19)
(-0.000433433 -7.9811609e-07 8.1002284e-20)
(-0.00042269231 -8.1486069e-07 3.4580381e-20)
(-0.00041199156 -8.3040448e-07 -7.14627e-20)
(-0.00040133462 -8.448127e-07 8.589824e-21)
(-0.0003907251 -8.5814071e-07 1.1213694e-19)
(-0.00038016626 -8.7044522e-07 -1.3845635e-20)
(-0.0003696611 -8.8178216e-07 7.0800611e-21)
(-0.00035921233 -8.9220415e-07 -8.6415642e-20)
(-0.00034882242 -9.0176136e-07 -9.9139121e-21)
(-0.00033849357 -9.1050391e-07 9.9582397e-20)
(-0.00032822773 -9.1847279e-07 4.2666055e-20)
(-0.00031802665 -9.2571344e-07 -2.5822598e-20)
(-0.00030789184 -9.3226469e-07 -1.7440679e-19)
(-0.0002978246 -9.3816412e-07 -2.4269692e-20)
(-0.00028782606 -9.4344335e-07 1.3982346e-19)
(-0.00027789713 -9.4813401e-07 5.4104238e-20)
(-0.00026803857 -9.5225673e-07 -4.2967662e-20)
(-0.00025825096 -9.5583427e-07 -8.8897154e-20)
(-0.00024853474 -9.5888418e-07 1.8934408e-20)
(-0.00023889019 -9.614372e-07 6.2563252e-20)
(-0.00022931748 -9.6352127e-07 -2.5769934e-20)
(-0.00021981662 -9.6517607e-07 -8.2296776e-20)
(-0.00021038752 -9.6643181e-07 -1.9606723e-20)
(-0.00020102996 -9.6731659e-07 7.6161892e-20)
(-0.00019174363 -9.678618e-07 3.6305808e-20)
(-0.00018252813 -9.6809188e-07 5.9071802e-21)
(-0.00017338296 -9.6803182e-07 -4.9220697e-21)
(-0.00016430754 -9.6770253e-07 -3.5335429e-20)
(-0.00015530123 -9.6712529e-07 2.7502224e-20)
(-0.0001463633 -9.663173e-07 1.9686423e-20)
(-0.00013749301 -9.653022e-07 -1.1014551e-20)
(-0.00012868952 -9.6408451e-07 9.3248246e-21)
(-0.00011995202 -9.6267655e-07 -5.5697941e-20)
(-0.00011127963 -9.6108916e-07 -1.6844627e-20)
(-0.00010267151 -9.593161e-07 6.2212421e-20)
(-9.412685e-05 -9.5733886e-07 2.3533417e-20)
(-8.5644977e-05 -9.5510154e-07 -2.0338076e-20)
(-7.7225473e-05 -9.524639e-07 -3.8395311e-20)
(-6.8868496e-05 -9.4909132e-07 -6.6198246e-21)
(-6.0575394e-05 -9.4421509e-07 2.8786514e-20)
(-5.2350002e-05 -9.3605822e-07 9.1244315e-21)
(-4.420106e-05 -9.2082625e-07 -5.9658284e-21)
(-3.6145916e-05 -8.9153074e-07 -1.0949992e-20)
(-2.8213572e-05 -8.4069184e-07 -4.5885593e-21)
(-2.0436401e-05 -7.8640593e-07 5.1493278e-21)
(-1.2744095e-05 -9.2831071e-07 1.6268201e-21)
(-4.4565661e-06 -1.8935713e-06 -3.6080612e-21)
(-3.0625107e-05 4.2737381e-05 3.707711e-20)
(-7.4576055e-05 5.2636577e-05 -9.363706e-23)
(-0.00012591182 5.6608736e-05 6.9217947e-21)
(-0.00017680978 6.074122e-05 5.925353e-20)
(-0.00023062434 6.3314525e-05 4.349197e-20)
(-0.00028499282 6.4699795e-05 -2.1156467e-20)
(-0.00033953577 6.5507277e-05 2.0131292e-20)
(-0.0003940871 6.6007282e-05 1.7823337e-21)
(-0.00044854909 6.6336608e-05 -8.0449292e-21)
(-0.00050285775 6.6568107e-05 4.2699883e-20)
(-0.00055697271 6.6739497e-05 3.039213e-20)
(-0.00061086495 6.6869387e-05 7.7888865e-20)
(-0.00066450843 6.6966727e-05 1.2109561e-19)
(-0.00071787586 6.7036712e-05 1.098952e-19)
(-0.00077093882 6.708401e-05 4.4452874e-20)
(-0.00082366906 6.7112183e-05 7.6525011e-20)
(-0.00087603785 6.7122261e-05 1.791635e-19)
(-0.00092801442 6.7112732e-05 9.7447808e-21)
(-0.00097956508 6.7080659e-05 -1.9488694e-19)
(-0.0010306534 6.7022759e-05 -8.4263858e-20)
(-0.0010812408 6.6935872e-05 1.3439013e-20)
(-0.0011312866 6.6817135e-05 2.4004844e-20)
(-0.001180749 6.6663866e-05 1.3999147e-19)
(-0.0012295845 6.6473482e-05 2.9916629e-19)
(-0.0012777485 6.6243505e-05 1.4627512e-19)
(-0.0013251954 6.5971636e-05 -4.3578073e-19)
(-0.0013718788 6.5655747e-05 -4.9537492e-19)
(-0.0014177516 6.529391e-05 -1.934915e-19)
(-0.0014627663 6.4884435e-05 -1.2468873e-19)
(-0.0015068751 6.4425862e-05 5.5255305e-19)
(-0.0015500305 6.3916974e-05 6.8181622e-19)
(-0.0015921851 6.3356797e-05 -3.4819185e-19)
(-0.0016332919 6.2744619e-05 -6.7677906e-19)
(-0.0016733047 6.2079989e-05 -2.3525764e-19)
(-0.0017121785 6.1362709e-05 4.7564983e-19)
(-0.0017498691 6.0592859e-05 3.7225194e-19)
(-0.0017863341 5.9770769e-05 -5.9112762e-19)
(-0.0018215324 5.8897037e-05 -8.6351518e-19)
(-0.001855425 5.7972504e-05 5.9664443e-19)
(-0.0018879749 5.6998269e-05 8.6480739e-19)
(-0.0019191472 5.5975657e-05 -1.0057504e-18)
(-0.0019489096 5.4906219e-05 -3.4201299e-19)
(-0.001977232 5.3791727e-05 1.5631146e-18)
(-0.0020040874 5.2634138e-05 2.0747467e-18)
(-0.0020294514 5.1435608e-05 -2.5620813e-20)
(-0.0020533024 5.0198444e-05 -3.2164238e-18)
(-0.002075622 4.8925112e-05 -1.8584392e-18)
(-0.0020963947 4.7618219e-05 1.4366253e-18)
(-0.0021156083 4.6280474e-05 1.4522645e-18)
(-0.0021332536 4.4914703e-05 -7.9703091e-19)
(-0.0021493246 4.3523799e-05 -1.3283867e-18)
(-0.0021638184 4.211072e-05 1.4803992e-18)
(-0.0021767353 4.0678467e-05 1.9241791e-18)
(-0.0021880787 3.9230074e-05 -3.141569e-19)
(-0.0021978552 3.7768574e-05 -1.2325349e-18)
(-0.002206074 3.6297013e-05 -1.3532927e-18)
(-0.0022127476 3.4818389e-05 -1.770082e-19)
(-0.0022178911 3.3335667e-05 1.4442365e-18)
(-0.0022215224 3.1851788e-05 5.709739e-19)
(-0.002223662 3.0369573e-05 -1.4026408e-18)
(-0.0022243327 2.8891819e-05 -5.3144778e-19)
(-0.0022235598 2.7421202e-05 1.5200283e-18)
(-0.0022213708 2.5960311e-05 4.0832351e-19)
(-0.0022177952 2.4511617e-05 -1.8323672e-18)
(-0.0022128644 2.3077475e-05 -1.0309657e-18)
(-0.0022066115 2.1660136e-05 1.0891535e-18)
(-0.0021990714 2.0261702e-05 1.3497023e-18)
(-0.00219028 1.8884169e-05 3.3129166e-19)
(-0.002180275 1.752938e-05 -7.3627719e-19)
(-0.0021690948 1.6199063e-05 -1.4655943e-18)
(-0.002156779 1.4894824e-05 1.3921448e-19)
(-0.0021433679 1.3618134e-05 1.1021673e-18)
(-0.0021289026 1.2370353e-05 4.4248986e-20)
(-0.0021134247 1.1152709e-05 2.0658437e-19)
(-0.0020969762 9.966319e-06 4.741176e-19)
(-0.0020795994 8.8122026e-06 1.4736657e-19)
(-0.0020613365 7.6913524e-06 -7.3352625e-19)
(-0.0020422301 6.6047852e-06 -9.1583045e-19)
(-0.0020223224 5.5536099e-06 1.294228e-19)
(-0.0020016557 4.5390482e-06 3.9959257e-19)
(-0.0019802714 3.5621872e-06 5.2328721e-20)
(-0.0019582088 2.6230082e-06 2.1851475e-19)
(-0.0019355033 1.7167045e-06 2.5507302e-19)
(-0.0019121728 8.2689685e-07 -6.1579704e-19)
(-0.001888297 -6.1284166e-08 -7.6419096e-20)
(-0.0018639455 -9.2857573e-07 5.8007046e-19)
(-0.0018391012 -1.7767139e-06 -3.7681597e-19)
(-0.0018137855 -2.5903212e-06 2.5273315e-19)
(-0.0017880506 -3.3669911e-06 2.4944339e-19)
(-0.0017619359 -4.1072629e-06 -6.1453772e-19)
(-0.0017354764 -4.8123164e-06 -4.4396273e-19)
(-0.0017087048 -5.4834474e-06 -1.5190692e-19)
(-0.0016816525 -6.1218662e-06 4.6757592e-19)
(-0.0016543496 -6.7287203e-06 1.4925813e-19)
(-0.0016268252 -7.3050681e-06 -1.633441e-19)
(-0.0015991072 -7.8519294e-06 -2.1476068e-21)
(-0.0015712224 -8.3702935e-06 1.3434406e-19)
(-0.0015431965 -8.8611304e-06 3.8570476e-19)
(-0.001515054 -9.3253782e-06 -2.1804446e-19)
(-0.0014868183 -9.7639838e-06 -5.7125117e-19)
(-0.0014585118 -1.0177878e-05 -6.3566831e-20)
(-0.0014301555 -1.0567982e-05 4.1752263e-19)
(-0.0014017698 -1.0935184e-05 3.855203e-19)
(-0.0013733736 -1.1280407e-05 -7.8427056e-20)
(-0.0013449849 -1.1604527e-05 -3.9740837e-19)
(-0.0013166207 -1.1908426e-05 -2.9596091e-19)
(-0.001288297 -1.2192945e-05 2.3106453e-19)
(-0.0012600289 -1.2458947e-05 6.0325972e-19)
(-0.0012318303 -1.270726e-05 6.0842518e-20)
(-0.0012037144 -1.2938684e-05 -4.2423322e-19)
(-0.0011756934 -1.3154019e-05 -1.8609971e-19)
(-0.0011477788 -1.3354042e-05 -1.0905925e-19)
(-0.001119981 -1.3539511e-05 3.6428016e-19)
(-0.0010923097 -1.3711155e-05 4.6471554e-19)
(-0.001064774 -1.3869688e-05 -2.5491371e-19)
(-0.0010373819 -1.4015801e-05 -4.3063742e-19)
(-0.001010141 -1.4150177e-05 -8.3958636e-20)
(-0.00098305802 -1.4273454e-05 3.9356062e-19)
(-0.00095613911 -1.4386266e-05 1.3336598e-19)
(-0.00092938974 -1.4489218e-05 -4.7567503e-19)
(-0.00090281478 -1.4582909e-05 -1.5021064e-19)
(-0.00087641853 -1.4667883e-05 4.1783009e-19)
(-0.00085020475 -1.4744699e-05 3.4745083e-19)
(-0.00082417665 -1.4813873e-05 -2.0863339e-19)
(-0.00079833697 -1.4875913e-05 -5.1789969e-19)
(-0.00077268796 -1.4931299e-05 -4.8577371e-20)
(-0.00074723143 -1.4980502e-05 3.6939426e-19)
(-0.00072196878 -1.5023962e-05 2.0699307e-19)
(-0.00069690099 -1.5062113e-05 -7.7014959e-20)
(-0.00067202868 -1.5095365e-05 -2.4391218e-19)
(-0.00064735212 -1.512412e-05 -9.3495397e-20)
(-0.00062287127 -1.5148754e-05 2.6358953e-19)
(-0.00059858578 -1.5169623e-05 2.5733174e-19)
(-0.00057449501 -1.5187053e-05 -8.4609231e-20)
(-0.00055059804 -1.5201351e-05 -3.1829485e-19)
(-0.00052689368 -1.5212808e-05 -5.7365486e-20)
(-0.00050338054 -1.5221691e-05 2.1005296e-19)
(-0.00048005699 -1.5228263e-05 9.1760666e-20)
(-0.0004569212 -1.5232763e-05 -2.3287799e-20)
(-0.00043397119 -1.5235415e-05 -5.9619621e-20)
(-0.00041120478 -1.5236431e-05 -2.7995043e-20)
(-0.00038861969 -1.5235997e-05 1.6921827e-20)
(-0.00036621346 -1.5234295e-05 4.8032624e-20)
(-0.00034398357 -1.5231489e-05 -2.8505711e-20)
(-0.00032192738 -1.5227701e-05 -9.6921365e-20)
(-0.00030004221 -1.5223043e-05 -2.2670078e-20)
(-0.00027832532 -1.5217591e-05 7.6698774e-20)
(-0.00025677399 -1.5211355e-05 9.0635832e-20)
(-0.00023538557 -1.5204255e-05 -2.7810124e-20)
(-0.00021415758 -1.5196024e-05 -9.6123078e-20)
(-0.00019308783 -1.5186047e-05 -9.5877835e-21)
(-0.00017217473 -1.5173001e-05 5.7472868e-20)
(-0.00015141764 -1.5154244e-05 3.5721757e-20)
(-0.00013081734 -1.5124725e-05 -1.3965948e-20)
(-0.00011037626 -1.5075785e-05 -2.8975644e-20)
(-9.0096665e-05 -1.499596e-05 -4.0809438e-21)
(-6.9972266e-05 -1.4883517e-05 1.373293e-20)
(-4.9965761e-05 -1.4794922e-05 1.0316193e-20)
(-2.9988129e-05 -1.4965664e-05 8.9451688e-22)
(-9.9652314e-06 -1.5925829e-05 -6.3092547e-22)
(-5.4171453e-05 0.0001797144 -7.9210155e-20)
(-0.00012532586 0.00019066363 -3.1319734e-20)
(-0.00020631231 0.00019676038 -3.7142138e-20)
(-0.00028505188 0.00020256111 2.3476281e-20)
(-0.00036692038 0.00020637281 4.8838539e-20)
(-0.00044909857 0.00020856424 -5.6281137e-20)
(-0.00053134179 0.00020981439 -7.3598209e-22)
(-0.00061352908 0.00021049681 7.7294548e-21)
(-0.00069554254 0.00021082463 7.3860983e-20)
(-0.00077727407 0.00021092007 1.8679512e-19)
(-0.00085863605 0.00021085185 1.1929014e-19)
(-0.00093955452 0.00021065781 1.3803588e-19)
(-0.0010199627 0.00021035851 3.1247534e-20)
(-0.0010997976 0.00020996403 1.355136e-19)
(-0.0011789986 0.00020947734 2.0773747e-19)
(-0.0012575064 0.00020889727 7.8994059e-20)
(-0.0013352618 0.00020822103 1.1406412e-19)
(-0.0014122047 0.00020744553 -3.8078553e-20)
(-0.0014882736 0.00020656769 -1.4006525e-19)
(-0.0015634063 0.00020558437 2.7217278e-20)
(-0.0016375392 0.00020449246 8.1265299e-20)
(-0.0017106087 0.0002032889 8.5443474e-20)
(-0.0017825501 0.00020197075 1.7551117e-19)
(-0.0018532989 0.00020053508 1.8406497e-19)
(-0.0019227901 0.00019897918 -7.7381438e-20)
(-0.001990959 0.00019730052 -1.7046706e-19)
(-0.002057741 0.00019549695 -1.0989778e-19)
(-0.0021230722 0.00019356666 -2.2761309e-19)
(-0.0021868893 0.00019150831 -2.8045028e-19)
(-0.00224913 0.00018932105 1.2844133e-19)
(-0.0023097332 0.00018700452 3.2369764e-19)
(-0.0023686393 0.00018455891 -9.6683727e-20)
(-0.0024257903 0.00018198492 -4.1396406e-19)
(-0.0024811305 0.00017928383 -2.9120259e-19)
(-0.002534606 0.00017645746 2.8445443e-19)
(-0.0025861656 0.00017350818 3.922429e-19)
(-0.0026357608 0.00017043889 -1.1144138e-19)
(-0.0026833458 0.00016725306 -2.0243352e-19)
(-0.0027288781 0.00016395463 -3.4869018e-20)
(-0.0027723187 0.00016054805 -3.4910595e-19)
(-0.0028136316 0.00015703821 -5.0253863e-19)
(-0.0028527849 0.00015343045 4.685574e-19)
(-0.0028897502 0.00014973052 1.0929908e-18)
(-0.0029245033 0.0001459445 9.43809e-19)
(-0.0029570237 0.00014207882 -1.5639626e-19)
(-0.0029872952 0.00013814019 -2.0532862e-18)
(-0.0030153056 0.00013413557 -9.2195494e-19)
(-0.0030410469 0.00013007211 6.2277579e-19)
(-0.0030645154 0.00012595717 8.0854498e-19)
(-0.0030857114 0.00012179818 7.1254393e-19)
(-0.0031046394 0.0001176027 -9.3188541e-19)
(-0.003121308 0.00011337832 -6.9278175e-20)
(-0.0031357299 0.0001091326 1.0275102e-18)
(-0.0031479217 0.00010487311 -1.080421e-19)
(-0.0031579036 0.00010060731 -1.9462819e-19)
(-0.0031656997 9.6342599e-05 -3.9350159e-19)
(-0.0031713378 9.2086174e-05 -3.7364191e-19)
(-0.0031748488 8.7845094e-05 5.7996389e-19)
(-0.003176267 8.3626221e-05 1.7131468e-19)
(-0.0031756299 7.9436153e-05 -8.3431674e-19)
(-0.0031729777 7.5281258e-05 -2.3713125e-19)
(-0.0031683534 7.1167627e-05 6.2094532e-19)
(-0.0031618023 6.710104e-05 5.8444984e-20)
(-0.0031533724 6.3086983e-05 -4.0855512e-19)
(-0.0031431133 5.9130589e-05 2.9209458e-19)
(-0.0031310769 5.5236701e-05 3.8608915e-19)
(-0.0031173166 5.1409771e-05 -2.0334772e-19)
(-0.0031018872 4.7653943e-05 -6.9989216e-20)
(-0.0030848448 4.3972986e-05 -1.1332503e-19)
(-0.0030662467 4.0370351e-05 -6.4284662e-19)
(-0.0030461509 3.6849144e-05 -5.7792422e-20)
(-0.003024616 3.3412131e-05 3.7582689e-19)
(-0.0030017014 3.0061758e-05 7.6154222e-21)
(-0.0029774665 2.6800118e-05 2.8160683e-19)
(-0.0029519709 2.3628992e-05 2.4880034e-19)
(-0.0029252741 2.0549844e-05 2.4705739e-19)
(-0.0028974356 1.7563895e-05 -1.5546226e-19)
(-0.0028685143 1.4672145e-05 -8.5608642e-19)
(-0.0028385689 1.1875406e-05 -2.3877915e-19)
(-0.0028076576 9.1741641e-06 6.3281751e-19)
(-0.0027758389 6.5681574e-06 4.226531e-19)
(-0.0027431741 4.0546322e-06 -4.9195114e-19)
(-0.0027097306 1.6271103e-06 -3.9401813e-19)
(-0.0026755619 -7.1245755e-07 -2.3823887e-19)
(-0.0026406702 -2.9846277e-06 -1.65224e-19)
(-0.0026050985 -5.1590403e-06 2.8037627e-19)
(-0.0025689356 -7.2246093e-06 -1.3204466e-19)
(-0.0025322355 -9.1974164e-06 1.941869e-19)
(-0.0024950437 -1.1082814e-05 5.357026e-19)
(-0.0024574049 -1.2883626e-05 -2.4205115e-19)
(-0.0024193628 -1.4601993e-05 -3.5975788e-19)
(-0.00238096 -1.6239873e-05 -4.1676102e-20)
(-0.0023422375 -1.7799233e-05 1.3125643e-19)
(-0.0023032351 -1.9282123e-05 -1.3977633e-19)
(-0.0022639908 -2.0690644e-05 -4.547985e-21)
(-0.0022245411 -2.2026961e-05 4.3984273e-19)
(-0.0021849209 -2.3293282e-05 -2.3001165e-20)
(-0.0021451636 -2.4491851e-05 -2.2726477e-19)
(-0.0021053012 -2.562492e-05 -3.1724522e-19)
(-0.0020653637 -2.6694766e-05 -1.2454804e-19)
(-0.0020253801 -2.7703672e-05 3.8371445e-19)
(-0.0019853776 -2.86539e-05 1.9896063e-19)
(-0.001945382 -2.95477e-05 3.6224082e-20)
(-0.0019054176 -3.0387325e-05 -2.5840114e-19)
(-0.0018655075 -3.1174989e-05 -1.3047471e-19)
(-0.0018256731 -3.1912877e-05 3.1456148e-19)
(-0.0017859348 -3.2603141e-05 7.1431509e-20)
(-0.0017463114 -3.32479e-05 3.1214387e-20)
(-0.0017068207 -3.3849234e-05 -9.3343148e-20)
(-0.0016674791 -3.4409171e-05 -2.9161184e-19)
(-0.0016283017 -3.4929695e-05 7.9942015e-20)
(-0.0015893028 -3.5412752e-05 1.3713187e-19)
(-0.0015504954 -3.5860224e-05 1.086701e-19)
(-0.0015118912 -3.6273947e-05 1.9990905e-19)
(-0.0014735014 -3.66557e-05 -1.3290678e-19)
(-0.0014353357 -3.7007213e-05 -3.005634e-19)
(-0.0013974032 -3.7330159e-05 -1.2159802e-19)
(-0.001359712 -3.7626158e-05 1.5003347e-19)
(-0.0013222692 -3.7896775e-05 1.0068918e-19)
(-0.0012850813 -3.8143513e-05 -1.2833877e-19)
(-0.0012481539 -3.8367841e-05 2.0395695e-20)
(-0.0012114917 -3.8571141e-05 1.5805693e-19)
(-0.0011750991 -3.8754774e-05 6.6527669e-20)
(-0.0011389793 -3.8920029e-05 -1.6098133e-19)
(-0.0011031353 -3.9068159e-05 -2.0217122e-19)
(-0.0010675692 -3.9200351e-05 9.4296302e-20)
(-0.0010322828 -3.9317763e-05 1.8366942e-19)
(-0.00099727711 -3.9421483e-05 7.5667888e-20)
(-0.00096255271 -3.9512576e-05 -9.0405788e-20)
(-0.00092810975 -3.9592056e-05 -9.463248e-20)
(-0.00089394789 -3.966089e-05 4.7677831e-20)
(-0.00086006638 -3.9720007e-05 7.9825675e-20)
(-0.00082646405 -3.9770267e-05 8.8044481e-20)
(-0.00079313936 -3.981248e-05 1.9587042e-20)
(-0.00076009047 -3.9847399e-05 -7.7169645e-20)
(-0.0007273152 -3.9875749e-05 -5.598559e-20)
(-0.00069481107 -3.9898194e-05 3.2905816e-20)
(-0.00066257537 -3.9915378e-05 4.3618351e-20)
(-0.00063060509 -3.9927898e-05 -2.2777311e-20)
(-0.00059889704 -3.993631e-05 -2.5953566e-20)
(-0.00056744781 -3.9941142e-05 5.1336984e-21)
(-0.00053625381 -3.9942863e-05 -3.6882895e-20)
(-0.00050531127 -3.9941925e-05 1.0067408e-20)
(-0.00047461633 -3.9938729e-05 8.2785213e-21)
(-0.00044416497 -3.9933607e-05 -3.2237743e-20)
(-0.00041395312 -3.9926859e-05 2.745284e-20)
(-0.00038397662 -3.9918692e-05 1.7551713e-20)
(-0.00035423131 -3.9909196e-05 -5.0226433e-22)
(-0.00032471306 -3.9898282e-05 -5.3795235e-21)
(-0.0002954178 -3.9885573e-05 -1.0597768e-20)
(-0.00026634159 -3.9870216e-05 3.4091592e-20)
(-0.00023748064 -3.9850542e-05 2.7767904e-20)
(-0.00020883132 -3.9823592e-05 2.069413e-21)
(-0.00018038969 -3.978472e-05 -2.5972841e-20)
(-0.00015215041 -3.9728186e-05 -1.1706475e-20)
(-0.00012410399 -3.9652006e-05 2.3720395e-20)
(-9.6230571e-05 -3.9576285e-05 1.0723796e-20)
(-6.8488592e-05 -3.9591281e-05 6.5145084e-21)
(-4.0828163e-05 -3.9942948e-05 1.1793729e-20)
(-1.346662e-05 -4.0988636e-05 2.1584787e-20)
(-6.8487892e-05 0.00036892903 -3.7301783e-19)
(-0.00015739578 0.0003773442 -1.4553423e-19)
(-0.00025747286 0.00038318015 -6.1115954e-20)
(-0.00035374322 0.00038870139 -1.8853371e-19)
(-0.00045311492 0.00039246499 -6.1032875e-20)
(-0.00055244392 0.00039466788 -1.4331097e-19)
(-0.00065164613 0.00039583144 -7.5373164e-20)
(-0.00075068175 0.0003962907 -1.6471364e-20)
(-0.00084945173 0.00039625801 9.1341224e-20)
(-0.00094783679 0.00039586368 1.8131492e-19)
(-0.0010457271 0.00039518535 1.2127336e-19)
(-0.0011430232 0.00039426801 1.0497722e-19)
(-0.0012396325 0.00039313698 -2.0508987e-20)
(-0.0013354673 0.00039180562 1.0063974e-19)
(-0.0014304437 0.00039027998 1.4017911e-19)
(-0.0015244801 0.0003885619 -2.7886505e-20)
(-0.0016174963 0.00038665102 9.2676989e-20)
(-0.0017094126 0.00038454562 2.6676454e-20)
(-0.0018001498 0.00038224314 -2.1082774e-20)
(-0.0018896289 0.0003797404 6.167892e-20)
(-0.001977771 0.00037703396 6.4283592e-20)
(-0.0020644976 0.00037412035 9.747198e-20)
(-0.0021497306 0.00037099631 8.1258067e-20)
(-0.0022333924 0.00036765891 -5.0246113e-20)
(-0.0023154059 0.00036410562 -3.951181e-20)
(-0.0023956952 0.00036033446 -4.2299316e-20)
(-0.0024741854 0.00035634406 -2.3870793e-19)
(-0.002550803 0.00035213372 -7.2715736e-20)
(-0.0026254761 0.00034770351 5.6854211e-20)
(-0.0026981347 0.00034305426 -4.8850356e-20)
(-0.002768711 0.00033818762 -1.4502168e-19)
(-0.0028371393 0.00033310607 -8.3841495e-20)
(-0.0029033569 0.00032781294 1.5528497e-19)
(-0.0029673034 0.00032231239 2.9636042e-20)
(-0.0030289222 0.00031660944 -2.3828274e-19)
(-0.0030881594 0.00031070993 -1.0821893e-19)
(-0.003144965 0.0003046205 1.8933707e-19)
(-0.0031992927 0.0002983486 2.0567498e-19)
(-0.0032511001 0.00029190242 -9.9369647e-20)
(-0.003300349 0.00028529086 -2.2637254e-19)
(-0.0033470054 0.00027852348 -7.754333e-20)
(-0.0033910399 0.00027161044 1.6170405e-19)
(-0.0034324274 0.00026456249 2.6776061e-19)
(-0.0034711477 0.00025739082 9.5096221e-22)
(-0.0035071852 0.00025010711 7.1648162e-21)
(-0.0035405289 0.00024272336 -3.3838746e-19)
(-0.0035711729 0.00023525192 -3.5785911e-19)
(-0.0035991158 0.00022770533 8.0971198e-20)
(-0.0036243611 0.00022009636 1.4348282e-19)
(-0.0036469171 0.00021243782 4.4663856e-19)
(-0.0036667966 0.00020474261 5.4514964e-20)
(-0.003684017 0.00019702359 -4.139116e-19)
(-0.0036986004 0.00018929352 9.6565516e-20)
(-0.0037105728 0.00018156504 1.9030221e-19)
(-0.0037199647 0.00017385055 -5.1329688e-20)
(-0.0037268105 0.00016616223 -1.9435597e-19)
(-0.0037311487 0.0001585119 -1.7082152e-19)
(-0.0037330211 0.00015091107 1.7950837e-19)
(-0.0037324732 0.00014337083 4.738944e-20)
(-0.0037295537 0.00013590181 -3.7189017e-19)
(-0.0037243143 0.00012851418 -5.7641951e-20)
(-0.0037168096 0.00012121761 2.8396499e-19)
(-0.0037070967 0.00011402121 5.761643e-20)
(-0.003695235 0.00010693354 -8.4902985e-20)
(-0.0036812861 9.9962602e-05 1.0472056e-19)
(-0.0036653134 9.3115788e-05 8.9476756e-20)
(-0.003647382 8.6399897e-05 -2.6516391e-19)
(-0.0036275582 7.9821141e-05 -1.4363652e-19)
(-0.0036059096 7.3385115e-05 -5.1682172e-21)
(-0.0035825049 6.7096832e-05 -5.0517713e-20)
(-0.0035574131 6.0960718e-05 2.3488492e-20)
(-0.003530704 5.4980589e-05 3.2965947e-20)
(-0.0035024476 4.9159708e-05 -9.1921276e-20)
(-0.0034727138 4.3500715e-05 -7.2141796e-20)
(-0.0034415728 3.8005699e-05 2.0939165e-19)
(-0.003409094 3.2676174e-05 2.1905611e-19)
(-0.0033753466 2.7513155e-05 -2.6622441e-19)
(-0.0033403991 2.2517194e-05 -5.009708e-19)
(-0.0033043195 1.7688447e-05 -6.4069549e-20)
(-0.0032671757 1.3026684e-05 1.8610176e-19)
(-0.0032290363 8.5311816e-06 -4.0759519e-20)
(-0.0031899694 4.2008324e-06 -2.4548927e-19)
(-0.0031500276 3.4511378e-08 -3.9338237e-20)
(-0.0031092634 -3.9384301e-06 1.1605035e-19)
(-0.0030677504 -7.7218896e-06 2.8104142e-20)
(-0.0030255509 -1.135198e-05 -6.3953621e-20)
(-0.0029827144 -1.4834608e-05 -2.6080892e-19)
(-0.0029392963 -1.8170452e-05 -9.0421163e-20)
(-0.0028953521 -2.1360774e-05 2.2126846e-19)
(-0.0028509347 -2.4407714e-05 2.183741e-19)
(-0.0028060948 -2.7314018e-05 -4.9687935e-20)
(-0.0027608808 -3.0082812e-05 -2.6583826e-19)
(-0.0027153395 -3.2717475e-05 -2.1684388e-20)
(-0.0026695155 -3.5221554e-05 1.3221835e-19)
(-0.0026234516 -3.759873e-05 1.3856292e-19)
(-0.002577189 -3.9852775e-05 1.0107336e-19)
(-0.0025307667 -4.1987539e-05 -2.0089044e-19)
(-0.0024842221 -4.4006917e-05 -1.5493254e-19)
(-0.0024375907 -4.5914825e-05 -1.2339133e-20)
(-0.0023909062 -4.7715216e-05 1.0248749e-20)
(-0.0023442007 -4.9412035e-05 1.8184219e-19)
(-0.0022975045 -5.1009197e-05 5.6910275e-20)
(-0.0022508461 -5.2510612e-05 -6.2869415e-20)
(-0.0022042524 -5.3920139e-05 -9.6868834e-21)
(-0.0021577489 -5.5241608e-05 1.264385e-19)
(-0.0021113592 -5.6478786e-05 1.2082754e-19)
(-0.0020651057 -5.7635364e-05 -7.5971743e-20)
(-0.0020190091 -5.8714994e-05 -8.0942945e-20)
(-0.0019730886 -5.9721233e-05 -9.8696629e-20)
(-0.0019273623 -6.0657577e-05 -1.4059125e-19)
(-0.0018818467 -6.1527419e-05 5.1849917e-23)
(-0.0018365572 -6.2334077e-05 1.2850749e-19)
(-0.0017915077 -6.3080782e-05 9.6187861e-20)
(-0.0017467111 -6.3770671e-05 3.8139522e-20)
(-0.0017021792 -6.4406774e-05 -5.1898443e-20)
(-0.0016579224 -6.4992051e-05 -9.683328e-20)
(-0.0016139504 -6.552935e-05 -1.0402648e-19)
(-0.0015702717 -6.6021437e-05 -8.9224889e-21)
(-0.0015268937 -6.6470969e-05 6.0754897e-20)
(-0.0014838232 -6.6880511e-05 8.112992e-20)
(-0.001441066 -6.7252532e-05 4.2309687e-20)
(-0.0013986268 -6.7589411e-05 -6.0504405e-20)
(-0.0013565099 -6.789343e-05 -3.132487e-20)
(-0.0013147186 -6.8166781e-05 4.5539245e-20)
(-0.0012732556 -6.841157e-05 7.9753165e-20)
(-0.0012321229 -6.8629799e-05 4.0080028e-20)
(-0.0011913218 -6.8823399e-05 -2.4932262e-20)
(-0.001150853 -6.8994203e-05 1.0551212e-21)
(-0.0011107168 -6.9143966e-05 -2.8453833e-20)
(-0.0010709129 -6.9274362e-05 1.9903702e-20)
(-0.0010314403 -6.938698e-05 7.2901548e-20)
(-0.00099229774 -6.9483327e-05 2.1555205e-20)
(-0.00095348354 -6.9564845e-05 2.4990584e-20)
(-0.00091499551 -6.9632902e-05 1.1863506e-21)
(-0.00087683113 -6.9688798e-05 -3.4051469e-20)
(-0.00083898754 -6.9733763e-05 -4.8346361e-20)
(-0.00080146155 -6.9768948e-05 2.197267e-21)
(-0.00076424967 -6.9795444e-05 6.562825e-21)
(-0.00072734816 -6.9814283e-05 -2.3002576e-20)
(-0.00069075302 -6.9826412e-05 -1.3305695e-20)
(-0.00065446004 -6.9832733e-05 1.5802479e-20)
(-0.00061846479 -6.9834072e-05 6.659685e-22)
(-0.00058276268 -6.9831195e-05 1.4333851e-20)
(-0.00054734898 -6.9824793e-05 7.271713e-21)
(-0.0005122188 -6.9815467e-05 -3.9979926e-21)
(-0.00047736717 -6.9803754e-05 1.8780271e-20)
(-0.000442789 -6.9790071e-05 -1.9689089e-20)
(-0.00040847916 -6.9774681e-05 -5.3975963e-21)
(-0.00037443245 -6.9757632e-05 3.1062243e-20)
(-0.00034064362 -6.9738682e-05 3.5987053e-20)
(-0.00030710736 -6.9717119e-05 2.5353424e-20)
(-0.0002738181 -6.9691579e-05 5.9049778e-21)
(-0.00024076975 -6.9659813e-05 7.2061257e-21)
(-0.00020795491 -6.9618846e-05 -2.6103642e-20)
(-0.00017536367 -6.95664e-05 -4.1030388e-21)
(-0.0001429823 -6.950625e-05 2.5103211e-20)
(-0.00011079157 -6.9463193e-05 8.3108245e-21)
(-7.8763429e-05 -6.9513535e-05 1.6503e-20)
(-4.6883813e-05 -6.9826227e-05 2.0904753e-20)
(-1.5440816e-05 -7.0571626e-05 3.1970751e-20)
(-7.5649918e-05 0.00058800286 -6.3480434e-19)
(-0.00017404038 0.0005934536 -4.4166664e-19)
(-0.00028465469 0.00059801547 -2.0551884e-19)
(-0.0003906058 0.00060237609 -3.9395078e-20)