/*--------------------------------*- C++ -*----------------------------------*\
| =========                 |                                                 |
| \\      /  F ield         | OpenFOAM: The Open Source CFD Toolbox           |
|  \\    /   O peration     | Version:  2106                                  |
|   \\  /    A nd           | Website:  www.openfoam.com                      |
|    \\/     M anipulation  |                                                 |
\*---------------------------------------------------------------------------*/
FoamFile
{
    version     2.0;
    format      ascii;
    arch        "LSB;label=32;scalar=64";
    class       volScalarField;
    location    "0.05";
    object      p;
}
// * * * * * * * * * * * * * * * * * * * * * * * * * * * * * * * * * * * * * //

dimensions      [1 -1 -2 0 0 0 0];

internalField   nonuniform List<scalar> 
32768
(
485.52155
485.49601
485.42464
485.30982
485.15172
484.94986
484.70374
484.41291
484.07685
483.69493
483.26644
482.79057
482.26644
481.69305
481.06932
480.39405
479.66593
478.88352
478.04531
477.14974
476.19512
475.17954
474.10097
472.95726
471.74612
470.46508
469.11156
467.68278
466.1758
464.58751
462.9146
461.15358
459.30073
457.35214
455.30369
453.151
450.88949
448.51428
446.02033
443.40214
440.65446
437.7705
434.74605
431.57097
428.24512
424.75217
421.09391
417.26103
413.21965
409.03991
404.56728
399.98038
395.13438
389.97791
384.72847
379.14603
373.20287
367.16101
360.80722
353.99503
346.97163
339.72013
332.04883
323.98298
315.59603
306.84153
297.75349
288.34748
278.46995
268.04527
257.25044
246.16792
234.74969
223.00382
210.89086
198.27705
185.08492
171.52981
157.9657
144.67495
131.81794
119.40206
107.2476
95.039558
83.210463
72.595638
62.967317
53.65973
44.933194
36.853196
29.392356
21.79659
13.611396
1.2997161
0.67705236
0.59535987
0.51750633
0.43255916
0.36754921
0.32225333
0.28835519
0.26184222
0.24026742
0.22213692
0.20655201
0.19292406
0.18084877
0.17003688
0.16027421
0.1513975
0.14327934
0.13581822
0.12893192
0.12255281
0.11662458
0.11109971
0.10593808
0.10110445
0.096569985
0.092307378
0.088293528
0.084509253
0.080936494
0.077559049
0.074362513
0.071333949
0.068461776
0.065735417
0.063145516
0.060683095
0.058340364
0.056109998
0.05398543
0.051959059
0.05002801
0.048185681
0.046426439
0.044746484
0.043141233
0.041606
0.040139124
0.038736336
0.037393919
0.036108832
0.034878541
0.03370031
0.032571986
0.03149119
0.030455634
0.029463192
0.028511924
0.027599856
0.026725421
0.025886928
0.025082788
0.024311503
0.023571661
0.022861934
0.022181067
0.02152787
0.020901262
0.020300286
0.01972311
0.019169407
0.018638305
0.018128732
0.017639936
0.017171285
0.01672121
0.016289481
0.015875451
0.015478395
0.015097547
0.014732332
0.014382129
0.014046361
0.013724482
0.013415966
0.0131203
0.01283699
0.012565559
0.012305554
0.01205654
0.0118181
0.01158983
0.011371345
0.011162279
0.010962313
0.010770998
0.010588033
0.010413127
0.010245982
0.010086297
0.0099337829
0.0097881635
0.0096491693
0.0095165414
0.009390033
0.0092694134
0.0091544498
0.0090449143
0.0089405905
0.0088412736
0.0087467746
0.008656846
0.0085713296
0.0084900632
0.0084128759
0.008339598
0.00827007
0.008204139
0.0081416543
0.0080824655
0.0080264249
0.0079734241
0.007923319
0.0078760141
0.0078313741
0.0077892814
0.0077496233
0.0077122233
0.0076770387
0.0076440127
0.0076130077
0.0075839287
0.0075566924
0.007531217
0.0075074233
0.0074852349
0.0074645765
0.0074453751
0.0074275635
0.0074110899
0.0073958875
0.0073818975
0.0073690672
0.0073573457
0.0073466806
0.007337013
0.0073283068
0.0073205242
0.0073136279
0.0073075932
0.0073023746
0.00729794
0.0072942623
0.0072913154
0.0072890787
0.0072875316
0.0072866612
0.0072864518
0.0072868952
0.0072879815
0.007289913
0.0072920097
0.0072954613
476.78405
476.75878
476.68763
476.57323
476.41528
476.2135
475.96749
475.6768
475.34088
474.95913
474.53082
474.05517
473.53126
472.95813
472.33468
471.65973
470.93198
470.15006
469.31245
468.41744
467.46328
466.44814
465.37
464.22672
463.01601
461.73542
460.38235
458.95403
457.44752
455.8597
454.18727
452.42671
450.57433
448.62621
446.5782
444.42592
442.1648
439.78991
437.29631
434.67818
431.93093
429.04629
426.0229
422.84529
419.52225
416.02444
412.37152
408.53234
404.49665
400.30313
395.8394
391.25218
386.37699
381.26383
375.98074
370.35802
364.48624
358.41547
351.97151
345.2209
338.24489
330.90392
323.16818
315.16045
306.79605
298.00079
288.86146
279.3969
269.47236
259.0724
248.32139
237.22228
225.71188
213.81763
201.54292
188.84677
175.70662
162.2404
148.70717
135.30139
122.21019
109.54971
97.190358
85.01292
73.393836
62.821732
53.255769
44.272463
35.667446
27.888785
20.869525
13.390649
3.5052226
0.54129545
0.53387942
0.50352562
0.43324944
0.37759763
0.33346206
0.29860471
0.27025676
0.2466453
0.22663331
0.20942606
0.19441926
0.18117366
0.16936342
0.15874252
0.14912186
0.1403535
0.13231976
0.12492559
0.11809317
0.11175797
0.10586593
0.10037117
0.095234707
0.090422514
0.08590565
0.081657816
0.077658313
0.073886222
0.070323653
0.066955021
0.06376618
0.060744363
0.057878183
0.055157103
0.052571958
0.050113153
0.047774016
0.045547603
0.043426433
0.041405008
0.039475448
0.037634389
0.035877166
0.034199459
0.032595606
0.031062941
0.029596389
0.028194255
0.026852196
0.025567794
0.02433834
0.023160676
0.022033153
0.020953161
0.019918242
0.01892631
0.017975456
0.017063616
0.016189594
0.015351603
0.014547867
0.013776901
0.013037333
0.012327842
0.011647169
0.010994086
0.010367443
0.0097661068
0.0091895687
0.00863626
0.0081053072
0.0075958981
0.0071070929
0.0066379956
0.0061883328
0.0057568725
0.0053430174
0.0049461881
0.0045653183
0.0042000579
0.0038498462
0.0035140911
0.0031922288
0.0028837265
0.0025880706
0.0023047665
0.0020333407
0.0017733403
0.0015243306
0.001285894
0.0010576295
0.00083915765
0.00063011656
0.00043016684
0.00023879272
5.5800323e-05
-0.00011911347
-0.00028626479
-0.00044595825
-0.00059848398
-0.00074411834
-0.00088312852
-0.0010157693
-0.0011422879
-0.001262917
-0.001377891
-0.0014874363
-0.0015917681
-0.0016910894
-0.0017855941
-0.0018755536
-0.001961088
-0.0020423681
-0.0021195695
-0.0021928604
-0.0022623999
-0.0023283433
-0.0023908444
-0.0024500532
-0.0025061091
-0.0025591156
-0.0026092251
-0.0026565299
-0.0027011823
-0.0027433059
-0.0027830106
-0.0028203586
-0.0028554841
-0.0028885473
-0.0029195834
-0.0029486791
-0.0029759253
-0.0030014082
-0.0030252087
-0.003047405
-0.0030680722
-0.0030872819
-0.0031050993
-0.0031215774
-0.0031367832
-0.0031507751
-0.0031636077
-0.003175334
-0.0031860056
-0.003195677
-0.0032043837
-0.0032121643
-0.0032190561
-0.0032251021
-0.0032303288
-0.0032347688
-0.0032384523
-0.0032414032
-0.0032436435
-0.0032451909
-0.0032460649
-0.0032462786
-0.0032458448
-0.0032447705
-0.0032429066
-0.003240835
-0.0032373822
468.05345
468.02796
467.9569
467.84258
467.68477
467.48315
467.23735
466.9469
466.61128
466.22985
465.80191
465.32667
464.80323
464.2306
463.6077
462.93335
462.20626
461.42506
460.58824
459.69417
458.74107
457.72704
456.65009
455.50805
454.29864
453.01942
451.66777
450.24092
448.73594
447.14969
445.47887
443.71996
441.86924
439.92279
437.87645
435.72584
433.46635
431.09304
428.60095
425.98423
423.23827
420.35468
417.33233
414.15504
410.83322
407.33407
403.68453
399.83945
395.81159
391.60681
387.14793
382.55349
377.66697
372.5708
367.26049
361.63336
355.78173
349.65803
343.21261
336.48447
329.45209
322.07177
314.36291
306.31419
297.89117
289.07415
279.9077
270.36996
260.37751
249.94555
239.17444
228.01395
216.36847
204.29632
191.87242
179.09488
165.93421
152.4382
138.7902
125.17137
111.73296
98.628902
85.92482
73.667177
62.210772
52.058415
43.079905
34.489931
26.341485
19.321645
12.007979
2.9563925
0.28350703
0.27382055
0.35817144
0.3684916
0.35283499
0.32631948
0.29728542
0.27104703
0.24791975
0.22764889
0.20984779
0.1941335
0.18016732
0.16766834
0.15640812
0.14620233
0.13690183
0.12838517
0.12055267
0.11332178
0.10662357
0.10039997
0.09460164
0.089186433
0.084117717
0.079364434
0.074897792
0.070697358
0.066736948
0.062997605
0.059464293
0.05612229
0.052957147
0.049956616
0.047109697
0.044406324
0.041836899
0.03939401
0.037067982
0.034852898
0.03274195
0.030729584
0.028809292
0.026976363
0.025226372
0.023554361
0.021957494
0.020431328
0.018970938
0.01757316
0.016236711
0.014957602
0.01373266
0.012559395
0.011435495
0.010358664
0.0093268214
0.0083379194
0.0073899752
0.0064813445
0.0056096548
0.0047736005
0.003971852
0.0032028781
0.0024652239
0.0017575537
0.0010786135
0.00042718626
-0.00019785937
-0.00079774938
-0.0013730063
-0.0019249973
-0.0024546859
-0.0029629661
-0.0034506577
-0.0039186718
-0.0043674665
-0.0047981388
-0.0052111467
-0.0056073943
-0.0059872
-0.0063514595
-0.0067008508
-0.0070358656
-0.0073570331
-0.0076648804
-0.0079599137
-0.0082426222
-0.0085134802
-0.0087729416
-0.0090214381
-0.0092593843
-0.0094871828
-0.0097052291
-0.009913908
-0.010113583
-0.010304437
-0.010486952
-0.010661457
-0.010828242
-0.010987593
-0.011139794
-0.011285115
-0.011423822
-0.011556171
-0.011682414
-0.011802776
-0.0119175
-0.012026809
-0.012130921
-0.012230051
-0.0123244
-0.012414093
-0.012499382
-0.012580448
-0.01265745
-0.012730551
-0.012799909
-0.012865679
-0.012928005
-0.012987026
-0.013042885
-0.013095749
-0.013145719
-0.013192935
-0.013237491
-0.013279504
-0.013319093
-0.013356351
-0.013391398
-0.013424333
-0.013455252
-0.013484243
-0.013511392
-0.013536783
-0.013560497
-0.01358261
-0.013603195
-0.013622318
-0.013640049
-0.013656471
-0.013671624
-0.013685562
-0.013698341
-0.013710019
-0.013720647
-0.013730265
-0.013738921
-0.013746658
-0.013753512
-0.013759522
-0.013764716
-0.013769128
-0.013772785
-0.013775713
-0.013777933
-0.013779464
-0.013780323
-0.013780529
-0.013780097
-0.013779029
-0.013777202
-0.01377513
-0.013771654
459.32762
459.30206
459.23111
459.11695
458.95935
458.75799
458.51249
458.22241
457.8872
457.50626
457.07887
456.60424
456.08146
455.50957
454.88748
454.214
453.48786
452.70766
451.87189
450.97893
450.027
449.01423
447.93859
446.79793
445.58996
444.31222
442.9621
441.53682
440.03343
438.44879
436.77958
435.02227
433.17314
431.22825
429.18341
427.03422
424.77604
422.40392
419.91285
417.29693
414.55156
411.66816
408.64581
405.46775
402.14535
398.64412
394.99382
391.14446
387.11639
382.90398
378.44159
373.83853
368.93762
363.84384
358.51733
352.86432
347.01781
340.87062
334.38143
327.64678
320.60056
313.16987
305.40915
297.3306
288.87849
280.02193
270.76294
261.11292
251.05927
240.58781
229.72705
218.44458
206.66034
194.38735
181.74178
168.77973
155.49994
141.91659
128.08847
114.09531
100.11955
86.423974
73.267619
60.918108
49.687357
40.050282
31.641837
24.057615
16.243163
9.6082541
1.8037737
0.068628438
-0.023022845
0.13401341
0.22557721
0.26381286
0.27784667
0.26935143
0.25460166
0.23788081
0.22104302
0.20499464
0.19008885
0.17640563
0.16389987
0.15247671
0.14202744
0.13244571
0.12363429
0.11550725
0.10798967
0.10101669
0.094532185
0.088487518
0.082840463
0.07755414
0.072596386
0.06793867
0.063556373
0.059425945
0.055528363
0.051847202
0.048365389
0.045069867
0.041945368
0.038980695
0.036166207
0.03349232
0.030949674
0.028531054
0.026227191
0.024031124
0.021938564
0.019942851
0.018038753
0.016221144
0.014485018
0.01282596
0.011240341
0.0097240767
0.0082734941
0.0068853325
0.0055572053
0.0042859678
0.003068508
0.0019030397
0.00078523281
-0.00028604727
-0.0013124356
-0.0022961006
-0.0032391184
-0.004143076
-0.0050104043
-0.0058423017
-0.0066401181
-0.0074053891
-0.0081395527
-0.0088439233
-0.0095197389
-0.010168168
-0.010790341
-0.011387297
-0.011960264
-0.012510032
-0.01303754
-0.013543738
-0.01402927
-0.014494947
-0.014941926
-0.015370594
-0.015782185
-0.016177019
-0.01655547
-0.016918269
-0.017266349
-0.017600116
-0.017920051
-0.018226698
-0.01852058
-0.01880219
-0.019071998
-0.019330452
-0.01957798
-0.019814995
-0.020041899
-0.020259081
-0.020466905
-0.020665735
-0.020855881
-0.021037708
-0.021211532
-0.021377655
-0.021536369
-0.021687958
-0.021832687
-0.021970827
-0.022102641
-0.022228373
-0.02234823
-0.022462455
-0.022571285
-0.022674936
-0.022773613
-0.022867521
-0.022956835
-0.023041753
-0.023122447
-0.023199086
-0.023271839
-0.023340864
-0.023406315
-0.023468342
-0.023527088
-0.023582686
-0.023635268
-0.023684952
-0.023731887
-0.023776175
-0.023817926
-0.023857261
-0.023894323
-0.023929192
-0.023961929
-0.023992651
-0.024021454
-0.024048423
-0.024073644
-0.024097197
-0.024119158
-0.0241396
-0.024158592
-0.024176201
-0.02419248
-0.024207495
-0.024221307
-0.024233973
-0.024245544
-0.024256071
-0.024265598
-0.024274173
-0.024281835
-0.02428862
-0.024294558
-0.024299688
-0.024304042
-0.024307648
-0.024310528
-0.024312707
-0.024314203
-0.024315033
-0.024315216
-0.024314764
-0.024313676
-0.024311837
-0.024309721
-0.024306186
450.60683
450.58126
450.51039
450.39641
450.23906
450.03803
449.79293
449.50332
449.16867
448.78837
448.3617
447.88786
447.36598
446.79506
446.17403
445.5017
444.77679
443.99791
443.16354
442.27205
441.32169
440.31057
439.23667
438.09783
436.89176
435.616
434.26792
432.84474
431.3435
429.76106
428.09408
426.33902
424.49214
422.54946
420.5068
418.3597
416.10352
413.73325
411.24383
408.62936
405.88507
403.00255
399.98037
396.80238
393.47896
389.97625
386.3246
382.47027
378.44263
374.22018
369.75524
365.13958
360.22642
355.12856
349.78152
344.11129
338.25291
332.07189
325.55466
318.80606
311.7119
304.22521
296.43713
288.31884
279.78422
270.8423
261.51564
251.78017
241.62474
231.03786
220.013
208.53186
196.58462
184.15959
171.30747
158.08299
144.50218
130.59812
116.40238
101.95853
87.36993
72.882947
59.109485
46.615999
35.531992
27.029457
20.472765
13.852453
6.1882655
0.46866768
-0.1830639
-0.13577355
-0.027717976
0.072367181
0.14498432
0.19431226
0.21331702
0.21702007
0.21227608
0.20304896
0.1917978
0.17988477
0.16804086
0.15663976
0.14585372
0.1357434
0.12631051
0.117527
0.10935135
0.10173741
0.094639062
0.088012477
0.081817143
0.076016137
0.070576185
0.065467191
0.060662481
0.056137401
0.051871212
0.047842081
0.044034331
0.040433195
0.03702258
0.033789324
0.030721623
0.02780886
0.025041044
0.022408936
0.019904416
0.017518939
0.015246856
0.013080436
0.011014898
0.0090436333
0.0071620844
0.005365195
0.0036481801
0.002006732
0.00043730264
-0.0010647463
-0.0025009228
-0.0038747621
-0.0051904186
-0.0064506102
-0.0076576985
-0.0088140437
-0.0099221954
-0.010984268
-0.012002271
-0.012978239
-0.013914083
-0.014811729
-0.015672437
-0.016497984
-0.017289981
-0.018049839
-0.018778899
-0.019478447
-0.020149707
-0.020793801
-0.021411843
-0.022004664
-0.02257403
-0.023120456
-0.023644642
-0.02414737
-0.024630061
-0.025093133
-0.025537591
-0.025964024
-0.026372945
-0.02676512
-0.027141338
-0.027502212
-0.027848212
-0.02817995
-0.028497985
-0.028802838
-0.02909501
-0.029374981
-0.029643218
-0.029900167
-0.030146255
-0.030381892
-0.030607475
-0.030823386
-0.03102999
-0.031227641
-0.031416671
-0.031597417
-0.031770201
-0.031935327
-0.032093084
-0.032243758
-0.032387594
-0.032524872
-0.032655846
-0.032780752
-0.032899872
-0.0330134
-0.033121546
-0.033224531
-0.033322564
-0.033415843
-0.033504553
-0.033588883
-0.033669009
-0.033745104
-0.033817331
-0.033885849
-0.033950811
-0.034012365
-0.034070657
-0.034125824
-0.034177986
-0.034227272
-0.034273823
-0.034317752
-0.03435917
-0.034398189
-0.034434909
-0.034469438
-0.03450187
-0.034532304
-0.034560827
-0.034587528
-0.034612492
-0.0346358
-0.034657525
-0.03467774
-0.034696514
-0.034713914
-0.034730001
-0.034744834
-0.034758474
-0.034770977
-0.034782394
-0.034792774
-0.034802164
-0.034810608
-0.034818148
-0.034824821
-0.03483066
-0.0348357
-0.034839971
-0.034843499
-0.034846309
-0.034848423
-0.034849863
-0.03485065
-0.034850797
-0.034850315
-0.034849203
-0.034847354
-0.034845214
-0.034841677
441.89125
441.86566
441.79489
441.68111
441.52407
441.32343
441.07882
440.78981
440.45585
440.07634
439.65056
439.17773
438.65695
438.08724
437.46752
436.79662
436.07324
435.29599
434.46337
433.57373
432.62532
431.61626
430.54453
429.40797
428.20427
426.93097
425.58544
424.16489
422.66635
421.08666
419.42246
417.67022
415.82615
413.88626
411.84634
409.7019
407.44824
405.08033
402.59304
399.98044
397.23759
394.35627
391.33444
388.15674
384.83199
381.32808
377.67337
373.8154
369.78424
365.55352
361.08302
356.45306
351.5296
346.4172
341.05075
335.36397
329.4767
323.26687
316.72101
309.93246
302.79095
295.25451
287.4145
279.22924
270.6155
261.58469
252.1587
242.31035
232.02618
221.30251
210.07611
198.35758
186.19051
173.57146
160.4898
146.92078
132.90302
118.49813
103.71825
88.536799
72.984537
57.365296
42.51817
29.923069
19.594005
12.481609
5.6629117
3.2736298
0.19331538
-0.40891882
-0.27851652
-0.14752608
-0.052541536
0.029509716
0.091498069
0.1381676
0.15985905
0.16990237
0.17159645
0.16807526
0.16153329
0.15337721
0.14448779
0.13540057
0.12643024
0.11775323
0.10946117
0.1015942
0.094162143
0.087157452
0.080563065
0.074357166
0.068516023
0.063015634
0.05783268
0.052945025
0.048331871
0.043974078
0.039853453
0.035954801
0.032262906
0.028762038
0.025441475
0.022287237
0.019291647
0.016445411
0.01373754
0.011159448
0.0087038171
0.0063634654
0.0041322152
0.0020042843
-2.6952339e-05
-0.0019663251
-0.0038191961
-0.0055899937
-0.0072825959
-0.008901135
-0.010449303
-0.011930828
-0.013348702
-0.014706038
-0.016006076
-0.017251487
-0.018444695
-0.01958847
-0.020684299
-0.021734626
-0.022741785
-0.023707673
-0.024634032
-0.025522636
-0.026374925
-0.02719258
-0.027977127
-0.028729941
-0.029452338
-0.030145576
-0.030810858
-0.031449313
-0.032062057
-0.032650089
-0.033214509
-0.033756188
-0.034276018
-0.034774927
-0.035253616
-0.035712984
-0.036153647
-0.036576443
-0.036982079
-0.037371215
-0.037744552
-0.038102726
-0.038445949
-0.03877501
-0.039090542
-0.039393026
-0.039682933
-0.039960737
-0.040226898
-0.040481858
-0.04072604
-0.040959848
-0.041183675
-0.041397899
-0.041602884
-0.04179898
-0.041986521
-0.042165835
-0.042337238
-0.04250104
-0.042657534
-0.042807005
-0.042949668
-0.043085807
-0.043215687
-0.043339543
-0.043457659
-0.043570225
-0.043677443
-0.04377953
-0.043876695
-0.043969135
-0.04405704
-0.044140595
-0.044219973
-0.044295344
-0.044366871
-0.044434711
-0.044499027
-0.044559959
-0.044617646
-0.04467223
-0.044723849
-0.044772628
-0.044818667
-0.044862094
-0.044903035
-0.044941598
-0.044977884
-0.045011994
-0.045044027
-0.045074075
-0.045102228
-0.045128574
-0.045153198
-0.045176178
-0.04519759
-0.045217504
-0.045235989
-0.045253115
-0.045268943
-0.045283535
-0.045296946
-0.04530923
-0.045320438
-0.045330622
-0.045339829
-0.045348104
-0.045355485
-0.04536201
-0.045367715
-0.045372631
-0.045376786
-0.045380209
-0.045382926
-0.04538496
-0.045386329
-0.045387053
-0.045387147
-0.045386623
-0.045385477
-0.045383606
-0.045381445
-0.045377902
433.18106
433.15546
433.0848
432.97125
432.81456
432.61438
432.37036
432.08206
431.74893
431.37036
430.94565
430.47401
429.95455
429.38629
428.76815
428.09895
427.37741
426.60212
425.77159
424.88417
423.93812
422.93154
421.86242
420.72859
419.52774
418.25741
416.91495
415.49757
414.00228
412.42592
410.76511
409.01628
407.17564
405.23916
403.20259
401.06141
398.81088
396.44591
393.96129
391.3511
388.61015
385.73048
382.70927
379.53225
376.2061
372.70115
369.04285
365.18083
361.14591
356.90494
352.42992
347.7827
342.84807
337.71893
332.329
326.62353
320.705
314.4577
307.88184
301.04879
293.84565
286.2551
278.35745
270.09309
261.38141
252.24204
242.70414
232.74558
222.30488
211.38126
199.92107
187.94195
175.53362
162.66594
149.28055
135.27507
120.67286
105.60429
90.020896
73.813607
57.144639
39.897838
22.323485
9.8906866
-0.49116721
1.3990873
0.36629297
-0.021308653
-0.033925283
-0.1733579
-0.17922626
-0.12079218
-0.054829907
0.0050303549
0.055931308
0.092667488
0.11545774
0.12835586
0.13389789
0.13434934
0.13144251
0.12642684
0.12016851
0.11325037
0.10605535
0.098829109
0.091724997
0.084835114
0.078211456
0.071880003
0.065850165
0.060120969
0.054685091
0.049531506
0.044647167
0.040018182
0.03563034
0.031469873
0.02752318
0.023777941
0.020221286
0.01684171
0.013629059
0.010573861
0.007667254
0.0048994876
0.0022626851
-0.00025050707
-0.0026468954
-0.0049329015
-0.0071146001
-0.0091973605
-0.011187139
-0.013087823
-0.01490527
-0.016643406
-0.018305757
-0.019896139
-0.021418277
-0.022875114
-0.02427041
-0.025607427
-0.026888224
-0.028115325
-0.029291376
-0.030419125
-0.031500013
-0.03253628
-0.033530243
-0.034483724
-0.035398401
-0.036275956
-0.037117923
-0.037925853
-0.038701192
-0.039445293
-0.040159449
-0.040844899
-0.041502812
-0.042134317
-0.04274048
-0.043322413
-0.04388079
-0.044416677
-0.044931057
-0.045424789
-0.045898565
-0.046353246
-0.046789491
-0.047208028
-0.04760967
-0.047995011
-0.048364626
-0.048719096
-0.049059043
-0.049385023
-0.049697539
-0.049997102
-0.050284207
-0.050559326
-0.050822914
-0.051075407
-0.05131722
-0.051548755
-0.051770399
-0.051982527
-0.052185501
-0.052379666
-0.052565351
-0.05274288
-0.052912568
-0.053074719
-0.053229622
-0.05337755
-0.053518767
-0.053653527
-0.053782085
-0.053904685
-0.054021533
-0.054132865
-0.054238908
-0.054339871
-0.054435953
-0.054527352
-0.054614257
-0.054696846
-0.05477529
-0.054849758
-0.054920412
-0.054987413
-0.055050925
-0.055111087
-0.055168032
-0.055221897
-0.055272826
-0.055320937
-0.055366339
-0.055409153
-0.055449497
-0.055487487
-0.055523232
-0.055556833
-0.055588369
-0.055617935
-0.055645626
-0.055671529
-0.055695727
-0.0557183
-0.055739322
-0.055758863
-0.055776994
-0.055793781
-0.055809288
-0.055823573
-0.055836694
-0.055848703
-0.055859652
-0.055869592
-0.055878572
-0.055886634
-0.055893818
-0.055900161
-0.055905696
-0.055910454
-0.055914466
-0.055917761
-0.055920362
-0.055922292
-0.055923572
-0.055924217
-0.055924244
-0.055923667
-0.055922481
-0.055920583
-0.055918403
-0.055914856
424.47649
424.45088
424.38034
424.26706
424.11076
423.91113
423.66779
423.3803
423.04814
422.67067
422.24721
421.77696
421.25904
420.69246
420.07616
419.40895
418.68954
417.91655
417.08846
416.20364
415.26034
414.25667
413.1906
412.05998
410.86248
409.59563
408.25678
406.84314
405.35169
403.77926
402.12245
400.37767
398.5411
396.60868
394.57613
392.43887
390.19212
387.83074
385.34942
382.74223
380.00376
377.12624
374.10612
370.93014
367.60283
364.09712
360.43484
356.56916
352.52893
348.27852
343.79685
339.13306
334.18433
329.03756
323.62092
317.89521
311.94066
305.65306
299.04334
292.15618
284.88659
277.23772
269.27636
260.91012
252.08951
242.84326
233.1815
223.06787
212.45826
201.29879
189.58249
177.3563
164.6411
151.45541
137.65004
123.09382
107.82721
91.947625
75.384595
57.95808
39.82374
20.969435
4.8876328
-1.1665
0.21527593
0.15946048
0.093220415
0.0029229255
-0.05465862
-0.11113434
-0.12029612
-0.093651576
-0.052888265
-0.010859069
0.027793851
0.057327533
0.078371506
0.091929809
0.099480049
0.10249151
0.10222811
0.099696133
0.095655999
0.090662509
0.085110226
0.079274028
0.073341872
0.067439782
0.061650262
0.056025584
0.050597162
0.045382158
0.040388092
0.035616041
0.031062826
0.026722607
0.022587799
0.018649974
0.014900101
0.011329161
0.0079279687
0.0046877827
0.0016002071
-0.0013424395
-0.0041482722
-0.0068245608
-0.0093781896
-0.011815658
-0.014142998
-0.016365942
-0.01848989
-0.020519893
-0.022460793
-0.02431754
-0.026093497
-0.027792592
-0.029419067
-0.030976376
-0.032467855
-0.033896324
-0.035265398
-0.036577045
-0.037834578
-0.039040435
-0.040196495
-0.041305084
-0.042368345
-0.043388322
-0.044366825
-0.045305665
-0.046206551
-0.047071137
-0.047900849
-0.048697195
-0.049461604
-0.050195384
-0.05089978
-0.051575989
-0.052225149
-0.052848368
-0.05344666
-0.054021084
-0.054572355
-0.055101517
-0.055609495
-0.056097116
-0.056565085
-0.057014226
-0.057445268
-0.057858995
-0.058255795
-0.058636428
-0.059001624
-0.059351931
-0.059687887
-0.060010032
-0.060318889
-0.060614958
-0.060898721
-0.061170639
-0.061431157
-0.061680703
-0.06191969
-0.062148513
-0.062367556
-0.062577188
-0.062777762
-0.06296962
-0.063153088
-0.063328488
-0.063496132
-0.063656312
-0.063809313
-0.063955397
-0.064094879
-0.064227986
-0.064354941
-0.064475987
-0.064591337
-0.064701229
-0.064805883
-0.064905506
-0.065000299
-0.065090457
-0.065176162
-0.065257592
-0.065334919
-0.065408312
-0.065477938
-0.065543954
-0.0656065
-0.065665723
-0.06572177
-0.065774774
-0.065824867
-0.065872174
-0.065916816
-0.06595891
-0.065998563
-0.066035884
-0.066070979
-0.066103944
-0.066134875
-0.066163861
-0.066190998
-0.06621637
-0.06624006
-0.066262145
-0.0662827
-0.066301797
-0.066319505
-0.066335887
-0.066351009
-0.066364928
-0.066377701
-0.066389381
-0.06640002
-0.066409669
-0.066418377
-0.066426185
-0.066433132
-0.066439254
-0.066444585
-0.066449156
-0.066452997
-0.066456137
-0.066458599
-0.066460405
-0.066461574
-0.066462125
-0.066462074
-0.066461435
-0.066460201
-0.066458271
-0.066456072
-0.066452525
415.77782
415.75218
415.68178
415.5688
415.41296
415.21394
414.97138
414.68482
414.35375
413.97754
413.5555
413.08684
412.57068
412.00603
411.39182
410.72688
410.00993
409.23956
408.41427
407.53243
406.59229
405.59196
404.5294
403.40247
402.20882
400.94598
399.61131
398.20198
396.71498
395.1471
393.49495
391.75489
389.92308
387.99542
385.9676
383.83499
381.59274
379.23567
376.75837
374.15487
371.41955
368.54482
365.5264
362.35195
359.024
355.51786
351.85186
347.9824
343.93687
339.67647
335.1883
330.50699
325.54334
320.37701
314.93273
309.1834
303.19155
296.85961
290.21362
283.26315
275.92687
268.21326
260.17168
251.70594
242.75679
233.40099
223.59966
213.31389
202.49652
191.08859
179.1017
166.59513
153.57406
139.96778
125.63445
110.4377
94.388611
77.588918
59.980145
41.532263
22.029153
3.6504957
-0.44507726
-0.10204792
-0.034705755
-0.010337436
-0.00546873
-0.031712694
-0.062991173
-0.089756531
-0.095427565
-0.080638772
-0.054460513
-0.02395626
0.0042432963
0.028250517
0.046713747
0.059781868
0.068147612
0.072682074
0.074246163
0.073596035
0.071351535
0.067998609
0.063906595
0.059349834
0.054528426
0.049586031
0.044624207
0.039713542
0.034902058
0.030221497
0.025691873
0.021324845
0.017126135
0.013097368
0.0092372132
0.0055424611
0.0020084972
-0.0013700229
-0.0045989298
-0.007684667
-0.010632868
-0.013450857
-0.016144045
-0.01871715
-0.021176883
-0.023528891
-0.02577824
-0.027929891
-0.029988386
-0.031958227
-0.033843635
-0.035649373
-0.037378229
-0.039033581
-0.040619555
-0.04213931
-0.043595911
-0.044991734
-0.046330432
-0.04761455
-0.048845868
-0.050026594
-0.051159329
-0.052245662
-0.05328861
-0.054289873
-0.055250602
-0.056172592
-0.057057603
-0.057907329
-0.058722997
-0.059505984
-0.06025778
-0.060979648
-0.061672782
-0.062338329
-0.062977387
-0.063591019
-0.064180226
-0.06474605
-0.065289171
-0.065810517
-0.066311073
-0.066791668
-0.067252953
-0.067695666
-0.068120562
-0.068528283
-0.068919567
-0.069295009
-0.069655222
-0.070000767
-0.070332107
-0.070649806
-0.070954424
-0.071246445
-0.071526331
-0.071794533
-0.072051488
-0.072297621
-0.072533336
-0.07275902
-0.072975046
-0.073181777
-0.073379565
-0.073568749
-0.073749649
-0.073922583
-0.074087853
-0.074245748
-0.074396558
-0.074540536
-0.074677998
-0.074809152
-0.074934225
-0.07505346
-0.075167068
-0.075275283
-0.075378323
-0.075476391
-0.075569685
-0.075658396
-0.075742704
-0.075822788
-0.075898818
-0.075970962
-0.076039383
-0.076104236
-0.076165661
-0.076223806
-0.076278819
-0.076330828
-0.076379961
-0.076426342
-0.0764701
-0.076511342
-0.076550174
-0.076586705
-0.076621036
-0.076653267
-0.0766835
-0.076711822
-0.076738318
-0.076763074
-0.076786171
-0.076807689
-0.076827703
-0.076846284
-0.076863498
-0.076879411
-0.076894084
-0.076907577
-0.076919946
-0.076931244
-0.076941524
-0.076950836
-0.076959227
-0.076966738
-0.076973409
-0.076979274
-0.076984367
-0.07698872
-0.076992363
-0.076995322
-0.07699762
-0.076999279
-0.077000321
-0.077000761
-0.077000621
-0.076999908
-0.07699862
-0.076996654
-0.076994436
-0.076990888
407.08532
407.05967
406.98943
406.87677
406.72145
406.52312
406.28142
405.99592
405.66607
405.29128
404.87084
404.40397
403.88978
403.3273
402.71545
402.05308
401.33888
400.57147
399.74935
398.87088
397.93431
396.93775
395.87918
394.75642
393.56715
392.30888
390.97895
389.57454
388.09261
386.52995
384.88313
383.1485
381.32218
379.40005
377.37772
375.25055
373.01361
370.66165
368.18918
365.59018
362.85882
359.98761
356.97168
353.79941
350.47154
346.96552
343.29631
339.42346
335.37251
331.10269
326.60741
321.90914
316.92914
311.743
306.2692
300.4957
294.46367
288.08689
281.39797
274.38358
266.9727
259.19925
251.05961
242.48293
233.41178
223.9277
213.98788
203.49507
192.4493
180.78916
168.51072
155.72967
142.33615
128.22107
113.29179
97.363574
80.465897
62.70748
44.249829
24.903051
4.9854588
-0.24635593
-0.20055838
-0.17595433
-0.11973941
-0.088661261
-0.073376547
-0.073837359
-0.082729246
-0.091310292
-0.090723688
-0.079193794
-0.060203091
-0.038011147
-0.016342057
0.00304351
0.018920568
0.030995719
0.03947873
0.044832477
0.047605971
0.048337206
0.047504969
0.045511172
0.042680298
0.039267162
0.035467765
0.031430423
0.027265822
0.023055503
0.018858738
0.014717965
0.010662975
0.0067141182
0.0028847293
-0.00081703837
-0.0043867879
-0.0078229671
-0.011125946
-0.01429761
-0.017340925
-0.020259469
-0.023057192
-0.025737708
-0.028305364
-0.030766114
-0.033123559
-0.035381882
-0.037545152
-0.039618289
-0.041604744
-0.043507727
-0.04533168
-0.047079939
-0.048755749
-0.050362883
-0.051904054
-0.053382085
-0.054799726
-0.056159515
-0.057464337
-0.05871674
-0.05991839
-0.06107134
-0.062178108
-0.06324047
-0.064260623
-0.065240281
-0.066180782
-0.06708367
-0.067950734
-0.068783317
-0.069583032
-0.070351208
-0.071088926
-0.071797406
-0.072477847
-0.073131357
-0.073759
-0.074361763
-0.074940695
-0.075496693
-0.076030555
-0.076543178
-0.077035368
-0.0775078
-0.077961514
-0.078397126
-0.07881517
-0.079216291
-0.079601311
-0.079970725
-0.080325186
-0.080665185
-0.080991313
-0.081304077
-0.081603935
-0.081891375
-0.082166864
-0.082430851
-0.082683766
-0.082926025
-0.083158022
-0.083380136
-0.083592732
-0.083796174
-0.083990805
-0.084176963
-0.084354943
-0.084525066
-0.084687634
-0.084842928
-0.08499125
-0.085132837