/*--------------------------------*- C++ -*----------------------------------*\
| =========                 |                                                 |
| \\      /  F ield         | OpenFOAM: The Open Source CFD Toolbox           |
|  \\    /   O peration     | Version:  2106                                  |
|   \\  /    A nd           | Website:  www.openfoam.com                      |
|    \\/     M anipulation  |                                                 |
\*---------------------------------------------------------------------------*/
FoamFile
{
    version     2.0;
    format      ascii;
    arch        "LSB;label=32;scalar=64";
    class       surfaceScalarField;
    location    "0.027";
    object      phi_0;
}
// * * * * * * * * * * * * * * * * * * * * * * * * * * * * * * * * * * * * * //

dimensions      [0 3 -1 0 0 0 0];

oriented        oriented;

internalField   nonuniform List<scalar> 
1984
(
-0.00065243437
0.00065245407
-0.0012796402
0.00062720583
-0.0018573465
0.0005777063
-0.002363255
0.00050590844
-0.0027778925
0.00041463754
-0.0030853629
0.00030747037
-0.00327394
0.0001885771
-0.003336549
6.2609016e-05
-0.0032709548
-6.5594156e-05
-0.0030798414
-0.00019111342
-0.00277069
-0.0003091514
-0.0023554699
-0.00041522013
-0.0018501651
-0.0005053048
-0.0012741572
-0.0005760079
-0.00064948653
-0.00062467064
-1.9547527e-08
-0.00064946698
0.00064944817
-0.00064946772
0.001274121
-0.00062467282
0.0018501324
-0.00057601146
0.0023554421
-0.00050530961
0.0027706681
-0.00041522602
0.0030798262
-0.00030915815
0.003270947
-0.00019112078
0.0033365488
-6.560184e-05
0.0032739475
6.2601306e-05
0.0030853779
0.00018856967
0.0027779144
0.00030746351
0.0023632828
0.00041463154
0.0018573793
0.00050590353
0.0012796766
0.00057770266
0.00065247302
0.0006272036
0.00065245332
-0.00067439421
0.0013268691
-0.0013226959
0.0012755076
-0.0019198048
0.0011748151
-0.0024426657
0.0010287694
-0.0028711512
0.00084312309
-0.0031888404
0.00062515958
-0.0033836496
0.00038338625
-0.0034482512
0.00012721066
-0.0033803606
-0.00013348478
-0.0031827707
-0.00038870328
-0.0028632236
-0.00062869857
-0.0024340923
-0.00084435143
-0.0019118946
-0.0010275025
-0.0013166558
-0.0011712467
-0.000671146
-0.0012701804
-2.0666819e-08
-0.0013205923
0.00067110544
-0.0013205938
0.0013166175
-0.0012701849
0.0019118601
-0.001171254
0.0024340628
-0.0010275124
0.0028632004
-0.00084436353
0.0031827547
-0.00062871245
0.0033803523
-0.00038871842
0.0034482511
-0.0001335006
0.0033836576
0.00012719479
0.0031888563
0.00038337094
0.0028711744
0.00062514547
0.0024426952
0.00084311074
0.0019198395
0.0010287592
0.0013227345
0.0011748076
0.00067443512
0.001275503
0.0013268676
-0.00070757576
0.0020344676
-0.0013877534
0.0019556852
-0.0020141795
0.0018012412
-0.0025626573
0.0015772472
-0.0030120744
0.0012925401
-0.0033452197
0.0009583049
-0.0035494368
0.0005876034
-0.0036170704
0.00019484425
-0.0035457409
-0.00020481433
-0.0033383956
-0.00059604856
-0.0030031627
-0.00096393149
-0.00255302
-0.0012944941
-0.002005288
-0.0015752345
-0.0013809639
-0.0017955708
-0.000703924
-0.0019472203
-2.2422274e-08
-0.0020244939
0.00070387999
-0.0020244962
0.0013809224
-0.0019472273
0.0020052505
-0.0017955822
0.002552988
-0.0015752499
0.0030031374
-0.0012945129
0.0033383781
-0.00096395312
0.0035457318
-0.00059607215
0.0036170702
-0.00020483898
0.0035494455
0.00019481949
0.0033452369
0.00058757952
0.0030120995
0.00095828288
0.0025626894
0.0012925208
0.0020142172
0.0015772314
0.0013877953
0.0018012296
0.00070762021
0.0019556781
0.0020344651
-0.00075618958
0.0027906824
-0.0014830689
0.0026825645
-0.0021524501
0.0024706225
-0.0027384658
0.0021632629
-0.0032185627
0.0017726369
-0.0035743736
0.0013141158
-0.0037924073
0.00080563706
-0.003864524
0.00026696093
-0.0037882083
-0.00028112996
-0.0035666201
-0.00081763678
-0.0032084405
-0.0013221111
-0.0027275225
-0.001775412
-0.002142356
-0.0021604011
-0.0014753624
-0.0024625645
-0.00075204468
-0.002670538
-2.4947021e-08
-0.0027765136
0.0007519957
-0.0027765169
0.0014753161
-0.0026705477
0.0021423142
-0.0024625803
0.0027274869
-0.0021604225
0.0032084123
-0.0017754384
0.0035666005
-0.0013221413
0.0037881982
-0.00081766979
0.0038645237
-0.00028116448
0.0037924169
0.00026692623
0.0035743929
0.00080560359
0.0032185908
0.001314085
0.0027385016
0.0017726099
0.0021524922
0.0021632408
0.0014831156
0.0024706062
0.00075623912
0.0026825546
0.002790679
-0.00082727691
0.0036179882
-0.0016224507
0.0034777383
-0.0023546548
0.0032028265
-0.0029955824
0.0028041906
-0.003520577
0.0022976316
-0.0039095839
0.0017031227
-0.0041478941
0.0010439473
-0.0042266532
0.00034572
-0.0041431393
-0.00036464385
-0.0039008059
-0.0010599702
-0.0035091227
-0.0017137942
-0.0029832048
-0.00230133
-0.0023432425
-0.0028003634
-0.001613741
-0.003192066
-0.00082259383
-0.0034616851
-2.8485003e-08
-0.003599079
0.0008225379
-0.0035990833
0.0016136881
-0.0034616979
0.0023431947
-0.0031920869
0.0029831639
-0.0028003918
0.0035090904
-0.0023013649
0.0039007834
-0.0017138343
0.0041431276
-0.001060014
0.0042266528
-0.00036468964
0.0041479051
0.00034567392
0.0039096059
0.0010439028
0.0035206093
0.0017030816
0.0029956235
0.0022975957
0.002354703
0.0028041613
0.0016225042
0.003202805
0.00082733358
0.0034777252
0.0036179837
-0.00093168906
0.0045497111
-0.0018271824
0.0043732317
-0.0026516879
0.004027332
-0.003373323
0.0035258256
-0.0039643457
0.0028886542
-0.0044022232
0.0021410002
-0.0046704563
0.0013121804
-0.0047591291
0.00043439278
-0.0046651979
-0.00045857506
-0.0043925199
-0.0013326481
-0.003951693
-0.0021546212
-0.003359661
-0.0028933619
-0.0026391008
-0.0035209236
-0.0018175825
-0.0040135843
-0.00092653127
-0.0043527363
-3.3374007e-08
-0.0045255769
0.0009264657
-0.0045255823
0.0018175205
-0.0043527526
0.0026390446
-0.0040136111
0.003359613
-0.0035209602
0.003951655
-0.0028934069
0.0043924936
-0.0021546729
0.0046651841
-0.0013327045
0.0047591285
-0.00045863404
0.0046704691
0.0004343333
0.0044022491
0.0013121228
0.0039643837
0.002140947
0.0033733715
0.0028886079
0.0026517448
0.003525788
0.0018272453
0.0040273045
0.00093175558
0.0043732149
0.0045497055
-0.0010847985
0.0056345503
-0.0021274226
0.0054158558
-0.0030873431
0.0049872525
-0.003927445
0.0043659275
-0.0046154636
0.0035766728
-0.0051252246
0.0026507611
-0.0054375886
0.0016245444
-0.0055410592
0.00053786338
-0.0054320884
-0.00056754582
-0.0051150838
-0.0016496527
-0.0046022567
-0.0026674483
-0.0039132039
-0.0035824148
-0.0030742393
-0.0043598882
-0.0021174413
-0.0049703824
-0.0010794447
-0.0053907329
-4.0048584e-08
-0.0056049815
0.0010793659
-0.0056049883
0.0021173667
-0.0053907534
0.0030741718
-0.0049704162
0.0039131461
-0.0043599344
0.0046022111
-0.0035824719
0.0051150521
-0.0026675139
0.0054320718
-0.0016497242
0.0055410583
-0.0005676205
0.0054376038
0.00053778779
0.0051252557
0.001624471
0.0046155095
0.0026506932
0.0039275036
0.0035766137
0.0030874118
0.0043658799
0.0021274984
0.0049872178
0.0010848785
0.0054158349
0.0056345433
-0.0013051826
0.0069397827
-0.0025596306
0.0066703038
-0.0037145926
0.0061422146
-0.0047254398
0.0053767747
-0.0055533915
0.0044046245
-0.0061670048
0.0032643744
-0.0065433008
0.0020008405
-0.0066684624
0.00066302502
-0.0065381637
-0.00069784457
-0.0061575488
-0.0020302676
-0.005541106
-0.003283891
-0.0047122269
-0.0044112939
-0.0037024655
-0.0053696496
-0.0025504168
-0.006122431
-0.001300259
-0.0066408908
-4.8974947e-08
-0.0069051915
0.0013001626
-0.0069051999
0.0025503253
-0.0066409162
0.0037023824
-0.0061224732
0.0047121558
-0.0053697078
0.0055410501
-0.0044113662
0.0061575102
-0.003283974
0.0065381434
-0.0020303574
0.0066684609
-0.00069793802
0.0065433189
0.00066292982
0.0061670427
0.0020007472
0.005553448
0.0032642879
0.0047255122
0.0044045495
0.0037146774
0.0053767147
0.0025597238
0.0061421714
0.0013052807
0.006670278
0.0069397741
-0.0016086872
0.0085485313
-0.0031549306
0.0082165472
-0.0045787151
0.0075659991
-0.0058250888
0.0066231484
-0.0068462775
0.0054258131
-0.007603519
0.004021616
-0.0080684663
0.0024657877
-0.0082240291
0.00081858789
-0.0080647309
-0.00085714283
-0.007596667
-0.0024983316
-0.0068374263
-0.0040431317
-0.0058156309
-0.0054330894
-0.0045700883
-0.0066151921
-0.0031484208
-0.0075440985
-0.0016052468
-0.0081840648
-6.0372033e-08
-0.0085103778
0.0016051278
-0.008510388
0.0031483075
-0.0081840958
0.0045699851
-0.0075441509
0.0058155426
-0.0066152654
0.0068373575
-0.005433181
0.00759662
-0.0040432366
0.0080647062
-0.0024984436
0.0082240263
-0.00085725808
0.0080684872
0.00081846888
0.0076035652
0.0024656692
0.0068463478
0.0040215052
0.0058251795
0.0054257178
0.0045788209
0.0066230733
0.0031550464
0.007565946
0.0016088085
0.0082165159
0.0085485212
-0.0019950433
0.01054365
-0.0039128636
0.010134367
-0.0056791964
0.0093323319
-0.0072259825
0.0081699345
-0.0084939547
0.0066937853
-0.0094349133
0.0049625746
-0.01001353
0.0030444044
-0.010208429
0.0010134864
-0.010012558
-0.0010530135
-0.0094331593
-0.00307773
-0.008491777
-0.004984514
-0.0072237685
-0.0067010978
-0.0056772782
-0.0081616825
-0.0039115083
-0.0093098683
-0.0019944156
-0.010101158
-7.347436e-08
-0.01050472
0.0019942704
-0.010504732
0.0039113692
-0.010101195
0.0056771508
-0.0093099324
0.0072236597
-0.0081617743
0.0084916933
-0.0067012146
0.0094331039
-0.0049846472
0.010012529
-0.0030778688
0.010208423
-0.0010531518
0.010013552
0.0010133393
0.0094349682
0.0030442533
0.0084940417
0.0049624318
0.0072260956
0.0066936638
0.0056793277
0.0081698412
0.0039130062
0.0093322675
0.0019951916
0.010134331
0.010543638
-0.0024258556
0.012969592
-0.0047581975
0.012466709
-0.0069069927
0.011481127
-0.0087896096
0.010052551
-0.010333888
0.0082380643
-0.011480901
0.0061095867
-0.012187273
0.003750777
-0.012426691
0.0012529037
-0.012190218
-0.0012894863
-0.011486305
-0.0037816424
-0.010340987
-0.006129832
-0.0087973551
-0.0082447301
-0.0069142178
-0.01004482
-0.0047638294
-0.011460257
-0.0024290294
-0.012435958
-8.4997559e-08
-0.012933664
0.0024288604
-0.012933677
0.0047636654
-0.012436
0.0069140656
-0.011460333
0.0087972246
-0.010044933
0.01034089
-0.0082448796
0.011486245
-0.0061300025
0.012190188
-0.0037818123
0.012426678
-0.0012896415
0.012187292
0.0012527256
0.011480962
0.0037505828
0.010333993
0.0061094007
0.0087897472
0.0082379099
0.0069071505
0.010052438
0.004758366
0.011481052
0.0024260284
0.012466668
0.012969579
-0.0027983167
0.015767996
-0.0054893246
0.015157717
-0.0079695112
0.013961314
-0.010143692
0.012226732
-0.011928432
0.010022804
-0.013255158
0.0074363135
-0.014073098
0.0045687167
-0.014351489
0.0015312942
-0.014079752
-0.0015612229
-0.0132674
-0.0045939942
-0.011944154
-0.0074530778
-0.010160367
-0.010028518
-0.0079847597
-0.012220427
-0.0055010217
-0.013943995
-0.002804783
-0.015132196
-8.6844809e-08
-0.01573836
0.0028046073
-0.015738371
0.0055008455
-0.015132238
0.0079845902
-0.013944077
0.010160218
-0.012220561
0.011944048
-0.010028709
0.013267346
-0.0074533005
0.014079735
-0.0045942009
0.014351461
-0.0015613673
0.014073101
0.001531085
0.013255222
0.0045684622
0.011928554
0.0074360685
0.010143852
0.010022612
0.007969687
0.012226603
0.0054895043
0.013961235
0.0027984946
0.015157678
0.015767986
-0.0029305608
0.018698618
-0.0057494798
0.017976636
-0.008348684
0.016560518
-0.010628565
0.014506614
-0.012501371
0.011895609
-0.013894065
0.0088290076
-0.014752997
0.0054276488
-0.01504568
0.001823977
-0.014760276
-0.0018466264
-0.01390726
-0.0054470103
-0.012518043
-0.0088422949
-0.010646047
-0.011900514
-0.0083644677
-0.014502006
-0.0057614916
-0.016546971
-0.0029372097
-0.017956478
-6.4854812e-08
-0.018675505
0.0029370701
-0.018675506
0.0057613351
-0.017956503
0.0083643001
-0.016547042
0.010645889
-0.014502151
0.01251794
-0.01190076
0.01390724
-0.0088426007
0.014760311
-0.0054472719
0.01504561
-0.0018466662
0.014752959
0.0018237363
0.013894122
0.0054272985
0.012501511
0.0088286796
0.01062874
0.011895383
0.0083488537
0.014506489
0.0057496318
0.016560457
0.0029306934
0.017976616
0.018698618
-0.0025927383
0.021291347
-0.0050876738
0.020471572
-0.0073893689
0.018862213
-0.0094095822
0.016526827
-0.011070483
0.01355651
-0.012305905
0.01006443
-0.013066577
0.0061883208
-0.013324811
0.0020822115
-0.013069984
-0.002101454
-0.012311627
-0.0062053666
-0.011077042
-0.010076881
-0.0094157422
-0.013561814
-0.0073944411
-0.016523307
-0.0050913361
-0.018850076
-0.0025947552
-0.020453059
-6.0253083e-09
-0.021270255
0.0025947165
-0.021270229
0.0050912478
-0.020453034
0.0073943043
-0.018850099
0.0094155879
-0.016523434
0.011076962
-0.013562134
0.012311707
-0.010077346
0.013070189
-0.0062057546
0.013324616
-0.0021010931
0.013066436
0.0020819165
0.01230594
0.0061877945
0.011070644
0.010063976
0.0094097591
0.013556268
0.0073894923
0.016526756
0.0050877344
0.018862215
0.0025927446
0.020471606
0.021291373
-0.0016384203
0.022929658
-0.0032164346
0.022049586
-0.0046736144
0.020319393
-0.0059540357
0.017807248
-0.0070084559
0.01461093
-0.0077917583
0.010847732
-0.0082698676
0.0066664301
-0.0084311602
0.0022435042
-0.008268215
-0.0022643992
-0.0077887533
-0.0066848283
-0.0070048226
-0.010860811
-0.0059505031
-0.014616133
-0.0046705239
-0.017803286
-0.0032136306
-0.020306969
-0.0016361114
-0.022030578
7.1910278e-08
-0.022906438
0.001636206
-0.022906363
0.0032136383
-0.022030467
0.0046704464
-0.020306907
0.005950382
-0.01780337
0.0070048241
-0.014616576
0.0077890714
-0.010861593
0.0082688988
-0.006685582
0.0084305834
-0.0022627777
0.008269516
0.0022429839
0.0077917074
0.006665603
0.0070086094
0.010847074
0.0059541869
0.014610691
0.0046736516
0.017807291
0.0032163593
0.020319507
0.0016382498
0.022049716
0.022929732
-0.00030091776
0.023230454
-0.00059255628
0.022341225
-0.00086327161
0.020590108
-0.0011015838
0.01804556
-0.0013001612
0.014809507
-0.0014487559
0.010996327
-0.001536804
0.0067544782
-0.0015750459
0.0022817461
-0.0015600625
-0.0022793827
-0.0014909869
-0.0067539039
-0.0013558714
-0.010995927
-0.0011625273
-0.014809477
-0.0009200031
-0.01804581
-0.00063607805
-0.020590894
-0.00032461155
-0.022342045
7.162515e-08
-0.023231121
0.00032470807
-0.023230999
0.00063611134
-0.02234187
0.00092000381
-0.020590799
0.0011625549
-0.018045921
0.0013560925
-0.014810113
0.0014915745
-0.010997075
0.0015611087
-0.0067551162
0.0015737469
-0.002275416
0.0015366774
0.0022800534
0.0014484981
0.0067537823
0.0013001293
0.010995443
0.0011016135
0.014809206
0.00086323485
0.01804567
0.00059243907
0.020590303
0.00030071971
0.022341435
0.023230574
0.00031470738
0.022915856
0.00061639824
0.022039534
0.00089124291
0.020315263
0.0011259084
0.017810895
0.0013127791
0.014622637
0.0014430698
0.010866036
0.0015088441
0.0066887039
0.0015236838
0.0022669063
0.0014872704
-0.0022429693
0.0014017559
-0.0066683893
0.0012578381
-0.010852009
0.0010655618
-0.014617201
0.0008349506
-0.017815199
0.00057291099
-0.020328855
0.0002907669
-0.022059901
-8.0959565e-08
-0.022940273
-0.00029087897
-0.022940201
-0.00057295443
-0.022059794
-0.00083495578
-0.020328798
-0.0010655908
-0.017815286
-0.0012580614
-0.014617643
-0.0014023553
-0.010852781
-0.0014883443
-0.0066691272
-0.0015223681
-0.0022413921
-0.0015087172
0.0022664025
-0.0014428103
0.0066878754
-0.0013127449
0.010865377
-0.0011259392
0.014622401
-0.00089121399
0.017810945
-0.00061629619
0.020315385
-0.00031453054
0.022039669
0.022915933
0.0016257955
0.021290169
0.0031931473
0.020472182
0.0046406272
0.018867783
0.0059124504
0.016539072
0.0069600901
0.013574997
0.0077391109
0.010087015
0.008215695
0.0062121199
0.008378079
0.0021045223
0.0082182722
-0.0020831624
0.007743343
-0.0061934602
0.0069649381
-0.010073604
0.0059170392
-0.013569302
0.0046445434
-0.016542703
0.0031962959
-0.018880607
0.0016280197
-0.020491624
-7.279547e-08
-0.021312181
-0.0016281166
-0.021312157
-0.0031963064
-0.020491605
-0.0046444689
-0.018880636
-0.0059169207
-0.016542834
-0.0069649415
-0.013569622
-0.0077436561
-0.010074066
-0.008218929
-0.0061938544
-0.0083775297
-0.0020827915
-0.0082153475
0.0021042203
-0.0077390653
0.0062115932
-0.0069602487
0.010086561
-0.0059126056
0.013574758
-0.0046406673
0.016539006
-0.0031930739
0.018867791
-0.0016256262
0.020472222
0.021290198
0.0025836041
0.018706578
0.0050694014
0.017986385
0.0073625472
0.016574638
0.0093751658
0.014526453
0.011029357
0.011920805
0.012258709
0.0088576633
0.013013949
0.0054568805
0.013267914
0.0018505576
0.013010999
-0.0018262479
0.012253684
-0.0054361454
0.011023539
-0.0088434588
0.0093696885
-0.011915452
0.0073580463
-0.014531061
0.0050660681
-0.016588629
0.0025816951
-0.018007252
7.6405581e-09
-0.018730493
-0.0025816544
-0.018730495
-0.0050659797
-0.018007279
-0.0073579116
-0.016588704
-0.0093695375
-0.014531208
-0.011023462
-0.011915698
-0.012253764
-0.0088437645
-0.013011208
-0.0054364099
-0.013267721
-0.001826279
-0.013013812
0.0018503117
-0.012258749
0.0054565299
-0.011029523
0.008857335
-0.0093753458
0.011920581
-0.0073626712
0.014526332
-0.0050694599
0.01657458
-0.0025836059
0.017986368
0.01870658
0.0029246541
0.015781865
0.0057369443
0.015174094
0.0083288438
0.013982738
0.010600712
0.012254585
0.012464721
0.010056796
0.013847997
0.0074743877
0.014697385
0.0046074927
0.014981603
0.0015663387
0.014690194
-0.0015348381
0.013834917
-0.0045808686
0.01244813
-0.0074566718
0.010583279
-0.010050601
0.0083131098
-0.012260892
0.0057249881
-0.014000507
0.0029181206
-0.015200384
6.5896608e-08
-0.015812438
-0.0029179795
-0.01581245
-0.0057248317
-0.015200427
-0.0083129437
-0.014000592
-0.010583124
-0.012261028
-0.012448029
-0.010050793
-0.013834899
-0.0074568948
-0.014690233
-0.0045810758
-0.014981532
-0.0015349795
-0.014697348
0.0015661277
-0.013848056
0.0046072377
-0.012464864
0.0074741425
-0.010600888
0.010056605
-0.0083290131
0.012254457
-0.0057370937
0.013982661
-0.0029247824
0.015174056
0.015781856
0.0027898235
0.012991956
0.0054718142
0.012492104
0.007942382
0.01151217
0.010106406
0.010090561
0.011880639
0.0082825629
0.013196724
0.006158303
0.01400461
0.0037996062
0.014274762
0.0012961874
0.013997736
-0.001257813
0.013184066
-0.0037671983
0.011864358
-0.0061369635
0.010089139
-0.0082753817
0.0079266263
-0.01009838
0.0054598022
-0.011533683
0.0027833374
-0.012523919
8.6828787e-08
-0.013029188
-0.0027831621
-0.013029201
-0.005459627
-0.012523962
-0.0079264585
-0.01153376
-0.010088992
-0.010098494
-0.011864253
-0.0082755318
-0.013184014
-0.0061371344
-0.013997721
-0.0037673684
-0.014274733
-0.0012579679
-0.014004614
0.0012960088
-0.013196788
0.0037994114
-0.011880762
0.0061581167
-0.010106565
0.0082824086
-0.0079425566
0.010090448
-0.0054719916
0.011512096
-0.0027899981
0.012492063
0.012991944
0.002410053
0.010581818
0.0047267372
0.010175419
0.0068603738
0.0093785337
0.0087287555
0.0082221795
0.01026019
0.0067511287
0.01139635
0.005022143
0.012094508
0.0031014484
0.012328878
0.0010618165
0.012091119
-0.0010200531
0.011390123
-0.0030662028
0.010252023
-0.0049988638
0.0087198717
-0.0067432301
0.0068521426
-0.0082306505
0.0047204187
-0.0094019592
0.0024066634
-0.010210164
8.4207477e-08
-0.010622609
-0.002406496
-0.010622621
-0.0047202566
-0.010210202
-0.0068519925
-0.0094020242
-0.0087197433
-0.0082307433
-0.010251927
-0.0067433479
-0.011390064
-0.0049989978
-0.01209109
-0.0030663423
-0.012328866
-0.0010201921
-0.012094526
0.0010616689
-0.011396411
0.0031012965
-0.010260294
0.0050219995
-0.0087288919
0.0067510067
-0.0068605298
0.0082220859
-0.0047269032
0.0093784692
-0.0024102229
0.010175382
0.010581806
0.0019691767
0.0086125678
0.0038621041
0.0082824921
0.0056055322
0.0076351056
0.0071323437
0.0066953681
0.0083840858
0.0054993866
0.0093132506
0.0040929782
0.0098849694
0.0025297296
0.010078026
0.00086876018
0.0098853222
-0.0008273496
0.0093138621
-0.0024947427
0.0083847789
-0.0040697806
0.0071329698
-0.0054914211
0.0056060252
-0.0067037058
0.0038624443
-0.0076583783
0.0019693919
-0.0083171114
7.2120335e-08
-0.008653289
-0.0019692494
-0.0086532994
-0.0038623079
-0.0083171431
-0.0056059005
-0.0076584317
-0.0071328634
-0.0067037803
-0.0083846972
-0.0054915141
-0.0093138081
-0.0040698869
-0.0098852943
-0.0024948561
-0.01007802
-0.00082746634
-0.0098849912
0.00086863998
-0.0093133045
0.0025296098
-0.0083841713
0.0040928663
-0.0071324548
0.0054992902
-0.0056056611
0.0066952922
-0.0038622438
0.0076350519
-0.0019693218
0.0082824605
0.0086125575
0.0015712413
0.007041267
0.0030817904
0.0067719429
0.0044733107
0.0062435853
0.0056923181
0.0054763606
0.0066922021
0.0044995025
0.0074350063
0.003350174
0.0078927637
0.0020719723
0.0080483172
0.00071320662
0.0078957578
-0.00067479018
0.0074404907
-0.0020394756
0.0066992735
-0.0033285634
0.0056998669
-0.0044920145
0.004480209
-0.005484048
0.0030870409
-0.0062652102
0.001574113
-0.0068041834
5.8535731e-08
-0.0070792346
-0.0015739976
-0.0070792433
-0.0030869311
-0.0068042096
-0.0044801091
-0.0062652537
-0.0056997816
-0.0054841079
-0.006699207
-0.0044920887
-0.0074404454
-0.0033286484
-0.0078957341
-0.0020395675
-0.0080483146
-0.00067488585
-0.007892784
0.0007131094
-0.0074350512
0.002071877
-0.0066922705
0.0033500856
-0.0056924062
0.0044994259
-0.0044734133
0.0054762994
-0.0030819026
0.0062435412
-0.0015713587
0.0067719165
0.0070412583
0.0012558415
0.005785378
0.0024633402
0.0055644442
0.0035759935
0.0051309321
0.0045511122
0.0045012419
0.0053514229
0.0036991919
0.0059464763
0.0027551205
0.0063137255
0.0017047231
0.0064392312
0.00058770094
0.0063180798
-0.00055363875
0.0059544869
-0.0016758827
0.0053618255
-0.002735902
0.0045623018
-0.0036924908
0.0035862808
-0.0045080269
0.0024711978
-0.0051501272
0.0012601225
-0.0055931081
4.6731005e-08
-0.0058191588
-0.0012600305
-0.005819166
-0.0024711105
-0.0055931296
-0.0035862016
-0.0051501626
-0.0045622341
-0.0045080753
-0.0053617723
-0.0036925505
-0.0059544502
-0.0027359705
-0.0063180606
-0.0016759571
-0.0064392299
-0.00055371656
-0.0063137428
0.00058762237
-0.0059465126
0.0017046467
-0.0053514769
0.0027550499
-0.0045511815
0.0036991305
-0.0035760745
0.0045011923
-0.0024634292
0.0051308959
-0.0012559351
0.0055644224
0.0057853707
0.0010259951
0.0047593446
0.0020126371
0.0045778022
0.0029220392
0.00422153
0.0037193655
0.0037039155
0.0043741284
0.003044429
0.004861335
0.0022679139
0.00516239
0.0014036682
0.0052657226
0.00048436835
0.0051671892
-0.00045510544
0.0048701821
-0.0013788755
0.0043856509
-0.0022513708
0.0037317971
-0.003038637
0.0029334964
-0.0037097262
0.0020214015
-0.0042380323
0.0010307648
-0.0046024714
3.7620089e-08
-0.0047884316
-0.0010306909
-0.0047884375
-0.0020213314
-0.004602489
-0.0029334329
-0.0042380611
-0.0037317428
-0.0037097654
-0.0043856081
-0.0030386852
-0.0048701524
-0.0022514261
-0.0051671737
-0.0013789359
-0.0052657218
-0.00045516852
-0.0051624043
0.00048430488
-0.0048613643
0.0014036067
-0.0043741716
0.0022678572
-0.0037194207
0.0030443796
-0.0029221038
0.0037038754
-0.0020127084
0.0042215006
-0.0010260703
0.0045777843
0.0047593386
0.0008715711
0.0038877416
0.0017098179
0.0037395555
0.0024826327
0.0034487152
0.0031604482
0.0030261001
0.0037173283
0.0024875489
0.0041319452
0.001853297
0.0043883683
0.0011472451
0.0044766434
0.00039609322
0.0043931517
-0.00037161378
0.0041407802
-0.001126504
0.0037288612
-0.0018394518
0.0031729171
-0.0024826929
0.0024941436
-0.0030309527
0.0017186325
-0.0034625212
0.00087636676
-0.0037602057
3.1403326e-08
-0.0039120963
-0.00087630506
-0.0039121011
-0.0017185741
-0.0037602199
-0.0024940908
-0.0034625445
-0.003172872
-0.0030309842
-0.0037288255
-0.0024827317
-0.0041407554
-0.0018394962
-0.0043931388
-0.0011265525
-0.004476643
-0.00037166435
-0.0043883803
0.00039604217
-0.0041319695
0.001147196
-0.003717364
0.0018532517
-0.0031604938
0.0024875094
-0.0024826863
0.0030260679
-0.0017098771
0.0034486914
-0.00087163375
0.0037395409
0.0038877368
0.00078002908
0.0031076857
0.0015303132
0.0029892713
0.0022221775
0.0027568509
0.0028291795
0.0024190981
0.0033280793
0.0019886491
0.0036997162
0.0014816601
0.003929731
0.00091723029
0.0040091141
0.00031671015
0.0039345815
-0.0002970812
0.0037086758
-0.00090059829
0.0033397787
-0.0014705547
0.0028418348
-0.001984749
0.0022338662
-0.0024229842
0.0015392664
-0.0027679214
0.00078489706
-0.0030058363
2.6484875e-08
-0.0031272257
-0.00078484506
-0.0031272295
-0.0015392173
-0.0030058477
-0.0022338219
-0.0027679399
-0.0028417969
-0.0024230092
-0.0033397489
-0.0019847797
-0.0037086551
-0.00147059
-0.0039345708
-0.00090063681
-0.0040091135
-0.00029712165
-0.0039297411
0.00031666985
-0.0036997366
0.00091719141
-0.0033281092
0.0014816243
-0.0028292177
0.0019886178
-0.0022222224
0.0024190726
-0.001530363
0.002756832
-0.00078008175
0.0029892597
0.0031076818
0.00076424366
0.0023434094
0.0014993782
0.0022541367
0.0021773188
0.0020789103
0.0027721551
0.0018242617
0.0032610941
0.0014997101
0.0036253245
0.0011174297
0.0038507459
0.00069180891
0.0039285357
0.00023892034
0.0038554979
-0.00022404345
0.0036341014
-0.0006792017
0.0032725585
-0.0011090118
0.0027845628
-0.0014967534
0.0021887866
-0.0018272079
0.0015081696
-0.0020873044
0.00076903114
-0.0022666979
3.2350433e-08
-0.0023582269
-0.00076896765
-0.0023582295
-0.0015081097
-0.0022667057
-0.0021887326
-0.002087317
-0.0027845168
-0.001827225
-0.0032725222
-0.0014967743
-0.0036340763
-0.0011090359
-0.003855485
-0.00067922805
-0.0039285358
-0.00022407091
-0.0038507582
0.00023889222
-0.003625349
0.00069178227
-0.0032611301
0.0011174054
-0.0027722012
0.0014996889
-0.0021773731
0.0018242445
-0.0014994386
0.0020788976
-0.00076430778
0.0022541289
0.0023434067
0.00075033367
0.0015930569
0.001472118
0.0015323524
0.0021378267
0.0014132016
0.0027220388
0.0012400496
0.0032023729
0.001019376
0.0035603355
0.00075946714
0.0037820289
0.00047011558
0.0038586861
0.0001622631
0.003787106
-0.00015246339
0.003569713
-0.00046180862
0.0032146242
-0.00075392304
0.0027352982
-0.0010174274
0.0021500782
-0.0012419878
0.0014815021
-0.0014187283
0.00075542905
-0.0015406248
1.861092e-08
-0.0016028165
-0.0007553925
-0.0016028184
-0.0014814677
-0.0015406305
-0.0021500472
-0.0014187375
-0.0027352718
-0.0012420003
-0.0032146034
-0.0010174427
-0.0035696986
-0.00075394072
-0.0037870986
-0.00046182806
-0.0038586855
-0.00015248399
-0.0037820359
0.0001622426
-0.0035603497
0.0004700961
-0.0032023937
0.00075944943
-0.0027220654
0.0010193606
-0.002137858
0.0012400371
-0.0014721528
0.0014131923
-0.00075037055
0.0015323467
0.001593055
0.00087095631
0.0007220468
0.0017087457
0.00069456306
0.0024813302
0.00064061707
0.003159161
0.00056221891
0.0037162351
0.00046230178
0.0041310819
0.00034462036
0.0043876018
0.00021359573
0.0044758212
7.4043662e-05
0.0043927549
-6.9397067e-05
0.0041406152
-0.00020966891
0.0037286912
-0.00034199911
0.0031726494
-0.00046138557
0.0024938075
-0.00056314593
0.0017183242
-0.00064324505
0.00087619113
-0.00069849174
5.3589995e-08
-0.00072667893
-0.00087608602
-0.00072667881
-0.0017182251
-0.00069849138
-0.0024937182
-0.00064324446
-0.0031725733
-0.00056314515
-0.0037286314
-0.00046138469
-0.0041405738
-0.00034199824
-0.0043927338
-0.0002096681
-0.0044758213
-6.9396481e-05
-0.0043876224
7.4043728e-05
-0.0041311228
0.00021359643
-0.0037162948
0.00034462142
-0.003159237
0.00046230282
-0.0024814197
0.00056221977
-0.0017088451
0.0006406177
-0.00087106184
0.00069456345
0.00072204694
0.00074344105
0.0014585719
0.0021181432
0.0026969741
0.0031729071
0.0035276542
0.0037474833
0.0038236297
0.0037521371
0.003536241
0.0031841191
0.0027091035
0.0021293436
0.0014671397
0.00074807342
-3.7422632e-09
-0.00074808073
-0.0014671465
-0.0021293496
-0.0027091084
-0.0031841228
-0.0035362433
-0.0037521381
-0.0038236296
-0.0037474826
-0.0035276523
-0.0031729037
-0.0026969692
-0.002118137
-0.0014585648
-0.00074343346
)
;

boundaryField
{
    leftWall
    {
        type            cyclic;
        value           nonuniform List<scalar> 
32
(
-1.970509e-08
-2.0853962e-08
-2.2656056e-08
-2.5243836e-08
-2.8864721e-08
-3.3859713e-08
-4.0668981e-08
-4.9778112e-08
-6.1450137e-08
-7.4945458e-08
-8.6774704e-08
-8.7786846e-08
-6.1137315e-08
9.9885702e-09
1.0902545e-07
1.2216741e-07
-1.0995597e-07
-1.0867091e-07
-1.2907281e-08
5.8595207e-08
8.5970557e-08
8.5216069e-08
7.3275505e-08
5.9486676e-08
4.7488095e-08
3.8229235e-08
3.189133e-08
2.6829149e-08
3.2677413e-08
1.8773698e-08
5.382293e-08
-3.8934593e-09
)
;
    }
    rightWall
    {
        type            cyclic;
        value           nonuniform List<scalar> 
32
(
1.970509e-08
2.0853962e-08
2.2656056e-08
2.5243836e-08
2.8864721e-08
3.3859713e-08
4.0668981e-08
4.9778112e-08
6.1450137e-08
7.4945458e-08
8.6774704e-08
8.7786846e-08
6.1137315e-08
-9.9885702e-09
-1.0902545e-07
-1.2216741e-07
1.0995597e-07
1.0867091e-07
1.2907281e-08
-5.8595207e-08
-8.5970557e-08
-8.5216069e-08
-7.3275505e-08
-5.9486676e-08
-4.7488095e-08
-3.8229235e-08
-3.189133e-08
-2.6829149e-08
-3.2677413e-08
-1.8773698e-08
-5.382293e-08
3.8934593e-09
)
;
    }
    lowerWall
    {
        type            calculated;
        value           uniform 0;
    }
    atmosphere
    {
        type            calculated;
        value           nonuniform List<scalar> 
32
(
-2.1390358e-05
-2.0567746e-05
-1.8954257e-05
-1.6612027e-05
-1.3631247e-05
-1.0126672e-05
-6.2333981e-06
-2.1027652e-06
2.0955389e-06
6.2272582e-06
1.0122724e-05
1.3630088e-05
1.6613891e-05
1.8958915e-05
2.0574519e-05
2.1398228e-05
2.1398183e-05
2.0574381e-05
1.8958688e-05
1.6613582e-05
1.3629703e-05
1.0122274e-05
6.2267586e-06
2.0950091e-06
-2.1032945e-06
-6.2339146e-06
-1.0127155e-05
-1.3631676e-05
-1.6612383e-05
-1.8954523e-05
-2.056791e-05
-2.1390413e-05
)
;
    }
    defaultFaces
    {
        type            empty;
        value           nonuniform List<scalar> 0();
    }
}


// ************************************************************************* //
