/*--------------------------------*- C++ -*----------------------------------*\
| =========                 |                                                 |
| \\      /  F ield         | OpenFOAM: The Open Source CFD Toolbox           |
|  \\    /   O peration     | Version:  2106                                  |
|   \\  /    A nd           | Website:  www.openfoam.com                      |
|    \\/     M anipulation  |                                                 |
\*---------------------------------------------------------------------------*/
FoamFile
{
    version     2.0;
    format      ascii;
    arch        "LSB;label=32;scalar=64";
    class       volVectorField;
    location    "0.027";
    object      U;
}
// * * * * * * * * * * * * * * * * * * * * * * * * * * * * * * * * * * * * * //

dimensions      [0 1 -1 0 0 0 0];

internalField   nonuniform List<vector> 
1024
(
(-0.010542771 0.010376489 0)
(-0.031221491 0.0099749898 0)
(-0.050692052 0.0091878386 0)
(-0.068202116 0.0080460781 0)
(-0.083076591 0.0065946155 0)
(-0.094743804 0.0048902742 0)
(-0.10275898 0.002999221 0)
(-0.10681472 0.00099631971 0)
(-0.10676582 -0.0010428717 0)
(-0.1026163 -0.0030392484 0)
(-0.094531749 -0.0049166507 0)
(-0.082826545 -0.0066036999 0)
(-0.0679524 -0.0080365317 0)
(-0.050480749 -0.0091610997 0)
(-0.031080814 -0.0099351083 0)
(-0.010494212 -0.010329509 0)
(0.010492959 -0.010329521 0)
(0.031079606 -0.0099351429 0)
(0.050479634 -0.009161156 0)
(0.06795142 -0.0080366077 0)
(0.082825738 -0.006603793 0)
(0.094531147 -0.0049167574 0)
(0.10261593 -0.0030393647 0)
(0.10676569 -0.0010429931 0)
(0.10681484 0.00099619789 0)
(0.10275935 0.0029991035 0)
(0.094744402 0.0048901659 0)
(0.083077397 0.0065945206 0)
(0.068203098 0.0080460004 0)
(0.050693173 0.0091877809 0)
(0.031222707 0.0099749544 0)
(0.010544034 0.010376477 0)
(-0.010897438 0.03141835 0)
(-0.032271582 0.030202463 0)
(-0.052396209 0.027818714 0)
(-0.070493363 0.024361175 0)
(-0.085865187 0.019965924 0)
(-0.097921096 0.01480526 0)
(-0.10620094 0.0090803515 0)
(-0.11039058 0.0030141921 0)
(-0.1103359 -0.0031591098 0)
(-0.10604469 -0.0092030955 0)
(-0.097687667 -0.014886776 0)
(-0.085589953 -0.019994078 0)
(-0.070218426 -0.024331701 0)
(-0.052163528 -0.027736071 0)
(-0.032116649 -0.030079182 0)
(-0.010843922 -0.031273124 0)
(0.010842598 -0.031273159 0)
(0.032115372 -0.030079287 0)
(0.052162349 -0.027736242 0)
(0.07021739 -0.024331932 0)
(0.0855891 -0.019994361 0)
(0.097687029 -0.0148871 0)
(0.1060443 -0.0092034493 0)
(0.11033576 -0.0031594793 0)
(0.11039071 0.0030138212 0)
(0.10620133 0.009079994 0)
(0.097921728 0.01480493 0)
(0.08586604 0.019965635 0)
(0.070494404 0.024360938 0)
(0.052397396 0.027818539 0)
(0.032272869 0.030202356 0)
(0.010898775 0.031418313 0)
(-0.011433809 0.05341924 0)
(-0.033859654 0.051351181 0)
(-0.054973428 0.047296879 0)
(-0.073958463 0.041416575 0)
(-0.09008252 0.033942013 0)
(-0.10272637 0.025166581 0)
(-0.11140766 0.015432985 0)
(-0.11579835 0.0051196806 0)
(-0.11573673 -0.005375305 0)
(-0.11123218 -0.015649489 0)
(-0.10246394 -0.025310664 0)
(-0.089773165 -0.03399182 0)
(-0.073649455 -0.041364557 0)
(-0.054711919 -0.047150949 0)
(-0.033685519 -0.051133492 0)
(-0.011373629 -0.053162804 0)
(0.011372192 -0.053162865 0)
(0.033684134 -0.051133673 0)
(0.054710639 -0.047151243 0)
(0.073648329 -0.041364955 0)
(0.089772237 -0.033992308 0)
(0.10246325 -0.025311224 0)
(0.11123175 -0.015650099 0)
(0.11573658 -0.0053759427 0)
(0.11579849 0.0051190404 0)
(0.11140809 0.015432367 0)
(0.10272706 0.025166011 0)
(0.090083448 0.033941514 0)
(0.073959594 0.041416166 0)
(0.054974718 0.047296577 0)
(0.033861052 0.051350996 0)
(0.011435261 0.053419177 0)
(-0.012219655 0.076680357 0)
(-0.036186375 0.073710482 0)
(-0.058749413 0.067888479 0)
(-0.07903544 0.059444927 0)
(-0.096261912 0.048713189 0)
(-0.10976766 0.036115128 0)
(-0.11903819 0.02214328 0)
(-0.1237243 0.0073406413 0)
(-0.12365427 -0.0077215436 0)
(-0.11883884 -0.022465809 0)
(-0.10946956 -0.036329839 0)
(-0.095910623 -0.048787356 0)
(-0.078684641 -0.059367297 0)
(-0.058452599 -0.067670886 0)
(-0.035988755 -0.073385971 0)
(-0.012151346 -0.076298124 0)
(0.012149747 -0.076298213 0)
(0.035987213 -0.073386234 0)
(0.058451173 -0.067671316 0)
(0.078683386 -0.059367878 0)
(0.095909588 -0.048788069 0)
(0.10946878 -0.036330657 0)
(0.11883836 -0.022466701 0)
(0.1236541 -0.007722476 0)
(0.12372445 0.0073397045 0)
(0.11903865 0.022142376 0)
(0.10976843 0.036114294 0)
(0.096262948 0.048712459 0)
(0.079036703 0.059444329 0)
(0.058750852 0.067888037 0)
(0.036187934 0.073710211 0)
(0.012221273 0.076680266 0)
(-0.013368769 0.10178153 0)
(-0.039588694 0.097837397 0)
(-0.06427114 0.090105944 0)
(-0.086460042 0.078894203 0)
(-0.10529942 0.064645858 0)
(-0.12006687 0.04792202 0)
(-0.13020104 0.029377227 0)
(-0.13532172 0.0097321583 0)
(-0.13524241 -0.010255504 0)
(-0.12997533 -0.029820257 0)
(-0.11972944 -0.048216834 0)
(-0.104902 -0.064747471 0)
(-0.086063369 -0.078787223 0)
(-0.063935651 -0.089806715 0)
(-0.039365399 -0.097391361 0)
(-0.013291611 -0.10125626 0)
(0.013289786 -0.10125638 0)
(0.039363638 -0.097391717 0)
(0.063934021 -0.089807296 0)
(0.086061932 -0.07878801 0)
(0.10490081 -0.064748437 0)
(0.11972856 -0.048217943 0)
(0.12997477 -0.029821467 0)
(0.13524221 -0.010256769 0)
(0.13532189 0.0097308864 0)
(0.13020158 0.029375999 0)
(0.12006775 0.047920887 0)
(0.1053006 0.064644866 0)
(0.08646149 0.078893393 0)
(0.064272788 0.090105346 0)
(0.039590477 0.097837031 0)
(0.013370618 0.10178141 0)
(-0.015056485 0.12958378 0)
(-0.044585857 0.12455921 0)
(-0.072381705 0.11471057 0)
(-0.097366701 0.1004303 0)
(-0.11857717 0.082285154 0)
(-0.13520088 0.060991262 0)
(-0.14660765 0.037383011 0)
(-0.15237146 0.012377755 0)
(-0.15228372 -0.013061202 0)
(-0.14635803 -0.037961348 0)
(-0.13482795 -0.061375755 0)
(-0.11813829 -0.082417133 0)
(-0.096928993 -0.10028985 0)
(-0.072011782 -0.11431921 0)
(-0.044339815 -0.12397636 0)
(-0.014971577 -0.12889762 0)
(0.014969438 -0.12889778 0)
(0.04433775 -0.12397682 0)
(0.072009868 -0.11431997 0)
(0.096927305 -0.10029088 0)
(0.1181369 -0.082418392 0)
(0.1348269 -0.061377201 0)
(0.14635738 -0.037962925 0)
(0.15228349 -0.013062851 0)
(0.15237166 0.012376095 0)
(0.14660828 0.037381405 0)
(0.13520191 0.060989778 0)
(0.11857857 0.082283858 0)
(0.097368408 0.10042925 0)
(0.072383644 0.1147098 0)
(0.044587951 0.12455874 0)
(0.015058654 0.12958362 0)
(-0.017531124 0.16136195 0)
(-0.051913376 0.15510113 0)
(-0.08427573 0.14283038 0)
(-0.11336355 0.12504062 0)
(-0.13805548 0.10244028 0)
(-0.15740741 0.075923584 0)
(-0.17068793 0.046530871 0)
(-0.17740321 0.015403825 0)
(-0.17731137 -0.016260705 0)
(-0.17042679 -0.047255521 0)
(-0.15701771 -0.076404583 0)
(-0.1375975 -0.10260427 0)
(-0.11290743 -0.12486301 0)
(-0.083890745 -0.14233849 0)
(-0.051657666 -0.15436959 0)
(-0.017443155 -0.16050123 0)
(0.017440589 -0.16050142 0)
(0.051655186 -0.15437018 0)
(0.083888442 -0.14233945 0)
(0.11290539 -0.12486432 0)
(0.13759582 -0.10260588 0)
(0.15701645 -0.07640643 0)
(0.17042601 -0.047257533 0)
(0.17731108 -0.016262808 0)
(0.17740344 0.015401702 0)
(0.17068868 0.046528811 0)
(0.15740866 0.075921679 0)
(0.13805718 0.10243862 0)
(0.11336562 0.12503927 0)
(0.08427807 0.1428294 0)
(0.051915896 0.15510053 0)
(0.017533729 0.16136175 0)
(-0.021092654 0.19895637 0)
(-0.06245996 0.19123238 0)
(-0.10139735 0.17609528 0)
(-0.1363959 0.15415323 0)
(-0.16610748 0.12628312 0)
(-0.18939761 0.093590526 0)
(-0.20538803 0.057359676 0)
(-0.21348596 0.018996745 0)
(-0.21340003 -0.020027347 0)
(-0.20514398 -0.058230412 0)
(-0.18903417 -0.094167045 0)
(-0.16568151 -0.1264776 0)
(-0.13597279 -0.15393685 0)
(-0.10104115 -0.17550147 0)
(-0.06222406 -0.19035115 0)
(-0.021012103 -0.19792041 0)
(0.021008965 -0.19792065 0)
(0.062221022 -0.19035188 0)
(0.10103832 -0.17550267 0)
(0.13597029 -0.15393851 0)
(0.16567944 -0.12647964 0)
(0.18903264 -0.094169383 0)
(0.20514302 -0.058232947 0)
(0.21339968 -0.020029991 0)
(0.21348623 0.018994063 0)
(0.20538894 0.057357057 0)
(0.18939915 0.093588098 0)
(0.16610957 0.12628101 0)
(0.13639845 0.15415153 0)
(0.10140023 0.17609405 0)
(0.062463051 0.19123164 0)
(0.021095842 0.19895613 0)
(-0.025996699 0.24482978 0)
(-0.07698338 0.23532153 0)
(-0.12497928 0.21668909 0)
(-0.16812673 0.1896838 0)
(-0.20476546 0.15538809 0)
(-0.23349738 0.11516534 0)
(-0.25323951 0.070597134 0)
(-0.2632602 0.023411174 0)
(-0.26319741 -0.02458994 0)
(-0.25306159 -0.071591611 0)
(-0.23323366 -0.11582127 0)
(-0.20445837 -0.15560587 0)
(-0.1678237 -0.18943182 0)
(-0.12472581 -0.21600647 0)
(-0.076816879 -0.23431162 0)
(-0.025941126 -0.24364409 0)
(0.025937261 -0.24364438 0)
(0.076813125 -0.23431252 0)
(0.1247223 -0.21600797 0)
(0.16782059 -0.1894339 0)
(0.20445581 -0.15560845 0)
(0.23323178 -0.11582423 0)
(0.25306042 -0.071594785 0)
(0.26319696 -0.024593224 0)
(0.2632605 0.023407811 0)
(0.25324061 0.070593811 0)
(0.23349928 0.11516224 0)
(0.20476809 0.15538541 0)
(0.16812992 0.18968167 0)
(0.12498287 0.21668756 0)
(0.07698721 0.23532062 0)
(0.026000634 0.24482948 0)
(-0.032238309 0.30183534 0)
(-0.095470124 0.29011431 0)
(-0.15500312 0.26714628 0)
(-0.20853787 0.23385932 0)
(-0.25401673 0.19158934 0)
(-0.28970317 0.14201816 0)
(-0.31424898 0.087095843 0)
(-0.32674118 0.028948777 0)
(-0.32672416 -0.030210678 0)
(-0.31420124 -0.088158102 0)
(-0.28963418 -0.14271484 0)
(-0.2539399 -0.19181556 0)
(-0.20846571 -0.23358332 0)
(-0.15494596 -0.26641104 0)
(-0.095435585 -0.28903102 0)
(-0.032229799 -0.30056595 0)
(0.032225098 -0.30056631 0)
(0.095430994 -0.28903212 0)
(0.15494164 -0.2664129 0)
(0.20846187 -0.23358594 0)
(0.25393676 -0.19181885 0)
(0.28963191 -0.14271858 0)
(0.31419987 -0.088162047 0)
(0.32672359 -0.03021468 0)
(0.32674144 0.028944597 0)
(0.31425024 0.087091611 0)
(0.28970549 0.14201418 0)
(0.25402 0.19158592 0)
(0.20854185 0.23385665 0)
(0.15500756 0.26714441 0)
(0.095474822 0.29011322 0)
(0.032243107 0.30183498 0)
(-0.0391965 0.37241553 0)
(-0.11608243 0.35796415 0)
(-0.18848872 0.32964418 0)
(-0.25362625 0.28859919 0)
(-0.30899412 0.23647392 0)
(-0.35247343 0.1753391 0)
(-0.38241188 0.10759937 0)
(-0.3976872 0.03587612 0)
(-0.39773563 -0.037112433 0)
(-0.38254837 -0.1086375 0)
(-0.35267638 -0.17601578 0)
(-0.30923502 -0.23668883 0)
(-0.25386947 -0.28832326 0)
(-0.1886978 -0.32892028 0)
(-0.11622619 -0.35690217 0)
(-0.039251277 -0.37117461 0)
(0.039245842 -0.37117502 0)
(0.11622082 -0.35690346 0)
(0.18869268 -0.32892254 0)
(0.25386486 -0.28832654 0)
(0.30923127 -0.23669304 0)
(0.35267379 -0.17602055 0)
(0.38254692 -0.10864236 0)
(0.39773494 -0.037117105 0)
(0.39768728 0.035870995 0)
(0.38241319 0.10759395 0)
(0.35247617 0.17533393 0)
(0.3089981 0.23646955 0)
(0.25363106 0.28859588 0)
(0.188494 0.32964194 0)
(0.11608793 0.35796288 0)
(0.039202054 0.37241514 0)
(-0.045210043 0.45696267 0)
(-0.13390121 0.43925576 0)
(-0.21745055 0.40454955 0)
(-0.29264909 0.35424 0)
(-0.35661227 0.29033246 0)
(-0.40688084 0.21535288 0)
(-0.44152536 0.13225192 0)
(-0.45923416 0.044247604 0)
(-0.45934364 -0.045340383 0)
(-0.4418407 -0.13318432 0)
(-0.407339 -0.21596742 0)
(-0.35714072 -0.290532 0)
(-0.29317016 -0.35400527 0)
(-0.21789046 -0.40392055 0)
(-0.13419866 -0.43833193 0)
(-0.045318994 -0.45588698 0)
(0.045313444 -0.4558874 0)
(0.13419301 -0.43833336 0)
(0.21788485 -0.40392319 0)
(0.29316493 -0.3540093 0)
(0.3571365 -0.29053741 0)
(0.40733636 -0.21597358 0)
(0.4418396 -0.13319024 0)
(0.4593429 -0.045345244 0)
(0.45923367 0.044241464 0)
(0.44152645 0.13224489 0)
(0.40688393 0.21534609 0)
(0.35661695 0.29032693 0)
(0.29265459 0.35423604 0)
(0.21745631 0.40454699 0)
(0.13390695 0.43925439 0)
(0.045215662 0.45696227 0)
(-0.047341522 0.55134572 0)
(-0.14022654 0.5300256 0)
(-0.22775897 0.48822163 0)
(-0.30658524 0.42760408 0)
(-0.37368292 0.35056994 0)
(-0.4264386 0.26015068 0)
(-0.46281074 0.15988011 0)
(-0.48142402 0.053652491 0)
(-0.48154361 -0.05452058 0)
(-0.46314831 -0.16060266 0)
(-0.42693044 -0.26064095 0)
(-0.3742371 -0.35076445 0)
(-0.30712355 -0.42745377 0)
(-0.22820889 -0.48775199 0)
(-0.1405299 -0.52931911 0)
(-0.047451207 -0.55052415 0)
(0.047447061 -0.55052443 0)
(0.1405252 -0.52932038 0)
(0.22820363 -0.48775472 0)
(0.30711811 -0.42745846 0)
(0.37423263 -0.35077144 0)
(0.42692832 -0.26064918 0)
(0.46314881 -0.16060993 0)
(0.48154307 -0.054523881 0)
(0.48142197 0.053645296 0)
(0.46281106 0.15987072 0)
(0.426442 0.26014167 0)
(0.37368828 0.35056314 0)
(0.30659093 0.42759974 0)
(0.22776416 0.48821912 0)
(0.14023106 0.53002446 0)
(0.047345443 0.55134547 0)
(-0.041879876 0.64431037 0)
(-0.12406641 0.61946028 0)
(-0.20155633 0.57070159 0)
(-0.27138212 0.49996864 0)
(-0.330859 0.4100382 0)
(-0.37766595 0.30436389 0)
(-0.40991868 0.18712531 0)
(-0.42637758 0.06292072 0)
(-0.4264339 -0.063641344 0)
(-0.41006434 -0.18777027 0)
(-0.37786482 -0.30484078 0)
(-0.33105879 -0.41026261 0)
(-0.27154818 -0.4999085 0)
(-0.20168706 -0.5703626 0)
(-0.1241524 -0.61891255 0)
(-0.041905132 -0.64366905 0)
(0.041904735 -0.64366881 0)
(0.12415051 -0.61891292 0)
(0.20168342 -0.57036459 0)
(0.27154308 -0.49991328 0)
(0.33105435 -0.41027163 0)
(0.37786441 -0.30485251 0)
(0.41007006 -0.18778016 0)
(0.42643433 -0.063637602 0)
(0.426371 0.062911948 0)
(0.40991691 0.18711204 0)
(0.37766966 0.30435175 0)
(0.33086507 0.41003044 0)
(0.27138718 0.49996494 0)
(0.20155923 0.57070015 0)
(0.12406733 0.61946016 0)
(0.041879252 0.64431064 0)
(-0.026462632 0.71685205 0)
(-0.078422933 0.68929141 0)
(-0.12746368 0.63515182 0)
(-0.17169022 0.55656609 0)
(-0.20944174 0.45659083 0)
(-0.23917639 0.3389854 0)
(-0.25954484 0.20838142 0)
(-0.269849 0.070091698 0)
(-0.26981804 -0.070868785 0)
(-0.2594566 -0.20907777 0)
(-0.23905119 -0.33950725 0)
(-0.20931286 -0.45684529 0)
(-0.17157599 -0.5564927 0)
(-0.12736067 -0.63477345 0)
(-0.078331967 -0.68869319 0)
(-0.026398142 -0.71617037 0)
(0.026402666 -0.71616884 0)
(0.078333832 -0.68869126 0)
(0.12735958 -0.63477318 0)
(0.17157207 -0.55649634 0)
(0.20930948 -0.45685711 0)
(0.23905506 -0.33952557 0)
(0.25947692 -0.20909503 0)
(0.26982117 -0.070843018 0)
(0.26982976 0.070077177 0)
(0.25953779 0.20836141 0)
(0.23917936 0.33896861 0)
(0.20944795 0.45658301 0)
(0.17169355 0.55656509 0)
(0.12746287 0.63515323 0)
(0.078418759 0.68929375 0)
(0.026455739 0.71685353 0)
(-0.004854292 0.74702646 0)
(-0.01443875 0.71838972 0)
(-0.023544557 0.66205057 0)
(-0.031769884 0.58021244 0)
(-0.038848789 0.47611958 0)
(-0.044511057 0.35347212 0)
(-0.048301397 0.21708999 0)
(-0.050293982 0.073178896 0)
(-0.050675832 -0.073519496 0)
(-0.049376498 -0.2174055 0)
(-0.046122043 -0.35368752 0)
(-0.040774655 -0.47619492 0)
(-0.033715017 -0.58012341 0)
(-0.025199253 -0.66181257 0)
(-0.015542179 -0.71801395 0)
(-0.0052624777 -0.74651255 0)
(0.0052669245 -0.74650883 0)
(0.01554426 -0.71800831 0)
(0.025199813 -0.66180894 0)
(0.033714676 -0.58012582 0)
(0.040776636 -0.47621389 0)
(0.046131756 -0.35372346 0)
(0.049414836 -0.21744325 0)
(0.050676723 -0.073413538 0)
(0.050258889 0.073146493 0)
(0.04829336 0.21705982 0)
(0.04450887 0.35344369 0)
(0.03885066 0.47611073 0)
(0.03177006 0.58021626 0)
(0.023541892 0.66205676 0)
(0.014433641 0.71839619 0)
(0.0048466198 0.74703009 0)
(0.0051061241 0.74664966 0)
(0.01506398 0.71814046 0)
(0.024415469 0.66192884 0)
(0.032656997 0.580239 0)
(0.039484914 0.47629788 0)
(0.044648802 0.35377745 0)
(0.047773156 0.21747953 0)
(0.049017213 0.073598509 0)
(0.048659251 -0.073131276 0)
(0.046738536 -0.21710832 0)
(0.043067253 -0.35353287 0)
(0.037581009 -0.47621922 0)
(0.030729263 -0.58034356 0)
(0.022768976 -0.66221578 0)
(0.01395602 -0.71856869 0)
(0.0046859539 -0.74720672 0)
(-0.0046909867 -0.74720305 0)
(-0.013958477 -0.71856317 0)
(-0.022769778 -0.6622123 0)
(-0.030728976 -0.58034607 0)
(-0.037582993 -0.47623819 0)
(-0.043076712 -0.35356864 0)
(-0.046777982 -0.21714595 0)
(-0.048660701 -0.073023599 0)
(-0.04898154 0.073566237 0)
(-0.047765175 0.21744952 0)
(-0.044646414 0.35374904 0)
(-0.039486655 0.47628913 0)
(-0.03265732 0.580243 0)
(-0.024413181 0.66193521 0)
(-0.015059442 0.71814705 0)
(-0.0050992244 0.74665334 0)
(0.026234924 0.71663544 0)
(0.07783466 0.68913859 0)
(0.12654605 0.63518595 0)
(0.1704773 0.55686348 0)
(0.20797477 0.45715766 0)
(0.23752534 0.33975088 0)
(0.25780494 0.20924575 0)
(0.26811131 0.070957036 0)
(0.26815743 -0.070098546 0)
(0.25792927 -0.20849428 0)
(0.23769155 -0.33919838 0)
(0.20814097 -0.45689242 0)
(0.17062301 -0.55694331 0)
(0.12666895 -0.63559283 0)
(0.077928991 -0.6897723 0)
(0.026290769 -0.71735032 0)
(-0.026295352 -0.71734893 0)
(-0.077930932 -0.6897706 0)
(-0.12666796 -0.63559281 0)
(-0.17061917 -0.55694712 0)
(-0.20813766 -0.45690422 0)
(-0.23769535 -0.33921644 0)
(-0.25794909 -0.20851144 0)
(-0.26816058 -0.070071509 0)
(-0.26809259 0.07094253 0)
(-0.25779806 0.2092258 0)
(-0.23752847 0.33973407 0)
(-0.20798109 0.45714998 0)
(-0.17048075 0.55686277 0)
(-0.12654533 0.63518765 0)
(-0.077830527 0.68914117 0)
(-0.026228056 0.71663708 0)
(0.041725487 0.64447711 0)
(0.12361804 0.61968966 0)
(0.20081702 0.57108174 0)
(0.2703768 0.50054549 0)
(0.32963239 0.41079267 0)
(0.37623877 0.30524442 0)
(0.40830334 0.18803272 0)
(0.42460884 0.063751192 0)
(0.42456016 -0.062972691 0)
(0.40817693 -0.18734194 0)
(0.37606387 -0.30473793 0)
(0.3294556 -0.41055473 0)
(0.27023167 -0.5006064 0)
(0.20070123 -0.57143672 0)
(0.12353853 -0.6202612 0)
(0.041700856 -0.64514378 0)
(-0.041700353 -0.6451436 0)
(-0.1235366 -0.62026169 0)
(-0.20069762 -0.57143886 0)
(-0.27022665 -0.50061127 0)
(-0.32945127 -0.41056374 0)
(-0.37606351 -0.30474955 0)
(-0.40818269 -0.18735185 0)
(-0.42456067 -0.062969455 0)
(-0.42460235 0.063742251 0)
(-0.4083017 0.18801932 0)
(-0.37624261 0.3052322 0)
(-0.32963858 0.41078496 0)
(-0.27038193 0.50054194 0)
(-0.20081989 0.57108045 0)
(-0.12361885 0.61968966 0)
(-0.041724679 0.64447745 0)
(0.047246617 0.5517025 0)
(0.1399306 0.5304538 0)
(0.22723666 0.48880136 0)
(0.30581539 0.42837953 0)
(0.37264306 0.35153139 0)
(0.42511096 0.2612194 0)
(0.46117427 0.16097102 0)
(0.4794918 0.054662689 0)
(0.47937365 -0.053745043 0)
(0.46084004 -0.16020672 0)
(0.42462214 -0.26070075 0)
(0.37209052 -0.35132207 0)
(0.30527839 -0.42852909 0)
(0.22678813 -0.48928359 0)
(0.13962942 -0.53118179 0)
(0.04714223 -0.55254988 0)
(-0.047138018 -0.55255019 0)
(-0.13962469 -0.53118312 0)
(-0.2267829 -0.4892864 0)
(-0.30527301 -0.42853383 0)
(-0.37208612 -0.35132906 0)
(-0.42462009 -0.26070897 0)
(-0.46084064 -0.16021402 0)
(-0.47937315 -0.053748396 0)
(-0.47948976 0.054655458 0)
(-0.46117465 0.1609616 0)
(-0.42511443 0.26121036 0)
(-0.37264847 0.35152461 0)
(-0.30582109 0.42837525 0)
(-0.2272418 0.48879893 0)
(-0.13993501 0.53045271 0)
(-0.047250377 0.55170228 0)
(0.045074676 0.45748968 0)
(0.13348527 0.43987559 0)
(0.21673402 0.40534784 0)
(0.29161374 0.35526304 0)
(0.35524264 0.2915726 0)
(0.40517093 0.2167512 0)
(0.43948443 0.13367919 0)
(0.45688943 0.045525935 0)
(0.45677621 -0.044381083 0)
(0.43915834 -0.13270197 0)
(0.40469608 -0.21610427 0)
(0.35469469 -0.29135724 0)
(0.29107394 -0.35549868 0)
(0.21627996 -0.40599313 0)
(0.13318165 -0.44082712 0)
(0.044970564 -0.45859953 0)
(-0.044965016 -0.45859996 0)
(-0.13317602 -0.44082858 0)
(-0.2162744 -0.4059958 0)
(-0.29106877 -0.35550275 0)
(-0.35469053 -0.29136268 0)
(-0.4046935 -0.21611046 0)
(-0.4391573 -0.13270789 0)
(-0.45677548 -0.044385918 0)
(-0.45688894 0.045519778 0)
(-0.43948553 0.13367214 0)
(-0.40517404 0.2167444 0)
(-0.35524732 0.29156707 0)
(-0.29161921 0.35525909 0)
(-0.21673972 0.40534531 0)
(-0.13349092 0.43987425 0)
(-0.04508018 0.4574893 0)
(0.038942069 0.37329858 0)
(0.11532056 0.35894801 0)
(0.18722888 0.33081191 0)
(0.25189147 0.28998987 0)
(0.30682141 0.23806714 0)
(0.34991758 0.17705254 0)
(0.37954835 0.1092913 0)
(0.39460837 0.037355562 0)
(0.39455248 -0.03605619 0)
(0.37939059 -0.10819896 0)
(0.34968285 -0.1763378 0)
(0.30654342 -0.23783488 0)
(0.2516121 -0.2902704 0)
(0.18699114 -0.33156066 0)
(0.11516128 -0.36005037 0)
(0.038888898 -0.37458881 0)
(-0.038883514 -0.37458923 0)
(-0.11515597 -0.36005169 0)
(-0.18698608 -0.33156295 0)
(-0.25160755 -0.29027371 0)
(-0.30653974 -0.23783911 0)
(-0.34968032 -0.17634259 0)
(-0.37938918 -0.10820383 0)
(-0.39455181 -0.036060858 0)
(-0.39460844 0.037350417 0)
(-0.37954966 0.10928586 0)
(-0.34992029 0.17704736 0)
(-0.30682535 0.23806276 0)
(-0.25189624 0.28998656 0)
(-0.18723409 0.33080966 0)
(-0.11532598 0.35894674 0)
(-0.038947523 0.37329818 0)
(0.031819788 0.30337126 0)
(0.094229921 0.29173314 0)
(0.152989 0.26890957 0)
(0.20582984 0.23578466 0)
(0.25072316 0.19363606 0)
(0.28595702 0.14408393 0)
(0.31020229 0.089020921 0)
(0.3225553 0.030530581 0)
(0.32256196 -0.029188277 0)
(0.31022053 -0.08788976 0)
(0.285982 -0.14333953 0)
(0.25074849 -0.19338964 0)
(0.20585143 -0.23607004 0)
(0.1530051 -0.26968155 0)
(0.094240273 -0.29287428 0)
(0.031825944 -0.30471048 0)
(-0.03182133 -0.30471085 0)
(-0.09423577 -0.29287539 0)
(-0.15300087 -0.26968344 0)
(-0.20584767 -0.23607269 0)
(-0.25074542 -0.19339297 0)
(-0.28597979 -0.14334331 0)
(-0.3102192 -0.087893736 0)
(-0.3225614 -0.029192305 0)
(-0.32255555 0.030526367 0)
(-0.31020353 0.089016657 0)
(-0.2859593 0.14407992 0)
(-0.25072637 0.19363261 0)
(-0.20583375 0.23578197 0)
(-0.15299335 0.26890769 0)
(-0.094234519 0.29173204 0)
(-0.031824479 0.3033709 0)
(0.025389929 0.24736871 0)
(0.075191345 0.23789902 0)
(0.12208625 0.21932334 0)
(0.16426839 0.19235383 0)
(0.20012024 0.15802192 0)
(0.22827574 0.11763758 0)
(0.24767127 0.072735383 0)
(0.25757968 0.025012632 0)
(0.25763008 -0.023731299 0)
(0.24781394 -0.071653281 0)
(0.22848683 -0.11692164 0)
(0.20036562 -0.15778019 0)
(0.16451052 -0.19262085 0)
(0.12228962 -0.22005709 0)
(0.075327068 -0.2389879 0)
(0.025439732 -0.24864897 0)
(-0.025435984 -0.24864928 0)
(-0.075323429 -0.23898882 0)
(-0.12228622 -0.22005862 0)
(-0.16450751 -0.19262297 0)
(-0.20036315 -0.15778282 0)
(-0.22848501 -0.11692465 0)
(-0.24781282 -0.071656508 0)
(-0.25762965 -0.023734636 0)
(-0.25757996 0.025009216 0)
(-0.24767233 0.072732008 0)
(-0.22827759 0.11763443 0)
(-0.20012278 0.15801919 0)
(-0.16427149 0.19235166 0)
(-0.12208973 0.21932179 0)
(-0.075195055 0.23789809 0)
(-0.025393739 0.2473684 0)
(0.020293097 0.20288151 0)
(0.060100084 0.19512888 0)
(0.097591702 0.17991801 0)
(0.13132727 0.15782643 0)
(0.16001469 0.12969221 0)
(0.18256006 0.096581947 0)
(0.19810806 0.059749029 0)
(0.20607036 0.02058554 0)
(0.20614322 -0.019427386 0)
(0.19831491 -0.058769574 0)
(0.1828679 -0.095931583 0)
(0.16037539 -0.12946953 0)
(0.13168578 -0.15806406 0)
(0.097894403 -0.18057889 0)
(0.060302434 -0.19611248 0)
(0.020365932 -0.20403941 0)
(-0.020362939 -0.20403966 0)
(-0.060299536 -0.19611323 0)
(-0.097891706 -0.18058014 0)
(-0.1316834 -0.15806576 0)
(-0.16037342 -0.12947164 0)
(-0.18286644 -0.095933996 0)
(-0.198314 -0.058772188 0)
(-0.20614288 -0.019430109 0)
(-0.20607062 0.020582779 0)
(-0.19810893 0.059746334 0)
(-0.18256153 0.096579448 0)
(-0.1600167 0.12969004 0)
(-0.13132971 0.15782468 0)
(-0.097594455 0.17991674 0)
(-0.060103035 0.19512811 0)
(-0.020296139 0.20288126 0)
(0.016578566 0.16706989 0)
(0.049101508 0.16069449 0)
(0.079739483 0.14818362 0)
(0.10731794 0.13000853 0)
(0.13078139 0.10685426 0)
(0.14923365 0.079594301 0)
(0.16197095 0.049257862 0)
(0.16850647 0.016991726 0)
(0.1685866 -0.01598062 0)
(0.16219879 -0.048401978 0)
(0.14957364 -0.079024677 0)
(0.13118103 -0.10665745 0)
(0.10771632 -0.13021381 0)
(0.080076582 -0.14875922 0)
(0.04932703 -0.16155286 0)
(0.016659241 -0.16808116 0)
(-0.01665683 -0.16808137 0)
(-0.0493247 -0.16155348 0)
(-0.080074419 -0.14876023 0)
(-0.10771441 -0.13021518 0)
(-0.13117946 -0.10665914 0)
(-0.14957246 -0.079026615 0)
(-0.16219806 -0.048404086 0)
(-0.16858634 -0.015982822 0)
(-0.16850669 0.016989503 0)
(-0.16197166 0.049255707 0)
(-0.14923483 0.079592309 0)
(-0.13078299 0.10685253 0)
(-0.10731988 0.13000712 0)
(-0.079741684 0.14818259 0)
(-0.049103878 0.16069387 0)
(-0.016581016 0.16706968 0)
(0.014082851 0.13852237 0)
(0.041711611 0.13324024 0)
(0.067744079 0.12287363 0)
(0.091184239 0.10781117 0)
(0.11113533 0.088618419 0)
(0.12683381 0.066017522 0)
(0.1376779 0.040860892 0)
(0.14324955 0.014100111 0)
(0.1433293 -0.013248242 0)
(0.13790505 -0.040138592 0)
(0.12717359 -0.065534459 0)
(0.11153566 -0.088447325 0)
(0.091584098 -0.10797698 0)
(0.068082921 -0.12335006 0)
(0.041938444 -0.13395407 0)
(0.014163781 -0.1393647 0)
(-0.014161768 -0.1393649 0)
(-0.0419365 -0.13395465 0)
(-0.06808112 -0.123351 0)
(-0.091582511 -0.10797825 0)
(-0.11153435 -0.088448889 0)
(-0.1271726 -0.065536253 0)
(-0.13790444 -0.040140547 0)
(-0.14332909 -0.013250285 0)
(-0.14324974 0.01409806 0)
(-0.13767849 0.040858913 0)
(-0.12683479 0.066015695 0)
(-0.11113665 0.088616822 0)
(-0.091185847 0.10780987 0)
(-0.067745906 0.12287267 0)
(-0.041713584 0.13323965 0)
(-0.014084895 0.13852217 0)
(0.012603524 0.10710831 0)
(0.037331299 0.10302887 0)
(0.060634216 0.095021715 0)
(0.081622212 0.083385255 0)
(0.099492601 0.068554187 0)
(0.11356033 0.051084329 0)
(0.12328379 0.031632843 0)
(0.12828525 0.010934728 0)
(0.1283661 -0.010223447 0)
(0.12351403 -0.031030929 0)
(0.11390466 -0.05068396 0)
(0.099898466 -0.068416476 0)
(0.082027845 -0.083531283 0)
(0.060978116 -0.095429479 0)
(0.037561526 -0.10363673 0)
(0.012685462 -0.10782443 0)
(-0.012683763 -0.10782449 0)
(-0.037559888 -0.10363691 0)
(-0.060976601 -0.095429781 0)
(-0.082026512 -0.083531694 0)
(-0.099897368 -0.068416984 0)
(-0.11390384 -0.050684547 0)
(-0.12351352 -0.031031572 0)
(-0.12836592 -0.010224125 0)
(-0.1282854 0.010934039 0)
(-0.12328429 0.03163218 0)
(-0.11356115 0.051083722 0)
(-0.099493705 0.06855366 0)
(-0.081623558 0.083384828 0)
(-0.060635748 0.095021403 0)
(-0.037332958 0.10302868 0)
(-0.012605244 0.10710825 0)
(0.012346523 0.096631595 0)
(0.036570968 0.092946614 0)
(0.059400863 0.085714079 0)
(0.079964543 0.07520466 0)
(0.097475246 0.061812635 0)
(0.11126082 0.046042028 0)
(0.12078946 0.028488431 0)
(0.12569051 0.0098170178 0)
(0.12576982 -0.0092623162 0)
(0.12101521 -0.028017557 0)
(0.11159854 -0.045725851 0)
(0.097873526 -0.061698231 0)
(0.080362848 -0.075308382 0)
(0.059738802 -0.086019164 0)
(0.036797439 -0.093405811 0)
(0.012427409 -0.097174395 0)
(-0.012425334 -0.097174659 0)
(-0.036795442 -0.093406593 0)
(-0.059736958 -0.086020435 0)
(-0.080361228 -0.075310096 0)
(-0.097872193 -0.061700325 0)
(-0.11159754 -0.045728248 0)
(-0.1210146 -0.028020164 0)
(-0.12576962 -0.0092650347 0)
(-0.12569071 0.0098142946 0)
(-0.12079006 0.028485816 0)
(-0.1112618 0.046039621 0)
(-0.097476576 0.061810528 0)
(-0.07996617 0.075202933 0)
(-0.059402721 0.085712798 0)
(-0.036572985 0.092945825 0)
(-0.012348618 0.096631329 0)
(0.012124848 0.046843015 0)
(0.035914221 0.045063677 0)
(0.058336108 0.041570593 0)
(0.078535362 0.036492497 0)
(0.095739614 0.030017272 0)
(0.10928832 0.022385535 0)
(0.11865779 0.013881858 0)
(0.1234809 0.0048245113 0)
(0.12356546 -0.0044443272 0)
(0.11889869 -0.013560554 0)
(0.10964869 -0.022172932 0)
(0.096164653 -0.029946268 0)
(0.078960379 -0.036574493 0)
(0.058696538 -0.041793721 0)
(0.036155418 -0.045394623 0)
(0.012210323 -0.0472321 0)
(-0.012209128 -0.047231914 0)
(-0.036154264 -0.045394073 0)
(-0.058695473 -0.041792831 0)
(-0.078959445 -0.036573298 0)
(-0.096163886 -0.029944816 0)
(-0.10964811 -0.022171282 0)
(-0.11889833 -0.01355877 0)
(-0.12356534 -0.0044424816 0)
(-0.12348101 0.0048263522 0)
(-0.11865813 0.013883639 0)
(-0.10928889 0.022387186 0)
(-0.095740385 0.030018724 0)
(-0.078536303 0.036493691 0)
(-0.058337181 0.041571482 0)
(-0.035915385 0.045064225 0)
(-0.012126054 0.046843201 0)
(0.014062914 0.062363503 0)
(0.041655912 0.059980064 0)
(0.067659962 0.055302608 0)
(0.091081635 0.048507603 0)
(0.11102393 0.039851975 0)
(0.12672009 0.029663875 0)
(0.13756356 0.018330756 0)
(0.14313325 0.0062851214 0)
(0.14321884 -0.0060173735 0)
(0.13780859 -0.018102782 0)
(0.12708649 -0.029509813 0)
(0.11145631 -0.039793968 0)
(0.091514349 -0.048553512 0)
(0.068027478 -0.055444609 0)
(0.0419027 -0.060195792 0)
(0.014151837 -0.062619475 0)
(-0.014148416 -0.062619849 0)
(-0.041899408 -0.060196891 0)
(-0.068024441 -0.055446391 0)
(-0.091511683 -0.048555912 0)
(-0.11145412 -0.039796896 0)
(-0.12708486 -0.029513159 0)
(-0.13780758 -0.018106419 0)
(-0.14321851 -0.0060211637 0)
(-0.14313359 0.0062813173 0)
(-0.13756455 0.018327112 0)
(-0.12672171 0.029660527 0)
(-0.11102612 0.039849045 0)
(-0.091084303 0.048505201 0)
(-0.067663006 0.055300824 0)
(-0.041659216 0.059978964 0)
(-0.01406635 0.062363128 0)
(0.012016515 -0.022574863 0)
(0.035591882 -0.021704608 0)
(0.057812013 -0.019997447 0)
(0.077829499 -0.017519495 0)
(0.0948792 -0.014366575 0)
(0.10830776 -0.010660512 0)
(0.11759898 -0.0065458073 0)
(0.12238369 -0.0021908712 0)
(0.12245999 0.0022000456 0)
(0.11782073 0.0065518144 0)
(0.10863771 0.010662635 0)
(0.095268451 0.014363167 0)
(0.078218608 0.01751019 0)
(0.058141715 0.019982907 0)
(0.035812045 0.02168632 0)
(0.012093656 0.02255493 0)
(-0.012093885 0.022555324 0)
(-0.035812249 0.021687477 0)
(-0.058141899 0.019984784 0)
(-0.078218763 0.017512715 0)
(-0.095268573 0.014366242 0)
(-0.1086378 0.010666139 0)
(-0.11782077 0.0065556135 0)
(-0.12246 0.0022039849 0)
(-0.12238368 -0.0021869419 0)
(-0.11759894 -0.0065420095 0)
(-0.10830769 -0.010656999 0)
(-0.094879082 -0.014363495 0)
(-0.077829339 -0.017516969 0)
(-0.057811823 -0.019995571 0)
(-0.03559167 -0.021703452 0)
(-0.012016276 -0.022574469 0)
)
;

boundaryField
{
    leftWall
    {
        type            cyclic;
    }
    rightWall
    {
        type            cyclic;
    }
    lowerWall
    {
        type            slip;
    }
    atmosphere
    {
        type            slip;
    }
    defaultFaces
    {
        type            empty;
    }
}


// ************************************************************************* //
