/*--------------------------------*- C++ -*----------------------------------*\
| =========                 |                                                 |
| \\      /  F ield         | OpenFOAM: The Open Source CFD Toolbox           |
|  \\    /   O peration     | Version:  2306                                  |
|   \\  /    A nd           | Website:  www.openfoam.com                      |
|    \\/     M anipulation  |                                                 |
\*---------------------------------------------------------------------------*/
FoamFile
{
    version     2.0;
    format      ascii;
    arch        "LSB;label=32;scalar=64";
    class       volVectorField;
    location    "0.58";
    object      U_0;
}
// * * * * * * * * * * * * * * * * * * * * * * * * * * * * * * * * * * * * * //

dimensions      [0 1 -1 0 0 0 0];

internalField   nonuniform List<vector> 
6400
(
(-0.0031713394 0.0056696015 9.9453318e-20)
(-0.0029195479 0.0055352012 8.1240662e-20)
(-0.0026851763 0.0054003455 -4.3015033e-19)
(-0.0024672119 0.0052657359 -3.0422441e-19)
(-0.0022646618 0.0051319856 -4.4035968e-20)
(-0.0020765578 0.004999621 2.3476121e-19)
(-0.0019019628 0.0048690904 1.1274481e-19)
(-0.0017399736 0.0047407678 3.8541529e-19)
(-0.0015897261 0.0046149599 2.0353967e-19)
(-0.0014503949 0.004491911 2.0797136e-19)
(-0.0013211965 0.0043718104 3.012578e-19)
(-0.0012013919 0.004254797 2.855789e-19)
(-0.001090286 0.0041409649 -7.5179229e-21)
(-0.00098722968 0.0040303696 -4.2586579e-20)
(-0.0008916157 0.003923036 -1.2064949e-20)
(-0.00080288036 0.0038189566 2.9743379e-20)
(-0.00072050362 0.0037181021 2.1097237e-21)
(-0.00064400321 0.0036204235 -1.5080963e-20)
(-0.00057294175 0.0035258558 -6.7345857e-20)
(-0.00050691546 0.0034343233 -4.1561207e-22)
(-0.00044555144 0.0033457402 1.3019981e-19)
(-0.00038851311 0.0032600159 3.2582385e-20)
(-0.00033549869 0.0031770552 -3.7242801e-20)
(-0.00028622924 0.0030967616 -6.9361196e-20)
(-0.00024044756 0.0030190395 5.3158835e-21)
(-0.00019792797 0.0029437951 8.7914111e-20)
(-0.00015846148 0.0028709338 6.251626e-21)
(-0.00012185964 0.0028003726 -2.8847217e-20)
(-8.7951047e-05 0.0027320221 3.0036979e-20)
(-5.657677e-05 0.0026658048 3.4566553e-20)
(-2.7594228e-05 0.0026016468 2.6914074e-22)
(-8.7255954e-07 0.0025394782 7.8367418e-20)
(2.3709561e-05 0.0024792339 7.6973693e-20)
(4.6264211e-05 0.0024208547 2.7751399e-20)
(6.6894698e-05 0.0023642845 3.9235705e-20)
(8.5697946e-05 0.0023094726 3.4181134e-20)
(0.00010276429 0.0022563725 3.7697278e-21)
(0.00011817875 0.0022049405 3.8277978e-20)
(0.00013202176 0.0021551372 1.4703816e-20)
(0.00014436942 0.0021069259 -2.957809e-20)
(0.00015529407 0.0020602725 -2.2416293e-20)
(0.00016486481 0.0020151457 3.9122296e-20)
(0.00017314775 0.0019715165 1.1447424e-20)
(0.00018020628 0.0019293572 -1.6455404e-20)
(0.00018610126 0.0018886424 -2.3888675e-20)
(0.00019089129 0.0018493476 -2.0139323e-20)
(0.0001946328 0.00181145 3.9243342e-20)
(0.00019738024 0.0017749276 1.2705934e-20)
(0.00019918608 0.0017397593 -3.9058156e-20)
(0.00020010104 0.0017059253 -1.333065e-20)
(0.00020017406 0.0016734058 2.003251e-20)
(0.00019945229 0.001642182 1.6902421e-20)
(0.00019798149 0.0016122356 1.2710985e-20)
(0.00019580572 0.0015835486 1.5109963e-20)
(0.00019296733 0.0015561035 -4.1105526e-21)
(0.00018950737 0.0015298837 4.1123005e-21)
(0.00018546545 0.0015048723 1.4365439e-20)
(0.00018087965 0.0014810531 4.2282299e-20)
(0.00017578674 0.0014584102 2.3463708e-20)
(0.00017022212 0.0014369279 -1.0790454e-20)
(0.00016421997 0.0014165911 4.3310609e-21)
(0.00015781313 0.0013973849 -1.667478e-21)
(0.00015103326 0.0013792949 5.8417707e-21)
(0.00014391097 0.0013623068 1.3320972e-20)
(0.00013647568 0.001346407 -1.4154536e-20)
(0.00012875573 0.0013315821 -2.9267997e-21)
(0.00012077842 0.0013178191 2.8337473e-21)
(0.00011257016 0.0013051055 7.7070709e-21)
(0.00010415652 0.0012934294 -3.4952547e-21)
(9.5562085e-05 0.001282779 -3.7697671e-21)
(8.6810648e-05 0.0012731429 3.581423e-21)
(7.7925246e-05 0.0012645103 2.9933905e-21)
(6.8928203e-05 0.0012568702 7.7761683e-21)
(5.9841207e-05 0.0012502118 2.1343347e-21)
(5.0685424e-05 0.0012445223 -7.272445e-21)
(4.1481773e-05 0.0012397867 -7.1945217e-21)
(3.2250742e-05 0.0012359842 -1.9399915e-21)
(2.3007392e-05 0.0012330846 -2.1914796e-21)
(1.376203e-05 0.0012310434 -1.3603856e-20)
(4.5571226e-06 0.0012298342 -2.4334141e-20)
(-0.0032983628 0.0054494862 -2.0494107e-19)
(-0.0030477615 0.005329046 1.8138954e-19)
(-0.0028138353 0.0052074701 -3.0350731e-19)
(-0.0025956602 0.0050854529 -6.1555111e-19)
(-0.0023923274 0.0049636066 -4.5300105e-19)
(-0.0022029482 0.0048424639 -1.5991208e-19)
(-0.0020266593 0.0047224837 -1.5198781e-19)
(-0.001862626 0.0046040559 1.362144e-19)
(-0.0017100473 0.004487507 -9.8328738e-20)
(-0.0015681553 0.0043731054 -8.4600837e-20)
(-0.0014362177 0.004261066 1.3127839e-19)
(-0.0013135422 0.0041515561 1.7676444e-19)
(-0.0011994747 0.0040446999 -1.1381171e-19)
(-0.0010934006 0.003940584 -2.6588366e-19)
(-0.00099474416 0.003839264 -1.8320563e-19)
(-0.00090296833 0.0037407639 -7.8765472e-20)
(-0.00081757482 0.0036450865 -7.1497177e-20)
(-0.00073810036 0.0035522129 -5.880034e-20)
(-0.00066411956 0.0034621052 -1.3472055e-19)
(-0.00059524006 0.0033747193 -1.1787532e-19)
(-0.00053109893 0.0032899954 1.2973879e-20)
(-0.00047136543 0.0032078674 2.1166814e-20)
(-0.00041573909 0.0031282615 -6.7392319e-20)
(-0.00036394258 0.0030511071 -8.1368199e-20)
(-0.0003157204 0.0029763265 -2.6783766e-20)
(-0.00027084576 0.0029038428 2.6106135e-20)
(-0.0002291054 0.0028335815 2.4535951e-20)
(-0.00019030932 0.0027654692 -2.0655007e-20)
(-0.00015428374 0.0026994361 -6.1351836e-20)
(-0.00012086278 0.0026354125 -6.7174401e-21)
(-8.9900942e-05 0.0025733358 3.9545469e-20)
(-6.1263378e-05 0.0025131456 6.4544621e-20)
(-3.4823999e-05 0.0024547849 5.9398425e-21)
(-1.0467012e-05 0.0023982013 -2.1862687e-20)
(1.191488e-05 0.0023433455 -4.9005481e-21)
(3.2423193e-05 0.0022901717 1.1473805e-20)
(5.1151346e-05 0.0022386384 -8.8629863e-21)
(6.8187719e-05 0.0021887052 -2.7483765e-20)
(8.3615738e-05 0.0021403367 -3.553181e-20)
(9.751415e-05 0.0020934993 -4.2344119e-20)
(0.00010995799 0.0020481614 -4.0124391e-22)
(0.00012101844 0.0020042943 1.9605004e-20)
(0.00013076355 0.0019618709 -1.3517129e-20)
(0.00013925834 0.0019208656 -2.8676374e-20)
(0.00014656521 0.0018812546 -3.1933573e-20)
(0.00015274411 0.001843015 -2.3608106e-20)
(0.00015785248 0.0018061256 4.5868258e-21)
(0.0001619457 0.0017705657 -3.0210109e-20)
(0.00016507727 0.0017363157 -2.7585505e-20)
(0.0001672986 0.0017033566 -3.6744515e-21)
(0.00016865921 0.0016716704 2.5260678e-20)
(0.00016920695 0.0016412391 7.7013835e-21)
(0.00016898796 0.0016120456 -3.6695876e-21)
(0.00016804667 0.0015840731 2.1462005e-21)
(0.00016642605 0.0015573054 2.8391137e-21)
(0.00016416752 0.0015317266 2.3974096e-20)
(0.00016131094 0.0015073212 2.222541e-20)
(0.00015789477 0.0014840737 9.7738921e-21)
(0.00015395617 0.0014619695 -3.4484626e-21)
(0.0001495309 0.0014409938 -9.5418437e-21)
(0.00014465337 0.0014211324 1.6262685e-21)
(0.00013935685 0.0014023715 -5.2092095e-21)
(0.00013367346 0.0013846972 -5.2162077e-21)
(0.00012763406 0.0013680966 2.0311622e-21)
(0.00012126839 0.0013525565 -4.2049167e-21)
(0.0001146052 0.0013380646 7.82939e-21)
(0.00010767234 0.0013246086 -2.870232e-21)
(0.00010049659 0.0013121766 -8.8354503e-21)
(9.310382e-05 0.0013007575 -4.0819168e-21)
(8.5519107e-05 0.0012903401 -3.4737882e-21)
(7.7766653e-05 0.0012809137 1.2606579e-20)
(6.9869976e-05 0.0012724679 1.2398521e-20)
(6.185191e-05 0.0012649925 5.9828933e-21)
(5.3734579e-05 0.0012584768 7.9751945e-21)
(4.5539677e-05 0.0012529087 -7.9665614e-23)
(3.7288559e-05 0.0012482735 -2.6042371e-21)
(2.9002027e-05 0.0012445509 -4.3914288e-21)
(2.0695953e-05 0.0012417113 -1.0316767e-20)
(1.2381874e-05 0.0012397112 -2.1539322e-20)
(4.1003771e-06 0.0012385255 -2.9142823e-20)
(-0.0034114746 0.0052327975 3.4991354e-20)
(-0.0031626977 0.0051255334 2.0548034e-19)
(-0.0029298632 0.0050165318 -1.8366539e-19)
(-0.0027121291 0.0049064771 -3.7640156e-19)
(-0.0025086645 0.0047959773 -3.0257366e-19)
(-0.0023186544 0.0046855675 -2.0758177e-19)
(-0.0021413048 0.0045757135 -1.9421579e-19)
(-0.0019758452 0.0044668166 9.034793e-20)
(-0.0018215334 0.0043592187 -1.729531e-20)
(-0.0016776556 0.0042532076 -1.3678686e-19)
(-0.0015435292 0.0041490195 4.0387646e-21)
(-0.0014185064 0.0040468452 -1.3364326e-20)
(-0.0013019724 0.0039468345 -1.3714486e-19)
(-0.0011933474 0.0038491008 -1.1775294e-19)
(-0.0010920863 0.003753726 -6.5922786e-20)
(-0.00099767769 0.0036607622 -1.3255952e-19)
(-0.00090964585 0.0035702392 -2.4869234e-19)
(-0.00082754769 0.0034821657 -1.6744147e-19)
(-0.00075097139 0.00339653 -4.766347e-20)
(-0.00067953613 0.0033133121 -4.3124004e-20)
(-0.00061288975 0.0032324774 -1.9504114e-20)
(-0.00055070952 0.0031539827 -6.0742768e-20)
(-0.00049269885 0.0030777757 -1.3303479e-19)
(-0.000438583 0.0030038053 -1.5889152e-21)
(-0.00038811007 0.0029320126 -4.234326e-21)
(-0.00034105149 0.0028623369 -1.6280218e-20)
(-0.00029719506 0.0027947216 -1.3301912e-20)
(-0.00025634747 0.0027291038 -5.8969118e-20)
(-0.0002183329 0.002665431 -4.6374263e-20)
(-0.00018298553 0.0026036419 -2.0238455e-20)
(-0.00015015424 0.0025436846 -1.4043384e-20)
(-0.00011970166 0.0024855079 -1.4608617e-20)
(-9.1498558e-05 0.002429063 8.1631624e-21)
(-6.5425588e-05 0.0023743049 2.5385792e-20)
(-4.1372536e-05 0.0023211903 8.2995972e-21)
(-1.9234535e-05 0.0022696784 -3.2475074e-20)
(1.0840992e-06 0.0022197324 -2.9037792e-20)
(1.9674965e-05 0.0021713176 -1.2189833e-20)
(3.6624536e-05 0.0021244021 6.745029e-21)
(5.2012902e-05 0.0020789539 -1.9935262e-20)
(6.5917753e-05 0.0020349452 -2.8012684e-21)
(7.8412179e-05 0.0019923501 -3.2694709e-20)
(8.9565872e-05 0.0019511436 -1.160957e-20)
(9.9445367e-05 0.0019113023 -7.1331038e-21)
(0.00010811425 0.0018728041 -2.400508e-20)
(0.00011563363 0.0018356282 -1.4470401e-20)
(0.00012206209 0.0017997548 -1.4347659e-20)
(0.00012745591 0.0017651646 -2.1525836e-20)
(0.00013186925 0.0017318395 6.8018542e-21)
(0.00013535421 0.001699762 -1.3507625e-21)
(0.00013796097 0.0016689152 4.2639336e-21)
(0.00013973793 0.0016392824 -5.4927603e-21)
(0.00014073168 0.0016108477 -5.5580706e-21)
(0.0001409871 0.0015835956 1.2411317e-20)
(0.00014054743 0.0015575108 3.0217549e-21)
(0.00013945443 0.0015325785 6.5166123e-21)
(0.00013774845 0.0015087844 -1.373484e-21)
(0.00013546828 0.0014861141 -5.0360887e-21)
(0.00013265128 0.0014645538 -2.7651698e-21)
(0.00012933353 0.0014440899 -1.196255e-20)
(0.00012554991 0.001424709 -1.2046656e-20)
(0.00012133395 0.0014063982 -7.7824219e-21)
(0.00011671798 0.0013891446 -6.6684316e-21)
(0.00011173324 0.001372936 -8.4090898e-21)
(0.00010640987 0.0013577603 -3.2542124e-21)
(0.00010077703 0.0013436057 4.3582304e-21)
(9.4862828e-05 0.0013304607 -1.3259816e-20)
(8.8694396e-05 0.0013183143 -9.7222475e-21)
(8.2298021e-05 0.0013071558 -8.9511725e-21)
(7.5699163e-05 0.0012969749 -4.3590996e-21)
(6.8922519e-05 0.0012877614 9.9747379e-21)
(6.1991967e-05 0.0012795054 2.657443e-21)
(5.4930711e-05 0.0012721972 -5.3413e-21)
(4.7761347e-05 0.0012658266 4.9276516e-21)
(4.0505895e-05 0.0012603818 5.1881156e-21)
(3.3186187e-05 0.0012558488 -1.0996984e-21)
(2.5823457e-05 0.0012522075 -1.274416e-20)
(1.843435e-05 0.0012494289 -1.8177184e-20)
(1.103146e-05 0.0012474706 -2.6900838e-20)
(3.6534609e-06 0.001246309 -3.5397709e-20)
(-0.0035114857 0.0050199521 3.6182308e-19)
(-0.0032650912 0.0049251068 8.4942075e-20)
(-0.0030339212 0.0048279935 -3.0463631e-19)
(-0.002817209 0.0047292844 -3.2512751e-19)
(-0.0026141958 0.0046295809 -2.4484957e-19)
(-0.0024241353 0.0045294165 -2.4226441e-19)
(-0.0022462978 0.0044292612 -3.2603715e-19)
(-0.0020799729 0.004329524 -1.4439412e-20)
(-0.0019244737 0.0042305583 4.1519224e-20)
(-0.001779138 0.0041326668 -1.1106282e-19)
(-0.0016433301 0.0040361032 -1.4309537e-19)
(-0.0015164447 0.0039410776 -1.7710814e-19)
(-0.001397905 0.0038477617 -1.9455769e-20)
(-0.0012871648 0.0037562912 1.2733759e-19)
(-0.0011837092 0.0036667714 -1.1529463e-20)
(-0.0010870531 0.0035792785 -2.1324498e-19)
(-0.00099674224 0.0034938652 -2.9098901e-19)
(-0.00091235373 0.0034105645 -7.6636012e-20)
(-0.00083349181 0.0033293898 -6.2678647e-21)
(-0.00075978773 0.0032503413 -2.762937e-20)
(-0.00069090013 0.0031734067 -6.5089887e-20)
(-0.00062651591 0.0030985633 -1.1597662e-19)
(-0.00056634395 0.0030257801 -7.8023297e-20)
(-0.00051011322 0.0029550225 1.2622265e-20)
(-0.00045757635 0.0028862491 4.7634789e-21)
(-0.00040850554 0.002819416 -5.7294516e-20)
(-0.00036268953 0.0027544796 -5.7979212e-20)
(-0.00031993374 0.0026913931 -3.364804e-20)
(-0.000280063 0.0026301111 -2.0363212e-20)
(-0.00024291062 0.0025705883 -8.9066511e-21)
(-0.00020832163 0.0025127808 -3.2262779e-20)
(-0.00017615726 0.0024566459 -3.4617081e-20)
(-0.00014628552 0.0024021433 7.1924437e-21)
(-0.00011858532 0.0023492345 4.8167246e-20)
(-9.2944684e-05 0.0022978829 1.0486659e-20)
(-6.9255818e-05 0.0022480532 -1.1408974e-20)
(-4.7419132e-05 0.0021997123 -1.8154543e-20)
(-2.734125e-05 0.0021528318 -4.118363e-21)
(-8.9361897e-06 0.0021073842 1.716133e-20)
(7.879107e-06 0.0020633375 1.8327005e-20)
(2.3185582e-05 0.0020206704 1.7389384e-20)
(3.705715e-05 0.001979358 -2.8571373e-20)
(4.9564784e-05 0.0019393778 6.8811327e-21)
(6.0776374e-05 0.0019007091 1.0898261e-20)
(7.07566e-05 0.0018633318 8.9543453e-21)
(7.9567599e-05 0.0018272267 2.7632975e-21)
(8.7268859e-05 0.0017923759 -1.7101409e-20)
(9.391746e-05 0.0017587617 1.3114308e-21)
(9.9568238e-05 0.0017263674 1.2954963e-20)
(0.00010427389 0.0016951771 1.2561468e-20)
(0.00010808518 0.0016651749 1.7639196e-21)
(0.00011105088 0.0016363458 -3.4194403e-21)
(0.00011321807 0.0016086749 2.3370929e-21)
(0.00011463204 0.001582148 8.0957729e-21)
(0.00011533638 0.001556751 5.9579214e-21)
(0.00011537317 0.0015324701 7.0565732e-21)
(0.00011478305 0.0015092919 1.5053572e-21)
(0.00011360506 0.0014872034 4.9172028e-21)
(0.00011187688 0.0014661916 -2.7213244e-22)
(0.00010963493 0.0014462439 1.4515329e-21)
(0.00010691429 0.0014273478 1.0346032e-21)
(0.00010374879 0.0014094914 -1.1609285e-20)
(0.00010017113 0.0013926627 3.6044011e-22)
(9.621283e-05 0.0013768503 -9.5763349e-22)
(9.1904337e-05 0.0013620429 4.8765438e-21)
(8.727508e-05 0.0013482293 -3.3956099e-21)
(8.2353451e-05 0.0013353991 -1.1804692e-20)
(7.7167008e-05 0.0013235417 -2.6702689e-21)
(7.1742437e-05 0.0013126471 1.1785679e-21)
(6.6105472e-05 0.0013027057 5.767492e-21)
(6.0281106e-05 0.0012937078 5.6048445e-21)
(5.4293627e-05 0.0012856441 9.5050473e-22)
(4.8166673e-05 0.0012785054 3.7468526e-21)
(4.192328e-05 0.0012722819 2.1529511e-21)
(3.5585775e-05 0.0012669623 7.0179284e-21)
(2.9176232e-05 0.0012625329 -9.5222757e-22)
(2.2716368e-05 0.0012589741 -7.7091927e-21)
(1.6223521e-05 0.0012562575 -1.2756097e-20)
(9.7113282e-06 0.0012543419 -2.0352379e-20)
(3.2165899e-06 0.0012532048 -3.1254283e-20)
(-0.0035991763 0.0048113036 6.1469488e-19)
(-0.0033556535 0.0047281469 3.4681843e-19)
(-0.0031266533 0.0046422566 -3.9645277e-19)
(-0.0029114788 0.0045542912 -1.1298507e-19)
(-0.0027094381 0.0044648428 -2.8185301e-20)
(-0.0025198483 0.0043744412 1.3624522e-19)
(-0.0023420397 0.0042835569 6.2507267e-20)
(-0.0021753582 0.0041926041 2.0646464e-19)
(-0.002019169 0.004101944 3.304936e-19)
(-0.0018728585 0.0040118905 9.5807287e-20)
(-0.0017358355 0.0039227113 1.7618458e-19)
(-0.001607535 0.0038346325 1.1271959e-19)
(-0.0014874168 0.0037478437 4.0594223e-20)
(-0.0013749676 0.0036624997 1.9180119e-19)
(-0.0012697016 0.0035787252 7.871707e-20)
(-0.0011711598 0.0034966179 7.3584796e-20)
(-0.0010789101 0.0034162508 5.2329658e-20)
(-0.00099254848 0.003337677 -2.763722e-20)
(-0.00091169594 0.0032609323 2.1346652e-20)
(-0.00083599793 0.0031860359 6.114612e-20)
(-0.00076512461 0.0031129948 7.9798091e-20)
(-0.00069877169 0.0030418045 6.5554127e-20)
(-0.000636655 0.0029724538 -5.2625469e-21)
(-0.00057850996 0.0029049231 5.2762462e-21)
(-0.00052409348 0.002839187 6.7976582e-20)
(-0.00047317987 0.002775217 3.962386e-20)
(-0.00042555988 0.0027129823 3.6382096e-20)
(-0.00038104144 0.0026524497 -2.0447647e-20)
(-0.00033944732 0.0025935821 -1.778014e-20)
(-0.00030061037 0.002536349 -1.1044539e-20)
(-0.00026437686 0.0024807136 -3.033937e-20)
(-0.00023060545 0.0024266421 3.0621234e-20)
(-0.00019916293 0.0023741021 6.1540776e-20)
(-0.00016992639 0.002323061 5.9975485e-20)
(-0.00014278225 0.0022734891 5.668611e-21)
(-0.00011762183 0.0022253578 5.7775687e-21)
(-9.4342716e-05 0.0021786383 1.9566625e-20)
(-7.2847863e-05 0.0021333053 2.4584827e-20)
(-5.3054455e-05 0.0020893337 3.9864102e-20)
(-3.487601e-05 0.0020467011 3.8260091e-20)
(-1.8227457e-05 0.0020053845 -2.0730722e-20)
(-3.0372438e-06 0.0019653631 8.465307e-22)
(1.0768524e-05 0.0019266174 3.8287282e-20)
(2.3259049e-05 0.0018891287 2.8812889e-20)
(3.4499266e-05 0.001852879 2.2787412e-20)
(4.4552395e-05 0.0018178504 6.4442595e-21)
(5.3478789e-05 0.0017840277 1.5202764e-20)
(6.1335949e-05 0.0017513946 3.7619968e-20)
(6.8179548e-05 0.001719936 9.0786309e-21)
(7.4062722e-05 0.0016896374 2.1566232e-20)
(7.9036547e-05 0.0016604844 2.709223e-21)
(8.3150413e-05 0.0016324633 5.087901e-21)
(8.6451731e-05 0.0016055603 2.375041e-20)
(8.8986086e-05 0.0015797627 7.2451916e-21)
(9.0797438e-05 0.0015550574 5.5611918e-21)
(9.1928154e-05 0.0015314318 1.0576949e-20)
(9.241902e-05 0.0015088736 1.9023285e-20)
(9.2309345e-05 0.0014873707 2.4918284e-20)
(9.1637151e-05 0.0014669113 3.9167981e-21)
(9.043912e-05 0.0014474835 6.3242755e-21)
(8.8750539e-05 0.0014290761 -3.2443429e-21)
(8.6605504e-05 0.0014116778 -3.1460989e-21)
(8.4036951e-05 0.0013952776 7.2313974e-21)
(8.1076708e-05 0.0013798647 1.1987462e-21)
(7.775546e-05 0.0013654289 5.0787918e-21)
(7.4102879e-05 0.0013519597 -4.9537362e-21)
(7.0147736e-05 0.0013394474 -3.3992371e-21)
(6.591784e-05 0.0013278818 1.3255912e-20)
(6.1440128e-05 0.001317254 1.2184434e-20)
(5.6740689e-05 0.0013075547 1.2199012e-20)
(5.1844918e-05 0.0012987749 4.5879096e-21)
(4.6777424e-05 0.0012909057 9.6261967e-21)
(4.1562135e-05 0.0012839385 1.6132421e-20)
(3.6222368e-05 0.0012778638 4.636263e-21)
(3.0780779e-05 0.001272671 6.2114167e-21)
(2.5259879e-05 0.0012683465 -1.1365508e-21)
(1.9681721e-05 0.0012648713 6.6713568e-23)
(1.4064173e-05 0.0012622177 -5.7583167e-21)
(8.4218903e-06 0.0012603454 -1.8722075e-20)
(2.7898685e-06 0.0012592332 -2.5102272e-20)
(-0.0036752963 0.0046071488 2.1794161e-19)
(-0.0034350714 0.0045349777 6.1000986e-19)
(-0.0032086849 0.0044596673 -2.9972175e-19)
(-0.0029955045 0.0043818597 -3.9595371e-19)
(-0.0027949 0.0043021367 -9.5721628e-20)
(-0.0026062474 0.0042210217 1.6033461e-19)
(-0.0024289328 0.0041389835 2.7623332e-19)
(-0.0022623549 0.0040564381 1.8881868e-19)
(-0.0021059278 0.0039737523 1.0092602e-19)
(-0.0019590834 0.0038912474 1.1554641e-19)
(-0.001821273 0.0038092025 2.5571787e-19)
(-0.0016919695 0.0037278565 3.0378229e-19)
(-0.0015706683 0.0036474134 -4.3067945e-20)
(-0.0014568876 0.003568044 -6.5861342e-20)
(-0.00135017 0.0034898896 2.0237035e-20)
(-0.0012500816 0.0034130659 1.1162147e-19)
(-0.001156213 0.0033376641 1.1967943e-19)
(-0.001068179 0.003263755 -6.3693076e-20)
(-0.00098561717 0.0031913928 -1.3850108e-22)
(-0.00090818791 0.0031206146 3.7093886e-20)
(-0.00083557333 0.0030514444 1.2727164e-19)
(-0.00076747876 0.0029838946 1.5690462e-19)
(-0.00070362828 0.0029179706 -2.2915849e-20)
(-0.00064376431 0.0028536669 -5.8636711e-20)
(-0.00058764851 0.0027909734 4.9666192e-20)
(-0.00053505898 0.0027298755 5.0535916e-20)
(-0.00048578954 0.002670354 5.272549e-20)
(-0.00043965067 0.0026123873 -3.4188505e-20)
(-0.00039646515 0.0025559508 -2.7408439e-20)
(-0.00035606645 0.0025010216 -3.5195176e-20)
(-0.00031830187 0.0024475731 -5.5044942e-20)
(-0.00028302884 0.0023955796 6.7891675e-20)
(-0.00025011399 0.002345016 6.2699445e-20)
(-0.00021943337 0.0022958565 -5.4101945e-21)
(-0.00019087115 0.0022480775 -1.7888185e-20)
(-0.00016431867 0.0022016557 -2.0679335e-20)
(-0.00013967292 0.0021565681 5.6590561e-20)
(-0.00011683677 0.0021127927 4.4641412e-20)
(-9.5721598e-05 0.0020703064 -7.3691983e-21)
(-7.624193e-05 0.0020290964 -2.3877982e-20)
(-5.8315046e-05 0.0019891371 -4.66665e-20)
(-4.1863997e-05 0.0019504132 3.7961153e-20)
(-2.6815722e-05 0.0019129079 1.9826569e-20)
(-1.3100278e-05 0.0018766044 -5.4492635e-21)
(-6.5226911e-07 0.0018414865 4.7558839e-21)
(1.0592873e-05 0.0018075392 3.5213189e-21)
(2.0696581e-05 0.0017747495 2.8871629e-20)
(2.9715821e-05 0.0017431017 4.5931876e-20)
(3.7707407e-05 0.0017125819 2.3025664e-20)
(4.4724785e-05 0.001683179 7.3997901e-22)
(5.08191e-05 0.0016548788 -1.9431442e-20)
(5.6040411e-05 0.0016276687 -1.8857976e-21)
(6.0436406e-05 0.0016015371 1.7911546e-20)
(6.4052932e-05 0.0015764719 7.5847642e-21)
(6.6934212e-05 0.0015524616 1.1839998e-20)
(6.9122794e-05 0.0015294944 -9.3405851e-24)
(7.0659776e-05 0.0015075594 1.1566996e-20)
(7.1584672e-05 0.0014866454 1.8816308e-20)
(7.1935659e-05 0.0014667414 8.2419999e-21)
(7.174962e-05 0.0014478367 -3.4350632e-21)
(7.1062064e-05 0.0014299209 -3.4549502e-21)
(6.9907356e-05 0.0014129837 -1.290169e-21)
(6.8318642e-05 0.0013970149 1.0926189e-20)
(6.6327922e-05 0.0013820047 8.3206397e-21)
(6.3966126e-05 0.0013679433 -2.2569189e-21)
(6.1263288e-05 0.0013548212 -1.9516219e-21)
(5.8248374e-05 0.0013426292 3.4232646e-21)
(5.4949379e-05 0.0013313582 9.3815284e-21)
(5.1393559e-05 0.0013209994 2.9591016e-21)
(4.7607284e-05 0.0013115445 4.3343343e-21)
(4.3616174e-05 0.0013029847 4.2241318e-21)
(3.9445233e-05 0.001295312 9.7235131e-21)
(3.5118658e-05 0.001288518 8.7672242e-21)
(3.0659966e-05 0.0012825938 5.970233e-21)
(2.6092251e-05 0.001277529 -4.6482091e-21)
(2.1438282e-05 0.0012733105 -3.4140744e-21)
(1.6720325e-05 0.0012699199 -2.2197539e-21)
(1.1956899e-05 0.0012673299 -6.6147259e-21)
(7.1635706e-06 0.0012655014 -2.2659616e-20)
(2.3734359e-06 0.0012644146 -3.0164599e-20)
(-0.0037405646 0.004407733 1.8753736e-20)
(-0.0035040067 0.0043458728 4.0404057e-19)
(-0.0032806221 0.0042805211 -7.3430671e-20)
(-0.0030698377 0.0042123032 -7.1661266e-19)
(-0.0028710806 0.0041417885 -4.3790614e-19)
(-0.0026837814 0.0040694926 -1.6186091e-19)
(-0.0025073783 0.0039958798 -4.3459055e-21)
(-0.0023413188 0.0039213659 1.4663126e-19)
(-0.0021850633 0.0038463206 -2.5971082e-19)
(-0.0020380865 0.0037710705 -1.1203656e-19)
(-0.0018998795 0.0036959024 1.2859445e-19)
(-0.001769952 0.0036210658 2.633929e-19)
(-0.0016478327 0.003546776 5.6181585e-20)
(-0.0015330705 0.0034732168 -3.2830224e-19)
(-0.0014252353 0.0034005442 -2.0501545e-19)
(-0.0013239179 0.0033288884 5.3882262e-21)
(-0.0012287309 0.0032583563 9.5093916e-21)
(-0.001139308 0.0031890348 -3.5841474e-20)
(-0.0010553039 0.0031209933 -1.7316712e-19)
(-0.00097639338 0.003054285 -1.6937225e-19)
(-0.0009022716 0.0029889493 5.8364952e-20)
(-0.00083265365 0.0029250134 9.4866625e-20)
(-0.00076727288 0.0028624973 -5.5663576e-21)
(-0.00070587938 0.002801409 -1.0184668e-19)
(-0.0006482401 0.0027417521 -3.1116266e-20)
(-0.00059413831 0.0026835243 2.7094441e-20)
(-0.00054337158 0.0026267174 5.1039788e-20)
(-0.00049575272 0.0025713208 5.1822777e-21)
(-0.00045110626 0.0025173211 -1.0804391e-19)
(-0.00040926775 0.0024647029 -7.0922098e-20)
(-0.00037008534 0.0024134492 -3.6207765e-20)
(-0.00033341621 0.0023635421 -6.4168316e-21)
(-0.00029912746 0.0023149633 3.8115263e-21)
(-0.0002670947 0.002267694 -5.6090517e-20)
(-0.0002372014 0.002221716 -2.2579459e-20)
(-0.00020933859 0.002177011 -2.0022995e-20)
(-0.00018340271 0.0021335616 -5.528539e-21)
(-0.00015929651 0.0020913502 -2.695846e-20)
(-0.00013692834 0.0020503589 -6.1024115e-20)
(-0.00011621377 0.0020105736 -4.5037938e-20)
(-9.7070172e-05 0.001971978 -1.3719497e-20)
(-7.9417802e-05 0.0019345564 -2.9134378e-21)
(-6.3183904e-05 0.0018982953 -1.455744e-20)
(-4.8298301e-05 0.00186318 -2.2545465e-20)
(-3.46943e-05 0.0018291975 -1.2852032e-20)
(-2.2306129e-05 0.0017963343 -9.2790429e-22)
(-1.1073409e-05 0.0017645812 1.8999741e-21)
(-9.3968012e-07 0.0017339196 -1.2939272e-20)
(8.1548508e-06 0.0017043414 -1.6118768e-20)
(1.6263375e-05 0.0016758381 -2.1846534e-20)
(2.3435655e-05 0.001648393 -1.0711205e-20)
(2.972356e-05 0.0016219963 3.0193438e-21)
(3.5174868e-05 0.0015966383 6.7960762e-21)
(3.9835403e-05 0.001572308 4.6751475e-21)
(4.3749523e-05 0.001548995 1.202155e-20)
(4.6960043e-05 0.0015266887 1.3891977e-21)
(4.9508282e-05 0.0015053792 5.8587458e-21)
(5.143387e-05 0.0014850565 -1.5364394e-22)
(5.2775103e-05 0.0014657104 -6.7754473e-21)
(5.3569058e-05 0.0014473313 -8.4938713e-21)
(5.3851513e-05 0.0014299096 -1.5364075e-22)
(5.3657003e-05 0.0014134359 -4.211616e-21)
(5.301879e-05 0.0013979009 -1.7631578e-21)
(5.1969073e-05 0.0013832956 2.6713434e-21)
(5.0539032e-05 0.0013696109 -1.2639599e-21)
(4.8758866e-05 0.0013568381 -3.4337302e-21)
(4.6657726e-05 0.0013449687 -5.3260468e-21)
(4.4263869e-05 0.0013339942 -8.9941878e-21)
(4.1604747e-05 0.0013239065 -6.6454459e-21)
(3.8707063e-05 0.0013146977 1.117409e-21)
(3.5596694e-05 0.0013063598 6.362594e-21)
(3.229872e-05 0.0012988851 4.9733177e-21)
(2.8837693e-05 0.0012922657 7.7454453e-21)
(2.5237498e-05 0.0012864931 3.3627417e-21)
(2.1521384e-05 0.0012815575 -3.9055753e-21)
(1.7712345e-05 0.001277446 -3.9564797e-21)
(1.3832897e-05 0.0012741407 -7.711253e-21)
(9.9021322e-06 0.001271615 -1.5331708e-20)
(5.9365642e-06 0.0012698309 -2.102951e-20)
(1.9673763e-06 0.0012687697 -2.8257952e-20)
(-0.0037956701 0.0042132556 4.7703099e-20)
(-0.0035630962 0.0041610592 -3.1122862e-20)
(-0.0033430503 0.0041050682 -1.6181859e-19)
(-0.003135014 0.0040458901 -2.6646378e-19)
(-0.0029384673 0.0039840807 -1.1513557e-19)
(-0.0027528915 0.003920146 -4.4090336e-20)
(-0.0025777729 0.0038545445 -1.9348762e-19)
(-0.0024126049 0.0037876892 1.7496528e-19)
(-0.002256891 0.0037199506 1.7312129e-20)
(-0.0021101464 0.0036516585 -6.1898084e-21)
(-0.0019718996 0.0035831051 1.9864498e-19)
(-0.0018416952 0.0035145473 3.6356982e-20)
(-0.0017190938 0.0034462099 9.3030081e-20)
(-0.0016036736 0.0033782871 3.6151872e-20)
(-0.0014950309 0.0033109467 5.5988693e-20)
(-0.0013927807 0.0032443316 1.3675399e-20)
(-0.0012965567 0.0031785617 -2.415891e-19)
(-0.0012060118 0.0031137379 -6.0109764e-20)
(-0.0011208173 0.003049943 4.558323e-20)
(-0.0010406633 0.0029872437 1.0834457e-20)
(-0.00096525738 0.0029256934 6.1888637e-20)
(-0.00089432522 0.0028653331 -8.7532971e-20)
(-0.00082761003 0.0028061944 -3.6022748e-20)
(-0.00076486981 0.002748299 5.482529e-20)
(-0.00070587766 0.0026916621 4.0236162e-20)
(-0.00065042287 0.0026362925 3.0415712e-20)
(-0.00059830702 0.0025821925 -5.5175678e-20)
(-0.00054934656 0.0025293618 4.241276e-21)
(-0.0005033688 0.0024777965 -1.2813106e-20)
(-0.00046021064 0.0024274892 -6.4569038e-21)
(-0.00041972218 0.0023784317 -1.283065e-21)
(-0.00038176198 0.0023306135 -1.006351e-19)
(-0.00034619746 0.0022840224 6.4259392e-21)
(-0.00031290482 0.0022386464 5.4757259e-20)
(-0.00028176739 0.0021944727 9.3305963e-21)
(-0.0002526758 0.0021514887 3.0198255e-21)
(-0.00022552651 0.002109681 -8.2034409e-20)
(-0.00020022248 0.0020690368 -3.0171239e-20)
(-0.00017667188 0.0020295428 2.5173842e-20)
(-0.00015478797 0.0019911859 6.289863e-21)
(-0.00013448879 0.0019539562 1.3851377e-20)
(-0.00011569512 0.0019178394 -4.6542755e-20)
(-9.8332941e-05 0.0018828246 9.2671243e-21)
(-8.2331398e-05 0.0018488999 3.8630364e-20)
(-6.7623948e-05 0.0018160555 4.1959815e-21)
(-5.4142556e-05 0.0017842788 -3.2341389e-21)
(-4.1830776e-05 0.0017535604 -4.9004672e-20)
(-3.0630324e-05 0.0017238885 -3.4340042e-20)
(-2.0474509e-05 0.0016952548 1.0914453e-20)
(-1.1318359e-05 0.0016676478 5.6083555e-21)
(-3.1119546e-06 0.0016410611 7.1428866e-21)
(4.2016762e-06 0.0016154796 -2.5339115e-20)
(1.0669078e-05 0.0015908968 -7.4258893e-21)
(1.6335586e-05 0.0015673031 1.9913902e-20)
(2.1245473e-05 0.0015446893 4.6645311e-22)
(2.5441916e-05 0.0015230453 2.0400273e-21)
(2.8966613e-05 0.0015023628 -1.2606054e-20)
(3.1858986e-05 0.0014826334 -7.9811271e-21)
(3.4157532e-05 0.0014638468 7.2746564e-21)
(3.5899667e-05 0.001445995 -3.3075819e-21)
(3.7121206e-05 0.0014290691 -9.4949651e-21)
(3.7856713e-05 0.0014130608 -1.4617027e-20)
(3.8139588e-05 0.0013979614 -4.3632089e-21)
(3.8002298e-05 0.0013837628 3.562686e-22)
(3.7476231e-05 0.0013704567 -4.574895e-21)
(3.659161e-05 0.0013580349 -5.6322416e-21)
(3.537775e-05 0.0013464899 -2.7238271e-20)
(3.3863207e-05 0.0013358135 -1.3385764e-20)
(3.2075602e-05 0.0013259985 7.4771068e-22)
(3.00418e-05 0.0013170372 4.2320661e-21)
(2.7787916e-05 0.0013089225 7.1036642e-21)
(2.5339306e-05 0.0013016471 -4.4548022e-21)
(2.2720673e-05 0.0012952035 2.6724096e-21)
(1.9956054e-05 0.0012895836 5.7909298e-21)
(1.7069032e-05 0.0012847781 1.014738e-23)
(1.4082781e-05 0.0012807743 -8.0644191e-21)
(1.1019962e-05 0.001277555 -1.7267355e-20)
(7.9003079e-06 0.0012750941 -1.9787782e-20)
(4.7411145e-06 0.0012733548 -3.1333731e-20)
(1.5717363e-06 0.0012723197 -3.5101146e-20)
(-0.0038412707 0.0040238747 3.9682357e-19)
(-0.0036129509 0.0039807227 -1.8502867e-19)
(-0.0033965342 0.0039335176 -8.649047e-19)
(-0.0031915527 0.0038828484 -4.2251465e-19)
(-0.0029975352 0.0038292561 -2.3485671e-19)
(-0.0028140099 0.0037732361 -1.1978732e-19)
(-0.0026405081 0.0037152393 -5.1162838e-19)
(-0.0024765659 0.0036556745 -2.6520933e-19)
(-0.0023217269 0.0035949108 3.0672879e-20)
(-0.0021755443 0.0035332793 -1.0805862e-19)
(-0.0020375822 0.0034710753 4.4476893e-20)
(-0.0019074181 0.0034085611 -1.933064e-19)
(-0.0017846433 0.0033459687 -1.5951013e-19)
(-0.0016688635 0.0032835007 1.326168e-19)
(-0.0015597007 0.0032213343 -4.2479824e-20)
(-0.001456793 0.003159623 -1.2569453e-19)
(-0.0013597952 0.0030984977 -3.2599033e-19)
(-0.0012683785 0.0030380709 -1.840593e-19)
(-0.0011822313 0.0029784375 2.5634011e-20)
(-0.0011010584 0.0029196758 -5.6515818e-20)
(-0.0010245802 0.0028618514 9.4141576e-21)
(-0.00095253366 0.0028050173 -1.1888318e-19)
(-0.00088467157 0.0027492157 -1.1743177e-19)
(-0.00082076046 0.0026944806 -1.4539064e-21)
(-0.00076058034 0.0026408377 -3.399881e-20)
(-0.00070392691 0.0025883052 -2.3981058e-20)
(-0.00065060677 0.0025368962 -5.1650237e-20)
(-0.0006004397 0.0024866187 -4.6792385e-20)