/*--------------------------------*- C++ -*----------------------------------*\
| =========                 |                                                 |
| \\      /  F ield         | OpenFOAM: The Open Source CFD Toolbox           |
|  \\    /   O peration     | Version:  2306                                  |
|   \\  /    A nd           | Website:  www.openfoam.com                      |
|    \\/     M anipulation  |                                                 |
\*---------------------------------------------------------------------------*/
FoamFile
{
    version     2.0;
    format      ascii;
    arch        "LSB;label=32;scalar=64";
    class       volVectorField;
    location    "0.23";
    object      U;
}
// * * * * * * * * * * * * * * * * * * * * * * * * * * * * * * * * * * * * * //

dimensions      [0 1 -1 0 0 0 0];

internalField   nonuniform List<vector> 
6400
(
(-1.8351212e-05 3.4308193e-06 4.2940292e-20)
(-4.7397848e-05 9.1961262e-06 -7.6829306e-21)
(-8.1618469e-05 9.7620146e-06 -2.499392e-20)
(-0.00011551181 1.0700472e-05 1.0121813e-20)
(-0.00015113818 1.1216331e-05 2.9897504e-20)
(-0.00018679632 1.1369472e-05 -7.3615793e-21)
(-0.00022225414 1.1419369e-05 -5.104366e-21)
(-0.00025744941 1.1413975e-05 2.0441361e-20)
(-0.00029234046 1.1375201e-05 1.5787124e-20)
(-0.00032689499 1.1315757e-05 -2.8161903e-20)
(-0.00036108697 1.1241705e-05 -3.0333454e-20)
(-0.00039489195 1.1155584e-05 3.9780249e-20)
(-0.00042828488 1.1058514e-05 1.1106448e-20)
(-0.00046123983 1.0950997e-05 -3.6183192e-20)
(-0.00049373005 1.083316e-05 -1.885762e-20)
(-0.00052572824 1.0704863e-05 1.941477e-20)
(-0.00055720678 1.0565734e-05 4.0523474e-20)
(-0.00058813789 1.0415095e-05 -1.012235e-20)
(-0.00061849381 1.0251868e-05 -3.2513875e-20)
(-0.00064824687 1.0074371e-05 -8.5434678e-22)
(-0.00067736954 9.8800272e-06 6.7550067e-22)
(-0.00070583492 9.6651514e-06 8.6772265e-21)
(-0.00073362009 9.4252295e-06 5.6760169e-20)
(-0.00076071775 9.160101e-06 1.0567054e-19)
(-0.00078711241 8.8966315e-06 1.3986523e-19)
(-0.0008127636 8.6536466e-06 -8.9314929e-20)
(-0.00083763641 8.4281597e-06 -3.3209076e-19)
(-0.00086171015 8.2143599e-06 -7.8059726e-20)
(-0.00088496816 8.0078954e-06 1.4021338e-19)
(-0.00090739475 7.8058735e-06 1.619386e-19)
(-0.00092897487 7.6064534e-06 1.2776705e-19)
(-0.00094969431 7.4084723e-06 -3.6340994e-20)
(-0.00096953994 7.2111907e-06 -1.0096401e-20)
(-0.00098849986 7.0141532e-06 -1.6838074e-19)
(-0.0010065636 6.8171019e-06 -1.8737972e-19)
(-0.001023722 6.6198956e-06 2.3877032e-19)
(-0.0010399676 6.4224853e-06 1.3348131e-20)
(-0.0010552945 6.2248932e-06 -4.7725594e-19)
(-0.0010696983 6.0271886e-06 1.4895778e-19)
(-0.0010831762 5.8294738e-06 6.629021e-19)
(-0.001095727 5.6318784e-06 1.2857578e-19)
(-0.0011073511 5.4345673e-06 -3.206073e-19)
(-0.0011180505 5.237715e-06 -3.621901e-19)
(-0.0011278287 5.0415072e-06 -2.4610703e-19)
(-0.0011366907 4.8461483e-06 2.3812334e-19)
(-0.0011446431 4.6518481e-06 8.0890005e-19)
(-0.0011516937 4.4588232e-06 -5.0153728e-20)
(-0.0011578519 4.2672893e-06 -3.1583227e-19)
(-0.0011631284 4.0774736e-06 -2.6386822e-19)
(-0.0011675352 3.8895949e-06 -8.4339608e-19)
(-0.0011710854 3.7038726e-06 4.3564405e-19)
(-0.0011737934 3.5205236e-06 5.8488539e-19)
(-0.0011756746 3.3397563e-06 -2.3298823e-20)
(-0.0011767455 3.1617816e-06 2.8504862e-19)
(-0.0011770236 2.9867945e-06 -6.8930427e-19)
(-0.0011765271 2.8149843e-06 -5.3839227e-19)
(-0.0011752751 2.6465367e-06 6.039643e-19)
(-0.0011732876 2.4816243e-06 2.0038474e-19)
(-0.001170585 2.3204151e-06 -9.8551178e-20)
(-0.0011671885 2.1630602e-06 9.6239172e-20)
(-0.0011631196 2.0097018e-06 -4.2569201e-20)
(-0.0011584003 1.8604796e-06 2.2494125e-20)
(-0.0011530531 1.7155251e-06 -3.446325e-20)
(-0.0011471007 1.5749518e-06 -2.6991125e-19)
(-0.001140566 1.4388823e-06 -4.2162265e-19)
(-0.001133472 1.3074177e-06 -6.986487e-22)
(-0.0011258418 1.1806728e-06 7.688367e-19)
(-0.0011176987 1.0587555e-06 -1.202811e-20)
(-0.0011090657 9.4178577e-07 -3.059406e-19)
(-0.0010999661 8.2989803e-07 5.9087038e-19)
(-0.0010904226 7.2326108e-07 -9.8478161e-20)
(-0.0010804582 6.2208757e-07 -4.257516e-19)
(-0.0010700957 5.2666053e-07 1.0666336e-19)
(-0.0010593575 4.3733181e-07 1.7863178e-19)
(-0.0010482661 3.5459857e-07 2.0414366e-19)
(-0.0010368438 2.7921387e-07 -4.0934625e-19)
(-0.0010251119 2.1206977e-07 -3.8602484e-19)
(-0.0010130866 1.5274364e-07 3.5601275e-19)
(-0.0010007713 9.124565e-08 4.507616e-19)
(-0.00098818437 5.3701113e-09 -1.8995977e-19)
(-5.2615462e-05 0.00011406848 5.4492101e-20)
(-0.00012203763 0.00012255811 -1.8191755e-20)
(-0.00020165923 0.00012507835 -2.4761838e-21)
(-0.00027972132 0.0001277935 5.3384431e-20)
(-0.00036055704 0.00012921014 5.1339883e-20)
(-0.00044137863 0.00012963522 -4.8094538e-21)
(-0.00052182778 0.00012958408 6.5675592e-20)
(-0.00060178987 0.00012925269 4.1610605e-20)
(-0.00068114895 0.00012872955 -3.4927546e-20)
(-0.00075979202 0.000128062 -1.9698507e-20)
(-0.00083762153 0.00012727553 -4.2076954e-21)
(-0.00091454953 0.00012638383 3.6901129e-20)
(-0.00099049329 0.00012539483 7.6272821e-20)
(-0.0010653734 0.00012431355 9.9201569e-20)
(-0.0011391129 0.00012314345 3.4292985e-20)
(-0.0012116372 0.00012188715 5.6027474e-20)
(-0.0012828737 0.00012054672 1.5579787e-19)
(-0.0013527523 0.00011912384 2.5374991e-20)
(-0.0014212049 0.00011761987 -1.689667e-19)
(-0.0014881666 0.00011603573 -1.1802556e-19)
(-0.0015535751 0.00011437182 -3.4350012e-23)
(-0.0016173711 0.00011262793 4.5856435e-20)
(-0.001679496 0.00011080343 1.0915517e-19)
(-0.0017398797 0.00010890091 2.3174367e-19)
(-0.0017984601 0.00010694124 1.6902297e-19)
(-0.0018552009 0.0001049415 -3.0950505e-19)
(-0.0019100673 0.00010290356 -4.3899699e-19)
(-0.0019630182 0.00010082619 -1.669058e-19)
(-0.0020140141 9.870896e-05 -8.9877844e-20)
(-0.0020630192 9.6552585e-05 4.3415081e-19)
(-0.0021100017 9.4358689e-05 5.7859826e-19)
(-0.0021549338 9.2129486e-05 -2.3795528e-19)
(-0.0021977914 8.9867596e-05 -5.2286071e-19)
(-0.0022385545 8.7575909e-05 -2.2811291e-19)
(-0.0022772066 8.5257538e-05 3.2516506e-19)
(-0.0023137353 8.2915742e-05 3.1567639e-19)
(-0.0023481317 8.0553876e-05 -4.8737967e-19)
(-0.0023803908 7.8175383e-05 -7.4804274e-19)
(-0.0024105112 7.5783743e-05 6.2697343e-19)
(-0.0024384954 7.3382449e-05 8.531294e-19)
(-0.0024643493 7.0974994e-05 -9.8546669e-19)
(-0.0024880823 6.8564867e-05 -3.9873147e-19)
(-0.0025097076 6.6155515e-05 1.2966322e-18)
(-0.0025292413 6.3750327e-05 1.6539158e-18)
(-0.0025467032 6.1352638e-05 2.2822507e-20)
(-0.0025621158 5.8965705e-05 -2.6272469e-18)
(-0.0025755049 5.6592704e-05 -1.5554843e-18)
(-0.0025868991 5.4236712e-05 1.2902913e-18)
(-0.0025963296 5.1900701e-05 1.2527646e-18)
(-0.0026038304 4.9587529e-05 -7.0695377e-19)
(-0.0026094377 4.7299935e-05 -1.1710836e-18)
(-0.00261319 4.5040512e-05 1.1876456e-18)
(-0.002615128 4.281174e-05 1.6273316e-18)
(-0.0026152941 4.0615943e-05 -2.3310315e-19)
(-0.0026137327 3.8455297e-05 -1.0326719e-18)
(-0.0026104896 3.6331846e-05 -1.1539986e-18)
(-0.0026056121 3.4247464e-05 -1.1539957e-19)
(-0.0025991487 3.2203888e-05 1.3392356e-18)
(-0.0025911491 3.0202693e-05 5.0867272e-19)
(-0.0025816637 2.8245301e-05 -1.3186427e-18)
(-0.0025707438 2.6332974e-05 -4.8720809e-19)
(-0.0025584412 2.4466841e-05 1.3815833e-18)
(-0.0025448082 2.2647879e-05 4.0552709e-19)
(-0.0025298973 2.0876915e-05 -1.5694242e-18)
(-0.0025137613 1.9154643e-05 -8.5593229e-19)
(-0.0024964527 1.7481618e-05 9.1626386e-19)
(-0.0024780243 1.5858283e-05 1.0243331e-18)
(-0.0024585282 1.4284961e-05 2.827777e-19)
(-0.0024380166 1.2761882e-05 -5.2377962e-19)
(-0.0024165407 1.1289201e-05 -1.1659138e-18)
(-0.0023941517 9.8670296e-06 1.4108524e-19)
(-0.0023708998 8.4954758e-06 8.4829926e-19)
(-0.0023468347 7.1746512e-06 -5.6062413e-20)
(-0.0023220053 5.9046868e-06 1.4677064e-19)
(-0.0022964597 4.6857564e-06 4.783468e-19)
(-0.0022702456 3.5181629e-06 1.259666e-19)
(-0.0022434106 2.4021194e-06 -7.2167089e-19)
(-0.0022160046 1.3342691e-06 -7.0624978e-19)
(-0.0021880724 2.9852407e-07 2.0896171e-19)
(-0.002159659 -7.4268801e-07 3.0889554e-19)
(-7.2942622e-05 0.00031315318 -7.6401253e-20)
(-0.00016534723 0.00032087038 -3.2070069e-20)
(-0.00027047642 0.00032431769 -1.767058e-20)
(-0.00037255305 0.00032730539 5.8690671e-21)
(-0.00047763436 0.0003287421 -6.6910633e-21)
(-0.00058248492 0.00032893 -4.6047622e-20)
(-0.00068681876 0.0003283531 5.1865054e-20)
(-0.00079054186 0.00032724906 -6.1909192e-21)
(-0.00089351226 0.00032574385 1.8804574e-20)
(-0.00099557427 0.00032390953 1.5376667e-19)
(-0.0010965869 0.00032178846 9.3186001e-20)
(-0.0011964215 0.00031940634 8.6160046e-20)
(-0.0012949575 0.00031677988 -9.6128845e-21)
(-0.0013920808 0.00031392097 1.1948364e-19)
(-0.0014876823 0.00031083895 1.9455953e-19)
(-0.0015816574 0.00030754176 2.5925824e-20)
(-0.001673906 0.00030403671 5.6861447e-20)
(-0.0017643316 0.00030033084 -3.8191072e-20)
(-0.0018528419 0.00029643125 -1.0635697e-19)
(-0.0019393487 0.00029234533 5.0148313e-20)
(-0.0020237676 0.00028808096 4.0508969e-20)
(-0.0021060185 0.00028364675 3.7329038e-20)
(-0.0021860249 0.00027905213 1.4257998e-19)
(-0.0022637139 0.00027430558 1.8101104e-19)
(-0.0023390196 0.00026940415 -9.8550721e-21)
(-0.0024118832 0.00026434861 -1.0509207e-19)
(-0.0024822483 0.00025914943 -7.719074e-20)
(-0.0025500614 0.000253818 -1.8805199e-19)
(-0.0026152738 0.00024836486 -2.2740704e-19)
(-0.0026778422 0.00024280005 7.5064228e-20)
(-0.0027377291 0.00023713333 2.2823536e-19)
(-0.0027949019 0.00023137429 -2.3718724e-20)
(-0.0028493334 0.0002255325 -2.9178071e-19)
(-0.0029010018 0.0002196175 -2.7430107e-19)
(-0.0029498899 0.00021363886 1.7942382e-19)
(-0.0029959861 0.00020760616 2.7196641e-19)
(-0.0030392833 0.00020152898 -8.6442314e-20)
(-0.0030797797 0.00019541684 -1.4360787e-19)
(-0.0031174782 0.00018927925 2.7892131e-20)
(-0.0031523865 0.00018312556 -1.8578602e-19)
(-0.0031845171 0.00017696505 -4.1016003e-19)
(-0.003213887 0.0001708068 2.7327713e-19)
(-0.0032405174 0.00016465974 7.7491658e-19)
(-0.003264434 0.00015853255 6.9972439e-19)
(-0.0032856666 0.00015243369 -7.9701534e-20)
(-0.003304249 0.00014637133 -1.4687209e-18)
(-0.0033202184 0.00014035338 -6.5521023e-19)
(-0.003333616 0.00013438743 4.7900575e-19)
(-0.0033444861 0.00012848075 5.6232741e-19)
(-0.0033528761 0.00012264027 4.5550762e-19)
(-0.0033588366 0.00011687256 -6.9499269e-19)
(-0.0033624207 0.00011118381 -1.3537609e-20)
(-0.003363684 0.00010557984 7.7297792e-19)
(-0.0033626845 0.0001000661 -7.9464721e-20)
(-0.0033594821 9.4647615e-05 -1.1742693e-19)
(-0.0033541387 8.9329043e-05 -2.8609249e-19)
(-0.0033467177 8.4114614e-05 -2.5936293e-19)
(-0.0033372838 7.900818e-05 4.6987705e-19)
(-0.0033259032 7.4013193e-05 1.2254213e-19)
(-0.0033126426 6.9132701e-05 -6.6315213e-19)
(-0.0032975698 6.4369365e-05 -1.7550526e-19)
(-0.003280753 5.9725464e-05 5.0687902e-19)
(-0.0032622609 5.5202909e-05 9.0563702e-20)
(-0.0032421622 5.080324e-05 -3.3125659e-19)
(-0.0032205258 4.6527646e-05 1.2574338e-19)
(-0.0031974201 4.2376971e-05 2.52515e-19)
(-0.0031729136 3.8351741e-05 -1.0970878e-19)
(-0.0031470739 3.4452167e-05 4.1967262e-20)
(-0.0031199683 3.0678189e-05 -6.4321077e-20)
(-0.0030916632 2.7029484e-05 -4.910241e-19)
(-0.0030622242 2.3505507e-05 -5.9595015e-21)
(-0.0030317157 2.0105534e-05 2.8372392e-19)
(-0.0030002014 1.6828639e-05 -2.228948e-20)
(-0.0029677435 1.3673713e-05 1.7233257e-19)
(-0.0029344031 1.0639354e-05 1.7746443e-19)
(-0.0029002401 7.7238435e-06 1.4144748e-19)
(-0.0028653161 4.9252272e-06 -1.5648674e-19)
(-0.0028296954 2.2402598e-06 -5.5249095e-19)
(-0.0027934438 -3.3481409e-07 -1.4869188e-19)
(-0.0027565758 -2.7906842e-06 4.0526803e-19)
(-8.1775735e-05 0.00054471415 -4.8930477e-19)
(-0.00018570426 0.00054953257 -1.3109351e-19)
(-0.00030336712 0.00055216498 -1.5644729e-20)
(-0.00041695184 0.00055423851 -1.5364081e-19)
(-0.00053361806 0.0005549203 2.807751e-20)
(-0.00064983257 0.00055437005 -8.8820939e-20)
(-0.00076539024 0.00055291812 -7.8187155e-20)
(-0.00088023804 0.00055075954 -2.1724515e-20)
(-0.00099424043 0.00054801329 7.2569702e-20)
(-0.0011072318 0.00054475353 1.591577e-19)
(-0.0012190557 0.0005410279 1.2199662e-19)
(-0.0013295661 0.00053686823 1.2401493e-19)
(-0.0014386252 0.00053229723 -4.7028798e-20)
(-0.001546102 0.00052733241 5.9720916e-20)
(-0.0016518718 0.00052198841 1.1101095e-19)
(-0.0017558153 0.00051627824 -6.4306181e-20)
(-0.0018578183 0.00051021413 9.8594987e-20)
(-0.0019577718 0.00050380802 3.4444967e-20)
(-0.0020555714 0.00049707179 -5.7194193e-20)
(-0.0021511179 0.00049001753 4.0219619e-20)
(-0.0022443168 0.00048265756 2.2884008e-20)
(-0.0023350786 0.00047500454 3.3847394e-20)
(-0.0024233188 0.00046707144 1.0185702e-19)
(-0.002508958 0.00045887146 1.9303306e-20)
(-0.002591923 0.00045041704 -6.5091326e-20)
(-0.0026721469 0.00044172254 -8.1420612e-20)
(-0.0027495676 0.00043280418 -1.5435999e-19)
(-0.0028241279 0.00042367828 -1.9391527e-20)
(-0.0028957758 0.00041436072 2.4359016e-20)
(-0.0029644654 0.0004048672 -5.7941361e-20)
(-0.0030301563 0.00039521343 -8.7780697e-20)
(-0.0030928144 0.00038541522 -2.6604227e-20)
(-0.0031524113 0.0003754885 9.3124155e-20)
(-0.0032089246 0.00036544927 -3.3441336e-20)
(-0.0032623374 0.00035531363 -1.6777579e-19)
(-0.0033126389 0.00034509766 3.6146152e-21)
(-0.0033598238 0.00033481743 1.8170414e-19)
(-0.0034038922 0.00032448893 1.052988e-19)
(-0.0034448499 0.00031412801 -5.0909193e-20)
(-0.0034827079 0.00030375031 -1.2270784e-19)
(-0.0035174824 0.00029337124 -5.8914836e-20)
(-0.0035491945 0.00028300592 1.0857567e-19)
(-0.0035778705 0.00027266909 1.6473902e-19)
(-0.003603541 0.00026237514 -6.0758054e-20)
(-0.0036262416 0.00025213797 -3.9207278e-22)
(-0.0036460117 0.00024197106 -1.821415e-19)
(-0.003662895 0.00023188734 -2.2245683e-19)
(-0.0036769392 0.00022189924 4.5824921e-20)
(-0.0036881954 0.00021201859 2.3237842e-20)
(-0.0036967183 0.00020225664 2.345457e-19)
(-0.0037025655 0.00019262402 3.2852188e-20)
(-0.0037057978 0.00018313074 -2.137847e-19)
(-0.0037064784 0.00017378613 1.1512499e-19)
(-0.0037046731 0.0001645989 9.9441911e-20)
(-0.0037004497 0.00015557706 -2.3687251e-20)
(-0.003693878 0.00014672798 -8.597115e-20)
(-0.0036850295 0.00013805835 -1.0190418e-19)
(-0.0036739771 0.00012957416 1.087651e-19)
(-0.0036607947 0.0001212808 2.7748673e-20)
(-0.0036455574 0.00011318294 -2.4691236e-19)
(-0.0036283408 0.00010528464 -3.8357434e-20)
(-0.0036092213 9.7589313e-05 2.0189255e-19)
(-0.0035882753 9.0099773e-05 4.5254793e-20)
(-0.0035655793 8.2818213e-05 -6.075074e-20)
(-0.0035412099 7.5746264e-05 6.9413807e-20)
(-0.0035152433 6.8884993e-05 3.0121327e-20)
(-0.0034877551 6.2234932e-05 -1.7983201e-19)
(-0.0034588205 5.5796104e-05 -4.267387e-20)
(-0.0034285138 4.9568063e-05 1.9692394e-20)
(-0.0033969083 4.3549921e-05 -7.3206724e-21)
(-0.0033640764 3.7740367e-05 1.259146e-20)
(-0.0033300891 3.2137712e-05 -2.8573962e-21)
(-0.0032950163 2.6739891e-05 -7.1943324e-20)
(-0.0032589262 2.1544439e-05 -4.5291333e-20)
(-0.0032218857 1.6548415e-05 1.3854507e-19)
(-0.0031839605 1.1748415e-05 7.9740842e-20)
(-0.0031452165 7.1409644e-06 -1.6235571e-19)
(-0.0031057211 2.7267133e-06 -2.6826146e-19)
(-0.0030655246 -1.4862185e-06 -8.3346903e-20)
(-0.0030246817 -5.4808596e-06 1.0930441e-19)
(-8.512162e-05 0.00079237244 -5.9885044e-19)
(-0.00019390675 0.00079490144 -4.1165968e-19)
(-0.00031718613 0.00079634652 -9.2291899e-20)
(-0.00043594699 0.00079719476 1.2606417e-19)
(-0.00055788872 0.00079683392 -2.0592187e-19)
(-0.00067923267 0.00079529849 -3.2120806e-19)
(-0.00079980795 0.00079277318 -2.0490543e-19)
(-0.00091958944 0.00078939083 -1.5623652e-19)
(-0.0010384558 0.00078524597 -3.8403646e-21)
(-0.0011562463 0.00078040455 1.7313936e-19)
(-0.0012728036 0.00077491338 -2.7899518e-20)
(-0.0013879782 0.00076880703 3.2549422e-21)
(-0.0015016271 0.00076211248 -2.8230312e-20)
(-0.0016136134 0.00075485217 -1.1860298e-20)
(-0.0017238063 0.00074704594 1.078469e-19)
(-0.0018320803 0.00073871221 -4.5514814e-20)
(-0.0019383154 0.00072986876 5.8516305e-20)
(-0.0020423968 0.00072053321 1.4810068e-20)
(-0.0021442151 0.00071072333 -7.3834495e-20)
(-0.0022436659 0.00070045723 5.5300881e-20)
(-0.0023406503 0.00068975347 1.0432656e-19)
(-0.0024350746 0.00067863112 -8.860981e-20)
(-0.0025268505 0.00066710977 -9.2450786e-20)
(-0.0026158953 0.00065520935 -2.4260977e-20)
(-0.0027021321 0.00064295 -7.0546171e-20)
(-0.0027854906 0.00063035263 -1.2258225e-19)
(-0.0028659062 0.00061743919 -1.2309608e-19)
(-0.0029433201 0.00060423228 8.6070586e-21)
(-0.0030176793 0.00059075476 5.6192563e-20)
(-0.0030889367 0.00057702971 7.1211422e-20)
(-0.003157051 0.00056308037 -1.3878328e-19)
(-0.0032219875 0.00054893014 -1.2151305e-19)
(-0.0032837173 0.00053460252 7.5903303e-20)
(-0.0033422181 0.00052012104 5.9684765e-20)
(-0.0033974733 0.00050550925 1.0997712e-19)
(-0.0034494725 0.00049079062 -2.2931331e-20)
(-0.0034982114 0.00047598848 1.6127383e-21)
(-0.0035436913 0.00046112597 -8.1216267e-20)
(-0.0035859195 0.00044622595 -6.247087e-20)
(-0.0036249087 0.00043131093 -3.9744551e-20)
(-0.0036606771 0.00041640304 -8.0996552e-20)
(-0.0036932481 0.00040152389 2.2480319e-20)
(-0.0037226504 0.00038669457 8.6827319e-20)
(-0.0037489175 0.00037193555 -9.8775319e-20)
(-0.0037720874 0.00035726664 -6.1850837e-20)
(-0.0037922028 0.00034270693 -3.1682767e-20)
(-0.0038093107 0.00032827475 -9.7687529e-20)
(-0.0038234618 0.00031398763 -1.3523457e-20)
(-0.0038347109 0.00029986225 -1.8002369e-20)
(-0.0038431161 0.00028591441 4.2843964e-20)
(-0.0038487388 0.00027215903 5.7720982e-20)
(-0.0038516433 0.00025861009 -7.0969986e-20)
(-0.0038518968 0.00024528061 -1.7171911e-20)
(-0.0038495689 0.00023218266 -1.7160879e-22)
(-0.0038447312 0.00021932737 -1.0035725e-20)
(-0.0038374575 0.00020672488 -5.7072685e-21)
(-0.0038278231 0.00019438438 -9.8357897e-20)
(-0.0038159048 0.00018231408 -9.2622492e-20)
(-0.0038017806 0.00017052127 -1.4532526e-20)
(-0.0037855293 0.00015901226 -2.4338494e-20)
(-0.0037672304 0.0001477925 2.8979995e-20)
(-0.0037469639 0.00013686649 1.181244e-19)
(-0.0037248101 0.0001262379 6.662125e-20)
(-0.0037008493 0.00011590951 1.4002213e-21)
(-0.0036751615 0.00010588333 -6.2839016e-20)
(-0.0036478265 9.6160549e-05 -8.3825087e-20)
(-0.0036189234 8.6741633e-05 -9.845095e-21)
(-0.0035885308 7.7626332e-05 -6.6016523e-21)
(-0.0035567261 6.8813716e-05 -9.2987611e-20)
(-0.003523586 6.0302237e-05 -3.8834241e-20)
(-0.0034891859 5.2089749e-05 3.3347773e-20)
(-0.0034535998 4.4173565e-05 6.995625e-20)
(-0.0034169004 3.6550489e-05 9.8124232e-21)
(-0.0033791588 2.921681e-05 -5.920861e-20)
(-0.0033404444 2.2168334e-05 -1.961725e-20)
(-0.0033008245 1.5400553e-05 -3.3679566e-20)
(-0.0032603638 8.909286e-06 -6.5102548e-20)
(-0.0032191243 2.6935122e-06 -1.276194e-19)
(-0.0031771654 -3.2435531e-06 -1.3682855e-19)
(-0.0031345581 -8.9138803e-06 -3.2855565e-20)
(-8.6249408e-05 0.0010454753 -1.0415268e-18)
(-0.00019708183 0.0010466057 -5.631951e-19)
(-0.00032291326 0.0010469953 -5.2324977e-19)
(-0.00044412033 0.0010467003 -3.6331862e-19)
(-0.00056862941 0.0010452691 -4.3773218e-19)
(-0.00069247502 0.0010426644 -2.8186279e-19)
(-0.00081548177 0.0010389754 -1.225623e-19)
(-0.00093763223 0.0010342848 -4.6413395e-20)
(-0.0010588138 0.0010286624 -4.2807066e-20)
(-0.0011788719 0.0010221636 1.1981983e-19)
(-0.0012976529 0.0010148317 1.003679e-19)
(-0.0014150086 0.0010067023 9.9422245e-20)
(-0.0015307959 0.00099780515 1.0436821e-19)
(-0.0016448766 0.00098816684 2.4128048e-19)
(-0.0017571179 0.00097781197 2.0936684e-19)
(-0.0018673923 0.00096676414 -6.88631e-20)
(-0.0019755772 0.00095504659 1.7491588e-19)
(-0.0020815555 0.00094268267 1.8918603e-19)
(-0.0021852153 0.00092969609 1.3031434e-19)
(-0.00228645 0.00091611109 6.5401861e-20)
(-0.0023851582 0.00090195256 -3.6994852e-20)
(-0.0024812444 0.00088724607 -1.1557337e-19)
(-0.0025746184 0.00087201791 -5.5105767e-20)
(-0.0026651959 0.00085629496 1.1809507e-19)
(-0.0027528985 0.0008401047 1.0987499e-19)
(-0.0028376543 0.00082347534 9.3625662e-20)
(-0.002919397 0.00080643595 -2.3245399e-20)
(-0.0029980669 0.00078901633 -1.0270843e-19)
(-0.0030736101 0.00077124679 -3.3807175e-20)
(-0.0031459786 0.00075315793 8.9201108e-20)
(-0.0032151312 0.00073478068 -3.9121409e-21)
(-0.0032810326 0.0007161461 -2.4121835e-21)
(-0.0033436541 0.00069728542 9.2102305e-20)
(-0.0034029731 0.00067822984 1.6279584e-19)
(-0.0034589734 0.00065901053 1.9814445e-19)
(-0.0035116452 0.00063965854 -3.8873902e-20)
(-0.0035609844 0.00062020465 1.3106492e-20)
(-0.0036069933 0.00060067937 -4.4349711e-21)
(-0.0036496799 0.00058111277 1.9771442e-20)
(-0.003689058 0.00056153443 3.7017333e-20)
(-0.0037251471 0.00054197334 -1.2202467e-19)
(-0.0037579718 0.00052245783 -7.9329584e-20)
(-0.0037875624 0.00050301546 1.3998166e-19)
(-0.0038139537 0.00048367296 1.7023492e-19)
(-0.0038371857 0.00046445618 2.3435808e-20)
(-0.0038573028 0.00044538996 2.425046e-20)
(-0.0038743537 0.00042649815 -5.8488422e-20)
(-0.0038883913 0.00040780351 6.581364e-20)
(-0.0038994723 0.00038932764 1.2393503e-19)
(-0.0039076569 0.00037109101 -1.4553564e-20)
(-0.0039130087 0.00035311287 -4.2272318e-20)
(-0.0039155942 0.00033541125 -6.659233e-20)
(-0.0039154827 0.00031800293 -7.445221e-21)
(-0.0039127461 0.00030090339 -2.0926676e-20)
(-0.0039074583 0.00028412688 -4.7469984e-20)
(-0.0038996953 0.00026768636 1.8334547e-20)
(-0.0038895347 0.00025159354 -2.6534341e-20)
(-0.0038770554 0.00023585883 -4.4562625e-20)
(-0.0038623378 0.00022049145 -1.2930289e-20)
(-0.0038454627 0.00020549934 5.2072118e-21)
(-0.0038265119 0.00019088929 2.2838157e-21)
(-0.0038055676 0.00017666691 2.9385302e-20)
(-0.003782712 0.00016283666 8.9876918e-20)
(-0.0037580274 0.00014940191 1.1724262e-19)
(-0.0037315959 0.000136365 1.9739947e-20)
(-0.0037034992 0.00012372722 -4.3222853e-20)
(-0.0036738182 0.00011148894 4.682362e-21)
(-0.0036426332 9.9649573e-05 -6.8486183e-20)
(-0.0036100235 8.8207706e-05 -1.5866024e-19)
(-0.0035760673 7.7161095e-05 -2.9155036e-20)
(-0.0035408415 6.6506742e-05 6.4707699e-20)
(-0.0035044216 5.624095e-05 2.9921651e-20)
(-0.0034668815 4.6359358e-05 -4.1491117e-20)
(-0.0034282935 3.6856972e-05 2.2993076e-20)
(-0.0033887283 2.77282e-05 7.8210489e-20)
(-0.0033482543 1.8967016e-05 -3.5697772e-20)
(-0.0033069381 1.0567396e-05 -5.7318873e-20)
(-0.0032648448 2.5242795e-06 -1.2312946e-19)
(-0.0032220365 -5.1664171e-06 -1.3052655e-19)
(-0.00317858 -1.2521267e-05 -4.2927881e-21)
(-8.6811012e-05 0.0013007839 -1.0830975e-18)
(-0.00019873275 0.0013011931 -3.8484041e-19)
(-0.00032600351 0.0013007925 -5.8121313e-19)
(-0.00044867316 0.0012995523 -9.2385292e-19)
(-0.00057476438 0.0012971261 -6.5603503e-19)
(-0.00070017756 0.0012934507 -3.8577495e-20)
(-0.000824716 0.0012885677 -1.0455219e-19)
(-0.00094835704 0.0012825297 -1.5627367e-19)
(-0.0010709893 0.001275389 1.458346e-19)
(-0.001192461 0.0012671921 1.2719586e-19)
(-0.0013126211 0.0012579793 -1.5383317e-20)
(-0.0014313231 0.0012477863 -3.1859721e-20)
(-0.0015484244 0.0012366452 -1.3548002e-19)
(-0.001663787 0.0012245862 5.7032276e-20)
(-0.0017772774 0.0012116381 2.1553823e-19)
(-0.0018887669 0.0011978294 -5.3593903e-20)
(-0.001998132 0.0011831888 -1.3677467e-20)
(-0.0021052541 0.0011677451 5.2743711e-21)
(-0.0022100197 0.0011515279 2.92214e-20)
(-0.0023123207 0.0011345678 2.1060856e-19)
(-0.0024120547 0.0011168958 1.7526835e-19)
(-0.0025091243 0.0010985443 8.5954156e-20)
(-0.0026034385 0.0010795463 5.7770603e-20)
(-0.0026949115 0.0010599358 2.0201409e-19)
(-0.0027834641 0.0010397475 1.1857075e-19)
(-0.0028690228 0.0010190171 -1.2336897e-20)
(-0.0029515208 0.00099778114 -9.2271141e-21)
(-0.0030308973 0.00097607685 -2.3330074e-20)
(-0.0031070975 0.00095394216 3.2376593e-20)
(-0.0031800735 0.00093141539 1.3245301e-19)
(-0.0032497833 0.00090853526 1.1430758e-19)
(-0.0033161917 0.00088534066 1.5299705e-19)
(-0.0033792698 0.00086187065 1.9890826e-19)
(-0.0034389951 0.00083816429 1.3012031e-19)
(-0.0034953517 0.00081426053 2.3809453e-20)
(-0.0035483299 0.00079019815 -9.7309934e-20)
(-0.0035979263 0.00076601557 2.6122036e-20)
(-0.0036441437 0.00074175081 1.8154136e-20)
(-0.0036869907 0.00071744133 -2.5369047e-20)
(-0.0037264822 0.00069312393 5.3860541e-20)
(-0.0037626383 0.00066883465 4.3218502e-20)
(-0.003795485 0.00064460865 1.7048816e-20)
(-0.0038250535 0.00062048014 -5.0982554e-20)
(-0.00385138 0.00059648224 8.1182707e-20)
(-0.003874506 0.00057264693 8.998234e-20)
(-0.0038944771 0.00054900496 1.0381921e-19)
(-0.0039113438 0.00052558579 9.8635748e-20)
(-0.0039251604 0.00050241749 2.5127028e-20)
(-0.0039359852 0.00047952671 6.4887393e-21)
(-0.0039438802 0.00045693865 -1.5995642e-20)
(-0.0039489108 0.00043467696 8.6837402e-21)
(-0.0039511451 0.00041276379 -6.065077e-20)
(-0.0039506543 0.00039121968 -6.8481722e-20)
(-0.0039475121 0.00037006362 -3.6964877e-20)
(-0.0039417942 0.000349313 -1.1420786e-19)
(-0.0039335783 0.0003289836 -4.4767028e-20)
(-0.003922944 0.00030908965 6.5087274e-20)
(-0.0039099719 0.0002896438 6.7478507e-20)
(-0.0038947439 0.00027065715 1.8322352e-20)
(-0.0038773429 0.0002521393 1.1274879e-20)
(-0.0038578523 0.00023409833 -3.9490274e-20)
(-0.0038363558 0.00021654091 -5.2083403e-20)
(-0.0038129373 0.00019947229 -2.0189457e-20)
(-0.0037876806 0.00018289638 1.0896642e-19)
(-0.0037606694 0.00016681577 1.0157039e-19)
(-0.0037319867 0.00015123182 2.1459091e-21)
(-0.003701715 0.00013614469 -1.9620275e-20)
(-0.0036699357 0.00012155341 -5.9276896e-20)
(-0.0036367294 0.00010745597 -1.0081768e-19)
(-0.0036021755 9.3849329e-05 -2.4782103e-20)
(-0.0035663521 8.0729501e-05 3.173916e-20)
(-0.0035293358 6.8091616e-05 1.6391704e-21)
(-0.0034912016 5.5929966e-05 -3.4304485e-20)
(-0.0034520229 4.4238057e-05 -1.9903457e-20)
(-0.0034118713 3.3008648e-05 2.0554153e-20)
(-0.003370816 2.2233898e-05 -1.1574352e-21)
(-0.0033289224 1.1905607e-05 -4.907059e-21)
(-0.003286252 2.0157431e-06 -1.0864707e-19)
(-0.0032428745 -7.4423144e-06 -9.2380447e-20)
(-0.0031988622 -1.6484434e-05 -2.8403545e-20)
(-8.7383674e-05 0.0015577728 -1.3645443e-18)
(-0.00020023212 0.001557836 -9.7016464e-19)
(-0.00032868758 0.001556862 -6.6540076e-19)
(-0.00045258346 0.001554854 -7.0195408e-19)
(-0.00058000539 0.0015515225 -5.9875427e-19)
(-0.00070675695 0.0015468033 -4.1954467e-19)
(-0.00083261825 0.0015407216 -1.5191471e-19)
(-0.00095755651 0.0015333165 -1.4501741e-19)
(-0.0010814566 0.001524631 -5.0652979e-21)
(-0.001204166 0.0015147064 7.5890726e-20)
(-0.0013255337 0.0015035815 -3.2698383e-21)
(-0.0014454136 0.0014912924 -4.4241982e-20)
(-0.001563663 0.0014778737 -2.8982624e-19)
(-0.0016801434 0.0014633587 -1.5127171e-19)
(-0.0017947208 0.0014477806 -1.4264498e-20)
(-0.0019072655 0.0014311725 -9.0885399e-20)
(-0.0020176526 0.0014135682 1.4820758e-20)
(-0.0021257625 0.0013950023 -1.0307529e-20)
(-0.0022314802 0.0013755101 -9.3092416e-20)
(-0.0023346965 0.0013551284 6.1967128e-20)
(-0.0024353072 0.0013338947 1.5091622e-19)
(-0.0025332142 0.0013118479 -1.7499768e-20)
(-0.0026283246 0.0012890281 5.1516198e-20)
(-0.0027205521 0.0012654762 3.410878e-19)
(-0.0028098159 0.0012412345 2.9934764e-19)
(-0.0028960418 0.0012163461 -9.2555416e-20)
(-0.0029791618 0.0011908551 -9.3990033e-20)
(-0.0030591144 0.0011648065 -9.590339e-20)
(-0.0031358442 0.0011382459 -3.8705756e-21)
(-0.0032093027 0.0011112195 8.2513942e-20)
(-0.0032794478 0.0010837739 2.841541e-21)
(-0.0033462438 0.0010559561 9.6562457e-20)
(-0.0034096619 0.0010278132 1.0844976e-19)
(-0.0034696797 0.00099939207 -9.6577257e-20)
(-0.0035262815 0.00097073974 -1.1992813e-19)
(-0.0035794578 0.00094190284 -5.5005273e-20)
(-0.0036292059 0.00091292761 4.6774961e-20)
(-0.0036755289 0.00088385973 -4.792916e-20)
(-0.0037184365 0.0008547442 -2.2389016e-19)
(-0.0037579442 0.0008256252 -1.9318756e-19)
(-0.0037940733 0.00079654596 -5.8087866e-20)
(-0.0038268508 0.00076754864 1.104402e-19)
(-0.0038563091 0.0007386742 -9.1175717e-21)
(-0.0038824858 0.0007099623 -1.076849e-19)
(-0.0039054237 0.00068145119 5.7609296e-21)
(-0.0039251701 0.00065317761 1.4452546e-19)
(-0.0039417769 0.00062517673 1.8755597e-19)
(-0.0039553001 0.00059748204 -3.4799627e-20)
(-0.0039657999 0.00057012532 -1.1603236e-19)
(-0.0039733398 0.00054313654 7.9021253e-21)
(-0.0039779871 0.00051654386 -3.3250563e-20)
(-0.0039798118 0.00049037355 -1.9152046e-20)
(-0.0039788868 0.00046465001 -5.6198255e-20)
(-0.0039752878 0.00043939572 -1.2077608e-19)
(-0.0039690923 0.00041463124 -8.8563088e-20)
(-0.00396038 0.00039037521 -6.3587787e-20)
(-0.003949232 0.00036664437 7.3436423e-21)
(-0.0039357311 0.00034345358 -4.2389655e-20)
(-0.0039199608 0.00032081585 -5.8311348e-20)
(-0.0039020059 0.00029874237 -2.6934659e-21)
(-0.0038819513 0.00027724251 -9.1585159e-21)
(-0.0038598825 0.00025632397 2.1714092e-20)
(-0.003835885 0.00023599275 -6.6724973e-20)
(-0.0038100443 0.00021625321 -3.5175877e-20)
(-0.0037824454 0.00019710818 8.0059216e-20)
(-0.0037531728 0.00017855902 -1.7509536e-20)
(-0.0037223102 0.00016060563 -7.2573418e-22)
(-0.0036899406 0.00014324661 -4.2165216e-20)
(-0.0036561456 0.00012647929 -7.4024403e-20)
(-0.0036210058 0.00011029981 -9.1508299e-21)
(-0.0035846004 9.4703193e-05 1.0976573e-21)
(-0.003547007 7.9683429e-05 -2.9695644e-21)
(-0.0035083015 6.5233568e-05 2.1239438e-20)
(-0.0034685582 5.1345777e-05 2.5900944e-20)
(-0.0034278495 3.8011423e-05 -1.0281781e-20)
(-0.0033862453 2.5221104e-05 -3.4102508e-20)
(-0.0033438124 1.2964632e-05 -3.109647e-20)
(-0.0033006139 1.2295078e-06 -1.0277914e-19)
(-0.0032567205 -9.9977284e-06 -1.1532157e-19)
(-0.0032122011 -2.0729376e-05 -4.7745764e-20)
(-8.8121554e-05 0.0018167612 -1.8257579e-18)
(-0.00020201291 0.0018166577 -1.4442746e-18)
(-0.00033172793 0.001815248 -5.7434664e-19)
(-0.00045690287 0.0018125943 -3.322039e-19)
(-0.00058569229 0.0018084288 -3.2767313e-19)
(-0.00071382394 0.0018026946 -3.3670991e-19)
(-0.00084105862 0.001795417 1.5931768e-20)
(-0.00096735324 0.0017866322 6.1833762e-20)
(-0.0010925868 0.0017763802 1.4139786e-19)
(-0.0012166033 0.0017647012 2.4565236e-19)
(-0.0013392502 0.0017516339 3.3275569e-19)
(-0.0014603797 0.001737216 2.4744171e-19)
(-0.0015798483 0.0017214845 -1.0220679e-20)
(-0.0016975162 0.0017044763 8.8403321e-20)
(-0.0018132481 0.0016862287 1.0532356e-19)
(-0.0019269128 0.0016667796 -1.5771488e-19)