/*--------------------------------*- C++ -*----------------------------------*\
| =========                 |                                                 |
| \\      /  F ield         | OpenFOAM: The Open Source CFD Toolbox           |
|  \\    /   O peration     | Version:  2106                                  |
|   \\  /    A nd           | Website:  www.openfoam.com                      |
|    \\/     M anipulation  |                                                 |
\*---------------------------------------------------------------------------*/
FoamFile
{
    version     2.0;
    format      ascii;
    arch        "LSB;label=32;scalar=64";
    class       volScalarField;
    location    "0.044";
    object      reconstructedDistanceFunction;
}
// * * * * * * * * * * * * * * * * * * * * * * * * * * * * * * * * * * * * * //

dimensions      [0 1 0 0 0 0 0];

internalField   nonuniform List<scalar> 
1024
(
0
0
0
0
0
0
0
0
0
0
0
0
0
0
0
0
0
0
0
0
0
0
0
0
0
0
0
0
0
0
0
0
0
0
0
0
0
0
0
0
0
0
0
0
0
0
0
0
0
0
0
0
0
0
0
0
0
0
0
0
0
0
0
0
0
0
0
0
0
0
0
0
0
0
0
0
0
0
0
0
0
0
0
0
0
0
0
0
0
0
0
0
0
0
0
0
0
0
0
0
0
0
0
0
0
0
0
0
0
0
0
0
0
0
0
0
0
0
0
0
0
0
0
0
0
0
0
0
0
0
0
0
0
0
0
0
0
0
0
0
0
0
0
0
0
0
0
0
0
0
0
0
0
0
0
0
0
0
0
0
0
0
0
0
0
0
0
0
0
0
0
0
0
0
0
0
0
0
0
0
0
0
0
0
0
0
0
0
0
0
0
0
0
0
0
0
0
0
0
0
0
0
0
0
0
0
0
0
0
0
0
0
0
0
0
0
0
0
0
0
0
0
0
0
0
0
0
0
0
0
0
0
0
0
0
0
0
0
0
0
0
0
0
0
0
0
0
0
0
0
0
0
0
0
0
0
0
0
0
0
0
0
0
0
0
0
0
0
0
0
0
0
0
0
0
0
0
0
0
0
0
0
0
0
0
0
0
0
0
0
0
0
0
0
0
0
0
0
0
0
0
0
0
0
0
0
0
0
0
0
0
0
0
0
0
0
0
0
0
0
0
0
0
0
0
0
0
0
0
0
0
0
0
0
0
0
0
0
0
0
0
0
0
0
0
0
0
0
0
0
0
0
0
0
0
0
0
0
0
0
0
0
0
0
0
0
0
0
0
0
0
0
0
0
0
0
0
0
0
0
0
0
0
0
0.10912055
0.10913031
0.10914948
0.10917726
0.10921271
0.10925431
0.10930063
0.10934977
0.10939994
0.1094491
0.10949545
0
0
0
0
0
0
0
0
0
0
0.10949547
0.10944912
0.10939994
0.10934979
0.10930062
0.10925434
0.10921271
0.10917726
0.10914948
0.10913031
0.10912055
0.077870554
0.077880316
0.077899492
0.077927275
0.077962732
0.078004338
0.078050664
0.078099806
0.078149983
0.07819914
0.078245486
0.078287142
0.078322648
0.078350464
0.078369676
0.078379449
0.078379446
0.07836967
0.078350458
0.078322648
0.078287142
0.078245503
0.078199159
0.078149984
0.078099831
0.078050661
0.078004367
0.077962733
0.077927274
0.077899489
0.07788031
0.077870551
0.046620554
0.04663032
0.046649501
0.046677291
0.046712756
0.04675437
0.046800701
0.046849846
0.046900023
0.046949176
0.046995517
0.047037166
0.047072664
0.047100473
0.04711968
0.04712945
0.047129447
0.047119674
0.047100466
0.047072664
0.047037166
0.046995534
0.046949196
0.046900023
0.04684987
0.046800698
0.046754399
0.046712757
0.04667729
0.046649499
0.046630313
0.046620551
0.015370554
0.015380323
0.015399511
0.015427307
0.01546278
0.015504401
0.015550738
0.015599885
0.015650062
0.015699213
0.015745548
0.01578719
0.015822681
0.015850482
0.015869683
0.01587945
0.015879447
0.015869677
0.015850475
0.01582268
0.01578719
0.015745565
0.015699233
0.015650063
0.01559991
0.015550735
0.01550443
0.015462781
0.015427306
0.015399508
0.015380317
0.015370551
-0.015879446
-0.015869674
-0.01585048
-0.015822676
-0.015787196
-0.015745568
-0.015699225
-0.015650075
-0.015599898
-0.01555075
-0.01550442
-0.015462786
-0.015427303
-0.015399509
-0.015380314
-0.01537055
-0.015370552
-0.015380319
-0.015399516
-0.015427304
-0.015462786
-0.015504403
-0.01555073
-0.015599897
-0.01565005
-0.015699229
-0.015745539
-0.015787195
-0.015822678
-0.015850483
-0.01586968
-0.015879449
-0.047129446
-0.047119671
-0.047100471
-0.04707266
-0.047037172
-0.046995536
-0.046949189
-0.046900035
-0.046849858
-0.046800713
-0.046754389
-0.046712762
-0.046677287
-0.046649501
-0.04663031
-0.046620549
-0.046620552
-0.046630316
-0.046649507
-0.046677288
-0.046712762
-0.046754372
-0.046800693
-0.046849858
-0.046900011
-0.046949192
-0.046995507
-0.047037171
-0.047072661
-0.047100473
-0.047119677
-0.047129449
-0.078379446
-0.078369667
-0.078350462
-0.078322644
-0.078287148
-0.078245505
-0.078199152
-0.078149996
-0.078099819
-0.078050676
-0.078004358
-0.077962738
-0.077927271
-0.077899492
-0.077880307
-0.077870549
-0.077870552
-0.077880313
-0.077899498
-0.077927271
-0.077962738
-0.078004341
-0.078050657
-0.078099818
-0.078149971
-0.078199155
-0.078245476
-0.078287147
-0.078322645
-0.078350464
-0.078369674
-0.078379449
0
0
0
0
0
-0.10949547
-0.10944911
-0.10939996
-0.10934978
-0.10930064
-0.10925433
-0.10921271
-0.10917725
-0.10914948
-0.1091303
-0.10912055
-0.10912055
-0.10913031
-0.10914949
-0.10917726
-0.10921271
-0.10925431
-0.10930062
-0.10934978
-0.10939993
-0.10944912
-0.10949544
0
0
0
0
0
0
0
0
0
0
0
0
0
0
0
0
0
0
0
0
0
0
0
0
0
0
0
0
0
0
0
0
0
0
0
0
0
0
0
0
0
0
0
0
0
0
0
0
0
0
0
0
0
0
0
0
0
0
0
0
0
0
0
0
0
0
0
0
0
0
0
0
0
0
0
0
0
0
0
0
0
0
0
0
0
0
0
0
0
0
0
0
0
0
0
0
0
0
0
0
0
0
0
0
0
0
0
0
0
0
0
0
0
0
0
0
0
0
0
0
0
0
0
0
0
0
0
0
0
0
0
0
0
0
0
0
0
0
0
0
0
0
0
0
0
0
0
0
0
0
0
0
0
0
0
0
0
0
0
0
0
0
0
0
0
0
0
0
0
0
0
0
0
0
0
0
0
0
0
0
0
0
0
0
0
0
0
0
0
0
0
0
0
0
0
0
0
0
0
0
0
0
0
0
0
0
0
0
0
0
0
0
0
0
0
0
0
0
0
0
0
0
0
0
0
0
0
0
0
0
0
0
0
0
0
0
0
0
0
0
0
0
0
0
0
0
0
0
0
0
0
0
0
0
0
0
0
0
0
0
0
0
0
0
0
0
0
0
0
0
0
0
0
0
0
0
0
0
0
0
0
0
0
0
0
0
0
0
0
0
0
0
0
0
0
0
0
0
0
0
0
0
0
0
0
0
0
0
0
0
0
0
0
0
0
0
0
0
0
0
0
0
0
0
0
0
0
0
0
0
0
0
0
0
0
0
0
0
0
0
0
0
0
0
0
0
0
0
0
0
0
0
0
0
0
0
0
0
0
0
0
0
0
0
0
0
0
0
0
0
0
0
0
0
0
0
0
0
0
0
0
0
0
0
0
0
0
0
0
)
;

boundaryField
{
    leftWall
    {
        type            cyclic;
    }
    rightWall
    {
        type            cyclic;
    }
    lowerWall
    {
        type            calculated;
        value           uniform 0;
    }
    atmosphere
    {
        type            calculated;
        value           uniform 0;
    }
    defaultFaces
    {
        type            empty;
    }
}


// ************************************************************************* //
