/*--------------------------------*- C++ -*----------------------------------*\
| =========                 |                                                 |
| \\      /  F ield         | OpenFOAM: The Open Source CFD Toolbox           |
|  \\    /   O peration     | Version:  2106                                  |
|   \\  /    A nd           | Website:  www.openfoam.com                      |
|    \\/     M anipulation  |                                                 |
\*---------------------------------------------------------------------------*/
FoamFile
{
    version     2.0;
    format      ascii;
    arch        "LSB;label=32;scalar=64";
    class       volVectorField;
    location    "0.044";
    object      U;
}
// * * * * * * * * * * * * * * * * * * * * * * * * * * * * * * * * * * * * * //

dimensions      [0 1 -1 0 0 0 0];

internalField   nonuniform List<vector> 
1024
(
(0.0027391084 -0.0026869078 0)
(0.0081136987 -0.0025840771 0)
(0.013177726 -0.0023822943 0)
(0.017737205 -0.0020892001 0)
(0.021617264 -0.0017159086 0)
(0.024668813 -0.0012766012 0)
(0.026774269 -0.00078800548 0)
(0.027852118 -0.00026877628 0)
(0.027860057 0.00026121063 0)
(0.026797122 0.00078154216 0)
(0.024702959 0.0012722774 0)
(0.021657635 0.0017143456 0)
(0.017777731 0.0020906218 0)
(0.013212349 0.002386476 0)
(0.0081372749 0.0025903773 0)
(0.0027481857 0.0026943657 0)
(-0.0027469743 0.0026943777 0)
(-0.0081361122 0.0025904128 0)
(-0.01321128 0.0023865332 0)
(-0.017776799 0.0020906979 0)
(-0.021656873 0.0017144372 0)
(-0.024702396 0.0012723805 0)
(-0.026796776 0.00078165279 0)
(-0.02785994 0.00026132483 0)
(-0.027852233 -0.0002686623 0)
(-0.026774612 -0.00078789548 0)
(-0.024669372 -0.0012764989 0)
(-0.021618019 -0.001715818 0)
(-0.017738129 -0.0020891248 0)
(-0.013178784 -0.0023822377 0)
(-0.0081148505 -0.002584042 0)
(-0.0027403083 -0.0026868959 0)
(0.0028883206 -0.0081773258 0)
(0.0085556816 -0.0078643766 0)
(0.01389556 -0.0072502815 0)
(0.018703408 -0.006358294 0)
(0.022794833 -0.0052222367 0)
(0.026012632 -0.0038852675 0)
(0.028232826 -0.0023982932 0)
(0.029369462 -0.0008180856 0)
(0.029377982 0.00079483649 0)
(0.02825714 0.0023785494 0)
(0.026049044 0.0038720222 0)
(0.022837878 0.0052174486 0)
(0.018746619 0.0063626567 0)
(0.013932472 0.0072631055 0)
(0.0085808082 0.0078836939 0)
(0.0028979803 0.0082001914 0)
(-0.0028967114 0.0082002281 0)
(-0.0085795907 0.0078838022 0)
(-0.013931355 0.0072632798 0)
(-0.018745644 0.0063628884 0)
(-0.022837083 0.005217727 0)
(-0.026048456 0.0038723353 0)
(-0.02825678 0.002378885 0)
(-0.02937786 0.00079518279 0)
(-0.029369582 -0.00081774003 0)
(-0.028233184 -0.0023979595 0)
(-0.026013215 -0.0038849572 0)
(-0.022795621 -0.0052219613 0)
(-0.018704374 -0.0063580649 0)
(-0.013896668 -0.0072501092 0)
(-0.0085568877 -0.0078642695 0)
(-0.0028895777 -0.0081772895 0)
(0.0031435495 -0.014095606 0)
(0.0093116746 -0.013556147 0)
(0.015123308 -0.01249758 0)
(0.0203558 -0.01096 0)
(0.024808468 -0.0090017185 0)
(0.028310251 -0.0066971381 0)
(0.030726268 -0.0041340104 0)
(0.03196303 -0.0014101838 0)
(0.03197211 0.0013700537 0)
(0.030752141 0.0040999352 0)
(0.028349011 0.0066742617 0)
(0.024854284 0.008993455 0)
(0.020401792 0.010967548 0)
(0.015162597 0.012519745 0)
(0.0093384247 0.013589526 0)
(0.0031538457 0.014135113 0)
(-0.0031524762 0.014135176 0)
(-0.0093371118 0.013589713 0)
(-0.015161393 0.012520046 0)
(-0.020400744 0.010967947 0)
(-0.024853432 0.0089939336 0)
(-0.028348383 0.0066747988 0)
(-0.030751757 0.0041005098 0)
(-0.031971981 0.0013706457 0)
(-0.031963159 -0.0014095932 0)
(-0.03072665 -0.0041334396 0)
(-0.028310875 -0.006696606 0)
(-0.024809313 -0.0090012451 0)
(-0.020356838 -0.010959605 0)
(-0.015124501 -0.012497283 0)
(-0.0093129754 -0.013555961 0)
(-0.0031449064 -0.014095543 0)
(0.0035215761 -0.020627708 0)
(0.010431378 -0.01983817 0)
(0.016941657 -0.0182889 0)
(0.022802931 -0.016038614 0)
(0.027790385 -0.013172698 0)
(0.031712453 -0.0098000791 0)
(0.034418152 -0.0060492015 0)
(0.035802891 -0.0020632524 0)
(0.035812546 0.0020051879 0)
(0.034445659 0.0059999057 0)
(0.031753659 0.0097669841 0)
(0.027839086 0.013160752 0)
(0.022851818 0.01604955 0)
(0.016983428 0.018320986 0)
(0.010459839 0.019886481 0)
(0.003532574 0.020684884 0)
(-0.0035310514 0.020684978 0)
(-0.010458381 0.019886756 0)
(-0.016982095 0.018321428 0)
(-0.022850663 0.016050136 0)
(-0.027838151 0.013161452 0)
(-0.031752973 0.0097677658 0)
(-0.034445242 0.0060007389 0)
(-0.035812408 0.0020060443 0)
(-0.035803032 -0.0020623983 0)
(-0.034418569 -0.0060483746 0)
(-0.031713135 -0.0097993058 0)
(-0.027791313 -0.013172007 0)
(-0.022804076 -0.016038035 0)
(-0.016942978 -0.018288463 0)
(-0.010432822 -0.019837897 0)
(-0.003523085 -0.020627615 0)
(0.0040506941 -0.028038908 0)
(0.011998582 -0.026965489 0)
(0.019486637 -0.024859222 0)
(0.026227788 -0.021800018 0)
(0.031963445 -0.017904064 0)
(0.036473376 -0.013319536 0)
(0.039584122 -0.0082210956 0)
(0.041175627 -0.0028033753 0)
(0.041185855 0.0027262901 0)
(0.039613259 0.0081556612 0)
(0.036517016 0.013275617 0)
(0.032015015 0.017888228 0)
(0.026279554 0.021814557 0)
(0.019530883 0.024901827 0)
(0.01202877 0.027029623 0)
(0.0040624407 0.028114808 0)
(-0.0040607024 0.028114937 0)
(-0.012027109 0.027030002 0)
(-0.01952937 0.024902434 0)
(-0.02627825 0.021815357 0)
(-0.032013966 0.017889179 0)
(-0.036516255 0.013276673 0)
(-0.0396128 0.0081567807 0)
(-0.041185705 0.0027274364 0)
(-0.041175785 -0.002802233 0)
(-0.039584585 -0.0082199865 0)
(-0.036474135 -0.013318493 0)
(-0.031964485 -0.017903127 0)
(-0.02622908 -0.021799229 0)
(-0.019488136 -0.024858622 0)
(-0.012000228 -0.026965114 0)
(-0.0040524175 -0.02803878 0)
(0.0047771931 -0.036664561 0)
(0.014150366 -0.0352605 0)
(0.022980786 -0.03250554 0)
(0.030929726 -0.028504375 0)
(0.037692224 -0.023409177 0)
(0.043008738 -0.017413935 0)
(0.046675041 -0.010747184 0)
(0.048549947 -0.0036634372 0)
(0.04856065 0.0035663164 0)
(0.046705525 0.01066476 0)
(0.043054383 0.017358639 0)
(0.037746147 0.023389275 0)
(0.030983852 0.028522734 0)
(0.023027074 0.032559237 0)
(0.014182016 0.035341298 0)
(0.0047896446 0.036760174 0)
(-0.0047876152 0.036760347 0)
(-0.014180082 0.035341802 0)
(-0.023025322 0.032560041 0)
(-0.030982353 0.028523789 0)
(-0.037744956 0.02339052 0)
(-0.043053529 0.017360011 0)
(-0.046705019 0.010666201 0)
(-0.048560489 0.0035677834 0)
(-0.048550126 -0.0036619769 0)
(-0.046675558 -0.01074576 0)
(-0.043009592 -0.017412584 0)
(-0.037693406 -0.023407952 0)
(-0.030931208 -0.028503334 0)
(-0.02298252 -0.032504743 0)
(-0.014152283 -0.035259999 0)
(-0.0047792066 -0.036664389 0)
(0.0057716121 -0.046952194 0)
(0.017095625 -0.045153406 0)
(0.027763229 -0.041624104 0)
(0.037364944 -0.036498722 0)
(0.045532321 -0.029972561 0)
(0.051952066 -0.022294456 0)
(0.056377952 -0.013757339 0)
(0.058640021 -0.0046871419 0)
(0.058650859 0.0045693476 0)
(0.056408809 0.013657404 0)
(0.051998244 0.02222747 0)
(0.045586847 0.029948525 0)
(0.037419669 0.036521076 0)
(0.027810075 0.041689276 0)
(0.01712777 0.045251404 0)
(0.0057844915 0.047068145 0)
(-0.0057820767 0.047068372 0)
(-0.017125478 0.045252066 0)
(-0.027808012 0.041690327 0)
(-0.037417925 0.036522444 0)
(-0.045585481 0.029950125 0)
(-0.051997286 0.022229212 0)
(-0.056408256 0.013659211 0)
(-0.058650691 0.004571169 0)
(-0.058640224 -0.0046853325 0)
(-0.056378527 -0.013755562 0)
(-0.051953026 -0.022292749 0)
(-0.045533673 -0.029970991 0)
(-0.037366666 -0.036497371 0)
(-0.02776527 -0.04162306 0)
(-0.017097898 -0.045152745 0)
(-0.005774011 -0.046951967 0)
(0.007125708 -0.059515095 0)
(0.021106096 -0.057233729 0)
(0.034275144 -0.052757865 0)
(0.046126952 -0.046258507 0)
(0.056206599 -0.037983926 0)
(0.064127617 -0.028250242 0)
(0.069586706 -0.017429244 0)
(0.072374892 -0.0059340944 0)
(0.072385047 0.0057960253 0)
(0.069615606 0.01731217 0)
(0.064170828 0.028171873 0)
(0.056257576 0.037955944 0)
(0.046178115 0.04628487 0)
(0.034319027 0.052834341 0)
(0.021136419 0.057348604 0)
(0.0071382813 0.059650981 0)
(-0.0071353601 0.059651279 0)
(-0.021133658 0.057349469 0)
(-0.034316564 0.052835709 0)
(-0.046176065 0.046286637 0)
(-0.056256008 0.037957983 0)
(-0.064169764 0.028174057 0)
(-0.069615019 0.017314394 0)
(-0.072384885 0.0057982308 0)
(-0.072375119 -0.0059319106 0)
(-0.06958733 -0.017427074 0)
(-0.064128683 -0.028248115 0)
(-0.056208144 -0.037981931 0)
(-0.046128968 -0.046256763 0)
(-0.034277575 -0.052756501 0)
(-0.021108835 -0.057232859 0)
(-0.0071286164 -0.059514793 0)
(0.0089260736 -0.075164103 0)
(0.026438261 -0.072280889 0)
(0.042932997 -0.066624662 0)
(0.057776132 -0.058412301 0)
(0.070397704 -0.047958418 0)
(0.080313879 -0.035663364 0)
(0.087145509 -0.021997504 0)
(0.090631855 -0.0074827031 0)
(0.090639775 0.0073269472 0)
(0.087168038 0.021865535 0)
(0.080347526 0.035575202 0)
(0.070437345 0.04792716 0)
(0.057815953 0.058442279 0)
(0.042967348 0.06671104 0)
(0.02646242 0.072410452 0)
(0.0089369228 0.075317309 0)
(-0.0089333354 0.075317701 0)
(-0.026459048 0.072411587 0)
(-0.042964374 0.066712828 0)
(-0.057813527 0.058444569 0)
(-0.070435554 0.04792976 0)
(-0.080346376 0.035577925 0)
(-0.08716746 0.021868231 0)
(-0.090639649 0.0073295504 0)
(-0.0906321 -0.0074801402 0)
(-0.087146151 -0.021994906 0)
(-0.080315028 -0.035660736 0)
(-0.070399453 -0.047955889 0)
(-0.0577785 -0.05841004 0)
(-0.042935925 -0.066622867 0)
(-0.02644161 -0.072279735 0)
(-0.0089296582 -0.0751637 0)
(0.011187464 -0.094855574 0)
(0.033135951 -0.091214247 0)
(0.053808176 -0.084071314 0)
(0.072408916 -0.07370172 0)
(0.088223582 -0.060503849 0)
(0.10064575 -0.044984493 0)
(0.10920079 -0.027738606 0)
(0.11356279 -0.0094249579 0)
(0.11356611 0.0092578523 0)
(0.10921026 0.027597165 0)
(0.10065996 0.044890253 0)
(0.088240342 0.060470701 0)
(0.072425939 0.073734099 0)
(0.053823381 0.084163981 0)
(0.033147606 0.091353043 0)
(0.011194508 0.09501963 0)
(-0.011190039 0.095020149 0)
(-0.033143428 0.091354543 0)
(-0.053819741 0.08416634 0)
(-0.072423055 0.073737097 0)
(-0.088238321 0.060474038 0)
(-0.10065878 0.044893649 0)
(-0.10920979 0.027600395 0)
(-0.11356609 0.0092608253 0)
(-0.11356303 -0.0094220629 0)
(-0.10920136 -0.027735559 0)
(-0.10064691 -0.044981256 0)
(-0.088225523 -0.060500625 0)
(-0.072411695 -0.073698754 0)
(-0.05381174 -0.084068916 0)
(-0.033140108 -0.091212694 0)
(-0.011191955 -0.094855027 0)
(0.013734992 -0.11945906 0)
(0.040681572 -0.11486992 0)
(0.066060854 -0.10586832 0)
(0.088896398 -0.092802011 0)
(0.10831054 -0.076173973 0)
(0.12355797 -0.05662417 0)
(0.13405568 -0.034904086 0)
(0.13940359 -0.011843967 0)
(0.13939961 0.011676833 0)
(0.13404454 0.034762686 0)
(0.12354197 0.056530075 0)
(0.10829218 0.076140871 0)
(0.088878763 0.092834124 0)
(0.066047138 0.10596047 0)
(0.040674347 0.11500799 0)
(0.013736198 0.11962222 0)
(-0.013730546 0.11962292 0)
(-0.040669086 0.11500999 0)
(-0.066042615 0.10596363 0)
(-0.088875315 0.092838122 0)
(-0.10828996 0.076145215 0)
(-0.12354091 0.056534337 0)
(-0.1340444 0.034766514 0)
(-0.13939983 0.011680054 0)
(-0.13940377 -0.011840905 0)
(-0.134056 -0.034900606 0)
(-0.12355897 -0.05662017 0)
(-0.10831261 -0.076169822 0)
(-0.088899647 -0.092798044 0)
(-0.066065247 -0.10586505 0)
(-0.040686818 -0.1148678 0)
(-0.013740718 -0.1194583 0)
(0.016050792 -0.14923909 0)
(0.047542148 -0.14350294 0)
(0.077202993 -0.13225177 0)
(0.10389282 -0.11592169 0)
(0.12658581 -0.095141533 0)
(0.14440855 -0.07071224 0)
(0.15667718 -0.043574065 0)
(0.16292208 -0.014765212 0)
(0.16290914 0.014612496 0)
(0.15664069 0.043442589 0)
(0.14435694 0.070623301 0)
(0.12652752 0.095108951 0)
(0.10383678 0.11594845 0)
(0.077157796 0.13233323 0)
(0.047514603 0.14362618 0)
(0.01604597 0.14938493 0)
(-0.016038692 0.14938585 0)
(-0.047507846 0.14362886 0)
(-0.077152056 0.13233753 0)
(-0.10383264 0.11595393 0)
(-0.12652522 0.095114734 0)
(-0.14435634 0.070628716 0)
(-0.15664137 0.043447091 0)
(-0.16290997 0.01461564 0)
(-0.16292205 -0.014762416 0)
(-0.15667675 -0.043570232 0)
(-0.14440901 -0.070707249 0)
(-0.12658781 -0.09513611 0)
(-0.10389656 -0.11591623 0)
(-0.077208499 -0.1322472 0)
(-0.047548918 -0.1435 0)
(-0.016058255 -0.14923803 0)
(0.017160882 -0.18301568 0)
(0.050834518 -0.17598069 0)
(0.082554323 -0.16218065 0)
(0.1111023 -0.14215203 0)
(0.13538198 -0.11666349 0)
(0.15445282 -0.086694163 0)
(0.16757971 -0.053405723 0)
(0.17426298 -0.018074843 0)
(0.17424444 0.017950714 0)
(0.16752864 0.053299491 0)
(0.15437978 0.08661899 0)
(0.13529976 0.11663043 0)
(0.11102451 0.1421665 0)
(0.082492404 0.16224046 0)
(0.050796861 0.17607537 0)
(0.017154163 0.18312861 0)
(-0.017144575 0.18312985 0)
(-0.050787963 0.17607897 0)
(-0.082484931 0.16224642 0)
(-0.11101962 0.14217432 0)
(-0.13529791 0.11663839 0)
(-0.15438053 0.086625987 0)
(-0.16753134 0.053304776 0)
(-0.17424671 0.017953001 0)
(-0.1742623 -0.018073361 0)
(-0.16757733 -0.053401736 0)
(-0.15445176 -0.086687804 0)
(-0.13538326 -0.11665627 0)
(-0.11110633 -0.14214419 0)
(-0.082561354 -0.16217403 0)
(-0.05084352 -0.17597654 0)
(-0.017170904 -0.18301418 0)
(0.015738579 -0.21718719 0)
(0.046632671 -0.20884433 0)
(0.075741 -0.19247138 0)
(0.10194814 -0.16870926 0)
(0.12425119 -0.13846315 0)
(0.14177776 -0.10288774 0)
(0.15384396 -0.063371108 0)
(0.15998646 -0.021427818 0)
(0.15996623 0.021336314 0)
(0.15379176 0.06328479 0)
(0.14170779 0.10282133 0)
(0.1241786 0.13842636 0)
(0.10188536 0.16870574 0)
(0.075694871 0.19250478 0)
(0.046607524 0.20890707 0)
(0.015739234 0.21726452 0)
(-0.015726328 0.21726621 0)
(-0.046595608 0.20891192 0)
(-0.075685061 0.19251328 0)
(-0.10188017 0.16871767 0)
(-0.12417898 0.13843792 0)
(-0.14171212 0.1028305 0)
(-0.15379882 0.063291053 0)
(-0.1599715 0.021335869 0)
(-0.15998421 -0.0214303 0)
(-0.15383725 -0.06336729 0)
(-0.14177298 -0.10287938 0)
(-0.12424969 -0.13845336 0)
(-0.10195134 -0.16869712 0)
(-0.075749926 -0.19246129 0)
(-0.04664496 -0.20883841 0)
(-0.015752504 -0.21718497 0)
(0.010724505 -0.24527317 0)
(0.031806805 -0.2358616 0)
(0.051678953 -0.21737859 0)
(0.069577953 -0.1905616 0)
(0.084829596 -0.15641847 0)
(0.096821431 -0.11622619 0)
(0.10507048 -0.071578353 0)
(0.10926789 -0.024190043 0)
(0.10925612 0.024124037 0)
(0.10504266 0.071505703 0)
(0.096786027 0.11616254 0)
(0.084790463 0.15637427 0)
(0.069545702 0.19054271 0)
(0.05166252 0.21739419 0)
(0.031805622 0.2359039 0)
(0.010740328 0.24532307 0)
(-0.010723396 0.24532551 0)
(-0.031790435 0.23591057 0)
(-0.051650622 0.21740681 0)
(-0.069542394 0.19056293 0)
(-0.084797711 0.15639251 0)
(-0.096797792 0.11617382 0)
(-0.10505584 0.071512702 0)
(-0.10926513 0.024116782 0)
(-0.1092632 -0.024202197 0)
(-0.10505782 -0.071575227 0)
(-0.096810288 -0.11621569 0)
(-0.084820541 -0.15640526 0)
(-0.069576705 -0.19054045 0)
(-0.051689054 -0.21736194 0)
(-0.031822867 -0.2358528 0)
(-0.010743558 -0.24526958 0)
(0.002872109 -0.25931772 0)
(0.0085332026 -0.24940616 0)
(0.013873424 -0.2298637 0)
(0.018670022 -0.2015231 0)
(0.022761469 -0.16543876 0)
(0.025962331 -0.12289962 0)
(0.028120631 -0.075650602 0)
(0.029187246 -0.025541061 0)
(0.029155419 0.025529732 0)
(0.028032543 0.075620467 0)
(0.025828078 0.12287179 0)
(0.022599202 0.16540692 0)
(0.018516287 0.20148784 0)
(0.013755393 0.22985573 0)
(0.0084630327 0.24942274 0)
(0.0028564848 0.25935482 0)
(-0.0028400068 0.25935902 0)
(-0.0084497662 0.24943327 0)
(-0.01374634 0.22987631 0)
(-0.018518944 0.20152619 0)
(-0.022616484 0.1654379 0)
(-0.025845042 0.1228789 0)
(-0.028042168 0.075623026 0)
(-0.029160415 0.025511506 0)
(-0.029183422 -0.025567964 0)
(-0.028112264 -0.075649828 0)
(-0.025950505 -0.12289369 0)
(-0.022743035 -0.16542313 0)
(-0.018660388 -0.20148211 0)
(-0.013879958 -0.22983347 0)
(-0.0085472694 -0.24939136 0)
(-0.002890998 -0.25931097 0)
(-0.0027519789 -0.25944393 0)
(-0.0081917446 -0.24951496 0)
(-0.013328377 -0.2299556 0)
(-0.017957717 -0.20159354 0)
(-0.021928289 -0.16548491 0)
(-0.025056842 -0.12292121 0)
(-0.027189611 -0.075649096 0)
(-0.028274155 -0.025519002 0)
(-0.028297795 0.0255687 0)
(-0.027260931 0.075672022 0)
(-0.025164604 0.12293155 0)
(-0.022057178 0.16547027 0)
(-0.018099796 0.20155071 0)
(-0.0134616 0.22991597 0)
(-0.0082878032 0.2494791 0)
(-0.0028019842 0.25940028 0)
(0.0027857325 0.25940448 0)
(0.0082747087 0.24948966 0)
(0.013452692 0.22993662 0)
(0.018102449 0.20158916 0)
(0.022074272 0.16550132 0)
(0.025181409 0.12293866 0)
(0.02727045 0.0756746 0)
(0.028302683 0.025550483 0)
(0.028270201 -0.025545947 0)
(0.027181125 -0.075648369 0)
(0.025044915 -0.1229153 0)
(0.021909589 -0.16546932 0)
(0.017947911 -0.20155266 0)
(0.013335056 -0.22992545 0)
(0.0082059855 -0.24950023 0)
(0.0027710862 -0.25943718 0)
(-0.010633429 -0.24558274 0)
(-0.031526339 -0.23615845 0)
(-0.051223363 -0.21763722 0)
(-0.068968934 -0.19076437 0)
(-0.084097496 -0.15655557 0)
(-0.095998108 -0.11629761 0)
(-0.10418872 -0.071587991 0)
(-0.10836206 -0.024142502 0)
(-0.10836114 0.024222658 0)
(-0.10419283 0.071647189 0)
(-0.096013529 0.11633657 0)
(-0.084123802 0.15656746 0)
(-0.069006716 0.19074228 0)
(-0.051265101 0.21759468 0)
(-0.031560823 0.23610537 0)
(-0.010654033 0.24553174 0)
(0.010637031 0.24553421 0)
(0.031545591 0.23611209 0)
(0.051253191 0.2176074 0)
(0.069003416 0.19076266 0)
(0.084131068 0.15658582 0)
(0.096025294 0.11634787 0)
(0.10420595 0.071654219 0)
(0.10837006 0.024215408 0)
(0.10835728 -0.024154629 0)
(0.104176 -0.071584885 0)
(0.095986971 -0.11628713 0)
(0.084088452 -0.15654242 0)
(0.068967665 -0.19074336 0)
(0.051233445 -0.2176207 0)
(0.031542326 -0.23614974 0)
(0.010652359 -0.2455792 0)
(-0.015633249 -0.21770183 0)
(-0.046321131 -0.20933119 0)
(-0.075240318 -0.19290045 0)
(-0.10128265 -0.16905692 0)
(-0.12345085 -0.13871586 0)
(-0.14088182 -0.1030379 0)
(-0.1528983 -0.063418439 0)
(-0.15903462 -0.021379563 0)
(-0.1590485 0.021470672 0)
(-0.15293969 0.06349237 0)
(-0.1409469 0.10308507 0)
(-0.12352668 0.13873069 0)
(-0.10135911 0.16903674 0)
(-0.075310065 0.19285001 0)
(-0.046373839 0.20926045 0)
(-0.015660528 0.21762371 0)
(0.015647544 0.21762541 0)
(0.046361858 0.20926533 0)
(0.07530021 0.19285857 0)
(0.10135389 0.16904876 0)
(0.12352707 0.13874232 0)
(0.14095124 0.10309429 0)
(0.15294672 0.063498659 0)
(0.15905376 0.021470243 0)
(0.15903234 -0.021381979 0)
(0.15289153 -0.063414587 0)
(0.14087703 -0.10302953 0)
(0.12344934 -0.13870611 0)
(0.1012858 -0.16904484 0)
(0.075249172 -0.19289041 0)
(0.046333315 -0.2093253 0)
(0.015647041 -0.21769962 0)
(-0.01704539 -0.18375315 0)
(-0.050494761 -0.17667849 0)
(-0.08200935 -0.16279915 0)
(-0.11038027 -0.14265864 0)
(-0.13451935 -0.11703559 0)
(-0.15349303 -0.086921254 0)
(-0.1665691 -0.053486289 0)
(-0.17324659 -0.018014472 0)
(-0.17326349 0.018133899 0)
(-0.16661867 0.053582695 0)
(-0.15356952 0.086982626 0)
(-0.13461099 0.11705335 0)
(-0.11047338 0.1426286 0)
(-0.082091365 0.16272714 0)
(-0.05055411 0.17657678 0)
(-0.017073021 0.18363829 0)
(0.017063382 0.18363955 0)
(0.050545167 0.17658041 0)
(0.082083856 0.16273314 0)
(0.11046846 0.14263647 0)
(0.13460913 0.11706136 0)
(0.15357026 0.086989662 0)
(0.16662135 0.053588001 0)
(0.17326577 0.018136215 0)
(0.1732459 -0.018012992 0)
(0.16656668 -0.053482288 0)
(0.15349194 -0.086914897 0)
(0.1345206 -0.11702839 0)
(0.11038424 -0.14265082 0)
(0.082016305 -0.16279256 0)
(0.050503672 -0.17667437 0)
(0.017055307 -0.18375166 0)
(-0.015928461 -0.15021307 0)
(-0.047181649 -0.14442425 0)
(-0.076622718 -0.13307041 0)
(-0.10312084 -0.11659591 0)
(-0.12565858 -0.095641074 0)
(-0.14336855 -0.071019338 0)
(-0.15557059 -0.043686956 0)
(-0.16179751 -0.014695958 0)
(-0.16181106 0.01484449 0)
(-0.15561008 0.043811704 0)
(-0.14342732 0.071099012 0)
(-0.12572832 0.095662842 0)
(-0.10319193 0.11655782 0)
(-0.076685289 0.13297901 0)
(-0.047226831 0.14429386 0)
(-0.015949447 0.15006345 0)
(0.015942141 0.15006438 0)
(0.047220049 0.14429655 0)
(0.076679529 0.13298334 0)
(0.10318778 0.11656334 0)
(0.12572602 0.095668666 0)
(0.14342671 0.071104463 0)
(0.15561076 0.043816236 0)
(0.16181189 0.014847661 0)
(0.16179747 -0.014693163 0)
(0.15557013 -0.043683122 0)
(0.14336897 -0.071014347 0)
(0.12566054 -0.09563566 0)
(0.10312452 -0.11659046 0)
(0.076628155 -0.13306585 0)
(0.04718834 -0.14442132 0)
(0.015935837 -0.15021202 0)
(-0.013601537 -0.12068225 0)
(-0.040287147 -0.11602838 0)
(-0.065422696 -0.10690169 0)
(-0.088041602 -0.09365959 0)
(-0.10727487 -0.076818438 0)
(-0.12238387 -0.057033532 0)
(-0.13279016 -0.035072643 0)
(-0.13809686 -0.011781737 0)
(-0.13810235 0.011947259 0)
(-0.13280616 0.035210734 0)
(-0.12240846 0.057122036 0)
(-0.10730521 0.076843958 0)
(-0.088073624 0.093618539 0)
(-0.065451864 0.10680043 0)
(-0.040309246 0.11588221 0)
(-0.013613222 0.12051296 0)
(0.013607561 0.12051366 0)
(0.040303979 0.11588423 0)
(0.065447336 0.10680361 0)
(0.088070174 0.09362257 0)
(0.10730298 0.07684834 0)
(0.1224074 0.057126335 0)
(0.13280601 0.035214596 0)
(0.13810258 0.01195051 0)
(0.13809703 -0.011778664 0)
(0.13279046 -0.035069153 0)
(0.12238484 -0.057029525 0)
(0.1072769 -0.076814284 0)
(0.088044797 -0.093655623 0)
(0.065427026 -0.10689843 0)
(0.040292323 -0.11602626 0)
(0.013607188 -0.12068149 0)
(-0.011031235 -0.096358008 0)
(-0.032673188 -0.092640569 0)
(-0.053056409 -0.085350726 0)
(-0.071396353 -0.074774045 0)
(-0.086988141 -0.061323597 0)
(-0.099233605 -0.04552327 0)
(-0.10766473 -0.027986142 0)
(-0.11196079 -0.0093883204 0)
(-0.11195934 0.0095572606 0)
(-0.10766085 0.028127849 0)
(-0.099228511 0.045615241 0)
(-0.086983339 0.061351693 0)
(-0.071392997 0.074734132 0)
(-0.0530552 0.085248903 0)
(-0.0326744 0.092492172 0)
(-0.011034719 0.096185178 0)
(0.011030258 0.096185703 0)
(0.03267023 0.092493687 0)
(0.053051569 0.085251287 0)
(0.071390123 0.074737162 0)
(0.086981328 0.061355066 0)
(0.099227345 0.045618675 0)
(0.10766039 0.028131115 0)
(0.11195932 0.0095602677 0)
(0.11196103 -0.0093853992 0)
(0.10766529 -0.027983073 0)
(0.099234737 -0.045520015 0)
(0.086990042 -0.061320359 0)
(0.071399082 -0.074771069 0)
(0.053059914 -0.085348322 0)
(0.032677279 -0.092639013 0)
(0.011035657 -0.09635746 0)
(-0.0087318207 -0.077004628 0)
(-0.025862285 -0.074033078 0)
(-0.041995572 -0.068206036 0)
(-0.056510319 -0.059751747 0)
(-0.06884848 -0.049000544 0)
(-0.078536878 -0.036371298 0)
(-0.085205448 -0.022354068 0)
(-0.088600777 -0.0074897406 0)
(-0.088594826 0.0076511278 0)
(-0.085188687 0.022489899 0)
(-0.078512333 0.036460217 0)
(-0.068820409 0.049028795 0)
(-0.056483329 0.05971503 0)
(-0.04197394 0.068109914 0)
(-0.025849391 0.073892032 0)
(-0.0087297106 0.076839798 0)
(0.0087261464 0.076840195 0)
(0.025846042 0.073893183 0)
(0.041970986 0.068111726 0)
(0.056480924 0.059717352 0)
(0.068818635 0.049031433 0)
(0.078511197 0.036462982 0)
(0.085188117 0.022492638 0)
(0.0885947 0.0076537718 0)
(0.088601012 -0.0074871398 0)
(0.085206071 -0.022351436 0)
(0.078537997 -0.03636864 0)
(0.068850189 -0.04899799 0)
(0.056512637 -0.059749467 0)
(0.041998442 -0.068204227 0)
(0.02586557 -0.074031915 0)
(0.0087353382 -0.077004222 0)
(-0.0068815771 -0.061787323 0)
(-0.02038208 -0.059402629 0)
(-0.033096343 -0.0547264 0)
(-0.044534484 -0.047941744 0)
(-0.054256604 -0.039313747 0)
(-0.061889809 -0.029178552 0)
(-0.067142487 -0.01792949 0)
(-0.069815021 -0.0060009898 0)
(-0.069806752 0.0061484857 0)
(-0.067119065 0.018053881 0)
(-0.061855121 0.02926042 0)
(-0.054216288 0.039340402 0)
(-0.044494942 0.04790905 0)
(-0.033063758 0.054639268 0)
(-0.020361523 0.059274193 0)
(-0.0068762973 0.061636906 0)
(0.006873414 0.061637209 0)
(0.020358799 0.059275076 0)
(0.03306133 0.054640664 0)
(0.044492923 0.047910854 0)
(0.054214746 0.039342485 0)
(0.061854076 0.029262652 0)
(0.06711849 0.018056155 0)
(0.069806592 0.006150741 0)
(0.069815238 -0.0059987573 0)
(0.067143091 -0.017927275 0)
(0.061890845 -0.029176384 0)
(0.054258107 -0.039311718 0)
(0.044536448 -0.047939971 0)
(0.033098714 -0.054725015 0)
(0.020384753 -0.059401746 0)
(0.0068844172 -0.061787017 0)
(-0.0054808597 -0.049773418 0)
(-0.016233396 -0.047852188 0)
(-0.026359579 -0.044084779 0)
(-0.035469141 -0.038618666 0)
(-0.043211624 -0.031667385 0)
(-0.049289953 -0.023501739 0)
(-0.053471783 -0.014438681 0)
(-0.0555981 -0.0048284642 0)
(-0.055588859 0.0049591495 0)
(-0.053445547 0.014549045 0)
(-0.049250924 0.023574639 0)
(-0.043165989 0.031691525 0)
(-0.035424056 0.038590268 0)
(-0.026322063 0.044008086 0)
(-0.016209289 0.047738772 0)
(-0.0054739719 0.049640396 0)
(0.0054716104 0.049640629 0)
(0.016207048 0.047739453 0)
(0.026320047 0.044009168 0)
(0.035422353 0.038591677 0)
(0.043164658 0.031693172 0)
(0.04924999 0.023576434 0)
(0.053445007 0.014550908 0)
(0.055588693 0.0049610282 0)
(0.055598293 -0.004826598 0)
(0.053472336 -0.01443685 0)
(0.04929088 -0.023499982 0)
(0.04321293 -0.031665771 0)
(0.035470808 -0.038617279 0)
(0.026361555 -0.044083709 0)
(0.016235599 -0.047851511 0)
(0.005483185 -0.049773185 0)
(-0.0044755211 -0.040212425 0)
(-0.013255748 -0.038660146 0)
(-0.02152441 -0.035616224 0)
(-0.028962754 -0.031199773 0)
(-0.035284519 -0.025583288 0)
(-0.040247034 -0.018985553 0)
(-0.043660489 -0.011662699 0)
(-0.045395021 -0.0038978655 0)
(-0.04538536 0.0040099795 0)
(-0.043633018 0.011757497 0)
(-0.040206057 0.019048391 0)
(-0.035236442 0.025604466 0)
(-0.028915063 0.031175997 0)
(-0.021484515 0.035551066 0)
(-0.013229861 0.038563476 0)
(-0.0044677341 0.040098891 0)
(0.0044657729 0.040099066 0)
(0.013227992 0.038563989 0)
(0.021482823 0.035551885 0)
(0.028913617 0.031177071 0)
(0.035235293 0.025605735 0)
(0.040205233 0.01904979 0)
(0.04363253 0.011758969 0)
(0.045385203 0.0040114779 0)
(0.04539519 -0.003896374 0)
(0.043660982 -0.011661246 0)
(0.04024785 -0.018984176 0)
(0.03528565 -0.02558204 0)
(0.028964174 -0.031198714 0)
(0.021526074 -0.035615414 0)
(0.013257587 -0.038659637 0)
(0.0044774535 -0.04021225 0)
(-0.0038217783 -0.031263014 0)
(-0.011319422 -0.030055887 0)
(-0.0183801 -0.027688809 0)
(-0.024731539 -0.024254471 0)
(-0.030129224 -0.01988709 0)
(-0.034365871 -0.014756892 0)
(-0.037279354 -0.0090631512 0)
(-0.038758795 -0.0030261752 0)
(-0.038748632 0.0031214254 0)
(-0.037250416 0.0091436636 0)
(-0.034322644 0.01481021 0)
(-0.030078411 0.019904959 0)
(-0.024681012 0.024234067 0)
(-0.018337688 0.027633152 0)
(-0.011291722 0.029973365 0)
(-0.0038131572 0.031166105 0)
(0.0038114875 0.031166249 0)
(0.011290127 0.029973787 0)
(0.018336237 0.027633828 0)
(0.024679762 0.02423496 0)
(0.030077407 0.019906023 0)
(0.034321915 0.014811395 0)
(0.037249977 0.0091449214 0)
(0.038748487 0.0031227149 0)
(0.038758944 -0.0030248901 0)
(0.037279793 -0.0090619051 0)
(0.034366593 -0.014755723 0)
(0.030130215 -0.019886042 0)
(0.02473277 -0.024253591 0)
(0.01838153 -0.027688142 0)
(0.011320994 -0.030055469 0)
(0.0038234248 -0.031262872 0)
(-0.0035489328 -0.026978959 0)
(-0.010511145 -0.025937767 0)
(-0.017067549 -0.023896005 0)
(-0.02296528 -0.020933452 0)
(-0.027977234 -0.017165676 0)
(-0.031910871 -0.012739324 0)
(-0.034615613 -0.007826167 0)
(-0.035988521 -0.0026161956 0)
(-0.035978128 0.0026899632 0)
(-0.03458606 0.0078885947 0)
(-0.031866716 0.012780831 0)
(-0.027925285 0.017179909 0)
(-0.022913557 0.020918228 0)
(-0.017024044 0.023853638 0)
(-0.010482605 0.025874705 0)
(-0.0035398387 0.026904802 0)
(0.0035384362 0.026904902 0)
(0.010481262 0.025875 0)
(0.017022816 0.023854112 0)
(0.022912492 0.020918856 0)
(0.027924422 0.017180662 0)
(0.031866082 0.012781676 0)
(0.034585674 0.0078894969 0)
(0.035977998 0.0026908923 0)
(0.035988649 -0.0026152682 0)
(0.034615994 -0.0078252694 0)
(0.031911496 -0.012738486 0)
(0.027978085 -0.017164929 0)
(0.022966331 -0.020932828 0)
(0.017068762 -0.023895534 0)
(0.010512471 -0.025937474 0)
(0.0035503189 -0.026978859 0)
(-0.0034492425 -0.014320306 0)
(-0.010215824 -0.013766917 0)
(-0.016587879 -0.012681824 0)
(-0.022319586 -0.011107638 0)
(-0.027190192 -0.0091060494 0)
(-0.031012569 -0.0067552594 0)
(-0.033640393 -0.0041467106 0)
(-0.034973563 -0.0013813719 0)
(-0.034962218 0.0014342464 0)
(-0.0336081 0.004191383 0)
(-0.030964316 0.0067848011 0)
(-0.027133402 0.0091158732 0)
(-0.02226301 0.011096164 0)
(-0.016540243 0.012650724 0)
(-0.010184501 0.013720856 0)
(-0.0034391327 0.014266226 0)
(0.0034377866 0.014266303 0)
(0.010183211 0.013721083 0)
(0.016539062 0.012651089 0)
(0.022261984 0.011096646 0)
(0.027132568 0.0091164495 0)
(0.030963703 0.0067854455 0)
(0.033607726 0.0041920699 0)
(0.034962092 0.0014349525 0)
(0.034973688 -0.001380668 0)
(0.033640765 -0.0041460303 0)
(0.031013177 -0.0067546251 0)
(0.027191017 -0.0091054844 0)
(0.0223206 -0.011107166 0)
(0.016589046 -0.012681468 0)
(0.010217097 -0.013766695 0)
(0.0034505716 -0.01432023 0)
(-0.0039285279 -0.016929292 0)
(-0.011635284 -0.016276591 0)
(-0.018892886 -0.014996555 0)
(-0.025421426 -0.013139008 0)
(-0.030969468 -0.010776172 0)
(-0.035323768 -0.007999769 0)
(-0.038317546 -0.0049173444 0)
(-0.039836784 -0.0016481222 0)
(-0.039825517 0.0016824528 0)
(-0.038285376 0.0049464259 0)
(-0.035275726 0.0080191052 0)
(-0.030912928 0.010782839 0)
(-0.025365102 0.013131989 0)
(-0.018845467 0.014976922 0)
(-0.011604118 0.016247339 0)
(-0.0039185012 0.016894889 0)
(0.0039171148 0.016894944 0)
(0.011602785 0.0162475 0)
(0.018844238 0.014977183 0)
(0.025364025 0.01313234 0)
(0.030912045 0.010783264 0)
(0.035275068 0.0080195892 0)
(0.038284969 0.0049469493 0)
(0.039825377 0.0016829965 0)
(0.039836914 -0.0016475778 0)
(0.038317943 -0.004916819 0)
(0.035324416 -0.0079992828 0)
(0.030970343 -0.010775743 0)
(0.025422494 -0.013138655 0)
(0.018894106 -0.014996292 0)
(0.01163661 -0.016276428 0)
(0.0039299076 -0.016929237 0)
(-0.0035610463 0.0049384722 0)
(-0.010547399 0.0047487768 0)
(-0.017126616 0.0043766585 0)
(-0.02304498 0.0038363661 0)
(-0.028074608 0.0031485862 0)
(-0.032022336 0.0023396478 0)
(-0.034737406 0.0014405898 0)
(-0.03611544 0.00048678969 0)
(-0.036104769 -0.00048214218 0)
(-0.034706541 -0.001436748 0)
(-0.031976416 -0.0023371429 0)
(-0.028020566 -0.0031478878 0)
(-0.022991196 -0.0038376188 0)
(-0.017081437 -0.0043797015 0)
(-0.010517869 -0.0047531793 0)
(-0.003551841 -0.0049435991 0)
(0.0035500766 -0.0049435884 0)
(0.010516177 -0.0047531488 0)
(0.017079886 -0.0043796559 0)
(0.022989848 -0.0038375649 0)
(0.028019469 -0.0031478327 0)
(0.031975609 -0.0023370922 0)