/*--------------------------------*- C++ -*----------------------------------*\
| =========                 |                                                 |
| \\      /  F ield         | OpenFOAM: The Open Source CFD Toolbox           |
|  \\    /   O peration     | Version:  2106                                  |
|   \\  /    A nd           | Website:  www.openfoam.com                      |
|    \\/     M anipulation  |                                                 |
\*---------------------------------------------------------------------------*/
FoamFile
{
    version     2.0;
    format      ascii;
    arch        "LSB;label=32;scalar=64";
    class       volVectorField;
    location    "0.044";
    object      U_0;
}
// * * * * * * * * * * * * * * * * * * * * * * * * * * * * * * * * * * * * * //

dimensions      [0 1 -1 0 0 0 0];

internalField   nonuniform List<vector> 
1024
(
(0.0027399055 -0.0026876945 0)
(0.0081160598 -0.0025848337 0)
(0.01318156 -0.0023829917 0)
(0.017742366 -0.0020898117 0)
(0.021623554 -0.0017164108 0)
(0.02467599 -0.0012769747 0)
(0.026782059 -0.00078823591 0)
(0.02786022 -0.00026885468 0)
(0.027868161 0.00026128737 0)
(0.026804917 0.00078177117 0)
(0.024710144 0.00127265 0)
(0.021663934 0.0017148475 0)
(0.017782902 0.0020912337 0)
(0.013216191 0.0023871744 0)
(0.0081396412 0.0025911353 0)
(0.0027489848 0.002695154 0)
(-0.0027477731 0.0026951661 0)
(-0.0081384782 0.0025911708 0)
(-0.013215122 0.0023872316 0)
(-0.017781969 0.0020913098 0)
(-0.021663172 0.0017149391 0)
(-0.024709581 0.0012727531 0)
(-0.02680457 0.00078188183 0)
(-0.027868044 0.00026140161 0)
(-0.027860335 -0.00026874067 0)
(-0.026782402 -0.00078812588 0)
(-0.024676549 -0.0012768724 0)
(-0.021624309 -0.0017163202 0)
(-0.01774329 -0.0020897364 0)
(-0.013182619 -0.0023829351 0)
(-0.0081172118 -0.0025847985 0)
(-0.0027411057 -0.0026876826 0)
(0.0028891487 -0.0081797124 0)
(0.0085581343 -0.0078666717 0)
(0.013899544 -0.0072523973 0)
(0.01870877 -0.0063601493 0)
(0.022801367 -0.0052237603 0)
(0.026020089 -0.0038864007 0)
(0.028240919 -0.0023989923 0)
(0.02937788 -0.0008183235 0)
(0.029386402 0.00079506924 0)
(0.028265239 0.0023792441 0)
(0.026056509 0.0038731525 0)
(0.022844423 0.0052189711 0)
(0.018751991 0.0063645129 0)
(0.013936464 0.0072652241 0)
(0.0085832668 0.0078859934 0)
(0.0028988106 0.008202583 0)
(-0.0028975414 0.0082026197 0)
(-0.008582049 0.0078861017 0)
(-0.013935346 0.0072653984 0)
(-0.018751016 0.0063647447 0)
(-0.022843627 0.0052192496 0)
(-0.026055921 0.0038734657 0)
(-0.028264878 0.0023795799 0)
(-0.02938628 0.00079541564 0)
(-0.029378 -0.00081797782 0)
(-0.028241277 -0.0023986585 0)
(-0.026020672 -0.0038860903 0)
(-0.022802156 -0.0052234847 0)
(-0.018709736 -0.0063599201 0)
(-0.013900652 -0.0072522249 0)
(-0.0085593408 -0.0078665646 0)
(-0.002890406 -0.008179676 0)
(0.0031444334 -0.014099683 0)
(0.0093142925 -0.013560068 0)
(0.01512756 -0.012501195 0)
(0.020361523 -0.01096317 0)
(0.024815443 -0.0090043215 0)
(0.02831821 -0.0066990742 0)
(0.030734906 -0.004135205 0)
(0.031972016 -0.0014105905 0)
(0.031981098 0.0013704512 0)
(0.030760786 0.004101122 0)
(0.02835698 0.0066761927 0)
(0.024861271 0.0089960561 0)
(0.020407526 0.010970719 0)
(0.015166858 0.012523364 0)
(0.0093410494 0.013593455 0)
(0.003154732 0.014139199 0)
(-0.0031533623 0.014139263 0)
(-0.0093397362 0.013593642 0)
(-0.015165655 0.012523665 0)
(-0.020406479 0.010971118 0)
(-0.024860419 0.0089965348 0)
(-0.028356352 0.0066767299 0)
(-0.030760402 0.0041016967 0)
(-0.031980969 0.0013710434 0)
(-0.031972145 -0.0014099997 0)
(-0.030735288 -0.004134634 0)
(-0.028318834 -0.006698542 0)
(-0.024816288 -0.009003848 0)
(-0.020362561 -0.010962775 0)
(-0.015128753 -0.012500898 0)
(-0.0093155936 -0.013559882 0)
(-0.0031457906 -0.01409962 0)
(0.0035225423 -0.020633613 0)
(0.01043424 -0.019843849 0)
(0.016946306 -0.018294136 0)
(0.022809187 -0.016043205 0)
(0.02779801 -0.013176468 0)
(0.031721155 -0.0098028837 0)
(0.034427596 -0.0060509321 0)
(0.035812715 -0.0020638417 0)
(0.035822373 0.0020057633 0)
(0.034455111 0.0060016246 0)
(0.031762372 0.0097697809 0)
(0.027846725 0.01316452 0)
(0.022858088 0.016054144 0)
(0.016988088 0.018326229 0)
(0.010462709 0.019892171 0)
(0.0035335432 0.020690803 0)
(-0.0035320203 0.020690897 0)
(-0.010461251 0.019892447 0)
(-0.016986754 0.018326671 0)
(-0.022856933 0.01605473 0)
(-0.02784579 0.013165219 0)
(-0.031761687 0.0097705628 0)
(-0.034454694 0.006002458 0)
(-0.035822235 0.00200662 0)
(-0.035812857 -0.0020629873 0)
(-0.034428014 -0.0060501049 0)
(-0.031721837 -0.0098021102 0)
(-0.027798939 -0.013175777 0)
(-0.022810333 -0.016042626 0)
(-0.016947626 -0.018293698 0)
(-0.010435684 -0.019843576 0)
(-0.0035240515 -0.02063352 0)
(0.0040517674 -0.028046831 0)
(0.012001761 -0.026973109 0)
(0.019491801 -0.024866246 0)
(0.026234738 -0.021806178 0)
(0.031971916 -0.017909123 0)
(0.036483043 -0.0133233 0)
(0.039594615 -0.008223418 0)
(0.041186542 -0.0028041665 0)
(0.041196774 0.0027270617 0)
(0.039623761 0.008157967 0)
(0.036526698 0.013279369 0)
(0.032023503 0.017893283 0)
(0.026286521 0.021820721 0)
(0.019536061 0.024908862 0)
(0.012031959 0.027037259 0)
(0.0040635177 0.02812275 0)
(-0.0040617791 0.028122879 0)
(-0.012030298 0.027037638 0)
(-0.019534548 0.024909469 0)
(-0.026285217 0.02182152 0)
(-0.032022454 0.017894234 0)
(-0.036525936 0.013280426 0)
(-0.039623303 0.0081590868 0)
(-0.041196624 0.0027282084 0)
(-0.0411867 -0.0028030237 0)
(-0.039595077 -0.0082223086 0)
(-0.036483803 -0.013322257 0)
(-0.031972956 -0.017908186 0)
(-0.02623603 -0.021805388 0)
(-0.0194933 -0.024865646 0)
(-0.012003407 -0.026972733 0)
(-0.0040534911 -0.028046702 0)
(0.0047783986 -0.036674737 0)
(0.014153937 -0.035270287 0)
(0.022986585 -0.032514562 0)
(0.030937532 -0.028512288 0)
(0.037701739 -0.023415676 0)
(0.043019597 -0.01741877 0)
(0.046686828 -0.010750168 0)
(0.048562209 -0.0036644545 0)
(0.048572918 0.0035673066 0)
(0.046717326 0.010667721 0)
(0.043065263 0.017363459 0)
(0.037755686 0.023395769 0)
(0.030991682 0.028530652 0)
(0.023032894 0.032568275 0)
(0.0141856 0.035351108 0)
(0.004790855 0.036770377 0)
(-0.0047888253 0.03677055 0)
(-0.014183666 0.035351612 0)
(-0.023031141 0.032569079 0)
(-0.030990183 0.028531707 0)
(-0.037754494 0.023397014 0)
(-0.043064408 0.017364831 0)
(-0.046716819 0.010669163 0)
(-0.048572757 0.0035687742 0)
(-0.048562388 -0.0036629936 0)
(-0.046687345 -0.010748743 0)
(-0.043020451 -0.017417419 0)
(-0.037702921 -0.023414451 0)
(-0.030939015 -0.028511247 0)
(-0.02298832 -0.032513766 0)
(-0.014155854 -0.035269786 0)
(-0.0047804124 -0.036674566 0)
(0.0057729874 -0.046964915 0)
(0.017099699 -0.04516564 0)
(0.027769846 -0.041635383 0)
(0.03737385 -0.036508613 0)
(0.045543177 -0.029980686 0)
(0.051964456 -0.022300502 0)
(0.056391402 -0.013761071 0)
(0.058654015 -0.0046884154 0)
(0.05866486 0.0045705838 0)
(0.056422278 0.013661105 0)
(0.052010663 0.022233494 0)
(0.045597736 0.029956643 0)
(0.037428609 0.036530975 0)
(0.027816719 0.041700576 0)
(0.017131862 0.04526367 0)
(0.0057858734 0.047080903 0)
(-0.0057834586 0.04708113 0)
(-0.01712957 0.045264331 0)
(-0.027814656 0.041701627 0)
(-0.037426864 0.036532344 0)
(-0.04559637 0.029958243 0)
(-0.052009704 0.022235236 0)
(-0.056421724 0.013662912 0)
(-0.058664692 0.004572406 0)
(-0.058654218 -0.0046866052 0)
(-0.056391977 -0.013759293 0)
(-0.051965417 -0.022298794 0)
(-0.04554453 -0.029979115 0)
(-0.037375573 -0.036507263 0)
(-0.027771887 -0.041634339 0)
(-0.017101972 -0.045164979 0)
(-0.0057753865 -0.046964687 0)
(0.00712733 -0.059530746 0)
(0.0211109 -0.057248781 0)
(0.034282946 -0.052771743 0)
(0.046137455 -0.046270679 0)
(0.056219402 -0.037993925 0)
(0.064142229 -0.028257682 0)
(0.069602568 -0.017433838 0)
(0.072391397 -0.0059356643 0)
(0.072401561 0.0057975435 0)
(0.069631494 0.017316721 0)
(0.064185479 0.028179285 0)
(0.056270424 0.037965933 0)
(0.046188664 0.046297052 0)
(0.034326868 0.052848249 0)
(0.021141248 0.0573637 0)
(0.0071399123 0.059666684 0)
(-0.0071369911 0.059666981 0)
(-0.021138488 0.057364565 0)
(-0.034324405 0.052849617 0)
(-0.046186613 0.046298819 0)
(-0.056268856 0.037967972 0)
(-0.064184414 0.028181469 0)
(-0.069630907 0.017318946 0)
(-0.072401399 0.0057997501 0)
(-0.072391623 -0.0059334793 0)
(-0.069603192 -0.017431667 0)
(-0.064143296 -0.028255555 0)
(-0.056220947 -0.03799193 0)
(-0.046139472 -0.046268935 0)
(-0.034285378 -0.052770379 0)
(-0.021113639 -0.057247911 0)
(-0.0071302384 -0.059530444 0)
(0.0089281014 -0.075183279 0)
(0.026444266 -0.072299332 0)
(0.04294275 -0.066641666 0)
(0.05778926 -0.058427216 0)
(0.070413705 -0.047970671 0)
(0.080332141 -0.035672483 0)
(0.087165334 -0.022003138 0)
(0.090652483 -0.0074846308 0)
(0.090660416 0.0073288031 0)
(0.087187898 0.021871108 0)
(0.080365841 0.035584281 0)
(0.070453408 0.047939399 0)
(0.057829143 0.05845721 0)
(0.042977153 0.066728086 0)
(0.02646846 0.072428957 0)
(0.0089389622 0.075336557 0)
(-0.0089353753 0.075336949 0)
(-0.026465087 0.072430091 0)
(-0.042974178 0.066729873 0)
(-0.057826716 0.058459499 0)
(-0.070451616 0.047941999 0)
(-0.08036469 0.035587005 0)
(-0.087187319 0.021873806 0)
(-0.090660289 0.007331408 0)
(-0.090652728 -0.0074820663 0)
(-0.087165977 -0.022000538 0)
(-0.080333291 -0.035669854 0)
(-0.070415456 -0.047968141 0)
(-0.057791629 -0.058424955 0)
(-0.042945679 -0.066639872 0)
(-0.026447615 -0.072298178 0)
(-0.0089316856 -0.075182876 0)
(0.011190192 -0.094879293 0)
(0.033144028 -0.091237059 0)
(0.053821291 -0.084092346 0)
(0.072426568 -0.073720168 0)
(0.088245096 -0.060519005 0)
(0.1006703 -0.044995774 0)
(0.10922744 -0.027745576 0)
(0.11359052 -0.0094273462 0)
(0.11359385 0.0092601432 0)
(0.10923695 0.027604053 0)
(0.10068457 0.04490148 0)
(0.088261929 0.060485839 0)
(0.072443665 0.073752569 0)
(0.053836557 0.084185071 0)
(0.033155722 0.091375939 0)
(0.011197248 0.095043447 0)
(-0.01119278 0.095043966 0)
(-0.033151544 0.091377437 0)
(-0.053832917 0.084187429 0)
(-0.072440779 0.073755566 0)
(-0.088259906 0.060489176 0)
(-0.1006834 0.044904877 0)
(-0.10923648 0.027607285 0)
(-0.11359383 0.0092631184 0)
(-0.11359076 -0.009424449 0)
(-0.10922801 -0.027742528 0)
(-0.10067146 -0.044992535 0)
(-0.088247039 -0.060515781 0)
(-0.07242935 -0.073717203 0)
(-0.053824856 -0.08408995 0)
(-0.033148184 -0.091235508 0)
(-0.011194682 -0.094878747 0)
(0.01373888 -0.11948908 0)
(0.040693084 -0.11489879 0)
(0.066079547 -0.10589494 0)
(0.088921555 -0.092825358 0)
(0.1083412 -0.076193153 0)
(0.12359294 -0.056638446 0)
(0.13409364 -0.034912907 0)
(0.13944308 -0.01184699 0)
(0.13943911 0.01167973 0)
(0.13408254 0.034771401 0)
(0.123577 0.05654428 0)
(0.1083229 0.076160028 0)
(0.088903985 0.0928575 0)
(0.066065885 0.10598717 0)
(0.040685893 0.11503697 0)
(0.013740096 0.11965237 0)
(-0.013734446 0.11965306 0)
(-0.040680634 0.11503897 0)
(-0.066061361 0.10599032 0)
(-0.088900534 0.092861496 0)
(-0.10832068 0.076164372 0)
(-0.12357594 0.056548544 0)
(-0.13408239 0.034775232 0)
(-0.13943933 0.011682954 0)
(-0.13944326 -0.011843925 0)
(-0.13409396 -0.034909424 0)
(-0.12359395 -0.056634443 0)
(-0.10834327 -0.076189 0)
(-0.088924806 -0.092821392 0)
(-0.066083941 -0.10589167 0)
(-0.040698329 -0.11489668 0)
(-0.013744604 -0.11948833 0)
(0.01605642 -0.14927826 0)
(0.047558807 -0.14354061 0)
(0.07723004 -0.1322865 0)
(0.10392922 -0.11595214 0)
(0.12663016 -0.095166544 0)
(0.14445914 -0.070730852 0)
(0.15673208 -0.043585563 0)
(0.16297918 -0.014769146 0)
(0.16296624 0.014616285 0)
(0.1566956 0.043453963 0)
(0.14440755 0.070641831 0)
(0.12657188 0.095133937 0)
(0.10387319 0.11597894 0)
(0.077184857 0.13236804 0)
(0.047531268 0.14366398 0)
(0.016051595 0.14942424 0)
(-0.016044322 0.14942517 0)
(-0.047524513 0.14366665 0)
(-0.077179116 0.13237233 0)
(-0.10386905 0.11598441 0)
(-0.12656958 0.09513972 0)
(-0.14440695 0.07064725 0)
(-0.15669628 0.04345847 0)
(-0.16296707 0.014619432 0)
(-0.16297914 -0.014766346 0)
(-0.15673165 -0.043581726 0)
(-0.14445961 -0.070725857 0)
(-0.12663216 -0.09516112 0)
(-0.10393296 -0.11594669 0)
(-0.077235548 -0.13228193 0)
(-0.047565574 -0.14353767 0)
(-0.016063877 -0.1492772 0)
(0.017168709 -0.18306804 0)
(0.050857684 -0.17603103 0)
(0.082591934 -0.16222705 0)
(0.11115291 -0.14219272 0)
(0.13544364 -0.1166969 0)
(0.15452316 -0.086719018 0)
(0.16765603 -0.053421068 0)
(0.17434236 -0.018080074 0)
(0.1743238 0.017955804 0)
(0.16760493 0.053314714 0)
(0.15445007 0.086643758 0)
(0.13536135 0.11666382 0)
(0.11107505 0.14220723 0)
(0.082529945 0.16228695 0)
(0.050819975 0.17612584 0)
(0.017161964 0.1831811 0)
(-0.017152386 0.18318234 0)
(-0.050811082 0.17612943 0)
(-0.082522471 0.1622929 0)
(-0.11107015 0.14221503 0)
(-0.13535949 0.11667178 0)
(-0.1544508 0.086650762 0)
(-0.16760762 0.053320007 0)
(-0.17432607 0.017958096 0)
(-0.17434167 -0.018078589 0)
(-0.16765366 -0.053417074 0)
(-0.15452211 -0.08671265 0)
(-0.13544494 -0.11668968 0)
(-0.11115696 -0.14218488 0)
(-0.082598969 -0.16222044 0)
(-0.050866683 -0.1760269 0)
(-0.017178722 -0.18306654 0)
(0.015748409 -0.21725738 0)
(0.046661759 -0.20891182 0)
(0.075788224 -0.19253358 0)
(0.10201169 -0.1687638 0)
(0.12432863 -0.13850793 0)
(0.14186612 -0.10292104 0)
(0.15393984 -0.063391656 0)
(0.16008619 -0.021434787 0)
(0.1600659 0.021343202 0)
(0.15388751 0.063305257 0)
(0.14179596 0.10285456 0)
(0.12425585 0.13847111 0)
(0.10194872 0.1687603 0)
(0.075741926 0.19256703 0)
(0.04663649 0.20897464 0)
(0.015749007 0.21733479 0)
(-0.015736118 0.21733647 0)
(-0.046624581 0.20897947 0)
(-0.075732112 0.19257551 0)
(-0.10194351 0.16877222 0)
(-0.12425621 0.13848267 0)
(-0.14180028 0.10286376 0)
(-0.15389458 0.063311539 0)
(-0.16007118 0.02134276 0)
(-0.16008393 -0.021437272 0)
(-0.15393313 -0.063387828 0)
(-0.14186135 -0.10291265 0)
(-0.12432716 -0.13849813 0)
(-0.10201491 -0.16875167 0)
(-0.075797157 -0.19252351 0)
(-0.046674042 -0.20890591 0)
(-0.015762316 -0.21725517 0)
(0.01073457 -0.24536456 0)
(0.031836593 -0.23594946 0)
(0.051727323 -0.21745956 0)
(0.069643071 -0.19063261 0)
(0.084909 -0.15647679 0)
(0.09691208 -0.11626955 0)
(0.10516892 -0.071605111 0)
(0.10937031 -0.024199078 0)
(0.10935847 0.024133111 0)
(0.10514094 0.071532438 0)
(0.096876498 0.11620584 0)
(0.084869685 0.15643255 0)
(0.069610633 0.19061371 0)
(0.051710722 0.21747515 0)
(0.031835286 0.23599175 0)
(0.01075033 0.24541441 0)
(-0.010733423 0.24541683 0)
(-0.031820108 0.23599839 0)
(-0.051698812 0.21748774 0)
(-0.069607294 0.19063391 0)
(-0.084876891 0.1564508 0)
(-0.096888244 0.11621716 0)
(-0.10515415 0.071539482 0)
(-0.10936751 0.024125842 0)
(-0.10936561 -0.024211262 0)
(-0.10515622 -0.071601966 0)
(-0.096900936 -0.11625899 0)
(-0.084899982 -0.15646356 0)
(-0.069641859 -0.19061149 0)
(-0.051737439 -0.21744294 0)
(-0.031852649 -0.23594069 0)
(-0.010753598 -0.24536098 0)
(0.0028779664 -0.25942898 0)
(0.0085505389 -0.24951318 0)
(0.013901602 -0.22996234 0)
(0.01870802 -0.2016097 0)
(0.02280794 -0.16551 0)
(0.026015532 -0.12295262 0)
(0.028178525 -0.075683379 0)
(0.029247589 -0.025552131 0)
(0.029215758 0.025540921 0)
(0.028090476 0.075653198 0)
(0.025881419 0.12292468 0)
(0.022645879 0.16547811 0)
(0.018554497 0.20157444 0)
(0.013783753 0.22995438 0)
(0.0084804823 0.24952978 0)
(0.0028623576 0.25946607 0)
(-0.002845903 0.25947024 0)
(-0.0084672158 0.24954024 0)
(-0.013774674 0.22997489 0)
(-0.018557117 0.20161275 0)
(-0.02266313 0.1655091 0)
(-0.025898386 0.12293189 0)
(-0.028100164 0.075655858 0)
(-0.029220812 0.025522626 0)
(-0.029243737 -0.025579153 0)
(-0.028170087 -0.075682567 0)
(-0.026003682 -0.12294656 0)
(-0.022789529 -0.16549433 0)
(-0.018698415 -0.20156876 0)
(-0.013908161 -0.22993216 0)
(-0.0085646143 -0.24949845 0)
(-0.0028968386 -0.25942226 0)
(-0.002757847 -0.25955515 0)
(-0.0082091175 -0.24962195 0)
(-0.0133566 -0.23005421 0)
(-0.017995751 -0.20168013 0)
(-0.02197477 -0.16555614 0)
(-0.025110003 -0.12297422 0)
(-0.027247398 -0.075681898 0)
(-0.028334316 -0.025530102 0)
(-0.028357876 0.025579863 0)
(-0.027318549 0.075704741 0)
(-0.025217594 0.12298445 0)
(-0.022103504 0.16554149 0)
(-0.018137689 0.20163735 0)
(-0.013489707 0.23001468 0)
(-0.0083050879 0.24958621 0)
(-0.0028078037 0.2595116 0)
(0.0027915747 0.25951578 0)
(0.0082919931 0.24959671 0)
(0.013480772 0.23003526 0)
(0.018140306 0.20167577 0)
(0.022120567 0.16557255 0)
(0.025234404 0.12299167 0)
(0.027328131 0.075707419 0)
(0.028362822 0.025561578 0)
(0.028330333 -0.025557165 0)
(0.027238841 -0.075681134 0)
(0.025098052 -0.12296818 0)
(0.021956093 -0.16554051 0)
(0.017985975 -0.20163928 0)
(0.013363304 -0.23002412 0)
(0.0082233669 -0.24960728 0)
(0.0027769367 -0.25954844 0)
(-0.010643431 -0.24567412 0)
(-0.031555937 -0.23624632 0)
(-0.051271438 -0.2177182 0)
(-0.069033686 -0.19083541 0)
(-0.084176505 -0.15661391 0)
(-0.096088373 -0.11634099 0)
(-0.10428681 -0.071614776 0)
(-0.10846421 -0.024151561 0)
(-0.10846332 0.024231721 0)
(-0.10429101 0.071673936 0)
(-0.096103987 0.11637991 0)
(-0.08420307 0.15662581 0)
(-0.069071728 0.19081337 0)
(-0.051313385 0.21767574 0)
(-0.031590545 0.23619333 0)
(-0.010664053 0.24562321 0)
(0.010647078 0.24562567 0)
(0.031575322 0.23620002 0)
(0.051301463 0.21768842 0)
(0.069068397 0.19083372 0)
(0.084210294 0.15664416 0)
(0.096115732 0.11639125 0)
(0.10430417 0.07168101 0)
(0.10847226 0.024224457 0)
(0.10845941 -0.024163719 0)
(0.10427406 -0.071611651 0)
(0.096077236 -0.11633046 0)
(0.084167499 -0.15660075 0)
(0.069032453 -0.19081442 0)
(0.051281536 -0.21770172 0)
(0.031571919 -0.23623765 0)
(0.010662336 -0.2456706 0)
(-0.015643014 -0.2177722 0)
(-0.046350033 -0.20939884 0)
(-0.075287254 -0.19296279 0)
(-0.10134584 -0.16911155 0)
(-0.12352789 -0.13876069 0)
(-0.14096978 -0.10307121 0)
(-0.15299383 -0.063438952 0)
(-0.15913406 -0.021386464 0)
(-0.15914799 0.021477652 0)
(-0.15303535 0.063512935 0)
(-0.14103507 0.1031184 0)
(-0.12360397 0.13877553 0)
(-0.10142253 0.16909138 0)
(-0.075357189 0.19291233 0)
(-0.046402856 0.20932806 0)
(-0.01567032 0.21769402 0)
(0.015657352 0.21769571 0)
(0.046390883 0.20933292 0)
(0.07534733 0.19292087 0)
(0.1014173 0.16910338 0)
(0.12360433 0.13878716 0)
(0.14103938 0.10312764 0)
(0.15304239 0.063519244 0)
(0.15915326 0.021477226 0)
(0.15913178 -0.021388881 0)
(0.15298706 -0.06343509 0)
(0.14096499 -0.10306282 0)
(0.12352641 -0.13875093 0)
(0.10134901 -0.16909948 0)
(0.075296116 -0.19295277 0)
(0.04636221 -0.20939297 0)
(0.015656789 -0.21777 0)
(-0.017053176 -0.1838058 0)
(-0.050517809 -0.1767291 0)
(-0.082046774 -0.16284577 0)
(-0.11043064 -0.14269948 0)
(-0.13458074 -0.11706907 0)
(-0.1535631 -0.086946103 0)
(-0.16664515 -0.053501564 0)
(-0.17332571 -0.018019582 0)
(-0.17334263 0.018139141 0)
(-0.16669477 0.053598077 0)
(-0.15363966 0.087007545 0)
(-0.13467248 0.11708686 0)
(-0.11052385 0.14266942 0)
(-0.082128868 0.16277369 0)
(-0.050577205 0.17662728 0)
(-0.017080817 0.18369081 0)
(0.017071186 0.18369206 0)
(0.050568267 0.1766309 0)
(0.082121358 0.16277968 0)
(0.11051892 0.14267728 0)
(0.13467061 0.11709487 0)
(0.15364039 0.08701459 0)
(0.16669745 0.053603393 0)
(0.1733449 0.018141462 0)
(0.17332502 -0.018018098 0)
(0.16664274 -0.053497558 0)
(0.15356201 -0.086939737 0)
(0.134582 -0.11706188 0)
(0.11043462 -0.14269167 0)
(0.082053733 -0.16283919 0)
(0.050526715 -0.17672498 0)
(0.017063083 -0.1838043 0)
(-0.015934067 -0.15025259 0)
(-0.047198243 -0.14446224 0)
(-0.07664966 -0.1331054 0)
(-0.10315709 -0.11662655 0)
(-0.12570275 -0.09566619 0)
(-0.14341893 -0.071037968 0)
(-0.15562526 -0.043698394 0)
(-0.16185436 -0.01469977 0)
(-0.16186791 0.01484844 0)
(-0.15566475 0.043823256 0)
(-0.1434777 0.071117716 0)
(-0.12577248 0.095687982 0)
(-0.10322818 0.11658843 0)
(-0.076712223 0.13301392 0)
(-0.047243416 0.14433172 0)
(-0.015955045 0.15010282 0)
(0.015947744 0.15010375 0)
(0.047236637 0.14433442 0)
(0.076706462 0.13301824 0)
(0.10322402 0.11659394 0)
(0.12577018 0.095693805 0)
(0.14347709 0.071123171 0)
(0.15566542 0.043827794 0)
(0.16186874 0.014851615 0)
(0.16185432 -0.014696971 0)
(0.1556248 -0.043694555 0)
(0.14341937 -0.071032973 0)
(0.12570472 -0.095660775 0)
(0.10316078 -0.11662111 0)
(0.076655099 -0.13310084 0)
(0.047204932 -0.14445931 0)
(0.015941438 -0.15025154 0)
(-0.013605411 -0.12071265 0)
(-0.040298617 -0.1160576 0)
(-0.065441317 -0.10692861 0)
(-0.088066653 -0.09368316 0)
(-0.10730539 -0.076837756 0)
(-0.12241867 -0.057047859 0)
(-0.13282791 -0.035081435 0)
(-0.1381361 -0.011784663 0)
(-0.13814158 0.011950304 0)
(-0.13284387 0.035219626 0)
(-0.1224432 0.057136428 0)
(-0.10733566 0.076863298 0)
(-0.088098616 0.093642083 0)
(-0.065470434 0.10682727 0)
(-0.040320681 0.11591133 0)
(-0.013617082 0.12054323 0)
(0.013611424 0.12054393 0)
(0.040315415 0.11591334 0)
(0.065465906 0.10683045 0)
(0.088095164 0.093646112 0)
(0.10733344 0.076867679 0)
(0.12244215 0.057140729 0)
(0.13284372 0.035223491 0)
(0.1381418 0.011953558 0)
(0.13813627 -0.011781586 0)
(0.1328282 -0.035077942 0)
(0.12241964 -0.05704385 0)
(0.10730742 -0.076833601 0)
(0.088069851 -0.093679195 0)
(0.065445648 -0.10692535 0)
(0.040303792 -0.11605549 0)
(0.01361106 -0.12071189 0)
(-0.011033946 -0.096382131 0)
(-0.032681213 -0.092663758 0)
(-0.053069437 -0.085372086 0)
(-0.071413878 -0.074792752 0)
(-0.087009484 -0.061338931 0)
(-0.099257942 -0.045534643 0)
(-0.10769112 -0.027993121 0)
(-0.11198822 -0.0093906433 0)
(-0.11198676 0.0095596772 0)
(-0.1076872 0.028134907 0)
(-0.099252789 0.045626666 0)
(-0.087004613 0.061367044 0)
(-0.071410454 0.074752819 0)
(-0.053068169 0.085270208 0)
(-0.032682386 0.092515279 0)
(-0.011037415 0.096209204 0)
(0.011032955 0.096209728 0)
(0.032678216 0.092516793 0)
(0.053064538 0.08527259 0)
(0.071407577 0.074755847 0)
(0.0870026 0.061370417 0)
(0.09925162 0.045630101 0)
(0.10768674 0.028138176 0)
(0.11198673 0.0095626866 0)
(0.11198846 -0.0093877199 0)
(0.10769168 -0.02799005 0)
(0.099259075 -0.045531386 0)
(0.087011387 -0.061335693 0)
(0.071416609 -0.074789777 0)
(0.053072943 -0.085369683 0)
(0.032685304 -0.092662203 0)
(0.011038366 -0.096381583 0)
(-0.0087338177 -0.077024251 0)
(-0.025868198 -0.074051943 0)
(-0.042005171 -0.068223414 0)
(-0.056523231 -0.059766968 0)
(-0.068864205 -0.049013023 0)
(-0.078554808 -0.036380555 0)
(-0.085224891 -0.022359751 0)
(-0.088620984 -0.0074916348 0)
(-0.088615022 0.0076530912 0)
(-0.085208096 0.022495641 0)
(-0.078530213 0.036469514 0)
(-0.068836075 0.049041287 0)
(-0.056496182 0.059730236 0)
(-0.041983488 0.068127251 0)
(-0.02585527 0.073910836 0)
(-0.0087316953 0.076859349 0)
(0.0087281316 0.076859746 0)
(0.025851921 0.073911986 0)
(0.041980535 0.068129063 0)
(0.056493776 0.059732558 0)
(0.0688343 0.049043924 0)
(0.078529076 0.036472279 0)
(0.085207526 0.022498381 0)
(0.088614895 0.0076557369 0)
(0.08862122 -0.0074890323 0)
(0.085225514 -0.022357117 0)
(0.078555929 -0.036377897 0)
(0.068865916 -0.049010468 0)
(0.05652555 -0.059764688 0)
(0.042008042 -0.068221606 0)
(0.025871483 -0.07405078 0)
(0.0087373349 -0.077023846 0)
(-0.0068831398 -0.061803516 0)
(-0.020386707 -0.059418197 0)
(-0.033103855 -0.054740742 0)
(-0.044544591 -0.047954307 0)
(-0.054268913 -0.039324049 0)
(-0.061903846 -0.029186196 0)
(-0.067157709 -0.017934185 0)
(-0.069830842 -0.0060025569 0)
(-0.069822564 0.0061501032 0)
(-0.067134262 0.018058618 0)
(-0.06186912 0.029268092 0)
(-0.054228553 0.039350713 0)
(-0.044505005 0.047921603 0)
(-0.033071232 0.054653581 0)
(-0.020366125 0.059289717 0)
(-0.006877851 0.061653046 0)
(0.0068749679 0.06165335 0)
(0.020363401 0.0592906 0)
(0.033068804 0.054654976 0)
(0.044502984 0.047923407 0)
(0.054227011 0.039352796 0)
(0.061868074 0.029270325 0)
(0.067133686 0.018060893 0)
(0.069822403 0.0061523596 0)
(0.069831059 -0.0060003233 0)
(0.067158313 -0.017931968 0)
(0.061904882 -0.029184027 0)
(0.054270417 -0.039322019 0)
(0.044546556 -0.047952535 0)
(0.033106227 -0.054739357 0)
(0.020389381 -0.059417314 0)
(0.00688598 -0.06180321 0)
(-0.0054821275 -0.049786788 0)
(-0.01623715 -0.047865042 0)
(-0.026365675 -0.044096622 0)
(-0.035477342 -0.038629041 0)
(-0.043221613 -0.031675893 0)
(-0.049301345 -0.023508053 0)
(-0.053484138 -0.014442561 0)
(-0.055610943 -0.0048297613 0)
(-0.055601695 0.0049604828 0)
(-0.053457884 0.014552955 0)
(-0.049262289 0.023580974 0)
(-0.043175947 0.03170004 0)
(-0.035432225 0.038600635 0)
(-0.026328132 0.044019908 0)
(-0.016213025 0.047751595 0)
(-0.0054752334 0.049653729 0)
(0.0054728719 0.049653962 0)
(0.016210784 0.047752276 0)
(0.026326116 0.04402099 0)
(0.035430522 0.038602044 0)
(0.043174615 0.031701688 0)
(0.049261354 0.02358277 0)
(0.053457344 0.014554819 0)
(0.05560153 0.0049623622 0)
(0.055611136 -0.0048278943 0)
(0.053484692 -0.014440729 0)
(0.049302272 -0.023506296 0)
(0.04322292 -0.031674279 0)
(0.035479009 -0.038627654 0)
(0.026367651 -0.044095552 0)
(0.016239353 -0.047864365 0)
(0.0054844529 -0.049786555 0)
(-0.0044765531 -0.040222003 0)
(-0.013258804 -0.038669355 0)
(-0.021529373 -0.035624707 0)
(-0.028969431 -0.031207204 0)
(-0.035292653 -0.025589381 0)
(-0.040256311 -0.018990074 0)
(-0.043670551 -0.011665475 0)
(-0.045405481 -0.0038987918 0)
(-0.045395815 0.004010937 0)
(-0.043643068 0.0117603 0)
(-0.040215315 0.019052929 0)
(-0.035244554 0.025610565 0)
(-0.028921717 0.03118342 0)
(-0.021489459 0.03555953 0)
(-0.013232904 0.038572655 0)
(-0.0044687618 0.040108435 0)
(0.0044668004 0.040108611 0)
(0.013231036 0.038573168 0)
(0.021487766 0.035560348 0)
(0.028920271 0.031184494 0)
(0.035243403 0.025611833 0)
(0.04021449 0.019054329 0)
(0.043642578 0.011761772 0)
(0.045395658 0.004012436 0)
(0.04540565 -0.0038972997 0)
(0.043671045 -0.011664021 0)
(0.040257128 -0.018988697 0)
(0.035293785 -0.025588133 0)
(0.028970852 -0.031206145 0)
(0.021531037 -0.035623898 0)
(0.013260643 -0.038668846 0)
(0.0044784858 -0.040221829 0)
(-0.0038226629 -0.031275848 0)
(-0.011322042 -0.030068226 0)
(-0.018384354 -0.027700179 0)
(-0.024737263 -0.024264434 0)
(-0.030136198 -0.019895264 0)
(-0.034373826 -0.014762962 0)
(-0.037287984 -0.0090668843 0)
(-0.038767767 -0.0030274293 0)
(-0.038757602 0.0031226976 0)
(-0.037259038 0.0091474122 0)
(-0.034330588 0.01481629 0)
(-0.030085373 0.019913136 0)
(-0.024686724 0.024244026 0)
(-0.018341932 0.027644512 0)
(-0.011294335 0.029985689 0)
(-0.0038140394 0.031178921 0)
(0.0038123695 0.031179065 0)
(0.01129274 0.029986111 0)
(0.01834048 0.027645188 0)
(0.024685473 0.02424492 0)
(0.030084368 0.0199142 0)
(0.034329859 0.014817476 0)
(0.037258599 0.0091486707 0)
(0.038757457 0.0031239879 0)
(0.038767916 -0.0030261434 0)
(0.037288423 -0.0090656375 0)
(0.034374548 -0.014761792 0)
(0.030137189 -0.019894215 0)
(0.024738495 -0.024263554 0)
(0.018385784 -0.027699512 0)
(0.011323614 -0.030067808 0)
(0.0038243097 -0.031275706 0)
(-0.0035494813 -0.026981107 0)
(-0.010512769 -0.025939831 0)
(-0.017070186 -0.023897905 0)
(-0.022968828 -0.020935114 0)
(-0.027981555 -0.017167037 0)
(-0.031915799 -0.012740332 0)
(-0.034620958 -0.007826783 0)
(-0.035994076 -0.0026163974 0)
(-0.03598368 0.0026901823 0)
(-0.034591395 0.0078892253 0)
(-0.03187163 0.012781849 0)
(-0.02792959 0.017181273 0)
(-0.022917088 0.020919887 0)
(-0.017026667 0.023855528 0)
(-0.01048422 0.025876754 0)
(-0.0035403838 0.026906932 0)
(0.0035389814 0.026907032 0)
(0.010482877 0.025877049 0)
(0.017025439 0.023856002 0)
(0.022916023 0.020920515 0)
(0.027928727 0.017182026 0)
(0.031870996 0.012782693 0)
(0.03459101 0.0078901272 0)
(0.03598355 0.0026911111 0)
(0.035994204 -0.0026154701 0)
(0.034621339 -0.0078258856 0)
(0.031916424 -0.012739494 0)
(0.027982407 -0.017166291 0)
(0.022969879 -0.020934491 0)
(0.017071399 -0.023897434 0)
(0.010514096 -0.025939538 0)
(0.0035508674 -0.026981007 0)
(-0.003450197 -0.014334551 0)
(-0.010218651 -0.013780615 0)
(-0.01659247 -0.012694447 0)
(-0.022325764 -0.0111187 0)
(-0.027197719 -0.0091151263 0)
(-0.031021155 -0.006762002 0)
(-0.033649709 -0.0041508602 0)
(-0.034983249 -0.0013827696 0)
(-0.034971902 0.0014356537 0)
(-0.033617411 0.0041955407 0)
(-0.030972895 0.006791549 0)
(-0.02714092 0.0091249517 0)
(-0.022269179 0.011107224 0)
(-0.016544827 0.012663341 0)
(-0.010187323 0.013734545 0)
(-0.0034400857 0.014280461 0)
(0.0034387393 0.014280539 0)
(0.010186033 0.013734772 0)
(0.016543645 0.012663706 0)
(0.022268152 0.011107707 0)
(0.027140085 0.0091255288 0)
(0.030972281 0.0067921943 0)
(0.033617036 0.0041962286 0)
(0.034971777 0.0014363608 0)
(0.034983374 -0.0013820647 0)
(0.033650081 -0.0041501789 0)
(0.031021763 -0.0067613668 0)
(0.027198544 -0.0091145606 0)
(0.022326778 -0.011118228 0)
(0.016593637 -0.01269409 0)
(0.010219925 -0.013780393 0)
(0.0034515264 -0.014334476 0)
(-0.0039290083 -0.016924507 0)
(-0.011636706 -0.016271989 0)
(-0.018895194 -0.014992313 0)
(-0.025424532 -0.013135288 0)
(-0.03097325 -0.010773117 0)
(-0.035328081 -0.0079974969 0)
(-0.038322222 -0.004915943 0)
(-0.039841643 -0.0016476465 0)
(-0.039830373 0.0016819839 0)
(-0.038290042 0.0049450303 0)
(-0.035280024 0.0080168371 0)
(-0.030916694 0.010779785 0)
(-0.025368191 0.013128268 0)
(-0.018847761 0.014972676 0)
(-0.01160553 0.016242732 0)
(-0.0039189779 0.016890098 0)
(0.0039175919 0.016890152 0)
(0.011604198 0.016242893 0)
(0.018846533 0.014972937 0)
(0.025367115 0.013128618 0)
(0.03091581 0.01078021 0)
(0.035279366 0.0080173204 0)
(0.038289636 0.004945553 0)
(0.039830233 0.0016825269 0)
(0.039841774 -0.0016471028 0)
(0.038322619 -0.0049154182 0)
(0.035328728 -0.0079970113 0)
(0.030974125 -0.010772689 0)
(0.025425599 -0.013134935 0)
(0.018896414 -0.01499205 0)
(0.011638032 -0.016271826 0)
(0.0039303876 -0.016924452 0)
(-0.0035631939 0.0049239043 0)
(-0.010553761 0.0047347687 0)
(-0.017136946 0.0043637484 0)
(-0.023058881 0.0038250501 0)
(-0.028091546 0.0031392993 0)
(-0.032041659 0.002332747 0)
(-0.03475837 0.00143634 0)
(-0.03613724 0.00048535392 0)
(-0.036126568 -0.00048070576 0)
(-0.034727501 -0.0014324976 0)
(-0.031995732 -0.0023302418 0)
(-0.028037496 -0.0031386012 0)
(-0.023005091 -0.0038263036 0)
(-0.017091761 -0.0043667926 0)
(-0.010524226 -0.0047391725 0)
(-0.0035539881 -0.0049290327 0)
(0.0035522225 -0.0049290219 0)
(0.010522534 -0.0047391417 0)
(0.017090209 -0.0043667464 0)
(0.023003741 -0.0038262488 0)
(0.028036398 -0.0031385451 0)
(0.031994925 -0.00233019 0)
(0.034727008 -0.0014324531 0)