/*--------------------------------*- C++ -*----------------------------------*\
| =========                 |                                                 |
| \\      /  F ield         | OpenFOAM: The Open Source CFD Toolbox           |
|  \\    /   O peration     | Version:  2106                                  |
|   \\  /    A nd           | Website:  www.openfoam.com                      |
|    \\/     M anipulation  |                                                 |
\*---------------------------------------------------------------------------*/
FoamFile
{
    version     2.0;
    format      ascii;
    arch        "LSB;label=32;scalar=64";
    class       volScalarField;
    location    "2.4";
    object      p_rgh;
}
// * * * * * * * * * * * * * * * * * * * * * * * * * * * * * * * * * * * * * //

dimensions      [1 -1 -2 0 0 0 0];

internalField   nonuniform List<scalar> 
90000
(
0.00333333
0.00333336
0.00333353
0.00333384
0.00333427
0.00333483
0.00333552
0.00333632
0.00333724
0.00333828
0.00333943
0.00334069
0.00334206
0.00334354
0.00334512
0.0033468
0.00334857
0.00335044
0.0033524
0.00335445
0.00335658
0.00335879
0.00336107
0.00336343
0.00336585
0.00336834
0.00337088
0.00337348
0.00337613
0.00337882
0.00338155
0.00338432
0.00338712
0.00338994
0.00339279
0.00339565
0.00339852
0.00340139
0.00340427
0.00340714
0.00341
0.00341284
0.00341567
0.00341847
0.00342124
0.00342397
0.00342667
0.00342932
0.00343192
0.00343447
0.00343696
0.00343938
0.00344175
0.00344404
0.00344625
0.00344839
0.00345045
0.00345242
0.0034543
0.00345609
0.00345778
0.00345937
0.00346086
0.00346225
0.00346352
0.00346469
0.00346575
0.0034667
0.00346753
0.00346825
0.00346884
0.00346932
0.00346968
0.00346992
0.00347004
0.00347004
0.00346992
0.00346967
0.00346931
0.00346883
0.00346823
0.00346751
0.00346668
0.00346573
0.00346467
0.00346349
0.00346221
0.00346082
0.00345933
0.00345773
0.00345604
0.00345425
0.00345237
0.00345039
0.00344833
0.00344619
0.00344397
0.00344168
0.00343931
0.00343688
0.00343439
0.00343184
0.00342923
0.00342658
0.00342388
0.00342114
0.00341836
0.00341556
0.00341273
0.00340988
0.00340702
0.00340414
0.00340126
0.00339839
0.00339551
0.00339265
0.0033898
0.00338697
0.00338416
0.00338139
0.00337865
0.00337595
0.0033733
0.00337069
0.00336814
0.00336564
0.00336321
0.00336085
0.00335855
0.00335634
0.0033542
0.00335214
0.00335017
0.00334829
0.0033465
0.0033448
0.00334321
0.00334172
0.00334033
0.00333905
0.00333788
0.00333682
0.00333587
0.00333504
0.00333432
0.00333372
0.00333324
0.00333288
0.00333263
0.00333251
0.00333312
0.0033332
0.00333339
0.0033337
0.00333414
0.00333471
0.0033354
0.0033362
0.00333713
0.00333817
0.00333932
0.00334059
0.00334196
0.00334344
0.00334502
0.0033467
0.00334848
0.00335035
0.00335232
0.00335437
0.0033565
0.00335871
0.003361
0.00336336
0.00336579
0.00336828
0.00337083
0.00337343
0.00337608
0.00337878
0.00338152
0.00338429
0.00338709
0.00338992
0.00339277
0.00339564
0.00339851
0.00340139
0.00340427
0.00340715
0.00341001
0.00341286
0.00341569
0.0034185
0.00342127
0.00342401
0.00342671
0.00342936
0.00343197
0.00343452
0.00343702
0.00343945
0.00344182
0.00344411
0.00344633
0.00344847
0.00345053
0.00345251
0.00345439
0.00345618
0.00345787
0.00345947
0.00346096
0.00346235
0.00346363
0.0034648
0.00346587
0.00346681
0.00346765
0.00346836
0.00346896
0.00346944
0.0034698
0.00347004
0.00347016
0.00347016
0.00347004
0.00346979
0.00346943
0.00346895
0.00346835
0.00346763
0.00346679
0.00346584
0.00346478
0.0034636
0.00346232
0.00346093
0.00345943
0.00345783
0.00345613
0.00345434
0.00345245
0.00345048
0.00344842
0.00344627
0.00344405
0.00344175
0.00343938
0.00343694
0.00343445
0.00343189
0.00342928
0.00342662
0.00342392
0.00342117
0.00341839
0.00341559
0.00341275
0.0034099
0.00340703
0.00340415
0.00340126
0.00339838
0.0033955
0.00339263
0.00338978
0.00338694
0.00338413
0.00338136
0.00337861
0.00337591
0.00337325
0.00337064
0.00336808
0.00336558
0.00336315
0.00336078
0.00335848
0.00335626
0.00335411
0.00335205
0.00335008
0.00334819
0.0033464
0.00334471
0.00334311
0.00334161
0.00334022
0.00333894
0.00333777
0.0033367
0.00333575
0.00333492
0.0033342
0.0033336
0.00333312
0.00333276
0.00333251
0.00333239
0.00333281
0.00333291
0.00333312
0.00333344
0.00333389
0.00333446
0.00333516
0.00333597
0.0033369
0.00333794
0.0033391
0.00334037
0.00334175
0.00334323
0.00334482
0.00334651
0.0033483
0.00335017
0.00335215
0.0033542
0.00335634
0.00335856
0.00336086
0.00336323
0.00336566
0.00336816
0.00337072
0.00337333
0.003376
0.0033787
0.00338145
0.00338423
0.00338704
0.00338988
0.00339274
0.00339562
0.0033985
0.00340139
0.00340428
0.00340717
0.00341004
0.0034129
0.00341574
0.00341855
0.00342134
0.00342409
0.0034268
0.00342946
0.00343208
0.00343464
0.00343714
0.00343958
0.00344196
0.00344426
0.00344649
0.00344864
0.0034507
0.00345268
0.00345457
0.00345637
0.00345807
0.00345967
0.00346117
0.00346256
0.00346385
0.00346503
0.00346609
0.00346704
0.00346788
0.00346859
0.0034692
0.00346968
0.00347004
0.00347028
0.0034704
0.0034704
0.00347027
0.00347003
0.00346967
0.00346918
0.00346858
0.00346786
0.00346702
0.00346607
0.003465
0.00346382
0.00346253
0.00346113
0.00345963
0.00345803
0.00345633
0.00345453
0.00345263
0.00345065
0.00344858
0.00344643
0.0034442
0.00344189
0.00343951
0.00343707
0.00343456
0.003432
0.00342938
0.00342671
0.00342399
0.00342124
0.00341845
0.00341563
0.00341279
0.00340993
0.00340705
0.00340416
0.00340126
0.00339837
0.00339548
0.0033926
0.00338974
0.00338689
0.00338407
0.00338129
0.00337853
0.00337582
0.00337315
0.00337053
0.00336796
0.00336546
0.00336301
0.00336064
0.00335833
0.0033561
0.00335395
0.00335188
0.0033499
0.00334801
0.00334621
0.00334451
0.00334291
0.00334141
0.00334001
0.00333872
0.00333755
0.00333648
0.00333553
0.00333469
0.00333397
0.00333337
0.00333288
0.00333252
0.00333228
0.00333215
0.00333239
0.0033325
0.00333272
0.00333306
0.00333352
0.0033341
0.0033348
0.00333562
0.00333655
0.0033376
0.00333877
0.00334005
0.00334143
0.00334293
0.00334452
0.00334622
0.00334802
0.0033499
0.00335189
0.00335395
0.00335611
0.00335834
0.00336065
0.00336303
0.00336548
0.00336799
0.00337056
0.00337319
0.00337586
0.00337858
0.00338134
0.00338414
0.00338697
0.00338982
0.0033927
0.00339558
0.00339848
0.00340139
0.0034043
0.0034072
0.00341009
0.00341296
0.00341581
0.00341864
0.00342144
0.00342421
0.00342693
0.00342961
0.00343224
0.00343481
0.00343733
0.00343978
0.00344217
0.00344448
0.00344672
0.00344888
0.00345096
0.00345295
0.00345485
0.00345666
0.00345837
0.00345998
0.00346148
0.00346288
0.00346418
0.00346536
0.00346643
0.00346738
0.00346822
0.00346895
0.00346955
0.00347003
0.0034704
0.00347064
0.00347076
0.00347076
0.00347063
0.00347039
0.00347002
0.00346954
0.00346893
0.00346821
0.00346736
0.0034664
0.00346533
0.00346415
0.00346285
0.00346145
0.00345994
0.00345832
0.00345661
0.0034548
0.0034529
0.00345091
0.00344883
0.00344666
0.00344442
0.0034421
0.00343971
0.00343726
0.00343474
0.00343216
0.00342952
0.00342684
0.00342411
0.00342135
0.00341854
0.00341571
0.00341285
0.00340997
0.00340708
0.00340417
0.00340126
0.00339835
0.00339545
0.00339256
0.00338968
0.00338682
0.00338398
0.00338118
0.00337841
0.00337569
0.003373
0.00337037
0.00336779
0.00336527
0.00336281
0.00336042
0.00335811
0.00335586
0.0033537
0.00335162
0.00334963
0.00334773
0.00334592
0.00334421
0.0033426
0.00334109
0.00333969
0.0033384
0.00333721
0.00333614
0.00333518
0.00333434
0.00333362
0.00333301
0.00333253
0.00333216
0.00333192
0.00333179
0.00333186
0.00333198
0.00333221
0.00333255
0.00333302
0.00333361
0.00333432
0.00333514
0.00333609
0.00333715
0.00333833
0.00333961
0.00334101
0.00334251
0.00334412
0.00334583
0.00334764
0.00334954
0.00335154
0.00335362
0.00335579
0.00335804
0.00336036
0.00336276
0.00336523
0.00336776
0.00337034
0.00337299
0.00337568
0.00337842
0.0033812
0.00338402
0.00338687
0.00338974
0.00339263
0.00339554
0.00339846
0.00340139
0.00340431
0.00340723
0.00341014
0.00341304
0.00341591
0.00341876
0.00342158
0.00342436
0.00342711
0.0034298
0.00343245
0.00343504
0.00343758
0.00344005
0.00344245
0.00344478
0.00344704
0.00344922
0.00345131
0.00345331
0.00345522
0.00345704
0.00345876
0.00346038
0.0034619
0.00346331
0.00346461
0.0034658
0.00346688
0.00346784
0.00346869
0.00346942
0.00347002
0.00347051
0.00347088
0.00347112
0.00347124
0.00347124
0.00347112
0.00347087
0.0034705
0.00347001
0.0034694
0.00346867
0.00346782
0.00346686
0.00346578
0.00346458
0.00346328
0.00346186
0.00346034
0.00345872
0.003457
0.00345518
0.00345326
0.00345125
0.00344916
0.00344698
0.00344472
0.00344239
0.00343998
0.00343751
0.00343497
0.00343237
0.00342972
0.00342702
0.00342427
0.00342148
0.00341866
0.00341581
0.00341293
0.00341003
0.00340712
0.00340419
0.00340126
0.00339833
0.00339541
0.00339249
0.0033896
0.00338672
0.00338386
0.00338104
0.00337825
0.00337551
0.00337281
0.00337015
0.00336756
0.00336502
0.00336255
0.00336014
0.00335781
0.00335555
0.00335337
0.00335128
0.00334927
0.00334736
0.00334554
0.00334382
0.00334219
0.00334068
0.00333926
0.00333796
0.00333677
0.00333569
0.00333472
0.00333388
0.00333315
0.00333254
0.00333205
0.00333168
0.00333143
0.00333131
0.00333122
0.00333134
0.00333157
0.00333193
0.0033324
0.003333
0.00333372
0.00333456
0.00333551
0.00333658
0.00333777
0.00333907
0.00334048
0.003342
0.00334362
0.00334535
0.00334717
0.00334909
0.0033511
0.0033532
0.00335539
0.00335766
0.00336
0.00336242
0.00336491
0.00336746
0.00337007
0.00337274
0.00337546
0.00337822
0.00338103
0.00338387
0.00338674
0.00338964
0.00339256
0.00339549
0.00339844
0.00340139
0.00340434
0.00340728
0.00341022
0.00341314
0.00341604
0.00341891
0.00342175
0.00342456
0.00342733
0.00343005
0.00343272
0.00343534
0.00343789
0.00344038
0.00344281
0.00344516
0.00344743
0.00344963
0.00345174
0.00345376
0.00345569
0.00345752
0.00345926
0.00346089
0.00346242
0.00346385
0.00346516
0.00346636
0.00346745
0.00346842
0.00346927
0.00347
0.00347062
0.00347111
0.00347148
0.00347172
0.00347185
0.00347184
0.00347172
0.00347147
0.0034711
0.00347061
0.00346999
0.00346925
0.0034684
0.00346742
0.00346633
0.00346513
0.00346381
0.00346239
0.00346085
0.00345922
0.00345748
0.00345564
0.00345371
0.00345168
0.00344957
0.00344738
0.0034451
0.00344274
0.00344032
0.00343782
0.00343526
0.00343264
0.00342997
0.00342724
0.00342447
0.00342166
0.00341881
0.00341594
0.00341303
0.00341011
0.00340717
0.00340422
0.00340126
0.00339831
0.00339536
0.00339242
0.00338949
0.00338659
0.00338371
0.00338087
0.00337805
0.00337528
0.00337256
0.00336989
0.00336727
0.00336471
0.00336221
0.00335978
0.00335743
0.00335515
0.00335296
0.00335085
0.00334882
0.00334689
0.00334506
0.00334332
0.00334168
0.00334015
0.00333873
0.00333741
0.00333621
0.00333512
0.00333415
0.00333329
0.00333256
0.00333194
0.00333145
0.00333108
0.00333083
0.0033307
0.00333046
0.00333058
0.00333082
0.00333118
0.00333167
0.00333227
0.003333
0.00333385
0.00333482
0.0033359
0.0033371
0.00333842
0.00333984
0.00334138
0.00334302
0.00334476
0.0033466
0.00334855
0.00335058
0.0033527
0.00335491
0.0033572
0.00335957
0.00336202
0.00336453
0.00336711
0.00336975
0.00337244
0.00337519
0.00337798
0.00338082
0.00338369
0.00338659
0.00338952
0.00339246
0.00339543
0.00339841
0.00340139
0.00340437
0.00340734
0.00341031
0.00341326
0.00341619
0.00341909
0.00342196
0.0034248
0.0034276
0.00343034
0.00343304
0.00343569
0.00343827
0.00344079
0.00344324
0.00344561
0.00344791
0.00345013
0.00345226
0.0034543
0.00345625
0.0034581
0.00345986
0.00346151
0.00346305
0.00346449
0.00346582
0.00346703
0.00346813
0.00346911
0.00346997
0.00347071
0.00347133
0.00347183
0.0034722
0.00347245
0.00347257
0.00347257
0.00347245
0.0034722
0.00347182
0.00347132
0.0034707
0.00346995
0.00346909
0.00346811
0.003467
0.00346579
0.00346446
0.00346302
0.00346147
0.00345982
0.00345806
0.0034562
0.00345425
0.00345221
0.00345007
0.00344785
0.00344555
0.00344317
0.00344072
0.0034382
0.00343561
0.00343296
0.00343026
0.00342751
0.00342471
0.00342187
0.00341899
0.00341609
0.00341315
0.0034102
0.00340723
0.00340425
0.00340126
0.00339828
0.0033953
0.00339233
0.00338937
0.00338644
0.00338353
0.00338066
0.00337781
0.00337502
0.00337226
0.00336956
0.00336692
0.00336433
0.00336181
0.00335936
0.00335698
0.00335468
0.00335246
0.00335032
0.00334828
0.00334633
0.00334447
0.00334272
0.00334107
0.00333952
0.00333808
0.00333675
0.00333554
0.00333444
0.00333345
0.00333259
0.00333185
0.00333123
0.00333073
0.00333035
0.0033301
0.00332998
0.00332957
0.0033297
0.00332994
0.00333031
0.00333081
0.00333142
0.00333216
0.00333302
0.003334
0.0033351
0.00333632
0.00333765
0.0033391
0.00334065
0.00334231
0.00334408
0.00334594
0.00334791
0.00334997
0.00335211
0.00335435
0.00335667
0.00335907
0.00336154
0.00336409
0.0033667
0.00336937
0.00337209
0.00337487
0.0033777
0.00338057
0.00338347
0.00338641
0.00338937
0.00339236
0.00339536
0.00339837
0.00340139
0.0034044
0.00340741
0.00341042
0.0034134
0.00341636
0.0034193
0.00342221
0.00342508
0.00342791
0.00343069
0.00343342
0.0034361
0.00343871
0.00344126
0.00344374
0.00344614
0.00344847
0.00345071
0.00345287
0.00345494
0.00345691
0.00345878
0.00346056
0.00346223
0.00346379
0.00346525
0.00346659
0.00346782
0.00346893
0.00346992
0.00347079
0.00347154
0.00347217
0.00347267
0.00347305
0.0034733
0.00347343
0.00347343
0.0034733
0.00347304
0.00347266
0.00347216
0.00347153
0.00347078
0.0034699
0.0034689
0.00346779
0.00346656
0.00346521
0.00346376
0.00346219
0.00346052
0.00345874
0.00345686
0.00345489
0.00345282
0.00345066
0.00344841
0.00344608
0.00344367
0.00344119
0.00343864
0.00343602
0.00343334
0.00343061
0.00342782
0.00342499
0.00342212
0.00341921
0.00341626
0.00341329
0.0034103
0.0034073
0.00340428
0.00340126
0.00339824
0.00339522
0.00339222
0.00338923
0.00338626
0.00338332
0.00338041
0.00337753
0.0033747
0.00337192
0.00336918
0.0033665
0.00336389
0.00336134
0.00335885
0.00335645
0.00335412
0.00335187
0.00334971
0.00334765
0.00334567
0.00334379
0.00334202
0.00334034
0.00333878
0.00333732
0.00333598
0.00333475
0.00333364
0.00333264
0.00333177
0.00333102
0.00333039
0.00332988
0.0033295
0.00332925
0.00332912
0.00332857
0.00332869
0.00332895
0.00332932
0.00332983
0.00333045
0.0033312
0.00333208
0.00333307
0.00333419
0.00333542
0.00333677
0.00333824
0.00333981
0.0033415
0.00334329
0.00334518
0.00334717
0.00334926
0.00335144
0.00335371
0.00335606
0.00335849
0.003361
0.00336358
0.00336622
0.00336893
0.00337169
0.00337451
0.00337737
0.00338028
0.00338323
0.0033862
0.00338921
0.00339223
0.00339527
0.00339833
0.00340138
0.00340444
0.00340749
0.00341054
0.00341356
0.00341657
0.00341955
0.00342249
0.0034254
0.00342827
0.00343109
0.00343386
0.00343657
0.00343922
0.0034418
0.00344431
0.00344675
0.00344911
0.00345138
0.00345357
0.00345566
0.00345766
0.00345956
0.00346136
0.00346306
0.00346464
0.00346612
0.00346748
0.00346872
0.00346985
0.00347085
0.00347174
0.0034725
0.00347313
0.00347364
0.00347403
0.00347428
0.00347441
0.00347441
0.00347428
0.00347402
0.00347363
0.00347312
0.00347248
0.00347172
0.00347083
0.00346982
0.00346869
0.00346745
0.00346608
0.00346461
0.00346302
0.00346132
0.00345952
0.00345762
0.00345561
0.00345352
0.00345133
0.00344905
0.00344669
0.00344425
0.00344173
0.00343915
0.00343649
0.00343378
0.00343101
0.00342818
0.00342531
0.0034224
0.00341945
0.00341647
0.00341346
0.00341043
0.00340738
0.00340432
0.00340126
0.0033982
0.00339514
0.0033921
0.00338906
0.00338606
0.00338307
0.00338012
0.00337721
0.00337434
0.00337152
0.00336875
0.00336603
0.00336338
0.00336079
0.00335828
0.00335584
0.00335348
0.0033512
0.00334901
0.00334692
0.00334491
0.00334301
0.00334121
0.00333952
0.00333793
0.00333645
0.00333509
0.00333385
0.00333272
0.00333171
0.00333082
0.00333006
0.00332942
0.00332891
0.00332853
0.00332827
0.00332814
0.00332744
0.00332756
0.00332782
0.00332821
0.00332872
0.00332936
0.00333012
0.00333101
0.00333202
0.00333316
0.00333441
0.00333578
0.00333727
0.00333887
0.00334058
0.0033424
0.00334432
0.00334634
0.00334846
0.00335068
0.00335298
0.00335537
0.00335784
0.00336038
0.003363
0.00336568
0.00336843
0.00337124
0.0033741
0.00337701
0.00337996
0.00338295
0.00338597
0.00338902
0.00339209
0.00339518
0.00339828
0.00340138
0.00340449
0.00340759
0.00341067
0.00341375
0.0034168
0.00341982
0.00342281
0.00342576
0.00342867
0.00343154
0.00343435
0.0034371
0.00343979
0.00344241
0.00344496
0.00344744
0.00344983
0.00345214
0.00345436
0.00345649
0.00345852
0.00346045
0.00346227
0.00346399
0.0034656
0.0034671
0.00346848
0.00346974
0.00347088
0.00347191
0.0034728
0.00347358
0.00347422
0.00347474
0.00347513
0.00347539
0.00347551
0.00347551
0.00347538
0.00347512
0.00347473
0.00347421
0.00347356
0.00347279
0.00347188
0.00347086
0.00346971
0.00346845
0.00346706
0.00346557
0.00346395
0.00346223
0.0034604
0.00345847
0.00345644
0.00345431
0.00345209
0.00344977
0.00344738
0.0034449
0.00344235
0.00343972
0.00343703
0.00343427
0.00343146
0.00342859
0.00342568
0.00342272
0.00341972
0.0034167
0.00341364
0.00341056
0.00340747
0.00340437
0.00340126
0.00339815
0.00339505
0.00339196
0.00338888
0.00338583
0.0033828
0.0033798
0.00337685
0.00337393
0.00337107
0.00336825
0.0033655
0.0033628
0.00336018
0.00335763
0.00335515
0.00335275
0.00335044
0.00334822
0.00334609
0.00334406
0.00334213
0.0033403
0.00333858
0.00333697
0.00333547
0.00333409
0.00333282
0.00333168
0.00333066
0.00332976
0.00332898
0.00332834
0.00332782
0.00332743
0.00332716
0.00332703
0.00332618
0.00332631
0.00332657
0.00332696
0.00332748
0.00332813
0.00332891
0.00332982
0.00333085
0.003332
0.00333328
0.00333468
0.00333619
0.00333782
0.00333956
0.00334141
0.00334336
0.00334542
0.00334757
0.00334982
0.00335217
0.00335459
0.0033571
0.00335969
0.00336235
0.00336508
0.00336788
0.00337073
0.00337364
0.0033766
0.0033796
0.00338264
0.00338571
0.00338881
0.00339193
0.00339507
0.00339822
0.00340138
0.00340454
0.00340769
0.00341083
0.00341395
0.00341705
0.00342013
0.00342317
0.00342617
0.00342913
0.00343204
0.0034349
0.0034377
0.00344043
0.0034431
0.00344569
0.00344821
0.00345064
0.00345299
0.00345524
0.00345741
0.00345947
0.00346143
0.00346329
0.00346504
0.00346667
0.00346819
0.0034696
0.00347088
0.00347204
0.00347308
0.003474
0.00347478
0.00347544
0.00347596
0.00347636
0.00347662
0.00347675
0.00347675
0.00347662
0.00347635
0.00347595
0.00347542
0.00347476
0.00347398
0.00347306
0.00347202
0.00347086
0.00346957
0.00346816
0.00346664
0.003465
0.00346325
0.00346139
0.00345942
0.00345736
0.00345519
0.00345293
0.00345058
0.00344815
0.00344563
0.00344303
0.00344036
0.00343762
0.00343482
0.00343196
0.00342905
0.00342608
0.00342308
0.00342003
0.00341695
0.00341385
0.00341072
0.00340757
0.00340442
0.00340126
0.0033981
0.00339494
0.0033918
0.00338867
0.00338557
0.00338249
0.00337944
0.00337644
0.00337348
0.00337056
0.0033677
0.0033649
0.00336216
0.00335949
0.0033569
0.00335438
0.00335194
0.00334959
0.00334734
0.00334517
0.00334311
0.00334114
0.00333928
0.00333753
0.0033359
0.00333437
0.00333297
0.00333168
0.00333052
0.00332948
0.00332856
0.00332778
0.00332712
0.00332659
0.00332619
0.00332593
0.00332579
0.00332479
0.00332492
0.00332519
0.00332559
0.00332612
0.00332678
0.00332758
0.0033285
0.00332955
0.00333073
0.00333203
0.00333345
0.00333499
0.00333665
0.00333842
0.00334031
0.0033423
0.00334439
0.00334659
0.00334888
0.00335126
0.00335374
0.00335629
0.00335893
0.00336164
0.00336442
0.00336727
0.00337017
0.00337313
0.00337614
0.0033792
0.0033823
0.00338542
0.00338858
0.00339176
0.00339496
0.00339816
0.00340138
0.00340459
0.0034078
0.003411
0.00341418
0.00341733
0.00342046
0.00342356
0.00342662
0.00342963
0.0034326
0.00343551
0.00343835
0.00344114
0.00344385
0.00344649
0.00344906
0.00345153
0.00345392
0.00345622
0.00345842
0.00346052
0.00346252
0.00346441
0.00346619
0.00346786
0.00346941
0.00347084
0.00347214
0.00347333
0.00347439
0.00347531
0.00347611
0.00347678
0.00347732
0.00347772
0.00347799
0.00347812
0.00347812
0.00347798
0.00347771
0.00347731
0.00347677
0.0034761
0.0034753
0.00347436
0.0034733
0.00347212
0.00347081
0.00346938
0.00346782
0.00346615
0.00346437
0.00346248
0.00346048
0.00345838
0.00345617
0.00345387
0.00345148
0.003449
0.00344643
0.00344379
0.00344107
0.00343828
0.00343543
0.00343252
0.00342955
0.00342653
0.00342347
0.00342037
0.00341724
0.00341407
0.00341089
0.00340769
0.00340448
0.00340126
0.00339804
0.00339483
0.00339163
0.00338844
0.00338528
0.00338215
0.00337905
0.00337599
0.00337297
0.00337
0.00336709
0.00336424
0.00336145
0.00335873
0.00335609
0.00335353
0.00335105
0.00334866
0.00334636
0.00334415
0.00334205
0.00334005
0.00333816
0.00333638
0.00333471
0.00333316
0.00333173
0.00333042
0.00332923
0.00332817
0.00332724
0.00332644
0.00332577
0.00332523
0.00332483
0.00332456
0.00332442
0.00332326
0.0033234
0.00332367
0.00332408
0.00332463
0.0033253
0.00332611
0.00332706
0.00332813
0.00332933
0.00333066
0.00333211
0.00333368
0.00333537
0.00333718
0.0033391
0.00334113
0.00334327
0.00334551
0.00334784
0.00335028
0.0033528
0.0033554
0.00335809
0.00336086
0.00336369
0.00336659
0.00336956
0.00337258
0.00337565
0.00337876
0.00338192
0.00338511
0.00338833
0.00339157
0.00339483
0.0033981
0.00340137
0.00340465
0.00340792
0.00341118
0.00341442
0.00341764
0.00342084
0.00342399
0.00342711
0.00343018
0.00343321
0.00343617
0.00343908
0.00344192
0.00344469
0.00344738
0.00344999
0.00345252
0.00345495
0.0034573
0.00345954
0.00346168
0.00346372
0.00346565
0.00346746
0.00346916
0.00347074
0.0034722
0.00347353
0.00347474
0.00347582
0.00347676
0.00347758
0.00347826
0.00347881
0.00347922
0.00347949
0.00347962
0.00347962
0.00347948
0.00347921
0.00347879
0.00347825
0.00347756
0.00347674
0.0034758
0.00347471
0.00347351
0.00347217
0.00347071
0.00346913
0.00346743
0.00346561
0.00346368
0.00346164
0.00345949
0.00345725
0.0034549
0.00345246
0.00344993
0.00344732
0.00344462
0.00344185
0.00343901
0.0034361
0.00343313
0.0034301
0.00342703
0.0034239
0.00342074
0.00341755
0.00341432
0.00341108
0.00340781
0.00340454
0.00340126
0.00339798
0.0033947
0.00339144
0.00338819
0.00338497
0.00338177
0.00337861
0.00337549
0.00337242
0.00336939
0.00336642
0.00336351
0.00336067
0.0033579
0.00335521
0.00335259
0.00335006
0.00334762
0.00334528
0.00334303
0.00334089
0.00333885
0.00333692
0.0033351
0.0033334
0.00333182
0.00333036
0.00332903
0.00332782
0.00332674
0.00332579
0.00332498
0.00332429
0.00332374
0.00332333
0.00332306
0.00332292
0.0033216
0.00332175
0.00332202
0.00332244
0.003323
0.00332369
0.00332452
0.00332548
0.00332658
0.0033278
0.00332916
0.00333064
0.00333225
0.00333398
0.00333582
0.00333779
0.00333986
0.00334204
0.00334433
0.00334671
0.0033492
0.00335177
0.00335443
0.00335718
0.00336
0.0033629
0.00336586
0.00336889
0.00337197
0.0033751
0.00337828
0.00338151
0.00338476
0.00338805
0.00339136
0.00339469
0.00339803
0.00340137
0.00340472
0.00340806
0.00341138
0.0034147
0.00341798
0.00342124
0.00342447
0.00342765
0.00343079
0.00343387
0.0034369
0.00343987
0.00344277
0.00344559
0.00344834
0.00345101
0.00345359
0.00345608
0.00345847
0.00346076
0.00346295
0.00346503
0.00346699
0.00346885
0.00347058
0.00347219
0.00347368
0.00347504
0.00347628
0.00347738
0.00347834
0.00347918
0.00347987
0.00348043
0.00348085
0.00348113
0.00348127
0.00348126
0.00348112
0.00348084
0.00348042
0.00347986
0.00347916
0.00347833
0.00347736
0.00347625
0.00347502
0.00347365
0.00347216
0.00347055
0.00346881
0.00346696
0.00346499
0.0034629
0.00346071
0.00345842
0.00345602
0.00345353
0.00345095
0.00344828
0.00344553
0.0034427
0.0034398
0.00343683
0.00343379
0.00343071
0.00342756
0.00342438
0.00342115
0.00341789
0.0034146
0.00341128
0.00340795
0.00340461
0.00340126
0.00339791
0.00339456
0.00339123
0.00338792
0.00338462
0.00338136
0.00337814
0.00337495
0.00337181
0.00336872
0.00336569
0.00336272
0.00335982
0.00335699
0.00335424
0.00335157
0.00334899
0.0033465
0.0033441
0.00334181
0.00333962
0.00333754
0.00333557
0.00333372
0.00333198
0.00333037
0.00332888
0.00332751
0.00332628
0.00332518
0.00332421
0.00332338
0.00332268
0.00332212
0.0033217
0.00332142
0.00332127
0.00331981
0.00331995
0.00332024
0.00332066
0.00332123
0.00332194
0.00332279
0.00332377
0.00332489
0.00332615
0.00332754
0.00332905
0.0033307
0.00333246
0.00333435
0.00333636
0.00333848
0.00334071
0.00334305
0.00334549
0.00334803
0.00335066
0.00335338
0.00335619
0.00335907
0.00336203
0.00336506
0.00336816
0.00337131
0.00337451
0.00337777
0.00338106
0.00338439
0.00338775
0.00339113
0.00339453
0.00339795
0.00340137
0.00340479
0.0034082
0.00341161
0.00341499
0.00341835
0.00342168
0.00342498
0.00342823
0.00343144
0.0034346
0.00343769
0.00344072
0.00344369
0.00344658
0.00344939
0.00345211
0.00345475
0.00345729
0.00345974
0.00346208
0.00346432
0.00346644
0.00346846
0.00347035
0.00347212
0.00347377
0.00347529
0.00347669
0.00347795
0.00347907
0.00348006
0.00348091
0.00348162
0.00348219
0.00348262
0.0034829
0.00348305
0.00348304
0.0034829
0.00348261
0.00348218
0.00348161
0.00348089
0.00348004
0.00347905
0.00347792
0.00347666
0.00347527
0.00347374
0.00347209
0.00347032
0.00346842
0.0034664
0.00346428
0.00346204
0.00345969
0.00345724
0.0034547
0.00345206
0.00344933
0.00344651
0.00344362
0.00344065
0.00343762
0.00343452
0.00343136
0.00342815
0.00342489
0.00342159
0.00341826
0.00341489
0.0034115
0.0034081
0.00340468
0.00340125
0.00339783
0.00339441
0.003391
0.00338762
0.00338425
0.00338092
0.00337762
0.00337436
0.00337115
0.003368
0.0033649
0.00336186
0.00335889
0.003356
0.00335319
0.00335046
0.00334782
0.00334528
0.00334283
0.00334049
0.00333825
0.00333612
0.00333411
0.00333221
0.00333044
0.00332879
0.00332726
0.00332587
0.00332461
0.00332348
0.00332249
0.00332164
0.00332093
0.00332035
0.00331992
0.00331964
0.00331949
0.00331787
0.00331801
0.00331831
0.00331874
0.00331933
0.00332005
0.00332092
0.00332193
0.00332308
0.00332436
0.00332578
0.00332734
0.00332902
0.00333083
0.00333276
0.00333482
0.00333699
0.00333927
0.00334166
0.00334416
0.00334676
0.00334946
0.00335224
0.00335512
0.00335807
0.0033611
0.0033642
0.00336737
0.0033706
0.00337388
0.0033772
0.00338058
0.00338398
0.00338742
0.00339089
0.00339437
0.00339786
0.00340136
0.00340487
0.00340836
0.00341184
0.00341531
0.00341875
0.00342216
0.00342553
0.00342886
0.00343215
0.00343538
0.00343855
0.00344165
0.00344468
0.00344764
0.00345052
0.00345331
0.00345601
0.00345861
0.00346111
0.00346351
0.0034658
0.00346798
0.00347004
0.00347198
0.00347379
0.00347548
0.00347704
0.00347846
0.00347975
0.0034809
0.00348191
0.00348278
0.00348351
0.00348409
0.00348453
0.00348482
0.00348497
0.00348497
0.00348482
0.00348453
0.00348408
0.0034835
0.00348277
0.0034819
0.00348088
0.00347973
0.00347843
0.00347701
0.00347545
0.00347376
0.00347194
0.00347
0.00346794
0.00346576
0.00346347
0.00346107
0.00345856
0.00345595
0.00345325
0.00345046
0.00344758
0.00344462
0.00344158
0.00343847
0.0034353
0.00343207
0.00342878
0.00342545
0.00342207
0.00341866
0.00341521
0.00341174
0.00340826
0.00340476
0.00340125
0.00339775
0.00339425
0.00339076
0.00338729
0.00338385
0.00338044
0.00337706
0.00337373
0.00337044
0.00336721
0.00336404
0.00336093
0.0033579
0.00335494
0.00335206
0.00334926
0.00334656
0.00334396
0.00334145
0.00333905
0.00333676
0.00333458
0.00333252
0.00333058
0.00332877
0.00332708
0.00332552
0.00332409
0.0033228
0.00332165
0.00332064
0.00331976
0.00331903
0.00331845
0.00331801
0.00331771
0.00331756
0.00331578
0.00331593
0.00331623
0.00331668
0.00331728
0.00331802
0.00331891
0.00331995
0.00332112
0.00332244
0.0033239
0.00332549
0.00332721
0.00332907
0.00333105
0.00333316
0.00333538
0.00333772
0.00334018
0.00334274
0.0033454
0.00334816
0.00335102
0.00335396
0.00335699
0.0033601
0.00336328
0.00336652
0.00336983
0.00337319
0.0033766
0.00338006
0.00338355
0.00338707
0.00339062
0.00339419
0.00339777
0.00340136
0.00340495
0.00340853
0.0034121
0.00341565
0.00341918
0.00342267
0.00342613
0.00342954
0.00343291
0.00343622
0.00343946
0.00344265
0.00344576
0.00344879
0.00345173
0.00345459
0.00345736
0.00346003
0.00346259
0.00346505
0.0034674
0.00346963
0.00347174
0.00347372
0.00347558
0.00347731
0.00347891
0.00348037
0.00348169
0.00348287
0.00348391
0.0034848
0.00348555
0.00348614
0.00348659
0.00348689
0.00348704
0.00348704
0.00348689
0.00348659
0.00348613
0.00348553
0.00348479
0.00348389
0.00348285
0.00348167
0.00348034
0.00347888
0.00347728
0.00347555
0.00347369
0.0034717
0.00346959
0.00346735
0.00346501
0.00346255
0.00345998
0.00345731
0.00345454
0.00345168
0.00344872
0.00344569
0.00344258
0.00343939
0.00343614
0.00343283
0.00342946
0.00342604
0.00342258
0.00341908
0.00341556
0.003412
0.00340843
0.00340484
0.00340125
0.00339766
0.00339407
0.0033905
0.00338695
0.00338342
0.00337992
0.00337646
0.00337304
0.00336968
0.00336637
0.00336312
0.00335993
0.00335682
0.00335379
0.00335084
0.00334798
0.00334521
0.00334254
0.00333997
0.00333751
0.00333516
0.00333293
0.00333082
0.00332883
0.00332697
0.00332524
0.00332364
0.00332218
0.00332086
0.00331968
0.00331864
0.00331774
0.003317
0.0033164
0.00331594
0.00331564
0.00331549
0.00331354
0.0033137
0.00331401
0.00331447
0.00331508
0.00331584
0.00331676
0.00331782
0.00331903
0.00332038
0.00332188
0.00332351
0.00332528
0.00332718
0.00332922
0.00333138
0.00333366
0.00333606
0.00333858
0.00334121
0.00334394
0.00334678
0.00334971
0.00335273
0.00335583
0.00335902
0.00336228
0.00336561
0.003369
0.00337245
0.00337595
0.0033795
0.00338308
0.0033867
0.00339034
0.003394
0.00339768
0.00340136
0.00340504
0.00340871
0.00341237
0.00341602
0.00341963
0.00342322
0.00342677
0.00343027
0.00343372
0.00343712
0.00344045
0.00344371
0.0034469
0.00345001
0.00345304
0.00345597
0.00345881
0.00346155
0.00346418
0.0034667
0.00346911
0.0034714
0.00347356
0.0034756
0.00347751
0.00347928
0.00348092
0.00348242
0.00348377
0.00348498
0.00348605
0.00348696
0.00348773
0.00348834
0.0034888
0.00348911
0.00348926
0.00348926
0.0034891
0.00348879
0.00348833
0.00348772
0.00348695
0.00348603
0.00348496
0.00348375
0.00348239
0.00348089
0.00347925
0.00347748
0.00347556
0.00347352
0.00347136
0.00346907
0.00346666
0.00346413
0.0034615
0.00345876
0.00345592
0.00345298
0.00344995
0.00344684
0.00344365
0.00344038
0.00343704
0.00343364
0.00343019
0.00342668
0.00342313
0.00341954
0.00341592
0.00341228
0.00340861
0.00340493
0.00340125
0.00339756
0.00339388
0.00339022
0.00338657
0.00338295
0.00337937
0.00337582
0.00337231
0.00336886