/*--------------------------------*- C++ -*----------------------------------*\
| =========                 |                                                 |
| \\      /  F ield         | OpenFOAM: The Open Source CFD Toolbox           |
|  \\    /   O peration     | Version:  2106                                  |
|   \\  /    A nd           | Website:  www.openfoam.com                      |
|    \\/     M anipulation  |                                                 |
\*---------------------------------------------------------------------------*/
FoamFile
{
    version     2.0;
    format      ascii;
    arch        "LSB;label=32;scalar=64";
    class       surfaceScalarField;
    location    "2.4";
    object      phi_0;
}
// * * * * * * * * * * * * * * * * * * * * * * * * * * * * * * * * * * * * * //

dimensions      [0 3 -1 0 0 0 0];

oriented        oriented;

internalField   nonuniform List<scalar> 
179250
(
-5.83581e-08
5.83256e-08
-1.16552e-07
5.8192e-08
-1.74515e-07
5.79615e-08
-2.32152e-07
5.76356e-08
-2.89366e-07
5.7214e-08
-3.46062e-07
5.6696e-08
-4.02144e-07
5.60814e-08
-4.57514e-07
5.53707e-08
-5.12079e-07
5.45644e-08
-5.65742e-07
5.36636e-08
-6.18412e-07
5.26696e-08
-6.69996e-07
5.15838e-08
-7.20404e-07
5.04079e-08
-7.69548e-07
4.9144e-08
-8.17342e-07
4.77941e-08
-8.63702e-07
4.63606e-08
-9.08548e-07
4.48459e-08
-9.51801e-07
4.32526e-08
-9.93384e-07
4.15835e-08
-1.03323e-06
3.98415e-08
-1.07126e-06
3.80297e-08
-1.10741e-06
3.61511e-08
-1.14162e-06
3.42092e-08
-1.17382e-06
3.22073e-08
-1.20397e-06
3.01489e-08
-1.23201e-06
2.80376e-08
-1.25789e-06
2.58771e-08
-1.28156e-06
2.36712e-08
-1.30298e-06
2.14237e-08
-1.32212e-06
1.91387e-08
-1.33894e-06
1.682e-08
-1.35341e-06
1.44718e-08
-1.36551e-06
1.20983e-08
-1.37521e-06
9.70341e-09
-1.38251e-06
7.29152e-09
-1.38737e-06
4.8668e-09
-1.38981e-06
2.43352e-09
-1.3898e-06
-4.07416e-12
-1.38736e-06
-2.44169e-09
-1.38248e-06
-4.87507e-09
-1.37518e-06
-7.29993e-09
-1.36547e-06
-9.71202e-09
-1.35337e-06
-1.21071e-08
-1.33888e-06
-1.4481e-08
-1.32206e-06
-1.68295e-08
-1.30291e-06
-1.91485e-08
-1.28147e-06
-2.1434e-08
-1.25779e-06
-2.36819e-08
-1.2319e-06
-2.58883e-08
-1.20385e-06
-2.80493e-08
-1.17369e-06
-3.01612e-08
-1.14147e-06
-3.22201e-08
-1.10725e-06
-3.42226e-08
-1.07108e-06
-3.6165e-08
-1.03304e-06
-3.8044e-08
-9.93184e-07
-3.98563e-08
-9.51585e-07
-4.15987e-08
-9.08317e-07
-4.32682e-08
-8.63455e-07
-4.48617e-08
-8.17079e-07
-4.63766e-08
-7.69269e-07
-4.78101e-08
-7.20109e-07
-4.91597e-08
-6.69686e-07
-5.04231e-08
-6.18088e-07
-5.1598e-08
-5.65405e-07
-5.26824e-08
-5.11731e-07
-5.36744e-08
-4.57159e-07
-5.45723e-08
-4.01784e-07
-5.53743e-08
-3.45705e-07
-5.60793e-08
-2.89019e-07
-5.66858e-08
-2.31826e-07
-5.71929e-08
-1.74227e-07
-5.75996e-08
-1.16321e-07
-5.79053e-08
-5.82119e-08
-5.81094e-08
-3.31243e-13
-5.82116e-08
5.82112e-08
-5.82116e-08
1.16321e-07
-5.81094e-08
1.74226e-07
-5.79053e-08
2.31826e-07
-5.75997e-08
2.89019e-07
-5.71929e-08
3.45704e-07
-5.66858e-08
4.01784e-07
-5.60793e-08
4.57158e-07
-5.53743e-08
5.1173e-07
-5.45723e-08
5.65405e-07
-5.36744e-08
6.18087e-07
-5.26824e-08
6.69685e-07
-5.1598e-08
7.20108e-07
-5.04231e-08
7.69268e-07
-4.91597e-08
8.17078e-07
-4.781e-08
8.63454e-07
-4.63765e-08
9.08316e-07
-4.48617e-08
9.51584e-07
-4.32682e-08
9.93183e-07
-4.15987e-08
1.03304e-06
-3.98563e-08
1.07108e-06
-3.8044e-08
1.10725e-06
-3.6165e-08
1.14147e-06
-3.42226e-08
1.17369e-06
-3.22201e-08
1.20385e-06
-3.01612e-08
1.2319e-06
-2.80493e-08
1.25779e-06
-2.58883e-08
1.28147e-06
-2.36819e-08
1.30291e-06
-2.1434e-08
1.32205e-06
-1.91485e-08
1.33888e-06
-1.68295e-08
1.35336e-06
-1.4481e-08
1.36547e-06
-1.21071e-08
1.37518e-06
-9.712e-09
1.38248e-06
-7.29991e-09
1.38736e-06
-4.87505e-09
1.3898e-06
-2.44168e-09
1.3898e-06
-4.05374e-12
1.38737e-06
2.43354e-09
1.3825e-06
4.86683e-09
1.37521e-06
7.29154e-09
1.36551e-06
9.70344e-09
1.35341e-06
1.20983e-08
1.33894e-06
1.44719e-08
1.32212e-06
1.682e-08
1.30298e-06
1.91387e-08
1.28156e-06
2.14237e-08
1.25789e-06
2.36712e-08
1.23201e-06
2.58771e-08
1.20397e-06
2.80376e-08
1.17382e-06
3.01489e-08
1.14161e-06
3.22074e-08
1.10741e-06
3.42093e-08
1.07125e-06
3.61512e-08
1.03322e-06
3.80297e-08
9.93383e-07
3.98416e-08
9.51799e-07
4.15836e-08
9.08546e-07
4.32527e-08
8.637e-07
4.4846e-08
8.1734e-07
4.63607e-08
7.69545e-07
4.77943e-08
7.20401e-07
4.91442e-08
6.69993e-07
5.04081e-08
6.18409e-07
5.1584e-08
5.65739e-07
5.26699e-08
5.12075e-07
5.3664e-08
4.5751e-07
5.45649e-08
4.02139e-07
5.53713e-08
3.46057e-07
5.60823e-08
2.8936e-07
5.66971e-08
2.32144e-07
5.72157e-08
1.74506e-07
5.76381e-08
1.16541e-07
5.79651e-08
5.83418e-08
5.81989e-08
5.83418e-08
-5.84914e-08
1.16815e-07
-1.16834e-07
1.16532e-07
-1.74939e-07
1.16065e-07
-2.32715e-07
1.15411e-07
-2.90067e-07
1.14566e-07
-3.46899e-07
1.13528e-07
-4.03116e-07
1.12298e-07
-4.5862e-07
1.10875e-07
-5.13315e-07
1.0926e-07
-5.67108e-07
1.07456e-07
-6.19904e-07
1.05466e-07
-6.71612e-07
1.03292e-07
-7.22142e-07
1.00937e-07
-7.71404e-07
9.84065e-08
-8.19314e-07
9.57035e-08
-8.65786e-07
9.2833e-08
-9.1074e-07
8.97999e-08
-9.54097e-07
8.66095e-08
-9.95781e-07
8.32673e-08
-1.03572e-06
7.97791e-08
-1.07384e-06
7.61511e-08
-1.11008e-06
7.23895e-08
-1.14437e-06
6.8501e-08
-1.17665e-06
6.44923e-08
-1.20688e-06
6.03705e-08
-1.23498e-06
5.61428e-08
-1.26092e-06
5.18166e-08
-1.28465e-06
4.73995e-08
-1.30613e-06
4.28991e-08
-1.32531e-06
3.83235e-08
-1.34217e-06
3.36806e-08
-1.35668e-06
2.89786e-08
-1.3688e-06
2.42257e-08
-1.37853e-06
1.94303e-08
-1.38584e-06
1.46007e-08
-1.39072e-06
9.74539e-09
-1.39316e-06
4.87294e-09
-1.39315e-06
-8.11902e-12
-1.39071e-06
-4.88924e-09
-1.38582e-06
-9.76186e-09
-1.3785e-06
-1.46174e-08
-1.36877e-06
-1.94474e-08
-1.35663e-06
-2.42434e-08
-1.34212e-06
-2.89969e-08
-1.32525e-06
-3.36996e-08
-1.30605e-06
-3.83433e-08
-1.28456e-06
-4.29197e-08
-1.26083e-06
-4.7421e-08
-1.23488e-06
-5.18391e-08
-1.20676e-06
-5.61663e-08
-1.17652e-06
-6.03951e-08
-1.14423e-06
-6.4518e-08
-1.10992e-06
-6.85277e-08
-1.07367e-06
-7.24173e-08
-1.03553e-06
-7.61799e-08
-9.95581e-07
-7.98088e-08
-9.53881e-07
-8.32978e-08
-9.10509e-07
-8.66407e-08
-8.65539e-07
-8.98317e-08
-8.19051e-07
-9.2865e-08
-7.71125e-07
-9.57355e-08
-7.21847e-07
-9.8438e-08
-6.71302e-07
-1.00968e-07
-6.19579e-07
-1.03321e-07
-5.6677e-07
-1.05492e-07
-5.12966e-07
-1.07478e-07
-4.58262e-07
-1.09276e-07
-4.02754e-07
-1.10882e-07
-3.46539e-07
-1.12294e-07
-2.89717e-07
-1.13508e-07
-2.32386e-07
-1.14524e-07
-1.74647e-07
-1.15338e-07
-1.16602e-07
-1.1595e-07
-5.83524e-08
-1.16359e-07
-3.38551e-13
-1.16564e-07
5.83517e-08
-1.16564e-07
1.16601e-07
-1.16359e-07
1.74646e-07
-1.1595e-07
2.32385e-07
-1.15338e-07
2.89716e-07
-1.14524e-07
3.46539e-07
-1.13508e-07
4.02753e-07
-1.12294e-07
4.58261e-07
-1.10882e-07
5.12965e-07
-1.09276e-07
5.66769e-07
-1.07478e-07
6.19579e-07
-1.05492e-07
6.71301e-07
-1.03321e-07
7.21846e-07
-1.00968e-07
7.71124e-07
-9.8438e-08
8.1905e-07
-9.57355e-08
8.65538e-07
-9.2865e-08
9.10508e-07
-8.98316e-08
9.53881e-07
-8.66407e-08
9.9558e-07
-8.32978e-08
1.03553e-06
-7.98088e-08
1.07367e-06
-7.61798e-08
1.10992e-06
-7.24173e-08
1.14423e-06
-6.85277e-08
1.17652e-06
-6.45179e-08
1.20676e-06
-6.03951e-08
1.23487e-06
-5.61663e-08
1.26083e-06
-5.18391e-08
1.28456e-06
-4.74209e-08
1.30605e-06
-4.29197e-08
1.32524e-06
-3.83432e-08
1.34211e-06
-3.36996e-08
1.35663e-06
-2.89969e-08
1.36877e-06
-2.42434e-08
1.3785e-06
-1.94474e-08
1.38582e-06
-1.46174e-08
1.39071e-06
-9.76182e-09
1.39315e-06
-4.8892e-09
1.39316e-06
-8.07949e-12
1.39072e-06
4.87299e-09
1.38584e-06
9.74544e-09
1.37853e-06
1.46007e-08
1.3688e-06
1.94303e-08
1.35668e-06
2.42258e-08
1.34217e-06
2.89787e-08
1.32531e-06
3.36807e-08
1.30612e-06
3.83236e-08
1.28465e-06
4.28992e-08
1.26092e-06
4.73995e-08
1.23498e-06
5.18167e-08
1.20688e-06
5.61429e-08
1.17665e-06
6.03706e-08
1.14437e-06
6.44924e-08
1.11008e-06
6.85011e-08
1.07384e-06
7.23896e-08
1.03572e-06
7.61512e-08
9.95779e-07
7.97793e-08
9.54095e-07
8.32675e-08
9.10738e-07
8.66097e-08
8.65784e-07
8.98001e-08
8.19311e-07
9.28332e-08
7.71402e-07
9.57038e-08
7.22139e-07
9.84068e-08
6.7161e-07
1.00938e-07
6.19901e-07
1.03292e-07
5.67105e-07
1.05467e-07
5.13312e-07
1.07457e-07
4.58616e-07
1.09261e-07
4.03111e-07
1.10876e-07
3.46894e-07
1.12299e-07
2.90061e-07
1.1353e-07
2.32708e-07
1.14569e-07
1.74931e-07
1.15415e-07
1.16826e-07
1.16071e-07
5.84845e-08
1.1654e-07
1.16826e-07
-5.87219e-08
1.75535e-07
-1.17299e-07
1.75108e-07
-1.75639e-07
1.74404e-07
-2.33648e-07
1.73419e-07
-2.9123e-07
1.72148e-07
-3.48291e-07
1.70589e-07
-4.04732e-07
1.68739e-07
-4.60458e-07
1.66601e-07
-5.15373e-07
1.64175e-07
-5.69381e-07
1.61465e-07
-6.22389e-07
1.58474e-07
-6.74304e-07
1.55207e-07
-7.25036e-07
1.51669e-07
-7.74496e-07
1.47866e-07
-8.22597e-07
1.43805e-07
-8.69256e-07
1.39492e-07
-9.1439e-07
1.34934e-07
-9.57921e-07
1.3014e-07
-9.99772e-07
1.25118e-07
-1.03987e-06
1.19877e-07
-1.07814e-06
1.14425e-07
-1.11453e-06
1.08773e-07
-1.14896e-06
1.0293e-07
-1.18137e-06
9.69068e-08
-1.21171e-06
9.07133e-08
-1.23993e-06
8.43607e-08
-1.26598e-06
7.78601e-08
-1.2898e-06
7.12229e-08
-1.31136e-06
6.44607e-08
-1.33062e-06
5.75854e-08
-1.34755e-06
5.06089e-08
-1.36212e-06
4.35436e-08
-1.37429e-06
3.64019e-08
-1.38406e-06
2.91962e-08
-1.3914e-06
2.19392e-08
-1.39629e-06
1.46436e-08
-1.39874e-06
7.32223e-09
-1.39874e-06
-1.21042e-11
-1.39628e-06
-7.34653e-09
-1.39138e-06
-1.46682e-08
-1.38403e-06
-2.19642e-08
-1.37425e-06
-2.92218e-08
-1.36207e-06
-3.64283e-08
-1.3475e-06
-4.35709e-08
-1.33056e-06
-5.06373e-08
-1.31129e-06
-5.76149e-08
-1.28971e-06
-6.44915e-08
-1.26588e-06
-7.12551e-08
-1.23983e-06
-7.78938e-08
-1.2116e-06
-8.4396e-08
-1.18124e-06
-9.07502e-08
-1.14881e-06
-9.69453e-08
-1.11437e-06
-1.0297e-07
-1.07797e-06
-1.08815e-07
-1.03969e-06
-1.14469e-07
-9.99572e-07
-1.19921e-07
-9.57706e-07
-1.25164e-07
-9.1416e-07
-1.30187e-07
-8.69009e-07
-1.34982e-07
-8.22335e-07
-1.3954e-07
-7.74217e-07
-1.43853e-07
-7.24741e-07
-1.47914e-07
-6.73994e-07
-1.51715e-07
-6.22064e-07
-1.5525e-07
-5.69043e-07
-1.58513e-07
-5.15023e-07
-1.61498e-07
-4.601e-07
-1.642e-07
-4.04369e-07
-1.66613e-07
-3.47929e-07
-1.68734e-07
-2.90878e-07
-1.70559e-07
-2.33318e-07
-1.72085e-07
-1.75347e-07
-1.73309e-07
-1.1707e-07
-1.74228e-07
-5.85864e-08
-1.74842e-07
-3.46322e-13
-1.7515e-07
5.85857e-08
-1.7515e-07
1.17069e-07
-1.74842e-07
1.75347e-07
-1.74228e-07
2.33317e-07
-1.73309e-07
2.90878e-07
-1.72085e-07
3.47928e-07
-1.70559e-07
4.04368e-07
-1.68734e-07
4.60099e-07
-1.66613e-07
5.15022e-07
-1.642e-07
5.69042e-07
-1.61498e-07
6.22063e-07
-1.58513e-07
6.73993e-07
-1.5525e-07
7.2474e-07
-1.51715e-07
7.74216e-07
-1.47914e-07
8.22334e-07
-1.43853e-07
8.69009e-07
-1.3954e-07
9.14159e-07
-1.34982e-07
9.57705e-07
-1.30187e-07
9.99572e-07
-1.25164e-07
1.03968e-06
-1.19921e-07
1.07797e-06
-1.14469e-07
1.11437e-06
-1.08815e-07
1.14881e-06
-1.0297e-07
1.18124e-06
-9.69452e-08
1.2116e-06
-9.07501e-08
1.23983e-06
-8.4396e-08
1.26588e-06
-7.78938e-08
1.28971e-06
-7.12551e-08
1.31129e-06
-6.44915e-08
1.33056e-06
-5.76148e-08
1.3475e-06
-5.06372e-08
1.36207e-06
-4.35709e-08
1.37425e-06
-3.64282e-08
1.38403e-06
-2.92217e-08
1.39138e-06
-2.19641e-08
1.39628e-06
-1.46681e-08
1.39874e-06
-7.34647e-09
1.39874e-06
-1.20468e-11
1.39629e-06
7.32229e-09
1.3914e-06
1.46437e-08
1.38406e-06
2.19393e-08
1.37429e-06
2.91963e-08
1.36211e-06
3.6402e-08
1.34755e-06
4.35437e-08
1.33062e-06
5.0609e-08
1.31136e-06
5.75855e-08
1.2898e-06
6.44608e-08
1.26597e-06
7.1223e-08
1.23993e-06
7.78603e-08
1.21171e-06
8.43609e-08
1.18137e-06
9.07135e-08
1.14896e-06
9.69069e-08
1.11453e-06
1.0293e-07
1.07814e-06
1.08773e-07
1.03987e-06
1.14426e-07
9.9977e-07
1.19877e-07
9.57919e-07
1.25118e-07
9.14388e-07
1.3014e-07
8.69254e-07
1.34934e-07
8.22595e-07
1.39492e-07
7.74494e-07
1.43805e-07
7.25034e-07
1.47867e-07
6.74302e-07
1.5167e-07
6.22386e-07
1.55208e-07
5.69378e-07
1.58475e-07
5.1537e-07
1.61466e-07
4.60455e-07
1.64176e-07
4.04728e-07
1.66602e-07
3.48286e-07
1.68741e-07
2.91225e-07
1.70591e-07
2.33642e-07
1.72152e-07
1.75633e-07
1.73424e-07
1.17294e-07
1.7441e-07
5.87183e-08
1.75116e-07
1.75545e-07
-5.9049e-08
2.34583e-07
-1.17955e-07
2.34013e-07
-1.76622e-07
2.33071e-07
-2.34956e-07
2.31753e-07
-2.92862e-07
2.30054e-07
-3.50242e-07
2.27969e-07
-4.07001e-07
2.25497e-07
-4.63039e-07
2.22639e-07
-5.18262e-07
2.19397e-07
-5.72573e-07
2.15776e-07
-6.25878e-07
2.11779e-07
-6.78084e-07
2.07413e-07
-7.291e-07
2.02685e-07
-7.78837e-07
1.97603e-07
-8.27208e-07
1.92176e-07
-8.74128e-07
1.86412e-07
-9.19515e-07
1.80321e-07
-9.6329e-07
1.73915e-07
-1.00538e-06
1.67204e-07
-1.0457e-06
1.60199e-07
-1.08419e-06
1.52914e-07
-1.12077e-06
1.45361e-07
-1.1554e-06
1.37553e-07
-1.18799e-06
1.29503e-07
-1.21851e-06
1.21226e-07
-1.24688e-06
1.12737e-07
-1.27307e-06
1.0405e-07
-1.29703e-06
9.518e-08
-1.31871e-06
8.61432e-08
-1.33808e-06
7.69553e-08
-1.3551e-06
6.76322e-08
-1.36975e-06
5.81904e-08
-1.382e-06
4.86464e-08
-1.39182e-06
3.9017e-08
-1.3992e-06
2.9319e-08
-1.40412e-06
1.95694e-08
-1.40658e-06
9.78535e-09
-1.40658e-06
-1.60041e-11
-1.40411e-06
-9.81748e-09
-1.39918e-06
-1.96019e-08
-1.39179e-06
-2.9352e-08
-1.38196e-06
-3.90509e-08
-1.36971e-06
-4.86813e-08
-1.35505e-06
-5.82266e-08
-1.33802e-06
-6.76698e-08
-1.31864e-06
-7.69944e-08
-1.29695e-06
-8.61842e-08
-1.27298e-06
-9.52228e-08
-1.24678e-06
-1.04095e-07
-1.21839e-06
-1.12784e-07
-1.18786e-06
-1.21275e-07
-1.15526e-06
-1.29554e-07
-1.12062e-06
-1.37606e-07
-1.08402e-06
-1.45416e-07
-1.04551e-06
-1.52972e-07
-1.00518e-06
-1.60259e-07
-9.63076e-07
-1.67265e-07
-9.19286e-07
-1.73978e-07
-8.73882e-07
-1.80385e-07
-8.26946e-07
-1.86476e-07
-7.78558e-07
-1.9224e-07
-7.28805e-07
-1.97667e-07
-6.77773e-07
-2.02747e-07
-6.25552e-07
-2.07472e-07
-5.72234e-07
-2.11832e-07
-5.17911e-07
-2.15821e-07
-4.6268e-07
-2.19431e-07
-4.06637e-07
-2.22656e-07
-3.4988e-07
-2.2549e-07
-2.9251e-07
-2.27929e-07
-2.34626e-07
-2.29968e-07
-1.76331e-07
-2.31604e-07
-1.17726e-07
-2.32833e-07
-5.89149e-08
-2.33654e-07
-3.53091e-13
-2.34064e-07
5.89142e-08
-2.34064e-07
1.17725e-07
-2.33654e-07
1.7633e-07
-2.32833e-07
2.34625e-07
-2.31604e-07
2.92509e-07
-2.29968e-07
3.49879e-07
-2.27929e-07
4.06636e-07
-2.2549e-07
4.62679e-07
-2.22656e-07
5.1791e-07
-2.19431e-07
5.72233e-07
-2.15821e-07
6.25551e-07
-2.11832e-07
6.77773e-07
-2.07472e-07
7.28804e-07
-2.02747e-07
7.78558e-07
-1.97667e-07
8.26945e-07
-1.9224e-07
8.73882e-07
-1.86476e-07
9.19285e-07
-1.80385e-07
9.63076e-07
-1.73978e-07
1.00518e-06
-1.67265e-07
1.04551e-06
-1.60259e-07
1.08402e-06
-1.52972e-07
1.12062e-06
-1.45416e-07
1.15525e-06
-1.37606e-07
1.18786e-06
-1.29554e-07
1.21839e-06
-1.21275e-07
1.24678e-06
-1.12784e-07
1.27298e-06
-1.04095e-07
1.29695e-06
-9.52228e-08
1.31864e-06
-8.61841e-08
1.33802e-06
-7.69944e-08
1.35505e-06
-6.76697e-08
1.36971e-06
-5.82265e-08
1.38196e-06
-4.86813e-08
1.39179e-06
-3.90508e-08
1.39918e-06
-2.9352e-08
1.40411e-06
-1.96018e-08
1.40658e-06
-9.81741e-09
1.40658e-06
-1.59301e-11
1.40412e-06
9.78543e-09
1.39919e-06
1.95695e-08
1.39182e-06
2.93191e-08
1.38199e-06
3.90171e-08
1.36975e-06
4.86465e-08
1.3551e-06
5.81905e-08
1.33808e-06
6.76323e-08
1.31871e-06
7.69554e-08
1.29703e-06
8.61434e-08
1.27307e-06
9.51802e-08
1.24688e-06
1.0405e-07
1.2185e-06
1.12737e-07
1.18799e-06
1.21227e-07
1.15539e-06
1.29503e-07
1.12077e-06
1.37553e-07
1.08418e-06
1.45361e-07
1.0457e-06
1.52914e-07
1.00537e-06
1.602e-07
9.63288e-07
1.67204e-07
9.19513e-07
1.73915e-07
8.74126e-07
1.80322e-07
8.27206e-07
1.86412e-07
7.78835e-07
1.92176e-07
7.29097e-07
1.97604e-07
6.78081e-07
2.02686e-07
6.25875e-07
2.07414e-07
5.7257e-07
2.1178e-07
5.18259e-07
2.15777e-07
4.63036e-07
2.19399e-07
4.06997e-07
2.22641e-07
3.50238e-07
2.255e-07
2.92858e-07
2.27972e-07
2.34952e-07
2.30058e-07
1.76617e-07
2.31758e-07
1.17951e-07
2.33076e-07
5.90465e-08
2.3402e-07
2.34591e-07
-5.94742e-08
2.94057e-07
-1.18805e-07
2.93344e-07
-1.77896e-07
2.92161e-07
-2.36652e-07
2.90509e-07
-2.94976e-07
2.88379e-07
-3.52772e-07
2.85765e-07
-4.0994e-07
2.82666e-07
-4.66384e-07
2.79083e-07
-5.22005e-07
2.75019e-07
-5.76709e-07
2.70479e-07
-6.30399e-07
2.65469e-07
-6.82982e-07
2.59996e-07
-7.34367e-07
2.5407e-07
-7.84463e-07
2.477e-07
-8.33183e-07
2.40896e-07
-8.80443e-07
2.33671e-07
-9.26158e-07
2.26036e-07
-9.70249e-07
2.18006e-07
-1.01264e-06
2.09593e-07
-1.05325e-06
2.00813e-07
-1.09202e-06
1.91681e-07
-1.12887e-06
1.82213e-07
-1.16374e-06
1.72425e-07
-1.19658e-06
1.62335e-07
-1.22731e-06
1.5196e-07
-1.25589e-06
1.41318e-07
-1.28227e-06
1.30429e-07
-1.3064e-06
1.1931e-07
-1.32824e-06
1.07983e-07
-1.34775e-06
9.64652e-08
-1.36489e-06
8.47786e-08
-1.37965e-06
7.29431e-08
-1.39198e-06
6.09796e-08
-1.40187e-06
4.89089e-08
-1.40931e-06
3.67522e-08
-1.41427e-06
2.45309e-08
-1.41675e-06
1.22664e-08
-1.41674e-06
-1.97907e-11
-1.41426e-06
-1.23061e-08
-1.40929e-06
-2.45711e-08
-1.40185e-06
-3.67931e-08
-1.39195e-06
-4.89508e-08
-1.3796e-06
-6.10228e-08
-1.36484e-06
-7.2988e-08
-1.34769e-06
-8.48253e-08
-1.32817e-06
-9.65139e-08
-1.30632e-06
-1.08033e-07
-1.28218e-06
-1.19364e-07
-1.25579e-06
-1.30485e-07
-1.22719e-06
-1.41377e-07
-1.19645e-06
-1.52021e-07
-1.1636e-06
-1.62399e-07
-1.12872e-06
-1.72492e-07
-1.09185e-06
-1.82282e-07
-1.05307e-06
-1.91753e-07
-1.01244e-06
-2.00888e-07
-9.70037e-07
-2.0967e-07
-9.2593e-07
-2.18085e-07
-8.80198e-07
-2.26117e-07
-8.32923e-07
-2.33752e-07
-7.84186e-07
-2.40977e-07
-7.34073e-07
-2.4778e-07
-6.82672e-07
-2.54148e-07
-6.30074e-07
-2.6007e-07
-5.7637e-07
-2.65536e-07
-5.21654e-07
-2.70536e-07
-4.66024e-07
-2.75061e-07
-4.09576e-07
-2.79104e-07
-3.52409e-07
-2.82657e-07
-2.94624e-07
-2.85714e-07
-2.36322e-07
-2.8827e-07
-1.77605e-07
-2.9032e-07
-1.18577e-07
-2.91861e-07
-5.93408e-08
-2.9289e-07
-3.58672e-13
-2.93405e-07
5.93401e-08
-2.93405e-07
1.18576e-07
-2.9289e-07
1.77605e-07
-2.91861e-07
2.36321e-07
-2.9032e-07
2.94623e-07
-2.8827e-07
3.52408e-07
-2.85714e-07
4.09575e-07
-2.82657e-07
4.66023e-07
-2.79104e-07
5.21654e-07
-2.75061e-07
5.76369e-07
-2.70536e-07
6.30073e-07
-2.65536e-07
6.82671e-07
-2.6007e-07
7.34072e-07
-2.54148e-07
7.84185e-07
-2.4778e-07
8.32922e-07
-2.40977e-07
8.80198e-07
-2.33752e-07
9.25929e-07
-2.26117e-07
9.70036e-07
-2.18085e-07
1.01244e-06
-2.0967e-07
1.05307e-06
-2.00888e-07
1.09185e-06
-1.91753e-07
1.12872e-06
-1.82282e-07
1.1636e-06
-1.72492e-07
1.19645e-06
-1.62399e-07
1.22719e-06
-1.52021e-07
1.25579e-06
-1.41377e-07
1.28218e-06
-1.30485e-07
1.30632e-06
-1.19364e-07
1.32817e-06
-1.08033e-07
1.34769e-06
-9.65138e-08
1.36484e-06
-8.48252e-08
1.3796e-06
-7.29879e-08
1.39194e-06
-6.10227e-08
1.40184e-06
-4.89507e-08
1.40929e-06
-3.6793e-08
1.41426e-06
-2.4571e-08
1.41674e-06
-1.23061e-08
1.41675e-06
-1.96999e-11
1.41427e-06
1.22665e-08
1.4093e-06
2.4531e-08
1.40187e-06
3.67523e-08
1.39198e-06
4.8909e-08
1.37965e-06
6.09797e-08
1.36489e-06
7.29433e-08
1.34775e-06
8.47788e-08
1.32824e-06
9.64654e-08
1.3064e-06
1.07983e-07
1.28227e-06
1.19311e-07
1.25589e-06
1.30429e-07
1.22731e-06
1.41318e-07
1.19657e-06
1.5196e-07
1.16374e-06
1.62335e-07
1.12887e-06
1.72425e-07
1.09202e-06
1.82213e-07
1.05325e-06
1.91681e-07
1.01264e-06
2.00814e-07
9.70247e-07
2.09594e-07
9.26156e-07
2.18006e-07
8.80441e-07
2.26037e-07
8.33181e-07
2.33671e-07
7.84461e-07
2.40897e-07
7.34364e-07
2.477e-07
6.8298e-07
2.54071e-07
6.30396e-07
2.59997e-07
5.76706e-07
2.6547e-07
5.22002e-07
2.7048e-07
4.66381e-07
2.75021e-07
4.09937e-07
2.79085e-07
3.52768e-07
2.82668e-07
2.94973e-07
2.85768e-07
2.36648e-07
2.88382e-07
1.77892e-07
2.90514e-07
1.18802e-07
2.92167e-07
5.94725e-08
2.93349e-07
2.94064e-07
-5.99997e-08
3.54057e-07
-1.19855e-07
3.53199e-07
-1.79469e-07
3.51775e-07
-2.38745e-07
3.49786e-07
-2.97586e-07
3.4722e-07
-3.55893e-07
3.44072e-07
-4.13568e-07
3.4034e-07
-4.70511e-07
3.36026e-07
-5.26625e-07
3.31133e-07
-5.81813e-07
3.25666e-07
-6.35978e-07
3.19634e-07
-6.89027e-07
3.13045e-07
-7.40866e-07
3.05909e-07
-7.91406e-07
2.98239e-07
-8.40557e-07
2.90048e-07
-8.88235e-07
2.81348e-07
-9.34355e-07
2.72156e-07
-9.78836e-07
2.62487e-07
-1.0216e-06
2.52358e-07
-1.06257e-06
2.41787e-07
-1.10168e-06
2.30791e-07
-1.13886e-06
2.19391e-07
-1.17404e-06
2.07606e-07
-1.20717e-06
1.95457e-07
-1.23817e-06
1.82965e-07
-1.26701e-06
1.70153e-07
-1.29362e-06
1.57041e-07
-1.31796e-06
1.43654e-07
-1.34e-06
1.30015e-07
-1.35968e-06
1.16148e-07
-1.37698e-06
1.02077e-07
-1.39186e-06
8.78266e-08
-1.4043e-06
7.3422e-08
-1.41428e-06
5.88885e-08
-1.42178e-06
4.42514e-08
-1.42679e-06
2.95365e-08
-1.42929e-06
1.47696e-08
-1.42929e-06
-2.34334e-11
-1.42678e-06
-1.48167e-08
-1.42176e-06
-2.95841e-08
-1.41426e-06
-4.42999e-08
-1.40427e-06
-5.89382e-08
-1.39182e-06
-7.34734e-08
-1.37693e-06
-8.78799e-08
-1.35962e-06
-1.02132e-07
-1.33993e-06
-1.16206e-07
-1.31788e-06
-1.30076e-07
-1.29353e-06
-1.43718e-07
-1.26691e-06
-1.57108e-07
-1.23806e-06
-1.70223e-07
-1.20704e-06
-1.83039e-07
-1.17391e-06
-1.95534e-07
-1.13871e-06
-2.07687e-07
-1.10152e-06
-2.19475e-07
-1.0624e-06
-2.30878e-07
-1.02141e-06
-2.41877e-07
-9.78627e-07
-2.52451e-07
-9.34129e-07
-2.62582e-07
-8.87993e-07
-2.72253e-07
-8.40299e-07
-2.81446e-07
-7.9113e-07
-2.90146e-07
-7.40573e-07
-2.98337e-07
-6.88718e-07
-3.06004e-07
-6.35653e-07
-3.13134e-07
-5.81474e-07
-3.19715e-07
-5.26274e-07
-3.25736e-07
-4.70151e-07
-3.31184e-07
-4.13203e-07
-3.36052e-07
-3.5553e-07
-3.4033e-07
-2.97233e-07
-3.44011e-07
-2.38415e-07
-3.47089e-07
-1.79178e-07
-3.49557e-07
-1.19627e-07
-3.51412e-07
-5.98663e-08
-3.52651e-07
-3.63415e-13
-3.53271e-07
5.98656e-08
-3.53271e-07
1.19626e-07
-3.52651e-07
1.79177e-07
-3.51412e-07
2.38414e-07
-3.49557e-07
2.97232e-07
-3.47089e-07
3.55529e-07
-3.44011e-07
4.13202e-07
-3.4033e-07
4.7015e-07
-3.36052e-07
5.26273e-07
-3.31184e-07
5.81473e-07
-3.25736e-07
6.35653e-07
-3.19715e-07
6.88717e-07
-3.13134e-07
7.40573e-07
-3.06004e-07
7.91129e-07
-2.98337e-07
8.40298e-07
-2.90146e-07
8.87992e-07
-2.81446e-07
9.34128e-07
-2.72253e-07
9.78626e-07
-2.62582e-07
1.02141e-06
-2.52451e-07
1.0624e-06
-2.41877e-07
1.10152e-06
-2.30878e-07
1.13871e-06
-2.19475e-07
1.17391e-06
-2.07687e-07
1.20704e-06
-1.95534e-07
1.23806e-06
-1.83039e-07
1.26691e-06
-1.70223e-07
1.29353e-06
-1.57108e-07
1.31788e-06
-1.43718e-07
1.33993e-06
-1.30076e-07
1.35962e-06
-1.16206e-07
1.37693e-06
-1.02132e-07
1.39182e-06
-8.78798e-08
1.40427e-06
-7.34733e-08
1.41426e-06
-5.89382e-08
1.42176e-06
-4.42998e-08
1.42678e-06
-2.9584e-08
1.42929e-06
-1.48166e-08
1.42929e-06
-2.33245e-11
1.42679e-06
1.47697e-08
1.42178e-06
2.95367e-08
1.41428e-06
4.42516e-08
1.4043e-06
5.88886e-08
1.39186e-06
7.34222e-08
1.37698e-06
8.78268e-08
1.35968e-06
1.02077e-07
1.33999e-06
1.16148e-07
1.31796e-06
1.30016e-07
1.29362e-06
1.43655e-07
1.26701e-06
1.57042e-07
1.23817e-06
1.70153e-07
1.20717e-06
1.82966e-07
1.17404e-06
1.95458e-07
1.13886e-06
2.07607e-07
1.10168e-06
2.19392e-07
1.06257e-06
2.30792e-07
1.0216e-06
2.41787e-07
9.78834e-07
2.52359e-07
9.34353e-07
2.62488e-07
8.88233e-07
2.72157e-07
8.40555e-07
2.81349e-07
7.91404e-07
2.90049e-07
7.40864e-07
2.9824e-07
6.89024e-07
3.0591e-07
6.35975e-07
3.13046e-07
5.8181e-07
3.19635e-07
5.26622e-07
3.25668e-07
4.70508e-07
3.31135e-07
4.13565e-07
3.36028e-07
3.5589e-07
3.40343e-07
2.97583e-07
3.44075e-07
2.38742e-07
3.47223e-07
1.79466e-07
3.4979e-07
1.19853e-07
3.5178e-07
5.99986e-08
3.53204e-07
3.54062e-07
-6.06275e-08
4.14684e-07
-1.21109e-07
4.1368e-07
-1.81347e-07
4.12013e-07
-2.41244e-07
4.09683e-07
-3.00701e-07
4.06677e-07
-3.59619e-07
4.0299e-07
-4.17898e-07
3.98619e-07
-4.75437e-07
3.93566e-07
-5.32139e-07
3.87835e-07
-5.87905e-07
3.81432e-07
-6.42637e-07
3.74367e-07
-6.96242e-07
3.66649e-07
-7.48624e-07
3.58292e-07
-7.99693e-07
3.49309e-07
-8.4936e-07
3.39714e-07
-8.97536e-07
3.29525e-07
-9.44139e-07
3.18759e-07
-9.89086e-07
3.07434e-07
-1.0323e-06
2.95571e-07
-1.0737e-06
2.83189e-07
-1.11322e-06
2.70311e-07
-1.15079e-06
2.56959e-07
-1.18634e-06
2.43156e-07
-1.21981e-06
2.28927e-07
-1.25114e-06
2.14296e-07
-1.28028e-06
1.99289e-07
-1.30717e-06
1.83933e-07
-1.33177e-06
1.68254e-07
-1.35403e-06
1.52279e-07
-1.37392e-06
1.36037e-07
-1.3914e-06
1.19557e-07
-1.40644e-06
1.02866e-07
-1.41901e-06
8.5995e-08
-1.4291e-06
6.89728e-08
-1.43667e-06
5.18294e-08
-1.44173e-06
3.45948e-08
-1.44426e-06
1.72992e-08
-1.44426e-06
-2.68997e-11
-1.44172e-06
-1.73533e-08
-1.43666e-06
-3.46495e-08
-1.42907e-06
-5.18851e-08
-1.41898e-06
-6.90301e-08
-1.4064e-06
-8.60542e-08
-1.39135e-06
-1.02928e-07
-1.37386e-06
-1.19621e-07
-1.35396e-06
-1.36104e-07
-1.33169e-06
-1.52349e-07
-1.30708e-06
-1.68327e-07
-1.28018e-06
-1.8401e-07
-1.25103e-06
-1.99371e-07
-1.21969e-06
-2.14382e-07
-1.18621e-06
-2.29017e-07
-1.15064e-06
-2.4325e-07
-1.11306e-06
-2.57057e-07
-1.07353e-06
-2.70413e-07
-1.03211e-06
-2.83295e-07
-9.8888e-07
-2.9568e-07
-9.43916e-07
-3.07546e-07
-8.97297e-07
-3.18873e-07
-8.49103e-07
-3.2964e-07
-7.99419e-07
-3.3983e-07
-7.48333e-07
-3.49423e-07
-6.95934e-07
-3.58403e-07
-6.42314e-07
-3.66755e-07
-5.87566e-07
-3.74463e-07
-5.31788e-07
-3.81514e-07
-4.75077e-07
-3.87895e-07
-4.17532e-07
-3.93597e-07
-3.59255e-07
-3.98607e-07
-3.00348e-07
-4.02919e-07
-2.40913e-07
-4.06523e-07
-1.81056e-07
-4.09414e-07
-1.20881e-07
-4.11587e-07
-6.04936e-08
-4.13038e-07
-3.66621e-13
-4.13764e-07
6.04929e-08
-4.13764e-07
1.2088e-07
-4.13038e-07
1.81055e-07
-4.11587e-07
2.40912e-07
-4.09414e-07
3.00347e-07
-4.06523e-07
3.59254e-07
-4.02919e-07
4.17532e-07
-3.98607e-07
4.75076e-07
-3.93597e-07
5.31788e-07
-3.87895e-07
5.87566e-07
-3.81514e-07
6.42313e-07
-3.74463e-07
6.95933e-07
-3.66754e-07
7.48332e-07
-3.58403e-07
7.99418e-07
-3.49423e-07
8.49102e-07
-3.3983e-07
8.97296e-07
-3.2964e-07
9.43916e-07
-3.18873e-07
9.88879e-07
-3.07546e-07
1.03211e-06
-2.95679e-07
1.07353e-06
-2.83295e-07
1.11306e-06
-2.70413e-07
1.15064e-06
-2.57057e-07
1.18621e-06
-2.4325e-07
1.21969e-06
-2.29016e-07
1.25103e-06
-2.14381e-07
1.28018e-06
-1.99371e-07
1.30708e-06
-1.8401e-07
1.33169e-06
-1.68327e-07
1.35396e-06
-1.52349e-07
1.37386e-06
-1.36104e-07
1.39135e-06
-1.19621e-07
1.4064e-06
-1.02928e-07
1.41898e-06
-8.60541e-08
1.42907e-06
-6.903e-08
1.43666e-06
-5.1885e-08
1.44172e-06
-3.46493e-08
1.44426e-06
-1.73531e-08
1.44426e-06
-2.67708e-11
1.44173e-06
1.72994e-08
1.43667e-06
3.45949e-08
1.4291e-06
5.18295e-08
1.41901e-06
6.8973e-08
1.40644e-06
8.59952e-08
1.3914e-06
1.02866e-07
1.37392e-06
1.19557e-07
1.35403e-06
1.36037e-07
1.33177e-06
1.52279e-07
1.30717e-06
1.68254e-07
1.28027e-06
1.83933e-07
1.25114e-06
1.9929e-07
1.21981e-06
2.14296e-07
1.18634e-06
2.28927e-07
1.15079e-06
2.43157e-07
1.11322e-06
2.56959e-07
1.0737e-06
2.70312e-07
1.0323e-06
2.8319e-07
9.89085e-07
2.95571e-07
9.44137e-07
3.07435e-07
8.97534e-07
3.1876e-07
8.49358e-07
3.29526e-07
7.99691e-07
3.39715e-07
7.48622e-07
3.4931e-07
6.96239e-07
3.58293e-07
6.42635e-07
3.6665e-07
5.87902e-07
3.74368e-07
5.32137e-07
3.81434e-07
4.75435e-07
3.87837e-07
4.17895e-07
3.93568e-07
3.59616e-07
3.98622e-07
3.00699e-07
4.02993e-07
2.41241e-07
4.0668e-07
1.81345e-07
4.09686e-07
1.21107e-07
4.12017e-07
6.06267e-08
4.13684e-07
4.14689e-07
-6.13594e-08
4.76044e-07
-1.22571e-07
4.74891e-07
-1.83536e-07
4.72978e-07
-2.44156e-07
4.70303e-07
-3.04332e-07
4.66852e-07
-3.63961e-07
4.62619e-07
-4.22944e-07
4.57602e-07
-4.81179e-07
4.51801e-07
-5.38565e-07
4.45221e-07
-5.95004e-07
4.37871e-07
-6.50398e-07
4.2976e-07
-7.0465e-07
4.20901e-07
-7.57665e-07
4.11307e-07
-8.09351e-07
4.00994e-07
-8.59617e-07
3.8998e-07
-9.08376e-07
3.78284e-07
-9.55542e-07
3.65925e-07
-1.00103e-06
3.52924e-07
-1.04477e-06
3.39306e-07
-1.08667e-06
3.25092e-07
-1.12667e-06
3.10308e-07
-1.16469e-06
2.94981e-07
-1.20067e-06
2.79136e-07
-1.23454e-06
2.62801e-07
-1.26625e-06
2.46005e-07
-1.29574e-06
2.28778e-07
-1.32296e-06
2.11149e-07
-1.34785e-06
1.9315e-07
-1.37039e-06
1.74812e-07
-1.39052e-06
1.56167e-07
-1.40821e-06
1.37248e-07
-1.42343e-06
1.18088e-07
-1.43615e-06
9.87202e-08
-1.44636e-06
7.91792e-08
-1.45403e-06
5.94992e-08
-1.45915e-06
3.97144e-08
-1.46171e-06
1.98597e-08
-1.46171e-06
-3.01542e-11
-1.45914e-06
-1.99203e-08
-1.45401e-06
-3.97757e-08
-1.44634e-06
-5.95618e-08
-1.43612e-06
-7.92436e-08
-1.42339e-06
-9.87868e-08
-1.40816e-06
-1.18157e-07
-1.39046e-06
-1.3732e-07
-1.37032e-06
-1.56243e-07
-1.34778e-06
-1.74892e-07
-1.32287e-06
-1.93234e-07
-1.29565e-06
-2.11237e-07
-1.26615e-06
-2.28871e-07
-1.23443e-06
-2.46103e-07
-1.20054e-06
-2.62903e-07
-1.16455e-06
-2.79243e-07
-1.12651e-06
-2.95093e-07
-1.0865e-06
-3.10425e-07
-1.04458e-06
-3.25213e-07
-1.00083e-06
-3.3943e-07
-9.55323e-07
-3.53053e-07
-9.0814e-07
-3.66056e-07
-8.59364e-07
-3.78416e-07
-8.0908e-07
-3.90114e-07
-7.57376e-07
-4.01126e-07
-7.04344e-07
-4.11435e-07
-6.50076e-07
-4.21023e-07
-5.94667e-07
-4.29871e-07
-5.38215e-07
-4.37966e-07
-4.80818e-07
-4.45292e-07
-4.22578e-07
-4.51837e-07
-3.63597e-07
-4.57589e-07
-3.03977e-07
-4.62538e-07
-2.43824e-07
-4.66676e-07
-1.83244e-07
-4.69995e-07
-1.22342e-07
-4.72489e-07
-6.12247e-08
-4.74155e-07
-3.69466e-13
-4.74988e-07
6.12239e-08
-4.74988e-07
1.22341e-07
-4.74155e-07
1.83243e-07
-4.72489e-07
2.43824e-07
-4.69995e-07
3.03976e-07
-4.66676e-07
3.63596e-07
-4.62538e-07
4.22578e-07
-4.57589e-07
4.80818e-07
-4.51837e-07
5.38214e-07
-4.45292e-07
5.94666e-07
-4.37966e-07
6.50075e-07
-4.29871e-07
7.04343e-07
-4.21023e-07
7.57375e-07
-4.11435e-07
8.09079e-07
-4.01126e-07
8.59363e-07
-3.90114e-07
9.08139e-07
-3.78416e-07
9.55322e-07
-3.66056e-07
1.00083e-06
-3.53053e-07
1.04458e-06
-3.3943e-07
1.0865e-06
-3.25213e-07
1.12651e-06
-3.10425e-07
1.16455e-06
-2.95093e-07
1.20054e-06
-2.79243e-07
1.23443e-06
-2.62903e-07
1.26615e-06
-2.46103e-07
1.29565e-06
-2.28871e-07
1.32287e-06
-2.11237e-07
1.34778e-06
-1.93234e-07
1.37032e-06
-1.74891e-07
1.39046e-06
-1.56243e-07
1.40816e-06
-1.3732e-07
1.42339e-06
-1.18157e-07
1.43612e-06
-9.87866e-08
1.44634e-06
-7.92435e-08
1.45401e-06
-5.95616e-08
1.45914e-06
-3.97756e-08
1.46171e-06
-1.99201e-08
1.46171e-06
-3.0004e-11
1.45915e-06
1.98599e-08
1.45403e-06
3.97146e-08
1.44636e-06
5.94993e-08
1.43615e-06
7.91794e-08
1.42343e-06
9.87204e-08
1.40821e-06
1.18088e-07
1.39051e-06
1.37248e-07
1.37038e-06
1.56167e-07
1.34785e-06
1.74812e-07
1.32296e-06
1.9315e-07
1.29574e-06
2.1115e-07
1.26625e-06