/*--------------------------------*- C++ -*----------------------------------*\
| =========                 |                                                 |
| \\      /  F ield         | OpenFOAM: The Open Source CFD Toolbox           |
|  \\    /   O peration     | Version:  2106                                  |
|   \\  /    A nd           | Website:  www.openfoam.com                      |
|    \\/     M anipulation  |                                                 |
\*---------------------------------------------------------------------------*/
FoamFile
{
    version     2.0;
    format      ascii;
    arch        "LSB;label=32;scalar=64";
    class       volVectorField;
    location    "2.4";
    object      U;
}
// * * * * * * * * * * * * * * * * * * * * * * * * * * * * * * * * * * * * * //

dimensions      [0 1 -1 0 0 0 0];

internalField   nonuniform List<vector> 
90000
(
(-4.37974e-06 4.37338e-06 0)
(-1.31271e-05 4.36287e-06 0)
(-2.18443e-05 4.3455e-06 0)
(-3.05195e-05 4.32106e-06 0)
(-3.91387e-05 4.28944e-06 0)
(-4.76873e-05 4.2506e-06 0)
(-5.6151e-05 4.20452e-06 0)
(-6.45152e-05 4.15123e-06 0)
(-7.27655e-05 4.09078e-06 0)
(-8.08878e-05 4.02324e-06 0)
(-8.88678e-05 3.94871e-06 0)
(-9.66918e-05 3.8673e-06 0)
(-0.000104346 3.77914e-06 0)
(-0.000111817 3.68438e-06 0)
(-0.000119092 3.58318e-06 0)
(-0.000126158 3.4757e-06 0)
(-0.000133003 3.36214e-06 0)
(-0.000139615 3.24269e-06 0)
(-0.000145981 3.11756e-06 0)
(-0.000152092 2.98696e-06 0)
(-0.000157936 2.85112e-06 0)
(-0.000163503 2.71029e-06 0)
(-0.000168784 2.5647e-06 0)
(-0.000173768 2.41461e-06 0)
(-0.000178448 2.26029e-06 0)
(-0.000182814 2.102e-06 0)
(-0.000186861 1.94002e-06 0)
(-0.000190579 1.77465e-06 0)
(-0.000193963 1.60615e-06 0)
(-0.000197007 1.43484e-06 0)
(-0.000199706 1.26101e-06 0)
(-0.000202054 1.08496e-06 0)
(-0.000204049 9.07014e-07 0)
(-0.000205685 7.27471e-07 0)
(-0.00020696 5.4665e-07 0)
(-0.000207873 3.64867e-07 0)
(-0.00020842 1.82442e-07 0)
(-0.000208603 -3.05607e-10 0)
(-0.000208419 -1.83055e-07 0)
(-0.00020787 -3.65487e-07 0)
(-0.000206956 -5.4728e-07 0)
(-0.00020568 -7.28116e-07 0)
(-0.000204042 -9.07678e-07 0)
(-0.000202047 -1.08565e-06 0)
(-0.000199697 -1.26172e-06 0)
(-0.000196997 -1.43558e-06 0)
(-0.000193951 -1.60692e-06 0)
(-0.000190566 -1.77545e-06 0)
(-0.000186845 -1.94087e-06 0)
(-0.000182798 -2.10288e-06 0)
(-0.000178429 -2.26121e-06 0)
(-0.000173747 -2.41557e-06 0)
(-0.000168761 -2.5657e-06 0)
(-0.000163479 -2.71132e-06 0)
(-0.000157909 -2.8522e-06 0)
(-0.000152063 -2.98807e-06 0)
(-0.00014595 -3.1187e-06 0)
(-0.000139581 -3.24385e-06 0)
(-0.000132967 -3.36332e-06 0)
(-0.00012612 -3.47689e-06 0)
(-0.000119052 -3.58437e-06 0)
(-0.000111774 -3.68555e-06 0)
(-0.000104301 -3.78027e-06 0)
(-9.66443e-05 -3.86836e-06 0)
(-8.88183e-05 -3.94966e-06 0)
(-8.08365e-05 -4.02403e-06 0)
(-7.27128e-05 -4.09134e-06 0)
(-6.44616e-05 -4.15147e-06 0)
(-5.60973e-05 -4.20432e-06 0)
(-4.76345e-05 -4.2498e-06 0)
(-3.90882e-05 -4.28781e-06 0)
(-3.04733e-05 -4.31831e-06 0)
(-2.18049e-05 -4.34122e-06 0)
(-1.30983e-05 -4.35653e-06 0)
(-4.36871e-06 -4.36418e-06 0)
(4.36864e-06 -4.36418e-06 0)
(1.30982e-05 -4.35653e-06 0)
(2.18048e-05 -4.34122e-06 0)
(3.04732e-05 -4.31831e-06 0)
(3.90881e-05 -4.28781e-06 0)
(4.76344e-05 -4.2498e-06 0)
(5.60972e-05 -4.20432e-06 0)
(6.44615e-05 -4.15147e-06 0)
(7.27127e-05 -4.09134e-06 0)
(8.08364e-05 -4.02403e-06 0)
(8.88182e-05 -3.94966e-06 0)
(9.66442e-05 -3.86835e-06 0)
(0.000104301 -3.78027e-06 0)
(0.000111774 -3.68555e-06 0)
(0.000119051 -3.58437e-06 0)
(0.00012612 -3.47689e-06 0)
(0.000132967 -3.36332e-06 0)
(0.000139581 -3.24385e-06 0)
(0.00014595 -3.11869e-06 0)
(0.000152063 -2.98807e-06 0)
(0.000157909 -2.8522e-06 0)
(0.000163479 -2.71132e-06 0)
(0.000168761 -2.5657e-06 0)
(0.000173747 -2.41557e-06 0)
(0.000178429 -2.26121e-06 0)
(0.000182797 -2.10288e-06 0)
(0.000186845 -1.94087e-06 0)
(0.000190565 -1.77545e-06 0)
(0.000193951 -1.60692e-06 0)
(0.000196997 -1.43558e-06 0)
(0.000199697 -1.26172e-06 0)
(0.000202047 -1.08565e-06 0)
(0.000204042 -9.07677e-07 0)
(0.00020568 -7.28116e-07 0)
(0.000206956 -5.47279e-07 0)
(0.00020787 -3.65486e-07 0)
(0.000208419 -1.83054e-07 0)
(0.000208603 -3.04471e-10 0)
(0.00020842 1.82443e-07 0)
(0.000207872 3.64868e-07 0)
(0.00020696 5.46651e-07 0)
(0.000205685 7.27473e-07 0)
(0.000204048 9.07016e-07 0)
(0.000202054 1.08497e-06 0)
(0.000199706 1.26101e-06 0)
(0.000197007 1.43484e-06 0)
(0.000193963 1.60615e-06 0)
(0.000190579 1.77465e-06 0)
(0.000186861 1.94003e-06 0)
(0.000182814 2.102e-06 0)
(0.000178448 2.26029e-06 0)
(0.000173768 2.41461e-06 0)
(0.000168783 2.5647e-06 0)
(0.000163503 2.71029e-06 0)
(0.000157936 2.85112e-06 0)
(0.000152092 2.98696e-06 0)
(0.000145981 3.11756e-06 0)
(0.000139614 3.2427e-06 0)
(0.000133003 3.36215e-06 0)
(0.000126158 3.47571e-06 0)
(0.000119092 3.58319e-06 0)
(0.000111817 3.68439e-06 0)
(0.000104346 3.77915e-06 0)
(9.66915e-05 3.86731e-06 0)
(8.88675e-05 3.94872e-06 0)
(8.08875e-05 4.02325e-06 0)
(7.27652e-05 4.0908e-06 0)
(6.45148e-05 4.15126e-06 0)
(5.61505e-05 4.20456e-06 0)
(4.76868e-05 4.25066e-06 0)
(3.91381e-05 4.28953e-06 0)
(3.05188e-05 4.3212e-06 0)
(2.18433e-05 4.34571e-06 0)
(1.31256e-05 4.36332e-06 0)
(4.37891e-06 4.37421e-06 0)
(-4.39025e-06 1.31321e-05 0)
(-1.31587e-05 1.31004e-05 0)
(-2.18974e-05 1.30481e-05 0)
(-3.05937e-05 1.29745e-05 0)
(-3.92336e-05 1.28796e-05 0)
(-4.78028e-05 1.27629e-05 0)
(-5.62868e-05 1.26245e-05 0)
(-6.46711e-05 1.24645e-05 0)
(-7.29413e-05 1.2283e-05 0)
(-8.10831e-05 1.20802e-05 0)
(-8.90824e-05 1.18565e-05 0)
(-9.69252e-05 1.1612e-05 0)
(-0.000104598 1.13473e-05 0)
(-0.000112087 1.10628e-05 0)
(-0.00011938 1.0759e-05 0)
(-0.000126463 1.04363e-05 0)
(-0.000133324 1.00953e-05 0)
(-0.000139952 9.7366e-06 0)
(-0.000146334 9.36087e-06 0)
(-0.000152459 8.96873e-06 0)
(-0.000158317 8.56087e-06 0)
(-0.000163898 8.138e-06 0)
(-0.000169191 7.70085e-06 0)
(-0.000174187 7.2502e-06 0)
(-0.000178878 6.78682e-06 0)
(-0.000183256 6.31155e-06 0)
(-0.000187312 5.82519e-06 0)
(-0.000191039 5.32862e-06 0)
(-0.000194431 4.8227e-06 0)
(-0.000197483 4.30831e-06 0)
(-0.000200188 3.78636e-06 0)
(-0.000202542 3.25776e-06 0)
(-0.000204541 2.72344e-06 0)
(-0.000206181 2.18434e-06 0)
(-0.00020746 1.6414e-06 0)
(-0.000208374 1.09557e-06 0)
(-0.000208923 5.47813e-07 0)
(-0.000209106 -9.13927e-10 0)
(-0.000208922 -5.49647e-07 0)
(-0.000208372 -1.09742e-06 0)
(-0.000207456 -1.64328e-06 0)
(-0.000206176 -2.18627e-06 0)
(-0.000204535 -2.72543e-06 0)
(-0.000202535 -3.25981e-06 0)
(-0.000200179 -3.78849e-06 0)
(-0.000197473 -4.31053e-06 0)
(-0.00019442 -4.82501e-06 0)
(-0.000191026 -5.33104e-06 0)
(-0.000187296 -5.82772e-06 0)
(-0.000183239 -6.31419e-06 0)
(-0.00017886 -6.78958e-06 0)
(-0.000174167 -7.25308e-06 0)
(-0.000169168 -7.70385e-06 0)
(-0.000163873 -8.14111e-06 0)
(-0.000158291 -8.5641e-06 0)
(-0.00015243 -8.97207e-06 0)
(-0.000146303 -9.3643e-06 0)
(-0.000139918 -9.7401e-06 0)
(-0.000133288 -1.00988e-05 0)
(-0.000126424 -1.04398e-05 0)
(-0.000119339 -1.07625e-05 0)
(-0.000112044 -1.10663e-05 0)
(-0.000104553 -1.13507e-05 0)
(-9.68776e-05 -1.16152e-05 0)
(-8.90327e-05 -1.18594e-05 0)
(-8.10316e-05 -1.20827e-05 0)
(-7.28884e-05 -1.22848e-05 0)
(-6.46172e-05 -1.24653e-05 0)
(-5.62327e-05 -1.2624e-05 0)
(-4.77495e-05 -1.27606e-05 0)
(-3.91826e-05 -1.28747e-05 0)
(-3.05469e-05 -1.29663e-05 0)
(-2.18576e-05 -1.30351e-05 0)
(-1.31299e-05 -1.3081e-05 0)
(-4.37926e-06 -1.3104e-05 0)
(4.37918e-06 -1.3104e-05 0)
(1.31298e-05 -1.3081e-05 0)
(2.18575e-05 -1.30351e-05 0)
(3.05468e-05 -1.29663e-05 0)
(3.91825e-05 -1.28747e-05 0)
(4.77494e-05 -1.27606e-05 0)
(5.62326e-05 -1.2624e-05 0)
(6.46171e-05 -1.24653e-05 0)
(7.28883e-05 -1.22848e-05 0)
(8.10316e-05 -1.20827e-05 0)
(8.90327e-05 -1.18594e-05 0)
(9.68775e-05 -1.16152e-05 0)
(0.000104552 -1.13507e-05 0)
(0.000112044 -1.10663e-05 0)
(0.000119339 -1.07625e-05 0)
(0.000126424 -1.04398e-05 0)
(0.000133288 -1.00988e-05 0)
(0.000139918 -9.7401e-06 0)
(0.000146302 -9.36429e-06 0)
(0.00015243 -8.97206e-06 0)
(0.000158291 -8.5641e-06 0)
(0.000163873 -8.14111e-06 0)
(0.000169168 -7.70385e-06 0)
(0.000174167 -7.25307e-06 0)
(0.00017886 -6.78958e-06 0)
(0.000183239 -6.31419e-06 0)
(0.000187296 -5.82772e-06 0)
(0.000191026 -5.33104e-06 0)
(0.00019442 -4.82501e-06 0)
(0.000197472 -4.31053e-06 0)
(0.000200179 -3.78849e-06 0)
(0.000202534 -3.25981e-06 0)
(0.000204535 -2.72543e-06 0)
(0.000206176 -2.18627e-06 0)
(0.000207456 -1.64328e-06 0)
(0.000208372 -1.09742e-06 0)
(0.000208922 -5.49644e-07 0)
(0.000209106 -9.10687e-10 0)
(0.000208923 5.47816e-07 0)
(0.000208374 1.09557e-06 0)
(0.00020746 1.6414e-06 0)
(0.000206181 2.18434e-06 0)
(0.000204541 2.72345e-06 0)
(0.000202542 3.25777e-06 0)
(0.000200188 3.78636e-06 0)
(0.000197483 4.30832e-06 0)
(0.000194431 4.8227e-06 0)
(0.000191039 5.32863e-06 0)
(0.000187311 5.8252e-06 0)
(0.000183256 6.31155e-06 0)
(0.000178878 6.78683e-06 0)
(0.000174187 7.2502e-06 0)
(0.000169191 7.70086e-06 0)
(0.000163898 8.13801e-06 0)
(0.000158317 8.56088e-06 0)
(0.000152459 8.96875e-06 0)
(0.000146333 9.36089e-06 0)
(0.000139951 9.73662e-06 0)
(0.000133324 1.00953e-05 0)
(0.000126462 1.04363e-05 0)
(0.000119379 1.0759e-05 0)
(0.000112087 1.10629e-05 0)
(0.000104598 1.13474e-05 0)
(9.69249e-05 1.16121e-05 0)
(8.90821e-05 1.18565e-05 0)
(8.10828e-05 1.20803e-05 0)
(7.2941e-05 1.22831e-05 0)
(6.46707e-05 1.24646e-05 0)
(5.62864e-05 1.26247e-05 0)
(4.78023e-05 1.27631e-05 0)
(3.92331e-05 1.28798e-05 0)
(3.0593e-05 1.29749e-05 0)
(2.18966e-05 1.30485e-05 0)
(1.31579e-05 1.31013e-05 0)
(4.3898e-06 1.31336e-05 0)
(-4.40763e-06 2.1921e-05 0)
(-1.3211e-05 2.18677e-05 0)
(-2.1985e-05 2.17797e-05 0)
(-3.07163e-05 2.16567e-05 0)
(-3.9391e-05 2.1498e-05 0)
(-4.79946e-05 2.13033e-05 0)
(-5.65126e-05 2.10723e-05 0)
(-6.49305e-05 2.08052e-05 0)
(-7.32338e-05 2.05023e-05 0)
(-8.14082e-05 2.01638e-05 0)
(-8.94395e-05 1.97903e-05 0)
(-9.73137e-05 1.93823e-05 0)
(-0.000105017 1.89405e-05 0)
(-0.000112536 1.84656e-05 0)
(-0.000119858 1.79584e-05 0)
(-0.000126969 1.74198e-05 0)
(-0.000133858 1.68506e-05 0)
(-0.000140512 1.62519e-05 0)
(-0.00014692 1.56248e-05 0)
(-0.00015307 1.49702e-05 0)
(-0.000158952 1.42895e-05 0)
(-0.000164555 1.35836e-05 0)
(-0.000169869 1.28539e-05 0)
(-0.000174886 1.21017e-05 0)
(-0.000179595 1.13283e-05 0)
(-0.00018399 1.0535e-05 0)
(-0.000188062 9.72319e-06 0)
(-0.000191805 8.89433e-06 0)
(-0.000195211 8.04986e-06 0)
(-0.000198275 7.19127e-06 0)
(-0.00020099 6.32005e-06 0)
(-0.000203354 5.43773e-06 0)
(-0.000205361 4.54587e-06 0)
(-0.000207008 3.64602e-06 0)
(-0.000208291 2.73977e-06 0)
(-0.00020921 1.82869e-06 0)
(-0.000209761 9.14397e-07 0)
(-0.000209944 -1.51521e-09 0)
(-0.00020976 -9.17438e-07 0)
(-0.000209207 -1.83177e-06 0)
(-0.000208288 -2.74289e-06 0)
(-0.000207003 -3.64922e-06 0)
(-0.000205355 -4.54917e-06 0)
(-0.000203347 -5.44114e-06 0)
(-0.000200982 -6.32359e-06 0)
(-0.000198264 -7.19495e-06 0)
(-0.000195199 -8.05371e-06 0)
(-0.000191791 -8.89835e-06 0)
(-0.000188047 -9.7274e-06 0)
(-0.000183973 -1.05394e-05 0)
(-0.000179577 -1.13329e-05 0)
(-0.000174865 -1.21065e-05 0)
(-0.000169847 -1.2859e-05 0)
(-0.00016453 -1.35888e-05 0)
(-0.000158925 -1.42948e-05 0)
(-0.000153041 -1.49758e-05 0)
(-0.000146889 -1.56305e-05 0)
(-0.000140479 -1.62578e-05 0)
(-0.000133823 -1.68566e-05 0)
(-0.000126931 -1.74258e-05 0)
(-0.000119817 -1.79644e-05 0)
(-0.000112493 -1.84715e-05 0)
(-0.000104972 -1.89462e-05 0)
(-9.72661e-05 -1.93877e-05 0)
(-8.93897e-05 -1.97952e-05 0)
(-8.13566e-05 -2.01679e-05 0)
(-7.31806e-05 -2.05052e-05 0)
(-6.48763e-05 -2.08066e-05 0)
(-5.64582e-05 -2.10715e-05 0)
(-4.7941e-05 -2.12994e-05 0)
(-3.93397e-05 -2.14899e-05 0)
(-3.06693e-05 -2.16428e-05 0)
(-2.19452e-05 -2.17576e-05 0)
(-1.31826e-05 -2.18343e-05 0)
(-4.39682e-06 -2.18727e-05 0)
(4.39674e-06 -2.18727e-05 0)
(1.31825e-05 -2.18343e-05 0)
(2.19451e-05 -2.17576e-05 0)
(3.06693e-05 -2.16428e-05 0)
(3.93396e-05 -2.14899e-05 0)
(4.79409e-05 -2.12994e-05 0)
(5.64581e-05 -2.10715e-05 0)
(6.48763e-05 -2.08066e-05 0)
(7.31806e-05 -2.05052e-05 0)
(8.13565e-05 -2.01679e-05 0)
(8.93897e-05 -1.97952e-05 0)
(9.7266e-05 -1.93877e-05 0)
(0.000104972 -1.89462e-05 0)
(0.000112493 -1.84715e-05 0)
(0.000119817 -1.79644e-05 0)
(0.000126931 -1.74257e-05 0)
(0.000133823 -1.68566e-05 0)
(0.000140479 -1.62578e-05 0)
(0.000146889 -1.56305e-05 0)
(0.000153041 -1.49758e-05 0)
(0.000158925 -1.42948e-05 0)
(0.00016453 -1.35888e-05 0)
(0.000169847 -1.28589e-05 0)
(0.000174865 -1.21065e-05 0)
(0.000179577 -1.13329e-05 0)
(0.000183973 -1.05394e-05 0)
(0.000188047 -9.72739e-06 0)
(0.000191791 -8.89835e-06 0)
(0.000195199 -8.05371e-06 0)
(0.000198264 -7.19495e-06 0)
(0.000200982 -6.32359e-06 0)
(0.000203346 -5.44114e-06 0)
(0.000205355 -4.54917e-06 0)
(0.000207003 -3.64922e-06 0)
(0.000208288 -2.74289e-06 0)
(0.000209207 -1.83176e-06 0)
(0.00020976 -9.17434e-07 0)
(0.000209944 -1.51008e-09 0)
(0.000209761 9.14403e-07 0)
(0.000209209 1.8287e-06 0)
(0.000208291 2.73977e-06 0)
(0.000207007 3.64603e-06 0)
(0.000205361 4.54588e-06 0)
(0.000203354 5.43774e-06 0)
(0.00020099 6.32006e-06 0)
(0.000198274 7.19128e-06 0)
(0.000195211 8.04987e-06 0)
(0.000191805 8.89434e-06 0)
(0.000188062 9.7232e-06 0)
(0.00018399 1.0535e-05 0)
(0.000179595 1.13283e-05 0)
(0.000174885 1.21017e-05 0)
(0.000169869 1.2854e-05 0)
(0.000164555 1.35836e-05 0)
(0.000158952 1.42895e-05 0)
(0.00015307 1.49703e-05 0)
(0.00014692 1.56248e-05 0)
(0.000140512 1.6252e-05 0)
(0.000133858 1.68506e-05 0)
(0.000126969 1.74198e-05 0)
(0.000119858 1.79584e-05 0)
(0.000112536 1.84656e-05 0)
(0.000105017 1.89406e-05 0)
(9.73134e-05 1.93824e-05 0)
(8.94392e-05 1.97904e-05 0)
(8.14079e-05 2.01639e-05 0)
(7.32334e-05 2.05024e-05 0)
(6.49301e-05 2.08053e-05 0)
(5.65122e-05 2.10725e-05 0)
(4.79941e-05 2.13035e-05 0)
(3.93905e-05 2.14983e-05 0)
(3.07159e-05 2.16571e-05 0)
(2.19845e-05 2.17802e-05 0)
(1.32106e-05 2.18684e-05 0)
(4.40742e-06 2.1922e-05 0)
(-4.43219e-06 3.0752e-05 0)
(-1.32848e-05 3.06771e-05 0)
(-2.2108e-05 3.05535e-05 0)
(-3.08884e-05 3.03808e-05 0)
(-3.96117e-05 3.0158e-05 0)
(-4.82636e-05 2.98847e-05 0)
(-5.68293e-05 2.95607e-05 0)
(-6.52944e-05 2.9186e-05 0)
(-7.36443e-05 2.8761e-05 0)
(-8.18645e-05 2.82862e-05 0)
(-8.99408e-05 2.77622e-05 0)
(-9.78591e-05 2.71899e-05 0)
(-0.000105606 2.65701e-05 0)
(-0.000113167 2.59039e-05 0)
(-0.00012053 2.51924e-05 0)
(-0.000127681 2.44368e-05 0)
(-0.000134609 2.36384e-05 0)
(-0.0001413 2.27986e-05 0)
(-0.000147744 2.19188e-05 0)
(-0.000153928 2.10006e-05 0)
(-0.000159843 2.00456e-05 0)
(-0.000165477 1.90554e-05 0)
(-0.000170821 1.80318e-05 0)
(-0.000175866 1.69766e-05 0)
(-0.000180602 1.58916e-05 0)
(-0.000185021 1.47787e-05 0)
(-0.000189116 1.36399e-05 0)
(-0.00019288 1.24772e-05 0)
(-0.000196305 1.12925e-05 0)
(-0.000199386 1.00881e-05 0)
(-0.000202117 8.86592e-06 0)
(-0.000204494 7.62819e-06 0)
(-0.000206512 6.37707e-06 0)
(-0.000208168 5.11474e-06 0)
(-0.000209459 3.84343e-06 0)
(-0.000210382 2.56535e-06 0)
(-0.000210937 1.28276e-06 0)
(-0.000211121 -2.10613e-09 0)
(-0.000210936 -1.28698e-06 0)
(-0.00021038 -2.56962e-06 0)
(-0.000209455 -3.84778e-06 0)
(-0.000208163 -5.1192e-06 0)
(-0.000206506 -6.38166e-06 0)
(-0.000204487 -7.63294e-06 0)
(-0.000202108 -8.87086e-06 0)
(-0.000199376 -1.00932e-05 0)
(-0.000196293 -1.12979e-05 0)
(-0.000192867 -1.24828e-05 0)
(-0.000189102 -1.36458e-05 0)
(-0.000185005 -1.47849e-05 0)
(-0.000180584 -1.5898e-05 0)
(-0.000175846 -1.69833e-05 0)
(-0.000170799 -1.80388e-05 0)
(-0.000165453 -1.90627e-05 0)
(-0.000159816 -2.00531e-05 0)
(-0.0001539 -2.10084e-05 0)
(-0.000147713 -2.19268e-05 0)
(-0.000141267 -2.28068e-05 0)
(-0.000134573 -2.36468e-05 0)
(-0.000127643 -2.44452e-05 0)
(-0.000120489 -2.52009e-05 0)
(-0.000113124 -2.59122e-05 0)
(-0.00010556 -2.65782e-05 0)
(-9.78115e-05 -2.71975e-05 0)
(-8.9891e-05 -2.77691e-05 0)
(-8.18128e-05 -2.8292e-05 0)
(-7.3591e-05 -2.87652e-05 0)
(-6.52401e-05 -2.9188e-05 0)
(-5.67748e-05 -2.95596e-05 0)
(-4.82098e-05 -2.98793e-05 0)
(-3.95603e-05 -3.01466e-05 0)
(-3.08413e-05 -3.0361e-05 0)
(-2.20683e-05 -3.05221e-05 0)
(-1.32565e-05 -3.06297e-05 0)
(-4.42147e-06 -3.06835e-05 0)
(4.4214e-06 -3.06835e-05 0)
(1.32564e-05 -3.06297e-05 0)
(2.20682e-05 -3.05221e-05 0)
(3.08413e-05 -3.0361e-05 0)
(3.95602e-05 -3.01466e-05 0)
(4.82098e-05 -2.98793e-05 0)
(5.67747e-05 -2.95596e-05 0)
(6.52401e-05 -2.9188e-05 0)
(7.35909e-05 -2.87652e-05 0)
(8.18127e-05 -2.8292e-05 0)
(8.98909e-05 -2.77691e-05 0)
(9.78114e-05 -2.71975e-05 0)
(0.00010556 -2.65782e-05 0)
(0.000113124 -2.59122e-05 0)
(0.000120489 -2.52008e-05 0)
(0.000127643 -2.44452e-05 0)
(0.000134573 -2.36468e-05 0)
(0.000141267 -2.28068e-05 0)
(0.000147713 -2.19268e-05 0)
(0.0001539 -2.10084e-05 0)
(0.000159816 -2.00531e-05 0)
(0.000165453 -1.90627e-05 0)
(0.000170799 -1.80388e-05 0)
(0.000175846 -1.69833e-05 0)
(0.000180584 -1.5898e-05 0)
(0.000185005 -1.47849e-05 0)
(0.000189102 -1.36458e-05 0)
(0.000192867 -1.24828e-05 0)
(0.000196293 -1.12979e-05 0)
(0.000199376 -1.00932e-05 0)
(0.000202108 -8.87086e-06 0)
(0.000204487 -7.63294e-06 0)
(0.000206506 -6.38166e-06 0)
(0.000208163 -5.11919e-06 0)
(0.000209455 -3.84777e-06 0)
(0.00021038 -2.56962e-06 0)
(0.000210936 -1.28698e-06 0)
(0.000211121 -2.09915e-09 0)
(0.000210937 1.28276e-06 0)
(0.000210382 2.56536e-06 0)
(0.000209459 3.84344e-06 0)
(0.000208168 5.11475e-06 0)
(0.000206512 6.37708e-06 0)
(0.000204494 7.62821e-06 0)
(0.000202117 8.86594e-06 0)
(0.000199386 1.00881e-05 0)
(0.000196305 1.12926e-05 0)
(0.00019288 1.24772e-05 0)
(0.000189116 1.36399e-05 0)
(0.000185021 1.47787e-05 0)
(0.000180602 1.58916e-05 0)
(0.000175866 1.69766e-05 0)
(0.000170821 1.80318e-05 0)
(0.000165477 1.90554e-05 0)
(0.000159843 2.00456e-05 0)
(0.000153928 2.10006e-05 0)
(0.000147743 2.19188e-05 0)
(0.0001413 2.27986e-05 0)
(0.000134608 2.36384e-05 0)
(0.000127681 2.44369e-05 0)
(0.00012053 2.51925e-05 0)
(0.000113167 2.5904e-05 0)
(0.000105605 2.65702e-05 0)
(9.78589e-05 2.719e-05 0)
(8.99405e-05 2.77623e-05 0)
(8.18642e-05 2.82863e-05 0)
(7.3644e-05 2.87611e-05 0)
(6.52941e-05 2.91861e-05 0)
(5.6829e-05 2.95609e-05 0)
(4.82632e-05 2.9885e-05 0)
(3.96113e-05 3.01583e-05 0)
(3.0888e-05 3.03812e-05 0)
(2.21076e-05 3.0554e-05 0)
(1.32845e-05 3.06777e-05 0)
(4.43206e-06 3.07527e-05 0)
(-4.46412e-06 3.96393e-05 0)
(-1.33805e-05 3.95429e-05 0)
(-2.22675e-05 3.93835e-05 0)
(-3.11113e-05 3.91608e-05 0)
(-3.98978e-05 3.88736e-05 0)
(-4.86122e-05 3.85212e-05 0)
(-5.72398e-05 3.81035e-05 0)
(-6.57661e-05 3.76205e-05 0)
(-7.41762e-05 3.70727e-05 0)
(-8.24558e-05 3.64606e-05 0)
(-9.05905e-05 3.57853e-05 0)
(-9.8566e-05 3.50475e-05 0)
(-0.000106369 3.42487e-05 0)
(-0.000113984 3.339e-05 0)
(-0.0001214 3.24728e-05 0)
(-0.000128603 3.14989e-05 0)
(-0.000135581 3.04697e-05 0)
(-0.000142321 2.93872e-05 0)
(-0.000148811 2.82532e-05 0)
(-0.00015504 2.70696e-05 0)
(-0.000160997 2.58386e-05 0)
(-0.000166672 2.45623e-05 0)
(-0.000172055 2.32429e-05 0)
(-0.000177136 2.18827e-05 0)
(-0.000181907 2.04842e-05 0)
(-0.000186358 1.90497e-05 0)
(-0.000190483 1.75818e-05 0)
(-0.000194273 1.6083e-05 0)
(-0.000197723 1.4556e-05 0)
(-0.000200826 1.30035e-05 0)
(-0.000203577 1.14281e-05 0)
(-0.000205971 9.83272e-06 0)
(-0.000208004 8.22003e-06 0)
(-0.000209672 6.5929e-06 0)
(-0.000210972 4.95418e-06 0)
(-0.000211903 3.30675e-06 0)
(-0.000212461 1.6535e-06 0)
(-0.000212647 -2.68245e-09 0)
(-0.00021246 -1.65888e-06 0)
(-0.0002119 -3.31219e-06 0)
(-0.000210969 -4.95972e-06 0)
(-0.000209667 -6.59858e-06 0)
(-0.000207998 -8.22588e-06 0)
(-0.000205964 -9.83878e-06 0)
(-0.000203569 -1.14344e-05 0)
(-0.000200817 -1.30101e-05 0)
(-0.000197712 -1.45629e-05 0)
(-0.000194261 -1.60902e-05 0)
(-0.000190468 -1.75893e-05 0)
(-0.000186342 -1.90576e-05 0)
(-0.000181889 -2.04924e-05 0)
(-0.000177116 -2.18914e-05 0)
(-0.000172033 -2.32519e-05 0)
(-0.000166649 -2.45717e-05 0)
(-0.000160971 -2.58483e-05 0)
(-0.000155012 -2.70797e-05 0)
(-0.00014878 -2.82635e-05 0)
(-0.000142288 -2.93978e-05 0)
(-0.000135546 -3.04805e-05 0)
(-0.000128566 -3.15098e-05 0)
(-0.00012136 -3.24837e-05 0)
(-0.000113942 -3.34007e-05 0)
(-0.000106323 -3.42591e-05 0)
(-9.85185e-05 -3.50574e-05 0)
(-9.05407e-05 -3.57942e-05 0)
(-8.24041e-05 -3.64682e-05 0)
(-7.41229e-05 -3.70782e-05 0)
(-6.57117e-05 -3.76232e-05 0)
(-5.71852e-05 -3.81021e-05 0)
(-4.85583e-05 -3.85143e-05 0)
(-3.98462e-05 -3.88588e-05 0)
(-3.10643e-05 -3.91351e-05 0)
(-2.22278e-05 -3.93428e-05 0)
(-1.33523e-05 -3.94815e-05 0)
(-4.45343e-06 -3.95509e-05 0)
(4.45336e-06 -3.95509e-05 0)
(1.33522e-05 -3.94815e-05 0)
(2.22277e-05 -3.93428e-05 0)
(3.10642e-05 -3.91351e-05 0)
(3.98462e-05 -3.88588e-05 0)
(4.85582e-05 -3.85143e-05 0)
(5.71851e-05 -3.81021e-05 0)
(6.57116e-05 -3.76232e-05 0)
(7.41229e-05 -3.70782e-05 0)
(8.2404e-05 -3.64682e-05 0)
(9.05406e-05 -3.57942e-05 0)
(9.85184e-05 -3.50574e-05 0)
(0.000106323 -3.42591e-05 0)
(0.000113942 -3.34007e-05 0)
(0.00012136 -3.24837e-05 0)
(0.000128566 -3.15097e-05 0)
(0.000135546 -3.04805e-05 0)
(0.000142288 -2.93978e-05 0)
(0.00014878 -2.82635e-05 0)
(0.000155012 -2.70797e-05 0)
(0.000160971 -2.58483e-05 0)
(0.000166649 -2.45717e-05 0)
(0.000172033 -2.32519e-05 0)
(0.000177116 -2.18914e-05 0)
(0.000181889 -2.04924e-05 0)
(0.000186342 -1.90576e-05 0)
(0.000190468 -1.75893e-05 0)
(0.00019426 -1.60902e-05 0)
(0.000197712 -1.45629e-05 0)
(0.000200817 -1.30101e-05 0)
(0.000203569 -1.14344e-05 0)
(0.000205964 -9.83878e-06 0)
(0.000207998 -8.22588e-06 0)
(0.000209667 -6.59857e-06 0)
(0.000210969 -4.95972e-06 0)
(0.0002119 -3.31219e-06 0)
(0.00021246 -1.65887e-06 0)
(0.000212647 -2.67366e-09 0)
(0.000212461 1.65351e-06 0)
(0.000211902 3.30676e-06 0)
(0.000210972 4.95419e-06 0)
(0.000209672 6.59291e-06 0)
(0.000208004 8.22004e-06 0)
(0.000205971 9.83273e-06 0)
(0.000203577 1.14282e-05 0)
(0.000200826 1.30035e-05 0)
(0.000197723 1.4556e-05 0)
(0.000194273 1.6083e-05 0)
(0.000190483 1.75818e-05 0)
(0.000186358 1.90497e-05 0)
(0.000181907 2.04842e-05 0)
(0.000177136 2.18827e-05 0)
(0.000172055 2.32429e-05 0)
(0.000166672 2.45623e-05 0)
(0.000160997 2.58386e-05 0)
(0.00015504 2.70697e-05 0)
(0.000148811 2.82532e-05 0)
(0.000142321 2.93872e-05 0)
(0.000135581 3.04698e-05 0)
(0.000128603 3.14989e-05 0)
(0.0001214 3.24729e-05 0)
(0.000113984 3.339e-05 0)
(0.000106368 3.42488e-05 0)
(9.85658e-05 3.50476e-05 0)
(9.05902e-05 3.57854e-05 0)
(8.24556e-05 3.64608e-05 0)
(7.4176e-05 3.70728e-05 0)
(6.57658e-05 3.76207e-05 0)
(5.72395e-05 3.81037e-05 0)
(4.86118e-05 3.85215e-05 0)
(3.98974e-05 3.88739e-05 0)
(3.1111e-05 3.91612e-05 0)
(2.22672e-05 3.9384e-05 0)
(1.33803e-05 3.95435e-05 0)
(4.46403e-06 3.96399e-05 0)
(-4.50357e-06 4.85978e-05 0)
(-1.34988e-05 4.84799e-05 0)
(-2.24644e-05 4.82845e-05 0)
(-3.13865e-05 4.80114e-05 0)
(-4.02507e-05 4.76592e-05 0)
(-4.90423e-05 4.72271e-05 0)
(-5.77463e-05 4.67149e-05 0)
(-6.63481e-05 4.61227e-05 0)
(-7.48327e-05 4.54511e-05 0)
(-8.31856e-05 4.47008e-05 0)
(-9.13922e-05 4.38727e-05 0)
(-9.94384e-05 4.29683e-05 0)
(-0.00010731 4.19889e-05 0)
(-0.000114993 4.09361e-05 0)
(-0.000122475 3.98117e-05 0)
(-0.000129742 3.86176e-05 0)
(-0.000136781 3.73559e-05 0)
(-0.00014358 3.60287e-05 0)
(-0.000150128 3.46384e-05 0)
(-0.000156412 3.31874e-05 0)
(-0.000162422 3.16782e-05 0)
(-0.000168148 3.01134e-05 0)
(-0.000173578 2.84958e-05 0)
(-0.000178704 2.68283e-05 0)
(-0.000183517 2.51137e-05 0)
(-0.000188008 2.3355e-05 0)
(-0.000192169 2.15553e-05 0)
(-0.000195993 1.97178e-05 0)
(-0.000199474 1.78458e-05 0)
(-0.000202604 1.59424e-05 0)
(-0.00020538 1.4011e-05 0)
(-0.000207795 1.2055e-05 0)
(-0.000209845 1.00778e-05 0)
(-0.000211528 8.08295e-06 0)
(-0.00021284 6.07388e-06 0)
(-0.000213778 4.05413e-06 0)
(-0.000214342 2.02724e-06 0)
(-0.00021453 -3.23956e-09 0)
(-0.000214341 -2.03374e-06 0)
(-0.000213776 -4.06071e-06 0)
(-0.000212837 -6.08058e-06 0)
(-0.000211524 -8.08982e-06 0)
(-0.00020984 -1.00849e-05 0)
(-0.000207788 -1.20623e-05 0)
(-0.000205371 -1.40186e-05 0)
(-0.000202595 -1.59503e-05 0)
(-0.000199463 -1.78541e-05 0)
(-0.000195981 -1.97266e-05 0)
(-0.000192155 -2.15645e-05 0)
(-0.000187992 -2.33646e-05 0)
(-0.000183499 -2.51238e-05 0)
(-0.000178685 -2.68388e-05 0)
(-0.000173557 -2.85069e-05 0)
(-0.000168124 -3.01249e-05 0)
(-0.000162397 -3.16901e-05 0)
(-0.000156385 -3.31997e-05 0)
(-0.000150098 -3.46511e-05 0)
(-0.000143548 -3.60418e-05 0)
(-0.000136746 -3.73692e-05 0)
(-0.000129704 -3.8631e-05 0)
(-0.000122435 -3.98251e-05 0)
(-0.000114951 -4.09494e-05 0)
(-0.000107265 -4.20018e-05 0)
(-9.93909e-05 -4.29805e-05 0)
(-9.13425e-05 -4.38838e-05 0)
(-8.31339e-05 -4.47101e-05 0)
(-7.47793e-05 -4.5458e-05 0)
(-6.62936e-05 -4.61261e-05 0)
(-5.76916e-05 -4.67133e-05 0)
(-4.89883e-05 -4.72186e-05 0)
(-4.01991e-05 -4.7641e-05 0)
(-3.13394e-05 -4.79798e-05 0)
(-2.24246e-05 -4.82344e-05 0)
(-1.34706e-05 -4.84045e-05 0)
(-4.49287e-06 -4.84895e-05 0)
(4.49279e-06 -4.84895e-05 0)
(1.34705e-05 -4.84045e-05 0)
(2.24245e-05 -4.82344e-05 0)
(3.13393e-05 -4.79798e-05 0)
(4.0199e-05 -4.7641e-05 0)
(4.89882e-05 -4.72186e-05 0)
(5.76915e-05 -4.67133e-05 0)
(6.62935e-05 -4.61261e-05 0)
(7.47793e-05 -4.5458e-05 0)
(8.31338e-05 -4.47101e-05 0)
(9.13424e-05 -4.38838e-05 0)
(9.93908e-05 -4.29805e-05 0)
(0.000107265 -4.20018e-05 0)
(0.000114951 -4.09494e-05 0)
(0.000122435 -3.98251e-05 0)
(0.000129704 -3.8631e-05 0)
(0.000136746 -3.73692e-05 0)
(0.000143548 -3.60418e-05 0)
(0.000150098 -3.46511e-05 0)
(0.000156384 -3.31997e-05 0)
(0.000162397 -3.16901e-05 0)
(0.000168124 -3.01249e-05 0)
(0.000173557 -2.85069e-05 0)
(0.000178685 -2.68388e-05 0)
(0.000183499 -2.51237e-05 0)
(0.000187992 -2.33646e-05 0)
(0.000192155 -2.15645e-05 0)
(0.00019598 -1.97266e-05 0)
(0.000199462 -1.78541e-05 0)
(0.000202595 -1.59503e-05 0)
(0.000205371 -1.40186e-05 0)
(0.000207788 -1.20623e-05 0)
(0.00020984 -1.00849e-05 0)
(0.000211524 -8.08982e-06 0)
(0.000212837 -6.08058e-06 0)
(0.000213776 -4.0607e-06 0)
(0.000214341 -2.03373e-06 0)
(0.000214529 -3.22908e-09 0)
(0.000214342 2.02725e-06 0)
(0.000213778 4.05414e-06 0)
(0.00021284 6.0739e-06 0)
(0.000211528 8.08297e-06 0)
(0.000209845 1.00778e-05 0)
(0.000207795 1.2055e-05 0)
(0.000205379 1.4011e-05 0)
(0.000202604 1.59424e-05 0)
(0.000199473 1.78458e-05 0)
(0.000195993 1.97179e-05 0)
(0.000192169 2.15553e-05 0)
(0.000188008 2.3355e-05 0)
(0.000183517 2.51137e-05 0)
(0.000178704 2.68283e-05 0)
(0.000173578 2.84959e-05 0)
(0.000168148 3.01135e-05 0)
(0.000162422 3.16782e-05 0)
(0.000156412 3.31874e-05 0)
(0.000150128 3.46385e-05 0)
(0.00014358 3.60288e-05 0)
(0.000136781 3.7356e-05 0)
(0.000129742 3.86177e-05 0)
(0.000122475 3.98118e-05 0)
(0.000114993 4.09362e-05 0)
(0.00010731 4.1989e-05 0)
(9.94382e-05 4.29684e-05 0)
(9.1392e-05 4.38729e-05 0)
(8.31853e-05 4.47009e-05 0)
(7.48324e-05 4.54513e-05 0)
(6.63478e-05 4.61229e-05 0)
(5.7746e-05 4.67151e-05 0)
(4.9042e-05 4.72274e-05 0)
(4.02504e-05 4.76595e-05 0)
(3.13863e-05 4.80118e-05 0)
(2.24642e-05 4.82849e-05 0)
(1.34986e-05 4.84804e-05 0)
(4.50352e-06 4.85984e-05 0)
(-4.5507e-06 5.76429e-05 0)
(-1.36401e-05 5.75032e-05 0)
(-2.26995e-05 5.72715e-05 0)
(-3.1715e-05 5.69475e-05 0)
(-4.06721e-05 5.65297e-05 0)
(-4.95557e-05 5.60171e-05 0)
(-5.83509e-05 5.54096e-05 0)
(-6.70427e-05 5.47072e-05 0)
(-7.56162e-05 5.39105e-05 0)
(-8.40566e-05 5.30205e-05 0)
(-9.23492e-05 5.20384e-05 0)
(-0.00010048 5.09656e-05 0)
(-0.000108434 4.98039e-05 0)
(-0.000116197 4.85552e-05 0)
(-0.000123757 4.72215e-05 0)
(-0.0001311 4.58052e-05 0)
(-0.000138213 4.43087e-05 0)
(-0.000145084 4.27345e-05 0)
(-0.0001517 4.10854e-05 0)
(-0.00015805 3.93643e-05 0)
(-0.000164123 3.75742e-05 0)
(-0.000169909 3.57182e-05 0)
(-0.000175396 3.37996e-05 0)
(-0.000180576 3.18216e-05 0)
(-0.000185439 2.97879e-05 0)
(-0.000189977 2.77019e-05 0)
(-0.000194181 2.55673e-05 0)
(-0.000198046 2.33878e-05 0)
(-0.000201563 2.11673e-05 0)
(-0.000204726 1.89096e-05 0)
(-0.000207531 1.66188e-05 0)
(-0.000209971 1.42987e-05 0)
(-0.000212043 1.19536e-05 0)
(-0.000213744 9.58743e-06 0)
(-0.000215069 7.20443e-06 0)
(-0.000216018 4.80876e-06 0)
(-0.000216587 2.40462e-06 0)
(-0.000216777 -3.77254e-09 0)
(-0.000216586 -2.4122e-06 0)
(-0.000216016 -4.81643e-06 0)
(-0.000215066 -7.21225e-06 0)
(-0.00021374 -9.59545e-06 0)
(-0.000212038 -1.19619e-05 0)
(-0.000209965 -1.43073e-05 0)
(-0.000207523 -1.66277e-05 0)
(-0.000204717 -1.8919e-05 0)
(-0.000201552 -2.11771e-05 0)
(-0.000198034 -2.33981e-05 0)
(-0.000194168 -2.55781e-05 0)
(-0.000189961 -2.77132e-05 0)
(-0.000185422 -2.97998e-05 0)
(-0.000180557 -3.18341e-05 0)
(-0.000175375 -3.38126e-05 0)
(-0.000169886 -3.57318e-05 0)
(-0.000164098 -3.75883e-05 0)
(-0.000158023 -3.93789e-05 0)
(-0.00015167 -4.11005e-05 0)
(-0.000145052 -4.27499e-05 0)
(-0.000138179 -4.43244e-05 0)
(-0.000131063 -4.58211e-05 0)
(-0.000123718 -4.72375e-05 0)
(-0.000116155 -4.8571e-05 0)
(-0.000108389 -4.98192e-05 0)
(-0.000100432 -5.09801e-05 0)
(-9.22996e-05 -5.20516e-05 0)
(-8.40049e-05 -5.30317e-05 0)
(-7.55629e-05 -5.39188e-05 0)
(-6.69883e-05 -5.47113e-05 0)
(-5.82961e-05 -5.54078e-05 0)
(-4.95016e-05 -5.60071e-05 0)
(-4.06203e-05 -5.65081e-05 0)
(-3.16677e-05 -5.691e-05 0)
(-2.26596e-05 -5.7212e-05 0)
(-1.36117e-05 -5.74137e-05 0)
(-4.53995e-06 -5.75146e-05 0)
(4.53987e-06 -5.75146e-05 0)
(1.36116e-05 -5.74137e-05 0)
(2.26595e-05 -5.7212e-05 0)
(3.16677e-05 -5.691e-05 0)
(4.06202e-05 -5.65081e-05 0)
(4.95016e-05 -5.60071e-05 0)
(5.8296e-05 -5.54078e-05 0)
(6.69882e-05 -5.47113e-05 0)
(7.55628e-05 -5.39188e-05 0)
(8.40049e-05 -5.30317e-05 0)
(9.22995e-05 -5.20516e-05 0)
(0.000100432 -5.09801e-05 0)
(0.000108389 -4.98192e-05 0)
(0.000116155 -4.8571e-05 0)
(0.000123718 -4.72375e-05 0)
(0.000131063 -4.58211e-05 0)
(0.000138179 -4.43244e-05 0)
(0.000145052 -4.27499e-05 0)
(0.00015167 -4.11005e-05 0)
(0.000158023 -3.93789e-05 0)
(0.000164098 -3.75883e-05 0)
(0.000169886 -3.57318e-05 0)
(0.000175375 -3.38126e-05 0)
(0.000180557 -3.18341e-05 0)
(0.000185422 -2.97998e-05 0)
(0.000189961 -2.77132e-05 0)
(0.000194168 -2.55781e-05 0)
(0.000198034 -2.33981e-05 0)
(0.000201552 -2.11771e-05 0)
(0.000204717 -1.8919e-05 0)
(0.000207523 -1.66277e-05 0)
(0.000209964 -1.43073e-05 0)
(0.000212038 -1.19619e-05 0)
(0.000213739 -9.59544e-06 0)