/*--------------------------------*- C++ -*----------------------------------*\
| =========                 |                                                 |
| \\      /  F ield         | OpenFOAM: The Open Source CFD Toolbox           |
|  \\    /   O peration     | Version:  2106                                  |
|   \\  /    A nd           | Website:  www.openfoam.com                      |
|    \\/     M anipulation  |                                                 |
\*---------------------------------------------------------------------------*/
FoamFile
{
    version     2.0;
    format      ascii;
    arch        "LSB;label=32;scalar=64";
    class       volScalarField;
    location    "0.002";
    object      p;
}
// * * * * * * * * * * * * * * * * * * * * * * * * * * * * * * * * * * * * * //

dimensions      [1 -1 -2 0 0 0 0];

internalField   nonuniform List<scalar> 
16384
(
-21.339951
-21.289673
-21.189226
-21.038829
-20.838806
-20.589593
-20.291732
-19.945873
-19.552772
-19.113292
-18.6284
-18.099168
-17.526768
-16.912476
-16.257667
-15.56381
-14.832474
-14.065316
-13.264085
-12.430618
-11.566832
-10.674727
-9.7563763
-8.8139258
-7.8495882
-6.8656379
-5.8644066
-4.848276
-3.8196696
-2.7810581
-1.7350249
-0.68398232
0.3695729
1.4229109
2.473523
3.5188472
4.5563142
5.5833693
6.5974789
7.5961367
8.5768704
9.5372479
10.474885
11.38745
12.272673
13.12835
13.952347
14.742611
15.49717
16.214141
16.891736
17.528264
18.122135
18.671868
19.17609
19.633545
20.043091
20.403705
20.71449
20.974669
21.183596
21.340748
21.445734
21.498292
21.498292
21.445734
21.340748
21.183596
20.974669
20.71449
20.403705
20.04309
19.633545
19.17609
18.671868
18.122135
17.528264
16.891736
16.214141
15.49717
14.742611
13.952347
13.12835
12.272673
11.38745
10.474885
9.5372479
8.5768703
7.5961367
6.5974788
5.5833692
4.5563142
3.5188472
2.473523
1.4229109
0.3695729
-0.68398231
-1.7350248
-2.7810581
-3.8196695
-4.848276
-5.8644066
-6.8656379
-7.8495881
-8.8139258
-9.7563763
-10.674727
-11.566832
-12.430618
-13.264085
-14.065316
-14.832474
-15.56381
-16.257667
-16.912476
-17.526768
-18.099168
-18.6284
-19.113292
-19.552772
-19.945873
-20.291732
-20.589593
-20.838806
-21.038829
-21.189226
-21.289673
-21.339951
-21.385534
-21.335155
-21.234507
-21.083807
-20.883382
-20.633667
-20.335205
-19.988646
-19.594748
-19.154375
-18.668496
-18.138182
-17.56461
-16.949056
-16.292897
-15.597606
-14.864752
-14.095998
-13.293095
-12.457882
-11.592282
-10.698297
-9.7780055
-8.8335581
-7.8671719
-6.8811265
-5.8777587
-4.8594564
-3.8286526
-2.7878258
-1.7395096
-0.68617471
0.36959974
1.4252075
2.4780887
3.5256684
4.5653728
5.594642
6.6109367
7.6117449
8.5945884
9.5570298
10.496679
11.411201
12.298318
13.155823
13.981578
14.773524
15.529687
16.248179
16.927209
17.565082
18.160206
18.711096
19.216379
19.674794
20.085198
20.446567
20.758001
21.018724
21.228086
21.385566
21.490771
21.543439
21.543439
21.490771
21.385566
21.228086
21.018724
20.758001
20.446567
20.085198
19.674794
19.216379
18.711096
18.160206
17.565082
16.927209
16.248179
15.529687
14.773524
13.981578
13.155823
12.298318
11.411201
10.496679
9.5570298
8.5945884
7.6117449
6.6109367
5.5946419
4.5653728
3.5256684
2.4780887
1.4252075
0.36959974
-0.68617471
-1.7395096
-2.7878258
-3.8286526
-4.8594564
-5.8777587
-6.8811265
-7.8671719
-8.8335581
-9.7780055
-10.698297
-11.592282
-12.457882
-13.293095
-14.095998
-14.864752
-15.597606
-16.292897
-16.949056
-17.56461
-18.138182
-18.668496
-19.154375
-19.594748
-19.988646
-20.335205
-20.633667
-20.883382
-21.083807
-21.234507
-21.335155
-21.385534
-21.484409
-21.43381
-21.332722
-21.181363
-20.98006
-20.729251
-20.429478
-20.081395
-19.685762
-19.243444
-18.755414
-18.222747
-17.646622
-17.028322
-16.369227
-15.670816
-14.934664
-14.162439
-13.355901
-12.516896
-11.647354
-10.749288
-9.8247836
-8.8760019
-7.9051702
-6.9145789
-5.9065758
-4.8835608
-3.8479802
-2.8023223
-1.7491131
-0.69088028
0.36979699
1.4303252
2.4881174
3.5405829
4.5851358
5.6192036
6.6402345
7.6457037
8.633121
9.6000371
10.54405
11.462814
12.354041
13.215512
14.045081
14.840679
15.600323
16.322118
17.004264
17.645059
18.242905
18.796311
19.303898
19.7644
20.17667
20.53968
20.852528
21.114433
21.324743
21.482935
21.588616
21.641523
21.641523
21.588616
21.482935
21.324743
21.114433
20.852528
20.53968
20.17667
19.7644
19.303898
18.796311
18.242905
17.645059
17.004264
16.322118
15.600323
14.840679
14.045081
13.215512
12.354041
11.462814
10.54405
9.600037
8.633121
7.6457037
6.6402344
5.6192036
4.5851357
3.5405829
2.4881174
1.4303251
0.36979698
-0.69088028
-1.7491131
-2.8023223
-3.8479802
-4.8835608
-5.9065757
-6.9145788
-7.9051702
-8.8760019
-9.8247836
-10.749288
-11.647354
-12.516896
-13.355901
-14.162439
-14.934663
-15.670815
-16.369227
-17.028322
-17.646622
-18.222747
-18.755414
-19.243444
-19.685762
-20.081395
-20.429478
-20.729251
-20.98006
-21.181363
-21.332722
-21.43381
-21.484409
-21.635628
-21.584692
-21.482931
-21.330564
-21.127919
-20.875434
-20.573657
-20.223243
-19.824954
-19.379661
-18.88834
-18.352073
-17.772044
-17.149542
-16.485956
-15.782772
-15.041574
-14.264041
-13.451943
-12.607137
-11.731566
-10.827256
-9.896308
-8.9408964
-7.9632648
-6.96572
-5.9506268
-4.920403
-3.877513
-2.8244628
-1.7637934
-0.69806602
0.37012787
1.4381804
2.5034809
3.563418
4.615386
5.6567928
6.6850671
7.6976651
8.6920778
9.6658376
10.616525
11.541777
12.439289
13.306828
14.14223
14.943414
15.708383
16.43523
17.122142
17.767406
18.369416
18.926671
19.437782
19.901478
20.316603
20.682125
20.997134
21.260847
21.472608
21.631891
21.7383
21.791571
21.791571
21.7383
21.631891
21.472608
21.260847
20.997134
20.682125
20.316603
19.901478
19.437782
18.926671
18.369416
17.767406
17.122142
16.43523
15.708383
14.943414
14.14223
13.306828
12.439289
11.541777
10.616525
9.6658375
8.6920777
7.6976651
6.6850671
5.6567928
4.6153859
3.563418
2.5034809
1.4381803
0.37012786
-0.69806603
-1.7637934
-2.8244628
-3.877513
-4.920403
-5.9506268
-6.96572
-7.9632648
-8.9408964
-9.8963079
-10.827256
-11.731566
-12.607137
-13.451943
-14.264041
-15.041574
-15.782772
-16.485956
-17.149542
-17.772044
-18.352073
-18.88834
-19.379661
-19.824954
-20.223243
-20.573657
-20.875434
-21.127919
-21.330564
-21.482931
-21.584692
-21.635628
-21.839026
-21.787638
-21.684973
-21.53125
-21.326801
-21.072065
-20.767594
-20.414045
-20.012187
-19.562894
-19.06715
-18.526043
-17.940765
-17.312615
-16.642989
-15.933387
-15.185404
-14.400733
-13.581157
-12.728549
-11.844871
-10.932163
-9.9925466
-9.0282171
-8.0414385
-7.0345396
-6.0099083
-4.9699862
-3.9172623
-2.8542674
-1.7835673
-0.7077537
0.37055705
1.4487324
2.5241341
3.5941232
4.6560673
5.707348
6.7453674
7.7675561
8.7713798
9.7543466
10.714013
11.647993
12.553961
13.42966
14.27291
15.081608
15.85374
16.587381
17.280703
17.93198
18.53959
19.102021
19.617873
20.085863
20.504828
20.873726
21.191643
21.457787
21.671499
21.832249
21.939638
21.993399
21.993399
21.939638
21.832249
21.671499
21.457787
21.191643
20.873726
20.504828
20.085863
19.617873
19.102021
18.53959
17.93198
17.280703
16.587381
15.85374
15.081608
14.27291
13.42966
12.553961
11.647993
10.714013
9.7543465
8.7713798
7.767556
6.7453673
5.7073479
4.6560673
3.5941231
2.524134
1.4487324
0.37055704
-0.70775371
-1.7835673
-2.8542674
-3.9172623
-4.9699862
-6.0099083
-7.0345396
-8.0414384
-9.0282171
-9.9925466
-10.932163
-11.844871
-12.728549
-13.581157
-14.400733
-15.185404
-15.933387
-16.642989
-17.312615
-17.940765
-18.526043
-19.06715
-19.562894
-20.012187
-20.414045
-20.767594
-21.072065
-21.326801
-21.53125
-21.684973
-21.787638
-21.839026
-22.095104
-22.043147
-21.939344
-21.783918
-21.5772
-21.319634
-21.011774
-20.654284
-20.247936
-19.793614
-19.292306
-18.74511
-18.153229
-17.517971
-16.840747
-16.123069
-15.366549
-14.572894
-13.743906
-12.881479
-11.987593
-11.064314
-10.113785
-9.1382275
-8.1399316
-7.1212542
-6.0846122
-5.032477
-3.9673687
-2.8918498
-1.8085185
-0.72000106
0.37105288
1.461978
2.5501018
3.6327513
4.7072603
5.7709765
6.8212693
7.8555367
8.8712127
9.8657743
10.836749
11.78172
12.698334
13.58431
14.43744
15.255599
16.036748
16.778943
17.480336
18.139182
18.753841
19.322787
19.844605
20.318
20.741798
21.114946
21.436521
21.705726
21.921894
22.084489
22.19311
22.247488
22.247488
22.19311
22.084489
21.921894
21.705726
21.436521
21.114946
20.741798
20.318
19.844605
19.322787
18.753841
18.139182
17.480336
16.778943
16.036748
15.255599
14.43744
13.58431
12.698334
11.781719
10.836749
9.8657742
8.8712127
7.8555367
6.8212693
5.7709765
4.7072603
3.6327513
2.5501018
1.461978
0.37105287
-0.72000107
-1.8085185
-2.8918498
-3.9673687
-5.032477
-6.0846122
-7.1212542
-8.1399316
-9.1382275
-10.113785
-11.064314
-11.987593
-12.881479
-13.743906
-14.572894
-15.366549
-16.123069
-16.840747
-17.517971
-18.153229
-18.74511
-19.292306
-19.793614
-20.247936
-20.654284
-21.011774
-21.319634
-21.5772
-21.783918
-21.939344
-22.043147
-22.095104
-22.404502
-22.351859
-22.246685
-22.089202
-21.879748
-21.618767
-21.30682
-20.944575
-20.532811
-20.072419
-19.564397
-19.009853
-18.410003
-17.766166
-17.07977
-16.352342
-15.585512
-14.781008
-13.940654
-13.066367
-12.160152
-11.224102
-10.260389
-9.2712646
-8.2590518
-7.2261408
-6.1749833
-5.1080875
-4.0280109
-2.9373544
-1.8387558
-0.73488199
0.37157666
1.4779143
2.5814171
3.679371
4.7690686
5.8478171
6.9129457
7.9618132
8.991815
10.000391
10.985031
11.943286
12.872767
13.771162
14.63623
15.46582
16.257865
17.010394
17.721537
18.389525
19.0127
19.589514
20.118539
20.598462
21.028096
21.406377
21.73237
22.00527
22.224402
22.389226
22.499336
22.554458
22.554458
22.499336
22.389226
22.224402
22.00527
21.73237
21.406377
21.028096
20.598462
20.118539
19.589514
19.0127
18.389525
17.721537
17.010394
16.257865
15.46582
14.63623
13.771162
12.872767
11.943286
10.985031
10.000391
8.991815
7.9618132
6.9129457
5.847817
4.7690685
3.679371
2.5814171
1.4779142
0.37157664
-0.73488201
-1.8387558
-2.9373544
-4.0280109
-5.1080875
-6.1749833
-7.2261408
-8.2590518
-9.2712646
-10.260389
-11.224102
-12.160152
-13.066367
-13.940654
-14.781008
-15.585512
-16.352342
-17.07977
-17.766166
-18.410003
-19.009853
-19.564397
-20.072419
-20.532811
-20.944575
-21.30682
-21.618767
-21.879748
-22.089202
-22.246685
-22.351859
-22.404502
-22.76795
-22.714502
-22.607719
-22.447828
-22.235165
-21.970182
-21.653442
-21.285621
-20.867506
-20.399996
-19.8841
-19.320937
-18.711737
-18.057835
-17.360675
-16.621805
-15.842874
-15.025635
-14.171937
-13.283723
-12.363029
-11.41198
-10.432781
-9.4277194
-8.3991563
-7.3495212
-6.2813075
-5.1970659
-4.0993982
-2.990951
-1.8744084
-0.75248521
0.3720805
1.4965345
2.6181145
3.7340576
4.8416083
5.9380257
7.0205919
8.0866193
9.1334581
10.158504
11.159204
12.133068
13.077668
13.990653
14.869749
15.712767
16.51761
17.282278
18.004872
18.683597
19.316771
19.902826
20.440312
20.9279
21.364385
21.748691
22.079871
22.357108
22.579721
22.747161
22.859017
22.915014
22.915014
22.859017
22.747161
22.579721
22.357108
22.079871
21.748691
21.364385
20.9279
20.440312
19.902826
19.316771
18.683597
18.004872
17.282278
16.51761
15.712767
14.869749
13.990653
13.077668
12.133068
11.159204
10.158504
9.133458
8.0866193
7.0205919
5.9380257
4.8416082
3.7340576
2.6181145
1.4965345
0.37208047
-0.75248523
-1.8744085
-2.990951
-4.0993982
-5.1970659
-6.2813075
-7.3495212
-8.3991563
-9.4277194
-10.432781
-11.41198
-12.363029
-13.283723
-14.171937
-15.025635
-15.842874
-16.621805
-17.360675
-18.057835
-18.711737
-19.320937
-19.8841
-20.399996
-20.867506
-21.285621
-21.653442
-21.970182
-22.235165
-22.447828
-22.607719
-22.714502
-22.76795
-23.186296
-23.131925
-23.023296
-22.860638
-22.644292
-22.374713
-22.05247
-21.678245
-21.252835
-20.777148
-20.252205
-19.679138
-19.059193
-18.393722
-17.684189
-16.932162
-16.139316
-15.30743
-14.438381
-13.534145
-12.596792
-11.628481
-10.631458
-9.6080513
-8.560665
-7.4917745
-6.4039209
-5.2997042
-4.1817776
-3.0528401
-1.9156297
-0.77291606
0.37250714
1.5178298
2.6602334
3.7968988
4.9250146
6.0417846
7.1444363
8.2302285
9.296459
10.340473
11.359668
12.351506
13.313515
14.243298
15.138542
15.997018
16.816593
17.595232
18.331003
19.022083
19.666763
20.26345
20.810669
21.307073
21.75144
22.142676
22.479821
22.762047
22.988661
23.159109
23.272974
23.329976
23.329976
23.272974
23.159109
22.988661
22.762047
22.479821
22.142676
21.75144
21.307073
20.810669
20.26345
19.666763
19.022083
18.331003
17.595232
16.816593
15.997018
15.138542
14.243298
13.313515
12.351506
11.359668
10.340473
9.296459
8.2302284
7.1444363
6.0417846
4.9250145
3.7968988
2.6602333
1.5178298
0.37250712
-0.77291608
-1.9156297
-3.0528401
-4.1817776
-5.2997042
-6.4039209
-7.4917745
-8.560665
-9.6080513
-10.631458
-11.628481
-12.596792
-13.534145
-14.438381
-15.30743
-16.139316
-16.932162
-17.684189
-18.393722
-19.059193
-19.679138
-20.252205
-20.777148
-21.252835
-21.678245
-22.05247
-22.374713
-22.644292
-22.860638
-23.023296
-23.131925
-23.186296
-23.660522
-23.605107
-23.494392
-23.328607
-23.108097
-22.833323
-22.504858
-22.123394
-21.689734
-21.2048
-20.669623
-20.085353
-19.45325
-18.774686
-18.051147
-17.284226
-16.475625
-15.627151
-14.740715
-13.818327
-12.862096
-11.874222
-10.856997
-9.8127931
-8.7440652
-7.6533404
-6.5432137
-5.4163417
-4.2754357
-3.1232547
-1.9625979
-0.79629758
0.37278937
1.541789
2.7078186
3.8679951
5.0194433
6.1593039
7.2847424
8.3929564
9.4811843
10.546713
11.586886
12.599108
13.580858
14.529689
15.443241
16.319241
17.155515
17.949989
18.700694
19.405776
20.063492
20.672222
21.230469
21.73686
22.190153
22.589237
22.933137
23.221011
23.452158
23.626012
23.742151
23.800291
23.800291
23.742151
23.626012
23.452158
23.221011
22.933137
22.589237
22.190153
21.73686
21.230469
20.672222
20.063492
19.405776
18.700694
17.949989
17.155515
16.319241
15.443241
14.529689
13.580858
12.599108
11.586886
10.546713
9.4811843
8.3929564
7.2847424
6.1593039
5.0194433
3.8679951
2.7078186
1.541789
0.37278935
-0.79629759
-1.9625979
-3.1232547
-4.2754357
-5.4163417
-6.5432137
-7.6533404
-8.7440652
-9.8127931
-10.856997
-11.874222
-12.862096
-13.818327
-14.740715
-15.627151
-16.475625
-17.284226
-18.051147
-18.774686
-19.45325
-20.085353
-20.669623
-21.2048
-21.689734
-22.123394
-22.504858
-22.833323
-23.108097
-23.328607
-23.494392
-23.605107
-23.660522
-24.191734
-24.135154
-24.02211
-23.852835
-23.627677
-23.347102
-23.01169
-22.62214
-22.179267
-21.684001
-21.137391
-20.540599
-19.894906
-19.201705
-18.462504
-17.678924
-16.852696
-15.98566
-15.079764
-14.137057
-13.159689
-12.149909
-11.110055
-10.042553
-8.9499135
-7.8347212
-6.6996323
-5.5473666
-4.380701
-3.202462
-2.015518
-0.82277145
0.37284917
1.568398
2.76092
3.9474599
5.1250707
6.2908221
7.4418093
8.5751615
9.6880502
10.777697
11.841382
12.876452
13.880324
14.8505
15.784564
16.680196
17.535175
18.347383
19.114812
19.83557
20.507882
21.130095
21.700684
22.218252
22.681534
23.089401
23.440859
23.735053
23.971269
24.148934
24.267617
24.32703
24.32703
24.267617
24.148934
23.971269
23.735053
23.440859
23.089401
22.681534
22.218252
21.700684
21.130095
20.507882
19.83557
19.114812
18.347383
17.535175
16.680196
15.784564
14.8505
13.880324
12.876452
11.841382
10.777697
9.6880502
8.5751615
7.4418093
6.290822
5.1250707
3.9474599
2.76092
1.5683979
0.37284916
-0.82277146
-2.015518
-3.202462
-4.380701
-5.5473666
-6.6996323
-7.8347212
-8.9499135
-10.042553
-11.110055
-12.149909
-13.159689
-14.137057
-15.079764
-15.98566
-16.852696
-17.678924
-18.462504
-19.201705
-19.894906
-20.540599
-21.137391
-21.684001
-22.179267
-22.62214
-23.01169
-23.347102
-23.627677
-23.852835
-24.02211
-24.135154
-24.191734
-24.781173
-24.723305
-24.607688
-24.434555
-24.204259
-23.917271
-23.574178
-23.175687
-22.722623
-22.215929
-21.656667
-21.046019
-20.385282
-19.675875
-18.919329
-18.117295
-17.271537
-16.38393
-15.456462
-14.491224
-13.490416
-12.456335
-11.391374
-10.298018
-9.1788386
-8.036485
-6.8736813
-5.6932181
-4.4979454
-3.290765
-2.0746225
-0.85249918
0.37259685
1.5976392
2.819592
4.0354193
5.2420937
6.4366057
7.6159722
8.7772459
9.9175235
11.033954
12.123748
13.184184
14.212617
15.206484
16.163314
17.080732
17.956465
18.788347
19.574328
20.312472
21.000969
21.638131
22.222403
22.752361
23.226715
23.644314
24.004147
24.305344
24.547177
24.729064
24.850565
24.911389
24.911389
24.850565
24.729064
24.547177
24.305344
24.004147
23.644314
23.226715
22.752361
22.222403
21.638131
21.000969
20.312472
19.574328
18.788347
17.956465
17.080732
16.163314
15.206484
14.212617
13.184184
12.123748
11.033954
9.9175235
8.7772459
7.6159722
6.4366057
5.2420937
4.0354193
2.819592
1.5976391
0.37259684
-0.85249919
-2.0746225
-3.290765
-4.4979454
-5.6932181
-6.8736813
-8.036485
-9.1788386
-10.298018
-11.391374
-12.456335
-13.490416
-14.491224
-15.456462
-16.38393
-17.271537
-18.117295
-18.919329
-19.675875
-20.385282
-21.046019
-21.656667
-22.215929
-22.722623
-23.175687
-23.574178
-23.917271
-24.204259
-24.434555
-24.607688
-24.723305
-24.781173
-25.430209
-25.37093
-25.252491
-25.075129
-24.839201
-24.545181
-24.193665
-23.785367
-23.321123
-22.801889
-22.228742
-21.602881
-20.925625
-20.198416
-19.422814
-18.600499
-17.733271
-16.823044
-15.871848
-14.881823
-13.855219
-12.794388
-11.701785
-10.579957
-9.4315445
-8.259268
-7.0659266
-5.8543891
-4.6275866
-3.3885044
-2.1401738
-0.88566346
0.37193
1.6294907
2.8838933
4.1320119
5.3707303
6.5969507
7.8076034
8.9996563
10.170123
11.316074
12.43464
13.523026
14.578517
15.598482
16.580386
17.521795
18.420378
19.273919
20.080318
20.837596
21.543901
22.197509
22.796832
23.340416
23.826945
24.255246
24.624288
24.933183
25.181191
25.367717
25.492316
25.554691
25.554691
25.492316
25.367717
25.181191
24.933183
24.624288
24.255246
23.826945
23.340416
22.796832
22.197509
21.543901
20.837596
20.080318
19.273919
18.420378
17.521795
16.580386
15.598482
14.578517
13.523026
12.43464
11.316074
10.170123
8.9996563
7.8076035
6.5969507
5.3707303
4.1320119
2.8838933
1.6294907
0.37192999
-0.88566347
-2.1401739
-3.3885044
-4.6275866
-5.8543891
-7.0659266
-8.259268
-9.4315445
-10.579957
-11.701785
-12.794388
-13.855219
-14.881823
-15.871848
-16.823044
-17.733271
-18.6005
-19.422814
-20.198416
-20.925625
-21.602881
-22.228742
-22.801889
-23.321123
-23.785367
-24.193665
-24.545181
-24.839201
-25.075129
-25.252491
-25.37093
-25.430209
-26.140348
-26.079533
-25.958023
-25.776057
-25.533996
-25.232319
-24.871628
-24.452647
-23.976221
-23.443319
-22.855035
-22.212585
-21.517311
-20.770678
-19.974276
-19.129819
-18.239142
-17.304203
-16.327076
-15.309955
-14.255143
-13.165055
-12.042209
-10.889225
-9.7088146
-8.5037787
-7.2769986
-6.0314292
-4.7700908
-3.496061
-2.2124656
-0.92246965
0.37073239
1.6639259
2.9538865
4.2373893
5.5112197
6.7721828
8.0171133
9.2428856
10.446422
11.624705
12.77478
13.893772
14.978886
16.027419
17.036765
18.004425
18.928008
19.80524
20.633969
21.412168
22.137941
22.809527
23.425298
23.983771
24.483602
24.923593
25.302692
25.619994
25.874745
26.066339
26.19432
26.258387
26.258387
26.194321
26.066339
25.874745
25.619994
25.302692
24.923593
24.483602
23.983771
23.425298
22.809527
22.137941
21.412168
20.633969
19.80524
18.928008
18.004425
17.036765
16.027419
14.978886
13.893772
12.77478
11.624705
10.446422
9.2428856
8.0171134
6.7721828
5.5112197
4.2373893
2.9538865
1.6639259
0.37073239
-0.92246965
-2.2124656
-3.496061
-4.7700908
-6.0314292
-7.2769986
-8.5037787
-9.7088146
-10.889225
-12.042209
-13.165055
-14.255143
-15.309955
-16.327076
-17.304203
-18.239142
-19.129819
-19.974276
-20.770678
-21.517311
-22.212585
-22.855035
-23.443319
-23.976221
-24.452647
-24.871628
-25.232319
-25.533996
-25.776057
-25.958023
-26.079533
-26.140348
-26.913232
-26.850755
-26.725922
-26.538973
-26.290273
-25.980307
-25.609682
-25.179131
-24.689508
-24.141797
-23.537105
-22.876668
-22.161849
-21.394141
-20.575163
-19.706664
-18.790518
-17.828728
-16.823418
-15.776835
-14.691344
-13.569425
-12.413667
-11.226767
-10.011516
-8.7708018
-7.5075961
-6.224948
-4.9259758
-3.6138583
-2.2918252
-0.96314751
0.36887268
1.7009123
3.0296377
4.3517156
5.663823
6.9626584
8.2449516
9.5074742
10.747049
11.960562
13.144965
14.297295
15.414671
16.49431
17.533532
18.529765
19.480553
20.383561
21.236579
22.037531
22.784473
23.4756
24.109249
24.683902
25.198186
25.650876
26.040899
26.367333
26.629406
26.826502
26.958156
27.024061
27.024061
26.958156
26.826502
26.629406
26.367333
26.040899
25.650876
25.198186
24.683902
24.109249
23.4756
22.784473
22.037531
21.236579
20.383561
19.480553
18.529765
17.533532
16.49431
15.414671
14.297295
13.144965
11.960562
10.747049
9.5074743
8.2449516
6.9626584
5.663823
4.3517156
3.0296377
1.7009123
0.36887268
-0.96314751
-2.2918252
-3.6138583
-4.9259758
-6.224948
-7.5075961
-8.7708018
-10.011516
-11.226767
-12.413667
-13.569425
-14.691344
-15.776835
-16.823418
-17.828728
-18.790518
-19.706664
-20.575163
-21.394141
-22.161849
-22.876668
-23.537105
-24.141797
-24.689508
-25.179131
-25.609682
-25.980307
-26.290273
-26.538973
-26.725922
-26.850755
-26.913232
-27.750644
-27.686377
-27.557965
-27.365652
-27.109804
-26.79091
-26.409583
-25.966563
-25.462717
-24.899037
-24.276647
-23.596802
-22.860888
-22.070423
-21.227058
-20.332578
-19.388899
-18.398069
-17.362267
-16.283797
-15.16509
-14.008696
-12.817282
-11.593623
-10.340604
-9.0612028
-7.7584904
-6.435619
-5.0958141
-3.7423653
-2.3786159
-1.0079531
0.36620304
1.7404105
3.1112163
4.4751678
5.8288238
7.1687657
8.4916088
9.7940123
11.072691
12.324423
13.546062
14.734546
15.886903
17.000264
18.071866
19.09906
20.079319
21.010243
21.889563
22.715145
23.484997
24.19727
24.85026
25.442413
25.972325
26.438747
26.84058
27.176883
27.44687
27.649912
27.785535
27.853426
27.853426
27.785535
27.649912
27.44687
27.176883
26.84058
26.438747
25.972325
25.442413
24.85026
24.19727
23.484997
22.715145
21.889563
21.010243
20.079319
19.09906
18.071866
17.000264
15.886903
14.734546
13.546062
12.324423
11.072691
9.7940123
8.4916088
7.1687657
5.8288238
4.4751678
3.1112164
1.7404105
0.36620304
-1.0079531
-2.3786159
-3.7423653
-5.0958141
-6.435619
-7.7584904
-9.0612028
-10.340604
-11.593623
-12.817282
-14.008696
-15.16509
-16.283797
-17.362267
-18.398069
-19.388899
-20.332578
-21.227058
-22.070423
-22.860888
-23.596802
-24.276647
-24.899037
-25.462717
-25.966563
-26.409583
-26.79091
-27.109804
-27.365652
-27.557965
-27.686377
-27.750644
-28.654504
-28.58832
-28.456074
-28.258011
-27.994499
-27.666033
-27.273229
-26.816833
-26.297722
-25.716899
-25.075504
-24.374808
-23.61622
-22.801285
-21.931686
-21.009245
-20.03592
-19.013811
-17.945149
-16.832304
-15.677773
-14.484182
-13.254282
-11.990938
-10.697128
-9.375933
-8.0305301
-6.664184
-5.2802371
-3.8820998
-2.4732398
-1.057171
0.36255756
1.7823739
3.1986944
4.6079361
6.0065286
7.3909257
8.7576175
10.103141
11.424092
12.717136
13.979015
15.206562
16.396707
17.546485
18.653046
19.71366
20.725723
21.686765
22.594452
23.446593
24.241142
24.976204
25.650032
26.261037
26.807781
27.288988
27.703535
28.050462
28.328967
28.538408
28.678303
28.74833
28.74833
28.678303
28.538408
28.328967
28.050462
27.703535
27.288988
26.807781
26.261037
25.650032
24.976204
24.241142
23.446593
22.594452
21.686765
20.725723
19.71366
18.653046
17.546485
16.396707
15.206562
13.979015
12.717136
11.424092
10.103141
8.7576175
7.3909257
6.0065286
4.6079361
3.1986944
1.7823739
0.36255756
-1.057171
-2.4732398
-3.8820998
-5.2802371
-6.664184
-8.0305301
-9.375933
-10.697128
-11.990938
-13.254282
-14.484182
-15.677773
-16.832304
-17.945149
-19.013811
-20.03592
-21.009245
-21.931686
-22.801285
-23.61622
-24.374808
-25.075504
-25.716899
-26.297722
-26.816833
-27.273229
-27.666033
-27.994499
-28.258011
-28.456074
-28.58832
-28.654504
-29.626879
-29.558648
-29.42231
-29.21811
-28.946417
-28.607728
-28.202664
-27.731977
-27.196549
-26.597395
-25.935667
-25.212655
-24.429789
-23.588639
-22.690921
-21.738495
-20.733364
-19.677677
-18.573727
-17.423946
-16.230908
-14.997319
-13.726016
-12.419963
-11.082239
-9.7160356
-8.3246463
-6.9114576
-5.4799389
-4.0336322
-2.5761407
-1.1111166
0.35775054
1.8267467
3.2921461
4.7502235
6.1972677
7.6295936
9.043555
10.435556
11.802064
13.139619
14.444847
15.714465
16.945297
18.134277
19.27846
20.375029
21.421298
22.414722
23.3529
24.233581
25.054661
25.814197
26.5104
27.141639
27.706447
28.203516
28.631702
28.990023
29.277662
29.493964
29.638439
29.710757
29.710757
29.638439
29.493964
29.277662
28.990023
28.631702
28.203516
27.706447
27.141639
26.5104
25.814197
25.054661
24.233581
23.3529
22.414722
21.421298
20.375029
19.27846
18.134277
16.945297
15.714465
14.444847
13.139619
11.802064
10.435556
9.043555
7.6295936
6.1972677
4.7502235
3.2921461
1.8267467
0.35775053
-1.1111166
-2.5761407
-4.0336323
-5.4799389
-6.9114576
-8.3246463
-9.7160356
-11.082239
-12.419963
-13.726016
-14.997319
-16.230908
-17.423946
-18.573727
-19.677677
-20.733364
-21.738495
-22.690921
-23.588639
-24.429789
-25.212655
-25.935667
-26.597395
-27.196549
-27.731977
-28.202664
-28.607728
-28.946417
-29.21811
-29.42231
-29.558648
-29.626879
-30.66998
-30.599573
-30.458884
-30.248157
-29.967763
-29.618198
-29.200086
-28.714183
-28.161376
-27.542688
-26.859284
-26.112469
-25.303691
-24.43455
-23.50679
-22.522311
-21.483161
-20.391542
-19.249808
-18.060461
-16.82615
-15.54967
-14.233953
-12.882063
-11.497193
-10.082652
-8.6418589
-7.1783328
-5.6956813
-4.1975894
-2.6878075
-1.1701387
0.35157456
1.8734636
3.3916476
4.9022467
6.4013963
7.8852603
9.3500444
10.792009
12.207481
13.592868
14.944665
16.25947
17.533989
18.76505
19.949605
21.084744
22.167695
23.195835
24.166691
25.077946
25.927441
26.71318
27.43333
28.086221
28.670351
29.184384
29.627153
29.997656
30.295058
30.518692
30.66806
30.742827
30.742827
30.66806
30.518692
30.295058
29.997656
29.627153
29.184384
28.670351
28.086221
27.43333
26.71318
25.927441
25.077946
24.166691
23.195835
22.167695
21.084744
19.949605
18.76505
17.533989
16.25947
14.944665
13.592868
12.207481
10.792009
9.3500444
7.8852603
6.4013963
4.9022466
3.3916476
1.8734636
0.35157455
-1.1701387
-2.6878076
-4.1975894
-5.6956813
-7.1783328
-8.6418589
-10.082652
-11.497193
-12.882063
-14.233953
-15.54967
-16.82615
-18.060461
-19.249808
-20.391542
-21.483161
-22.522311
-23.50679
-24.43455
-25.303691
-26.112469
-26.859284
-27.542688
-28.161375
-28.714183
-29.200086
-29.618198
-29.967763
-30.248157
-30.458884
-30.599573
-30.66998
-31.786165
-31.713454
-31.568154
-31.350511
-31.060893
-30.699796
-30.267845
-29.765796
-29.194538
-28.555103
-27.848663
-27.076536
-26.24019
-25.341247
-24.381485
-23.362839
-22.287405
-21.157438
-19.975355
-18.743731
-17.465298
-16.142941
-14.779693
-13.37873
-11.943363
-10.477029
-8.9832828
-7.4657872
-5.9282992
-4.3746593
-2.8087781
-1.2346225
0.34379842
1.922448
3.4972764
5.0642359
6.6192952
8.1584542
9.677758
11.173311
12.641289
14.077955
15.479665
16.842886
18.164201
19.440321
20.668092
21.844503
22.966692
24.031952
25.037735
25.981658
26.861503
27.675219
28.420928
29.096921
29.701661
30.233786
30.692101
31.075587
31.383394
31.614842
31.769423
31.846798
31.846798
31.769423
31.614842
31.383394
31.075587
30.692101
30.233786
29.701661
29.09692
28.420928
27.675219
26.861503
25.981658
25.037735
24.031952
22.966692
21.844503
20.668092
19.440321
18.164201
16.842886
15.479665
14.077955
12.641289
11.173311
9.6777579
8.1584541
6.6192952
5.0642359
3.4972764
1.9224479
0.3437984
-1.2346225
-2.8087782
-4.3746593
-5.9282992
-7.4657872
-8.9832828
-10.477029
-11.943363
-13.37873
-14.779693
-16.142941
-17.465298
-18.743731
-19.975355
-21.157438
-22.287405
-23.362839
-24.381485
-25.341247
-26.24019
-27.076536
-27.848663
-28.555103
-29.194538
-29.765796
-30.267845
-30.699796
-31.060893
-31.350511
-31.568154
-31.713454
-31.786165
-32.977943
-32.902798
-32.75263
-32.527681
-32.228319
-31.855034
-31.40845
-30.889321
-30.298536
-29.63713
-28.906279
-28.107314
-27.241718
-26.311134
-25.31737
-24.262397
-23.148358
-21.977563
-20.752495
-19.475803
-18.150305
-16.778984
-15.364981
-13.911588
-12.422245
-10.900527
-9.350136
-7.7748893
-6.1787062
-4.5655961
-2.9396433
-1.304993
0.33416481
1.9736105
3.6091109
5.2364356
6.8513724
8.4497432
10.027419
11.580336
13.104506
14.596036
16.051134
17.466124
18.837459
20.161725
21.435654
22.65613
23.820195
24.925054
25.968083
26.946827
27.859007
28.70252
29.47544
30.17602
30.802688
31.354053
31.828899
32.226186
32.545051
32.784802
32.944922
33.025069
33.025069
32.944922
32.784802
32.545051
32.226186
31.828899
31.354053
30.802688
30.17602
29.47544
28.70252
27.859007
26.946827
25.968083
24.925054
23.820195
22.65613
21.435654
20.161725
18.837459
17.466124
16.051134
14.596036
13.104506
11.580336
10.027419
8.4497432
6.8513724
5.2364356
3.6091109
1.9736105
0.3341648
-1.304993
-2.9396433
-4.5655961
-6.1787062
-7.7748893
-9.3501361
-10.900527
-12.422245
-13.911588
-15.364981
-16.778984
-18.150305
-19.475803
-20.752495
-21.977563
-23.148358
-24.262397
-25.31737
-26.311134
-27.241718
-28.107314
-28.906279
-29.63713
-30.298536
-30.889321
-31.40845
-31.855034
-32.228319
-32.527681
-32.75263
-32.902798
-32.977943
-34.247973
-34.170267
-34.014974
-33.782333
-33.472707
-33.086581
-32.624572
-32.087429
-31.476037
-30.791429
-30.034784
-29.207438
-28.310886
-27.346792
-26.316989
-25.223484
-24.068465
-22.854298
-21.583531
-20.258893
-18.883292
-17.459813
-15.99171
-14.482403
-12.935468
-11.35463
-9.7437478
-8.1068065
-6.4479017
-4.7712256
-3.0810516
-1.3817181
0.32238786
2.0268481
3.7272302
5.4191051
7.0980646
8.7597374
10.399806
12.014025
13.598229
15.148357
16.660457
18.130703
19.555404
20.931018
22.254153
23.521582
24.730247
25.877263
26.959924
27.975703
28.92226
29.797436
30.599259
31.325943
31.975884
32.547663
33.040042
33.451964
33.782551
34.031102
34.197094
34.280177
34.280177
34.197094
34.031102
33.782551
33.451964
33.040042
32.547663
31.975884
31.325943
30.599259
29.797436
28.92226
27.975703
26.959924
25.877263
24.730247
23.521582
22.254153
20.931018
19.555404
18.130702
16.660456
15.148357
13.598229
12.014024
10.399806
8.7597374
7.0980645
5.4191051
3.7272301
2.026848
0.32238785
-1.3817181
-3.0810516
-4.7712256
-6.4479017
-8.1068065
-9.7437478
-11.35463
-12.935468
-14.482403
-15.99171
-17.459813
-18.883292
-20.258893