/*--------------------------------*- C++ -*----------------------------------*\
| =========                 |                                                 |
| \\      /  F ield         | OpenFOAM: The Open Source CFD Toolbox           |
|  \\    /   O peration     | Version:  2106                                  |
|   \\  /    A nd           | Website:  www.openfoam.com                      |
|    \\/     M anipulation  |                                                 |
\*---------------------------------------------------------------------------*/
FoamFile
{
    version     2.0;
    format      ascii;
    arch        "LSB;label=32;scalar=64";
    class       surfaceScalarField;
    location    "0.004";
    object      phi_0;
}
// * * * * * * * * * * * * * * * * * * * * * * * * * * * * * * * * * * * * * //

dimensions      [0 3 -1 0 0 0 0];

oriented        oriented;

internalField   nonuniform List<scalar> 
8064
(
-0.00078001506
0.00078001506
-0.0015526219
0.00077260687
-0.0023104776
0.00075785565
-0.0030463691
0.00073589153
-0.0037532784
0.00070690927
-0.0044244459
0.00067116752
-0.0050534338
0.00062898786
-0.005634187
0.00058075323
-0.0061610929
0.00052690587
-0.0066290373
0.00046794447
-0.0070334579
0.00040442056
-0.007370392
0.00033693411
-0.0076365201
0.00026612811
-0.0078292
0.00019267985
-0.0079464827
0.00011728275
-0.007987197
4.0714298e-05
-0.0079508867
-3.6310338e-05
-0.007837843
-0.00011304368
-0.0076491112
-0.00018873177
-0.0073864782
-0.00026263301
-0.0070524527
-0.00033402549
-0.0066502403
-0.00040221248
-0.0061837113
-0.00046652898
-0.0056573631
-0.00052634816
-0.0050762758
-0.00058108729
-0.0044460626
-0.00063021322
-0.0037728152
-0.00067324738
-0.0030630448
-0.00070977039
-0.0023236188
-0.00073942607
-0.0015616937
-0.00076192506
-0.00078464607
-0.00077704764
-3.6369973e-15
-0.00078464607
0.00078464607
-0.00078464607
0.0015616937
-0.00077704764
0.0023236188
-0.00076192506
0.0030630448
-0.00073942607
0.0037728152
-0.00070977039
0.0044460626
-0.00067324738
0.0050762758
-0.00063021322
0.0056573631
-0.00058108729
0.0061837113
-0.00052634816
0.0066502403
-0.00046652898
0.0070524527
-0.00040221248
0.0073864782
-0.00033402549
0.0076491112
-0.00026263301
0.007837843
-0.00018873177
0.0079508867
-0.00011304368
0.007987197
-3.6310338e-05
0.0079464827
4.0714298e-05
0.0078292
0.00011728275
0.0076365201
0.00019267985
0.007370392
0.00026612811
0.0070334579
0.00033693411
0.0066290373
0.00040442056
0.0061610929
0.00046794447
0.005634187
0.00052690587
0.0050534338
0.00058075323
0.0044244459
0.00062898786
0.0037532784
0.00067116752
0.0030463691
0.00070690927
0.0023104776
0.00073589153
0.0015526219
0.00075785565
0.00078001506
0.00077260687
0.00078001506
-0.0007905636
0.0015705787
-0.001573625
0.0015556683
-0.0023417476
0.0015259782
-0.0030876255
0.0014817695
-0.003804149
0.0014234327
-0.0044844684
0.001351487
-0.0051220586
0.001266578
-0.0057107804
0.001169475
-0.0062449413
0.0010610667
-0.0067193528
0.00094235597
-0.0071293845
0.00081445231
-0.0074710135
0.00067856312
-0.0077408678
0.00053598238
-0.0079362645
0.00038807658
-0.0080552522
0.00023627039
-0.0080965982
8.2060293e-05
-0.008059846
-7.3062511e-05
-0.007945298
-0.00022759169
-0.0077540155
-0.0003800143
-0.0074878098
-0.00052883871
-0.0071492247
-0.00067261054
-0.0067415108
-0.00080992638
-0.0062685927
-0.00093944711
-0.0057350302
-0.0010599107
-0.0051459737
-0.0011701438
-0.0045071139
-0.001269073
-0.0038246265
-0.0013557348
-0.0031051123
-0.0014292846
-0.002355533
-0.0014890053
-0.0015831441
-0.0015343139
-0.00079542377
-0.001564768
-8.5169734e-16
-0.0015800698
0.00079542377
-0.0015800698
0.0015831441
-0.001564768
0.002355533
-0.0015343139
0.0031051123
-0.0014890053
0.0038246265
-0.0014292846
0.0045071139
-0.0013557348
0.0051459737
-0.001269073
0.0057350302
-0.0011701438
0.0062685927
-0.0010599107
0.0067415108
-0.00093944711
0.0071492247
-0.00080992638
0.0074878098
-0.00067261054
0.0077540155
-0.00052883871
0.007945298
-0.0003800143
0.008059846
-0.00022759169
0.0080965982
-7.3062511e-05
0.0080552522
8.2060293e-05
0.0079362645
0.00023627039
0.0077408678
0.00038807658
0.0074710135
0.00053598238
0.0071293845
0.00067856312
0.0067193528
0.00081445231
0.0062449413
0.00094235597
0.0057107804
0.0010610667
0.0051220586
0.001169475
0.0044844684
0.001266578
0.003804149
0.001351487
0.0030876255
0.0014234327
0.0023417476
0.0014817695
0.001573625
0.0015259782
0.0007905636
0.0015556683
0.0015705787
-0.00080801972
0.0023785984
-0.0016083825
0.002356031
-0.0023934973
0.0023110931
-0.0031559052
0.0022441774
-0.003888345
0.0021558724
-0.0045838185
0.0020469605
-0.0052356555
0.001918415
-0.0058375774
0.001771397
-0.0063837592
0.0016072485
-0.0068688887
0.0014274855
-0.0072882227
0.0012337863
-0.0076376382
0.0010279787
-0.0079136789
0.00081202301
-0.0081135951
0.00058799281
-0.0082353791
0.00035805437
-0.0082777712
0.00012445247
-0.0082402963
-0.00011053743
-0.0081232634
-0.00034462466
-0.0079277589
-0.00057551881
-0.0076556368
-0.0008009608
-0.0073095001
-0.0010187472
-0.0068926743
-0.0012267521
-0.006409174
-0.0014229474
-0.0058636629
-0.0016054218
-0.0052614077
-0.0017723989
-0.0046082275
-0.0019222532
-0.0039104368
-0.0020535255
-0.0031747848
-0.0021649367
-0.0024083898
-0.0022554002
-0.0016186707
-0.0023240331
-0.000813274
-0.0023701647
-2.3564761e-16
-0.0023933438
0.000813274
-0.0023933438
0.0016186707
-0.0023701647
0.0024083898
-0.0023240331
0.0031747848
-0.0022554002
0.0039104368
-0.0021649367
0.0046082275
-0.0020535255
0.0052614077
-0.0019222532
0.0058636629
-0.0017723989
0.006409174
-0.0016054218
0.0068926743
-0.0014229474
0.0073095001
-0.0012267521
0.0076556368
-0.0010187472
0.0079277589
-0.0008009608
0.0081232634
-0.00057551881
0.0082402963
-0.00034462466
0.0082777712
-0.00011053743
0.0082353791
0.00012445247
0.0081135951
0.00035805437
0.0079136789
0.00058799281
0.0076376382
0.00081202301
0.0072882227
0.0010279787
0.0068688887
0.0012337863
0.0063837592
0.0014274855
0.0058375774
0.0016072485
0.0052356555
0.001771397
0.0045838185
0.001918415
0.003888345
0.0020469605
0.0031559052
0.0021558724
0.0023934973
0.0022441774
0.0016083825
0.0023110931
0.00080801972
0.002356031
0.0023785984
-0.00083255359
0.003211152
-0.0016572342
0.0031807117
-0.0024662356
0.0031200944
-0.0032518844
0.0030298263
-0.0040067076
0.0029106956
-0.0047234982
0.0027637512
-0.0053953826
0.0025902994
-0.0060158854
0.0023918997
-0.0065789941
0.0021703572
-0.0070792213
0.0019277127
-0.0075116637
0.0016662287
-0.0078720562
0.0013883712
-0.0081568215
0.0010967883
-0.008363112
0.00079428328
-0.0084888439
0.00048378627
-0.0085327159
0.00016832449
-0.0084942323
-0.00014902105
-0.0083737093
-0.00046514769
-0.0081722681
-0.00077695998
-0.0078918229
-0.001081406
-0.0075350607
-0.0013755095
-0.007105413
-0.0016563998
-0.0066070214
-0.001921339
-0.0060446955
-0.0021677477
-0.0054238664
-0.0023932281
-0.0047505333
-0.0025955863
-0.0040312061
-0.0027728526
-0.0032728428
-0.0029233001
-0.0024827819
-0.0030454612
-0.001668672
-0.003138143
-0.00083839714
-0.0032004395
-6.5011965e-16
-0.003231741
0.00083839714
-0.003231741
0.001668672
-0.0032004395
0.0024827819
-0.003138143
0.0032728428
-0.0030454612
0.0040312061
-0.0029233001
0.0047505333
-0.0027728526
0.0054238664
-0.0025955863
0.0060446955
-0.0023932281
0.0066070214
-0.0021677477
0.007105413
-0.001921339
0.0075350607
-0.0016563998
0.0078918229
-0.0013755095
0.0081722681
-0.001081406
0.0083737093
-0.00077695998
0.0084942323
-0.00046514769
0.0085327159
-0.00014902105
0.0084888439
0.00016832449
0.008363112
0.00048378627
0.0081568215
0.00079428328
0.0078720562
0.0010967883
0.0075116637
0.0013883712
0.0070792213
0.0016662287
0.0065789941
0.0019277127
0.0060158854
0.0021703572
0.0053953826
0.0023918997
0.0047234982
0.0025902994
0.0040067076
0.0027637512
0.0032518844
0.0029106956
0.0024662356
0.0030298263
0.0016572342
0.0031200944
0.00083255359
0.0031807117
0.003211152
-0.00086443644
0.0040755884
-0.0017207218
0.004036997
-0.002560772
0.0039601446
-0.0033766375
0.0038456918
-0.0041605709
0.003694629
-0.0049050948
0.003508275
-0.0056030704
0.003288275
-0.0062477656
0.003036595
-0.0068329228
0.0027555145
-0.0073528244
0.0024476143
-0.007802356
0.0021157602
-0.0081770651
0.0017630803
-0.0084732138
0.0013929371
-0.0086878249
0.0010088943
-0.0088187171
0.00061467856
-0.0088645305
0.00021413788
-0.0088247449
-0.00018880666
-0.0086996869
-0.00059020574
-0.0084905234
-0.00098612344
-0.0081992477
-0.0013726816
-0.0078286569
-0.0017461004
-0.0073823213
-0.0021027353
-0.0068645482
-0.0024391122
-0.0062803376
-0.0027519583
-0.0056353337
-0.0030382319
-0.0049357705
-0.0032951495
-0.0041884118
-0.0035202114
-0.0034004867
-0.0037112252
-0.0025796205
-0.0038663274
-0.0017337609
-0.0039840025
-0.00087110129
-0.0040630991
-4.3183133e-15
-0.0041028423
0.00087110129
-0.0041028423
0.0017337609
-0.0040630991
0.0025796205
-0.0039840025
0.0034004867
-0.0038663274
0.0041884118
-0.0037112252
0.0049357705
-0.0035202114
0.0056353337
-0.0032951495
0.0062803376
-0.0030382319
0.0068645482
-0.0027519583
0.0073823213
-0.0024391122
0.0078286569
-0.0021027353
0.0081992477
-0.0017461004
0.0084905234
-0.0013726816
0.0086996869
-0.00098612344
0.0088247449
-0.00059020574
0.0088645305
-0.00018880666
0.0088187171
0.00021413788
0.0086878249
0.00061467856
0.0084732138
0.0010088943
0.0081770651
0.0013929371
0.007802356
0.0017630803
0.0073528244
0.0021157602
0.0068329228
0.0024476143
0.0062477656
0.0027555145
0.0056030704
0.003036595
0.0049050948
0.003288275
0.0041605709
0.003508275
0.0033766375
0.003694629
0.002560772
0.0038456918
0.0017207218
0.0039601446
0.00086443644
0.004036997
0.0040755884
-0.00090402193
0.0049796103
-0.0017995512
0.0049325263
-0.0026781626
0.004838756
-0.0035315661
0.0046990953
-0.0043516757
0.0045147386
-0.0051306789
0.0042872782
-0.0058611075
0.0040187036
-0.006535909
0.0037113965
-0.0071485181
0.0033681236
-0.0076929278
0.002992024
-0.0081637574
0.0025865898
-0.0085563169
0.0021556398
-0.0088666654
0.0017032856
-0.009091661
0.00123389
-0.0092290011
0.00075201866
-0.0092772501
0.00026238685
-0.009235858
-0.0002301988
-0.009105166
-0.00072089774
-0.0088863997
-0.0012048897
-0.0085816526
-0.0016774288
-0.00819386
-0.002133893
-0.0077267663
-0.0025698289
-0.0071848854
-0.0029809932
-0.0065734541
-0.0033633895
-0.0058983819
-0.0037133041
-0.0051661937
-0.0040273377
-0.0043839685
-0.0043024366
-0.0035592725
-0.0045359212
-0.002700087
-0.0047255129
-0.0018147321
-0.0048693574
-0.00091178581
-0.0049660454
-7.8307e-15
-0.0050146281
0.00091178581
-0.0050146281
0.0018147321
-0.0049660454
0.002700087
-0.0048693574
0.0035592725
-0.0047255129
0.0043839685
-0.0045359212
0.0051661937
-0.0043024366
0.0058983819
-0.0040273377
0.0065734541
-0.0037133041
0.0071848854
-0.0033633895
0.0077267663
-0.0029809932
0.00819386
-0.0025698289
0.0085816526
-0.002133893
0.0088863997
-0.0016774288
0.009105166
-0.0012048897
0.009235858
-0.00072089774
0.0092772501
-0.0002301988
0.0092290011
0.00026238685
0.009091661
0.00075201866
0.0088666654
0.00123389
0.0085563169
0.0017032856
0.0081637574
0.0021556398
0.0076929278
0.0025865898
0.0071485181
0.002992024
0.006535909
0.0033681236
0.0058611075
0.0037113965
0.0051306789
0.0040187036
0.0043516757
0.0042872782
0.0035315661
0.0045147386
0.0026781626
0.0046990953
0.0017995512
0.004838756
0.00090402193
0.0049325263
0.0049796103
-0.00095172975
0.0059313401
-0.0018945607
0.0058753573
-0.0028196616
0.0057638568
-0.0037183361
0.0055977699
-0.0045820932
0.0053784956
-0.0054027175
0.0051079025
-0.006172343
0.0047883291
-0.0068835283
0.0044225818
-0.0075293334
0.0040139287
-0.0081033965
0.0035660871
-0.0086000093
0.0030832026
-0.0090141892
0.0025698197
-0.0093417445
0.0020308408
-0.0095793306
0.0014714761
-0.0097244957
0.00089718369
-0.0097757115
0.00031360268
-0.0097323927
-0.00027351759
-0.0095949008
-0.00085838967
-0.0093645352
-0.0014352553
-0.0090435131
-0.0019984509
-0.0086349399
-0.0025424662
-0.0081427719
-0.0030619969
-0.0075717734
-0.0035519917
-0.0069274675
-0.0040076954
-0.0062160831
-0.0044246886
-0.0054444955
-0.0047989253
-0.0046201634
-0.0051267687
-0.0037510588
-0.0054050257
-0.0028455928
-0.0056309789
-0.0019125347
-0.0058024155
-0.00096092786
-0.0059176523
-9.741096e-15
-0.0059755559
0.00096092786
-0.0059755559
0.0019125347
-0.0059176523
0.0028455928
-0.0058024155
0.0037510588
-0.0056309789
0.0046201634
-0.0054050257
0.0054444955
-0.0051267687
0.0062160831
-0.0047989253
0.0069274675
-0.0044246886
0.0075717734
-0.0040076954
0.0081427719
-0.0035519917
0.0086349399
-0.0030619969
0.0090435131
-0.0025424662
0.0093645352
-0.0019984509
0.0095949008
-0.0014352553
0.0097323927
-0.00085838967
0.0097757115
-0.00027351759
0.0097244957
0.00031360268
0.0095793306
0.00089718369
0.0093417445
0.0014714761
0.0090141892
0.0020308408
0.0086000093
0.0025698197
0.0081033965
0.0030832026
0.0075293334
0.0035660871
0.0068835283
0.0040139287
0.006172343
0.0044225818
0.0054027175
0.0047883291
0.0045820932
0.0051079025
0.0037183361
0.0053784956
0.0028196616
0.0055977699
0.0018945607
0.0057638568
0.00095172975
0.0058753573
0.0059313401
-0.0010080348
0.0069393749
-0.0020066994
0.0068740219
-0.0029866903
0.0067438477
-0.003938838
0.0065499176
-0.004854177
0.0062938346
-0.0057240183
0.0059777438
-0.0065400254
0.0056043362
-0.0072942942
0.0051768506
-0.0079794357
0.0046990703
-0.0085886613
0.0041753126
-0.0091158666
0.003610408
-0.0095557139
0.003009667
-0.0099037067
0.0023788335
-0.010156255
0.0017240242
-0.010310726
0.0010516548
-0.010365481
0.00036835823
-0.010319896
-0.00031910343
-0.010174358
-0.0010039277
-0.0099302591
-0.0016793537
-0.0095899689
-0.0023387411
-0.0091567973
-0.0029756378
-0.0086349545
-0.0035838398
-0.0080295022
-0.004157444
-0.0073463022
-0.0046908954
-0.0065919599
-0.0051790309
-0.0057737639
-0.0056171213
-0.0048996196
-0.006000913
-0.003977978
-0.0063266673
-0.0030177572
-0.0065911997
-0.0020282582
-0.0067919144
-0.0010190751
-0.0069268354
-1.2461798e-14
-0.0069946311
0.0010190751
-0.0069946311
0.0020282582
-0.0069268354
0.0030177572
-0.0067919144
0.003977978
-0.0065911997
0.0048996196
-0.0063266673
0.0057737639
-0.006000913
0.0065919599
-0.0056171213
0.0073463022
-0.0051790309
0.0080295022
-0.0046908954
0.0086349545
-0.004157444
0.0091567973
-0.0035838398
0.0095899689
-0.0029756378
0.0099302591
-0.0023387411
0.010174358
-0.0016793537
0.010319896
-0.0010039277
0.010365481
-0.00031910343
0.010310726
0.00036835823
0.010156255
0.0010516548
0.0099037067
0.0017240242
0.0095557139
0.0023788335
0.0091158666
0.003009667
0.0085886613
0.003610408
0.0079794357
0.0041753126
0.0072942942
0.0046990703
0.0065400254
0.0051768506
0.0057240183
0.0056043362
0.004854177
0.0059777438
0.003938838
0.0062938346
0.0029866903
0.0065499176
0.0020066994
0.0067438477
0.0010080348
0.0068740219
0.0069393749
-0.0010734593
0.0080128342
-0.0021370117
0.0079375743
-0.0031808151
0.007787651
-0.0041951582
0.0075642608
-0.0051705302
0.0072692066
-0.0060976938
0.0069049074
-0.0069677644
0.0064744068
-0.007772295
0.0059813811
-0.008503366
0.0054301413
-0.0091536805
0.0048256271
-0.0097166605
0.0041733879
-0.010186541
0.0034795479
-0.01055846
0.0027507523
-0.010828532
0.0019940956
-0.010993908
0.0012170317
-0.011052822
0.0004272722
-0.011004603
-0.00036732237
-0.010849679
-0.0011588519
-0.010589556
-0.0019394766
-0.010226787
-0.0027015101
-0.009764928
-0.003437497
-0.0092084883
-0.0041402795
-0.0085628787
-0.0048030536
-0.0078343551
-0.005419419
-0.0070299598
-0.0059834262
-0.0061574596
-0.0064896216
-0.0052252779
-0.0069330947
-0.004242421
-0.0073095242
-0.0032183966
-0.0076152241
-0.0021631248
-0.0078471862
-0.0010868422
-0.008003118
-1.4497872e-14
-0.0080814732
0.0010868422
-0.0080814732
0.0021631248
-0.008003118
0.0032183966
-0.0078471862
0.004242421
-0.0076152241
0.0052252779
-0.0073095242
0.0061574596
-0.0069330947
0.0070299598
-0.0064896216
0.0078343551
-0.0059834262
0.0085628787
-0.005419419
0.0092084883
-0.0048030536
0.009764928
-0.0041402795
0.010226787
-0.003437497
0.010589556
-0.0027015101
0.010849679
-0.0019394766
0.011004603
-0.0011588519
0.011052822
-0.00036732237
0.010993908
0.0004272722
0.010828532
0.0012170317
0.01055846
0.0019940956
0.010186541
0.0027507523
0.0097166605
0.0034795479
0.0091536805
0.0041733879
0.008503366
0.0048256271
0.007772295
0.0054301413
0.0069677644
0.0059813811
0.0060976938
0.0064744068
0.0051705302
0.0069049074
0.0041951582
0.0072692066
0.0031808151
0.0075642608
0.0021370117
0.007787651
0.0010734593
0.0079375743
0.0080128342
-0.0011485649
0.0091613991
-0.0022866219
0.0090756312
-0.0034037242
0.0089047534
-0.0044895503
0.0086500869
-0.005533971
0.0083136273
-0.0065271232
0.0078980596
-0.0074594913
0.0074067749
-0.0083219972
0.0068438871
-0.0091060999
0.006214244
-0.0098039022
0.0055234294
-0.010408263
0.0047777484
-0.010912907
0.0039841923
-0.011312534
0.0031503791
-0.011602906
0.0022844674
-0.011780921
0.0013950471
-0.011844662
0.00049101263
-0.011793411
-0.00041857282
-0.011627651
-0.0013246123
-0.011349031
-0.0022180966
-0.010960327
-0.003090214
-0.010465386
-0.0039324373
-0.0098690707
-0.0047365952
-0.0091771941
-0.0054949301
-0.0083964656
-0.0062001476
-0.0075344274
-0.0068454643
-0.0065993927
-0.0074246562
-0.0056003769
-0.0079321104
-0.0045470222
-0.0083628789
-0.003449513
-0.0087127334
-0.0023184818
-0.0089782174
-0.0011649066
-0.0091566932
-1.4624657e-14
-0.0092463799
0.0011649066
-0.0092463799
0.0023184818
-0.0091566932
0.003449513
-0.0089782174
0.0045470222
-0.0087127334
0.0056003769
-0.0083628789
0.0065993927
-0.0079321104
0.0075344274
-0.0074246562
0.0083964656
-0.0068454643
0.0091771941
-0.0062001476
0.0098690707
-0.0054949301
0.010465386
-0.0047365952
0.010960327
-0.0039324373
0.011349031
-0.003090214
0.011627651
-0.0022180966
0.011793411
-0.0013246123
0.011844662
-0.00041857282
0.011780921
0.00049101263
0.011602906
0.0013950471
0.011312534
0.0022844674
0.010912907
0.0031503791
0.010408263
0.0039841923
0.0098039022
0.0047777484
0.0091060999
0.0055234294
0.0083219972
0.006214244
0.0074594913
0.0068438871
0.0065271232
0.0074067749
0.005533971
0.0078980596
0.0044895503
0.0083136273
0.0034037242
0.0086500869
0.0022866219
0.0089047534
0.0011485649
0.0090756312
0.0091613991
-0.0012339405
0.01039534
-0.0024567098
0.010298401
-0.0036571931
0.010105237
-0.0048243901
0.0098172839
-0.0059474798
0.009436717
-0.0070158925
0.0089664723
-0.008019393
0.0084102753
-0.0089481761
0.0077726702
-0.0097929769
0.0070590448
-0.010545193
0.0062756452
-0.011197014
0.0054295701
-0.011741561
0.0045287389
-0.012173008
0.0035818258
-0.012486698
0.0025981578
-0.012679232
0.0015875806
-0.012748518
0.00056029885
-0.012693797
-0.00047329415
-0.012515623
-0.0015027856
-0.012215829
-0.0025178909
-0.01179746
-0.0035085828
-0.01126471
-0.0044651872
-0.010622849
-0.0053784566
-0.009878155
-0.0062396242
-0.0090378521
-0.0070404505
-0.0081100484
-0.007773268
-0.0071036736
-0.008431031
-0.0060284119
-0.0090073721
-0.0048946258
-0.0094966651
-0.0037132686
-0.0098940906
-0.0024957852
-0.010195701
-0.0012540007
-0.010398478
-1.4688839e-14
-0.010500381
0.0012540007
-0.010500381
0.0024957852
-0.010398478
0.0037132686
-0.010195701
0.0048946258
-0.0098940906
0.0060284119
-0.0094966651
0.0071036736
-0.0090073721
0.0081100484
-0.008431031
0.0090378521
-0.007773268
0.009878155
-0.0070404505
0.010622849
-0.0062396242
0.01126471
-0.0053784566
0.01179746
-0.0044651872
0.012215829
-0.0035085828
0.012515623
-0.0025178909
0.012693797
-0.0015027856
0.012748518
-0.00047329415
0.012679232
0.00056029885
0.012486698
0.0015875806
0.012173008
0.0025981578
0.011741561
0.0035818258
0.011197014
0.0045287389
0.010545193
0.0054295701
0.0097929769
0.0062756452
0.0089481761
0.0070590448
0.008019393
0.0077726702
0.0070158925
0.0084102753
0.0059474798
0.0089664723
0.0048243901
0.009436717
0.0036571931
0.0098172839
0.0024567098
0.010105237
0.0012339405
0.010298401
0.01039534
-0.0013301808
0.01172552
-0.0026484695
0.011616689
-0.0039430223
0.011399789
-0.005202095
0.011076357
-0.0064141013
0.010648723
-0.0075676817
0.010120053
-0.008651787
0.0094943807
-0.0096557798
0.008776663
-0.010569556
0.0079728211
-0.011383686
0.0070897753
-0.012089572
0.0061354557
-0.01267961
0.0051187767
-0.013147351
0.0040495669
-0.013487641
0.0029384481
-0.013696729
0.0017966685
-0.01377233
0.00063590041
-0.013713647
-0.00053197761
-0.013521339
-0.0016950936
-0.013197466
-0.0028417643
-0.012745403
-0.0039606456
-0.012169753
-0.0050408366
-0.011476261
-0.0060719486
-0.010671734
-0.0070441516
-0.0097639752
-0.0079482092
-0.0087617258
-0.0087755174
-0.0076746042
-0.0095181526
-0.0065130424
-0.010168934
-0.0052882108
-0.010721497
-0.0040119292
-0.011170372
-0.0026965608
-0.011511069
-0.0013548922
-0.011740146
-1.616919e-14
-0.011855273
0.0013548922
-0.011855273
0.0026965608
-0.011740146
0.0040119292
-0.011511069
0.0052882108
-0.011170372
0.0065130424
-0.010721497
0.0076746042
-0.010168934
0.0087617258
-0.0095181526
0.0097639752
-0.0087755174
0.010671734
-0.0079482092
0.011476261
-0.0070441516
0.012169753
-0.0060719486
0.012745403
-0.0050408366
0.013197466
-0.0039606456
0.013521339
-0.0028417643
0.013713647
-0.0016950936
0.01377233
-0.00053197761
0.013696729
0.00063590041
0.013487641
0.0017966685
0.013147351
0.0029384481
0.01267961
0.0040495669
0.012089572
0.0051187767
0.011383686
0.0061354557
0.010569556
0.0070897753
0.0096557798
0.0079728211
0.008651787
0.008776663
0.0075676817
0.0094943807
0.0064141013
0.010120053
0.005202095
0.010648723
0.0039430223
0.011076357
0.0026484695
0.011399789
0.0013301808
0.011616689
0.01172552
-0.0014378507
0.013163371
-0.0028630369
0.013041876
-0.0042629312
0.012799684
-0.0056249837
0.012438409
-0.0069367717
0.011960511
-0.0081860614
0.011369343
-0.0093608906
0.01066921
-0.010449674
0.0098654465
-0.011441339
0.0089644861
-0.012325489
0.0079739255
-0.013092594
0.00690256
-0.01373419
0.0057603727
-0.014243084
0.0045584615
-0.014613532
0.0033088959
-0.014841371
0.0020245076
-0.014924101
0.00071863081
-0.014860899
-0.00059517987
-0.014652571
-0.0019034214
-0.014301467
-0.0031928681
-0.013811365
-0.0044507477
-0.013187353
-0.0056648492
-0.012435721
-0.0068235809
-0.011563874
-0.0079159978
-0.010580266
-0.008931818
-0.0094943354
-0.0098614475
-0.0083164633
-0.010696025
-0.0070579093
-0.011427488
-0.0057307425
-0.012048663
-0.0043477506
-0.012553364
-0.0029223285
-0.012936491
-0.0014683459
-0.013194129
-1.8521859e-14
-0.013323619
0.0014683459
-0.013323619
0.0029223285
-0.013194129
0.0043477506
-0.012936491
0.0057307425
-0.012553364
0.0070579093
-0.012048663
0.0083164633
-0.011427488
0.0094943354
-0.010696025
0.010580266
-0.0098614475
0.011563874
-0.008931818
0.012435721
-0.0079159978
0.013187353
-0.0068235809
0.013811365
-0.0056648492
0.014301467
-0.0044507477
0.014652571
-0.0031928681
0.014860899
-0.0019034214
0.014924101
-0.00059517987
0.014841371
0.00071863081
0.014613532
0.0020245076
0.014243084
0.0033088959
0.01373419
0.0045584615
0.013092594
0.0057603727
0.012325489
0.00690256
0.011441339
0.0079739255
0.010449674
0.0089644861
0.0093608906
0.0098654465
0.0081860614
0.01066921
0.0069367717
0.011369343
0.0056249837
0.011960511
0.0042629312
0.012438409
0.0028630369
0.012799684
0.0014378507
0.013041876
0.013163371
-0.0015574256
0.014720797
-0.0031013716
0.014585822
-0.00461838
0.014316692
-0.0060950408
0.01391507
-0.007518027
0.013383497
-0.0088741475
0.012725463
-0.010150423
0.011945485
-0.011334196
0.01104922
-0.01241328
0.01004357
-0.013376151
0.0089367964
-0.014212178
0.0077385865
-0.014911876
0.0064600707
-0.015467165
0.0051137503
-0.015871597
0.0037133282
-0.016120533
0.0022734434
-0.016211235
0.00080933263
-0.016142876
-0.00066353886
-0.015916467
-0.00212983
-0.015534728
-0.0035746071
-0.015001927
-0.0049835486
-0.014323725
-0.0063430508
-0.013507043
-0.0076402635
-0.012559957
-0.0088630838
-0.011491634
-0.010000141
-0.010312284
-0.011040798
-0.0090331178
-0.011975191
-0.0076663037
-0.012794302
-0.0062249018
-0.013490065
-0.0047227734
-0.014055492
-0.0031744631
-0.014484802
-0.0015950538
-0.014773538
-2.0852035e-14
-0.014918673
0.0015950538
-0.014918673
0.0031744631
-0.014773538
0.0047227734
-0.014484802
0.0062249018
-0.014055492
0.0076663037
-0.013490065
0.0090331178
-0.012794302
0.010312284
-0.011975191
0.011491634
-0.011040798
0.012559957
-0.010000141
0.013507043
-0.0088630838
0.014323725
-0.0076402635
0.015001927
-0.0063430508
0.015534728
-0.0049835486
0.015916467
-0.0035746071
0.016142876
-0.00212983
0.016211235
-0.00066353886
0.016120533
0.00080933263
0.015871597
0.0022734434
0.015467165
0.0037133282
0.014911876
0.0051137503
0.014212178
0.0064600707
0.013376151
0.0077385865
0.01241328
0.0089367964
0.011334196
0.01004357
0.010150423
0.01104922
0.0088741475
0.011945485
0.007518027
0.012725463
0.0060950408
0.013383497
0.00461838
0.01391507
0.0031013716
0.014316692
0.0015574256
0.014585822
0.014720797
-0.0016891979
0.016409995
-0.0033640693
0.016260693
-0.0050102895
0.015962912
-0.0066135422
0.015518322
-0.0081595361
0.014929491
-0.0096340419
0.014199969
-0.011022958
0.013334402
-0.012312422
0.012338684
-0.013488974
0.011220121
-0.014539778
0.0099876007
-0.01545291
0.0086517182
-0.016217672
0.0072248332
-0.016824928
0.0057210064
-0.017267399
0.0041557991
-0.017539889
0.0025459337
-0.017639406
0.00090884893
-0.017565153
-0.0007377911
-0.017318424
-0.002376559
-0.016902408
-0.0039906233
-0.016321972
-0.0055639847
-0.015583453
-0.0070815703
-0.014694488
-0.0085292281
-0.013663905
-0.0098936671
-0.012501652
-0.011162393
-0.01121877
-0.012323679
-0.0098273717
-0.013366589
-0.0083406114
-0.014281062
-0.0067726322
-0.015058045
-0.0051384768
-0.015689648
-0.0034539619
-0.016169317
-0.0017355177
-0.016491982
-2.3834133e-14
-0.01665419
0.0017355177
-0.01665419
0.0034539619
-0.016491982
0.0051384768
-0.016169317
0.0067726322
-0.015689648
0.0083406114
-0.015058045
0.0098273717
-0.014281062
0.01121877
-0.013366589
0.012501652
-0.012323679
0.013663905
-0.011162393
0.014694488
-0.0098936671
0.015583453
-0.0085292281
0.016321972
-0.0070815703
0.016902408
-0.0055639847
0.017318424
-0.0039906233
0.017565153
-0.002376559
0.017639406
-0.0007377911
0.017539889
0.00090884893
0.017267399
0.0025459337
0.016824928
0.0041557991
0.016217672
0.0057210064
0.01545291
0.0072248332
0.014539778
0.0086517182
0.013488974
0.0099876007
0.012312422
0.011220121
0.011022958
0.012338684
0.0096340419
0.013334402
0.0081595361
0.014199969
0.0066135422
0.014929491
0.0050102895
0.015518322
0.0033640693
0.015962912
0.0016891979
0.016260693
0.016409995
-0.0018331358
0.01824313
-0.0036510793
0.018078636
-0.005438615
0.017750448
-0.007180486
0.017260193
-0.008861386
0.016610391
-0.010465973
0.015804556
-0.011978922
0.01484735
-0.013385025
0.013744787
-0.014669377
0.012504473
-0.015817631
0.011135855
-0.016816349
0.0096504359
-0.017653402
0.0080618859
-0.0183184
0.0063860049
-0.018803086
0.0046404843
-0.019101622
0.0028444704
-0.019210747
0.001017974
-0.01912975
-0.00081878821
-0.018860303
-0.0026460065
-0.018406189
-0.004444737
-0.017773002
-0.0061971718
-0.016967868
-0.007886704
-0.01599924
-0.009497856
-0.014876769
-0.011016138
-0.01361125
-0.012427912
-0.012214614
-0.013720315
-0.010699938
-0.014881266
-0.0090814355
-0.015899565
-0.0073744238
-0.016765056
-0.0055952334
-0.017468838
-0.0037610756
-0.018003474
-0.0018898639
-0.018363194
-2.8907902e-14
-0.018544054
0.0018898639
-0.018544054
0.0037610756
-0.018363194
0.0055952334
-0.018003474
0.0073744238
-0.017468838
0.0090814355
-0.016765056
0.010699938
-0.015899565
0.012214614
-0.014881266
0.01361125
-0.013720315
0.014876769
-0.012427912
0.01599924
-0.011016138
0.016967868
-0.009497856
0.017773002
-0.007886704
0.018406189
-0.0061971718
0.018860303
-0.004444737
0.01912975
-0.0026460065
0.019210747
-0.00081878821
0.019101622
0.001017974
0.018803086
0.0028444704
0.0183184
0.0046404843
0.017653402
0.0063860049
0.016816349
0.0080618859
0.015817631
0.0096504359
0.014669377
0.011135855
0.013385025
0.012504473
0.011978922
0.013744787
0.010465973
0.01484735
0.008861386
0.015804556
0.007180486
0.016610391
0.005438615
0.017260193
0.0036510793
0.017750448
0.0018331358
0.018078636
0.01824313
-0.0019886787
0.020231809
-0.0039612932
0.020051251
-0.0059017266
0.019690881
-0.0077937603
0.019152227
-0.0096210348
0.018437666
-0.011367033
0.017550555
-0.013015108
0.016495425
-0.014548576
0.015278255
-0.015950907
0.013906805
-0.017206031
0.012390979
-0.018298755
0.01074316
-0.019215277
0.0089784076
-0.019943737
0.0071144656
-0.020474733
0.0051714797
-0.020801699
0.0031714366
-0.020921099
0.001137374
-0.020832379
-0.00090750871
-0.020537714
-0.0029406708
-0.020041632
-0.0049408192
-0.019350593
-0.0068882104
-0.018472638
-0.0087646598
-0.017417127
-0.010553367
-0.016194608
-0.012238657
-0.014816778
-0.013805742
-0.013296509
-0.015240584
-0.011647895
-0.01652988
-0.0098862816
-0.017661178
-0.0080282403
-0.018623098
-0.0060914915
-0.019405587
-0.0040947579
-0.020000208
-0.0020575655
-0.020400386
-3.4496794e-14
-0.02060162
0.0020575655
-0.02060162
0.0040947579
-0.020400386
0.0060914915
-0.020000208
0.0080282403
-0.019405587
0.0098862816
-0.018623098
0.011647895
-0.017661178
0.013296509
-0.01652988
0.014816778
-0.015240584
0.016194608
-0.013805742
0.017417127
-0.012238657
0.018472638
-0.010553367
0.019350593
-0.0087646598
0.020041632
-0.0068882104
0.020537714
-0.0049408192
0.020832379
-0.0029406708
0.020921099
-0.00090750871
0.020801699
0.001137374
0.020474733
0.0031714366
0.019943737
0.0051714797
0.019215277
0.0071144656
0.018298755
0.0089784076
0.017206031
0.01074316
0.015950907
0.012390979
0.014548576
0.013906805
0.013015108
0.015278255
0.011367033
0.016495425
0.0096210348
0.017550555
0.0077937603
0.018437666
0.0059017266
0.019152227
0.0039612932
0.019690881
0.0019886787
0.020051251
0.020231809
-0.0021544499
0.022386259
-0.0042919688
0.02218877
-0.0063955397
0.021794452
-0.0084479747
0.021204662
-0.010431838
0.020421529
-0.012329391
0.019448108
-0.014122586
0.018288619
-0.01579314
0.016948809
-0.017322735
0.015436399
-0.018693362
0.013761607
-0.019887832
0.01193763
-0.020890418
0.0099809934
-0.021687561
0.0079116086
-0.022268541
0.0057524589
-0.022625977
0.0035288728
-0.02275607
0.0012674673
-0.02265852
-0.0010050592
-0.022336158
-0.0032630321