/*--------------------------------*- C++ -*----------------------------------*\
| =========                 |                                                 |
| \\      /  F ield         | OpenFOAM: The Open Source CFD Toolbox           |
|  \\    /   O peration     | Version:  2106                                  |
|   \\  /    A nd           | Website:  www.openfoam.com                      |
|    \\/     M anipulation  |                                                 |
\*---------------------------------------------------------------------------*/
FoamFile
{
    version     2.0;
    format      ascii;
    arch        "LSB;label=32;scalar=64";
    class       surfaceScalarField;
    location    "0.016";
    object      phi;
}
// * * * * * * * * * * * * * * * * * * * * * * * * * * * * * * * * * * * * * //

dimensions      [0 3 -1 0 0 0 0];

oriented        oriented;

internalField   nonuniform List<scalar> 
1984
(
-0.0012482143
0.0012482182
-0.0024481845
0.0011999702
-0.0035535581
0.0011053736
-0.0045217054
0.00096814732
-0.0053153792
0.00079367383
-0.0059041473
0.00058876804
-0.0062655022
0.00036135493
-0.0063858854
0.00012038321
-0.006260939
-0.00012494643
-0.0058956919
-0.00036524707
-0.0053043715
-0.00059132039
-0.0045098188
-0.00079455274
-0.0035425943
-0.0009672245
-0.0024398042
-0.0011027901
-0.0012436858
-0.0011961184
-4.5722533e-09
-0.0012436812
0.0012436769
-0.0012436815
0.0024397961
-0.0011961192
0.0035425874
-0.0011027913
0.0045098134
-0.00096722598
0.0053043677
-0.00079455433
0.0058956897
-0.00059132197
0.0062609383
-0.00036524854
0.006385886
-0.00012494779
0.0062655041
0.00012038195
0.0059041504
0.00036135371
0.0053153835
0.00058876686
0.0045217108
0.00079367272
0.0035535645
0.00096814633
0.0024481917
0.0011053728
0.0012482219
0.0011999697
0.001248218
-0.0012890822
0.0025373046
-0.0025282785
0.0024391665
-0.0036696699
0.002246765
-0.0046692074
0.0019676848
-0.0054884303
0.0016128967
-0.0060959518
0.0011962895
-0.0064686769
0.00073408002
-0.0065925518
0.00024425819
-0.0064631676
-0.00025433066
-0.0060857973
-0.00074261742
-0.0054751657
-0.0012019519
-0.0046548633
-0.0016148551
-0.003656432
-0.0019656558
-0.0025181573
-0.0022410648
-0.0012836119
-0.0024306638
-4.9529529e-09
-0.0025272882
0.0012836023
-0.0025272888
0.0025181486
-0.0024306655
0.0036564247
-0.0022410674
0.0046548577
-0.001965659
0.0054751618
-0.0016148585
0.0060857951
-0.0012019552
0.006463167
-0.00074262043
0.0065925526
-0.00025433339
0.0064686789
0.00024425565
0.006095955
0.00073407755
0.0054884348
0.0011962871
0.0046692131
0.0016128944
0.0036696767
0.0019676827
0.0025282861
0.0022467634
0.0012890904
0.0024391655
0.0025373042
-0.0013478072
0.0038851163
-0.0026433397
0.003734699
-0.0038364065
0.0034398319
-0.0048809129
0.0030121912
-0.0057366705
0.0024686543
-0.0063709506
0.0018305696
-0.0067597196
0.001122849
-0.0068884396
0.00037297815
-0.0067526027
-0.0003901675
-0.0063578165
-0.0011374037
-0.0057195171
-0.0018402513
-0.0048623616
-0.0024720106
-0.0038192846
-0.0030087328
-0.0026302486
-0.0034301008
-0.0013407312
-0.0037201813
-5.5683955e-09
-0.0038680138
0.0013407204
-0.0038680148
0.002630239
-0.0037201841
0.0038192767
-0.003430105
0.0048623557
-0.0030087379
0.0057195132
-0.002472016
0.0063578144
-0.0018402564
0.0067526023
-0.0011374083
0.0068884405
-0.00039017157
0.0067597217
0.00037297438
0.006370954
0.0011228453
0.0057366752
0.0018305659
0.0048809189
0.0024686507
0.0038364137
0.0030121879
0.0026433479
0.0034398292
0.0013478161
0.0037346973
0.0038851157
-0.0014306701
0.0053157916
-0.0028056763
0.0051097052
-0.0040716095
0.004705765
-0.005179488
0.0041200698
-0.0060866969
0.0033758632
-0.0067586302
0.002502503
-0.0071699639
0.0015341826
-0.0073054918
0.00050850611
-0.0071606049
-0.00053505438
-0.0067413536
-0.001556655
-0.0060641455
-0.0025174595
-0.0051551082
-0.0033810479
-0.0040491146
-0.0041147264
-0.0027884806
-0.0046907347
-0.0014213761
-0.0050872858
-6.516567e-09
-0.0052893834
0.0014213636
-0.0052893849
0.0027884696
-0.0050872901
0.0040491058
-0.0046907412
0.005155102
-0.0041147341
0.0060641418
-0.0033810558
0.006741352
-0.0025174667
0.0071606049
-0.0015566612
0.007305493
-0.00053505962
0.0071699661
0.00050850131
0.0067586336
0.0015341777
0.0060867017
0.0025024978
0.0051794944
0.003375858
0.0040716174
0.0041200649
0.0028056855
0.0047057611
0.0014306802
0.0051097026
0.0053157907
-0.0015499073
0.006865705
-0.0030392787
0.0065990765
-0.0044100818
0.0060765681
-0.0056091922
0.0053191802
-0.0065905172
0.0043571882
-0.0073167637
0.0032287495
-0.0077607689
0.0019781878
-0.0079063499
0.00065408713
-0.0077487304
-0.00069267386
-0.0072945464
-0.0020108391
-0.0065615349
-0.0032504709
-0.0055778788
-0.0043647041
-0.0043812036
-0.0053114016
-0.0030172118
-0.0060547265
-0.0015379832
-0.0065665144
-7.94734e-09
-0.0068273587
0.0015379681
-0.0068273609
0.0030171988
-0.0065665208
0.0043811936
-0.0060547361
0.0055778723
-0.0053114128
0.0065615317
-0.0043647153
0.0072945457
-0.0032504807
0.0077487312
-0.0020108467
0.0079063515
-0.00069267986
0.0077607711
0.00065408171
0.0073167669
0.0019781818
0.006590522
0.0032287428
0.005609199
0.004357181
0.0044100906
0.0053191733
0.0030392892
0.0060765624
0.001549919
0.0065990728
0.0068657037
-0.0017251611
0.0085908734
-0.0033826774
0.0082565928
-0.0049077662
0.0076016569
-0.006241245
0.006652659
-0.0073319222
0.0054478654
-0.0081385464
0.0040353737
-0.0086312224
0.0024708638
-0.0087922663
0.00081513108
-0.0086165691
-0.00086837116
-0.0081115187
-0.0025158894
-0.0072966954
-0.0040652941
-0.0062032172
-0.0054581823
-0.0048727219
-0.0066418969
-0.003355915
-0.0075715335
-0.001710706
-0.0082117234
-1.0070632e-08
-0.0085380545
0.0017106869
-0.0085380579
0.003355899
-0.0082117328
0.0048727104
-0.0075715475
0.0062032107
-0.0066419131
0.0072966935
-0.005458198
0.0081115197
-0.0040653069
0.0086165713
-0.0025158983
0.0087922684
-0.00086837701
0.0086312242
0.00081512591
0.008138549
0.002470857
0.0073319268
0.004035365
0.0062412522
0.0054478556
0.0049077761
0.0066526494
0.0033826897
0.0076016488
0.0017251751
0.0082565874
0.0085908715
-0.001983655
0.010574538
-0.0038893051
0.010162243
-0.0056423121
0.0093546639
-0.0071746147
0.0081849616
-0.0084275007
0.0067007515
-0.0093538213
0.0049616942
-0.0099195419
0.0030365844
-0.010104618
0.001000207
-0.0099032825
-0.0010697065
-0.0093238617
-0.0030953102
-0.0083885072
-0.0050006486
-0.0071325775
-0.006714112
-0.0056036186
-0.0081708558
-0.0038597849
-0.0093153671
-0.0019677231
-0.010103785
-1.3210013e-08
-0.010505764
0.0019676983
-0.010505769
0.0038597647
-0.010103799
0.0056036051
-0.0093153879
0.0071325715
-0.0081708796
0.0083885078
-0.0067141342
0.0093238661
-0.0050006653
0.0099032872
-0.0030953193
0.010104621
-0.0010697103
0.0099195426
0.0010002038
0.0093538224
0.0030365772
0.0084275043
0.0049616831
0.007174622
0.006700738
0.0056423235
0.0081849479
0.0038893201
0.0093546522
0.0019836724
0.010162235
0.010574535
-0.0023553614
0.012929911
-0.0046180359
0.012424917
-0.0066993814
0.011436009
-0.0085186513
0.010004232
-0.010006294
0.008188394
-0.011106542
0.0060619424
-0.011779186
0.0037092282
-0.012000541
0.0012215618
-0.011763641
-0.0013066057
-0.011077952
-0.0037809993
-0.0099691792
-0.0061094217
-0.0084787343
-0.0082045568
-0.0066627128
-0.0099868773
-0.0045901093
-0.011387971
-0.0023403138
-0.012353581
-1.7872625e-08
-0.01284606
0.0023402805
-0.012846068
0.004590083
-0.012353602
0.0066626967
-0.011388002
0.0084787298
-0.0099869126
0.0099691846
-0.008204589
0.011077963
-0.0061094437
0.01176365
-0.0037810067
0.012000544
-0.0013066035
0.011779184
0.0012215639
0.01110654
0.0037092209
0.010006295
0.0060619276
0.0085186584
0.008188375
0.0066993947
0.010004212
0.0046180545
0.011435992
0.0023553835
0.012424906
0.012929907
-0.0028584113
0.015788337
-0.0056045687
0.015171075
-0.008131108
0.013962549
-0.010340212
0.012213335
-0.012147594
0.0099957761
-0.013485586
0.0073999345
-0.014305251
0.0045288931
-0.01457764
0.0014939509
-0.014293843
-0.001590403
-0.013464668
-0.0046101738
-0.012120588
-0.0074535015
-0.010311303
-0.010013842
-0.0081046522
-0.012193528
-0.005584494
-0.013908129
-0.0028476398
-0.015090435
-2.4846784e-08
-0.015693675
0.0028475938
-0.015693686
0.0055844584
-0.015090466
0.0081046326
-0.013908176
0.010311302
-0.012193582
0.012120603
-0.01001389
0.013464691
-0.0074535313
0.014293859
-0.0046101754
0.014577643
-0.0015903866
0.014305242
0.0014939645
0.013485578
0.0045288852
0.012147591
0.0073999138
0.010340218
0.0099957484
0.0081311239
0.012213306
0.0056045926
0.013962524
0.0028584404
0.015171058
0.015788332
-0.0034709283
0.019259287
-0.0068061358
0.018506282
-0.0098757257
0.017032139
-0.012561182
0.014898791
-0.014760167
0.012194761
-0.016390179
0.0090299468
-0.017391102
0.0055298158
-0.017727181
0.0018300303
-0.017386802
-0.0019307821
-0.016382286
-0.0056146897
-0.014750126
-0.009085662
-0.012550548
-0.01221342
-0.0098660751
-0.014878001
-0.0067989054
-0.016975299
-0.0034671345
-0.018422206
-3.5338248e-08
-0.019160774
0.003467069
-0.019160791
0.0067988556
-0.018422253
0.0098660505
-0.016975371
0.012550553
-0.014878085
0.014750158
-0.012213494
0.016382331
-0.0090857051
0.017386833
-0.0056146772
0.017727181
-0.001930734
0.017391079
0.0018300665
0.01639016
0.0055298042
0.014760157
0.0090299161
0.012561186
0.01219472
0.0098757452
0.014898746
0.0068061677
0.017032101
0.0034709677
0.018506258
0.019259278
-0.0040907983
0.023350114
-0.0080224748
0.022437959
-0.011642571
0.020652235
-0.014811637
0.018067857
-0.01740892
0.014792044
-0.019336498
0.010957525
-0.02052212
0.0067154371
-0.020922819
0.0022307301
-0.020524133
-0.0023294682
-0.019339857
-0.0067989655
-0.017412731
-0.011012788
-0.014815357
-0.014810794
-0.011645792
-0.018047566
-0.0080249539
-0.020596137
-0.0040922869
-0.022354873
-5.1127262e-08
-0.02325301
0.0040921917
-0.023253034
0.0080248815
-0.022354943
0.011645759
-0.020596249
0.014815373
-0.018047698
0.017412794
-0.014810915
0.019339946
-0.011012857
0.02052419
-0.0067989219
0.020922806
-0.0023293501
0.020522065
0.0022308075
0.01933646
0.0067154098
0.017408898
0.010957478
0.014811637
0.014791981
0.011642596
0.018067787
0.0080225188
0.020652179
0.0040908529
0.022437924
0.023350102
-0.0044979607
0.027848115
-0.0088216941
0.026761692
-0.012804084
0.024634625
-0.016291703
0.021555476
-0.019151474
0.017651815
-0.021275009
0.01308106
-0.022580587
0.008021015
-0.023020012
0.0026701555
-0.022577509
-0.0027719713
-0.021269666
-0.0081068089
-0.019144014
-0.01313844
-0.016282501
-0.017672307
-0.012794708
-0.021535359
-0.0088142782
-0.024576567
-0.0044941868
-0.026674964
-7.4686278e-08
-0.027747122
0.004494046
-0.027747154
0.0088141682
-0.026675065
0.012794661
-0.024576741
0.016282537
-0.021535575
0.019144133
-0.017672511
0.02126984
-0.013138564
0.022577619
-0.0081067005
0.02301996
-0.0027716917
0.022580469
0.0026702987
0.021274941
0.0080209376
0.019151431
0.013080988
0.016291695
0.017651717
0.012804119
0.021555362
0.0088217577
0.024634541
0.0044980379
0.026761644
0.0278481
-0.0043571914
0.032205364
-0.0085456532
0.030950154
-0.01240356
0.028492531
-0.015781249
0.024933166
-0.018548858
0.020419424
-0.020602244
0.015134446
-0.021860944
0.0092797155
-0.022277561
0.0030867726
-0.021836252
-0.0032132809
-0.020555588
-0.0093874728
-0.018484617
-0.015209411
-0.015708585
-0.020448339
-0.012334832
-0.024909112
-0.0084926051
-0.028418793
-0.0043289373
-0.030838632
-1.0903393e-07
-0.032075951
0.0043287268
-0.03207599
0.008492431
-0.030838769
0.012334758
-0.028419069
0.01570866
-0.024909476
0.018484847
-0.020448698
0.020555945
-0.015209662
0.021836474
-0.0093872294
0.022277387
-0.0032126051
0.021860696
0.0030869898
0.020602135
0.0092794991
0.018548773
0.015134349
0.015781222
0.020419269
0.012403614
0.02493297
0.0085457484
0.028492406
0.0043573015
0.030950091
0.032205344
-0.003331139
0.035536582
-0.0065318407
0.034150856
-0.0094781561
0.031438846
-0.012054415
0.027509425
-0.014161937
0.022526946
-0.015722192
0.0166947
-0.016666469
0.010223993
-0.016961839
0.0033821432
-0.016600691
-0.0035744296
-0.015603038
-0.010385126
-0.014007227
-0.016805222
-0.011887454
-0.022568112
-0.0093238717
-0.027472694
-0.0064130523
-0.031329613
-0.0032657678
-0.033985917
-1.5642553e-07
-0.035341562
0.0032654544
-0.035341601
0.0064127703
-0.033986085
0.0093237575
-0.031330056
0.011887621
-0.02747334
0.014007689
-0.022568766
0.015603787
-0.016805761
0.016601113
-0.010384555
0.016961331
-0.0035728238
0.016665974
0.0033823469
0.015722037
0.010223436
0.014161757
0.01669463
0.012054336
0.02252669
0.0094782446
0.027509061
0.0065319864
0.031438664
0.0033312955
0.034150782
0.03553656
-0.0014006616
0.036937351
-0.0027423534
0.035492548
-0.0039727778
0.032669271
-0.0050398333
0.028576481
-0.0059053359
0.023392449
-0.0065487304
0.017338095
-0.0069307738
0.010606036
-0.0070394258
0.0034907951
-0.0068831565
-0.0037306989
-0.0064600446
-0.010808238
-0.005790255
-0.017475012
-0.0049177466
-0.023440621
-0.003861421
-0.02852902
-0.002657036
-0.032533998
-0.001354302
-0.035288651
-2.0937675e-07
-0.036695655
0.0013538673
-0.036695678
0.0026566161
-0.035288834
0.0038613012
-0.032534741
0.00491818
-0.028530219
0.0057911651
-0.023441751
0.0064613852
-0.017475981
0.0068836964
-0.010806866
0.0070382375
-0.0037273648
0.0069299908
0.0034905935
0.0065486131
0.010604814
0.0059049423
0.017338301
0.005039614
0.023392019
0.003972909
0.028575766
0.0027425637
0.03266901
0.0014008743
0.035492471
0.036937327
0.00052029082
0.036417176
0.0010239547
0.034988884
0.0014869488
0.032206277
0.0018935224
0.028169907
0.0022204283
0.023065543
0.0024280714
0.017130452
0.002515775
0.010518333
0.0024680234
0.0035385468
0.0022755419
-0.0035382174
0.0019827632
-0.010515459
0.00163615
-0.017128398
0.0012600686
-0.023064539
0.00090092912
-0.02816988
0.00057498227
-0.032208051
0.00027670456
-0.034990373
-1.8311287e-07
-0.036418767
-0.00027707563
-0.036418785
-0.0005753067
-0.034990603
-0.00090083557
-0.032209212
-0.001259289
-0.028171765
-0.0016351592
-0.023065881
-0.0019818569
-0.017129283
-0.0022758102
-0.010512913
-0.0024694016
-0.0035337733
-0.0025159446
0.0035371364
-0.0024277867
0.010516656
-0.0022210488
0.017131563
-0.0018939337
0.023064903
-0.0014868505
0.028168683
-0.0010237646
0.032205924
-0.00052007355
0.03498878
0.036417138
-0.00029862187
0.036715702
-0.00061770673
0.035307969
-0.00096300343
0.032551573
-0.0013386979
0.028545601
-0.0017283506
0.023455196
-0.002084917
0.017487018
-0.002383572
0.010816988
-0.0025782806
0.0037332553
-0.0026240332
-0.0034924647
-0.0025295168
-0.010609975
-0.0023114478
-0.017346467
-0.0019705461
-0.023405441
-0.0015470943
-0.028593332
-0.0010654123
-0.032689733
-0.00054120648
-0.035514579
2.1915341e-07
-0.036960193
0.00054165383
-0.03696022
0.001065807
-0.035514756
0.0015470213
-0.032690427
0.0019697067
-0.028594451
0.0023103441
-0.023406518
0.0025284644
-0.017347403
0.0026241507
-0.010608599
0.0025796112
-0.0034892338
0.0023838279
0.0037329197
0.0020847112
0.010815773
0.001728954
0.01748732
0.0013390903
0.023454767
0.00096294187
0.028544831
0.00061755418
0.032551311
0.0002984441
0.03530789
0.036715678
0.001332086
0.035383506
0.002613783
0.034026272
0.0037985459
0.03136681
0.0048381353
0.027506012
0.0056972391
0.022596092
0.0063574702
0.016826787
0.0067752203
0.010399238
0.00692921
0.0035792656
0.0068225616
-0.0033858163
0.006447678
-0.010235092
0.0058151694
-0.016713959
0.0049636054
-0.022553877
0.0039132018
-0.027542928
0.0027012637
-0.031477795
0.0013798332
-0.034193148
2.0185244e-07
-0.035580561
-0.0013794158
-0.035580602
-0.0027008608
-0.034193311
-0.0039130792
-0.031478208
-0.0049640028
-0.027543527
-0.005816036
-0.022554485
-0.0064489685
-0.016714471
-0.0068230489
-0.010234519
-0.0069280341
-0.0033842487
-0.0067745189
0.0035794046
-0.006357405
0.010398659
-0.0056968203
0.016826735
-0.0048378939
0.022595841
-0.0037986814
0.027505619
-0.0026139957
0.031366626
-0.0013323032
0.034026198
0.035383484
0.0032433184
0.032140104
0.0063692508
0.030900339
0.0092602862
0.028475775
0.011806795
0.024959503
0.013912759
0.020490128
0.015498592
0.015240954
0.016490413
0.0094074158
0.016849364
0.0032203155
0.01655612
-0.0030925722
0.015618786
-0.0092977587
0.014069352
-0.015164524
0.011975978
-0.020460503
0.0094167197
-0.02498367
0.0064895256
-0.028550601
0.0033096542
-0.031013277
1.4696131e-07
-0.032271054
-0.0033093622
-0.032271093
-0.0064892654
-0.031013408
-0.0094166155
-0.028550858
-0.011976135
-0.024984008
-0.014069785
-0.020460834
-0.015619497
-0.015164759
-0.016556505
-0.0092975105
-0.016848837
-0.0030919171
-0.016489937
0.0032205053
-0.015498462
0.0094071831
-0.013912579
0.015240852
-0.01180671
0.020489972
-0.0092603846
0.024959293
-0.0063694059
0.028475647
-0.0032434835
0.030900275
0.032140084
0.0043056129
0.027834431
0.0084469514
0.026759001
0.01226852
0.024654206
0.015624232
0.021603792
0.01838547
0.01772889
0.020445475
0.013180949
0.021719391
0.0081334999
0.02215815
0.0027815558
0.02174355
-0.0026779719
0.020491647
-0.008045856
0.018449346
-0.013122223
0.01569666
-0.017707817
0.012337143
-0.021624153
0.0084998931
-0.024713351
0.0043339172
-0.026847301
1.0209515e-07
-0.027937239
-0.0043337213
-0.02793727
-0.008499733
-0.026847396
-0.012337077
-0.024713514
-0.015696732
-0.021624353
-0.018449562
-0.017708004
-0.020491985
-0.013122336
-0.02174375
-0.0080457458
-0.022157966
-0.0026777008
-0.021719145
0.0027816838
-0.020445372
0.0081334102
-0.01838539
0.01318087
-0.015624206
0.017728788
-0.012268582
0.02160367
-0.0084470541
0.024654119
-0.00430573
0.026758951
0.027834415
0.0044681554
0.023366232
0.0087632433
0.022463913
0.012720495
0.020696955
0.016187856
0.01813643
0.019032426
0.01488432
0.021145275
0.0110681
0.022444982
0.0068337933
0.022884266
0.0023422709
0.022446828
-0.0022405338
0.021148543
-0.0067475704
0.019037283
-0.011010962
0.016194311
-0.014864845
0.012727399
-0.018157241
0.0087687874
-0.020754739
0.0044710036
-0.022549517
6.989177e-08
-0.023466305
-0.0044708724
-0.023466327
-0.0087686857
-0.022549583
-0.012727357
-0.020754843
-0.016194346
-0.018157364
-0.019037394
-0.014864956
-0.021148705
-0.011011024
-0.022446926
-0.0067475255
-0.022884206
-0.002240421
-0.022444862
0.0023423402
-0.021145209
0.0068337576
-0.019032386
0.011068046
-0.01618785
0.014884253
-0.012720536
0.018136355
-0.0087633123
0.020696896
-0.0044682379
0.022463877
0.02336622
0.0040604882
0.019305713
0.00796254
0.018561861
0.011554952
0.017104542
0.014699338
0.014992044
0.017275724
0.012307935
0.019186854
0.0091569693
0.020360788
0.0056598598
0.02075524
0.0019478185
0.020356747
-0.0018420409
0.019179843
-0.0055706664
0.017267211
-0.0090983299
0.014690582
-0.012288217
0.011547118
-0.015013777
0.0079565571
-0.017164178
0.0040571706
-0.018650131
4.787621e-08
-0.019409182
-0.0040570817
-0.019409198
-0.0079564897
-0.018650175
-0.011547087
-0.017164246
-0.014690598
-0.015013854
-0.017267268
-0.012288286
-0.019179924
-0.0090983685
-0.020356796
-0.0055706529
-0.020755221
-0.0018419965
-0.020360731
0.0019478503
-0.019186816
0.0056598426
-0.017275703
0.0091569338
-0.01469934
0.01230789
-0.011554981
0.014991996
-0.007962588
0.017104502
-0.0040605469
0.018561836
0.019305704
0.003425465
0.015880225
0.0067170717
0.015270254
0.0097469417
0.014074672
0.012398337
0.012340649
0.014570294
0.010135978
0.016181384
0.0075458793
0.017172254
0.0046689903
0.017507051
0.0016130206
0.017173842
-0.0015088317
0.016184301
-0.0045811248
0.014573862
-0.007487891
0.012401978
-0.010116333
0.0097501503
-0.012361949
0.0067193938
-0.014133422
0.0034266522
-0.015357389
3.3158552e-08
-0.015982563
-0.0034265909
-0.015982574
-0.0067193471
-0.015357418
-0.009750127
-0.014133466
-0.012401982
-0.012361998
-0.01457389
-0.010116378
-0.016184341
-0.0074879181
-0.017173868
-0.0045811258
-0.017507047
-0.0015088176
-0.017172228
0.0016130315
-0.016181364
0.0046689787
-0.014570285
0.007545855
-0.012398343
0.010135947
-0.0097469636
0.012340617
-0.0067171064
0.014074645
-0.0034255075
0.015270237
0.015880219
0.002792009
0.0130882
0.0054752324
0.012587031
0.0079456268
0.011604278
0.010108193
0.010178083
0.011880728
0.0083634437
0.013196833
0.006229774
0.014007975
0.0038578486
0.01428452
0.0013364748
0.014016133
-0.0012404439
0.013211754
-0.0037767465
0.011899905
-0.0061760419
0.010128632
-0.0083450604
0.0079642651
-0.010197582
0.0054893401
-0.011658497
0.0027995877
-0.012667637
2.3391952e-08
-0.013182999
-0.0027995443
-0.013183006
-0.0054893064
-0.012667656
-0.0079642463
-0.011658526
-0.01012863
-0.010197615
-0.011899918
-0.0083450902
-0.013211773
-0.0061760622
-0.014016146
-0.0037767535
-0.01428452
-0.001240443
-0.014007964
0.001336475
-0.013196824
0.0038578387
-0.011880725
0.0062297567
-0.010108201
0.0083634223
-0.0079456443
0.010178061
-0.0054752584
0.011604259
-0.0027920404
0.012587019
0.013088195
0.0022691772
0.01081901
0.0044504139
0.010405794
0.0064594799
0.0095952117
0.0082193179
0.0084182446
0.0096630468
0.0069197149
0.010736394
0.0051564268
0.011399404
0.0031948382
0.011627397
0.001108482
0.011411472
-0.0010245189
0.010758559
-0.0031238333
0.0096917665
-0.0051092494
0.0082501474
-0.0069034414
0.0064877567
-0.0084351912
0.0044719298
-0.0096426701
0.0022807826
-0.010476489
1.6876039e-08
-0.010902233
-0.0022807511
-0.010902238
-0.0044719047
-0.010476503
-0.006487741
-0.0096426895
-0.0082501423
-0.0084352134
-0.0096917703
-0.0069034622
-0.010758567
-0.0051092651
-0.011411479
-0.0031238421
-0.011627398
-0.0010245233
-0.011399401
0.0011084776
-0.010736391
0.0031948292
-0.0096630485
0.0051564137
-0.0082193258
0.0069196996
-0.0064594944
0.0084182293
-0.0044504339
0.0095951989
-0.002269201
0.010405786
0.010819007
0.0018861322
0.0089328685
0.0036996005
0.0085923258
0.005370697
0.0079241152
0.0068354737
0.0069534679
0.0080381995
0.005716989
0.0089333914
0.0042612349
0.0094873146
0.002640915
0.0096789356
0.00091686113
0.0095004882
-0.00084607153
0.0089576533
-0.0025809983
0.0080697513
-0.0042213475
0.0068694587
-0.0057031488
0.0054019567
-0.0069676892
0.0037234418
-0.0079641552
0.0018990114
-0.0086520591
1.2191298e-08
-0.0090032341
-0.0018989885
-0.0090032373
-0.0037234231
-0.008652068
-0.0054019441
-0.0079641685
-0.0068694529
-0.0069677046
-0.0080697514
-0.0057031637
-0.0089576566
-0.0042213599
-0.0095004915
-0.0025810072
-0.0096789367
-0.00084607815
-0.0094873142
0.00091685501
-0.0089333918
0.0026409068
-0.0080382027
0.0042612247
-0.0068354809
0.0057169778
-0.0053707086
0.006953457
-0.0036996158
0.0079241061
-0.00188615
0.0085923198
0.0089328664
0.0016443357
0.0072885231
0.0032256314
0.0070110301
0.0046833176
0.006466429
0.0059616803
0.0056751053
0.0070119733
0.004666696
0.0077942136
0.0034789946
0.0082785784
0.0021565502
0.0084463833
0.00074905618
0.0082906558
-0.000690344
0.0078164966
-0.0021068391
0.0070410205
-0.0034458714
0.005993038
-0.0046551663
0.0047122156
-0.0056868668
0.0032477052
-0.0064996448
0.0016562735
-0.0070606273
1.1528311e-08
-0.0073469721
-0.0016562515
-0.0073469742
-0.0032476863
-0.0070606333
-0.0047122011
-0.0064996537
-0.0059930285
-0.0056868771
-0.0070410156
-0.0046551766
-0.0078164952
-0.0034458803
-0.0082906562
-0.0021068462
-0.0084463846
-0.00069034972
-0.0082785802
0.00074905065
-0.0077942174
0.0021565439
-0.00701198
0.0034789873
-0.0059616905
0.0046666883
-0.0046833313
0.0056750979
-0.0032256481
0.0064664229
-0.0016443544
0.0070110261
0.0072885217
0.001482394
0.0058061262
0.0029081962
0.0055852279
0.0042229782
0.005151647
0.0053765551
0.0045215284
0.0063248734
0.0037183777
0.0070316485
0.0027722194
0.0074696917
0.001718507
0.0076218874
0.00059686054
0.0074818835
-0.0005503401
0.007054156
-0.0016791117
0.0063542415
-0.0027459568
0.0054082924
-0.0037092172
0.0042522541
-0.0045308285
0.0029305746
-0.0051779654
0.0014944973
-0.00562455
4.1076681e-09
-0.0058524789
-0.0014944897
-0.0058524805
-0.0029305685
-0.0056245544
-0.0042522502
-0.005177972
-0.0054082909
-0.0045308364
-0.0063542419
-0.0037092256
-0.0070541575
-0.0027459647
-0.007481885
-0.0016791188
-0.0076218882
-0.00055034654
-0.0074696919
0.00059685442
-0.0070316487
0.0017185007
-0.0063248742
0.0027722128
-0.005376557
0.0037183711
-0.0042229815
0.0045215224
-0.0029082008
0.0051516422
-0.0014823995
0.0055852248
0.0058061251
0.0015351073
0.004271007
0.0030116986
0.0041086367
0.0043734344
0.0037899112
0.0055683044
0.0033266584
0.0065505708
0.0027361113
0.0072825019
0.0020402884
0.0077358368
0.0012651721
0.0078929136
0.00043978375
0.0077472748
-0.00040470131
0.0073036207
-0.0012354575
0.0065781394
-0.0020204755
0.005598116
-0.0027291939
0.0044009539
-0.0033336664
0.0030327511
-0.0038097625
0.0015465066
-0.0041383056
1.2806659e-08
-0.0043059851
-0.0015464817
-0.004305986
-0.0030327283
-0.0041383079
-0.0044009343
-0.003809766
-0.0055981004
-0.0033336704
-0.006578128
-0.0027291979
-0.0073036136
-0.0020204792
-0.0077472718
-0.0012354606
-0.0078929145
-0.00040470387
-0.0077358414
0.00043978132
-0.0072825102
0.0012651695
-0.006550583
0.0020402856
-0.0055683202
0.0027361083
-0.0043734534
0.0033266556
-0.0030117201
0.0037899089
-0.0015351305
0.0041086352
0.0042710064
0.0014112548
0.002859754
0.0027688574
0.0027510341
0.0040211494
0.0025376192
0.005120381
0.0022274267
0.0060244975
0.0018319948
0.006698727
0.0013660588
0.0071169091
0.00084698997
0.0072624563
0.00029423654
0.0071291939
-0.00027143897
0.0067214181
-0.00082768163
0.0060541315
-0.001353189
0.0051524384
-0.0018275008
0.0040507492
-0.0022319771
0.0027915004
-0.0025505137
0.0014235037
-0.0027703089
-1.3089822e-09
-0.0028824801
-0.0014235064
-0.0028824808
-0.0027915034
-0.0027703109
-0.0040507526
-0.0025505168
-0.005152442
-0.002231981
-0.0060541349
-0.001827505
-0.0067214208
-0.0013531932
-0.0071291956
-0.00082768576
-0.0072624566
-0.00027144292
-0.007116908
0.00029423274
-0.0066987248
0.00084698626
-0.0060244944
0.0013660552
-0.0051203775
0.0018319914
-0.0040211457
0.0022274238
-0.0027688538
0.0025376169
-0.0014112512
0.0027510326
0.0028597535
0.0017610142
0.0010987184
0.0034549327
0.0010571156
0.0050171131
0.00097543881
0.0063878407
0.00085669918
0.0075145448
0.00070529074
0.008353784
0.00052681958
0.0088729611
0.00032781286
0.0090520068
0.00011519085
0.0088854072
-0.00010483936
0.0083767868
-0.00031906116
0.0075445947
-0.0005209969
0.0064203617
-0.00070326783
0.0050471586
-0.00085877408
0.0034779364
-0.00098129146
0.001773483
-0.0010658555
2.2418733e-08
-0.0011090195
-0.0017734391
-0.0011090193
-0.0034778953
-0.0010658548
-0.005047122
-0.00098129007
-0.006420331
-0.00085877197
-0.0075445711
-0.00070326495
-0.008376771
-0.00052099328
-0.0088853998
-0.00031905695
-0.0090520079
-0.00010483482
-0.0088729705
0.00011519532
-0.0083538013
0.00032781702
-0.0075145692
0.00052682317
-0.0063878714
0.00070529363
-0.0050171489
0.00085670134
-0.0034549723
0.00097544027
-0.0017610561
0.0010571164
0.0010987187
0.0011640143
0.0022839049
0.0033171927
0.0042245903
0.00497148
0.0055292009
0.0058760317
0.0059976335
0.0058863876
0.0055483123
0.0049964168
0.0042515513
0.0033420782
0.0023029354
0.0011743012
-9.1915505e-09
-0.0011743194
-0.0023029529
-0.0033420944
-0.0042515656
-0.0049964285
-0.0055483206
-0.0058863918
-0.0059976335
-0.0058760275
-0.0055291927
-0.0049714685
-0.0042245761
-0.0033171765
-0.0022838873
-0.0011639959
)
;

boundaryField
{
    leftWall
    {
        type            cyclic;
        value           nonuniform List<scalar> 
32
(
-3.9285876e-09
-4.1903138e-09
-4.5902049e-09
-5.1795375e-09
-6.0427511e-09
-7.2892946e-09
-9.0816054e-09
-1.1669316e-08
-1.5432858e-08
-2.0936087e-08
-2.8980921e-08
-4.0647302e-08
-5.7168229e-08
-7.9572214e-08
-1.0686032e-07
-1.1568933e-07
9.5649955e-08
1.09515e-07
8.3657951e-08
6.0521607e-08
4.329311e-08
3.1037348e-08
2.250758e-08
1.6624368e-08
1.2538414e-08
9.3491375e-09
9.6852206e-09
2.888016e-09
1.1847328e-08
-1.7441415e-09
2.1337011e-08
-9.3072323e-09
)
;
    }
    rightWall
    {
        type            cyclic;
        value           nonuniform List<scalar> 
32
(
3.9285876e-09
4.1903138e-09
4.5902049e-09
5.1795375e-09
6.0427511e-09
7.2892946e-09
9.0816054e-09
1.1669316e-08
1.5432858e-08
2.0936087e-08
2.8980921e-08
4.0647302e-08
5.7168229e-08
7.9572214e-08
1.0686032e-07
1.1568933e-07
-9.5649955e-08
-1.09515e-07
-8.3657951e-08
-6.0521607e-08
-4.329311e-08
-3.1037348e-08
-2.250758e-08
-1.6624368e-08
-1.2538414e-08
-9.3491375e-09
-9.6852206e-09
-2.888016e-09
-1.1847328e-08
1.7441415e-09
-2.1337011e-08
9.3072323e-09
)
;
    }
    lowerWall
    {
        type            calculated;
        value           uniform 0;
    }
    atmosphere
    {
        type            calculated;
        value           nonuniform List<scalar> 
32
(
-6.5286499e-05
-6.2775059e-05
-5.784903e-05
-5.0698401e-05
-4.1598912e-05
-3.0901315e-05
-1.9017981e-05
-6.410904e-06
6.4065293e-06
1.9014081e-05
3.0898573e-05
4.1597725e-05
5.0698991e-05
5.7851323e-05
6.2778694e-05
6.5290892e-05
6.5290919e-05
6.2778773e-05
5.7851452e-05
5.0699164e-05
4.1597935e-05
3.0898812e-05
1.9014337e-05
6.4067899e-06
-6.41065e-06
-1.9017744e-05
-3.0901103e-05
-4.1598733e-05
-5.0698258e-05
-5.7848927e-05
-6.2774997e-05
-6.5286479e-05
)
;
    }
    defaultFaces
    {
        type            empty;
        value           nonuniform List<scalar> 0();
    }
}


// ************************************************************************* //
