/*--------------------------------*- C++ -*----------------------------------*\
| =========                 |                                                 |
| \\      /  F ield         | OpenFOAM: The Open Source CFD Toolbox           |
|  \\    /   O peration     | Version:  2106                                  |
|   \\  /    A nd           | Website:  www.openfoam.com                      |
|    \\/     M anipulation  |                                                 |
\*---------------------------------------------------------------------------*/
FoamFile
{
    version     2.0;
    format      ascii;
    arch        "LSB;label=32;scalar=64";
    class       volVectorField;
    location    "0.016";
    object      U_0;
}
// * * * * * * * * * * * * * * * * * * * * * * * * * * * * * * * * * * * * * //

dimensions      [0 1 -1 0 0 0 0];

internalField   nonuniform List<vector> 
1024
(
(-0.020191055 0.019866866 0)
(-0.059792797 0.019099117 0)
(-0.097083441 0.017593813 0)
(-0.1306235 0.015410077 0)
(-0.15912071 0.012633476 0)
(-0.18147955 0.0093722332 0)
(-0.19684967 0.0057519179 0)
(-0.20463349 0.0019183387 0)
(-0.20456073 -0.0019874315 0)
(-0.1966292 -0.0058126667 0)
(-0.18115516 -0.0094114743 0)
(-0.15873806 -0.012646743 0)
(-0.13024157 -0.015395556 0)
(-0.096760163 -0.017553686 0)
(-0.059577075 -0.019039433 0)
(-0.020115515 -0.019796614 0)
(0.020115223 -0.019796618 0)
(0.059576798 -0.019039445 0)
(0.09675992 -0.017553705 0)
(0.13024137 -0.015395579 0)
(0.15873791 -0.012646768 0)
(0.18115507 -0.0094114991 0)
(0.19662915 -0.00581269 0)
(0.20456073 -0.0019874531 0)
(0.20463353 0.0019183185 0)
(0.19684975 0.0057518984 0)
(0.18147967 0.0093722144 0)
(0.15912086 0.012633458 0)
(0.13062369 0.015410062 0)
(0.097083661 0.017593801 0)
(0.059793039 0.019099109 0)
(0.020191306 0.019866863 0)
(-0.020851718 0.060140922 0)
(-0.061748215 0.057816013 0)
(-0.10025508 0.053257761 0)
(-0.13488451 0.046645449 0)
(-0.16430172 0.038238506 0)
(-0.18737679 0.028365457 0)
(-0.20323006 0.017409559 0)
(-0.21125829 0.0057981878 0)
(-0.21116698 -0.0060215256 0)
(-0.20296791 -0.017598617 0)
(-0.1869859 -0.028490103 0)
(-0.16384068 -0.038281084 0)
(-0.13442396 -0.046599693 0)
(-0.099865098 -0.053130634 0)
(-0.061487927 -0.057626753 0)
(-0.020760545 -0.059918097 0)
(0.020760228 -0.059918111 0)
(0.061487628 -0.057626792 0)
(0.099864837 -0.053130693 0)
(0.13442375 -0.046599765 0)
(0.16384052 -0.038281161 0)
(0.1869858 -0.028490179 0)
(0.20296786 -0.017598688 0)
(0.21116699 -0.0060215905 0)
(0.21125833 0.0057981271 0)
(0.20323014 0.0174095 0)
(0.18737691 0.0283654 0)
(0.16430189 0.038238451 0)
(0.13488471 0.046645401 0)
(0.10025532 0.053257723 0)
(0.061748473 0.057815989 0)
(0.020851986 0.060140913 0)
(-0.021802688 0.10217667 0)
(-0.064562382 0.098223491 0)
(-0.10481805 0.090473442 0)
(-0.14101186 0.079232439 0)
(-0.17174794 0.064942899 0)
(-0.19584688 0.048164823 0)
(-0.2123914 0.029552136 0)
(-0.22075775 0.0098281246 0)
(-0.2206391 -0.010247721 0)
(-0.2120534 -0.029907364 0)
(-0.19534161 -0.048400518 0)
(-0.17115225 -0.06502386 0)
(-0.14041677 -0.079146736 0)
(-0.1043141 -0.090234307 0)
(-0.064226023 -0.09786725 0)
(-0.021684838 -0.10175718 0)
(0.021684482 -0.1017572 0)
(0.06422569 -0.09786732 0)
(0.10431382 -0.090234413 0)
(0.14041654 -0.079146865 0)
(0.17115209 -0.065023996 0)
(0.19534152 -0.04840065 0)
(0.21205336 -0.029907484 0)
(0.22063911 -0.01024783 0)
(0.2207578 0.0098280237 0)
(0.21239149 0.029552038 0)
(0.19584701 0.048164725 0)
(0.17174812 0.064942804 0)
(0.14101208 0.079232354 0)
(0.1048183 0.090473374 0)
(0.064562663 0.098223447 0)
(0.021802982 0.10217665 0)
(-0.023144761 0.14639845 0)
(-0.0685336 0.14072775 0)
(-0.11125612 0.12961185 0)
(-0.14965545 0.11349191 0)
(-0.18224965 0.093005366 0)
(-0.20778983 0.068958112 0)
(-0.22530748 0.042290016 0)
(-0.23414798 0.014036571 0)
(-0.23399192 -0.014714388 0)
(-0.22486334 -0.042863603 0)
(-0.20712583 -0.069339256 0)
(-0.18146728 -0.093136392 0)
(-0.14887413 -0.11335342 0)
(-0.11059463 -0.1292253 0)
(-0.06809216 -0.14015193 0)
(-0.022990077 -0.14572043 0)
(0.022989661 -0.14572047 0)
(0.068091775 -0.14015204 0)
(0.1105943 -0.12922547 0)
(0.14887388 -0.11335362 0)
(0.18146712 -0.0931366 0)
(0.20712574 -0.06933945 0)
(0.22486332 -0.042863774 0)
(0.23399194 -0.014714537 0)
(0.23414803 0.014036434 0)
(0.22530757 0.042289879 0)
(0.20778996 0.068957971 0)
(0.18224983 0.093005226 0)
(0.14965568 0.11349179 0)
(0.11125639 0.12961174 0)
(0.068533913 0.14072768 0)
(0.023145092 0.14639842 0)
(-0.025075765 0.19372063 0)
(-0.074247546 0.18620541 0)
(-0.12051974 0.17147622 0)
(-0.16209328 0.15012195 0)
(-0.19736282 0.12299238 0)
(-0.2249799 0.09115998 0)
(-0.24390314 0.055872644 0)
(-0.2534331 0.018500982 0)
(-0.25323243 -0.019517549 0)
(-0.2433322 -0.056732593 0)
(-0.2241267 -0.091731302 0)
(-0.19635823 -0.1231884 0)
(-0.16109061 -0.14991368 0)
(-0.11967123 -0.17089604 0)
(-0.073681485 -0.18534158 0)
(-0.024877432 -0.19270371 0)
(0.024876924 -0.19270377 0)
(0.073681022 -0.18534175 0)
(0.11967085 -0.17089628 0)
(0.16109034 -0.14991397 0)
(0.19635807 -0.1231887 0)
(0.22412664 -0.091731569 0)
(0.2433322 -0.056732813 0)
(0.25323247 -0.01951773 0)
(0.25343316 0.018500817 0)
(0.24390323 0.05587247 0)
(0.22498003 0.091159791 0)
(0.19736301 0.12299219 0)
(0.16209354 0.15012177 0)
(0.12052005 0.17147607 0)
(0.074247907 0.18620531 0)
(0.025076151 0.19372059 0)
(-0.027913202 0.24556281 0)
(-0.082644531 0.23601866 0)
(-0.13413594 0.21731684 0)
(-0.18038069 0.19021212 0)
(-0.21959276 0.1557918 0)
(-0.25027744 0.11542479 0)
(-0.27128578 0.070699066 0)
(-0.28185084 0.023352638 0)
(-0.28160661 -0.024797143 0)
(-0.27059118 -0.071920379 0)
(-0.24924027 -0.11623528 0)
(-0.21837269 -0.15606858 0)
(-0.17916398 -0.1899145 0)
(-0.13310703 -0.21649127 0)
(-0.081958497 -0.23479074 0)
(-0.02767292 -0.24411787 0)
(0.027672277 -0.24411796 0)
(0.081957921 -0.23479099 0)
(0.13310658 -0.21649164 0)
(0.17916369 -0.18991493 0)
(0.21837256 -0.156069 0)
(0.24924026 -0.11623564 0)
(0.27059124 -0.071920642 0)
(0.28160669 -0.024797338 0)
(0.28185091 0.023352464 0)
(0.27128585 0.070698861 0)
(0.25027755 0.11542455 0)
(0.21959295 0.15579154 0)
(0.18038097 0.19021186 0)
(0.1341363 0.21731662 0)
(0.08264496 0.23601852 0)
(0.027913667 0.24556276 0)
(-0.032097071 0.30409713 0)
(-0.095028168 0.29225364 0)
(-0.15422338 0.26905197 0)
(-0.20737232 0.23543885 0)
(-0.25242355 0.1927753 0)
(-0.28766568 0.14276972 0)
(-0.31178831 0.087396541 0)
(-0.3239208 0.028807772 0)
(-0.32364974 -0.030755474 0)
(-0.31101798 -0.08904195 0)
(-0.28651694 -0.14385948 0)
(-0.25107426 -0.19314458 0)
(-0.20602853 -0.23503396 0)
(-0.15308827 -0.26793639 0)
(-0.094272038 -0.29059703 0)
(-0.031832452 -0.30214899 0)
(0.031831609 -0.30214912 0)
(0.094271298 -0.29059739 0)
(0.15308772 -0.26793692 0)
(0.20602821 -0.23503458 0)
(0.25107418 -0.19314516 0)
(0.28651704 -0.14385994 0)
(0.31101814 -0.089042238 0)
(0.32364987 -0.030755642 0)
(0.32392085 0.028807625 0)
(0.31178832 0.087396314 0)
(0.28766574 0.14276941 0)
(0.25242373 0.19277494 0)
(0.20737263 0.23543848 0)
(0.15422381 0.26905166 0)
(0.095028694 0.29225343 0)
(0.03209765 0.30409706 0)
(-0.03811178 0.37247803 0)
(-0.11283444 0.35794269 0)
(-0.18311827 0.32947509 0)
(-0.24622057 0.28825023 0)
(-0.29970925 0.23595358 0)
(-0.34155865 0.1746938 0)
(-0.37022007 0.10689781 0)
(-0.38466599 0.035199048 0)
(-0.38440672 -0.037673707 0)
(-0.36948417 -0.10898585 0)
(-0.34046386 -0.17607254 0)
(-0.29842676 -0.23641555 0)
(-0.2449462 -0.28772941 0)
(-0.18204386 -0.32805357 0)
(-0.11212001 -0.35583656 0)
(-0.037862209 -0.37000362 0)
(0.037861071 -0.37000382 0)
(0.11211902 -0.3558371 0)
(0.18204316 -0.32805438 0)
(0.24494586 -0.28773032 0)
(0.29842679 -0.23641639 0)
(0.34046415 -0.17607314 0)
(0.36948452 -0.10898612 0)
(0.38440694 -0.037673763 0)
(0.384666 0.035199004 0)
(0.37021997 0.10689758 0)
(0.34155862 0.17469339 0)
(0.29970938 0.23595308 0)
(0.2462209 0.2882497 0)
(0.18311879 0.32947464 0)
(0.11283511 0.35794239 0)
(0.038112524 0.37247792 0)
(-0.046250445 0.45479624 0)
(-0.13693373 0.43702192 0)
(-0.22224111 0.40221896 0)
(-0.29885047 0.35183856 0)
(-0.36381525 0.28795816 0)
(-0.41467943 0.21316807 0)
(-0.44956117 0.13043769 0)
(-0.46720865 0.042976872 0)
(-0.46701827 -0.045906636 0)
(-0.44902182 -0.13290525 0)
(-0.41388065 -0.21479039 0)
(-0.36288471 -0.28849375 0)
(-0.29792975 -0.35121272 0)
(-0.22146776 -0.40053076 0)
(-0.13642161 -0.43452788 0)
(-0.046072483 -0.45187001 0)
(0.046070903 -0.4518703 0)
(0.13642026 -0.4345287 0)
(0.22146684 -0.40053197 0)
(0.2979294 -0.35121409 0)
(0.36288494 -0.28849498 0)
(0.41388131 -0.21479118 0)
(0.44902253 -0.13290542 0)
(0.46701863 -0.045906408 0)
(0.46720852 0.04297707 0)
(0.44956082 0.13043745 0)
(0.41467923 0.21316753 0)
(0.36381531 0.28795744 0)
(0.29885083 0.3518378 0)
(0.22224176 0.4022183 0)
(0.1369346 0.43702149 0)
(0.046251427 0.45479609 0)
(-0.05615991 0.55536777 0)
(-0.16628268 0.53364888 0)
(-0.26990531 0.49112927 0)
(-0.36300612 0.42959405 0)
(-0.44201199 0.35159505 0)
(-0.50393543 0.26030395 0)
(-0.54647266 0.15934497 0)
(-0.5680821 0.05263154 0)
(-0.56801106 -0.055826479 0)
(-0.54627055 -0.16202848 0)
(-0.50363646 -0.26205932 0)
(-0.44166893 -0.35216596 0)
(-0.3626697 -0.42890224 0)
(-0.26962549 -0.48928378 0)
(-0.16610085 -0.53093046 0)
(-0.056098681 -0.55218397 0)
(0.056096436 -0.5521844 0)
(0.16609895 -0.53093169 0)
(0.26962424 -0.48928563 0)
(0.36266934 -0.42890434 0)
(0.44166953 -0.35216782 0)
(0.50363782 -0.26206041 0)
(0.54627193 -0.16202835 0)
(0.56801164 -0.055825608 0)
(0.56808163 0.052632226 0)
(0.54647182 0.15934468 0)
(0.50393493 0.26030318 0)
(0.4420119 0.35159399 0)
(0.36300652 0.4295929 0)
(0.26990616 0.49112829 0)
(0.16628385 0.53364825 0)
(0.056161241 0.55536755 0)
(-0.066190912 0.67688148 0)
(-0.19599783 0.65042046 0)
(-0.31818295 0.59862014 0)
(-0.42802086 0.5236593 0)
(-0.52130235 0.42865157 0)
(-0.59449265 0.3174556 0)
(-0.64483781 0.1944714 0)
(-0.67048093 0.064473444 0)
(-0.67051966 -0.067689758 0)
(-0.64494035 -0.1971913 0)
(-0.59461154 -0.31923261 0)
(-0.52142931 -0.42923011 0)
(-0.42813782 -0.52296802 0)
(-0.31827851 -0.59676887 0)
(-0.19606589 -0.64769411 0)
(-0.066218483 -0.67369512 0)
(0.066215242 -0.67369575 0)
(0.19606312 -0.64769595 0)
(0.31827671 -0.59677174 0)
(0.42813746 -0.52297132 0)
(0.52143056 -0.42923303 0)
(0.59461419 -0.31923421 0)
(0.64494302 -0.19719049 0)
(0.67052057 -0.067687446 0)
(0.67047961 0.064475034 0)
(0.64483599 0.19447087 0)
(0.59449167 0.31745445 0)
(0.52130202 0.42864998 0)
(0.4280213 0.52365753 0)
(0.31818411 0.59861868 0)
(0.19599944 0.65041953 0)
(0.066192752 0.67688116 0)
(-0.072788698 0.81711092 0)
(-0.21554801 0.78520493 0)
(-0.34996116 0.72274265 0)
(-0.47083953 0.63233967 0)
(-0.57354709 0.51774249 0)
(-0.65417748 0.38359016 0)
(-0.70964969 0.23515602 0)
(-0.73787715 0.078214382 0)
(-0.73782589 -0.081394917 0)
(-0.70951593 -0.23783687 0)
(-0.65398367 -0.38538285 0)
(-0.57327725 -0.51837442 0)
(-0.4705326 -0.63171897 0)
(-0.34968254 -0.72097104 0)
(-0.21536499 -0.78256676 0)
(-0.072729713 -0.81403042 0)
(0.072724985 -0.81403132 0)
(0.21536085 -0.78256949 0)
(0.34967983 -0.72097552 0)
(0.4705322 -0.63172431 0)
(0.5732796 -0.51837922 0)
(0.65398884 -0.3853855 0)
(0.70952133 -0.23783459 0)
(0.73782725 -0.081389238 0)
(0.73787372 0.078217524 0)
(0.709646 0.23515467 0)
(0.65417583 0.38358843 0)
(0.57354634 0.51774005 0)
(0.47084004 0.63233684 0)
(0.34996284 0.72274045 0)
(0.21555032 0.78520361 0)
(0.072791273 0.81711048 0)
(-0.070536739 0.96468408 0)
(-0.2088821 0.92706348 0)
(-0.33914745 0.85340744 0)
(-0.4562942 0.74676592 0)
(-0.5557795 0.61157141 0)
(-0.63381047 0.45328583 0)
(-0.68741904 0.27797687 0)
(-0.71454443 0.092558564 0)
(-0.71414152 -0.096077923 0)
(-0.68626429 -0.28095479 0)
(-0.6320055 -0.45533104 0)
(-0.55350614 -0.61239794 0)
(-0.45394154 -0.74620434 0)
(-0.33712618 -0.85152481 0)
(-0.20753615 -0.924175 0)
(-0.070067818 -0.96128434 0)
(0.070060928 -0.96128554 0)
(0.20752979 -0.92417888 0)
(0.33712184 -0.8515319 0)
(0.45394107 -0.74621323 0)
(0.55351047 -0.6124062 0)
(0.63201579 -0.45533611 0)
(0.68627589 -0.2809494 0)
(0.71414316 -0.096064464 0)
(0.71453543 0.092563931 0)
(0.68741189 0.27797304 0)
(0.633808 0.45328342 0)
(0.55577781 0.61156757 0)
(0.45629477 0.74676121 0)
(0.33915007 0.85340414 0)
(0.20888547 0.92706166 0)
(0.070540349 0.96468348 0)
(-0.053979683 1.0960154 0)
(-0.15982836 1.0532939 0)
(-0.25944953 0.96966291 0)
(-0.34894751 0.8485182 0)
(-0.42483612 0.69486932 0)
(-0.48433275 0.51498085 0)
(-0.52491768 0.31560894 0)
(-0.54494503 0.10475851 0)
(-0.54385166 -0.10980095 0)
(-0.52184741 -0.32004386 0)
(-0.47979359 -0.51816566 0)
(-0.41951709 -0.69620454 0)
(-0.34363323 -0.84777029 0)
(-0.25492721 -0.96698406 0)
(-0.15678272 -1.0491517 0)
(-0.05286074 -1.0912275 0)
(0.05285087 -1.0912289 0)
(0.15677283 -1.0491568 0)
(0.25492006 -0.96699538 0)
(0.3436331 -0.84778572 0)
(0.41952566 -0.69621909 0)
(0.47981469 -0.5181761 0)
(0.52187271 -0.32003206 0)
(0.54385142 -0.10976894 0)
(0.54492223 0.10476573 0)
(0.5249054 0.31559889 0)
(0.48432948 0.51497867 0)
(0.42483176 0.69486297 0)
(0.34894789 0.84850977 0)
(0.25945383 0.96965807 0)
(0.1598333 1.0532916 0)
(0.053984688 1.0960147 0)
(-0.022789789 1.1786261 0)
(-0.067400524 1.132646 0)
(-0.10925556 1.0427016 0)
(-0.14664639 0.91233236 0)
(-0.17799734 0.74702239 0)
(-0.20260771 0.55359324 0)
(-0.21930023 0.33867168 0)
(-0.22718037 0.11136015 0)
(-0.22638562 -0.1198921 0)
(-0.21702998 -0.34597293 0)
(-0.19922034 -0.5585888 0)
(-0.17407352 -0.74887139 0)
(-0.14279618 -0.91079279 0)
(-0.10601321 -1.0380699 0)
(-0.065206716 -1.1256352 0)
(-0.022047531 -1.1702414 0)
(0.022034351 -1.1702425 0)
(0.065192166 -1.125641 0)
(0.10600264 -1.0380878 0)
(0.14279985 -0.91081959 0)
(0.17409255 -0.74889635 0)
(0.19925944 -0.5586101 0)
(0.21707599 -0.34595099 0)
(0.22637304 -0.11982498 0)
(0.22713159 0.11136104 0)
(0.21928812 0.33864874 0)
(0.20260394 0.55359429 0)
(0.17798468 0.74701182 0)
(0.14664558 0.9123172 0)
(0.10926249 1.042695 0)
(0.067407414 1.1326434 0)
(0.022796478 1.1786253 0)
(0.0083069462 1.1780188 0)
(0.024686809 1.1316665 0)
(0.040146433 1.0413074 0)
(0.054019572 0.91031174 0)
(0.065940946 0.74471519 0)
(0.074480128 0.5520973 0)
(0.07918247 0.3378138 0)
(0.080010847 0.11189546 0)
(0.076055515 -0.11699676 0)
(0.067902571 -0.34201058 0)
(0.057512243 -0.55481942 0)
(0.045856887 -0.74549899 0)
(0.033917101 -0.90903915 0)
(0.023081139 -1.0381895 0)
(0.013276381 -1.1270843 0)
(0.0042778646 -1.1726624 0)
(-0.0042893121 -1.1726626 0)
(-0.013288848 -1.1270907 0)
(-0.023087624 -1.0382236 0)
(-0.033903386 -0.9090959 0)
(-0.045827736 -0.74554536 0)
(-0.057479492 -0.55485479 0)
(-0.067876125 -0.34193593 0)
(-0.076093849 -0.11685212 0)
(-0.080053797 0.11185803 0)
(-0.079164424 0.33775722 0)
(-0.074484243 0.55212314 0)
(-0.065965739 0.74469625 0)
(-0.054022853 0.91027609 0)
(-0.040139539 1.0412966 0)
(-0.024680349 1.1316637 0)
(-0.0082997606 1.1780178 0)
(-0.0046363446 1.1729549 0)
(-0.014316161 1.1273662 0)
(-0.02477104 1.0384363 0)
(-0.036191382 0.90930452 0)
(-0.048609305 0.745752 0)
(-0.060648441 0.55505236 0)
(-0.071287131 0.34220603 0)
(-0.079563474 0.11703865 0)
(-0.083540496 -0.11192367 0)
(-0.082568338 -0.3378223 0)
(-0.077576841 -0.55218994 0)
(-0.06864879 -0.744904 0)
(-0.056229149 -0.91058113 0)
(-0.041783325 -1.0416682 0)
(-0.025695157 -1.1320456 0)
(-0.0086387926 -1.1784107 0)
(0.0086524827 -1.178411 0)
(0.025710149 -1.1320519 0)
(0.041791743 -1.0417013 0)
(0.056214306 -0.91063614 0)
(0.068617879 -0.74494914 0)
(0.077538936 -0.55222435 0)
(0.08253578 -0.337745 0)
(0.083576047 -0.11177426 0)
(0.079606722 0.11700453 0)
(0.071273432 0.34215062 0)
(0.060653495 0.55507976 0)
(0.048632548 0.74573323 0)
(0.036195307 0.90926764 0)
(0.024765376 1.0384255 0)
(0.014311171 1.1273634 0)
(0.0046304021 1.172954 0)
(0.021683017 1.1712287 0)
(0.064149001 1.1265875 0)
(0.10429443 1.0389446 0)
(0.14048561 0.91158955 0)
(0.17127597 0.74954962 0)
(0.19604826 0.55912027 0)
(0.21362814 0.34633632 0)
(0.22286319 0.12001539 0)
(0.22363464 -0.11144252 0)
(0.21590613 -0.33891512 0)
(0.19951724 -0.55403911 0)
(0.1753062 -0.74766275 0)
(0.14445099 -0.91313681 0)
(0.10762692 -1.0436496 0)
(0.066395822 -1.133674 0)
(0.022457009 -1.1796951 0)
(-0.022444303 -1.1796964 0)
(-0.066381879 -1.1336796 0)
(-0.10761668 -1.043666 0)
(-0.14445413 -0.91316102 0)
(-0.17532369 -0.74768569 0)
(-0.19955524 -0.55405897 0)
(-0.21594979 -0.33889084 0)
(-0.22362112 -0.11137268 0)
(-0.22281672 0.12001814 0)
(-0.21361811 0.34631379 0)
(-0.19604492 0.55912338 0)
(-0.17126222 0.7495393 0)
(-0.14048446 0.91157261 0)
(-0.10430167 1.038938 0)
(-0.064155912 1.126585 0)
(-0.021689873 1.1712279 0)
(0.052493191 1.0929234 0)
(0.15571205 1.0507821 0)
(0.25318883 0.96848841 0)
(0.34129704 0.84910625 0)
(0.41668149 0.69731641 0)
(0.47657236 0.51900943 0)
(0.51837544 0.32058349 0)
(0.54025084 0.1099896 0)
(0.54133522 -0.10490979 0)
(0.52145579 -0.31607724 0)
(0.48116328 -0.51576995 0)
(0.4220703 -0.69595346 0)
(0.34668542 -0.8498564 0)
(0.25777123 -0.97120722 0)
(0.15879475 -1.0549721 0)
(0.053635144 -1.0977617 0)
(-0.053625874 -1.0977631 0)
(-0.15878558 -1.054977 0)
(-0.25776466 -0.9712178 0)
(-0.34668535 -0.84987065 0)
(-0.42207826 -0.69596691 0)
(-0.48118338 -0.51577978 0)
(-0.52147946 -0.31606588 0)
(-0.541334 -0.10488051 0)
(-0.5402283 0.10999475 0)
(-0.51836384 0.32057222 0)
(-0.47656958 0.51900765 0)
(-0.41667694 0.69731013 0)
(-0.34129746 0.84909713 0)
(-0.25319352 0.9684835 0)
(-0.15571726 1.0507797 0)
(-0.052498454 1.0929227 0)
(0.069687959 0.96369393 0)
(0.2064209 0.9264939 0)
(0.33531445 0.85366655 0)
(0.45150315 0.74809342 0)
(0.5505367 0.61396033 0)
(0.628619 0.45650529 0)
(0.68259267 0.28169216 0)
(0.7103197 0.096339368 0)
(0.71071112 -0.092777388 0)
(0.6837282 -0.27866212 0)
(0.63041027 -0.45442104 0)
(0.55279973 -0.61311587 0)
(0.45385114 -0.74865905 0)
(0.33733201 -0.85557872 0)
(0.2077641 -0.92942375 0)
(0.070162291 -0.96714077 0)
(-0.07015584 -0.96714193 0)
(-0.20775821 -0.92942742 0)
(-0.33732804 -0.85558533 0)
(-0.45385078 -0.74866727 0)
(-0.55280383 -0.61312344 0)
(-0.63042004 -0.45442569 0)
(-0.68373897 -0.27865686 0)
(-0.7107122 -0.092764984 0)
(-0.71031066 0.09634383 0)
(-0.68258566 0.2816876 0)
(-0.62861676 0.4565027 0)
(-0.55053509 0.61395638 0)
(-0.45150384 0.74808838 0)
(-0.33531734 0.85366313 0)
(-0.20642449 0.92649204 0)
(-0.069691779 0.96369333 0)
(0.072307014 0.81720594 0)
(0.21411905 0.78562409 0)
(0.3476569 0.72379641 0)
(0.46780132 0.63420829 0)
(0.56994153 0.52043234 0)
(0.65016614 0.38692841 0)
(0.70535979 0.23880767 0)
(0.73348558 0.081746606 0)
(0.73351544 -0.078495593 0)
(0.70543758 -0.23605984 0)
(0.65028199 -0.38508839 0)
(0.57012183 -0.51978056 0)
(0.46802139 -0.63483953 0)
(0.3478629 -0.72560774 0)
(0.21425454 -0.78832137 0)
(0.072353843 -0.8203559 0)
(-0.072349419 -0.82035675 0)
(-0.21425069 -0.78832393 0)
(-0.34786041 -0.72561191 0)
(-0.46802106 -0.63484446 0)
(-0.57012403 -0.51978495 0)
(-0.65028683 -0.38509079 0)
(-0.70544254 -0.23605754 0)
(-0.73351644 -0.078490301 0)
(-0.73348199 0.081749395 0)
(-0.70535609 0.23880598 0)
(-0.65016458 0.38692648 0)
(-0.56994087 0.52042975 0)
(-0.46780195 0.63420528 0)
(-0.34765876 0.72379411 0)
(-0.21412153 0.78562272 0)
(-0.072309755 0.81720548 0)
(0.065703191 0.6777621 0)
(0.19454302 0.65161182 0)
(0.31580084 0.60039266 0)
(0.42479311 0.52616339 0)
(0.51733751 0.43187564 0)
(0.58992145 0.32122559 0)
(0.63982355 0.19844922 0)
(0.6651659 0.068157769 0)
(0.66509306 -0.064818721 0)
(0.63962585 -0.19562233 0)
(0.58966302 -0.31937493 0)
(0.51704831 -0.43126979 0)
(0.42451525 -0.52687677 0)
(0.31556978 -0.60231183 0)
(0.19438559 -0.65444006 0)
(0.065647499 -0.68106897 0)
(-0.065644463 -0.68106956 0)
(-0.19438301 -0.65444179 0)
(-0.31556811 -0.60231449 0)
(-0.42451492 -0.52687982 0)
(-0.51704946 -0.43127247 0)
(-0.58966546 -0.31937637 0)
(-0.63962825 -0.19562149 0)
(-0.66509373 -0.064816537 0)
(-0.66516445 0.068159163 0)
(-0.6398217 0.19844849 0)
(-0.58992051 0.32122427 0)
(-0.51733724 0.43187391 0)
(-0.42479364 0.52616149 0)
(-0.31580213 0.60039111 0)
(-0.19454477 0.65161085 0)
(-0.065705161 0.67776177 0)
(0.055424277 0.55739254 0)
(0.16410471 0.53595022 0)
(0.26637698 0.49393124 0)
(0.35828308 0.43300546 0)
(0.43630035 0.35556954 0)
(0.49747977 0.26463035 0)
(0.53955142 0.16366155 0)
(0.5609796 0.056448836 0)
(0.56100535 -0.053054691 0)
(0.53962523 -0.16080812 0)
(0.49758786 -0.2627608 0)
(0.43641894 -0.35495775 0)
(0.35839551 -0.43373549 0)
(0.26646745 -0.49588803 0)
(0.16416102 -0.53883556 0)
(0.055443772 -0.56077364 0)
(-0.055441665 -0.56077405 0)
(-0.16415923 -0.5388367 0)
(-0.26646628 -0.49588975 0)
(-0.35839516 -0.43373742 0)
(-0.43641947 -0.35495945 0)
(-0.49758907 -0.26276178 0)
(-0.53962642 -0.16080796 0)
(-0.56100576 -0.053053878 0)
(-0.56097902 0.056449397 0)
(-0.53955053 0.16366112 0)
(-0.49747927 0.26462944 0)
(-0.4363003 0.35556837 0)
(-0.35828355 0.43300422 0)
(-0.26637792 0.49393019 0)
(-0.16410597 0.53594954 0)
(-0.055425708 0.55739231 0)
(0.04517264 0.45862868 0)
(0.13375635 0.44104351 0)
(0.21713097 0.40656693 0)
(0.29207539 0.35654703 0)
(0.35572273 0.2929247 0)
(0.40567111 0.21814464 0)
(0.44006703 0.13504445 0)
(0.45765302 0.046734284 0)
(0.45778923 -0.043509303 0)
(0.44045228 -0.13232619 0)
(0.40623955 -0.21635457 0)
(0.35638167 -0.29233006 0)
(0.29272463 -0.35723141 0)
(0.2176745 -0.40842233 0)
(0.13411568 -0.44378786 0)
(0.045298644 -0.46185047 0)
(-0.045297156 -0.46185074 0)
(-0.13411441 -0.44378862 0)
(-0.21767362 -0.40842345 0)
(-0.29272428 -0.35723268 0)
(-0.35638185 -0.29233119 0)
(-0.40624011 -0.21635529 0)
(-0.44045287 -0.13232634 0)
(-0.45778948 -0.043509116 0)
(-0.45765282 0.0467344 0)
(-0.44006664 0.13504411 0)
(-0.4056709 0.218144 0)
(-0.35572281 0.29292389 0)
(-0.2920758 0.35654619 0)
(-0.21713168 0.40656622 0)
(-0.13375729 0.44104304 0)
(-0.045173698 0.45862851 0)
(0.036711711 0.37897464 0)
(0.1087116 0.36448521 0)
(0.17649964 0.33606637 0)
(0.23746588 0.29481129 0)
(0.28928191 0.24229926 0)
(0.3299897 0.18052816 0)
(0.35806899 0.11183003 0)
(0.37247909 0.038778552 0)
(0.37268045 -0.035898062 0)
(0.35863998 -0.10939586 0)
(0.33083763 -0.17891396 0)
(0.29027316 -0.24174681 0)
(0.23844902 -0.2953987 0)
(0.17732736 -0.33769974 0)
(0.10926179 -0.36691448 0)
(0.03690486 -0.38183265 0)
(-0.036903785 -0.38183284 0)
(-0.10926086 -0.366915 0)
(-0.17732669 -0.33770051 0)
(-0.23844867 -0.29539959 0)
(-0.29027314 -0.24174763 0)
(-0.33083786 -0.17891457 0)
(-0.35864025 -0.10939619 0)
(-0.3726806 -0.035898216 0)
(-0.37247905 0.03877839 0)
(-0.35806886 0.11182966 0)
(-0.32998966 0.18052763 0)
(-0.28928206 0.24229864 0)
(-0.23746625 0.29481067 0)
(-0.17650021 0.33606585 0)
(-0.10871231 0.36448487 0)
(-0.03671251 0.37897452 0)
(0.030512788 0.31062866 0)
(0.090362556 0.29878087 0)
(0.14673157 0.27553542 0)
(0.19745735 0.24177355 0)
(0.24060413 0.1987724 0)
(0.27453595 0.14815402 0)
(0.29797383 0.091821441 0)
(0.31003461 0.031887019 0)
(0.31025418 -0.029398911 0)
(0.29859763 -0.089719532 0)
(0.27546553 -0.1467631 0)
(0.241695 -0.19830533 0)
(0.19854282 -0.24230104 0)
(0.14764791 -0.27697739 0)
(0.090972992 -0.30091998 0)
(0.030727182 -0.31314395 0)
(-0.030726404 -0.31314404 0)
(-0.090972307 -0.30092023 0)
(-0.1476474 -0.27697775 0)
(-0.19854252 -0.24230142 0)
(-0.24169491 -0.19830564 0)
(-0.2754656 -0.14676326 0)
(-0.29859776 -0.08971952 0)
(-0.31025426 -0.029398789 0)
(-0.31003462 0.031887147 0)
(-0.29797381 0.091821468 0)
(-0.274536 0.14815394 0)
(-0.2406043 0.19877223 0)
(-0.19745766 0.24177335 0)
(-0.14673201 0.27553523 0)
(-0.090363097 0.29878074 0)
(-0.030513385 0.31062861 0)
(0.026596754 0.26803301 0)
(0.078770764 0.25781845 0)
(0.12792484 0.23777353 0)
(0.17217818 0.20865208 0)
(0.20984147 0.17154917 0)
(0.23948036 0.12785976 0)
(0.25996714 0.079226216 0)
(0.27051875 0.027477956 0)
(0.27072015 -0.025432051 0)
(0.2605401 -0.077489634 0)
(0.24033618 -0.12669339 0)
(0.2108483 -0.17112506 0)
(0.17318222 -0.20902835 0)
(0.12877394 -0.23888675 0)
(0.079337199 -0.25949418 0)
(0.02679588 -0.27001265 0)
(-0.026795143 -0.27001278 0)
(-0.079336529 -0.25949457 0)
(-0.1287734 -0.23888735 0)
(-0.17318183 -0.20902909 0)
(-0.21084807 -0.17112587 0)
(-0.24033608 -0.12669421 0)
(-0.26054009 -0.077490413 0)
(-0.27072019 -0.025432796 0)
(-0.2705188 0.027477221 0)
(-0.25996723 0.079225466 0)
(-0.23948053 0.12785901 0)
(-0.20984174 0.17154846 0)
(-0.17217857 0.20865146 0)
(-0.12792533 0.23777304 0)
(-0.078771338 0.25781814 0)
(-0.026597372 0.26803291 0)
(0.023979756 0.18793815 0)
(0.071023919 0.18079568 0)
(0.11535664 0.16677576 0)
(0.15528582 0.14639902 0)
(0.18928729 0.1204233 0)
(0.21606186 0.089816504 0)
(0.23458313 0.055721709 0)
(0.24413421 0.019417015 0)
(0.24433727 -0.017727948 0)
(0.23516113 -0.054296027 0)
(0.2169258 -0.088876052 0)
(0.19030476 -0.12011452 0)
(0.15630158 -0.14677182 0)
(0.11621645 -0.16777668 0)
(0.071597807 -0.1822764 0)
(0.024181291 -0.18967818 0)
(-0.024181028 -0.18967817 0)
(-0.071597578 -0.18227636 0)
(-0.11621628 -0.16777659 0)
(-0.15630149 -0.14677166 0)
(-0.19030475 -0.12011427 0)
(-0.21692584 -0.088875702 0)
(-0.23516118 -0.054295587 0)
(-0.24433731 -0.017727453 0)
(-0.24413423 0.019417519 0)
(-0.23458313 0.05572217 0)
(-0.21606187 0.089816894 0)
(-0.18928733 0.12042361 0)
(-0.1552859 0.14639925 0)
(-0.11535677 0.16677591 0)
(-0.071024085 0.18079576 0)
(-0.02397994 0.18793818 0)
(0.024814265 0.19819625 0)
(0.07349763 0.19064405 0)
(0.11937877 0.17582161 0)
(0.16070671 0.15428323 0)
(0.19590159 0.12683595 0)
(0.2236142 0.094510556 0)
(0.24277785 0.058523817 0)
(0.25264984 0.020234119 0)
(0.2528408 -0.018907375 0)
(0.24332143 -0.057396079 0)
(0.22442698 -0.093749854 0)
(0.1968594 -0.12655344 0)
(0.1616636 -0.15451716 0)
(0.12018938 -0.17653184 0)
(0.074039162 -0.19171838 0)
(0.025004875 -0.19946755 0)
(-0.025004056 -0.19946767 0)
(-0.074038388 -0.19171873 0)
(-0.12018869 -0.17653239 0)
(-0.16166303 -0.15451788 0)
(-0.19685897 -0.12655429 0)
(-0.22442669 -0.093750785 0)
(-0.24332127 -0.057397053 0)
(-0.25284077 -0.018908362 0)
(-0.25264993 0.020233141 0)
(-0.24277806 0.058522871 0)
(-0.22361454 0.094509672 0)
(-0.19590204 0.12683516 0)
(-0.16070727 0.15428257 0)
(-0.11937942 0.17582111 0)
(-0.073498352 0.19064374 0)
(-0.024815023 0.19819615 0)
(0.022834864 0.05825855 0)
(0.06763659 0.05606561 0)
(0.10986683 0.051758195 0)
(0.14791741 0.045490811 0)
(0.18033545 0.037489282 0)
(0.20587788 0.028042711 0)
(0.22355828 0.017492071 0)
(0.23268195 0.0062195163 0)
(0.23288638 -0.0053566989 0)
(0.22414095 -0.016764904 0)
(0.20674939 -0.02756581 0)
(0.18136297 -0.03733811 0)
(0.14894429 -0.04569132 0)
(0.11073687 -0.052283061 0)
(0.06821765 -0.0568384 0)
(0.023038794 -0.059165344 0)
(-0.023038878 -0.059165271 0)
(-0.06821774 -0.056838179 0)
(-0.11073697 -0.052282694 0)
(-0.1489444 -0.045690812 0)
(-0.18136308 -0.037337471 0)
(-0.20674949 -0.027565059 0)
(-0.22414103 -0.016764071 0)
(-0.23288641 -0.0053558213 0)
(-0.23268194 0.0062203939 0)
(-0.22355823 0.017492904 0)
(-0.2058778 0.028043463 0)
(-0.18033535 0.037489925 0)
(-0.1479173 0.045491325 0)
(-0.10986672 0.051758568 0)
(-0.067636477 0.056065837 0)
(-0.022834751 0.058258625 0)
(0.028439739 0.14299441 0)
(0.084236971 0.13753165 0)
(0.1368236 0.12681171 0)
(0.18419203 0.11123874 0)
(0.22452893 0.091400879 0)
(0.25628318 0.068048328 0)
(0.27822726 0.042065171 0)
(0.28951009 0.014440232 0)
(0.28971741 -0.013780572 0)
(0.27881901 -0.041503049 0)
(0.25716824 -0.067666274 0)
(0.22557282 -0.09125294 0)
(0.18523582 -0.11134367 0)
(0.13770856 -0.12715002 0)
(0.084828686 -0.13804852 0)
(0.028648429 -0.14360798 0)
(-0.028646994 -0.1436081 0)
(-0.084827311 -0.13804889 0)
(-0.1377073 -0.12715062 0)
(-0.18523473 -0.11134446 0)
(-0.22557194 -0.091253894 0)
(-0.25716761 -0.067667349 0)
(-0.27881863 -0.0415042 0)
(-0.28971731 -0.013781756 0)
(-0.28951026 0.014439059 0)
(-0.27822769 0.04206405 0)
(-0.25628385 0.0680473 0)
(-0.22452982 0.09139998 0)
(-0.18419311 0.11123801 0)
(-0.13682481 0.12681117 0)
(-0.084238287 0.13753132 0)
(-0.028441105 0.14299429 0)
(0.01886171 -0.086711737 0)
(0.055869879 -0.083375721 0)
(0.090760411 -0.076831609 0)
(0.12220838 -0.067330559 0)
(0.14901626 -0.055237269 0)
(0.17015964 -0.041016752 0)
(0.18482797 -0.025221458 0)
(0.19242342 -0.0084910134 0)
(0.19259523 0.0084309224 0)
(0.18531982 0.025166059 0)
(0.17089375 0.040971892 0)
(0.14988125 0.055206703 0)
(0.12307248 0.067315834 0)
(0.091492312 0.076831778 0)
(0.056358481 0.083387465 0)
(0.019032853 0.086729906 0)
(-0.019033442 0.086730047 0)
(-0.056359053 0.083387886 0)
(-0.091492855 0.076832466 0)
(-0.12307298 0.067316767 0)
(-0.14988166 0.055207847 0)
(-0.17089407 0.040973201 0)
(-0.18532003 0.02516748 0)
(-0.1925953 0.0084323954 0)
(-0.19242335 -0.0084895529 0)
(-0.18482777 -0.025220071 0)
(-0.17015932 -0.041015493 0)
(-0.14901585 -0.055236184 0)
(-0.12220789 -0.067329683 0)
(-0.090759864 -0.076830967 0)
(-0.0558693 -0.083375331 0)
(-0.018861112 -0.086711606 0)
)
;

boundaryField
{
    leftWall
    {
        type            cyclic;
    }
    rightWall
    {
        type            cyclic;
    }
    lowerWall
    {
        type            slip;
    }
    atmosphere
    {
        type            slip;
    }
    defaultFaces
    {
        type            empty;
    }
}


// ************************************************************************* //
