/*--------------------------------*- C++ -*----------------------------------*\
| =========                 |                                                 |
| \\      /  F ield         | OpenFOAM: The Open Source CFD Toolbox           |
|  \\    /   O peration     | Version:  2106                                  |
|   \\  /    A nd           | Website:  www.openfoam.com                      |
|    \\/     M anipulation  |                                                 |
\*---------------------------------------------------------------------------*/
FoamFile
{
    version     2.0;
    format      ascii;
    arch        "LSB;label=32;scalar=64";
    class       volVectorField;
    location    "0.065";
    object      U_0;
}
// * * * * * * * * * * * * * * * * * * * * * * * * * * * * * * * * * * * * * //

dimensions      [0 1 -1 0 0 0 0];

internalField   nonuniform List<vector> 
32768
(
(0.0017362097 -0.0018027762 0)
(0.0057962969 -0.0019062553 0)
(0.0099788977 -0.0019212859 0)
(0.014185821 -0.0019337659 0)
(0.018402352 -0.0019429375 0)
(0.022634148 -0.0019514806 0)
(0.026884936 -0.0019612723 0)
(0.031157675 -0.0019726878 0)
(0.035455496 -0.0019857037 0)
(0.03978183 -0.0020003586 0)
(0.044140259 -0.0020167359 0)
(0.048534465 -0.0020349275 0)
(0.052968215 -0.0020550909 0)
(0.057445436 -0.0020776706 0)
(0.061971433 -0.0021046018 0)
(0.066549795 -0.0021353767 0)
(0.07118429 -0.0021693622 0)
(0.075878724 -0.0022061718 0)
(0.080637009 -0.0022455709 0)
(0.08546316 -0.0022874188 0)
(0.090361307 -0.002331639 0)
(0.0953357 -0.0023782009 0)
(0.10039071 -0.0024271072 0)
(0.10553084 -0.0024783851 0)
(0.11076072 -0.0025320799 0)
(0.11608509 -0.0025882504 0)
(0.12150883 -0.0026469654 0)
(0.12703696 -0.0027083012 0)
(0.13267462 -0.00277234 0)
(0.13842708 -0.0028391657 0)
(0.14429976 -0.0029088741 0)
(0.15029817 -0.0029815338 0)
(0.1564281 -0.0030573007 0)
(0.1626951 -0.0031360832 0)
(0.16910577 -0.0032184502 0)
(0.17566459 -0.0033032838 0)
(0.18238146 -0.003393464 0)
(0.1892545 -0.0034828999 0)
(0.1963067 -0.0035841721 0)
(0.20351304 -0.0036736971 0)
(0.21093472 -0.0037925705 0)
(0.21849309 -0.0038766049 0)
(0.22631587 -0.004017218 0)
(0.23426331 -0.0041024848 0)
(0.24248837 -0.0042460355 0)
(0.25089595 -0.0043597147 0)
(0.25951003 -0.0044670207 0)
(0.26842107 -0.0046559947 0)
(0.27747638 -0.0047002667 0)
(0.28689383 -0.004914858 0)
(0.29646526 -0.0050736843 0)
(0.30632319 -0.0051124867 0)
(0.31655025 -0.0053766628 0)
(0.326901 -0.0055502865 0)
(0.33755494 -0.0055610507 0)
(0.34865419 -0.005806478 0)
(0.35994129 -0.0060867858 0)
(0.37142042 -0.0061233626 0)
(0.3833245 -0.0062257255 0)
(0.39562439 -0.006531858 0)
(0.40816102 -0.0067593344 0)
(0.42090686 -0.0068386638 0)
(0.43399187 -0.0069738843 0)
(0.4475247 -0.0071984571 0)
(0.46141682 -0.0074184648 0)
(0.47554404 -0.007612921 0)
(0.48988764 -0.007789473 0)
(0.50448114 -0.0078975052 0)
(0.51945079 -0.0079760065 0)
(0.53491588 -0.0081733356 0)
(0.55074353 -0.0084630088 0)
(0.56666863 -0.0086648252 0)
(0.58259775 -0.0087281378 0)
(0.59868341 -0.008751788 0)
(0.61514911 -0.0088153935 0)
(0.6320401 -0.0089257341 0)
(0.64918318 -0.0090339213 0)
(0.66638387 -0.009127966 0)
(0.68358519 -0.009238593 0)
(0.70080744 -0.0093416218 0)
(0.71798981 -0.0093587789 0)
(0.73493226 -0.0091935054 0)
(0.75136639 -0.0088094308 0)
(0.76716945 -0.0083087263 0)
(0.78259672 -0.007887736 0)
(0.7981968 -0.0077229912 0)
(0.81439258 -0.0078494324 0)
(0.83103101 -0.0080924358 0)
(0.84719651 -0.0080809095 0)
(0.86147546 -0.0072731943 0)
(0.8724674 -0.0055538059 0)
(0.87931666 -0.0038345447 0)
(0.88394561 -0.0027635276 0)
(0.88820652 -0.0023039469 0)
(0.89340093 -0.002048992 0)
(0.90003571 -0.0013207798 0)
(0.90732704 0.00055586025 0)
(0.91098505 0.0017352402 0)
(0.911842 0.0015867232 0)
(0.91146248 0.00079787888 0)
(0.91045374 -0.00042733451 0)
(0.90961277 -0.0019632694 0)
(0.90983621 -0.0036219063 0)
(0.91206264 -0.0051883392 0)
(0.91682039 -0.0065790588 0)
(0.92369658 -0.0084352232 0)
(0.93248026 -0.011195248 0)
(0.93996921 -0.012695494 0)
(0.93255557 -0.013269506 0)
(0.87856116 0.058090565 0)
(0.63428814 0.10339731 0)
(0.44567011 0.078423599 0)
(0.35000972 0.042977549 0)
(0.28735135 0.0239603 0)
(0.24621404 0.014644249 0)
(0.21756994 0.0098585024 0)
(0.19611967 0.0072436225 0)
(0.17914916 0.0056519011 0)
(0.16515158 0.004659665 0)
(0.15327488 0.0037308862 0)
(0.14296822 0.0032831211 0)
(0.13388861 0.0028962438 0)
(0.12579961 0.0025723124 0)
(0.11852818 0.002300541 0)
(0.11194352 0.0020706614 0)
(0.1059428 0.001875231 0)
(0.10044619 0.0017070222 0)
(0.095385632 0.0015618886 0)
(0.090711809 0.0014327248 0)
(0.08637852 0.0013239425 0)
(0.082346665 0.0012263143 0)
(0.078584596 0.0011342858 0)
(0.075080784 0.0010493862 0)
(0.071785508 0.00096902532 0)
(0.068686415 0.00090350949 0)
(0.065782786 0.00084815182 0)
(0.063045364 0.00079216483 0)
(0.060463341 0.00080161429 0)
(0.05803258 0.00071019875 0)
(0.055722181 0.00071126075 0)
(0.053528202 0.00063196843 0)
(0.05145334 0.0006376652 0)
(0.049488968 0.00057019381 0)
(0.047619151 0.00053279074 0)
(0.045840631 0.0005026299 0)
(0.044143904 0.00047839351 0)
(0.042523374 0.0004541591 0)
(0.040978444 0.0004301864 0)
(0.039505002 0.00040810943 0)
(0.03809806 0.00038801741 0)
(0.036754579 0.00036940131 0)
(0.035468095 0.00035375491 0)
(0.034234994 0.00033752633 0)
(0.033054464 0.00032121858 0)
(0.031923401 0.00030602722 0)
(0.030838937 0.00029204048 0)
(0.029798374 0.00027904189 0)
(0.028799288 0.00026689263 0)
(0.027839492 0.00025558111 0)
(0.02691657 0.00024525303 0)
(0.026028621 0.00023567324 0)
(0.025178335 0.00020674902 0)
(0.024359802 0.00021338801 0)
(0.023569043 0.00020644753 0)
(0.022807783 0.00019734331 0)
(0.02207423 0.00017247175 0)
(0.021365861 0.00018006768 0)
(0.02068692 0.00017644225 0)
(0.020032412 0.00017071458 0)
(0.0193987 0.00017777436 0)
(0.018786444 0.00015831368 0)
(0.018196498 0.00014859771 0)
(0.017627699 0.00014266772 0)
(0.017077882 0.00013756205 0)
(0.016546702 0.00013265172 0)
(0.016033165 0.00012788759 0)
(0.015536547 0.00012325152 0)
(0.015056262 0.00011876223 0)
(0.014591724 0.0001144382 0)
(0.014142328 0.00011028619 0)
(0.013707472 0.00010630403 0)
(0.01328657 0.00010248514 0)
(0.012879063 9.8820338e-05 0)
(0.012484414 9.5298513e-05 0)
(0.012102085 9.1910985e-05 0)
(0.011731612 8.8685133e-05 0)
(0.011372221 8.5993205e-05 0)
(0.011024847 8.9475562e-05 0)
(0.010688612 8.0592816e-05 0)
(0.010361771 7.7167303e-05 0)
(0.010044465 7.443087e-05 0)
(0.0097364979 7.1858378e-05 0)
(0.0094376792 6.9403113e-05 0)
(0.0091476634 6.7055016e-05 0)
(0.0088661242 6.4789484e-05 0)
(0.0085927811 6.260602e-05 0)
(0.0083273258 6.0519276e-05 0)
(0.0080693551 5.8537001e-05 0)
(0.0078186209 5.6585326e-05 0)
(0.0075749761 5.4691692e-05 0)
(0.0073381276 5.2880504e-05 0)
(0.0071077902 5.116856e-05 0)
(0.006883627 4.9750393e-05 0)
(0.0066661255 5.1557589e-05 0)
(0.0064546917 4.6733183e-05 0)
(0.0062483825 4.4929177e-05 0)
(0.0060473621 4.3451902e-05 0)
(0.0058515525 4.2052975e-05 0)
(0.0056608558 4.0714856e-05 0)
(0.0054750981 3.9433344e-05 0)
(0.0052940952 3.8203726e-05 0)
(0.0051176586 3.7003376e-05 0)
(0.0049456655 3.5674507e-05 0)
(0.0047776176 3.2236463e-05 0)
(0.0046135855 3.3260385e-05 0)
(0.0044533343 3.0384719e-05 0)
(0.0042967489 3.1503049e-05 0)
(0.0041440397 3.0824212e-05 0)
(0.0039948207 3.0070448e-05 0)
(0.0038493785 2.9212025e-05 0)
(0.0037071498 2.8297053e-05 0)
(0.0035675958 2.8860137e-05 0)
(0.0034310586 2.6514065e-05 0)
(0.0032974338 2.5748495e-05 0)
(0.0031664887 2.5085308e-05 0)
(0.0030381194 2.4427966e-05 0)
(0.0029122647 2.3788214e-05 0)
(0.0027888323 2.3172446e-05 0)
(0.0026677198 2.2580696e-05 0)
(0.0025488164 2.2006914e-05 0)
(0.002432019 2.1392255e-05 0)
(0.0023170972 1.990146e-05 0)
(0.0022040593 2.0375e-05 0)
(0.0020929381 1.9992191e-05 0)
(0.0019835353 1.9563664e-05 0)
(0.0018757548 1.9155284e-05 0)
(0.0017695122 1.8805135e-05 0)
(0.0016648511 1.9086974e-05 0)
(0.0015615782 1.8072466e-05 0)
(0.0014594756 1.7673218e-05 0)
(0.0013585513 1.7316037e-05 0)
(0.0012586526 1.7007451e-05 0)
(0.0011598061 1.6769492e-05 0)
(0.0010620132 1.6580938e-05 0)
(0.00096509012 1.6426435e-05 0)
(0.00086896555 1.6592978e-05 0)
(0.00077354779 1.6066778e-05 0)
(0.00067877621 1.5621914e-05 0)
(0.00058457103 1.5740808e-05 0)
(0.00049085131 1.5806744e-05 0)
(0.00039753311 1.5547665e-05 0)
(0.00030452121 1.5454961e-05 0)
(0.00021185426 1.5095744e-05 0)
(0.00012370547 1.3574452e-05 0)
(4.2290961e-05 8.3596651e-06 0)
(-1.0809041e-06 -1.1754035e-06 0)
(0.0017649532 -0.0057170817 0)
(0.0061617814 -0.0063937585 0)
(0.010743416 -0.0064675864 0)
(0.015312443 -0.0064953142 0)
(0.019892715 -0.0065184983 0)
(0.024487588 -0.0065439668 0)
(0.029100974 -0.0065742185 0)
(0.033736309 -0.0066096983 0)
(0.038397158 -0.0066503896 0)
(0.043087185 -0.00669638 0)
(0.047810078 -0.0067478216 0)
(0.05256953 -0.006804878 0)
(0.057369204 -0.0068677756 0)
(0.062212955 -0.0069367924 0)
(0.067102894 -0.0070101641 0)
(0.072042793 -0.0070878802 0)
(0.077036817 -0.0071703585 0)
(0.082089221 -0.0072579755 0)
(0.087204345 -0.0073510825 0)
(0.092386589 -0.0074499965 0)
(0.097640419 -0.007555 0)
(0.10297037 -0.0076663454 0)
(0.10838107 -0.0077842622 0)
(0.11387721 -0.0079089624 0)
(0.1194636 -0.0080406461 0)
(0.12514514 -0.0081795053 0)
(0.13092683 -0.0083257276 0)
(0.13681377 -0.0084794973 0)
(0.1428112 -0.0086409994 0)
(0.14892443 -0.0088104131 0)
(0.15515899 -0.0089879365 0)
(0.16152025 -0.0091737069 0)
(0.16801452 -0.0093680505 0)
(0.17464591 -0.0095707284 0)
(0.18142507 -0.0097830773 0)
(0.18834595 -0.010002229 0)
(0.19544441 -0.010235762 0)
(0.20265824 -0.010466893 0)
(0.21014265 -0.010730989 0)
(0.21760007 -0.010962366 0)
(0.22561636 -0.011266189 0)
(0.23316888 -0.01151593 0)
(0.24195658 -0.011773538 0)
(0.2494363 -0.012267022 0)
(0.25911127 -0.012087235 0)
(0.26671337 -0.01328251 0)
(0.27677364 -0.012459488 0)
(0.28535497 -0.013859132 0)
(0.29495959 -0.013735564 0)
(0.30507004 -0.013756311 0)
(0.31448986 -0.014900189 0)
(0.32505683 -0.014894593 0)
(0.33579584 -0.01494354 0)
(0.3461051 -0.015870316 0)
(0.35736886 -0.01626532 0)
(0.3690329 -0.016398256 0)
(0.38042039 -0.016837186 0)
(0.39226086 -0.01741832 0)
(0.404729 -0.01800868 0)
(0.41740919 -0.018362053 0)
(0.43024292 -0.018575983 0)
(0.44329167 -0.019033527 0)
(0.45681731 -0.019843091 0)
(0.47088409 -0.02032336 0)
(0.48512345 -0.020650343 0)
(0.49956807 -0.020938778 0)
(0.51427377 -0.02121026 0)
(0.5291966 -0.021846212 0)
(0.54468436 -0.022605089 0)
(0.56081341 -0.02319905 0)
(0.57702587 -0.023415156 0)
(0.59308589 -0.023290524 0)
(0.60920474 -0.023376083 0)
(0.6258117 -0.023946066 0)
(0.64311121 -0.024675772 0)
(0.66076748 -0.025240147 0)
(0.67831578 -0.025463803 0)
(0.69571467 -0.025436127 0)
(0.71327859 -0.025387033 0)
(0.73122153 -0.025237621 0)
(0.74939234 -0.024857012 0)
(0.76733357 -0.024205911 0)
(0.78443011 -0.023441603 0)
(0.80056531 -0.023035983 0)
(0.81652222 -0.023386763 0)
(0.83342939 -0.024389839 0)
(0.85197342 -0.025278734 0)
(0.87160912 -0.024877132 0)
(0.89022034 -0.022396109 0)
(0.90514812 -0.017882154 0)
(0.91529841 -0.01231216 0)
(0.92191602 -0.0076591296 0)
(0.92739085 -0.0058063 0)
(0.93393615 -0.0071448896 0)
(0.9426824 -0.010316615 0)
(0.95334323 -0.012530115 0)
(0.9646818 -0.011216698 0)
(0.97473229 -0.0068129982 0)
(0.9812128 -0.0022192709 0)
(0.98296779 0.0007926434 0)
(0.98101503 0.0022243521 0)
(0.9773738 0.0025613693 0)
(0.97349897 0.0013973459 0)
(0.97101176 -0.0019039002 0)
(0.96988131 -0.0058079097 0)
(0.96844472 -0.0085196857 0)
(0.96366293 -0.010118366 0)
(0.94085683 -0.0091959674 0)
(0.99035322 0.10850702 0)
(0.75627847 0.27182665 0)
(0.58832556 0.27833726 0)
(0.51239783 0.19685493 0)
(0.45381328 0.12112261 0)
(0.4053875 0.076992916 0)
(0.36606556 0.052928468 0)
(0.33380239 0.039186028 0)
(0.30690205 0.030764391 0)
(0.28409649 0.025240026 0)
(0.26450547 0.021251967 0)
(0.24742401 0.018526793 0)
(0.23232052 0.016210501 0)
(0.21884827 0.014378823 0)
(0.20672244 0.012892971 0)
(0.19572255 0.011656788 0)
(0.18568426 0.010610305 0)
(0.1764743 0.0097131418 0)
(0.16798874 0.0089340874 0)
(0.16013227 0.0082533352 0)
(0.15284194 0.0076475718 0)
(0.1460532 0.0071113922 0)
(0.13969964 0.0066302188 0)
(0.1337488 0.0062008658 0)
(0.12816794 0.0057856268 0)
(0.1229157 0.0055085464 0)
(0.11798304 0.0051480613 0)
(0.11332507 0.0048353778 0)
(0.10890823 0.0045783581 0)
(0.10473413 0.0042586027 0)
(0.10078079 0.004058538 0)
(0.097024817 0.0038532826 0)
(0.093461588 0.0036717318 0)
(0.090071015 0.0034360289 0)
(0.086845253 0.0032964051 0)
(0.083762974 0.0031490288 0)
(0.080825862 0.0030010065 0)
(0.07801866 0.0028690175 0)
(0.075330398 0.0027385033 0)
(0.072761693 0.0026142794 0)
(0.070306414 0.0024970206 0)
(0.067956137 0.0023869392 0)
(0.065706626 0.0022820957 0)
(0.063547317 0.0021883467 0)
(0.061472515 0.0020966091 0)
(0.059481683 0.0020103443 0)
(0.057570599 0.0019287339 0)
(0.055734312 0.0018514673 0)
(0.053968529 0.0017783461 0)
(0.052269643 0.0017090318 0)
(0.050634705 0.0016432467 0)
(0.049060307 0.001580874 0)
(0.047545447 0.0015221401 0)
(0.046082603 0.0014669313 0)
(0.044668071 0.0014132705 0)
(0.043308033 0.0013601071 0)
(0.04199701 0.0013091157 0)
(0.04073113 0.0012814827 0)
(0.039510054 0.0012240126 0)
(0.038328851 0.001160265 0)
(0.037184665 0.0011314849 0)
(0.036081361 0.0010795522 0)
(0.035013604 0.0010546853 0)
(0.03398337 0.0010198606 0)
(0.032987632 0.00098623449 0)
(0.032022692 0.00095283467 0)
(0.031088617 0.00092117681 0)
(0.030183768 0.00089111271 0)
(0.029306979 0.00086219752 0)
(0.028457321 0.00083430949 0)
(0.027633888 0.00080746693 0)
(0.026835726 0.00078167754 0)
(0.026061864 0.00075691725 0)
(0.025311352 0.00073314773 0)
(0.024583271 0.00071033154 0)
(0.023876734 0.00068844133 0)
(0.02319086 0.00066747497 0)
(0.022524844 0.00064740461 0)
(0.021877748 0.00062763994 0)
(0.021250928 0.00059961303 0)
(0.020642472 0.00058838499 0)
(0.02004982 0.00057269978 0)
(0.019473379 0.00055636933 0)
(0.018912854 0.00054021329 0)
(0.018367781 0.00052455226 0)
(0.017837534 0.00050949016 0)
(0.01732159 0.0004949342 0)
(0.016819539 0.00048088617 0)
(0.016330904 0.00046743791 0)
(0.015854914 0.00045464257 0)
(0.015391158 0.00044210453 0)
(0.014939491 0.00042997202 0)
(0.014499395 0.00041838015 0)
(0.014070361 0.00040726574 0)
(0.01365194 0.00039611176 0)
(0.013244795 0.00038081327 0)
(0.012847807 0.00037476604 0)
(0.012459604 0.00036601401 0)
(0.012080479 0.00035687611 0)
(0.011710296 0.00034781884 0)
(0.011348821 0.00033901842 0)
(0.010995761 0.00033052763 0)
(0.010650806 0.00032235099 0)
(0.01031363 0.00031448058 0)
(0.0099839105 0.00030714917 0)
(0.0096610976 0.00030291205 0)
(0.0093452086 0.00029357754 0)
(0.0090357827 0.00028938462 0)
(0.0087327945 0.00028036087 0)
(0.0084364163 0.0002737158 0)
(0.0081460336 0.00026763199 0)
(0.0078608616 0.00025985377 0)
(0.0075810092 0.00025606989 0)
(0.0073078444 0.00025054009 0)
(0.00703997 0.00024570329 0)
(0.0067759925 0.0002411104 0)
(0.0065165052 0.00023653056 0)
(0.0062615191 0.00023202545 0)
(0.006010902 0.00022767548 0)
(0.0057644607 0.00022350925 0)
(0.0055220017 0.00021952814 0)
(0.0052833314 0.00021574591 0)
(0.0050482462 0.00021228103 0)
(0.0048164535 0.00021011792 0)
(0.0045879254 0.00020569623 0)
(0.0043626217 0.00020244224 0)
(0.0041402761 0.00019951234 0)
(0.0039207179 0.00019674666 0)
(0.0037038088 0.00019399407 0)
(0.0034895747 0.00019059678 0)
(0.0032776906 0.00018914448 0)
(0.0030678157 0.00018713321 0)
(0.0028599659 0.00018514096 0)
(0.0026542087 0.00018378066 0)
(0.0024502726 0.00018147838 0)
(0.0022478308 0.00017982819 0)
(0.0020468958 0.00017831538 0)
(0.0018473735 0.00017660991 0)
(0.0016491036 0.00017584068 0)
(0.0014518375 0.00017486289 0)
(0.0012555573 0.00017388766 0)
(0.0010602741 0.00017283346 0)
(0.00086573425 0.0001723668 0)
(0.00067187706 0.00017154886 0)
(0.00047901734 0.00016826684 0)
(0.00029308684 0.00015636399 0)
(0.00011981536 0.00011891689 0)
(8.753401e-06 4.2393328e-05 0)
(0.0017646409 -0.0096771318 0)
(0.0061507482 -0.010903698 0)
(0.010712069 -0.011027979 0)
(0.015266042 -0.011063059 0)
(0.019831673 -0.011097281 0)
(0.024411895 -0.011138932 0)
(0.029010325 -0.011189051 0)
(0.033630383 -0.011247888 0)
(0.038275593 -0.011315562 0)
(0.04294955 -0.011392197 0)
(0.047655875 -0.011477937 0)
(0.052398207 -0.01157294 0)
(0.057180199 -0.011677365 0)
(0.062005533 -0.011791316 0)
(0.066878128 -0.011915103 0)
(0.071802049 -0.012049085 0)
(0.076781267 -0.012193511 0)
(0.081819777 -0.012348576 0)
(0.086921666 -0.012514465 0)
(0.092091119 -0.012691368 0)
(0.097332417 -0.01287948 0)
(0.10264994 -0.013079005 0)
(0.10804815 -0.013290158 0)
(0.11353163 -0.013513169 0)
(0.11910507 -0.013748284 0)
(0.12477325 -0.013995766 0)
(0.13054106 -0.014255892 0)
(0.13641353 -0.014528952 0)
(0.14239578 -0.014815249 0)
(0.14849306 -0.015115096 0)
(0.15471081 -0.015428816 0)
(0.16105432 -0.015756731 0)
(0.1675299 -0.016099186 0)
(0.17414134 -0.016456485 0)
(0.18089995 -0.016829009 0)
(0.18779769 -0.017217012 0)
(0.19487546 -0.017620794 0)
(0.20205807 -0.018041154 0)
(0.20953205 -0.018475947 0)
(0.21692789 -0.018933807 0)
(0.22498443 -0.019390462 0)
(0.23237804 -0.019911289 0)
(0.24134 -0.020342198 0)
(0.24850103 -0.021020361 0)
(0.25844355 -0.021280789 0)
(0.26580161 -0.022300585 0)
(0.275804 -0.022257239 0)
(0.28463476 -0.023554066 0)
(0.29383655 -0.023511316 0)
(0.30396312 -0.02466074 0)
(0.31368312 -0.024984106 0)
(0.32391641 -0.025778591 0)
(0.33421206 -0.02659846 0)
(0.34532743 -0.026990267 0)
(0.35627278 -0.027874444 0)
(0.36715268 -0.028925327 0)
(0.37907211 -0.029244817 0)
(0.39131078 -0.029874114 0)
(0.40317255 -0.031233377 0)
(0.41547864 -0.032002628 0)
(0.42855927 -0.032232501 0)
(0.44182059 -0.033077005 0)
(0.45526977 -0.034502693 0)
(0.46920472 -0.035154851 0)
(0.48300891 -0.035700965 0)
(0.49719196 -0.036563424 0)
(0.5122075 -0.037255176 0)
(0.52766619 -0.037983703 0)
(0.54325026 -0.039222316 0)
(0.55867684 -0.040304042 0)
(0.57410569 -0.040557245 0)
(0.58999068 -0.040471941 0)
(0.60655954 -0.041114474 0)
(0.62398383 -0.042412675 0)
(0.6419105 -0.043456852 0)
(0.65944034 -0.043813716 0)
(0.67619721 -0.043598909 0)
(0.69254032 -0.043678608 0)
(0.70935939 -0.044380928 0)
(0.72717217 -0.045082286 0)
(0.7458701 -0.045120566 0)
(0.76522644 -0.043895522 0)
(0.78447794 -0.041698204 0)
(0.80237632 -0.04001855 0)
(0.8184136 -0.040284056 0)
(0.83349003 -0.042705398 0)
(0.84929249 -0.045549667 0)
(0.86659214 -0.045749516 0)
(0.88416854 -0.041036035 0)
(0.89967754 -0.031968654 0)
(0.91184797 -0.022119557 0)
(0.92173871 -0.015716541 0)
(0.93156156 -0.014592747 0)
(0.94254311 -0.01750653 0)
(0.95391758 -0.021455939 0)
(0.96416028 -0.023224471 0)
(0.97232682 -0.020835092 0)
(0.97785308 -0.014616527 0)
(0.98003992 -0.0065684012 0)
(0.97863046 0.00084813143 0)
(0.97501803 0.0052657487 0)
(0.9714898 0.0054813812 0)
(0.96989985 0.0022296903 0)
(0.96950313 -0.0030865976 0)
(0.96750439 -0.0052982013 0)
(0.95930141 -0.0025295851 0)
(0.93539879 -3.4040627e-05 0)
(0.86458669 -0.055745645 0)
(0.71984314 0.24869656 0)
(0.56885106 0.39107764 0)
(0.54210185 0.3491683 0)
(0.50977768 0.23475005 0)
(0.47551088 0.15965917 0)
(0.43737746 0.11519167 0)
(0.40158811 0.087473161 0)
(0.36999577 0.069265641 0)
(0.34248006 0.056707854 0)
(0.31850689 0.047699619 0)
(0.2974914 0.040958253 0)
(0.27889634 0.035774409 0)
(0.26234691 0.03165621 0)
(0.24749352 0.028303623 0)
(0.23405592 0.025525651 0)
(0.22182615 0.023175743 0)
(0.21063986 0.021166439 0)
(0.20035777 0.019434481 0)
(0.19086412 0.017918787 0)
(0.18207131 0.016601152 0)
(0.17389522 0.015386802 0)
(0.1662704 0.014430777 0)
(0.15914787 0.013452972 0)
(0.15247469 0.012576156 0)
(0.146208 0.01182288 0)
(0.14030911 0.011040671 0)
(0.13475703 0.010428982 0)
(0.12951208 0.0098503817 0)
(0.1245489 0.009321925 0)
(0.11985008 0.0088235224 0)
(0.11538186 0.0083679293 0)
(0.11114038 0.0079393292 0)
(0.10712562 0.0075446523 0)
(0.10330448 0.0071724547 0)
(0.099651169 0.006828223 0)
(0.096168704 0.0065077846 0)
(0.092848069 0.0061931228 0)
(0.089674938 0.0059598155 0)
(0.086644324 0.0056707373 0)
(0.083745957 0.0054135529 0)
(0.080969343 0.0051757025 0)
(0.078308951 0.0049537241 0)
(0.075755661 0.0047389426 0)
(0.073306995 0.0045797073 0)
(0.070962346 0.0043741015 0)
(0.068708945 0.0041922827 0)
(0.066541265 0.0040241177 0)
(0.064456206 0.0038660078 0)
(0.062450431 0.0037165074 0)
(0.060520143 0.0035746324 0)
(0.058661927 0.0034395836 0)
(0.056871732 0.0033106413 0)
(0.055148955 0.0031864357 0)
(0.053484933 0.0030719999 0)
(0.051876193 0.0029622912 0)
(0.05032715 0.0028563967 0)
(0.048833673 0.0027552147 0)
(0.047391159 0.0026399439 0)
(0.045998215 0.0025590839 0)
(0.04465048 0.0024923357 0)
(0.043346487 0.0023963634 0)
(0.042086961 0.0023303507 0)
(0.040869782 0.0022418395 0)
(0.039690579 0.0021490934 0)
(0.038546046 0.0020885703 0)
(0.037441075 0.0020213483 0)
(0.036372954 0.0019567403 0)
(0.035337368 0.0018953117 0)
(0.034332957 0.0018360538 0)
(0.033358863 0.0017786765 0)
(0.032414194 0.0017232812 0)
(0.031497937 0.0016699612 0)
(0.030609034 0.0016187138 0)
(0.029746438 0.0015694786 0)
(0.028909145 0.0015221794 0)
(0.028096207 0.0014767475 0)
(0.027306759 0.001433142 0)
(0.026539975 0.0013912924 0)
(0.0257952 0.0013508579 0)
(0.025070349 0.0013102358 0)
(0.024365096 0.0012729252 0)
(0.023680405 0.0012371417 0)
(0.023014596 0.0012024552 0)
(0.022366685 0.0011688022 0)
(0.021736005 0.0011363405 0)
(0.021121821 0.0011051387 0)
(0.020523616 0.001074887 0)
(0.019941111 0.0010456258 0)
(0.019373872 0.0010176393 0)
(0.018820778 0.00099110286 0)
(0.018281447 0.00096494196 0)
(0.017755963 0.00093955524 0)
(0.01724363 0.00091526931 0)
(0.016743916 0.00089201339 0)
(0.016256385 0.0008694308 0)
(0.015779911 0.00084685298 0)
(0.015314467 0.00082625114 0)
(0.014860498 0.00080638375 0)
(0.014417046 0.00078699295 0)
(0.013983623 0.00076810006 0)
(0.013559889 0.00074980368 0)
(0.013145553 0.00073215463 0)
(0.012740245 0.00071519204 0)
(0.012343564 0.00069888094 0)
(0.011955153 0.00068319212 0)
(0.011575225 0.00066810859 0)
(0.011203214 0.00065363868 0)
(0.010838723 0.00064002389 0)
(0.010481574 0.00062627161 0)
(0.01013103 0.00061318803 0)
(0.0097871895 0.00060090145 0)
(0.0094496035 0.00059106428 0)
(0.0091182536 0.00057735731 0)
(0.0087933042 0.00056351133 0)
(0.008474166 0.00055493532 0)
(0.0081604312 0.00054531585 0)
(0.0078519153 0.00053568293 0)
(0.0075484459 0.00052624736 0)
(0.0072498364 0.00051715419 0)
(0.006955881 0.00050845885 0)
(0.0066663635 0.00050016595 0)
(0.0063810759 0.0004922727 0)
(0.0060998315 0.00048478341 0)
(0.0058226912 0.000477663 0)
(0.0055492862 0.00047085046 0)
(0.0052791667 0.00046435865 0)
(0.0050123691 0.00045823043 0)
(0.0047487718 0.00045242649 0)
(0.0044881972 0.00044686954 0)
(0.0042303321 0.0004415353 0)
(0.0039751045 0.00043681591 0)
(0.0037224796 0.00043234225 0)
(0.0034721874 0.00042799809 0)
(0.0032241875 0.00042337346 0)
(0.0029782095 0.00042029293 0)
(0.0027339597 0.00041702231 0)
(0.0024914078 0.00041396884 0)
(0.0022504523 0.00041151092 0)
(0.0020109213 0.00040868273 0)
(0.0017725652 0.00040647099 0)
(0.001535325 0.00040443712 0)
(0.0012991148 0.00040265943 0)
(0.0010637817 0.00040113853 0)
(0.00082937767 0.00039898177 0)
(0.00059620257 0.00039246202 0)
(0.00037025277 0.00036833948 0)
(0.00015814158 0.00029271604 0)
(1.4171907e-05 0.00012490927 0)
(0.0017625401 -0.013617822 0)
(0.0061389414 -0.015393656 0)
(0.010688516 -0.01557154 0)
(0.015232281 -0.015620948 0)
(0.019788201 -0.015668556 0)
(0.024358685 -0.0157266 0)
(0.028947142 -0.015796554 0)
(0.033557061 -0.015878742 0)
(0.038192008 -0.015973327 0)
(0.042855573 -0.016080467 0)
(0.047551368 -0.016200335 0)
(0.052283034 -0.016333117 0)
(0.057054248 -0.016478997 0)
(0.061868746 -0.016638143 0)
(0.066730382 -0.016810688 0)
(0.071643098 -0.016996892 0)
(0.076610867 -0.017197043 0)
(0.081637712 -0.017411415 0)
(0.086727728 -0.017640279 0)
(0.091885096 -0.017883913 0)
(0.097114085 -0.018142612 0)
(0.10241906 -0.018416687 0)
(0.10780447 -0.01870647 0)
(0.11327488 -0.019012314 0)
(0.11883495 -0.019334593 0)
(0.12448946 -0.019673698 0)
(0.1302433 -0.020030037 0)
(0.13610147 -0.020404032 0)
(0.14206912 -0.02079612 0)
(0.14815147 -0.021206745 0)
(0.15435399 -0.021636359 0)
(0.16068196 -0.022085432 0)
(0.1671417 -0.022554387 0)
(0.17373705 -0.023043808 0)
(0.18047924 -0.023553801 0)
(0.18736054 -0.024085799 0)
(0.19442101 -0.024637668 0)
(0.20158803 -0.025216271 0)
(0.20904136 -0.02580683 0)
(0.21642794 -0.02644358 0)
(0.22445124 -0.027055847 0)
(0.23185247 -0.027784954 0)
(0.24076675 -0.028367583 0)
(0.24791867 -0.029274773 0)
(0.25791058 -0.029703312 0)
(0.26501528 -0.030975139 0)
(0.27549724 -0.031018753 0)
(0.28356337 -0.03283735 0)
(0.29357845 -0.0325489 0)
(0.30308793 -0.034372124 0)
(0.31288867 -0.034865583 0)
(0.32350026 -0.03552336 0)
(0.3332945 -0.036955251 0)
(0.34451768 -0.037858075 0)
(0.35575163 -0.03843334 0)
(0.36634266 -0.039683769 0)
(0.37812999 -0.041006421 0)
(0.39069878 -0.041807315 0)
(0.40252604 -0.042734856 0)
(0.41451861 -0.04391234 0)
(0.42771305 -0.045107624 0)
(0.4413271 -0.046215561 0)
(0.45454795 -0.047690761 0)
(0.46822475 -0.048273023 0)
(0.4823121 -0.049018602 0)
(0.49668201 -0.050624807 0)
(0.51154488 -0.052162869 0)
(0.5271081 -0.053270325 0)
(0.5427824 -0.054136149 0)
(0.55795634 -0.054689925 0)
(0.57341767 -0.055282639 0)
(0.58974316 -0.056124149 0)
(0.6066684 -0.057916281 0)
(0.62416083 -0.059950969 0)
(0.64182293 -0.060649765 0)
(0.65893655 -0.060017858 0)
(0.67563695 -0.059059786 0)
(0.69257972 -0.059227326 0)
(0.71037479 -0.060686134 0)
(0.72887756 -0.062337234 0)
(0.74742529 -0.063498515 0)
(0.76597009 -0.063326293 0)
(0.78470588 -0.061056436 0)
(0.80322289 -0.057492224 0)
(0.8207995 -0.055066893 0)
(0.83702351 -0.055940245 0)
(0.85263658 -0.059146095 0)
(0.868847 -0.060412335 0)
(0.88538098 -0.055911274 0)
(0.9005693 -0.045836334 0)
(0.91377945 -0.034597455 0)
(0.92622987 -0.027492812 0)
(0.93990377 -0.026555261 0)
(0.95492794 -0.029440453 0)
(0.96872397 -0.032043076 0)
(0.97822035 -0.031082936 0)
(0.98229171 -0.025184638 0)
(0.98207883 -0.015062625 0)
(0.9785757 -0.0033834518 0)
(0.97353555 0.0055294634 0)
(0.96930937 0.0085983581 0)
(0.96740447 0.0070599681 0)
(0.9651324 0.0020554079 0)
(0.9600793 -0.00084591508 0)
(0.94830159 0.0023026084 0)
(0.91800454 0.010396813 0)
(0.93021921 0.054289499 0)
(0.70389918 0.23925387 0)
(0.50472577 0.41619111 0)
(0.4818264 0.42833223 0)
(0.48654608 0.35575694 0)
(0.48185512 0.2567438 0)
(0.45918061 0.19283344 0)
(0.42999454 0.14954255 0)
(0.40046315 0.11939107 0)
(0.37272251 0.097801299 0)
(0.34745326 0.081962688 0)
(0.32471714 0.06996591 0)
(0.30432579 0.060799527 -2.6288405e-34)
(0.28601822 0.053311389 -1.3545637e-29)
(0.2695131 0.047443454 0)
(0.25457158 0.042595168 0)
(0.24097814 0.03852612 0)
(0.22855116 0.035068303 0)
(0.21715906 0.03209474 0)
(0.20666575 0.029508225 0)
(0.19695647 0.02724542 0)
(0.18795002 0.025234822 0)
(0.17956669 0.023495407 -1.2162824e-34)
(0.17173508 0.021810321 -6.3635607e-30)
(0.16442489 0.020456373 -1.0660373e-34)
(0.15757591 0.019093431 -5.5968052e-30)
(0.15113299 0.017972247 0)
(0.14506635 0.016924605 0)
(0.13934154 0.015964741 0)
(0.13393265 0.015075196 0)
(0.12882 0.01425929 0)
(0.123979 0.013494165 0)
(0.11938505 0.012812937 -6.6364985e-35)
(0.11502355 0.012102392 -3.5182598e-30)
(0.11088134 0.011527106 0)
(0.10693883 0.010975404 0)
(0.10317247 0.010456278 0)
(0.099583529 0.0099729182 0)
(0.096153041 0.0095170858 0)
(0.092879351 0.0090916367 0)
(0.089764954 0.0086894869 0)
(0.086781442 0.0083104629 0)
(0.083918675 0.0079535815 0)
(0.081173939 0.007616951 0)
(0.078538321 0.0073063767 -3.6442654e-35)
(0.07601139 0.0069722729 -1.9483993e-30)
(0.073592203 0.0067090055 0)
(0.071266817 0.0064476442 0)
(0.069029802 0.0061963113 0)
(0.066877867 0.0059567483 0)
(0.064807501 0.0057287087 0)
(0.062814845 0.0055116775 0)
(0.060895945 0.0053050362 0)
(0.059047356 0.0051080649 0)
(0.057264721 0.0049168742 2.3494042e-35)
(0.05554686 0.0047653482 1.2623779e-30)
(0.053891615 0.0045809471 0)
(0.052293231 0.0044142116 0)
(0.050749419 0.0042558003 1.9924964e-35)
(0.049257708 0.0041274752 1.0716664e-30)
(0.047814583 0.0039720428 0)
(0.046422005 0.0038339024 0)
(0.045076475 0.0037030176 0)
(0.043776408 0.0035791534 0)
(0.04252199 0.0034601823 1.5691134e-35)
(0.041303093 0.0033638219 8.4495007e-31)
(0.040118488 0.0032454608 0)
(0.038974412 0.0031353062 0)
(0.037869203 0.00303478 0)
(0.036797308 0.0029398654 0)
(0.035757685 0.0028488256 0)
(0.034749534 0.0027608706 0)
(0.033771855 0.002675945 0)
(0.032823493 0.0025941623 0)
(0.031903304 0.0025155316 0)
(0.031010196 0.0024399594 0)
(0.030143134 0.0023673123 0)
(0.029301138 0.002297452 0)
(0.028483298 0.0022302392 0)
(0.027688706 0.0021654799 0)
(0.026916689 0.0021027463 0)
(0.026165512 0.0020414477 0)
(0.025434598 0.0019839233 0)
(0.024724373 0.0019289508 0)
(0.024033679 0.0018757404 0)
(0.023361558 0.0018242264 0)
(0.022707286 0.0017746087 0)
(0.022069805 0.0017269924 0)
(0.02144859 0.0016805624 0)
(0.020843669 0.0016354517 0)
(0.02025454 0.0015921776 0)
(0.019680186 0.0015515614 0)
(0.019120114 0.0015110774 0)
(0.018574116 0.0014721214 0)
(0.018041526 0.0014347569 0)
(0.017521845 0.0013988107 0)
(0.017014656 0.0013639161 0)
(0.016519015 0.0013298622 0)
(0.016034745 0.0012979495 0)
(0.015562074 0.0012673366 0)
(0.015100296 0.001237581 0)
(0.014648905 0.0012086672 0)
(0.01420752 0.0011806596 0)
(0.013775875 0.0011536162 0)
(0.013353605 0.0011276794 0)
(0.012940248 0.0011028011 0)
(0.012535451 0.0010787461 -3.2352115e-36)
(0.012138739 0.0010529137 -1.7411531e-31)
(0.011749905 0.001033149 0)
(0.011369496 0.0010119567 0)
(0.010996825 0.00099108688 0)
(0.010630832 0.00097101879 0)
(0.010271579 0.00095178603 0)
(0.009919413 0.00093324555 0)
(0.009573816 0.0009152107 0)
(0.0092336321 0.00089742912 0)
(0.0088992075 0.00088144551 0)
(0.0085708671 0.00086613105 0)
(0.0082481079 0.00085120781 0)
(0.0079305858 0.00083673111 0)
(0.0076180456 0.00082281213 0)
(0.0073102827 0.00080949808 0)
(0.0070071031 0.00079679528 0)
(0.0067083043 0.00078469681 0)
(0.0064136707 0.00077311724 -1.4796112e-36)
(0.0061229213 0.00076099984 -7.864364e-32)