/*--------------------------------*- C++ -*----------------------------------*\
| =========                 |                                                 |
| \\      /  F ield         | OpenFOAM: The Open Source CFD Toolbox           |
|  \\    /   O peration     | Version:  2306                                  |
|   \\  /    A nd           | Website:  www.openfoam.com                      |
|    \\/     M anipulation  |                                                 |
\*---------------------------------------------------------------------------*/
FoamFile
{
    version     2.0;
    format      ascii;
    arch        "LSB;label=32;scalar=64";
    class       surfaceScalarField;
    location    "0.02";
    object      phi;
}
// * * * * * * * * * * * * * * * * * * * * * * * * * * * * * * * * * * * * * //

dimensions      [0 3 -1 0 0 0 0];

oriented        oriented;

internalField   nonuniform List<scalar> 
12640
(
-4.0577991e-12
6.1603143e-11
-1.6038872e-11
1.8539941e-10
-3.6004351e-11
3.1085462e-10
-6.3755373e-11
4.3893697e-10
-9.8931841e-11
5.7094539e-10
-1.4114795e-10
7.0789514e-10
-1.8998021e-10
8.5085798e-10
-2.4498739e-10
1.000877e-09
-3.0560202e-10
1.1588629e-09
-3.7116585e-10
1.3257285e-09
-4.4097047e-10
1.5024579e-09
-5.1422111e-10
1.6898672e-09
-5.8996882e-10
1.8885989e-09
-6.6753754e-10
2.0993721e-09
-7.4590813e-10
2.3228465e-09
-8.242538e-10
2.5596732e-09
-9.0151224e-10
2.8101813e-09
-9.765909e-10
3.0747722e-09
-1.0483253e-09
3.3538468e-09
-1.1158446e-09
3.6475901e-09
-1.1779538e-09
3.9561795e-09
-1.2336016e-09
4.279568e-09
-1.2817072e-09
4.6178221e-09
-1.3212876e-09
4.9710017e-09
-1.3510425e-09
5.3385149e-09
-1.3699007e-09
5.7204044e-09
-1.3770128e-09
6.1160535e-09
-1.3714299e-09
6.5250491e-09
-1.3519621e-09
6.9472316e-09
-1.317663e-09
7.3817528e-09
-1.267779e-09
7.8277042e-09
-1.2012597e-09
8.2843576e-09
-1.1174244e-09
8.7510911e-09
-1.0154582e-09
9.2270787e-09
-8.9441124e-10
9.7109047e-09
-7.5321363e-10
1.0202156e-08
-5.9276611e-10
1.0699712e-08
-4.109885e-10
1.1201911e-08
-2.0825846e-10
1.1707836e-08
1.6239458e-11
1.2215998e-08
2.6228171e-10
1.2725743e-08
5.3066341e-10
1.3235263e-08
8.2044348e-10
1.3744248e-08
1.1334643e-09
1.4250412e-08
1.4690183e-09
1.4752466e-08
1.8268852e-09
1.5249209e-08
2.2070315e-09
1.5739244e-08
2.6094698e-09
1.6221191e-08
3.033597e-09
1.669357e-08
3.4791882e-09
1.7155422e-08
3.9456002e-09
1.7605334e-08
4.4330312e-09
1.804138e-08
4.9407212e-09
1.8462912e-08
5.4678437e-09
1.886853e-08
6.0140832e-09
1.9256718e-08
6.5787348e-09
1.9626694e-08
7.1610068e-09
1.9976957e-08
7.7598738e-09
2.0306239e-08
8.3743369e-09
2.0613922e-08
9.0033488e-09
2.089837e-08
9.6462494e-09
2.1159005e-08
1.0301927e-08
2.1394766e-08
1.0969259e-08
2.1604502e-08
1.1647629e-08
2.178777e-08
1.2335711e-08
2.1943297e-08
1.3032419e-08
2.2070794e-08
1.3736464e-08
2.2169517e-08
1.4446733e-08
2.2238524e-08
1.5162103e-08
2.2277109e-08
1.5881163e-08
2.2285456e-08
1.6602698e-08
2.2262676e-08
1.7326054e-08
2.2208298e-08
1.8049637e-08
2.2122317e-08
1.8771788e-08
2.2004493e-08
1.9491828e-08
2.1854202e-08
2.0208455e-08
2.1671429e-08
2.0920178e-08
2.1456568e-08
2.1625683e-08
2.1209166e-08
2.2323715e-08
2.0928866e-08
2.0616564e-08
-3.7180395e-12
6.5321394e-11
-1.4652968e-11
1.9633405e-10
-3.2730567e-11
3.2893514e-10
-5.7891421e-11
4.6409607e-10
-8.9714997e-11
6.0276856e-10
-1.2791082e-10
7.4611003e-10
-1.7211898e-10
8.9505149e-10
-2.2185073e-10
1.0506132e-09
-2.765838e-10
1.2135948e-09
-3.3574592e-10
1.3848806e-09
-3.9858904e-10
1.5653099e-09
-4.6439022e-10
1.7556498e-09
-5.3233807e-10
1.9565513e-09
-6.0171476e-10
2.168744e-09
-6.7173268e-10
2.3928657e-09
-7.4140198e-10
2.6293234e-09
-8.0975402e-10
2.8785263e-09
-8.7588097e-10
3.1409307e-09
-9.3871808e-10
3.4166492e-09
-9.972918e-10
3.7062071e-09
-1.0505012e-09
4.0094039e-09
-1.0973756e-09
4.326458e-09
-1.1370205e-09
4.6574502e-09
-1.1682352e-09
5.0022384e-09
-1.1904376e-09
5.3606981e-09
-1.2019835e-09
5.7319247e-09
-1.2020287e-09
6.1160877e-09
-1.1899772e-09
6.513004e-09
-1.1646835e-09
6.9219166e-09
-1.1251844e-09
7.3422919e-09
-1.0707408e-09
7.77318e-09
-1.0005446e-09
8.2141586e-09
-9.1381181e-10
8.6643421e-09
-8.0958818e-10
9.1229191e-09
-6.8759225e-10
9.5889109e-09
-5.4678653e-10
1.006143e-08
-3.8645133e-10
1.0539422e-08
-2.0648528e-10
1.1021906e-08
-6.4790678e-12
1.1507795e-08
2.1406884e-10
1.1995421e-08
4.5541802e-10
1.2484393e-08
7.1753213e-10
1.2973167e-08
1.0008768e-09
1.3460886e-08
1.3057303e-09
1.3945519e-08
1.6321633e-09
1.4426113e-08
1.979842e-09
1.490151e-08
2.3488527e-09
1.5370249e-08
2.7390197e-09
1.5831046e-08
3.1498573e-09
1.6282734e-08
3.5812662e-09
1.6724057e-08
4.0325974e-09
1.7153963e-08
4.503757e-09
1.757024e-08
4.9941095e-09
1.7972625e-08
5.5030677e-09
1.8359552e-08
6.0302903e-09
1.8729478e-08
6.5751529e-09
1.9081901e-08
7.1367135e-09
1.9415286e-08
7.7140212e-09
1.9728905e-08
8.3065732e-09
2.0021373e-08
8.9131439e-09
2.0291858e-08
9.5328401e-09
2.0539236e-08
1.0164783e-08
2.0762848e-08
1.0808089e-08
2.0961308e-08
1.1461719e-08
2.113405e-08
1.2124562e-08
2.1280473e-08
1.2795692e-08
2.1399671e-08
1.3473937e-08
2.1491198e-08
1.4158504e-08
2.1554022e-08
1.4847673e-08
2.1587904e-08
1.5540468e-08
2.1592634e-08
1.6235729e-08
2.1567388e-08
1.693244e-08
2.1511738e-08
1.7629366e-08
2.1425382e-08
1.8325355e-08
2.1308496e-08
1.901915e-08
2.1160444e-08
1.9709612e-08
2.0980878e-08
2.0395465e-08
2.077067e-08
2.1075256e-08
2.0529237e-08
2.1748301e-08
2.0255985e-08
1.9951722e-08
-3.3554843e-12
6.8677932e-11
-1.3355086e-11
2.0633265e-10
-2.9644191e-11
3.4521751e-10
-5.2276663e-11
4.8672824e-10
-8.10398e-11
6.3153342e-10
-1.1561553e-10
7.8067499e-10
-1.5559471e-10
9.3503274e-10
-2.0045217e-10
1.095467e-09
-2.4964601e-10
1.2628016e-09
-3.0271186e-10
1.4379536e-09
-3.5905784e-10
1.6216466e-09
-4.1797964e-10
1.8145923e-09
-4.7877647e-10
2.0173377e-09
-5.4066064e-10
2.2306307e-09
-6.0277552e-10
2.4549824e-09
-6.6430058e-10
2.6908558e-09
-7.2425968e-10
2.938484e-09
-7.8187131e-10
3.1985376e-09
-8.3634908e-10
3.4711376e-09
-8.8659813e-10
3.7564776e-09
-9.3173565e-10
4.0545204e-09
-9.7059369e-10
4.3653655e-09
-1.0024157e-09
4.6892698e-09
-1.0262151e-09
5.0260651e-09
-1.0407664e-09
5.3752572e-09
-1.045452e-09
5.7365826e-09
-1.0393779e-09
6.1100283e-09
-1.0214761e-09
6.4951297e-09
-9.9085661e-10
6.8913439e-09
-9.464756e-10
7.2979367e-09
-8.878132e-10
7.7145533e-09
-8.1407552e-10
8.1404121e-09
-7.246128e-10
8.5749105e-09
-6.1862527e-10
9.016917e-09
-4.9509868e-10
9.4654093e-09
-3.5404988e-10
9.9203705e-09
-1.948841e-10
1.0380231e-08
-1.6953961e-11
1.0844023e-08
1.8026667e-10
1.1310545e-08
3.9726404e-10
1.1778434e-08
6.3413015e-10
1.2247486e-08
8.9012741e-10
1.2717213e-08
1.1669699e-09
1.3184137e-08
1.4641317e-09
1.3648331e-08
1.7815563e-09
1.4108659e-08
2.1193944e-09
1.4563688e-08
2.4774075e-09
1.5012205e-08
2.8556235e-09
1.5452849e-08
3.2537846e-09
1.588463e-08
3.6714027e-09
1.6306312e-08
4.1085994e-09
1.6716752e-08
4.5643464e-09
1.7114456e-08
5.0384794e-09
1.7498436e-08
5.5305377e-09
1.7867481e-08
6.0395245e-09
1.822053e-08
6.5650756e-09
1.8556454e-08
7.1063522e-09
1.8874037e-08
7.6628762e-09
1.917239e-08
8.2338826e-09
1.9450373e-08
8.8185918e-09
1.9707069e-08
9.4161639e-09
1.9941568e-08
1.0025746e-08
2.0153266e-08
1.0646227e-08
2.0340828e-08
1.1276439e-08
2.0503762e-08
1.1915538e-08
2.0641398e-08
1.256227e-08
2.0752862e-08
1.3216076e-08
2.0837496e-08
1.3875505e-08
2.0894534e-08
1.4539704e-08
2.0923776e-08
1.5207314e-08
2.0925018e-08
1.5877601e-08
2.0897288e-08
1.6549044e-08
2.0840281e-08
1.7220475e-08
2.0753914e-08
1.7890754e-08
2.0638268e-08
1.8558993e-08
2.0492214e-08
1.9224098e-08
2.0315813e-08
1.988504e-08
2.0109732e-08
2.0540465e-08
1.9873849e-08
2.118934e-08
1.9607205e-08
1.9310413e-08
-3.0096533e-12
7.1686084e-11
-1.1917077e-11
2.1524089e-10
-2.665986e-11
3.5996526e-10
-4.7098264e-11
5.0716159e-10
-7.2991223e-11
6.5741822e-10
-1.040651e-10
8.1175687e-10
-1.3995801e-10
9.7092644e-10
-1.8020471e-10
1.1357075e-09
-2.2437834e-10
1.3069761e-09
-2.7191242e-10
1.485493e-09
-3.2223567e-10
1.6719853e-09
-3.747323e-10
1.8670814e-09
-4.2871403e-10
2.0713669e-09
-4.8355339e-10
2.2854421e-09
-5.3839538e-10
2.5098118e-09
-5.9235434e-10
2.7448258e-09
-6.4476169e-10
2.9908689e-09
-6.9462496e-10
3.2484268e-09
-7.4130767e-10
3.5178132e-09
-7.8371687e-10
3.7988601e-09
-8.209818e-10
4.0918014e-09
-8.5245528e-10
4.3968278e-09
-8.7698804e-10
4.7138251e-09
-8.9362308e-10
5.0426628e-09
-9.0139643e-10
5.3830016e-09
-8.9963956e-10
5.7348533e-09
-8.8755557e-10
6.0979197e-09
-8.6426277e-10
6.4718344e-09
-8.2870829e-10
6.8557129e-09
-7.8002857e-10
7.2493089e-09
-7.1780901e-10
7.6523016e-09
-6.4102204e-10
8.0635715e-09
-5.4896688e-10
8.4828832e-09
-4.4112081e-10
8.9090728e-09
-3.1739374e-10
9.3417295e-09
-1.7659026e-10
9.779512e-09
-1.8290015e-11
1.0221891e-08
1.5809807e-10
1.0667646e-08
3.5295204e-10
1.1115749e-08
5.6599271e-10
1.1565362e-08
7.9729156e-10
1.2016225e-08
1.048508e-09
1.2466004e-08
1.3189361e-09
1.291367e-08
1.6087081e-09
1.3358556e-08
1.9177858e-09
1.3799524e-08
2.2463232e-09
1.4235203e-08
2.5942541e-09
1.4664332e-08
2.961212e-09
1.508589e-08
3.3469733e-09
1.5498854e-08
3.7515014e-09
1.5901918e-08
4.1743633e-09
1.629389e-08
4.6153243e-09
1.6673581e-08
5.0737703e-09
1.703994e-08
5.5490579e-09
1.7392274e-08
6.040812e-09
1.7728774e-08
6.5483636e-09
1.8048809e-08
7.0710844e-09
1.8351257e-08
7.6084768e-09
1.8634984e-08
8.159454e-09
1.8899322e-08
8.7235186e-09
1.9143119e-08
9.2996773e-09
1.9365486e-08
9.8871509e-09
1.9565709e-08
1.0485146e-08
1.9742863e-08
1.1092475e-08
1.9896419e-08
1.1708378e-08
2.0025479e-08
1.2331765e-08
2.0129429e-08
1.2961749e-08
2.0207522e-08
1.359717e-08
2.0259001e-08
1.4237064e-08
2.0283885e-08
1.4880603e-08
2.028149e-08
1.5526319e-08
2.0251424e-08
1.6173385e-08
2.0193236e-08
1.6820541e-08
2.0106855e-08
1.7466877e-08
1.9991904e-08
1.8111138e-08
1.9847949e-08
1.8752271e-08
1.9674717e-08
1.9389485e-08
1.947252e-08
2.0021486e-08
1.9241769e-08
2.0646723e-08
1.8981949e-08
1.8692357e-08
-2.6484717e-12
7.4334981e-11
-1.0630687e-11
2.2322262e-10
-2.3930444e-11
3.7326396e-10
-4.2312934e-11
5.2554652e-10
-6.5575182e-11
6.8068711e-10
-9.3399121e-11
8.3957345e-10
-1.2544239e-10
1.0029684e-09
-1.6136078e-10
1.1716314e-09
-2.0076139e-10
1.346387e-09
-2.431759e-10
1.5279106e-09
-2.8796134e-10
1.7167575e-09
-3.3444541e-10
1.9135712e-09
-3.8210002e-10
2.1190161e-09
-4.3031525e-10
2.3336749e-09
-4.7828252e-10
2.5577795e-09
-5.2524583e-10
2.7918032e-09
-5.7058889e-10
3.0362256e-09
-6.1345852e-10
3.2912829e-09
-6.5282981e-10
3.5572222e-09
-6.8806709e-10
3.8340855e-09
-7.1826847e-10
4.1219809e-09
-7.4255355e-10
4.4211299e-09
-7.6011938e-10
4.7314001e-09
-7.7012818e-10
5.0526488e-09
-7.7181162e-10
5.3847264e-09
-7.6432075e-10
5.7273069e-09
-7.4675456e-10
6.0803925e-09
-7.1817716e-10
6.4432298e-09
-6.7791747e-10
6.8155024e-09
-6.2539233e-10
7.19679e-09
-5.5965175e-10
7.5865479e-09
-4.8047797e-10
7.9843912e-09
-3.8664088e-10
8.389101e-09
-2.7767713e-10
8.8000905e-09
-1.5314416e-10
9.2171501e-09
-1.2364873e-11
9.6387461e-09
1.4511438e-10
1.0064427e-08
3.1979609e-10
1.0492941e-08
5.1194993e-10
1.0923572e-08
7.2075913e-10
1.1356579e-08
9.482029e-10
1.1788833e-08
1.1940319e-09
1.2220144e-08
1.4580994e-09
1.2649592e-08
1.7405916e-09
1.3076149e-08
2.0416752e-09
1.3498479e-08
2.3613094e-09
1.3915616e-08
2.6992158e-09
1.4326363e-08
3.0554514e-09
1.4729713e-08
3.4295346e-09
1.512469e-08
3.8214832e-09
1.5509961e-08
4.2310927e-09
1.588432e-08
4.6576414e-09
1.6247027e-08
5.1007238e-09
1.6596913e-08
5.5601686e-09
1.6932771e-08
6.0354058e-09
1.7253588e-08
6.5257222e-09
1.7558481e-08
7.0306139e-09
1.7846359e-08
7.549294e-09
1.8116277e-08
8.0812024e-09
1.8367525e-08
8.6253433e-09
1.8598885e-08
9.1811136e-09
1.8809827e-08
9.7475664e-09
1.8999195e-08
1.0324013e-08
1.9166434e-08
1.0909519e-08
1.9310861e-08
1.1503228e-08
1.9431729e-08
1.2104231e-08
1.9528399e-08
1.2711595e-08
1.9600201e-08
1.3323972e-08
1.9646747e-08
1.3940729e-08
1.966716e-08
1.4560829e-08
1.9661501e-08
1.5183289e-08
1.9629135e-08
1.5806775e-08
1.9569695e-08
1.6430421e-08
1.948317e-08
1.7053587e-08
1.9368642e-08
1.7675026e-08
1.9226535e-08
1.8293343e-08
1.9056531e-08
1.8907246e-08
1.8858556e-08
1.9516342e-08
1.8632885e-08
2.0119255e-08
1.8378902e-08
1.8096772e-08
-2.3382204e-12
7.6672874e-11
-9.4864124e-12
2.303725e-10
-2.1417521e-11
3.85198e-10
-3.7810481e-11
5.4193817e-10
-5.8574032e-11
7.0145261e-10
-8.3388746e-11
8.643913e-10
-1.1192281e-10
1.0315114e-09
-1.4391447e-10
1.2036203e-09
-1.7891873e-10
1.3813957e-09
-2.1642928e-10
1.5654155e-09
-2.5592112e-10
1.7562511e-09
-2.9687351e-10
1.9545191e-09
-3.3878674e-10
2.1609089e-09
-3.8084921e-10
2.3757431e-09
-4.2244964e-10
2.5993655e-09
-4.6298252e-10
2.8323259e-09
-5.0157019e-10
3.0748189e-09
-5.3765454e-10
3.3273574e-09
-5.7036457e-10
3.5899197e-09
-5.988255e-10
3.8625864e-09
-6.2239578e-10
4.1455284e-09
-6.4031323e-10
4.43905e-09
-6.5165325e-10
4.7427588e-09
-6.5556867e-10
5.0565609e-09
-6.5130207e-10
5.3804145e-09
-6.3843186e-10
5.7144511e-09
-6.1571861e-10
6.0576232e-09
-5.8255045e-10
6.4101134e-09
-5.3823515e-10
6.7711876e-09
-4.8206079e-10
7.140624e-09
-4.134636e-10
7.5179394e-09
-3.3134897e-10
7.9023064e-09
-2.354998e-10
8.2932234e-09
-1.2576187e-10
8.6903643e-09
-6.7949722e-13
9.0920667e-09
1.3983819e-10
9.4982555e-09
2.9625383e-10
9.9079369e-09
4.691479e-10
1.0320107e-08
6.5748873e-10
1.0735145e-08
8.6350524e-10
1.1150562e-08
1.0867311e-09
1.1565578e-08
1.3272346e-09
1.1979647e-08
1.5852444e-09
1.2391584e-08
1.8608069e-09
1.2800541e-08
2.1540393e-09
1.3205247e-08
2.4649598e-09
1.3604568e-08
2.7934489e-09
1.3997899e-08
3.1391531e-09
1.4383905e-08
3.5021106e-09
1.4761668e-08
3.8820828e-09
1.5129929e-08
4.2786545e-09
1.5487689e-08
4.6915001e-09
1.5834131e-08
5.1201943e-09
1.616813e-08
5.5644842e-09
1.6488427e-08
6.0237416e-09
1.6794308e-08
6.4974542e-09
1.7084744e-08
6.9851414e-09
1.7358675e-08
7.485721e-09
1.7615651e-08
7.9990337e-09
1.7854198e-08
8.5240437e-09
1.8073899e-08
9.060279e-09
1.8273579e-08
9.6069098e-09
1.8452667e-08
1.0162906e-08
1.8610424e-08
1.0727636e-08
1.8746164e-08
1.1300081e-08
1.8859325e-08
1.1879636e-08
1.8948828e-08
1.2465149e-08
1.9014768e-08
1.3055603e-08
1.9056186e-08
1.3650041e-08
1.9072624e-08
1.4247949e-08
1.9063591e-08
1.4848072e-08
1.9029004e-08
1.5448906e-08
1.8968825e-08
1.6050286e-08
1.8881883e-08
1.6650759e-08
1.8768179e-08
1.7249476e-08
1.8627778e-08
1.7845316e-08
1.8460667e-08
1.8437237e-08
1.8266618e-08
1.902465e-08
1.8045409e-08
1.9606214e-08
1.779736e-08
1.7521669e-08
-2.0819926e-12
7.8755369e-11
-8.426828e-12
2.3671644e-10
-1.904702e-11
3.9581478e-10
-3.360727e-11
5.5650068e-10
-5.2027601e-11
7.1987088e-10
-7.4013779e-11
8.8637727e-10
-9.9353866e-11
1.0568394e-09
-1.276702e-10
1.231928e-09
-1.585448e-10
1.4122666e-09
-1.9151052e-10
1.5983934e-09
-2.2614269e-10
1.7908756e-09
-2.6194533e-10
1.9903396e-09
-2.9837245e-10
2.1973423e-09
-3.3475952e-10
2.4121204e-09
-3.7055379e-10
2.6351394e-09
-4.0489086e-10
2.8666525e-09
-4.3747883e-10
3.1073907e-09
-4.6725333e-10
3.3571456e-09
-4.9361643e-10
3.6162692e-09
-5.158966e-10
3.8848549e-09
-5.3342323e-10
4.1630812e-09
-5.4528786e-10
4.4509199e-09
-5.5075641e-10
4.7481807e-09
-5.4911437e-10
5.0549261e-09
-5.396841e-10
5.3710221e-09
-5.2154589e-10
5.6963136e-09
-4.9411858e-10
6.0301787e-09
-4.5681164e-10
6.3728074e-09
-4.0864094e-10
6.7230227e-09
-3.4923846e-10
7.0811904e-09
-2.7773239e-10
7.4464262e-09
-1.9364277e-10
7.8182685e-09
-9.6349237e-11
8.1959133e-09
1.5120647e-11
8.5789616e-09
1.4039126e-10
8.9667838e-09
2.8030697e-10
9.3583189e-09
4.3575496e-10
9.7525747e-09
6.0564349e-10
1.0150201e-08
7.9195463e-10
1.054888e-08
9.9450446e-10
1.0948011e-08
1.2134002e-09
1.1346731e-08
1.4488363e-09
1.1744181e-08
1.7009586e-09
1.213946e-08
1.9699073e-09
1.2531576e-08
2.2557336e-09
1.2919391e-08
2.5581776e-09
1.3302085e-08
2.8773931e-09
1.3678758e-08
3.2131606e-09
1.4048185e-08
3.5653454e-09
1.4409471e-08
3.9337148e-09
1.4761605e-08
4.3178362e-09
1.5103588e-08
4.7175702e-09
1.5434414e-08
5.1326951e-09
1.5753055e-08
5.5623353e-09
1.6058738e-08
6.0061529e-09
1.6350396e-08
6.4639855e-09
1.6627024e-08
6.9347702e-09
1.6887832e-08
7.4184295e-09
1.7132055e-08
7.9139009e-09
1.7358678e-08
8.4208096e-09
1.7566969e-08
8.9382366e-09
1.7756178e-08
9.4656021e-09
1.7925233e-08
1.0002122e-08
1.8073974e-08
1.0546807e-08
1.8201468e-08
1.1099004e-08
1.8307041e-08
1.1657654e-08
1.839011e-08
1.2222169e-08
1.8450346e-08
1.2791451e-08
1.8486847e-08
1.3364853e-08
1.8499281e-08
1.3941261e-08
1.8487275e-08
1.4519587e-08
1.8450691e-08
1.5099303e-08
1.838911e-08
1.5679049e-08
1.8302196e-08
1.6258005e-08
1.8189249e-08
1.6835296e-08
1.8050548e-08
1.740937e-08
1.7886464e-08
1.7980343e-08
1.7695547e-08
1.8546961e-08
1.7478916e-08
1.910769e-08
1.7236504e-08
1.696699e-08
-1.8732279e-12
8.0627667e-11
-7.4707794e-12
2.4231604e-10
-1.6811368e-11
4.0515711e-10
-2.967981e-11
5.6936963e-10
-4.59201e-11
7.3610887e-10
-6.5324007e-11
9.0578999e-10
-8.762801e-11
1.0791396e-09
-1.124729e-10
1.2567871e-09
-1.3950609e-10
1.4392911e-09
-1.6829502e-10
1.6271715e-09
-1.9843583e-10
1.8210274e-09
-2.294835e-10
2.0213858e-09
-2.6083458e-10
2.2286975e-09
-2.9190316e-10
2.4431699e-09
-3.2205463e-10
2.665309e-09
-3.5091499e-10
2.8955107e-09
-3.7764155e-10
3.1341219e-09
-4.0173332e-10
3.3812165e-09
-4.2233429e-10
3.6368986e-09
-4.3884976e-10
3.9013906e-09
-4.5072069e-10
4.1748893e-09
-4.5695048e-10
4.4571905e-09
-4.5698973e-10
4.7482288e-09
-4.5016542e-10
5.048069e-09
-4.3574093e-10
5.3566137e-09
-4.1320597e-10
5.6737776e-09
-3.8155349e-10
5.9985161e-09
-3.4007356e-10
6.3313108e-09
-2.8865e-10
6.6716129e-09
-2.2614141e-10
7.0187073e-09
-1.5211045e-10
7.3723617e-09
-6.6023928e-11
7.7321494e-09
3.2705494e-11
8.0971328e-09
1.4437096e-10
8.467283e-09
2.6997512e-10
8.8412078e-09
4.0966338e-10
9.2186808e-09
5.6294121e-10
9.5992177e-09
7.3153875e-10
9.9816262e-09
9.1523724e-10
1.0365129e-08
1.1144776e-09
1.0748772e-08
1.3291946e-09
1.1131972e-08
1.5597175e-09
1.1513681e-08
1.8061274e-09
1.1893089e-08
2.0686403e-09
1.226915e-08
2.3470856e-09
1.2640954e-08
2.6415205e-09
1.3007652e-08
2.951825e-09
1.3368378e-08
3.2778742e-09
1.372214e-08
3.6196203e-09
1.4067774e-08
3.9768847e-09
1.4404358e-08
4.3491904e-09
1.4731347e-08
4.7362959e-09
1.5047389e-08
5.1378652e-09
1.5351438e-08
5.5536603e-09
1.564295e-08
5.9829735e-09
1.5921055e-08
6.4254172e-09
1.6184516e-08
6.8806379e-09
1.643268e-08
7.3477541e-09
1.6664911e-08
7.8263129e-09
1.6880206e-08
8.3156659e-09
1.7077703e-08
8.8152158e-09
1.7256676e-08
9.3240835e-09
1.7416248e-08
9.8416775e-09
1.7556404e-08
1.0367174e-08
1.767605e-08
1.0899748e-08
1.7774548e-08
1.1438615e-08
1.785122e-08
1.1983026e-08
1.790589e-08
1.2532254e-08
1.793771e-08
1.308503e-08
1.7946405e-08
1.3640835e-08
1.7931587e-08
1.4198334e-08
1.7893136e-08
1.4757159e-08
1.783042e-08
1.5316255e-08
1.7743126e-08
1.5874581e-08
1.7630921e-08
1.643127e-08
1.7493807e-08
1.6985475e-08
1.7332276e-08
1.7535961e-08
1.7145229e-08
1.8081902e-08
1.6932894e-08
1.8622462e-08
1.6695974e-08
1.6433173e-08
-1.676494e-12
8.2303968e-11
-6.6024665e-12
2.47243e-10
-1.4746966e-11
4.1330041e-10
-2.6055022e-11
5.8068062e-10
-4.0285492e-11
7.5034305e-10
-5.7267102e-11
9.2277044e-10
-7.6736005e-11
1.0986161e-09
-9.8393558e-11
1.2784366e-09
-1.2184952e-10
1.4627581e-09
-1.4676476e-10
1.6521004e-09
-1.7273891e-10
1.8470104e-09
-1.9931483e-10
2.0479673e-09
-2.2586912e-10
2.2552359e-09
-2.5195322e-10
2.4692669e-09
-2.7707737e-10
2.69043e-09
-3.0076828e-10
2.9192135e-09
-3.2223837e-10
3.1555945e-09
-3.4088427e-10
3.3998751e-09
-3.561469e-10
3.6521797e-09
-3.6738642e-10
3.9126085e-09
-3.7385746e-10
4.1814112e-09
-3.7496523e-10
4.4582265e-09
-3.7003537e-10
4.7432959e-09
-3.5848393e-10
5.0365349e-09
-3.3964203e-10
5.3377782e-09
-3.1256845e-10
5.6466941e-09
-2.7696108e-10
5.9629136e-09
-2.3218671e-10
6.286583e-09
-1.7758822e-10
6.6169946e-09
-1.1225432e-10
6.9534281e-09
-3.6098148e-11
7.2962094e-09
5.1780247e-11
7.6442718e-09
1.5160836e-10
7.9973342e-09
2.6414277e-10
8.3547712e-09
3.8963096e-10
8.7156557e-09
5.2803104e-10
9.0802956e-09
6.8047116e-10
9.446833e-09
8.4703873e-10
9.8150116e-09
1.0282103e-09
1.0184064e-08
1.2239508e-09
1.0553054e-08
1.4346376e-09
1.0921222e-08
1.6603928e-09
1.1287891e-08
1.9013015e-09
1.1652139e-08
2.1574439e-09
1.2013008e-08
2.4287566e-09
1.2369579e-08
2.7153619e-09
1.272111e-08
3.0171971e-09
1.3066652e-08
3.334068e-09
1.3405196e-08
3.6658631e-09
1.3735931e-08
4.0122922e-09
1.4057931e-08
4.3732035e-09
1.4370506e-08
4.7481844e-09
1.4672293e-08
5.137238e-09
1.4962444e-08
5.5394729e-09
1.5240721e-08
5.9547384e-09
1.550587e-08
6.3824453e-09
1.5756784e-08
6.8223128e-09
1.5992855e-08
7.2736092e-09
1.6213537e-08
7.7358895e-09
1.641798e-08
8.2085941e-09
1.6605076e-08
8.6907446e-09
1.6774459e-08
9.181873e-09
1.6925169e-08
9.6813397e-09
1.7056884e-08
1.0188492e-08
1.7168972e-08
1.0702487e-08
1.7260558e-08
1.1222158e-08
1.7331359e-08
1.1747494e-08
1.7380666e-08
1.2277077e-08
1.7408116e-08
1.2810233e-08
1.7413253e-08
1.3346106e-08
1.7395783e-08
1.3883948e-08
1.7355315e-08
1.442282e-08
1.7291536e-08
1.4961809e-08
1.7204002e-08
1.5499976e-08
1.7092654e-08
1.6036624e-08
1.6957191e-08
1.6571042e-08
1.6797853e-08
1.7101956e-08
1.6614443e-08
1.7628333e-08
1.640635e-08
1.8149863e-08
1.6174433e-08
1.5918322e-08
-1.4724843e-12
8.3776145e-11
-5.8040172e-12
2.5157308e-10
-1.2879639e-11
4.2037819e-10
-2.2724215e-11
5.9053184e-10
-3.5099216e-11
7.6271281e-10
-4.9826007e-11
9.3750113e-10
-6.6675295e-11
1.1154618e-09
-8.5312276e-11
1.2970745e-09
-1.0544401e-10
1.482885e-09
-1.2674579e-10
1.6734042e-09
-1.488251e-10
1.8690866e-09
-1.7118009e-10
2.070317e-09
-1.9337946e-10
2.2774311e-09
-2.1492815e-10
2.4908324e-09
-2.3542762e-10
2.7109132e-09
-2.5422044e-10
2.9379997e-09
-2.707338e-10
3.1721225e-09
-2.8441429e-10
3.4135449e-09
-2.9465892e-10
3.6623932e-09
-3.0096725e-10
3.9189128e-09
-3.0255852e-10
4.1830172e-09
-2.988967e-10
4.4545836e-09
-2.8951105e-10
4.7338888e-09
-2.7353573e-10
5.0205641e-09
-2.5039225e-10
5.3146151e-09
-2.1946218e-10
5.6157985e-09
-1.803844e-10
5.9238607e-09
-1.3221571e-10
6.2384227e-09
-7.4405865e-11
6.5591969e-09
-6.9951388e-12
6.885991e-09
7.1264093e-11
7.2179189e-09
1.6065793e-10
7.5548713e-09
2.6154583e-10
7.8964575e-09
3.7437137e-10
8.2419749e-09
4.9906971e-10
8.5909668e-09
6.370332e-10
8.9423024e-09
7.8817356e-10
9.295653e-09
9.5287985e-10
9.6503236e-09
1.1312759e-09
1.0005578e-08
1.3237501e-09
1.0360593e-08
1.5303998e-09
1.0714626e-08
1.7514617e-09
1.1066911e-08
1.9868996e-09
1.1416646e-08
2.2368639e-09
1.176298e-08
2.5014605e-09
1.2105022e-08
2.7805683e-09
1.244199e-08
3.0741173e-09
1.277306e-08
3.3819857e-09
1.3097359e-08
3.7039659e-09
1.3413914e-08
4.0401991e-09
1.3721815e-08
4.390235e-09
1.4020472e-08
4.7537858e-09
1.4308811e-08
5.1302913e-09
1.4585897e-08
5.51963e-09
1.48513e-08
5.921458e-09
1.510403e-08
6.3353068e-09
1.5343036e-08
6.7604424e-09
1.5567644e-08
7.1966048e-09
1.577737e-08
7.6431871e-09
1.5971355e-08
8.0995631e-09
1.6148664e-08
8.5654324e-09
1.6308645e-08
9.0395132e-09
1.6450984e-08
9.5216532e-09
1.657477e-08
1.0011088e-08
1.667958e-08
1.050697e-08
1.6764683e-08
1.100875e-08
1.6829684e-08
1.151529e-08
1.6873958e-08
1.2026169e-08
1.6897132e-08
1.254044e-08
1.6898971e-08
1.3057424e-08
1.6878745e-08
1.3576142e-08
1.6836688e-08
1.4095803e-08
1.6771821e-08
1.4615615e-08
1.6684176e-08
1.5134704e-08
1.6573481e-08
1.5651957e-08
1.6440001e-08
1.6166836e-08
1.6283081e-08
1.6678898e-08
1.6102393e-08
1.7187062e-08
1.5898102e-08
1.7690375e-08
1.5671297e-08
1.5420726e-08
-1.2690994e-12
8.5045929e-11
-5.0414213e-12
2.5534434e-10
-1.1169206e-11
4.2650484e-10
-1.9639188e-11
5.9899901e-10
-3.0271527e-11
7.7334844e-10
-4.290595e-11
9.5013496e-10
-5.7293953e-11
1.1298536e-09
-7.3178082e-11
1.3129488e-09
-9.0235973e-11
1.499948e-09
-1.0819881e-10
1.6913423e-09
-1.2662058e-10
1.8875181e-09
-1.4510737e-10
2.088802e-09
-1.632296e-10
2.2955492e-09
-1.8059772e-10
2.5081986e-09
-1.9672658e-10
2.7270492e-09
-2.1103576e-10
2.9523119e-09
-2.2295584e-10
3.1840602e-09
-2.320046e-10
3.4225872e-09
-2.3763698e-10
3.6680278e-09
-2.3936719e-10
3.9206812e-09
-2.3655283e-10
4.1801859e-09
-2.2850415e-10
4.446575e-09
-2.1480109e-10
4.7201604e-09
-1.948128e-10
5.0005683e-09
-1.6783533e-10
5.2876446e-09
-1.3330199e-10
5.5813105e-09
-9.0755916e-11
5.8812537e-09
-3.982724e-11
6.1875016e-09
2.0189263e-11
6.4991642e-09
9.0035128e-11
6.8161609e-09
1.7007814e-10
7.1378803e-09
2.6052747e-10
7.4643575e-09
3.6199375e-10
7.7950523e-09
4.7482722e-10
8.1291199e-09
5.9978503e-10
8.4660519e-09
7.3686638e-10
8.8052133e-09
8.8663094e-10
9.1459634e-09
1.0492937e-09
9.4876519e-09
1.2250834e-09
9.8298183e-09
1.4143546e-09
1.0171413e-08
1.6169358e-09
1.0511891e-08
1.8333764e-09
1.0850529e-08
2.0635637e-09
1.1186442e-08
2.3076276e-09
1.1518905e-08
2.5655867e-09
1.1847104e-08
2.8373769e-09
1.2170159e-08
3.1229662e-09
1.248744e-08
3.4222951e-09
1.2798041e-08
3.7352482e-09
1.3101043e-08
4.0613968e-09
1.3395554e-08
4.4007363e-09
1.3681112e-08
4.7530169e-09
1.3956448e-08
5.1177832e-09
1.4221213e-08
5.4947815e-09
1.4474362e-08
5.8836361e-09
1.4715222e-08
6.2839278e-09
1.4942771e-08
6.6950142e-09
1.5156402e-08
7.1166117e-09
1.5355807e-08
7.5480994e-09
1.5539829e-08
7.9891601e-09
1.5707591e-08
8.4389105e-09
1.5858948e-08
8.8969778e-09
1.5993051e-08
9.3623618e-09
1.6109328e-08
9.8347799e-09
1.6207065e-08
1.0313578e-08
1.6286054e-08
1.0797577e-08
1.6345652e-08
1.1286423e-08
1.6385102e-08
1.1779374e-08
1.6404199e-08
1.2275569e-08
1.6402764e-08
1.2774208e-08
1.6380212e-08
1.3274359e-08
1.6336402e-08
1.3775759e-08
1.6270382e-08
1.4277353e-08
1.6182693e-08
1.4778296e-08
1.6072657e-08
1.5277442e-08
1.5940616e-08
1.5774209e-08
1.5786358e-08
1.6267954e-08
1.5608573e-08
1.6757939e-08
1.5408066e-08
1.7243063e-08
1.5186153e-08
1.4941031e-08
-1.0822805e-12
8.6129279e-11
-4.3160715e-12
2.5857446e-10
-9.5688209e-12
4.3176154e-10
-1.6760565e-11
6.0619771e-10
-2.5791208e-11
7.823726e-10
-3.6462969e-11
9.6080109e-10
-4.8567607e-11
1.1419563e-09
-6.1866354e-11
1.3262495e-09
-7.6094117e-11
1.5141618e-09
-9.0916845e-11
1.7061731e-09
-1.0596681e-10
1.9025696e-09
-1.2086595e-10
2.1037094e-09
-1.352596e-10
2.3099357e-09
-1.4874208e-10
2.521661e-09
-1.6076472e-10
2.7391046e-09
-1.7090244e-10
2.9624391e-09
-1.7859354e-10
3.1917549e-09
-1.834685e-10
3.4274583e-09
-1.8492985e-10
3.6694863e-09
-1.8240018e-10
3.9181272e-09
-1.7531558e-10
4.1730928e-09
-1.6341058e-10
4.4346379e-09
-1.4579278e-10
4.7025759e-09
-1.2194934e-10
4.976699e-09
-9.1469076e-11
5.2571895e-09
-5.3874888e-11
5.5436866e-09
-8.4719408e-12
5.8358319e-09
4.5274171e-11
6.1337549e-09
1.0772523e-10
6.4367022e-09
1.7962212e-10
6.7442543e-09
2.6093993e-10
7.056504e-09
3.5230531e-10
7.3730864e-09
4.5432363e-10
7.6929878e-09
5.6748726e-10
8.0159688e-09
6.9198002e-10
8.3415477e-09
8.2825327e-10
8.6689526e-09
9.7652176e-10
8.9975879e-09
1.1370679e-09
9.327104e-09
1.310266e-09
9.656621e-09
1.4961757e-09
9.9854989e-09
1.6949852e-09
1.0313123e-08
1.9068571e-09
1.063865e-08
2.131961e-09
1.0961328e-08
2.3701932e-09
1.1280646e-08
2.6217816e-09
1.1595538e-08
2.8864937e-09
1.1905394e-08
3.1644381e-09
1.2209585e-08
3.4554229e-09
1.2507021e-08
3.7593352e-09
1.2797065e-08
4.0760314e-09
1.3078991e-08
4.4052142e-09
1.3351765e-08
4.7466095e-09
1.3615182e-08
5.1001084e-09
1.3867724e-08
5.4650936e-09
1.4109322e-08
5.8415451e-09
1.4338793e-08
6.2288191e-09
1.4555485e-08
6.6266006e-09
1.4758687e-08
7.0342417e-09
1.4948084e-08
7.4514096e-09
1.512283e-08
7.8775735e-09
1.5281441e-08
8.3118962e-09
1.5424559e-08
8.7543195e-09
1.5550686e-08
9.2037763e-09
1.5659725e-08
9.6598114e-09
1.5751011e-08
1.0121917e-08
1.582392e-08
1.0589271e-08
1.5878432e-08
1.1060972e-08
1.5913345e-08
1.1536535e-08
1.5928605e-08
1.2015275e-08
1.5924005e-08
1.2496262e-08
1.5899158e-08
1.2979248e-08
1.5853568e-08
1.3462868e-08
1.5786792e-08
1.3946586e-08
1.5698811e-08
1.4429542e-08
1.5589567e-08
1.4911459e-08
1.5458821e-08
1.5391203e-08
1.53067e-08
1.5867404e-08
1.5132381e-08
1.6339668e-08
1.4935841e-08
1.6807256e-08
1.4718506e-08
1.4479003e-08
-9.2162571e-13
8.7049496e-11
-3.6276976e-12
2.6128439e-10
-8.032208e-12
4.3616586e-10
-1.4047559e-11
6.1221292e-10
-2.1575516e-11
7.8990115e-10
-3.0432573e-11
9.6966484e-10
-4.0426336e-11
1.1519562e-09
-5.1329418e-11
1.3371709e-09
-6.2934843e-11
1.525775e-09
-7.4863203e-11
1.7180956e-09
-8.6818354e-11
1.9145279e-09
-9.8437953e-11
2.1153244e-09
-1.0936639e-10
2.3208859e-09
-1.192065e-10
2.5315034e-09
-1.2748113e-10
2.7473548e-09
-1.3372864e-10
2.9686931e-09
-1.3757929e-10
3.1956283e-09
-1.3849252e-10
3.4283403e-09
-1.3604306e-10
3.6670552e-09
-1.29659e-10
3.9116916e-09
-1.1890909e-10
4.1623738e-09
-1.0305003e-10
4.4188274e-09
-8.1794306e-11
4.6813113e-09
-5.4702946e-11
4.9496407e-09
-2.1046911e-11
5.2234667e-09
1.9640743e-11
5.5029929e-09
6.762821e-11
5.7878777e-09
1.2382157e-10
6.0775651e-09
1.8850706e-10
6.3720214e-09
2.6183977e-10
6.6709089e-09
3.4426236e-10
6.9740494e-09
4.3660745e-10
7.280702e-09
5.3916468e-10
7.5904941e-09
6.522141e-10
7.902877e-09
7.7624846e-10
8.2175049e-09
9.1150742e-10
8.5336833e-09
1.0582248e-09
8.8508758e-09
1.2167419e-09
9.1686206e-09
1.3872158e-09
9.4861696e-09
1.56992e-09
9.8027762e-09
1.7649698e-09
1.0118038e-08
1.9724422e-09
1.0431196e-08
2.1924983e-09
1.0741295e-08
2.4251601e-09
1.1047956e-08
2.6704838e-09
1.1350272e-08
2.9284252e-09
1.1647538e-08
3.1989325e-09
1.1939068e-08
3.4818577e-09
1.2224034e-08
3.7771365e-09
1.250181e-08
4.0844373e-09
1.2771619e-08
4.4038679e-09
1.3032438e-08
4.735007e-09
1.3284023e-08
5.0774845e-09
1.3525225e-08
5.431269e-09
1.3755653e-08
5.7956183e-09
1.3974415e-08
6.1703797e-09
1.4180763e-08
6.5549082e-09
1.4374139e-08
6.949136e-09
1.4553874e-08
7.3526191e-09
1.471922e-08
7.7644875e-09
1.4869711e-08
8.1844177e-09
1.500466e-08
8.611694e-09
1.5123438e-08
9.0457089e-09
1.5225576e-08
9.4862789e-09
1.5310468e-08
9.9323293e-09
1.5377956e-08
1.0383233e-08
1.5427433e-08
1.0838552e-08
1.5457868e-08
1.129768e-08
1.5469592e-08
1.1759742e-08
1.5462e-08
1.2223922e-08
1.5435015e-08
1.2689667e-08
1.5387696e-08
1.3156284e-08
1.5320087e-08
1.3622981e-08
1.5232202e-08
1.408875e-08
1.5123784e-08
1.4553361e-08
1.4994226e-08
1.501589e-08
1.484427e-08
1.5475358e-08