/*--------------------------------*- C++ -*----------------------------------*\
| =========                 |                                                 |
| \\      /  F ield         | OpenFOAM: The Open Source CFD Toolbox           |
|  \\    /   O peration     | Version:  2306                                  |
|   \\  /    A nd           | Website:  www.openfoam.com                      |
|    \\/     M anipulation  |                                                 |
\*---------------------------------------------------------------------------*/
FoamFile
{
    version     2.0;
    format      ascii;
    arch        "LSB;label=32;scalar=64";
    class       surfaceScalarField;
    location    "0.54";
    object      phi_0;
}
// * * * * * * * * * * * * * * * * * * * * * * * * * * * * * * * * * * * * * //

dimensions      [0 3 -1 0 0 0 0];

oriented        oriented;

internalField   nonuniform List<scalar> 
12640
(
1.7268661e-09
-1.7268661e-09
7.0570146e-09
-5.3301484e-09
1.5843916e-08
-8.7869014e-09
2.8038348e-08
-1.2194432e-08
4.3554464e-08
-1.5516116e-08
6.230576e-08
-1.8751296e-08
8.4219776e-08
-2.1914015e-08
1.0921494e-07
-2.4995162e-08
1.3719695e-07
-2.7982017e-08
1.6805808e-07
-3.0861126e-08
2.0167741e-07
-3.3619331e-08
2.3792179e-07
-3.6244377e-08
2.7664692e-07
-3.8725134e-08
3.1769841e-07
-4.1051485e-08
3.6091277e-07
-4.3214365e-08
4.0611837e-07
-4.5205602e-08
4.5313637e-07
-4.7017995e-08
5.0178169e-07
-4.8645324e-08
5.5186403e-07
-5.0082342e-08
6.0318868e-07
-5.1324649e-08
6.5555772e-07
-5.2369033e-08
7.0877062e-07
-5.3212901e-08
7.6262547e-07
-5.3854853e-08
8.1691975e-07
-5.4294281e-08
8.7145158e-07
-5.4531827e-08
9.2602011e-07
-5.4568527e-08
9.8042655e-07
-5.440644e-08
1.034475e-06
-5.4048482e-08
1.0879767e-06
-5.3501703e-08
1.1407587e-06
-5.2781928e-08
1.1926679e-06
-5.1909228e-08
1.243502e-06
-5.083416e-08
1.2930794e-06
-4.9577343e-08
1.3412405e-06
-4.8161148e-08
1.3878369e-06
-4.6596351e-08
1.4327299e-06
-4.4893e-08
1.475788e-06
-4.3058102e-08
1.51689e-06
-4.1101989e-08
1.5559254e-06
-3.9035399e-08
1.5927929e-06
-3.6867543e-08
1.6274032e-06
-3.4610237e-08
1.6596781e-06
-3.2274901e-08
1.6895482e-06
-2.9870131e-08
1.7169606e-06
-2.7412457e-08
1.7418692e-06
-2.4908563e-08
1.7642406e-06
-2.2371372e-08
1.7840539e-06
-1.9813278e-08
1.8012996e-06
-1.7245766e-08
1.8159599e-06
-1.4660275e-08
1.8280245e-06
-1.2064582e-08
1.8375141e-06
-9.4896217e-09
1.8444637e-06
-6.9496041e-09
1.8488917e-06
-4.4280484e-09
1.8507896e-06
-1.8978269e-09
1.8501926e-06
5.9698136e-10
1.8473624e-06
2.8302286e-09
1.8422737e-06
5.0887088e-09
1.8349784e-06
7.2952628e-09
1.8255492e-06
9.4292016e-09
1.814067e-06
1.1482216e-08
1.8006199e-06
1.3447095e-08
1.7852971e-06
1.5322774e-08
1.7681996e-06
1.7097517e-08
1.749423e-06
1.8776595e-08
1.7290691e-06
2.0353925e-08
1.7072407e-06
2.1828387e-08
1.6840412e-06
2.319948e-08
1.659575e-06
2.446626e-08
1.6339446e-06
2.56303e-08
1.6072436e-06
2.6701073e-08
1.5795862e-06
2.7657343e-08
1.5510761e-06
2.851015e-08
1.5218106e-06
2.926552e-08
1.491886e-06
2.992454e-08
1.4613997e-06
3.0486352e-08
1.4304452e-06
3.0954486e-08
1.3990974e-06
3.134777e-08
1.3674582e-06
3.1639164e-08
1.3356056e-06
3.1852698e-08
3.1987383e-08
3.1447039e-09
-4.87157e-09
1.2403874e-08
-1.4589319e-08
2.763213e-08
-2.4015157e-08
4.8620458e-08
-3.318276e-08
7.5208435e-08
-4.2104094e-08
1.072629e-07
-5.080576e-08
1.4463996e-07
-5.929108e-08
1.871798e-07
-6.7535003e-08
2.3469948e-07
-7.5501689e-08
2.8699051e-07
-8.3152157e-08
3.438195e-07
-9.044832e-08
4.0492971e-07
-9.7354591e-08
4.7004323e-07
-1.0383865e-07
5.3886309e-07
-1.0987134e-07
6.1107555e-07
-1.1542682e-07
6.8635189e-07
-1.2048195e-07
7.6435056e-07
-1.2501666e-07
8.4471913e-07
-1.290139e-07
9.2709644e-07
-1.3245966e-07
1.0111143e-06
-1.3534246e-07
1.0963998e-06
-1.3765457e-07
1.1825772e-06
-1.3939032e-07
1.2692697e-06
-1.4054738e-07
1.3561016e-06
-1.4112617e-07
1.4427006e-06
-1.4113079e-07
1.5286991e-06
-1.4056708e-07
1.6137365e-06
-1.3944386e-07
1.6974606e-06
-1.3777255e-07
1.7795302e-06
-1.3557133e-07
1.8596055e-06
-1.3285721e-07
1.9373467e-06
-1.2965042e-07
2.0124692e-06
-1.2595664e-07
2.0846978e-06
-1.2180591e-07
2.1537604e-06
-1.1722379e-07
2.2194022e-06
-1.1223811e-07
2.2813875e-06
-1.0687836e-07
2.3394997e-06
-1.0117031e-07
2.3935452e-06
-9.5147472e-08
2.4433523e-06
-8.8842472e-08
2.4887709e-06
-8.2286207e-08
2.5296748e-06
-7.5514081e-08
2.5659592e-06
-6.8559348e-08
2.5975388e-06
-6.1449675e-08
2.6243545e-06
-5.4228128e-08
2.6463623e-06
-4.6916418e-08
2.6635429e-06
-3.9551938e-08
2.6758921e-06
-3.2162486e-08
2.6834403e-06
-2.4794003e-08
2.686249e-06
-1.7468964e-08
2.684361e-06
-1.0176612e-08
2.6779214e-06
-3.0500109e-09
2.6669189e-06
4.0529699e-09
2.6514538e-06
1.1037072e-08
2.6317318e-06
1.7824072e-08
2.6079153e-06
2.4413504e-08
2.5799812e-06
3.07643e-08
2.5481892e-06
3.6880761e-08
2.5127435e-06
4.2741002e-08
2.4738325e-06
4.8340198e-08
2.431649e-06
5.3665673e-08
2.3863985e-06
5.8697578e-08
2.338268e-06
6.3453261e-08
2.2874876e-06
6.7877944e-08
2.2342605e-06
7.2003692e-08
2.1788029e-06
7.5811558e-08
2.1213337e-06
7.9297559e-08
2.062067e-06
8.2466212e-08
2.0012189e-06
8.5314301e-08
1.9390006e-06
8.7848603e-08
1.8756006e-06
9.0101105e-08
1.8112491e-06
9.2008855e-08
1.746145e-06
9.3614209e-08
1.6804806e-06
9.4929947e-08
1.6144438e-06
9.5961397e-08
1.5482189e-06
9.6711232e-08
1.4819789e-06
9.7194502e-08
1.4158833e-06
9.7443317e-08
1.3501e-06
9.7422476e-08
1.2847837e-06
9.7168952e-08
9.6699146e-08
3.3134176e-09
-8.1849876e-09
1.3032985e-08
-2.4308887e-08
2.9025161e-08
-4.0007332e-08
5.1068358e-08
-5.5225957e-08
7.8986904e-08
-7.0022639e-08
1.1262137e-07
-8.4440226e-08
1.5179387e-07
-9.846358e-08
1.9630637e-07
-1.120475e-07
2.4593563e-07
-1.2513095e-07
3.0043093e-07
-1.3764746e-07
3.595143e-07
-1.4953169e-07
4.228818e-07
-1.6072209e-07
4.9020572e-07
-1.7116257e-07
5.6113692e-07
-1.8080254e-07
6.353074e-07
-1.895973e-07
7.1233238e-07
-1.9750693e-07
7.9181303e-07
-2.0449731e-07
8.7333889e-07
-2.1053975e-07
9.564903e-07
-2.1561108e-07
1.0408408e-06
-2.1969291e-07
1.1259597e-06
-2.2277354e-07
1.2114148e-06
-2.2484543e-07
1.296774e-06
-2.2590657e-07
1.3816083e-06
-2.2596039e-07
1.4654941e-06
-2.2501664e-07
1.5480159e-06
-2.2308889e-07
1.628767e-06
-2.2019498e-07
1.7073524e-06
-2.1635794e-07
1.7833914e-06
-2.1161032e-07
1.856515e-06
-2.0598074e-07
1.9263738e-06
-1.9950927e-07
1.9926424e-06
-1.922252e-07
2.055017e-06
-1.8418051e-07
2.1132094e-06
-1.7541621e-07
2.1669581e-06
-1.6598678e-07
2.2160221e-06
-1.5594242e-07
2.2601873e-06
-1.4533547e-07
2.2992682e-06
-1.3422839e-07
2.3331036e-06
-1.2267788e-07
2.3615572e-06
-1.1073983e-07
2.3845179e-06
-9.8474733e-08
2.4019056e-06
-8.5947044e-08
2.4136694e-06
-7.3213534e-08
2.4197809e-06
-6.0339596e-08
2.4202374e-06
-4.7372957e-08
2.4150792e-06
-3.4393679e-08
2.4043517e-06
-2.1435014e-08
2.3881976e-06
-8.6399455e-09
2.3666197e-06
4.1089505e-09
2.3395669e-06
1.6876253e-08
2.307232e-06
2.9284847e-08
2.2699162e-06
4.1368792e-08
2.2278076e-06
5.3145638e-08
2.1810649e-06
6.4566738e-08
2.1299055e-06
7.5572915e-08
2.0745405e-06
8.6129313e-08
2.0151767e-06
9.6244589e-08
1.9520833e-06
1.0583441e-07
1.8855034e-06
1.1492008e-07
1.815688e-06
1.2348108e-07
1.7429178e-06
1.3146778e-07
1.6674473e-06
1.3892379e-07
1.5895665e-06
1.4575867e-07
1.5095471e-06
1.5202311e-07
1.4276607e-06
1.5769798e-07
1.3441887e-06
1.6276957e-07
1.2594002e-06
1.6725467e-07
1.1735665e-06
1.7114799e-07
1.0869711e-06
1.7444402e-07
9.9978493e-07
1.7728729e-07
9.123612e-07
1.7943257e-07
8.2490955e-07
1.8106588e-07
7.3766314e-07
1.8217636e-07
6.5084851e-07
1.8277602e-07
5.6467412e-07
1.8288562e-07
4.7934289e-07
1.8252574e-07
3.9509998e-07
1.8168622e-07
3.1207457e-07
1.8044789e-07
2.3045204e-07
1.7879148e-07
1.7675796e-07
2.9791709e-09
-1.1164159e-08
1.1832729e-08
-3.3162445e-08
2.6462053e-08
-5.4636656e-08
4.6712461e-08
-7.5476365e-08
7.2425041e-08
-9.573522e-08
1.0342601e-07
-1.154412e-07
1.3951915e-07
-1.3455671e-07
1.8048631e-07
-1.5301467e-07
2.2608526e-07
-1.7072989e-07
2.760485e-07
-1.876107e-07
3.3008313e-07
-2.0356633e-07
3.8787173e-07
-2.1851068e-07
4.4907398e-07
-2.3236482e-07
5.1332868e-07
-2.4505725e-07
5.8025613e-07
-2.5652475e-07
6.4946048e-07
-2.6671127e-07
7.2053226e-07
-2.7556909e-07
7.9305077e-07
-2.8305826e-07
8.6658721e-07
-2.8914752e-07
9.407072e-07
-2.9381289e-07
1.0149728e-06
-2.9703912e-07
1.0889454e-06
-2.9881801e-07
1.1621889e-06
-2.9915012e-07
1.2342713e-06
-2.9804274e-07
1.3047675e-06
-2.9551292e-07
1.3732633e-06
-2.9158467e-07
1.4393542e-06
-2.8628588e-07
1.5026511e-06
-2.7965481e-07
1.5627786e-06
-2.7173783e-07
1.619379e-06
-2.6258115e-07
1.6721176e-06
-2.5224785e-07
1.7206805e-06
-2.4078816e-07
1.764778e-06
-2.2827794e-07
1.8041409e-06
-2.1477911e-07
1.8385307e-06
-2.0037664e-07
1.8677269e-06
-1.8513861e-07
1.8915433e-06
-1.6915182e-07
1.9098237e-06
-1.5250885e-07
1.9224306e-06
-1.3528471e-07
1.9292615e-06
-1.175708e-07
1.9302421e-06
-9.9455327e-08
1.9253269e-06
-8.1031777e-08
1.9145099e-06
-6.2396597e-08
1.8977983e-06
-4.3627993e-08
1.8752349e-06
-2.4809532e-08
1.84693e-06
-6.0888014e-09
1.8127854e-06
1.270961e-08
1.7729731e-06
3.1172298e-08
1.7277109e-06
4.9371186e-08
1.6772922e-06
6.7294961e-08
1.6217748e-06
8.4802216e-08
1.5613279e-06
1.0181572e-07
1.49617e-06
1.1830354e-07
1.4265723e-06
1.341644e-07
1.3527737e-06
1.4937154e-07
1.2750436e-06
1.6385946e-07
1.1936086e-06
1.7767951e-07
1.1088133e-06
1.906297e-07
1.020943e-06
2.0279042e-07
9.3025712e-07
2.1416696e-07
8.370861e-07
2.246388e-07
7.4177031e-07
2.3423957e-07
6.4457176e-07
2.4295722e-07
5.4583404e-07
2.5076084e-07
4.4586238e-07
2.5766963e-07
3.4492806e-07
2.6370389e-07
2.4334068e-07
2.6884206e-07
1.413853e-07
2.7310337e-07
3.9313824e-08
2.7651548e-07
-6.2348508e-08
2.7894962e-07
-1.6361836e-07
2.8070241e-07
-2.6416895e-07
2.8161645e-07
-3.6373421e-07
2.8174163e-07
-4.6207119e-07
2.8111299e-07
-5.5894954e-07
2.7976397e-07
-6.541506e-07
2.7772681e-07
-7.4749186e-07
2.7502748e-07
-8.3876265e-07
2.7171867e-07
-9.2779642e-07
2.6782527e-07
2.6338918e-07
2.597788e-09
-1.3761947e-08
1.0404796e-08
-4.0969453e-08
2.3389231e-08
-6.7621091e-08
4.1468378e-08
-9.3555512e-08
6.4508503e-08
-1.1877535e-07
9.2333983e-08
-1.4326668e-07
1.2474073e-07
-1.6696346e-07
1.6150056e-07
-1.897745e-07
2.0236175e-07
-2.1159108e-07
2.4704959e-07
-2.3229854e-07
2.9526666e-07
-2.517834e-07
3.4669259e-07
-2.6993661e-07
4.0098617e-07
-2.8665841e-07
4.5778776e-07
-3.0185884e-07
5.1671841e-07
-3.154554e-07
5.7738517e-07
-3.2737803e-07
6.3938229e-07
-3.3756621e-07
7.0229519e-07
-3.4597116e-07
7.6569837e-07
-3.525507e-07
8.2916523e-07
-3.5727975e-07
8.9226462e-07
-3.6013852e-07
9.5456813e-07
-3.6112153e-07
1.0156473e-06
-3.6022925e-07
1.0750846e-06
-3.5748004e-07
1.1324635e-06
-3.5289187e-07
1.1873847e-06
-3.4650582e-07
1.2394556e-06
-3.3835682e-07
1.2883079e-06
-3.2850713e-07
1.3335801e-06
-3.1701003e-07
1.3749384e-06
-3.0393946e-07
1.4120637e-06
-2.8937311e-07
1.4446594e-06
-2.733839e-07
1.4724614e-06
-2.5607989e-07
1.4952267e-06
-2.3754439e-07
1.5127392e-06
-2.1788919e-07
1.5248025e-06
-1.9720184e-07
1.5312622e-06
-1.7561154e-07
1.5319807e-06
-1.5322734e-07
1.5268542e-06
-1.3015826e-07
1.5158113e-06
-1.0652784e-07
1.4988073e-06
-8.2451395e-08
1.4758265e-06
-5.8050907e-08
1.4468954e-06
-3.3465585e-08
1.4120649e-06
-8.7974837e-09
1.3713534e-06
1.5902051e-08
1.3248093e-06
4.0455213e-08
1.2727524e-06
6.4766527e-08
1.2151807e-06
8.8744045e-08
1.1522583e-06
1.1229358e-07
1.0842418e-06
1.3531148e-07
1.0113227e-06
1.5772129e-07
9.3374444e-07
1.7939396e-07
8.5172626e-07
2.0032173e-07
7.655397e-07
2.2035096e-07
6.754622e-07
2.3944903e-07
5.8177055e-07
2.5755111e-07
4.8486482e-07
2.7458525e-07
3.8493458e-07
2.9055995e-07
2.8233795e-07
3.0538705e-07
1.7749455e-07
3.1901037e-07
7.0614108e-08
3.3151924e-07
-3.79165e-08
3.4277019e-07
-1.4782355e-07
3.5286426e-07
-2.5878214e-07
3.6171943e-07
-3.7046087e-07
3.6934837e-07
-4.8252413e-07
3.7576715e-07
-5.9466374e-07
3.8098166e-07
-7.0656993e-07
3.8500955e-07
-8.1792489e-07
3.8787047e-07
-9.2854203e-07
3.8956674e-07
-1.0380288e-06
3.901892e-07
-1.1461518e-06
3.897394e-07
-1.2526626e-06
3.8825246e-07
-1.3573205e-06
3.8577093e-07
-1.4598966e-06
3.8234007e-07
-1.5601756e-06
3.7800579e-07
-1.6579618e-06
3.7281371e-07
-1.7530632e-06
3.6682e-07
-1.8453097e-06
3.6007184e-07
3.5262223e-07
2.3307607e-09
-1.6092707e-08
9.3819129e-09
-4.8020605e-08
2.1164032e-08
-7.9403209e-08
3.7642859e-08
-1.1003434e-07
5.8707869e-08
-1.3984036e-07
8.41903e-08
-1.6874911e-07
1.1388597e-07
-1.9665913e-07
1.4756246e-07
-2.2345099e-07
1.849634e-07
-2.4899202e-07
2.2580974e-07
-2.7314489e-07
2.6980084e-07
-2.957745e-07
3.1661585e-07
-3.1675161e-07
3.6591317e-07
-3.3595573e-07
4.1733253e-07
-3.532782e-07
4.7049854e-07
-3.6862141e-07
5.2502072e-07
-3.8190021e-07
5.8049683e-07
-3.9304232e-07
6.3651455e-07
-4.0198888e-07
6.9265945e-07
-4.0869559e-07
7.4850525e-07
-4.1312555e-07
8.0363081e-07
-4.1526408e-07
8.5761266e-07
-4.1510338e-07
9.1003353e-07
-4.1265012e-07
9.6048001e-07
-4.0792651e-07
1.0085523e-06
-4.0096421e-07
1.0538536e-06
-3.9180706e-07
1.0960153e-06
-3.8051857e-07
1.1346749e-06
-3.6716668e-07
1.1694801e-06
-3.5181526e-07
1.2001115e-06
-3.3457084e-07
1.2262689e-06
-3.1553047e-07
1.2476828e-06
-2.9479784e-07
1.2640937e-06
-2.7249082e-07
1.2752654e-06
-2.4871609e-07
1.2810154e-06
-2.236392e-07
1.2811694e-06
-1.9735582e-07
1.2755752e-06
-1.7001733e-07
1.2641348e-06
-1.4178689e-07
1.2467548e-06
-1.1277831e-07
1.2233819e-06
-8.3154983e-08
1.1939785e-06
-5.3048e-08
1.1585799e-06
-2.2652222e-08
1.1172395e-06
7.8747991e-09
1.0699715e-06
3.847045e-08
1.016915e-06
6.8958612e-08
9.5816504e-07
9.9205158e-08
8.9385825e-07
1.2907331e-07
8.2416002e-07
1.5844228e-07
7.4928082e-07
1.8717277e-07
6.6942704e-07
2.1516526e-07
5.8484954e-07
2.4229879e-07
4.9575962e-07
2.6848388e-07
4.0251687e-07
2.9356449e-07
3.052828e-07
3.1758504e-07
2.0442728e-07
3.4030456e-07
1.0028658e-07
3.616918e-07
-6.7893962e-09
3.8166123e-07
-1.1654708e-07
4.0031763e-07
-2.2866019e-07
4.1750016e-07
-3.4281612e-07
4.331663e-07
-4.5861791e-07
4.4732103e-07
-5.7576798e-07
4.5992027e-07
-6.9388438e-07
4.7098066e-07
-8.1264478e-07
4.8047983e-07
-9.3171988e-07
4.8842347e-07
-1.0507793e-06
4.9482662e-07
-1.1695033e-06
4.9970563e-07
-1.2875791e-06
5.0308532e-07
-1.4047042e-06
5.0499561e-07
-1.5206076e-06
5.0547013e-07
-1.6349838e-06
5.0456538e-07
-1.7475667e-06
5.0232228e-07
-1.8581036e-06
4.9878943e-07
-1.9663541e-06
4.940214e-07
-2.0720904e-06
4.8807641e-07
-2.1750999e-06
4.810152e-07
-2.2751864e-06
4.7290023e-07
-2.3721647e-06
4.6379827e-07
-2.4658674e-06
4.5377459e-07
4.4289651e-07
2.2006609e-09
-1.8293368e-08
8.8654154e-09
-5.468536e-08
2.0018647e-08
-9.0556441e-08
3.5645152e-08
-1.2566084e-07
5.5648491e-08
-1.5984369e-07
7.9868913e-08
-1.9296953e-07
1.0810563e-07
-2.2489584e-07
1.4012535e-07
-2.5547071e-07
1.7566913e-07
-2.845358e-07
2.1445431e-07
-3.1193006e-07
2.5617622e-07
-3.3749641e-07
3.0050948e-07
-3.6108487e-07
3.4710967e-07
-3.8255592e-07
3.9561461e-07
-4.0178314e-07
4.4564557e-07
-4.1865237e-07
4.9681118e-07
-4.3306583e-07
5.4870931e-07
-4.4494046e-07
6.0092505e-07
-4.5420462e-07
6.5304119e-07
-4.6081174e-07
7.0463895e-07
-4.647233e-07
7.5529084e-07
-4.6591597e-07
8.0457917e-07
-4.6439171e-07
8.5208707e-07
-4.6015802e-07
8.9740367e-07
-4.5324311e-07
9.4013344e-07
-4.4369398e-07
9.7988419e-07
-4.3155781e-07
1.0162869e-06
-4.1692125e-07
1.0489783e-06
-3.9985817e-07
1.0776376e-06
-3.8047452e-07
1.1019322e-06
-3.5886543e-07
1.1215747e-06
-3.3517298e-07
1.1363009e-06
-3.0952405e-07
1.1458561e-06
-2.8204603e-07
1.1500404e-06
-2.5290036e-07
1.1486458e-06
-2.2224464e-07
1.1415165e-06
-1.9022648e-07
1.1285449e-06
-1.5704577e-07
1.1095954e-06
-1.2283738e-07
1.0846171e-06
-8.7799964e-08
1.0535754e-06
-5.2113247e-08
1.0164551e-06
-1.5927731e-08
9.7331761e-07
2.048525e-08
9.241606e-07
5.7031817e-08
8.690855e-07
9.3545549e-08
8.0818605e-07
1.2985806e-07
7.4159598e-07
1.6579522e-07
6.6948478e-07
2.0118451e-07
5.9203778e-07
2.3588929e-07
5.0947384e-07
2.697367e-07
4.2200992e-07
3.0262918e-07
3.2988959e-07
3.3441912e-07
2.3338357e-07
3.649899e-07
1.3271856e-07
3.942295e-07
2.8417161e-08
4.2188643e-07
-7.9327191e-08
4.4804891e-07
-1.9026669e-07
4.726313e-07
-3.040908e-07
4.9548535e-07
-4.2037891e-07
5.1660574e-07
-5.3879741e-07
5.3591867e-07
-6.5901092e-07
5.533798e-07
-7.8065863e-07
5.6896874e-07
-9.0339936e-07
5.8266098e-07
-1.0268728e-06
5.9445413e-07
-1.1507367e-06
6.043437e-07
-1.274652e-06
6.1233881e-07
-1.3982838e-06
6.1845843e-07
-1.5213064e-06
6.2272818e-07
-1.6434031e-06
6.2518198e-07
-1.7642684e-06
6.2586097e-07
-1.8836117e-06
6.2481342e-07
-2.0011439e-06
6.2209753e-07
-2.116594e-06
6.1777243e-07
-2.2297066e-06
6.1190199e-07
-2.3402402e-06
6.0455504e-07
-2.4479683e-06
5.9580446e-07
-2.5526793e-06
5.8572625e-07
-2.6541781e-06
5.7439894e-07
-2.7522834e-06
5.6190366e-07
-2.8468311e-06
5.4832223e-07
5.3373756e-07
2.1763606e-09
-2.0469729e-08
8.7533607e-09
-6.126236e-08
1.9749278e-08
-1.0155236e-07
3.5146635e-08
-1.410582e-07
5.4853052e-08
-1.7955011e-07
7.8714756e-08
-2.1683123e-07
1.0653396e-07
-2.5271505e-07
1.3807785e-07
-2.870146e-07
1.7308457e-07
-3.1954252e-07
2.112671e-07
-3.501126e-07
2.5231493e-07
-3.7854423e-07
2.9589655e-07
-4.046665e-07
3.4166019e-07
-4.2831956e-07
3.8923732e-07
-4.4936027e-07
4.3824287e-07
-4.6765791e-07
4.8827747e-07
-4.8310043e-07
5.3893042e-07
-4.9559341e-07
5.8978688e-07
-5.0506107e-07
6.4041926e-07
-5.1144412e-07
6.9039828e-07
-5.1470232e-07
7.3930232e-07
-5.1482001e-07
7.8669974e-07
-5.1178914e-07
8.3216919e-07
-5.0562746e-07
8.7530664e-07
-4.9638056e-07
9.1569543e-07
-4.8408277e-07
9.5295755e-07
-4.6881993e-07
9.8671197e-07
-4.5067567e-07
1.0166031e-06
-4.297493e-07
1.0422892e-06
-4.0616067e-07
1.0634662e-06
-3.8004234e-07
1.0798287e-06
-3.5153551e-07
1.0911137e-06
-3.2080911e-07
1.0970816e-06
-2.8801389e-07
1.0975172e-06
-2.5333598e-07
1.0922317e-06
-2.1695906e-07
1.0810909e-06
-1.7908574e-07
1.0639508e-06
-1.3990565e-07
1.0407327e-06
-9.9619341e-08
1.011357e-06
-5.8424223e-08
9.7579062e-07
-1.6546863e-08
9.341053e-07
2.5757583e-08
8.862573e-07
6.8333255e-08
8.3230083e-07
1.109883e-07
7.7234805e-07
1.5349832e-07
7.0653743e-07
1.9566868e-07
6.3497053e-07
2.3736213e-07
5.5786874e-07
2.782863e-07
4.7540503e-07
3.18353e-07
3.8780241e-07
3.5733933e-07
2.9532584e-07
3.9510575e-07
1.9820804e-07
4.3153692e-07
9.6772641e-08
4.6642529e-07
-8.6883457e-09
4.9969049e-07
-1.1791329e-07
5.3111138e-07
-2.3056277e-07
5.606984e-07
-3.4626895e-07
5.8833747e-07
-4.6471481e-07
6.139312e-07
-5.855324e-07
6.3742334e-07
-7.0836677e-07
6.5875303e-07
-8.3286264e-07
6.7787567e-07
-9.5865688e-07
6.9476298e-07
-1.0853915e-06
7.0939556e-07
-1.2127055e-06
7.2176818e-07
-1.3402459e-06
7.3188407e-07
-1.4676651e-06
7.3975802e-07
-1.5946221e-06
7.4541546e-07
-1.7207851e-06
7.4889113e-07
-1.845832e-06
7.5022892e-07
-1.9694525e-06
7.4948142e-07
-2.0913483e-06
7.4670926e-07
-2.2112319e-06
7.4198108e-07
-2.3288301e-06
7.3537069e-07
-2.4438853e-06
7.2695722e-07
-2.5561551e-06
7.1682482e-07
-2.6654126e-06
7.050619e-07
-2.7714468e-06
6.9176048e-07
-2.8740632e-06
6.7701534e-07
-2.9730831e-06
6.6092361e-07
-3.0683445e-06
6.4358361e-07
6.2509451e-07
2.2203045e-09
-2.2690033e-08
8.910626e-09
-6.7952682e-08
2.0074038e-08
-1.1271577e-07
3.5679721e-08
-1.5666389e-07
5.5631752e-08
-1.9950214e-07
7.9777277e-08
-2.4097676e-07
1.0791931e-07
-2.8085708e-07
1.398238e-07
-3.1891909e-07
1.7522512e-07
-3.5494383e-07
2.1383014e-07
-3.8871762e-07
2.5532091e-07
-4.2003501e-07
2.9935665e-07
-4.4870224e-07
3.4557727e-07
-4.7454018e-07
3.9360178e-07
-4.9738478e-07
4.4303477e-07
-5.1709091e-07
4.9346603e-07
-5.3353169e-07
5.4447554e-07
-5.4660292e-07
5.9563248e-07
-5.5621802e-07
6.4650307e-07
-5.6231471e-07
6.9664694e-07
-5.648462e-07
7.4562461e-07
-5.6379768e-07
7.9300253e-07
-5.5916705e-07
8.383525e-07
-5.5097744e-07
8.8124148e-07
-5.3926954e-07
9.2127188e-07
-5.2411317e-07
9.5804083e-07
-5.0558888e-07
9.9116144e-07
-4.8379628e-07
1.0202743e-06
-4.5886215e-07
1.0450295e-06
-4.3091591e-07
1.0651182e-06
-4.00131e-07
1.0802386e-06
-3.6665594e-07
1.0901153e-06
-3.3068577e-07
1.0945166e-06
-2.9241518e-07
1.0932202e-06
-2.5203963e-07
1.0860465e-06
-2.0978536e-07
1.072833e-06
-1.6587225e-07
1.0534837e-06
-1.2055631e-07
1.0278773e-06
-7.4012969e-08
9.9598144e-07
-2.652834e-08
9.5779242e-07
2.1642155e-08
9.1324927e-07
7.0300738e-08
8.6243328e-07
1.1914925e-07
8.0540046e-07
1.6802112e-07
7.4224646e-07
2.1665232e-07
6.7308523e-07
2.6482991e-07
5.98182e-07
3.1226535e-07
5.1759422e-07
3.5887408e-07
4.3161352e-07
4.043337e-07
3.4041157e-07
4.4854127e-07
2.443018e-07
4.9121552e-07
1.4347518e-07
5.3236354e-07
3.8312903e-08
5.7158757e-07
-7.0877887e-08
6.0888128e-07
-1.8383447e-07
6.4406796e-07
-3.0019097e-07
6.770549e-07
-4.1959065e-07
7.0773714e-07
-5.4168133e-07
7.3602189e-07
-6.6609507e-07
7.6183707e-07
-7.9246361e-07
7.8512156e-07
-9.2041726e-07
8.0582932e-07
-1.049584e-06
8.2392968e-07
-1.1795937e-06
8.3940528e-07
-1.3100782e-06
8.5225266e-07
-1.4406747e-06
8.6248065e-07
-1.5710272e-06
8.7011052e-07
-1.7007873e-06
8.751755e-07
-1.8296159e-06
8.7771978e-07
-1.957185e-06
8.7779805e-07
-2.0831783e-06
8.7547473e-07
-2.2072924e-06
8.708233e-07
-2.3292367e-06
8.6392543e-07
-2.4487357e-06
8.5486967e-07
-2.5655292e-06
8.4375071e-07
-2.6793731e-06
8.3066872e-07
-2.7900397e-06
8.157285e-07
-2.897318e-06
7.9903873e-07
-3.0010137e-06
7.8071111e-07
-3.1009498e-06
7.6085962e-07
-3.1969657e-06
7.3959957e-07
7.1704704e-07
2.3046478e-09
-2.4994681e-08
9.2326551e-09
-7.4880689e-08
2.0770346e-08
-1.2425346e-07
3.6870185e-08
-1.7276373e-07
5.742786e-08
-2.2005982e-07
8.2287304e-08
-2.658362e-07
1.1124869e-07
-3.0981847e-07
1.4407408e-07
-3.5174448e-07
1.804921e-07
-3.9136185e-07
2.2020177e-07
-4.2842729e-07
2.6287567e-07
-4.6270891e-07
3.0816171e-07
-4.9398827e-07
3.5568617e-07
-5.2206465e-07
4.0505608e-07
-5.4675469e-07
4.5586098e-07
-5.678958e-07
5.0767848e-07
-5.8534919e-07
5.6007023e-07
-5.9899467e-07
6.1259392e-07
-6.087417e-07
6.6479634e-07
-6.1451713e-07
7.1622866e-07
-6.1627852e-07
7.6643305e-07
-6.1400207e-07
8.149614e-07
-6.0769539e-07
8.6136874e-07
-5.9738478e-07
9.0522003e-07
-5.8312083e-07
9.4608889e-07
-5.6498204e-07
9.8356702e-07
-5.4306701e-07
1.0172629e-06
-5.1749217e-07
1.0467951e-06
-4.8839434e-07
1.0718266e-06
-4.5594746e-07
1.0920152e-06
-4.2031953e-07
1.1070632e-06
-3.8170396e-07
1.1166924e-06
-3.4031495e-07
1.1206503e-06
-2.9637314e-07
1.1187396e-06
-2.5012887e-07
1.1107529e-06
-2.0179872e-07
1.0965574e-06
-1.5167668e-07
1.0760118e-06
-1.0001075e-07
1.049041e-06
-4.7042204e-08
1.0155847e-06
6.9280293e-09
9.7560734e-07
6.16195e-08
9.291805e-07
1.1672757e-07
8.762724e-07
1.7205735e-07
8.1699092e-07
2.273026e-07
7.5146253e-07
2.821807e-07
6.7982221e-07
3.3647024e-07
6.0218209e-07
3.8990546e-07
5.1881905e-07
4.4223712e-07
4.2991165e-07
4.9324111e-07
3.3566496e-07
5.4278796e-07
2.3635896e-07
5.9052152e-07
1.3250732e-07
6.3621518e-07
2.4127876e-08
6.7996701e-07
-8.8356352e-08
7.2136551e-07
-2.0461411e-07
7.6032572e-07
-3.2428892e-07
7.967297e-07
-4.4701476e-07
8.3046298e-07
-5.7242085e-07
8.6142798e-07
-7.0012864e-07
8.8954487e-07
-8.2975655e-07
9.1474948e-07
-9.6092137e-07
9.3699414e-07
-1.0932394e-06
9.5624767e-07
-1.2263287e-06
9.724946e-07
-1.3598108e-06
9.8573484e-07
-1.493313e-06
9.959828e-07
-1.6264694e-06
1.003267e-06
-1.7589231e-06
1.0076292e-06
-1.8903272e-06
1.0091239e-06
-2.0203464e-06
1.0078172e-06
-2.1486579e-06
1.0037863e-06
-2.2749527e-06
9.971181e-07
-2.3989361e-06
9.8790887e-07
-2.520329e-06
9.7626255e-07
-2.6388684e-06
9.6229009e-07
-2.7543081e-06
9.4610841e-07
-2.8664191e-06
9.278395e-07
-2.9749898e-06
9.076095e-07
-3.0798265e-06
8.8554774e-07
-3.1807527e-06
8.6178583e-07
-3.2776099e-06
8.3645677e-07
8.0969409e-07
2.4130655e-09
-2.7407747e-08
9.6557552e-09
-8.2123379e-08
2.16998e-08
-1.3629751e-07
3.8481773e-08
-1.895457e-07
5.9886815e-08
-2.4146486e-07
8.5751966e-08
-2.9170135e-07
1.1587112e-07
-3.3993763e-07
1.4999971e-07
-3.8587307e-07
1.8785846e-07
-4.292206e-07
2.2913574e-07
-4.6970457e-07
2.7349276e-07
-5.0706593e-07
3.2056359e-07
-5.4105909e-07
3.6995974e-07
-5.714608e-07
4.2127235e-07
-5.980673e-07
4.7407517e-07
-6.2069863e-07
5.2792587e-07
-6.3919989e-07
5.8237211e-07
-6.5344091e-07
6.3694965e-07
-6.6331925e-07
6.9119067e-07
-6.6875815e-07
7.4462274e-07
-6.6971059e-07
7.9677561e-07
-6.6615494e-07
8.4718169e-07
-6.5810147e-07
8.9537779e-07
-6.4558088e-07
9.4091421e-07
-6.2865725e-07
9.8334976e-07
-6.0741757e-07
1.0222599e-06
-5.8197719e-07
1.0572356e-06
-5.5246785e-07
1.0878944e-06
-5.1905312e-07
1.1138692e-06
-4.8192229e-07
1.1348175e-06
-4.4126782e-07
1.1504397e-06
-3.9732611e-07
1.1604373e-06
-3.5031264e-07
1.1645569e-06
-3.0049273e-07
1.1625913e-06
-2.4816327e-07
1.1543513e-06
-1.9355866e-07
1.1396613e-06
-1.3698675e-07
1.1184016e-06
-7.8750994e-08
1.0905099e-06
-1.9150551e-08
1.0559411e-06
4.1496868e-08
1.0146369e-06
1.0292367e-07
9.666238e-07
1.647407e-07
9.1196281e-07
2.2671835e-07
8.5074837e-07
2.8851703e-07
7.8307833e-07
3.4985075e-07
7.0911306e-07
4.1043551e-07
6.2904552e-07
4.69973e-07
5.4302959e-07
5.2825305e-07
4.5129342e-07
5.8497728e-07
3.5428561e-07
6.3979578e-07
2.520945e-07
6.9271261e-07
1.4503971e-07
7.4326999e-07
3.3451525e-08
7.9155519e-07
-8.2275155e-08
8.3709219e-07
-2.018255e-07
8.7987606e-07
-3.248289e-07
9.1973311e-07
-4.5090517e-07
9.5653926e-07
-5.7966742e-07
9.9019023e-07
-7.107229e-07
1.0206004e-06
-8.4367554e-07
1.0477021e-06
-9.7812778e-07
1.0714464e-06
-1.1136824e-06
1.0918023e-06
-1.2499448e-06
1.1087569e-06
-1.3865242e-06
1.1223143e-06
-1.5230365e-06
1.1324951e-06
-1.6591053e-06
1.1393357e-06
-1.7943637e-06
1.1428876e-06
-1.928456e-06
1.1432161e-06
-2.0610386e-06
1.1403998e-06
-2.1917818e-06
1.1345294e-06
-2.3203703e-06
1.1257066e-06
-2.4465043e-06
1.1140429e-06
-2.5699005e-06
1.0996587e-06
-2.6902926e-06
1.0826823e-06
-2.8074322e-06
1.063248e-06
-2.9210888e-06
1.041496e-06
-3.0310501e-06
1.0175708e-06
-3.1371224e-06
9.9162006e-07
-3.2391304e-06
9.6379392e-07
-3.3369174e-06
9.3424376e-07
9.0312134e-07
2.537725e-09
-2.9945472e-08
1.0147905e-08
-8.9733558e-08
2.2790865e-08
-1.4894047e-07
4.0389467e-08
-2.071443e-07
6.2817575e-08
-2.6389297e-07
8.9902783e-08
-3.1878656e-07
1.2143023e-07
-3.7146508e-07
1.5714597e-07
-4.215888e-07
1.9675918e-07
-4.6883381e-07
2.3994702e-07
-5.1289242e-07
2.8635536e-07
-5.5347427e-07
3.356034e-07
-5.9030713e-07
3.8728542e-07
-6.2314282e-07
4.4097402e-07
-6.5175589e-07
4.9622361e-07
-6.7594821e-07
5.5257176e-07
-6.9554803e-07
6.0954542e-07
-7.1041457e-07
6.6665982e-07
-7.2043365e-07
7.2342536e-07
-7.255237e-07
7.793512e-07
-7.2563642e-07
8.3394351e-07
-7.2074725e-07
8.8671408e-07
-7.1087204e-07
9.3718291e-07
-6.9604972e-07
9.8488043e-07
-6.7635476e-07
1.0293435e-06
-6.5188062e-07
1.0701311e-06
-6.2276484e-07
1.1068251e-06
-5.8916185e-07
1.1390203e-06
-5.5124829e-07
1.166335e-06
-5.0923703e-07
1.1884238e-06
-4.6335658e-07
1.2049592e-06
-4.1386153e-07
1.2156533e-06
-3.6100671e-07
1.2202462e-06
-3.0508568e-07
1.218504e-06
-2.4642107e-07
1.210228e-06
-1.8528258e-07
1.1952727e-06
-1.2203149e-07
1.1735114e-06
-5.6989732e-08
1.1448558e-06
9.5050307e-09
1.1092301e-06
7.7122602e-08
1.0666921e-06
1.4546164e-07
1.0171957e-06
2.1423715e-07
9.6082971e-07
2.8308433e-07
8.9765735e-07
3.516894e-07
8.2783829e-07
4.196698e-07
7.5151628e-07
4.8675752e-07
6.6888775e-07
5.5260153e-07
5.8023386e-07
6.1690694e-07
4.8569047e-07
6.7952066e-07
3.8558408e-07
7.3990217e-07
2.8018161e-07
7.9811509e-07
1.6976328e-07
8.5368832e-07
5.4941146e-08
9.0637732e-07
-6.4212756e-08
9.5624609e-07
-1.8726927e-07
1.0029326e-06
-3.1382644e-07
1.0462903e-06
-4.4348564e-07
1.0861984e-06
-5.7584289e-07
1.1225475e-06
-7.104892e-07
1.1552467e-06
-8.4701238e-07
1.1842253e-06
-9.8499915e-07
1.2094331e-06
-1.1240372e-06
1.2308404e-06
-1.2637173e-06
1.2484371e-06
-1.4036354e-06
1.2622324e-06
-1.5433944e-06
1.2722541e-06
-1.682606e-06
1.2785473e-06
-1.8208924e-06
1.281174e-06
-1.9578878e-06
1.2802115e-06
-2.0932398e-06
1.2757519e-06
-2.2266107e-06
1.2679003e-06
-2.3576783e-06
1.2567742e-06
-2.4861373e-06
1.2425018e-06
-2.6116996e-06
1.2252211e-06
-2.7340955e-06
1.2050782e-06
-2.8530739e-06
1.1822263e-06
-2.9684026e-06
1.1568247e-06
-3.0798688e-06
1.129037e-06
-3.1872793e-06
1.0990305e-06
-3.2904599e-06
1.0669745e-06
-3.3892558e-06
1.0330397e-06
9.9739673e-07
2.6757869e-09
-3.2621259e-08
1.0696391e-08
-9.7754162e-08
2.401353e-08
-1.6225761e-07
4.2538655e-08
-2.2566942e-07
6.6134284e-08
-2.874886e-07
9.4616987e-08
-3.4726926e-07
1.2776089e-07
-4.0460898e-07
1.6529989e-07
-4.591278e-07
2.0693049e-07
-5.1046442e-07
2.523144e-07
-5.5827633e-07
3.010814e-07
-6.0224127e-07
3.5283233e-07
-6.4205806e-07
4.071419e-07
-6.7745239e-07
4.6356242e-07
-7.0817642e-07
5.2162495e-07
-7.3401074e-07
5.8084584e-07
-7.5476893e-07
6.4072742e-07
-7.7029615e-07
7.0076393e-07
-7.8047016e-07
7.6044135e-07
-7.8520112e-07
8.1924242e-07
-7.8443748e-07
8.7665457e-07
-7.781594e-07
9.3216303e-07
-7.663805e-07
9.8526704e-07
-7.4915373e-07
1.0354702e-06
-7.2655789e-07
1.0822989e-06
-6.9870931e-07
1.1252874e-06
-6.6575336e-07
1.1639939e-06
-6.278684e-07
1.1980029e-06
-5.8525725e-07
1.2269192e-06
-5.3815332e-07
1.2503755e-06
-4.868129e-07
1.2680328e-06
-4.3151885e-07
1.2796011e-06
-3.7257496e-07
1.2848045e-06
-3.1028911e-07
1.2833941e-06
-2.4501071e-07
1.2751937e-06
-1.7708215e-07
1.2600318e-06
-1.0686956e-07
1.2378066e-06
-3.4764568e-08
1.2083597e-06
3.8951983e-08
1.1717189e-06
1.1376336e-07
1.1278351e-06
1.8934544e-07
1.0767637e-06
2.6530855e-07
1.0185332e-06
3.4131478e-07
9.5332262e-07
4.1690002e-07
8.8119268e-07
4.9179975e-07
8.0234273e-07
5.6560748e-07
7.1695962e-07
6.3798464e-07
6.2526916e-07
7.0859741e-07
5.2764163e-07
7.7714819e-07
4.2418183e-07
8.4336197e-07
3.1545025e-07
9.0684667e-07
2.016008e-07
9.6753778e-07
8.2962714e-08
1.0250154e-06
-3.9957749e-08
1.0791665e-06
-1.6686529e-07
1.1298401e-06
-2.9731777e-07
1.1767428e-06
-4.3090158e-07
1.2197823e-06
-5.6719648e-07
1.2588424e-06
-7.0577576e-07
1.2938259e-06
-8.4620938e-07
1.3246589e-06
-9.8806655e-07
1.3512903e-06
-1.1309182e-06
1.373692e-06
-1.274339e-06
1.3918579e-06
-1.4179097e-06
1.4058031e-06
-1.5612191e-06
1.4155634e-06
-1.7038656e-06