/*--------------------------------*- C++ -*----------------------------------*\
| =========                 |                                                 |
| \\      /  F ield         | OpenFOAM: The Open Source CFD Toolbox           |
|  \\    /   O peration     | Version:  2106                                  |
|   \\  /    A nd           | Website:  www.openfoam.com                      |
|    \\/     M anipulation  |                                                 |
\*---------------------------------------------------------------------------*/
FoamFile
{
    version     2.0;
    format      ascii;
    arch        "LSB;label=32;scalar=64";
    class       volScalarField;
    location    "0.02";
    object      p;
}
// * * * * * * * * * * * * * * * * * * * * * * * * * * * * * * * * * * * * * //

dimensions      [1 -1 -2 0 0 0 0];

internalField   nonuniform List<scalar> 
32768
(
403.8949
403.8029
403.61168
403.32139
402.9321
402.44343
401.85491
401.16602
400.37612
399.4845
398.49035
397.39276
396.19071
394.8831
393.46872
391.94624
390.31424
388.57117
386.71537
384.74506
382.65833
380.45314
378.12732
375.67855
373.10437
370.40214
367.56909
364.60224
361.49846
358.2544
354.86652
351.33106
347.64401
343.80114
339.79791
335.62954
331.29089
326.77652
322.08061
317.19695
312.11888
306.83927
301.35047
295.64426
289.71175
283.54337
277.12871
270.45648
263.51441
256.28897
248.76574
240.92748
232.75944
224.23434
215.3486
206.04445
196.33456
186.1607
175.42665
164.3328
152.4303
139.9684
127.07219
112.84323
98.013365
83.127242
66.377594
47.05424
28.717804
13.44492
0.88128399
0.62018075
0.59410176
0.55981969
0.5275691
0.50169209
0.48023703
0.46185709
0.44566706
0.43097126
0.41741694
0.40478226
0.39291895
0.38172209
0.37111319
0.361031
0.3514261
0.3422576
0.33349037
0.32509471
0.3170454
0.30931969
0.30189724
0.29475992
0.28789138
0.28127683
0.27490276
0.2687568
0.26282758
0.25710459
0.25157809
0.24623902
0.24107893
0.23608993
0.2312646
0.22659599
0.22207754
0.2177031
0.21346684
0.20936325
0.20538712
0.20153349
0.19779769
0.19417523
0.19066188
0.18725358
0.1839465
0.18073696
0.17762152
0.17459625
0.17165899
0.16880622
0.16603479
0.16334204
0.16072514
0.15818155
0.15570888
0.15330476
0.15096692
0.14869309
0.14648155
0.14432988
0.14223556
0.14019643
0.13821414
0.13628435
0.13440488
0.13257488
0.13079192
0.12905472
0.12736433
0.12571751
0.12411208
0.12254748
0.12102267
0.11953631
0.11808773
0.11667541
0.11529826
0.11395533
0.11264561
0.1113681
0.11012208
0.10890646
0.10772041
0.10656315
0.10543386
0.10433176
0.10325611
0.10220623
0.10118156
0.10018162
0.09920434
0.098250287
0.097318951
0.096409509
0.09552172
0.094655103
0.093807594
0.09297995
0.092171789
0.091382497
0.090611394
0.089858182
0.089122356
0.088403495
0.087701215
0.087015127
0.086344846
0.085690006
0.085050251
0.084425239
0.083814639
0.083218132
0.082635413
0.082066187
0.081510163
0.080967108
0.080436548
0.079918381
0.079412348
0.078918197
0.078435687
0.077964587
0.077504676
0.077055739
0.076617567
0.076189963
0.075772747
0.075365717
0.074968688
0.074581489
0.074203945
0.073835916
0.073477109
0.073127487
0.0727869
0.072455204
0.072132256
0.071817921
0.071512067
0.071214567
0.0709253
0.070644128
0.070371009
0.070105761
0.069848397
0.069598745
0.069356751
0.069122342
0.068895017
0.068675035
0.068462559
0.068257231
0.06805896
0.067867718
0.067683448
0.067506085
0.06733556
0.067171806
0.067014761
0.066864363
0.066720601
0.066583394
0.0664527
0.066328474
0.066210671
0.066099252
0.065994134
0.065895315
0.065802745
0.065716393
0.06563635
0.065562472
0.065494744
0.065433162
0.065377709
0.065328371
0.065285063
0.065247821
0.065216609
0.065191416
0.065172268
0.065159138
0.065151703
0.06515179
395.24127
395.1494
394.95837
394.66838
394.27939
393.79107
393.20296
392.51454
391.72518
390.83418
389.84071
388.74387
387.54265
386.23594
384.82254
383.30112
381.67025
379.9284
378.0739
376.10498
374.01972
371.8161
369.49194
367.04493
364.47259
361.77232
358.94133
355.97666
352.87517
349.63352
346.24818
342.71538
339.03114
335.1912
331.19107
327.02593
322.69069
318.1799
313.48775
308.60803
303.53409
298.25883
292.77459
287.07316
281.14566
274.98252
268.57336
261.90685
254.97077
247.75136
240.2348
232.40169
224.24258
215.71702
206.84742
197.53649
187.84353
177.67236
166.91569
155.83519
143.91404
131.37768
118.37216
104.18983
89.053881
73.449141
56.326052
37.503715
18.388762
0.38424091
0.5008323
0.533972
0.54333097
0.52373196
0.5037525
0.48413335
0.46593321
0.449263
0.43386268
0.41957974
0.40625452
0.39375599
0.38198027
0.37084401
0.36027967
0.35023183
0.34065434
0.33150822
0.32276001
0.31438083
0.30634558
0.29863202
0.29122024
0.28409239
0.27723232
0.2706254
0.26425824
0.25811858
0.25219511
0.24647741
0.24095578
0.23562121
0.2304653
0.22548018
0.22065846
0.21599323
0.21147795
0.20710647
0.20287299
0.19877202
0.19479836
0.19094707
0.18721347
0.18359309
0.1800817
0.17667525
0.17336986
0.17016178
0.16704748
0.16402317
0.16108794
0.15823694
0.15546707
0.15277571
0.15016004
0.14761758
0.14514597
0.14274277
0.14040567
0.13813214
0.13592188
0.13377169
0.13167906
0.12964325
0.1276602
0.12573008
0.12385144
0.12202277
0.12024071
0.11850552
0.1168144
0.11516754
0.11356203
0.11199759
0.11047304
0.10898678
0.10753888
0.10612725
0.10475061
0.10340804
0.10209853
0.10082104
0.09957566
0.098360653
0.097175064
0.096018165
0.094889199
0.093787402
0.09271202
0.091662294
0.090637499
0.089636876
0.088660702
0.087707399
0.086776427
0.085867292
0.084979315
0.084111898
0.083265455
0.082438538
0.081630892
0.080842117
0.080070963
0.079317699
0.078581935
0.077863196
0.077161052
0.076475103
0.075804962
0.075150258
0.074510634
0.073885749
0.073275274
0.072678892
0.072096302
0.071527227
0.070971408
0.070428591
0.069897995
0.069379811
0.06887383
0.068379752
0.067897318
0.067426292
0.066966456
0.066517589
0.066079482
0.065651941
0.065234803
0.064827853
0.064430905
0.064043795
0.063666378
0.063298497
0.062939654
0.062590008
0.062249443
0.061917781
0.061594871
0.061280572
0.060974747
0.060677259
0.060387976
0.060106781
0.059833719
0.05956852
0.059311231
0.059061625
0.058819577
0.058585011
0.058358096
0.058138563
0.057925862
0.057720401
0.057522111
0.057330882
0.05714663
0.056969281
0.056798764
0.056635006
0.056477941
0.056327547
0.056183815
0.056046659
0.055916
0.055791803
0.055674034
0.05556265
0.055457518
0.055358699
0.055266175
0.055179914
0.055099792
0.055025871
0.05495813
0.054896541
0.05484108
0.054791713
0.05474846
0.054711251
0.054680044
0.054654872
0.05463575
0.054622704
0.054615547
0.05461563
386.67551
386.5836
386.39282
386.10324
385.71481
385.22717
384.63989
383.95243
383.16418
382.27442
381.28235
380.18705
378.98753
377.68267
376.27127
374.75202
373.12348
371.38411
369.53228
367.56619
365.48396
363.28354
360.96277
358.51935
355.95081
353.25454
350.42777
347.46755
344.37073
341.13401
337.75384
334.22648
330.54794
326.714
322.72017
318.56164
314.23333
309.72982
305.04529
300.17357
295.10803
289.84156
284.36654
278.67475
272.75735
266.60476
260.2066
253.55155
246.62735
239.42019
231.91616
224.09579
215.94932
207.43666
198.57963
189.27994
179.59992
169.42464
158.676
147.55543
135.61208
123.04149
109.83329
95.577038
80.106091
63.851238
45.98542
25.929918
2.6855338
0.55376834
0.43781708
0.4977535
0.50415931
0.49498264
0.48286851
0.46681584
0.45066599
0.43521765
0.42062806
0.4068952
0.39395466
0.38173553
0.3701692
0.35919428
0.34875743
0.3388126
0.32931996
0.32024493
0.31155723
0.30323026
0.29524046
0.28756681
0.28019039
0.27309409
0.26626238
0.25968108
0.2533372
0.24721878
0.24131479
0.23561501
0.23010993
0.2247907
0.21964903
0.21467717
0.20986783
0.20521418
0.20070975
0.19634848
0.1921246
0.18803267
0.18406755
0.18022433
0.17649836
0.17288522
0.1693807
0.1659808
0.1626817
0.15947997
0.15637213
0.15335674
0.1504245
0.1475765
0.14481061
0.14212356
0.13951186
0.13697335
0.13450565
0.13210645
0.12977343
0.12750502
0.12529705
0.12314962
0.12105924
0.11902549
0.11704498
0.11511721
0.11324047
0.11141257
0.10963373
0.10790142
0.1062125
0.10456656
0.10296434
0.10140286
0.099880717
0.098396923
0.096950432
0.095540106
0.09416496
0.092824041
0.091516382
0.090241253
0.088996525
0.087782275
0.086597753
0.085442014
0.084314209
0.083213555
0.082139301
0.081090696
0.080067022
0.079067435
0.078092141
0.07713973
0.076209639
0.07530132
0.074414206
0.073547573
0.072701535
0.071874867
0.071067797
0.070279204
0.069509399
0.068757279
0.068022293
0.067304221
0.066602692
0.065917325
0.065247739
0.064593568
0.063954456
0.063330063
0.062720059
0.062124124
0.061541945
0.060973204
0.060417555
0.059874694
0.059344882
0.058827355
0.058321834
0.057828138
0.057346055
0.056875362
0.056415848
0.055967294
0.055529498
0.055102245
0.054685385
0.054278681
0.053881961
0.053495032
0.05311768
0.052749729
0.05239138
0.052042136
0.051701843
0.051370405
0.051047703
0.050733606
0.050427987
0.050130742
0.049841793
0.049561085
0.049288013
0.04902296
0.048765615
0.048516003
0.048274012
0.048039502
0.047812554
0.047592904
0.047380533
0.047175318
0.046977187
0.046786079
0.04660193
0.046424673
0.046254248
0.046090605
0.045933712
0.045783515
0.045639751
0.045502567
0.04537193
0.045247757
0.045129979
0.045018552
0.044913544
0.044814818
0.044722351
0.044636127
0.044556065
0.044482199
0.044414508
0.044352964
0.044297528
0.044248176
0.044204909
0.044167681
0.044136514
0.044111376
0.044092228
0.044079147
0.044072025
0.04407185
378.19685
378.10509
377.9147
377.62573
377.23812
376.75151
376.16547
375.47947
374.69289
373.80501
372.81505
371.72208
370.52511
369.22305
367.81467
366.29868
364.67365
362.93805
361.09023
359.12843
357.05075
354.85517
352.53952
350.10152
347.5387
344.84848
342.02807
339.07455
335.9848
332.75549
329.38313
325.86397
322.19405
318.36915
314.3848
310.23623
305.91837
301.42582
296.75279
291.89312
286.84022
281.58699
276.12584
270.44859
264.54639
258.4097
252.02812
245.39034
238.48408
231.29547
223.81052
216.00957
207.88296
199.3892
190.5533
181.26821
171.60984
161.43971
150.69429
139.56788
127.576
114.95504
101.63788
87.172275
71.241337
54.493859
36.210244
13.172308
-0.84534523
0.49345556
0.47394199
0.47909294
0.47543555
0.4698653
0.45978076
0.44671742
0.43298653
0.41923959
0.40582091
0.39290517
0.38055207
0.36876695
0.3575304
0.34681275
0.33658136
0.32680401
0.31745036
0.30849244
0.2999048
0.2916643
0.28374998
0.27614279
0.26882534
0.26178175
0.25499744
0.24845901
0.24215411
0.23607128
0.23019993
0.22453018
0.21905284
0.21375931
0.20864151
0.20369188
0.1989033
0.19426907
0.18978285
0.18543868
0.18123089
0.17715413
0.17320332
0.16937363
0.16566046
0.16205944
0.15856642
0.15517741
0.15188864
0.14869641
0.1455972
0.14258698
0.13966526
0.13682737
0.13406992
0.13139119
0.12878628
0.1262542
0.12379289
0.12139984
0.11907267
0.11680981
0.11460674
0.11246261
0.11037793
0.10834844
0.10637394
0.1044515
0.10257943
0.10075629
0.098980889
0.097251424
0.095566438
0.093924454
0.092325589
0.090767415
0.089248723
0.087769275
0.086324707
0.084916513
0.083543887
0.082205494
0.080900284
0.079627572
0.078385129
0.077173098
0.075990738
0.074837079
0.073711281
0.072612569
0.071540202
0.070493474
0.069471663
0.068474111
0.067500116
0.06654906
0.065620284
0.064713189
0.063827954
0.06296361
0.062118863
0.061294222
0.060487509
0.05969956
0.058930699
0.058179761
0.057445618
0.05672844
0.056027879
0.05534347
0.054674813
0.054021538
0.053383293
0.052759736
0.052150539
0.051555385
0.050973963
0.050405974
0.049851142
0.049309165
0.048779836
0.048262822
0.047757886
0.047264777
0.046783263
0.046313119
0.045854153
0.04540612
0.044968773
0.044541891
0.044125599
0.04371941
0.043323134
0.042936634
0.042559758
0.042192328
0.041834231
0.041485267
0.041145306
0.040814206
0.040491833
0.040178053
0.039872731
0.039575736
0.039286918
0.039006159
0.03873359
0.038468902
0.03821191
0.037962616
0.037720975
0.037486933
0.037259959
0.03704035
0.036828164
0.036623144
0.036425195
0.036234259
0.036050272
0.035873168
0.035702885
0.035539361
0.035382526
0.035232323
0.035088817
0.034951837
0.034821331
0.034697264
0.034579595
0.03446829
0.03436333
0.034264663
0.034172251
0.034086061
0.03400611
0.033932333
0.033864714
0.033803232
0.03374784
0.033698532
0.033655276
0.03361807
0.033586914
0.033561785
0.033542672
0.033529605
0.033522531
0.033522319
369.80504
369.71351
369.52365
369.2355
368.84898
368.36374
367.77935
367.09529
366.31094
365.42558
364.43843
363.34857
362.15502
360.85668
359.45234
357.94071
356.32037
354.58979
352.74735
350.79126
348.71966
346.53054
344.22173
341.79096
339.23578
336.55362
333.74172
330.79715
327.71682
324.49743
321.13548
317.62726
313.96883
310.156
306.18432
302.04905
297.74514
293.26722
288.60954
283.76597
278.72994
273.49442
268.05182
262.39401
256.51217
250.39677
244.03746
237.42292
230.54086
223.37743
215.91844
208.14444
200.04486
191.57924
182.7705
173.51152
163.88234
153.72671
143.00725
131.87527
119.87191
107.22636
93.848787
79.202457
62.917392
46.141109
26.242387
-3.58135
0.7351096
0.43467079
0.44556826
0.45233354
0.45101931
0.44714988
0.43804793
0.42687401
0.41478717
0.40237933
0.390028
0.37794624
0.3662438
0.35497002
0.34413992
0.33374978
0.32378612
0.3142307
0.30506349
0.29626414
0.28781287
0.27969084
0.27188035
0.2643649
0.25712908
0.2501586
0.24344016
0.2369614
0.23071078
0.22467759
0.21885179
0.213224
0.20778543
0.20252783
0.19744342
0.19252491
0.18776539
0.18315835
0.17869763
0.17437741
0.17019217
0.16613666
0.16220591
0.15839517
0.15469994
0.15111591
0.147639
0.14426528
0.14099103
0.13781258
0.13472659
0.13172891
0.12881916
0.12599244
0.12324562
0.12057624
0.11798181
0.11545978
0.11300771
0.11062324
0.10830405
0.10604746
0.10385315
0.10171731
0.0996399
0.097617231
0.095649235
0.093733019
0.091866897
0.090049371
0.088279017
0.086553534
0.084875076
0.083239721
0.081644994
0.080090717
0.078575885
0.077099284
0.075659679
0.07425603
0.072887306
0.071552471
0.070250469
0.068980186
0.067741678
0.066533276
0.065354071
0.06420336
0.063080387
0.061984397
0.060914662
0.059870532
0.058851412
0.057857064
0.056884709
0.055935532
0.05500916
0.054105126
0.053221014
0.052357911
0.051514456
0.050690651
0.049886586
0.049101249
0.048333624
0.047583727
0.046851233
0.046135636
0.045436518
0.044753473
0.044086127
0.043434117
0.042797091
0.042174713
0.041566656
0.040972603
0.040392249
0.039825297
0.039271462
0.038730459
0.038202046
0.037685934
0.037181866
0.036689591
0.036208878
0.035739491
0.035281319
0.034834067
0.034397561
0.033971659
0.033555759
0.033150039
0.032754331
0.032368412
0.031992101
0.031625226
0.03126765
0.030919202
0.030579741
0.030249127
0.029927224
0.029613898
0.029309004
0.029012421
0.028724013
0.02844366
0.028171486
0.027907193
0.027650488
0.027401469
0.027160031
0.026926054
0.026699617
0.026480453
0.026268537
0.026063764
0.025866065
0.025675371
0.025491615
0.025314733
0.025144663
0.024981342
0.024824702
0.024674686
0.024531351
0.024394531
0.024264178
0.024140254
0.024022724
0.023911551
0.023806707
0.023708154
0.023615858
0.023529786
0.023449925
0.023376231
0.023308672
0.023247226
0.023191935
0.023142709
0.023099481
0.023062303
0.023031175
0.023006078
0.022987008
0.022973965
0.022966916
0.022966685
361.4999
361.40868
361.21949
360.93234
360.54719
360.06367
359.48135
358.79971
358.01814
357.13593
356.15229
355.06633
353.87705
352.58336
351.18407
349.67789
348.06341
346.33912
344.50338
342.55445
340.49045
338.30939
336.00913
333.5874
331.04178
328.3697
325.56842
322.63505
319.56649
316.35949
313.01057
309.51603
305.87198
302.07424
298.1184
293.99975
289.71329
285.25368
280.61521
275.7918
270.77692
265.56357
260.14425
254.51083
248.65458
242.56601
236.23479
229.64967
222.79835
215.66704
208.24142
200.50236
192.43825
184.0103
175.23797
166.01731
156.42782
146.30429
135.62769
124.51737
112.53041
99.918107
86.569956
71.822859
55.518384
39.649107
19.116836
-2.2995572
0.47867783
0.44077649
0.43698304
0.43440527
0.43056078
0.42538596
0.41691841
0.4069544
0.39611717
0.38485584
0.3734896
0.3622268
0.3511961
0.34047209
0.33009383
0.3200778
0.31042667
0.3011349
0.29219226
0.28358601
0.27530227
0.26732679
0.25964549
0.25224471
0.24511133
0.2382329
0.23159762
0.22519433
0.21901256
0.21304239
0.20727451
0.20170013
0.19631097
0.1910992
0.18605742
0.18117865
0.17645627
0.17188401
0.16745592
0.16316637
0.15901
0.1549817
0.15107664
0.14729019
0.14361795
0.14005571
0.13659946
0.13324537
0.12998979
0.12682925
0.12376045
0.12078095
0.11788544
0.11507206
0.11233849
0.10968026
0.10709972
0.10459092
0.10215081
0.099777587
0.097469266
0.095223712
0.093039364
0.09091439
0.088845361
0.086832009
0.084871119
0.082962076
0.081103441
0.079293397
0.07753049
0.075813158
0.074140128
0.072510038
0.070921378
0.069372945
0.067863553
0.066391737
0.064957762
0.063559454
0.062195663
0.060865513
0.059568102
0.058302466
0.057067921
0.055863394
0.054688044
0.053541075
0.052421712
0.051329198
0.050262805
0.049221832
0.048205564
0.047213382
0.046244548
0.045298497
0.044374552
0.043472048
0.042591032
0.041730363
0.040890053
0.040069116
0.039267091
0.038483553
0.037717842
0.036969456
0.036239413
0.035525974
0.03482873
0.034147442
0.033481783
0.032831398
0.032195943
0.031575082
0.030968492
0.030375858
0.029796878
0.029231256
0.028678707
0.028138952
0.027611735
0.027096785
0.02659384
0.026102643
0.025622929
0.025154436
0.024697335
0.024251077
0.023815484
0.023390448
0.022975395
0.022570492
0.022175572
0.021790416
0.021414843
0.021048687
0.020691799
0.020344021
0.020005207
0.01967522
0.019353925
0.019041194
0.018736841
0.018440801
0.018152975
0.017873258
0.017601339
0.017337254
0.017081134
0.016832636
0.016591642
0.016358075
0.016132019
0.015913229
0.015701651
0.015497208
0.015299832
0.015109452
0.014926
0.014749407
0.014579614
0.014416563
0.014260212
0.014110511
0.013967321
0.013830667
0.0137005
0.013576761
0.013459406
0.013348401
0.013243717
0.013145318
0.013053171
0.01296724
0.012887501
0.012813921
0.012746479
0.012685147
0.012629885
0.012580688
0.012537537
0.012500429
0.012469358
0.012444313
0.012425278
0.012412262
0.012405225
0.012404983
353.28117
353.19034
353.00194
352.71601
352.33249
351.85102
351.27118
350.59245
349.81422
348.93579
347.95636
346.87506
345.6909
344.40279
343.00956
341.50992
339.90246
338.1857
336.358
334.41765
332.36277
330.19138
327.90137
325.49048
322.95631
320.29632
317.50778
314.58782
311.53339
308.34124
305.00793
301.52981
297.90299
294.12335
290.18652
286.08782
281.8223
277.38466
272.76927
267.97007
262.98061
257.79395
252.40264
246.79865
240.97329
234.91715
228.62
222.07064
215.25686
208.16497
200.78058
193.08504
185.06569
176.68605
167.961
158.79306
149.25655
139.1857
128.57647
117.51685
105.59091
93.084376
79.843251
65.118369
49.172016
34.257307
12.894832
-0.53085694
0.46008291
0.4438515
0.42610813
0.41814367
0.41159215
0.40492551
0.39660015
0.38732268
0.37736317
0.36700258
0.35647576
0.34595804
0.33557203
0.32539887
0.3154892
0.3058721
0.29656188
0.28756301
0.2788736
0.27048776
0.26239714
0.25459199
0.24706184
0.23979598
0.23278371
0.22601453
0.21947827
0.21316515
0.20706578
0.20117123
0.19547297
0.1899629
0.1846333
0.17947685
0.17448658
0.16965589
0.16497846
0.16044833
0.1560598
0.15180744
0.14768609
0.14369084
0.13981699
0.13606005
0.13241575
0.12888
0.12544889
0.12211869
0.11888583
0.11574693
0.11269864
0.109738
0.10686137
0.10406633
0.10135033
0.098711094
0.096144659
0.093649338
0.091223083
0.088863421
0.086568155
0.084335181
0.082162578
0.080048508
0.077990719
0.075988289
0.074037629
0.072138356
0.070289128
0.068488232
0.066734153
0.065025795
0.063360279
0.061736953
0.06015581
0.058614681
0.057112179
0.055646951
0.054219304
0.052827099
0.051469204
0.050144749
0.048852835
0.047592521
0.046363013
0.045163376
0.04399276
0.04285036
0.041735399
0.040647126
0.039584809
0.038547717
0.037535132
0.036546265
0.035581262
0.034638854
0.033718404
0.032819399
0.031941429
0.031083824
0.030246291
0.02942828
0.028628774
0.027847761
0.02708488
0.026339698
0.025611364
0.024899798
0.024204656
0.023525471
0.022861855
0.022213449
0.021579909
0.020960902
0.020356104
0.019765204
0.0191879
0.018623901
0.018072921
0.017534686
0.017008935
0.016495405
0.015993841
0.015503998
0.015025638
0.014558541
0.014102475
0.013657239
0.013222601
0.012798344
0.012384562
0.01198081
0.0115869
0.011202693
0.010828029
0.010462751
0.010106707
0.0097597421
0.0094217123
0.0090924847
0.0087719455
0.0084599861
0.0081562629
0.0078608467
0.0075736255
0.0072944667
0.0070231863
0.0067597112
0.0065041491
0.0062562008
0.0060158094
0.005782933
0.0055571463
0.0053386805
0.0051275168
0.0049234916
0.0047265199
0.0045365275
0.0043534441
0.0041772023
0.004007741
0.0038450056
0.0036889439
0.0035395058
0.0033966085
0.0032602243
0.0031303008
0.0030067915
0.0028896572
0.0027788645
0.0026743817
0.0025761724
0.0024842003
0.0023984316
0.0023188383
0.0022453928
0.0021780689
0.0021168389
0.0020616656
0.0020125454
0.0019694871
0.0019324593
0.0019014506
0.0018764542
0.0018574628
0.0018444844
0.0018374646
0.0018372177
345.14857
345.05818
344.87071
344.5862
344.20458
343.7255
343.14855
342.4732
341.69885
340.82482
339.8503
338.77444
337.59624
336.31463
334.92845
333.43642
331.83715
330.12915
328.31083
326.38046
324.3362
322.17608
319.89801
317.49974
314.97892
312.333
309.5593
306.65497
303.61699
300.44215
297.12703
293.66803
290.06129
286.30275
282.38807
278.31263
274.07153
269.65953
265.07106
260.30014
255.34038
250.18493
244.82641
239.2569
233.4678
227.44981
221.19282
214.68575
207.91652
200.87163
193.53675
185.89378
177.92929
169.60927
160.94416
151.84417
142.37673
132.38135
121.86516
110.89109
99.071568
86.731475
73.669316
59.062623
43.750626
29.034361
6.1844023
0.42531187
0.43682276
0.4321131
0.41040833
0.40008946
0.39232434
0.38485246
0.37666518
0.36787466
0.35857973
0.348945
0.3391332
0.32928158
0.31949656
0.30985578
0.30041306
0.29120379
0.28224961
0.27356217
0.26514607
0.25700109
0.24912372
0.24150829
0.23414776
0.22703424
0.22015943
0.21351481
0.20709191
0.20088232
0.19487788
0.18907063
0.18345293
0.1780174
0.17275697
0.16766485
0.16273457
0.15795991
0.15333495
0.14885402
0.14451172
0.14030288
0.13622254
0.13226599
0.12842871
0.12470638
0.12109486
0.11759019
0.11418859
0.11088642
0.10768022
0.10456666
0.10154251
0.098604767
0.095750296
0.092976353
0.090280315
0.08765958
0.085111633
0.08263411
0.080224655
0.077881016
0.075601083
0.073382776
0.071224217
0.069123422
0.067078384
0.065087006
0.063149175
0.061262177
0.05942423
0.057634031
0.055890142
0.054191409
0.052535766
0.050923246
0.049349938
0.047816488
0.046322055
0.044865144
0.043444556
0.042059195
0.040708139
0.039390349
0.03810487
0.036850736
0.035627269
0.034433433
0.033268399
0.032131383
0.031021618
0.029938355
0.028880868
0.027848435
0.026840391
0.025856024
0.024895121
0.023956703
0.023040172
0.022144957
0.021270638
0.020416536
0.019582087
0.018766582
0.017970892
0.017193368
0.016433482
0.015690995
0.014965587
0.014256816
0.013564279
0.012887596
0.012226397
0.01158033
0.010949052
0.010332233
0.0097295514
0.0091406977
0.0085653727
0.0080032862
0.0074541564
0.00691771
0.0063936909
0.0058818387
0.0053819039
0.004893657
0.0044168767
0.0039513992
0.0034966028
0.0030526276
0.0026193023
0.0021963851
0.0017837582
0.001381151
0.00098838356
0.0006052835
0.00023168752
-0.00013256155
-0.00048761501
-0.00083362294
-0.0011707311
-0.0014990846
-0.0018188366
-0.0021301297
-0.002432889
-0.002727425
-0.0030138674
-0.0032922869
-0.0035627786
-0.0038254188
-0.0040804732
-0.0043279028
-0.0045678181
-0.0048003398
-0.0050254107
-0.0052432659
-0.0054538545
-0.0056573604
-0.0058538543
-0.0060433941
-0.0062260453
-0.0064018746
-0.0065709425
-0.0067333047
-0.0068890145
-0.0070381248
-0.0071806953
-0.0073167727
-0.0074464053
-0.0075696358
-0.0076865023
-0.0077970407
-0.007901286
-0.0079992768
-0.0080910488
-0.0081766326
-0.0082560534
-0.0083293378
-0.008396514
-0.0084576108
-0.0085126651
-0.008561681
-0.0086046475
-0.0086415961
-0.0086725395
-0.0086974828
-0.0087164246
-0.0087293605
-0.0087363623
-0.0087366095
337.10172
337.01184
336.82543
336.54253
336.16308
335.68673
335.11307
334.44158
333.67167
332.80264
331.83373
330.76405
329.59265
328.31846
326.94032
325.45697
323.86703
322.16904
320.3614
318.44242
316.41026
314.26299
311.99853
309.61467
307.10905
304.47919
301.72241
298.83591
295.81669
292.66158
289.36722
285.93002
282.3462
278.61173
274.72232
270.67344
266.46022
262.07751
257.5198
252.78121
247.85543
242.73571
237.41478
231.88483
226.1374
220.16334
213.95268
207.49455
200.77706
193.78699
186.51019
178.92923
171.03018
162.78164
154.1901
145.1739
135.79328
125.89646
115.49999
104.64547
92.976988
80.851864
68.018578
53.631543
39.049574
23.703891
-1.0621397
0.37006042
0.38924366
0.39557006
0.38761872
0.37972601
0.37237987
0.36483824
0.35690725
0.34854059
0.33978952
0.33075783
0.32155957
0.31229982
0.30306674
0.29392974
0.2849408
0.27613713
0.26754411
0.25917794
0.2510479
0.24315813
0.23550911
0.22809866
0.22092277
0.2139762
0.20725286
0.2007462
0.19444934
0.18835531
0.18245714
0.17674792
0.17122088
0.16586942
0.16068714
0.15566784
0.15080555
0.1460945
0.14152916
0.13710422
0.13281456
0.12865531
0.12462174
0.12070937
0.11691387
0.11323108
0.10965704
0.10618793
0.10282008
0.099550004
0.096374328
0.093289827
0.090293392
0.087382083
0.084552837
0.081802934
0.079129806
0.076530302
0.074003658
0.071546541
0.069156372
0.066831115
0.06456878
0.062367271
0.060224975
0.058139709
0.056109603
0.054132488
0.052208437
0.050334634
0.048509351
0.046731307
0.044999172
0.043311926
0.041666646
0.040062805
0.038500454
0.036977599
0.035492931
0.034046115
0.032633451
0.031255801
0.029912656
0.028602568
0.027324453
0.026077227
0.024860807
0.023673742
0.02251515
0.021384333
0.020280549
0.019203065
0.018151159
0.017124119
0.016121213
0.015141688
0.014185718
0.013252054
0.01233998
0.01144893
0.010578955
0.0097290969
0.0088988757
0.0080879724
0.0072953438
0.006520986
0.0057643303
0.0050249432
0.004302856
0.0035972468
0.0029077011
0.0022338978
0.0015754858
0.00093211399
0.00030344327
-0.00031085401
-0.00091109599
-0.001497591
-0.0020706366
-0.0026305211
-0.0031775219
-0.0037119121
-0.0042339339
-0.0047438536
-0.0052419168
-0.0057283521
-0.0062034233
-0.0066673026
-0.0071204201
-0.0075627872
-0.0079945893
-0.0084160414
-0.0088272587
-0.0092285058
-0.009619959
-0.01000179
-0.01037416
-0.010737225
-0.011091134
-0.011436036
-0.011772074
-0.01209939
-0.012418115
-0.012728378
-0.013030241
-0.013323882
-0.013609472
-0.013887061
-0.014156766
-0.014418666
-0.014672953
-0.014919647
-0.015158864
-0.015390707
-0.015615091
-0.01583226
-0.01604232
-0.016245305
-0.016441275
-0.016630299
-0.016812452
-0.016987803
-0.017156416
-0.017318348
-0.017473651
-0.017622376
-0.017764576
-0.017900299
-0.018029591
-0.018152496
-0.018269054
-0.018379305
-0.018483282
-0.018581025
-0.018672568
-0.018757937
-0.018837155
-0.01891025
-0.018977252
-0.019038194
-0.019093112
-0.019142006
-0.019184867
-0.019221719
-0.019252575
-0.019277449
-0.019296346
-0.019309256
-0.019316243
-0.019316491
329.14021
329.0509
328.86568
328.58459
328.20758
327.7343
327.16433
326.49716
325.73222
324.86882
323.90619
322.84346
321.67969
320.41382
319.0447
317.57108
315.99162
314.30484
312.50919
310.60298
308.58441
306.45156
304.20237
301.83466
299.34611
296.73425
293.99646
291.12996
288.13179
284.99882
281.72774
278.31502
274.75692
271.04947
267.18844
263.16937
258.98747
254.63767
250.11455
245.41232
240.52478
235.4453
230.16676
224.68146
218.98113
213.05679
206.8987
200.49623
193.83777
186.91046
179.70047
172.19113
164.36839
156.20339
147.69945
138.7829
129.50747
119.73163
109.48031
98.778305
87.301837
75.435952
62.873521
48.837154
35.056301
20.090463
-0.51144241
0.37670266
0.36981311
0.37023304
0.3653806
0.35888471
0.35216378
0.34489233
0.33725588
0.32927642
0.32099294
0.31247801
0.3038145
0.29508287
0.28635469
0.27768971
0.26913543
0.26072812
0.25249436
0.24445277
0.23661566
0.22899033
0.22158034
0.21438635
0.20740697
0.20063924
0.19407914
0.18772186
0.18156212
0.17559428
0.16981256
0.16421106
0.15878392
0.15352532
0.14842954
0.14349097
0.13870418
0.13406388
0.12956494
0.12520242
0.12097153
0.11686768
0.11288642
0.10902349
0.10527476
0.1016363
0.09810428
0.094675055
0.091345104
0.088111044
0.08496965
0.081917812
0.07895256
0.076071102
0.073270099
0.070547297
0.067900229
0.065326966
0.062823365
0.060388029
0.058019231
0.055714633
0.053472081
0.051289118
0.049165271
0.047097836
0.045084843
0.043125085
0.041215865
0.039356272
0.037545043
0.035780527
0.03406149
0.032386361
0.030753627
0.029161864
0.027611013
0.026099011
0.024624591
0.023186863
0.02178453
0.020416549
0.019082767
0.017781634
0.016512166
0.015273796
0.014064677
0.012884719
0.011733269
0.010609426
0.0095123906
0.0084414402
0.0073958658
0.0063750146
0.005378055
0.0044045054
0.0034537568
0.0025252202
0.0016184379
0.00073312201
-0.00013271017
-0.00097840556
-0.0018042882
-0.0026108982
-0.0033993427
-0.0041694787
-0.0049222183
-0.0056575379
-0.0063763693
-0.007078728
-0.0077649657
-0.008435524
-0.0090907877
-0.0097311113
-0.010356832
-0.010968276
-0.011565758
-0.012149583
-0.012720049
-0.013277445
-0.013822045
-0.014354131
-0.014873876
-0.015381605
-0.015877552
-0.016361923
-0.016835036
-0.017296964
-0.017748293
-0.018188916
-0.01861903
-0.019038889
-0.019448454
-0.019848127
-0.02023809
-0.020618484
-0.020989465
-0.021351186
-0.021703793
-0.022047435
-0.022382256
-0.022708395
-0.023025982
-0.023335137
-0.023635949
-0.02392854
-0.024213186
-0.024489842
-0.024758649
-0.025019649
-0.0252731
-0.025518967
-0.025757334
-0.025988276
-0.026211982
-0.026428393
-0.026637929
-0.026840348
-0.027035723
-0.027224162
-0.027405754
-0.027580568
-0.027748669
-0.027910113
-0.02806495
-0.028213231
-0.028355006
-0.028490323
-0.02861923
-0.028741772
-0.028857991
-0.028967926
-0.029071596
-0.029169056
-0.029260336
-0.029345461
-0.029424443
-0.029497327
-0.029564149
-0.029624935
-0.029679668
-0.029728398
-0.029771138
-0.029807892
-0.029838662
-0.029863466
-0.029882316
-0.029895198
-0.029902167
-0.029902413
321.26359
321.17491
320.99101
320.71193
320.33761
319.86772
319.30184
318.63947
317.88003
317.02286
316.06718
315.01215
313.85683
312.60017
311.24104
309.77821
308.21034
306.53599
304.75362
302.86155
300.85802
298.74113
296.50885
294.15903
291.68938
289.09746