/*--------------------------------*- C++ -*----------------------------------*\
| =========                 |                                                 |
| \\      /  F ield         | OpenFOAM: The Open Source CFD Toolbox           |
|  \\    /   O peration     | Version:  2106                                  |
|   \\  /    A nd           | Website:  www.openfoam.com                      |
|    \\/     M anipulation  |                                                 |
\*---------------------------------------------------------------------------*/
FoamFile
{
    version     2.0;
    format      ascii;
    arch        "LSB;label=32;scalar=64";
    class       surfaceScalarField;
    location    "0.02";
    object      phi;
}
// * * * * * * * * * * * * * * * * * * * * * * * * * * * * * * * * * * * * * //

dimensions      [0 3 -1 0 0 0 0];

oriented        oriented;

internalField   nonuniform List<scalar> 
65152
(
2.0345968e-08
-2.0345968e-08
4.1144392e-08
-2.0798425e-08
6.1986732e-08
-2.084234e-08
8.2884605e-08
-2.0897873e-08
1.0385216e-07
-2.0967554e-08
1.2490529e-07
-2.1053129e-08
1.4606111e-07
-2.1155822e-08
1.673371e-07
-2.1275993e-08
1.8875109e-07
-2.1413987e-08
2.1032125e-07
-2.1570165e-08
2.3206615e-07
-2.1744899e-08
2.5400475e-07
-2.1938597e-08
2.7615646e-07
-2.2151713e-08
2.9854122e-07
-2.2384752e-08
3.2117949e-07
-2.2638273e-08
3.4409239e-07
-2.2912897e-08
3.6730169e-07
-2.3209308e-08
3.9082996e-07
-2.3528263e-08
4.1470055e-07
-2.3870595e-08
4.3893777e-07
-2.423722e-08
4.6356692e-07
-2.4629147e-08
4.886144e-07
-2.5047483e-08
5.1410785e-07
-2.5493447e-08
5.4007623e-07
-2.596838e-08
5.6654999e-07
-2.6473757e-08
5.9356119e-07
-2.7011202e-08
6.2114369e-07
-2.7582506e-08
6.4933334e-07
-2.8189647e-08
6.7816815e-07
-2.8834808e-08
7.0768856e-07
-2.9520409e-08
7.3793769e-07
-3.0249132e-08
7.6896165e-07
-3.1023956e-08
8.0080985e-07
-3.18482e-08
8.3353541e-07
-3.2725566e-08
8.6719561e-07
-3.3660196e-08
9.0185234e-07
-3.4656735e-08
9.3757275e-07
-3.5720408e-08
9.7442986e-07
-3.685711e-08
1.0125034e-06
-3.8073511e-08
1.0518806e-06
-3.9377189e-08
1.0926573e-06
-4.0776777e-08
1.1349395e-06
-4.2282157e-08
1.1788442e-06
-4.390468e-08
1.2245016e-06
-4.5657445e-08
1.2720573e-06
-4.7555638e-08
1.3216742e-06
-4.9616936e-08
1.3735363e-06
-5.1862092e-08
1.4278515e-06
-5.4315204e-08
1.4848577e-06
-5.7006166e-08
1.5448221e-06
-5.9964431e-08
1.6080704e-06
-6.3248355e-08
1.6749137e-06
-6.6843229e-08
1.74592e-06
-7.1006371e-08
1.8211589e-06
-7.5238816e-08
1.902205e-06
-8.1046176e-08
1.9879036e-06
-8.5698571e-08
2.0817078e-06
-9.38042e-08
2.1831084e-06
-1.0140057e-07
2.2901139e-06
-1.0700549e-07
2.4151281e-06
-1.2501422e-07
2.5422594e-06
-1.2713127e-07
2.6886712e-06
-1.4641189e-07
2.8606695e-06
-1.7199826e-07
3.0322833e-06
-1.7161378e-07
3.2296685e-06
-1.973852e-07
3.4748702e-06
-2.4520175e-07
3.7356139e-06
-2.6074366e-07
3.9679165e-06
-2.3230256e-07
4.1984003e-06
-2.3048389e-07
4.4858894e-06
-2.8748908e-07
4.5839364e-06
-9.8046944e-08
4.1615915e-06
4.2234488e-07
3.4262703e-06
7.3532117e-07
2.7861158e-06
6.4015453e-07
2.3579308e-06
4.2818495e-07
2.0796621e-06
2.7826876e-07
1.8880518e-06
1.9161027e-07
1.745672e-06
1.4237979e-07
1.6323786e-06
1.1329345e-07
1.5376304e-06
9.4748191e-08
1.4558077e-06
8.1822701e-08
1.3835865e-06
7.2221215e-08
1.3188461e-06
6.474042e-08
1.260143e-06
5.87031e-08
1.2064421e-06
5.3700868e-08
1.1569702e-06
4.9471875e-08
1.1111309e-06
4.5839299e-08
1.0684527e-06
4.2678226e-08
1.028555e-06
3.9897647e-08
9.9112488e-07
3.7430165e-08
9.559014e-07
3.5223482e-08
9.2266552e-07
3.3235883e-08
8.9123096e-07
3.1434554e-08
8.6143776e-07
2.9793199e-08
8.3314735e-07
2.8290417e-08
8.0623877e-07
2.6908579e-08
7.8060575e-07
2.5633022e-08
7.561543e-07
2.445144e-08
7.3280088e-07
2.3353425e-08
7.1047077e-07
2.2330107e-08
6.8909689e-07
2.1373885e-08
6.6861869e-07
2.0478198e-08
6.4898133e-07
1.9637357e-08
6.3013493e-07
1.8846401e-08
6.1203395e-07
1.810098e-08
5.9463669e-07
1.7397267e-08
5.7790481e-07
1.6731877e-08
5.6180301e-07
1.6101803e-08
5.4629864e-07
1.5504368e-08
5.3136146e-07
1.4937175e-08
5.1696339e-07
1.4398074e-08
5.0307826e-07
1.3885132e-08
4.8968164e-07
1.3396611e-08
4.7675069e-07
1.2930955e-08
4.6426392e-07
1.2486774e-08
4.5220104e-07
1.2062875e-08
4.4054301e-07
1.1658028e-08
4.2927151e-07
1.12715e-08
4.183981e-07
1.0873417e-08
4.0782447e-07
1.0573626e-08
3.9761632e-07
1.020815e-08
3.8774203e-07
9.8742884e-09
3.7818271e-07
9.5593253e-09
3.6893219e-07
9.2505215e-09
3.5996552e-07
8.9666617e-09
3.512699e-07
8.6956218e-09
3.4283849e-07
8.4314081e-09
3.3466372e-07
8.1747773e-09
3.2673831e-07
7.9254076e-09
3.1902046e-07
7.717846e-09
3.1155498e-07
7.4654867e-09
3.0434357e-07
7.2114043e-09
2.9737082e-07
6.9727539e-09
2.9039348e-07
6.9773404e-09
2.8376589e-07
6.6275876e-09
2.7733147e-07
6.43442e-09
2.710627e-07
6.268772e-09
2.65028e-07
6.0347028e-09
2.5914917e-07
5.8788215e-09
2.5326958e-07
5.8795969e-09
2.476647e-07
5.6048767e-09
2.4225725e-07
5.4074483e-09
2.3696202e-07
5.2952281e-09
2.3179727e-07
5.1647542e-09
2.2676824e-07
5.029028e-09
2.2183825e-07
4.9299921e-09
2.1706085e-07
4.7774021e-09
2.1241553e-07
4.6453185e-09
2.0788948e-07
4.5260532e-09
2.0347748e-07
4.4119969e-09
1.9917577e-07
4.3017099e-09
1.949621e-07
4.2136668e-09
1.9086614e-07
4.0959667e-09
1.8687251e-07
3.9936227e-09
1.8297471e-07
3.8978071e-09
1.7916903e-07
3.8056798e-09
1.7545262e-07
3.7164068e-09
1.7182234e-07
3.6302801e-09
1.6827404e-07
3.5482961e-09
1.6480133e-07
3.4727167e-09
1.6139707e-07
3.4042547e-09
1.5815922e-07
3.237847e-09
1.549125e-07
3.246725e-09
1.5173942e-07
3.1730805e-09
1.4864245e-07
3.0969715e-09
1.4559753e-07
3.0449205e-09
1.4261662e-07
2.9809113e-09
1.3979061e-07
2.8260039e-09
1.3694031e-07
2.8502975e-09
1.3415258e-07
2.7877371e-09
1.3142533e-07
2.7272494e-09
1.2876996e-07
2.6553722e-09
1.2616104e-07
2.6089122e-09
1.2360534e-07
2.555702e-09
1.2109852e-07
2.5068243e-09
1.1863947e-07
2.4590474e-09
1.1622756e-07
2.4119127e-09
1.1386163e-07
2.3659271e-09
1.1154034e-07
2.3212885e-09
1.0926229e-07
2.2780486e-09
1.070261e-07
2.2361955e-09
1.048304e-07
2.1957027e-09
1.0267385e-07
2.1565468e-09
1.0055513e-07
2.118723e-09
9.8472795e-08
2.0823303e-09
9.6425265e-08
2.0475298e-09
9.4412105e-08
2.0131597e-09
9.2449638e-08
1.9624674e-09
9.050603e-08
1.9436082e-09
8.8591196e-08
1.9148338e-09
8.6707488e-08
1.8837077e-09
8.4854046e-08
1.8534424e-09
8.3029567e-08
1.8244785e-09
8.1233007e-08
1.79656e-09
7.9463795e-08
1.7692117e-09
7.7721019e-08
1.742776e-09
7.6003366e-08
1.7176533e-09
7.430925e-08
1.6941151e-09
7.2639888e-08
1.6693625e-09
7.0993983e-08
1.6459044e-09
6.9370166e-08
1.6238168e-09
6.7767296e-08
1.6028694e-09
6.618549e-08
1.5818058e-09
6.4635555e-08
1.5499348e-09
6.3095396e-08
1.5401594e-09
6.1572607e-08
1.5227885e-09
6.0068795e-08
1.503812e-09
5.8583427e-08
1.4853681e-09
5.7115753e-08
1.4676744e-09
5.5665108e-08
1.4506445e-09
5.4230908e-08
1.4342007e-09
5.2812865e-08
1.4180432e-09
5.1410807e-08
1.4020584e-09
5.0018528e-08
1.3922791e-09
4.8645263e-08
1.3732651e-09
4.7277502e-08
1.3677604e-09
4.592886e-08
1.348641e-09
4.4591745e-08
1.3371149e-09
4.3265154e-08
1.3265905e-09
4.1978498e-08
1.2866562e-09
4.0679319e-08
1.2991798e-09
3.9373732e-08
1.3055873e-09
3.809849e-08
1.2752426e-09
3.6832455e-08
1.2660353e-09
3.5575122e-08
1.2573321e-09
3.4326845e-08
1.2482761e-09
3.3087528e-08
1.2393165e-09
3.1856917e-08
1.2306103e-09
3.0634731e-08
1.2221852e-09
2.9420746e-08
1.2139856e-09
2.8214534e-08
1.2062122e-09
2.7012646e-08
1.201888e-09
2.5820531e-08
1.1921146e-09
2.4634956e-08
1.1855748e-09
2.3455324e-08
1.1796322e-09
2.2281366e-08
1.1739568e-09
2.1113332e-08
1.168034e-09
1.9954243e-08
1.1590888e-09
1.8797199e-08
1.1570448e-09
1.7645206e-08
1.1519933e-09
1.6498489e-08
1.1467178e-09
1.5346144e-08
1.1523458e-09
1.4207342e-08
1.1388014e-09
1.3071464e-08
1.1358776e-09
1.1937966e-08
1.1334979e-09
1.0807486e-08
1.1304786e-09
9.6784523e-09
1.129033e-09
8.5568314e-09
1.1216205e-09
7.4325426e-09
1.124289e-09
6.3119698e-09
1.1205734e-09
5.1925715e-09
1.1193993e-09
4.0717132e-09
1.1208592e-09
2.9565938e-09
1.1151199e-09
1.8466193e-09
1.1099745e-09
7.7997962e-10
1.066639e-09
7.7997855e-10
2.0732841e-08
-4.1078809e-08
4.2054827e-08
-4.212041e-08
6.3415656e-08
-4.220317e-08
8.4824188e-08
-4.2306405e-08
1.0630047e-07
-4.2443838e-08
1.2786305e-07
-4.2615704e-08
1.4952979e-07
-4.2822568e-08
1.7131877e-07
-4.3064967e-08
1.9324826e-07
-4.3343481e-08
2.1533686e-07
-4.3658764e-08
2.376035e-07
-4.4011542e-08
2.6006753e-07
-4.4402625e-08
2.8274874e-07
-4.4832921e-08
3.0566743e-07
-4.5303441e-08
3.2884446e-07
-4.5815309e-08
3.5230133e-07
-4.6369768e-08
3.7606022e-07
-4.6968194e-08
4.0014406e-07
-4.7612105e-08
4.2457664e-07
-4.8303171e-08
4.4938265e-07
-4.904323e-08
4.745878e-07
-4.9834304e-08
5.0021894e-07
-5.0678615e-08
5.263041e-07
-5.1578605e-08
5.5287267e-07
-5.2536959e-08
5.7995555e-07
-5.355663e-08
6.0758522e-07
-5.464087e-08
6.3579597e-07
-5.5793261e-08
6.6462408e-07
-5.7017755e-08
6.9410799e-07
-5.8318719e-08
7.2428856e-07
-5.9700981e-08
7.5520932e-07
-6.1169894e-08
7.8691677e-07
-6.2731398e-08
8.1946067e-07
-6.4392105e-08
8.5289449e-07
-6.6159383e-08
8.8727576e-07
-6.8041468e-08
9.2266661e-07
-7.0047586e-08
9.5913431e-07
-7.2188102e-08
9.9675189e-07
-7.4474693e-08
1.0355989e-06
-7.6920555e-08
1.0757624e-06
-7.954065e-08
1.1173376e-06
-8.2352e-08
1.1604295e-06
-8.5374041e-08
1.2051539e-06
-8.8629054e-08
1.2516391e-06
-9.2142685e-08
1.3000281e-06
-9.594458e-08
1.3504803e-06
-1.0006916e-07
1.4031748e-06
-1.045566e-07
1.4583135e-06
-1.0945391e-07
1.5161241e-06
-1.1481681e-07
1.5768694e-06
-1.2070969e-07
1.6408367e-06
-1.2721566e-07
1.7084022e-06
-1.3440869e-07
1.7798652e-06
-1.4246943e-07
1.8559547e-06
-1.5132825e-07
1.9366159e-06
-1.6170741e-07
2.0236075e-06
-1.7269013e-07
2.1157757e-06
-1.8597243e-07
2.2168177e-06
-2.0244261e-07
2.3238396e-06
-2.140274e-07
2.4429843e-06
-2.4415887e-07
2.5712017e-06
-2.5534864e-07
2.7131392e-06
-2.8834939e-07
2.8752374e-06
-3.3409652e-07
3.0442003e-06
-3.4057664e-07
3.2418969e-06
-3.950818e-07
3.4943839e-06
-4.9768876e-07
3.7742769e-06
-5.406367e-07
4.0520479e-06
-5.1007356e-07
4.3311385e-06
-5.0957448e-07
4.7279359e-06
-6.8428643e-07
4.517571e-06
1.1231789e-07
3.9597293e-06
9.801866e-07
3.4795035e-06
1.215547e-06
3.1397349e-06
9.7992315e-07
2.8771797e-06
6.9074018e-07
2.6547978e-06
5.0065064e-07
2.4657044e-06
3.8070365e-07
2.3038314e-06
3.0425284e-07
2.1642595e-06
2.5286531e-07
2.0428188e-06
2.161889e-07
1.9358702e-06
1.8877131e-07
1.8405622e-06
1.6752922e-07
1.7547302e-06
1.5057234e-07
1.6767332e-06
1.3670014e-07
1.6053138e-06
1.2512024e-07
1.539495e-06
1.1529072e-07
1.4785052e-06
1.068291e-07
1.4217256e-06
9.9457809e-08
1.3686526e-06
9.2970673e-08
1.3188713e-06
8.721139e-08
1.2720359e-06
8.2058928e-08
1.2278539e-06
7.7417923e-08
1.186076e-06
7.3212396e-08
1.1464882e-06
6.9381057e-08
1.1089047e-06
6.587389e-08
1.0731636e-06
6.2649653e-08
1.0391226e-06
5.9674016e-08
1.0066559e-06
5.6918164e-08
9.756516e-07
5.4357721e-08
9.4600978e-07
5.1971923e-08
9.176407e-07
4.9742966e-08
8.904634e-07
4.7655495e-08
8.6440457e-07
4.5696188e-08
8.3939754e-07
4.3853431e-08
8.1538147e-07
4.2117046e-08
7.9230067e-07
4.0478074e-08
7.7010395e-07
3.8928592e-08
7.4874419e-07
3.7461568e-08
7.2817782e-07
3.6070733e-08
7.0836452e-07
3.4750478e-08
6.8926683e-07
3.3495768e-08
6.7084989e-07
3.2302063e-08
6.5308125e-07
3.1165252e-08
6.3593062e-07
3.0081587e-08
6.1936985e-07
2.9047547e-08
6.0337315e-07
2.8059572e-08
5.8791785e-07
2.7113324e-08
5.7299034e-07
2.6199019e-08
5.5859675e-07
2.5267e-08
5.4445975e-07
2.4710623e-08
5.3092922e-07
2.3738687e-08
5.1784325e-07
2.2960256e-08
5.0516526e-07
2.2237311e-08
4.929028e-07
2.151298e-08
4.8101006e-07
2.0859408e-08
4.6947221e-07
2.023347e-08
4.582859e-07
1.9617722e-08
4.474478e-07
1.9012873e-08
4.3697137e-07
1.840184e-08
4.2662035e-07
1.8068863e-08
4.1669918e-07
1.738666e-08
4.0710183e-07
1.6808749e-08
3.9771285e-07
1.6361733e-08
3.8877824e-07
1.5911953e-08
3.7993763e-07
1.5468198e-08
3.7132213e-07
1.5049925e-08
3.6293533e-07
1.4655567e-08
3.5493696e-07
1.403307e-08
3.4700918e-07
1.3806603e-08
3.3944458e-07
1.3444197e-08
3.3194065e-07
1.310881e-08
3.2476917e-07
1.2578931e-08
3.1769177e-07
1.2372619e-08
3.1081113e-07
1.2045403e-08
3.0413912e-07
1.1701029e-08
2.97516e-07
1.1553113e-08
2.9116683e-07
1.1126572e-08
2.8499573e-07
1.0816419e-08
2.7897778e-07
1.0544007e-08
2.731138e-07
1.0275976e-08
2.6741075e-07
1.0004758e-08
2.617383e-07
9.886123e-09
2.5629284e-07
9.5414209e-09
2.5098076e-07
9.3057071e-09
2.4579053e-07
9.0880326e-09
2.4072047e-07
8.8757385e-09
2.3576871e-07
8.6681685e-09
2.3093308e-07
8.4659167e-09
2.2621206e-07
8.2693126e-09
2.2160614e-07
8.0786367e-09
2.1711363e-07
7.8967603e-09
2.1262295e-07
7.7285314e-09
2.0831772e-07
7.5519588e-09
2.041118e-07
7.3789969e-09
1.9999105e-07
7.2177256e-09
1.9596606e-07
7.0699103e-09
1.920338e-07
6.9131652e-09
1.8809281e-07
6.7669978e-09
1.8431328e-07
6.6298223e-09
1.8059642e-07
6.5046006e-09
1.7695141e-07
6.3722644e-09
1.7345432e-07
6.152462e-09
1.6995743e-07
6.1058025e-09
1.6653294e-07
5.9801896e-09
1.6317457e-07
5.865194e-09
1.598805e-07
5.7531103e-09
1.5664995e-07
5.6424667e-09
1.5348092e-07
5.5349568e-09
1.5037126e-07
5.4309463e-09
1.4731895e-07
5.3303654e-09
1.4432205e-07
5.2330946e-09
1.4137869e-07
5.1390568e-09
1.3848698e-07
5.0482637e-09
1.356448e-07
4.9608942e-09
1.3284962e-07
4.8775135e-09
1.3009818e-07
4.798969e-09
1.2739111e-07
4.7202311e-09
1.2478301e-07
4.570566e-09
1.2216753e-07
4.5590872e-09
1.1959182e-07
4.4905463e-09
1.170598e-07
4.4157236e-09
1.1456896e-07
4.3442894e-09
1.1211692e-07
4.2765134e-09
1.0970195e-07
4.2115286e-09
1.0732362e-07
4.1475479e-09
1.0498066e-07
4.0857283e-09
1.0267079e-07
4.0275283e-09
1.0039069e-07
3.9742172e-09
9.8144481e-08
3.9155678e-09
9.5929399e-08
3.8609861e-09
9.3742635e-08
3.8105798e-09
9.1581939e-08
3.7635652e-09
8.9448263e-08
3.7154815e-09
8.7378977e-08
3.6192201e-09
8.5300159e-08
3.6189774e-09
8.3245577e-08
3.5773708e-09
8.1217878e-08
3.5315112e-09
7.9215503e-08
3.4877445e-09
7.7237153e-08
3.4460249e-09
7.5281912e-08
3.4058859e-09
7.3349111e-08
3.3670018e-09
7.1438967e-08
3.3281872e-09
6.955214e-08
3.2888843e-09
6.7662626e-08
3.2817931e-09
6.5814845e-08
3.2210453e-09
6.3961514e-08
3.2210906e-09
6.2147753e-08
3.1624028e-09
6.0350806e-08
3.1340618e-09
5.8568772e-08
3.1086252e-09
5.6772657e-08
3.0827716e-09
5.5014526e-08
3.0573116e-09
5.3318268e-08
3.0018451e-09
5.1587524e-08
3.0059855e-09
4.986924e-08
2.9843185e-09
4.8166808e-08
2.9597634e-09
4.6478603e-08
2.9364803e-09
4.4803335e-08
2.9145834e-09
4.3140168e-08
2.8937767e-09
4.1488573e-08
2.8737808e-09
3.9848287e-08
2.8542715e-09
3.8218796e-08
2.8357035e-09
3.6588944e-08
2.8317389e-09
3.4978061e-08
2.8029976e-09
3.3375391e-08
2.7882437e-09
3.1780125e-08
2.7748973e-09
3.0191753e-08
2.7623287e-09
2.8610703e-08
2.7490842e-09
2.7047547e-08
2.722246e-09
2.5479869e-08
2.7247241e-09
2.3917581e-08
2.7142819e-09
2.2361498e-08
2.7028018e-09
2.082157e-08
2.6922731e-09
1.9276885e-08
2.6834858e-09
1.7737374e-08
2.6753872e-09
1.6203265e-08
2.6676058e-09
1.4673636e-08
2.6601066e-09
1.3147968e-08
2.6547008e-09
1.1619615e-08
2.6499741e-09
1.00996e-08
2.6443048e-09
8.5852993e-09
2.6348752e-09
7.0690162e-09
2.6356836e-09
5.5547907e-09
2.6350854e-09
4.040624e-09
2.6292867e-09
2.5316409e-09
2.6189571e-09
1.0680199e-09
2.530259e-09
1.8479979e-09
2.0708372e-08
-6.1787181e-08
4.1990934e-08
-6.3402972e-08
6.3315463e-08
-6.3527698e-08
8.469019e-08
-6.3681132e-08
1.0613277e-07
-6.3886415e-08
1.2766109e-07
-6.4144031e-08
1.4929302e-07
-6.4454493e-08
1.7104653e-07
-6.4818478e-08
1.9293984e-07
-6.5236795e-08
2.1499146e-07
-6.571038e-08
2.3722022e-07
-6.6240302e-08
2.5964536e-07
-6.6827765e-08
2.8228656e-07
-6.747412e-08
3.0516399e-07
-6.8180876e-08
3.2829839e-07
-6.8949709e-08
3.5171111e-07
-6.9782479e-08
3.7542415e-07
-7.0681239e-08
3.994603e-07
-7.1648252e-08
4.2384314e-07
-7.2686014e-08
4.4859718e-07
-7.3797266e-08
4.737479e-07
-7.4985026e-08
4.9932189e-07
-7.6252605e-08
5.2534693e-07
-7.7603645e-08
5.5185211e-07
-7.9042147e-08
5.7886799e-07
-8.057251e-08
6.064267e-07
-8.2199577e-08
6.3456212e-07
-8.3928679e-08
6.6331006e-07
-8.5765696e-08
6.9270846e-07
-8.7717118e-08
7.227976e-07
-8.9790122e-08
7.5362036e-07
-9.1992655e-08
7.852225e-07
-9.4333535e-08
8.1765296e-07
-9.6822564e-08
8.5096423e-07
-9.9470661e-08
8.8521278e-07
-1.0229002e-07
9.2045948e-07
-1.0529428e-07
9.5677014e-07
-1.0849877e-07
9.9421616e-07
-1.119207e-07
1.0328752e-06
-1.1557955e-07
1.0728318e-06
-1.1949733e-07
1.1141789e-06
-1.2369906e-07
1.1570181e-06
-1.2821326e-07
1.2014616e-06
-1.3307258e-07
1.2476335e-06
-1.3831452e-07
1.2956712e-06
-1.4398231e-07
1.3457281e-06
-1.5012609e-07
1.3979757e-06
-1.5680416e-07
1.4526066e-06
-1.6408477e-07
1.5098376e-06
-1.7204783e-07
1.5699167e-06
-1.8078887e-07
1.6331182e-06
-1.9041715e-07
1.6997867e-06
-2.0107719e-07
1.7702179e-06
-2.1290062e-07
1.845051e-06
-2.2616128e-07
1.9242498e-06
-2.4090622e-07
2.0094985e-06
-2.5793886e-07
2.099686e-06
-2.7615987e-07
2.1976306e-06
-3.0038722e-07
2.3034086e-06
-3.1980544e-07
2.4163314e-06
-3.570817e-07
2.5430671e-06
-3.820843e-07
2.6807751e-06
-4.2605736e-07
2.829296e-06
-4.8261741e-07
3.0042221e-06
-5.1550281e-07
3.2028119e-06
-5.9367154e-07
3.4265881e-06
-7.2146494e-07
3.6811924e-06
-7.9524106e-07
3.9955017e-06
-8.2438289e-07
4.3708079e-06
-8.848806e-07
4.1279002e-06
-4.4137873e-07
3.7649488e-06
4.7526921e-07
3.424395e-06
1.3207404e-06
3.2382294e-06
1.4017126e-06
3.0548138e-06
1.1633387e-06
2.8621353e-06
8.8341869e-07
2.6730306e-06
6.8975534e-07
2.4993261e-06
5.5440815e-07
2.3452335e-06
4.5834545e-07
2.2097358e-06
3.8836301e-07
2.0900559e-06
3.358688e-07
1.9834639e-06
2.9536326e-07
1.8876956e-06
2.6329758e-07
1.8009401e-06
2.3732779e-07
1.7217675e-06
2.1587276e-07
1.6490465e-06
1.9784126e-07
1.581875e-06
1.8246217e-07
1.5195262e-06
1.6917798e-07
1.4614072e-06
1.5757678e-07
1.4070296e-06
1.4734828e-07
1.3559865e-06
1.3825451e-07
1.3079355e-06
1.3010989e-07
1.2625858e-06
1.2276761e-07
1.2196882e-06
1.1611001e-07
1.1790275e-06
1.1004177e-07
1.1404165e-06
1.0448481e-07
1.1036916e-06
9.9374576e-08
1.0687084e-06
9.4657206e-08
1.0353392e-06
9.0287423e-08
1.00347e-06
8.6226867e-08
9.7299913e-07
8.2442823e-08
9.4383488e-07
7.8907211e-08
9.1589459e-07
7.559579e-08
8.8910326e-07
7.2487515e-08
8.6339266e-07
6.9564027e-08
8.3870048e-07
6.6809226e-08
8.1496962e-07
6.4208936e-08
7.921476e-07
6.1750613e-08
7.7018605e-07
5.9423118e-08
7.4904027e-07
5.7216518e-08
7.2866882e-07
5.5121925e-08
7.0903324e-07
5.3131353e-08
6.9009768e-07
5.1237613e-08
6.7182872e-07
4.9434212e-08
6.54195e-07
4.7715314e-08
6.3716681e-07
4.6075732e-08
6.2071508e-07
4.4511305e-08
6.0480878e-07
4.3019619e-08
5.894028e-07
4.1605006e-08
5.743769e-07
4.0292898e-08
5.6032198e-07
3.876554e-08
5.4638723e-07
3.7673441e-08
5.3285904e-07
3.6488448e-08
5.1977329e-07
3.5323058e-08
5.071726e-07
3.4113668e-08
4.9493838e-07
3.3093631e-08
4.830617e-07
3.2110147e-08
4.7154267e-07
3.1136757e-08
4.6036046e-07
3.0195079e-08
4.4947057e-07
2.9291727e-08
4.3910232e-07
2.8437118e-08
4.2885162e-07
2.7637358e-08
4.1902998e-07
2.6630384e-08
4.093493e-07
2.6042413e-08
4.00124e-07
2.5137261e-08
3.9104065e-07
2.4551546e-08
3.8222136e-07
2.3869211e-08
3.736924e-07
2.3184533e-08
3.6523148e-07
2.2493984e-08
3.5711275e-07
2.1925335e-08
3.4938721e-07
2.1169737e-08
3.4177631e-07
2.0719712e-08
3.3417551e-07
2.0179724e-08
3.2691266e-07
1.9635468e-08
3.1985846e-07
1.9099606e-08
3.1298736e-07
1.8572127e-08
3.0630547e-07
1.823501e-08
2.9978577e-07
1.7646264e-08
2.9341828e-07
1.7183915e-08
2.872066e-07
1.6755681e-08
2.8114345e-07
1.6339135e-08
2.7521433e-07
1.5933875e-08
2.6955808e-07
1.5542376e-08
2.6393732e-07
1.5162181e-08
2.5844698e-07
1.4796047e-08
2.5309395e-07
1.4441061e-08
2.4787235e-07
1.409734e-08
2.4277613e-07
1.3764389e-08
2.3780073e-07
1.3441315e-08
2.3294363e-07
1.3126414e-08
2.2820544e-07
1.2816824e-08
2.2358512e-07
1.2517077e-08
2.1897022e-07
1.2343438e-08
2.1454037e-07
1.19818e-08
2.1021446e-07
1.1704908e-08
2.0597775e-07
1.1454437e-08
2.0182923e-07
1.1218433e-08
1.9778543e-07
1.0956969e-08
1.9375636e-07
1.0796063e-08
1.8989167e-07
1.0494517e-08
1.8604186e-07
1.0354405e-08
1.8233232e-07
1.0081809e-08
1.786044e-07
9.8803798e-09
1.7502341e-07
9.6867902e-09
1.7153113e-07
9.4724726e-09
1.6808729e-07
9.3090367e-09
1.6470069e-07
9.1397108e-09
1.6137705e-07
8.966102e-09
1.5811611e-07
8.7958978e-09
1.5491598e-07
8.631078e-09
1.517747e-07
8.471646e-09
1.4869039e-07
8.3173971e-09
1.4566132e-07
8.1681327e-09
1.4268589e-07
8.023693e-09
1.3976283e-07
7.8839524e-09
1.368916e-07
7.7487494e-09
1.3407388e-07
7.6166898e-09
1.3130944e-07
7.4846653e-09
1.2853525e-07
7.3447583e-09
1.2585568e-07
7.2386569e-09
1.2321858e-07
7.1276446e-09
1.2061892e-07
7.0153897e-09
1.1805766e-07
6.9055428e-09
1.1553418e-07
6.7999997e-09
1.1304726e-07
6.6984397e-09
1.1059854e-07
6.5962691e-09
1.0818681e-07
6.4974613e-09
1.0580918e-07
6.4051556e-09
1.0345835e-07
6.3250452e-09
1.0114652e-07
6.2273973e-09
9.8867746e-08
6.1397607e-09
9.6620172e-08
6.0581545e-09
9.4404932e-08
5.9788048e-09
9.222188e-08
5.8985344e-09
9.0028475e-08
5.8126249e-09
8.7897153e-08
5.7502996e-09
8.5790792e-08
5.6837322e-09
8.3706671e-08
5.6156322e-09
8.164579e-08
5.5486256e-09
7.9608086e-08
5.4837286e-09
7.7592764e-08
5.4212076e-09
7.5597661e-08
5.3621041e-09
7.3619246e-08
5.3066018e-09
7.1654946e-08
5.2531845e-09
6.9762529e-08
5.1742102e-09
6.783783e-08
5.1457452e-09
6.5959647e-08
5.0992745e-09
6.4078425e-08
5.0436248e-09
6.2219058e-08
4.9934295e-09
6.0381991e-08
4.9456919e-09
5.8540695e-08
4.9240666e-09
5.6737174e-08
4.8608319e-09
5.4944157e-08
4.7948617e-09
5.3168051e-08
4.7820904e-09
5.1403913e-08
4.7484569e-09
4.9652734e-08
4.7109424e-09
4.7914331e-08
4.6748831e-09
4.6188229e-08
4.6406852e-09
4.4473773e-08
4.6082327e-09
4.2769974e-08
4.5775791e-09
4.1075085e-08
4.5491601e-09
3.9388468e-08
4.5223198e-09
3.773715e-08
4.4830561e-09
3.6070684e-08
4.4694624e-09
3.4414889e-08
4.4440387e-09
3.2770011e-08
4.4197752e-09
3.1134953e-08
4.3973876e-09
2.9508952e-08
4.3750856e-09
2.7879778e-08
4.3514208e-09
2.626744e-08
4.337063e-09
2.4660202e-08
4.3215195e-09
2.3057984e-08
4.3050196e-09
2.1468932e-08
4.2813248e-09
1.9877289e-08
4.2751286e-09
1.82905e-08
4.2621755e-09
1.6708995e-08
4.2491102e-09
1.513346e-08
4.2356407e-09
1.3560467e-08
4.2276942e-09
1.1987295e-08
4.2231469e-09
1.0420796e-08
4.2108044e-09
8.8536769e-09
4.2019949e-09
7.291179e-09
4.1981821e-09
5.7338849e-09
4.1923796e-09
4.1739999e-09
4.1891712e-09
2.6195952e-09
4.173361e-09
1.1101396e-09
4.0397139e-09
2.9581373e-09
2.0661142e-08
-8.2448324e-08
4.1890682e-08
-8.4632512e-08
6.3162441e-08
-8.4799457e-08
8.4484852e-08
-8.5003543e-08
1.0587502e-07
-8.5276581e-08
1.2735045e-07
-8.5619466e-08
1.4892882e-07
-8.6032859e-08
1.7062796e-07
-8.6517623e-08
1.9246597e-07
-8.7074803e-08
2.1446121e-07
-8.7705621e-08
2.3663239e-07
-8.841148e-08
2.589986e-07
-8.9193969e-08
2.8157935e-07
-9.0054871e-08
3.0439466e-07
-9.0996183e-08
3.2746507e-07
-9.2020121e-08
3.5081173e-07
-9.3129143e-08
3.7445646e-07
-9.4325966e-08
3.9842179e-07
-9.5613582e-08
4.2273106e-07
-9.699529e-08
4.4740851e-07
-9.8474714e-08
4.7247932e-07
-1.0005584e-07
4.9796975e-07
-1.0174303e-07
5.2390722e-07
-1.0354111e-07
5.5032042e-07
-1.0545535e-07
5.7723946e-07
-1.0749155e-07
6.0469598e-07
-1.096561e-07
6.3272332e-07
-1.1195601e-07
6.6135666e-07
-1.1439904e-07
6.9063326e-07
-1.1699372e-07
7.2059262e-07
-1.1974949e-07
7.5127675e-07
-1.2267679e-07
7.8273042e-07
-1.257872e-07
8.1500144e-07
-1.2909358e-07
8.4814102e-07
-1.3261025e-07
8.8220417e-07
-1.3635316e-07
9.1725006e-07
-1.4034017e-07
9.5334259e-07
-1.4459129e-07
9.9055089e-07
-1.4912901e-07
1.02895e-06
-1.5397866e-07
1.0686216e-06
-1.5916892e-07
1.1096548e-06
-1.6473228e-07
1.1521473e-06
-1.7070573e-07
1.1962062e-06
-1.7713151e-07
1.2419497e-06
-1.8405804e-07
1.2895085e-06
-1.9154107e-07
1.3390274e-06
-1.99645e-07
1.3906678e-06
-2.0844459e-07
1.4446102e-06
-2.1802711e-07
1.5010566e-06
-2.2849427e-07
1.560236e-06
-2.3996826e-07
1.6224034e-06
-2.5258458e-07
1.6878629e-06
-2.6653672e-07
1.7569167e-06
-2.8195442e-07
1.8300414e-06
-2.9928593e-07
1.9074533e-06
-3.1831812e-07
1.9900953e-06
-3.4058084e-07
2.0779011e-06
-3.6396567e-07
2.171997e-06
-3.9448313e-07
2.2742226e-06
-4.2203111e-07
2.3820076e-06
-4.6486666e-07
2.5021142e-06
-5.0219094e-07
2.6333432e-06
-5.5728637e-07
2.7715053e-06
-6.2077948e-07
2.9379273e-06
-6.8192476e-07
3.1266764e-06
-7.8242071e-07
3.3285775e-06
-9.2336602e-07
3.5616459e-06
-1.0283094e-06
3.8560124e-06
-1.1187494e-06
4.2251296e-06
-1.2539978e-06
3.7487682e-06
3.4982622e-08
3.124756e-06
1.0992815e-06
2.9432971e-06
1.5021993e-06
2.8801643e-06
1.4648455e-06
2.8014094e-06
1.2420936e-06
2.6822401e-06
1.002588e-06
2.5473029e-06
8.2469246e-07
2.4121274e-06
6.8958369e-07
2.2841526e-06
5.863203e-07
2.1659944e-06
5.0652121e-07
2.0579308e-06
4.4393236e-07
1.9592935e-06
3.940006e-07
1.8691107e-06
3.5348039e-07
1.7863803e-06
3.2005816e-07
1.7101805e-06
2.9207251e-07
1.6397046e-06
2.6831719e-07
1.5742621e-06
2.4790469e-07
1.5132675e-06
2.3017256e-07
1.4562252e-06
2.1461909e-07
1.4027147e-06
2.0085882e-07
1.3523777e-06
1.885915e-07
1.3049074e-06
1.7758019e-07
1.2600393e-06
1.6763564e-07
1.2175443e-06
1.5860501e-07
1.1772225e-06
1.503636e-07
1.1388986e-06
1.4280871e-07
1.1024181e-06
1.3585504e-07
1.0676442e-06
1.2943114e-07
1.0344549e-06
1.2347674e-07
1.0027411e-06
1.1794064e-07
9.7240489e-07
1.1277905e-07
9.4335778e-07
1.0795432e-07
9.1551969e-07
1.0343388e-07
8.888178e-07
9.9189408e-08
8.6318567e-07
9.5196153e-08
8.385625e-07
9.1432392e-08
8.1489248e-07
8.7878964e-08
7.9212419e-07
8.4518904e-08
7.7021018e-07
8.1337127e-08
7.4910652e-07
7.8320172e-08
7.2877247e-07
7.5455979e-08
7.0917011e-07
7.2733711e-08
6.9026413e-07
7.0143593e-08
6.7202156e-07
6.7676784e-08
6.5441158e-07
6.53253e-08
6.374054e-07
6.3081905e-08
6.2097654e-07
6.0940171e-08
6.0510179e-07
5.8894365e-08
5.8976766e-07
5.6939135e-08
5.7499711e-07
5.5063452e-08
5.604725e-07
5.3290151e-08
5.4656552e-07
5.1580422e-08
5.3310909e-07
4.9944869e-08
5.2002362e-07
4.8408534e-08
5.0754066e-07
4.6596627e-08
4.9530755e-07
4.5326745e-08
4.834256e-07
4.3992089e-08
4.7190785e-07
4.2654505e-08
4.6073249e-07
4.1370448e-08
4.4986117e-07
4.0163041e-08
4.3953842e-07
3.8759865e-08
4.29413e-07
3.7762784e-08
4.1937057e-07
3.6672814e-08
4.0980372e-07
3.5609265e-08
4.0036621e-07
3.4574769e-08
3.9132618e-07
3.359157e-08
3.8255339e-07
3.2642006e-08
3.740123e-07
3.1725618e-08
3.6567243e-07
3.0833859e-08
3.5758161e-07
3.0016156e-08
3.4972296e-07
2.9028389e-08
3.4209501e-07
2.8347663e-08
3.3452342e-07
2.7751306e-08
3.272634e-07
2.6895489e-08
3.2018645e-07
2.6176554e-08
3.1324372e-07
2.5514865e-08
3.0675761e-07
2.4721117e-08
3.0021092e-07
2.4192955e-08
2.9380959e-07
2.358524e-08
2.8758092e-07
2.2984349e-08
2.8150831e-07
2.2411745e-08
2.7557492e-07
2.186727e-08
2.699148e-07
2.1202495e-08
2.6429243e-07
2.0784553e-08
2.58798e-07
2.0290472e-08
2.5344161e-07
1.9797452e-08
2.4821645e-07
1.9322497e-08
2.4311591e-07
1.8864929e-08
2.3813437e-07
1.8422853e-08
2.3326682e-07
1.7993969e-08
2.2850974e-07
1.7573899e-08
2.2386317e-07
1.7163653e-08
2.1932924e-07
1.6877365e-08
2.1489277e-07
1.6418271e-08
2.1055114e-07
1.6046533e-08
2.0631304e-07
1.569254e-08
2.0209073e-07
1.5440741e-08
1.9800625e-07
1.5041457e-08
1.9407561e-07
1.4726703e-08
1.9013641e-07
1.4433716e-08
1.864338e-07
1.4057008e-08
1.8267881e-07
1.3836801e-08
1.7892044e-07
1.3638746e-08
1.7530662e-07
1.3300619e-08
1.7183682e-07
1.2942269e-08
1.6837616e-07
1.2769697e-08
1.6497916e-07
1.2536709e-08
1.6165014e-07
1.2295116e-08
1.5838534e-07
1.2060699e-08
1.5518179e-07
1.1834636e-08
1.5203715e-07
1.1616282e-08
1.4894948e-07
1.1405071e-08
1.4591702e-07
1.1200588e-08
1.429382e-07
1.1002513e-08
1.4001162e-07
1.0810536e-08
1.3713611e-07
1.0624259e-08
1.3430976e-07
1.044304e-08
1.3152854e-07
1.0265887e-08
1.2878288e-07
1.0090414e-08
1.2609119e-07
9.9303544e-09
1.2344558e-07
9.7732478e-09
1.2084164e-07
9.6193289e-09
1.1827711e-07
9.4700714e-09
1.1575002e-07
9.3270887e-09
1.1325738e-07
9.1910787e-09
1.1080505e-07
9.0485976e-09
1.0839309e-07
8.9094242e-09
1.0602088e-07
8.7773617e-09
1.0364716e-07
8.6987659e-09
1.0133812e-07
8.536437e-09
9.9058761e-08
8.419124e-09
9.6807565e-08
8.3093502e-09
9.4585357e-08
8.201014e-09
9.2389795e-08
8.0940965e-09
9.0214541e-08
7.9878791e-09
8.8073106e-08
7.8917342e-09
8.5959738e-08
7.7971003e-09
8.3871349e-08
7.7040207e-09
8.1806891e-08
7.6130835e-09
7.9766207e-08
7.5244121e-09
7.7749167e-08
7.4382465e-09
7.5754355e-08
7.3569164e-09
7.3782556e-08
7.2784008e-09
7.183306e-08
7.2026812e-09
6.9875417e-08
7.1318541e-09
6.7963239e-08
7.0579237e-09
6.6079095e-08
6.9834193e-09
6.4202089e-08
6.9206304e-09
6.2336216e-08
6.8593023e-09
6.0483276e-08
6.7986307e-09
5.8689162e-08
6.7181795e-09
5.6872238e-08
6.6777553e-09
5.50559e-08
6.6111992e-09
5.3273821e-08
6.5641696e-09
5.1507769e-08
6.5145091e-09
4.9754286e-08
6.4644265e-09
4.8013167e-08
6.4160019e-09
4.6284215e-08
6.3696367e-09
4.4567158e-08
6.3252896e-09
4.2861808e-08
6.2829269e-09
4.1168448e-08
6.2425188e-09
3.9486692e-08
6.2040754e-09
3.7801576e-08
6.1681712e-09
3.613897e-08
6.1320685e-09
3.448483e-08
6.098179e-09
3.2838483e-08
6.0661238e-09
3.1200204e-08
6.0356667e-09
2.9568871e-08
6.0064195e-09
2.7941927e-08
5.9783646e-09
2.6324874e-08
5.9541159e-09
2.4715462e-08
5.9309313e-09
2.3112512e-08
5.9079689e-09
2.1509517e-08
5.8843194e-09
1.9917e-08
5.8676453e-09
1.8328524e-08
5.8506514e-09
1.6743521e-08
5.8341129e-09
1.5164679e-08
5.814483e-09
1.3587457e-08
5.8049163e-09
1.2015012e-08
5.7955925e-09
1.044467e-08
5.7811466e-09
8.8753052e-09
5.7713597e-09
7.3095096e-09
5.7639778e-09
5.7456067e-09
5.7562826e-09
4.1833707e-09
5.7514068e-09
2.6256284e-09
5.7311028e-09
1.1146548e-09
5.5506872e-09
4.0727922e-09
2.0595903e-08
-1.0304423e-07
4.1756404e-08
-1.0579301e-07
6.2958829e-08
-1.0600188e-07
8.4211736e-08
-1.0625645e-07
1.0553201e-07
-1.0659685e-07
1.269369e-07
-1.0702435e-07
1.4844386e-07
-1.0753982e-07
1.7007055e-07
-1.0814432e-07
1.9183488e-07
-1.0883914e-07
2.1375505e-07
-1.0962578e-07
2.3584955e-07
-1.1050599e-07
2.581373e-07
-1.1148171e-07
2.8063759e-07
-1.1255517e-07
3.0337022e-07
-1.1372881e-07