/*--------------------------------*- C++ -*----------------------------------*\
| =========                 |                                                 |
| \\      /  F ield         | OpenFOAM: The Open Source CFD Toolbox           |
|  \\    /   O peration     | Version:  2106                                  |
|   \\  /    A nd           | Website:  www.openfoam.com                      |
|    \\/     M anipulation  |                                                 |
\*---------------------------------------------------------------------------*/
FoamFile
{
    version     2.0;
    format      ascii;
    arch        "LSB;label=32;scalar=64";
    class       volScalarField;
    location    "0.027";
    object      p_rgh;
}
// * * * * * * * * * * * * * * * * * * * * * * * * * * * * * * * * * * * * * //

dimensions      [1 -1 -2 0 0 0 0];

internalField   nonuniform List<scalar> 
16384
(
3.4238845
3.4155885
3.3990168
3.3742103
3.3412301
3.3001573
3.2510931
3.1941582
3.1294926
3.0572553
2.9776237
2.8907934
2.7969774
2.6964058
2.589325
2.4759973
2.3566998
2.2317243
2.1013758
1.9659725
1.8258444
1.6813329
1.5327894
1.3805751
1.2250595
1.0666199
0.90564028
0.74251028
0.57762468
0.41138185
0.24417987
0.076425183
-0.091475403
-0.25912107
-0.42610999
-0.59203993
-0.75651239
-0.919133
-1.0795122
-1.237266
-1.392017
-1.5433954
-1.6910396
-1.8345971
-1.9737256
-2.1080934
-2.2373803
-2.3612785
-2.4794932
-2.5917432
-2.6977615
-2.7972964
-2.8901112
-2.9759857
-3.0547161
-3.1261154
-3.1900142
-3.2462612
-3.2947228
-3.3352843
-3.3678494
-3.392341
-3.408701
-3.4168907
-3.4168907
-3.408701
-3.392341
-3.3678494
-3.3352843
-3.2947228
-3.2462612
-3.1900142
-3.1261154
-3.0547161
-2.9759857
-2.8901112
-2.7972964
-2.6977615
-2.5917432
-2.4794932
-2.3612785
-2.2373803
-2.1080934
-1.9737256
-1.8345971
-1.6910396
-1.5433954
-1.392017
-1.237266
-1.0795122
-0.919133
-0.75651239
-0.59203993
-0.42610999
-0.25912107
-0.091475403
0.076425183
0.24417987
0.41138185
0.57762468
0.74251028
0.90564028
1.0666199
1.2250595
1.3805751
1.5327894
1.6813329
1.8258444
1.9659725
2.1013758
2.2317243
2.3566998
2.4759973
2.589325
2.6964058
2.7969774
2.8907934
2.9776237
3.0572553
3.1294926
3.1941582
3.2510931
3.3001573
3.3412301
3.3742103
3.3990168
3.4155885
3.4238845
3.4333168
3.4249982
3.4083815
3.3835076
3.3504378
3.3092534
3.2600558
3.2029661
3.1381245
3.0656906
2.9858421
2.8987752
2.8047035
2.7038576
2.5964846
2.4828474
2.3632239
2.2379066
2.1072013
1.9714271
1.8309149
1.6860068
1.5370553
1.3844225
1.2284789
1.0696028
0.90817917
0.74459872
0.57925708
0.41255354
0.24488929
0.076670587
-0.091696346
-0.25980937
-0.42726339
-0.59365587
-0.75858744
-0.92166263
-1.0824907
-1.2406867
-1.3958721
-1.5476759
-1.6957356
-1.8396978
-1.9792188
-2.1139663
-2.243619
-2.3678681
-2.4864181
-2.5989868
-2.7053066
-2.8051247
-2.898204
-2.9843234
-3.0632784
-3.1348817
-3.1989632
-3.2553711
-3.3039714
-3.3446491
-3.3773075
-3.4018692
-3.4182762
-3.4264894
-3.4264894
-3.4182762
-3.4018692
-3.3773075
-3.3446491
-3.3039714
-3.2553711
-3.1989632
-3.1348817
-3.0632784
-2.9843234
-2.898204
-2.8051247
-2.7053066
-2.5989868
-2.4864181
-2.3678681
-2.243619
-2.1139663
-1.9792188
-1.8396978
-1.6957356
-1.5476759
-1.3958721
-1.2406867
-1.0824907
-0.92166262
-0.75858744
-0.59365587
-0.42726339
-0.25980937
-0.091696345
0.076670587
0.24488929
0.41255354
0.57925708
0.74459872
0.90817918
1.0696028
1.2284789
1.3844225
1.5370553
1.6860068
1.8309149
1.9714271
2.1072013
2.2379066
2.3632239
2.4828474
2.5964846
2.7038576
2.8047035
2.8987752
2.9858421
3.0656906
3.1381245
3.2029661
3.2600558
3.3092534
3.3504378
3.3835076
3.4083815
3.4249982
3.4333168
3.4507238
3.442363
3.4256622
3.4006623
3.367425
3.326032
3.2765853
3.2192064
3.1540364
3.0812356
3.0009827
2.9134748
2.8189265
2.7175697
2.6096527
2.4954397
2.37521
2.2492575
2.1178897
1.9814271
1.8402023
1.6945592
1.5448521
1.3914448
1.2347097
1.0750269
0.91278332
0.74837169
0.58218952
0.41463818
0.24612172
0.077047136
-0.092178054
-0.2611477
-0.42945528
-0.59669641
-0.76246972
-0.9263777
-1.0880276
-1.2470325
-1.403012
-1.5555931
-1.7044114
-1.8491117
-1.9893487
-2.1247879
-2.2551068
-2.3799948
-2.4991546
-2.6123029
-2.7191703
-2.8195029
-2.9130623
-2.999626
-3.0789887
-3.1509618
-3.2153745
-3.2720739
-3.3209256
-3.3618136
-3.394641
-3.4193299
-3.4358217
-3.4440775
-3.4440775
-3.4358217
-3.4193299
-3.394641
-3.3618136
-3.3209256
-3.2720739
-3.2153745
-3.1509618
-3.0789887
-2.999626
-2.9130623
-2.8195029
-2.7191703
-2.6123029
-2.4991546
-2.3799948
-2.2551068
-2.1247879
-1.9893487
-1.8491117
-1.7044114
-1.5555931
-1.403012
-1.2470325
-1.0880276
-0.92637769
-0.76246972
-0.59669641
-0.42945528
-0.2611477
-0.092178054
0.077047136
0.24612172
0.41463818
0.58218952
0.74837169
0.91278332
1.0750269
1.2347097
1.3914448
1.5448521
1.6945592
1.8402023
1.9814271
2.1178897
2.2492575
2.37521
2.4954397
2.6096527
2.7175697
2.8189265
2.9134748
3.0009827
3.0812356
3.1540364
3.2192064
3.2765853
3.326032
3.367425
3.4006623
3.4256622
3.442363
3.4507238
3.4763148
3.4678919
3.4510669
3.4258811
3.3923966
3.3506959
3.3008815
3.243076
3.1774215
3.1040795
3.0232301
2.9350717
2.8398208
2.7377108
2.6289919
2.5139302
2.3928072
2.2659189
2.1335752
1.9960989
1.853825
1.7071
1.5562807
1.4017337
1.2438341
1.0829648
0.9195156
0.75388204
0.5864646
0.4176676
0.2478983
0.07756619
-0.092918401
-0.26314559
-0.43270613
-0.60119272
-0.76820103
-0.93333061
-1.0961858
-1.2563768
-1.4135202
-1.5672406
-1.7171706
-1.8629522
-2.0042377
-2.1406902
-2.2719844
-2.3978076
-2.5178603
-2.6318566
-2.7395254
-2.8406108
-2.9348723
-3.0220861
-3.1020449
-3.1745588
-3.2394557
-3.2965815
-3.3458005
-3.3869961
-3.4200705
-3.4449452
-3.4615611
-3.469879
-3.469879
-3.4615611
-3.4449452
-3.4200705
-3.3869961
-3.3458005
-3.2965815
-3.2394557
-3.1745588
-3.1020449
-3.0220861
-2.9348723
-2.8406108
-2.7395254
-2.6318566
-2.5178603
-2.3978076
-2.2719844
-2.1406902
-2.0042377
-1.8629522
-1.7171706
-1.5672406
-1.4135202
-1.2563768
-1.0961858
-0.93333061
-0.76820103
-0.60119272
-0.43270613
-0.26314559
-0.092918401
0.077566191
0.2478983
0.4176676
0.5864646
0.75388205
0.9195156
1.0829648
1.2438341
1.4017337
1.5562807
1.7071
1.853825
1.9960989
2.1335752
2.2659189
2.3928072
2.5139302
2.6289919
2.7377108
2.8398208
2.9350717
3.0232301
3.1040795
3.1774215
3.243076
3.3008815
3.3506959
3.3923966
3.4258811
3.4510669
3.4678919
3.4763148
3.5102554
3.5017499
3.4847599
3.4593271
3.4255144
3.3834048
3.3331021
3.27473
3.208432
3.1343713
3.0527297
2.9637077
2.8675237
2.7644135
2.65463
2.5384417
2.4161329
2.2880025
2.1543634
2.0155417
1.8718755
1.7237148
1.5714199
1.4153609
1.2559165
1.0934734
0.92842504
0.76117094
0.59211538
0.42166664
0.25023594
0.078236594
-0.093917163
-0.26581127
-0.43703255
-0.6071698
-0.77581475
-0.94256305
-1.1070152
-1.2687776
-1.4274631
-1.5826925
-1.734095
-1.8813089
-2.0239832
-2.1617774
-2.2943632
-2.4214248
-2.5426594
-2.6577786
-2.7665084
-2.8685903
-2.9637814
-3.0518556
-3.1326035
-3.2058332
-3.2713709
-3.3290609
-3.3787663
-3.4203689
-3.4537702
-3.4788907
-3.4956709
-3.504071
-3.504071
-3.4956709
-3.4788907
-3.4537702
-3.4203689
-3.3787663
-3.3290609
-3.2713709
-3.2058332
-3.1326035
-3.0518556
-2.9637814
-2.8685903
-2.7665084
-2.6577786
-2.5426594
-2.4214248
-2.2943632
-2.1617774
-2.0239832
-1.8813089
-1.734095
-1.5826925
-1.4274631
-1.2687776
-1.1070152
-0.94256305
-0.77581475
-0.6071698
-0.43703255
-0.26581127
-0.093917162
0.078236594
0.25023594
0.42166664
0.59211538
0.76117094
0.92842504
1.0934734
1.2559165
1.4153609
1.5714199
1.7237148
1.8718755
2.0155417
2.1543634
2.2880025
2.4161329
2.5384417
2.65463
2.7644135
2.8675237
2.9637077
3.0527297
3.1343713
3.208432
3.27473
3.3331021
3.3834048
3.4255144
3.4593271
3.4847599
3.5017499
3.5102554
3.552627
3.5440183
3.5268221
3.5010808
3.4668578
3.4242373
3.3733244
3.3142443
3.2471423
3.1721835
3.0895521
2.999451
2.9021013
2.7977417
2.6866281
2.5690324
2.4452424
2.3155605
2.1803036
2.0398015
1.8943966
1.744443
1.5903054
1.4323584
1.2709852
1.1065771
0.93953237
0.77025522
0.59915479
0.42664426
0.25313978
0.079059544
-0.095177288
-0.26915163
-0.44244537
-0.61464238
-0.78532949
-0.95409751
-1.1205422
-1.284265
-1.4448743
-1.6019863
-1.7552256
-1.9042262
-2.0486326
-2.1881005
-2.3222973
-2.4509033
-2.5736121
-2.6901317
-2.8001847
-2.9035093
-2.9998596
-3.0890067
-3.1707385
-3.2448609
-3.3111977
-3.3695913
-3.4199029
-3.4620132
-3.495822
-3.5212491
-3.5382341
-3.5467367
-3.5467367
-3.5382341
-3.5212491
-3.495822
-3.4620132
-3.4199029
-3.3695913
-3.3111977
-3.2448609
-3.1707385
-3.0890067
-2.9998596
-2.9035093
-2.8001847
-2.6901317
-2.5736121
-2.4509033
-2.3222973
-2.1881005
-2.0486326
-1.9042262
-1.7552256
-1.6019863
-1.4448743
-1.284265
-1.1205422
-0.95409751
-0.78532949
-0.61464238
-0.44244537
-0.26915163
-0.095177287
0.079059545
0.25313978
0.42664426
0.59915479
0.77025522
0.93953237
1.1065771
1.2709852
1.4323584
1.5903055
1.744443
1.8943966
2.0398015
2.1803036
2.3155605
2.4452424
2.5690324
2.6866281
2.7977417
2.9021013
2.999451
3.0895521
3.1721835
3.2471423
3.3142443
3.3733244
3.4242373
3.4668578
3.5010808
3.5268221
3.5440183
3.552627
3.6035247
3.594792
3.5773479
3.5512356
3.5165194
3.4732848
3.4216383
3.3617071
3.2936387
3.2176004
3.1337792
3.042381
2.9436302
2.837769
2.7250569
2.6057698
2.4801997
2.3486535
2.2114524
2.0689312
1.9214372
1.7693295
1.612978
1.4527627
1.2890723
1.1223038
0.95286093
0.78115372
0.60759714
0.43261023
0.25661503
0.080035667
-0.096702785
-0.27317526
-0.44895771
-0.6236281
-0.79676739
-0.96796057
-1.1367976
-1.3028743
-1.4657934
-1.6251656
-1.78061
-1.9317556
-2.0782416
-2.2197186
-2.3558493
-2.4863094
-2.6107879
-2.7289885
-2.8406297
-2.945446
-3.0431878
-3.1336228
-3.2165357
-3.2917295
-3.3590255
-3.4182635
-3.4693029
-3.5120224
-3.5463204
-3.5721155
-3.5893463
-3.597972
-3.597972
-3.5893463
-3.5721155
-3.5463204
-3.5120224
-3.4693029
-3.4182635
-3.3590255
-3.2917295
-3.2165357
-3.1336228
-3.0431878
-2.945446
-2.8406297
-2.7289885
-2.6107879
-2.4863093
-2.3558493
-2.2197186
-2.0782416
-1.9317556
-1.78061
-1.6251656
-1.4657934
-1.3028743
-1.1367976
-0.96796057
-0.79676739
-0.6236281
-0.44895771
-0.27317526
-0.096702784
0.080035668
0.25661504
0.43261023
0.60759715
0.78115372
0.95286093
1.1223038
1.2890723
1.4527627
1.612978
1.7693295
1.9214372
2.0689312
2.2114524
2.3486535
2.4801997
2.6057698
2.7250569
2.837769
2.9436302
3.042381
3.1337792
3.2176004
3.2936387
3.3617071
3.4216383
3.4732848
3.5165194
3.5512356
3.5773479
3.594792
3.6035247
3.6630705
3.6541925
3.6364583
3.6099117
3.5746181
3.5306646
3.4781594
3.4172319
3.348032
3.2707302
3.1855163
3.0926
2.9922092
2.8845904
2.7700074
2.6487408
2.5210874
2.3873593
2.2478831
2.1029991
1.9530605
1.7984322
1.6394904
1.4766212
1.3102198
1.1406896
0.96844114
0.79389111
0.61746127
0.4395775
0.26066879
0.081166143
-0.098498392
-0.2778928
-0.45658609
-0.63414932
-0.81015659
-0.98418607
-1.155821
-1.3246505
-1.4902709
-1.6522863
-1.8103096
-1.9639635
-2.1128813
-2.2567078
-2.3951
-2.5277281
-2.654276
-2.7744423
-2.8879408
-2.9945014
-3.0938703
-3.1858112
-3.2701052
-3.3465519
-3.4149693
-3.4751949
-3.5270852
-3.5705171
-3.6053871
-3.6316124
-3.6491307
-3.6579003
-3.6579003
-3.6491307
-3.6316124
-3.6053871
-3.5705171
-3.5270852
-3.4751949
-3.4149693
-3.3465519
-3.2701052
-3.1858112
-3.0938703
-2.9945014
-2.8879408
-2.7744423
-2.654276
-2.5277281
-2.3951
-2.2567078
-2.1128813
-1.9639635
-1.8103096
-1.6522863
-1.4902709
-1.3246505
-1.155821
-0.98418607
-0.81015659
-0.63414932
-0.45658609
-0.2778928
-0.09849839
0.081166145
0.26066879
0.4395775
0.61746127
0.79389111
0.96844115
1.1406896
1.3102198
1.4766212
1.6394904
1.7984322
1.9530605
2.1029991
2.2478831
2.3873593
2.5210874
2.6487408
2.7700074
2.8845904
2.9922092
3.0926
3.1855163
3.2707302
3.348032
3.4172319
3.4781594
3.5306646
3.5746181
3.6099117
3.6364583
3.6541925
3.6630705
3.7314084
3.7223636
3.7042962
3.6772508
3.6412943
3.5965152
3.5430239
3.4809524
3.4104535
3.3317007
3.2448878
3.1502283
3.0479546
2.9383179
2.8215869
2.6980477
2.5680028
2.43177
2.2896821
2.1420859
1.9893412
1.8318198
1.6699048
1.5039896
1.3344767
1.1617771
0.98630888
0.80849643
0.62876933
0.44756134
0.26530935
0.082452327
-0.10056973
-0.28331682
-0.46535
-0.64623241
-0.82553028
-1.002814
-1.177659
-1.3496469
-1.5183665
-1.6834144
-1.8443963
-2.000928
-2.1526358
-2.2991578
-2.4401445
-2.5752599
-2.7041819
-2.8266034
-2.9422327
-3.0507944
-3.15203
-3.2456986
-3.3315771
-3.4094611
-3.4791652
-3.5405236
-3.5933903
-3.6376394
-3.6731657
-3.6998847
-3.7177327
-3.7266674
-3.7266674
-3.7177327
-3.6998847
-3.6731657
-3.6376394
-3.5933903
-3.5405236
-3.4791652
-3.4094611
-3.3315771
-3.2456986
-3.15203
-3.0507944
-2.9422327
-2.8266034
-2.7041819
-2.5752599
-2.4401445
-2.2991578
-2.1526358
-2.000928
-1.8443963
-1.6834144
-1.5183665
-1.3496469
-1.177659
-1.002814
-0.82553028
-0.64623241
-0.46535
-0.28331682
-0.10056973
0.082452329
0.26530935
0.44756135
0.62876933
0.80849643
0.98630888
1.1617771
1.3344767
1.5039896
1.6699048
1.8318198
1.9893412
2.1420859
2.2896821
2.43177
2.5680028
2.6980477
2.8215869
2.9383179
3.0479546
3.1502283
3.2448878
3.3317007
3.4104535
3.4809524
3.5430239
3.5965152
3.6412943
3.6772508
3.7042962
3.7223636
3.7314084
3.8087034
3.7994698
3.7810253
3.7534155
3.7167087
3.6709953
3.6163882
3.553022
3.4810529
3.4006583
3.3120359
3.2154039
3.1109997
2.9990797
2.8799184
2.753808
2.6210571
2.4819906
2.3369481
2.1862837
2.0303646
1.8695704
1.7042923
1.5349316
1.3618994
1.1856149
1.006505
0.82500278
0.64154657
0.45657907
0.2705461
0.083895619
-0.10292336
-0.28946184
-0.47527189
-0.65990769
-0.8429266
-1.0238901
-1.2023651
-1.3779244
-1.5501484
-1.7186254
-1.8829529
-2.0427386
-2.1976012
-2.3471711
-2.4910917
-2.6290197
-2.7606263
-2.8855978
-3.0036366
-3.1144612
-3.2178077
-3.3134299
-3.4011001
-3.4806095
-3.5517687
-3.6144082
-3.6683788
-3.7135522
-3.7498206
-3.7770978
-3.7953187
-3.8044401
-3.8044401
-3.7953187
-3.7770978
-3.7498206
-3.7135522
-3.6683788
-3.6144082
-3.5517687
-3.4806095
-3.4011001
-3.3134299
-3.2178077
-3.1144612
-3.0036365
-2.8855978
-2.7606263
-2.6290197
-2.4910917
-2.3471711
-2.1976012
-2.0427386
-1.8829529
-1.7186254
-1.5501484
-1.3779244
-1.2023651
-1.0238901
-0.8429266
-0.65990769
-0.47527189
-0.28946184
-0.10292336
0.083895621
0.2705461
0.45657907
0.64154658
0.82500278
1.006505
1.1856149
1.3618994
1.5349316
1.7042923
1.8695704
2.0303646
2.1862837
2.3369481
2.4819906
2.6210571
2.753808
2.8799184
2.9990797
3.1109997
3.2154039
3.3120359
3.4006583
3.4810529
3.553022
3.6163882
3.6709953
3.7167087
3.7534155
3.7810253
3.7994698
3.8087034
3.8951421
3.8856973
3.8668309
3.8385895
3.8010431
3.7542843
3.6984286
3.6336139
3.56
3.4777684
3.3871216
3.2882828
3.181495
3.0670207
2.9451407
2.8161539
2.6803763
2.53814
2.3897927
2.2356965
2.0762269
1.9117725
1.742733
1.5695191
1.3925511
1.2122579
1.0290757
0.84344741
0.65582135
0.46665009
0.27638946
0.085497453
-0.10556686
-0.29634441
-0.48637724
-0.67520954
-0.86238871
-1.0474665
-1.2299998
-1.4095521
-1.5856941
-1.7580048
-1.9260728
-2.0894967
-2.2478864
-2.4008641
-2.5480647
-2.6891374
-2.8237455
-2.9515683
-3.0723009
-3.1856557
-3.2913624
-3.3891691
-3.4788426
-3.5601693
-3.6329554
-3.6970274
-3.7522325
-3.7984393
-3.8355375
-3.8634389
-3.8820768
-3.8914069
-3.8914069
-3.8820768
-3.8634389
-3.8355375
-3.7984393
-3.7522325
-3.6970274
-3.6329554
-3.5601693
-3.4788426
-3.3891691
-3.2913624
-3.1856557
-3.0723009
-2.9515683
-2.8237455
-2.6891373
-2.5480647
-2.4008641
-2.2478864
-2.0894966
-1.9260728
-1.7580048
-1.5856941
-1.4095521
-1.2299998
-1.0474665
-0.86238871
-0.67520954
-0.48637724
-0.29634441
-0.10556686
0.085497456
0.27638946
0.46665009
0.65582135
0.84344741
1.0290757
1.2122579
1.3925512
1.5695191
1.742733
1.9117725
2.0762269
2.2356965
2.3897927
2.5381401
2.6803763
2.8161539
2.9451407
3.0670207
3.181495
3.2882828
3.3871216
3.4777684
3.56
3.6336139
3.6984286
3.7542843
3.8010431
3.8385895
3.8668309
3.8856973
3.8951421
3.9909333
3.9812542
3.9619199
3.9329783
3.894501
3.846583
3.7893429
3.722922
3.6474843
3.563216
3.4703247
3.3690393
3.259609
3.1423028
3.0174089
2.8852336
2.7461008
2.600351
2.4483405
2.2904404
2.1270358
1.9585245
1.7853164
1.6078323
1.4265027
1.241767
1.0540721
0.86387177
0.67162519
0.47779594
0.28285093
0.087259273
-0.10850883
-0.30398318
-0.49869469
-0.6921765
-0.88396503
-1.0736011
-1.2606308
-1.444607
-1.6250899
-1.8016483
-1.9738605
-2.1413153
-2.303613
-2.4603664
-2.6112014
-2.7557582
-2.8936921
-3.0246741
-3.1483918
-3.2645501
-3.372872
-3.4730992
-3.5649926
-3.6483332
-3.7229221
-3.7885814
-3.8451545
-3.8925064
-3.9305243
-3.9591173
-3.9782173
-3.9877787
-3.9877787
-3.9782173
-3.9591173
-3.9305243
-3.8925064
-3.8451545
-3.7885814
-3.7229221
-3.6483332
-3.5649926
-3.4730992
-3.372872
-3.26455
-3.1483918
-3.0246741
-2.8936921
-2.7557582
-2.6112014
-2.4603664
-2.303613
-2.1413153
-1.9738605
-1.8016483
-1.6250899
-1.444607
-1.2606308
-1.0736011
-0.88396502
-0.6921765
-0.49869469
-0.30398317
-0.10850882
0.087259276
0.28285093
0.47779594
0.67162519
0.86387178
1.0540721
1.241767
1.4265027
1.6078323
1.7853164
1.9585245
2.1270358
2.2904404
2.4483405
2.600351
2.7461008
2.8852336
3.0174089
3.1423028
3.259609
3.3690393
3.4703247
3.563216
3.6474843
3.722922
3.7893429
3.846583
3.894501
3.9329783
3.9619199
3.9812542
3.9909333
4.0963085
4.0863715
4.0665222
4.0368098
3.9973077
3.9481138
3.8893499
3.8211611
3.7437161
3.6572061
3.5618445
3.4578664
3.345528
3.2251055
3.0968949
2.9612108
2.8183861
2.6687702
2.5127292
2.350644
2.1829099
2.0099355
1.8321415
1.6499598
1.4638322
1.2742096
1.0815509
0.88632159
0.68899281
0.49004027
0.28994305
0.089182483
-0.111759
-0.31239896
-0.51225612
-0.71085145
-0.9077093
-1.1023585
-1.2943334
-1.483175
-1.668432
-1.8496619
-2.026432
-2.19832
-2.3649159
-2.525822
-2.6806543
-2.8290434
-2.9706353
-3.1050921
-3.232093
-3.3513351
-3.4625336
-3.5654234
-3.6597588
-3.7453146
-3.8218866
-3.889292
-3.9473699
-3.9959816
-4.035011
-4.064365
-4.0839733
-4.0937892
-4.0937892
-4.0839733
-4.064365
-4.035011
-3.9959816
-3.9473699
-3.889292
-3.8218866
-3.7453146
-3.6597588
-3.5654234
-3.4625336
-3.3513351
-3.232093
-3.1050921
-2.9706353
-2.8290434
-2.6806543
-2.525822
-2.3649159
-2.19832
-2.026432
-1.8496619
-1.668432
-1.483175
-1.2943334
-1.1023585
-0.9077093
-0.71085145
-0.51225612
-0.31239895
-0.11175899
0.089182486
0.28994305
0.49004027
0.68899281
0.8863216
1.0815509
1.2742096
1.4638322
1.6499598
1.8321415
2.0099355
2.1829099
2.350644
2.5127292
2.6687702
2.8183861
2.9612108
3.0968949
3.2251055
3.345528
3.4578664
3.5618445
3.6572061
3.7437161
3.8211611
3.8893499
3.9481138
3.9973077
4.0368098
4.0665222
4.0863715
4.0963085
4.2115223
4.2013032
4.1808904
4.1503346
4.1097114
4.0591216
3.9986904
3.9285676
3.8489266
3.7599642
3.6619003
3.5549767
3.4394571
3.3156258
3.1837875
3.0442658
2.8974031
2.7435591
2.5831102
2.4164483
2.24398
2.0661253
1.8833168
1.6959987
1.5046252
1.3096598
1.1115742
0.91084688
0.70796211
0.50340882
0.29767936
0.091268393
-0.11532828
-0.32161487
-0.52709678
-0.73128172
-0.93368083
-1.1338099
-1.3311903
-1.5253503
-1.715826
-1.9021624
-2.0839148
-2.2606491
-2.4319435
-2.5973892
-2.7565914
-2.90917
-3.054761
-3.1930167
-3.3236072
-3.4462207
-3.5605644
-3.6663652
-3.7633704
-3.8513483
-3.9300887
-3.9994034
-4.0591267
-4.1091158
-4.1492513
-4.1794373
-4.1996014
-4.2096955
-4.2096955
-4.1996014
-4.1794373
-4.1492513
-4.1091158
-4.0591267
-3.9994034
-3.9300887
-3.8513483
-3.7633704
-3.6663652
-3.5605644
-3.4462207
-3.3236072
-3.1930167
-3.054761
-2.90917
-2.7565914
-2.5973892
-2.4319435
-2.2606491
-2.0839148
-1.9021624
-1.715826
-1.5253503
-1.3311903
-1.1338099
-0.93368083
-0.73128171
-0.52709678
-0.32161487
-0.11532827
0.091268397
0.29767936
0.50340882
0.70796212
0.91084688
1.1115742
1.3096598
1.5046252
1.6959987
1.8833168
2.0661253
2.24398
2.4164483
2.5831102
2.7435592
2.8974031
3.0442658
3.1837875
3.3156258
3.4394571
3.5549767
3.6619003
3.7599642
3.8489266
3.9285676
3.9986904
4.0591216
4.1097114
4.1503346
4.1808904
4.2013032
4.2115223
4.3368533
4.3263271
4.3053009
4.2738269
4.2319833
4.1798739
4.117628
4.0453999
3.9633685
3.8717368
3.7707316
3.6606021
3.5416203
3.4140793
3.278293
3.1345952
2.9833386
2.8248939
2.6596489
2.4880074
2.3103883
2.1272241
1.9389606
1.7460549
1.5489749
1.3481979
1.1442094
0.93750196
0.72857423
0.51792943
0.30607435
0.09351815
-0.11922887
-0.33165644
-0.54325546
-0.75351924
-0.96194462
-1.1680331
-1.3712922
-1.5712361
-1.7673874
-1.9592775
-2.1464485
-2.3284536
-2.5048582
-2.6752414
-2.8391965
-2.9963319
-3.1462726
-3.2886606
-3.4231556
-3.5494365
-3.6672014
-3.7761689
-3.8760786
-3.9666914
-4.0477906
-4.1191824
-4.1806957
-4.2321834
-4.2735223
-4.3046134
-4.3253823
-4.3357791
-4.3357791
-4.3253823
-4.3046134
-4.2735223
-4.2321834
-4.1806957
-4.1191824
-4.0477906
-3.9666914
-3.8760785
-3.7761689
-3.6672014
-3.5494365
-3.4231556
-3.2886606
-3.1462726
-2.9963319
-2.8391965
-2.6752414
-2.5048582
-2.3284536
-2.1464485
-1.9592775
-1.7673874
-1.5712361
-1.3712922
-1.1680331
-0.96194462
-0.75351924
-0.54325545
-0.33165643
-0.11922887
0.093518154
0.30607436
0.51792943
0.72857424
0.93750197
1.1442094
1.3481979
1.5489749
1.7460549
1.9389606
2.1272241
2.3103883
2.4880074
2.6596489
2.8248939
2.9833386
3.1345952
3.278293
3.4140793
3.5416203
3.6606021
3.7707316
3.8717368
3.9633685
4.0453999
4.117628
4.1798739
4.2319833
4.273827
4.3053009
4.3263271
4.3368533
4.4726047
4.4617456
4.4400545
4.4075852
4.3644187
4.3106621
4.246449
4.1719389
4.0873167
3.992792
3.8885989
3.774995
3.6522612
3.5207
3.3806356
3.2324126
3.0763951
2.9129657
2.7425246
2.5654884
2.3822893
2.1933737
1.9992011
1.8002432
1.5969824
1.3899109
1.1795293
0.96634552
0.75087349
0.53363199
0.31514344
0.095932654
-0.12347438
-0.3425517
-0.56077459
-0.77762078
-0.99257161
-1.2051133
-1.414738
-1.6209451
-1.8232422
-2.0211463
-2.2141852
-2.401898
-2.5838367
-2.759567
-2.9286694
-3.09074
-3.2453917
-3.3922551
-3.5309792
-3.6612323
-3.7827029
-3.8951006
-3.9981563
-4.0916233
-4.1752778
-4.2489196
-4.312372
-4.3654832
-4.4081257
-4.4401974
-4.4616213
-4.4723462
-4.4723462
-4.4616213
-4.4401974
-4.4081257
-4.3654832
-4.312372
-4.2489196
-4.1752778
-4.0916233
-3.9981563
-3.8951006
-3.7827029
-3.6612323
-3.5309792
-3.3922551
-3.2453917
-3.09074
-2.9286694
-2.759567
-2.5838367
-2.401898
-2.2141852
-2.0211463
-1.8232422
-1.6209451
-1.414738
-1.2051133
-0.99257161
-0.77762077
-0.56077459
-0.3425517
-0.12347438
0.095932659
0.31514345
0.53363199
0.75087349
0.96634553
1.1795293
1.3899109
1.5969824
1.8002432
1.9992011
2.1933737
2.3822893
2.5654884
2.7425246
2.9129657
3.0763951
3.2324126
3.3806356
3.5207
3.6522612
3.774995
3.8885989
3.992792
4.0873167
4.1719389
4.246449
4.3106621
4.3644187
4.4075852
4.4400545
4.4617456
4.4726047
4.6191049
4.6078862
4.5854768
4.5519326
4.5073372
4.4518015
4.3854638
4.3084892
4.2210689
4.1234198
4.0157842
3.8984285
3.7716432
3.6357412
3.4910578
3.3379492
3.1767919
3.0079813
2.8319311
2.6490718
2.4598499
2.2647267
2.0641768
1.8586873
1.6487565
1.4348926
1.2176126
0.99744062
0.7749074
0.5505484
0.32490286
0.098512463
-0.12807992
-0.35433143
-0.5797005
-0.8036481
-1.0256389
-1.2451426
-1.461635
-1.6745992
-1.8835269
-2.0879196
-2.2872894
-2.4811607
-2.6690705
-2.8505704
-3.0252269
-3.1926228
-3.3523581
-3.5040511
-3.6473389
-3.7818788
-3.9073488
-4.0234484
-4.1298995
-4.2264471
-4.3128596
-4.3889299
-4.4544753
-4.5093388
-4.5533884
-4.5865186
-4.6086496
-4.6197285
-4.6197285
-4.6086496
-4.5865186
-4.5533884
-4.5093388
-4.4544753
-4.3889299
-4.3128596
-4.2264471
-4.1298995
-4.0234484
-3.9073488
-3.7818788
-3.6473389
-3.5040511
-3.3523581
-3.1926228
-3.0252269
-2.8505704
-2.6690705
-2.4811607
-2.2872894
-2.0879196
-1.8835269
-1.6745991
-1.4616349
-1.2451426
-1.0256389
-0.8036481
-0.5797005
-0.35433142
-0.12807991
0.098512467
0.32490287
0.55054841
0.7749074
0.99744062
1.2176126
1.4348926
1.6487565
1.8586873
2.0641768
2.2647267
2.4598499
2.6490718
2.8319311
3.0079813
3.1767919
3.3379492
3.4910578
3.6357412
3.7716432
3.8984285
4.0157842
4.1234198
4.2210689
4.3084892
4.3854638
4.4518015
4.5073372
4.5519326
4.5854768
4.6078862
4.6191049
4.7767084
4.7651026
4.7419198
4.707218
4.661084
4.6036326
4.5350074
4.4553792
4.3649462
4.2639334
4.1525916
4.0311971
3.9000504
3.7594759
3.6098208
3.4514539
3.2847649
3.1101632
2.928077
2.7389518
2.5432495
2.3414473
2.1340362
1.9215201
1.704414
1.4832436
1.2585431
1.0308547
0.80072665
0.56871253
0.33536961
0.10125767
-0.13306226
-0.36702922
-0.60008357
-0.83166825
-1.0612301
-1.2882209
-1.5120991
-1.7323303
-1.9483892
-2.1597602
-2.3659392
-2.5664341
-2.7607663
-2.948472
-3.1291028
-3.302227
-3.4674309
-3.6243193
-3.7725168
-3.9116685
-4.0414411
-4.1615236
-4.2716279
-4.37149
-4.46087
-4.5395533
-4.6073509
-4.6640998
-4.7096636
-4.7439327
-4.7668247
-4.7782845
-4.7782845
-4.7668247
-4.7439327
-4.7096636
-4.6640998
-4.6073509
-4.5395533
-4.46087
-4.37149
-4.2716279
-4.1615236
-4.0414411
-3.9116685
-3.7725167
-3.6243193
-3.4674309
-3.302227
-3.1291028
-2.948472
-2.7607663
-2.5664341
-2.3659392
-2.1597602
-1.9483892
-1.7323303
-1.5120991
-1.2882209
-1.0612301
-0.83166825
-0.60008357
-0.36702922
-0.13306226
0.10125767
0.33536961
0.56871254
0.80072666
1.0308547
1.2585431
1.4832436
1.704414
1.9215201
2.1340362
2.3414473
2.5432495
2.7389518
2.928077
3.1101632
3.2847649
3.4514539
3.6098208
3.7594759
3.9000504
4.0311971
4.1525916
4.2639334
4.3649462
4.4553792
4.5350074
4.6036326
4.661084
4.707218
4.7419198
4.7651026
4.7767084
4.945797
4.9337752
4.9097618
4.8738169
4.8260304
4.7665218
4.6954399
4.612962
4.5192941
4.4146694
4.2993482
4.1736171
4.0377881
3.8921974
3.7372052
3.5731938
3.4005674
3.2197503
3.0311861
2.8353366
2.6326803
2.4237115
2.2089388
1.9888837
1.7640799
1.5350712
1.3024107
1.0666595
0.82838506
0.58816012
0.34656129
0.10416776
-0.13844006
-0.3806818
-0.62197847
-0.86175378
-1.0994354
-1.3344561
-1.5662555
-1.7942807
-2.017988
-2.2368438
-2.4503261
-2.6579256
-2.8591469
-3.0535095
-3.240549
-3.4198184
-3.5908889
-3.7533511
-3.9068161
-4.0509159
-4.1853051
-4.3096611
-4.4236855
-4.5271042
-4.6196686
-4.7011561
-4.7713705
-4.8301429
-4.8773316
-4.912823
-4.9365316
-4.9484002
-4.9484002
-4.9365316
-4.912823
-4.8773316
-4.8301429
-4.7713705
-4.701156
-4.6196686
-4.5271042
-4.4236855
-4.3096611
-4.1853051
-4.0509159
-3.9068161
-3.7533511
-3.5908889
-3.4198184
-3.240549
-3.0535095
-2.8591469
-2.6579256
-2.4503261
-2.2368438
-2.0179879
-1.7942807
-1.5662555
-1.3344561
-1.0994354
-0.86175377
-0.62197847
-0.38068179
-0.13844005
0.10416776
0.3465613
0.58816012
0.82838506
1.0666595
1.3024107
1.5350712
1.7640799
1.9888837
2.2089388
2.4237115
2.6326803
2.8353366
3.0311861
3.2197503
3.4005674
3.5731938
3.7372052
3.8921974
4.0377881
4.1736171
4.2993482
4.4146694
4.5192941
4.6129621
4.6954399
4.7665218
4.8260304
4.8738169
4.9097618
4.9337752
4.945797
5.1267799
5.1143126
5.0894091
5.052132
5.0025749
4.9408619
4.8671477
4.7816168
4.6844829
4.5759886
4.4564044
4.3260279
4.1851833
4.0342199
3.8735115
3.7034553
3.5244706
3.3369979
3.1414976
2.9384488
2.7283477
2.5117071
2.2890542
2.0609299
1.8278871
1.5904896
1.3493106
1.1049312
0.85793951
0.6089287
0.35849606
0.10724146
-0.14423396
-0.39532914
-0.64544446
-0.89398304
-1.1403521
-1.3839643
-1.6242389
-1.8606033
-2.0924942
-2.3193587
-2.540656
-2.755858
-2.9644513
-3.1659378
-3.3598359
-3.545682
-3.7230315
-3.8914596
-4.0505626
-4.199959
-4.3392899
-4.4682209
-4.5864417
-4.693668
-4.7896416
-4.8741313
-4.9469333
-5.0078721
-5.0568007
-5.0936009
-5.1181838
-5.1304901
-5.1304901
-5.1181838
-5.0936009
-5.0568007
-5.0078721
-4.9469333
-4.8741313
-4.7896416
-4.693668
-4.5864417
-4.4682209
-4.3392899
-4.199959
-4.0505626
-3.8914596
-3.7230315
-3.545682
-3.3598359
-3.1659378
-2.9644513
-2.755858
-2.540656
-2.3193587
-2.0924942
-1.8606033
-1.6242389
-1.3839643
-1.1403521
-0.89398304
-0.64544446
-0.39532914
-0.14423395
0.10724146
0.35849606
0.6089287
0.85793951
1.1049312
1.3493106
1.5904896
1.8278871
2.0609299
2.2890542
2.5117071
2.7283477
2.9384488
3.1414976
3.3369979
3.5244706
3.7034553
3.8735115
4.0342199
4.1851833
4.3260279
4.4564044
4.5759886
4.6844829
4.7816168
4.8671477
4.9408619
5.0025749
5.052132
5.0894091
5.1143126
5.1267799
5.3200958
5.3071518
5.2812964
5.2425947
5.191144
5.1270736
5.0505445
4.9617487
4.8609087
4.748277
4.6241348
4.488792
4.3425856
4.1858789
4.0190606
3.8425436
3.6567637
3.4621786
3.2592667
3.0485255
2.8304706
2.6056341
2.3745633
2.1378198
1.8959771
1.6496202
1.3993437
1.1457503
0.88944985
0.63105747
0.37119239
0.11047654
-0.1504669
-0.41101482
-0.67054563
-0.92844056
-1.1840851
-1.4368702
-1.6861939
-1.9314623
-2.1720912
-2.4075073
-2.6371494
-2.8604699
-3.0769358
-3.2860301
-3.4872531
-3.6801235
-3.8641794
-4.0389799
-4.2041054
-4.3591596
-4.5037699
-4.6375882
-4.7602924
-4.8715867
-4.9712028
-5.0589002
-5.1344671
-5.1977209
-5.2485085
-5.2867071
-5.3122244
-5.3249985
-5.3249985
-5.3122244
-5.2867071
-5.2485085
-5.1977209
-5.1344671
-5.0589002
-4.9712028
-4.8715867
-4.7602924
-4.6375882
-4.5037699
-4.3591596
-4.2041054
-4.0389799
-3.8641794
-3.6801235
-3.4872531
-3.2860301
-3.0769358
-2.8604699
-2.6371494
-2.4075073
-2.1720912
-1.9314623
-1.6861939
-1.4368702
-1.1840851
-0.92844056
-0.67054563
-0.41101482
-0.15046689
0.11047654
0.37119239
0.63105747
0.88944986
1.1457503
1.3993437
1.6496202
1.8959771
2.1378198
2.3745633
2.6056341
2.8304706
3.0485255
3.2592667
3.4621786
3.6567637
3.8425436
4.0190606
4.1858789
4.3425856
4.4887921
4.6241348
4.748277
4.8609087
4.9617487
5.0505445
5.1270736
5.191144
5.2425947
5.2812964
5.3071518
5.3200958
5.5262131
5.5127602
5.4858884
5.4456656
5.3921932
5.325606
5.2460718
5.1537907
5.0489946
4.9319465
4.8029395
4.6622963
4.5103677
4.3475323
4.1741945
3.9907841
3.7977547
3.5955824
3.3847648
3.1658191
2.9392813
2.7057046
2.4656578
2.2197241
1.9684994
1.712591
1.4526165
1.1892014
0.92297885
0.65458714
0.38466894
0.11386958
-0.15716432
-0.42778625
-0.69735126
-0.96521733
-1.2307468
-1.4933078
-1.7522754
-2.0070334
-2.2569753
-2.5015059
-2.7400425
-2.9720165
-3.1968742
-3.4140786
-3.6231104
-3.8234694
-4.0146756
-4.1962703
-4.3678176
-4.528905
-4.6791448
-4.8181752
-4.9456608
-5.0612938
-5.1647948
-5.2559136
-5.3344295
-5.4001524
-5.452923
-5.4926134
-5.5191273
-5.5324004
-5.5324004
-5.5191273
-5.4926134