/*--------------------------------*- C++ -*----------------------------------*\
| =========                 |                                                 |
| \\      /  F ield         | OpenFOAM: The Open Source CFD Toolbox           |
|  \\    /   O peration     | Version:  2106                                  |
|   \\  /    A nd           | Website:  www.openfoam.com                      |
|    \\/     M anipulation  |                                                 |
\*---------------------------------------------------------------------------*/
FoamFile
{
    version     2.0;
    format      ascii;
    arch        "LSB;label=32;scalar=64";
    class       surfaceScalarField;
    location    "0.013";
    object      phi;
}
// * * * * * * * * * * * * * * * * * * * * * * * * * * * * * * * * * * * * * //

dimensions      [0 3 -1 0 0 0 0];

oriented        oriented;

internalField   nonuniform List<scalar> 
32512
(
-8.218282e-05
8.2182819e-05
-0.0001641799
8.1997076e-05
-0.00024580581
8.1625913e-05
-0.00032687579
8.106998e-05
-0.00040720604
8.0330254e-05
-0.00048661408
7.9408039e-05
-0.00056491905
7.8304968e-05
-0.00064194206
7.7023011e-05
-0.00071750653
7.556447e-05
-0.00079143852
7.393199e-05
-0.00086356708
7.2128557e-05
-0.00093372458
7.0157502e-05
-0.0010017471
6.8022505e-05
-0.0010674747
6.5727599e-05
-0.0011307518
6.3277166e-05
-0.0011914278
6.0675943e-05
-0.0012493568
5.7929023e-05
-0.0013043987
5.5041847e-05
-0.0013564189
5.2020211e-05
-0.0014052891
4.8870256e-05
-0.0014508876
4.5598467e-05
-0.0014930993
4.2211666e-05
-0.0015318163
3.8717002e-05
-0.0015669382
3.5121949e-05
-0.0015983725
3.1434286e-05
-0.0016260346
2.7662094e-05
-0.0016498483
2.3813738e-05
-0.0016697462
1.9897853e-05
-0.0016856695
1.5923332e-05
-0.0016975688
1.1899291e-05
-0.0017054038
7.8349573e-06
-0.0017091437
3.7399662e-06
-0.0017087682
-3.7551798e-07
-0.0017042659
-4.5023007e-06
-0.0016956358
-8.6300787e-06
-0.0016828871
-1.2748766e-05
-0.0016660389
-1.6848142e-05
-0.001645121
-2.0917944e-05
-0.0016201731
-2.4947881e-05
-0.0015912454
-2.8927656e-05
-0.0015583984
-3.2846998e-05
-0.0015217028
-3.6695689e-05
-0.0014812392
-4.0463597e-05
-0.0014370985
-4.4140705e-05
-0.0013893813
-4.7717143e-05
-0.0013381981
-5.1183221e-05
-0.0012836686
-5.452946e-05
-0.001225922
-5.7746626e-05
-0.0011650962
-6.0825763e-05
-0.001101338
-6.3758228e-05
-0.0010348023
-6.6535719e-05
-0.00096565199
-6.9150312e-05
-0.00089405749
-7.1594494e-05
-0.0008201963
-7.3861189e-05
-0.00074425251
-7.5943793e-05
-0.00066641631
-7.7836201e-05
-0.00058688347
-7.9532834e-05
-0.00050585481
-8.1028663e-05
-0.00042353557
-8.2319236e-05
-0.00034013488
-8.3400695e-05
-0.00025586508
-8.4269797e-05
-0.00017094115
-8.4923928e-05
-8.558004e-05
-8.5361115e-05
2.3891732e-13
-8.558004e-05
8.558004e-05
-8.558004e-05
0.00017094116
-8.5361115e-05
0.00025586508
-8.4923928e-05
0.00034013488
-8.4269797e-05
0.00042353557
-8.3400695e-05
0.00050585481
-8.2319236e-05
0.00058688347
-8.1028663e-05
0.00066641631
-7.9532834e-05
0.00074425251
-7.7836201e-05
0.0008201963
-7.5943793e-05
0.00089405749
-7.3861189e-05
0.00096565199
-7.1594494e-05
0.0010348023
-6.9150312e-05
0.001101338
-6.6535719e-05
0.0011650962
-6.3758228e-05
0.001225922
-6.0825763e-05
0.0012836686
-5.7746626e-05
0.0013381981
-5.452946e-05
0.0013893813
-5.1183221e-05
0.0014370985
-4.7717143e-05
0.0014812392
-4.4140705e-05
0.0015217028
-4.0463597e-05
0.0015583984
-3.6695689e-05
0.0015912454
-3.2846998e-05
0.0016201731
-2.8927656e-05
0.001645121
-2.4947881e-05
0.0016660389
-2.0917944e-05
0.0016828871
-1.6848142e-05
0.0016956358
-1.2748766e-05
0.0017042659
-8.6300786e-06
0.0017087682
-4.5023007e-06
0.0017091437
-3.7551796e-07
0.0017054038
3.7399663e-06
0.0016975688
7.8349574e-06
0.0016856695
1.1899291e-05
0.0016697462
1.5923332e-05
0.0016498483
1.9897853e-05
0.0016260346
2.3813738e-05
0.0015983725
2.7662094e-05
0.0015669382
3.1434286e-05
0.0015318163
3.5121949e-05
0.0014930993
3.8717003e-05
0.0014508876
4.2211666e-05
0.0014052891
4.5598467e-05
0.0013564189
4.8870256e-05
0.0013043987
5.2020211e-05
0.0012493568
5.5041847e-05
0.0011914278
5.7929023e-05
0.0011307518
6.0675943e-05
0.0010674747
6.3277166e-05
0.0010017471
6.5727599e-05
0.00093372458
6.8022505e-05
0.00086356708
7.0157502e-05
0.00079143852
7.2128557e-05
0.00071750653
7.393199e-05
0.00064194206
7.556447e-05
0.00056491905
7.7023011e-05
0.00048661408
7.8304968e-05
0.00040720604
7.9408039e-05
0.00032687579
8.0330254e-05
0.00024580581
8.106998e-05
0.00016417989
8.1625913e-05
8.2182819e-05
8.1997076e-05
8.2182819e-05
-8.2350695e-05
0.00016453351
-0.00016451538
0.00016416176
-0.00024630836
0.00016341889
-0.00032754459
0.00016230622
-0.00040804002
0.00016082568
-0.00048761187
0.00015897989
-0.000566079
0.0001567721
-0.00064326224
0.00015420625
-0.00071898472
0.00015128695
-0.00079307221
0.00014801947
-0.00086535344
0.00014440979
-0.00093566048
0.00014046455
-0.0010038291
0.00013619112
-0.001069699
0.00013159755
-0.0011331145
0.00012669261
-0.0011939243
0.00012148577
-0.0012519825
0.0001159872
-0.0013071485
0.00011020781
-0.0013592874
0.00010415916
-0.0014082707
9.7853558e-05
-0.0014539762
9.1303966e-05
-0.0014962886
8.4524033e-05
-0.0015350996
7.7528067e-05
-0.0015703087
7.0331018e-05
-0.0016018229
6.2948458e-05
-0.0016295573
5.5396556e-05
-0.0016534357
4.7692054e-05
-0.00167339
3.9852234e-05
-0.0016893616
3.1894887e-05
-0.0017013006
2.3838265e-05
-0.0017091666
1.5701024e-05
-0.001712929
7.5023598e-06
-0.0017125665
-7.380781e-07
-0.001708068
-9.0007941e-06
-0.0016994324
-1.7265698e-05
-0.0016866686
-2.551251e-05
-0.001669796
-3.3720785e-05
-0.0016488439
-4.1869973e-05
-0.0016238524
-4.9939458e-05
-0.0015948714
-5.790862e-05
-0.0015619615
-6.5756888e-05
-0.0015251934
-7.3463799e-05
-0.0014846479
-8.1009057e-05
-0.001440416
-8.8372598e-05
-0.0013925985
-9.553465e-05
-0.001341306
-0.0001024758
-0.0012866584
-0.00010917706
-0.0012287851
-0.00011561992
-0.0011678244
-0.00012178645
-0.0011039233
-0.00012765932
-0.0010372371
-0.00013322189
-0.00096792912
-0.00013845829
-0.00089617015
-0.00014335346
-0.00082213814
-0.00014789321
-0.00074601763
-0.0001520643
-0.00066799933
-0.0001558545
-0.00058827953
-0.00015925263
-0.0005070596
-0.00016224859
-0.00042454537
-0.00016483347
-0.00034094653
-0.00016699953
-0.00025647606
-0.00016874027
-0.00017134954
-0.00017005045
-8.5784552e-05
-0.0001709261
2.3740228e-13
-0.00017136459
8.5784553e-05
-0.00017136459
0.00017134954
-0.0001709261
0.00025647606
-0.00017005045
0.00034094653
-0.00016874027
0.00042454537
-0.00016699953
0.00050705961
-0.00016483347
0.00058827953
-0.00016224859
0.00066799933
-0.00015925263
0.00074601763
-0.0001558545
0.00082213814
-0.0001520643
0.00089617015
-0.00014789321
0.00096792912
-0.00014335346
0.0010372371
-0.00013845829
0.0011039233
-0.00013322189
0.0011678244
-0.00012765932
0.0012287851
-0.00012178645
0.0012866584
-0.00011561992
0.001341306
-0.00010917706
0.0013925985
-0.0001024758
0.001440416
-9.553465e-05
0.0014846479
-8.8372598e-05
0.0015251934
-8.1009057e-05
0.0015619615
-7.3463799e-05
0.0015948714
-6.5756888e-05
0.0016238524
-5.790862e-05
0.0016488439
-4.9939458e-05
0.001669796
-4.1869972e-05
0.0016866686
-3.3720785e-05
0.0016994324
-2.551251e-05
0.001708068
-1.7265698e-05
0.0017125665
-9.000794e-06
0.001712929
-7.3807806e-07
0.0017091666
7.5023598e-06
0.0017013006
1.5701024e-05
0.0016893616
2.3838265e-05
0.00167339
3.1894887e-05
0.0016534357
3.9852234e-05
0.0016295573
4.7692054e-05
0.0016018229
5.5396556e-05
0.0015703087
6.2948458e-05
0.0015350996
7.0331018e-05
0.0014962886
7.7528067e-05
0.0014539762
8.4524033e-05
0.0014082707
9.1303966e-05
0.0013592874
9.7853558e-05
0.0013071485
0.00010415916
0.0012519825
0.00011020781
0.0011939243
0.0001159872
0.0011331145
0.00012148577
0.001069699
0.00012669261
0.0010038291
0.00013159755
0.00093566048
0.00013619112
0.00086535344
0.00014046455
0.00079307221
0.00014440979
0.00071898472
0.00014801947
0.00064326224
0.00015128695
0.000566079
0.00015420625
0.00048761187
0.0001567721
0.00040804002
0.00015897989
0.00032754459
0.00016082568
0.00024630836
0.00016230622
0.00016451538
0.00016341889
8.2350694e-05
0.00016416176
0.00016453351
-8.2595788e-05
0.0002471293
-0.00016500518
0.00024657115
-0.00024704212
0.00024545583
-0.00032852117
0.00024378527
-0.00040925788
0.00024156239
-0.00048906908
0.00023879109
-0.00056777325
0.00023547627
-0.00064519079
0.0002316238
-0.00072114443
0.00022724058
-0.00079545949
0.00022233453
-0.00086796428
0.00021691458
-0.00093849045
0.00021099071
-0.0010068733
0.00020457394
-0.0010729521
0.00019767634
-0.0011365705
0.00019031106
-0.001197577
0.0001824923
-0.0012558251
0.00017423531
-0.0013111738
0.00016555642
-0.0013634876
0.00015647303
-0.0014126376
0.00014700355
-0.0014585011
0.00013716745
-0.0015009623
0.00012698521
-0.0015399125
0.00011647831
-0.0015752507
0.00010566918
-0.0016068834
9.4581193e-05
-0.0016347255
8.3238627e-05
-0.0016587001
7.1666617e-05
-0.0016787389
5.989111e-05
-0.0016947829
4.7938824e-05
-0.0017067818
3.5837181e-05
-0.001714695
2.3614265e-05
-0.0017184915
1.1298824e-05
-0.0017181497
-1.0798364e-06
-0.0017136584
-1.3492109e-05
-0.0017050162
-2.5907903e-05
-0.001692232
-3.8296767e-05
-0.0016753247
-5.0627996e-05
-0.001654324
-6.2870714e-05
-0.0016292695
-7.4993947e-05
-0.0016002114
-8.6966711e-05
-0.0015672102
-9.8758091e-05
-0.0015303367
-0.00011033733
-0.0014896718
-0.00012167394
-0.0014453067
-0.00013273775
-0.0013973423
-0.00014349904
-0.0013458894
-0.00015392862
-0.0012910685
-0.00016399796
-0.0012330093
-0.00017367922
-0.0011718503
-0.00018294543
-0.0011077391
-0.00019177053
-0.0010408314
-0.00020012951
-0.00097129126
-0.00020799848
-0.00089928993
-0.00021535478
-0.00082500606
-0.00022217708
-0.0007486249
-0.00022844546
-0.00067033789
-0.00023414151
-0.00059034213
-0.00023924839
-0.00050883978
-0.00024375094
-0.00042603753
-0.00024763572
-0.00034214598
-0.00025089109
-0.00025737899
-0.00025350726
-0.00017195309
-0.00025547634
-8.6086811e-05
-0.00025679238
2.3765972e-13
-0.0002574514
8.6086812e-05
-0.0002574514
0.00017195309
-0.00025679238
0.00025737899
-0.00025547634
0.00034214598
-0.00025350726
0.00042603753
-0.00025089109
0.00050883978
-0.00024763572
0.00059034213
-0.00024375094
0.00067033789
-0.00023924839
0.0007486249
-0.00023414151
0.00082500606
-0.00022844546
0.00089928993
-0.00022217708
0.00097129126
-0.00021535478
0.0010408314
-0.00020799848
0.0011077391
-0.00020012951
0.0011718503
-0.00019177053
0.0012330093
-0.00018294543
0.0012910685
-0.00017367922
0.0013458894
-0.00016399796
0.0013973423
-0.00015392862
0.0014453067
-0.00014349904
0.0014896718
-0.00013273775
0.0015303367
-0.00012167394
0.0015672102
-0.00011033733
0.0016002114
-9.8758091e-05
0.0016292695
-8.6966711e-05
0.001654324
-7.4993947e-05
0.0016753247
-6.2870714e-05
0.001692232
-5.0627996e-05
0.0017050162
-3.8296767e-05
0.0017136584
-2.5907903e-05
0.0017181497
-1.3492109e-05
0.0017184915
-1.0798363e-06
0.001714695
1.1298824e-05
0.0017067818
2.3614265e-05
0.0016947829
3.5837181e-05
0.0016787389
4.7938824e-05
0.0016587001
5.989111e-05
0.0016347255
7.1666617e-05
0.0016068834
8.3238627e-05
0.0015752507
9.4581193e-05
0.0015399125
0.00010566918
0.0015009623
0.00011647831
0.0014585011
0.00012698521
0.0014126376
0.00013716745
0.0013634876
0.00014700355
0.0013111738
0.00015647303
0.0012558251
0.00016555642
0.001197577
0.00017423531
0.0011365705
0.0001824923
0.0010729521
0.00019031106
0.0010068733
0.00019767634
0.00093849045
0.00020457394
0.00086796428
0.00021099071
0.00079545949
0.00021691458
0.00072114443
0.00022233453
0.00064519079
0.00022724058
0.00056777325
0.0002316238
0.00048906908
0.00023547627
0.00040925788
0.00023879109
0.00032852117
0.00024156239
0.00024704212
0.00024378527
0.00016500518
0.00024545583
8.2595787e-05
0.00024657115
0.0002471293
-8.2918995e-05
0.0003300483
-0.00016565111
0.00032930327
-0.00024800978
0.0003278145
-0.0003298091
0.00032558458
-0.00041086409
0.00032261738
-0.00049099109
0.0003189181
-0.00057000805
0.00031449322
-0.00064773485
0.0003093506
-0.00072399365
0.00030349939
-0.00079860924
0.00029695012
-0.00087140936
0.0002897147
-0.00094222506
0.00028180641
-0.001010891
0.00027323991
-0.001077246
0.0002640313
-0.001141133
0.00025419806
-0.0012023998
0.00024375914
-0.0012608994
0.00023273485
-0.0013164899
0.00022114698
-0.0013690356
0.00020901868
-0.0014184066
0.00019637454
-0.0014644796
0.00018324052
-0.0015071384
0.00016964393
-0.0015462735
0.00015561342
-0.0015817832
0.00014117893
-0.0016135737
0.00012637165
-0.001641559
0.00011122399
-0.0016656619
9.5769485e-05
-0.0016858136
8.0042789e-05
-0.0017019543
6.4079568e-05
-0.0017140336
4.7916452e-05
-0.0017220103
3.1590955e-05
-0.0017258529
1.514143e-05
-0.0017255397
-1.3930521e-06
-0.0017210589
-1.7972853e-05
-0.0017124091
-3.4557772e-05
-0.0016995987
-5.1107147e-05
-0.0016826467
-6.7579966e-05
-0.0016615824
-8.3934979e-05
-0.0016364456
-0.0001001308
-0.0016072863
-0.00011612604
-0.001574165
-0.00013187937
-0.0015371526
-0.0001473497
-0.0014963303
-0.00016249625
-0.0014517893
-0.00017727872
-0.001403631
-0.00019165737
-0.0013519664
-0.00020559318
-0.0012969164
-0.00021904798
-0.0012386111
-0.00023198455
-0.0011771897
-0.00024436682
-0.0011128003
-0.00025615992
-0.0010455994
-0.0002673304
-0.00097575162
-0.0002778463
-0.00090342912
-0.00028767728
-0.00082881138
-0.00029679481
-0.00075208462
-0.00030517223
-0.00067344125
-0.00031278488
-0.00059307942
-0.00031961023
-0.00051120239
-0.00032562797
-0.00042801798
-0.00033082012
-0.00034373798
-0.00033517109
-0.00025857747
-0.00033866777
-0.00017275422
-0.00034129959
-8.6488018e-05
-0.00034305859
2.3929009e-13
-0.00034393942
8.6488018e-05
-0.00034393942
0.00017275422
-0.00034305859
0.00025857747
-0.00034129959
0.00034373798
-0.00033866777
0.00042801798
-0.00033517109
0.00051120239
-0.00033082012
0.00059307942
-0.00032562797
0.00067344125
-0.00031961023
0.00075208462
-0.00031278488
0.00082881139
-0.00030517223
0.00090342912
-0.00029679481
0.00097575162
-0.00028767728
0.0010455994
-0.0002778463
0.0011128003
-0.0002673304
0.0011771897
-0.00025615992
0.0012386111
-0.00024436682
0.0012969164
-0.00023198455
0.0013519664
-0.00021904798
0.001403631
-0.00020559318
0.0014517893
-0.00019165737
0.0014963303
-0.00017727872
0.0015371526
-0.00016249625
0.001574165
-0.0001473497
0.0016072863
-0.00013187937
0.0016364456
-0.00011612604
0.0016615824
-0.0001001308
0.0016826467
-8.3934979e-05
0.0016995987
-6.7579966e-05
0.0017124091
-5.1107147e-05
0.0017210589
-3.4557772e-05
0.0017255397
-1.7972853e-05
0.0017258529
-1.393052e-06
0.0017220103
1.514143e-05
0.0017140336
3.1590956e-05
0.0017019543
4.7916452e-05
0.0016858136
6.4079569e-05
0.0016656619
8.0042789e-05
0.001641559
9.5769485e-05
0.0016135737
0.00011122399
0.0015817832
0.00012637165
0.0015462735
0.00014117893
0.0015071384
0.00015561342
0.0014644796
0.00016964393
0.0014184066
0.00018324052
0.0013690356
0.00019637454
0.0013164899
0.00020901868
0.0012608994
0.00022114698
0.0012023998
0.00023273485
0.001141133
0.00024375914
0.001077246
0.00025419806
0.001010891
0.0002640313
0.00094222506
0.00027323991
0.00087140936
0.00028180641
0.00079860924
0.0002897147
0.00072399365
0.00029695012
0.00064773484
0.00030349939
0.00057000805
0.0003093506
0.00049099109
0.00031449322
0.00041086409
0.0003189181
0.0003298091
0.00032261738
0.00024800978
0.00032558458
0.00016565111
0.0003278145
8.2918995e-05
0.00032930327
0.0003300483
-8.3320147e-05
0.00041336844
-0.00016645282
0.00041243594
-0.00024921085
0.00041057253
-0.00033140772
0.00040778145
-0.00041285785
0.00040406751
-0.00049337695
0.0003994372
-0.00057278232
0.0003938986
-0.0006508932
0.00038746148
-0.00072753109
0.00038013728
-0.00080252008
0.00037193911
-0.00087568721
0.00036288183
-0.0009468628
0.000352982
-0.0010158808
0.00034225793
-0.0010825792
0.00033072969
-0.0011468003
0.00031841914
-0.0012083911
0.0003053499
-0.0012672036
0.00029154739
-0.0013230954
0.00027703878
-0.0013759298
0.00026185305
-0.0014255761
0.00024602092
-0.0014719105
0.00022957484
-0.0015148155
0.00021254897
-0.0015541812
0.00019497916
-0.0015899052
0.00017690285
-0.0016218926
0.00015835908
-0.001650057
0.00013938841
-0.0016743203
0.00012003281
-0.0016946132
0.00010033566
-0.0017108753
8.0341631e-05
-0.0017230554
6.0096576e-05
-0.0017311119
3.9647483e-05
-0.0017350129
1.9042358e-05
-0.001734736
-1.6698828e-06
-0.0017302693
-2.243956e-05
-0.0017216108
-4.3216305e-05
-0.0017087687
-6.3949178e-05
-0.0016917619
-8.4586803e-05
-0.0016706194
-0.0001050775
-0.0016453808
-0.0001253694
-0.0016160962
-0.00014541063
-0.0015828262
-0.0001651494
-0.0015456417
-0.00018453421
-0.001504624
-0.00020351393
-0.0014598647
-0.00022203802
-0.0014114654
-0.00024005666
-0.0013595377
-0.00025752091
-0.0013042028
-0.00027438288
-0.0012455914
-0.0002905959
-0.0011838435
-0.0003061147
-0.0011191079
-0.00032089553
-0.0010515419
-0.00033489639
-0.00098131107
-0.00034807717
-0.00090858855
-0.0003603998
-0.00083355493
-0.00037182843
-0.00075639757
-0.00038232959
-0.00067731014
-0.00039187231
-0.00059649207
-0.00040042829
-0.00051414802
-0.00040797203
-0.00043048723
-0.00041448091
-0.00034572296
-0.00041993536
-0.00026007182
-0.00042431891
-0.00017375313
-0.00042761827
-8.6988281e-05
-0.00042982344
2.4154492e-13
-0.0004309277
8.6988281e-05
-0.0004309277
0.00017375313
-0.00042982344
0.00026007182
-0.00042761827
0.00034572296
-0.00042431891
0.00043048723
-0.00041993536
0.00051414802
-0.00041448091
0.00059649207
-0.00040797203
0.00067731014
-0.00040042829
0.00075639757
-0.00039187231
0.00083355493
-0.00038232959
0.00090858855
-0.00037182843
0.00098131107
-0.0003603998
0.0010515419
-0.00034807717
0.0011191079
-0.00033489639
0.0011838435
-0.00032089553
0.0012455914
-0.0003061147
0.0013042028
-0.0002905959
0.0013595377
-0.00027438288
0.0014114654
-0.00025752091
0.0014598647
-0.00024005666
0.001504624
-0.00022203802
0.0015456417
-0.00020351393
0.0015828262
-0.00018453421
0.0016160962
-0.0001651494
0.0016453808
-0.00014541063
0.0016706194
-0.0001253694
0.0016917619
-0.0001050775
0.0017087687
-8.4586803e-05
0.0017216108
-6.3949178e-05
0.0017302693
-4.3216304e-05
0.001734736
-2.243956e-05
0.0017350129
-1.6698826e-06
0.0017311119
1.9042359e-05
0.0017230554
3.9647483e-05
0.0017108753
6.0096576e-05
0.0016946132
8.0341631e-05
0.0016743203
0.00010033567
0.001650057
0.00012003281
0.0016218926
0.00013938841
0.0015899052
0.00015835908
0.0015541812
0.00017690285
0.0015148155
0.00019497916
0.0014719105
0.00021254897
0.0014255761
0.00022957484
0.0013759298
0.00024602092
0.0013230954
0.00026185305
0.0012672036
0.00027703878
0.0012083911
0.00029154739
0.0011468003
0.0003053499
0.0010825792
0.00031841914
0.0010158808
0.00033072969
0.0009468628
0.00034225793
0.00087568721
0.000352982
0.00080252008
0.00036288183
0.00072753109
0.00037193911
0.0006508932
0.00038013728
0.00057278232
0.00038746148
0.00049337695
0.0003938986
0.00041285785
0.0003994372
0.00033140771
0.00040406751
0.00024921085
0.00040778145
0.00016645282
0.00041057253
8.3320147e-05
0.00041243594
0.00041336844
-8.3798007e-05
0.00049716645
-0.00016740784
0.00049604577
-0.00025064162
0.00049380632
-0.00033331213
0.00049045195
-0.00041523306
0.00048598845
-0.0004962194
0.00048042353
-0.00057608768
0.00047376688
-0.00065465638
0.00046603018
-0.00073174619
0.00045722709
-0.00080718042
0.00044737334
-0.00088078525
0.00043648666
-0.00095239015
0.00042458691
-0.0010218282
0.00041169599
-0.0010889365
0.00039783797
-0.0011535564
0.00038303902
-0.0012155339
0.00036732745
-0.0012747203
0.00035073374
-0.001330972
0.00033329049
-0.0013841514
0.00031503245
-0.001434127
0.00029599648
-0.0014807737
0.00027622155
-0.0015239734
0.00025574867
-0.0015636151
0.00023462088
-0.0015995954
0.00021288317
-0.0016318188
0.00019058243
-0.0016601978
0.0001677674
-0.0016846535
0.00014448853
-0.0017051158
0.00012079798
-0.0017215236
9.6749414e-05
-0.001733825
7.2398001e-05
-0.0017419778
4.7800232e-05
-0.0017459492
2.3013833e-05
-0.0017457167
-1.9023748e-06
-0.0017412677
-2.6888619e-05
-0.0017325997
-5.1884301e-05
-0.0017197207
-7.6828138e-05
-0.0017026492
-0.00010165831
-0.0016814141
-0.00012631264
-0.0016560548
-0.0001507287
-0.0016266213
-0.00017484406
-0.0015931744
-0.00019859638
-0.0015557849
-0.00022192364
-0.0015145345
-0.00024476431
-0.0014695151
-0.00026705751
-0.0014208285
-0.00028874323
-0.0013685869
-0.00030976252
-0.0013129121
-0.00033005769
-0.0012539355
-0.00034957249
-0.0011917978
-0.00036825235
-0.0011266488
-0.00038604455
-0.0010586467
-0.00040289845
-0.00098795826
-0.00041876565
-0.00091475779
-0.00043360027
-0.00083922716
-0.00044735905
-0.00076155514
-0.00046000161
-0.00068193687
-0.00047149058
-0.00060057336
-0.0004817918
-0.0005176709
-0.00049087449
-0.00043344045
-0.00049871136
-0.00034809705
-0.00050527877
-0.00026185913
-0.00051055683
-0.0001749479
-0.0005145295
-8.7586634e-05
-0.00051718471
2.4459255e-13
-0.00051851434
8.7586634e-05
-0.00051851434
0.0001749479
-0.00051718471
0.00026185913
-0.0005145295
0.00034809705
-0.00051055683
0.00043344045
-0.00050527877
0.0005176709
-0.00049871136
0.00060057336
-0.00049087449
0.00068193687
-0.0004817918
0.00076155514
-0.00047149058
0.00083922716
-0.00046000161
0.00091475779
-0.00044735905
0.00098795826
-0.00043360027
0.0010586467
-0.00041876565
0.0011266488
-0.00040289845
0.0011917978
-0.00038604455
0.0012539355
-0.00036825235
0.0013129121
-0.00034957249
0.0013685869
-0.00033005769
0.0014208285
-0.00030976252
0.0014695151
-0.00028874323
0.0015145345
-0.00026705751
0.0015557849
-0.00024476431
0.0015931744
-0.00022192364
0.0016266213
-0.00019859638
0.0016560548
-0.00017484406
0.0016814141
-0.0001507287
0.0017026492
-0.00012631264
0.0017197207
-0.00010165831
0.0017325997
-7.6828138e-05
0.0017412677
-5.1884301e-05
0.0017457167
-2.6888619e-05
0.0017459492
-1.9023746e-06
0.0017419778
2.3013833e-05
0.001733825
4.7800232e-05
0.0017215236
7.2398001e-05
0.0017051158
9.6749415e-05
0.0016846535
0.00012079798
0.0016601978
0.00014448853
0.0016318188
0.0001677674
0.0015995954
0.00019058243
0.0015636151
0.00021288317
0.0015239734
0.00023462088
0.0014807737
0.00025574867
0.001434127
0.00027622155
0.0013841514
0.00029599648
0.001330972
0.00031503245
0.0012747203
0.00033329049
0.0012155339
0.00035073374
0.0011535564
0.00036732745
0.0010889365
0.00038303902
0.0010218282
0.00039783797
0.00095239015
0.00041169599
0.00088078525
0.00042458691
0.00080718042
0.00043648666
0.00073174619
0.00044737334
0.00065465638
0.00045722709
0.00057608768
0.00046603018
0.0004962194
0.00047376688
0.00041523306
0.00048042353
0.00033331213
0.00048598845
0.00025064162
0.00049045195
0.00016740783
0.00049380632
8.3798006e-05
0.00049604577
0.00049716645
-8.435033e-05
0.00058151678
-0.00016851169
0.00058020712
-0.0002522954
0.00057759004
-0.00033551344
0.00057366999
-0.00041797867
0.00056845368
-0.00049950524
0.00056195009
-0.00057990883
0.00055417047
-0.00065900702
0.00054512837
-0.00073661963
0.0005348397
-0.00081256899
0.0005233227
-0.00088668035
0.00051059803
-0.0009587822
0.00049668875
-0.0010287066
0.00048162038
-0.0010962895
0.00046542092
-0.0011613714
0.00044812085
-0.0012237971
0.00042975316
-0.0012834167
0.00041035336
-0.0013400857
0.00038995945
-0.0013936652
0.00036861198
-0.0014440226
0.00034635393
-0.0014910319
0.00032323079
-0.0015345736
0.00029929043
-0.0015745358
0.0002745831
-0.001610814
0.00024916135
-0.0016433116
0.00022307997
-0.0016719401
0.0001963959
-0.0016966196
0.00016916812
-0.0017172792
0.00014145757
-0.0017338568
0.00011332703
-0.0017462998
8.4840977e-05
-0.0017545651
5.606549e-05
-0.0017586193
2.7068074e-05
-0.0017584392
-2.0824725e-06
-0.0017540116
-3.131622e-05
-0.0017453337
-6.0562267e-05
-0.0017324129
-8.9748908e-05
-0.0017152674
-0.00011880381
-0.0016939259
-0.00014765418
-0.0016684276
-0.00017622698
-0.0016388225
-0.00020444911
-0.0016051713
-0.00023224759
-0.0015675452
-0.0002595498
-0.0015260258
-0.00028628366
-0.0014807054
-0.00031237789
-0.0014316865
-0.00033776216
-0.0013790816
-0.00036236741
-0.0013230133
-0.00038612601
-0.0012636137
-0.00040897204
-0.0012010246
-0.00043084151
-0.0011353966
-0.00045167258
-0.0010668891
-0.00047140586
-0.00099567023
-0.00048998458
-0.00092191562
-0.00050735488
-0.00084580868
-0.00052346599
-0.00076753977
-0.00053827052
-0.00068730577
-0.00055172458
-0.00060530951
-0.00056378807
-0.00052175917
-0.00057442482
-0.00043686774
-0.00058360279
-0.00035085231
-0.0005912942
-0.00026393344
-0.00059747569
-0.00017633454
-0.00060212841
-8.8281082e-05
-0.00060523816
2.4872682e-13
-0.00060679542
8.8281083e-05
-0.00060679542
0.00017633454
-0.00060523816
0.00026393344
-0.00060212841
0.00035085231
-0.00059747569
0.00043686774
-0.0005912942
0.00052175918
-0.00058360279
0.00060530951
-0.00057442482
0.00068730577
-0.00056378807
0.00076753977
-0.00055172458
0.00084580868
-0.00053827052
0.00092191562
-0.00052346599
0.00099567023
-0.00050735488
0.0010668892
-0.00048998458
0.0011353966
-0.00047140586
0.0012010246
-0.00045167258
0.0012636137
-0.0004308415
0.0013230133
-0.00040897204
0.0013790816
-0.00038612601
0.0014316865
-0.00036236741
0.0014807054
-0.00033776216
0.0015260258
-0.00031237789
0.0015675452
-0.00028628366
0.0016051713
-0.0002595498
0.0016388225
-0.00023224759
0.0016684276
-0.00020444911
0.0016939259
-0.00017622698
0.0017152674
-0.00014765418
0.0017324129
-0.0001188038
0.0017453337
-8.9748907e-05
0.0017540116
-6.0562267e-05
0.0017584392
-3.131622e-05
0.0017586193
-2.0824723e-06
0.0017545651
2.7068074e-05
0.0017462998
5.606549e-05
0.0017338568
8.4840977e-05
0.0017172792
0.00011332703
0.0016966196
0.00014145757
0.0016719401
0.00016916812
0.0016433116
0.0001963959
0.001610814
0.00022307997
0.0015745358
0.00024916135
0.0015345736
0.0002745831
0.0014910319
0.00029929043
0.0014440226
0.00032323079
0.0013936652
0.00034635393
0.0013400857
0.00036861198
0.0012834167
0.00038995945
0.0012237971
0.00041035336
0.0011613714
0.00042975316
0.0010962895
0.00044812085
0.0010287066
0.00046542092
0.0009587822
0.00048162038
0.00088668035
0.00049668875
0.00081256899
0.00051059803
0.00073661963
0.0005233227
0.00065900702
0.0005348397
0.00057990883
0.00054512837
0.00049950524
0.00055417047
0.00041797867
0.00056195009
0.00033551344
0.00056845368
0.0002522954
0.00057366999
0.00016851169
0.00057759004
8.4350329e-05
0.00058020712
0.00058151678
-8.497396e-05
0.00066649074
-0.00016975806
0.00066499123
-0.00025416276
0.00066199474
-0.00033799911
0.00065750634
-0.00042107908
0.00065153365
-0.00050321587
0.00064408688
-0.00058422421
0.00063517881
-0.0006639207
0.00062482487
-0.00074212414
0.00061304313
-0.00081865581
0.00059985437
-0.00089333988
0.0005852821
-0.00096600373
0.00056935259
-0.0010364783
0.00055209492
-0.0011045983
0.00053354098
-0.001170203
0.00051372556
-0.0012331361
0.00049268627
-0.0012932464
0.00047046366
-0.0013503881
0.00044710112
-0.0014044211
0.00042264495
-0.0014552114
0.0003971443
-0.0015026318
0.00037065113
-0.0015465616
0.00034322022
-0.0015868875
0.00031490903
-0.0016235039
0.00028577771
-0.0016563129
0.00025588896
-0.0016852249
0.00022530796
-0.0017101591
0.00019410227
-0.0017310432
0.00016234168
-0.0017478142
0.0001300981
-0.0017604187
9.7445422e-05
-0.0017688126
6.4459348e-05
-0.0017729617
3.1217246e-05
-0.0017728422
-2.2020295e-06
-0.0017684401
-3.5718316e-05
-0.001759752
-6.9250326e-05
-0.0017467851
-0.00010271584
-0.001729557
-0.00013603191
-0.0017080961
-0.00016911507
-0.0016824415
-0.00020188154
-0.0016526432
-0.00023424744
-0.0016187617
-0.00026612907
-0.0015808684
-0.00029744307
-0.0015390454
-0.00032810673
-0.001493385
-0.0003580382
-0.0014439904
-0.00038715676
-0.0013909748
-0.00041538307
-0.0013344613
-0.00044263945
-0.0012745832
-0.00046885017
-0.001211483
-0.00049394167
-0.0011453127
-0.00051784289
-0.0010762331
-0.00054048552
-0.0010044133
-0.00056180429
-0.00093003099
-0.00058173723
-0.00085327105
-0.00060022594
-0.00077432571
-0.00061721585
-0.00069339382
-0.00063265647
-0.00061068027
-0.00064650162
-0.00052639542
-0.00065870966
-0.00044075453
-0.00066924368
-0.00035397705
-0.00067807169
-0.00026628597
-0.00068516676
-0.00017790718
-0.00069050721
-8.9068692e-05
-0.00069407664
2.5327864e-13
-0.00069586411
8.9068692e-05
-0.00069586411
0.00017790718
-0.00069407664
0.00026628597
-0.00069050721
0.00035397705
-0.00068516676
0.00044075453
-0.00067807169
0.00052639543
-0.00066924368
0.00061068027
-0.00065870966
0.00069339382
-0.00064650162
0.00077432571
-0.00063265647
0.00085327105
-0.00061721585
0.00093003099
-0.00060022594
0.0010044133
-0.00058173723
0.0010762331
-0.00056180429
0.0011453127
-0.00054048552
0.001211483
-0.00051784289
0.0012745832
-0.00049394167
0.0013344613
-0.00046885017
0.0013909748
-0.00044263945
0.0014439904
-0.00041538307
0.001493385
-0.00038715676
0.0015390454
-0.0003580382
0.0015808684
-0.00032810673
0.0016187617
-0.00029744307
0.0016526432
-0.00026612907
0.0016824415
-0.00023424744
0.0017080961
-0.00020188154
0.001729557
-0.00016911507
0.0017467851
-0.00013603191
0.001759752
-0.00010271584
0.0017684401
-6.9250326e-05
0.0017728422
-3.5718316e-05
0.0017729617
-2.2020294e-06
0.0017688126
3.1217246e-05
0.0017604187
6.4459348e-05
0.0017478142
9.7445422e-05
0.0017310432
0.0001300981
0.0017101591
0.00016234168
0.0016852249
0.00019410227
0.0016563129
0.00022530796
0.0016235039
0.00025588896
0.0015868875
0.00028577771
0.0015465616
0.00031490903
0.0015026318
0.00034322022
0.0014552114
0.00037065113
0.0014044211
0.0003971443
0.0013503881
0.00042264495
0.0012932464
0.00044710112
0.0012331361
0.00047046366
0.001170203
0.00049268627
0.0011045983
0.00051372556
0.0010364783
0.00053354098
0.00096600373
0.00055209492
0.00089333988
0.00056935259
0.00081865581
0.0005852821
0.00074212414
0.00059985437
0.0006639207
0.00061304313
0.00058422421
0.00062482487
0.00050321587
0.00063517881
0.00042107908
0.00064408688
0.00033799911
0.00065153365
0.00025416276
0.00065750634
0.00016975806
0.00066199474
8.4973959e-05
0.00066499123
0.00066649074
-8.5664956e-05
0.00075215569
-0.0001711391
0.00075046537
-0.00025623192
0.00074708756
-0.0003407535
0.00074202792
-0.00042451482
0.00073529497
-0.00050732806
0.00072690011
-0.0005890069
0.00071685766
-0.00066936687
0.00070518484
-0.00074822565
0.0006919019
-0.00082540337
0.0006770321
-0.00090072302
0.00066060175
-0.00097401072