/*--------------------------------*- C++ -*----------------------------------*\
| =========                 |                                                 |
| \\      /  F ield         | OpenFOAM: The Open Source CFD Toolbox           |
|  \\    /   O peration     | Version:  2306                                  |
|   \\  /    A nd           | Website:  www.openfoam.com                      |
|    \\/     M anipulation  |                                                 |
\*---------------------------------------------------------------------------*/
FoamFile
{
    version     2.0;
    format      ascii;
    arch        "LSB;label=32;scalar=64";
    class       surfaceScalarField;
    location    "0.21";
    object      phi;
}
// * * * * * * * * * * * * * * * * * * * * * * * * * * * * * * * * * * * * * //

dimensions      [0 3 -1 0 0 0 0];

oriented        oriented;

internalField   nonuniform List<scalar> 
101920
(
-9.687906e-10
9.6879062e-10
-4.1827964e-09
3.2140058e-09
-9.6509039e-09
5.4681075e-09
-1.7487037e-08
7.8361327e-09
-2.7678726e-08
1.0191689e-08
-4.0169445e-08
1.2490719e-08
-5.4918416e-08
1.4748971e-08
-7.1885706e-08
1.6967289e-08
-9.1029589e-08
1.9143884e-08
-1.1230617e-07
2.1276579e-08
-1.3566857e-07
2.3362405e-08
-1.6106634e-07
2.5397766e-08
-1.8844515e-07
2.7378812e-08
-2.1774678e-07
2.9301626e-08
-2.4890908e-07
3.1162303e-08
-2.818661e-07
3.2957019e-08
-3.1654816e-07
3.4682062e-08
-3.5288201e-07
3.6333843e-08
-3.9079093e-07
3.7908924e-08
-4.3019492e-07
3.9403994e-08
-4.7101081e-07
4.0815884e-08
-5.131524e-07
4.2141591e-08
-5.5653111e-07
4.3378711e-08
-6.0105837e-07
4.4527265e-08
-6.4665908e-07
4.560071e-08
-6.932482e-07
4.658912e-08
-7.4070561e-07
4.7457406e-08
-7.88929e-07
4.822339e-08
-8.378223e-07
4.8893307e-08
-8.8728925e-07
4.9466951e-08
-9.3723281e-07
4.9943558e-08
-9.8755544e-07
5.0322633e-08
-1.0381595e-06
5.0604023e-08
-1.0889475e-06
5.0787996e-08
-1.1398226e-06
5.0875156e-08
-1.1906891e-06
5.0866445e-08
-1.2414522e-06
5.0763108e-08
-1.2920189e-06
5.0566681e-08
-1.3422978e-06
5.0278959e-08
-1.3921998e-06
4.9901985e-08
-1.4416378e-06
4.9438026e-08
-1.4905274e-06
4.8889584e-08
-1.5387867e-06
4.8259335e-08
-1.5863369e-06
4.7550156e-08
-1.633102e-06
4.6765073e-08
-1.6790093e-06
4.5907284e-08
-1.7239894e-06
4.4980114e-08
-1.7679764e-06
4.3986997e-08
-1.8109079e-06
4.293148e-08
-1.852725e-06
4.181718e-08
-1.8933728e-06
4.0647794e-08
-1.9327999e-06
3.9427081e-08
-1.9709587e-06
3.8158779e-08
-2.0078054e-06
3.6846713e-08
-2.0433e-06
3.5494646e-08
-2.0774064e-06
3.4106386e-08
-2.1100921e-06
3.2685649e-08
-2.1413282e-06
3.1236162e-08
-2.1710898e-06
2.9761576e-08
-2.1993553e-06
2.8265466e-08
-2.2261066e-06
2.6751326e-08
-2.2513292e-06
2.522258e-08
-2.2750117e-06
2.3682546e-08
-2.2971462e-06
2.2134414e-08
-2.3177274e-06
2.0581293e-08
-2.3367536e-06
1.902614e-08
-2.3542254e-06
1.7471833e-08
-2.3701465e-06
1.5921083e-08
-2.384523e-06
1.4376526e-08
-2.3973637e-06
1.28407e-08
-2.4086798e-06
1.1316085e-08
-2.4184849e-06
9.8051221e-09
-2.4267951e-06
8.3101878e-09
-2.4336286e-06
6.8334455e-09
-2.4390053e-06
5.3767795e-09
-2.4429464e-06
3.941055e-09
-2.4454678e-06
2.5214505e-09
-2.4465447e-06
1.0768194e-09
-2.4461629e-06
-3.8173077e-10
-2.4445307e-06
-1.6321872e-09
-2.4415978e-06
-2.9329097e-09
-2.4373732e-06
-4.2246466e-09
-2.4318797e-06
-5.4934494e-09
-2.4251451e-06
-6.7346054e-09
-2.4171984e-06
-7.9466934e-09
-2.4080692e-06
-9.1292201e-09
-2.3977872e-06
-1.0282034e-08
-2.3863821e-06
-1.1405055e-08
-2.3738838e-06
-1.2498274e-08
-2.3603221e-06
-1.3561728e-08
-2.3457266e-06
-1.459552e-08
-2.3301268e-06
-1.5599795e-08
-2.313552e-06
-1.657477e-08
-2.2960313e-06
-1.7520714e-08
-2.2775934e-06
-1.8437948e-08
-2.2582665e-06
-1.9326847e-08
-2.2380787e-06
-2.0187838e-08
-2.2170573e-06
-2.1021364e-08
-2.1952294e-06
-2.1827935e-08
-2.1726213e-06
-2.2608102e-08
-2.1492589e-06
-2.3362409e-08
-2.1251674e-06
-2.409149e-08
-2.1003715e-06
-2.4795932e-08
-2.074895e-06
-2.5476414e-08
-2.0487615e-06
-2.6133571e-08
-2.0219934e-06
-2.6768095e-08
-1.9946127e-06
-2.7380657e-08
-1.9666407e-06
-2.7971988e-08
-1.9380979e-06
-2.8542793e-08
-1.9090042e-06
-2.9093772e-08
-1.8793785e-06
-2.9625648e-08
-1.8492394e-06
-3.0139144e-08
-1.8186044e-06
-3.0634989e-08
-1.7874905e-06
-3.1113888e-08
-1.7559139e-06
-3.1576581e-08
-1.7238902e-06
-3.202375e-08
-1.6914341e-06
-3.2456106e-08
-1.6585597e-06
-3.2874362e-08
-1.6252805e-06
-3.3279186e-08
-1.5916092e-06
-3.367127e-08
-1.557558e-06
-3.4051277e-08
-1.5231381e-06
-3.4419894e-08
-1.4883604e-06
-3.4777715e-08
-1.4532349e-06
-3.5125407e-08
-1.4177714e-06
-3.5463583e-08
-1.3819785e-06
-3.579286e-08
-1.3458647e-06
-3.6113828e-08
-1.3094376e-06
-3.6427071e-08
-1.2727045e-06
-3.6733143e-08
-1.2356719e-06
-3.7032602e-08
-1.1983459e-06
-3.732598e-08
-1.1607321e-06
-3.7613791e-08
-1.1228355e-06
-3.7896554e-08
-1.0846608e-06
-3.8174763e-08
-1.0462119e-06
-3.8448868e-08
-1.0074926e-06
-3.8719343e-08
-9.6850591e-07
-3.8986636e-08
-9.2925475e-07
-3.9251151e-08
-8.8974145e-07
-3.951332e-08
-8.4996794e-07
-3.9773509e-08
-8.0993585e-07
-4.00321e-08
-7.696464e-07
-4.028944e-08
-7.2910049e-07
-4.0545904e-08
-6.8829872e-07
-4.0801771e-08
-6.472414e-07
-4.105732e-08
-6.0592861e-07
-4.1312792e-08
-5.6436017e-07
-4.1568427e-08
-5.2253584e-07
-4.1824333e-08
-4.8045536e-07
-4.2080476e-08
-4.3811873e-07
-4.2336626e-08
-3.9552672e-07
-4.2592001e-08
-3.5268202e-07
-4.2844693e-08
-3.0959171e-07
-4.3090316e-08
-2.6627258e-07
-4.3319121e-08
-2.2276201e-07
-4.3510574e-08
-1.7913469e-07
-4.3627332e-08
-1.3550759e-07
-4.3627093e-08
-9.1937732e-08
-4.3569873e-08
-4.7787383e-08
-4.4150348e-08
-4.7787379e-08
-2.4794664e-09
3.448257e-09
-9.9705205e-09
1.070506e-08
-2.2541664e-08
1.8039251e-08
-4.0220089e-08
2.5514558e-08
-6.2985404e-08
3.2957005e-08
-9.0786556e-08
4.029187e-08
-1.2355209e-07
4.7514509e-08
-1.6120047e-07
5.4615662e-08
-2.0364052e-07
6.1583935e-08
-2.5077145e-07
6.8407517e-08
-3.0248295e-07
7.5073897e-08
-3.5865515e-07
8.1569966e-08
-4.1915878e-07
8.7882449e-08
-4.8385536e-07
9.3998205e-08
-5.5259745e-07
9.9904396e-08
-6.2522907e-07
1.0558863e-07
-7.0158608e-07
1.1103908e-07
-7.8149673e-07
1.1624449e-07
-8.6478214e-07
1.2119433e-07
-9.5125692e-07
1.2587878e-07
-1.0407299e-06
1.3028883e-07
-1.1330047e-06
1.3441638e-07
-1.2278803e-06
1.3825438e-07
-1.3251502e-06
1.4179712e-07
-1.4245895e-06
1.4503998e-07
-1.5259732e-06
1.4797286e-07
-1.629105e-06
1.5058918e-07
-1.7337722e-06
1.5289059e-07
-1.8397556e-06
1.5487674e-07
-1.9468355e-06
1.5654689e-07
-2.0547928e-06
1.5790082e-07
-2.1634094e-06
1.5893918e-07
-2.2724688e-06
1.5966348e-07
-2.381757e-06
1.6007617e-07
-2.4910624e-06
1.6018059e-07
-2.600177e-06
1.5998098e-07
-2.7088963e-06
1.5948241e-07
-2.8170204e-06
1.5869079e-07
-2.9243542e-06
1.5761279e-07
-3.030708e-06
1.5625578e-07
-3.1358978e-06
1.5462784e-07
-3.2397459e-06
1.5273765e-07
-3.342081e-06
1.5059447e-07
-3.4427389e-06
1.4820809e-07
-3.5415626e-06
1.4558873e-07
-3.6384024e-06
1.4274706e-07
-3.7331164e-06
1.3969411e-07
-3.8255706e-06
1.3644119e-07
-3.915639e-06
1.3299989e-07
-4.0032038e-06
1.2938197e-07
-4.0881553e-06
1.2559936e-07
-4.1703923e-06
1.2166409e-07
-4.2498217e-06
1.1758817e-07
-4.3263587e-06
1.1338369e-07
-4.3999267e-06
1.0906261e-07
-4.4704571e-06
1.0463684e-07
-4.5378896e-06
1.0011811e-07
-4.6021714e-06
9.551801e-08
-4.6632577e-06
9.0847866e-08
-4.721111e-06
8.6118772e-08
-4.7757012e-06
8.1341519e-08
-4.8270052e-06
7.6526606e-08
-4.8750069e-06
7.1684166e-08
-4.9196964e-06
6.6823964e-08
-4.9610705e-06
6.1955407e-08
-4.9991318e-06
5.7087467e-08
-5.0338888e-06
5.2228756e-08
-5.0653551e-06
4.7387436e-08
-5.0935499e-06
4.2571311e-08
-5.118497e-06
3.7787815e-08
-5.140225e-06
3.3044082e-08
-5.1587669e-06
2.8347008e-08
-5.17416e-06
2.3703268e-08
-5.1864458e-06
1.9119244e-08
-5.1956702e-06
1.4601172e-08
-5.2018845e-06
1.0155399e-08
-5.2051509e-06
5.7878039e-09
-5.2055605e-06
1.4864523e-09
-5.2031581e-06
-2.7841428e-09
-5.1978277e-06
-6.9625796e-09
-5.1897139e-06
-1.1046764e-08
-5.1788992e-06
-1.5039317e-08
-5.165452e-06
-1.8940661e-08
-5.1494357e-06
-2.2750909e-08
-5.1309127e-06
-2.6469719e-08
-5.1099453e-06
-3.0096584e-08
-5.0865963e-06
-3.3631048e-08
-5.0609285e-06
-3.7072837e-08
-5.0330049e-06
-4.0421852e-08
-5.0028884e-06
-4.3678253e-08
-4.9706415e-06
-4.6842386e-08
-4.9363265e-06
-4.9914802e-08
-4.900005e-06
-5.2896275e-08
-4.861738e-06
-5.5787725e-08
-4.8215857e-06
-5.8590236e-08
-4.7796075e-06
-6.1305099e-08
-4.7358616e-06
-6.3933691e-08
-4.6904055e-06
-6.6477519e-08
-4.6432952e-06
-6.893826e-08
-4.5945856e-06
-7.1317611e-08
-4.5443306e-06
-7.3617417e-08
-4.4925825e-06
-7.5839609e-08
-4.4393923e-06
-7.7986143e-08
-4.3848096e-06
-8.0059109e-08
-4.3288826e-06
-8.2060538e-08
-4.2716581e-06
-8.3992624e-08
-4.2131813e-06
-8.5857488e-08
-4.1534959e-06
-8.7657402e-08
-4.0926441e-06
-8.9394532e-08
-4.0306668e-06
-9.1071125e-08
-3.967603e-06
-9.2689426e-08
-3.9034905e-06
-9.4251675e-08
-3.8383654e-06
-9.5760094e-08
-3.7722623e-06
-9.7216938e-08
-3.7052145e-06
-9.8624417e-08
-3.6372535e-06
-9.998473e-08
-3.5684096e-06
-1.0130003e-07
-3.4987114e-06
-1.0257252e-07
-3.4281863e-06
-1.0380428e-07
-3.3568601e-06
-1.0499743e-07
-3.2847574e-06
-1.0615403e-07
-3.2119012e-06
-1.0727609e-07
-3.1383133e-06
-1.0836562e-07
-3.0640142e-06
-1.0942454e-07
-2.989023e-06
-1.1045476e-07
-2.9133576e-06
-1.1145821e-07
-2.8370348e-06
-1.1243665e-07
-2.76007e-06
-1.1339191e-07
-2.6824774e-06
-1.1432566e-07
-2.6042704e-06
-1.1523964e-07
-2.5254609e-06
-1.1613548e-07
-2.4460599e-06
-1.1701475e-07
-2.3660775e-06
-1.1787903e-07
-2.2855224e-06
-1.1872983e-07
-2.2044027e-06
-1.1956856e-07
-2.1227254e-06
-1.2039664e-07
-2.0404966e-06
-1.2121542e-07
-1.9577216e-06
-1.2202622e-07
-1.8744046e-06
-1.2283027e-07
-1.7905493e-06
-1.2362878e-07
-1.7061585e-06
-1.244229e-07
-1.6212343e-06
-1.252137e-07
-1.5357779e-06
-1.2600224e-07
-1.4497902e-06
-1.2678947e-07
-1.3632713e-06
-1.2757626e-07
-1.2762207e-06
-1.2836339e-07
-1.1886375e-06
-1.2915163e-07
-1.1005205e-06
-1.2994137e-07
-1.0118681e-06
-1.3073283e-07
-9.2267895e-07
-1.3152579e-07
-8.3295185e-07
-1.3231911e-07
-7.4268662e-07
-1.3310992e-07
-6.5188462e-07
-1.3389233e-07
-5.6054933e-07
-1.346544e-07
-4.6868491e-07
-1.35375e-07
-3.7628734e-07
-1.360249e-07
-2.8331249e-07
-1.3660195e-07
-1.8960437e-07
-1.3727799e-07
-9.4970312e-08
-1.387844e-07
-1.427577e-07
-3.2987326e-09
6.7469896e-09
-1.3080712e-08
2.0487039e-08
-2.9368952e-08
3.4327491e-08
-5.2119974e-08
4.826558e-08
-8.1301886e-08
6.2138917e-08
-1.1686652e-07
7.5856502e-08
-1.5873616e-07
8.9384148e-08
-2.0681322e-07
1.0269272e-07
-2.609839e-07
1.1575461e-07
-3.2111934e-07
1.2854296e-07
-3.8707661e-07
1.4103116e-07
-4.5869937e-07
1.5319273e-07
-5.3581853e-07
1.6500161e-07
-6.182527e-07
1.7643238e-07
-7.0580882e-07
1.8746052e-07
-7.9828272e-07
1.9806253e-07
-8.9545974e-07
2.082161e-07
-9.9711544e-07
2.179002e-07
-1.1030163e-06
2.2709519e-07
-1.2129205e-06
2.3578294e-07
-1.3265785e-06
2.4394684e-07
-1.443734e-06
2.5157196e-07
-1.5641247e-06
2.5864508e-07
-1.6874823e-06
2.6515469e-07
-1.8135333e-06
2.7109097e-07
-1.9420047e-06
2.7644428e-07
-2.0726221e-06
2.8120657e-07
-2.2051055e-06
2.8537399e-07
-2.3391736e-06
2.8894482e-07
-2.4745453e-06
2.9191863e-07
-2.6109409e-06
2.9429642e-07
-2.7480824e-06
2.9608068e-07
-2.8856945e-06
2.9727555e-07
-3.0235051e-06
2.9788676e-07
-3.1612461e-06
2.9792166e-07
-3.2986544e-06
2.9738919e-07
-3.4354718e-06
2.9629982e-07
-3.5714465e-06
2.9466548e-07
-3.7063332e-06
2.9249949e-07
-3.8398938e-06
2.8981644e-07
-3.9718982e-06
2.8663218e-07
-4.1021241e-06
2.8296364e-07
-4.2303584e-06
2.7882877e-07
-4.3563968e-06
2.7424646e-07
-4.4800445e-06
2.6923638e-07
-4.6011163e-06
2.6381893e-07
-4.7194374e-06
2.5801513e-07
-4.8348427e-06
2.5184652e-07
-4.9471778e-06
2.45335e-07
-5.0562987e-06
2.3850283e-07
-5.1620717e-06
2.3137245e-07
-5.2643741e-06
2.2396645e-07
-5.3630933e-06
2.1630738e-07
-5.4581274e-06
2.0841778e-07
-5.5493848e-06
2.0032e-07
-5.6367841e-06
1.9203617e-07
-5.7202541e-06
1.835881e-07
-5.7997333e-06
1.7499721e-07
-5.8751699e-06
1.6628448e-07
-5.9465215e-06
1.5747038e-07
-6.0137548e-06
1.4857478e-07
-6.0768452e-06
1.3961696e-07
-6.1357765e-06
1.3061554e-07
-6.190541e-06
1.2158838e-07
-6.2411382e-06
1.1255269e-07
-6.2875757e-06
1.0352488e-07
-6.3298675e-06
9.4520583e-08
-6.3680347e-06
8.5554652e-08
-6.4021046e-06
7.6641226e-08
-6.4321105e-06
6.7793665e-08
-6.4580911e-06
5.902471e-08
-6.4800906e-06
5.0346478e-08
-6.4981579e-06
4.1770585e-08
-6.5123467e-06
3.3308039e-08
-6.5227149e-06
2.4969389e-08
-6.5293256e-06
1.6766137e-08
-6.5322542e-06
8.7163595e-09
-6.5316615e-06
8.9380865e-10
-6.5273903e-06
-7.0553732e-09
-6.5196007e-06
-1.4752208e-08
-6.5083861e-06
-2.2261333e-08
-6.493827e-06
-2.9598444e-08
-6.476001e-06
-3.676661e-08
-6.454986e-06
-4.3765899e-08
-6.4308605e-06
-5.059529e-08
-6.4037033e-06
-5.7253732e-08
-6.3735939e-06
-6.3740455e-08
-6.3406117e-06
-7.0055088e-08
-6.3048359e-06
-7.6197616e-08
-6.2663457e-06
-8.2168496e-08
-6.2252195e-06
-8.7968508e-08
-6.1815355e-06
-9.3598863e-08
-6.1353707e-06
-9.9061091e-08
-6.0868013e-06
-1.0435703e-07
-6.0359027e-06
-1.0948885e-07
-5.9827489e-06
-1.1445896e-07
-5.9274125e-06
-1.1927007e-07
-5.869965e-06
-1.2392505e-07
-5.8104762e-06
-1.2842702e-07
-5.7490145e-06
-1.3277928e-07
-5.6856467e-06
-1.3698527e-07
-5.6204377e-06
-1.4104856e-07
-5.553451e-06
-1.4497292e-07
-5.4847479e-06
-1.4876214e-07
-5.4143884e-06
-1.5242011e-07
-5.3424301e-06
-1.5595085e-07
-5.2689293e-06
-1.5935836e-07
-5.1939399e-06
-1.6264678e-07
-5.1175142e-06
-1.6582023e-07
-5.0397025e-06
-1.688828e-07
-4.9605533e-06
-1.7183865e-07
-4.880113e-06
-1.7469197e-07
-4.7984263e-06
-1.7744683e-07
-4.7155358e-06
-1.8010741e-07
-4.6314824e-06
-1.8267778e-07
-4.5463052e-06
-1.8516197e-07
-4.4600412e-06
-1.8756404e-07
-4.3727258e-06
-1.8988792e-07
-4.2843925e-06
-1.9213756e-07
-4.1950732e-06
-1.9431676e-07
-4.1047978e-06
-1.9642938e-07
-4.0135948e-06
-1.9847909e-07
-3.9214909e-06
-2.0046957e-07
-3.828511e-06
-2.024044e-07
-3.7346787e-06
-2.0428709e-07
-3.6400158e-06
-2.0612109e-07
-3.5445428e-06
-2.0790971e-07
-3.4482784e-06
-2.0965628e-07
-3.3512402e-06
-2.1136391e-07
-3.253444e-06
-2.1303576e-07
-3.1549047e-06
-2.1467478e-07
-3.0556355e-06
-2.1628395e-07
-2.9556484e-06
-2.1786612e-07
-2.8549543e-06
-2.1942398e-07
-2.7535626e-06
-2.2096025e-07
-2.6514818e-06
-2.2247747e-07
-2.548719e-06
-2.2397815e-07
-2.4452806e-06
-2.2546463e-07
-2.3411716e-06
-2.2693924e-07
-2.2363962e-06
-2.2840421e-07
-2.1309575e-06
-2.298616e-07
-2.0248578e-06
-2.3131341e-07
-1.9180985e-06
-2.3276159e-07
-1.81068e-06
-2.3420788e-07
-1.7026023e-06
-2.3565396e-07
-1.5938644e-06
-2.3710131e-07
-1.4844648e-06
-2.3855128e-07
-1.3744012e-06
-2.4000492e-07
-1.2636712e-06
-2.414629e-07
-1.1522715e-06
-2.4292544e-07
-1.0401989e-06
-2.443917e-07
-9.2744937e-07
-2.4585948e-07
-8.1401761e-07
-2.4732408e-07
-6.9989506e-07
-2.4877696e-07
-5.8506424e-07
-2.5020581e-07
-4.6948714e-07
-2.5160201e-07
-3.5309441e-07
-2.5299467e-07
-2.35819e-07
-2.5455341e-07
-1.178038e-07
-2.5679959e-07
-2.6056149e-07
-3.6439442e-09
1.0390934e-08
-1.4466783e-08
3.1309878e-08
-3.2431287e-08
5.2291995e-08
-5.746759e-08
7.3301883e-08
-8.9529302e-08
9.4200629e-08
-1.2856186e-07
1.1488906e-07
-1.744842e-07
1.3530649e-07
-2.2719279e-07
1.5540131e-07
-2.8656466e-07
1.7512649e-07
-3.5245911e-07
1.9443741e-07
-4.2471895e-07
2.13291e-07
-5.0317159e-07
2.3164537e-07
-5.8762987e-07
2.4945989e-07
-6.7789286e-07
2.6669537e-07
-7.7374656e-07
2.8331423e-07
-8.7496468e-07
2.9928064e-07
-9.8130933e-07
3.1456075e-07
-1.0925319e-06
3.2912277e-07
-1.2083738e-06
3.4293712e-07
-1.3285675e-06
3.5597656e-07
-1.4528369e-06
3.6821625e-07
-1.5808988e-06
3.7963391e-07
-1.7124636e-06
3.9020982e-07
-1.8472358e-06
3.9992689e-07
-1.9849155e-06
4.087707e-07
-2.1252002e-06
4.1672895e-07
-2.2677853e-06
4.2379167e-07
-2.4123638e-06
4.2995253e-07
-2.5586275e-06
4.3520854e-07
-2.7062683e-06
4.3955938e-07
-2.8549792e-06
4.4300728e-07
-3.0044554e-06
4.4555691e-07
-3.1543953e-06
4.4721545e-07
-3.3045011e-06
4.4799253e-07
-3.4544796e-06
4.4790019e-07
-3.6040432e-06
4.4695284e-07
-3.7529105e-06
4.4516712e-07
-3.9008069e-06
4.4256186e-07
-4.0474653e-06
4.3915791e-07
-4.192627e-06
4.3497807e-07
-4.3360417e-06
4.3004687e-07
-4.4774685e-06
4.2439052e-07
-4.6166764e-06
4.1803667e-07
-4.7534444e-06
4.1101437e-07
-4.8875617e-06
4.0335377e-07
-5.0188289e-06
3.950861e-07
-5.1470572e-06
3.8624345e-07
-5.2720693e-06
3.7685861e-07
-5.3936993e-06
3.6696493e-07
-5.5117926e-06
3.5659618e-07
-5.6262066e-06
3.457864e-07
-5.7368099e-06
3.3456976e-07
-5.8434828e-06
3.2298035e-07
-5.9461173e-06
3.1105219e-07
-6.0446162e-06
2.9881893e-07
-6.1388939e-06
2.863139e-07
-6.2288757e-06
2.7356988e-07
-6.3144975e-06
2.6061899e-07
-6.3957057e-06
2.4749272e-07
-6.472457e-06
2.3422166e-07
-6.5447178e-06
2.208356e-07
-6.6124641e-06
2.0736329e-07
-6.6756811e-06
1.9383251e-07
-6.7343626e-06
1.8026991e-07
-6.788511e-06
1.6670106e-07
-6.8381365e-06
1.5315037e-07
-6.883257e-06
1.3964106e-07
-6.9238974e-06
1.2619512e-07
-6.9600896e-06
1.1283341e-07
-6.9918716e-06
9.9575614e-08
-7.0192872e-06
8.6440288e-08
-7.0423857e-06
7.3444987e-08
-7.0612214e-06
6.0606315e-08
-7.0758534e-06
4.7940039e-08
-7.0863453e-06
3.5461272e-08
-7.0927652e-06
2.3186093e-08
-7.0951894e-06
1.1140531e-08
-7.0937005e-06
-5.9512212e-10
-7.0883376e-06
-1.2418283e-08
-7.0792048e-06
-2.3884992e-08
-7.0663749e-06
-3.509117e-08
-7.0499308e-06
-4.6042619e-08
-7.0299571e-06
-5.6740269e-08
-7.0065397e-06
-6.7183299e-08
-6.9797647e-06
-7.7370273e-08
-6.9497187e-06
-8.7299797e-08
-6.9164881e-06
-9.6970997e-08
-6.8801598e-06
-1.0638344e-07
-6.84082e-06
-1.1553736e-07
-6.798555e-06
-1.2443357e-07
-6.75345e-06
-1.3307346e-07
-6.7055899e-06
-1.4145895e-07
-6.6550586e-06
-1.4959246e-07
-6.6019387e-06
-1.5747693e-07
-6.5463118e-06
-1.6511571e-07
-6.4882582e-06
-1.7251254e-07
-6.4278568e-06
-1.7967154e-07
-6.3651847e-06
-1.8659712e-07
-6.3003176e-06
-1.9329409e-07
-6.2333295e-06
-1.9976737e-07
-6.1642926e-06
-2.0602225e-07
-6.093277e-06
-2.1206416e-07
-6.0203512e-06
-2.1789872e-07
-5.9455816e-06
-2.2353169e-07
-5.8690327e-06
-2.2896897e-07
-5.790767e-06
-2.3421657e-07
-5.7108448e-06
-2.3928056e-07
-5.6293245e-06
-2.441671e-07
-5.5462623e-06
-2.4888239e-07
-5.4617125e-06
-2.5343264e-07
-5.3757271e-06
-2.5782404e-07
-5.2883563e-06
-2.6206283e-07
-5.1996479e-06
-2.6615522e-07
-5.1096479e-06
-2.7010734e-07
-5.0184004e-06
-2.7392535e-07
-4.925947e-06
-2.7761533e-07
-4.8323278e-06
-2.8118325e-07
-4.7375807e-06
-2.8463506e-07
-4.6417416e-06
-2.8797661e-07
-4.5448447e-06
-2.9121366e-07
-4.4469222e-06
-2.9435186e-07
-4.3480045e-06
-2.9739677e-07
-4.2481202e-06
-3.0035388e-07
-4.1472961e-06
-3.0322853e-07
-4.0455573e-06
-3.0602594e-07
-3.9429271e-06
-3.0875124e-07
-3.8394274e-06
-3.1140943e-07
-3.7350783e-06
-3.1400541e-07
-3.6298983e-06
-3.1654387e-07
-3.5239046e-06
-3.1902947e-07
-3.4171127e-06
-3.2146669e-07
-3.3095367e-06
-3.2385989e-07
-3.2011895e-06
-3.2621334e-07
-3.0920824e-06
-3.2853111e-07
-2.9822255e-06
-3.3081715e-07
-2.8716276e-06
-3.3307533e-07
-2.7602965e-06
-3.3530933e-07
-2.6482384e-06
-3.3752271e-07
-2.5354587e-06
-3.3971891e-07
-2.4219617e-06
-3.419012e-07
-2.3077506e-06
-3.4407276e-07
-2.1928275e-06
-3.4623653e-07
-2.0771936e-06
-3.4839539e-07
-1.9608495e-06
-3.5055202e-07
-1.8437945e-06
-3.5270896e-07
-1.7260274e-06
-3.5486846e-07
-1.607546e-06
-3.5703266e-07
-1.4883476e-06
-3.592033e-07
-1.3684287e-06
-3.6138182e-07
-1.247785e-06
-3.6356915e-07
-1.1264111e-06
-3.6576552e-07
-1.0043005e-06
-3.6797009e-07
-8.8144374e-07
-3.7018087e-07
-7.5782623e-07
-3.7239447e-07
-6.3342401e-07
-3.7460804e-07
-5.0819913e-07
-3.7682688e-07
-3.8210462e-07
-3.7908918e-07
-2.551374e-07
-3.8152063e-07
-1.2751885e-07
-3.8441815e-07
-3.8808035e-07
-3.7715764e-09
1.416251e-08
-1.5011924e-08
4.2550225e-08
-3.3669259e-08
7.094933e-08
-5.9670097e-08
9.9302721e-08
-9.2955907e-08
1.2748644e-07
-1.3346167e-07
1.5539482e-07
-1.8110123e-07
1.8294606e-07
-2.3576727e-07
2.1006735e-07
-2.9733262e-07
2.3669183e-07
-3.6565152e-07
2.6275631e-07
-4.4056084e-07
2.8820032e-07
-5.218811e-07
3.1296563e-07
-6.0941745e-07
3.3699623e-07
-7.0296047e-07
3.6023839e-07
-8.0228705e-07
3.826408e-07
-9.0716117e-07
4.0415476e-07
-1.0173347e-06
4.2473433e-07
-1.1325485e-06
4.4433651e-07
-1.2525327e-06
4.6292138e-07
-1.3770085e-06
4.8045228e-07
-1.5056881e-06
4.9689586e-07
-1.6382764e-06
5.1222226e-07
-1.7744717e-06
5.2640512e-07
-1.9139665e-06
5.3942172e-07
-2.0564488e-06
5.5125292e-07
-2.2016029e-06
5.6188309e-07
-2.3491115e-06
5.7130024e-07
-2.4986553e-06
5.7949642e-07
-2.6499146e-06
5.8646775e-07
-2.8025693e-06
5.9221409e-07
-2.9563009e-06
5.9673892e-07
-3.1107932e-06
6.0004921e-07
-3.2657332e-06
6.0215539e-07
-3.4208119e-06
6.0307124e-07
-3.5757255e-06
6.0281383e-07
-3.730176e-06
6.0140337e-07
-3.883872e-06
5.988631e-07
-4.0365293e-06
5.9521918e-07
-4.1878719e-06
5.9050046e-07
-4.3376322e-06
5.8473834e-07
-4.4855519e-06
5.7796658e-07
-4.6313825e-06
5.7022113e-07
-4.7748857e-06
5.6153987e-07
-4.9158338e-06
5.5196246e-07
-5.0540101e-06
5.4153009e-07
-5.1892093e-06
5.3028531e-07
-5.3212376e-06
5.1827178e-07
-5.4499131e-06
5.0553408e-07
-5.5750657e-06
4.9211751e-07
-5.6965373e-06
4.7806782e-07
-5.8141821e-06
4.6343118e-07
-5.9278661e-06
4.4825376e-07
-6.0374674e-06
4.325817e-07
-6.1428761e-06
4.1646089e-07
-6.243994e-06
3.9993679e-07
-6.3407344e-06
3.8305428e-07
-6.433022e-06
3.6585751e-07
-6.5207928e-06
3.4838976e-07
-6.6039933e-06
3.3069327e-07
-6.6825809e-06
3.1280921e-07
-6.7565228e-06
2.9477748e-07
-6.8257962e-06
2.7663669e-07
-6.8903877e-06
2.5842405e-07
-6.950293e-06
2.4017523e-07
-7.0055164e-06
2.2192444e-07
-7.0560703e-06
2.0370427e-07
-7.101975e-06
1.8554572e-07
-7.143258e-06
1.6747815e-07
-7.1799539e-06
1.495293e-07
-7.2121035e-06
1.3172528e-07
-7.2397539e-06
1.1409061e-07
-7.2629572e-06
9.664834e-08
-7.281771e-06
7.9420047e-08
-7.2962569e-06
6.2425973e-08
-7.306481e-06
4.5685386e-08
-7.312513e-06
2.9218129e-08
-7.3144267e-06
1.3054219e-08
-7.3122213e-06
-2.8005266e-09
-7.3061312e-06
-1.8508441e-08
-7.2961691e-06
-3.3847037e-08
-7.2824149e-06
-4.8845376e-08
-7.2649517e-06
-6.3505856e-08
-7.2438655e-06
-7.7826414e-08
-7.2192445e-06
-9.1804339e-08
-7.1911776e-06
-1.0543716e-07
-7.1597544e-06
-1.1872297e-07
-7.1250648e-06
-1.3166063e-07
-7.0871984e-06
-1.4424981e-07
-7.0462448e-06
-1.5649098e-07
-7.0022929e-06
-1.6838544e-07
-6.9554312e-06
-1.7993521e-07
-6.9057471e-06
-1.9114304e-07
-6.8533272e-06
-2.0201238e-07
-6.7982569e-06
-2.1254726e-07
-6.7406202e-06
-2.2275233e-07
-6.6805e-06
-2.3263274e-07
-6.6179774e-06
-2.4219414e-07
-6.553132e-06
-2.5144255e-07
-6.4860416e-06
-2.6038448e-07
-6.4167823e-06
-2.690267e-07
-6.3454282e-06
-2.773763e-07
-6.2720517e-06
-2.8544069e-07
-6.196723e-06
-2.9322745e-07
-6.1195103e-06
-3.0074439e-07
-6.0404798e-06
-3.0799946e-07
-5.9596956e-06
-3.1500076e-07
-5.8772197e-06
-3.2175648e-07
-5.7931118e-06
-3.2827495e-07
-5.7074298e-06
-3.3456445e-07
-5.620229e-06
-3.4063336e-07
-5.531563e-06
-3.4649005e-07
-5.441483e-06
-3.5214289e-07
-5.350038e-06
-3.5760019e-07
-5.2572751e-06
-3.628702e-07
-5.1632393e-06
-3.6796121e-07
-5.0679733e-06
-3.7288131e-07
-4.9715179e-06
-3.7763862e-07
-4.873912e-06
-3.8224101e-07
-4.7751922e-06
-3.8669638e-07
-4.6753934e-06
-3.9101241e-07
-4.5745485e-06
-3.9519675e-07
-4.4726885e-06
-3.9925682e-07
-4.3698424e-06
-4.0319991e-07
-4.2660377e-06
-4.0703323e-07
-4.1612999e-06
-4.1076378e-07
-4.0556527e-06
-4.1439837e-07
-3.9491184e-06
-4.1794377e-07
-3.8417174e-06
-4.2140644e-07
-3.7334685e-06
-4.2479275e-07
-3.6243891e-06
-4.2810889e-07
-3.5144949e-06
-4.3136087e-07
-3.4038002e-06
-4.3455454e-07
-3.292318e-06
-4.3769554e-07
-3.1800598e-06
-4.4078938e-07
-3.0670356e-06
-4.4384133e-07
-2.9532543e-06
-4.4685657e-07
-2.8387237e-06
-4.4983999e-07
-2.72345e-06
-4.5279643e-07
-2.6074385e-06
-4.5573041e-07
-2.4906933e-06
-4.5864635e-07
-2.3732176e-06
-4.6154847e-07
-2.2550134e-06
-4.6444079e-07
-2.1360816e-06
-4.6732715e-07
-2.0164225e-06
-4.7021114e-07
-1.8960352e-06
-4.7309623e-07
-1.7749182e-06
-4.7598551e-07
-1.6530688e-06
-4.7888195e-07
-1.530484e-06
-4.8178814e-07
-1.4071595e-06
-4.8470639e-07
-1.28309e-06
-4.8763858e-07
-1.1582694e-06
-4.9058616e-07
-1.0326894e-06
-4.9355009e-07
-9.0633928e-07
-4.9653098e-07
-7.7920399e-07
-4.9952976e-07
-6.5126239e-07
-5.0254965e-07
-5.2248748e-07
-5.0560177e-07
-3.9285808e-07
-5.0871858e-07
-2.6240375e-07
-5.1197496e-07
-1.3131223e-07
-5.1550967e-07
-5.1939258e-07
-3.8183662e-09
1.7980876e-08
-1.523329e-08
5.3965149e-08
-3.4196204e-08
8.9912244e-08
-6.0640416e-08
1.2574693e-07
-9.4500884e-08
1.6134691e-07
-1.3570359e-07
1.9659753e-07
-1.8415666e-07
2.3139913e-07
-2.3974897e-07
2.6565966e-07
-3.0235024e-07
2.9929309e-07
-3.7181171e-07
3.3221779e-07
-4.4796708e-07
3.6435569e-07
-5.3063337e-07
3.9563193e-07
-6.1961183e-07
4.2597469e-07
-7.1468878e-07
4.5531534e-07
-8.1563646e-07
4.8358848e-07
-9.222139e-07
5.107322e-07
-1.0341678e-06
5.366882e-07
-1.1512333e-06
5.6140201e-07
-1.2731351e-06
5.8482317e-07
-1.3995882e-06
6.0690537e-07
-1.5302989e-06
6.2760661e-07
-1.664966e-06
6.4688934e-07
-1.8032814e-06
6.6472049e-07
-1.9449313e-06
6.8107168e-07
-2.0895975e-06
6.9591913e-07
-2.2369582e-06
7.0924375e-07
-2.3866891e-06
7.2103119e-07
-2.5384647e-06
7.3127199e-07
-2.6919586e-06
7.3996165e-07
-2.8468449e-06
7.4710038e-07
-3.002799e-06
7.5269307e-07
-3.1594989e-06
7.5674911e-07
-3.3166259e-06
7.5928235e-07
-3.4738655e-06
7.6031087e-07
-3.6309086e-06
7.5985694e-07
-3.7874521e-06
7.5794683e-07
-3.9431996e-06
7.5461062e-07
-4.0978625e-06
7.4988202e-07
-4.2511602e-06
7.4379816e-07
-4.4028212e-06
7.3639936e-07
-4.5525835e-06
7.2772888e-07
-4.7001951e-06
7.1783271e-07
-4.8454145e-06
7.0675927e-07
-4.9880112e-06
6.9455916e-07
-5.127766e-06
6.812849e-07
-5.2644713e-06
6.6699068e-07
-5.3979316e-06
6.5173203e-07
-5.5279632e-06
6.3556564e-07
-5.6543947e-06
6.1854902e-07
-5.7770671e-06
6.0074026e-07
-5.8958338e-06
5.8219785e-07
-6.0105603e-06
5.6298031e-07
-6.1211247e-06
5.4314606e-07
-6.227417e-06
5.2275314e-07
-6.3293392e-06
5.0185902e-07
-6.4268053e-06
4.805204e-07
-6.5197408e-06
4.5879298e-07
-6.6080824e-06
4.3673136e-07
-6.6917779e-06
4.1438879e-07
-6.7707858e-06
3.9181713e-07
-6.8450749e-06
3.6906659e-07
-6.914624e-06
3.4618576e-07
-6.9794213e-06
3.2322136e-07
-7.0394643e-06
3.0021825e-07
-7.0947592e-06
2.7721932e-07
-7.1453204e-06
2.5426547e-07
-7.1911702e-06
2.3139551e-07
-7.2323383e-06
2.086462e-07
-7.2688611e-06
1.8605215e-07
-7.3007817e-06
1.6364592e-07
-7.3281491e-06
1.4145797e-07
-7.3510175e-06
1.1951671e-07
-7.369446e-06
9.7848605e-08
-7.3834983e-06
7.6478298e-08
-7.3932421e-06
5.5429136e-08
-7.3987487e-06
3.4724777e-08
-7.4000912e-06
1.4396668e-08
-7.3973211e-06
-5.5706127e-09
-7.3905883e-06
-2.524128e-08
-7.3799535e-06
-4.4481828e-08
-7.365496e-06
-6.3302874e-08
-7.3473004e-06
-8.1701428e-08
-7.3254543e-06
-9.9672557e-08
-7.3000469e-06
-1.1721171e-07
-7.2711687e-06
-1.3431534e-07
-7.2389107e-06
-1.5098093e-07
-7.2033642e-06
-1.6720712e-07
-7.1646204e-06
-1.8299363e-07
-7.1227702e-06
-1.9834122e-07
-7.0779039e-06
-2.132517e-07
-7.0301114e-06
-2.2772779e-07
-6.9794812e-06
-2.4177316e-07
-6.9261013e-06
-2.5539231e-07
-6.8700581e-06
-2.6859048e-07
-6.8114368e-06
-2.8137363e-07
-6.7503211e-06
-2.9374841e-07
-6.6867933e-06
-3.0572199e-07
-6.6209336e-06
-3.1730218e-07
-6.552821e-06
-3.2849715e-07
-6.4825321e-06
-3.393156e-07
-6.4101419e-06
-3.4976651e-07
-6.3357233e-06
-3.5985926e-07
-6.2593473e-06
-3.6960347e-07
-6.1810826e-06
-3.7900905e-07
-6.100996e-06
-3.8808604e-07
-6.0191521e-06
-3.9684468e-07
-5.9356132e-06
-4.0529535e-07
-5.8504396e-06
-4.1344849e-07
-5.7636895e-06
-4.2131463e-07
-5.6754186e-06
-4.2890427e-07
-5.5856806e-06
-4.3622801e-07
-5.4945271e-06
-4.4329635e-07
-5.4020075e-06
-4.5011981e-07
-5.308169e-06
-4.5670877e-07
-5.2130566e-06
-4.6307359e-07
-5.1167134e-06
-4.6922454e-07
-5.0191802e-06
-4.7517176e-07
-4.920496e-06
-4.8092522e-07
-4.8206976e-06
-4.8649476e-07
-4.7198199e-06
-4.9189013e-07
-4.6178958e-06
-4.9712085e-07
-4.5149564e-06
-5.021963e-07
-4.4110306e-06
-5.0712563e-07
-4.306146e-06
-5.1191787e-07
-4.200328e-06
-5.165818e-07
-4.0936003e-06
-5.2112605e-07
-3.9859851e-06
-5.25559e-07
-3.8775027e-06
-5.2988885e-07
-3.7681719e-06
-5.3412352e-07
-3.6580099e-06
-5.3827085e-07
-3.5470325e-06
-5.4233836e-07
-3.4352537e-06
-5.4633331e-07
-3.3226864e-06
-5.5026287e-07
-3.2093418e-06
-5.5413394e-07
-3.09523e-06
-5.5795308e-07
-2.9803598e-06
-5.6172683e-07
-2.8647385e-06
-5.6546132e-07
-2.7483723e-06
-5.6916259e-07
-2.6312664e-06
-5.7283635e-07
-2.5134246e-06
-5.7648814e-07
-2.3948498e-06
-5.8012326e-07
-2.2755438e-06
-5.8374675e-07
-2.1555075e-06
-5.8736348e-07
-2.0347407e-06
-5.9097796e-07
-1.9132423e-06
-5.945946e-07
-1.7910105e-06
-5.9821736e-07
-1.6680423e-06
-6.0185011e-07
-1.5443341e-06
-6.0549631e-07
-1.4198813e-06
-6.0915919e-07
-1.2946783e-06
-6.1284165e-07
-1.1687182e-06
-6.1654627e-07
-1.0419927e-06
-6.2027561e-07
-9.1449133e-07
-6.2403231e-07
-7.8620133e-07
-6.2781977e-07
-6.5710718e-07
-6.3164381e-07
-5.271932e-07
-6.3551577e-07
-3.9645366e-07
-6.3945812e-07
-2.6491914e-07
-6.4350948e-07
-1.3270399e-07
-6.4772483e-07
-6.5209657e-07
-3.8462834e-09
2.182716e-08
-1.5365437e-08
6.5484303e-08
-3.4517245e-08
1.0906405e-07
-6.1243345e-08
1.5247303e-07
-9.5476391e-08
1.9557995e-07
-1.3713638e-07
2.3825751e-07
-1.8612647e-07
2.8038922e-07
-2.4233173e-07
3.2186492e-07
-3.0561877e-07
3.6258013e-07
-3.7583609e-07
4.024351e-07
-4.5281468e-07
4.4133428e-07
-5.3636878e-07
4.7918603e-07
-6.2629665e-07
5.1590257e-07
-7.2238141e-07
5.514001e-07
-8.2439186e-07
5.8559893e-07
-9.3208334e-07
6.1842368e-07
-1.0451986e-06
6.498035e-07
-1.1634689e-06
6.7967225e-07
-1.2866145e-06
7.0796875e-07
-1.414346e-06
7.3463692e-07
-1.5463654e-06
7.5962597e-07
-1.6823666e-06
7.8289056e-07
-1.822037e-06
8.043909e-07
-1.9650582e-06
8.2409285e-07
-2.1111071e-06
8.4196803e-07
-2.2598571e-06
8.5799379e-07
-2.4109792e-06
8.7215334e-07
-2.564143e-06
8.8443577e-07
-2.7190174e-06
8.9483603e-07
-2.8752719e-06
9.0335489e-07
-3.0325776e-06
9.0999876e-07
-3.1906081e-06
9.1477962e-07
-3.3490406e-06
9.1771481e-07
-3.5075566e-06
9.1882693e-07
-3.6658433e-06
9.1814362e-07
-3.8235939e-06