/*--------------------------------*- C++ -*----------------------------------*\
| =========                 |                                                 |
| \\      /  F ield         | OpenFOAM: The Open Source CFD Toolbox           |
|  \\    /   O peration     | Version:  2306                                  |
|   \\  /    A nd           | Website:  www.openfoam.com                      |
|    \\/     M anipulation  |                                                 |
\*---------------------------------------------------------------------------*/
FoamFile
{
    version     2.0;
    format      ascii;
    arch        "LSB;label=32;scalar=64";
    class       surfaceScalarField;
    location    "0.45";
    object      phi;
}
// * * * * * * * * * * * * * * * * * * * * * * * * * * * * * * * * * * * * * //

dimensions      [0 3 -1 0 0 0 0];

oriented        oriented;

internalField   nonuniform List<scalar> 
101920
(
8.8366815e-10
-8.8366814e-10
3.410745e-09
-2.5270769e-09
7.4275799e-09
-4.016835e-09
1.2794406e-08
-5.3668266e-09
1.9453408e-08
-6.659001e-09
2.7372801e-08
-7.9193935e-09
3.6522862e-08
-9.1500606e-09
4.6862029e-08
-1.0339167e-08
5.8338249e-08
-1.147622e-08
7.0888376e-08
-1.2550128e-08
8.4440223e-08
-1.3551846e-08
9.8913009e-08
-1.4472786e-08
1.1421934e-07
-1.5306337e-08
1.3026642e-07
-1.604707e-08
1.4695098e-07
-1.6684567e-08
1.6417548e-07
-1.7224497e-08
1.8183152e-07
-1.765604e-08
1.9981054e-07
-1.7979022e-08
2.1800395e-07
-1.8193406e-08
2.3629933e-07
-1.829538e-08
2.5458502e-07
-1.8285694e-08
2.7274943e-07
-1.8164411e-08
2.9068262e-07
-1.7933189e-08
3.0827363e-07
-1.7591009e-08
3.2540959e-07
-1.7135962e-08
3.4198005e-07
-1.6570456e-08
3.5788473e-07
-1.5904679e-08
3.7302792e-07
-1.5143193e-08
3.8731794e-07
-1.4290017e-08
4.006714e-07
-1.3353464e-08
4.1300456e-07
-1.2333157e-08
4.2427096e-07
-1.1266407e-08
4.3434641e-07
-1.0075444e-08
4.4318093e-07
-8.8345205e-09
4.5072148e-07
-7.5405573e-09
4.5692417e-07
-6.2026871e-09
4.6175084e-07
-4.8266735e-09
4.6513791e-07
-3.3870582e-09
4.6709437e-07
-1.9564643e-09
4.6759657e-07
-5.0219945e-10
4.6657168e-07
1.0248892e-09
4.6407109e-07
2.5005904e-09
4.6009133e-07
3.9797596e-09
4.5464001e-07
5.4513258e-09
4.4773148e-07
6.9085255e-09
4.3938651e-07
8.344967e-09
4.29634e-07
9.752507e-09
4.1850954e-07
1.1124465e-08
4.0605665e-07
1.245289e-08
3.9231978e-07
1.3736869e-08
3.7734941e-07
1.4970372e-08
3.6120154e-07
1.6147869e-08
3.4393699e-07
1.726454e-08
3.2562523e-07
1.8311769e-08
3.0633056e-07
1.9294668e-08
2.8612079e-07
2.0209761e-08
2.6507013e-07
2.1050666e-08
2.4325306e-07
2.181707e-08
2.2074693e-07
2.2506132e-08
1.9762747e-07
2.3119463e-08
1.7397063e-07
2.3656839e-08
1.4986777e-07
2.4102858e-08
1.2538081e-07
2.4486952e-08
1.0058769e-07
2.4793121e-08
7.5588667e-08
2.4999024e-08
5.044085e-08
2.5147819e-08
2.5213465e-08
2.5227386e-08
1.584338e-12
2.5211879e-08
-2.5150073e-08
2.5151657e-08
-5.0174541e-08
2.502446e-08
-7.5003998e-08
2.4829465e-08
-9.9575201e-08
2.4571201e-08
-1.2382861e-07
2.4253414e-08
-1.4770817e-07
2.3879561e-08
-1.711612e-07
2.345302e-08
-1.9413839e-07
2.2977187e-08
-2.165938e-07
2.2455414e-08
-2.3848493e-07
2.1891128e-08
-2.5977268e-07
2.1287753e-08
-2.8042137e-07
2.0648694e-08
-3.0039875e-07
1.9977375e-08
-3.1967589e-07
1.9277141e-08
-3.3822723e-07
1.8551344e-08
-3.5603049e-07
1.7803259e-08
-3.7306659e-07
1.7036107e-08
-3.893196e-07
1.6253003e-08
-4.0477659e-07
1.5456996e-08
-4.1942754e-07
1.4650954e-08
-4.332652e-07
1.3837663e-08
-4.4628494e-07
1.3019731e-08
-4.5848459e-07
1.2199646e-08
-4.6986405e-07
1.1379471e-08
-4.8042417e-07
1.0560122e-08
-4.9016609e-07
9.7419119e-09
-4.9909192e-07
8.9258273e-09
-5.0720747e-07
8.1155418e-09
-5.1452135e-07
7.3138908e-09
-5.2104329e-07
6.5219437e-09
-5.2678314e-07
5.7398415e-09
-5.3174661e-07
4.9634731e-09
-5.3596427e-07
4.2176623e-09
-5.3945109e-07
3.486814e-09
-5.422201e-07
2.7690108e-09
-5.4428478e-07
2.0646806e-09
-5.4565772e-07
1.3729335e-09
-5.4634434e-07
6.866245e-10
-5.4631289e-07
-3.1445276e-11
-5.4570674e-07
-6.0614455e-10
-5.4449248e-07
-1.2142624e-09
-5.4267819e-07
-1.8142862e-09
-5.4027923e-07
-2.3989681e-09
-5.373129e-07
-2.9663153e-09
-5.3379703e-07
-3.5158774e-09
-5.2974945e-07
-4.0475913e-09
-5.2518779e-07
-4.5616568e-09
-5.2012946e-07
-5.0583266e-09
-5.1459159e-07
-5.5378681e-09
-5.0859098e-07
-6.000619e-09
-5.0214407e-07
-6.4469018e-09
-4.9526697e-07
-6.877103e-09
-4.8797538e-07
-7.2915972e-09
-4.8028459e-07
-7.6907879e-09
-4.7220949e-07
-8.0750952e-09
-4.6376452e-07
-8.4449617e-09
-4.5496369e-07
-8.8008446e-09
-4.4582052e-07
-9.1431621e-09
-4.3634812e-07
-9.4723958e-09
-4.2655913e-07
-9.7889838e-09
-4.1646571e-07
-1.0093421e-08
-4.060796e-07
-1.0386119e-08
-3.9541203e-07
-1.0667563e-08
-3.844738e-07
-1.093822e-08
-3.732753e-07
-1.1198512e-08
-3.6182642e-07
-1.1448872e-08
-3.501367e-07
-1.1689735e-08
-3.382152e-07
-1.1921487e-08
-3.2607064e-07
-1.2144563e-08
-3.1371127e-07
-1.2359361e-08
-3.0114505e-07
-1.2566231e-08
-2.8837952e-07
-1.2765524e-08
-2.7542194e-07
-1.2957593e-08
-2.6227922e-07
-1.3142712e-08
-2.4895801e-07
-1.3321221e-08
-2.354647e-07
-1.3493303e-08
-2.2180549e-07
-1.3659211e-08
-2.0798647e-07
-1.3819012e-08
-1.9401372e-07
-1.3972751e-08
-1.7989354e-07
-1.4120184e-08
-1.6563281e-07
-1.4260725e-08
-1.5123981e-07
-1.439299e-08
-1.3672564e-07
-1.4514167e-08
-1.2210668e-07
-1.4618973e-08
-1.0740919e-07
-1.4697488e-08
-9.2676851e-08
-1.473234e-08
-7.7980738e-08
-1.4696111e-08
-6.3422778e-08
-1.4557952e-08
-4.9091509e-08
-1.4331288e-08
-3.4838385e-08
-1.4253127e-08
-1.952042e-08
-1.5317969e-08
-1.9520421e-08
9.2362219e-10
-1.8072903e-09
3.4798811e-09
-5.0833357e-09
7.4847903e-09
-8.0217441e-09
1.2726458e-08
-1.0608494e-08
1.9092632e-08
-1.3025175e-08
2.6510688e-08
-1.533745e-08
3.4916478e-08
-1.7555851e-08
4.4235562e-08
-1.965825e-08
5.4381499e-08
-2.1622158e-08
6.5251899e-08
-2.3420527e-08
7.6730959e-08
-2.5030905e-08
8.8689963e-08
-2.6431791e-08
1.0098919e-07
-2.7605565e-08
1.1348357e-07
-2.8541451e-08
1.2600576e-07
-2.9206753e-08
1.3840747e-07
-2.9626214e-08
1.5051627e-07
-2.9764831e-08
1.6216274e-07
-2.9625492e-08
1.7318252e-07
-2.9213193e-08
1.8340526e-07
-2.8518123e-08
1.926591e-07
-2.7539535e-08
2.0077933e-07
-2.6284642e-08
2.0760385e-07
-2.4757707e-08
2.1298035e-07
-2.2967507e-08
2.1674715e-07
-2.0902757e-08
2.1874337e-07
-1.8566677e-08
2.1884122e-07
-1.6002534e-08
2.1691393e-07
-1.3215902e-08
2.1284528e-07
-1.0221368e-08
2.0652685e-07
-7.035039e-09
1.978884e-07
-3.6947016e-09
1.8688628e-07
-2.6428067e-10
1.7327988e-07
3.5309506e-09
1.5710204e-07
7.3433254e-09
1.3831347e-07
1.1248006e-08
1.1687165e-07
1.523913e-08
9.2751113e-08
1.9293868e-08
6.6011119e-08
2.3352939e-08
3.6580663e-08
2.7473991e-08
4.516932e-09
3.1561531e-08
-3.0083545e-08
3.5625366e-08
-6.7270475e-08
3.968752e-08
-1.0696663e-07
4.3675911e-08
-1.490916e-07
4.7576294e-08
-1.9355698e-07
5.1373911e-08
-2.4026474e-07
5.505273e-08
-2.8910733e-07
5.8595094e-08
-3.3996795e-07
6.1985093e-08
-3.9272151e-07
6.5206447e-08
-4.472339e-07
6.8249257e-08
-5.0336394e-07
7.110041e-08
-5.6096427e-07
7.3748215e-08
-6.1988232e-07
7.6182587e-08
-6.7996227e-07
7.8391714e-08
-7.4104227e-07
8.0374667e-08
-8.0295775e-07
8.2125241e-08
-8.6554343e-07
8.3636339e-08
-9.2863249e-07
8.4906133e-08
-9.9205841e-07
8.5932049e-08
-1.0556543e-06
8.6715309e-08
-1.1192543e-06
8.7256861e-08
-1.1827015e-06
8.7550042e-08
-1.2458287e-06
8.7614184e-08
-1.3084793e-06
8.7443767e-08
-1.3705141e-06
8.7033791e-08
-1.4317758e-06
8.6409544e-08
-1.4921192e-06
8.5570733e-08
-1.5514255e-06
8.4518257e-08
-1.6095474e-06
8.3273549e-08
-1.6663623e-06
8.1839311e-08
-1.7217562e-06
8.0223372e-08
-1.7756205e-06
7.8435545e-08
-1.8278534e-06
7.6486249e-08
-1.8783599e-06
7.4386125e-08
-1.9270529e-06
7.2146023e-08
-1.9738526e-06
6.9776829e-08
-2.0186866e-06
6.7289444e-08
-2.0614903e-06
6.4694808e-08
-2.1022063e-06
6.2003784e-08
-2.1407848e-06
5.922714e-08
-2.1771829e-06
5.6375483e-08
-2.2113649e-06
5.3459207e-08
-2.2433021e-06
5.048851e-08
-2.2729721e-06
4.7473287e-08
-2.3003591e-06
4.4423114e-08
-2.3254533e-06
4.134722e-08
-2.3482508e-06
3.8254434e-08
-2.368753e-06
3.5153124e-08
-2.3869665e-06
3.2051227e-08
-2.4029029e-06
2.8956108e-08
-2.4165777e-06
2.5874439e-08
-2.4280102e-06
2.281202e-08
-2.4372235e-06
1.9773346e-08
-2.4442412e-06
1.6759612e-08
-2.4490876e-06
1.3772207e-08
-2.4517966e-06
1.0824566e-08
-2.4524024e-06
7.9196939e-09
-2.4509355e-06
5.0550369e-09
-2.447411e-06
2.215321e-09
-2.4418785e-06
-5.6898053e-10
-2.4344969e-06
-3.1639821e-09
-2.4252476e-06
-5.7624658e-09
-2.4141621e-06
-8.3164881e-09
-2.4012837e-06
-1.0813653e-08
-2.3866612e-06
-1.3249607e-08
-2.3703488e-06
-1.562578e-08
-2.3524274e-06
-1.7952896e-08
-2.3328417e-06
-2.019181e-08
-2.3116908e-06
-2.2365151e-08
-2.2890305e-06
-2.4474573e-08
-2.2649095e-06
-2.6519996e-08
-2.2393742e-06
-2.8501587e-08
-2.2124703e-06
-3.0419788e-08
-2.1842426e-06
-3.2275328e-08
-2.1547351e-06
-3.4069146e-08
-2.123991e-06
-3.5802367e-08
-2.0920527e-06
-3.7476214e-08
-2.0589613e-06
-3.9092028e-08
-2.0247569e-06
-4.0651256e-08
-1.9894786e-06
-4.2155384e-08
-1.9531643e-06
-4.3605981e-08
-1.9158504e-06
-4.5004669e-08
-1.8775724e-06
-4.6353103e-08
-1.8383644e-06
-4.7652938e-08
-1.7982593e-06
-4.8905916e-08
-1.7572888e-06
-5.0113743e-08
-1.715483e-06
-5.1278139e-08
-1.6728712e-06
-5.2400816e-08
-1.6294811e-06
-5.3483505e-08
-1.5853393e-06
-5.4527881e-08
-1.5404712e-06
-5.5535656e-08
-1.494901e-06
-5.6508454e-08
-1.4486516e-06
-5.7447915e-08
-1.4017449e-06
-5.8355609e-08
-1.3542015e-06
-5.9233108e-08
-1.3060411e-06
-6.0081878e-08
-1.2572822e-06
-6.0903406e-08
-1.2079425e-06
-6.1699119e-08
-1.1580384e-06
-6.2470344e-08
-1.1075855e-06
-6.3218354e-08
-1.0565987e-06
-6.3944425e-08
-1.0050918e-06
-6.4649601e-08
-9.53078e-07
-6.533504e-08
-9.0056972e-07
-6.6001596e-08
-8.475788e-07
-6.6650113e-08
-7.9411664e-07
-6.7281178e-08
-7.4019442e-07
-6.7894959e-08
-6.858235e-07
-6.8491108e-08
-6.3101615e-07
-6.9068084e-08
-5.7578712e-07
-6.9622022e-08
-5.201549e-07
-7.0146382e-08
-4.6414331e-07
-7.0630565e-08
-4.077843e-07
-7.1056479e-08
-3.5111942e-07
-7.139723e-08
-2.9419357e-07
-7.1621968e-08
-2.3702686e-07
-7.1724665e-08
-1.7953473e-07
-7.1823404e-08
-1.2136136e-07
-7.2426497e-08
-6.177092e-08
-7.4908404e-08
-8.1291336e-08
3.2498031e-10
-2.1322706e-09
1.1926481e-09
-5.9510037e-09
2.4878834e-09
-9.3169792e-09
4.0549744e-09
-1.2175585e-08
5.7775895e-09
-1.474779e-08
7.5634359e-09
-1.7123297e-08
9.320601e-09
-1.9313015e-08
1.0966359e-08
-2.1304009e-08
1.2402102e-08
-2.30579e-08
1.3519836e-08
-2.4538261e-08
1.4196509e-08
-2.5707579e-08
1.4300734e-08
-2.6536015e-08
1.3689994e-08
-2.6994826e-08
1.2210351e-08
-2.7061808e-08
9.7368748e-09
-2.6733276e-08
6.078593e-09
-2.5967933e-08
1.0899311e-09
-2.477617e-08
-5.3886654e-09
-2.3146895e-08
-1.3537025e-08
-2.1064835e-08
-2.3513623e-08
-1.8541525e-08
-3.5476218e-08
-1.557694e-08
-4.9577027e-08
-1.218383e-08
-6.5961165e-08
-8.3735687e-09
-8.475357e-08
-4.175102e-09
-1.0610457e-07
4.4824859e-10
-1.3019547e-07
5.5242159e-09
-1.570911e-07
1.0893101e-08
-1.8689013e-07
1.6583127e-08
-2.1968214e-07
2.2570638e-08
-2.5554415e-07
2.8826976e-08
-2.9454444e-07
3.5305579e-08
-3.3679873e-07
4.1990007e-08
-3.8216589e-07
4.8898113e-08
-4.3075998e-07
5.5937416e-08
-4.8258407e-07
6.3072098e-08
-5.3761796e-07
7.0273017e-08
-5.9582562e-07
7.7501527e-08
-6.5718205e-07
8.4709366e-08
-7.2159338e-07
9.1885321e-08
-7.8900406e-07
9.8972222e-08
-8.5932225e-07
1.0594355e-07
-9.3240866e-07
1.1277392e-07
-1.0081512e-06
1.194185e-07
-1.0864176e-06
1.2584261e-07
-1.1670596e-06
1.3201598e-07
-1.2499168e-06
1.3790989e-07
-1.3348182e-06
1.4349647e-07
-1.4215831e-06
1.4875003e-07
-1.5100233e-06
1.5364665e-07
-1.5999407e-06
1.5816663e-07
-1.6911311e-06
1.6229087e-07
-1.7833854e-06
1.6600248e-07
-1.8764898e-06
1.6928701e-07
-1.9702299e-06
1.7213176e-07
-2.0643851e-06
1.7452987e-07
-2.1587344e-06
1.7647456e-07
-2.2530585e-06
1.7796049e-07
-2.3471383e-06
1.7898595e-07
-2.4407574e-06
1.7955111e-07
-2.5337012e-06
1.7965908e-07
-2.6257586e-06
1.7931429e-07
-2.7167299e-06
1.7852137e-07
-2.8064093e-06
1.7729357e-07
-2.8946039e-06
1.7563839e-07
-2.9811355e-06
1.7356534e-07
-3.0658193e-06
1.7109338e-07
-3.1484848e-06
1.6823618e-07
-3.2289751e-06
1.6500856e-07
-3.3071326e-06
1.6143102e-07
-3.382814e-06
1.5752074e-07
-3.4558866e-06
1.5329598e-07
-3.5262274e-06
1.4877632e-07
-3.5937231e-06
1.4398196e-07
-3.6582705e-06
1.3893357e-07
-3.7197765e-06
1.3365205e-07
-3.7781581e-06
1.2815834e-07
-3.8333419e-06
1.2247333e-07
-3.8852649e-06
1.166178e-07
-3.9338735e-06
1.106123e-07
-3.9791234e-06
1.0447707e-07
-4.0209798e-06
9.8231888e-08
-4.0594167e-06
9.1896091e-08
-4.0944166e-06
8.548845e-08
-4.1259704e-06
7.9027088e-08
-4.1540767e-06
7.2529425e-08
-4.1787417e-06
6.6012165e-08
-4.1999784e-06
5.9491157e-08
-4.2178067e-06
5.298146e-08
-4.2322527e-06
4.6497177e-08
-4.2433481e-06
4.0051517e-08
-4.251131e-06
3.3657313e-08
-4.2556472e-06
2.7328297e-08
-4.2569417e-06
2.1067769e-08
-4.2550585e-06
1.4876496e-08
-4.2500429e-06
8.7565623e-09
-4.2419488e-06
2.7305258e-09
-4.2308447e-06
-3.1844924e-09
-4.2167993e-06
-8.9902904e-09
-4.1998968e-06
-1.4687263e-08
-4.1802061e-06
-2.025969e-08
-4.1577098e-06
-2.5660224e-08
-4.1325323e-06
-3.0939949e-08
-4.1047477e-06
-3.6101123e-08
-4.0744265e-06
-4.1134882e-08
-4.0416387e-06
-4.6037434e-08
-4.0064565e-06
-5.0807929e-08
-3.968963e-06
-5.544636e-08
-3.9292104e-06
-5.9944483e-08
-3.8872688e-06
-6.4306778e-08
-3.8432078e-06
-6.8535484e-08
-3.7970957e-06
-7.2632164e-08
-3.7489989e-06
-7.6598402e-08
-3.6989826e-06
-8.0436059e-08
-3.6471107e-06
-8.4147263e-08
-3.5934454e-06
-8.7734419e-08
-3.5380476e-06
-9.1200181e-08
-3.4809764e-06
-9.4547387e-08
-3.4222894e-06
-9.7779037e-08
-3.3620423e-06
-1.0089835e-07
-3.3002891e-06
-1.0390854e-07
-3.2370821e-06
-1.0681304e-07
-3.1724714e-06
-1.096153e-07
-3.1065057e-06
-1.1231881e-07
-3.0392315e-06
-1.1492715e-07
-2.9706935e-06
-1.1744391e-07
-2.9009346e-06
-1.1987264e-07
-2.8299958e-06
-1.2221699e-07
-2.7579161e-06
-1.2448048e-07
-2.684733e-06
-1.2666667e-07
-2.6104818e-06
-1.2877907e-07
-2.5351963e-06
-1.3082113e-07
-2.4589085e-06
-1.3279623e-07
-2.3816487e-06
-1.3470775e-07
-2.3034455e-06
-1.3655885e-07
-2.2243258e-06
-1.3835281e-07
-2.144315e-06
-1.4009262e-07
-2.0634371e-06
-1.4178129e-07
-1.9817146e-06
-1.4342169e-07
-1.8991683e-06
-1.4501658e-07
-1.815818e-06
-1.4656862e-07
-1.7316822e-06
-1.4808029e-07
-1.6467779e-06
-1.4955385e-07
-1.5611214e-06
-1.5099159e-07
-1.4747277e-06
-1.5239533e-07
-1.3876111e-06
-1.5376671e-07
-1.2997852e-06
-1.5510706e-07
-1.2112632e-06
-1.5641691e-07
-1.1220583e-06
-1.5769606e-07
-1.0321837e-06
-1.5894269e-07
-9.4165308e-07
-1.6015261e-07
-8.5048135e-07
-1.6131811e-07
-7.5868528e-07
-1.6242664e-07
-6.6628228e-07
-1.6345948e-07
-5.7328567e-07
-1.6439384e-07
-4.7969187e-07
-1.6521577e-07
-3.8545453e-07
-1.6596201e-07
-2.9044975e-07
-1.6682821e-07
-1.9448424e-07
-1.68392e-07
-9.7482945e-08
-1.7190972e-07
-1.7877428e-07
-3.1493804e-10
-1.8173326e-09
-1.2297359e-09
-5.0362059e-09
-2.7762551e-09
-7.7704598e-09
-5.0142011e-09
-9.937639e-09
-8.0393088e-09
-1.1722683e-08
-1.1946736e-08
-1.3215869e-08
-1.6832501e-08
-1.442725e-08
-2.2792395e-08
-1.5344115e-08
-2.9932991e-08
-1.5917304e-08
-3.8356632e-08
-1.6114621e-08
-4.8181619e-08
-1.5882592e-08
-5.95265e-08
-1.5191134e-08
-7.2528623e-08
-1.3992703e-08
-8.7309667e-08
-1.2280761e-08
-1.0403022e-07
-1.0012725e-08
-1.2280877e-07
-7.1893866e-09
-1.438018e-07
-3.7831333e-09
-1.6714706e-07
1.9836258e-10
-1.9298197e-07
4.7700726e-09
-2.214499e-07
9.9264022e-09
-2.5268229e-07
1.5655448e-08
-2.8680935e-07
2.1943232e-08
-3.2395405e-07
2.877113e-08
-3.6424621e-07
3.6117063e-08
-4.0777033e-07
4.3972362e-08
-4.5456288e-07
5.2316766e-08
-5.0475116e-07
6.1081384e-08
-5.5840128e-07
7.023325e-08
-6.1556391e-07
7.9733266e-08
-6.7627487e-07
8.9537934e-08
-7.4056709e-07
9.9597804e-08
-8.0845167e-07
1.0987459e-07
-8.7988193e-07
1.2032837e-07
-9.5484051e-07
1.30896e-07
-1.0332889e-06
1.4152048e-07
-1.1151653e-06
1.5214946e-07
-1.200392e-06
1.6272818e-07
-1.2888832e-06
1.7320059e-07
-1.3805187e-06
1.8352084e-07
-1.4751788e-06
1.936323e-07
-1.5727217e-06
2.0348645e-07
-1.672984e-06
2.1303617e-07
-1.7757968e-06
2.2223131e-07
-1.8809791e-06
2.3102493e-07
-1.9883369e-06
2.3937383e-07
-2.0976648e-06
2.4723772e-07
-2.2087472e-06
2.5457893e-07
-2.3213602e-06
2.6136297e-07
-2.4352722e-06
2.6755863e-07
-2.5502442e-06
2.7313869e-07
-2.6660323e-06
2.7807895e-07
-2.7823884e-06
2.8235861e-07
-2.899062e-06
2.8596053e-07
-3.0158013e-06
2.8887114e-07
-3.1323531e-06
2.9108158e-07
-3.2484644e-06
2.9258589e-07
-3.3638851e-06
2.9338124e-07
-3.4783679e-06
2.9346866e-07
-3.5916692e-06
2.9285248e-07
-3.7035505e-06
2.915404e-07
-3.8137792e-06
2.8954291e-07
-3.922131e-06
2.8687316e-07
-4.028386e-06
2.835486e-07
-4.1323349e-06
2.795873e-07
-4.2337794e-06
2.7500984e-07
-4.332527e-06
2.69841e-07
-4.4283967e-06
2.6410588e-07
-4.5212194e-06
2.5783121e-07
-4.6108344e-06
2.5104609e-07
-4.6970937e-06
2.4377996e-07
-4.7798608e-06
2.360631e-07
-4.8590112e-06
2.2792673e-07
-4.934432e-06
2.1940277e-07
-5.0060219e-06
2.1052352e-07
-5.0736914e-06
2.0132151e-07
-5.1373623e-06
1.918292e-07
-5.1969678e-06
1.8207883e-07
-5.2524523e-06
1.7210233e-07
-5.3037711e-06
1.6193113e-07
-5.3508901e-06
1.5159605e-07
-5.3937853e-06
1.4112709e-07
-5.4324427e-06
1.3055345e-07
-5.4668576e-06
1.1990336e-07
-5.4970344e-06
1.0920392e-07
-5.5229861e-06
9.8481158e-08
-5.5447338e-06
8.7759857e-08
-5.5623063e-06
7.7063587e-08
-5.5757394e-06
6.6414644e-08
-5.5850763e-06
5.5834054e-08
-5.5903661e-06
4.534133e-08
-5.591663e-06
3.4954138e-08
-5.5890244e-06
2.4689745e-08
-5.5825292e-06
1.4572569e-08
-5.5722408e-06
4.5880448e-09
-5.5581716e-06
-5.31256e-09
-5.5404333e-06
-1.5007808e-08
-5.5191139e-06
-2.4503854e-08
-5.4942973e-06
-3.3806974e-08
-5.4660716e-06
-4.2912881e-08
-5.4345212e-06
-5.1810127e-08
-5.3996968e-06
-6.048466e-08
-5.3616925e-06
-6.8944272e-08
-5.3206029e-06
-7.7190715e-08
-5.2765161e-06
-8.5221637e-08
-5.2295185e-06
-9.3035033e-08
-5.1796966e-06
-1.0062984e-07
-5.1271375e-06
-1.0800546e-07
-5.0719214e-06
-1.1516056e-07
-5.0141307e-06
-1.2209744e-07
-4.9538475e-06
-1.288187e-07
-4.8911525e-06
-1.3532722e-07
-4.8261246e-06
-1.4162623e-07
-4.7588414e-06
-1.4771927e-07
-4.6893784e-06
-1.5361033e-07
-4.617809e-06
-1.5930375e-07
-4.5442051e-06
-1.6480408e-07
-4.4686362e-06
-1.7011633e-07
-4.3911697e-06
-1.7524557e-07
-4.3118708e-06
-1.801972e-07
-4.2308027e-06
-1.8497667e-07
-4.1480261e-06
-1.8958965e-07
-4.0635995e-06
-1.9404188e-07
-3.9775792e-06
-1.9833912e-07
-3.8900191e-06
-2.0248726e-07
-3.8009708e-06
-2.0649214e-07
-3.7104838e-06
-2.1035965e-07
-3.6186052e-06
-2.1409562e-07
-3.5253798e-06
-2.1770588e-07
-3.4308503e-06
-2.2119615e-07
-3.3350573e-06
-2.2457214e-07
-3.238039e-06
-2.2783941e-07
-3.1398318e-06
-2.3100344e-07
-3.0404699e-06
-2.3406964e-07
-2.9399855e-06
-2.3704322e-07
-2.838409e-06
-2.3992934e-07
-2.7357687e-06
-2.4273288e-07
-2.6320913e-06
-2.4545867e-07
-2.5274017e-06
-2.4811135e-07
-2.4217229e-06
-2.5069538e-07
-2.3150765e-06
-2.5321498e-07
-2.2074826e-06
-2.5567414e-07
-2.0989598e-06
-2.5807672e-07
-1.9895251e-06
-2.6042624e-07
-1.8791946e-06
-2.6272581e-07
-1.7679831e-06
-2.6497822e-07
-1.6559044e-06
-2.6718577e-07
-1.5429714e-06
-2.6934992e-07
-1.4291963e-06
-2.7147119e-07
-1.3145904e-06
-2.7354851e-07
-1.1991645e-06
-2.7557857e-07
-1.0829276e-06
-2.7755504e-07
-9.6588623e-07
-2.7946797e-07
-8.4804134e-07
-2.8130438e-07
-7.2938188e-07
-2.8305328e-07
-6.0987564e-07
-2.8472201e-07
-4.8946083e-07
-2.8637682e-07
-3.680592e-07
-2.8822982e-07
-2.4567044e-07
-2.9078076e-07
-1.22637e-07
-2.9494315e-07
-3.0141128e-07
-7.6521551e-10
-1.0521171e-09
-2.9642011e-09
-2.8372203e-09
-6.5702674e-09
-4.1643934e-09
-1.1574553e-08
-4.9333539e-09
-1.803716e-08
-5.260075e-09
-2.6048177e-08
-5.2048533e-09
-3.5708786e-08
-4.7666411e-09
-4.7120302e-08
-3.9325989e-09
-6.0375214e-08
-2.6623929e-09
-7.5594169e-08
-8.9566644e-10
-9.287156e-08
1.3947993e-09
-1.1233346e-07
4.2707616e-09
-1.3408927e-07
7.7631088e-09
-1.5827056e-07
1.190053e-08
-1.8499398e-07
1.6710701e-08
-2.1439335e-07
2.2209978e-08
-2.4658892e-07
2.8412441e-08
-2.8171195e-07
3.5321388e-08
-3.1988042e-07
4.2938543e-08
-3.6121038e-07
5.1256357e-08
-4.0581487e-07
6.0259944e-08
-4.538003e-07
6.9928661e-08
-5.0526583e-07
8.0236663e-08
-5.6030272e-07
9.1153947e-08
-6.1897963e-07
1.0264927e-07
-6.8134491e-07
1.1468205e-07
-7.4745939e-07
1.2719586e-07
-8.173638e-07
1.4013766e-07
-8.9108226e-07
1.5345173e-07
-9.6862334e-07
1.6707901e-07
-1.049983e-06
1.8095747e-07
-1.1351348e-06
1.9502638e-07
-1.2240277e-06
2.0922131e-07
-1.3166026e-06
2.2347084e-07
-1.4127851e-06
2.3770301e-07
-1.5124826e-06
2.5184693e-07
-1.6155859e-06
2.6583146e-07
-1.7219713e-06
2.7958602e-07
-1.8314938e-06
2.9304339e-07
-1.9439967e-06
3.0613515e-07
-2.0593064e-06
3.1879614e-07
-2.1772335e-06
3.3096332e-07
-2.2975773e-06
3.4257507e-07
-2.4201251e-06
3.5357277e-07
-2.544653e-06
3.6390171e-07
-2.6709264e-06
3.735111e-07
-2.7987016e-06
3.8235416e-07
-2.9277271e-06
3.9038842e-07
-3.0577444e-06
3.9757597e-07
-3.1884895e-06
4.0388376e-07
-3.3196939e-06
4.0928336e-07
-3.4510864e-06
4.1375111e-07
-3.5823941e-06
4.1726825e-07
-3.7133439e-06
4.1982097e-07
-3.8436631e-06
4.2140074e-07
-3.9730807e-06
4.2200356e-07
-4.1013296e-06
4.2163006e-07
-4.2281464e-06
4.2028549e-07
-4.3532735e-06
4.1797959e-07
-4.4764594e-06
4.1472632e-07
-4.5974601e-06
4.1054365e-07
-4.7160402e-06
4.0545324e-07
-4.8319724e-06
3.9948077e-07
-4.9450397e-06
3.926546e-07
-5.0550361e-06
3.8500623e-07
-5.1617654e-06
3.7657038e-07
-5.2650434e-06
3.6738384e-07
-5.3646976e-06
3.5748542e-07
-5.4605674e-06
3.469159e-07
-5.5525047e-06
3.3571727e-07
-5.6403743e-06
3.2393266e-07
-5.7240536e-06
3.1160603e-07
-5.8034329e-06
2.9878205e-07
-5.878415e-06
2.8550567e-07
-5.9489155e-06
2.7182193e-07
-6.0148619e-06
2.5777566e-07
-6.0761943e-06
2.4341125e-07
-6.1328645e-06
2.2877251e-07
-6.1848358e-06
2.1390241e-07
-6.2320827e-06
1.9884293e-07
-6.2745905e-06
1.8363488e-07
-6.3123548e-06
1.6831778e-07
-6.3453811e-06
1.529297e-07
-6.3736844e-06
1.3750715e-07
-6.3972882e-06
1.2208503e-07
-6.4162249e-06
1.0669651e-07
-6.4305344e-06
9.1373106e-08
-6.4402644e-06
7.6144583e-08
-6.4454695e-06
6.1039212e-08
-6.4462116e-06
4.6083365e-08
-6.4425593e-06
3.1301935e-08
-6.4345944e-06
1.6724778e-08
-6.4224351e-06
2.4132825e-09
-6.4059495e-06
-1.189758e-08
-6.3854114e-06
-2.5850606e-08
-6.3608807e-06
-3.9538548e-08
-6.3324343e-06
-5.2950211e-08
-6.3001632e-06
-6.6078041e-08
-6.2641626e-06
-7.8913492e-08
-6.2245257e-06
-9.144701e-08
-6.1813389e-06
-1.0367152e-07
-6.1346972e-06
-1.1558599e-07
-6.0846986e-06
-1.2718926e-07
-6.0314404e-06
-1.3847982e-07
-5.9750189e-06
-1.4945663e-07
-5.9155292e-06
-1.6011952e-07
-5.8530657e-06
-1.7046898e-07
-5.78772e-06
-1.8050621e-07
-5.7195833e-06
-1.9023414e-07
-5.6487454e-06
-1.9965658e-07
-5.5752947e-06
-2.0877798e-07
-5.4993175e-06
-2.176034e-07
-5.4208984e-06
-2.2613839e-07
-5.3401197e-06
-2.3438904e-07
-5.2570615e-06
-2.4236187e-07
-5.1718018e-06
-2.5006377e-07
-5.0844161e-06
-2.5750207e-07
-4.9949774e-06
-2.6468428e-07
-4.9035564e-06
-2.7161824e-07
-4.8102211e-06
-2.7831192e-07
-4.7150373e-06
-2.8477353e-07
-4.6180678e-06
-2.910113e-07
-4.5193733e-06
-2.9703362e-07
-4.4190117e-06
-3.0284888e-07
-4.3170384e-06
-3.0846549e-07
-4.2135062e-06
-3.1389184e-07
-4.1084655e-06
-3.1913625e-07
-4.0019644e-06
-3.2420705e-07
-3.8940481e-06
-3.2911239e-07
-3.7847599e-06
-3.3386037e-07
-3.6741404e-06
-3.3845891e-07
-3.5622281e-06
-3.4291576e-07
-3.4490591e-06
-3.472386e-07
-3.3346675e-06
-3.5143482e-07
-3.2190852e-06
-3.5551168e-07
-3.1023419e-06
-3.5947617e-07
-2.9844654e-06
-3.6333512e-07
-2.8654817e-06
-3.6709505e-07
-2.7454148e-06
-3.7076232e-07
-2.6242869e-06
-3.7434289e-07
-2.5021185e-06
-3.7784251e-07
-2.3789286e-06
-3.8126661e-07
-2.2547346e-06
-3.8462022e-07
-2.1295524e-06
-3.8790799e-07
-2.0033966e-06
-3.9113405e-07
-1.8762804e-06
-3.9430197e-07
-1.7482158e-06
-3.9741453e-07
-1.6192134e-06
-4.0047354e-07
-1.4892825e-06
-4.0347944e-07
-1.35843e-06
-4.0643105e-07
-1.2266599e-06
-4.0932508e-07
-1.0939714e-06
-4.1215654e-07
-9.603552e-07
-4.1492055e-07
-8.2579012e-07
-4.1761836e-07
-6.9023985e-07
-4.2027229e-07
-5.5365974e-07
-4.2295693e-07
-4.1603458e-07
-4.2585499e-07
-2.7748947e-07
-4.2932586e-07
-1.3850134e-07
-4.3393129e-07
-4.3991262e-07
-1.0107974e-09
-4.1319676e-11
-3.9452017e-09
9.7184124e-11
-8.7503823e-09
6.4078733e-10
-1.5386141e-08
1.7024049e-09
-2.3894182e-08
3.2479658e-09
-3.4351963e-08
5.2529272e-09
-4.6846834e-08
7.7282304e-09
-6.1480778e-08
1.0701346e-08
-7.8359203e-08
1.4216032e-08
-9.7579579e-08
1.8324709e-08
-1.1925849e-07
2.3073708e-08
-1.4350075e-07
2.8513021e-08
-1.7041991e-07
3.4682274e-08
-2.0013379e-07
4.1614414e-08
-2.3275935e-07
4.9336254e-08
-2.684157e-07
5.7866327e-08
-3.0721932e-07
6.7216062e-08
-3.4928635e-07
7.7388416e-08
-3.9472721e-07
8.8379403e-08
-4.4364751e-07
1.0017666e-07
-4.9614735e-07
1.1275978e-07
-5.5231955e-07
1.2610087e-07
-6.1224822e-07
1.4016533e-07
-6.7600667e-07
1.549124e-07
-7.436529e-07
1.7029551e-07
-8.1523066e-07
1.8625981e-07
-8.9077656e-07
2.0274176e-07
-9.703129e-07
2.19674e-07
-1.0538464e-06
2.3698522e-07
-1.1413677e-06
2.5460036e-07
-1.2328515e-06
2.7244123e-07
-1.3282529e-06
2.9042776e-07
-1.4275082e-06
3.0847662e-07
-1.5305384e-06
3.265011e-07
-1.6372485e-06
3.4441309e-07
-1.747526e-06
3.6212443e-07
-1.8612418e-06
3.7954723e-07
-1.9782504e-06
3.9659465e-07
-2.098389e-06
4.1318198e-07
-2.2214798e-06
4.292259e-07
-2.3473296e-06
4.4464597e-07
-2.4757309e-06
4.5936467e-07
-2.6064636e-06
4.7330774e-07
-2.7392957e-06
4.8640486e-07
-2.8739843e-06
4.9859034e-07
-3.0102767e-06
5.0980347e-07
-3.1479113e-06
5.1998879e-07
-3.2866193e-06
5.290964e-07
-3.4261255e-06
5.3708221e-07
-3.56615e-06
5.4390818e-07
-3.7064089e-06
5.4954232e-07
-3.8466166e-06
5.5395875e-07
-3.9864862e-06
5.5713784e-07
-4.1257314e-06
5.5906621e-07
-4.2640674e-06
5.5973677e-07
-4.4012123e-06
5.5914838e-07
-4.536888e-06
5.573058e-07
-4.670822e-06
5.542195e-07
-4.8027479e-06
5.499055e-07
-4.9324067e-06
5.4438508e-07
-5.0595475e-06
5.3768447e-07
-5.1839289e-06
5.2983459e-07
-5.3053189e-06
5.2087081e-07
-5.4234966e-06
5.1083232e-07
-5.5382524e-06
4.9976202e-07
-5.6493882e-06
4.877062e-07
-5.7567183e-06
4.7471393e-07
-5.8600696e-06
4.6083675e-07
-5.959282e-06
4.4612827e-07
-6.0542085e-06
4.3064373e-07
-6.1447154e-06
4.1443961e-07
-6.2306828e-06
3.9757336e-07
-6.3120037e-06
3.8010299e-07
-6.3885847e-06
3.6208672e-07
-6.4603455e-06
3.4358273e-07
-6.5272186e-06
3.2464874e-07
-6.5891492e-06
3.0534182e-07
-6.6460947e-06
2.8571806e-07
-6.6980247e-06
2.6583241e-07
-6.7449202e-06
2.4573839e-07
-6.7867732e-06
2.2548788e-07
-6.8235864e-06
2.0513101e-07
-6.8553727e-06
1.8471599e-07
-6.8821544e-06
1.6428887e-07
-6.903963e-06
1.4389357e-07
-6.9208383e-06
1.2357186e-07
-6.9328284e-06
1.0336326e-07
-6.939989e-06
8.3305089e-08
-6.9423828e-06
6.3433024e-08
-6.9400812e-06
4.378181e-08
-6.9331666e-06
2.438737e-08
-6.9217533e-06
5.3113904e-09
-6.9056945e-06
-1.3645468e-08
-6.8853571e-06
-3.2234955e-08
-6.8607329e-06
-5.0474879e-08
-6.8319168e-06
-6.8354652e-08
-6.7990031e-06
-8.5863841e-08
-6.7620897e-06
-1.0299149e-07
-6.721276e-06
-1.1972716e-07
-6.6766614e-06
-1.3606162e-07
-6.6283448e-06
-1.5198818e-07
-6.5764275e-06
-1.6750323e-07
-6.5210123e-06
-1.8260448e-07
-6.4622015e-06
-1.9729064e-07
-6.4000967e-06
-2.1156138e-07
-6.3347987e-06
-2.2541753e-07
-6.2664067e-06
-2.3886099e-07
-6.1950181e-06
-2.5189477e-07
-6.1207291e-06
-2.6452319e-07
-6.043634e-06
-2.7675163e-07
-5.9638256e-06
-2.885864e-07
-5.8813945e-06
-3.0003456e-07
-5.796429e-06
-3.1110385e-07
-5.7090154e-06
-3.2180264e-07
-5.6192374e-06
-3.3213985e-07
-5.5271762e-06
-3.4212493e-07
-5.4329107e-06
-3.5176765e-07
-5.3365168e-06
-3.6107819e-07
-5.238068e-06
-3.7006701e-07
-5.1376352e-06
-3.7874478e-07
-5.0352863e-06
-3.8712237e-07
-4.9310868e-06
-3.9521078e-07
-4.8250994e-06
-4.030211e-07
-4.7173839e-06
-4.105644e-07
-4.6079975e-06
-4.1785181e-07
-4.496995e-06
-4.2489438e-07
-4.3844281e-06
-4.317031e-07
-4.2703463e-06
-4.3828888e-07
-4.1547963e-06
-4.4466246e-07
-4.0378223e-06
-4.5083438e-07
-3.919466e-06
-4.5681515e-07
-3.7997669e-06
-4.6261487e-07
-3.6787619e-06
-4.6824362e-07
-3.5564857e-06
-4.7371104e-07
-3.4329707e-06
-4.7902667e-07
-3.3082472e-06
-4.8419967e-07
-3.1823434e-06
-4.8923891e-07
-3.0552854e-06
-4.94153e-07
-2.9270975e-06
-4.9895022e-07
-2.797802e-06
-5.0363842e-07
-2.6674194e-06
-5.0822515e-07
-2.5359684e-06
-5.1271756e-07
-2.4034663e-06
-5.1712235e-07
-2.2699286e-06
-5.2144574e-07
-2.1353692e-06
-5.2569342e-07
-1.9998007e-06
-5.2987047e-07
-1.863234e-06
-5.3398122e-07
-1.7256784e-06
-5.380292e-07
-1.587141e-06
-5.4201684e-07
-1.4476264e-06
-5.4594557e-07
-1.3071358e-06
-5.4981576e-07
-1.1656647e-06
-5.536276e-07
-1.023202e-06
-5.5738331e-07
-8.797277e-07
-5.610926e-07
-7.3521612e-07
-5.6478387e-07
-5.8964892e-07
-5.6852412e-07
-4.4305534e-07
-5.7244858e-07
-2.9559738e-07
-5.7678383e-07
-1.4769603e-07
-5.8183264e-07
-5.8760865e-07
-1.1115947e-09
1.070275e-09
-4.3735007e-09
3.3590902e-09
-9.7349429e-09
6.0022292e-09
-1.7157833e-08
9.1252954e-09
-2.6668479e-08
1.2758612e-08
-3.833292e-08
1.6917368e-08
-5.2234843e-08
2.1630153e-08
-6.8470218e-08
2.693672e-08
-8.7140954e-08
3.2886768e-08
-1.0835076e-07
3.9534514e-08
-1.3220967e-07
4.6932616e-08
-1.5882778e-07
5.5131138e-08
-1.883187e-07
6.4173192e-08
-2.2079844e-07
7.4094152e-08
-2.5638369e-07
8.4921504e-08
-2.9519119e-07
9.6673831e-08
-3.3733604e-07
1.0936091e-07
-3.8293084e-07
1.2298322e-07
-4.3208364e-07
1.375322e-07
-4.8489693e-07
1.5298996e-07
-5.4146657e-07
1.6932942e-07
-6.0188041e-07
1.865147e-07
-6.6621666e-07
2.0450159e-07
-7.3454223e-07
2.2323795e-07
-8.0691065e-07
2.4266393e-07
-8.8336226e-07
2.6271141e-07
-9.639251e-07
2.8330461e-07
-1.0486128e-06
3.0436173e-07
-1.1374234e-06
3.2579579e-07
-1.2303383e-06
3.4751531e-07
-1.3273221e-06
3.6942497e-07
-1.4283207e-06
3.9142635e-07
-1.5332621e-06
4.1341803e-07
-1.642057e-06
4.3529607e-07
-1.7545991e-06
4.5695518e-07
-1.8707645e-06
4.7828983e-07
-1.9904123e-06
4.9919497e-07
-2.1133846e-06
5.1956695e-07
-2.2395069e-06
5.3930427e-07
-2.3685889e-06