/*--------------------------------*- C++ -*----------------------------------*\
| =========                 |                                                 |
| \\      /  F ield         | OpenFOAM: The Open Source CFD Toolbox           |
|  \\    /   O peration     | Version:  2306                                  |
|   \\  /    A nd           | Website:  www.openfoam.com                      |
|    \\/     M anipulation  |                                                 |
\*---------------------------------------------------------------------------*/
FoamFile
{
    version     2.0;
    format      ascii;
    arch        "LSB;label=32;scalar=64";
    class       surfaceScalarField;
    location    "0.45";
    object      phi_0;
}
// * * * * * * * * * * * * * * * * * * * * * * * * * * * * * * * * * * * * * //

dimensions      [0 3 -1 0 0 0 0];

oriented        oriented;

internalField   nonuniform List<scalar> 
101920
(
8.8264325e-10
-8.8264323e-10
3.4063909e-09
-2.5237477e-09
7.4176085e-09
-4.0112175e-09
1.2776458e-08
-5.3588501e-09
1.9425173e-08
-6.648715e-09
2.733202e-08
-7.9068473e-09
3.6467329e-08
-9.1353079e-09
4.6789578e-08
-1.0322249e-08
5.8246768e-08
-1.1457189e-08
7.0775806e-08
-1.2529039e-08
8.4304565e-08
-1.3528758e-08
9.8752328e-08
-1.4447762e-08
1.1403177e-07
-1.5279441e-08
1.3005012e-07
-1.6018349e-08
1.4670418e-07
-1.665406e-08
1.6389636e-07
-1.7192182e-08
1.8151836e-07
-1.7621999e-08
1.9946278e-07
-1.794442e-08
2.1762012e-07
-1.8157346e-08
2.3587808e-07
-1.8257959e-08
2.5412519e-07
-1.8247107e-08
2.7225003e-07
-1.8124833e-08
2.9014276e-07
-1.7892732e-08
3.0769232e-07
-1.7549564e-08
3.2478544e-07
-1.7093123e-08
3.4131275e-07
-1.6527305e-08
3.5717401e-07
-1.5861263e-08
3.7227356e-07
-1.5099547e-08
3.8651979e-07
-1.424623e-08
3.9982951e-07
-1.3309724e-08
4.1211906e-07
-1.2289544e-08
4.2334122e-07
-1.1222162e-08
4.3337257e-07
-1.0031349e-08
4.4216354e-07
-8.790976e-09
4.4966106e-07
-7.497515e-09
4.558213e-07
-6.1602415e-09
4.6060629e-07
-4.7849812e-09
4.6395192e-07
-3.3456319e-09
4.6586739e-07
-1.9154705e-09
4.6632677e-07
-4.5938318e-10
4.6526601e-07
1.0607651e-09
4.6272862e-07
2.5373835e-09
4.5871256e-07
4.0160639e-09
4.5322594e-07
5.4866174e-09
4.4628333e-07
6.9426125e-09
4.3790557e-07
8.3777605e-09
4.2812162e-07
9.7839432e-09
4.1696713e-07
1.11545e-08
4.0448566e-07
1.2481464e-08
3.907217e-07
1.3763956e-08
3.7572575e-07
1.4995952e-08
3.5955384e-07
1.6171915e-08
3.422668e-07
1.7287033e-08
3.2393414e-07
1.8332664e-08
3.0462016e-07
1.9313973e-08
2.8439267e-07
2.0227491e-08
2.6332586e-07
2.106681e-08
2.4149421e-07
2.1831643e-08
2.1897508e-07
2.2519138e-08
1.9584416e-07
2.3130916e-08
1.7217738e-07
2.3666783e-08
1.4806616e-07
2.4111221e-08
1.235723e-07
2.4493866e-08
9.8773691e-08
2.4798611e-08
7.3770779e-08
2.5002911e-08
4.8620536e-08
2.515024e-08
2.3392229e-08
2.522831e-08
-1.8183074e-09
2.5210536e-08
-2.6969503e-08
2.5151194e-08
-5.1991778e-08
2.5022278e-08
-7.6817669e-08
2.482589e-08
-1.0138407e-07
2.4566399e-08
-1.2563154e-07
2.4247475e-08
-1.4950409e-07
2.3872547e-08
-1.7294908e-07
2.3444994e-08
-1.9591728e-07
2.2968188e-08
-2.1836277e-07
2.2445494e-08
-2.4024309e-07
2.1880337e-08
-2.6151923e-07
2.1276128e-08
-2.8215552e-07
2.063629e-08
-3.0211975e-07
1.996423e-08
-3.2138305e-07
1.9263301e-08
-3.3991989e-07
1.8536845e-08
-3.5770804e-07
1.7788141e-08
-3.7472845e-07
1.7020418e-08
-3.9096524e-07
1.6236774e-08
-4.064055e-07
1.5440272e-08
-4.2103927e-07
1.463377e-08
-4.3485933e-07
1.3820055e-08
-4.4786105e-07
1.3001736e-08
-4.6004236e-07
1.2181294e-08
-4.7140316e-07
1.1360798e-08
-4.819443e-07
1.0541137e-08
-4.9166692e-07
9.722621e-09
-5.005731e-07
8.9061901e-09
-5.0866871e-07
8.0955995e-09
-5.1596238e-07
7.2936723e-09
-5.2246386e-07
6.5014868e-09
-5.2818313e-07
5.7192632e-09
-5.3312615e-07
4.9430349e-09
-5.3732308e-07
4.1969313e-09
-5.4078895e-07
3.4658687e-09
-5.4353681e-07
2.7478526e-09
-5.4558003e-07
2.0432307e-09
-5.4693088e-07
1.3508566e-09
-5.4759368e-07
6.627907e-10
-5.475447e-07
-4.8977524e-11
-5.469168e-07
-6.2790288e-10
-5.4568066e-07
-1.2361486e-09
-5.4384448e-07
-1.8361719e-09
-5.4142361e-07
-2.4208658e-09
-5.3843536e-07
-2.9882582e-09
-5.3489751e-07
-3.5378477e-09
-5.3082791e-07
-4.0695938e-09
-5.2624421e-07
-4.5837081e-09
-5.2116378e-07
-5.0804203e-09
-5.1560378e-07
-5.560008e-09
-5.0958098e-07
-6.0227972e-09
-5.0311186e-07
-6.4691277e-09
-4.962125e-07
-6.8993673e-09
-4.8889859e-07
-7.3138983e-09
-4.8118546e-07
-7.7131323e-09
-4.7308797e-07
-8.0974851e-09
-4.6462057e-07
-8.4674008e-09
-4.5579725e-07
-8.8233206e-09
-4.4663157e-07
-9.1656891e-09
-4.3713659e-07
-9.4949612e-09
-4.2732499e-07
-9.8116048e-09
-4.1720891e-07
-1.0116091e-08
-4.0680007e-07
-1.0408834e-08
-3.9610973e-07
-1.0690337e-08
-3.8514868e-07
-1.0961054e-08
-3.7392726e-07
-1.1221401e-08
-3.6245545e-07
-1.1471827e-08
-3.507427e-07
-1.1712749e-08
-3.3879812e-07
-1.1944576e-08
-3.2663041e-07
-1.2167718e-08
-3.1424781e-07
-1.2382589e-08
-3.0165828e-07
-1.2589532e-08
-2.8886939e-07
-1.2788904e-08
-2.7588832e-07
-1.2981049e-08
-2.6272206e-07
-1.3166257e-08
-2.4937721e-07
-1.3344865e-08
-2.3586016e-07
-1.3517041e-08
-2.2217712e-07
-1.3683043e-08
-2.0833417e-07
-1.3842947e-08
-1.9433738e-07
-1.3996791e-08
-1.8019305e-07
-1.414434e-08
-1.6590806e-07
-1.4284994e-08
-1.5149069e-07
-1.4417372e-08
-1.3695203e-07
-1.4538668e-08
-1.2230841e-07
-1.4643592e-08
-1.0758618e-07
-1.4722238e-08
-9.2828925e-08
-1.4757229e-08
-7.8107797e-08
-1.4721147e-08
-6.352471e-08
-1.4583092e-08
-4.9168265e-08
-1.4356444e-08
-3.4890042e-08
-1.4278221e-08
-1.9546922e-08
-1.5343109e-08
-1.9546924e-08
9.2119673e-10
-1.80384e-09
3.4701612e-09
-5.0727122e-09
7.4629062e-09
-8.0039624e-09
1.2687566e-08
-1.058351e-08
1.9031953e-08
-1.2993102e-08
2.6423509e-08
-1.5298403e-08
3.4798192e-08
-1.7509992e-08
4.4081637e-08
-1.9605694e-08
5.4187523e-08
-2.1563075e-08
6.501358e-08
-2.3355096e-08
7.6444139e-08
-2.4959318e-08
8.8350631e-08
-2.6354255e-08
1.0059349e-07
-2.7522301e-08
1.1302786e-07
-2.8452718e-08
1.254864e-07
-2.9112605e-08
1.3782101e-07
-2.9526784e-08
1.4985824e-07
-2.9659234e-08
1.6143322e-07
-2.9519399e-08
1.7237772e-07
-2.9101849e-08
1.8252253e-07
-2.8402763e-08
1.9169619e-07
-2.7420775e-08
1.9973435e-07
-2.6162992e-08
2.0647523e-07
-2.4633615e-08
2.1176678e-07
-2.2841109e-08
2.1544535e-07
-2.0771695e-08
2.1735343e-07
-1.8435388e-08
2.1736269e-07
-1.5870524e-08
2.1534639e-07
-1.3083248e-08
2.1118863e-07
-1.0088461e-08
2.0478145e-07
-6.9025487e-09
1.9605612e-07
-3.5642171e-09
1.849615e-07
-1.2753992e-10
1.7126656e-07
3.6635938e-09
1.5500158e-07
7.4740055e-09
1.3612696e-07
1.1377107e-08
1.1460026e-07
1.5366458e-08
9.0396108e-08
1.9419167e-08
6.3575341e-08
2.3475135e-08
3.4066904e-08
2.7592967e-08
1.9339096e-09
3.1673608e-08
-3.2748866e-08
3.5743546e-08
-7.0011304e-08
3.9799819e-08
-1.0977909e-07
4.3783853e-08
-1.5197262e-07
4.7680147e-08
-1.9650366e-07
5.147365e-08
-2.4327415e-07
5.514825e-08
-2.9217649e-07
5.8686284e-08
-3.4309382e-07
6.2071831e-08
-3.9590099e-07
6.5288627e-08
-4.5046383e-07
6.83268e-08
-5.0664112e-07
7.117324e-08
-5.6428548e-07
7.3816281e-08
-6.2324429e-07
7.6245842e-08
-6.8336175e-07
7.8450117e-08
-7.44476e-07
8.0428225e-08
-8.0642247e-07
8.2173963e-08
-8.690359e-07
8.3680239e-08
-9.321495e-07
8.4945246e-08
-9.9559679e-07
8.5966424e-08
-1.0592109e-06
8.6745002e-08
-1.122826e-06
8.7281944e-08
-1.1862854e-06
8.757057e-08
-1.2494218e-06
8.7630272e-08
-1.3120787e-06
8.7455491e-08
-1.374117e-06
8.7041234e-08
-1.4353795e-06
8.6412798e-08
-1.4957211e-06
8.5569877e-08
-1.5550241e-06
8.4513485e-08
-1.6131384e-06
8.3265563e-08
-1.6699439e-06
8.182774e-08
-1.7253263e-06
8.0208296e-08
-1.779177e-06
7.8417113e-08
-1.8313942e-06
7.646461e-08
-1.8818831e-06
7.4361447e-08
-1.9305565e-06
7.2118449e-08
-1.9773348e-06
6.9746504e-08
-2.0221459e-06
6.725652e-08
-2.0649249e-06
6.4659421e-08
-2.1056149e-06
6.1966072e-08
-2.1441658e-06
5.9187233e-08
-2.1805351e-06
5.6333516e-08
-2.2146871e-06
5.3415308e-08
-2.2465931e-06
5.0442806e-08
-2.2762308e-06
4.7425894e-08
-2.3035846e-06
4.4374147e-08
-2.3286446e-06
4.1296795e-08
-2.351407e-06
3.820266e-08
-2.3718733e-06
3.5100107e-08
-2.3900504e-06
3.1997072e-08
-2.4059495e-06
2.8900921e-08
-2.4195866e-06
2.5818312e-08
-2.4309808e-06
2.2755049e-08
-2.4401552e-06
1.9715571e-08
-2.4471336e-06
1.6701013e-08
-2.4519402e-06
1.3712719e-08
-2.454609e-06
1.0764377e-08
-2.455174e-06
7.858777e-09
-2.4536657e-06
4.9931323e-09
-2.4500979e-06
2.1514308e-09
-2.4445272e-06
-6.2769114e-10
-2.4371044e-06
-3.225819e-09
-2.4278135e-06
-5.8250075e-09
-2.4166862e-06
-8.3794551e-09
-2.4037661e-06
-1.0876956e-08
-2.389102e-06
-1.3313226e-08
-2.3727495e-06
-1.5689685e-08
-2.3547823e-06
-1.8016195e-08
-2.3351544e-06
-2.0255761e-08
-2.3139612e-06
-2.2429353e-08
-2.2912585e-06
-2.4538909e-08
-2.2670949e-06
-2.658444e-08
-2.241517e-06
-2.8566121e-08
-2.2145705e-06
-3.0484414e-08
-2.1863e-06
-3.2340043e-08
-2.1567498e-06
-3.4133942e-08
-2.125963e-06
-3.5867246e-08
-2.0939818e-06
-3.7541167e-08
-2.0608476e-06
-3.9157051e-08
-2.0266003e-06
-4.0716351e-08
-1.9912791e-06
-4.2220562e-08
-1.9549218e-06
-4.3671239e-08
-1.9175649e-06
-4.5070002e-08
-1.8792439e-06
-4.6418513e-08
-1.8399928e-06
-4.7718441e-08
-1.7998446e-06
-4.897152e-08
-1.7588309e-06
-5.0179439e-08
-1.7169819e-06
-5.134394e-08
-1.6743268e-06
-5.2466723e-08
-1.6308934e-06
-5.3549525e-08
-1.5867082e-06
-5.4594027e-08
-1.5417966e-06
-5.5601933e-08
-1.4961828e-06
-5.6574868e-08
-1.4498897e-06
-5.7514477e-08
-1.4029392e-06
-5.8422322e-08
-1.3553519e-06
-5.929999e-08
-1.3071476e-06
-6.0148941e-08
-1.2583446e-06
-6.0970652e-08
-1.2089607e-06
-6.1766556e-08
-1.1590122e-06
-6.2537983e-08
-1.1085149e-06
-6.3286203e-08
-1.0574835e-06
-6.4012502e-08
-1.0059318e-06
-6.4717914e-08
-9.5387309e-07
-6.54036e-08
-9.0131971e-07
-6.6070417e-08
-8.4828355e-07
-6.6719207e-08
-7.9477594e-07
-6.735055e-08
-7.4080809e-07
-6.7964634e-08
-6.8639134e-07
-6.8561093e-08
-6.3153794e-07
-6.9138381e-08
-5.7626266e-07
-6.9692654e-08
-5.2058398e-07
-7.0217362e-08
-4.6452566e-07
-7.0701907e-08
-4.081197e-07
-7.1128219e-08
-3.5140759e-07
-7.1469363e-08
-2.9443422e-07
-7.1694518e-08
-2.3721969e-07
-7.1797595e-08
-1.7967951e-07
-7.1896644e-08
-1.2145781e-07
-7.249991e-08
-6.1818918e-08
-7.4982009e-08
-8.136584e-08
3.2191179e-10
-2.1257517e-09
1.1804168e-09
-5.9312171e-09
2.4604943e-09
-9.2840399e-09
4.0064937e-09
-1.212951e-08
5.7020915e-09
-1.4688699e-08
7.4551412e-09
-1.7051452e-08
9.1737759e-09
-1.9228626e-08
1.0775462e-08
-2.1207381e-08
1.2161715e-08
-2.2949328e-08
1.3224722e-08
-2.4418102e-08
1.3841564e-08
-2.5576159e-08
1.3881046e-08
-2.6393736e-08
1.3200854e-08
-2.684211e-08
1.1647252e-08
-2.6899115e-08
9.0959884e-09
-2.6561341e-08
5.3565748e-09
-2.5787371e-08
2.8614686e-10
-2.4588807e-08
-6.2850322e-09
-2.2948222e-08
-1.4526971e-08
-2.0859908e-08
-2.4599382e-08
-1.8330353e-08
-3.6660167e-08
-1.5359988e-08
-5.0861268e-08
-1.1961891e-08
-6.7347166e-08
-8.1477168e-09
-8.6240475e-08
-3.9477991e-09
-1.0770276e-07
6.9059448e-10
-1.3189977e-07
5.7616198e-09
-1.5890247e-07
1.1132177e-08
-1.8880918e-07
1.6823463e-08
-2.2170917e-07
2.2811526e-08
-2.5767937e-07
2.9067656e-08
-2.9678907e-07
3.554548e-08
-3.3914671e-07
4.2230099e-08
-3.8461927e-07
4.9136155e-08
-4.3331795e-07
5.6172683e-08
-4.8524502e-07
6.3304174e-08
-5.4037995e-07
7.0501392e-08
-5.9868639e-07
7.772561e-08
-6.6013979e-07
8.4928527e-08
-7.2464572e-07
9.2098899e-08
-7.9215184e-07
9.917972e-08
-8.6255564e-07
1.0614735e-07
-9.3572705e-07
1.1297122e-07
-1.0115519e-06
1.1960874e-07
-1.0898973e-06
1.260255e-07
-1.1706149e-06
1.3219128e-07
-1.253544e-06
1.3807737e-07
-1.3385137e-06
1.4365589e-07
-1.425343e-06
1.489012e-07
-1.5138438e-06
1.537894e-07
-1.6038178e-06
1.583008e-07
-1.6950609e-06
1.6241636e-07
-1.7873638e-06
1.661192e-07
-1.8805129e-06
1.693949e-07
-1.9742936e-06
1.7223081e-07
-2.0684854e-06
1.7462006e-07
-2.1628674e-06
1.7655594e-07
-2.2572203e-06
1.780331e-07
-2.3513249e-06
1.7904988e-07
-2.4449649e-06
1.7960647e-07
-2.5379259e-06
1.7970599e-07
-2.6299969e-06
1.793529e-07
-2.7209782e-06
1.7855183e-07
-2.810664e-06
1.7731607e-07
-2.8988616e-06
1.7565311e-07
-2.9853928e-06
1.735725e-07
-3.0700732e-06
1.7109318e-07
-3.1527322e-06
1.6822887e-07
-3.2332132e-06
1.6499444e-07
-3.3113581e-06
1.614105e-07
-3.3870243e-06
1.5749394e-07
-3.4600791e-06
1.5326312e-07
-3.5303997e-06
1.4873765e-07
-3.5978728e-06
1.4393775e-07
-3.6623954e-06
1.3888409e-07
-3.7238746e-06
1.3359756e-07
-3.7822272e-06
1.2809911e-07
-3.8373803e-06
1.2240962e-07
-3.8892707e-06
1.1654988e-07
-3.9378451e-06
1.1054041e-07
-3.9830593e-06
1.0440146e-07
-4.0248786e-06
9.8152797e-08
-4.063277e-06
9.1813744e-08
-4.0982373e-06
8.5403073e-08
-4.1297503e-06
7.89389e-08
-4.1578148e-06
7.2438631e-08
-4.1824369e-06
6.5918963e-08
-4.20363e-06
5.9395746e-08
-4.2214139e-06
5.2884018e-08
-4.2358147e-06
4.639788e-08
-4.2468644e-06
3.9950545e-08
-4.2546009e-06
3.3554845e-08
-4.2590704e-06
2.7224528e-08
-4.2603177e-06
2.0962872e-08
-4.258387e-06
1.477036e-08
-4.2533232e-06
8.6488806e-09
-4.2451806e-06
2.6218475e-09
-4.2340278e-06
-3.2940535e-09
-4.2199339e-06
-9.1007388e-09
-4.202984e-06
-1.4798504e-08
-4.1832415e-06
-2.0370179e-08
-4.1606959e-06
-2.5771421e-08
-4.135469e-06
-3.1051885e-08
-4.1076349e-06
-3.6213573e-08
-4.0772641e-06
-4.1247725e-08
-4.0444268e-06
-4.6150578e-08
-4.0091952e-06
-5.0921274e-08
-3.9716517e-06
-5.5559709e-08
-3.9318494e-06
-6.0058109e-08
-3.8898581e-06
-6.4420608e-08
-3.8457476e-06
-6.8649461e-08
-3.7995858e-06
-7.2746244e-08
-3.7514393e-06
-7.6712566e-08
-3.7013734e-06
-8.055029e-08
-3.6494519e-06
-8.4261552e-08
-3.5957371e-06
-8.7848759e-08
-3.5402898e-06
-9.1314567e-08
-3.4831691e-06
-9.4661821e-08
-3.4244326e-06
-9.7893531e-08
-3.3641361e-06
-1.0101289e-07
-3.3023336e-06
-1.0402313e-07
-3.2390771e-06
-1.069277e-07
-3.1744171e-06
-1.0973003e-07
-3.108402e-06
-1.1243361e-07
-3.0410784e-06
-1.1504203e-07
-2.972491e-06
-1.1755889e-07
-2.9026827e-06
-1.1998774e-07
-2.8316944e-06
-1.2233221e-07
-2.7595653e-06
-1.2459583e-07
-2.6863327e-06
-1.2678218e-07
-2.612032e-06
-1.2889474e-07
-2.5366969e-06
-1.3093697e-07
-2.4603595e-06
-1.3291227e-07
-2.38305e-06
-1.34824e-07
-2.304797e-06
-1.3667534e-07
-2.2256274e-06
-1.3846955e-07
-2.1455667e-06
-1.4020962e-07
-2.0646388e-06
-1.4189859e-07
-1.982866e-06
-1.4353929e-07
-1.9002695e-06
-1.4513451e-07
-1.8168688e-06
-1.466869e-07
-1.7326824e-06
-1.4819892e-07
-1.6477274e-06
-1.4967288e-07
-1.56202e-06
-1.5111102e-07
-1.4755752e-06
-1.5251518e-07
-1.3884074e-06
-1.5388702e-07
-1.3005301e-06
-1.5522784e-07
-1.2119566e-06
-1.5653819e-07
-1.1226998e-06
-1.5781786e-07
-1.0327732e-06
-1.5906504e-07
-9.421903e-07
-1.6027552e-07
-8.5096604e-07
-1.6144161e-07
-7.5911718e-07
-1.6255077e-07
-6.666611e-07
-1.6358428e-07
-5.7361114e-07
-1.6451933e-07
-4.7996367e-07
-1.6534197e-07
-3.8567235e-07
-1.6608892e-07
-2.9061325e-07
-1.6695574e-07
-1.9459316e-07
-1.6851999e-07
-9.7537161e-08
-1.7203803e-07
-1.78903e-07
-3.1826829e-10
-1.8074834e-09
-1.2428365e-09
-5.006649e-09
-2.8055858e-09
-7.721291e-09
-5.0660364e-09
-9.8690588e-09
-8.1198551e-09
-1.163488e-08
-1.206215e-08
-1.3109158e-08
-1.6988808e-08
-1.4301968e-08
-2.2995495e-08
-1.5200693e-08
-3.0188648e-08
-1.5756176e-08
-3.8670366e-08
-1.5936385e-08
-4.8558825e-08
-1.5687701e-08
-5.9972352e-08
-1.498021e-08
-7.3048082e-08
-1.3766379e-08
-8.7907357e-08
-1.203984e-08
-1.0471074e-07
-9.7579625e-09
-1.2357644e-07
-6.9216695e-09
-1.4466209e-07
-3.5031595e-09
-1.6809973e-07
4.8942617e-10
-1.9403227e-07
5.0726303e-09
-2.2260092e-07
1.0238293e-08
-2.5393667e-07
1.5975766e-08
-2.8816955e-07
2.2270983e-08
-3.2542255e-07
2.9105291e-08
-3.6582726e-07
3.6456906e-08
-4.0945637e-07
4.4319704e-08
-4.563612e-07
5.2666451e-08
-5.066622e-07
6.1433177e-08
-5.604252e-07
7.0586465e-08
-6.1770068e-07
8.0087006e-08
-6.785243e-07
8.9891275e-08
-7.4292876e-07
9.9949936e-08
-8.109236e-07
1.1022494e-07
-8.8246312e-07
1.2067567e-07
-9.5752964e-07
1.3123921e-07
-1.0360842e-06
1.4185875e-07
-1.1180648e-06
1.5248195e-07
-1.2033932e-06
1.6305407e-07
-1.2919838e-06
1.7351912e-07
-1.3837162e-06
1.8383127e-07
-1.4784706e-06
1.9393417e-07
-1.5761031e-06
2.0377978e-07
-1.6764517e-06
2.1331987e-07
-1.7793476e-06
2.2250462e-07
-1.8846094e-06
2.3128732e-07
-1.992043e-06
2.3962485e-07
-2.1014426e-06
2.4747699e-07
-2.2125928e-06
2.5480612e-07
-2.3252694e-06
2.615778e-07
-2.4392409e-06
2.6776084e-07
-2.5542682e-06
2.733281e-07
-2.6701072e-06
2.7825542e-07
-2.7865101e-06
2.8252203e-07
-2.903226e-06
2.8611084e-07
-3.0200035e-06
2.8900833e-07
-3.1365892e-06
2.9120568e-07
-3.2527302e-06
2.9269697e-07
-3.3681765e-06
2.9347941e-07
-3.4826807e-06
2.9355405e-07
-3.5959995e-06
2.9292528e-07
-3.7078943e-06
2.9160082e-07
-3.8181326e-06
2.8959118e-07
-3.9264903e-06
2.8690955e-07
-4.0327476e-06
2.835734e-07
-4.1366953e-06
2.7960081e-07
-4.2381352e-06
2.7501239e-07
-4.336875e-06
2.6983295e-07
-4.4327337e-06
2.640876e-07
-4.5255424e-06
2.5780311e-07
-4.6151405e-06
2.5100859e-07
-4.70138e-06
2.4373344e-07
-4.7841248e-06
2.3600791e-07
-4.8632504e-06
2.2786327e-07
-4.9386441e-06
2.1933145e-07
-5.0102047e-06
2.1044473e-07
-5.0778428e-06
2.0123566e-07
-5.1414804e-06
1.9173667e-07
-5.2010508e-06
1.8198002e-07
-5.2564985e-06
1.7199763e-07
-5.307779e-06
1.6182089e-07
-5.3548582e-06
1.5148065e-07
-5.3977123e-06
1.4100687e-07
-5.4363273e-06
1.3042876e-07
-5.4706987e-06
1.1977452e-07
-5.5008311e-06
1.0907126e-07
-5.5267374e-06
9.8344969e-08
-5.5484389e-06
8.7620433e-08
-5.5659644e-06
7.6921198e-08
-5.5793499e-06
6.6269559e-08
-5.5886386e-06
5.5686538e-08
-5.5938796e-06
4.519163e-08
-5.5951273e-06
3.4802499e-08
-5.5924392e-06
2.4536484e-08
-5.5858947e-06
1.4418318e-08
-5.5755565e-06
4.4321267e-09
-5.5614361e-06
-5.4714781e-09
-5.5436471e-06
-1.5167189e-08
-5.5222771e-06
-2.4664067e-08
-5.4974098e-06
-3.3967998e-08
-5.4691338e-06
-4.3074547e-08
-5.4375319e-06
-5.1972013e-08
-5.4026563e-06
-6.0647038e-08
-5.364601e-06
-6.9107159e-08
-5.3234606e-06
-7.7354024e-08
-5.279323e-06
-8.5385271e-08
-5.2322747e-06
-9.3198893e-08
-5.1824022e-06
-1.0079383e-07
-5.1297924e-06
-1.0816951e-07
-5.0745258e-06
-1.153247e-07
-5.0166847e-06
-1.2226167e-07
-4.9563512e-06
-1.2898296e-07
-4.893606e-06
-1.3549148e-07
-4.8285281e-06
-1.4179046e-07
-4.7611949e-06
-1.4788346e-07
-4.691682e-06
-1.5377447e-07
-4.6200629e-06
-1.5946783e-07
-4.5464094e-06
-1.6496811e-07
-4.4707909e-06
-1.7028032e-07
-4.3932749e-06
-1.754095e-07
-4.3139267e-06
-1.8036109e-07
-4.2328093e-06
-1.8514053e-07
-4.1499835e-06
-1.897535e-07
-4.0655078e-06
-1.9420571e-07
-3.9794385e-06
-1.9850298e-07
-3.8918294e-06
-2.0265114e-07
-3.8027322e-06
-2.0665607e-07
-3.7121963e-06
-2.1052365e-07
-3.6202688e-06
-2.1425971e-07
-3.5269945e-06
-2.1787009e-07
-3.4324162e-06
-2.2136049e-07
-3.3365743e-06
-2.2473665e-07
-3.2395071e-06
-2.2800411e-07
-3.141251e-06
-2.3116836e-07
-3.0418402e-06
-2.3423481e-07
-2.9413069e-06
-2.3720866e-07
-2.8396814e-06
-2.4009507e-07
-2.7369921e-06
-2.4289894e-07
-2.6332656e-06
-2.456251e-07
-2.5285267e-06
-2.4827816e-07
-2.4227986e-06
-2.5086262e-07
-2.3161028e-06
-2.5338266e-07
-2.2084595e-06
-2.558423e-07
-2.0998869e-06
-2.582454e-07
-1.9904025e-06
-2.6059545e-07
-1.8800221e-06
-2.628956e-07
-1.7687605e-06
-2.6514862e-07
-1.6566315e-06
-2.673568e-07
-1.5436481e-06
-2.6952163e-07
-1.4298224e-06
-2.7164362e-07
-1.3151657e-06
-2.7372168e-07
-1.1996887e-06
-2.7575252e-07
-1.0834005e-06
-2.7772983e-07
-9.6630764e-07
-2.7964363e-07
-8.4841098e-07
-2.8148095e-07
-7.2969949e-07
-2.8323083e-07
-6.1014093e-07
-2.8490055e-07
-4.8967351e-07
-2.8655634e-07
-3.6821898e-07
-2.8841025e-07
-2.4577704e-07
-2.9096194e-07
-1.2269023e-07
-2.9512483e-07
-3.0159322e-07
-7.685057e-10
-1.0389777e-09
-2.9772867e-09
-2.797868e-09
-6.5996026e-09
-4.0989749e-09
-1.1626539e-08
-4.8421219e-09
-1.8118058e-08
-5.1433614e-09
-2.6164166e-08
-5.0630495e-09
-3.5865969e-08
-4.6001654e-09
-4.7324654e-08
-3.7420093e-09
-6.0632498e-08
-2.4483309e-09
-7.5909845e-08
-6.5903939e-10
-9.3251071e-08
1.653525e-09
-1.1278206e-07
4.5507795e-09
-1.3461187e-07
8.0634294e-09
-1.5887186e-07
1.222015e-08
-1.8567843e-07
1.7048603e-08
-2.1516516e-07
2.256506e-08
-2.4745193e-07
2.8783618e-08
-2.8267e-07
3.5707495e-08
-3.2093602e-07
4.3338647e-08
-3.6236667e-07
5.1668943e-08
-4.0707457e-07
6.0683666e-08
-4.5516579e-07
7.0362204e-08
-5.0673926e-07
8.0678764e-08
-5.6188588e-07
9.160352e-08
-6.2067171e-07
1.0310553e-07
-6.8314792e-07
1.1514267e-07
-7.4937419e-07
1.2765944e-07
-8.1939066e-07
1.4060294e-07
-8.9322109e-07
1.5391744e-07
-9.7087374e-07
1.6754392e-07
-1.0523442e-06
1.8142039e-07
-1.1376054e-06
1.9548616e-07
-1.2266064e-06
2.0967663e-07
-1.3192876e-06
2.2392045e-07
-1.4155746e-06
2.3814575e-07
-1.5153744e-06
2.522817e-07
-1.6185775e-06
2.6625719e-07
-1.7250601e-06
2.8000174e-07
-1.834677e-06
2.9344818e-07
-1.9472711e-06
3.0652826e-07
-2.0626683e-06
3.1917692e-07
-2.1806793e-06
3.313309e-07
-2.3011033e-06
3.4292864e-07
-2.4237276e-06
3.5391164e-07
-2.5483281e-06
3.642253e-07
-2.67467e-06
3.7381891e-07
-2.8025096e-06
3.8264576e-07
-2.9315952e-06
3.9066343e-07
-3.0616685e-06
3.978341e-07
-3.1924652e-06
4.0412478e-07
-3.3237168e-06
4.0950709e-07
-3.4551523e-06
4.1395745e-07
-3.5864986e-06
4.1745715e-07
-3.7174827e-06
4.1999243e-07
-3.8478318e-06
4.2155483e-07
-3.9772753e-06
4.2214041e-07
-4.1055457e-06
4.2174982e-07
-4.23238e-06
4.2038839e-07
-4.3575206e-06
4.1806588e-07
-4.4807161e-06
4.1479631e-07
-4.6017226e-06
4.1059768e-07
-4.7203047e-06
4.0549168e-07
-4.8362354e-06
3.9950403e-07
-4.9492977e-06
3.9266313e-07
-5.0592857e-06
3.8500047e-07
-5.1660036e-06
3.7655083e-07
-5.269267e-06
3.67351e-07
-5.3689038e-06
3.5743983e-07
-5.4647533e-06
3.468581e-07
-5.5566676e-06
3.3564779e-07
-5.6445117e-06
3.2385202e-07
-5.7281632e-06
3.1151478e-07
-5.8075125e-06
2.9868072e-07
-5.8824626e-06
2.853948e-07
-5.952929e-06
2.7170206e-07
-6.0188396e-06
2.5764732e-07
-6.0801345e-06
2.4327495e-07
-6.1367657e-06
2.2862877e-07
-6.1886965e-06
2.1375171e-07
-6.2359016e-06
1.9868577e-07
-6.2783665e-06
1.8347172e-07
-6.3160868e-06
1.6814907e-07
-6.3490681e-06
1.5275589e-07
-6.3773255e-06
1.3732863e-07
-6.4008827e-06
1.2190221e-07
-6.4197721e-06
1.0650977e-07
-6.4340337e-06
9.1182805e-08
-6.4437152e-06
7.5951064e-08
-6.4488714e-06
6.0842811e-08
-6.4495642e-06
4.588441e-08
-6.4458625e-06
3.1100735e-08
-6.4378479e-06
1.6521943e-08
-6.4256398e-06
2.2101257e-09
-6.409102e-06
-1.2105574e-08
-6.3885143e-06
-2.6059272e-08
-6.3639333e-06
-3.9748139e-08
-6.3354367e-06
-5.316068e-08
-6.3031154e-06
-6.6289258e-08
-6.2670647e-06
-7.9125278e-08
-6.2273775e-06
-9.165918e-08
-6.1841405e-06
-1.0388407e-07
-6.1374488e-06
-1.1579887e-07
-6.0874004e-06
-1.2740239e-07
-6.0340926e-06
-1.386931e-07
-5.9776215e-06
-1.4966998e-07
-5.9180825e-06
-1.6033284e-07
-5.8555698e-06
-1.7068223e-07
-5.7901751e-06
-1.8071935e-07
-5.7219896e-06
-1.9044716e-07
-5.6511032e-06
-1.9986944e-07
-5.577604e-06
-2.0899065e-07
-5.5015786e-06
-2.1781585e-07
-5.4231114e-06
-2.2635061e-07
-5.3422849e-06
-2.3460103e-07
-5.2591791e-06
-2.4257364e-07
-5.1738719e-06
-2.5027531e-07
-5.0864388e-06
-2.577134e-07
-4.9969529e-06
-2.648954e-07
-4.9054848e-06
-2.7182917e-07
-4.8121027e-06
-2.7852268e-07
-4.716872e-06
-2.8498413e-07
-4.619856e-06
-2.9122178e-07
-4.5211149e-06
-2.9724399e-07
-4.4207069e-06
-3.0305918e-07
-4.3186872e-06
-3.0867573e-07
-4.2151088e-06
-3.1410208e-07
-4.110022e-06
-3.1934651e-07
-4.0034747e-06
-3.2441736e-07
-3.8955124e-06
-3.2932281e-07
-3.7861781e-06
-3.3407091e-07
-3.6755127e-06
-3.3866961e-07
-3.5635544e-06
-3.4312665e-07
-3.4503394e-06
-3.4744973e-07
-3.3359019e-06
-3.5164623e-07
-3.2202735e-06
-3.5572341e-07
-3.1034842e-06
-3.5968827e-07
-2.9855617e-06
-3.6354761e-07
-2.8665319e-06
-3.6730798e-07
-2.7464188e-06
-3.7097573e-07
-2.6252446e-06
-3.7455682e-07
-2.5030299e-06
-3.7805701e-07
-2.3797936e-06
-3.8148172e-07
-2.2555531e-06
-3.8483598e-07
-2.1303242e-06
-3.8812445e-07
-2.0041216e-06
-3.9135124e-07
-1.8769584e-06
-3.9451995e-07
-1.7488468e-06
-3.9763334e-07
-1.6197972e-06
-4.0069321e-07
-1.4898188e-06
-4.0370003e-07
-1.3589187e-06
-4.0665262e-07
-1.2271008e-06
-4.0954769e-07
-1.0943642e-06
-4.1238022e-07
-9.6069981e-07
-4.1514536e-07
-8.2608625e-07
-4.1784437e-07
-6.9048727e-07
-4.2049953e-07
-5.538582e-07
-4.2318541e-07
-4.1618382e-07
-4.2608464e-07
-2.7758922e-07
-4.2955655e-07
-1.3855131e-07
-4.3416273e-07
-4.4014455e-07
-1.0140293e-09
-2.494832e-11
-3.958093e-09
1.4619573e-10
-8.7793314e-09
7.2226367e-10
-1.5437482e-08
1.8160281e-09
-2.3974186e-08
3.3933432e-09
-3.4466801e-08
5.4295645e-09
-4.7002514e-08
7.9355489e-09
-6.1683177e-08
1.0938653e-08
-7.8614034e-08
1.4482527e-08
-9.7892546e-08
1.8619473e-08
-1.1963486e-07
2.3395843e-08
-1.4394559e-07
2.8861501e-08
-1.709381e-07
3.5055938e-08
-2.0072997e-07
4.2012026e-08
-2.3343788e-07
4.9756519e-08
-2.6918071e-07
5.8307879e-08
-3.0807459e-07
6.76775e-08
-3.5023538e-07
7.7868287e-08
-3.9577298e-07
8.8876244e-08
-4.4479288e-07
1.0068884e-07
-4.9739487e-07
1.1328566e-07
-5.5367146e-07
1.2663879e-07
-6.137064e-07
1.407137e-07
-6.7757253e-07
1.5546965e-07
-7.4532706e-07
1.7086006e-07
-8.1701409e-07
1.868297e-07
-8.9266986e-07
2.0331521e-07
-9.7231627e-07
2.2024934e-07
-1.0559596e-06
2.3756082e-07
-1.1435903e-06
2.5517461e-07
-1.2351825e-06
2.730126e-07
-1.3306911e-06
2.9099471e-07
-1.4300521e-06
3.0903761e-07
-1.5331862e-06
3.2705463e-07
-1.6399982e-06
3.4495771e-07
-1.7503753e-06
3.6265877e-07
-1.8641881e-06
3.8007e-07
-1.981291e-06
3.9710464e-07
-2.1015209e-06
4.1367804e-07
-2.2246996e-06
4.2970703e-07
-2.3506339e-06
4.451112e-07
-2.479116e-06
4.5981305e-07
-2.6099258e-06
4.7373837e-07
-2.7428311e-06
4.8681693e-07
-2.8775889e-06
4.9898315e-07
-3.0139464e-06
5.1017641e-07
-3.151642e-06
5.2034134e-07
-3.2904067e-06
5.2942812e-07
-3.4299653e-06
5.3739276e-07
-3.5700379e-06
5.4419729e-07
-3.7103406e-06
5.498098e-07
-3.8505876e-06
5.5420449e-07
-3.9904923e-06
5.5736181e-07
-4.1297683e-06
5.5926845e-07
-4.2681308e-06
5.5991738e-07
-4.405298e-06
5.5930754e-07
-4.5409919e-06
5.5744374e-07
-4.67494e-06
5.5433654e-07
-4.8068761e-06
5.5000198e-07
-4.9365412e-06
5.4446139e-07
-5.0636846e-06
5.3774107e-07
-5.1880649e-06
5.2987198e-07
-5.3094504e-06
5.2088951e-07
-5.4276202e-06
5.1083291e-07
-5.5423648e-06
4.997451e-07
-5.6534864e-06
4.8767237e-07
-5.7607992e-06
4.7466387e-07
-5.8641305e-06
4.6077111e-07
-5.9633201e-06
4.4604774e-07
-6.0582213e-06
4.3054898e-07
-6.1487006e-06
4.1433132e-07
-6.2346381e-06
3.9745222e-07
-6.315927e-06
3.7996968e-07
-6.3924742e-06
3.6194193e-07
-6.4641992e-06
3.4342713e-07
-6.5310349e-06
3.24483e-07
-6.5929266e-06
3.0516659e-07
-6.6498318e-06
2.8553398e-07
-6.7017201e-06
2.6564009e-07
-6.7485728e-06
2.4553843e-07
-6.7903819e-06
2.2528088e-07
-6.8271504e-06
2.0491752e-07
-6.858891e-06
1.8449654e-07
-6.8856264e-06
1.6406398e-07
-6.9073879e-06
1.4366374e-07
-6.9242157e-06
1.2333754e-07
-6.9361578e-06
1.0312491e-07
-6.9432699e-06
8.3063123e-08
-6.9456149e-06
6.3187861e-08
-6.9432644e-06
4.3533882e-08
-6.9363008e-06
2.4137177e-08
-6.9248389e-06
5.0599802e-09
-6.9087285e-06
-1.3900204e-08
-6.8883425e-06
-3.2491641e-08
-6.8636689e-06
-5.0732787e-08
-6.8348035e-06
-6.8613556e-08
-6.8018406e-06
-8.6123566e-08
-6.764878e-06
-1.0325186e-07
-6.7240153e-06
-1.1998799e-07
-6.6793518e-06
-1.3632275e-07
-6.6309863e-06
-1.5224951e-07
-6.5790205e-06
-1.6776467e-07
-6.523557e-06
-1.8286593e-07
-6.4646981e-06
-1.97552e-07
-6.4025455e-06
-2.1182257e-07
-6.3371998e-06
-2.2567847e-07
-6.2687604e-06
-2.3912163e-07
-6.1973248e-06
-2.5215505e-07
-6.1229888e-06
-2.6478308e-07
-6.0458472e-06
-2.7701111e-07
-5.9659924e-06
-2.8884543e-07
-5.8835151e-06
-3.0029314e-07
-5.7985037e-06
-3.1136196e-07
-5.7110445e-06
-3.2206031e-07
-5.6212211e-06
-3.3239705e-07
-5.5291147e-06
-3.4238168e-07
-5.4348041e-06
-3.5202397e-07
-5.3383654e-06
-3.613341e-07
-5.239872e-06
-3.7032253e-07
-5.1393948e-06
-3.7899994e-07
-5.0370017e-06
-3.8737721e-07
-4.9327581e-06
-3.9546534e-07
-4.8267267e-06
-4.0327541e-07
-4.7189674e-06
-4.108185e-07
-4.6095374e-06
-4.1810574e-07
-4.4984913e-06
-4.2514818e-07
-4.385881e-06
-4.3195681e-07
-4.2717558e-06
-4.3854255e-07
-4.1561625e-06
-4.4491614e-07
-4.0391453e-06
-4.5108812e-07
-3.9207459e-06
-4.57069e-07
-3.8010036e-06
-4.6286888e-07
-3.6799555e-06
-4.6849784e-07
-3.5576363e-06
-4.7396551e-07
-3.4340782e-06
-4.7928144e-07
-3.3093117e-06
-4.8445481e-07
-3.1833648e-06
-4.8949447e-07
-3.0562638e-06
-4.9440903e-07
-2.9280327e-06
-4.9920677e-07
-2.798694e-06
-5.0389554e-07
-2.6682681e-06
-5.084829e-07
-2.5367739e-06
-5.1297599e-07
-2.4042283e-06
-5.1738151e-07
-2.2706471e-06
-5.2170569e-07
-2.1360441e-06
-5.2595423e-07
-2.0004318e-06
-5.3013218e-07
-1.8638213e-06
-5.3424388e-07
-1.7262216e-06
-5.3829289e-07
-1.5876401e-06
-5.422816e-07
-1.4480812e-06
-5.4621148e-07
-1.3075461e-06
-5.5008285e-07
-1.1660303e-06
-5.5389597e-07
-1.0235227e-06
-5.5765301e-07
-8.8000334e-07
-5.6136369e-07
-7.3544648e-07
-5.650564e-07
-5.8983379e-07
-5.6879809e-07
-4.4319446e-07
-5.7272396e-07
-2.9569048e-07
-5.7706051e-07
-1.4774279e-07
-5.8211043e-07
-5.8788733e-07
-1.1147726e-09
1.0898242e-09
-4.3862416e-09
3.4176648e-09
-9.7635993e-09
6.0996212e-09
-1.720872e-08
9.2611488e-09
-2.6747836e-08
1.2932459e-08
-3.8446884e-08
1.7128612e-08
-5.2389416e-08
2.1878081e-08
-6.8671258e-08
2.7220495e-08
-8.7394164e-08
3.3205433e-08
-1.0866169e-07
3.9886996e-08
-1.3258361e-07
4.7317764e-08
-1.5926979e-07
5.5547685e-08
-1.8883361e-07
6.4619755e-08
-2.2139083e-07
7.4569249e-08
-2.5705788e-07
8.5423569e-08
-2.9595123e-07
9.7201219e-08
-3.3818564e-07
1.0991191e-07
-3.8387342e-07
1.2355607e-07
-4.3312223e-07
1.3812506e-07
-4.8603432e-07
1.5360092e-07
-5.427052e-07
1.6995654e-07
-6.032224e-07
1.8715599e-07
-6.6766378e-07
2.0515508e-07
-7.360958e-07
2.2390167e-07
-8.0857159e-07
2.4333585e-07
-8.8513131e-07
2.6338942e-07
-9.6580271e-07
2.8398661e-07
-1.0505991e-06
3.050457e-07
-1.139518e-06
3.2647974e-07
-1.2325407e-06
3.4819731e-07
-1.3296312e-06
3.7010312e-07
-1.4307353e-06
3.9209879e-07
-1.5357806e-06
4.1408293e-07
-1.6446776e-06
4.3595165e-07
-1.7573197e-06
4.5759975e-07
-1.8735826e-06
4.7892174e-07
-1.9933253e-06
4.9981269e-07
-2.1163897e-06
5.2016902e-07
-2.242601e-06
5.3988934e-07
-2.3717687e-06
5.5887478e-07