/*--------------------------------*- C++ -*----------------------------------*\
| =========                 |                                                 |
| \\      /  F ield         | OpenFOAM: The Open Source CFD Toolbox           |
|  \\    /   O peration     | Version:  2306                                  |
|   \\  /    A nd           | Website:  www.openfoam.com                      |
|    \\/     M anipulation  |                                                 |
\*---------------------------------------------------------------------------*/
FoamFile
{
    version     2.0;
    format      ascii;
    arch        "LSB;label=32;scalar=64";
    class       surfaceScalarField;
    location    "0.6";
    object      phi;
}
// * * * * * * * * * * * * * * * * * * * * * * * * * * * * * * * * * * * * * //

dimensions      [0 3 -1 0 0 0 0];

oriented        oriented;

internalField   nonuniform List<scalar> 
12640
(
5.783946e-07
-7.4525708e-06
2.2836841e-06
-2.2290065e-05
5.0969284e-06
-3.6963608e-05
9.0114358e-06
-5.1402474e-05
1.409299e-05
-6.562645e-05
2.0417055e-05
-7.9534942e-05
2.8036688e-05
-9.2937827e-05
3.6927797e-05
-0.00010550925
4.6969437e-05
-0.00011686163
5.79482e-05
-0.00012661453
6.9579898e-05
-0.00013445203
8.1540902e-05
-0.00014016093
9.3500493e-05
-0.00014364419
0.00010514884
-0.00014491592
0.00011621747
-0.00014408363
0.00012649116
-0.00014132433
0.00013581194
-0.00013685961
0.00014407711
-0.00013093331
0.00015123335
-0.00012379364
0.00015726891
-0.00011567986
0.00016220532
-0.00010681303
0.00016608914
-9.739008e-05
0.00016898449
-8.7580576e-05
0.00017096631
-7.7525562e-05
0.00017211457
-6.7338124e-05
0.00017250951
-5.7105188e-05
0.00017222781
-4.6890164e-05
0.00017133973
-3.673612e-05
0.00016990706
-2.6669224e-05
0.00016798185
-1.6702249e-05
0.00016560563
-6.8373831e-06
0.00016280989
2.9294407e-06
0.00015961474
1.2606629e-05
0.00015603225
2.2205041e-05
0.00015206545
3.1732925e-05
0.0001477099
4.119672e-05
0.00014295502
5.0598707e-05
0.00013778535
5.9935648e-05
0.00013218196
6.9197818e-05
0.00012612376
7.8368245e-05
0.0001195889
8.7422191e-05
0.00011255618
9.6326826e-05
0.00010500632
0.00010504109
9.692332e-05
0.00011351573
8.8295768e-05
0.00012169346
7.9118107e-05
0.00012950931
6.9391916e-05
0.0001368911
5.9127097e-05
0.00014376025
4.834319e-05
0.00015003255
3.7070146e-05
0.0001556195
2.535e-05
0.00016042925
1.3236113e-05
0.00016437047
7.926708e-07
0.00016735194
-1.1879563e-05
0.00016925941
-2.4702327e-05
0.00017004105
-3.7562335e-05
0.00016960268
-5.0335543e-05
0.00016787989
-6.288656e-05
0.00016482132
-7.5070098e-05
0.0001603929
-8.6733396e-05
0.00015458154
-9.7719395e-05
0.00014739812
-0.00010787057
0.00013888011
-0.00011703333
0.00012909348
-0.00012506277
0.0001181337
-0.00013182766
0.00010612558
-0.00013721535
9.322195e-05
-0.0001411363
7.9600967e-05
-0.00014352795
6.5462097e-05
-0.00014435805
5.1021466e-05
-0.00014362602
3.6505445e-05
-0.0001413657
2.21463e-05
-0.00013764507
8.1758594e-06
-0.00013253302
-5.2309367e-06
-0.00012618076
-1.7825339e-05
-0.00011872753
-2.9427247e-05
-0.00011033959
-3.9888901e-05
-0.00010119711
-4.9088148e-05
-9.1489097e-05
-5.6933603e-05
-8.1408424e-05
-6.3365539e-05
-6.8356232e-05
5.7775764e-07
-8.0303285e-06
2.28335e-06
-2.3995657e-05
5.1335915e-06
-3.9813849e-05
9.1569174e-06
-5.54258e-05
1.4501867e-05
-7.09714e-05
2.1311732e-05
-8.6344807e-05
2.9693263e-05
-0.00010131936
3.9631489e-05
-0.00011544747
5.0972279e-05
-0.00012820242
6.3436445e-05
-0.00013907869
7.6653885e-05
-0.00014766947
9.0207993e-05
-0.00015371504
0.0001036794
-0.0001571156
0.00011668325
-0.00015791977
0.00012889613
-0.0001562965
0.00014007082
-0.00015249903
0.00015003956
-0.00014682835
0.00015870817
-0.00013960192
0.00016604491
-0.00013113038
0.00017206737
-0.00012170231
0.00017682968
-0.00011157534
0.00018041136
-0.00010097175
0.00018290776
-9.0076979e-05
0.00018442231
-7.9040114e-05
0.00018506011
-6.7975924e-05
0.00018492285
-5.696793e-05
0.00018410492
-4.6072234e-05
0.00018269058
-3.5321772e-05
0.00018075209
-2.4730734e-05
0.00017834838
-1.4298547e-05
0.00017552427
-4.0132669e-06
0.00017231498
6.1387262e-06
0.00016873799
1.6183623e-05
0.00016480243
2.6140599e-05
0.00016050705
3.6028307e-05
0.0001558417
4.5862069e-05
0.00015078907
5.5651339e-05
0.00014532625
6.5398465e-05
0.00013942636
7.5097703e-05
0.00013306013
8.4734477e-05
0.00012619744
9.4284884e-05
0.00011880886
0.0001037154
0.00011086716
0.0001129828
0.00010234871
0.00012203418
9.3234964e-05
0.00013080721
8.3513902e-05
0.00013923037
7.3181388e-05
0.00014722362
6.224258e-05
0.00015469906
5.0713313e-05
0.00016156182
3.862193e-05
0.00016771089
2.6009268e-05
0.00017304191
1.2930768e-05
0.00017744897
-5.3796302e-07
0.00018082067
-1.4318172e-05
0.00018303962
-2.8297518e-05
0.00018402039
-4.2356657e-05
0.00018366182
-5.6358512e-05
0.00018188174
-7.0150769e-05
0.00017861357
-8.3568152e-05
0.00017381029
-9.6435262e-05
0.00016744865
-0.00010857026
0.00015953312
-0.00011978938
0.00015009923
-0.00012991218
0.00013921628
-0.00013876737
0.00012698889
-0.00014619893
0.00011355714
-0.00015207222
9.909524e-05
-0.00015627969
8.3808438e-05
-0.00015874591
6.7928316e-05
-0.00015943112
5.1706675e-05
-0.00015833449
3.5408815e-05
-0.00015549328
1.9305093e-05
-0.00015098699
3.6695696e-06
-0.00014490721
-1.1310719e-05
-0.0001374224
-2.5310142e-05
-0.0001287028
-3.8146855e-05
-0.00011894398
-4.9647723e-05
-0.00010835786
-5.9674264e-05
-9.7165913e-05
-6.812555e-05
-8.5593056e-05
-7.4938395e-05
-8.0087451e-05
5.3554926e-07
-8.5658777e-06
2.1338625e-06
-2.559397e-05
4.8894734e-06
-4.256946e-05
8.8886665e-06
-5.9424993e-05
1.4416116e-05
-7.649885e-05
2.1705752e-05
-9.3634443e-05
3.0936015e-05
-0.00011054962
4.2094847e-05
-0.0001266063
5.4977082e-05
-0.00014108465
6.9216113e-05
-0.00015331772
8.4333506e-05
-0.00016278686
9.9797027e-05
-0.00016917856
0.00011507565
-0.00017239423
0.00012968733
-0.00017253144
0.00014323526
-0.00016984443
0.00015542891
-0.00016469268
0.00016608835
-0.00015748779
0.00017513437
-0.00014864794
0.00018256953
-0.00013856554
0.00018845631
-0.0001275891
0.00019289696
-0.00011601599
0.00019601717
-0.00010409197
0.00019795393
-9.201374e-05
0.00019884663
-7.9932813e-05
0.00019883057
-6.7959864e-05
0.00019803215
-5.6169509e-05
0.00019656533
-4.4605419e-05
0.00019452921
-3.3285645e-05
0.00019200662
-2.2208143e-05
0.00018906298
-1.1354909e-05
0.00018574673
-6.9702219e-07
0.00018209112
9.7943431e-06
0.00017811267
2.0162066e-05
0.00017381588
3.0437392e-05
0.00016919307
4.0651116e-05
0.00016422651
5.0828634e-05
0.00015889032
6.0987525e-05
0.00015315241
7.1136378e-05
0.00014697628
8.1273832e-05
0.00014032287
9.1387889e-05
0.00013315226
0.00010145549
0.0001254254
0.00011144227
0.00011710566
0.00012130253
0.0001081605
0.00013097935
9.8562943e-05
0.00014040476
8.8293192e-05
0.00014950012
7.73402e-05
0.00015817661
6.5703206e-05
0.00016633605
5.3393477e-05
0.00017387155
4.0435423e-05
0.00018066894
2.686903e-05
0.00018660831
1.2751985e-05
0.00019156602
-1.8431837e-06
0.00019541584
-1.6825263e-05
0.0001980217
-3.2077535e-05
0.00019927266
-4.7467216e-05
0.0001990515
-6.2841523e-05
0.00019725605
-7.8028921e-05
0.00019380097
-9.2841256e-05
0.00018862262
-0.00010707686
0.00018168426
-0.00012052477
0.00017298102
-0.00013296998
0.00016254444
-0.00014419979
0.00015044609
-0.00015401084
0.00013679994
-0.00016221675
0.00012176306
-0.00016865577
0.00010553426
-0.00017319794
8.8350606e-05
-0.00017575142
7.0481799e-05
-0.00017626794
5.2223187e-05
-0.00017474587
3.3886749e-05
-0.00017123704
1.5796262e-05
-0.00016579241
-1.7750632e-06
-0.00015858684
-1.8516288e-05
-0.00014978391
-3.4113069e-05
-0.00013959136
-4.8339406e-05
-0.00012824179
-6.0997288e-05
-0.00011598543
-7.1930625e-05
-0.00010308231
-8.102867e-05
-8.9795088e-05
-8.822562e-05
-9.3500398e-05
4.4869937e-07
-9.0145771e-06
1.8283583e-06
-2.6973629e-05
4.3647881e-06
-4.510589e-05
8.2068681e-06
-6.3267073e-05
1.3849417e-05
-8.2141399e-05
2.1628006e-05
-0.00010141303
3.1808839e-05
-0.00012073045
4.436667e-05
-0.00013916413
5.9023593e-05
-0.00015574157
7.5308738e-05
-0.00016960287
9.2623339e-05
-0.00018010147
0.00011030799
-0.00018686321
0.00012770377
-0.00018979001
0.00014420875
-0.00018903642
0.00015932666
-0.00018496234
0.00017270063
-0.00017806665
0.00018412523
-0.00016891239
0.00019353584
-0.00015805855
0.00020098096
-0.00014601065
0.00020658719
-0.00013319533
0.00021052628
-0.00011995509
0.00021298953
-0.00010655522
0.00021417065
-9.3194862e-05
0.00021425549
-8.0017651e-05
0.00021341609
-6.7120464e-05
0.00021180719
-5.456061e-05
0.00020956401
-4.2362235e-05
0.00020680089
-3.0522521e-05
0.00020361043
-1.9017684e-05
0.00020006372
-7.8081986e-06
0.00019621087
3.1558242e-06
0.00019208057
1.3924641e-05
0.00018768747
2.4555168e-05
0.00018302884
3.509602e-05
0.00017808831
4.5591646e-05
0.00017283835
5.6078595e-05
0.00016724245
6.658343e-05
0.00016125729
7.7121536e-05
0.0001548349
8.7696222e-05
0.00014792465
9.8298135e-05
0.00014047519
0.00010890495
0.00013243625
0.00011948122
0.00012376034
0.00012997844
0.00011440454
0.00014033515
0.00010433206
0.00015047724
9.3513953e-05
0.00016031823
8.193082e-05
0.00016975974
6.9574605e-05
0.00017869227
5.6450469e-05
0.00018699569
4.2578781e-05
0.00019454063
2.7996125e-05
0.00020119096
1.2758313e-05
0.00020680383
-3.0573472e-06
0.0002112315
-1.9354851e-05
0.0002143192
-3.6010407e-05
0.00021592822
-5.2878022e-05
0.00021591911
-6.9787752e-05
0.00021416578
-8.6546527e-05
0.00021055975
-0.00010294012
0.00020501621
-0.00011873642
0.00019748057
-0.00013369021
0.00018793481
-0.00014754927
0.00017640349
-0.00016006193
0.00016295875
-0.00017098581
0.00014772381
-0.00018009716
0.00013087441
-0.00018720061
0.00011263771
-0.00019213832
9.3288315e-05
-0.00019479799
7.3141474e-05
-0.00019511926
5.2544455e-05
-0.00019309766
3.1865148e-05
-0.00018879431
1.1492907e-05
-0.00018227741
-8.2919557e-06
-0.00017374522
-2.704848e-05
-0.00016340061
-4.4457679e-05
-0.0001514906
-6.0249414e-05
-0.00013829168
-7.4196207e-05
-0.00012409984
-8.6122473e-05
-0.00010922094
-9.5907568e-05
-9.3962052e-05
-0.00010348451
-0.00010883916
3.3122505e-07
-9.3458022e-06
1.4224705e-06
-2.8064875e-05
3.688376e-06
-4.7371796e-05
7.3113628e-06
-6.689006e-05
1.308082e-05
-8.7910856e-05
2.1421683e-05
-0.00010975389
3.2693823e-05
-0.00013200259
4.6822912e-05
-0.00015329322
6.3432212e-05
-0.00017235087
8.194146e-05
-0.00018811212
0.00010164179
-0.0001998018
0.00012176096
-0.00020698237
0.0001415178
-0.00020954685
0.00016017921
-0.00020769783
0.00017712114
-0.00020190428
0.00019188319
-0.00019282869
0.00020420106
-0.00018123026
0.00021400624
-0.00016786374
0.00022139407
-0.00015339848
0.00022657265
-0.00013837391
0.00022980956
-0.00012319199
0.00023138887
-0.00010813453
0.00023158365
-9.3389643e-05
0.00023064209
-7.9076096e-05
0.00022878254
-6.526091e-05
0.00022619284
-5.1970916e-05
0.00022303116
-3.9200546e-05
0.00021942688
-2.6918245e-05
0.00021548072
-1.5071528e-05
0.00021126613
-3.5936095e-06
0.00020683543
7.5865318e-06
0.0002022107
1.8549371e-05
0.0001973987
2.9367163e-05
0.0001923876
4.0107117e-05
0.00018714995
5.0829301e-05
0.00018164588
6.158266e-05
0.00017582582
7.2403497e-05
0.00016963297
8.3314381e-05
0.00016300579
9.4323404e-05
0.00015588016
0.00010542376
0.00014819151
0.0001165936
0.00013987668
0.00012779604
0.0001308758
0.00013897931
0.00012113402
0.00015007694
0.00011060322
0.00016100804
9.9243813e-05
0.00017167764
8.7026532e-05
0.00018197702
7.3934583e-05
0.00019178422
5.9965252e-05
0.00020096502
4.5132629e-05
0.00020937325
2.9469508e-05
0.00021685408
1.3029143e-05
0.0002232442
-4.1100339e-06
0.00022837068
-2.184689e-05
0.00023205606
-4.0050211e-05
0.00023413154
-5.8560883e-05
0.00023442979
-7.7190671e-05
0.00023279557
-9.5722693e-05
0.00022909177
-0.00011391319
0.00022320671
-0.00013149492
0.0002150623
-0.00014818236
0.00020462225
-0.00016367886
0.0001919
-0.00017768569
0.00017696558
-0.00018991263
0.00015995075
-0.0002000898
0.00014105159
-0.00020797988
0.00012052778
-0.0002133898
9.8698238e-05
-0.00021618131
7.5932988e-05
-0.00021627871
5.2641851e-05
-0.00021367791
2.9264346e-05
-0.00020843807
6.2530699e-06
-0.00020066212
-1.6067904e-05
-0.00019057516
-3.7135442e-05
-0.0001784253
-5.6607538e-05
-0.00016450881
-7.4165905e-05
-0.00014915576
-8.9549253e-05
-0.00013271737
-0.00010256087
-0.00011555415
-0.00011307078
-9.8025458e-05
-0.0001210132
-0.00012638469
2.1236512e-07
-9.5581673e-06
1.0296337e-06
-2.8882143e-05
3.1085709e-06
-4.9450733e-05
6.5919945e-06
-7.0373483e-05
1.2655053e-05
-9.3973914e-05
2.1766445e-05
-0.00011886529
3.4357981e-05
-0.00014459413
5.0237244e-05
-0.00016917249
6.889462e-05
-0.00019100825
8.9649278e-05
-0.00020886677
0.00011172092
-0.00022187344
0.00013427557
-0.00022953702
0.00015645352
-0.0002317248
0.00017740983
-0.00022865414
0.00019637892
-0.00022087337
0.00021275381
-0.00020920359
0.00022615491
-0.00019463136
0.00023646085
-0.00017816968
0.00024378836
-0.00016072599
0.00024842975
-0.0001430153
0.00025077267
-0.00012553491
0.00025122794
-0.00010858979
0.00025018053
-9.2342239e-05
0.00024796575
-7.6861315e-05
0.00024486368
-6.215884e-05
0.00024110307
-4.8210305e-05
0.00023686766
-3.4965138e-05
0.00023230151
-2.2352089e-05
0.00022751195
-1.028197e-05
0.00022257152
1.3468182e-06
0.0002175265
1.2631556e-05
0.00021239414
2.368173e-05
0.00020716984
3.4591458e-05
0.00020182836
4.5448602e-05
0.00019632778
5.632988e-05
0.00019061289
6.7297554e-05
0.00018461822
7.8398159e-05
0.00017827101
8.966159e-05
0.00017149383
0.00010110059
0.00016420703
0.00011271056
0.00015633093
0.00012446971
0.00014778781
0.00013633916
0.00013850376
0.00014826336
0.00012841046
0.00016017025
0.00011744689
0.00017197161
0.00010556121
0.00018356331
9.2712601e-05
0.00019482563
7.8873474e-05
0.00020562335
6.4031871e-05
0.00021580662
4.8193094e-05
0.00022521203
3.1384816e-05
0.00023366236
1.365724e-05
0.00024097177
-4.9142978e-06
0.00024694222
-2.4224282e-05
0.00025136605
-4.4134327e-05
0.00025404159
-6.4472372e-05
0.00025476783
-8.5031022e-05
0.00025335422
-0.0001055674
0.00024962815
-0.00012580458
0.00024344389
-0.00014543485
0.00023469257
-0.0001641254
0.00022331279
-0.00018152649
0.00020930109
-0.00019728224
0.00019272133
-0.00021104369
0.00017371221
-0.00022248362
0.00015249151
-0.0002313121
0.00012935627
-0.00023729178
0.00010467791
-0.00024025161
7.8892812e-05
-0.00024009751
5.2487752e-05
-0.00023682203
2.5988872e-05
-0.0002304736
-9.5359976e-08
-0.00022121693
-2.5324581e-05
-0.0002093023
-4.9050064e-05
-0.0001950328
-7.0877038e-05
-0.00017876631
-9.0432401e-05
-0.00016089874
-0.00010741682
-0.0001418482
-0.00012161142
-0.00012204048
-0.0001328785
-0.00010189645
-0.00014115723
-0.00014646017
1.2284264e-07
-9.6810099e-06
7.7026521e-07
-2.9529566e-05
2.8951702e-06
-5.1575638e-05
6.4752377e-06
-7.3953551e-05
1.3195706e-05
-0.00010069438
2.3494276e-05
-0.00012916386
3.7785803e-05
-0.00015888566
5.5645668e-05
-0.00018703235
7.6385897e-05
-0.00021174848
9.9243292e-05
-0.00023172417
0.00012342786
-0.00024605801
0.00014812892
-0.00025423809
0.00017249531
-0.00025609119
0.00019563673
-0.00025179555
0.00021667173
-0.00024190836
0.00023482227
-0.00022735414
0.00024952756
-0.00020933665
0.00026053173
-0.00018917385
0.00026790594
-0.00016810019
0.00027199495
-0.00014710431
0.00027331292
-0.00012685288
0.00027242997
-0.00010770685
0.00026988459
-8.979686e-05
0.00026613595
-7.3112674e-05
0.00026155138
-5.7574267e-05
0.00025641458
-4.3073505e-05
0.00025094054
-2.9491094e-05
0.00024528698
-1.6698537e-05
0.00023956415
-4.5591344e-06
0.00023384644
7.0645293e-06
0.0002281649
1.8313095e-05
0.00022252666
2.9319972e-05
0.00021691197
4.0206147e-05
0.00021127838
5.1082185e-05
0.00020556576
6.20425e-05
0.00019970004
7.3163279e-05
0.00019359676
8.4501437e-05
0.00018716437
9.6093978e-05
0.00018030714
0.00010795782
0.0001729277
0.00012009
0.00016492939
0.00013246802
0.00015621818
0.00014505037
0.00014670455
0.00015777699
0.00013630513
0.00017056967
0.00012494442
0.00018333231
0.00011255663
0.0001959511
9.9087663e-05
0.00020829461
8.449731e-05
0.0002202137
6.876177e-05
0.00023154216
5.1876271e-05
0.00024209753
3.3859171e-05
0.00025167946
1.4755404e-05
0.00026007554
-5.36267e-06
0.00026706029
-2.6389447e-05
0.00027239282
-4.8180138e-05
0.00027583228
-7.0550447e-05
0.00027713814
-9.3273471e-05
0.00027607724
-0.00011607845
0.00027243312
-0.00013865154
0.00026601698
-0.00016063873
0.00025667977
-0.0001816518
0.00024432586
-0.00020127754
0.00022892683
-0.00021909061
0.00021053439
-0.00023466951
0.00018929111
-0.00024761533
0.00016543733
-0.00025757172
0.00013931266
-0.00026424496
0.00011135115
-0.0002674216
8.2069454e-05
-0.00026698512
5.2051275e-05
-0.00026292516
2.1928911e-05
-0.00025526261
-7.7579177e-06
-0.00024426096
-3.6326225e-05
-0.00023018946
-6.3121561e-05
-0.00021342266
-8.7643843e-05
-0.00019439588
-0.00010945918
-0.00017358623
-0.00012822647
-0.00015149298
-0.00014370466
-0.00012861991
-0.00015575158
-0.00010546016
-0.00016431698
-0.00016943685
7.1802037e-08
-9.752812e-06
6.811059e-07
-3.013887e-05
3.1526199e-06
-5.4047152e-05
7.1449686e-06
-7.7945899e-05
1.5072853e-05
-0.00010862227
2.7232565e-05
-0.00014132357
4.381393e-05
-0.00017546702
6.3995873e-05
-0.00020721429
8.6857919e-05
-0.00023461053
0.00011157547
-0.00025644172
0.00013741967
-0.00027190221
0.00016370364
-0.00028052206
0.0001897003
-0.00028208785
0.0002145858
-0.00027668105
0.00023744481
-0.00026476738
0.00025735425
-0.00024726358
0.00027353085
-0.00022551325
0.0002854905
-0.0002011335
0.00029314978
-0.00017575948
0.0002968223
-0.00015077683
0.0002971139
-0.00012714448
0.00029476687
-0.00010535982
0.00029051485
-8.5544841e-05
0.00028498904
-6.7586856e-05
0.00027868318
-5.1268408e-05
0.00027196106
-3.6351383e-05
0.00026508103
-2.2611067e-05
0.00025821944
-9.8369497e-06
0.00025148459
2.175715e-06
0.00024494435
1.3604772e-05
0.00023861718
2.4640269e-05
0.00023249201
3.5445142e-05
0.00022652788
4.6170277e-05
0.00022066031
5.6949751e-05
0.00021480647
6.789634e-05
0.00020886947
7.9100281e-05
0.00020274239
9.0628519e-05
0.00019631188
0.00010252448
0.00018946132
0.00011480839
0.00018207347
0.00012747785
0.00017403277
0.00014050872
0.00016522726
0.00015385588
0.00015555024
0.00016745401
0.00014490185
0.00018121807
0.00013319059
0.00019504356
0.00012033504
0.00020880665
0.00010626581
0.00022236384
9.0927815e-05
0.00023555169
7.4283115e-05
0.00024818686
5.631454e-05
0.0002600661
3.7027641e-05
0.00027096636
1.6459666e-05
0.00028064352
-5.3248178e-06
0.00028884477
-2.82216e-05
0.0002952896
-5.2082069e-05
0.00029969275
-7.6711388e-05
0.00030176746
-0.00010186361
0.00030122947
-0.00012723882
0.00029780833
-0.00015248263
0.00029126079
-0.00017718847
0.00028138561
-0.00020090338
0.00026804077
-0.00022313835
0.0002511618
-0.00024338334
0.00023077938
-0.00026112702
0.00020703479
-0.00027588038
0.00018019069
-0.00028720261
0.0001506349
-0.00029472708
0.00011887562
-0.00029818505
8.5527424e-05
-0.00029742498
5.129121e-05
-0.00029244189
1.6945817e-05
-0.00028325633
-1.6943471e-05
-0.00027017272
-4.9409834e-05
-0.00025354205
-7.9752237e-05
-0.00023382154
-0.00010736435
-0.00021154226
-0.00013173846
-0.00018728159
-0.00015248714
-0.00016163764
-0.00016934861
-0.00013520733
-0.00018218189
-0.00010856835
-0.00019095595
-0.00019574024
2.2328272e-08
-9.7751402e-06
6.3066018e-07
-3.0747202e-05
3.6423988e-06
-5.705889e-05
8.3194982e-06
-8.2622999e-05
1.8138053e-05
-0.00011844082
3.3099658e-05
-0.00015628517
5.2769564e-05
-0.00019513693
7.5749873e-05
-0.0002301946
0.00010083371
-0.00025969436
0.00012716089
-0.0002827689
0.00015413136
-0.00029887267
0.0001812737
-0.00030766441
0.000208098
-0.00030891214
0.00023397656
-0.00030255961
0.00025808818
-0.00028887899
0.00027945743
-0.00026863284
0.0002971008
-0.00024315661
0.00031024401
-0.00021427671
0.00031852596
-0.00018404143
0.00032209497
-0.00015434584
0.00032155318
-0.00012660269
0.00031778197
-0.00010158861
0.00031173177
-7.949464e-05
0.00030425582
-6.0110901e-05
0.00029602674
-4.3039326e-05
0.00028752814
-2.7852787e-05
0.00027908247
-1.4165402e-05
0.00027089618
-1.6506541e-06
0.00026308775
9.9841392e-06
0.00025570163
2.0990891e-05
0.00024874126
3.1600648e-05
0.00024217072
4.2015673e-05
0.00023592179
5.2419209e-05
0.00022990224
6.2969306e-05
0.0002240014
7.3797177e-05
0.00021809512
8.5006563e-05
0.0002120502
9.6673441e-05
0.00020572831
0.00010884637
0.00019898929
0.0001215474
0.00019169387
0.00013477327
0.00018370583
0.00014849675
0.00017489376
0.00016266795
0.00016513248
0.00017721529
0.00015430428
0.00019204626
0.00014230026
0.00020704759
0.00012902175
0.00022208516
0.00011438209
0.0002370035
9.8309011e-05
0.00025162478
8.0747565e-05
0.0002657483
6.1664274e-05
0.00027914939
4.1051381e-05
0.00029157925
1.8928101e-05
0.0003027668
-4.6442517e-06
0.00031241713
-2.9573488e-05
0.00032021884
-5.5708474e-05
0.00032582773
-8.2846967e-05
0.00032890595
-0.00011072569
0.0003291082
-0.00013901525
0.00032609789
-0.0001673176
0.00031956314
-0.00019516704
0.00030923505
-0.00022203541
0.00029490914
-0.00024734317
0.00027646956
-0.00027047691
0.00025391313
-0.00029081349
0.00022737136
-0.00030774999
0.00019712719
-0.00032073785
0.00016362276
-0.00032931673
0.00012745449
-0.00033314696
8.9357659e-05
-0.00033203255
5.0176795e-05
-0.00032594945
1.086272e-05
-0.00031495163
-2.7941291e-05
-0.0002993919
-6.4969566e-05
-0.00027971424
-9.94299e-05
-0.00025648586
-0.00013059273
-0.00023036034
-0.00015786398
-0.00020204061
-0.00018080686
-0.00017224553
-0.0001991437
-0.00014168296
-0.00021274446
-0.00011102913
-0.00022160978
-0.00022585703
-1.1109226e-07
-9.664048e-06
3.1761518e-07
-3.1175909e-05
3.8316981e-06
-6.0572973e-05
9.4164335e-06
-8.8207734e-05
2.1905551e-05
-0.00013092994
4.0809199e-05
-0.00017518882
6.4445836e-05
-0.00021877357
9.0727278e-05
-0.00025647605
0.00011814836
-0.00028711545
0.00014585303
-0.00031047356
0.00017342955
-0.0003264492
0.00020068668
-0.00033492154
0.00022745049
-0.00033567595
0.00025339524
-0.00032850436
0.00027792761
-0.00031341136
0.00030015911
-0.00029086434
0.00031900543
-0.00026200293
0.00033341622
-0.0002286875
0.0003426675
-0.0001932927
0.00034659144
-0.00015826978
0.00034563338
-0.00012564463
0.00034071419
-9.6669425e-05
0.00033297478
-7.1755235e-05
0.00032352134
-5.0657456e-05
0.00031326076
-3.2778749e-05
0.00030284814
-1.7440166e-05
0.00029271828
-4.0355395e-06
0.00028312257
7.9450586e-06
0.00027419206
1.891465e-05
0.00026596036
2.9222583e-05
0.0002584062
3.9154811e-05
0.00025146019
4.8961687e-05
0.00024501988
5.8859517e-05
0.00023895867
6.9030517e-05
0.00023313224
7.9623608e-05
0.00022738419
9.0754612e-05
0.00022155092
0.00010250671
0.00021546578
0.00011493152
0.00020896243
0.00012805075
0.00020187751
0.00014185819
0.0001940526
0.00015632167
0.00018533561
0.00017138494
0.00017558181
0.00018696909
0.00016465462
0.00020297345
0.0001524265
0.00021927571
0.00013877998
0.00023573167
0.00012360924
0.00025217424
0.00010682215
0.00026841186
8.8344014e-05
0.00028422644
6.8120711e-05
0.0002993727
4.6124184e-05
0.00031357578
2.2362334e-05
0.00032652865
-3.1271961e-06
0.00033790666
-3.0261828e-05
0.00034735347
-5.8893307e-05
0.00035445921
-8.8817787e-05
0.00035883043
-0.000119758
0.0003600484
-0.00015135622
0.00035769611
-0.00018316864
0.00035137557
-0.00021466397
0.00034073037
-0.00024522706
0.00032547224
-0.00027417042
0.00030541292
-0.00030075412
0.00028049683
-0.00032421509
0.00025083233
-0.00034380545
0.00021671755
-0.00035883715
0.00017865447
-0.00036872869
0.00013734602
-0.00037304556
9.3674527e-05
-0.00037153754
4.8668775e-05
-0.00036416993
3.4951149e-06
-0.00035098966
-4.1121567e-05
-0.00033245755
-8.3501676e-05
-0.0003091271
-0.00012276034
-0.00028170853
-0.0001580113
-0.00025101365
-0.00018855886
-0.0002179038
-0.00021391671
-0.00018324575
-0.00023380175
-0.00014787878
-0.00024811142
-0.00011259194
-0.00025689663
-0.00026034126
-4.4141367e-07
-9.2226343e-06
-5.8724449e-07
-3.1030078e-05
3.3145091e-06
-6.4474727e-05
1.0282128e-05
-9.5175353e-05
2.6370916e-05
-0.00014701873
5.0316971e-05
-0.00019913488
7.8551962e-05
-0.00024700856
0.0001083588
-0.00028628288
0.0001380249
-0.00031678155
0.0001667695
-0.00033921815
0.00019442152
-0.00035410123
0.00022109953
-0.00036159954
0.00024697087
-0.00036154729
0.00027205856
-0.00035359205
0.00029608685
-0.00033743965
0.00031838818
-0.00031316567
0.00033792432
-0.00028153907
0.00035346949
-0.00024423267
0.00036393686
-0.00020376008
0.00036873232
-0.00016306523
0.00036797086
-0.00012488317
0.00036245018
-9.114875e-05
0.00035340612
-6.2711169e-05
0.00034218074
-3.9432077e-05
0.0003299497
-2.0547711e-05
0.00031760233
-5.0927988e-06
0.000305732
7.8347941e-06
0.00029469252
1.8984535e-05
0.00028463647
2.8970702e-05
0.00027559847
3.8260587e-05
0.00026752586
4.7227421e-05
0.00026031017
5.6177373e-05
0.00025380724
6.5362444e-05
0.00024784868
7.4989075e-05
0.00024225003
8.5222261e-05
0.00023681719
9.6187451e-05
0.00023135174
0.00010797216
0.00022565523
0.00012062802
0.0002195326
0.00013417339
0.00021279458
0.00014859621
0.00020525929
0.00016385695
0.00019675315
0.00017989108
0.00018711123
0.00019661101
0.00017617742
0.00021390726
0.00016380459
0.00023164854
0.00014985511
0.00024968114
0.00013420207
0.00026782729
0.0001167311
0.00028588283
9.7343189e-05
0.00030361436
7.5960209e-05
0.00032075568
5.252988e-05
0.00033700611
2.7030167e-05
0.00035202836
-5.0894309e-07
0.00036544577
-3.0030932e-05
0.00037687546
-6.1401747e-05
0.00038583003
-9.4422313e-05
0.000391851
-0.00012880625
0.00039443234
-0.00016417061
0.00039306047
-0.00020002569
0.00038723064
-0.00023576858
0.00037647326
-0.00027068424
0.0003603879
-0.00030395656
0.00033868524
-0.0003346906
0.00031123087
-0.00036194753
0.00027808926
-0.00038479366
0.00023956368
-0.00040236105
0.00019622186
-0.00041390907
0.00014889404
-0.00041888547
9.8650928e-05
-0.0004169765
4.6759802e-05
-0.00040794947
-5.5319131e-06
-0.00039218182
-5.6889211e-05
-0.0003700575
-0.000105626
-0.00034230795
-0.0001505099
-0.00030984215
-0.00019047709
-0.00027368203
-0.00022471899
-0.00023489191
-0.00025270683
-0.00019452031
-0.00027417335
-0.00015356082
-0.00028907092
-0.00011292967
-0.00029752778
-0.00029982033
-9.9691176e-07
-8.2257225e-06
-2.1874007e-06
-2.9839589e-05
2.3426674e-06
-6.9004795e-05
1.183474e-05
-0.00010466743
3.2794877e-05
-0.00016797886
6.2466863e-05
-0.00022880686
9.526281e-05
-0.0002798045
0.00012812141
-0.00031914149
0.00015938133
-0.00034804147
0.00018846768
-0.0003683045
0.00021549941
-0.00038113296
0.0002409003
-0.00038700043
0.00026514772
-0.00038579472
0.00028858824
-0.00037703256
0.00031127701
-0.00036012842
0.00033284307
-0.00033473173
0.00035242921
-0.00030112521
0.00036878451
-0.00026058797
0.00038055295
-0.00021552852
0.00038669359
-0.00016920587
0.00038685645
-0.00012504604
0.00038152793
-8.5820233e-05
0.00037187751
-5.3060749e-05
0.0003593987
-2.6953267e-05
0.00034551827
-6.6672739e-06
0.00033139209
9.033378e-06
0.00031786904
2.1357844e-05
0.00030543648
3.1417099e-05
0.00029432478
4.0082395e-05
0.00028457598
4.8009392e-05
0.00027611077
5.5692632e-05
0.00026877855
6.3509589e-05
0.00026238658
7.1754413e-05
0.00025671722
8.0658444e-05
0.00025153894
9.0400539e-05
0.00024661411
0.00010111228
0.00024170481
0.00011288146
0.00023657735
0.00012575548
0.00023100553
0.00013974521
0.00022477274
0.000154829
0.00021767293
0.00017095676
0.00020951072
0.00018805329
0.0002001009
0.00020602083
0.00018926767
0.00022474049
0.00017684379
0.00024407243
0.00016267035
0.00026385458
0.0001465972
0.00028390043
0.00012848457
0.00030399546
0.00010820599
0.00032389294
8.5652403e-05
0.00034330926
6.073864e-05
0.00036191987
3.3415038e-05
0.00037935196
3.6735193e-06
0.00039518729
-2.8431467e-05
0.00040898045
-6.2812955e-05
0.00042021152
-9.9284066e-05
0.00042832211
-0.00013755723
0.0004327055
-0.00017723084
0.00043273408
-0.00021777282
0.00042777262
-0.00025850475
0.0004172052
-0.00029859707
0.00040048023
-0.00033708003
0.0003771682
-0.00037286714
0.00034701797
-0.00040479474
0.00031001686
-0.00043168478
0.00026645371
-0.00045242782
0.0002169649
-0.00046607719
0.00016254341
-0.00047192151
0.00010449525
-0.00046958682
4.4425106e-05
-0.00045875427
-1.6364462e-05
-0.00043973135
-7.5912126e-05
-0.00041317866
-0.00013217869
-0.00038000635
-0.00018368221
-0.00034138468
-0.00022909877
-0.00029861752
-0.00026748614
-0.00025303481
-0.00029828954
-0.0002059115
-0.00032129666
-0.00015842042
-0.00033656199
-0.00011161602
-0.00034433218
-0.00034500524
-1.6643851e-06
-6.5613375e-06
-4.2765655e-06
-2.7227409e-05
1.5044443e-06
-7.4785805e-05
1.5482354e-05
-0.00011864534
4.3263321e-05
-0.00019575983
7.868279e-05
-0.00026422633
0.0001150689
-0.00031619061
0.00014954978
-0.00035362236
0.00018094898
-0.00037944067
0.00020910862
-0.00039646415
0.00023449295
-0.00040651728
0.00025780311
-0.00041031059
0.00027975217
-0.00040774378
0.00030092524
-0.00039820564
0.0003216457
-0.00038084889
0.0003418326
-0.00035491863
0.00036088156
-0.00032017417
0.00037765516
-0.00027736156
0.00039067653
-0.00022854989
0.00039853513
-0.00017706447
0.00040036918
-0.00012688009
0.00039619818
-8.1649236e-05
0.00038693486
-4.3797423e-05
0.00037407062
-1.4089028e-05
0.0003591651
8.2382459e-06
0.00034372083
2.4477646e-05
0.00032884635
3.6232323e-05
0.00031524518
4.5018265e-05
0.00030326664
5.2060943e-05
0.00029299315
5.8282882e-05
0.00028433595
6.4349825e-05
0.0002771058
7.0739744e-05
0.00027105799
7.780222e-05
0.00026591951
8.5796923e-05
0.00026140518
9.4914866e-05
0.00025722788
0.00010528958
0.00025310548
0.00011700386
0.00024876575
0.00013009521
0.00024394946
0.0001445615
0.00023841185
0.00016036661
0.00023192278
0.00017744584
0.00022426568
0.00019571039
0.00021523586
0.00021505065
0.00020463838
0.00023533797
0.00019228597
0.00025642484
0.00017799751
0.00027814304
0.00016159772
0.00030030022
0.00014291787
0.00032267532
0.00012179824
0.00034501257
9.8093074e-05
0.00036701442
7.1678118e-05
0.00038833483
4.2460371e-05
0.00040856971
1.0391839e-05
0.00042725582
-2.451561e-05
0.0004438879
-6.2204108e-05
0.00045790001
-0.00010252255
0.00046864055
-0.00014519918
0.00047538213
-0.00018982599
0.00047736089
-0.00023583914
0.00047378577
-0.00028248779
0.00046385385
-0.00032881361
0.00044680604
-0.00037366746
0.00042202205
-0.0004157341
0.0003890846