/*--------------------------------*- C++ -*----------------------------------*\
| =========                 |                                                 |
| \\      /  F ield         | OpenFOAM: The Open Source CFD Toolbox           |
|  \\    /   O peration     | Version:  2306                                  |
|   \\  /    A nd           | Website:  www.openfoam.com                      |
|    \\/     M anipulation  |                                                 |
\*---------------------------------------------------------------------------*/
FoamFile
{
    version     2.0;
    format      ascii;
    arch        "LSB;label=32;scalar=64";
    class       volVectorField;
    location    "0.6";
    object      U;
}
// * * * * * * * * * * * * * * * * * * * * * * * * * * * * * * * * * * * * * //

dimensions      [0 1 -1 0 0 0 0];

internalField   nonuniform List<vector> 
6400
(
(0.012573662 -0.45813928 4.3331868e-16)
(0.028534735 -0.45701497 1.5392949e-16)
(0.046385046 -0.45475006 3.436193e-16)
(0.063505574 -0.45161239 4.8309055e-16)
(0.081314432 -0.44800748 1.2217915e-16)
(0.099688592 -0.44357893 5.6513847e-17)
(0.11868791 -0.43784006 -1.6194036e-17)
(0.13817834 -0.43012351 1.2154471e-17)
(0.15770714 -0.41988393 -2.025365e-17)
(0.17668597 -0.40681671 -3.967334e-17)
(0.19449376 -0.39088939 -1.8131607e-17)
(0.21057149 -0.3723149 -4.5941042e-17)
(0.22448199 -0.35148733 -3.8432065e-17)
(0.23593764 -0.32890926 -6.3247219e-18)
(0.24480305 -0.30512528 -2.2295138e-18)
(0.25107918 -0.28066949 -1.0037125e-16)
(0.25487658 -0.25602952 -6.5273661e-17)
(0.25638497 -0.23162549 -5.3491027e-17)
(0.25584415 -0.20780106 -1.7758152e-17)
(0.2535194 -0.18482266 3.8430757e-17)
(0.24968241 -0.16288415 1.6931025e-17)
(0.24459739 -0.14211436 -1.7178695e-19)
(0.23851151 -0.12258625 1.3623386e-18)
(0.23164885 -0.10432648 -3.4300339e-17)
(0.22420698 -0.08732488 -5.7081445e-17)
(0.21635547 -0.071543176 -2.4051296e-17)
(0.20823607 -0.056922885 1.3729381e-17)
(0.19996382 -0.043392069 4.5838728e-17)
(0.1916289 -0.030871061 2.9119048e-17)
(0.18329916 -0.019277285 -2.4513586e-18)
(0.17502307 -0.008528377 -1.7473352e-18)
(0.16684024 0.0014569412 5.2395782e-19)
(0.15875147 0.010748369 8.8026649e-18)
(0.15077436 0.019415064 -3.3981034e-18)
(0.14290384 0.027514601 -1.5528193e-17)
(0.13512951 0.035097022 -2.0076971e-18)
(0.12743664 0.042203902 2.4384785e-17)
(0.11980729 0.048868281 3.9077685e-17)
(0.11222192 0.055114989 3.0887312e-17)
(0.10466067 0.060961078 2.8984599e-17)
(0.097104548 0.06641636 1.7241081e-17)
(0.089536326 0.071484029 -6.6826988e-19)
(0.081941383 0.07616132 3.3373027e-18)
(0.074308376 0.080440206 1.9319908e-17)
(0.066629827 0.084308115 5.607922e-17)
(0.058902601 0.087748661 7.5845083e-17)
(0.051128343 0.090742371 5.8657861e-17)
(0.043313808 0.093267549 2.5712691e-17)
(0.035471297 0.095301044 1.2517971e-17)
(0.027618913 0.09681904 4.8815399e-17)
(0.019780694 0.097798181 4.3167134e-17)
(0.011987839 0.098216943 3.4892079e-17)
(0.0042713502 0.098055365 3.9366464e-17)
(-0.0033422506 0.097288987 1.9983835e-17)
(-0.010790858 0.095914447 1.4646325e-17)
(-0.018018652 0.093920678 2.5678415e-17)
(-0.024977245 0.091307437 2.0778939e-17)
(-0.031608333 0.088081921 5.5947671e-18)
(-0.037851587 0.084259858 7.5495677e-19)
(-0.043645935 0.079866468 -5.4745303e-18)
(-0.048931138 0.074937073 -1.1459016e-18)
(-0.053649583 0.06951744 3.3943382e-18)
(-0.057748215 0.06366376 -3.1709966e-18)
(-0.061180533 0.057442223 -8.3499595e-18)
(-0.063908573 0.050928132 -1.2017453e-17)
(-0.065904718 0.044204556 -3.9857683e-18)
(-0.067153195 0.037360558 7.428931e-18)
(-0.067651115 0.030489034 -9.9042077e-18)
(-0.067409138 0.023684327 -1.8558765e-17)
(-0.066451781 0.017039683 -1.8905646e-17)
(-0.064817214 0.010644613 -1.9257667e-17)
(-0.062556955 0.0045828455 -6.1146832e-18)
(-0.059728766 -0.0010710364 -1.3499936e-17)
(-0.056400929 -0.0062495115 -8.9998946e-18)
(-0.052659279 -0.010901817 -1.1295981e-17)
(-0.048584721 -0.014987296 -1.6698974e-17)
(-0.044263221 -0.018479154 -2.7280667e-18)
(-0.039781063 -0.021363853 -2.4357106e-18)
(-0.035222673 -0.023640731 -1.1179392e-18)
(-0.030668738 -0.025321237 -3.9610451e-18)
(0.012555414 -0.49573225 5.09343e-16)
(0.028443085 -0.4939215 1.3915951e-16)
(0.046503422 -0.49139516 3.7584828e-16)
(0.064171771 -0.48818422 -7.193107e-18)
(0.08305108 -0.48521875 -1.3691401e-16)
(0.10325476 -0.48179472 1.7447572e-16)
(0.12476469 -0.47712296 -2.0321412e-17)
(0.14734026 -0.47010708 4.1954368e-17)
(0.17026073 -0.45989974 1.1748267e-16)
(0.19266801 -0.44604666 1.9750976e-17)
(0.21369078 -0.42850507 5.2109467e-17)
(0.2325703 -0.40758493 -8.7965141e-17)
(0.24873127 -0.38384263 -9.0636025e-17)
(0.26181139 -0.35797102 -7.6306782e-17)
(0.27165996 -0.33070338 -8.4782897e-17)
(0.27831276 -0.30274034 -5.3947277e-17)
(0.2819519 -0.27470243 -7.1988929e-17)
(0.28286008 -0.24710571 -9.7556216e-17)
(0.28137719 -0.22035533 -8.9995395e-17)
(0.27786471 -0.19475059 -7.3618325e-17)
(0.27267981 -0.17049614 1.3459345e-17)
(0.26615844 -0.14771567 6.5602643e-18)
(0.25860548 -0.12646593 -9.7395757e-19)
(0.2502897 -0.10675024 -3.6860768e-17)
(0.24144194 -0.088530841 -4.0558752e-17)
(0.23225542 -0.071739932 8.5052888e-18)
(0.22288741 -0.056289202 3.1783888e-17)
(0.21346184 -0.042077852 4.7615552e-17)
(0.20407237 -0.02899922 3.6001338e-17)
(0.19478612 -0.01694604 4.6010009e-19)
(0.18564964 -0.0058139348 2.0189569e-17)
(0.17669156 0.0044983512 2.1925929e-17)
(0.16790904 0.014076574 6.4107573e-18)
(0.15930924 0.023002539 -4.6921819e-18)
(0.15087691 0.031345115 -7.9363191e-19)
(0.14259209 0.039163089 1.6267626e-18)
(0.13443032 0.046504484 1.507401e-17)
(0.12636424 0.053406883 3.0964729e-17)
(0.11836533 0.059897961 3.5413127e-17)
(0.11040543 0.065996128 4.0385349e-17)
(0.10245787 0.071711262 2.6357674e-17)
(0.09449854 0.077045503 6.5248677e-18)
(0.086506678 0.081994066 -4.7713174e-18)
(0.078465581 0.086546072 1.5748427e-17)
(0.070363203 0.090685364 3.6047337e-17)
(0.062192629 0.094391325 6.6638542e-17)
(0.053952552 0.097639709 6.8343967e-17)
(0.045647643 0.10040358 2.751062e-17)
(0.03728897 0.1026541 9.9965578e-18)
(0.028894377 0.10436142 2.9542127e-17)
(0.020489046 0.10549599 3.7989632e-17)
(0.012106322 0.10603029 3.9027715e-17)
(0.00377099 0.10593734 3.217387e-17)
(-0.0044730846 0.10518345 2.6711867e-17)
(-0.012561185 0.10376512 3.0276757e-17)
(-0.020438627 0.10166233 2.7837932e-17)
(-0.02804458 0.098870294 1.6689145e-17)
(-0.035312531 0.09539252 -4.0636947e-18)
(-0.042172544 0.091242334 1.6289257e-18)
(-0.048553007 0.086444114 1.0937259e-17)
(-0.05438254 0.0810342 -2.322783e-18)
(-0.059592154 0.07506146 -1.1850673e-18)
(-0.064117596 0.06858743 -1.0079589e-17)
(-0.06790184 0.06168595 -1.1707345e-17)
(-0.070897568 0.054442216 -2.6301561e-19)
(-0.073069495 0.04695124 -6.0170449e-18)
(-0.074396339 0.039315753 6.003014e-18)
(-0.074872169 0.031643582 -1.6266226e-17)
(-0.074507344 0.02404471 -2.4969912e-17)
(-0.07332892 0.016628098 -1.4011119e-17)
(-0.071379943 0.0094981661 -1.3037735e-17)
(-0.068720149 0.0027511739 -5.9408328e-18)
(-0.065416287 -0.00351778 -1.9690956e-17)
(-0.061550816 -0.0092400664 -2.1352687e-17)
(-0.057221492 -0.014352938 -1.4802465e-17)
(-0.052524221 -0.018810637 -1.4565062e-17)
(-0.047559298 -0.022583542 -2.4768126e-18)
(-0.042427144 -0.025657764 -5.269709e-18)
(-0.037225654 -0.028034613 -1.0103159e-17)
(-0.032047952 -0.02972956 -1.205999e-17)
(0.011606069 -0.53213181 8.1244787e-16)
(0.026317316 -0.52982625 1.001764e-15)
(0.04381284 -0.5277651 7.1130976e-16)
(0.061597786 -0.52521839 2.2460999e-16)
(0.081446412 -0.52405162 1.4240648e-16)
(0.10383841 -0.52282994 1.819359e-16)
(0.12851601 -0.52036278 1.0272834e-16)
(0.1550666 -0.51491335 4.5918067e-17)
(0.18234907 -0.50524591 2.6766932e-17)
(0.20914545 -0.49074922 9.7595853e-17)
(0.23426946 -0.47140961 1.0302346e-16)
(0.25671991 -0.4476993 9.2039436e-17)
(0.27575301 -0.42041239 2.7658505e-17)
(0.29090976 -0.39050937 3.3174678e-17)
(0.30201272 -0.35898506 -3.8933709e-18)
(0.3091355 -0.32676854 1.4806104e-17)
(0.31255073 -0.29465894 -1.9803296e-17)
(0.312666 -0.26329541 -3.1452346e-17)
(0.30995992 -0.23315461 -4.3014499e-17)
(0.30492835 -0.20456565 -5.1323403e-17)
(0.29804639 -0.17773311 3.6596163e-17)
(0.28974599 -0.15276115 9.7989503e-17)
(0.28040564 -0.12967552 2.6307906e-17)
(0.27034787 -0.10844247 -3.2434812e-17)
(0.25984091 -0.088984607 -2.5941551e-17)
(0.24910247 -0.071194289 2.189667e-17)
(0.2383042 -0.0549447 7.3741044e-17)
(0.22757652 -0.040098957 4.2011907e-17)
(0.21701353 -0.026517555 -3.116598e-18)
(0.20667823 -0.014063447 1.5772891e-18)
(0.19661551 -0.0026054448 1.5701369e-17)
(0.18683007 0.0079770792 4.0466068e-17)
(0.17732064 0.017791359 1.1022085e-17)
(0.16807785 0.02693246 -1.1048758e-17)
(0.15907418 0.035481397 -1.0067733e-17)
(0.15027744 0.043506232 -6.7901314e-18)
(0.14165111 0.051061656 1.585646e-17)
(0.1331564 0.058189732 1.3741544e-17)
(0.12475414 0.064920717 -3.4578258e-18)
(0.11640635 0.07127397 1.2948633e-17)
(0.10807745 0.077258922 -1.8813208e-17)
(0.099735327 0.082876071 -3.2417556e-17)
(0.091352148 0.088117971 -3.1196224e-17)
(0.082905041 0.092970211 -2.4747849e-17)
(0.074376684 0.097412342 -7.6361928e-18)
(0.065755767 0.10141877 1.044842e-17)
(0.057037494 0.10495969 2.774454e-17)
(0.048223944 0.10800208 -6.6371915e-18)
(0.039324541 0.11051049 -2.7931246e-17)
(0.030356642 0.11244806 -1.8018677e-17)
(0.021346301 0.11377804 -2.0166271e-17)
(0.012327778 0.11446493 -8.0373528e-18)
(0.0033229802 0.11447363 6.6272035e-18)
(-0.0056100988 0.11376684 7.7591219e-18)
(-0.014404481 0.11232682 5.2635969e-18)
(-0.02300194 0.11013069 -3.3134407e-18)
(-0.031331031 0.10716688 -2.0570452e-17)
(-0.039315358 0.10343362 -1.5706798e-17)
(-0.046873752 0.098940535 -9.9960416e-19)
(-0.053922187 0.09371015 3.1417812e-18)
(-0.060376001 0.087779137 3.9602102e-18)
(-0.066152455 0.081199204 -1.2528247e-17)
(-0.071173601 0.074037471 -1.1564851e-17)
(-0.075369362 0.066376223 -1.2106304e-17)
(-0.078680672 0.058311937 5.3990153e-19)
(-0.081062454 0.049953537 1.0231004e-17)
(-0.082486201 0.041419885 1.1305024e-17)
(-0.082941839 0.032836596 4.6275453e-18)
(-0.082438967 0.02433244 -1.9329841e-17)
(-0.08100774 0.016035451 -7.1263684e-18)
(-0.078698908 0.0080687455 1.3882071e-17)
(-0.075575532 0.00054475668 1.3517558e-17)
(-0.071716584 -0.0064252596 -6.811575e-18)
(-0.067229859 -0.012760284 -1.6786714e-17)
(-0.062220884 -0.018388443 -5.7316084e-18)
(-0.056804112 -0.023257762 2.7566614e-18)
(-0.051097353 -0.027335546 1.0309608e-17)
(-0.045217863 -0.030607932 4.5977574e-18)
(-0.039279387 -0.033079018 -4.6262717e-18)
(-0.03338953 -0.034769473 -7.9988805e-18)
(0.0096893091 -0.56433165 8.2868404e-16)
(0.022004443 -0.56216735 8.7712651e-16)
(0.038268579 -0.56202438 3.965565e-16)
(0.055786232 -0.56135463 1.1650834e-16)
(0.07652643 -0.56387826 6.0073612e-17)
(0.10157241 -0.56663684 -2.8391845e-17)
(0.13012631 -0.56800669 5.6827773e-17)
(0.16157025 -0.56531116 4.081085e-17)
(0.19414805 -0.55686193 4.3662236e-17)
(0.22622163 -0.54192696 6.7837004e-17)
(0.2562614 -0.52059463 3.4542342e-17)
(0.28301397 -0.49358315 3.0788623e-17)
(0.30555363 -0.46200779 2.4673982e-18)
(0.32329916 -0.42718082 -1.0747309e-17)
(0.33601476 -0.39044397 5.0202439e-17)
(0.34378749 -0.35303591 4.1892101e-18)
(0.3469754 -0.31600155 -5.796719e-17)
(0.34612984 -0.28014804 -6.4749653e-17)
(0.34190623 -0.24604315 -6.5606631e-17)
(0.3349819 -0.21404372 -7.7617049e-18)
(0.32599514 -0.18433772 2.1116281e-17)
(0.31551003 -0.15698686 6.2827977e-17)
(0.30400315 -0.13196235 3.8857109e-17)
(0.29186458 -0.1091724 3.8442657e-17)
(0.27940574 -0.088482766 4.3774304e-17)
(0.26686939 -0.06973223 5.3544951e-17)
(0.25443919 -0.052744668 6.534424e-17)
(0.2422482 -0.037338613 6.6727149e-17)
(0.23038659 -0.023335039 6.2616978e-17)
(0.21890889 -0.010561976 5.7950939e-17)
(0.20785428 0.00114547 2.5110591e-17)
(0.19719425 0.011924444 2.7942659e-17)
(0.18693222 0.021909339 3.7502521e-17)
(0.17703452 0.031209501 3.6036028e-17)
(0.16745889 0.039918885 3.2302728e-17)
(0.15815791 0.048115003 3.291915e-17)
(0.14908045 0.055859167 3.9275737e-17)
(0.14017406 0.063197626 4.2203982e-17)
(0.13138705 0.070162738 3.391245e-17)
(0.12267 0.076774195 1.7910953e-17)
(0.11397707 0.083040287 -2.4534882e-17)
(0.10526701 0.088959133 -5.1578778e-17)
(0.096503941 0.094519861 -4.4430521e-17)
(0.087657988 0.099703737 -5.5502063e-17)
(0.078705814 0.10448522 -3.6794706e-17)
(0.069631067 0.10883295 -1.2729772e-18)
(0.060424874 0.11271069 2.1888632e-17)
(0.051086188 0.11607843 4.8081135e-18)
(0.041622304 0.11889313 -2.1130778e-17)
(0.032049615 0.12110988 -2.9835499e-17)
(0.022394496 0.12268358 -4.9125883e-17)
(0.012692472 0.12356942 -3.6259829e-17)
(0.0029632554 0.1237236 -4.8482628e-18)
(-0.0067235385 0.12310109 1.7357093e-17)
(-0.016297412 0.12167173 2.8226355e-17)
(-0.025694341 0.11940579 4.0133954e-18)
(-0.034832604 0.11628363 -2.4624338e-17)
(-0.043624506 0.11229656 -1.9409066e-17)
(-0.051975868 0.10744888 2.1452494e-17)
(-0.059788089 0.10175989 3.6872356e-17)
(-0.066960679 0.095265583 1.9001729e-17)
(-0.073394281 0.088019978 -1.2814941e-17)
(-0.078994157 0.08009587 -7.719314e-18)
(-0.083674013 0.071584783 4.0192361e-18)
(-0.087359978 0.062596025 2.3652903e-17)
(-0.089994478 0.053254735 4.0827107e-17)
(-0.091539637 0.043698892 9.2417625e-18)
(-0.09197971 0.034075417 -1.086255e-19)
(-0.09132268 0.024535826 -4.3013453e-18)
(-0.089601238 0.015231093 1.0712177e-17)
(-0.086874081 0.0063068757 1.6808062e-17)
(-0.083215006 -0.0021007248 2.2627793e-17)
(-0.078716344 -0.0098700039 6.2180947e-18)
(-0.073505503 -0.016898443 -1.4929622e-17)
(-0.067707439 -0.023104433 -9.5233867e-18)
(-0.061457336 -0.02842933 9.1034403e-18)
(-0.054893601 -0.032837368 1.8071276e-17)
(-0.048153452 -0.036315315 1.1117707e-17)
(-0.041369267 -0.038871185 -2.4068725e-18)
(-0.034665504 -0.040532379 -1.4714705e-17)
(0.0071670241 -0.58962145 8.4859603e-16)
(0.016116368 -0.58873121 8.5713752e-16)
(0.031112974 -0.59278787 2.1712144e-16)
(0.04826736 -0.59550577 1.2853013e-16)
(0.069956427 -0.60435144 1.5764877e-16)
(0.098312708 -0.61335613 1.2387542e-16)
(0.13141377 -0.62060659 7.1276089e-17)
(0.16851267 -0.62205407 1.0993189e-16)
(0.20699611 -0.61556664 3.3734117e-17)
(0.24482609 -0.6004082 9.8488795e-17)
(0.28018176 -0.57688474 1.4735374e-16)
(0.31162033 -0.54605092 1.0376486e-16)
(0.33806957 -0.50940935 1.0003784e-16)
(0.35881664 -0.46868654 6.5045752e-17)
(0.37351838 -0.42564691 1.0789163e-16)
(0.38220907 -0.38192955 1.1480912e-16)
(0.38527699 -0.33891829 3.1027031e-18)
(0.38339422 -0.2976643 -1.0716764e-17)
(0.37740807 -0.25887122 -3.1986627e-17)
(0.36822123 -0.22293368 6.8362952e-17)
(0.35669103 -0.19000595 8.2384827e-17)
(0.34356563 -0.16007508 4.235034e-17)
(0.3294585 -0.13302197 8.6140003e-17)
(0.31485065 -0.10866469 4.2995281e-17)
(0.30010718 -0.086786492 5.0688268e-17)
(0.28549771 -0.067153486 1.2786732e-16)
(0.27121476 -0.049526364 9.7372131e-17)
(0.25738859 -0.033669004 8.5394823e-17)
(0.24409911 -0.019354999 6.9306689e-17)
(0.23139009 -0.006371956 7.8431757e-17)
(0.21927252 0.005479761 1.0712284e-16)
(0.20770774 0.016365337 6.6067924e-17)
(0.19667639 0.02643964 3.8687405e-17)
(0.18612291 0.035830044 3.5659679e-17)
(0.17598615 0.04464408 7.1856265e-17)
(0.16620007 0.052968685 1.0455929e-16)
(0.15669604 0.060871456 8.5366053e-17)
(0.14740558 0.068402235 7.4206428e-17)
(0.13826237 0.075594716 7.5269276e-17)
(0.12920391 0.082468068 4.3236073e-17)
(0.12017268 0.089028529 -1.5006635e-17)
(0.11111713 0.095270919 -7.0198164e-17)
(0.10199234 0.10118003 -6.4771262e-17)
(0.092760612 0.10673193 -4.5161671e-17)
(0.083391855 0.11189509 -2.6350579e-17)
(0.073863998 0.1166315 -1.5084348e-18)
(0.064163452 0.12089764 1.2421825e-17)
(0.054285442 0.1246455 -2.8052295e-18)
(0.044234584 0.12782349 -1.4088006e-17)
(0.034025884 0.13037754 -2.6285322e-17)
(0.023685462 0.1322529 -4.5802063e-17)
(0.013249492 0.13339457 -3.067628e-17)
(0.0027361361 0.13374741 -7.7099874e-18)
(-0.0077745468 0.13325704 1.4298491e-17)
(-0.018208293 0.13188028 2.6159419e-17)
(-0.028493941 0.12957735 1.4646933e-17)
(-0.038538987 0.1263185 -4.5751172e-18)
(-0.048243069 0.12208595 -9.9547223e-18)
(-0.057497083 0.11687661 1.6388647e-17)
(-0.066185389 0.11070467 2.6914886e-17)
(-0.07418867 0.10360396 1.8074858e-17)
(-0.081387479 0.09562994 -1.4143834e-18)
(-0.087666472 0.086860908 -1.4052281e-18)
(-0.092919167 0.077398365 6.7505046e-18)
(-0.097053002 0.067366164 2.1466939e-17)
(-0.099994336 0.056908362 4.439574e-17)
(-0.10169295 0.046185686 2.9593916e-17)
(-0.10212535 0.035370736 1.1729998e-17)
(-0.10129716 0.024642375 -7.1048879e-18)
(-0.099244309 0.014179287 4.4525943e-18)
(-0.096033654 0.0041539795 1.2443847e-17)
(-0.091749607 -0.00526738 2.7508365e-17)
(-0.086507046 -0.013945605 1.126727e-17)
(-0.080453067 -0.021759552 -1.0865704e-17)
(-0.073737234 -0.028614513 -4.3439037e-18)
(-0.066519824 -0.034443831 6.1663813e-18)
(-0.058964129 -0.039208745 2.1272285e-17)
(-0.051231159 -0.042897558 1.6092285e-17)
(-0.043475235 -0.045523763 3.9470321e-19)
(-0.035840398 -0.047123509 -7.2627894e-18)
(0.0047694119 -0.60680883 9.1436164e-16)
(0.0099287609 -0.60876648 9.2066208e-16)
(0.02478685 -0.62008332 5.1305965e-16)
(0.042004903 -0.62761643 2.6536302e-16)
(0.065006162 -0.6459723 2.8633726e-16)
(0.097717542 -0.66369305 7.9749126e-17)
(0.13599842 -0.67899838 2.4584109e-17)
(0.17925848 -0.68586414 -1.8618306e-16)
(0.22370433 -0.68188619 -6.7182818e-17)
(0.26704909 -0.66657215 -4.9682952e-17)
(0.30734899 -0.64061402 -1.8757313e-16)
(0.34314131 -0.60548616 -1.0124649e-16)
(0.3733295 -0.56309601 -1.8230459e-16)
(0.39711414 -0.5155831 -2.0292934e-17)
(0.41400808 -0.46515762 -5.0241617e-17)
(0.42389477 -0.41392798 -9.4488513e-17)
(0.42707312 -0.3637241 -8.551843e-17)
(0.42423906 -0.31595746 -1.2455056e-16)
(0.41638716 -0.2715588 -3.8800058e-17)
(0.40465762 -0.23100572 9.5365291e-17)
(0.3901785 -0.19441664 1.5195848e-16)
(0.37394773 -0.16166876 5.2744387e-17)
(0.35677391 -0.13250337 6.6028576e-17)
(0.33926913 -0.10660024 6.2237065e-17)
(0.32187329 -0.083621164 3.4542456e-17)
(0.30488941 -0.063231502 9.7916666e-17)
(0.28851674 -0.04510985 8.1145418e-17)
(0.27287642 -0.028953121 6.1642497e-17)
(0.25803001 -0.014478592 7.7425861e-17)
(0.2440113 -0.001422012 5.7710302e-17)
(0.23076968 0.010440804 9.0933491e-17)
(0.21827649 0.021317622 6.3294528e-17)
(0.20647204 0.031381938 1.5670072e-17)
(0.19527584 0.040779805 2.5041121e-17)
(0.18460304 0.049632222 4.9076294e-17)
(0.17436499 0.058035154 8.2895843e-17)
(0.16447239 0.066061723 8.5924543e-17)
(0.15483802 0.073764381 6.4799154e-17)
(0.14537883 0.081177045 8.1027017e-17)
(0.13601742 0.088317195 5.0963474e-17)
(0.12668321 0.095187853 -1.3654825e-17)
(0.11731321 0.10177941 -5.9513702e-17)
(0.10785252 0.10807128 -7.6803916e-17)
(0.098254803 0.11403329 -3.6276373e-17)
(0.088482508 0.11962702 -9.4084846e-18)
(0.078507181 0.1248069 1.2682349e-17)
(0.068309847 0.1295212 1.4363649e-17)
(0.057881345 0.13371293 -1.9580238e-17)
(0.047222966 0.13732098 -2.3225341e-17)
(0.03634772 0.14028107 -1.9385467e-17)
(0.025280977 0.14252697 -3.850801e-17)
(0.014058456 0.14399235 -3.1521586e-17)
(0.0026969857 0.14460948 -1.5382176e-17)
(-0.0087136269 0.14431167 -1.1534393e-17)
(-0.020095429 0.14304134 -3.1299233e-18)
(-0.031369498 0.14074575 2.747757e-18)
(-0.042431792 0.13738237 -1.9615413e-17)
(-0.05316791 0.1329216 -3.1389074e-17)
(-0.06345176 0.12735019 7.161594e-19)
(-0.073147886 0.12067472 1.2876287e-17)
(-0.082114627 0.11292475 -5.5893569e-18)
(-0.090208264 0.1041557 -2.7021102e-17)
(-0.097288122 0.094450853 -3.4794133e-17)
(-0.1032225 0.083922264 1.1636351e-18)
(-0.10789511 0.072710184 3.4861451e-17)
(-0.11121164 0.060980756 2.5628348e-17)
(-0.11310577 0.048921834 8.936824e-18)
(-0.11354373 0.036737126 -1.7886386e-17)
(-0.11252746 0.024638818 -1.6401485e-18)
(-0.11009597 0.012839788 2.3716907e-17)
(-0.10632431 0.001544236 4.1816091e-18)
(-0.10130901 -0.0090422088 7.1247749e-19)
(-0.095198439 -0.018761081 -9.6366947e-18)
(-0.088159916 -0.027468126 -1.1997648e-18)
(-0.08037358 -0.035053317 2.0052112e-17)
(-0.072030517 -0.041441139 1.0743024e-18)
(-0.063324171 -0.046590256 1.0202768e-17)
(-0.054443992 -0.050491931 1.3020451e-17)
(-0.045570135 -0.053167312 2.9136281e-18)
(-0.036869348 -0.054663956 5.2033356e-18)
(0.0032839278 -0.61693345 8.0227977e-16)
(0.0047604586 -0.62368255 6.678934e-16)
(0.021924091 -0.64600834 5.9365418e-16)
(0.040169405 -0.65916767 2.1331466e-16)
(0.065320918 -0.69057581 2.1432082e-16)
(0.10417074 -0.71936411 5.1584556e-17)
(0.14842026 -0.7445895 3.1463957e-16)
(0.19821875 -0.75754276 3.0107092e-16)
(0.24813266 -0.7560157 2.2621163e-16)
(0.29594467 -0.74018786 3.1105445e-16)
(0.33988219 -0.71136899 2.4943402e-16)
(0.37874337 -0.67152211 4.3791265e-17)
(0.41163431 -0.62290965 1.4782436e-17)
(0.43780703 -0.56798464 -1.4263293e-18)
(0.45665895 -0.50932306 4.2583539e-17)
(0.46784223 -0.44949376 -7.2431375e-17)
(0.47140768 -0.39085198 7.7835456e-17)
(0.46789558 -0.33531146 -7.1920427e-17)
(0.45830839 -0.28418199 -1.6474626e-16)
(0.44396121 -0.23813463 -1.2816332e-16)
(0.42626681 -0.19729517 -1.3942338e-17)
(0.40653556 -0.16141223 5.3668293e-17)
(0.38584728 -0.13003125 1.6302145e-17)
(0.3650085 -0.10262705 5.4392286e-17)
(0.34457375 -0.078681474 2.2107889e-17)
(0.32489732 -0.057716413 2.0074788e-17)
(0.30618786 -0.03930072 7.4943509e-17)
(0.28855192 -0.023047257 7.014647e-17)
(0.2720277 -0.0086066988 8.1667012e-17)
(0.25661379 0.004343563 3.3505089e-17)
(0.24221578 0.016059989 4.3852851e-17)
(0.22878696 0.026787895 6.7718199e-17)
(0.21622372 0.036723051 1.9784644e-17)
(0.204416 0.046030736 2.7252605e-17)
(0.19324988 0.054844559 3.7776732e-17)
(0.18260985 0.063268482 2.9551499e-17)
(0.17238242 0.07137985 6.3473117e-17)
(0.16245886 0.079232247 6.075416e-17)
(0.15273709 0.086858273 7.7722025e-17)
(0.14312314 0.094272184 6.7714796e-17)
(0.13353197 0.10147233 8.6197415e-18)
(0.12388806 0.10844331 -8.2613814e-18)
(0.11412572 0.11515792 -3.1286333e-17)
(0.10418922 0.12157869 -1.0307058e-17)
(0.094032917 0.12765928 -8.981615e-18)
(0.083621353 0.13334561 2.9614714e-17)
(0.07292948 0.13857687 5.7562255e-17)
(0.061943056 0.14328618 1.5149342e-17)
(0.050659329 0.14740191 -1.2019034e-17)
(0.039088206 0.1508485 -1.5749232e-17)
(0.027253647 0.15354668 -1.5954038e-17)
(0.01519072 0.15541675 2.4532519e-18)
(0.0029139028 0.15637789 1.3936201e-17)
(-0.0094788497 0.15634791 -1.5075077e-17)
(-0.021905114 0.15525242 -3.4686603e-17)
(-0.03427847 0.15302279 1.6634304e-17)
(-0.046482616 0.14960048 2.8290949e-17)
(-0.058387825 0.14494055 -7.4569822e-18)
(-0.069848867 0.13901609 -7.6532178e-18)
(-0.080707381 0.13182261 -2.7719274e-17)
(-0.090795291 0.12338244 -1.7664837e-17)
(-0.09993957 0.11374872 9.8280116e-18)
(-0.10796838 0.10300858 -1.4325603e-17)
(-0.11471843 0.091284887 -5.0486861e-18)
(-0.12004323 0.078736202 -5.4453653e-18)
(-0.12382173 0.065554412 -7.0706926e-18)
(-0.12596632 0.051959867 1.8644332e-17)
(-0.12642933 0.03819416 -2.2752153e-17)
(-0.12520719 0.024511107 -7.3237398e-18)
(-0.12234356 0.011167098 4.8067899e-18)
(-0.117918 -0.0015949227 -1.5249757e-17)
(-0.11204699 -0.013532081 -8.4360361e-18)
(-0.10491951 -0.024447754 -2.8867172e-17)
(-0.09672683 -0.034173235 -1.0927039e-17)
(-0.087687683 -0.04258125 1.3718138e-17)
(-0.078031041 -0.04958692 -1.4486012e-17)
(-0.067986991 -0.055147299 -1.0902646e-17)
(-0.057778993 -0.059258766 -8.5905154e-18)
(-0.047617585 -0.061953163 -3.8484165e-18)
(-0.037695728 -0.06329296 1.8042002e-17)
(0.0030101185 -0.62274293 8.5901873e-16)
(0.00088407604 -0.63656076 9.0762952e-16)
(0.023515752 -0.67440149 8.0199126e-16)
(0.043961873 -0.69292043 5.4960847e-16)
(0.072670257 -0.74145233 3.3651623e-16)
(0.12074125 -0.7834539 -2.770093e-17)
(0.17235168 -0.819675 -8.4096829e-17)
(0.2293064 -0.83821418 3.7155326e-16)
(0.28393742 -0.83799543 1.6495426e-16)
(0.3346096 -0.82051107 9.6435008e-17)
(0.38012314 -0.78798415 3.7295171e-16)
(0.41989618 -0.74292028 1.4972627e-16)
(0.45354492 -0.68782591 2.3199352e-16)
(0.48060712 -0.62526888 1.2441433e-16)
(0.50049999 -0.5579818 5.6489909e-17)
(0.51265237 -0.48885176 1.3487807e-16)
(0.51674257 -0.42074073 3.0491245e-17)
(0.51293746 -0.3561776 1.0616896e-17)
(0.50201286 -0.29704553 2.1955109e-18)
(0.48528517 -0.2444038 4.8229387e-17)
(0.46438038 -0.19851288 1.3773525e-16)
(0.4409437 -0.1590274 1.0728066e-16)
(0.41640217 -0.12525586 6.7462963e-17)
(0.39184206 -0.096389079 5.7750989e-17)
(0.36799844 -0.071647079 1.1049052e-17)
(0.3453148 -0.05034379 -3.9665574e-17)
(0.32402374 -0.031896502 -6.2889343e-17)
(0.30421755 -0.015807688 -4.641645e-17)
(0.28592044 -0.0016350152 -1.9480273e-17)
(0.26902875 0.01097795 -1.4118628e-17)
(0.25346412 0.02235565 -4.3264215e-17)
(0.23911171 0.032766757 -4.7502894e-17)
(0.22582616 0.042433038 -4.5637503e-17)
(0.21346006 0.051537679 -2.5406589e-17)
(0.20186433 0.060225406 -2.0082815e-17)
(0.19089194 0.068606407 -5.7216286e-17)
(0.18040149 0.076760255 -4.4988867e-17)
(0.17025977 0.084739586 -1.1407636e-17)
(0.16034351 0.092573616 -9.394046e-18)
(0.1505404 0.10027142 5.5248241e-18)
(0.14074973 0.10782485 -1.8478971e-17)
(0.13088256 0.11521114 -2.6173242e-17)
(0.12086168 0.12239503 -2.1696788e-17)
(0.11062145 0.12933056 -1.6556792e-17)
(0.10010756 0.13596244 -4.8463683e-18)
(0.089276989 0.14222723 4.0026089e-17)
(0.078097979 0.14805413 6.8019908e-17)
(0.066550463 0.15336565 1.9430127e-17)
(0.054626822 0.1580786 -7.7560318e-18)
(0.042332678 0.16210493 -9.8064757e-18)
(0.029689217 0.1653516 -1.7653273e-17)
(0.016730738 0.16772303 1.1803179e-17)
(0.0034685946 0.16912404 3.6794863e-17)
(-0.0099943102 0.16945449 -9.2563945e-18)
(-0.023569907 0.16861991 -4.7664489e-17)
(-0.037165238 0.16653252 3.3905076e-17)
(-0.050651279 0.16311386 2.4686749e-17)
(-0.063881927 0.15829937 -1.1484527e-19)
(-0.076690691 0.15204383 4.9945718e-18)
(-0.088892955 0.14432716 -1.6718043e-17)
(-0.10028955 0.13516027 2.4220225e-17)
(-0.11067214 0.12459067 1.6379812e-18)
(-0.1198305 0.11270725 -1.0668945e-17)
(-0.12756171 0.099643404 1.1931324e-18)
(-0.13368071 0.0855779 5.6253464e-18)
(-0.13803162 0.070732568 1.5870815e-17)
(-0.1404986 0.055366734 -1.0030424e-18)
(-0.1410145 0.039768163 -1.3674964e-17)
(-0.13956669 0.024241698 -9.2028008e-18)
(-0.13620553 0.0090974789 1.9335117e-17)
(-0.13102091 -0.0053669486 2.6387651e-18)
(-0.12415076 -0.018869742 -2.271373e-17)
(-0.1158217 -0.031165028 -3.9476664e-17)
(-0.10626977 -0.042054388 -1.718679e-17)
(-0.095759002 -0.051390251 2.1382555e-17)
(-0.084564885 -0.059078019 -1.8785366e-17)
(-0.072962086 -0.065074843 -2.3765329e-17)
(-0.061214763 -0.069385458 -1.3489493e-17)
(-0.049569067 -0.072056605 -5.2993816e-18)
(-0.038248089 -0.073170369 2.1893978e-17)
(0.0031790175 -0.62637492 8.4404778e-16)
(-0.0035159262 -0.64999091 7.10684e-16)
(0.02706893 -0.70909235 7.2461275e-16)
(0.05077648 -0.73182987 3.4962399e-16)
(0.085169181 -0.80304396 4.9439291e-16)
(0.14753312 -0.86061731 -5.8257633e-16)
(0.20898304 -0.9076623 -3.0325774e-16)
(0.27430591 -0.92960113 -2.7915814e-16)
(0.33303647 -0.92802888 -3.246598e-16)
(0.38484097 -0.90662038 -1.2838264e-16)
(0.42956706 -0.86884442 -1.2280002e-16)
(0.46763212 -0.81777543 -4.9157879e-17)
(0.4994854 -0.75601103 -8.4725439e-17)
(0.52522912 -0.68597258 -2.3963167e-17)
(0.54452716 -0.61023703 -9.2950656e-17)
(0.55672045 -0.53172038 -4.7781243e-18)
(0.56110954 -0.45361392 -6.285983e-17)
(0.55732705 -0.37905986 -9.8373239e-17)
(0.54565458 -0.3106828 -4.3095427e-17)
(0.52713295 -0.25018705 2.2751201e-17)
(0.50340813 -0.19820262 7.4466996e-18)
(0.47639162 -0.15442373 2.8433637e-17)
(0.44789429 -0.11793751 4.1957642e-17)
(0.41937108 -0.087582379 -2.441816e-17)
(0.39182843 -0.062216211 -1.4653697e-17)
(0.36586416 -0.040854298 -6.8318452e-17)
(0.34177006 -0.022696938 -1.4974632e-16)
(0.3196464 -0.0070924944 -1.2260282e-16)
(0.29946964 0.0065094227 -1.1640036e-16)
(0.28107473 0.018521402 -9.5109087e-17)
(0.26435345 0.029327476 -1.4498827e-16)
(0.24911739 0.039224817 -1.7491263e-16)
(0.23517337 0.048461068 -1.4592074e-16)
(0.22232811 0.057234693 -1.412602e-16)
(0.21039087 0.065699027 -1.1956856e-16)
(0.19917805 0.073967747 -1.4032613e-16)
(0.18851644 0.082119806 -1.3900016e-16)
(0.17824543 0.090204073 -9.8021733e-17)
(0.16821831 0.098243697 -9.9641779e-17)
(0.15830297 0.10624009 -5.7147522e-17)
(0.14838198 0.11417644 -3.2552029e-17)
(0.13835231 0.12202066 -3.5159218e-17)
(0.12812481 0.12972792 -1.631775e-17)
(0.11762355 0.13724244 -3.2924641e-17)
(0.10678525 0.14449901 2.4238953e-18)
(0.095558831 0.15142397 5.3526135e-17)
(0.083905274 0.15793588 7.9400851e-17)
(0.071797882 0.16394597 4.9187186e-17)
(0.059223127 0.1693587 1.8166215e-17)
(0.046181311 0.1740723 3.4201704e-18)
(0.032688928 0.17797913 -2.4822619e-17)
(0.018778892 0.18096666 -5.6743863e-18)
(0.0044589363 0.18292158 2.5981281e-17)
(-0.010168265 0.18372564 -7.7801392e-18)
(-0.025006754 0.18325909 -1.893761e-17)
(-0.039959356 0.18141184 3.1497365e-17)
(-0.054884317 0.17808082 1.0363517e-17)
(-0.069618533 0.17317651 -7.1650118e-19)
(-0.08397232 0.16662954 1.2799287e-17)
(-0.097731285 0.15839815 1.2911282e-17)
(-0.11065989 0.14847603 2.9760769e-17)
(-0.12250735 0.13690017 -1.0446791e-17)
(-0.1330162 0.1237578 6.3928053e-18)
(-0.14193361 0.10919168 5.8452478e-18)
(-0.14902501 0.093402388 2.1204169e-17)
(-0.15408911 0.076646586 5.2071696e-17)
(-0.15697274 0.059230397 -7.2532262e-18)
(-0.15758282 0.041498379 -6.2127253e-18)
(-0.15589355 0.023818229 5.3927129e-19)
(-0.15195887 0.0065665025 2.8338436e-17)
(-0.1458797 -0.0098932173 7.0298341e-18)
(-0.13783053 -0.025215305 1.3940585e-18)
(-0.12808089 -0.039106247 -1.8748322e-18)
(-0.11692163 -0.051328715 -1.7768811e-17)
(-0.10467531 -0.061711061 1.8314179e-18)
(-0.09167576 -0.070149104 -6.6349004e-18)
(-0.0782523 -0.076603125 -3.6219921e-19)
(-0.064717779 -0.0810911 6.0408256e-18)
(-0.051359899 -0.083680489 -2.6646516e-18)
(-0.038435975 -0.084479241 -3.573454e-18)
(0.0015804016 -0.6258195 8.2377663e-16)
(-0.012353399 -0.66279887 7.2480923e-16)
(0.026512509 -0.75137431 3.212213e-16)
(0.055366454 -0.77795438 3.3477888e-16)
(0.098768212 -0.88054451 7.8849198e-16)
(0.18255774 -0.95709051 4.5069356e-16)
(0.25722363 -1.0129516 2.0847356e-16)