/*--------------------------------*- C++ -*----------------------------------*\
| =========                 |                                                 |
| \\      /  F ield         | OpenFOAM: The Open Source CFD Toolbox           |
|  \\    /   O peration     | Version:  2306                                  |
|   \\  /    A nd           | Website:  www.openfoam.com                      |
|    \\/     M anipulation  |                                                 |
\*---------------------------------------------------------------------------*/
FoamFile
{
    version     2.0;
    format      ascii;
    arch        "LSB;label=32;scalar=64";
    class       surfaceScalarField;
    location    "0.16";
    object      phi_0;
}
// * * * * * * * * * * * * * * * * * * * * * * * * * * * * * * * * * * * * * //

dimensions      [0 3 -1 0 0 0 0];

oriented        oriented;

internalField   nonuniform List<scalar> 
12640
(
-1.0610618e-09
1.0610618e-09
-4.4793493e-09
3.4182876e-09
-1.0241024e-08
5.7616748e-09
-1.8417531e-08
8.1765065e-09
-2.8990572e-08
1.0573041e-08
-4.1907177e-08
1.2916606e-08
-5.7126251e-08
1.5219074e-08
-7.4604167e-08
1.7477916e-08
-9.4293457e-08
1.968929e-08
-1.1614281e-07
2.1849351e-08
-1.4009661e-07
2.3953801e-08
-1.6609471e-07
2.5998097e-08
-1.940724e-07
2.7977698e-08
-2.2396057e-07
2.9888167e-08
-2.5568579e-07
3.1725225e-08
-2.891706e-07
3.3484809e-08
-3.243337e-07
3.51631e-08
-3.6109025e-07
3.6756545e-08
-3.9935212e-07
3.8261874e-08
-4.3902822e-07
3.9676099e-08
-4.8002475e-07
4.0996531e-08
-5.2224551e-07
4.2220759e-08
-5.6559217e-07
4.3346655e-08
-6.0996451e-07
4.4372342e-08
-6.5526075e-07
4.5296244e-08
-7.0137815e-07
4.6117398e-08
-7.4821518e-07
4.6837032e-08
-7.9568312e-07
4.7467936e-08
-8.4369541e-07
4.8012298e-08
-8.9212238e-07
4.8426967e-08
-9.4085398e-07
4.8731596e-08
-9.8979052e-07
4.8936546e-08
-1.0388342e-06
4.9043663e-08
-1.0878882e-06
4.9053982e-08
-1.1368569e-06
4.896878e-08
-1.1856467e-06
4.8789712e-08
-1.2341655e-06
4.8518816e-08
-1.2823239e-06
4.8158453e-08
-1.3300352e-06
4.7711249e-08
-1.3772152e-06
4.7180062e-08
-1.4237832e-06
4.6567958e-08
-1.4696614e-06
4.5878177e-08
-1.5147755e-06
4.5114098e-08
-1.5590547e-06
4.4279222e-08
-1.6024319e-06
4.3377172e-08
-1.6448435e-06
4.2411623e-08
-1.6862298e-06
4.1386349e-08
-1.726535e-06
4.0305157e-08
-1.7657069e-06
3.9171895e-08
-1.8036973e-06
3.7990411e-08
-1.8404619e-06
3.6764587e-08
-1.8759601e-06
3.5498233e-08
-1.9101553e-06
3.4195195e-08
-1.9430145e-06
3.285923e-08
-1.9745086e-06
3.1494044e-08
-2.0046119e-06
3.0103291e-08
-2.0333024e-06
2.8690541e-08
-2.0605617e-06
2.7259257e-08
-2.0863745e-06
2.5812827e-08
-2.110729e-06
2.4354516e-08
-2.1336165e-06
2.2887482e-08
-2.1550312e-06
2.1414743e-08
-2.1749705e-06
1.9939221e-08
-2.1934341e-06
1.8463674e-08
-2.2104249e-06
1.6990722e-08
-2.2259477e-06
1.5522864e-08
-2.2400102e-06
1.4062464e-08
-2.252622e-06
1.2611828e-08
-2.2637953e-06
1.1173278e-08
-2.2735443e-06
9.7489917e-09
-2.2818853e-06
8.3410437e-09
-2.2888368e-06
6.9514865e-09
-2.2944189e-06
5.5820914e-09
-2.2986529e-06
4.2340344e-09
-2.3015592e-06
2.9063034e-09
-2.3031461e-06
1.5868286e-09
-2.3033141e-06
1.6803676e-10
-2.3023198e-06
-9.9432759e-10
-2.3001225e-06
-2.1972813e-09
-3.4014436e-09
-2.3336241e-09
3.3946859e-09
-9.3442385e-09
1.0428902e-08
-2.1067174e-08
1.7484611e-08
-3.7499115e-08
2.4608448e-08
-5.8608571e-08
3.1682497e-08
-8.4342915e-08
3.865095e-08
-1.1463094e-07
4.5507094e-08
-1.4939077e-07
5.2237754e-08
-1.8852982e-07
5.8828336e-08
-2.3194495e-07
6.5264483e-08
-2.7952289e-07
7.1531739e-08
-3.3114049e-07
7.76157e-08
-3.866651e-07
8.3502307e-08
-4.4595495e-07
8.9178019e-08
-5.0885965e-07
9.4629918e-08
-5.7522068e-07
9.9845838e-08
-6.44872e-07
1.0481442e-07
-7.1764061e-07
1.0952516e-07
-7.9334724e-07
1.139685e-07
-8.7180694e-07
1.181358e-07
-9.5282982e-07
1.2201941e-07
-1.0362217e-06
1.2561267e-07
-1.121785e-06
1.2890996e-07
-1.2093194e-06
1.3190671e-07
-1.2986226e-06
1.3459948e-07
-1.3894913e-06
1.3698611e-07
-1.4817203e-06
1.3906596e-07
-1.5750923e-06
1.4083993e-07
-1.6693845e-06
1.4230455e-07
-1.7644134e-06
1.4345584e-07
-1.8599829e-06
1.4430114e-07
-1.9558923e-06
1.4484589e-07
-2.0519432e-06
1.450946e-07
-2.1479413e-06
1.4505207e-07
-2.2436963e-06
1.4472382e-07
-2.3390228e-06
1.4411616e-07
-2.4337401e-06
1.4323614e-07
-2.5276732e-06
1.4209155e-07
-2.6206528e-06
1.406908e-07
-2.7125156e-06
1.3904289e-07
-2.803105e-06
1.3715733e-07
-2.8922709e-06
1.3504411e-07
-2.9798704e-06
1.3271358e-07
-3.0657676e-06
1.3017644e-07
-3.1498341e-06
1.2744367e-07
-3.2319489e-06
1.2452645e-07
-3.3119987e-06
1.2143614e-07
-3.3898777e-06
1.181842e-07
-3.465488e-06
1.1478218e-07
-3.5387392e-06
1.1124162e-07
-3.6095487e-06
1.0757404e-07
-3.6778413e-06
1.0379087e-07
-3.7435496e-06
9.9903487e-08
-3.8066134e-06
9.5923011e-08
-3.8669798e-06
9.186044e-08
-3.924603e-06
8.7726505e-08
-3.9794442e-06
8.3531728e-08
-4.0314712e-06
7.9286295e-08
-4.0806585e-06
7.500007e-08
-4.1269866e-06
7.068263e-08
-4.1704422e-06
6.6343129e-08
-4.2110179e-06
6.1990369e-08
-4.2487113e-06
5.7632692e-08
-4.2835257e-06
5.3278039e-08
-4.3154688e-06
4.8933858e-08
-4.3445532e-06
4.4607237e-08
-4.3707958e-06
4.0304996e-08
-4.3942182e-06
3.6034288e-08
-4.4148472e-06
3.1802294e-08
-4.4327125e-06
2.7614256e-08
-4.4478468e-06
2.3475391e-08
-4.4602865e-06
1.9391104e-08
-4.4700712e-06
1.5366871e-08
-4.4772455e-06
1.1408287e-08
-4.4818611e-06
7.5219181e-09
-4.4839908e-06
3.7165692e-09
-4.483861e-06
3.8187545e-11
-4.4811111e-06
-3.7442275e-09
-4.4759221e-06
-7.3863011e-09
-1.0935087e-08
-2.8964486e-09
6.2911344e-09
-1.1485236e-08
1.9017689e-08
-2.5775061e-08
3.1774436e-08
-4.5717379e-08
4.4550766e-08
-7.1271559e-08
5.7236677e-08
-1.0238501e-07
6.97644e-08
-1.3898e-07
8.2102089e-08
-1.8096151e-07
9.4219264e-08
-2.2821947e-07
1.060863e-07
-2.8062965e-07
1.1767466e-07
-3.3805453e-07
1.2895662e-07
-4.0034404e-07
1.3990521e-07
-4.6733621e-07
1.5049447e-07
-5.3885781e-07
1.6069963e-07
-6.1472507e-07
1.7049718e-07
-6.9474433e-07
1.7986509e-07
-7.7871277e-07
1.8878286e-07
-8.6641924e-07
1.9723163e-07
-9.5764498e-07
2.0519424e-07
-1.0521645e-06
2.126553e-07
-1.1497463e-06
2.1960122e-07
-1.2501539e-06
2.2602025e-07
-1.3531465e-06
2.3190255e-07
-1.4584799e-06
2.3724016e-07
-1.5659075e-06
2.4202708e-07
-1.6751807e-06
2.4625925e-07
-1.7860492e-06
2.4993455e-07
-1.898262e-06
2.5305268e-07
-2.0115713e-06
2.5561382e-07
-2.1257342e-06
2.5761873e-07
-2.2405058e-06
2.590728e-07
-2.3556436e-06
2.5998367e-07
-2.4709089e-06
2.6035993e-07
-2.586068e-06
2.6021118e-07
-2.7008924e-06
2.5954822e-07
-2.8151594e-06
2.5838313e-07
-2.9286525e-06
2.567292e-07
-3.0411619e-06
2.5460093e-07
-3.152485e-06
2.520139e-07
-3.2624268e-06
2.4898467e-07
-3.3708001e-06
2.4553071e-07
-3.4774263e-06
2.4167024e-07
-3.5821349e-06
2.3742218e-07
-3.6847645e-06
2.3280603e-07
-3.7851625e-06
2.2784173e-07
-3.8831857e-06
2.2254959e-07
-3.9786997e-06
2.169502e-07
-4.0715798e-06
2.1106433e-07
-4.1617105e-06
2.0491283e-07
-4.2489854e-06
1.9851653e-07
-4.3333076e-06
1.9189623e-07
-4.4145893e-06
1.8507253e-07
-4.4927516e-06
1.7806581e-07
-4.5677247e-06
1.7089611e-07
-4.6394474e-06
1.6358315e-07
-4.7078671e-06
1.5614617e-07
-4.7729393e-06
1.4860399e-07
-4.8346279e-06
1.4097483e-07
-4.8929042e-06
1.3327637e-07
-4.9477472e-06
1.2552566e-07
-4.9991432e-06
1.177391e-07
-5.0470852e-06
1.0993242e-07
-5.0915731e-06
1.0212061e-07
-5.132613e-06
9.4317945e-08
-5.1702171e-06
8.653796e-08
-5.2044033e-06
7.8793439e-08
-5.2351948e-06
7.1096494e-08
-5.2626192e-06
6.3458702e-08
-5.2867081e-06
5.5891158e-08
-5.3074979e-06
4.8404033e-08
-5.3250294e-06
4.1006888e-08
-5.3393473e-06
3.3708982e-08
-5.3504998e-06
2.651941e-08
-5.3585385e-06
1.9446974e-08
-5.3635179e-06
1.2501283e-08
-5.3655034e-06
5.7020822e-09
-5.3645313e-06
-9.33841e-10
-5.3606414e-06
-7.6341995e-09
-5.3539178e-06
-1.4109873e-08
-2.0428429e-08
-3.0898007e-09
9.3809351e-09
-1.2283707e-08
2.8211595e-08
-2.7550919e-08
4.7041647e-08
-4.8832102e-08
6.583195e-08
-7.6078014e-08
8.4482588e-08
-1.0923024e-07
1.0291663e-07
-1.4820811e-07
1.2107996e-07
-1.9291209e-07
1.3892324e-07
-2.4322586e-07
1.5640007e-07
-2.9901746e-07
1.7346626e-07
-3.6014027e-07
1.9007942e-07
-4.2643391e-07
2.0619885e-07
-4.9772508e-07
2.2178565e-07
-5.7382832e-07
2.3680287e-07
-6.5454679e-07
2.5121565e-07
-7.3967305e-07
2.6499136e-07
-8.2898992e-07
2.7809973e-07
-9.2227125e-07
2.9051297e-07
-1.0192829e-06
3.0220586e-07
-1.1197834e-06
3.1315584e-07
-1.2235252e-06
3.2334303e-07
-1.3302553e-06
3.3275032e-07
-1.4397162e-06
3.4136343e-07
-1.5516469e-06
3.4917085e-07
-1.6657837e-06
3.5616393e-07
-1.7818613e-06
3.6233682e-07
-1.8996132e-06
3.6768645e-07
-2.0187729e-06
3.7221245e-07
-2.1390757e-06
3.7591661e-07
-2.2602596e-06
3.7880262e-07
-2.3820645e-06
3.8087766e-07
-2.5042328e-06
3.8215201e-07
-2.6265112e-06
3.8263827e-07
-2.748651e-06
3.8235098e-07
-2.8704093e-06
3.8130658e-07
-2.9915495e-06
3.7952334e-07
-3.1118417e-06
3.770214e-07
-3.2310633e-06
3.738225e-07
-3.3489994e-06
3.6995001e-07
-3.4654434e-06
3.6542866e-07
-3.5801972e-06
3.602845e-07
-3.6930716e-06
3.5454467e-07
-3.8038867e-06
3.4823728e-07
-3.9124719e-06
3.4139126e-07
-4.0186664e-06
3.3403619e-07
-4.122319e-06
3.2620217e-07
-4.2232884e-06
3.1791968e-07
-4.3214435e-06
3.0921942e-07
-4.4166629e-06
3.001322e-07
-4.5088352e-06
2.906888e-07
-4.5978588e-06
2.8091987e-07
-4.6836421e-06
2.7085578e-07
-4.7661028e-06
2.6052652e-07
-4.8451683e-06
2.4996163e-07
-4.9207752e-06
2.3919008e-07
-4.9928692e-06
2.2824015e-07
-5.0614047e-06
2.1713946e-07
-5.1263446e-06
2.0591475e-07
-5.1876602e-06
1.9459193e-07
-5.2453305e-06
1.83196e-07
-5.2993424e-06
1.7175097e-07
-5.3496898e-06
1.6027984e-07
-5.3963738e-06
1.4880456e-07
-5.4394018e-06
1.37346e-07
-5.4787878e-06
1.25924e-07
-5.5145517e-06
1.1455727e-07
-5.5467187e-06
1.032635e-07
-5.5753194e-06
9.205941e-08
-5.6003889e-06
8.0960687e-08
-5.6219668e-06
6.9981923e-08
-5.6400968e-06
5.9136852e-08
-5.6548262e-06
4.8438445e-08
-5.666206e-06
3.7899211e-08
-5.6742906e-06
2.7531498e-08
-5.6791385e-06
1.7349168e-08
-5.6808166e-06
7.3802422e-09
-5.6793581e-06
-2.3923908e-09
-5.6748689e-06
-1.2123422e-08
-5.6673875e-06
-2.1591261e-08
-3.0834024e-08
-3.1523783e-09
1.2533313e-08
-1.256399e-08
3.7623207e-08
-2.8197278e-08
6.2674936e-08
-4.9994302e-08
8.7628974e-08
-7.7898917e-08
1.123872e-07
-1.1184525e-07
1.3686296e-07
-1.5174897e-07
1.6098368e-07
-1.975078e-07
1.8468207e-07
-2.490025e-07
2.0789477e-07
-3.060978e-07
2.3056157e-07
-3.6864334e-07
2.5262496e-07
-4.3647447e-07
2.7402998e-07
-5.0941318e-07
2.9472436e-07
-5.8726888e-07
3.1465856e-07
-6.6983921e-07
3.3378598e-07
-7.5691094e-07
3.5206308e-07
-8.4826076e-07
3.6944955e-07
-9.4365623e-07
3.8590844e-07
-1.0428566e-06
4.0140625e-07
-1.1456139e-06
4.1591308e-07
-1.2516735e-06
4.2940266e-07
-1.3607756e-06
4.4185241e-07
-1.4726557e-06
4.5324353e-07
-1.5870458e-06
4.6356094e-07
-1.7036752e-06
4.7279337e-07
-1.8222716e-06
4.8093324e-07
-1.9425619e-06
4.8797669e-07
-2.0642728e-06
4.9392337e-07
-2.1871325e-06
4.9877633e-07
-2.3108717e-06
5.0254184e-07
-2.435224e-06
5.0522988e-07
-2.5599259e-06
5.0685396e-07
-2.6847184e-06
5.0743077e-07
-2.8093473e-06
5.0697983e-07
-2.933564e-06
5.0552335e-07
-3.0571268e-06
5.0308606e-07
-3.1798004e-06
4.9969508e-07
-3.3013577e-06
4.9537978e-07
-3.4215792e-06
4.9017154e-07
-3.5402542e-06
4.841036e-07
-3.6571806e-06
4.7721087e-07
-3.7721656e-06
4.6952973e-07
-3.8850261e-06
4.6109779e-07
-3.9955886e-06
4.5195372e-07
-4.1036894e-06
4.4213704e-07
-4.2091752e-06
4.3168795e-07
-4.3119026e-06
4.2064709e-07
-4.4117386e-06
4.0905541e-07
-4.5085604e-06
3.9695394e-07
-4.6022553e-06
3.843837e-07
-4.6927208e-06
3.7138544e-07
-4.7798646e-06
3.5799954e-07
-4.863604e-06
3.442659e-07
-4.9438661e-06
3.3022373e-07
-5.0205875e-06
3.1591148e-07
-5.093714e-06
3.013667e-07
-5.1632005e-06
2.86626e-07
-5.2290106e-06
2.7172482e-07
-5.2911162e-06
2.5669749e-07
-5.3494973e-06
2.415771e-07
-5.4041417e-06
2.2639541e-07
-5.4550447e-06
2.1118286e-07
-5.5022087e-06
1.959685e-07
-5.5456426e-06
1.8077989e-07
-5.5853618e-06
1.6564326e-07
-5.6213879e-06
1.5058334e-07
-5.6537478e-06
1.3562341e-07
-5.6824738e-06
1.2078543e-07
-5.707603e-06
1.0608988e-07
-5.729177e-06
9.1555869e-08
-5.7472413e-06
7.7201202e-08
-5.7618453e-06
6.3042478e-08
-5.7730414e-06
4.9095255e-08
-5.7808843e-06
3.5374403e-08
-5.7854302e-06
2.1895121e-08
-5.7867299e-06
8.6799044e-09
-5.7848239e-06
-4.2984056e-09
-5.779859e-06
-1.70883e-08
-5.7718694e-06
-2.9580842e-08
-4.1787351e-08
-3.1789305e-09
1.5712244e-08
-1.2692984e-08
4.713726e-08
-2.8507001e-08
7.8488952e-08
-5.0568417e-08
1.0969039e-07
-7.8817532e-08
1.4063632e-07
-1.1318262e-07
1.7122804e-07
-1.5357549e-07
2.0137656e-07
-1.9989105e-07
2.3099763e-07
-2.5200762e-07
2.6001134e-07
-3.0978752e-07
2.8834148e-07
-3.7307785e-07
3.1591529e-07
-4.4171126e-07
3.4266339e-07
-5.1550674e-07
3.6851984e-07
-5.942705e-07
3.9342232e-07
-6.7779678e-07
4.1731226e-07
-7.6586872e-07
4.4013502e-07
-8.5825924e-07
4.6184007e-07
-9.5473197e-07
4.8238117e-07
-1.0550422e-06
5.0171644e-07
-1.1589376e-06
5.1980853e-07
-1.2661596e-06
5.3662469e-07
-1.3764441e-06
5.5213687e-07
-1.4895223e-06
5.6632171e-07
-1.6051219e-06
5.7916059e-07
-1.7229682e-06
5.9063961e-07
-1.8427845e-06
6.0074957e-07
-1.9642937e-06
6.0948589e-07
-2.0872188e-06
6.1684852e-07
-2.2112843e-06
6.2284174e-07
-2.3362166e-06
6.2747416e-07
-2.4617454e-06
6.3075872e-07
-2.5876039e-06
6.327125e-07
-2.7135298e-06
6.3335659e-07
-2.8392656e-06
6.3271569e-07
-2.9645602e-06
6.3081791e-07
-3.0891687e-06
6.2769462e-07
-3.2128538e-06
6.2338016e-07
-3.3353857e-06
6.1791163e-07
-3.4565429e-06
6.1132871e-07
-3.5761126e-06
6.0367334e-07
-3.6938912e-06
5.9498953e-07
-3.8096846e-06
5.8532307e-07
-3.9233081e-06
5.7472133e-07
-4.0345873e-06
5.6323293e-07
-4.1433578e-06
5.5090755e-07
-4.2494656e-06
5.3779567e-07
-4.3527668e-06
5.2394832e-07
-4.4531282e-06
5.0941687e-07
-4.5504271e-06
4.9425279e-07
-4.6445509e-06
4.7850745e-07
-4.7353974e-06
4.6223194e-07
-4.8228746e-06
4.4547679e-07
-4.9069006e-06
4.2829191e-07
-4.9874033e-06
4.1072638e-07
-5.06432e-06
3.9282822e-07
-5.1375977e-06
3.7464438e-07
-5.2071922e-06
3.5622054e-07
-5.2730683e-06
3.3760094e-07
-5.3351993e-06
3.1882844e-07
-5.3935664e-06
2.9994424e-07
-5.448159e-06
2.8098797e-07
-5.4989737e-06
2.6199755e-07
-5.5460143e-06
2.4300909e-07
-5.5892914e-06
2.2405698e-07
-5.6288219e-06
2.0517376e-07
-5.6646287e-06
1.8639017e-07
-5.6967404e-06
1.6773512e-07
-5.7251907e-06
1.4923576e-07
-5.7500183e-06
1.3091738e-07
-5.7712659e-06
1.1280352e-07
-5.7889806e-06
9.4915945e-08
-5.8032129e-06
7.7274779e-08
-5.8140162e-06
5.9898493e-08
-5.8214461e-06
4.2804367e-08
-5.8255602e-06
2.60092e-08
-5.8264148e-06
9.5344887e-09
-5.8240723e-06
-6.6408863e-09
-5.8186383e-06
-2.2522376e-08
-5.8101656e-06
-3.80535e-08
-5.3234297e-08
-3.203216e-09
1.891546e-08
-1.2801691e-08
5.6735736e-08
-2.8764785e-08
9.4452047e-08
-5.1044672e-08
1.3197028e-07
-7.958021e-08
1.6917186e-07
-1.142958e-07
2.0594364e-07
-1.5509984e-07
2.4218059e-07
-2.0188429e-07
2.7778208e-07
-2.5452478e-07
3.1265183e-07
-3.1288105e-07
3.4669775e-07
-3.7679754e-07
3.7983178e-07
-4.4610412e-07
4.1196997e-07
-5.2061685e-07
4.4303257e-07
-6.0013881e-07
4.7294428e-07
-6.8446093e-07
5.0163438e-07
-7.733629e-07
5.2903698e-07
-8.6661402e-07
5.550912e-07
-9.639742e-07
5.7974134e-07
-1.0651948e-06
6.0293708e-07
-1.1700199e-06
6.2463355e-07
-1.2781866e-06
6.4479147e-07
-1.389427e-06
6.6337726e-07
-1.5034683e-06
6.8036302e-07
-1.6200344e-06
6.957266e-07
-1.7388463e-06
7.0945154e-07
-1.8596238e-06
7.2152709e-07
-1.982086e-06
7.3194807e-07
-2.1059523e-06
7.4071479e-07
-2.2309435e-06
7.4783294e-07
-2.3567827e-06
7.5331339e-07
-2.4831962e-06
7.5717218e-07
-2.6099139e-06
7.5943028e-07
-2.7366707e-06
7.6011334e-07
-2.8632065e-06
7.592515e-07
-2.9892676e-06
7.5687901e-07
-3.114607e-06
7.5303402e-07
-3.2389851e-06
7.4775829e-07
-3.3621704e-06
7.4109693e-07
-3.4839398e-06
7.3309806e-07
-3.604079e-06
7.2381259e-07
-3.7223833e-06
7.1329384e-07
-3.8386575e-06
7.0159728e-07
-3.9527164e-06
6.8878019e-07
-4.0643849e-06
6.7490142e-07
-4.1734983e-06
6.6002099e-07
-4.2799025e-06
6.4419988e-07
-4.3834539e-06
6.2749971e-07
-4.4840195e-06
6.0998247e-07
-4.581477e-06
5.9171023e-07
-4.6757144e-06
5.727449e-07
-4.7666305e-06
5.5314804e-07
-4.8541342e-06
5.329805e-07
-4.9381447e-06
5.1230236e-07
-5.0185909e-06
4.9117262e-07
-5.0954118e-06
4.6964906e-07
-5.1685554e-06
4.4778808e-07
-5.2379794e-06
4.2564451e-07
-5.30365e-06
4.0327154e-07
-5.3655421e-06
3.8072051e-07
-5.4236387e-06
3.5804088e-07
-5.4779309e-06
3.3528014e-07
-5.528417e-06
3.1248369e-07
-5.5751028e-06
2.896948e-07
-5.6180004e-06
2.6695459e-07
-5.6571286e-06
2.4430195e-07
-5.692512e-06
2.2177365e-07
-5.7241811e-06
1.9940415e-07
-5.7521711e-06
1.7722577e-07
-5.7765223e-06
1.5526864e-07
-5.7972795e-06
1.3356064e-07
-5.8144911e-06
1.1212762e-07
-5.8282096e-06
9.0993255e-08
-5.8384903e-06
7.0179187e-08
-5.8453911e-06
4.9705208e-08
-5.8489714e-06
2.9589458e-08
-5.8492831e-06
9.8461823e-09
-5.8464055e-06
-9.518461e-09
-5.8404277e-06
-2.8500232e-08
-5.8314068e-06
-4.7074326e-08
-6.5230845e-08
-3.2335639e-09
2.2149024e-08
-1.2928022e-08
6.6430193e-08
-2.9056226e-08
1.1058025e-07
-5.1573459e-08
1.5448751e-07
-8.0417988e-08
1.9801639e-07
-1.1551166e-07
2.4103731e-07
-1.5675993e-07
2.8342887e-07
-2.040518e-07
3.2507395e-07
-2.5725993e-07
3.6585996e-07
-3.1624104e-07
4.0567885e-07
-3.8083646e-07
4.444272e-07
-4.5087279e-07
4.820063e-07
-5.2616266e-07
5.1832244e-07
-6.0650553e-07
5.5328715e-07
-6.9168854e-07
5.8681739e-07
-7.814874e-07
6.1883584e-07
-8.7566732e-07
6.4927112e-07
-9.7398396e-07
6.7805798e-07
-1.0761844e-06
7.0513751e-07
-1.1820081e-06
7.3045727e-07
-1.2911881e-06
7.5397141e-07
-1.4034516e-06
7.7564077e-07
-1.5185215e-06
7.9543293e-07
-1.6361171e-06
8.1332223e-07
-1.7559553e-06
8.2928974e-07
-1.8777514e-06
8.4332321e-07
-2.0012203e-06
8.5541698e-07
-2.1260774e-06
8.6557188e-07
-2.2520395e-06
8.7379506e-07
-2.378826e-06
8.8009982e-07
-2.5061592e-06
8.8450545e-07
-2.633766e-06
8.8703702e-07
-2.7613777e-06
8.8772505e-07
-2.8887315e-06
8.866053e-07
-3.0155709e-06
8.8371842e-07
-3.1416464e-06
8.7910959e-07
-3.2667164e-06
8.7282825e-07
-3.3905472e-06
8.6492774e-07
-3.5129141e-06
8.5546493e-07
-3.6336014e-06
8.4449991e-07
-3.7524032e-06
8.3209559e-07
-3.8691233e-06
8.1831738e-07
-3.9835758e-06
8.0323275e-07
-4.0955854e-06
7.86911e-07
-4.2049872e-06
7.6942276e-07
-4.311627e-06
7.5083974e-07
-4.4153617e-06
7.3123437e-07
-4.5160587e-06
7.1067946e-07
-4.6135964e-06
6.8924791e-07
-4.7078638e-06
6.6701237e-07
-4.7987608e-06
6.4404501e-07
-4.8861975e-06
6.2041723e-07
-4.9700945e-06
5.9619934e-07
-5.0503824e-06
5.7146048e-07
-5.1270016e-06
5.4626827e-07
-5.1999022e-06
5.2068867e-07
-5.2690435e-06
4.9478579e-07
-5.3343937e-06
4.6862177e-07
-5.3959298e-06
4.4225657e-07
-5.4536368e-06
4.1574795e-07
-5.5075079e-06
3.8915124e-07
-5.5575436e-06
3.6251939e-07
-5.6037517e-06
3.3590284e-07
-5.6461465e-06
3.0934941e-07
-5.6847489e-06
2.829044e-07
-5.7195858e-06
2.5661047e-07
-5.7506893e-06
2.3050768e-07
-5.778097e-06
2.0463349e-07
-5.8018511e-06
1.7902276e-07
-5.8219983e-06
1.5370779e-07
-5.838589e-06
1.2871832e-07
-5.8516774e-06
1.0408165e-07
-5.8613207e-06
7.9822494e-08
-5.8675787e-06
5.5963205e-08
-5.8705127e-06
3.252352e-08
-5.8701833e-06
9.5167746e-09
-5.8666686e-06
-1.3033192e-08
-5.860043e-06
-3.5125806e-08
-5.8503748e-06
-5.6742552e-08
-7.7871695e-08
-3.271177e-09
2.5420201e-08
-1.3080364e-08
7.623938e-08
-2.9402441e-08
1.2690233e-07
-5.2194338e-08
1.7727941e-07
-8.1393832e-08
2.2721588e-07
-1.1692079e-07
2.7656427e-07
-1.5867805e-07
3.2518612e-07
-2.0655157e-07
3.7294747e-07
-2.6041077e-07
4.1971916e-07
-3.2010893e-07
4.6537702e-07
-3.8548374e-07
5.0980201e-07
-4.5635797e-07
5.5288052e-07
-5.3254019e-07
5.9450466e-07
-6.1382559e-07
6.3457255e-07
-6.9999686e-07
6.7298866e-07
-7.9082506e-07
7.0966404e-07
-8.8607059e-07
7.4451665e-07
-9.8548415e-07
7.7747155e-07
-1.0888078e-06
8.0846114e-07
-1.1957758e-06
8.374253e-07
-1.306116e-06
8.6431157e-07
-1.4195504e-06
8.8907521e-07
-1.5357968e-06
9.1167928e-07
-1.6545692e-06
9.3209464e-07
-1.7755794e-06
9.5029995e-07
-1.8985377e-06
9.6628156e-07
-2.0231542e-06
9.8003348e-07
-2.1491395e-06
9.9155719e-07
-2.2762059e-06
1.0008615e-06
-2.4040683e-06
1.0079622e-06
-2.532445e-06
1.0128821e-06
-2.6610586e-06
1.0156507e-06
-2.7896371e-06
1.0163035e-06
-2.9179142e-06
1.0148824e-06
-3.0456302e-06
1.0114344e-06
-3.1725329e-06
1.0060123e-06
-3.298378e-06
9.9867335e-07
-3.4229297e-06
9.8947947e-07
-3.5459614e-06
9.7849658e-07
-3.6672558e-06
9.6579428e-07
-3.7866055e-06
9.5144535e-07
-3.9038136e-06
9.3552544e-07
-4.0186934e-06
9.1811255e-07
-4.1310691e-06
8.9928667e-07
-4.2407757e-06
8.7912936e-07
-4.3476592e-06
8.5772332e-07
-4.4515769e-06
8.3515207e-07
-4.552397e-06
8.1149949e-07
-4.6499986e-06
7.8684954e-07
-4.744272e-06
7.6128581e-07
-4.8351184e-06
7.3489134e-07
-4.9224493e-06
7.0774819e-07
-5.0061872e-06
6.7993716e-07
-5.0862643e-06
6.5153763e-07
-5.1626232e-06
6.2262721e-07
-5.2352161e-06
5.9328155e-07
-5.3040045e-06
5.6357414e-07
-5.3689589e-06
5.3357616e-07
-5.4300586e-06
5.0335627e-07
-5.4872911e-06
4.7298052e-07
-5.5406521e-06
4.4251222e-07
-5.5901446e-06
4.1201186e-07
-5.6357787e-06
3.8153699e-07
-5.6775716e-06
3.5114224e-07
-5.7155464e-06
3.2087919e-07
-5.7497324e-06
2.9079647e-07
-5.7801643e-06
2.6093962e-07
-5.806882e-06
2.3135124e-07
-5.8299301e-06
2.0207088e-07
-5.8493575e-06
1.7313512e-07
-5.8652168e-06
1.4457766e-07
-5.8775644e-06
1.1642926e-07
-5.8864597e-06
8.8717789e-08
-5.8919647e-06
6.1468214e-08
-5.8941436e-06
3.4702344e-08
-5.89306e-06
8.4332068e-09
-5.8887933e-06
-1.7299929e-08
-5.8814137e-06
-4.2505377e-08
-5.8709931e-06
-6.7163166e-08
-9.1260746e-08
-3.3158423e-09
2.8736043e-08
-1.3259699e-08
8.6183237e-08
-2.9807387e-08
1.4345002e-07
-5.2916408e-08
2.0038843e-07
-8.2523808e-08
2.5682328e-07
-1.185476e-07
3.1258806e-07
-1.60888e-07
3.6752652e-07
-2.0942784e-07
4.2148731e-07
-2.64033e-07
4.7432432e-07
-3.2455288e-07
5.258969e-07
-3.9082103e-07
5.7607016e-07
-4.6265578e-07
6.2471527e-07
-5.39861e-07
6.7170988e-07
-6.2222696e-07
7.1693851e-07
-7.0953114e-07
7.6029284e-07
-8.0153922e-07
8.0167213e-07
-8.9800605e-07
8.4098347e-07
-9.9867658e-07
8.7814209e-07
-1.103287e-06
9.1307156e-07
-1.2115657e-06
9.4570402e-07
-1.3232345e-06
9.7598032e-07
-1.4380094e-06
1.0038501e-06
-1.5556021e-06
1.029272e-06
-1.6757207e-06
1.0522133e-06
-1.7980712e-06
1.0726504e-06
-1.9223581e-06
1.0905685e-06
-2.0482858e-06
1.1059612e-06
-2.1755596e-06
1.1188309e-06
-2.3038863e-06
1.1291882e-06
-2.432976e-06
1.1370519e-06
-2.5625422e-06
1.1424483e-06
-2.6923029e-06
1.1454115e-06
-2.8219819e-06
1.1459825e-06
-2.951309e-06
1.1442095e-06
-3.0800211e-06
1.1401465e-06
-3.2078626e-06
1.1338538e-06
-3.3345864e-06
1.1253972e-06
-3.4599542e-06
1.1148473e-06
-3.5837372e-06
1.1022795e-06
-3.7057162e-06
1.0877733e-06
-3.8256826e-06
1.0714117e-06
-3.9434382e-06
1.053281e-06
-4.0587955e-06
1.0334699e-06
-4.1715784e-06
1.0120696e-06
-4.2816219e-06
9.891728e-07
-4.3887721e-06
9.6487356e-07
-4.4928868e-06
9.3926678e-07
-4.5938351e-06
9.1244772e-07
-4.6914971e-06
8.8451161e-07
-4.7857646e-06
8.5555333e-07
-4.8765402e-06
8.2566693e-07
-4.9637374e-06
7.9494539e-07
-5.0472805e-06
7.6348021e-07
-5.127104e-06
7.3136117e-07
-5.2031528e-06
6.9867602e-07
-5.2753815e-06
6.6551024e-07
-5.3437542e-06
6.3194682e-07
-5.4082441e-06
5.9806609e-07
-5.4688333e-06
5.6394546e-07
-5.5255122e-06
5.2965937e-07
-5.5782791e-06
4.9527914e-07
-5.62714e-06
4.6087277e-07
-5.672108e-06
4.2650502e-07
-5.713203e-06
3.9223723e-07
-5.7504512e-06
3.5812734e-07
-5.7838845e-06
3.242298e-07
-5.8135406e-06
2.9059572e-07
-5.839462e-06
2.5727268e-07
-5.861696e-06
2.243049e-07
-5.8802941e-06
1.9173323e-07
-5.8953117e-06
1.5959517e-07
-5.9068073e-06
1.2792495e-07
-5.9148431e-06
9.675356e-08
-5.9194835e-06
6.6108639e-08
-5.9207955e-06
3.6014273e-08
-5.9188439e-06
6.4816676e-09
-5.9137118e-06
-2.2432032e-08
-5.9054676e-06
-5.0749619e-08
-5.8941855e-06
-7.8445276e-08
-1.0550592e-07
-3.3673315e-09
3.2103375e-08
-1.3465873e-08
9.6281778e-08
-3.0271684e-08
1.6025583e-07
-5.3742114e-08
2.2385886e-07
-8.3813116e-08
2.8689428e-07
-1.2040071e-07
3.4917565e-07
-1.6340234e-07
4.1052815e-07
-2.1269747e-07
4.7078245e-07
-2.6814811e-07
5.2977496e-07
-3.2959938e-07
5.8734816e-07
-3.9688012e-07
6.433509e-07
-4.6980365e-07
6.9763879e-07
-5.4816849e-07
7.5007473e-07
-6.3175925e-07
8.0052927e-07
-7.2034752e-07
8.4888111e-07
-8.1369282e-07
8.9501743e-07
-9.1154361e-07
9.3883426e-07
-1.0136383e-06
9.8023682e-07
-1.1197065e-06
1.0191397e-06
-1.2294697e-06
1.0554672e-06
-1.3426429e-06
1.0891535e-06
-1.4589354e-06
1.1201425e-06
-1.5780518e-06
1.1483884e-06
-1.6996937e-06
1.1738552e-06
-1.8235601e-06
1.1965169e-06
-1.9493493e-06
1.2163576e-06
-2.076759e-06
1.2333709e-06
-2.2054884e-06
1.2475603e-06
-2.3352385e-06
1.2589384e-06
-2.4657135e-06
1.2675268e-06
-2.5966215e-06
1.2733563e-06
-2.7276756e-06
1.2764655e-06
-2.8585946e-06
1.2769016e-06
-2.9891041e-06
1.2747189e-06
-3.1189368e-06
1.2699792e-06
-3.2478336e-06
1.2627506e-06
-3.3755441e-06
1.2531077e-06
-3.5018273e-06
1.2411305e-06
-3.6264519e-06
1.2269041e-06
-3.7491967e-06
1.2105182e-06
-3.8698514e-06
1.1920665e-06
-3.9882167e-06
1.1716463e-06
-4.1041044e-06
1.1493576e-06
-4.2173377e-06
1.125303e-06
-4.3277517e-06
1.0995868e-06
-4.4351929e-06
1.0723148e-06
-4.5395197e-06
1.0435935e-06
-4.640602e-06
1.01353e-06
-4.7383216e-06
9.8223114e-07
-4.8325714e-06
9.498032e-07
-4.9232562e-06
9.1635166e-07
-5.0102914e-06
8.8198058e-07
-5.0936035e-06
8.467924e-07
-5.1731299e-06
8.108875e-07
-5.2488178e-06
7.7436395e-07
-5.3206248e-06
7.3731721e-07
-5.3885179e-06
6.9983991e-07
-5.4524734e-06
6.620216e-07
-5.5124765e-06
6.2394858e-07
-5.5685208e-06
5.8570372e-07
-5.620608e-06
5.4736632e-07
-5.6687473e-06
5.0901207e-07
-5.7129552e-06
4.7071284e-07
-5.7532546e-06
4.325367e-07
-5.7896752e-06
3.9454789e-07
-5.8222521e-06
3.5680674e-07
-5.8510261e-06
3.1936973e-07
-5.876043e-06
2.8228949e-07
-5.8973528e-06
2.4561478e-07
-5.9150102e-06
2.0939062e-07
-5.9290734e-06
1.736583e-07
-5.9396038e-06
1.384554e-07
-5.9466662e-06
1.0381595e-07
-5.9503278e-06
6.9770267e-08
-5.9506585e-06
3.6344919e-08
-5.9477258e-06
3.5489948e-09
-5.9416139e-06
-2.8543978e-08
-5.932392e-06
-5.9971504e-08
-5.9201369e-06
-9.0700366e-08
-1.2071735e-07
-3.4255846e-09
3.5528959e-08
-1.3698927e-08
1.0655512e-07
-3.0795903e-08
1.773528e-07
-5.467321e-08
2.4773616e-07
-8.5265346e-08
3.1748642e-07
-1.2248605e-07
3.8639635e-07
-1.6622975e-07
4.5427185e-07
-2.1637224e-07
5.2092494e-07
-2.7277126e-07
5.8617398e-07
-3.3526716e-07
6.4984406e-07
-4.0368357e-07
7.1176731e-07
-4.7782817e-07
7.7178339e-07
-5.5749345e-07
8.2974001e-07
-6.4245767e-07
8.8549349e-07
-7.3248573e-07
9.3890917e-07
-8.2733022e-07
9.8986192e-07
-9.2673242e-07
1.0382365e-06
-1.0304234e-06
1.0839278e-06
-1.1381251e-06
1.1268414e-06
-1.2495515e-06
1.1668937e-06
-1.3644099e-06
1.2040119e-06
-1.4824017e-06
1.2381344e-06
-1.603224e-06
1.2692107e-06
-1.7265707e-06
1.2972018e-06
-1.8521333e-06
1.3220795e-06
-1.9796025e-06
1.3438268e-06
-2.1086691e-06
1.3624376e-06
-2.2390252e-06
1.3779164e-06
-2.3703652e-06
1.3902783e-06
-2.5023868e-06
1.3995484e-06
-2.634792e-06
1.4057615e-06
-2.7672884e-06
1.4089619e-06
-2.8995893e-06
1.4092025e-06
-3.0314155e-06
1.406545e-06
-3.1624951e-06
1.4010588e-06
-3.2925651e-06
1.3928206e-06
-3.4213715e-06
1.3819141e-06
-3.54867e-06
1.368429e-06
-3.6742267e-06
1.3524607e-06
-3.7978183e-06
1.3341098e-06
-3.9192328e-06
1.3134809e-06
-4.0382693e-06
1.2906828e-06
-4.154739e-06
1.2658273e-06
-4.2684647e-06
1.2390287e-06
-4.3792814e-06
1.2104035e-06
-4.4870361e-06
1.1800694e-06
-4.5915878e-06
1.1481453e-06
-4.6928079e-06
1.1147501e-06
-4.7905793e-06
1.0800026e-06
-4.8847972e-06
1.044021e-06
-4.975368e-06
1.0069225e-06
-5.0622099e-06
9.6882246e-07
-5.1452519e-06
9.2983447e-07
-5.2244342e-06
8.9006975e-07
-5.2997071e-06
8.4963689e-07
-5.3710314e-06
8.086415e-07
-5.4383775e-06
7.6718598e-07
-5.5017252e-06
7.2536925e-07
-5.5610631e-06
6.8328652e-07
-5.6163886e-06
6.4102922e-07
-5.667707e-06
5.9868471e-07
-5.7150312e-06
5.5633629e-07
-5.7583813e-06
5.1406299e-07
-5.7977843e-06
4.7193963e-07
-5.833273e-06
4.3003668e-07
-5.8648866e-06
3.8842031e-07
-5.8926692e-06
3.4715234e-07
-5.9166701e-06
3.0629034e-07
-5.9369429e-06
2.6588756e-07
-5.9535453e-06
2.2599309e-07
-5.9665389e-06
1.8665184e-07
-5.9759882e-06
1.4790472e-07
-5.9819608e-06
1.0978855e-07
-5.9845266e-06
7.2336103e-08
-5.9837569e-06
3.5575204e-08
-5.9797335e-06
-4.7435946e-10
-5.9725234e-06
-3.5754105e-08
-5.9622088e-06
-7.0286111e-08
-5.9488674e-06
-1.0404176e-07
-1.3700681e-07
-3.4906674e-09
3.9019627e-08
-1.3959227e-08
1.1702368e-07
-3.1381095e-08
1.9477467e-07
-5.5711955e-08
2.7206703e-07
-8.6884509e-08
3.4865897e-07
-1.2480989e-07
4.2432174e-07
-1.6937918e-07
4.9884114e-07
-2.2046411e-07
5.7200986e-07
-2.7791772e-07
6.436276e-07
-3.415751e-07
7.1350145e-07
-4.1125409e-07
7.814463e-07
-4.8675608e-07
8.4728538e-07
-5.6786687e-07
9.108508e-07
-6.543576e-07
9.7198422e-07
-7.4598573e-07
1.0305373e-06
-8.4249605e-07
1.0863722e-06
-9.4362183e-07
1.1393622e-06
-1.0490859e-06
1.1893918e-06
-1.1586017e-06
1.2363573e-06
-1.2718748e-06
1.2801668e-06
-1.3886038e-06
1.3207408e-06
-1.5084815e-06
1.358012e-06
-1.6311964e-06
1.3919256e-06
-1.7564337e-06
1.4224392e-06
-1.8838768e-06
1.4495226e-06
-2.013208e-06
1.473158e-06
-2.1441101e-06
1.4933397e-06
-2.2762675e-06
1.5100738e-06
-2.409367e-06
1.5233779e-06
-2.5430993e-06
1.5332808e-06
-2.6771598e-06
1.539822e-06
-2.8112495e-06
1.5430516e-06
-2.9450761e-06
1.5430291e-06
-3.0783546e-06
1.5398236e-06
-3.2108086e-06
1.5335128e-06
-3.3421703e-06
1.5241824e-06
-3.4721819e-06
1.5119256e-06
-3.6005956e-06
1.4968427e-06
-3.7271745e-06
1.4790397e-06
-3.8516932e-06
1.4586284e-06
-3.9739374e-06
1.4357252e-06
-4.0937053e-06
1.4104506e-06
-4.2108068e-06
1.3829288e-06
-4.3250646e-06
1.3532865e-06
-4.4363136e-06
1.3216525e-06
-4.5444014e-06
1.2881572e-06
-4.6491881e-06
1.252932e-06
-4.7505461e-06
1.2161081e-06
-4.8483605e-06
1.1778169e-06
-4.9425282e-06
1.1381888e-06
-5.0329583e-06
1.0973526e-06
-5.1195716e-06
1.0554357e-06
-5.2023001e-06
1.012563e-06
-5.2810872e-06
9.6885684e-07