/*--------------------------------*- C++ -*----------------------------------*\
| =========                 |                                                 |
| \\      /  F ield         | OpenFOAM: The Open Source CFD Toolbox           |
|  \\    /   O peration     | Version:  2106                                  |
|   \\  /    A nd           | Website:  www.openfoam.com                      |
|    \\/     M anipulation  |                                                 |
\*---------------------------------------------------------------------------*/
FoamFile
{
    version     2.0;
    format      ascii;
    arch        "LSB;label=32;scalar=64";
    class       volScalarField;
    location    "0.09";
    object      p;
}
// * * * * * * * * * * * * * * * * * * * * * * * * * * * * * * * * * * * * * //

dimensions      [1 -1 -2 0 0 0 0];

internalField   nonuniform List<scalar> 
32768
(
437.40918
437.40799
437.37545
437.31431
437.2247
437.10595
436.9579
436.78053
436.57371
436.33727
436.0712
435.77546
435.44982
435.09405
434.70789
434.29107
433.84325
433.36411
432.85324
432.31023
431.73461
431.12586
430.48344
429.80675
429.09514
428.3479
427.56431
426.74352
425.88474
424.9869
424.04934
423.07037
422.05012
420.98541
419.87784
418.7234
417.52043
416.27626
414.96355
413.63134
412.20351
410.75875
409.24342
407.64556
406.03341
404.32033
402.54361
400.73002
398.8138
396.83538
394.79879
392.65742
390.4567
388.18306
385.79592
383.33099
380.80201
378.16668
375.41911
372.58732
369.66555
366.63772
363.50093
360.26234
356.91006
353.4398
349.87537
346.2004
342.39214
338.47088
334.44392
330.2936
326.01274
321.60927
317.09696
312.47668
307.72792
302.84328
297.83935
292.7289
287.5219
282.22439
276.82465
271.31056
265.68408
259.96804
254.19389
248.36777
242.49769
236.58078
230.60157
224.57493
218.52154
212.44242
206.36041
200.30696
194.26259
188.21525
182.22503
176.33532
170.53881
164.81513
159.11893
153.41288
147.71775
142.09623
136.59561
131.21646
126.02812
121.23076
116.85273
112.57776
108.02119
103.69392
99.894121
95.324578
91.048423
87.335219
84.107884
80.899388
77.507554
74.251293
71.198035
68.086931
64.894395
61.668082
58.388631
54.911594
51.002206
46.831302
42.529514
38.452521
35.409056
33.218977
26.908836
19.570264
26.728727
1.3342848
0.82642588
0.88539445
0.81077736
0.68877177
0.60462978
0.54255592
0.49382871
0.45421757
0.42107465
0.39274927
0.36814404
0.34649632
0.32725629
0.31001216
0.29444901
0.28031944
0.26742523
0.25560556
0.24472807
0.23468239
0.22537562
0.21672891
0.20867468
0.20115663
0.19411706
0.18751673
0.18131793
0.17548494
0.16998745
0.16480093
0.15989537
0.15525257
0.15085359
0.14668044
0.1427168
0.13894859
0.13536265
0.13194699
0.12869074
0.12558391
0.12261736
0.11978267
0.11707209
0.11447846
0.1119952
0.10961619
0.10733578
0.10514873
0.10305014
0.10103569
0.099100695
0.097241321
0.095454036
0.093735439
0.092082289
0.090491562
0.088960433
0.087486251
0.086066521
0.0846989
0.083381207
0.082111367
0.080887422
0.079707539
0.078569978
0.077473176
0.076415338
0.075395128
0.074411228
0.073462345
0.072547226
0.07166469
0.070813622
0.069992961
0.06920171
0.068438881
0.067703716
0.066995251
0.066312816
0.065655566
0.065022803
0.06441388
0.063827534
0.063263631
0.062722012
0.062201656
0.061702029
0.061222678
0.060763134
0.06032294
0.059901665
0.059498894
0.059114241
0.058747332
0.058397886
0.058065532
0.057749961
0.057450891
0.057168052
0.056901194
0.056650022
0.056414344
0.056193938
0.055988598
0.055798328
0.055622786
0.055461826
0.055315334
0.055183188
0.055065293
0.054961455
0.054871681
0.054795879
0.054734005
0.054686098
0.054652074
0.054631756
0.054625543
428.65912
428.65744
428.62534
428.56463
428.47485
428.35588
428.20766
428.03012
427.82318
427.58683
427.32078
427.02486
426.69891
426.34276
425.95615
425.53883
425.09047
424.61073
424.09924
423.55556
422.97923
422.36975
421.72656
421.04906
420.3366
419.58848
418.80396
417.98218
417.12241
416.22341
415.28486
414.30438
413.28332
412.21649
411.10853
409.95119
408.74871
407.50006
406.18955
404.85012
403.42382
401.97837
400.45213
398.86295
397.24617
395.5166
393.75854
391.93265
389.99922
388.03708
385.99367
383.83777
381.64079
379.36087
376.96758
374.50692
371.96549
369.31199
366.57123
363.74665
360.80443
357.75896
354.62499
351.38452
348.01987
344.54161
340.97034
337.28214
333.46244
329.53293
325.49885
321.34251
317.05199
312.63848
308.11552
303.47488
298.70486
293.8134
288.80938
283.69141
278.46892
273.14927
267.72937
262.20166
256.56773
250.8425
245.04899
239.21037
233.32831
227.40009
221.41976
215.38791
209.3206
203.22996
197.14212
191.07802
185.02802
179.00454
173.03474
167.12796
161.30082
155.56461
149.88996
144.22647
138.566
132.97101
127.51009
122.21536
117.11191
112.23496
107.61935
103.17282
98.677529
94.311645
89.955419
86.027948
82.23166
78.713241
75.448631
72.135327
68.741574
65.69254
62.725987
59.626459
56.379506
53.060198
49.664552
46.120539
42.369293
38.435534
33.998844
30.072361
26.558102
22.373725
16.714925
26.572673
3.9094003
0.60722529
0.70031179
0.77141359
0.70529959
0.63066678
0.56887185
0.51721807
0.47390059
0.43728229
0.40593425
0.37876243
0.35493513
0.33383423
0.31499531
0.29804964
0.28271633
0.26877035
0.25602291
0.24432203
0.23354205
0.22357731
0.21433835
0.20574855
0.19774217
0.19026137
0.18326151
0.17669523
0.17052411
0.16471559
0.15923959
0.15406791
0.14918091
0.14455413
0.14016864
0.1360084
0.13205581
0.12829704
0.1247197
0.1213119
0.11806278
0.11496245
0.11200182
0.10917253
0.10646687
0.10387776
0.10139864
0.099023436
0.096746528
0.094562721
0.092467181
0.090455546
0.088522923
0.086665854
0.084880776
0.083164221
0.081512959
0.079923984
0.078394485
0.076921817
0.075503499
0.074137191
0.072820734
0.071552048
0.070329181
0.069150311
0.068013729
0.066917853
0.065860761
0.064841305
0.063858148
0.062909961
0.061995491
0.061113564
0.060263068
0.059442948
0.058652196
0.057889861
0.057155142
0.056447094
0.05576505
0.055108129
0.054475557
0.053866628
0.053281123
0.052718134
0.052176473
0.051656191
0.051156763
0.050677638
0.050218314
0.049778331
0.049357254
0.048954671
0.048570195
0.048203472
0.047854163
0.047521949
0.047206511
0.046907568
0.046624856
0.046358118
0.046107049
0.045871483
0.045651227
0.045446099
0.045255782
0.045080244
0.044919323
0.044772865
0.044640744
0.044522835
0.044419102
0.044329392
0.044253632
0.044191789
0.044143798
0.044109661
0.044089267
0.044083053
419.89684
419.89489
419.86275
419.80194
419.71191
419.5926
419.444
419.26605
419.05868
418.82181
418.55537
418.25908
417.93276
417.57618
417.18912
416.7713
416.3224
415.84207
415.32992
414.78551
414.20839
413.59803
412.95388
412.27534
411.56176
410.81242
410.0266
409.20341
408.34215
407.4415
406.5013
405.51882
404.49609
403.42653
402.3174
401.15595
399.95362
398.69898
397.38981
396.04334
394.61642
393.16728
391.63268
390.0475
388.41874
386.68789
384.93171
383.08511
381.15859
379.19601
377.12613
374.97861
372.78046
370.47386
368.08134
365.62332
363.05877
360.39219
357.65736
354.81838
351.85291
348.80465
345.66218
342.40159
339.02477
335.53826
331.94785
328.23829
324.40446
320.46216
316.41356
312.23531
307.92235
303.49569
298.95415
294.28303
289.48798
284.58223
279.56156
274.42135
269.17185
263.81838
258.3645
252.80903
247.15254
241.40934
235.60463
229.75277
223.8471
217.89164
211.87776
205.81036
199.72088
193.62076
187.52929
181.47346
175.44546
169.44147
163.47127
157.54751
151.70797
145.96997
140.30464
134.68285
129.09617
123.57958
118.1805
112.91557
107.81045
102.89566
98.192525
93.652715
89.201121
84.896874
80.737408
76.806359
73.121454
69.714291
66.513104
63.371798
60.062885
57.159397
54.279796
51.303267
48.090434
44.835714
41.335355
37.700477
33.790652
29.960586
25.864072
22.854295
16.907885
16.217118
25.033394
2.9925437
0.1871374
0.4870532
0.60826878
0.62642095
0.603343
0.56390794
0.52173738
0.48198075
0.44609478
0.41420296
0.38597019
0.36091768
0.33858941
0.31858624
0.30056873
0.28426156
0.26942895
0.25587593
0.24344722
0.23200895
0.22144718
0.21166536
0.20258114
0.19412324
0.18623085
0.17884845
0.1719321
0.16544016
0.15933467
0.15358335
0.14815809
0.1430325
0.13818541
0.13359456
0.12924158
0.12510909
0.12118297
0.1174491
0.11389378
0.11050569
0.10727454
0.10419065
0.10124506
0.098429556
0.095736566
0.093159107
0.090690718
0.088325416
0.086057651
0.083882254
0.081794398
0.079789447
0.077863946
0.076013531
0.07423445
0.072523404
0.070877266
0.069293072
0.067768045
0.06629956
0.064885153
0.063522475
0.062209483
0.060944051
0.059724218
0.058548158
0.057414132
0.05632046
0.055265992
0.054248975
0.053268008
0.052321844
0.051409275
0.050529142
0.049680341
0.048861843
0.048072692
0.047312016
0.046578582
0.045871841
0.045190864
0.044534987
0.043903479
0.043295622
0.042710898
0.04214852
0.041607979
0.041088651
0.04059005
0.040111681
0.039653066
0.039213751
0.038793306
0.03839133
0.038007451
0.037641306
0.037292462
0.036960671
0.036645658
0.036347119
0.036064766
0.035798336
0.035547655
0.035312439
0.035092481
0.034887592
0.034697568
0.034522273
0.034361567
0.034215307
0.034083356
0.033965607
0.03386198
0.033772367
0.033696703
0.033634913
0.03358695
0.033552789
0.033532415
0.033526258
411.1223
411.12006
411.08771
411.02662
410.93619
410.81638
410.6672
410.48859
410.28048
410.04278
409.77537
409.47805
409.15062
408.79284
408.40447
407.98523
407.53479
407.05281
406.5389
405.99263
405.41353
404.80109
404.15473
403.47387
402.75783
402.0059
401.21735
400.39128
399.52697
398.62311
397.6795
396.69343
395.66687
394.59327
393.47995
392.31365
391.10751
389.84605
388.53476
387.1789
385.74911
384.29245
382.74721
381.16129
379.52072
377.77973
376.02126
374.16069
372.22318
370.25723
368.16993
366.01186
363.80568
361.482
359.07582
356.60729
354.02458
351.34025
348.59378
345.73458
342.74643
339.68336
336.52258
333.23535
329.83646
326.32948
322.71132
318.97354
315.11671
311.15195
307.0695
302.84997
298.50762
294.05854
289.48574
284.77919
279.95174
275.01287
269.95389
264.77244
259.47665
254.07312
248.57177
242.98089
237.30278
231.53863
225.70268
219.80622
213.84717
207.83194
201.7682
195.67235
189.56543
183.45958
177.3705
171.31625
165.29222
159.30935
153.37125
147.45439
141.58472
135.81353
130.1569
124.6156
119.1365
113.71022
108.39806
103.21494
98.17228
93.258494
88.490671
83.89165
79.436179
75.145416
71.06666
67.260701
63.687266
60.374606
57.480887
54.84292
52.073867
48.989448
46.135017
43.098598
39.867648
36.490241
32.848504
29.20078
25.298694
21.487271
16.55956
7.1482445
10.27495
23.814868
1.3173052
0.16872059
0.24891805
0.39591512
0.47578523
0.51088886
0.51207602
0.49433715
0.46848734
0.44025718
0.41236849
0.38607265
0.36178338
0.33955844
0.31931033
0.30087348
0.28405671
0.26868937
0.25460051
0.2416461
0.2297062
0.21867167
0.20844664
0.1989483
0.19010463
0.18185271
0.17413743
0.1669102
0.16012746
0.15375133
0.14774842
0.14208784
0.13674273
0.13169073
0.12690764
0.12237482
0.1180734
0.11398645
0.11010169
0.10640627
0.10288577
0.099529042
0.096326668
0.093269167
0.090347766
0.087554463
0.084881889
0.082323232
0.079872186
0.077522902
0.075269952
0.073108275
0.071033186
0.069040263
0.0671257
0.065285453
0.063515922
0.061813803
0.060176003
0.058599597
0.057081883
0.05562026
0.054212276
0.052855579
0.051548215
0.05028812
0.049073273
0.047901896
0.04677231
0.045682902
0.044632306
0.043618958
0.042641494
0.041698649
0.040789215
0.039912044
0.039066041
0.038250172
0.037463451
0.036704933
0.035973875
0.03526938
0.03459047
0.033936532
0.033306895
0.032700882
0.032117639
0.031556671
0.031017569
0.030499674
0.030002411
0.029525296
0.029067864
0.028629666
0.028210276
0.027809284
0.027426305
0.027060984
0.02671302
0.026382073
0.026067822
0.025769984
0.025488291
0.025222487
0.024972364
0.024737668
0.02451819
0.024313748
0.024124161
0.023949276
0.023788934
0.023642996
0.023511349
0.023393872
0.023290453
0.023201019
0.023125499
0.023063823
0.023015945
0.022981853
0.022961569
0.022955544
402.33558
402.33305
402.30034
402.2388
402.1478
402.0273
401.87733
401.69781
401.48869
401.24986
400.98118
400.68248
400.35356
399.99419
399.6041
399.18303
398.73063
398.24656
397.73043
397.1818
396.6002
395.9851
395.33596
394.65214
393.93299
393.17777
392.38574
391.55601
390.68782
389.77987
388.83189
387.84127
386.80976
385.73105
384.61225
383.43996
382.2282
380.95927
379.64274
378.27767
376.84215
375.37519
373.82142
372.22827
370.57305
368.82599
367.05552
365.17873
363.23445
361.25628
359.14609
356.9772
354.76242
352.41565
349.986
347.50636
344.90525
342.19788
339.42895
336.54221
333.53256
330.44906
327.26417
323.94091
320.50757
316.97376
313.3298
309.55891
305.66053
301.6622
297.53973
293.26926
288.88532
284.40314
279.79278
275.04295
270.17279
265.18585
260.06663
254.82807
249.48285
244.02685
238.47133
232.83167
227.11153
221.30478
215.41665
209.45453
203.42572
197.34675
191.2347
185.113
179.0014
172.89881
166.79327
160.70898
154.66041
148.65838
142.71697
136.82589
131.01407
125.30185
119.67444
114.18194
108.82108
103.56436
98.396976
93.285345
88.241235
83.293225
78.484393
73.865209
69.467295
65.250914
61.23487
57.531226
54.176906
51.085954
48.316884
45.880145
43.427169
40.779686
38.134652
35.073072
31.701714
28.343843
24.662957
20.767258
16.414806
8.1883546
8.5483657
14.173546
3.6809475
0.19068363
0.0084260145
0.14233357
0.22890037
0.31549195
0.38381789
0.42221338
0.43302007
0.42820476
0.41422987
0.39559863
0.37511622
0.35441436
0.33434173
0.3153204
0.29752496
0.28098471
0.26565835
0.2514671
0.23832717
0.22615205
0.21485313
0.20435024
0.19457089
0.18544953
0.17692701
0.16895087
0.16147275
0.15445418
0.1478533
0.14163397
0.13576903
0.13023329
0.12499912
0.12004401
0.11534779
0.11089178
0.10666024
0.1026388
0.098812686
0.095168406
0.091695027
0.088382103
0.085219603
0.082198446
0.079310335
0.076547602
0.073903151
0.071370411
0.068943284
0.066616111
0.064383632
0.062240947
0.060183504
0.058207041
0.056307646
0.054481548
0.052725251
0.051035492
0.049409237
0.047843589
0.046336018
0.044883946
0.043484944
0.042136863
0.040837297
0.03958438
0.038376392
0.037211535
0.036088116
0.035004555
0.033959394
0.032951194
0.031978612
0.031040387
0.030135323
0.029262288
0.028420187
0.027608003
0.026824767
0.026069549
0.025341622
0.024640097
0.023964044
0.023312765
0.022685606
0.022081872
0.021500979
0.020942284
0.020405248
0.019889278
0.019393856
0.01891849
0.018462713
0.01802608
0.017608166
0.017208568
0.016826905
0.01646283
0.016116047
0.015786216
0.015473012
0.015176156
0.014895386
0.014630451
0.014381122
0.014147172
0.013928393
0.013724593
0.013535609
0.013361267
0.013201414
0.013055934
0.012924696
0.01280759
0.012704497
0.012615325
0.012540022
0.012478526
0.012430788
0.012396816
0.012376631
0.012370698
393.53695
393.53407
393.50089
393.43875
393.34701
393.22565
393.07467
392.89402
392.68362
392.44336
392.17311
391.87269
391.54191
391.18053
390.7883
390.36492
389.91007
389.42338
388.90446
388.35288
387.76814
387.14972
386.49706
385.80952
385.08644
384.32707
383.53065
382.69629
381.82318
380.91008
379.95657
378.96024
377.92244
376.83746
375.71143
374.5321
373.31246
372.03493
370.71087
369.33473
367.89171
366.41233
364.8477
363.24493
361.57233
359.81671
358.03063
356.13545
354.18312
352.1822
350.05173
347.87233
345.63262
343.26125
340.81631
338.31027
335.6807
332.95383
330.15623
327.23256
324.19716
321.08833
317.86879
314.50086
311.03076
307.46482
303.78362
299.97074
296.02241
291.9758
287.8002
283.47839
279.0458
274.5144
269.85385
265.04553
260.11341
255.0627
249.87593
244.57222
239.17167
233.65669
228.03229
222.32476
216.53676
210.65354
204.6895
198.65303
192.54614
186.4067
180.25467
174.1052
167.97479
161.85085
155.71955
149.59067
143.47402
137.43686
131.50795
125.63542
119.85138
114.21943
108.71063
103.36418
98.131976
93.00319
87.957955
82.95656
78.082354
73.155456
68.243253
63.510412
59.007475
54.851487
51.053324
47.515745
44.298332
41.490275
39.064486
37.054354
34.830978
32.161518
29.91303
27.387321
23.72759
20.414077
16.316507
8.3417262
6.4736227
7.940678
4.4316598
0.50858519
-0.081554857
-0.065076347
0.022197776
0.11269437
0.18661282
0.25619601
0.3137815
0.34764633
0.36384459
0.36707071
0.36144155
0.35034306
0.33621348
0.32066131
0.30470721
0.2889655
0.27377511
0.25931175
0.24565359
0.2328165
0.22078561
0.20952398
0.1989848
0.18911919
0.1798785
0.17121562
0.16308595
0.15544833
0.14826427
0.14150002
0.1351214
0.12910002
0.1234103
0.11802747
0.11292956
0.10809649
0.10351016
0.099154056
0.095012406
0.091071319
0.087317677
0.083738685
0.08032522
0.077067812
0.073955769
0.070980616
0.068134666
0.065410674
0.062801882
0.06030202
0.057905257
0.055606169
0.053399706
0.051281157
0.049246131
0.047290524
0.04541051
0.04360248
0.041863054
0.040189055
0.038577532
0.037025598
0.03553089
0.034091001
0.032703385
0.031365981
0.030076432
0.028832928
0.027633808
0.02647731
0.025361772
0.024285649
0.023247488
0.022245898
0.021279564
0.020347251
0.019447783
0.01858006
0.017742953
0.016935508
0.016156795
0.015405903
0.014681925
0.013984021
0.013311587
0.012663823
0.012039951
0.011439318
0.010861348
0.01030544
0.00977102
0.0092575362
0.0087644767
0.0082913517
0.0078376967
0.0074030704
0.0069870565
0.0065892644
0.0062093273
0.0058468857
0.0055016077
0.0051731677
0.0048612923
0.0045656957
0.0042861093
0.004022284
0.0037739888
0.0035410038
0.0033231248
0.0031201617
0.0029319431
0.0027583052
0.0025991026
0.0024541959
0.0023234823
0.0022068298
0.0021041397
0.0020153313
0.0019403307
0.0018790738
0.0018315336
0.0017977015
0.0017776196
0.0017717405
384.7268
384.72349
384.68974
384.62685
384.53422
384.41181
384.25962
384.07759
383.86565
383.62369
383.35156
383.04909
382.71608
382.35231
381.9575
381.53136
381.07357
380.58375
380.0615
379.50637
378.91788
378.29549
377.63862
376.94664
376.21886
375.45454
374.65287
373.81298
372.93401
372.01476
371.05466
370.05152
369.00623
367.91376
366.77915
365.59143
364.36226
363.0748
361.74102
360.3526
358.89967
357.40617
355.82905
354.21317
352.52181
350.75524
348.94953
347.03444
345.07091
343.04221
340.88964
338.69552
336.42767
334.02614
331.56044
329.0261
326.36596
323.6089
320.77145
317.8153
314.75426
311.6022
308.33258
304.92634
301.41472
297.80611
294.08113
290.20883
286.20147
282.10449
277.86318
273.48293
269.00166
264.40007
259.66163
254.78349
249.78315
244.65474
239.39353
234.02562
228.55193
222.9592
217.24863
211.44251
205.56161
199.5869
193.53005
187.41679
181.25085
175.06333
168.86091
162.65787
156.45646
150.24448
144.04957
137.88978
131.73286
125.68337
119.78508
113.96376
108.2638
102.70256
97.252045
92.014746
86.976661
82.054944
77.182626
72.240635
67.345367
62.538564
57.726261
53.096176
48.577085
44.221518
40.302723
36.696119
33.988144
32.071961
29.755032
27.640264
26.438365
25.075153
23.092458
20.234742
15.330158
9.7237717
8.1336317
7.1917134
4.5644047
0.62604864
-0.11336894
-0.14926217
-0.089052406
-0.027254901
0.026362755
0.08841429
0.14991889
0.20757954
0.25330102
0.284718
0.30329187
0.31128608
0.31136841
0.30597601
0.29704402
0.2859878
0.27382078
0.26122053
0.2486165
0.23627985
0.22437442
0.2129889
0.20216439
0.19191144
0.18222164
0.17307565
0.16444815
0.15631076
0.14863402
0.14138853
0.13454631
0.12807859
0.12196183
0.11617325
0.11068916
0.10548849
0.10055332
0.09586585
0.091410205
0.087171976
0.083136431
0.07929073
0.075623665
0.072124525
0.068783907
0.06559161
0.062539378
0.059619285
0.056823949
0.054146523
0.05158064
0.049120373
0.046760201
0.044494977
0.042319899
0.040230479
0.038222521
0.036292095
0.034435524
0.032649355
0.030930341
0.029275439
0.027681787
0.026146687
0.024667642
0.023242253
0.021868265
0.020543525
0.019266143
0.018034273
0.016846004
0.015699674
0.014593711
0.013526616
0.012496967
0.011503413
0.010544671
0.009619537
0.0087268703
0.0078655924
0.0070345948
0.0062328972
0.005459637
0.0047139198
0.0039948189
0.0033015805
0.0026335487
0.0019899737
0.0013701044
0.00077328652
0.00019887588
-0.00035373933
-0.0008849774
-0.0013954199
-0.0018855971
-0.0023559937
-0.0028070652
-0.0032392442
-0.0036529398
-0.0040485371
-0.0044264015
-0.004786877
-0.0051303192
-0.0054570139
-0.0057672507
-0.0060613085
-0.0063394506
-0.0066019226
-0.006848953
-0.0070807575
-0.0072975383
-0.0074994837
-0.0076867666
-0.0078595454
-0.0080179639
-0.0081621546
-0.0082922456
-0.0084083349
-0.0085105222
-0.008598891
-0.008673523
-0.0087344785
-0.008781782
-0.0088154407
-0.0088354118
-0.0088412496
375.90555
375.90176
375.86732
375.80355
375.70987
375.58623
375.43263
375.249
375.03527
374.79132
374.517
374.21215
373.87657
373.51
373.1122
372.68286
372.22164
371.72817
371.20204
370.6428
370.04995
369.42294
368.76118
368.06403
367.33079
366.5607
365.75294
364.90661
364.02084
363.09443
362.12669
361.11563
360.06167
358.96048
357.8159
356.61852
355.37804
354.07938
352.73378
351.33148
349.86684
348.35684
346.7656
345.13384
343.42114
341.64238
339.81214
337.8758
335.89857
333.8345
331.66073
329.45041
327.14134
324.71032
322.22577
319.65121
316.95293
314.16304
311.28666
308.28925
305.19161
301.99033
298.66192
295.2203
291.66105
287.99216
284.21002
280.27689
276.20284
272.04249
267.73693
263.2861
258.73485
254.05148
249.21925
244.25617
239.1818
233.9708
228.62319
223.18231
217.60879
211.90158
206.08872
200.1762
194.18321
188.1106
181.96938
175.76241
169.51228
163.25456
156.96534
150.67834
144.38137
138.05667
131.79687
125.61584
119.4487
113.4312
107.54063
101.72703
96.130269
90.667637
85.261623
80.123186
75.242557
70.603177
65.939091
61.180237
56.543096
51.539366
46.516167
41.928257
37.404926
33.201861
29.502445
25.483318
22.48846
20.69042
19.708328
18.789534
17.428803
15.78531
13.506199
11.037117
8.6872274
11.02174
4.4331414
0.40613067
-0.26012321
-0.29784836
-0.19277858
-0.15707523
-0.099986744
-0.042753091
0.0086779494
0.062434295
0.11562509
0.16279351
0.20163362
0.23059447
0.24983153
0.26058199
0.26453747
0.26336711
0.2585514
0.25126928
0.24243716
0.23271282
0.22255933
0.21229914
0.20214764
0.1922438
0.18267263
0.17348388
0.1647011
0.15633139
0.14837133
0.1408104
0.13363379
0.126824
0.12036271
0.11423026
0.1084095
0.10288237
0.097630469
0.092637071
0.087887059
0.08336582
0.079059862
0.074955011
0.071040166
0.067305644
0.063739387
0.06033181
0.05707399
0.053957684
0.050975071
0.048118836
0.045382188
0.042758791
0.040242724
0.037828458
0.035510829
0.033285005
0.031146464
0.029090968
0.027114547
0.025213474
0.023384257
0.021623612
0.01992844
0.018295848
0.01672308
0.015207657
0.013746921
0.012338509
0.010980531
0.009670895
0.0084077972
0.0071893059
0.006013656
0.0048792241
0.0037844799
0.002727968
0.0017083074
0.00072418551
-0.00022564224
-0.0011423588
-0.0020270876
-0.0028808958
-0.0037047439
-0.0044995738
-0.0052663878
-0.0060060232
-0.006719302
-0.007406992
-0.0080698377
-0.0087085916
-0.0093238736
-0.0099163289
-0.010486563
-0.011035123
-0.011562577
-0.012069426
-0.012556212
-0.013023399
-0.013471429
-0.013900727
-0.014311693
-0.014704709
-0.015080135
-0.015438312
-0.015779571
-0.016104209
-0.016412513
-0.016704756
-0.016981196
-0.017242072
-0.017487609
-0.017718022
-0.01793351
-0.018134259
-0.018320438
-0.018492203
-0.018649696
-0.018793047
-0.018922384
-0.019037807
-0.0191394
-0.019227262
-0.019301466
-0.019362062
-0.019409094
-0.019442546
-0.019462394
-0.019468192
367.07372
367.06937
367.03415
366.96938
366.8745
366.74945
366.59423
366.40878
366.19301
365.9468
365.67
365.36245
365.02392
364.65419
364.25298
363.81999
363.35488
362.85726
362.32672
361.76279
361.16498
360.53272
359.86541
359.16239
358.42294
357.6463
356.83162
355.97799
355.0845
354.14996
353.17356
352.15348
351.08974
349.97857
348.82282
347.6143
346.36122
345.04963
343.69069
342.27269
340.7943
339.26637
337.65809
336.00886
334.27272
332.47789
330.62181
328.6616
326.66434
324.56497
322.36807
320.13192
317.78183
315.31913
312.80699
310.18881
307.44658
304.6223
301.69914
298.65365
295.51428
292.25863
288.8637
285.37871
281.76457
278.03399
274.1775
270.16912
266.03234
261.79972
257.4173
252.88674
248.24595
243.46508
238.5345
233.47751
228.31435
223.01355
217.56479
212.02505
206.32715
200.48961
194.55881
188.52752
182.42709
176.24376
169.99856
163.68365
157.31933
150.95089
144.51956
138.12092
131.72899
125.30928
119.0284
112.813
106.61103
100.65622
94.754709
88.838642
83.263956
77.949766
72.709918
67.669428
63.005883
58.660987
54.293083
49.675245
45.236506
40.417249
35.344917
30.577895
25.548889
21.059051
17.610565
13.051444
11.50801
11.224144
10.429939
10.452479
9.2432233
7.5685883
10.720978
8.7872163
2.4395645
-0.17409214
-0.40886687
-0.39744572
-0.31598375
-0.28920824
-0.22282644
-0.16758124
-0.11345366
-0.06161427
-0.01214689
0.03634805
0.081693755
0.12225567
0.15638346
0.18302497
0.20215926
0.21447152
0.22099992
0.22290249
0.22128289
0.21709834
0.21112206
0.20394922
0.19604151
0.18773784
0.17927975
0.17083262
0.16251646
0.1544111
0.14656343
0.13900274
0.13174493
0.12479559
0.11815345
0.11181237
0.10576388
0.099995453
0.094496468
0.089256222
0.084260307
0.079495153
0.074949406
0.07061248
0.066472078
0.062517744
0.058740132
0.055128368
0.051674026
0.048368285
0.04520351
0.042172926
0.039268802
0.036484573
0.033814152
0.031251778
0.028792027
0.02642981
0.024160352
0.021979171
0.019882059
0.017865053
0.015924434
0.014056697
0.012258572
0.010526959
0.0088589189
0.0072517144
0.0057026987
0.0042095146
0.0027695287
0.0013807121
4.1127436e-05
-0.0012512122
-0.0024980742
-0.0037012711
-0.0048625051
-0.0059833463
-0.0070652717
-0.0081096866
-0.0091179246
-0.010091254
-0.011030881
-0.011937951
-0.012813549
-0.013658715
-0.014474347
-0.01526142
-0.016020891
-0.016753559
-0.017460222
-0.018141613
-0.018798556
-0.019431677
-0.020041622
-0.020629008
-0.021194394
-0.021738339
-0.022261468
-0.022764262
-0.023247182
-0.02371069
-0.024155229
-0.024581218
-0.02498905
-0.0253791
-0.025751723
-0.026107253
-0.026446009
-0.026768289
-0.027074373
-0.02736453
-0.027639011
-0.027898053
-0.028141875
-0.028370689
-0.028584691
-0.028784065
-0.028968974
-0.029139572
-0.029295998
-0.029438391
-0.029566852
-0.029681499
-0.02978242
-0.029869695
-0.0299434
-0.030003596
-0.030050304
-0.030083533
-0.030103244
-0.030108999
358.23188
358.22691
358.19082
358.12493
358.02869
357.90207
357.74504
357.55754
357.33949
357.09075
356.81118
356.50059
356.15879
355.78551
355.3805
354.94343
354.47396
353.9717
353.43623
352.86707
352.26371
351.62558
350.95206
350.24249
349.49611
348.71216
347.88976
347.02798
346.12587
345.18226
344.19622
343.16605
342.09142
340.96908
339.80092
338.57997
337.31276
335.98699
334.61264
333.17776
331.6833
330.13552
328.50897
326.83822
325.07871
323.26365
321.37796
319.3946
317.37054
315.23252
313.01433
310.74378
308.3458
305.85676
303.30599
300.63925
297.84981
294.98372
292.01315
288.9148
285.71739
282.40173
278.94575
275.40782
271.73048
267.91456
263.98235
259.89851
255.69334
251.37681
246.90073
242.27535
237.53046
232.64463
227.61503
222.45318
217.18552
211.77481
206.20425
200.54122
194.6879
188.72006
182.68041
176.51849
170.28875
163.96983
157.59438
151.12021
144.59838
138.10443
131.50574
125.03304
118.56527
112.01817
105.73103
99.431409
93.129706
87.169422
81.287713
75.36602
69.703927
64.335321
59.212371
54.471394
50.169021
46.023902
41.987868
37.919903
34.07989
29.351518
23.821687
18.683096
14.061482
9.5025654
4.064545
-1.0275231
-0.70408424
0.05214089
1.8765134
2.8648588
1.9427968
0.97878872
-0.17092099
-0.48914138
-0.41902132
-0.40656964
-0.40040774
-0.38093734
-0.327236
-0.28154321
-0.22752622
-0.17615014
-0.12658099
-0.078734824
-0.033367574
0.0096782636
0.049630153
0.085392023
0.11590702
0.14054656
0.15924403
0.17236911
0.18058404
0.18470649
0.18554444
0.18385149
0.18026176
0.17530343
0.1694069
0.16290173
0.1560328
0.14898445
0.14189531
0.13485951
0.12794707
0.12120589
0.11466692
0.10834918
0.10226329
0.096413315
0.090799349
0.085417059
0.08026271
0.075328567
0.070605835
0.066087677
0.0617649
0.057626642
0.053666072
0.049875677
0.046245771
0.042768796
0.039437185
0.036243732
0.033182294
0.030245352
0.027427337
0.02472248
0.022125217
0.019630337
0.017232941
0.01492841
0.012712391
0.010580779
0.0085297004
0.0065554909
0.0046547112
0.0028240686
0.0010605743
-0.00063865972
-0.0022764447
-0.0038553221
-0.0053778605
-0.0068462339
-0.0082628592
-0.0096298127
-0.010948825
-0.012221808
-0.013450534
-0.014636562
-0.015781638
-0.016887252
-0.017954811
-0.018985661
-0.019981082
-0.020942298
-0.02187047
-0.022766705
-0.023632046
-0.024467485
-0.025273931
-0.026052306
-0.026803498
-0.027528344
-0.028227591
-0.028901962
-0.029552188
-0.030178954
-0.030782849
-0.031364483
-0.031924403
-0.03246323
-0.032981509
-0.033479747
-0.033958313
-0.034417674
-0.034858277
-0.035280535
-0.035684834
-0.036071541
-0.036441004
-0.036793549
-0.037129487
-0.037449108
-0.037752689
-0.038040492
-0.038312766
-0.038569742
-0.038811629
-0.039038639
-0.039250967
-0.03944879
-0.039632263
-0.039801544
-0.039956775
-0.040098065
-0.040225556
-0.040339321
-0.040439474
-0.040526094
-0.040599243
-0.040658982
-0.040705336
-0.040738311
-0.040757869
-0.040763575
349.38068
349.37504
349.33799
349.27085
349.17312
349.04475
348.88573
348.69597
348.4754
348.22387
347.94123
347.62731
347.28188
346.9047
346.49548
346.05391
345.57964
345.07227
344.53136
343.95643
343.34696
342.70236
342.02201
341.3052
340.55121
339.7592
338.9283
338.05756
337.14597
336.19237
335.19573
334.15444
333.06788
331.93318
330.75148
329.51672
328.23415
326.89258
325.50142
324.04778
322.53567
320.96592
319.31924
317.62484
315.83962
314.00137
312.08405
310.07447
308.01899
305.8433
303.59642
301.28831
298.83925
296.32144
293.72687
291.00075
288.16863
285.25354
282.22708
279.06763
275.80781
272.42818
268.91379
265.30026
261.55001
257.64715
253.63472
249.47106
245.18373
240.76337
236.18339
231.4599
226.59893
221.59737
216.46059
211.18296
205.79011
200.24202
194.52743
188.72765
182.71765
176.62648
170.44831
164.12782
157.75267
151.25668
144.71453
138.04715
131.3622
124.7465
117.94517
111.39607
104.85935
98.194574
91.864612
85.393138
78.950636
72.951799
66.935851
61.09953
55.610148
50.156388
44.772675
40.136977
36.287813
32.53435
29.272073
25.583418
22.565473
18.36344
12.213908
8.4742785
2.6002034
0.78477571
-0.79140256
-0.45183639
-0.57077577
-0.56750568
-0.56276999
-0.54064955
-0.49946011
-0.4674547
-0.47896061
-0.47269271
-0.44902649
-0.41561433
-0.39002691