/*--------------------------------*- C++ -*----------------------------------*\
| =========                 |                                                 |
| \\      /  F ield         | OpenFOAM: The Open Source CFD Toolbox           |
|  \\    /   O peration     | Version:  2106                                  |
|   \\  /    A nd           | Website:  www.openfoam.com                      |
|    \\/     M anipulation  |                                                 |
\*---------------------------------------------------------------------------*/
FoamFile
{
    version     2.0;
    format      ascii;
    arch        "LSB;label=32;scalar=64";
    class       volScalarField;
    location    "0.09";
    object      p_rgh;
}
// * * * * * * * * * * * * * * * * * * * * * * * * * * * * * * * * * * * * * //

dimensions      [1 -1 -2 0 0 0 0];

internalField   nonuniform List<scalar> 
32768
(
441.77688
441.77569
441.74315
441.68202
441.5924
441.47365
441.3256
441.14823
440.94141
440.70498
440.43891
440.14317
439.81753
439.46175
439.0756
438.65877
438.21095
437.73181
437.22094
436.67793
436.10231
435.49356
434.85114
434.17445
433.46284
432.7156
431.93201
431.11122
430.25244
429.3546
428.41704
427.43808
426.41782
425.35311
424.24554
423.0911
421.88814
420.64396
419.33125
417.99905
416.57121
415.12646
413.61112
412.01326
410.40112
408.68803
406.91131
405.09772
403.1815
401.20309
399.16649
397.02512
394.8244
392.55076
390.16362
387.6987
385.16971
382.53439
379.78681
376.95502
374.03325
371.00542
367.86863
364.63004
361.27776
357.8075
354.24307
350.5681
346.75984
342.83858
338.81162
334.6613
330.38044
325.97697
321.46466
316.84438
312.09562
307.21099
302.20705
297.0966
291.8896
286.59209
281.19236
275.67826
270.05178
264.33574
258.56159
252.73547
246.86539
240.94848
234.96927
228.94263
222.88924
216.81012
210.72811
204.67467
198.63029
192.58295
186.59273
180.70302
174.90652
169.18283
163.48664
157.78058
152.08545
146.46394
140.96332
135.58416
130.39582
125.59846
121.22043
116.94546
112.38889
108.06162
104.26182
99.692279
95.416125
91.70292
88.475585
85.26709
81.875256
78.618995
75.565737
72.454633
69.262097
66.035784
62.756332
59.279295
55.369907
51.199003
46.897216
42.820222
39.776757
37.586678
31.276537
23.937966
30.677221
1.6653469
0.83169404
0.8906626
0.81604552
0.69403993
0.60989794
0.54782408
0.49909686
0.45948573
0.42634281
0.39801743
0.3734122
0.35176447
0.33252445
0.31528032
0.29971717
0.2855876
0.27269339
0.26087372
0.24999623
0.23995054
0.23064378
0.22199707
0.21394283
0.20642479
0.19938521
0.19278489
0.18658609
0.1807531
0.17525561
0.17006909
0.16516353
0.16052072
0.15612175
0.15194859
0.14798496
0.14421674
0.1406308
0.13721515
0.13395889
0.13085207
0.12788552
0.12505083
0.12234025
0.11974662
0.11726336
0.11488435
0.11260394
0.11041689
0.1083183
0.10630385
0.10436885
0.10250948
0.10072219
0.099003597
0.097350447
0.09575972
0.094228592
0.092754409
0.091334679
0.089967058
0.088649365
0.087379526
0.086155581
0.084975698
0.083838136
0.082741334
0.081683496
0.080663287
0.079679387
0.078730503
0.077815384
0.076932849
0.076081781
0.075261119
0.074469868
0.07370704
0.072971874
0.072263409
0.071580975
0.070923724
0.070290961
0.069682039
0.069095692
0.068531789
0.06799017
0.067469815
0.066970187
0.066490836
0.066031292
0.065591099
0.065169824
0.064767053
0.064382399
0.06401549
0.063666044
0.06333369
0.06301812
0.062719049
0.062436211
0.062169353
0.06191818
0.061682503
0.061462096
0.061256756
0.061066486
0.060890944
0.060729985
0.060583492
0.060451347
0.060333451
0.060229613
0.060139839
0.060064037
0.060002163
0.059954257
0.059920232
0.059899914
0.059893701
441.76223
441.76054
441.72844
441.66774
441.57796
441.45899
441.31076
441.13322
440.92629
440.68993
440.42389
440.12796
439.80202
439.44586
439.05926
438.64193
438.19357
437.71384
437.20234
436.65866
436.08234
435.47286
434.82967
434.15217
433.43971
432.69159
431.90707
431.08529
430.22552
429.32651
428.38796
427.40748
426.38642
425.31959
424.21164
423.05429
421.85182
420.60316
419.29266
417.95323
416.52692
415.08147
413.55524
411.96606
410.34927
408.61971
406.86164
405.03575
403.10232
401.14019
399.09678
396.94087
394.7439
392.46397
390.07069
387.61002
385.0686
382.41509
379.67434
376.84976
373.90753
370.86206
367.72809
364.48763
361.12297
357.64472
354.07345
350.38524
346.56554
342.63604
338.60195
334.44561
330.1551
325.74158
321.21862
316.57798
311.80797
306.91651
301.91248
296.79451
291.57202
286.25238
280.83248
275.30477
269.67084
263.94561
258.1521
252.31347
246.43141
240.50319
234.52287
228.49102
222.42371
216.33307
210.24523
204.18113
198.13113
192.10764
186.13784
180.23106
174.40393
168.66772
162.99306
157.32958
151.66911
146.07412
140.6132
135.31846
130.21502
125.33806
120.72245
116.27593
111.78063
107.41475
103.05852
99.131052
95.334764
91.816346
88.551735
85.238431
81.844678
78.795644
75.829091
72.729564
69.482611
66.163303
62.767657
59.223644
55.472397
51.538639
47.101948
43.175465
39.661207
35.476829
29.81803
39.584063
8.2876434
0.62302977
0.71611627
0.78721807
0.72110407
0.64647125
0.58467633
0.53302255
0.48970507
0.45308677
0.42173872
0.3945669
0.3707396
0.34963871
0.33079979
0.31385412
0.2985208
0.28457482
0.27182739
0.2601265
0.24934652
0.23938178
0.23014283
0.22155302
0.21354665
0.20606584
0.19906598
0.1924997
0.18632858
0.18052006
0.17504406
0.16987238
0.16498539
0.1603586
0.15597312
0.15181288
0.14786029
0.14410152
0.14052418
0.13711638
0.13386726
0.13076693
0.1278063
0.124977
0.12227135
0.11968224
0.11720312
0.11482791
0.112551
0.1103672
0.10827166
0.10626002
0.1043274
0.10247033
0.10068525
0.098968697
0.097317434
0.095728459
0.09419896
0.092726293
0.091307974
0.089941667
0.088625209
0.087356523
0.086133657
0.084954787
0.083818204
0.082722328
0.081665236
0.08064578
0.079662623
0.078714436
0.077799967
0.07691804
0.076067544
0.075247423
0.074456671
0.073694336
0.072959617
0.07225157
0.071569525
0.070912604
0.070280033
0.069671103
0.069085598
0.068522609
0.067980949
0.067460666
0.066961239
0.066482114
0.066022789
0.065582806
0.065161729
0.064759147
0.06437467
0.064007947
0.063658638
0.063326425
0.063010987
0.062712043
0.062429332
0.062162594
0.061911524
0.061675958
0.061455703
0.061250574
0.061060258
0.060884719
0.060723798
0.060577341
0.06044522
0.06032731
0.060223577
0.060133868
0.060058108
0.059996264
0.059948273
0.059914136
0.059893743
0.059887528
441.73534
441.73339
441.70126
441.64045
441.55042
441.43111
441.28251
441.10456
440.89719
440.66032
440.39387
440.09759
439.77126
439.41469
439.02763
438.6098
438.1609
437.68057
437.16842
436.62402
436.04689
435.43654
434.79239
434.11385
433.40026
432.65093
431.8651
431.04192
430.18066
429.28001
428.33981
427.35732
426.3346
425.26504
424.15591
422.99446
421.79213
420.53749
419.22832
417.88184
416.45493
415.00579
413.47119
411.88601
410.25725
408.5264
406.77022
404.92362
402.99709
401.03452
398.96464
396.81712
394.61897
392.31237
389.91985
387.46183
384.89727
382.2307
379.49587
376.65689
373.69141
370.64315
367.50069
364.2401
360.86328
357.37676
353.78635
350.0768
346.24297
342.30067
338.25207
334.07382
329.76086
325.3342
320.79266
316.12154
311.32649
306.42074
301.40007
296.25986
291.01036
285.65689
280.203
274.64754
268.99105
263.24785
257.44314
251.59128
245.68561
239.73015
233.71627
227.64887
221.55938
215.45927
209.3678
203.31197
197.28397
191.27997
185.30978
179.38601
173.54648
167.80848
162.14314
156.52135
150.93467
145.41808
140.019
134.75407
129.64896
124.73417
120.03103
115.49122
111.03963
106.73538
102.57592
98.644867
94.959961
91.552798
88.351612
85.210306
81.901393
78.997905
76.118304
73.141774
69.928942
66.674222
63.173863
59.538985
55.629159
51.799093
47.702579
44.692802
38.746393
38.055626
45.998311
9.6355297
0.21347819
0.51339399
0.63460957
0.65276175
0.62968379
0.59024873
0.54807817
0.50832155
0.47243557
0.44054376
0.41231098
0.38725847
0.3649302
0.34492703
0.32690952
0.31060236
0.29576975
0.28221673
0.26978801
0.25834975
0.24778797
0.23800615
0.22892193
0.22046403
0.21257164
0.20518924
0.19827289
0.19178095
0.18567546
0.17992415
0.17449888
0.16937329
0.1645262
0.15993535
0.15558237
0.15144988
0.14752376
0.14378989
0.14023457
0.13684648
0.13361533
0.13053144
0.12758585
0.12477035
0.12207736
0.1194999
0.11703151
0.11466621
0.11239844
0.11022305
0.10813519
0.10613024
0.10420474
0.10235432
0.10057524
0.098864197
0.097218058
0.095633864
0.094108837
0.092640353
0.091225945
0.089863268
0.088550275
0.087284843
0.08606501
0.08488895
0.083754924
0.082661252
0.081606785
0.080589767
0.0796088
0.078662636
0.077750068
0.076869934
0.076021133
0.075202635
0.074413484
0.073652808
0.072919374
0.072212633
0.071531657
0.070875779
0.070244271
0.069636414
0.06905169
0.068489312
0.067948771
0.067429444
0.066930842
0.066452473
0.065993858
0.065554543
0.065134098
0.064732122
0.064348243
0.063982098
0.063633254
0.063301463
0.062986451
0.062687912
0.062405558
0.062139128
0.061888447
0.061653231
0.061433273
0.061228384
0.06103836
0.060863065
0.060702359
0.060556099
0.060424148
0.0603064
0.060202772
0.060113159
0.060037495
0.059975706
0.059927742
0.059893581
0.059873207
0.05986705
441.69621
441.69397
441.66162
441.60053
441.5101
441.39029
441.24111
441.0625
440.85439
440.61669
440.34928
440.05196
439.72453
439.36675
438.97838
438.55914
438.1087
437.62672
437.11281
436.56654
435.98744
435.375
434.72864
434.04778
433.33174
432.57981
431.79126
430.96519
430.10088
429.19702
428.25341
427.26734
426.24078
425.16718
424.05386
422.88757
421.68142
420.41996
419.10867
417.75281
416.32302
414.86636
413.32112
411.7352
410.09463
408.35364
406.59517
404.7346
402.79709
400.83115
398.74384
396.58577
394.37959
392.05591
389.64973
387.1812
384.59849
381.91416
379.16769
376.30849
373.32034
370.25728
367.09649
363.80926
360.41037
356.90339
353.28523
349.54745
345.69062
341.72586
337.64341
333.42388
329.08153
324.63245
320.05965
315.3531
310.52565
305.58678
300.5278
295.34635
290.05056
284.64704
279.14568
273.5548
267.87669
262.11254
256.27659
250.38013
244.42108
238.40585
232.34211
226.24626
220.13934
214.03349
207.94442
201.89016
195.86613
189.88326
183.94516
178.0283
172.15863
166.38744
160.73081
155.18951
149.71042
144.28413
138.97197
133.78885
128.74619
123.83241
119.06458
114.46556
110.01009
105.71933
101.64057
97.834612
94.261177
90.948517
88.054798
85.416831
82.647778
79.563359
76.708928
73.672508
70.441559
67.064152
63.422415
59.774691
55.872604
52.061182
47.13347
37.722155
40.848861
50.043257
6.8477806
0.2055977
0.28579516
0.43279223
0.51266234
0.54776597
0.54895313
0.53121426
0.50536445
0.47713429
0.4492456
0.42294976
0.39866049
0.37643555
0.35618744
0.33775059
0.32093382
0.30556648
0.29147762
0.27852321
0.26658331
0.25554878
0.24532375
0.23582541
0.22698174
0.21872981
0.21101454
0.20378731
0.19700457
0.19062844
0.18462553
0.17896495
0.17361984
0.16856784
0.16378475
0.15925193
0.1549505
0.15086356
0.1469788
0.14328338
0.13976288
0.13640615
0.13320378
0.13014628
0.12722487
0.12443157
0.121759
0.11920034
0.11674929
0.11440001
0.11214706
0.10998538
0.10791029
0.10591737
0.10400281
0.10216256
0.10039303
0.098690913
0.097053112
0.095476706
0.093958992
0.092497369
0.091089385
0.089732688
0.088425324
0.087165229
0.085950383
0.084779005
0.083649419
0.082560011
0.081509415
0.080496067
0.079518603
0.078575758
0.077666324
0.076789153
0.07594315
0.075127281
0.07434056
0.073582042
0.072850984
0.072146489
0.071467579
0.070813641
0.070184004
0.069577991
0.068994748
0.06843378
0.067894678
0.067376783
0.06687952
0.066402405
0.065944973
0.065506776
0.065087385
0.064686393
0.064303414
0.063938093
0.06359013
0.063259182
0.062944931
0.062647093
0.0623654
0.062099596
0.061849473
0.061614777
0.061395299
0.061190857
0.06100127
0.060826385
0.060666043
0.060520105
0.060388458
0.060270981
0.060167563
0.060078128
0.060002608
0.059940932
0.059893053
0.059858962
0.059838679
0.059832653
441.64489
441.64236
441.60966
441.54811
441.45711
441.33662
441.18664
441.00713
440.798
440.55917
440.29049
439.99179
439.66287
439.3035
438.91342
438.49234
438.03994
437.55588
437.03974
436.49111
435.90951
435.29442
434.64527
433.96145
433.2423
432.48709
431.69506
430.86532
429.99713
429.08919
428.1412
427.15058
426.11908
425.04037
423.92156
422.74928
421.53751
420.26858
418.95205
417.58698
416.15147
414.6845
413.13074
411.53758
409.88237
408.1353
406.36484
404.48804
402.54376
400.56559
398.45541
396.28652
394.07173
391.72497
389.29531
386.81568
384.21457
381.5072
378.73827
375.85152
372.84187
369.75837
366.57348
363.25022
359.81689
356.28307
352.63911
348.86822
344.96985
340.97152
336.84904
332.57857
328.19464
323.71245
319.10209
314.35226
309.4821
304.49517
299.37594
294.13738
288.79216
283.33616
277.78064
272.14098
266.42084
260.61409
254.72596
248.76384
242.73503
236.65606
230.54401
224.42231
218.31072
212.20813
206.10259
200.0183
193.96972
187.96769
182.02629
176.13521
170.32338
164.61117
158.98375
153.49126
148.1304
142.87368
137.70629
132.59466
127.55055
122.60254
117.79371
113.17452
108.77661
104.56023
100.54418
96.840539
93.48622
90.395268
87.626197
85.189458
82.736483
80.089
77.443966
74.382386
71.011027
67.653157
63.972271
60.076572
55.724119
47.497668
47.857679
52.992793
25.085828
1.7139358
0.05583944
0.189747
0.27631379
0.36290538
0.43123132
0.4696268
0.48043349
0.47561819
0.4616433
0.44301206
0.42252965
0.40182779
0.38175516
0.36273383
0.34493839
0.32839814
0.31307178
0.29888052
0.2857406
0.27356547
0.26226655
0.25176367
0.24198432
0.23286296
0.22434044
0.2163643
0.20888617
0.2018676
0.19526673
0.1890474
0.18318245
0.17764671
0.17241255
0.16745744
0.16276122
0.15830521
0.15407367
0.15005223
0.14622611
0.14258183
0.13910845
0.13579553
0.13263303
0.12961187
0.12672376
0.12396103
0.12131658
0.11878384
0.11635671
0.11402954
0.11179706
0.10965437
0.10759693
0.10562047
0.10372107
0.10189497
0.10013868
0.098448918
0.096822663
0.095257015
0.093749444
0.092297372
0.09089837
0.089550289
0.088250723
0.086997805
0.085789818
0.084624961
0.083501542
0.082417981
0.08137282
0.08036462
0.079392038
0.078453813
0.077548749
0.076675714
0.075833612
0.075021429
0.074238193
0.073482975
0.072755048
0.072053523
0.07137747
0.070726191
0.070099032
0.069495298
0.068914405
0.06835571
0.067818673
0.067302704
0.066807282
0.066331916
0.065876139
0.065439506
0.065021592
0.064621994
0.064240331
0.063876256
0.063529473
0.063199642
0.062886438
0.062589582
0.062308812
0.062043877
0.061794548
0.061560598
0.061341819
0.061138019
0.060949035
0.060774693
0.06061484
0.06046936
0.060338122
0.060221016
0.060117923
0.060028751
0.059953448
0.059891952
0.059844214
0.059810242
0.059790057
0.059784124
441.58167
441.57878
441.54561
441.48346
441.39173
441.27037
441.11939
440.93874
440.72833
440.48808
440.21782
439.91741
439.58663
439.22525
438.83302
438.40964
437.95479
437.4681
436.94918
436.39759
435.81285
435.19444
434.54178
433.85424
433.13116
432.37179
431.57537
430.741
429.8679
428.9548
428.00128
427.00496
425.96716
424.88217
423.75615
422.57681
421.35718
420.07965
418.75559
417.37945
415.93643
414.45704
412.89241
411.28964
409.61705
407.86143
406.07534
404.18016
402.22784
400.22691
398.09644
395.91704
393.67734
391.30597
388.86103
386.35499
383.72541
380.99855
378.20095
375.27727
372.24188
369.13305
365.9135
362.54558
359.07548
355.50954
351.82833
348.01546
344.06713
340.02052
335.84492
331.5231
327.09051
322.55912
317.89856
313.09024
308.15812
303.10741
297.92064
292.61694
287.21639
281.70141
276.07701
270.36948
264.58148
258.69826
252.73421
246.69774
240.59085
234.45142
228.29938
222.14992
216.01951
209.89557
203.76427
197.63539
191.51873
185.48157
179.55266
173.68013
167.8961
162.26414
156.75534
151.4089
146.17669
141.04791
136.00267
131.00128
126.12707
121.20017
116.28797
111.55513
107.05219
102.8962
99.098041
95.560461
92.343049
89.534992
87.109203
85.09907
82.875694
80.206234
77.957747
75.432038
71.772307
68.458793
64.361224
56.386443
54.518339
55.985395
39.343809
8.1686538
-0.023605114
-0.0071266038
0.080147518
0.17064411
0.24456256
0.31414575
0.37173124
0.40559607
0.42179433
0.42502045
0.41939129
0.4082928
0.39416322
0.37861106
0.36265696
0.34691524
0.33172485
0.31726149
0.30360334
0.29076625
0.27873536
0.26747372
0.25693454
0.24706894
0.23782825
0.22916537
0.22103569
0.21339807
0.20621401
0.19944976
0.19307114
0.18704976
0.18136005
0.17597721
0.1708793
0.16604623
0.1614599
0.1571038
0.15296215
0.14902106
0.14526742
0.14168843
0.13827496
0.13501755
0.13190551
0.12893036
0.12608441
0.12336042
0.12075163
0.11825176
0.115855
0.11355591
0.11134945
0.1092309
0.10719587
0.10524027
0.10336025
0.10155222
0.099812796
0.098138798
0.096527275
0.094975341
0.093480632
0.092040744
0.090653128
0.089315724
0.088026175
0.086782671
0.085583551
0.084427052
0.083311515
0.082235392
0.081197231
0.080195641
0.079229307
0.078296994
0.077397526
0.076529803
0.075692696
0.074885251
0.074106538
0.073355646
0.072631668
0.071933764
0.07126133
0.070613566
0.069989694
0.06938906
0.068811091
0.068255183
0.067720763
0.067207279
0.066714219
0.066241095
0.065787439
0.065352813
0.064936799
0.064539007
0.06415907
0.063796628
0.06345135
0.06312291
0.062811035
0.062515439
0.062235852
0.061972027
0.061723732
0.061490747
0.061272868
0.061069904
0.060881686
0.060708048
0.060548845
0.060403939
0.060273225
0.060156573
0.060053883
0.059965074
0.059890074
0.059828817
0.059781277
0.059747444
0.059727362
0.059721483
441.50692
441.50361
441.46986
441.40697
441.31434
441.19193
441.03974
440.85771
440.64577
440.40381
440.13168
439.82921
439.4962
439.13243
438.73762
438.31148
437.85369
437.36387
436.84162
436.28649
435.698
435.07561
434.41874
433.72676
432.99898
432.23466
431.43299
430.5931
429.71413
428.79488
427.83478
426.83164
425.78635
424.69388
423.55927
422.37155
421.14238
419.85492
418.52114
417.13272
415.67979
414.18629
412.60916
410.99329
409.30193
407.53536
405.72965
403.81456
401.85103
399.82233
397.66976
395.47564
393.20779
390.80626
388.34056
385.80622
383.14608
380.38902
377.55157
374.59542
371.53438
368.38232
365.1127
361.70646
358.19484
354.58623
350.86125
346.98895
342.98159
338.88461
334.6433
330.26305
325.78178
321.18019
316.44175
311.56361
306.56327
301.43486
296.17365
290.80574
285.33205
279.73932
274.02875
268.22263
262.34173
256.36702
250.31017
244.19691
238.03097
231.84345
225.64103
219.43799
213.23658
207.0246
200.82969
194.6699
188.51298
182.46349
176.5652
170.74388
165.04392
159.48268
154.03216
148.79487
143.75678
138.83506
133.96275
129.02075
124.12549
119.31868
114.50638
109.8763
105.35721
101.00164
97.082843
93.476239
90.768264
88.852081
86.535152
84.420384
83.218485
81.855272
79.872578
77.014862
72.110278
66.503892
64.913751
63.971833
47.992225
13.92432
-0.044882878
-0.080776111
-0.020566346
0.041231158
0.094848814
0.15690035
0.21840495
0.2760656
0.32178708
0.35320406
0.37177793
0.37977214
0.37985447
0.37446207
0.36553008
0.35447386
0.34230684
0.32970659
0.31710256
0.30476591
0.29286048
0.28147496
0.27065045
0.2603975
0.2507077
0.24156171
0.23293421
0.22479682
0.21712008
0.20987459
0.20303237
0.19656465
0.19044789
0.18465931
0.17917522
0.17397455
0.16903938
0.16435191
0.15989626
0.15565804
0.15162249
0.14777679
0.14410972
0.14061058
0.13726997
0.13407767
0.13102544
0.12810534
0.12531001
0.12263258
0.1200667
0.11760643
0.11524626
0.11298104
0.11080596
0.10871654
0.10670858
0.10477815
0.10292158
0.10113541
0.099416401
0.097761498
0.096167846
0.094632746
0.093153702
0.091728313
0.090354325
0.089029585
0.087752202
0.086520332
0.085332064
0.084185734
0.083079771
0.082012675
0.080983027
0.079989472
0.079030731
0.078105597
0.07721293
0.076351652
0.075520654
0.074718957
0.073945697
0.073199979
0.072480879
0.07178764
0.071119608
0.070476033
0.069856164
0.069259346
0.068684936
0.06813232
0.067601082
0.06709064
0.066600463
0.066130066
0.065678995
0.065246815
0.06483312
0.064437523
0.064059658
0.063699183
0.06335574
0.063029046
0.062718809
0.062424751
0.062146609
0.061884137
0.061637107
0.061405302
0.061188521
0.060986576
0.060799293
0.060626514
0.060468096
0.060323905
0.060193814
0.060077725
0.059975538
0.059887169
0.059812537
0.059751581
0.059704278
0.059670619
0.059650648
0.05964481
441.42107
441.41728
441.38284
441.31908
441.2254
441.10175
440.94815
440.76452
440.55079
440.30684
440.03253
439.72768
439.39209
439.02553
438.62773
438.19838
437.73716
437.24369
436.71756
436.15832
435.56547
434.93846
434.2767
433.57955
432.84631
432.07622
431.26846
430.42214
429.53636
428.60995
427.64221
426.63115
425.57719
424.476
423.33142
422.13404
420.89356
419.59491
418.24931
416.847
415.38237
413.87236
412.28113
410.64936
408.93666
407.15791
405.32766
403.39132
401.41409
399.35002
397.17625
394.96594
392.65687
390.22584
387.74129
385.16674
382.46845
379.67857
376.80218
373.80478
370.70713
367.50586
364.17744
360.73582
357.17657
353.50768
349.72555
345.79241
341.71836
337.55801
333.25246
328.80163
324.25038
319.567
314.73478
309.7717
304.69733
299.48632
294.13871
288.69783
283.12431
277.4171
271.60425
265.69172
259.69874
253.62612
247.4849
241.27794
235.0278
228.77009
222.48087
216.19387
209.89689
203.57219
197.3124
191.13136
184.96423
178.94672
173.05615
167.24255
161.64579
156.18316
150.77715
145.63871
140.75808
136.1187
131.45461
126.69576
122.05862
117.05489
112.03169
107.44378
102.92045
98.717384
95.017968
90.998841
88.003983
86.205943
85.22385
84.305057
82.944326
81.300833
79.021721
76.55264
74.20275
75.973732
48.726083
13.498554
-0.18054173
-0.21882598
-0.1137562
-0.078052849
-0.020964368
0.036269285
0.087700326
0.14145667
0.19464746
0.24181589
0.28065599
0.30961684
0.32885391
0.33960437
0.34355984
0.34238949
0.33757378
0.33029165
0.32145953
0.31173519
0.30158171
0.29132152
0.28117002
0.27126618
0.26169501
0.25250626
0.24372348
0.23535376
0.2273937
0.21983278
0.21265617
0.20584637
0.19938508
0.19325264
0.18743187
0.18190475
0.17665285
0.17165945
0.16690944
0.1623882
0.15808224
0.15397739
0.15006254
0.14632802
0.14276176
0.13935419
0.13609637
0.13298006
0.12999745
0.12714121
0.12440456
0.12178117
0.1192651
0.11685083
0.11453321
0.11230738
0.11016884
0.10811335
0.10613692
0.10423585
0.10240663
0.10064599
0.098950816
0.097318224
0.095745457
0.094230033
0.092769297
0.091360886
0.090002907
0.088693272
0.087430174
0.086211683
0.085036033
0.083901601
0.082806856
0.081750345
0.080730684
0.079746562
0.078796734
0.077880018
0.076995289
0.076141481
0.075317633
0.074522803
0.073755989
0.073016353
0.072303075
0.071615385
0.070952539
0.070313785
0.069698503
0.069106048
0.068535814
0.067987253
0.067459799
0.066952951
0.066466165
0.065998977
0.065550947
0.06512165
0.064710683
0.064317667
0.063942241
0.063584064
0.063242805
0.062918167
0.062609863
0.06231762
0.062041181
0.061780305
0.061534767
0.061304354
0.061088867
0.060888118
0.060701939
0.060530173
0.06037268
0.060229329
0.060099993
0.059984569
0.059882976
0.059795115
0.05972091
0.059660314
0.059613282
0.059579831
0.059559982
0.059554184
441.32464
441.32029
441.28508
441.22031
441.12542
441.00038
440.84516
440.65971
440.44393
440.19772
439.92093
439.61337
439.27485
438.90512
438.50391
438.07092
437.6058
437.10818
436.57764
436.01372
435.41591
434.78364
434.11633
433.41331
432.67387
431.89722
431.08255
430.22892
429.33542
428.40089
427.42449
426.40441
425.34066
424.2295
423.07375
421.86522
420.61214
419.30056
417.94162
416.52362
415.04522
413.5173
411.90902
410.25979
408.52365
406.72882
404.87274
402.91252
400.91526
398.81589
396.619
394.38285
392.03276
389.57005
387.05791
384.43973
381.69751
378.87322
375.95006
372.90458
369.76521
366.50956
363.11463
359.62964
356.0155
352.28491
348.42842
344.42005
340.28327
336.05064
331.66822
327.13767
322.49688
317.71601
312.78543
307.72844
302.56527
297.26448
291.81572
286.27598
280.57807
274.74053
268.80973
262.77845
256.67802
250.49469
244.24949
237.93458
231.57025
225.20181
218.77048
212.37184
205.97992
199.56021
193.27933
187.06392
180.86195
174.90715
169.00564
163.08957
157.51488
152.20069
146.96084
141.92035
137.25681
132.91191
128.54401
123.92617
119.48743
114.66817
109.59584
104.82882
99.799815
95.309976
91.861491
87.30237
85.758936
85.47507
84.680864
84.703404
83.494149
81.819514
84.947152
71.050796
35.22352
5.1559315
-0.31930818
-0.30788703
-0.22642506
-0.19964955
-0.13326775
-0.078022542
-0.023894962
0.027944423
0.077411803
0.12590674
0.17125245
0.21181436
0.24594215
0.27258366
0.29171795
0.30403021
0.31055862
0.31246119
0.31084158
0.30665703
0.30068075
0.29350791
0.28560021
0.27729654
0.26883844
0.26039132
0.25207515
0.24396979
0.23612212
0.22856143
0.22130362
0.21435429
0.20771214
0.20137106
0.19532258
0.18955415
0.18405516
0.17881492
0.173819
0.16905385
0.1645081
0.16017117
0.15603077
0.15207644
0.14829883
0.14468706
0.14123272
0.13792698
0.1347622
0.13173162
0.1288275
0.12604327
0.12337285
0.12081047
0.11835072
0.1159885
0.11371905
0.11153786
0.10944075
0.10742375
0.10548313
0.10361539
0.10181727
0.10008565
0.098417612
0.096810408
0.095261392
0.093768208
0.092328222
0.090939406
0.089599821
0.088307481
0.087060619
0.085857422
0.084696188
0.083575347
0.082493422
0.081449007
0.080440769
0.079467439
0.078527813
0.077620742
0.076745144
0.075899978
0.075084347
0.074297274
0.073537803
0.072805134
0.072098471
0.07141708
0.070760138
0.070127016
0.069517072
0.068929686
0.0683643
0.067820355
0.067297225
0.066794432
0.066311511
0.065848003
0.065403464
0.064977476
0.064569643
0.064179593
0.063806971
0.06345144
0.063112684
0.062790405
0.062484321
0.062194164
0.061919683
0.06166064
0.061416819
0.061188005
0.060974002
0.060774628
0.06058972
0.060419121
0.060262695
0.060120303
0.059991841
0.059877195
0.059776273
0.059688999
0.059615293
0.059555097
0.059508389
0.059475161
0.05945545
0.059449694
441.2182
441.21324
441.17715
441.11126
441.01502
440.88839
440.73137
440.54387
440.32582
440.07708
439.79751
439.48692
439.14512
438.77184
438.36683
437.92976
437.46029
436.95803
436.42256
435.8534
435.25004
434.61191
433.93839
433.22881
432.48244
431.69849
430.87609
430.01431
429.1122
428.16859
427.18255
426.15238
425.07775
423.95541
422.78725
421.5663
420.29909
418.97332
417.59897
416.16408
414.66963
413.12185
411.4953
409.82455
408.06504
406.24998
404.36429
402.38093
400.35686
398.21885
396.00066
393.73011
391.33212
388.84309
386.29232
383.62558
380.83614
377.97005
374.99948
371.90113
368.70372
365.38806
361.93208
358.39415
354.71681
350.90089
346.96868
342.88484
338.67967
334.36313
329.88706
325.26168
320.51679
315.63096
310.60136
305.43951
300.17185
294.76114
289.19058
283.52755
277.67422
271.70639
265.66673
259.50482
253.27508
246.95616
240.58071
234.10654
227.58471
221.09076
214.49207
208.01937
201.5516
195.00449
188.71736
182.41774
176.11603
170.15575
164.27404
158.35235
152.69026
147.32165
142.1987
137.45772
133.15535
129.01023
124.9742
120.90623
117.06622
112.33785
106.80802
101.66942
97.047811
92.488894
87.050874
75.186072
59.500149
50.420865
46.881578
42.185057
31.46378
17.975723
4.5133217
-0.38904637
-0.31892631
-0.30647463
-0.30031273
-0.28084232
-0.22714099
-0.1814482
-0.12743121
-0.076055128
-0.026485981
0.021360186
0.066727437
0.10977327
0.14972516
0.18548703
0.21600203
0.24064157
0.25933904
0.27246412
0.28067905
0.2848015
0.28563945
0.2839465
0.28035677
0.27539844
0.26950191
0.26299674
0.25612781
0.24907946
0.24199032
0.23495452
0.22804208
0.2213009
0.21476193
0.20844419
0.2023583
0.19650833
0.19089436
0.18551207
0.18035772
0.17542358
0.17070085
0.16618269
0.16185991
0.15772165
0.15376108
0.14997069
0.14634078
0.14286381
0.1395322
0.13633874
0.1332773
0.13034036
0.12752235
0.12481749
0.12222023
0.11972535
0.11732795
0.11502342
0.1128074
0.11067579
0.10862471
0.1066505
0.10474972
0.10291908
0.10115558
0.099456351
0.097818566
0.096239688
0.09471715
0.093248776
0.091832151
0.090465198
0.089146185
0.087873203
0.086644477
0.085458448
0.084313372
0.083207758
0.082140199
0.081109349
0.080113928
0.079152713
0.07822454
0.077328306
0.076462964
0.075627526
0.07482108
0.074042704
0.073291512
0.072566666
0.071867419
0.071193048
0.070542822
0.069916056
0.069312161
0.068730527
0.068170607
0.06763178
0.067113501
0.066615264
0.066136697
0.065677337
0.065236733
0.064814475
0.064410176
0.064023469
0.063654007
0.063301461
0.062965523
0.062645902
0.062342322
0.062054518
0.061782245
0.061525268
0.061283382
0.061056371
0.060844043
0.06064622
0.060462747
0.060293466
0.060138235
0.059996945
0.059869454
0.059755689
0.059655536
0.059568917
0.059495767
0.059436029
0.059389674
0.0593567
0.059337142
0.059331436
441.10241
441.09677
441.05972
440.99258
440.89485
440.76648
440.60746
440.41771
440.19713
439.9456
439.66297
439.34904
439.00361
438.62643
438.21721
437.77565
437.30137
436.794
436.25309
435.67817
435.06869
434.42409
433.74374
433.02694
432.27294
431.48093
430.65003
429.77929
428.8677
427.9141
426.91746
425.87617
424.78962
423.65491
422.47321
421.23845
419.95589
418.61431
417.22315
415.76951
414.25741
412.68765
411.04097
409.34657
407.56135
405.72311
403.80578
401.79621
399.74072
397.56503
395.31815
393.01004
390.56099
388.04317
385.4486
382.72248
379.89036
376.97527
373.94881
370.78936
367.52954
364.14991
360.63552
357.022
353.27174
349.36888
345.35645
341.19279
336.90546
332.4851
327.90512
323.18163
318.32067
313.3191
308.18232
302.90469
297.51184
291.96375
286.24916
280.44938
274.43938
268.34821
262.17005
255.84955
249.47441
242.97842
236.43626
229.76889
223.08394
216.46824
209.6669
203.1178
196.58108
189.91631
183.58634
177.11487
170.67237
164.67353
158.65758
152.82126
147.33188
141.87812
136.49441
131.85871
128.00954
124.25608
120.9938
117.30515
114.2872
110.08517
103.93564
100.19264
80.374134
46.005806
13.199628
-0.3393116
-0.46014445
-0.45687436
-0.45213866
-0.43001822
-0.38882878
-0.35682337
-0.36832928
-0.36206138
-0.33839516
-0.304983
-0.27939558
-0.25007138
-0.20901929
-0.16524864
-0.11911912
-0.073197448
-0.028327104
0.014805907
0.055824761
0.094487173
0.13019172
0.16221218
0.18988037
0.21279863
0.2308918
0.24436866
0.25367926
0.25938938
0.26209347
0.26237433
0.2607544
0.25769093
0.25356479
0.24867673
0.24326733
0.23753112
0.23160841
0.22560658
0.21961098
0.21368235
0.20786326
0.20218383
0.1966642
0.19131902
0.18615397
0.18117318
0.17637823
0.17176455
0.16733052
0.16307189
0.15898238
0.155057
0.15128954
0.14767292
0.14420119
0.14086949
0.13767043
0.1345989