/*--------------------------------*- C++ -*----------------------------------*\
| =========                 |                                                 |
| \\      /  F ield         | OpenFOAM: The Open Source CFD Toolbox           |
|  \\    /   O peration     | Version:  2106                                  |
|   \\  /    A nd           | Website:  www.openfoam.com                      |
|    \\/     M anipulation  |                                                 |
\*---------------------------------------------------------------------------*/
FoamFile
{
    version     2.0;
    format      ascii;
    arch        "LSB;label=32;scalar=64";
    class       volVectorField;
    location    "0.09";
    object      U_0;
}
// * * * * * * * * * * * * * * * * * * * * * * * * * * * * * * * * * * * * * //

dimensions      [0 1 -1 0 0 0 0];

internalField   nonuniform List<vector> 
32768
(
(0.0014452261 -0.0015619323 0)
(0.0052493252 -0.0017581556 0)
(0.0093117128 -0.001795305 0)
(0.013423539 -0.0018162136 0)
(0.017541919 -0.0018254667 0)
(0.021675194 -0.0018322422 0)
(0.025823828 -0.0018397659 0)
(0.029989103 -0.0018485868 0)
(0.034173818 -0.0018589684 0)
(0.038380935 -0.001871405 0)
(0.042616779 -0.0018898804 0)
(0.046885005 -0.0019161346 0)
(0.051187217 -0.0019465935 0)
(0.055525474 -0.0019796982 0)
(0.059902205 -0.0020146476 0)
(0.06432003 -0.0020510228 0)
(0.068781708 -0.0020886168 0)
(0.073290139 -0.002127349 0)
(0.077848346 -0.0021672172 0)
(0.08245946 -0.0022082663 0)
(0.087126709 -0.0022505706 0)
(0.091853409 -0.0022942203 0)
(0.096642961 -0.0023393147 0)
(0.10149884 -0.0023859536 0)
(0.10642462 -0.0024342452 0)
(0.11142392 -0.002484269 0)
(0.11650051 -0.0025361785 0)
(0.12165796 -0.0025899038 0)
(0.1269007 -0.0026459313 0)
(0.13223121 -0.0027033689 0)
(0.1376567 -0.0027644705 0)
(0.14317427 -0.0028246832 0)
(0.14880161 -0.0028930995 0)
(0.15451767 -0.0029533539 0)
(0.16036891 -0.0030327761 0)
(0.16629488 -0.0030904518 0)
(0.17238773 -0.0031809823 0)
(0.17854894 -0.0032436833 0)
(0.18488018 -0.00332824 0)
(0.1913228 -0.0034237482 0)
(0.19788463 -0.0034702173 0)
(0.20463135 -0.0036203477 0)
(0.21146403 -0.0036363551 0)
(0.21850051 -0.0037779424 0)
(0.22563964 -0.0038886747 0)
(0.23298049 -0.0039046478 0)
(0.24045889 -0.0040945019 0)
(0.2480759 -0.0041893099 0)
(0.25593816 -0.0042139833 0)
(0.2639055 -0.0043966932 0)
(0.2720397 -0.0045302466 0)
(0.28043899 -0.0045725011 0)
(0.28895322 -0.0047040386 0)
(0.29762199 -0.0048553151 0)
(0.30657372 -0.0049706968 0)
(0.31570445 -0.0050865756 0)
(0.32494932 -0.0051943066 0)
(0.33442093 -0.0053065041 0)
(0.34416871 -0.0054738513 0)
(0.35409984 -0.0056346027 0)
(0.36416238 -0.0057131636 0)
(0.37444005 -0.0058036671 0)
(0.38499164 -0.0059749342 0)
(0.39575321 -0.0061521149 0)
(0.40669003 -0.0062694925 0)
(0.41781829 -0.0063721771 0)
(0.42914809 -0.0065052838 0)
(0.44072654 -0.0066445622 0)
(0.45254171 -0.006774177 0)
(0.46451447 -0.0069011902 0)
(0.47665712 -0.007040065 0)
(0.48902706 -0.0071880582 0)
(0.50162121 -0.0073150178 0)
(0.51441129 -0.0074197364 0)
(0.52737249 -0.0075275531 0)
(0.54051103 -0.0076438786 0)
(0.55387235 -0.0077697576 0)
(0.56745123 -0.0079076218 0)
(0.58116107 -0.0080325026 0)
(0.59492703 -0.0081196775 0)
(0.60875987 -0.0081855873 0)
(0.62275477 -0.0082581329 0)
(0.6370264 -0.0083532349 0)
(0.65159274 -0.0084577886 0)
(0.66631027 -0.0085386849 0)
(0.68095852 -0.0085718858 0)
(0.69543123 -0.0085652888 0)
(0.70977552 -0.0085645067 0)
(0.72414279 -0.0085875715 0)
(0.73868325 -0.0086262457 0)
(0.75342082 -0.0086727984 0)
(0.76827851 -0.0086857488 0)
(0.78311568 -0.0086356435 0)
(0.79777246 -0.0085339698 0)
(0.81215319 -0.0083952678 0)
(0.82624778 -0.0082174139 0)
(0.84007439 -0.0080163968 0)
(0.85356989 -0.0078219862 0)
(0.86662411 -0.0076045557 0)
(0.87923431 -0.00734914 0)
(0.89153822 -0.0071482561 0)
(0.9037759 -0.0070800305 0)
(0.91612074 -0.0070858368 0)
(0.92841064 -0.0069194853 0)
(0.94008285 -0.0063280768 0)
(0.95045163 -0.0053978337 0)
(0.95911059 -0.0044700909 0)
(0.9660277 -0.003818999 0)
(0.97159819 -0.0034616335 0)
(0.97663964 -0.0033100832 0)
(0.98226871 -0.0032939074 0)
(0.98903467 -0.0029207334 0)
(0.99641428 -0.00097845439 0)
(1.0002746 0.0011428522 0)
(1.0009306 0.0018598558 0)
(1.0001024 0.0017659972 0)
(0.99801792 0.0015214919 0)
(0.99521388 0.0014026051 0)
(0.99185345 0.0015203343 0)
(0.98863447 0.0016633912 0)
(0.9861106 0.0016777583 0)
(0.98454515 0.001213021 0)
(0.98481727 2.9017114e-05 0)
(0.98691432 -0.001008185 0)
(0.99011037 -0.0018912823 0)
(0.99397153 -0.002653176 0)
(0.99824043 -0.0034041665 0)
(1.0027214 -0.004239289 0)
(1.0075595 -0.0052090207 0)
(1.0126892 -0.0061420857 0)
(1.0187225 -0.0069617587 0)
(1.0271772 -0.0078842861 0)
(1.0392442 -0.0091110375 0)
(1.0537368 -0.011329883 0)
(1.067423 -0.016759381 0)
(1.0794332 -0.018126629 0)
(1.0495591 -0.012552514 0)
(0.90984217 -0.0072309017 0)
(0.9564649 0.082002668 0)
(0.56911604 0.092405878 0)
(0.42814299 0.060473531 0)
(0.34875747 0.034846305 0)
(0.28892189 0.021299592 0)
(0.24912284 0.014420796 0)
(0.21989048 0.010573908 0)
(0.19722152 0.0082139927 0)
(0.17889647 0.0066471563 0)
(0.16364058 0.0055230701 0)
(0.1506688 0.0046815538 0)
(0.1394533 0.0040335861 0)
(0.12963558 0.0035157759 0)
(0.12094784 0.0031027667 0)
(0.11319072 0.0027617284 0)
(0.10622053 0.0024700846 0)
(0.099919678 0.0022216674 0)
(0.094193254 0.0020093022 0)
(0.088964661 0.0018260183 0)
(0.084171032 0.0016665312 0)
(0.079760139 0.0015269131 0)
(0.075687492 0.0014043963 0)
(0.071911432 0.0013048607 0)
(0.068420914 0.0011177611 0)
(0.06517445 0.0010954486 0)
(0.062135946 0.0010282039 0)
(0.059295274 0.00096143554 0)
(0.056636343 0.00082187071 0)
(0.054134838 0.00082008283 0)
(0.051796815 0.00078319478 0)
(0.049598578 0.00073641419 0)
(0.047519884 0.00075011505 0)
(0.04555531 0.00066077266 0)
(0.043700692 0.00060935848 0)
(0.041947783 0.00057156332 0)
(0.040285682 0.0005395521 0)
(0.038709318 0.00051015442 0)
(0.037212528 0.00048284898 0)
(0.035789626 0.00045742872 0)
(0.034435682 0.00043372634 0)
(0.033146249 0.00041161907 0)
(0.031917217 0.00039099239 0)
(0.030744777 0.00037173262 0)
(0.029625403 0.00035373187 0)
(0.028555833 0.00033688824 0)
(0.027533051 0.00032110533 0)
(0.026554208 0.00030629031 0)
(0.025616947 0.00029240167 0)
(0.024717499 0.00028026947 0)
(0.023857016 0.00029408509 0)
(0.023032713 0.00025962766 0)
(0.022239523 0.00024534382 0)
(0.021477123 0.00023455309 0)
(0.020743982 0.00022475387 0)
(0.020038832 0.00021556876 0)
(0.019360211 0.0002069085 0)
(0.018706742 0.00019871161 0)
(0.018077178 0.00019094858 0)
(0.017470328 0.00018361325 0)
(0.016884895 0.00017671488 0)
(0.01631984 0.00017010404 0)
(0.015774335 0.00016381108 0)
(0.015247395 0.00015785359 0)
(0.014738147 0.00015225982 0)
(0.014245197 0.00014774874 0)
(0.013769548 0.00015681274 0)
(0.013309649 0.00013885519 0)
(0.012863134 0.00013261003 0)
(0.01243042 0.00012801087 0)
(0.012010897 0.00012379305 0)
(0.01160411 0.00011979938 0)
(0.011209496 0.00011600042 0)
(0.010826506 0.00011238116 0)
(0.010454564 0.00010887841 0)
(0.010093476 0.00010485878 0)
(0.0097417611 9.1728272e-05 0)
(0.0093997273 9.7468945e-05 0)
(0.009066695 8.666637e-05 0)
(0.0087420883 9.2901433e-05 0)
(0.0084264574 9.1592143e-05 0)
(0.0081186418 8.9755534e-05 0)
(0.0078200691 8.7487915e-05 0)
(0.0075287958 8.5112954e-05 0)
(0.0072425261 8.9306899e-05 0)
(0.0069630061 8.0301108e-05 0)
(0.0066905795 7.8084126e-05 0)
(0.0064242784 7.6391973e-05 0)
(0.0061635832 7.4713392e-05 0)
(0.0059083554 7.307557e-05 0)
(0.0056583855 7.1501175e-05 0)
(0.005413436 6.9994289e-05 0)
(0.0051732402 6.852569e-05 0)
(0.0049376645 6.6758915e-05 0)
(0.0047060467 6.0754143e-05 0)
(0.0044784464 6.4135458e-05 0)
(0.004255002 6.3499817e-05 0)
(0.0040351279 6.2481609e-05 0)
(0.0038186991 6.1494322e-05 0)
(0.0036054363 6.0812406e-05 0)
(0.0033955322 6.3234629e-05 0)
(0.003188544 5.9082106e-05 0)
(0.0029839911 5.7876993e-05 0)
(0.0027819961 5.6910227e-05 0)
(0.0025818654 5.6144102e-05 0)
(0.0023839031 5.5591149e-05 0)
(0.0021883732 5.5240452e-05 0)
(0.0019945978 5.5009651e-05 0)
(0.0018024241 5.6425854e-05 0)
(0.001611697 5.4165438e-05 0)
(0.0014224221 5.2197024e-05 0)
(0.0012342972 5.3344688e-05 0)
(0.0010470403 5.4178354e-05 0)
(0.0008605976 5.2882984e-05 0)
(0.00067473928 5.2570996e-05 0)
(0.0004905808 5.1947483e-05 0)
(0.00031242308 4.9943157e-05 0)
(0.00014650756 4.3064027e-05 0)
(2.8035006e-05 2.7827073e-05 0)
(0.0014605303 -0.0050898751 0)
(0.0057079173 -0.0062031193 0)
(0.010320144 -0.0063732252 0)
(0.014911806 -0.0064212669 0)
(0.019522193 -0.0064433795 0)
(0.024144311 -0.0064630015 0)
(0.02877996 -0.006485873 0)
(0.033431812 -0.0065129624 0)
(0.038102455 -0.0065446086 0)
(0.0427949 -0.0065816313 0)
(0.047509263 -0.0066211096 0)
(0.052244906 -0.0066597688 0)
(0.057006692 -0.0067000425 0)
(0.061798426 -0.0067430693 0)
(0.066623845 -0.0067896453 0)
(0.071486525 -0.0068403291 0)
(0.076389962 -0.0068955038 0)
(0.081337628 -0.0069554335 0)
(0.08633299 -0.0070203055 0)
(0.091379528 -0.0070902563 0)
(0.096480741 -0.0071653893 0)
(0.10164016 -0.0072457894 0)
(0.10686133 -0.0073315344 0)
(0.11214784 -0.0074226876 0)
(0.11750339 -0.0075193361 0)
(0.12293147 -0.0076214915 0)
(0.12843639 -0.0077293735 0)
(0.13402034 -0.0078425984 0)
(0.13969143 -0.007962428 0)
(0.14544279 -0.008085836 0)
(0.15130405 -0.0082202247 0)
(0.15722126 -0.0083492895 0)
(0.16332141 -0.0085060534 0)
(0.16936314 -0.0086312139 0)
(0.17580824 -0.0088147305 0)
(0.18186511 -0.0089569178 0)
(0.18881748 -0.0090839002 0)
(0.19478047 -0.009439185 0)
(0.20229219 -0.0091815593 0)
(0.20831804 -0.010135844 0)
(0.21604901 -0.0092836604 0)
(0.22267064 -0.010546216 0)
(0.23014797 -0.010043999 0)
(0.23762388 -0.010319592 0)
(0.24496617 -0.011022542 0)
(0.25297303 -0.01065448 0)
(0.26061834 -0.01109424 0)
(0.26874128 -0.011559542 0)
(0.27712111 -0.011456263 0)
(0.28519891 -0.011829865 0)
(0.2939067 -0.01217971 0)
(0.30284717 -0.012235838 0)
(0.31145303 -0.012662662 0)
(0.3205651 -0.012889768 0)
(0.33011904 -0.013072017 0)
(0.33954956 -0.013371872 0)
(0.34902149 -0.013723542 0)
(0.35895394 -0.013974573 0)
(0.36920479 -0.014211281 0)
(0.37947184 -0.014488821 0)
(0.38981407 -0.014764046 0)
(0.40052936 -0.015112528 0)
(0.41152867 -0.015412687 0)
(0.4225948 -0.015695484 0)
(0.43391831 -0.015900894 0)
(0.44544919 -0.016140124 0)
(0.45714792 -0.016567506 0)
(0.46919974 -0.016899172 0)
(0.4813971 -0.017103446 0)
(0.49363155 -0.017338567 0)
(0.50614189 -0.01761484 0)
(0.51895913 -0.017906619 0)
(0.53200858 -0.018184682 0)
(0.54524678 -0.018436011 0)
(0.55857459 -0.018716922 0)
(0.57206804 -0.019046199 0)
(0.58588204 -0.019326002 0)
(0.59992094 -0.01949935 0)
(0.6140074 -0.019573472 0)
(0.62810815 -0.019613012 0)
(0.64232526 -0.019788953 0)
(0.6568572 -0.02018018 0)
(0.67186075 -0.020647149 0)
(0.68719685 -0.020983279 0)
(0.7024764 -0.020967769 0)
(0.71737895 -0.02070127 0)
(0.73204783 -0.020443073 0)
(0.74667376 -0.020306926 0)
(0.76166853 -0.020505647 0)
(0.77709979 -0.020816756 0)
(0.79285091 -0.02103907 0)
(0.80873916 -0.021146076 0)
(0.82445364 -0.021021627 0)
(0.83982757 -0.02064667 0)
(0.85490973 -0.02024892 0)
(0.86978986 -0.019939581 0)
(0.88454691 -0.019499491 0)
(0.89891723 -0.018843189 0)
(0.91274825 -0.018229565 0)
(0.92615901 -0.017768514 0)
(0.93951996 -0.017595215 0)
(0.95348948 -0.017712466 0)
(0.96829914 -0.017718163 0)
(0.98330438 -0.01715602 0)
(0.99721626 -0.015792541 0)
(1.0089011 -0.013686849 0)
(1.0181149 -0.011106952 0)
(1.0252882 -0.008559285 0)
(1.031295 -0.0070567848 0)
(1.037547 -0.0075971401 0)
(1.0452334 -0.0097041833 0)
(1.0547707 -0.011392015 0)
(1.0656194 -0.01012426 0)
(1.076404 -0.0062193558 0)
(1.0845974 -0.0018787213 0)
(1.0885299 0.0013551352 0)
(1.0885394 0.0036834238 0)
(1.0862699 0.0049287935 0)
(1.0833614 0.0048778455 0)
(1.0808446 0.0040108005 0)
(1.0796982 0.0025449605 0)
(1.0806968 0.00018747186 0)
(1.0838901 -0.0024977621 0)
(1.0882908 -0.004300546 0)
(1.0928488 -0.0052291181 0)
(1.0969982 -0.0056794515 0)
(1.100066 -0.0056828551 0)
(1.1020187 -0.0052221703 0)
(1.1030936 -0.0047234873 0)
(1.1046884 -0.0052928804 0)
(1.1091415 -0.0077999632 0)
(1.1185164 -0.012535514 0)
(1.1301749 -0.019466463 0)
(1.1358959 -0.025382468 0)
(1.1268984 -0.017335247 0)
(1.0786595 0.0016684705 0)
(0.96663304 0.01132893 0)
(1.0051205 0.35149836 0)
(0.74884836 0.30568305 0)
(0.56779867 0.25964187 0)
(0.50523208 0.17159918 0)
(0.44085556 0.10752126 0)
(0.38830845 0.072817519 0)
(0.34658567 0.05294504 0)
(0.31267044 0.040743694 0)
(0.28471641 0.032703129 0)
(0.26123226 0.027064364 0)
(0.24117069 0.022916565 0)
(0.22381431 0.019745628 0)
(0.20859968 0.017247036 0)
(0.19513705 0.015224891 0)
(0.18311693 0.013565859 0)
(0.17228649 0.012170396 0)
(0.16247738 0.010992781 0)
(0.15355396 0.0099854381 0)
(0.14539487 0.0091131813 0)
(0.13790123 0.0083516888 0)
(0.13099235 0.0076825176 0)
(0.12460279 0.0070908321 0)
(0.11867352 0.0065656366 0)
(0.11316347 0.0060971527 0)
(0.1080229 0.00567745 0)
(0.10320085 0.0053000734 0)
(0.098694789 0.0049520416 0)
(0.094470281 0.0046235451 0)
(0.090494877 0.0044185441 0)
(0.086755238 0.0041189363 0)
(0.083227223 0.003789079 0)
(0.079882872 0.0036182149 0)
(0.076727061 0.0033616495 0)
(0.073734344 0.0032213326 0)
(0.070899198 0.0030570842 0)
(0.068211345 0.0029023268 0)
(0.065654493 0.0027533322 0)
(0.063220449 0.0026144361 0)
(0.060901569 0.0024859261 0)
(0.058690379 0.0023661743 0)
(0.056580007 0.0022541722 0)
(0.054564251 0.0021492887 0)
(0.052637391 0.0020509825 0)
(0.050794102 0.0019587638 0)
(0.049029431 0.0018721847 0)
(0.047338765 0.0017908318 0)
(0.045717815 0.0017143305 0)
(0.044162507 0.0016423722 0)
(0.042669265 0.0015747581 0)
(0.041233603 0.0015115759 0)
(0.039856599 0.0014180279 0)
(0.038533417 0.0013855404 0)
(0.037257717 0.0013369228 0)
(0.036028731 0.0012865448 0)
(0.034844572 0.0012379291 0)
(0.033703143 0.0011916809 0)
(0.032602223 0.0011478248 0)
(0.031539803 0.0011061357 0)
(0.030514124 0.0010664869 0)
(0.029523532 0.0010288809 0)
(0.028565927 0.00099343731 0)
(0.027639782 0.00095937035 0)
(0.026744058 0.00092684558 0)
(0.025877195 0.00089601328 0)
(0.025037773 0.00086680664 0)
(0.024224179 0.00083839152 0)
(0.023437389 0.00079385343 0)
(0.022674917 0.00078336134 0)
(0.021933778 0.00076173698 0)
(0.021214243 0.00073883952 0)
(0.020515611 0.0007165873 0)
(0.019837065 0.00069526175 0)
(0.019177737 0.000674879 0)
(0.018536786 0.00065540903 0)
(0.017913363 0.00063678232 0)
(0.017306723 0.00061952433 0)
(0.016715708 0.00061448045 0)
(0.016140127 0.00058825574 0)
(0.015578715 0.00058274731 0)
(0.015031286 0.00055782655 0)
(0.014498048 0.00054240753 0)
(0.013977856 0.00052874888 0)
(0.013468516 0.00050716262 0)
(0.012970077 0.0005025469 0)
(0.012486458 0.00049058985 0)
(0.012013968 0.00047993387 0)
(0.011549251 0.00046976351 0)
(0.011094176 0.00045975843 0)
(0.010648554 0.00045006111 0)
(0.010211964 0.00044075964 0)
(0.0097839389 0.00043188325 0)
(0.0093640543 0.00042343012 0)
(0.0089518849 0.00041540187 0)
(0.0085470163 0.00040818962 0)
(0.008149005 0.00040661839 0)
(0.0077575915 0.00039445692 0)
(0.0073725038 0.00038737953 0)
(0.0069933621 0.00038127405 0)
(0.0066198159 0.00037554044 0)
(0.0062515212 0.00036977672 0)
(0.0058885454 0.00036056666 0)
(0.0055302346 0.00035967963 0)
(0.0051759027 0.00035562696 0)
(0.0048255512 0.00035155844 0)
(0.004479481 0.00035045547 0)
(0.0041370063 0.00034414012 0)
(0.0037973067 0.00034069482 0)
(0.0034606265 0.00033757283 0)
(0.0031267436 0.00033296641 0)
(0.0027953585 0.00033260956 0)
(0.0024658407 0.00033073762 0)
(0.0021382332 0.00032876508 0)
(0.0018126516 0.00032578795 0)
(0.0014885031 0.00032554331 0)
(0.0011660055 0.00032421929 0)
(0.00084683751 0.00031718827 0)
(0.0005381457 0.0002987739 0)
(0.00025313706 0.00025171473 0)
(4.3677087e-05 0.00014678391 0)
(0.0014613511 -0.0086489248 0)
(0.0056941897 -0.010664185 0)
(0.010277084 -0.010951321 0)
(0.014848083 -0.011010791 0)
(0.019438299 -0.011041429 0)
(0.024039495 -0.011072855 0)
(0.02865358 -0.011110123 0)
(0.033283327 -0.011154221 0)
(0.037931334 -0.011205446 0)
(0.042600197 -0.011263855 0)
(0.047292815 -0.011329583 0)
(0.052012645 -0.011403211 0)
(0.056762796 -0.011485084 0)
(0.061546017 -0.011575243 0)
(0.06636517 -0.011673711 0)
(0.071223253 -0.011780511 0)
(0.076123352 -0.011895672 0)
(0.081068615 -0.012019229 0)
(0.086062242 -0.012151245 0)
(0.091107487 -0.012291792 0)
(0.096207644 -0.012440967 0)
(0.10136607 -0.012598878 0)
(0.10658614 -0.012765649 0)
(0.11187132 -0.012941417 0)
(0.11722519 -0.013126331 0)
(0.12265108 -0.013320536 0)
(0.12815339 -0.013524206 0)
(0.13373377 -0.013737466 0)
(0.13940149 -0.013960552 0)
(0.14514634 -0.014193479 0)
(0.15100636 -0.014436517 0)
(0.15690672 -0.014690028 0)
(0.16302334 -0.014952207 0)
(0.16900651 -0.01523047 0)
(0.17554138 -0.015502808 0)
(0.18141036 -0.015827602 0)
(0.18863705 -0.016066365 0)
(0.19418369 -0.016523926 0)
(0.20216406 -0.016580576 0)
(0.20771136 -0.017400391 0)
(0.21574429 -0.016998537 0)
(0.22225439 -0.018376357 0)
(0.22964528 -0.017630715 0)
(0.23716179 -0.018901274 0)
(0.24454587 -0.019015001 0)
(0.25247426 -0.018969344 0)
(0.25991174 -0.020154365 0)
(0.26838015 -0.020239631 0)
(0.27658856 -0.020240314 0)
(0.28437875 -0.021328442 0)
(0.293319 -0.021791784 0)
(0.30233263 -0.021659588 0)
(0.31073867 -0.022459057 0)
(0.31977507 -0.023140171 0)
(0.32924236 -0.023581445 0)
(0.33883556 -0.023819534 0)
(0.34846713 -0.024323907 0)
(0.35805457 -0.025016271 0)
(0.36794319 -0.025765314 0)
(0.37851393 -0.026020332 0)
(0.38921848 -0.026312033 0)
(0.39970455 -0.027136983 0)
(0.41027741 -0.027756533 0)
(0.42123104 -0.028219942 0)
(0.43279815 -0.028661652 0)
(0.44450609 -0.029210604 0)
(0.45607449 -0.029966042 0)
(0.4679569 -0.030480555 0)
(0.48011328 -0.030764307 0)
(0.49226424 -0.031259634 0)
(0.50462522 -0.032010259 0)
(0.51743169 -0.032659356 0)
(0.53061959 -0.033139731 0)
(0.54397086 -0.033538613 0)
(0.55732896 -0.03393729 0)
(0.57069175 -0.03448485 0)
(0.58418415 -0.035098372 0)
(0.5979372 -0.035545408 0)
(0.61200158 -0.035752418 0)
(0.62634517 -0.035929775 0)
(0.64085181 -0.036425868 0)
(0.65557921 -0.037268733 0)
(0.67056408 -0.038179886 0)
(0.68574141 -0.038549818 0)
(0.70072657 -0.038199999 0)
(0.71536624 -0.037569771 0)
(0.72977107 -0.037247624 0)
(0.74441985 -0.037583002 0)
(0.75972305 -0.038401819 0)
(0.77557422 -0.039239663 0)
(0.79178961 -0.039765884 0)
(0.80791621 -0.039753487 0)
(0.82348815 -0.039169263 0)
(0.83851901 -0.038387249 0)
(0.85320504 -0.037761837 0)
(0.86780116 -0.037224808 0)
(0.88264693 -0.036467664 0)
(0.89775572 -0.035413317 0)
(0.91257242 -0.034252556 0)
(0.92648148 -0.033462462 0)
(0.93958269 -0.033803622 0)
(0.95273963 -0.035252884 0)
(0.96683189 -0.036372494 0)
(0.98170653 -0.035315352 0)
(0.99605034 -0.031422752 0)
(1.0084099 -0.02591092 0)
(1.0184649 -0.020624495 0)
(1.027026 -0.016850817 0)
(1.0350661 -0.01546198 0)
(1.0429661 -0.016777038 0)
(1.0507725 -0.019974441 0)
(1.0585832 -0.022705131 0)
(1.0665696 -0.022161561 0)
(1.0745405 -0.017447696 0)
(1.0810363 -0.0099134669 0)
(1.0846939 -0.0021604472 0)
(1.0852997 0.0034321764 0)
(1.0844775 0.0060495407 0)
(1.0837667 0.0064334696 0)
(1.083321 0.0051537104 0)
(1.0841996 0.0014531236 0)
(1.0875398 -0.0039117744 0)
(1.0913727 -0.0082783273 0)
(1.0945126 -0.010347556 0)
(1.0972286 -0.010828454 0)
(1.0994065 -0.010225744 0)
(1.1007915 -0.0088440466 0)
(1.1023427 -0.0077623782 0)
(1.1059661 -0.0085198156 0)
(1.1131751 -0.012360601 0)
(1.124369 -0.01968961 0)
(1.1348828 -0.029971635 0)
(1.1388326 -0.035704986 0)
(1.1221679 -0.013124363 0)
(1.0534626 0.019948001 0)
(0.92202844 0.045504797 0)
(0.86724937 0.22945251 0)
(0.63465713 0.41536515 0)
(0.5362281 0.40609435 0)
(0.51709029 0.31915723 0)
(0.48609491 0.22040052 0)
(0.44517738 0.15615313 0)
(0.4046546 0.11582755 0)
(0.36822212 0.089474983 0)
(0.33652551 0.071356373 0)
(0.30917006 0.058924227 0)
(0.28548607 0.04946624 0)
(0.26484934 0.042306812 0)
(0.24671334 0.03672909 0)
(0.23065142 0.032301314 0)
(0.2163158 0.028600817 0)
(0.20342381 0.025783277 0)
(0.19178644 0.023169113 0)
(0.18121577 0.020968051 0)
(0.17155518 0.019091254 0)
(0.16269144 0.017468683 0)
(0.15453083 0.016051329 0)
(0.14699124 0.014803129 0)
(0.14000546 0.01369614 0)
(0.13350944 0.012709577 0)
(0.12746375 0.011820231 0)
(0.12181536 0.011023797 0)
(0.11651353 0.010305177 0)
(0.11154454 0.0096524424 0)
(0.10688179 0.0090706694 0)
(0.10249085 0.0084491819 0)
(0.098352003 0.0079855231 0)
(0.094439995 0.0076204587 0)
(0.090734739 0.0071528364 0)
(0.087229249 0.0068216723 0)
(0.083908402 0.0064268287 0)
(0.080754856 0.0060169949 0)
(0.077749178 0.0057475878 0)
(0.074892931 0.0054704286 0)
(0.072177439 0.0052055833 0)
(0.069587217 0.0049587558 0)
(0.0671137 0.0047277003 0)
(0.064750278 0.0045109682 0)
(0.062490522 0.0043075602 0)
(0.060328264 0.0041165273 0)
(0.058257768 0.003937002 0)
(0.056273701 0.0037681801 0)
(0.054371096 0.0036093033 0)
(0.052545341 0.0034596704 0)
(0.050792237 0.0033186783 0)
(0.049107768 0.0031858362 0)
(0.047489119 0.003060743 0)
(0.045930609 0.0029379853 0)
(0.044428558 0.0028267033 0)
(0.042983696 0.0027202249 0)
(0.041591829 0.002618914 0)
(0.04024949 0.0025226994 0)
(0.038954198 0.002431354 0)
(0.03770356 0.0023447105 0)
(0.036495456 0.0022621279 0)
(0.035328157 0.0021833735 0)
(0.034200218 0.0021085989 0)
(0.033108552 0.0020382322 0)
(0.032051684 0.0019704167 0)
(0.031029298 0.0019054983 0)
(0.030039243 0.0018438949 0)
(0.029079917 0.0017854337 0)
(0.028150227 0.0017296984 0)
(0.027247475 0.0016743274 0)
(0.026370792 0.0016244662 0)
(0.025520867 0.0015759767 0)
(0.024695492 0.0015293641 0)
(0.023893319 0.0014846991 0)
(0.023113399 0.0014419327 0)
(0.022354873 0.0014010213 0)
(0.021616784 0.0013619602 0)
(0.020898168 0.00132466 0)
(0.02019782 0.0012890428 0)
(0.019516272 0.0012551191 0)
(0.018852116 0.0012223769 0)
(0.018204032 0.0011922845 0)
(0.017571997 0.0011615474 0)
(0.016954476 0.0011329681 0)
(0.01635147 0.0011062117 0)
(0.015761701 0.0010893632 0)
(0.015185088 0.0010560374 0)
(0.014622005 0.0010217303 0)
(0.014071044 0.0010074278 0)
(0.013531414 0.00098698489 0)
(0.01300267 0.00096639285 0)
(0.012484384 0.00094656251 0)
(0.01197613 0.00092761296 0)
(0.01147745 0.00090956153 0)
(0.010987869 0.00089239666 0)
(0.010506942 0.00087610048 0)
(0.010034189 0.00086066858 0)
(0.0095696163 0.00084609403 0)
(0.0091125974 0.0008321211 0)
(0.0086622983 0.0008189063 0)
(0.0082186928 0.00080645537 0)
(0.0077814862 0.00079472969 0)
(0.0073503314 0.0007836319 0)
(0.006924557 0.00077278634 0)
(0.0065040034 0.0007634139 0)
(0.0060886279 0.00075432355 0)
(0.0056778277 0.00074552858 0)
(0.005271541 0.00073457046 0)
(0.0048692388 0.00073014574 0)
(0.0044703397 0.00072377217 0)
(0.0040747917 0.00071782311 0)
(0.0036823925 0.00071416519 0)
(0.0032928113 0.00070731561 0)
(0.0029054649 0.00070283318 0)
(0.0025203105 0.00069883813 0)
(0.0021372194 0.00069531823 0)
(0.0017558851 0.0006921203 0)
(0.0013767594 0.0006869402 0)
(0.0010015429 0.00067336129 0)
(0.00063801141 0.00063476783 0)
(0.00030174742 0.00053762802 0)
(5.062358e-05 0.0003142927 0)
(0.0014628269 -0.012197577 0)
(0.0056892904 -0.015102158 0)
(0.010262173 -0.015511826 0)
(0.01482604 -0.01559524 0)
(0.01941006 -0.015637592 0)
(0.024004846 -0.015681083 0)
(0.028612105 -0.015732674 0)
(0.033234786 -0.015793714 0)
(0.037875661 -0.01586453 0)
(0.042537503 -0.0159452 0)
(0.047223225 -0.016035665 0)
(0.051935892 -0.016135965 0)
(0.056678522 -0.016246391 0)
(0.061454039 -0.016367111 0)
(0.06626539 -0.016498224 0)
(0.071115574 -0.01663981 0)
(0.076007649 -0.016791979 0)
(0.080944714 -0.016954874 0)
(0.085929928 -0.017128672 0)
(0.090966513 -0.017313582 0)
(0.096057759 -0.017509847 0)
(0.101207 -0.017717724 0)
(0.10641767 -0.017937479 0)
(0.11169318 -0.018169374 0)
(0.11703716 -0.018413659 0)
(0.12245298 -0.018670608 0)
(0.12794499 -0.018940407 0)
(0.133515 -0.019223465 0)
(0.13917195 -0.019519493 0)
(0.14490665 -0.019830109 0)
(0.1507545 -0.020151778 0)
(0.15664751 -0.020493983 0)
(0.16274541 -0.020835035 0)
(0.16873402 -0.021223072 0)
(0.17522835 -0.021559719 0)
(0.18113268 -0.022033542 0)
(0.18829245 -0.022307489 0)
(0.19386542 -0.022952557 0)
(0.20187565 -0.023037917 0)
(0.20721239 -0.024053738 0)
(0.21565024 -0.023663146 0)
(0.22156617 -0.025337969 0)
(0.22951715 -0.024479658 0)
(0.23671828 -0.026061561 0)
(0.24403899 -0.026346962 0)
(0.25218958 -0.026200714 0)
(0.25952607 -0.027655209 0)
(0.26786083 -0.028098729 0)
(0.27616112 -0.027981437 0)
(0.28405079 -0.0290082 0)
(0.29288226 -0.03013198 0)
(0.30177853 -0.030172441 0)
(0.31028968 -0.030582895 0)
(0.3194523 -0.031467479 0)
(0.32884106 -0.032628809 0)
(0.33821708 -0.033072322 0)
(0.34796105 -0.0332166 0)
(0.3578059 -0.033786146 0)
(0.36747649 -0.03530407 0)
(0.37798249 -0.03609641 0)
(0.38885215 -0.036304115 0)
(0.39927878 -0.036765627 0)
(0.40972359 -0.037434641 0)
(0.42079198 -0.038680055 0)
(0.43254759 -0.039654364 0)
(0.44433544 -0.040000572 0)
(0.45567171 -0.040627529 0)
(0.46731488 -0.04148394 0)
(0.47955504 -0.04198178 0)
(0.49199547 -0.042524474 0)
(0.5046164 -0.043530079 0)
(0.51749414 -0.044544884 0)
(0.53051193 -0.045356432 0)
(0.54359881 -0.045876347 0)
(0.55687115 -0.046156356 0)
(0.57028554 -0.046549915 0)
(0.58390734 -0.047254325 0)
(0.59785042 -0.048079253 0)
(0.61221302 -0.048752071 0)
(0.62692829 -0.049242532 0)
(0.64156775 -0.049833536 0)
(0.65605241 -0.050686782 0)
(0.67048869 -0.051620467 0)
(0.68516889 -0.051919651 0)
(0.6999838 -0.05135391 0)
(0.71494716 -0.050512337 0)
(0.73012231 -0.050351756 0)
(0.74562231 -0.051156726 0)
(0.76151518 -0.05256681 0)
(0.77755316 -0.053843282 0)
(0.79346953 -0.054240603 0)
(0.80905461 -0.053682492 0)
(0.82415195 -0.052464202 0)
(0.8387378 -0.051134779 0)
(0.85288195 -0.050286362 0)
(0.86708715 -0.050162781 0)
(0.88211287 -0.050185783 0)
(0.89810701 -0.049474365 0)
(0.91452417 -0.04763933 0)
(0.93057698 -0.045536563 0)
(0.9454002 -0.044741788 0)
(0.95876019 -0.045850042 0)
(0.97116265 -0.047438255 0)
(0.98344917 -0.047033786 0)
(0.99596672 -0.043113336 0)
(1.0080391 -0.036683135 0)
(1.0188145 -0.030153681 0)
(1.0284154 -0.025387448 0)
(1.0378674 -0.023169673 0)
(1.0476638 -0.023560338 0)
(1.0572012 -0.025747639 0)
(1.0656659 -0.027611226 0)
(1.0723306 -0.026589505 0)
(1.0769597 -0.02122102 0)
(1.0798291 -0.012338086 0)
(1.0813908 -0.002959721 0)
(1.0824564 0.0037757016 0)
(1.0837554 0.0064725287 0)
(1.0853878 0.0061175008 -3.3138053e-34)
(1.0881509 0.0035125112 -1.8433724e-29)
(1.092366 -0.0018510155 0)
(1.0959936 -0.0073067955 0)
(1.0980208 -0.010123141 0)
(1.0990161 -0.010809444 0)
(1.0992642 -0.010680417 0)
(1.0991547 -0.01014548 0)
(1.100392 -0.0092634332 0)
(1.1040344 -0.010756014 0)
(1.1111393 -0.015634022 -4.7331123e-34)
(1.121035 -0.025556162 -2.9452726e-29)
(1.1278178 -0.036792152 -7.8813871e-34)
(1.124522 -0.039400397 -1.8002492e-29)
(1.0909081 -0.006354785 0)
(0.99236461 0.034505334 0)
(0.83027762 0.085933176 0)
(0.78450138 0.29873687 0)
(0.53169349 0.41718973 0)
(0.4438556 0.47210562 0)
(0.45185653 0.43206298 4.9093365e-33)
(0.45950615 0.33036019 8.780186e-29)
(0.44663604 0.24839091 0)
(0.42098434 0.19106029 0)
(0.39134683 0.15024996 0)
(0.3620931 0.12090782 0)
(0.33495438 0.099361725 0)
(0.31038874 0.083324546 0)
(0.28845388 0.071017396 0)
(0.26891506 0.061381549 0)
(0.25142496 0.053695932 0)
(0.23572595 0.047427298 0)
(0.22157186 0.042322433 -1.5560719e-33)
(0.20874795 0.037832773 -7.9645056e-29)
(0.19711376 0.034241017 0)
(0.18649891 0.031139078 0)
(0.17676036 0.028440878 0)
(0.16779743 0.026081895 0)
(0.15952473 0.024007833 0)
(0.15186601 0.02217392 0)
(0.14475519 0.020542383 0)
(0.13813564 0.019090501 0)
(0.13195753 0.017753917 7.2127183e-34)
(0.12617951 0.016684235 3.7894437e-29)
(0.12076744 0.015560439 0)
(0.11568466 0.014573027 0)
(0.11090267 0.013668377 5.6298739e-34)
(0.10639917 0.012942493 2.9764085e-29)
(0.10214266 0.012152304 0)
(0.098119321 0.01145949 0)
(0.094314687 0.010823256 0)
(0.090708312 0.010247913 0)
(0.087296229 0.009704108 4.0479838e-34)
(0.084051489 0.0092710255 2.1550604e-29)
(0.080951399 0.0087747983 0)
(0.078002452 0.0083285311 0)
(0.075200564 0.0079270048 0)
(0.072526782 0.0075543489 0)
(0.069971612 0.0072061706 0)
(0.067529322 0.006880135 0)
(0.065193523 0.0065741978 0)
(0.062957734 0.0062867317 0)
(0.060815997 0.0060164066 0)
(0.058762835 0.0057620178 0)
(0.056793189 0.0055224261 0)
(0.054902371 0.0052965606 0)
(0.053086102 0.0050834292 0)
(0.05134024 0.0048820766 0)
(0.049661679 0.0046913632 0)
(0.048044825 0.0045089892 0)
(0.046486636 0.0043383867 0)
(0.044986794 0.004177462 0)
(0.043541306 0.0040245078 0)
(0.042146955 0.003879048 0)
(0.040801238 0.0037408561 0)
(0.039501239 0.0036099159 0)
(0.038244709 0.0034847481 0)
(0.037030309 0.0033650062 0)
(0.03585657 0.0032508832 0)
(0.034720691 0.0031447839 0)
(0.033620722 0.0030404095 0)
(0.032555926 0.0029419712 0)
(0.031524423 0.0028483958 0)
(0.030524491 0.002759114 0)
(0.029554931 0.0026735708 0)
(0.028613246 0.0025910669 0)
(0.027698688 0.0025137019 0)
(0.026811464 0.0024400058 0)
(0.025949582 0.0023692494 0)
(0.025111766 0.002301342 0)
(0.024296979 0.0022362343 0)
(0.023504351 0.0021738749 0)
(0.022732936 0.0021143909 0)
(0.021981661 0.0020576849 0)
(0.021249764 0.0020032099 -7.4373335e-35)
(0.020535881 0.0019397323 -4.0126739e-30)
(0.019839181 0.0019003863 0)
(0.019160944 0.0018542754 0)
(0.018499439 0.0018085787 0)
(0.017852391 0.0017648346 0)
(0.017219913 0.0017230729 0)
(0.016602445 0.0016831696 0)
(0.015999142 0.0016449127 0)
(0.015407587 0.0016070039 0)
(0.014828195 0.0015732584 0)
(0.014261473 0.0015404496 0)
(0.013706319 0.0015088226 0)
(0.013162038 0.0014785057 0)
(0.012628096 0.0014495375 0)
(0.012104032 0.0014219263 0)
(0.011589403 0.0013956618 0)
(0.011083752 0.0013707234 0)
(0.010586669 0.0013467468 -3.5984226e-35)
(0.010097557 0.0013187594 -1.9196291e-30)
(0.0096160982 0.0013025746 0)
(0.009142109 0.0012828561 0)
(0.0086751049 0.0012636885 0)
(0.0082146752 0.0012455602 0)
(0.0077604365 0.0012284037 0)
(0.0073117704 0.0012122003 0)
(0.0068685377 0.0011973654 0)
(0.0064306539 0.0011834864 0)
(0.0059975464 0.001170419 0)
(0.0055688625 0.001157926 0)