/*--------------------------------*- C++ -*----------------------------------*\
| =========                 |                                                 |
| \\      /  F ield         | OpenFOAM: The Open Source CFD Toolbox           |
|  \\    /   O peration     | Version:  2306                                  |
|   \\  /    A nd           | Website:  www.openfoam.com                      |
|    \\/     M anipulation  |                                                 |
\*---------------------------------------------------------------------------*/
FoamFile
{
    version     2.0;
    format      ascii;
    arch        "LSB;label=32;scalar=64";
    class       volVectorField;
    location    "0.11";
    object      U_0;
}
// * * * * * * * * * * * * * * * * * * * * * * * * * * * * * * * * * * * * * //

dimensions      [0 1 -1 0 0 0 0];

internalField   nonuniform List<vector> 
51200
(
(-1.9988285e-05 1.4570399e-05 4.308062e-20)
(-4.7819572e-05 1.7847644e-05 -1.0774764e-21)
(-7.9639892e-05 1.7884568e-05 -1.369182e-20)
(-0.00011079135 1.8140307e-05 5.3019023e-21)
(-0.0001428204 1.8251246e-05 1.2449484e-20)
(-0.00017466634 1.820969e-05 -1.0364983e-20)
(-0.00020626402 1.8124105e-05 -4.8556365e-21)
(-0.00023757057 1.8003342e-05 1.2202944e-20)
(-0.00026854051 1.7855213e-05 1.3636967e-20)
(-0.00029913138 1.768462e-05 -1.7011093e-20)
(-0.00032930398 1.7494097e-05 -2.0974354e-20)
(-0.00035902075 1.7285179e-05 2.2218995e-20)
(-0.00038824491 1.705901e-05 -5.724742e-21)
(-0.00041694075 1.6816523e-05 -1.9869777e-20)
(-0.00044507401 1.655854e-05 -3.8765918e-21)
(-0.00047261188 1.6285832e-05 5.0792594e-22)
(-0.00049952304 1.599916e-05 1.527299e-20)
(-0.00052577776 1.5699272e-05 -5.4186716e-21)
(-0.00055134796 1.538692e-05 -1.2744134e-20)
(-0.00057620733 1.5062814e-05 6.6869458e-21)
(-0.00060033133 1.472765e-05 -3.4221434e-21)
(-0.00062369728 1.4382089e-05 -5.1167804e-21)
(-0.00064628437 1.402672e-05 1.5311628e-20)
(-0.00066807367 1.366205e-05 4.4270735e-20)
(-0.00068904817 1.3288449e-05 7.0113375e-20)
(-0.00070919275 1.2906085e-05 -2.8001912e-20)
(-0.0007284941 1.2514803e-05 -1.3341304e-19)
(-0.00074694075 1.2113996e-05 -2.6284905e-20)
(-0.00076452309 1.170238e-05 6.7736443e-20)
(-0.00078123424 1.1278008e-05 5.7643567e-20)
(-0.00079707537 1.0839372e-05 3.5020291e-20)
(-0.00081205573 1.0394939e-05 -4.5725016e-21)
(-0.00082616923 9.9666511e-06 2.8076572e-20)
(-0.0008394018 9.5568481e-06 -6.29962e-20)
(-0.00085175239 9.1619376e-06 -1.0142939e-19)
(-0.00086322597 8.7787382e-06 9.5211928e-20)
(-0.00087382944 8.4051601e-06 3.3804716e-20)
(-0.00088357075 8.0399287e-06 -1.8131022e-19)
(-0.00089245897 7.6823356e-06 4.6819528e-20)
(-0.00090050422 7.331996e-06 2.6038736e-19)
(-0.00090771785 6.9887474e-06 6.5321508e-20)
(-0.00091411234 6.6525411e-06 -1.2836054e-19)
(-0.0009197013 6.3233988e-06 -2.0670786e-19)
(-0.00092449941 6.0013845e-06 -1.815254e-19)
(-0.00092852235 5.6865773e-06 9.1684134e-20)
(-0.00093178669 5.3790652e-06 4.3191983e-19)
(-0.00093430984 5.0789364e-06 5.3512761e-20)
(-0.00093611 4.7862662e-06 -1.474683e-19)
(-0.000937206 4.5011312e-06 -1.4310299e-19)
(-0.00093761733 4.2235879e-06 -3.5028652e-19)
(-0.00093736395 3.9536867e-06 2.1101685e-19)
(-0.00093646629 3.6914702e-06 2.1868723e-19)
(-0.00093494515 3.4369784e-06 -5.8884428e-20)
(-0.00093282161 3.190259e-06 1.3871078e-19)
(-0.00093011702 2.9513771e-06 -2.7713899e-19)
(-0.00092685284 2.7204149e-06 -2.1578034e-19)
(-0.00092305063 2.4975272e-06 2.7978955e-19)
(-0.00091873204 2.2829258e-06 6.4794122e-20)
(-0.00091391868 2.0767863e-06 -6.438647e-20)
(-0.00090863216 1.8791165e-06 5.4669384e-20)
(-0.00090289396 1.6898507e-06 -6.1394131e-21)
(-0.00089672536 1.5089173e-06 -3.0465959e-20)
(-0.00089014744 1.3362316e-06 -2.7886549e-20)
(-0.000883181 1.1717302e-06 -2.7202746e-20)
(-0.00087584658 1.015362e-06 -1.0937232e-19)
(-0.00086816436 8.6709448e-07 -4.5047312e-20)
(-0.0008601542 7.2693872e-07 2.5717001e-19)
(-0.00085183556 5.9495303e-07 -2.4432702e-20)
(-0.00084322755 4.7128224e-07 -1.0922278e-19)
(-0.00083434889 3.5617755e-07 3.1460195e-19)
(-0.00082521796 2.5002945e-07 -5.1804357e-20)
(-0.00081585278 1.5336974e-07 -2.4546445e-19)
(-0.00080627094 6.6847337e-08 4.6511964e-20)
(-0.00079648895 -9.0879854e-09 9.6622485e-20)
(-0.0007865185 -7.5098393e-08 8.7597424e-20)
(-0.0007763534 -1.4306748e-07 -2.1740095e-19)
(-0.00076603053 -2.7046971e-07 -1.8022567e-19)
(-0.00075559112 -4.0618889e-07 2.0186004e-19)
(-0.00074503157 -5.3373198e-07 2.3874357e-19)
(-0.00073435887 -6.5157557e-07 -7.6976268e-20)
(-0.00072358521 -7.6002527e-07 -3.050341e-19)
(-0.00071272321 -8.600002e-07 9.3554672e-20)
(-0.00070178505 -9.5247132e-07 1.9692503e-19)
(-0.00069078231 -1.0382551e-06 6.0844501e-22)
(-0.00067972598 -1.1179901e-06 7.9749852e-20)
(-0.0006686265 -1.1921867e-06 -9.1009253e-20)
(-0.00065749378 -1.2612661e-06 -4.0165236e-21)
(-0.00064633719 -1.3255728e-06 -6.2901297e-21)
(-0.00063516566 -1.3854143e-06 -1.3287141e-19)
(-0.00062398759 -1.4410558e-06 8.5226867e-20)
(-0.00061281097 -1.4927403e-06 -1.1388678e-19)
(-0.0006016433 -1.54069e-06 -6.6653932e-20)
(-0.00059049167 -1.5851096e-06 1.5911446e-19)
(-0.00057936275 -1.626193e-06 6.3122951e-20)
(-0.00056826278 -1.6641179e-06 -2.1390295e-20)
(-0.00055719762 -1.6990601e-06 -1.4876144e-19)
(-0.00054617275 -1.7311742e-06 -7.8928188e-21)
(-0.00053519326 -1.7606187e-06 9.0993752e-20)
(-0.00052426391 -1.7875374e-06 1.0833719e-19)
(-0.00051338912 -1.8120696e-06 -3.1289886e-21)
(-0.00050257293 -1.8343569e-06 -1.885714e-19)
(-0.00049181911 -1.8545174e-06 3.4077813e-20)
(-0.00048113111 -1.872673e-06 5.5784575e-20)
(-0.00047051208 -1.8889464e-06 5.7360791e-20)
(-0.0004599649 -1.9034465e-06 1.6115786e-20)
(-0.00044949217 -1.9162748e-06 -1.7143261e-19)
(-0.00043909624 -1.92754e-06 4.0295438e-20)
(-0.00042877922 -1.9373303e-06 9.6138617e-20)
(-0.00041854297 -1.945751e-06 1.380698e-20)
(-0.00040838913 -1.952878e-06 -2.7838457e-22)
(-0.00039831914 -1.9588045e-06 -1.2732437e-19)
(-0.00038833423 -1.9636083e-06 -1.8391035e-20)
(-0.00037843544 -1.9673692e-06 7.1050975e-20)
(-0.00036862362 -1.9701536e-06 1.0218826e-20)
(-0.00035889946 -1.9720353e-06 2.4970348e-20)
(-0.00034926348 -1.973086e-06 -2.9128329e-20)
(-0.00033971604 -1.9733622e-06 4.0916133e-21)
(-0.00033025736 -1.9729269e-06 2.0082547e-20)
(-0.00032088754 -1.9718356e-06 1.4983392e-21)
(-0.00031160651 -1.9701473e-06 3.3026769e-20)
(-0.00030241411 -1.9679083e-06 -3.6397589e-20)
(-0.00029331007 -1.9651718e-06 -1.8644203e-20)
(-0.00028429398 -1.961984e-06 2.9295181e-20)
(-0.00027536536 -1.9583873e-06 4.0097988e-20)
(-0.00026652363 -1.954422e-06 6.6086087e-21)
(-0.00025776811 -1.9501311e-06 -8.2011355e-20)
(-0.00024909806 -1.9455497e-06 -3.0547129e-20)
(-0.00024051264 -1.9407185e-06 4.4475278e-20)
(-0.00023201095 -1.9356635e-06 2.9815042e-20)
(-0.00022359204 -1.9304178e-06 -1.4729078e-20)
(-0.00021525489 -1.9250124e-06 -3.0795926e-20)
(-0.00020699841 -1.9194747e-06 4.482523e-22)
(-0.00019882148 -1.9138352e-06 -2.7583635e-21)
(-0.00019072292 -1.9081084e-06 -1.4132689e-20)
(-0.00018270152 -1.9023247e-06 -1.9225605e-20)
(-0.00017475604 -1.8965064e-06 9.2696698e-21)
(-0.00016688518 -1.8906725e-06 3.6202961e-20)
(-0.00015908763 -1.8848363e-06 6.843042e-21)
(-0.00015136205 -1.8790246e-06 -4.6603882e-22)
(-0.00014370708 -1.8732444e-06 -3.1311586e-21)
(-0.00013612133 -1.8675177e-06 -1.1471648e-20)
(-0.0001286034 -1.8618521e-06 9.1757821e-21)
(-0.00012115188 -1.8562656e-06 -4.7265715e-22)
(-0.00011376535 -1.8507668e-06 1.7289425e-21)
(-0.00010644238 -1.8453648e-06 1.5341266e-20)
(-9.9181535e-05 -1.8400705e-06 -2.013319e-20)
(-9.198138e-05 -1.8348904e-06 -1.3758009e-20)
(-8.4840489e-05 -1.8298278e-06 1.6257062e-20)
(-7.7757453e-05 -1.8248811e-06 1.4950113e-20)
(-7.0730877e-05 -1.8200448e-06 -3.5137365e-21)
(-6.3759418e-05 -1.8152883e-06 -1.7012201e-20)
(-5.6841836e-05 -1.8105402e-06 -6.0844304e-21)
(-4.9977092e-05 -1.8056245e-06 9.7768119e-21)
(-4.316459e-05 -1.8000958e-06 4.1617149e-21)
(-3.640476e-05 -1.7929017e-06 -3.8933558e-21)
(-2.9700365e-05 -1.7817634e-06 -4.2971829e-21)
(-2.305976e-05 -1.762991e-06 -4.8199838e-22)
(-1.6500911e-05 -1.7380896e-06 1.9863422e-21)
(-1.0011317e-05 -1.7816366e-06 3.3511648e-22)
(-3.3560066e-06 -2.2355047e-06 -2.2954462e-21)
(-3.9114688e-05 0.00010726899 7.5839531e-21)
(-8.8605047e-05 0.00011027849 -1.5004012e-21)
(-0.00014513969 0.00011073331 3.1514924e-21)
(-0.00020035473 0.000111268 2.7255011e-20)
(-0.00025689323 0.0001113327 2.1480214e-20)
(-0.00031313289 0.00011102579 -1.2509625e-20)
(-0.00036896947 0.00011052208 1.4849531e-20)
(-0.00042433375 0.00010987034 8.7235274e-21)
(-0.00047913742 0.00010909379 -3.1947965e-21)
(-0.00053329376 0.00010820609 -3.8212168e-21)
(-0.00058672318 0.00010721548 -1.2127405e-20)
(-0.00063935107 0.00010612773 3.976418e-21)
(-0.00069110618 0.00010494743 6.0446489e-21)
(-0.00074192065 0.00010367859 4.7516325e-20)
(-0.00079173017 0.000102325 1.4817574e-20)
(-0.00084047378 0.00010089034 1.0303146e-20)
(-0.00088809387 9.9378333e-05 5.4900264e-20)
(-0.00093453615 9.7792757e-05 3.2080588e-21)
(-0.00097974969 9.6137472e-05 -5.005272e-20)
(-0.001023687 9.4416378e-05 -3.407936e-20)
(-0.0010663042 9.2633435e-05 -8.2913476e-21)
(-0.0011075609 9.0792637e-05 -6.1256353e-21)
(-0.0011474203 8.8897981e-05 1.6471793e-20)
(-0.0011858491 8.6953426e-05 6.9079372e-20)
(-0.0012228181 8.4962862e-05 9.1899974e-20)
(-0.0012583014 8.2930018e-05 -5.5674886e-20)
(-0.001292277 8.0858386e-05 -1.3857002e-19)
(-0.0013247269 7.8751134e-05 -5.9193055e-20)
(-0.0013556367 7.661095e-05 -4.7202617e-20)
(-0.0013849957 7.4440198e-05 1.2556068e-19)
(-0.0014127912 7.2241757e-05 1.9994313e-19)
(-0.0014390078 7.0025731e-05 -6.079332e-20)
(-0.0014636462 6.7812001e-05 -1.3640098e-19)
(-0.0014867186 6.5606714e-05 -8.3166881e-20)
(-0.0015082321 6.3410692e-05 5.440161e-20)
(-0.001528194 6.1224571e-05 9.1120842e-20)
(-0.0015466142 5.9049637e-05 -1.5004106e-19)
(-0.0015635057 5.6887748e-05 -2.5110663e-19)
(-0.0015788842 5.4741147e-05 2.533043e-19)
(-0.0015927681 5.2612239e-05 3.4034416e-19)
(-0.0016051781 5.0503504e-05 -4.0193503e-19)
(-0.0016161373 4.8417404e-05 -1.7767401e-19)
(-0.0016256708 4.6356324e-05 4.3074736e-19)
(-0.0016338056 4.4322553e-05 5.0209946e-19)
(-0.0016405703 4.2318248e-05 3.340859e-20)
(-0.0016459953 4.0345439e-05 -8.5632519e-19)
(-0.0016501124 3.8406015e-05 -5.2492864e-19)
(-0.0016529548 3.6501719e-05 5.0465175e-19)
(-0.0016545566 3.4634154e-05 4.5453747e-19)
(-0.0016549531 3.280478e-05 -2.7150968e-19)
(-0.0016541804 3.1014876e-05 -4.3839999e-19)
(-0.0016522753 2.9265606e-05 3.7651261e-19)
(-0.0016492753 2.7557954e-05 5.7039946e-19)
(-0.0016452183 2.5892746e-05 -5.7112828e-20)
(-0.0016401424 2.4270642e-05 -3.5447049e-19)
(-0.0016340861 2.2692105e-05 -4.1822161e-19)
(-0.0016270878 2.1157427e-05 -4.0963572e-20)
(-0.0016191863 1.9666664e-05 5.2869493e-19)
(-0.0016104202 1.8219778e-05 1.9309574e-19)
(-0.0016008284 1.6816794e-05 -5.3847931e-19)
(-0.0015904491 1.5457722e-05 -1.8573099e-19)
(-0.0015793201 1.4142505e-05 5.4107483e-19)
(-0.0015674789 1.2870969e-05 1.697582e-19)
(-0.0015549621 1.1642882e-05 -5.6299166e-19)
(-0.0015418062 1.0457912e-05 -2.7827847e-19)
(-0.0015280467 9.3156598e-06 3.2878654e-19)
(-0.0015137187 8.2156595e-06 2.9781313e-19)
(-0.0014988563 7.1573928e-06 9.7179876e-20)
(-0.0014834929 6.1403086e-06 -1.4810216e-19)
(-0.0014676612 5.1638657e-06 -4.0002486e-19)
(-0.0014513929 4.2275448e-06 6.4025105e-20)
(-0.001434719 3.3309078e-06 2.6688134e-19)
(-0.0014176703 2.4735871e-06 -6.8747273e-20)
(-0.0014002786 1.6552827e-06 4.8190303e-20)
(-0.0013825828 8.751401e-07 2.1273959e-19)
(-0.0013646438 1.2713072e-07 4.7526813e-20)
(-0.0013464426 -6.1891675e-07 -3.1061951e-19)
(-0.0013279556 -1.3336308e-06 -2.2489034e-19)
(-0.0013092392 -2.0121633e-06 1.2622948e-19)
(-0.0012903303 -2.6558778e-06 9.9272907e-20)
(-0.0012712542 -3.2663336e-06 -1.9353557e-20)
(-0.0012520331 -3.8450657e-06 5.7118328e-20)
(-0.0012326876 -4.3934729e-06 1.1698092e-19)
(-0.0012132375 -4.9128121e-06 -1.4835233e-19)
(-0.0011937013 -5.40424e-06 -1.4783139e-20)
(-0.0011740969 -5.8688459e-06 1.671266e-19)
(-0.0011544414 -6.3076802e-06 -1.8846323e-19)
(-0.001134751 -6.7217513e-06 1.7270485e-20)
(-0.0011150408 -7.1120505e-06 1.06794e-19)
(-0.0010953255 -7.4795347e-06 -6.8534545e-20)
(-0.0010756188 -7.8251413e-06 -6.899113e-20)
(-0.0010559337 -8.1497966e-06 -1.2607289e-19)
(-0.0010362823 -8.4543841e-06 1.1993511e-19)
(-0.0010166761 -8.7397868e-06 9.8294265e-20)
(-0.00099712599 -9.0068471e-06 -5.5789782e-20)
(-0.00097764192 -9.2563994e-06 -2.8814373e-20)
(-0.00095823332 -9.4892392e-06 -1.4905512e-20)
(-0.00093890896 -9.7061565e-06 9.5951554e-20)
(-0.00091967698 -9.9079085e-06 5.3887256e-21)
(-0.00090054492 -1.0095223e-05 -1.3594621e-19)
(-0.00088151973 -1.0268838e-05 -3.4501559e-20)
(-0.00086260784 -1.0429418e-05 9.3584402e-20)
(-0.00084381512 -1.0577637e-05 9.594892e-20)
(-0.00082514693 -1.0714151e-05 1.1901839e-20)
(-0.00080660817 -1.0839576e-05 -1.0350932e-19)
(-0.00078820324 -1.0954508e-05 -1.0063612e-19)
(-0.00076993611 -1.1059532e-05 5.057359e-20)
(-0.00075181032 -1.11552e-05 1.5674655e-19)
(-0.00073382901 -1.1242066e-05 1.4343239e-20)
(-0.00071599493 -1.1320626e-05 -1.3938745e-19)
(-0.00069831045 -1.1391387e-05 -4.0914384e-20)
(-0.0006807776 -1.145482e-05 -2.9053306e-21)
(-0.00066339809 -1.1511387e-05 1.051848e-19)
(-0.0006461733 -1.1561516e-05 1.1509494e-19)
(-0.00062910432 -1.1605634e-05 -8.874845e-20)
(-0.00061219194 -1.164415e-05 -1.0333109e-19)
(-0.00059543671 -1.1677435e-05 -1.6920582e-20)
(-0.0005788389 -1.1705864e-05 9.3133434e-20)
(-0.00056239858 -1.1729782e-05 4.5011794e-20)
(-0.00054611557 -1.1749533e-05 -1.080714e-19)
(-0.00052998947 -1.1765432e-05 -3.4709684e-20)
(-0.00051401972 -1.1777787e-05 8.4264306e-20)
(-0.00049820554 -1.1786878e-05 7.1875931e-20)
(-0.00048254601 -1.1792995e-05 -2.9729319e-20)
(-0.00046704002 -1.1796388e-05 -1.0767947e-19)
(-0.00045168633 -1.1797317e-05 -1.6335197e-20)
(-0.00043648355 -1.1796012e-05 6.6538933e-20)
(-0.00042143017 -1.1792713e-05 4.4069793e-20)
(-0.00040652454 -1.1787617e-05 -1.142579e-20)
(-0.00039176493 -1.1780929e-05 -6.4283951e-20)
(-0.00037714949 -1.1772851e-05 -1.9605721e-20)
(-0.00036267627 -1.1763552e-05 6.8038301e-20)
(-0.00034834325 -1.1753217e-05 5.2548924e-20)
(-0.00033414832 -1.1741993e-05 -3.2748666e-20)
(-0.00032008931 -1.1730037e-05 -8.9087638e-20)
(-0.00030616399 -1.1717497e-05 -5.4942768e-21)
(-0.00029237005 -1.1704503e-05 7.2826648e-20)
(-0.00027870516 -1.1691176e-05 2.8247057e-20)
(-0.00026516692 -1.167765e-05 -1.5772573e-20)
(-0.00025175291 -1.1664023e-05 -2.494304e-20)
(-0.00023846067 -1.1650402e-05 -2.7365494e-21)
(-0.0002252877 -1.1636876e-05 1.1605566e-20)
(-0.00021223151 -1.1623544e-05 1.1575126e-20)
(-0.00019928957 -1.1610479e-05 -9.0848949e-21)
(-0.00018645935 -1.1597754e-05 -2.0856193e-20)
(-0.00017373829 -1.158544e-05 -1.9124354e-21)
(-0.00016112386 -1.1573591e-05 1.3893053e-20)
(-0.00014861351 -1.1562254e-05 1.858063e-20)
(-0.00013620473 -1.1551448e-05 -4.6632491e-21)
(-0.00012389502 -1.154118e-05 -2.2882929e-20)
(-0.00011168191 -1.1531408e-05 -2.371131e-21)
(-9.9562979e-05 -1.1521975e-05 1.2106763e-20)
(-8.7535878e-05 -1.1512515e-05 8.9493453e-21)
(-7.5598289e-05 -1.1502197e-05 -4.0914989e-21)
(-6.3747839e-05 -1.1489171e-05 -9.1816552e-21)
(-5.1981525e-05 -1.1469749e-05 -3.3889287e-22)
(-4.0293802e-05 -1.1438796e-05 3.6313762e-21)
(-2.8673002e-05 -1.13964e-05 1.2057642e-21)
(-1.7103249e-05 -1.1377192e-05 -1.6513726e-21)
(-5.6395219e-06 -1.1541315e-05 -2.2327151e-21)
(-4.5828468e-05 0.00023887715 -7.7524826e-20)
(-0.00010273531 0.00024091029 -2.1942888e-20)
(-0.00016782275 0.00024136281 -4.0516726e-21)
(-0.00023107527 0.00024153526 1.9657367e-20)
(-0.00029577716 0.00024115693 1.0787003e-20)
(-0.00036010199 0.00024031314 -3.1542017e-20)
(-0.00042395856 0.00023913774 2.0196219e-20)
(-0.00048728315 0.000237683 -6.7726859e-21)
(-0.00054997597 0.00023597768 1.6834748e-20)
(-0.00061193547 0.00023404064 7.9312424e-20)
(-0.0006730676 0.00023188516 1.6535871e-20)
(-0.00073328409 0.00022952167 2.5621715e-20)
(-0.00079250099 0.00022695923 -3.3104846e-20)
(-0.00085063863 0.00022420624 3.3372929e-20)
(-0.00090762175 0.00022127091 7.3214592e-20)
(-0.00096337922 0.0002181614 4.1748656e-22)
(-0.001017844 0.00021488603 3.6804813e-20)
(-0.0010709531 0.00021145327 -1.3805096e-20)
(-0.0011226476 0.00020787181 -4.6280292e-20)
(-0.0011728726 0.00020415054 2.7671755e-20)
(-0.0012215775 0.00020029848 1.3582942e-20)
(-0.0012687159 0.00019632485 3.0495167e-21)
(-0.0013142455 0.00019223897 2.9185195e-20)
(-0.0013581282 0.0001880503 6.5639882e-20)
(-0.0014003305 0.00018376835 4.0465242e-20)
(-0.0014408228 0.00017940273 -1.5085866e-20)
(-0.0014795799 0.00017496312 -3.711954e-20)
(-0.0015165809 0.00017045934 -7.6113341e-20)
(-0.0015518087 0.00016590141 -8.0517406e-20)
(-0.0015852503 0.0001612997 1.0617059e-20)
(-0.0016168956 0.00015666472 5.3633551e-20)
(-0.0016467384 0.0001520032 2.4804005e-20)
(-0.001674779 0.00014731602 -5.6892146e-20)
(-0.0017010223 0.00014261189 -1.0811562e-19)
(-0.0017254745 0.00013790099 2.3560827e-20)
(-0.0017481446 0.00013319267 6.8703176e-20)
(-0.0017690449 0.00012849537 -1.6233165e-20)
(-0.0017881912 0.00012381694 -4.3351919e-20)
(-0.0018056025 0.00011916476 1.282406e-20)
(-0.0018213006 0.00011454581 -2.1152071e-20)
(-0.00183531 0.00010996667 -1.1116331e-19)
(-0.0018476579 0.00010543357 5.1219738e-20)
(-0.0018583736 0.00010095236 1.7719797e-19)
(-0.0018674887 9.6528516e-05 1.7901139e-19)
(-0.0018750367 9.2167124e-05 2.0036918e-20)
(-0.0018810528 8.7872902e-05 -3.5748158e-19)
(-0.0018855741 8.3650196e-05 -1.6874525e-19)
(-0.001888639 7.9502982e-05 1.31557e-19)
(-0.0018902871 7.5434884e-05 1.389926e-19)
(-0.0018905593 7.1449159e-05 9.2967146e-20)
(-0.0018894975 6.754869e-05 -2.0102461e-19)
(-0.0018871441 6.3736054e-05 8.9681898e-21)
(-0.0018835426 6.0013433e-05 2.1348725e-19)
(-0.0018787368 5.638267e-05 -1.7868129e-20)
(-0.0018727709 5.2845253e-05 -2.5777283e-20)
(-0.0018656894 4.9402304e-05 -8.1709898e-20)
(-0.0018575369 4.6054555e-05 -7.268428e-20)
(-0.001848358 4.2802336e-05 1.5050711e-19)
(-0.0018381968 3.9645753e-05 4.3590676e-20)
(-0.0018270973 3.6584861e-05 -1.9714212e-19)
(-0.0018151032 3.3619594e-05 -5.7566673e-20)
(-0.0018022579 3.07497e-05 1.5367544e-19)
(-0.0017886042 2.7974705e-05 5.3167103e-20)
(-0.0017741845 2.5293937e-05 -9.7390671e-20)
(-0.0017590403 2.2706526e-05 8.2033908e-21)
(-0.0017432127 2.0211413e-05 5.3063802e-20)
(-0.0017267416 1.7807371e-05 -2.2051442e-20)
(-0.0017096665 1.5493e-05 4.7620613e-20)
(-0.0016920256 1.3266739e-05 -1.431894e-20)
(-0.0016738564 1.1126913e-05 -1.3854525e-19)
(-0.0016551956 9.0717288e-06 1.3696207e-20)
(-0.0016360785 7.0993515e-06 7.2765807e-20)
(-0.0016165393 5.2078015e-06 -2.3458839e-20)
(-0.001596611 3.3950153e-06 3.6380214e-20)
(-0.0015763251 1.6592449e-06 5.1106857e-20)
(-0.0015557158 5.9569519e-09 1.9816017e-20)
(-0.0015348073 -1.52523e-06 -5.684369e-20)
(-0.0015136273 -2.9759724e-06 -1.2041579e-19)
(-0.0014922108 -4.3585504e-06 -2.9754524e-20)
(-0.0014705828 -5.6754595e-06 9.0542101e-20)
(-0.0014487682 -6.9289588e-06 8.4253282e-20)
(-0.0014267913 -8.1209454e-06 -7.3962635e-20)
(-0.0014046757 -9.2531563e-06 -4.6460198e-20)
(-0.0013824438 -1.0327331e-05 -4.7513889e-20)
(-0.0013601173 -1.1345265e-05 -3.2960656e-20)
(-0.0013377165 -1.2308796e-05 7.0190985e-20)
(-0.0013152608 -1.3219785e-05 -5.3030561e-20)
(-0.0012927686 -1.4080112e-05 1.3865829e-20)
(-0.0012702575 -1.4891649e-05 8.2793894e-20)
(-0.0012477438 -1.5656257e-05 -2.403729e-20)
(-0.0012252432 -1.6375788e-05 -1.7932835e-20)
(-0.0012027704 -1.7052067e-05 -2.4911629e-20)
(-0.0011803392 -1.7686884e-05 2.4654865e-20)
(-0.0011579626 -1.828201e-05 -4.4197765e-21)
(-0.0011356526 -1.8839162e-05 -7.0091744e-21)
(-0.0011134208 -1.9360035e-05 6.2944683e-20)
(-0.0010912777 -1.9846274e-05 -2.2840077e-20)
(-0.0010692332 -2.0299477e-05 -2.459156e-20)
(-0.0010472964 -2.0721217e-05 -4.0758631e-20)
(-0.0010254759 -2.1112997e-05 -2.3721811e-20)
(-0.0010037796 -2.1476313e-05 5.9038202e-20)
(-0.0009822145 -2.1812569e-05 1.5284133e-20)
(-0.00096078734 -2.2123159e-05 1.7232722e-20)
(-0.00093950412 -2.2409423e-05 -3.2860313e-20)
(-0.00091837028 -2.267265e-05 -2.4214832e-20)
(-0.00089739079 -2.2914077e-05 5.0860749e-20)
(-0.00087657008 -2.3134915e-05 2.0473259e-21)
(-0.00085591208 -2.3336326e-05 1.2580971e-20)
(-0.0008354203 -2.3519427e-05 -2.046037e-20)
(-0.00081509778 -2.3685288e-05 -6.0929311e-20)
(-0.00079494716 -2.3834942e-05 2.4162225e-20)
(-0.00077497067 -2.3969372e-05 2.1048932e-20)
(-0.00075517018 -2.408954e-05 1.5699835e-20)
(-0.0007355472 -2.4196349e-05 2.6190618e-20)
(-0.00071610289 -2.4290677e-05 -2.8533869e-20)
(-0.00069683812 -2.4373365e-05 -2.7534419e-20)
(-0.00067775342 -2.4445208e-05 -1.266055e-20)
(-0.00065884907 -2.4506978e-05 2.7317694e-20)
(-0.00064012505 -2.4559398e-05 1.2230196e-20)
(-0.00062158112 -2.4603169e-05 -2.8987383e-20)
(-0.0006032168 -2.4638968e-05 7.7948245e-21)
(-0.00058503136 -2.4667426e-05 2.0943604e-20)
(-0.00056702389 -2.4689129e-05 9.4557351e-21)
(-0.00054919328 -2.4704676e-05 -2.1307011e-20)
(-0.00053153824 -2.4714605e-05 -2.8878804e-20)
(-0.0005140573 -2.4719443e-05 2.1450984e-20)
(-0.00049674883 -2.471968e-05 2.346053e-20)
(-0.00047961108 -2.4715794e-05 5.1186356e-21)
(-0.00046264215 -2.4708224e-05 -1.6348781e-20)
(-0.00044584002 -2.4697394e-05 -1.5751324e-20)
(-0.00042920254 -2.4683707e-05 1.3709844e-20)
(-0.00041272747 -2.4667537e-05 1.4944424e-20)
(-0.00039641247 -2.4649247e-05 7.0501923e-21)
(-0.00038025513 -2.4629172e-05 -9.752954e-21)
(-0.00036425293 -2.4607622e-05 -1.6653114e-20)
(-0.0003484033 -2.4584905e-05 -7.2661338e-22)
(-0.00033270361 -2.4561295e-05 1.2959878e-20)
(-0.00031715115 -2.4537062e-05 8.2423015e-21)
(-0.00030174319 -2.4512459e-05 -9.4829297e-21)
(-0.00028647694 -2.4487707e-05 -7.5807131e-21)
(-0.00027134957 -2.4463027e-05 5.9466773e-21)
(-0.00025635824 -2.4438613e-05 -3.9507216e-21)
(-0.00024150007 -2.4414658e-05 2.0739336e-21)
(-0.00022677216 -2.4391325e-05 -2.4048975e-21)
(-0.00021217161 -2.4368773e-05 -5.5603538e-21)
(-0.0001976955 -2.4347145e-05 9.7016781e-21)
(-0.00018334091 -2.4326559e-05 1.2735955e-21)
(-0.00016910493 -2.4307122e-05 -9.9031276e-22)
(-0.00015498465 -2.4288911e-05 -2.8731676e-21)
(-0.00014097718 -2.4271973e-05 -3.0509329e-21)
(-0.00012707964 -2.4256308e-05 8.8430162e-21)
(-0.00011328915 -2.4241833e-05 4.1292364e-21)
(-9.9602832e-05 -2.4228329e-05 1.6432311e-22)
(-8.6017648e-05 -2.4215381e-05 -8.0449514e-21)
(-7.2530214e-05 -2.4202255e-05 -3.3349944e-21)
(-5.9136283e-05 -2.4188009e-05 8.2229056e-21)
(-4.5829405e-05 -2.4173217e-05 2.0982668e-21)
(-3.2597682e-05 -2.4166718e-05 -8.2681848e-22)
(-1.9427268e-05 -2.4203021e-05 -2.1041949e-22)
(-6.4113383e-06 -2.4350101e-05 3.6165796e-21)
(-4.7388438e-05 0.00037480804 -2.4689963e-19)
(-0.00010684186 0.00037566578 -8.8146212e-20)
(-0.00017474148 0.00037564725 3.2133883e-20)
(-0.00024052734 0.000375252 -5.0610667e-20)
(-0.0003078224 0.00037429544 3.017283e-20)
(-0.00037468523 0.00037281951 -3.3896136e-20)
(-0.00044103815 0.00037090284 -1.3875425e-20)
(-0.00050682733 0.00036858642 -5.2532e-21)
(-0.00057195391 0.00036589751 1.9897108e-20)
(-0.00063631442 0.00036285642 5.2400979e-20)
(-0.00069981174 0.00035947941 3.4411837e-20)
(-0.00076235412 0.00035578054 4.0718481e-20)
(-0.00082385397 0.00035177286 -4.1220637e-20)
(-0.00088422807 0.00034746902 1.3007307e-20)
(-0.00094339773 0.00034288157 4.3474281e-20)
(-0.0010012886 0.00033802325 -2.8186351e-20)
(-0.0010578306 0.00033290702 4.4189635e-20)
(-0.001112958 0.00032754617 1.2496556e-20)
(-0.0011666093 0.0003219543 -2.4436897e-20)
(-0.0012187272 0.0003161453 2.0686998e-20)
(-0.0012692591 0.00031013333 8.8061204e-22)
(-0.0013181566 0.00030393277 8.5139917e-21)
(-0.0013653758 0.00029755817 4.6895155e-20)
(-0.0014108772 0.00029102424 1.5956216e-20)
(-0.001454626 0.00028434576 -3.1741962e-20)
(-0.0014965916 0.00027753754 -4.2139769e-20)
(-0.001536748 0.00027061442 -4.1696465e-20)
(-0.0015750735 0.00026359116 4.8095262e-22)
(-0.0016115507 0.00025648242 5.5787989e-22)
(-0.0016461664 0.00024930275 -1.8005584e-20)
(-0.0016789113 0.00024206639 -2.1184267e-20)
(-0.0017097804 0.00023478664 4.1967558e-22)
(-0.0017387733 0.00022747587 3.8258558e-20)
(-0.0017658941 0.00022014793 -3.0400703e-20)
(-0.0017911497 0.00021281662 -7.2207768e-20)
(-0.0018145503 0.00020549493 2.2984147e-20)
(-0.0018361097 0.00019819501 7.2869182e-20)
(-0.0018558446 0.00019092834 1.9439693e-20)
(-0.0018737754 0.00018370583 -4.3163138e-21)
(-0.0018899252 0.00017653789 -1.4476665e-20)
(-0.0019043199 0.00016943441 -7.8203744e-21)
(-0.0019169881 0.00016240476 2.5370833e-20)
(-0.0019279609 0.00015545774 2.8667241e-20)
(-0.0019372713 0.00014860162 -3.7572875e-20)
(-0.0019449548 0.00014184409 1.2157476e-20)
(-0.0019510484 0.00013519229 -2.7989315e-20)
(-0.0019555909 0.00012865276 -4.9491573e-20)
(-0.0019586227 0.00012223151 1.6508308e-20)
(-0.0019601852 0.00011593397 -3.1816561e-20)
(-0.0019603215 0.00010976501 3.6776389e-20)
(-0.0019590751 0.00010372899 2.7246469e-20)
(-0.0019564908 9.782976e-05 -3.2629722e-20)
(-0.0019526137 9.2070626e-05 3.1050076e-20)
(-0.0019474896 8.6454434e-05 2.7220354e-21)
(-0.0019411647 8.0983559e-05 -6.1096625e-21)
(-0.0019336854 7.5659963e-05 -2.5859161e-22)
(-0.0019250981 7.0485182e-05 -1.8956399e-20)
(-0.0019154493 6.5460404e-05 2.7270934e-20)
(-0.0019047852 6.0586387e-05 4.9583225e-21)
(-0.0018931517 5.586335e-05 -6.6469176e-20)
(-0.0018805945 5.1291103e-05 -8.0410758e-21)
(-0.0018671587 4.6869108e-05 5.1948484e-20)
(-0.001852889 4.2596522e-05 1.3498608e-20)
(-0.0018378292 3.8472206e-05 -1.5265864e-20)
(-0.0018220227 3.4494755e-05 9.5766197e-21)
(-0.0018055118 3.0662505e-05 -6.1759534e-21)
(-0.0017883383 2.6973581e-05 -4.1232719e-20)
(-0.0017705429 2.3425903e-05 1.0915531e-20)
(-0.0017521652 2.0017204e-05 1.0065393e-20)
(-0.0017332442 1.6745099e-05 6.4086146e-21)
(-0.0017138174 1.3607071e-05 -2.2054886e-22)
(-0.0016939215 1.0600533e-05 -2.2512809e-21)
(-0.0016735921 7.7226621e-06 -1.6883566e-20)
(-0.0016528639 4.970121e-06 -2.1545011e-20)
(-0.0016317709 2.3398866e-06 2.3137842e-20)
(-0.0016103399 -1.6822771e-07 -1.5468224e-21)
(-0.001588608 -2.5451147e-06 -2.219176e-20)
(-0.0015666098 -4.8109461e-06 -4.3020157e-20)
(-0.0015443675 -6.9696058e-06 -3.4621361e-20)
(-0.0015219087 -9.0232972e-06 2.4670339e-20)
(-0.0014992601 -1.0975183e-05 1.4473076e-20)
(-0.0014764475 -1.282858e-05 -3.1484568e-20)
(-0.001453495 -1.458678e-05 -2.105877e-21)
(-0.0014304261 -1.6253045e-05 -4.301176e-22)
(-0.0014072627 -1.7830592e-05 3.9950918e-21)
(-0.0013840259 -1.9322616e-05 1.3238154e-20)
(-0.0013607356 -2.0732267e-05 -3.4551904e-20)
(-0.001337411 -2.2062651e-05 -9.0577528e-21)
(-0.0013140698 -2.3316819e-05 3.432157e-21)
(-0.0012907292 -2.4497793e-05 5.9673658e-21)
(-0.0012674051 -2.5608535e-05 5.015223e-21)
(-0.0012441127 -2.6651944e-05 -1.7349333e-20)
(-0.0012208661 -2.763087e-05 2.2265926e-20)
(-0.0011976787 -2.85481e-05 2.8864598e-21)
(-0.0011745631 -2.9406349e-05 4.8569231e-21)
(-0.0011515308 -3.0208276e-05 2.2318262e-20)
(-0.0011285928 -3.0956462e-05 -2.574565e-20)
(-0.0011057593 -3.1653414e-05 -8.6435812e-21)
(-0.0010830395 -3.230158e-05 -4.8500125e-21)
(-0.0010604423 -3.290333e-05 4.9813416e-22)
(-0.0010379757 -3.3460967e-05 2.2120401e-20)
(-0.0010156469 -3.3976712e-05 -6.0651772e-21)
(-0.00099346286 -3.4452719e-05 6.011202e-21)
(-0.0009714296 -3.4891078e-05 -9.9155741e-21)
(-0.00094955274 -3.5293792e-05 5.6187873e-21)
(-0.0009278373 -3.5662795e-05 2.2595629e-20)
(-0.0009062878 -3.5999964e-05 -1.519839e-20)
(-0.00088490823 -3.63071e-05 -3.312259e-21)
(-0.00086370215 -3.6585935e-05 -1.7553531e-20)
(-0.00084267264 -3.6838138e-05 -2.5736886e-20)
(-0.00082182235 -3.706531e-05 2.8131678e-21)
(-0.00080115353 -3.7268977e-05 1.6465793e-20)
(-0.00078066805 -3.7450627e-05 1.6256105e-20)
(-0.00076036741 -3.7611666e-05 -3.911965e-21)
(-0.00074025274 -3.7753451e-05 -1.5717273e-20)
(-0.00072032487 -3.7877281e-05 -1.313062e-21)
(-0.00070058432 -3.7984399e-05 -7.0198085e-21)
(-0.0006810313 -3.8075988e-05 8.3333448e-21)
(-0.00066166576 -3.8153182e-05 6.4246579e-21)
(-0.00064248738 -3.8217051e-05 3.9200423e-21)
(-0.00062349562 -3.8268639e-05 5.2103408e-21)
(-0.00060468969 -3.8308935e-05 -9.8304858e-21)
(-0.00058606861 -3.8338861e-05 -2.7877903e-21)
(-0.00056763115 -3.8359309e-05 3.8270454e-21)
(-0.00054937596 -3.8371139e-05 1.2821687e-20)
(-0.00053130148 -3.8375149e-05 1.2175974e-20)
(-0.00051340599 -3.8372106e-05 -1.903307e-21)
(-0.00049568763 -3.8362742e-05 2.3156608e-21)
(-0.0004781444 -3.8347738e-05 -1.1870297e-20)
(-0.00046077419 -3.8327754e-05 -1.5071126e-21)
(-0.00044357473 -3.83034e-05 1.4125775e-20)
(-0.00042654369 -3.827527e-05 5.1946093e-21)
(-0.00040967861 -3.8243908e-05 6.4693365e-21)
(-0.00039297696 -3.8209843e-05 -6.9528043e-21)
(-0.00037643612 -3.8173551e-05 -1.0905446e-20)
(-0.0003600534 -3.8135506e-05 -8.0533105e-21)
(-0.00034382606 -3.8096139e-05 4.7017918e-21)
(-0.00032775126 -3.8055857e-05 1.9128479e-21)
(-0.00031182617 -3.8015047e-05 -6.2202546e-21)
(-0.00029604788 -3.7974056e-05 -9.6993009e-22)
(-0.00028041344 -3.7933225e-05 5.0548314e-21)
(-0.00026491989 -3.7892857e-05 -2.2951429e-22)
(-0.00024956422 -3.7853239e-05 5.4731146e-21)
(-0.00023434344 -3.7814636e-05 5.9517873e-22)
(-0.00021925451 -3.7777292e-05 -3.7839384e-21)
(-0.00020429439 -3.7741425e-05 3.2033969e-21)
(-0.00018946004 -3.7707224e-05 -5.9721543e-21)
(-0.00017474843 -3.7674858e-05 1.1658267e-21)
(-0.00016015652 -3.7644475e-05 7.2557983e-21)
(-0.00014568127 -3.7616177e-05 5.8373034e-21)
(-0.00013131966 -3.7590018e-05 4.5862229e-21)
(-0.00011706863 -3.7566012e-05 8.5873059e-22)
(-0.00010292508 -3.7544076e-05 2.7594649e-21)
(-8.8885758e-05 -3.7524056e-05 -8.4929828e-21)
(-7.4947138e-05 -3.750572e-05 -1.9354649e-21)
(-6.1105266e-05 -3.7489014e-05 6.3609321e-21)
(-4.7355308e-05 -3.7475178e-05 5.6930781e-22)
(-3.3688395e-05 -3.7469904e-05 3.3921262e-21)
(-2.009346e-05 -3.7490247e-05 3.2972569e-21)
(-6.63806e-06 -3.75578e-05 6.0225879e-21)
(-4.7835017e-05 0.00051354344 -3.7919729e-19)
(-0.0001081488 0.00051376249 -1.6438312e-19)