/*--------------------------------*- C++ -*----------------------------------*\
| =========                 |                                                 |
| \\      /  F ield         | OpenFOAM: The Open Source CFD Toolbox           |
|  \\    /   O peration     | Version:  2106                                  |
|   \\  /    A nd           | Website:  www.openfoam.com                      |
|    \\/     M anipulation  |                                                 |
\*---------------------------------------------------------------------------*/
FoamFile
{
    version     2.0;
    format      ascii;
    arch        "LSB;label=32;scalar=64";
    class       surfaceScalarField;
    location    "0.032";
    object      phi;
}
// * * * * * * * * * * * * * * * * * * * * * * * * * * * * * * * * * * * * * //

dimensions      [0 3 -1 0 0 0 0];

oriented        oriented;

internalField   nonuniform List<scalar> 
8064
(
9.9357442e-05
-9.9357442e-05
0.0001977397
-9.8382259e-05
0.00029418175
-9.6442051e-05
0.00038773875
-9.3557e-05
0.00047749579
-8.9757035e-05
0.00056257722
-8.5081436e-05
0.00064215555
-7.9578327e-05
0.00071545962
-7.3304066e-05
0.00078178217
-6.6322552e-05
0.00084048664
-5.8704472e-05
0.00089101313
-5.0526491e-05
0.00093288353
-4.1870401e-05
0.00096570578
-3.2822247e-05
0.0009891772
-2.3471423e-05
0.001003087
-1.3909765e-05
0.0010073176
-4.2306555e-06
0.0010018457
5.471919e-06
0.0009867413
1.5104406e-05
0.00096216637
2.4574926e-05
0.00092837375
3.3792621e-05
0.00088570319
4.2670564e-05
0.00083457774
5.112545e-05
0.00077549921
5.9078525e-05
0.00070904291
6.6456305e-05
0.00063585172
7.319119e-05
0.00055662974
7.9221981e-05
0.00047213541
8.4494323e-05
0.00038317435
8.8961065e-05
0.0002905918
9.2582545e-05
0.000195265
9.5326803e-05
9.8095255e-05
9.7169746e-05
2.6887376e-14
9.8095255e-05
-9.8095255e-05
9.8095255e-05
-0.000195265
9.7169746e-05
-0.0002905918
9.5326803e-05
-0.00038317435
9.2582545e-05
-0.00047213541
8.8961065e-05
-0.00055662974
8.4494323e-05
-0.00063585172
7.9221981e-05
-0.00070904291
7.319119e-05
-0.00077549921
6.6456305e-05
-0.00083457774
5.9078525e-05
-0.00088570319
5.112545e-05
-0.00092837375
4.2670564e-05
-0.00096216637
3.3792621e-05
-0.0009867413
2.4574926e-05
-0.0010018457
1.5104406e-05
-0.0010073176
5.471919e-06
-0.001003087
-4.2306555e-06
-0.0009891772
-1.3909765e-05
-0.00096570578
-2.3471423e-05
-0.00093288353
-3.2822247e-05
-0.00089101313
-4.1870401e-05
-0.00084048664
-5.0526491e-05
-0.00078178217
-5.8704472e-05
-0.00071545962
-6.6322552e-05
-0.00064215555
-7.3304066e-05
-0.00056257722
-7.9578327e-05
-0.00047749579
-8.5081436e-05
-0.00038773875
-8.9757035e-05
-0.00029418175
-9.3557e-05
-0.0001977397
-9.6442051e-05
-9.9357442e-05
-9.8382259e-05
-9.9357442e-05
0.0001009028
-0.00020026024
0.00020081508
-0.00019829453
0.00029875664
-0.00019438361
0.00039376782
-0.00018856818
0.0004849194
-0.00018090861
0.0005713221
-0.00017148414
0.00065213557
-0.00016039179
0.00072657672
-0.00014774522
0.00079392741
-0.00013367324
0.00085354128
-0.00011831834
0.00090484985
-0.00010183506
0.00094736767
-8.4388223e-05
0.00098069668
-6.6151252e-05
0.0010045296
-4.7304305e-05
0.0010186523
-2.8032467e-05
0.0010229455
-8.5239002e-06
0.0010173854
1.1032026e-05
0.001002043
3.0446768e-05
0.00097708359
4.9534366e-05
0.00094276351
6.8112705e-05
0.00089942794
8.6006136e-05
0.00084750669
0.0001030467
0.00078750954
0.00011907567
0.00072002089
0.00013394496
0.00064569375
0.00014751832
0.00056524326
0.00015967247
0.00047943968
0.00017029791
0.00038910108
0.00017929967
0.00029508575
0.00018659788
0.00019828435
0.0001921282
9.9611966e-05
0.00019584213
2.5760796e-14
0.00019770722
-9.9611966e-05
0.00019770722
-0.00019828435
0.00019584213
-0.00029508575
0.0001921282
-0.00038910108
0.00018659788
-0.00047943968
0.00017929967
-0.00056524326
0.00017029791
-0.00064569375
0.00015967247
-0.00072002089
0.00014751832
-0.00078750954
0.00013394496
-0.00084750669
0.00011907567
-0.00089942794
0.0001030467
-0.00094276351
8.6006136e-05
-0.00097708359
6.8112705e-05
-0.001002043
4.9534366e-05
-0.0010173854
3.0446768e-05
-0.0010229455
1.1032026e-05
-0.0010186523
-8.5239002e-06
-0.0010045296
-2.8032467e-05
-0.00098069668
-4.7304305e-05
-0.00094736767
-6.6151252e-05
-0.00090484985
-8.4388223e-05
-0.00085354128
-0.00010183506
-0.00079392741
-0.00011831834
-0.00072657672
-0.00013367324
-0.00065213557
-0.00014774522
-0.0005713221
-0.00016039179
-0.0004849194
-0.00017148414
-0.00039376782
-0.00018090861
-0.00029875664
-0.00018856818
-0.00020081508
-0.00019438361
-0.0001009028
-0.00019829453
-0.00020026024
0.00010354364
-0.00030380388
0.00020607075
-0.00030082164
0.00030657541
-0.00029488828
0.00040407284
-0.00028606561
0.0004976095
-0.00027444528
0.00058627292
-0.00026014756
0.00066920087
-0.00024331974
0.0007455899
-0.00022413425
0.00081470321
-0.00020278655
0.00087587766
-0.00017949279
0.00092852995
-0.00015448734
0.00097216194
-0.00012802021
0.0010063651
-0.00010035439
0.0010308239
-7.1763097e-05
0.0010453185
-4.2527054e-05
0.0010497262
-1.293165e-05
0.0010440223
1.6735883e-05
0.0010282797
4.6189391e-05
0.0010026676
7.5146486e-05
0.00096744915
0.00010333115
0.00092297857
0.00013047672
0.000869697
0.00015632827
0.00080812775
0.00018064493
0.00073887072
0.00020320199
0.00066259625
0.00022379279
0.0005800384
0.00024223032
0.00049198774
0.00025834856
0.00039928388
0.00027200353
0.00030280759
0.00028307418
0.00020347278
0.000291463
0.00010221838
0.00029709653
2.5171655e-14
0.0002999256
-0.00010221838
0.0002999256
-0.00020347278
0.00029709653
-0.00030280759
0.000291463
-0.00039928388
0.00028307418
-0.00049198774
0.00027200353
-0.0005800384
0.00025834856
-0.00066259625
0.00024223032
-0.00073887072
0.00022379279
-0.00080812775
0.00020320199
-0.000869697
0.00018064493
-0.00092297857
0.00015632827
-0.00096744915
0.00013047672
-0.0010026676
0.00010333115
-0.0010282797
7.5146486e-05
-0.0010440223
4.6189391e-05
-0.0010497262
1.6735883e-05
-0.0010453185
-1.293165e-05
-0.0010308239
-4.2527054e-05
-0.0010063651
-7.1763097e-05
-0.00097216194
-0.00010035439
-0.00092852995
-0.00012802021
-0.00087587766
-0.00015448734
-0.00081470321
-0.00017949279
-0.0007455899
-0.00020278655
-0.00066920087
-0.00022413425
-0.00058627292
-0.00024331974
-0.0004976095
-0.00026014756
-0.00040407284
-0.00027444528
-0.00030657541
-0.00028606561
-0.00020607075
-0.00029488828
-0.00010354364
-0.00030082164
-0.00030380388
0.00010731017
-0.00041111406
0.00021356684
-0.00040707831
0.00031772753
-0.00039904897
0.00041877169
-0.00038710977
0.00051571125
-0.00037138483
0.0006076007
-0.00035203701
0.00069354666
-0.0003292657
0.00077271669
-0.00030330428
0.00084434737
-0.00027441723
0.00090775155
-0.00024289698
0.00096232476
-0.00020906055
0.0010075506
-0.00017324608
0.0010430055
-0.00013580926
0.0010683621
-9.7119655e-05
0.001083392
-5.7556972e-05
0.0010879676
-1.7507321e-05
0.0010820629
2.2640624e-05
0.0010657528
6.2499483e-05
0.0010392124
0.00010168692
0.0010027142
0.00013982934
0.00095662528
0.00017656564
0.00090140292
0.00021155063
0.0008375897
0.00024445815
0.00076580765
0.00027498403
0.00068675186
0.00030284857
0.00060118347
0.00032779872
0.00050992213
0.00034960989
0.00041383824
0.00036808741
0.00031384479
0.00038306763
0.00021088901
0.00039441878
0.00010594398
0.00040204156
2.5014976e-14
0.00040586958
-0.00010594398
0.00040586958
-0.00021088901
0.00040204156
-0.00031384479
0.00039441878
-0.00041383824
0.00038306763
-0.00050992213
0.00036808741
-0.00060118347
0.00034960989
-0.00068675186
0.00032779872
-0.00076580765
0.00030284857
-0.0008375897
0.00027498403
-0.00090140292
0.00024445815
-0.00095662528
0.00021155063
-0.0010027142
0.00017656564
-0.0010392124
0.00013982934
-0.0010657528
0.00010168692
-0.0010820629
6.2499483e-05
-0.0010879676
2.2640624e-05
-0.001083392
-1.7507321e-05
-0.0010683621
-5.7556972e-05
-0.0010430055
-9.7119655e-05
-0.0010075506
-0.00013580926
-0.00096232476
-0.00017324608
-0.00090775155
-0.00020906055
-0.00084434737
-0.00024289698
-0.00077271669
-0.00027441723
-0.00069354666
-0.00030330428
-0.0006076007
-0.0003292657
-0.00051571125
-0.00035203701
-0.00041877169
-0.00037138483
-0.00031772753
-0.00038710977
-0.00021356684
-0.00039904897
-0.00010731017
-0.00040707831
-0.00041111406
0.00011223124
-0.0005233453
0.00022336076
-0.00051820783
0.00033229841
-0.00050798662
0.000437977
-0.00049278836
0.00053936339
-0.00047277122
0.00063546901
-0.00044814263
0.00072535982
-0.00041915651
0.00080816553
-0.00038610999
0.00088308797
-0.00034933966
0.00094940861
-0.00030921762
0.0010064952
-0.00026614716
0.0010538075
-0.0002205584
0.001090902
-0.00017290377
0.0011174358
-0.00012365339
0.0011331692
-7.3290382e-05
0.001137968
-2.2306112e-05
0.001131804
2.8804629e-05
0.0011147549
7.9548515e-05
0.0010870033
0.00012943853
0.0010488339
0.00017799876
0.0010006304
0.00022476911
0.00094287133
0.00026930974
0.00087612436
0.00031120513
0.00080104056
0.00035006783
0.00071834748
0.00038554166
0.00062884168
0.00041730452
0.00053338095
0.00044507062
0.00043287601
0.00046859235
0.00032828203
0.00048766162
0.00022058987
0.00050211094
0.00011081729
0.00051181414
2.5100387e-14
0.00051668687
-0.00011081728
0.00051668687
-0.00022058987
0.00051181414
-0.00032828203
0.00050211094
-0.00043287601
0.00048766162
-0.00053338095
0.00046859235
-0.00062884168
0.00044507062
-0.00071834748
0.00041730452
-0.00080104056
0.00038554166
-0.00087612436
0.00035006783
-0.00094287133
0.00031120513
-0.0010006304
0.00026930974
-0.0010488339
0.00022476911
-0.0010870033
0.00017799876
-0.0011147549
0.00012943853
-0.001131804
7.9548515e-05
-0.001137968
2.8804629e-05
-0.0011331692
-2.2306112e-05
-0.0011174358
-7.3290382e-05
-0.001090902
-0.00012365339
-0.0010538075
-0.00017290377
-0.0010064952
-0.0002205584
-0.00094940861
-0.00026614716
-0.00088308797
-0.00030921762
-0.00080816553
-0.00034933966
-0.00072535982
-0.00038610999
-0.00063546901
-0.00041915651
-0.00053936339
-0.00044814263
-0.000437977
-0.00047277122
-0.00033229841
-0.00049278836
-0.00022336076
-0.00050798662
-0.00011223124
-0.00051820783
-0.0005233453
0.00011833773
-0.00064168303
0.00023551398
-0.00063538408
0.00035037953
-0.00062285217
0.00046180943
-0.00060421826
0.00056871467
-0.00057967646
0.00067005333
-0.00054948129
0.00076484101
-0.0005139442
0.00085216048
-0.00047342946
0.00093117046
-0.00042834965
0.0010011135
-0.00037916065
0.0010613228
-0.00032635649
0.0011112284
-0.00027046401
0.001150362
-0.00021203732
0.0011783609
-0.00015165232
0.0011949715
-8.9900951e-05
0.0012000509
-2.7385501e-05
0.0011935682
3.5287319e-05
0.0011756044
9.751233e-05
0.001146351
0.00015869189
0.0011061079
0.00021824184
0.0010552797
0.00027559737
0.00099437091
0.0003302185
0.00092398084
0.0003815952
0.00084479664
0.00042925203
0.00075758622
0.00047275207
0.00066319033
0.0005117004
0.00056251416
0.00054574679
0.00045651859
0.00057458792
0.00034621118
0.00059796903
0.00023263698
0.00061568514
0.00011686923
0.00062758189
2.5263857e-14
0.0006335561
-0.00011686923
0.0006335561
-0.00023263698
0.00062758189
-0.00034621118
0.00061568514
-0.00045651859
0.00059796903
-0.00056251416
0.00057458792
-0.00066319033
0.00054574679
-0.00075758622
0.0005117004
-0.00084479664
0.00047275207
-0.00092398084
0.00042925203
-0.00099437091
0.0003815952
-0.0010552797
0.0003302185
-0.0011061079
0.00027559737
-0.001146351
0.00021824184
-0.0011756044
0.00015869189
-0.0011935682
9.751233e-05
-0.0012000509
3.5287319e-05
-0.0011949715
-2.7385501e-05
-0.0011783609
-8.9900951e-05
-0.001150362
-0.00015165232
-0.0011112284
-0.00021203732
-0.0010613228
-0.00027046401
-0.0010011135
-0.00032635649
-0.00093117046
-0.00037916065
-0.00085216048
-0.00042834965
-0.00076484101
-0.00047342946
-0.00067005333
-0.0005139442
-0.00056871467
-0.00054948129
-0.00046180943
-0.00057967646
-0.00035037953
-0.00060421826
-0.00023551398
-0.00062285217
-0.00011833773
-0.00063538408
-0.00064168303
0.00012566956
-0.00076735259
0.000250106
-0.00075982053
0.00037208926
-0.00074483542
0.00049042511
-0.00072255411
0.00060395762
-0.00069320897
0.00071158089
-0.00065710457
0.00081225016
-0.00061461347
0.00090499192
-0.00056617122
0.00098891318
-0.0005122709
0.0010632097
-0.00045345715
0.0011271732
-0.00039032
0.0011801978
-0.00032348858
0.001221785
-0.0002536246
0.0012515486
-0.00018141591
0.0012692175
-0.00010756979
0.0012746382
-3.2806196e-05
0.0012677762
4.2149237e-05
0.0012487163
0.0001165723
0.0012176607
0.00018974749
0.0011749273
0.00026097521
0.0011209457
0.00032957893
0.0010562524
0.00039491187
0.00098148431
0.00045636327
0.00089737236
0.00051336397
0.00080473321
0.00056539123
0.00070446081
0.0006119728
0.00059751745
0.00065269015
0.00048492437
0.00068718101
0.00036775209
0.00071514131
0.00024711075
0.00073632649
0.00012414016
0.00075055247
2.5399487e-14
0.00075769626
-0.00012414016
0.00075769626
-0.00024711075
0.00075055247
-0.00036775209
0.00073632649
-0.00048492437
0.00071514131
-0.00059751745
0.00068718101
-0.00070446081
0.00065269015
-0.00080473321
0.0006119728
-0.00089737236
0.00056539123
-0.00098148431
0.00051336397
-0.0010562524
0.00045636327
-0.0011209457
0.00039491187
-0.0011749273
0.00032957893
-0.0012176607
0.00026097521
-0.0012487163
0.00018974749
-0.0012677762
0.0001165723
-0.0012746382
4.2149237e-05
-0.0012692175
-3.2806196e-05
-0.0012515486
-0.00010756979
-0.001221785
-0.00018141591
-0.0011801978
-0.0002536246
-0.0011271732
-0.00032348858
-0.0010632097
-0.00039032
-0.00098891318
-0.00045345715
-0.00090499192
-0.0005122709
-0.00081225016
-0.00056617122
-0.00071158089
-0.00061461347
-0.00060395762
-0.00065710457
-0.00049042511
-0.00069320897
-0.00037208926
-0.00072255411
-0.000250106
-0.00074483542
-0.00012566956
-0.00075982053
-0.00076735259
0.00013428641
-0.000901639
0.00026725563
-0.00089278975
0.00039760446
-0.00087518425
0.00052405742
-0.00084900707
0.00064538004
-0.00081453159
0.00076039141
-0.00077211594
0.00086797593
-0.00072219798
0.00096709406
-0.00066528935
0.0010567921
-0.00060196893
0.0011362108
-0.00053287582
0.001204593
-0.0004587022
0.0012612903
-0.00038018591
0.0013057688
-0.00029810313
0.0013376137
-0.00021326081
0.0013565331
-0.00012648916
0.0013623606
-3.8633735e-05
0.0013550573
4.9452588e-05
0.0013347115
0.00013691805
0.0013015384
0.00022292061
0.0012558769
0.00030663666
0.0011981863
0.00038726955
0.0011290404
0.00046405775
0.0010491214
0.00053628235
0.00095921157
0.00060327376
0.00086018537
0.00066441743
0.00075299964
0.00071915854
0.00063868399
0.0007670058
0.00051833071
0.00080753429
0.00039308444
0.00084038758
0.00026413173
0.0008652792
0.00013269059
0.00088199361
2.5428953e-14
0.00089038685
-0.00013269059
0.00089038685
-0.00026413173
0.00088199361
-0.00039308444
0.0008652792
-0.00051833071
0.00084038758
-0.00063868399
0.00080753429
-0.00075299964
0.0007670058
-0.00086018537
0.00071915854
-0.00095921157
0.00066441743
-0.0010491214
0.00060327376
-0.0011290404
0.00053628235
-0.0011981863
0.00046405775
-0.0012558769
0.00038726955
-0.0013015384
0.00030663666
-0.0013347115
0.00022292061
-0.0013550573
0.00013691805
-0.0013623606
4.9452588e-05
-0.0013565331
-3.8633735e-05
-0.0013376137
-0.00012648916
-0.0013057688
-0.00021326081
-0.0012612903
-0.00029810313
-0.001204593
-0.00038018591
-0.0011362108
-0.0004587022
-0.0010567921
-0.00053287582
-0.00096709406
-0.00060196893
-0.00086797593
-0.00066528935
-0.00076039141
-0.00072219798
-0.00064538004
-0.00077211594
-0.00052405742
-0.00081453159
-0.00039760446
-0.00084900707
-0.00026725563
-0.00087518425
-0.00013428641
-0.00089278975
-0.000901639
0.00014428194
-0.0010459209
0.00028714933
-0.0010356571
0.00042720274
-0.0010152377
0.00056307261
-0.00098487694
0.00069343357
-0.00094489254
0.00081701788
-0.00089570025
0.00093262798
-0.00083780808
0.0010391479
-0.00077180927
0.0011355535
-0.00069837457
0.0012209218
-0.00061824411
0.0012944388
-0.00053221914
0.0013554065
-0.00044115361
0.0014032492
-0.00034594584
0.0014375186
-0.00024753018
0.0014578978
-0.0001468684
0.001464205
-4.4940954e-05
0.0014563952
5.7262385e-05
0.001434561
0.00015875222
0.0013989319
0.00025854974
0.0013498715
0.00035569707
0.0012878736
0.0004492675
0.001213556
0.00053837536
0.0011276534
0.00062218489
0.0010310089
0.00069991825
0.00092456424
0.00077086211
0.00080934961
0.00083437316
0.00068647312
0.00088988229
0.00055710967
0.00093689774
0.0004224899
0.00097500735
0.00028388896
0.0010038801
0.00014261541
0.0010232672
2.5297288e-14
0.0010330023
-0.00014261541
0.0010330023
-0.00028388896
0.0010232672
-0.0004224899
0.0010038801
-0.00055710967
0.00097500735
-0.00068647312
0.00093689774
-0.00080934961
0.00088988229
-0.00092456424
0.00083437316
-0.0010310089
0.00077086211
-0.0011276534
0.00069991825
-0.001213556
0.00062218489
-0.0012878736
0.00053837536
-0.0013498715
0.0004492675
-0.0013989319
0.00035569707
-0.001434561
0.00025854974
-0.0014563952
0.00015875222
-0.001464205
5.7262385e-05
-0.0014578978
-4.4940954e-05
-0.0014375186
-0.0001468684
-0.0014032492
-0.00024753018
-0.0013554065
-0.00034594584
-0.0012944388
-0.00044115361
-0.0012209218
-0.00053221914
-0.0011355535
-0.00061824411
-0.0010391479
-0.00069837457
-0.00093262798
-0.00077180927
-0.00081701788
-0.00083780808
-0.00069343357
-0.00089570025
-0.00056307261
-0.00094489254
-0.00042720274
-0.00098487694
-0.00028714933
-0.0010152377
-0.00014428194
-0.0010356571
-0.0010459209
0.0001558011
-0.001201722
0.0003100757
-0.0011899317
0.00046131371
-0.0011664757
0.00060803742
-0.0011316007
0.00074881699
-0.0010856721
0.00088228488
-0.0010291681
0.0010071493
-0.00096267254
0.0011222065
-0.00088686643
0.0012263513
-0.00080251935
0.001318587
-0.00071047987
0.001398034
-0.00061166611
0.0014639368
-0.00050705637
0.0015156708
-0.00039767986
0.0015527482
-0.00028460756
0.0015748226
-0.0001689428
0.0015816931
-5.1811491e-05
0.0015733071
6.5648345e-05
0.0015497615
0.00018229785
0.001511302
0.00029700927
0.0014583207
0.00040867833
0.0013913517
0.00051623654
0.0013110641
0.00061866293
0.0012182542
0.00071499477
0.0011138356
0.00080433686
0.00099882847
0.00088586926
0.00087434825
0.00095885339
0.00074159386
0.0010226367
0.00060183568
0.0010766559
0.00045640348
0.0011204395
0.00030667445
0.0011536092
0.00015406122
0.0011758804
2.499588e-14
0.0011870635
-0.00015406122
0.0011870635
-0.00030667445
0.0011758804
-0.00045640348
0.0011536092
-0.00060183568
0.0011204395
-0.00074159386
0.0010766559
-0.00087434825
0.0010226367
-0.00099882847
0.00095885339
-0.0011138356
0.00088586926
-0.0012182542
0.00080433686
-0.0013110641
0.00071499477
-0.0013913517
0.00061866293
-0.0014583207
0.00051623654
-0.001511302
0.00040867833
-0.0015497615
0.00029700927
-0.0015733071
0.00018229785
-0.0015816931
6.5648345e-05
-0.0015748226
-5.1811491e-05
-0.0015527482
-0.0001689428
-0.0015156708
-0.00028460756
-0.0014639368
-0.00039767986
-0.001398034
-0.00050705637
-0.001318587
-0.00061166611
-0.0012263513
-0.00071047987
-0.0011222065
-0.00080251935
-0.0010071493
-0.00088686643
-0.00088228488
-0.00096267254
-0.00074881699
-0.0010291681
-0.00060803742
-0.0010856721
-0.00046131371
-0.0011316007
-0.0003100757
-0.0011664757
-0.0001558011
-0.0011899317
-0.001201722
0.00016905968
-0.0013707817
0.00033646436
-0.0013573364
0.00050057689
-0.0013305882
0.00065979544
-0.0012908192
0.00081257027
-0.0012384469
0.00095741939
-0.0011740173
0.0010929429
-0.0010981961
0.0012178361
-0.0010117596
0.0013309009
-0.00091558411
0.0014310558
-0.00081063481
0.0015173452
-0.00069795548
0.0015889468
-0.00057865794
0.001645179
-0.00045391206
0.0016855073
-0.00032493584
0.0017095499
-0.00019298543
0.0017170829
-5.9344463e-05
0.0017080436
7.4687636e-05
0.0016825329
0.00020780854
0.001640815
0.00033872711
0.0015833152
0.00046617821
0.0015106142
0.00058893752
0.0014234414
0.00070583572
0.001322665
0.00081577121
0.0012092808
0.000917721
0.0010844005
0.0010107495
0.00094923847
0.0010940155
0.00080509862
0.0011667765
0.00065336153
0.001228393
0.00049547113
0.0012783299
0.00033292183
0.0013161585
0.00016724574
0.0013415565
2.4544413e-14
0.0013543092
-0.00016724574
0.0013543092
-0.00033292183
0.0013415565
-0.00049547113
0.0013161585
-0.00065336153
0.0012783299
-0.00080509862
0.001228393
-0.00094923847
0.0011667765
-0.0010844005
0.0010940155
-0.0012092808
0.0010107495
-0.001322665
0.000917721
-0.0014234414
0.00081577121
-0.0015106142
0.00070583572
-0.0015833152
0.00058893752
-0.001640815
0.00046617821
-0.0016825329
0.00033872711
-0.0017080436
0.00020780854
-0.0017170829
7.4687636e-05
-0.0017095499
-5.9344463e-05
-0.0016855073
-0.00019298543
-0.001645179
-0.00032493584
-0.0015889468
-0.00045391206
-0.0015173452
-0.00057865794
-0.0014310558
-0.00069795548
-0.0013309009
-0.00081063481
-0.0012178361
-0.00091558411
-0.0010929429
-0.0010117596
-0.00095741939
-0.0010981961
-0.00081257027
-0.0011740173
-0.00065979544
-0.0012384469
-0.00050057689
-0.0012908192
-0.00033646436
-0.0013305882
-0.00016905968
-0.0013573364
-0.0013707817
0.00018436447
-0.0015551462
0.00036692601
-0.001539898
0.00054590128
-0.0015095635
0.00071954564
-0.0014644636
0.00088617141
-0.0014050727
0.0010441649
-0.0013320108
0.0011920019
-0.0012460331
0.0013282617
-0.0011480194
0.0014516388
-0.0010389612
0.0015609541
-0.00091995011
0.0016551638
-0.00079216517
0.0017333678
-0.00065686199
0.0017948176
-0.00051536183
0.0018389232
-0.0003690414
0.0018652601
-0.00021932242
0.001873576
-6.7660344e-05
0.0018637951
8.4468508e-05
0.001836022
0.00023558171
0.0017905417
0.00038420741
0.0017278177
0.00052890219
0.0016484861
0.00066826911
0.0015533469
0.00080097492
0.0014433529
0.00092576523
0.0013195966
0.0010414772
0.0011832965
0.0011470496
0.0010357821
0.0012415299
0.00087847942
0.0013240792
0.00071289643
0.001393976
0.00054060883
0.0014506175
0.00036324609
0.0014935212
0.00018247776
0.0015223248
2.3967731e-14
0.001536787
-0.00018247776
0.001536787
-0.00036324609
0.0015223248
-0.00054060883
0.0014935212
-0.00071289643
0.0014506175
-0.00087847942
0.001393976
-0.0010357821
0.0013240792
-0.0011832965
0.0012415299
-0.0013195966
0.0011470496
-0.0014433529
0.0010414772
-0.0015533469
0.00092576523
-0.0016484861
0.00080097492
-0.0017278177
0.00066826911
-0.0017905417
0.00052890219
-0.001836022
0.00038420741
-0.0018637951
0.00023558171
-0.001873576
8.4468508e-05
-0.0018652601
-6.7660344e-05
-0.0018389232
-0.00021932242
-0.0017948176
-0.0003690414
-0.0017333678
-0.00051536183
-0.0016551638
-0.00065686199
-0.0015609541
-0.00079216517
-0.0014516388
-0.00091995011
-0.0013282617
-0.0010389612
-0.0011920019
-0.0011480194
-0.0010441649
-0.0012460331
-0.00088617141
-0.0013320108
-0.00071954564
-0.0014050727
-0.00054590128
-0.0014644636
-0.00036692601
-0.0015095635
-0.00018436447
-0.001539898
-0.0015551462
0.00020213126
-0.0017572774
0.00040228843
-0.0017400551
0.00059851897
-0.001705794
0.00078891301
-0.0016548576
0.00097162331
-0.001587783
0.0011448839
-0.0015052713
0.0013070268
-0.001408176
0.0014564968
-0.0012974894
0.0015918646
-0.001174329
0.0017118374
-0.0010399229
0.0018152688
-0.00089559661
0.0019011676
-0.0007427608
0.0019687059
-0.00058290009
0.0020172274
-0.0004175629
0.0020462559
-0.00024835098
0.0020555035
-7.6907932e-05
0.0020448773
9.5094757e-05
0.0020144844
0.00026597458
0.0019646339
0.00043405792
0.0018958342
0.00059770189
0.0018087867
0.00075531661
0.0017043754
0.00090538625
0.0015836533
0.0010464873
0.0014478275
0.0011773031
0.0012982419
0.0012966352
0.0011363611
0.0014034107
0.0009637535
0.0014966868
0.00078207535
0.0015756542
0.0005930552
0.0016396377
0.00039847888
0.0016880975
0.00020017489
0.0017206288
2.3301977e-14
0.0017369619
-0.00020017489
0.0017369619
-0.00039847888
0.0017206288
-0.0005930552
0.0016880975
-0.00078207535
0.0016396377
-0.0009637535
0.0015756542
-0.0011363611
0.0014966868
-0.0012982419
0.0014034107
-0.0014478275
0.0012966352
-0.0015836533
0.0011773031
-0.0017043754
0.0010464873
-0.0018087867
0.00090538625
-0.0018958342
0.00075531661
-0.0019646339
0.00059770189
-0.0020144844
0.00043405792
-0.0020448773
0.00026597458
-0.0020555035
9.5094757e-05
-0.0020462559
-7.6907932e-05
-0.0020172274
-0.00024835098
-0.0019687059
-0.0004175629
-0.0019011676
-0.00058290009
-0.0018152688
-0.0007427608
-0.0017118374
-0.00089559661
-0.0015918646
-0.0010399229
-0.0014564968
-0.001174329
-0.0013070268
-0.0012974894
-0.0011448839
-0.001408176
-0.00097162331
-0.0015052713
-0.00078891301
-0.001587783
-0.00059851897
-0.0016548576
-0.00040228843
-0.001705794
-0.00020213126
-0.0017400551
-0.0017572774
0.00022289696
-0.0019801744
0.0004436204
-0.0019607786
0.00066002069
-0.0019221943
0.00086999544
-0.0018648324
0.0010715116
-0.0017892992
0.0012626258
-0.0016963855
0.0014415026
-0.0015870528
0.0016064306
-0.0014624174
0.0017558357
-0.001323734
0.0018882925
-0.0011723797
0.0020025346
-0.0010098387
0.0020974629
-0.00083768918
0.0021721554
-0.00065759252
0.0022258757
-0.00047128323
0.0022580842
-0.00028055951
0.0022684483
-8.727204e-05
0.0022568523
0.00010669076
0.0022234049
0.00029942203
0.0021684422
0.00048902058
0.0020925262
0.00067361795
0.0019964363
0.00085140648
0.0018811573
0.0010206652
0.0017478624
0.0011797822
0.0015978946
0.0013272709
0.0014327469
0.0014617829
0.0012540432
0.0015821144
0.0010635191
0.0016872109
0.00086300428
0.001776169
0.00065440576
0.0018482362
0.00043969154
0.0019028117
0.00022087509
0.0019394453
2.2542818e-14
0.001957837
-0.00022087509
0.001957837
-0.00043969154
0.0019394453
-0.00065440576
0.0019028117
-0.00086300428
0.0018482362
-0.0010635191
0.001776169
-0.0012540432
0.0016872109
-0.0014327469
0.0015821144
-0.0015978946
0.0014617829
-0.0017478624
0.0013272709
-0.0018811573
0.0011797822
-0.0019964363
0.0010206652
-0.0020925262
0.00085140648
-0.0021684422
0.00067361795
-0.0022234049
0.00048902058
-0.0022568523
0.00029942203
-0.0022684483
0.00010669076
-0.0022580842
-8.727204e-05
-0.0022258757
-0.00028055951
-0.0021721554
-0.00047128323
-0.0020974629
-0.00065759252
-0.0020025346
-0.00083768918
-0.0018882925
-0.0010098387
-0.0017558357
-0.0011723797
-0.0016064306
-0.001323734
-0.0014415026
-0.0014624174
-0.0012626258
-0.0015870528
-0.0010715116
-0.0016963855
-0.00086999544
-0.0017892992
-0.00066002069
-0.0018648324
-0.0004436204
-0.0019221943
-0.00022289696
-0.0019607786
-0.0019801744
0.00024731994
-0.0022274943
0.0004922325
-0.0022056911
0.00073235697
-0.0021623188
0.00096536525
-0.0020978406
0.0011890064
-0.0020129403
0.001401129
-0.0019085082
0.0015997017
-0.0017856255
0.0017828296
-0.0016455453
0.0019487691
-0.0014896735
0.0020959394
-0.00131955
0.0022229323
-0.0011368316
0.0023285216
-0.00094327839
0.0024116718
-0.00074074282
0.0024715502
-0.00053116156
0.0025075384
-0.00031654777
0.0025192477
-9.8981262e-05
0.0025065318
0.00011940657
0.0024694991
0.00033645481
0.002408517
0.0005500026
0.0023242115
0.00075792354
0.0022174565
0.00095816145
0.0020893587
0.0011487631
0.001941236
0.0013279049
0.0017745946
0.0014939123
0.0015911055
0.001645272
0.0013925811
0.0017806388
0.0011809545
0.0018988375
0.00095825951
0.0019988639
0.00072661243
0.0020798833
0.00048819477
0.0021412294
0.00024523655
0.0021824035
2.1643961e-14
0.0022030735
-0.00024523655
0.0022030735
-0.00048819477
0.0021824035
-0.00072661243
0.0021412294
-0.00095825951
0.0020798833
-0.0011809545
0.0019988639
-0.0013925811
0.0018988375
-0.0015911055
0.0017806388
-0.0017745946
0.001645272
-0.001941236
0.0014939123
-0.0020893587
0.0013279049
-0.0022174565
0.0011487631
-0.0023242115
0.00095816145
-0.002408517
0.00075792354
-0.0024694991
0.0005500026
-0.0025065318
0.00033645481
-0.0025192477
0.00011940657
-0.0025075384
-9.8981262e-05
-0.0024715502
-0.00031654777
-0.0024116718
-0.00053116156
-0.0023285216
-0.00074074282
-0.0022229323
-0.00094327839
-0.0020959394
-0.0011368316
-0.0019487691
-0.00131955
-0.0017828296
-0.0014896735
-0.0015997017
-0.0016455453
-0.001401129
-0.0017856255
-0.0011890064
-0.0019085082
-0.00096536525
-0.0020129403
-0.00073235697
-0.0020978406
-0.0004922325
-0.0021623188
-0.00024731994
-0.0022056911
-0.0022274943
0.00027616151
-0.0025036559
0.00054964025
-0.0024791699
0.00081778334
-0.0024304618
0.0010779968
-0.0023580541
0.001327773
-0.0022627165
0.0015647158
-0.002145451
0.0017865626
-0.0020074723
0.0019912031
-0.0018501858
0.0021766942
-0.0016751646
0.0023412719
-0.0014841277
0.0024833612
-0.0012789208
0.0026015842
-0.0010615014
0.0026947706
-0.0008339292
0.0027619695
-0.00059836051
0.002802466
-0.0003570442
0.0028157994
-0.00011231471
0.0028017837
0.0001334223
0.0027605233
0.0003777152
0.0026924225
0.00061810337
0.0025981842
0.00085216185
0.0024787977
0.0010775479
0.0023355179
0.0012920429
0.0021698382
0.0014935846
0.0019834614
0.001680289
0.0017782709
0.0018504626
0.0015563036
0.0020026061
0.0013197261
0.002135415
0.001070813
0.002247777
0.00081192703
0.0023387693
0.00054550071
0.0024076557
0.00027401862
0.0024538856
2.0558683e-14
0.0024770921
-0.00027401862
0.0024770921
-0.00054550071
0.0024538856
-0.00081192703
0.0024076557
-0.001070813
0.0023387693
-0.0013197261
0.002247777
-0.0015563036
0.002135415
-0.0017782709
0.0020026061
-0.0019834614
0.0018504626
-0.0021698382
0.001680289
-0.0023355179
0.0014935846
-0.0024787977
0.0012920429
-0.0025981842
0.0010775479
-0.0026924225
0.00085216185
-0.0027605233
0.00061810337
-0.0028017837
0.0003777152
-0.0028157994
0.0001334223
-0.002802466
-0.00011231471
-0.0027619695
-0.0003570442
-0.0026947706
-0.00059836051
-0.0026015842
-0.0008339292
-0.0024833612
-0.0010615014
-0.0023412719
-0.0012789208
-0.0021766942
-0.0014841277
-0.0019912031
-0.0016751646
-0.0017865626
-0.0018501858
-0.0015647158
-0.0020074723
-0.001327773
-0.002145451
-0.0010779968
-0.0022627165
-0.00081778334
-0.0023580541
-0.00054964025
-0.0024304618
-0.00027616151
-0.0024791699
-0.0025036559
0.00031023965
-0.0028138955
0.00061747194
-0.0027864022
0.00091872311
-0.002731713
0.0012110857
-0.0026504166
0.0014917493
-0.0025433801
0.0017580291
-0.0024117308
0.0020073902
-0.0022568334
0.0022374681
-0.0020802638
0.0024460852
-0.0018837817
0.0026312621
-0.0016693047
0.0027912269
-0.0014388856
0.0029244228
-0.0011946974
0.0030295179
-0.0009390243
0.0031054188
-0.00067426136
0.0031512904
-0.00040291584
0.0031665818
-0.00012760612
0.0031510537
0.00014895042
0.0031048027
0.00042396616
0.0030282758
0.00069463029
0.0029222695
0.0009581682
0.002787914
0.0012119034
0.0026266452
0.0014533117
0.0024401693