/*--------------------------------*- C++ -*----------------------------------*\
| =========                 |                                                 |
| \\      /  F ield         | OpenFOAM: The Open Source CFD Toolbox           |
|  \\    /   O peration     | Version:  2306                                  |
|   \\  /    A nd           | Website:  www.openfoam.com                      |
|    \\/     M anipulation  |                                                 |
\*---------------------------------------------------------------------------*/
FoamFile
{
    version     2.0;
    format      ascii;
    arch        "LSB;label=32;scalar=64";
    class       volVectorField;
    location    "0.54";
    object      U;
}
// * * * * * * * * * * * * * * * * * * * * * * * * * * * * * * * * * * * * * //

dimensions      [0 1 -1 0 0 0 0];

internalField   nonuniform List<vector> 
51200
(
(3.7413779e-05 -2.7714017e-05 -8.9248438e-20)
(8.7845831e-05 -3.287572e-05 -3.8415194e-21)
(0.00014426705 -3.2355882e-05 2.3335133e-20)
(0.00019837969 -3.2275594e-05 -1.3335084e-20)
(0.00025308829 -3.2113092e-05 -3.0897202e-20)
(0.00030690055 -3.1821294e-05 9.0997127e-21)
(0.00035987481 -3.1526095e-05 7.2023439e-21)
(0.00041204541 -3.1207646e-05 -1.983212e-20)
(0.00046337213 -3.0858513e-05 -6.8308843e-21)
(0.00051378234 -3.0476e-05 4.0341201e-20)
(0.00056319062 -3.0058779e-05 4.0810585e-20)
(0.00061150541 -2.9606724e-05 -1.0269019e-20)
(0.00065863339 -2.9120597e-05 3.0524436e-20)
(0.00070448354 -2.8601504e-05 4.2301346e-20)
(0.00074896889 -2.8050789e-05 3.197356e-20)
(0.00079200725 -2.746991e-05 1.3188071e-20)
(0.00083352144 -2.686044e-05 -1.2891499e-20)
(0.00087343962 -2.622405e-05 2.248606e-20)
(0.00091169558 -2.556241e-05 2.1012222e-20)
(0.00094822875 -2.4877149e-05 -1.424625e-20)
(0.00098298453 -2.416999e-05 9.9097764e-21)
(0.0010159141 -2.3442396e-05 2.4357743e-20)
(0.0010469744 -2.2695895e-05 -8.1228706e-23)
(0.0010761285 -2.1931743e-05 -4.1424215e-20)
(0.0011033453 -2.1151164e-05 -1.13446e-19)
(0.0011286 -2.0354726e-05 -2.5145945e-20)
(0.001151873 -1.9542396e-05 1.2331973e-19)
(0.0011731503 -1.8713116e-05 -6.3596973e-21)
(0.0011924259 -1.7865446e-05 -9.2058118e-20)
(0.0012097073 -1.6997499e-05 -6.7720162e-21)
(0.0012250198 -1.6120823e-05 -7.5271835e-21)
(0.0012383698 -1.5269983e-05 -4.90139e-20)
(0.0012497493 -1.4453317e-05 -1.0809717e-19)
(0.0012591719 -1.3665038e-05 6.6821399e-20)
(0.0012666641 -1.2899173e-05 1.8482863e-19)
(0.0012722597 -1.2152786e-05 -8.2632139e-20)
(0.0012759963 -1.1423597e-05 -1.0692015e-19)
(0.0012779142 -1.0711554e-05 9.5594345e-20)
(0.001278059 -1.0017441e-05 -5.6793926e-20)
(0.00127648 -9.3420698e-06 -2.1621392e-19)
(0.0012732288 -8.6868917e-06 -4.1325989e-20)
(0.0012683624 -8.0527915e-06 1.664107e-19)
(0.0012619385 -7.4396967e-06 3.5101734e-19)
(0.0012540197 -6.8499731e-06 3.1685837e-19)
(0.0012446716 -6.2835688e-06 -1.446795e-19)
(0.0012339598 -5.7425215e-06 -5.9060962e-19)
(0.001221954 -5.2310044e-06 -1.9180771e-19)
(0.0012087257 -4.7535457e-06 1.887523e-19)
(0.0011943414 -4.3126171e-06 1.9364075e-19)
(0.0011788626 -3.9027107e-06 1.8556088e-19)
(0.0011623581 -3.5162761e-06 -1.5853763e-19)
(0.0011449032 -3.1287177e-06 -1.5770456e-20)
(0.0011265678 -2.7430831e-06 1.5051516e-19)
(0.0011074067 -2.3655829e-06 -1.3509878e-19)
(0.0010874716 -1.9705126e-06 2.35853e-20)
(0.0010668899 -1.5129832e-06 2.6257084e-20)
(0.0010457652 -1.0661451e-06 -1.9037571e-19)
(0.0010241321 -6.4673766e-07 -2.0363914e-20)
(0.0010020506 -2.5657212e-07 6.5388597e-20)
(0.00097958394 1.0589782e-07 -2.5878298e-20)
(0.00095679661 4.4204951e-07 -8.4004448e-22)
(0.00093375036 7.5457361e-07 8.7106494e-20)
(0.00091050624 1.0425741e-06 -1.3109585e-20)
(0.00088712405 1.3090074e-06 -2.1842287e-19)
(0.00086365773 1.554531e-06 -1.555349e-19)
(0.00084016175 1.7793073e-06 1.3880154e-19)
(0.00081668798 1.9851085e-06 1.7220019e-19)
(0.0007932838 2.1726634e-06 -1.9494928e-21)
(0.0007699947 2.342486e-06 -1.0466349e-19)
(0.00074686105 2.4968345e-06 -1.9331011e-19)
(0.00072392335 2.6334593e-06 4.1947216e-20)
(0.00070122216 2.7545893e-06 2.1312228e-19)
(0.00067879197 2.86133e-06 4.6656473e-20)
(0.00065666438 2.9544271e-06 -1.8061069e-20)
(0.00063486831 3.0347098e-06 1.6363532e-21)
(0.00061343108 3.1020937e-06 9.1368096e-20)
(0.00059237418 3.1581471e-06 3.2128154e-20)
(0.00057171982 3.202946e-06 -1.2589451e-19)
(0.00055148819 3.2389726e-06 -1.023856e-19)
(0.00053169501 3.2644711e-06 -2.9865584e-20)
(0.0005123555 3.2813486e-06 -5.1597202e-20)
(0.00049347986 3.2906284e-06 6.1129056e-20)
(0.0004750783 3.2917037e-06 7.5384005e-20)
(0.00045715962 3.285759e-06 -2.6954067e-20)
(0.00043972938 3.2736728e-06 1.5518814e-21)
(0.00042279136 3.2559355e-06 -7.2216072e-21)
(0.00040634775 3.2327178e-06 7.9393842e-20)
(0.00039039977 3.2047764e-06 5.1294949e-20)
(0.00037494531 3.174777e-06 -1.3926193e-19)
(0.0003599822 3.1389976e-06 -1.1562931e-19)
(0.00034550799 3.1001597e-06 -8.8795681e-20)
(0.00033151735 3.0587388e-06 -2.0208652e-20)
(0.00031800417 3.015562e-06 1.0776345e-19)
(0.00030496169 2.9697098e-06 7.698007e-20)
(0.00029238255 2.9223031e-06 -1.1356438e-20)
(0.00028025795 2.8739196e-06 -9.5863779e-20)
(0.00026857872 2.8242455e-06 9.08615e-20)
(0.00025733519 2.773872e-06 1.5538865e-19)
(0.00024651697 2.7230997e-06 -4.2693543e-20)
(0.0002361133 2.6720013e-06 -1.1673189e-19)
(0.00022611309 2.6208976e-06 -1.0721174e-19)
(0.00021650489 2.5699696e-06 7.9220702e-20)
(0.00020727703 2.5193895e-06 1.1564102e-19)
(0.00019841771 2.4693086e-06 1.2236068e-21)
(0.000189915 2.4198834e-06 -5.8472277e-20)
(0.00018175694 2.3712193e-06 -1.4284613e-19)
(0.00017393158 2.323421e-06 5.9802113e-20)
(0.00016642708 2.2765626e-06 1.5400961e-19)
(0.00015923167 2.2306972e-06 3.4436969e-20)
(0.00015233374 2.1858744e-06 2.9872558e-20)
(0.00014572186 2.1421427e-06 -1.2726457e-19)
(0.00013938473 2.0995549e-06 -1.2128466e-19)
(0.00013331132 2.0581313e-06 9.4332898e-20)
(0.00012749074 2.0179483e-06 6.2185112e-20)
(0.00012191225 1.9790289e-06 -3.5589661e-21)
(0.00011656536 1.9413761e-06 -3.3077263e-20)
(0.00011143976 1.9049786e-06 -5.9378249e-21)
(0.00010652538 1.8698241e-06 7.0653438e-20)
(0.00010181256 1.8356943e-06 -1.6760168e-20)
(9.7292093e-05 1.8024761e-06 -5.2030069e-20)
(9.2955085e-05 1.770044e-06 -1.9718539e-20)
(8.8792986e-05 1.7382863e-06 3.7723452e-20)
(8.479763e-05 1.7071575e-06 5.1451853e-20)
(8.0961037e-05 1.676921e-06 -3.7243955e-20)
(7.7274493e-05 1.6488692e-06 -5.1659846e-20)
(7.3729669e-05 1.6223999e-06 -2.8528505e-20)
(7.0319617e-05 1.5971997e-06 4.4294327e-20)
(6.7037758e-05 1.5732008e-06 6.8010531e-20)
(6.3877675e-05 1.5503824e-06 2.354358e-21)
(6.083313e-05 1.5287246e-06 -1.9782678e-20)
(5.7898085e-05 1.5082081e-06 -3.3246629e-20)
(5.5066726e-05 1.4888046e-06 2.3945003e-20)
(5.2333485e-05 1.4704824e-06 7.1510817e-20)
(4.9693034e-05 1.4532181e-06 8.4241437e-21)
(4.7140277e-05 1.4369844e-06 -4.2177929e-20)
(4.467033e-05 1.4217557e-06 -3.5811505e-20)
(4.2278511e-05 1.4075248e-06 6.3198639e-21)
(3.9960456e-05 1.3943217e-06 1.6609076e-20)
(3.7711892e-05 1.3820384e-06 7.8539099e-21)
(3.5528799e-05 1.3707513e-06 3.5602052e-21)
(3.3407421e-05 1.360344e-06 -1.6004493e-20)
(3.1344145e-05 1.350826e-06 6.7469957e-21)
(2.9335732e-05 1.3421826e-06 1.6205019e-20)
(2.7378849e-05 1.3347543e-06 -1.2239322e-20)
(2.5469046e-05 1.3284798e-06 -1.5227636e-20)
(2.3602561e-05 1.3220574e-06 -1.9917579e-20)
(2.1776954e-05 1.3157567e-06 8.2831092e-21)
(1.9989427e-05 1.3097817e-06 3.3747962e-20)
(1.8236993e-05 1.3042424e-06 -1.187731e-21)
(1.6516409e-05 1.2992608e-06 -1.422984e-20)
(1.4824142e-05 1.2950297e-06 -8.5677945e-21)
(1.3155838e-05 1.2917742e-06 5.7755683e-21)
(1.1505743e-05 1.290182e-06 1.3375541e-20)
(9.8660477e-06 1.2914956e-06 2.8721877e-21)
(8.2259036e-06 1.2977035e-06 1.0782347e-21)
(6.5714145e-06 1.3110654e-06 -2.4633662e-21)
(4.8909928e-06 1.3308399e-06 -2.067492e-21)
(3.1997303e-06 1.339844e-06 3.6365393e-21)
(1.5557608e-06 1.2572537e-06 3.512654e-21)
(3.3676357e-07 9.9880085e-07 2.8696873e-21)
(6.9626376e-05 -0.00019788131 2.8088705e-20)
(0.00015581551 -0.00019938474 -3.375732e-21)
(0.00025229185 -0.00019708202 -2.3185657e-20)
(0.00034474231 -0.00019497149 -7.243879e-20)
(0.00043776429 -0.00019270803 -6.0782397e-20)
(0.00052910645 -0.0001904386 6.1392117e-22)
(0.00061884665 -0.00018822469 -3.8314355e-20)
(0.00070703684 -0.00018598118 -2.3525435e-20)
(0.0007935943 -0.0001836341 2.6849505e-20)
(0.00087837641 -0.00018113449 7.1892115e-20)
(0.00096121802 -0.00017845387 7.4988495e-20)
(0.0010419435 -0.00017557823 7.1795667e-20)
(0.0011203749 -0.00017250322 5.2499451e-20)
(0.0011963392 -0.0001692302 -4.4295701e-20)
(0.0012696715 -0.00016576446 3.3497322e-20)
(0.0013402171 -0.00016211326 4.2538076e-20)
(0.0014078318 -0.00015828551 -4.8709199e-20)
(0.0014723826 -0.00015429127 1.5196044e-20)
(0.0015337482 -0.0001501415 7.820107e-20)
(0.0015918192 -0.00014584735 5.7349623e-20)
(0.0016464989 -0.00014142109 2.7495774e-20)
(0.0016977024 -0.00013687431 3.3245572e-20)
(0.0017453573 -0.00013221949 4.6251015e-20)
(0.0017894035 -0.00012746878 -1.4002816e-20)
(0.0018297937 -0.00012263499 -1.8929002e-19)
(0.0018664936 -0.00011772949 -1.4570315e-19)
(0.0018994804 -0.00011276356 3.9646844e-20)
(0.0019287433 -0.00010774715 -2.6094224e-22)
(0.0019542856 -0.0001026923 1.2061061e-20)
(0.0019761153 -9.7607843e-05 4.112867e-20)
(0.00199424 -9.2515336e-05 -1.1333822e-19)
(0.0020086959 -8.7450201e-05 -1.4456781e-19)
(0.002019545 -8.2434174e-05 -1.0585715e-19)
(0.0020268495 -7.747289e-05 9.0731213e-20)
(0.0020306718 -7.2571589e-05 2.2751661e-19)
(0.0020310855 -6.7739045e-05 1.6615108e-20)
(0.0020281729 -6.2980074e-05 -3.7527418e-20)
(0.002022023 -5.8303696e-05 -2.6628737e-20)
(0.0020127369 -5.3718238e-05 -3.4689604e-19)
(0.0020004231 -4.9228434e-05 -3.3075808e-19)
(0.0019851955 -4.4841834e-05 3.605676e-19)
(0.0019671772 -4.0565992e-05 3.2429105e-19)
(0.0019464914 -3.6404801e-05 1.1363937e-19)
(0.0019232694 -3.2371035e-05 2.8098802e-19)
(0.001897647 -2.8464605e-05 -1.4470407e-19)
(0.0018697577 -2.4692228e-05 -2.7812135e-19)
(0.0018397412 -2.105779e-05 -2.6552263e-20)
(0.0018077425 -1.7560108e-05 -1.1517315e-19)
(0.0017739106 -1.4177808e-05 3.5503909e-20)
(0.001738391 -1.0908118e-05 7.2144377e-20)
(0.0017013438 -7.8007204e-06 8.8880578e-22)
(0.0016629008 -4.8879099e-06 1.9677303e-19)
(0.001623173 -2.1595966e-06 8.0545896e-20)
(0.001582316 4.1353413e-07 -1.4171301e-19)
(0.0015405028 2.8492376e-06 -1.059414e-19)
(0.0014978294 5.1796232e-06 -4.7743173e-20)
(0.0014544036 7.3661047e-06 -1.0447e-19)
(0.0014103954 9.399081e-06 -2.0617855e-19)
(0.0013659448 1.1279807e-05 -4.2460287e-20)
(0.0013211733 1.3012454e-05 1.5907768e-19)
(0.0012762021 1.4599486e-05 4.5804557e-20)
(0.001231145 1.6047281e-05 -3.2614856e-20)
(0.001186114 1.7353468e-05 -1.2346319e-19)
(0.0011412176 1.8528994e-05 -2.141291e-19)
(0.0010965487 1.9574724e-05 -2.0874127e-19)
(0.0010522053 2.0496851e-05 1.6155092e-19)
(0.0010082805 2.1299814e-05 4.2180709e-19)
(0.00096485481 2.1988204e-05 -4.9715642e-20)
(0.00092200681 2.2569e-05 -3.4039951e-19)
(0.00087980405 2.3056642e-05 -4.1484041e-19)
(0.00083831352 2.3434868e-05 -2.428514e-20)
(0.00079760199 2.3718918e-05 4.3024316e-19)
(0.00075772342 2.3917777e-05 2.245366e-19)
(0.00071872771 2.4035713e-05 1.0071827e-19)
(0.00068065677 2.4074924e-05 -6.6641146e-20)
(0.00064355086 2.4042502e-05 9.4599264e-20)
(0.00060744329 2.3956651e-05 1.1876495e-19)
(0.00057236469 2.3796228e-05 -3.715106e-19)
(0.00053833539 2.3582459e-05 -2.0166192e-19)
(0.00050537409 2.331879e-05 1.4622136e-19)
(0.00047350221 2.3009268e-05 2.8359017e-20)
(0.00044272553 2.2661926e-05 5.6651163e-21)
(0.00041305079 2.2272508e-05 -8.2596099e-20)
(0.00038448335 2.1850854e-05 -3.2694536e-19)
(0.00035702175 2.1401191e-05 -3.7938179e-20)
(0.00033066139 2.0926955e-05 2.4289275e-19)
(0.00030539605 2.0431646e-05 1.289289e-19)
(0.00028121932 1.9918516e-05 3.0785089e-19)
(0.00025811122 1.9390703e-05 2.5491638e-20)
(0.0002360575 1.8851955e-05 -5.6353897e-19)
(0.00021504831 1.8304797e-05 -3.7441842e-19)
(0.00019506194 1.7751767e-05 1.4630974e-19)
(0.00017607532 1.7195307e-05 2.1627183e-19)
(0.00015806675 1.6637901e-05 -1.093558e-19)
(0.00014101512 1.6081551e-05 -3.3874086e-20)
(0.00012489388 1.552811e-05 1.1585881e-19)
(0.00010967743 1.4979366e-05 2.0810126e-19)
(9.5340228e-05 1.4436864e-05 1.7470962e-19)
(8.1854677e-05 1.3902005e-05 -2.8847139e-19)
(6.9193324e-05 1.3376039e-05 -3.0767293e-19)
(5.7328463e-05 1.2860064e-05 4.1137146e-20)
(4.6231884e-05 1.2355041e-05 2.5928467e-19)
(3.5875443e-05 1.1861782e-05 1.7238059e-19)
(2.6231002e-05 1.1380971e-05 -1.4538704e-19)
(1.7270544e-05 1.0913174e-05 -1.5717776e-19)
(8.9662802e-06 1.0458793e-05 -3.6803866e-20)
(1.2907702e-06 1.0018151e-05 1.5926885e-19)
(-5.7830218e-06 9.5914741e-06 3.076442e-19)
(-1.2281659e-05 9.1788913e-06 2.8332107e-20)
(-1.8231166e-05 8.7804866e-06 -1.5911224e-19)
(-2.3656988e-05 8.3962859e-06 -1.1868016e-19)
(-2.858401e-05 8.0263377e-06 -1.3910185e-19)
(-3.3036428e-05 7.6704956e-06 1.4737487e-19)
(-3.7037864e-05 7.3287711e-06 2.6948095e-19)
(-4.0611431e-05 7.0010768e-06 -6.5251048e-20)
(-4.3779521e-05 6.68722e-06 -2.6528255e-19)
(-4.6563798e-05 6.3870533e-06 -8.0666466e-20)
(-4.8985423e-05 6.1007818e-06 2.2874814e-19)
(-5.1064603e-05 5.8273517e-06 4.6026531e-20)
(-5.2820446e-05 5.5664904e-06 -2.9087038e-19)
(-5.4271372e-05 5.3179877e-06 -8.0284793e-20)
(-5.5434966e-05 5.0816114e-06 3.0219069e-19)
(-5.632773e-05 4.8571778e-06 2.3353327e-19)
(-5.6964619e-05 4.6448721e-06 -1.9240195e-19)
(-5.736311e-05 4.4491857e-06 -3.6364407e-19)
(-5.7540544e-05 4.2628448e-06 -1.3347519e-20)
(-5.7510318e-05 4.0850683e-06 2.8882558e-19)
(-5.7285331e-05 3.9160267e-06 1.508416e-19)
(-5.6878227e-05 3.7557364e-06 -5.7689539e-20)
(-5.6301203e-05 3.6040653e-06 -1.2895832e-19)
(-5.5565918e-05 3.4607871e-06 -6.493772e-20)
(-5.4683478e-05 3.3256209e-06 1.4692533e-19)
(-5.3664426e-05 3.1982742e-06 1.9360344e-19)
(-5.2518767e-05 3.0784517e-06 1.0837782e-20)
(-5.1255988e-05 2.9658583e-06 -1.4078982e-19)
(-4.9885073e-05 2.8602149e-06 -5.9865251e-20)
(-4.841455e-05 2.7612582e-06 5.0796671e-20)
(-4.6852433e-05 2.6688084e-06 2.5484636e-20)
(-4.5206338e-05 2.5824657e-06 1.3106855e-20)
(-4.3483449e-05 2.5021473e-06 -5.572793e-21)
(-4.1690524e-05 2.4274305e-06 -3.1222263e-20)
(-3.9833932e-05 2.3580457e-06 -1.8202151e-20)
(-3.7919185e-05 2.2934731e-06 2.5950888e-20)
(-3.5952026e-05 2.2324194e-06 -9.0698273e-21)
(-3.3940863e-05 2.1738817e-06 -6.0420152e-20)
(-3.1891325e-05 2.1204667e-06 -1.93375e-20)
(-2.9806419e-05 2.0722833e-06 5.755153e-20)
(-2.7691206e-05 2.0293377e-06 6.3111417e-20)
(-2.5550912e-05 1.9917605e-06 -2.0634874e-20)
(-2.3391013e-05 1.9600149e-06 -5.6852454e-20)
(-2.1217468e-05 1.935107e-06 -1.2983843e-21)
(-1.9037204e-05 1.9186258e-06 4.3750499e-20)
(-1.6858604e-05 1.9134751e-06 2.4645771e-20)
(-1.4691737e-05 1.9236941e-06 -5.4331374e-21)
(-1.2547788e-05 1.9533225e-06 -9.8284395e-21)
(-1.0435616e-05 2.001323e-06 -6.5757763e-22)
(-8.3515291e-06 2.0472582e-06 9.7195613e-21)
(-6.2546017e-06 2.0132059e-06 1.3537602e-20)
(-4.0628473e-06 1.6982161e-06 1.1137891e-20)
(-1.4719732e-06 8.8036474e-07 1.1289575e-20)
(7.372929e-05 -0.00042371182 5.505383e-20)
(0.00016365019 -0.00042037013 1.8567195e-20)
(0.00026508568 -0.00041523148 -5.2224077e-20)
(0.00036216612 -0.00040950758 -7.9272593e-20)
(0.00045990104 -0.00040390536 -3.3267713e-20)
(0.0005557699 -0.00039861581 -8.5968499e-21)
(0.00064979753 -0.00039347776 -7.113045e-20)
(0.00074197732 -0.00038828425 1.0280982e-20)
(0.00083218357 -0.00038287194 2.565765e-20)
(0.00092024231 -0.00037713076 1.4810893e-22)
(0.0010059628 -0.00037099584 7.1022126e-20)
(0.0010891455 -0.00036443403 6.2200934e-20)
(0.0011695893 -0.0003574341 1.0891604e-19)
(0.0012470988 -0.0003499985 2.7244446e-20)
(0.0013214878 -0.00034213935 1.0499565e-20)
(0.001392582 -0.00033387312 6.7610674e-20)
(0.0014602199 -0.0003252209 1.9272187e-21)
(0.0015242525 -0.00031620653 5.2808235e-20)
(0.0015845451 -0.00030685615 6.1225276e-20)
(0.0016409774 -0.00029719608 -1.8038853e-20)
(0.0016934451 -0.00028725611 2.630162e-20)
(0.0017418578 -0.00027706484 5.4894473e-20)
(0.0017861402 -0.0002666518 3.6032752e-20)
(0.0018262329 -0.00025604731 -4.7324233e-20)
(0.0018620913 -0.00024528318 -1.6754101e-19)
(0.0018936864 -0.00023438924 -1.1658001e-19)
(0.0019210034 -0.00022339631 -1.6809934e-20)
(0.0019440405 -0.00021233404 1.5707695e-21)
(0.0019628141 -0.00020123835 -2.3243332e-20)
(0.0019773505 -0.00019013656 5.517053e-20)
(0.0019876884 -0.00017905846 4.9874046e-20)
(0.0019938836 -0.00016801566 -2.1054233e-19)
(0.0019960078 -0.00015704275 -1.6569753e-19)
(0.0019941452 -0.00014616416 4.7948795e-20)
(0.0019883834 -0.00013540937 1.3205392e-19)
(0.0019788276 -0.00012480573 1.662808e-19)
(0.0019655913 -0.00011437281 -2.3503224e-20)
(0.0019487945 -0.00010413651 -1.4037402e-19)
(0.0019285718 -9.4119434e-05 -2.1092096e-19)
(0.0019050634 -8.4335593e-05 -3.0223256e-19)
(0.0018784141 -7.4802706e-05 -2.5983385e-20)
(0.0018487809 -6.5538717e-05 3.5495788e-19)
(0.0018163177 -5.6554186e-05 4.0861518e-19)
(0.0017811935 -4.7872019e-05 2.7473244e-19)
(0.001743582 -3.9491657e-05 -7.8845013e-20)
(0.0017036518 -3.1427516e-05 -6.0653933e-19)
(0.0016615858 -2.3662476e-05 -2.449194e-19)
(0.0016175837 -1.6250402e-05 1.3332259e-19)
(0.0015718112 -9.2250797e-06 3.4022471e-19)
(0.0015243611 -2.5993777e-06 4.9103997e-19)
(0.0014753776 3.673875e-06 -3.1508044e-19)
(0.0014251024 9.5703319e-06 -2.5165881e-19)
(0.0013737643 1.5092978e-05 2.624755e-19)
(0.0013215213 2.0266884e-05 -2.9499291e-20)
(0.0012685314 2.5068258e-05 -1.082547e-19)
(0.0012149648 2.9486292e-05 -1.1846815e-19)
(0.0011609678 3.3559847e-05 -1.4612481e-19)
(0.0011066945 3.7292345e-05 2.2611838e-20)
(0.0010523013 4.0698844e-05 -2.8686301e-20)
(0.00099792733 4.3784242e-05 -2.3546859e-19)
(0.0009437115 4.6549104e-05 -3.3319673e-20)
(0.00088978321 4.9029275e-05 1.4283411e-19)
(0.00083627254 5.1187036e-05 -1.9849209e-19)
(0.00078330149 5.3068506e-05 -1.0983054e-19)
(0.00073097433 5.4672662e-05 3.3358744e-19)
(0.00067940019 5.6006307e-05 2.2484564e-19)
(0.00062867846 5.7088526e-05 -2.2312839e-19)
(0.00057890057 5.7927302e-05 -3.5495907e-19)
(0.00053015809 5.8533597e-05 -8.028848e-20)
(0.00048250128 5.8957984e-05 -2.2900546e-19)
(0.00043600084 5.9136431e-05 -1.4744222e-19)
(0.00039074608 5.9130889e-05 1.3589479e-19)
(0.00034678121 5.8949537e-05 6.1573516e-20)
(0.00030414806 5.8602712e-05 2.3761714e-19)
(0.00026289006 5.8101075e-05 1.3850943e-19)
(0.00022305815 5.7458868e-05 3.1521928e-19)
(0.0001846513 5.6688281e-05 1.0617046e-19)
(0.00014769696 5.5798069e-05 -6.2460619e-19)
(0.00011223545 5.4798543e-05 -1.7615127e-19)
(7.8261731e-05 5.3706528e-05 4.5237053e-19)
(4.5789584e-05 5.2529709e-05 8.4590445e-20)
(1.4809531e-05 5.1277956e-05 -4.6505143e-19)
(-1.4679286e-05 4.9961356e-05 -3.2836105e-19)
(-4.2674929e-05 4.8589502e-05 -1.4868992e-19)
(-6.9195237e-05 4.7171328e-05 -1.0327314e-19)
(-9.4256046e-05 4.5715325e-05 1.1439551e-19)
(-0.00011787605 4.4229868e-05 3.2075649e-20)
(-0.00014007658 4.2721878e-05 2.4790615e-19)
(-0.00016088372 4.1195182e-05 4.5059911e-19)
(-0.00018032478 3.9663025e-05 -2.2466998e-19)
(-0.00019842834 3.8127826e-05 -4.8250799e-19)
(-0.00021522672 3.6594906e-05 -5.8323348e-21)
(-0.00023075361 3.5068829e-05 1.1822617e-19)
(-0.00024504393 3.3556186e-05 -1.7197351e-19)
(-0.00025813362 3.2060107e-05 3.0292934e-20)
(-0.0002700602 3.0584007e-05 3.7586663e-19)
(-0.00028086175 2.9132115e-05 3.5990259e-20)
(-0.00029057685 2.7707041e-05 -2.187112e-19)
(-0.00029924471 2.6311363e-05 -2.968573e-19)
(-0.00030690468 2.4947584e-05 -9.3518859e-20)
(-0.00031359619 2.3617532e-05 3.1128871e-19)
(-0.00031935867 2.2322879e-05 2.3372447e-19)
(-0.00032423129 2.1064988e-05 9.5168844e-23)
(-0.00032825289 1.9844964e-05 -2.5058801e-19)
(-0.00033146188 1.8663625e-05 -3.6955801e-20)
(-0.00033389608 1.7521523e-05 2.9602179e-19)
(-0.00033559261 1.6419013e-05 8.6977531e-20)
(-0.00033658783 1.5356191e-05 5.0462555e-21)
(-0.00033691721 1.4332979e-05 -5.5013487e-20)
(-0.00033661534 1.3349189e-05 -1.9452466e-19)
(-0.00033571584 1.2404427e-05 -5.781135e-21)
(-0.00033425154 1.149856e-05 6.5757086e-20)
(-0.00033225412 1.0630664e-05 7.4268269e-20)
(-0.0003297542 9.8005106e-06 2.0761398e-19)
(-0.00032678166 9.0077588e-06 -5.0017807e-20)
(-0.00032336533 8.2517088e-06 -3.3382016e-19)
(-0.00031953248 7.5315106e-06 -1.6674488e-19)
(-0.00031531073 6.8478406e-06 1.0749618e-19)
(-0.00031072605 6.1964983e-06 9.3490943e-20)
(-0.00030580187 5.5776037e-06 -5.508757e-20)
(-0.00030056137 4.9904915e-06 3.0247495e-20)
(-0.00029502668 4.4342034e-06 1.4283506e-19)
(-0.00028921852 3.9074287e-06 5.541131e-20)
(-0.00028315251 3.4077814e-06 -1.599547e-19)
(-0.00027685638 2.9271066e-06 -1.7677876e-19)
(-0.00027035439 2.4721936e-06 7.4053072e-20)
(-0.00026365615 2.0434481e-06 1.7480335e-19)
(-0.00025677697 1.6398284e-06 9.7170509e-20)
(-0.00024973257 1.2601438e-06 -6.2867536e-20)
(-0.0002425379 9.0324794e-07 -6.9123789e-20)
(-0.00023520701 5.6804592e-07 2.2637349e-20)
(-0.00022775313 2.5348777e-07 4.4792517e-20)
(-0.00022018873 -4.1414815e-08 1.1022198e-19)
(-0.0002125255 -3.1762198e-07 9.8688281e-20)
(-0.00020477445 -5.7604721e-07 -2.1603839e-20)
(-0.00019694594 -8.1756297e-07 -8.2817009e-20)
(-0.00018904968 -1.0430018e-06 -2.8773396e-20)
(-0.00018109477 -1.2531386e-06 1.6354746e-20)
(-0.00017308977 -1.4488045e-06 -3.776403e-22)
(-0.00016504272 -1.6306653e-06 -8.7744428e-21)
(-0.00015696117 -1.7995232e-06 -1.5590402e-20)
(-0.00014885236 -1.956113e-06 -4.6756378e-20)
(-0.00014072366 -2.1013223e-06 6.9389901e-21)
(-0.00013258162 -2.2366253e-06 2.2443576e-20)
(-0.00012442951 -2.3628301e-06 -1.8910506e-20)
(-0.00011627257 -2.4776022e-06 1.05518e-20)
(-0.0001081182 -2.5809844e-06 1.367484e-20)
(-9.9971627e-05 -2.6730273e-06 3.149898e-21)
(-9.1837889e-05 -2.7534554e-06 6.0344732e-21)
(-8.3722167e-05 -2.8214472e-06 3.4896177e-21)
(-7.5629881e-05 -2.8753603e-06 2.8325391e-20)
(-6.7566884e-05 -2.9125783e-06 2.7488652e-20)
(-5.9539403e-05 -2.9293017e-06 5.9988997e-21)
(-5.1553435e-05 -2.9214844e-06 -9.3921948e-21)
(-4.3613097e-05 -2.8881315e-06 -3.4367877e-22)
(-3.5716938e-05 -2.8404162e-06 1.5127343e-20)
(-2.7850828e-05 -2.822508e-06 9.8341953e-21)
(-1.9975542e-05 -2.9535359e-06 1.4846237e-20)
(-1.2041968e-05 -3.4725531e-06 2.3701707e-20)
(-4.0146544e-06 -4.6028641e-06 2.8211924e-20)
(6.5970307e-05 -0.00062641195 3.4099651e-19)
(0.00014803273 -0.00061978568 2.0255288e-20)
(0.0002413209 -0.00061229547 -1.602738e-19)
(0.00033088623 -0.00060381577 -4.9284055e-20)
(0.00042140446 -0.0005954747 -1.7165472e-19)
(0.00051022214 -0.00058745889 -9.2402699e-20)
(0.00059723775 -0.00057950086 -5.5804698e-20)
(0.00068233409 -0.00057134136 1.5871758e-20)
(0.00076533334 -0.00056277561 2.5061723e-20)
(0.00084604047 -0.00055366348 4.3988339e-20)
(0.0009242588 -0.00054392127 8.6164677e-20)
(0.00099978926 -0.00053350609 5.2097087e-20)
(0.0010724333 -0.00052240535 1.2375183e-19)
(0.0011419986 -0.00051062561 1.0678904e-19)
(0.0012083031 -0.00049818738 4.2480163e-20)
(0.0012711761 -0.00048511799 9.8601936e-20)
(0.0013304594 -0.00047145198 3.8510261e-20)
(0.0013860079 -0.00045722811 6.3755551e-20)
(0.0014376916 -0.00044248864 8.7981865e-20)
(0.0014853942 -0.00042727723 6.5952543e-21)
(0.0015290164 -0.00041164104 5.3498301e-20)
(0.0015684755 -0.00039562666 6.2819857e-20)
(0.0016037031 -0.00037928234 -7.8125174e-20)
(0.0016346467 -0.00036265674 -7.0950434e-20)
(0.0016612713 -0.000345801 1.1372375e-19)
(0.0016835571 -0.00032876485 6.2809571e-20)
(0.0017015 -0.00031159516 -1.677668e-19)
(0.0017151079 -0.00029434117 -8.5174625e-20)
(0.0017244108 -0.00027705641 9.3175785e-20)
(0.0017294494 -0.00025978262 6.9551098e-20)
(0.0017302797 -0.00024257255 -1.5583538e-19)
(0.0017269674 -0.00022545997 -2.2948606e-19)
(0.001719598 -0.00020849896 6.9979789e-20)
(0.0017082739 -0.00019172426 2.1563476e-19)
(0.0016930957 -0.00017518348 -7.0515266e-20)
(0.0016741885 -0.00015890974 -3.5365898e-19)
(0.0016516786 -0.00014294132 -6.1223493e-20)
(0.0016256981 -0.00012732077 1.5967126e-19)
(0.0015964018 -0.00011207618 -2.3913504e-19)
(0.00156395 -9.7237099e-05 -2.3654343e-19)
(0.0015285027 -8.2831893e-05 -3.2831022e-22)
(0.0014902349 -6.8891144e-05 8.8577659e-20)
(0.0014493128 -5.5436362e-05 1.8981358e-19)
(0.001405925 -4.2485584e-05 2.1788003e-19)
(0.0013602628 -3.0045145e-05 8.5927747e-20)
(0.0013125236 -1.8152305e-05 -1.9175549e-19)
(0.0012628515 -6.8336388e-06 -1.1331253e-19)
(0.0012113897 3.895824e-06 1.2336233e-19)
(0.0011583692 1.4010839e-05 2.8329485e-19)
(0.0011040596 2.3489171e-05 4.0972036e-19)
(0.0010486521 3.2396572e-05 -2.9464378e-20)
(0.00099227361 4.076158e-05 -4.742975e-19)
(0.00093511752 4.8585666e-05 -6.1507356e-20)
(0.00087735057 5.5844737e-05 2.5947977e-19)
(0.00081914602 6.2543936e-05 -4.8403054e-20)
(0.00076069312 6.8680398e-05 -2.6168412e-19)
(0.00070214528 7.4296528e-05 -2.0087406e-19)
(0.00064367146 7.9331795e-05 -2.7518176e-20)
(0.00058543451 8.3847937e-05 2.9265387e-21)
(0.00052756561 8.7865945e-05 -1.218731e-19)
(0.0004702338 9.1361791e-05 2.2352586e-20)
(0.00041353302 9.4390406e-05 1.6738755e-19)
(0.00035760121 9.6934874e-05 -2.4924737e-20)
(0.00030259309 9.9032389e-05 -1.099049e-19)
(0.0002485741 0.00010070097 6.8600448e-21)
(0.00019566845 0.0001019586 1.5653246e-19)
(0.00014397699 0.00010282609 -1.072604e-19)
(9.3574331e-05 0.00010332281 -3.3099281e-19)
(4.4581787e-05 0.00010346918 -1.5286247e-19)
(-3.0098936e-06 0.00010328283 -1.1669995e-19)
(-4.9123758e-05 0.00010279083 5.7773138e-20)
(-9.3628125e-05 0.00010201309 7.5581891e-20)
(-0.00013652721 0.00010096806 -9.7822046e-20)
(-0.00017777678 9.9676976e-05 -9.5675432e-20)
(-0.00021734186 9.8162457e-05 1.5323327e-19)
(-0.00025519306 9.6443381e-05 4.1138763e-19)
(-0.00029131542 9.45254e-05 -1.8127885e-19)
(-0.00032569426 9.2454592e-05 -5.202194e-19)
(-0.00035831828 9.0231286e-05 6.5558674e-20)
(-0.000389188 8.7878047e-05 1.107823e-19)
(-0.00041830544 8.5410909e-05 -2.7091479e-19)
(-0.00044568209 8.2842335e-05 -2.5824528e-19)
(-0.00047133086 8.0197193e-05 -1.7408597e-20)
(-0.00049526731 7.7484657e-05 1.6138968e-19)
(-0.00051751439 7.4718714e-05 5.8540483e-20)
(-0.00053809822 7.1912972e-05 -1.2119929e-19)
(-0.00055704799 6.9080063e-05 -2.601227e-19)
(-0.00057439572 6.6231553e-05 -1.1882218e-19)
(-0.00059017714 6.3377542e-05 3.5291184e-19)
(-0.00060442964 6.0529491e-05 3.5119362e-19)
(-0.00061719217 5.7695753e-05 -1.1870683e-19)
(-0.00062850645 5.4884733e-05 -3.7228137e-19)
(-0.0006384157 5.2104056e-05 -1.8608244e-19)
(-0.00064696423 4.9360964e-05 1.7101967e-19)
(-0.00065419723 4.666147e-05 2.2849854e-19)
(-0.00066016102 4.4011046e-05 4.7342137e-20)
(-0.00066490235 4.141471e-05 -1.8926344e-19)
(-0.00066846827 3.8876659e-05 -1.5919522e-19)
(-0.00067090606 3.6400568e-05 -1.7015141e-20)
(-0.00067226293 3.3989603e-05 -5.6961105e-21)
(-0.00067258587 3.1646361e-05 1.7671565e-19)
(-0.00067192154 2.9372926e-05 1.0504885e-19)
(-0.0006703161 2.7170972e-05 -1.3444263e-19)
(-0.00066781507 2.5041703e-05 3.2668237e-20)
(-0.00066446326 2.2985914e-05 2.4849599e-19)
(-0.00066030459 2.1003918e-05 1.1927839e-19)
(-0.00065538208 1.9095738e-05 -7.3369692e-20)
(-0.00064973765 1.7260972e-05 -1.0277118e-19)
(-0.00064341202 1.5498955e-05 -5.6863774e-20)
(-0.00063644483 1.3808971e-05 -1.0265546e-19)
(-0.00062887406 1.2189275e-05 -3.4843609e-20)
(-0.00062073714 1.0640122e-05 7.160605e-20)
(-0.00061206977 9.158304e-06 4.8463203e-20)
(-0.00060290584 7.7443199e-06 1.1011833e-19)
(-0.00059327918 6.3981737e-06 3.4335745e-20)
(-0.00058322242 5.1172481e-06 -1.4329284e-19)
(-0.00057276501 3.8990759e-06 -1.8143349e-19)
(-0.00056194005 2.739268e-06 -7.2680317e-20)
(-0.00055077629 1.640038e-06 5.1295304e-20)
(-0.00053929686 5.9835652e-07 1.1233427e-19)
(-0.00052752832 -3.8833238e-07 5.295137e-20)
(-0.00051549552 -1.3224516e-06 -5.7304712e-20)
(-0.00050322247 -2.2066453e-06 -2.1474562e-20)
(-0.00049073667 -3.0444331e-06 7.003884e-20)
(-0.00047805159 -3.8440283e-06 8.3980324e-20)
(-0.00046518088 -4.5981631e-06 2.1138114e-20)
(-0.00045215021 -5.3071737e-06 -3.6915131e-20)
(-0.00043897813 -5.9731037e-06 -1.0053625e-20)
(-0.00042568107 -6.5981282e-06 6.4764755e-21)
(-0.00041227446 -7.1843167e-06 4.7355761e-20)
(-0.00039877286 -7.7336185e-06 5.1261269e-20)
(-0.00038518995 -8.247882e-06 -7.636303e-22)
(-0.00037153859 -8.7288676e-06 3.2887394e-20)
(-0.0003578308 -9.1782784e-06 6.2740104e-20)
(-0.00034407784 -9.5977135e-06 1.2212966e-20)
(-0.00033029022 -9.9887315e-06 -5.1670226e-20)
(-0.00031647773 -1.0352804e-05 -4.0892316e-20)
(-0.00030264948 -1.0691348e-05 -2.0085331e-20)
(-0.00028881397 -1.1005734e-05 -1.1307395e-20)
(-0.00027497908 -1.1297225e-05 -8.8638649e-22)
(-0.00026115217 -1.1567059e-05 8.9131861e-21)
(-0.00024734018 -1.1816347e-05 -5.1896272e-21)
(-0.00023354963 -1.2046039e-05 -8.1977419e-22)
(-0.00021978627 -1.2256351e-05 6.8157507e-21)
(-0.00020605475 -1.2447588e-05 1.4560363e-20)
(-0.00019235997 -1.2622061e-05 2.5882235e-20)
(-0.00017870723 -1.2779969e-05 -9.772344e-21)
(-0.00016510124 -1.2921233e-05 -6.7896079e-21)
(-0.00015154632 -1.3045454e-05 2.8130768e-20)
(-0.00013804658 -1.3151698e-05 3.9280736e-20)
(-0.00012460591 -1.3238282e-05 2.5027669e-20)
(-0.00011122781 -1.3302695e-05 7.7433056e-21)
(-9.791504e-05 -1.334188e-05 8.5332426e-21)
(-8.4668591e-05 -1.335386e-05 -8.5839033e-21)
(-7.1486226e-05 -1.334211e-05 6.901038e-21)
(-5.8360779e-05 -1.3325461e-05 2.2488919e-20)
(-4.5278824e-05 -1.3357374e-05 1.1923409e-20)
(-3.2220551e-05 -1.3556766e-05 1.9516359e-20)
(-1.9182428e-05 -1.4130195e-05 2.8025224e-20)
(-6.3120016e-06 -1.5224958e-05 3.6890541e-20)
(5.7369422e-05 -0.00080372214 3.5953489e-19)
(0.00012966981 -0.00079655141 -5.2699231e-20)
(0.00021285102 -0.00078808728 -2.3331927e-19)
(0.00029324732 -0.00077815777 -3.2802426e-19)
(0.00037492174 -0.00076797708 -2.2712076e-19)
(0.00045518386 -0.00075775869 -7.2961538e-20)
(0.00053379808 -0.00074727654 2.9567771e-20)
(0.00061053411 -0.00073630244 4.6415422e-20)
(0.00068515905 -0.00072464578 7.1907596e-20)
(0.00075745414 -0.00071217366 1.0438514e-19)
(0.00082721645 -0.00069880614 1.8093209e-19)