/*--------------------------------*- C++ -*----------------------------------*\
| =========                 |                                                 |
| \\      /  F ield         | OpenFOAM: The Open Source CFD Toolbox           |
|  \\    /   O peration     | Version:  2106                                  |
|   \\  /    A nd           | Website:  www.openfoam.com                      |
|    \\/     M anipulation  |                                                 |
\*---------------------------------------------------------------------------*/
FoamFile
{
    version     2.0;
    format      ascii;
    arch        "LSB;label=32;scalar=64";
    class       surfaceScalarField;
    location    "0.037";
    object      phi;
}
// * * * * * * * * * * * * * * * * * * * * * * * * * * * * * * * * * * * * * //

dimensions      [0 3 -1 0 0 0 0];

oriented        oriented;

internalField   nonuniform List<scalar> 
480
(
-0.00082072225
0.00082004302
-0.0015153467
0.0006946244
-0.0019783174
0.00046297079
-0.0021395794
0.00016126194
-0.0019753815
-0.00016419784
-0.0015110302
-0.00046435133
-0.00081709676
-0.00069393345
6.1802132e-07
-0.00081771479
0.00081826781
-0.00081764979
0.0015118628
-0.000693595
0.0019758317
-0.00046396893
0.0021396074
-0.00016377563
0.00197791
0.00016169736
0.0015145093
0.0004634007
0.00081955944
0.00069494987
0.00082023867
-0.00083713907
0.0016564
-0.0015452762
0.0014027616
-0.0020166556
0.00093435018
-0.0021802401
0.00032484646
-0.0020125182
-0.00033191975
-0.0015392744
-0.00093759521
-0.00083223301
-0.0014009748
6.9328307e-07
-0.0016506411
0.00083354537
-0.0016505019
0.0015401959
-0.0014002456
0.0020130146
-0.00093678754
0.0021802919
-0.00033105293
0.0020162175
0.00032577167
0.0015443568
0.00093526147
0.00083582294
0.0014034837
0.0016568437
-0.001021272
0.0026765755
-0.0018849752
0.0022664648
-0.0024596492
0.0015090242
-0.0026589084
0.00052410567
-0.0024546784
-0.00053614974
-0.0018777273
-0.0015145463
-0.0010151591
-0.002263543
9.3562772e-07
-0.0026667358
0.0010169241
-0.0026664903
0.0018788883
-0.0022622098
0.0024552237
-0.0015131229
0.0026589851
-0.00053481427
0.0024591588
0.00052559794
0.0018838722
0.001510548
0.0010195148
0.0022678412
0.0026774549
-0.001137086
0.0038120735
-0.0020962725
0.0032256513
-0.0027307978
0.0021435495
-0.0029478241
0.00074113204
-0.0027202558
-0.00076371804
-0.0020810129
-0.0021537893
-0.0011247783
-0.0032197777
1.272638e-06
-0.0037927867
0.0011271594
-0.0037923771
0.0020825214
-0.0032175718
0.0027209729
-0.0021515745
0.0029480311
-0.00076187242
0.002730226
0.00074340303
0.0020948583
0.0021459157
0.0011346368
0.0032280627
0.0038136797
-0.0019488636
0.0057581079
-0.0035914294
0.0048682171
-0.0046771192
0.0032292393
-0.0050489918
0.0011130046
-0.0046620605
-0.0011506493
-0.0035690036
-0.0032468461
-0.0019297627
-0.0048590186
2.1236398e-06
-0.0057246731
0.0019337626
-0.0057240161
0.0035711857
-0.0048549948
0.0046626202
-0.003243009
0.0050492421
-0.0011484943
0.0046766544
0.0011159907
0.0035897147
0.0032328554
0.0019448863
0.0048728911
0.0057613953
-0.0031370949
0.0088905951
-0.0057737816
0.0075049038
-0.0075057629
0.0049612206
-0.0080921962
0.0016994379
-0.0074721985
-0.0017706471
-0.0057236249
-0.0049954197
-0.0030955822
-0.0074870613
3.2058044e-06
-0.008823461
0.0031014706
-0.0088222809
0.0057264789
-0.0074800032
0.0074727538
-0.0049892838
0.0080928843
-0.0017686248
0.0075056325
0.0017032424
0.0057716864
0.0049668015
0.0031309369
0.0075136407
0.0088969398
-0.00652784
0.01540978
-0.012027842
0.013004905
-0.015670872
0.0086042506
-0.016935638
0.0029642043
-0.015662882
-0.0030434034
-0.012010303
-0.0086479986
-0.0065037168
-0.012993647
5.6611429e-06
-0.015332839
0.0065150162
-0.015331636
0.012014737
-0.012979724
0.015659912
-0.0086344593
0.016934956
-0.0030436686
0.01567273
0.0029654687
0.012027336
0.0086121955
0.0065178389
0.013023137
0.015423434
-0.0062231143
0.021626224
-0.011495394
0.018277185
-0.015035304
0.012144161
-0.016318142
0.0042470415
-0.015147228
-0.0042143167
-0.011650011
-0.012145215
-0.0063243502
-0.018319308
4.6297365e-06
-0.021661819
0.0063346992
-0.021661705
0.011654744
-0.018299768
0.015143876
-0.012123592
0.016316155
-0.0042159474
0.015035975
0.0042456484
0.011494898
0.012153273
0.006215556
0.018302479
0.02164566
0.0062743605
0.015358702
0.011546194
0.013005351
0.015016894
0.0086734612
0.016190544
0.0030733923
0.014929788
-0.0029535608
0.011418621
-0.0086340493
0.006175474
-0.013076161
-4.4794053e-06
-0.015481866
-0.0061855308
-0.015480654
-0.011423239
-0.01306206
-0.014926497
-0.0086203344
-0.016188644
-0.0029538001
-0.015017639
0.0030746438
-0.01154571
0.0086813434
-0.0062666117
0.013023381
0.01537221
0.0065393756
0.0088279722
0.012059173
0.0074855536
0.015730517
0.0050021175
0.017023311
0.0017805984
0.01576526
-0.0016955105
0.012102993
-0.0049717814
0.0065593962
-0.0075325647
-5.6441339e-06
-0.0089168252
-0.0065706777
-0.0089156204
-0.012107388
-0.0075253491
-0.015762197
-0.0049655253
-0.017022521
-0.0016934762
-0.015732263
0.0017843857
-0.012058576
0.0050076559
-0.0065293462
0.0074941516
0.0088342179
0.002937106
0.0058953378
0.0054212359
0.0050014236
0.0070769799
0.0033463735
0.0076680119
0.0011895664
0.0071171586
-0.0011446572
0.0054762374
-0.0033308603
0.0029708048
-0.0050271321
-3.1186901e-06
-0.0059429017
-0.0029765154
-0.0059422237
-0.0054788832
-0.0050229813
-0.0071175071
-0.0033269014
-0.0076685892
-0.0011423941
-0.0070768369
0.0011926334
-0.0054192301
0.0033500491
-0.0029311505
0.005006072
0.0058985959
0.0020860193
0.0038121569
0.0038515384
0.0032359046
0.0050302174
0.0021676945
0.0054482146
0.00077156931
0.005046667
-0.00074310966
0.003873546
-0.0021577393
0.0020982026
-0.0032517887
-2.1546236e-06
-0.0038425445
-0.0021022575
-0.0038421209
-0.0038757436
-0.0032494951
-0.0050471888
-0.0021554562
-0.0054483946
-0.00074118825
-0.0050296601
0.00077389887
-0.0038497323
0.0021701213
-0.0020819885
0.0032383282
0.003813769
0.00068097545
0.0031325132
0.0012578147
0.0026590653
0.0016438018
0.0017817073
0.0017823686
0.00063300254
0.001653763
-0.00061450403
0.0012712603
-0.0017752366
0.00068886095
-0.0026693893
-1.0166388e-06
-0.0031526669
-0.00069075005
-0.0031523875
-0.001272377
-0.0026678681
-0.0016542472
-0.0017735861
-0.0017825576
-0.0006128779
-0.0016434065
0.00063474779
-0.0012567522
0.001783467
-0.00067898397
0.0026605599
0.0031334533
0.0013154482
0.0018182772
0.0024303139
0.0015441996
0.0031761478
0.0010358734
0.0034397628
0.00036938752
0.0031809675
-0.00035570873
0.0024366005
-0.0010308696
0.0013185785
-0.0015513673
-1.0591393e-06
-0.0018330293
-0.0013205787
-0.0018328679
-0.0024379272
-0.0015505196
-0.00318159
-0.0010299233
-0.0034398054
-0.00035466248
-0.0031755384
0.00037048074
-0.0024290161
0.0010369448
-0.0013134703
0.0015450141
0.0018187707
-0.00035542867
0.0021739215
-0.00065563238
0.0018444034
-0.00085432048
0.0012345615
-0.00092144629
0.00043651334
-0.00084822475
-0.00042893027
-0.00064714788
-0.0012319464
-0.00034975292
-0.0018487623
-1.2405662e-07
-0.0021826581
0.00034951942
-0.0021825114
0.00064701452
-0.0018480147
0.00084815236
-0.0012310611
0.00092136933
-0.00042787946
0.00085433981
0.00043751026
0.0006557575
0.0012355271
0.00035573101
0.0018450406
0.0021742861
0.0021604292
0.0039921428
0.0052182291
0.00565177
0.0052258133
0.0040023444
0.002166276
-1.4056443e-06
-0.0021689411
-0.0040042651
-0.0052268527
-0.0056517636
-0.0052172301
-0.003990182
-0.0021578332
)
;

boundaryField
{
    leftWall
    {
        type            cyclic;
        value           nonuniform List<scalar> 
16
(
6.7923119e-07
7.8211754e-07
1.0964316e-06
1.5879904e-06
2.8292678e-06
4.6076482e-06
8.6554369e-06
6.6702296e-06
-6.8388794e-06
-8.6457318e-06
-4.4715093e-06
-2.8383846e-06
-1.3317717e-06
-1.2122327e-06
-2.1564659e-07
-1.4797133e-06
)
;
    }
    rightWall
    {
        type            cyclic;
        value           nonuniform List<scalar> 
16
(
-6.7923119e-07
-7.8211754e-07
-1.0964316e-06
-1.5879904e-06
-2.8292678e-06
-4.6076482e-06
-8.6554369e-06
-6.6702296e-06
6.8388794e-06
8.6457318e-06
4.4715093e-06
2.8383846e-06
1.3317717e-06
1.2122327e-06
2.1564659e-07
1.4797133e-06
)
;
    }
    lowerWall
    {
        type            calculated;
        value           uniform 0;
    }
    atmosphere
    {
        type            calculated;
        value           nonuniform List<scalar> 
16
(
1.4972102e-05
1.2689752e-05
8.4751829e-06
2.9724156e-06
-2.9735843e-06
-8.4775602e-06
-1.2693849e-05
-1.4976504e-05
-1.4975882e-05
-1.2690712e-05
-8.473523e-06
-2.9686007e-06
2.9767676e-06
8.479028e-06
1.26918e-05
1.4973168e-05
)
;
    }
    defaultFaces
    {
        type            empty;
        value           nonuniform List<scalar> 0();
    }
}


// ************************************************************************* //
