/*--------------------------------*- C++ -*----------------------------------*\
| =========                 |                                                 |
| \\      /  F ield         | OpenFOAM: The Open Source CFD Toolbox           |
|  \\    /   O peration     | Version:  2306                                  |
|   \\  /    A nd           | Website:  www.openfoam.com                      |
|    \\/     M anipulation  |                                                 |
\*---------------------------------------------------------------------------*/
FoamFile
{
    version     2.0;
    format      ascii;
    arch        "LSB;label=32;scalar=64";
    class       volVectorField;
    location    "0.25";
    object      U_0;
}
// * * * * * * * * * * * * * * * * * * * * * * * * * * * * * * * * * * * * * //

dimensions      [0 1 -1 0 0 0 0];

internalField   nonuniform List<vector> 
6400
(
(-0.00094813702 8.9834197e-08 -7.2016886e-19)
(-0.00093594717 -2.1332571e-08 2.8548444e-19)
(-0.00092355712 -1.3460312e-07 5.4956638e-19)
(-0.00091097042 -2.4265528e-07 5.1723057e-21)
(-0.00089820067 -3.4397685e-07 1.6359581e-19)
(-0.00088526381 -4.3862834e-07 -2.2922239e-19)
(-0.00087217584 -5.2715555e-07 9.595768e-21)
(-0.00085895233 -6.1012279e-07 -3.2873587e-21)
(-0.00084560829 -6.8799833e-07 -3.9059333e-19)
(-0.00083215812 -7.6116183e-07 1.3447086e-19)
(-0.00081861564 -8.2991583e-07 -2.6364718e-19)
(-0.00080499408 -8.9452223e-07 -1.7606089e-19)
(-0.00079130609 -9.5519629e-07 4.1062196e-19)
(-0.00077756378 -1.0121373e-06 2.1442994e-19)
(-0.00076377866 -1.0655262e-06 -6.1764657e-20)
(-0.00074996171 -1.115529e-06 -4.0806242e-19)
(-0.00073612338 -1.162295e-06 3.1896255e-20)
(-0.00072227357 -1.2059796e-06 3.1411731e-19)
(-0.00070842166 -1.2467124e-06 2.0450802e-19)
(-0.00069457651 -1.284637e-06 -9.0491841e-20)
(-0.00068074651 -1.3198837e-06 -4.6426638e-19)
(-0.00066693954 -1.352576e-06 1.1484378e-19)
(-0.000653163 -1.3828411e-06 2.0599741e-19)
(-0.00063942383 -1.4108089e-06 1.2738858e-19)
(-0.00062572854 -1.436589e-06 -2.081891e-20)
(-0.00061208318 -1.4602954e-06 -4.6471234e-19)
(-0.00059849339 -1.4820425e-06 1.0692478e-19)
(-0.00058496439 -1.5019257e-06 2.9957479e-19)
(-0.00057150103 -1.5200532e-06 5.246086e-20)
(-0.00055810774 -1.5365161e-06 2.7844837e-20)
(-0.00054478863 -1.5514127e-06 -3.3316877e-19)
(-0.00053154743 -1.5648256e-06 -1.2713919e-19)
(-0.00051838754 -1.5768434e-06 2.0921691e-19)
(-0.00050531204 -1.5875454e-06 5.8481163e-20)
(-0.00049232371 -1.5970175e-06 3.8574335e-20)
(-0.000479425 -1.6053281e-06 -6.235463e-20)
(-0.00046661811 -1.6125498e-06 1.0527443e-20)
(-0.00045390497 -1.6187589e-06 8.9865302e-20)
(-0.00044128723 -1.6240104e-06 -7.7365524e-21)
(-0.00042876632 -1.6283767e-06 2.75982e-20)
(-0.00041634343 -1.6319177e-06 -8.2622286e-20)
(-0.00040401952 -1.6346885e-06 -2.2605716e-20)
(-0.00039179535 -1.6367438e-06 8.4813339e-20)
(-0.0003796715 -1.6381332e-06 5.7291676e-20)
(-0.00036764833 -1.6389145e-06 -8.9103208e-21)
(-0.00035572604 -1.6391323e-06 -1.721159e-19)
(-0.00034390469 -1.6388257e-06 -4.0296232e-20)
(-0.00033218414 -1.638044e-06 1.2273335e-19)
(-0.00032056412 -1.6368322e-06 5.6510994e-20)
(-0.00030904425 -1.6352173e-06 -3.7497048e-20)
(-0.000297624 -1.6332388e-06 -8.0476571e-20)
(-0.0002863027 -1.6309377e-06 1.1212424e-20)
(-0.00027507961 -1.6283453e-06 3.9507575e-20)
(-0.00026395387 -1.6254844e-06 -2.8330702e-20)
(-0.00025292451 -1.6223915e-06 -6.9392043e-20)
(-0.0002419905 -1.6190912e-06 -7.7659839e-21)
(-0.0002311507 -1.6156085e-06 7.6784945e-20)
(-0.00022040394 -1.611969e-06 3.0028426e-20)
(-0.00020974893 -1.608193e-06 2.2597119e-21)
(-0.00019918435 -1.6043011e-06 -5.7521829e-21)
(-0.00018870882 -1.6003108e-06 -3.0849533e-20)
(-0.00017832093 -1.5962444e-06 2.6322047e-20)
(-0.00016801919 -1.5921141e-06 1.4421686e-20)
(-0.00015780212 -1.5879345e-06 -6.5602112e-21)
(-0.00014766818 -1.5837161e-06 1.5987343e-20)
(-0.00013761583 -1.5794753e-06 -5.0947528e-20)
(-0.00012764353 -1.5752081e-06 -2.0575922e-20)
(-0.00011774971 -1.5709196e-06 5.2718082e-20)
(-0.0001079329 -1.5665901e-06 2.5259254e-20)
(-9.8191662e-05 -1.5621844e-06 -1.5748164e-20)
(-8.8524777e-05 -1.5575961e-06 -3.6998419e-20)
(-7.8931393e-05 -1.5525734e-06 -8.9467426e-21)
(-6.9411492e-05 -1.5465093e-06 2.563282e-20)
(-5.9966867e-05 -1.5379712e-06 8.707461e-21)
(-5.0603138e-05 -1.5237395e-06 -6.4542579e-21)
(-4.1333398e-05 -1.4975335e-06 -1.015991e-20)
(-3.2183225e-05 -1.4514755e-06 -3.4295884e-21)
(-2.3188862e-05 -1.3981015e-06 4.3668061e-21)
(-1.4297352e-05 -1.5198763e-06 7.7168919e-22)
(-4.9202697e-06 -2.4531145e-06 -4.395909e-21)
(-0.0021471617 -8.961285e-07 1.4800679e-20)
(-0.0021184271 -1.8907e-06 2.031986e-19)
(-0.0020892464 -2.8408076e-06 2.8338858e-19)
(-0.0020596734 -3.7449222e-06 -5.0810749e-19)
(-0.0020297499 -4.6042509e-06 -6.5869577e-20)
(-0.001999513 -5.4206352e-06 5.0770875e-19)
(-0.0019689975 -6.1959412e-06 -4.0764635e-19)
(-0.0019382366 -6.9318819e-06 1.5383e-19)
(-0.001907262 -7.6300085e-06 2.5007767e-19)
(-0.0018761043 -8.29177e-06 -4.2781267e-19)
(-0.0018447926 -8.9185124e-06 -3.2453338e-19)
(-0.0018133549 -9.5115477e-06 -2.0971483e-19)
(-0.0017818178 -1.0072126e-05 3.930504e-19)
(-0.0017502067 -1.0601472e-05 1.9045248e-19)
(-0.0017185457 -1.1100784e-05 -1.5071044e-19)
(-0.0016868577 -1.1571232e-05 -4.3174038e-20)
(-0.0016551646 -1.201396e-05 5.8806587e-20)
(-0.0016234868 -1.2430098e-05 3.292804e-19)
(-0.0015918437 -1.2820738e-05 -1.1961059e-19)
(-0.0015602536 -1.3186967e-05 -4.7304394e-19)
(-0.0015287338 -1.3529839e-05 -7.3476336e-20)
(-0.0014973003 -1.3850382e-05 3.4334501e-19)
(-0.0014659683 -1.41496e-05 3.2329077e-19)
(-0.0014347518 -1.4428479e-05 -3.4330732e-20)
(-0.001403664 -1.4687962e-05 -3.3749619e-19)
(-0.0013727169 -1.4928972e-05 -2.8269687e-19)
(-0.001341922 -1.5152427e-05 1.8765782e-19)
(-0.0013112896 -1.5359185e-05 5.1613943e-19)
(-0.0012808292 -1.5550115e-05 4.7133105e-20)
(-0.0012505496 -1.5726034e-05 -3.8963126e-19)
(-0.0012204588 -1.588774e-05 -1.5399229e-19)
(-0.0011905639 -1.6036003e-05 -7.1411436e-20)
(-0.0011608715 -1.6171577e-05 3.1361928e-19)
(-0.0011313875 -1.629517e-05 3.8652725e-19)
(-0.001102117 -1.6407493e-05 -2.3153223e-19)
(-0.0010730645 -1.6509212e-05 -3.51089e-19)
(-0.001044234 -1.6600959e-05 -6.1842854e-20)
(-0.0010156289 -1.668337e-05 3.2703355e-19)
(-0.00098725216 -1.6757027e-05 1.2141079e-19)
(-0.000959106 -1.6822513e-05 -3.8731643e-19)
(-0.00093119234 -1.6880366e-05 -1.2088933e-19)
(-0.00090351259 -1.6931117e-05 3.3095665e-19)
(-0.00087606772 -1.6975271e-05 2.7456924e-19)
(-0.00084885832 -1.701329e-05 -1.5387046e-19)
(-0.00082188456 -1.7045652e-05 -4.1165949e-19)
(-0.00079514629 -1.7072791e-05 -4.5396416e-20)
(-0.00076864298 -1.7095116e-05 2.8155451e-19)
(-0.0007423738 -1.7113031e-05 1.6121657e-19)
(-0.00071633763 -1.7126921e-05 -5.5387112e-20)
(-0.00069053305 -1.7137132e-05 -2.042725e-19)
(-0.0006649584 -1.7144006e-05 -7.4527214e-20)
(-0.00063961176 -1.714788e-05 2.2267252e-19)
(-0.000614491 -1.7149052e-05 2.0086531e-19)
(-0.00058959378 -1.7147813e-05 -8.5754902e-20)
(-0.00056491756 -1.7144439e-05 -2.7613677e-19)
(-0.00054045964 -1.713919e-05 -4.0442345e-20)
(-0.00051621714 -1.71323e-05 1.9621505e-19)
(-0.00049218706 -1.712401e-05 8.383348e-20)
(-0.00046836623 -1.7114529e-05 -2.857402e-20)
(-0.0004447514 -1.7104058e-05 -5.9521205e-20)
(-0.00042133919 -1.7092785e-05 -1.9778508e-20)
(-0.00039812614 -1.7080882e-05 2.3619296e-20)
(-0.0003751087 -1.7068504e-05 4.1446646e-20)
(-0.00035228326 -1.7055796e-05 -2.6100583e-20)
(-0.00032964616 -1.7042883e-05 -7.772898e-20)
(-0.00030719372 -1.7029873e-05 -1.5708984e-20)
(-0.00028492222 -1.7016843e-05 5.8606733e-20)
(-0.00026282796 -1.7003833e-05 7.0988541e-20)
(-0.00024090729 -1.6990808e-05 -2.2109701e-20)
(-0.00021915666 -1.6977635e-05 -7.8928822e-20)
(-0.00019757272 -1.6963935e-05 -8.0268663e-21)
(-0.00017615243 -1.6948868e-05 4.5408909e-20)
(-0.00015489329 -1.6930635e-05 2.9486659e-20)
(-0.00013379359 -1.6905561e-05 -1.1947561e-20)
(-0.00011285252 -1.6866666e-05 -2.6008978e-20)
(-9.2068986e-05 -1.6803035e-05 -3.3610113e-21)
(-7.1435731e-05 -1.6707434e-05 1.1782677e-20)
(-5.09242e-05 -1.6612512e-05 6.8388216e-21)
(-3.0472372e-05 -1.6694298e-05 -1.8522362e-21)
(-1.0089699e-05 -1.7421422e-05 -3.1380901e-21)
(-0.0027924711 -3.4382849e-06 3.5252067e-19)
(-0.0027543816 -5.7513876e-06 -3.5275087e-19)
(-0.0027157775 -7.9572561e-06 -2.8563766e-19)
(-0.0026767104 -1.0061726e-05 -1.8501483e-19)
(-0.002637227 -1.2068462e-05 -1.2104876e-19)
(-0.0025973726 -1.3980404e-05 2.5457806e-19)
(-0.0025571909 -1.5800194e-05 -1.3409911e-19)
(-0.0025167238 -1.7530449e-05 1.0877068e-19)
(-0.0024760117 -1.9173792e-05 3.9527913e-19)
(-0.0024350932 -2.07329e-05 -1.6553092e-19)
(-0.0023940052 -2.2210456e-05 -2.1598627e-19)
(-0.002352783 -2.3609177e-05 -4.4579377e-20)
(-0.0023114601 -2.4931773e-05 9.1907953e-20)
(-0.0022700685 -2.6180951e-05 -7.9374401e-20)
(-0.0022286387 -2.7359412e-05 -5.1316352e-21)
(-0.0021871992 -2.8469823e-05 3.1192866e-19)
(-0.0021457775 -2.9514839e-05 -4.1580673e-20)
(-0.002104399 -3.0497078e-05 -1.5580795e-19)
(-0.0020630882 -3.141911e-05 -2.193308e-19)
(-0.0020218677 -3.2283473e-05 -1.0039004e-19)
(-0.001980759 -3.3092655e-05 2.7706067e-19)
(-0.0019397819 -3.3849087e-05 1.3430809e-19)
(-0.0018989553 -3.4555155e-05 4.8448568e-20)
(-0.0018582966 -3.5213165e-05 -1.7366928e-19)
(-0.0018178219 -3.5825391e-05 -1.1701623e-19)
(-0.0017775461 -3.6394024e-05 2.2144894e-19)
(-0.0017374832 -3.6921224e-05 4.7722854e-20)
(-0.0016976459 -3.7409072e-05 3.5159698e-20)
(-0.0016580457 -3.7859595e-05 -7.2794135e-20)
(-0.0016186933 -3.8274754e-05 -2.4025924e-19)
(-0.0015795984 -3.8656439e-05 7.2732058e-20)
(-0.0015407696 -3.9006498e-05 1.0482572e-19)
(-0.0015022148 -3.9326702e-05 7.2172317e-20)
(-0.0014639408 -3.9618762e-05 1.3967984e-19)
(-0.0014259539 -3.9884333e-05 -1.081345e-19)
(-0.0013882593 -4.0125016e-05 -1.9715474e-19)
(-0.0013508616 -4.0342321e-05 -7.711727e-20)
(-0.0013137648 -4.0537732e-05 1.1805496e-19)
(-0.0012769719 -4.071266e-05 7.1298883e-20)
(-0.0012404856 -4.0868467e-05 -1.0750213e-19)
(-0.0012043079 -4.1006442e-05 1.9962802e-20)
(-0.0011684401 -4.1127832e-05 1.1955168e-19)
(-0.001132883 -4.1233835e-05 5.1568069e-20)
(-0.0010976371 -4.1325574e-05 -1.1719414e-19)
(-0.0010627022 -4.1404154e-05 -1.5493163e-19)
(-0.0010280777 -4.1470608e-05 7.3348858e-20)
(-0.00099376263 -4.1525918e-05 1.3397625e-19)
(-0.00095975551 -4.1571038e-05 4.5903222e-20)
(-0.00092605462 -4.1606854e-05 -6.9566842e-20)
(-0.00089265782 -4.1634221e-05 -7.1617613e-20)
(-0.00085956267 -4.1653946e-05 4.0493422e-20)
(-0.00082676643 -4.1666806e-05 6.3615768e-20)
(-0.00079426609 -4.1673519e-05 5.6119135e-20)
(-0.00076205836 -4.1674782e-05 -4.0588437e-21)
(-0.00073013974 -4.1671237e-05 -6.6726622e-20)
(-0.00069850651 -4.1663509e-05 -3.1021516e-20)
(-0.00066715473 -4.1652163e-05 3.7668923e-20)
(-0.00063608031 -4.1637748e-05 3.4646186e-20)
(-0.00060527898 -4.1620776e-05 -2.1834714e-20)
(-0.00057474634 -4.1601727e-05 -2.3414751e-20)
(-0.00054447785 -4.1581047e-05 9.4930599e-21)
(-0.00051446887 -4.1559136e-05 -2.161038e-20)
(-0.00048471464 -4.153638e-05 8.9958453e-21)
(-0.00045521034 -4.1513124e-05 6.390481e-22)
(-0.0004259511 -4.1489677e-05 -2.7133587e-20)
(-0.00039693196 -4.1466295e-05 2.5431251e-20)
(-0.00036814798 -4.1443203e-05 1.3539178e-20)
(-0.00033959418 -4.1420535e-05 -9.8410434e-22)
(-0.00031126561 -4.1398318e-05 -7.288234e-21)
(-0.00028315738 -4.1376431e-05 -1.1393837e-20)
(-0.00025526464 -4.1354443e-05 2.7247143e-20)
(-0.00022758266 -4.1331445e-05 2.0531308e-20)
(-0.00020010671 -4.1305665e-05 1.0998027e-21)
(-0.00017283173 -4.1274035e-05 -2.2918983e-20)
(-0.0001457515 -4.123215e-05 -1.0338686e-20)
(-0.00011885666 -4.1176585e-05 2.0995381e-20)
(-9.2130235e-05 -4.1116645e-05 8.3837109e-21)
(-6.5538973e-05 -4.1109317e-05 2.5471227e-21)
(-3.90455e-05 -4.1329474e-05 5.699492e-21)
(-1.2872367e-05 -4.2058608e-05 1.4868936e-20)
(-0.0030981737 -6.8167755e-06 1.5132429e-20)
(-0.0030555031 -1.0631837e-05 -1.5448936e-19)
(-0.0030122838 -1.4278842e-05 -1.9046191e-20)
(-0.0029685701 -1.7761184e-05 5.1426857e-20)
(-0.0029244144 -2.1082601e-05 1.6676329e-21)
(-0.0028798675 -2.4246968e-05 -7.0697558e-21)
(-0.0028349775 -2.7258359e-05 -1.5310461e-19)
(-0.0027897908 -3.0120996e-05 -5.7035762e-20)
(-0.0027443517 -3.2839207e-05 1.2484021e-19)
(-0.0026987025 -3.5417415e-05 1.1824875e-19)
(-0.0026528839 -3.7860088e-05 -2.8924393e-20)
(-0.0026069342 -4.0171727e-05 -1.622925e-19)
(-0.0025608903 -4.2356858e-05 1.0529227e-20)
(-0.002514787 -4.4419981e-05 8.003342e-20)
(-0.0024686574 -4.6365602e-05 7.2169272e-20)
(-0.0024225329 -4.8198169e-05 7.2216553e-20)
(-0.002376443 -4.9922107e-05 -1.2809179e-19)
(-0.0023304158 -5.1541781e-05 -9.0904265e-20)
(-0.0022844774 -5.3061481e-05 -9.3664792e-21)
(-0.0022386526 -5.4485442e-05 1.0219779e-20)
(-0.0021929646 -5.5817816e-05 1.1731297e-19)
(-0.002147435 -5.7062663e-05 2.1161062e-20)
(-0.002102084 -5.8223972e-05 -1.7092492e-20)
(-0.0020569303 -5.9305614e-05 -1.5826864e-20)
(-0.0020119914 -6.0311393e-05 5.6083085e-20)
(-0.0019672834 -6.1244988e-05 8.8955093e-20)
(-0.001922821 -6.2109983e-05 -5.5902884e-20)
(-0.0018786181 -6.2909876e-05 -4.5377805e-20)
(-0.0018346869 -6.3648032e-05 -6.0935033e-20)
(-0.0017910389 -6.4327724e-05 -1.1253617e-19)
(-0.0017476843 -6.4952116e-05 3.9951017e-21)
(-0.0017046322 -6.5524275e-05 9.311852e-20)
(-0.0016618911 -6.6047146e-05 6.259345e-20)
(-0.001619468 -6.6523585e-05 1.9477014e-20)
(-0.0015773695 -6.6956335e-05 -4.646718e-20)
(-0.0015356012 -6.7348047e-05 -6.5512234e-20)
(-0.0014941676 -6.7701252e-05 -6.1993903e-20)
(-0.0014530729 -6.8018399e-05 1.6030723e-20)
(-0.0014123202 -6.830183e-05 4.1774976e-20)
(-0.0013719121 -6.8553802e-05 4.4245377e-20)
(-0.0013318505 -6.8776465e-05 2.8871277e-20)
(-0.0012921366 -6.8971875e-05 -3.8928834e-20)
(-0.0012527711 -6.914201e-05 -1.8988798e-20)
(-0.0012137541 -6.9288757e-05 2.5937486e-20)
(-0.0011750853 -6.9413919e-05 5.2750931e-20)
(-0.0011367637 -6.9519218e-05 3.3679686e-20)
(-0.001098788 -6.9606284e-05 -1.530385e-20)
(-0.0010611565 -6.9676682e-05 3.5136142e-21)
(-0.0010238669 -6.9731888e-05 -2.7276577e-20)
(-0.00098691683 -6.9773316e-05 6.0234082e-21)
(-0.00095030326 -6.9802303e-05 5.5625239e-20)
(-0.00091402302 -6.9820121e-05 1.6646353e-20)
(-0.00087807261 -6.9827972e-05 1.7249068e-20)
(-0.00084244823 -6.9826996e-05 -6.8551361e-21)
(-0.00080714587 -6.9818264e-05 -3.1267826e-20)
(-0.00077216123 -6.9802797e-05 -3.3590004e-20)
(-0.00073748985 -6.978155e-05 9.4350797e-21)
(-0.00070312706 -6.9755414e-05 8.6439056e-21)
(-0.00066906801 -6.972524e-05 -2.0527017e-20)
(-0.00063530769 -6.9691815e-05 -9.8813543e-21)
(-0.00060184099 -6.9655878e-05 1.5953535e-20)
(-0.00056866262 -6.9618106e-05 3.0820857e-21)
(-0.00053576725 -6.957913e-05 1.2834875e-20)
(-0.00050314942 -6.9539526e-05 2.6400588e-21)
(-0.00047080361 -6.9499816e-05 -5.9036944e-21)
(-0.00043872424 -6.9460448e-05 1.3381653e-20)
(-0.00040690571 -6.9421815e-05 -1.6914051e-20)
(-0.00037534236 -6.93842e-05 -2.5831207e-21)
(-0.00034402853 -6.9347771e-05 2.3624569e-20)
(-0.00031295851 -6.9312528e-05 2.5763472e-20)
(-0.00028212657 -6.9278199e-05 1.841888e-20)
(-0.00025152682 -6.9244135e-05 4.345287e-21)
(-0.00022115298 -6.920911e-05 6.7953343e-21)
(-0.00019099794 -6.9171249e-05 -2.3211495e-20)
(-0.00016105292 -6.9128579e-05 -5.0568896e-21)
(-0.00013130653 -6.9081696e-05 1.9705192e-20)
(-0.00010174325 -6.9042848e-05 5.0786341e-21)
(-7.2339037e-05 -6.9056586e-05 1.1943397e-20)
(-4.3077654e-05 -6.9232442e-05 1.4326714e-20)
(-1.4196633e-05 -6.969122e-05 2.2908106e-20)
(-0.0032298544 -1.1123707e-05 7.3141024e-20)
(-0.0031850729 -1.6565873e-05 -1.4311802e-21)
(-0.0031397368 -2.1760183e-05 -5.9733609e-20)
(-0.0030939009 -2.6713924e-05 7.5026692e-21)
(-0.0030476188 -3.1433932e-05 1.5838632e-20)
(-0.0030009427 -3.5926826e-05 1.5001707e-20)
(-0.0029539227 -4.0199153e-05 -4.3737891e-20)
(-0.0029066067 -4.4257465e-05 -5.3777161e-20)
(-0.0028590406 -4.8108355e-05 -6.0639545e-20)
(-0.0028112686 -5.1758448e-05 6.5208694e-20)
(-0.0027633323 -5.5214395e-05 1.0556517e-19)
(-0.0027152718 -5.8482837e-05 -1.0485382e-19)
(-0.002667125 -6.1570418e-05 -1.9969451e-20)
(-0.002618928 -6.448373e-05 6.3615535e-20)
(-0.0025707149 -6.7229323e-05 4.2087021e-20)
(-0.002522518 -6.9813682e-05 1.2511463e-20)
(-0.0024743679 -7.2243214e-05 -1.0202489e-19)
(-0.0024262933 -7.4524221e-05 -3.8566069e-20)
(-0.0023783214 -7.6662918e-05 -1.1568978e-21)
(-0.0023304773 -7.8665398e-05 -5.3129908e-21)
(-0.0022827851 -8.0537643e-05 7.0294148e-20)
(-0.0022352667 -8.2285485e-05 1.7892488e-20)
(-0.0021879431 -8.3914644e-05 3.4671765e-20)
(-0.0021408333 -8.5430695e-05 2.7632607e-20)
(-0.0020939552 -8.6839073e-05 4.5472587e-20)
(-0.0020473252 -8.8145056e-05 6.6818066e-20)
(-0.0020009585 -8.9353764e-05 -3.4612677e-20)
(-0.0019548689 -9.0470195e-05 -2.8325155e-20)
(-0.0019090691 -9.1499165e-05 -7.5212662e-20)
(-0.0018635707 -9.2445351e-05 -8.077556e-20)
(-0.001818384 -9.3313267e-05 1.5219281e-21)
(-0.0017735182 -9.4107287e-05 4.3045411e-20)
(-0.0017289818 -9.4831611e-05 4.1383338e-20)
(-0.0016847821 -9.5490307e-05 -9.5362743e-21)
(-0.0016409254 -9.6087283e-05 -3.5650409e-20)
(-0.0015974173 -9.6626305e-05 -1.5276741e-20)
(-0.0015542624 -9.7110987e-05 -4.668271e-20)
(-0.0015114647 -9.7544809e-05 -1.787478e-20)
(-0.0014690274 -9.7931097e-05 8.2013149e-21)
(-0.0014269528 -9.8273051e-05 1.3086794e-20)
(-0.0013852426 -9.8573735e-05 3.1922226e-20)
(-0.001343898 -9.8836075e-05 1.8744228e-20)
(-0.0013029195 -9.9062865e-05 2.4069232e-20)
(-0.0012623071 -9.9256792e-05 2.8853419e-20)
(-0.0012220601 -9.9420401e-05 1.2528814e-20)
(-0.0011821775 -9.9556142e-05 7.6206611e-21)
(-0.0011426576 -9.9666327e-05 -2.076762e-20)
(-0.0011034985 -9.9753163e-05 -1.9762634e-21)
(-0.0010646978 -9.9818751e-05 -3.9594749e-21)
(-0.0010262526 -9.986509e-05 8.4509492e-21)
(-0.00098815994 -9.9894075e-05 4.4740025e-20)
(-0.00095041618 -9.9907497e-05 3.6659458e-20)
(-0.00091301759 -9.9907061e-05 2.6284457e-20)
(-0.0008759601 -9.989438e-05 -1.9541697e-20)
(-0.0008392394 -9.9870968e-05 -3.5832816e-20)
(-0.00080285092 -9.9838257e-05 -3.6005005e-20)
(-0.0007667899 -9.9797604e-05 6.4893926e-21)
(-0.00073105137 -9.9750273e-05 1.0387206e-20)
(-0.00069563018 -9.9697456e-05 -3.4490248e-22)
(-0.00066052103 -9.9640262e-05 5.1282404e-21)
(-0.00062571849 -9.9579735e-05 1.5880208e-20)
(-0.00059121699 -9.9516844e-05 -1.7554013e-21)
(-0.00055701085 -9.9452466e-05 5.3941844e-21)
(-0.00052309433 -9.9387427e-05 1.1986651e-20)
(-0.00048946159 -9.9322472e-05 -6.2190876e-21)
(-0.00045610672 -9.9258256e-05 1.1688712e-20)
(-0.00042302377 -9.9195356e-05 -5.9431982e-22)
(-0.00039020673 -9.9134247e-05 -3.2135844e-21)
(-0.00035764954 -9.9075278e-05 6.9410138e-21)
(-0.00032534608 -9.9018662e-05 9.4401144e-21)
(-0.00029329009 -9.8964414e-05 6.3988809e-21)
(-0.0002614751 -9.8912339e-05 7.1550052e-21)
(-0.00022989415 -9.8862013e-05 1.6633914e-20)
(-0.00019853948 -9.8812979e-05 -9.2399902e-21)
(-0.00016740205 -9.8765462e-05 -3.4833118e-21)
(-0.00013647175 -9.8722519e-05 1.2799773e-20)
(-0.00010573783 -9.8695675e-05 5.5837875e-21)
(-7.518386e-05 -9.8714432e-05 5.5573e-21)
(-4.4800661e-05 -9.8836332e-05 7.9619738e-21)
(-1.4785763e-05 -9.9096124e-05 1.5400152e-20)
(-0.0032843974 -1.5638035e-05 5.4571381e-20)
(-0.0032385984 -2.2730713e-05 1.9757254e-20)
(-0.0031922469 -2.9499545e-05 -4.1148619e-20)
(-0.0031453994 -3.5952753e-05 -2.9905041e-20)
(-0.0030981105 -4.2098852e-05 -2.5930304e-20)
(-0.0030504329 -4.7946525e-05 -4.7505246e-20)
(-0.0030024171 -5.3504535e-05 5.7948854e-21)
(-0.002954112 -5.8781717e-05 6.7537068e-20)
(-0.0029055639 -6.3786938e-05 -1.003052e-20)
(-0.0028568174 -6.8529083e-05 1.0333485e-20)
(-0.0028079148 -7.3017046e-05 1.9545411e-20)
(-0.0027588966 -7.7259683e-05 -6.637306e-20)
(-0.0027098011 -8.1265823e-05 4.5433697e-20)
(-0.0026606647 -8.5044216e-05 1.6477417e-20)
(-0.002611522 -8.8603536e-05 -2.3186384e-20)
(-0.0025624055 -9.1952356e-05 -1.1302732e-20)
(-0.002513346 -9.5099133e-05 -7.4350061e-20)
(-0.0024643724 -9.8052179e-05 -3.4251698e-20)
(-0.0024155121 -0.00010081968 1.5151048e-20)
(-0.0023667905 -0.00010340965 4.4968784e-21)
(-0.0023182316 -0.00010582995 2.6237477e-20)
(-0.0022698575 -0.00010808824 3.1833801e-20)
(-0.0022216892 -0.00011019202 7.2641105e-20)
(-0.0021737457 -0.00011214862 1.5056037e-20)
(-0.0021260451 -0.00011396515 2.4682489e-20)
(-0.0020786036 -0.00011564851 6.7422669e-20)
(-0.0020314365 -0.00011720542 -3.4018688e-22)
(-0.0019845575 -0.0001186424 -1.2010893e-20)
(-0.0019379792 -0.00011996576 -6.1113616e-20)
(-0.0018917132 -0.00012118161 -5.1488755e-20)
(-0.0018457696 -0.00012229584 -1.7747188e-20)
(-0.0018001577 -0.00012331417 1.5743126e-20)
(-0.0017548856 -0.00012424208 4.6291603e-21)
(-0.0017099607 -0.00012508487 -1.9617701e-20)
(-0.0016653892 -0.00012584765 -3.4217395e-21)
(-0.0016211764 -0.00012653531 -1.0261655e-20)
(-0.0015773269 -0.00012715259 -4.6126867e-20)
(-0.0015338444 -0.00012770399 -2.2526756e-20)
(-0.001490732 -0.00012819386 -3.0405608e-21)
(-0.0014479918 -0.00012862636 1.4396911e-20)
(-0.0014056255 -0.00012900549 3.7670283e-20)
(-0.001363634 -0.00012933505 1.7059715e-20)
(-0.0013220176 -0.00012961867 1.8955501e-20)
(-0.0012807761 -0.00012985985 2.005725e-20)
(-0.0012399087 -0.00013006191 -2.8858332e-21)
(-0.0011994142 -0.00013022801 -1.6205244e-20)
(-0.0011592908 -0.00013036118 -3.4383748e-20)
(-0.0011195363 -0.00013046427 2.0034076e-21)
(-0.001080148 -0.00013054002 -1.0330677e-20)
(-0.0010411232 -0.00013059102 9.3507672e-21)
(-0.0010024583 -0.00013061974 4.4614571e-20)
(-0.00096414981 -0.0001306285 3.2044967e-20)
(-0.00092619367 -0.0001306195 1.6900111e-20)
(-0.00088858565 -0.00013059485 -1.1069532e-20)
(-0.00085132126 -0.00013055651 -1.3750065e-20)
(-0.00081439576 -0.00013050635 -3.6544901e-20)
(-0.00077780419 -0.0001304461 -1.1886211e-21)
(-0.0007415414 -0.00013037742 7.1701539e-21)
(-0.00070560207 -0.00013030186 -8.0706865e-21)
(-0.00066998073 -0.00013022085 -3.7933296e-21)
(-0.00063467175 -0.00013013575 6.5098726e-21)
(-0.0005996694 -0.00013004781 -8.2367971e-21)
(-0.00056496783 -0.00012995819 6.8238133e-22)
(-0.0005305611 -0.00012986796 1.7568023e-20)
(-0.00049644318 -0.0001297781 9.8556903e-21)
(-0.000462608 -0.00012968948 2.2626664e-20)
(-0.00042904941 -0.00012960289 6.7839906e-21)
(-0.00039576119 -0.00012951902 -3.6974234e-22)
(-0.00036273707 -0.00012943844 -3.602161e-21)
(-0.00032997069 -0.00012936161 -1.0890778e-20)
(-0.00029745556 -0.00012928886 -8.5844913e-21)
(-0.00026518498 -0.00012922045 -8.7624237e-21)
(-0.00023315191 -0.00012915665 2.1644995e-20)
(-0.00020134876 -0.00012909793 1.0341779e-20)
(-0.00016976733 -0.00012904561 8.3493429e-21)
(-0.00013839978 -0.00012900326 1.5821371e-20)
(-0.00010723938 -0.00012897939 -1.8182094e-21)
(-7.6273022e-05 -0.00012899058 -2.6456185e-21)
(-4.5488184e-05 -0.00012906267 -3.8429962e-21)
(-1.5030783e-05 -0.00012919822 8.1963151e-21)
(-0.003309134 -2.0548422e-05 -6.3865035e-21)
(-0.0032627148 -2.9293008e-05 4.5246218e-20)
(-0.0032157504 -3.7635717e-05 -8.0620311e-21)
(-0.003168298 -4.5587005e-05 -4.6139182e-20)
(-0.0031204125 -5.3157519e-05 -7.9253261e-21)
(-0.0030721473 -6.0358113e-05 -7.9241895e-20)
(-0.0030235534 -6.7199769e-05 -2.4698118e-20)
(-0.0029746795 -7.3693569e-05 1.3398215e-19)
(-0.0029255727 -7.9850633e-05 9.742637e-21)
(-0.0028762774 -8.5682105e-05 -8.6506555e-21)
(-0.0028268364 -9.1199121e-05 1.3250928e-20)
(-0.00277729 -9.6412767e-05 -4.1052613e-20)
(-0.0027276768 -0.00010133407 1.9543277e-20)
(-0.0026780332 -0.00010597396 -2.8328909e-20)
(-0.0026283937 -0.00011034324 -1.9066373e-20)
(-0.002578791 -0.00011445261 1.6057067e-20)
(-0.0025292558 -0.00011831258 -1.7880928e-20)
(-0.002479817 -0.0001219335 8.3338635e-21)
(-0.0024305018 -0.00012532555 1.8043141e-20)
(-0.0023813356 -0.00012849867 1.9202038e-21)
(-0.0023323422 -0.00013146262 9.6541719e-21)
(-0.0022835438 -0.00013422692 1.3521658e-20)
(-0.0022349609 -0.00013680086 5.3239912e-20)
(-0.0021866128 -0.00013919352 1.3144844e-20)
(-0.002138517 -0.0001414137 4.9248777e-21)
(-0.0020906899 -0.00014346997 3.0708433e-20)
(-0.0020431463 -0.00014537063 -5.6503744e-21)
(-0.0019959 -0.00014712375 -3.5088326e-21)
(-0.0019489632 -0.00014873714 -1.925967e-20)
(-0.0019023474 -0.00015021833 -1.8007608e-20)
(-0.0018560625 -0.00015157462 -2.0905108e-20)
(-0.0018101175 -0.00015281307 2.2987483e-20)
(-0.0017645205 -0.00015394045 1.4035724e-20)
(-0.0017192785 -0.0001549633 -1.8286266e-20)
(-0.0016743975 -0.00015588793 -8.0535909e-21)
(-0.0016298827 -0.00015672038 -1.3695166e-20)
(-0.0015857385 -0.00015746648 -3.188215e-20)
(-0.0015419683 -0.0001581318 -3.0305842e-20)
(-0.001498575 -0.00015872169 1.2868669e-23)
(-0.0014555605 -0.00015924128 1.9699917e-20)
(-0.0014129264 -0.0001596955 2.6060816e-20)
(-0.0013706733 -0.00016008903 1.5950419e-20)
(-0.0013288013 -0.00016042636 1.3947712e-20)
(-0.0012873101 -0.00016071177 1.6051886e-20)
(-0.0012461986 -0.00016094937 -9.8364055e-21)
(-0.0012054654 -0.00016114303 -2.4618316e-20)
(-0.0011651086 -0.00016129649 -4.5140348e-20)
(-0.0011251258 -0.00016141327 -1.6293346e-20)
(-0.0010855142 -0.00016149673 -1.0177147e-20)
(-0.0010462706 -0.00016155005 1.8782702e-20)
(-0.0010073917 -0.00016157627 3.677176e-20)
(-0.0009688735 -0.00016157825 1.8872774e-20)
(-0.00093071191 -0.0001615587 1.2021446e-21)
(-0.00089290252 -0.0001615202 -1.0104319e-20)
(-0.00085544067 -0.00016146516 -6.681035e-21)
(-0.00081832148 -0.00016139588 -3.1780984e-20)
(-0.00078153984 -0.0001613145 3.853645e-21)
(-0.00074509045 -0.00016122305 -1.6568873e-20)
(-0.00070896785 -0.00016112343 -1.8040406e-20)
(-0.00067316642 -0.00016101741 1.0606601e-20)
(-0.0006376804 -0.00016090666 1.3063812e-20)
(-0.00060250391 -0.00016079271 -1.43656e-21)
(-0.00056763099 -0.00016067701 -4.3338667e-21)
(-0.00053305554 -0.00016056087 9.4311227e-21)
(-0.00049877143 -0.00016044551 7.5226938e-22)
(-0.00046477242 -0.00016033203 1.7849579e-20)
(-0.00043105223 -0.00016022145 7.2988538e-21)
(-0.00039760452 -0.00016011466 8.1369204e-22)
(-0.00036442287 -0.00016001246 1.004992e-20)
(-0.00033150081 -0.00015991555 6.7890029e-22)
(-0.00029883175 -0.00015982456 -1.4072638e-20)
(-0.00026640895 -0.00015974012 -1.0508229e-20)
(-0.00023422551 -0.00015966291 1.0376626e-20)
(-0.00020227422 -0.00015959389 -1.4732443e-21)
(-0.00017054786 -0.00015953471 9.4879685e-21)
(-0.0001390402 -0.00015948835 1.600043e-20)
(-0.00010774661 -0.00015946023 -2.3746967e-22)
(-7.6654088e-05 -0.00015945845 -6.9084443e-21)
(-4.5744299e-05 -0.00015949259 -4.9318469e-21)
(-1.512734e-05 -0.00015955624 1.2296681e-20)
(-0.0033242225 -2.5751775e-05 -4.1019157e-20)
(-0.0032772732 -3.6149411e-05 1.7233086e-20)
(-0.0032297901 -4.6065806e-05 7.8828238e-21)
(-0.0031818306 -5.5513771e-05 -2.8883881e-20)
(-0.00313345 -6.4506365e-05 2.1684209e-20)
(-0.0030847017 -7.305684e-05 -5.0483058e-20)
(-0.0030356367 -8.1178551e-05 -2.6668668e-21)
(-0.0029863042 -8.8884923e-05 6.6997558e-20)
(-0.0029367509 -9.6189424e-05 -3.2099566e-20)
(-0.0028870217 -0.0001031055 5.086407e-20)
(-0.002837159 -0.00010964658 2.3658471e-20)
(-0.0027872034 -0.00011582603 -6.4874512e-20)
(-0.0027371933 -0.00012165711 -1.8893119e-20)
(-0.002687165 -0.00012715295 -2.0336624e-20)
(-0.002637153 -0.00013232654 3.332824e-20)
(-0.0025871898 -0.00013719071 3.5159802e-20)
(-0.0025373059 -0.00014175806 -1.6924573e-20)
(-0.0024875302 -0.00014604101 1.5457971e-20)
(-0.0024378895 -0.00015005172 2.0979913e-20)
(-0.0023884091 -0.00015380213 -6.5734867e-21)
(-0.0023391126 -0.00015730389 -4.6852152e-21)
(-0.002290022 -0.0001605684 -6.2358548e-23)
(-0.0022411575 -0.00016360675 3.9654566e-20)
(-0.0021925381 -0.00016642978 -5.9333395e-21)
(-0.0021441812 -0.00016904801 -1.6204277e-21)
(-0.0020961028 -0.00017147166 3.3642998e-20)
(-0.0020483176 -0.00017371066 5.1858641e-22)
(-0.0020008389 -0.0001757746 3.8203128e-21)
(-0.0019536788 -0.00017767281 -1.3627855e-20)
(-0.0019068484 -0.00017941427 2.0730099e-21)
(-0.0018603575 -0.00018100767 -1.2900512e-20)
(-0.0018142147 -0.00018246141 2.5513884e-20)
(-0.0017684279 -0.00018378357 2.4766146e-20)
(-0.0017230037 -0.00018498193 -2.0748274e-20)
(-0.001677948 -0.000186064 -8.3780169e-21)
(-0.0016332657 -0.00018703697 -2.9091959e-20)
(-0.0015889608 -0.00018790776 -2.9567809e-20)
(-0.0015450366 -0.000188683 -1.2389134e-20)
(-0.0015014957 -0.00018936907 7.7248277e-21)
(-0.0014583399 -0.00018997205 4.13586e-20)
(-0.0014155703 -0.00019049779 2.3801273e-20)
(-0.0013731874 -0.00019095187 -2.0960522e-21)
(-0.0013311911 -0.00019133961 8.9844498e-21)
(-0.0012895807 -0.00019166611 -1.0401483e-21)
(-0.0012483551 -0.00019193622 2.6997012e-21)
(-0.0012075127 -0.00019215457 -6.3350264e-21)
(-0.0011670512 -0.00019232557 -3.8548411e-20)
(-0.0011269681 -0.00019245342 -6.0189411e-21)
(-0.0010872604 -0.00019254208 -1.744664e-20)
(-0.0010479248 -0.00019259536 7.1968895e-21)
(-0.0010089576 -0.00019261683 3.2509673e-20)
(-0.00097035481 -0.00019260989 5.5312567e-21)
(-0.00093211209 -0.00019257777 -9.1182812e-21)
(-0.00089422488 -0.00019252352 -9.2066258e-21)
(-0.00085668836 -0.00019245 1.4989992e-22)
(-0.00081949747 -0.00019235992 -2.8828707e-20)
(-0.00078264696 -0.00019225584 1.2025137e-20)
(-0.00074613139 -0.00019214015 -8.250283e-21)
(-0.00070994514 -0.00019201511 -1.0981528e-20)
(-0.00067408246 -0.00019188282 1.2992281e-20)
(-0.00063853745 -0.00019174526 9.8595751e-21)
(-0.00060330411 -0.00019160424 -5.7481565e-21)
(-0.00056837631 -0.00019146149 -5.6004388e-21)
(-0.00053374787 -0.00019131857 1.7944496e-20)
(-0.00049941249 -0.00019117694 -5.9356057e-21)
(-0.00046536385 -0.00019103795 1.1692743e-20)
(-0.00043159553 -0.0001909028 1.5334224e-20)
(-0.00039810107 -0.00019077261 5.7019857e-21)
(-0.00036487397 -0.00019064838 7.9478516e-21)
(-0.00033190767 -0.00019053106 1.5251193e-21)
(-0.00029919552 -0.0001904215 -1.2797613e-20)
(-0.00026673084 -0.00019032057 -4.1077095e-21)
(-0.00023450685 -0.0001902292 1.3943896e-20)
(-0.00020251672 -0.00019014852 -1.0447238e-20)
(-0.00017075385 -0.00019008008 2.5846412e-21)
(-0.00013921285 -0.00019002608 1.7897334e-20)
(-0.00010788971 -0.0001899896 1.0603475e-22)
(-7.677027e-05 -0.00018997402 -1.3312738e-20)