/*--------------------------------*- C++ -*----------------------------------*\
| =========                 |                                                 |
| \\      /  F ield         | OpenFOAM: The Open Source CFD Toolbox           |
|  \\    /   O peration     | Version:  2106                                  |
|   \\  /    A nd           | Website:  www.openfoam.com                      |
|    \\/     M anipulation  |                                                 |
\*---------------------------------------------------------------------------*/
FoamFile
{
    version     2.0;
    format      ascii;
    arch        "LSB;label=32;scalar=64";
    class       surfaceScalarField;
    location    "0.027";
    object      phi;
}
// * * * * * * * * * * * * * * * * * * * * * * * * * * * * * * * * * * * * * //

dimensions      [0 3 -1 0 0 0 0];

oriented        oriented;

internalField   nonuniform List<scalar> 
8064
(
-0.00015867054
0.00015866978
-0.00031579931
0.00015712877
-0.00046986143
0.00015406211
-0.00061936174
0.00014950032
-0.00076285049
0.00014348875
-0.00089893761
0.00013608712
-0.0010263064
0.00012736884
-0.0011437267
0.00011742025
-0.0012500664
0.00010633967
-0.0013443027
9.4236349e-05
-0.0014255321
8.1229351e-05
-0.0014929783
6.7446281e-05
-0.0015460003
5.3021976e-05
-0.0015840973
3.8097022e-05
-0.0016069132
2.2815835e-05
-0.0016142417
7.3285278e-06
-0.001606025
-8.2166655e-06
-0.0015823548
-2.3670233e-05
-0.0015434711
-3.8883704e-05
-0.0014897596
-5.3711478e-05
-0.0014217475
-6.8012177e-05
-0.0013400976
-8.1649876e-05
-0.0012456022
-9.4495334e-05
-0.0011391751
-0.00010642716
-0.0010218422
-0.00011733288
-0.00089473224
-0.00012710996
-0.00075906557
-0.00013566668
-0.00061614267
-0.0001429229
-0.00046733186
-0.00014881081
-0.00031405642
-0.00015327544
-0.00015778125
-0.00015627517
7.9113877e-10
-0.00015778204
0.00015778283
-0.00015778203
0.00031405797
-0.00015627514
0.00046733337
-0.0001532754
0.00061614413
-0.00014881076
0.00075906697
-0.00014292284
0.00089473356
-0.0001356666
0.0010218434
-0.00012710987
0.0011391762
-0.00011733278
0.0012456033
-0.00010642704
0.0013400985
-9.4495214e-05
0.0014217482
-8.1649748e-05
0.0014897603
-6.8012042e-05
0.0015434716
-5.3711338e-05
0.0015823552
-3.888356e-05
0.0016060252
-2.3670085e-05
0.0016142418
-8.216516e-06
0.0016069131
7.3286778e-06
0.0015840971
2.2815984e-05
0.0015459999
3.8097169e-05
0.0014929778
5.302212e-05
0.0014255314
6.744642e-05
0.0013443019
8.1229484e-05
0.0012500654
9.4236474e-05
0.0011437256
0.00010633978
0.0010263053
0.00011742036
0.00089893636
0.00012736894
0.00076284916
0.0001360872
0.00061936034
0.00014348882
0.00046985997
0.00014950037
0.00031579782
0.00015406215
0.00015866902
0.0001571288
0.00015866979
-0.00016012904
0.00031879805
-0.00031870185
0.00031570158
-0.00047417923
0.0003095395
-0.00062505207
0.00030037316
-0.00076985706
0.00028829374
-0.00090719122
0.00027342127
-0.0010357257
0.00025590332
-0.0011542189
0.00023591342
-0.0012615284
0.00021364917
-0.0013566222
0.00018933017
-0.0014385885
0.0001631957
-0.0015066444
0.00013550217
-0.001560143
0.00010652051
-0.0015985793
7.653332e-05
-0.0016215954
4.5831971e-05
-0.0016289819
1.4714987e-05
-0.001620681
-1.651756e-05
-0.0015967858
-4.7565346e-05
-0.0015575392
-7.8130359e-05
-0.0015033305
-0.0001079202
-0.0014346918
-0.00013665086
-0.0013522924
-0.00016404929
-0.0012569318
-0.00018985587
-0.0011495322
-0.00021382677
-0.001031129
-0.0002357361
-0.00090286107
-0.00025537789
-0.00076595983
-0.00027256792
-0.00062173748
-0.00028714526
-0.00047157461
-0.00029897368
-0.00031690724
-0.00030794281
-0.00015921338
-0.00031396903
8.0421257e-10
-0.00031699622
0.00015921498
-0.00031699621
0.00031690882
-0.00031396898
0.00047157615
-0.00030794273
0.00062173896
-0.00029897358
0.00076596125
-0.00028714512
0.00090286242
-0.00027256776
0.0010311303
-0.00025537771
0.0011495334
-0.00023573589
0.0012569329
-0.00021382655
0.0013522933
-0.00018985563
0.0014346926
-0.00016404903
0.0015033311
-0.00013665059
0.0015575397
-0.00010791992
0.0015967862
-7.8130067e-05
0.0016206812
-4.7565049e-05
0.0016289819
-1.6517259e-05
0.0016215953
1.471529e-05
0.001598579
4.5832272e-05
0.0015601426
7.6533616e-05
0.0015066439
0.0001065208
0.0014385879
0.00013550244
0.0013566214
0.00016319596
0.0012615274
0.00018933043
0.0011542178
0.0002136494
0.0010357245
0.00023591363
0.00090718995
0.00025590351
0.00076985571
0.00027342144
0.00062505065
0.00028829388
0.00047417775
0.00030037327
0.00031870033
0.00030953958
0.0001601275
0.00031570162
0.00031879806
-0.00016227594
0.00048107319
-0.00032297435
0.00047639999
-0.00048053505
0.0004671002
-0.00063342833
0.00045326643
-0.00078017098
0.00043503639
-0.000919341
0.00041259129
-0.0010495916
0.00038615395
-0.0011696646
0.00035598635
-0.0012784022
0.00032238683
-0.0013747589
0.00028568689
-0.0014578109
0.00024624771
-0.0015267652
0.00020445638
-0.0015809665
0.00016072181
-0.0016199038
0.00011547061
-0.0016432146
6.9142789e-05
-0.0016506874
2.2187769e-05
-0.0016422639
-2.4941041e-05
-0.001618039
-7.1790211e-05
-0.0015782591
-0.00011791024
-0.0015233193
-0.00016286005
-0.001453759
-0.00020621118
-0.0013702566
-0.0002475517
-0.0012736225
-0.00028648997
-0.0011647911
-0.00032265816
-0.0010448117
-0.00035571551
-0.0009148382
-0.00038535135
-0.00077611835
-0.00041128777
-0.00062998156
-0.00043328204
-0.00047782657
-0.00045112867
-0.00032110819
-0.00046466118
-0.00016132378
-0.00047375345
8.2515216e-10
-0.00047832083
0.00016132542
-0.0004783208
0.00032110981
-0.00047375338
0.00047782815
-0.00046466107
0.00062998309
-0.00045112852
0.0007761198
-0.00043328184
0.00091483958
-0.00041128753
0.0010448129
-0.00038535108
0.0011647923
-0.0003557152
0.0012736235
-0.00032265782
0.0013702575
-0.0002864896
0.0014537598
-0.0002475513
0.0015233199
-0.00020621076
0.0015782596
-0.00016285962
0.0016180394
-0.00011790979
0.0016422641
-7.178976e-05
0.0016506874
-2.4940584e-05
0.0016432145
2.2188227e-05
0.0016199035
6.9143245e-05
0.0015809661
0.00011547106
0.0015267646
0.00016072225
0.0014578103
0.0002044568
0.0013747581
0.00024624812
0.0012784013
0.00028568727
0.0011696635
0.00032238718
0.0010495904
0.00035598668
0.0009193397
0.00038615424
0.0007801696
0.00041259154
0.00063342687
0.0004350366
0.00048053354
0.0004532666
0.0003229728
0.00046710032
0.00016227436
0.00047640007
0.00048107321
-0.00016514927
0.00064622164
-0.00032869254
0.00063994327
-0.00048904151
0.00062744916
-0.00064463894
0.00060886386
-0.000793975
0.00058437245
-0.00093560227
0.00055421855
-0.00106815
0.00051870166
-0.0011903375
0.00047817392
-0.001300987
0.00043303631
-0.0013990345
0.00038373435
-0.0014835402
0.00033075344
-0.0015536975
0.00027461368
-0.0016088403
0.00021586456
-0.0016484489
0.00015507928
-0.0016721551
9.2848972e-05
-0.0016797443
2.9776983e-05
-0.0016711579
-3.3527523e-05
-0.0016464927
-9.645533e-05
-0.0016060002
-0.00015840278
-0.0015500827
-0.00021877757
-0.0014792895
-0.00027700434
-0.0013943113
-0.00033252994
-0.0012959728
-0.00038482846
-0.0011852249
-0.00043340599
-0.0010631355
-0.00047780499
-0.0009308785
-0.0005176083
-0.00078972349
-0.00055244278
-0.00064102303
-0.0005819825
-0.00048620011
-0.00060595159
-0.00032673481
-0.00062412648
-0.0001641504
-0.00063633786
8.5331295e-10
-0.00064247208
0.0001641521
-0.00064247205
0.00032673649
-0.00063633777
0.00048620175
-0.00062412633
0.00064102461
-0.00060595138
0.000789725
-0.00058198224
0.00093087993
-0.00055244246
0.0010631368
-0.00051760793
0.0011852262
-0.00047780458
0.0012959739
-0.00043340553
0.0013943122
-0.00038482796
0.0014792903
-0.00033252941
0.0015500834
-0.00027700379
0.0016060007
-0.00021877699
0.0016464931
-0.00015840218
0.0016711581
-9.645472e-05
0.0016797444
-3.3526906e-05
0.001672155
2.9777602e-05
0.0016484487
9.2849587e-05
0.0016088399
0.00015507988
0.001553697
0.00021586516
0.0014835395
0.00027461426
0.0013990336
0.00033075398
0.001300986
0.00038373487
0.0011903364
0.00043303679
0.0010681487
0.00047817436
0.00093560093
0.00051870206
0.00079397358
0.00055421889
0.00064463744
0.00058437274
0.00048903995
0.00060886409
0.00032869094
0.00062744933
0.00016514764
0.00063994337
0.00064622167
-0.00016882537
0.00081504616
-0.00033600834
0.00080712623
-0.00049992464
0.00079136546
-0.00065898183
0.00076792106
-0.00081163605
0.00073702668
-0.00095640734
0.00069898985
-0.0010918943
0.00065418861
-0.0012167878
0.00060306744
-0.0013298839
0.0005461324
-0.0014300953
0.00048394575
-0.0015164618
0.00041711997
-0.0015881595
0.00034631132
-0.001644508
0.00027221303
-0.0016849769
0.0001955482
-0.0017091904
0.00011706247
-0.00171693
3.7516621e-05
-0.0017081365
-4.232107e-05
-0.0016829095
-0.00012168226
-0.0016415066
-0.00019980577
-0.0015843393
-0.00027594481
-0.0015119697
-0.00034937396
-0.0014251038
-0.00041939584
-0.0013245848
-0.00048534743
-0.0012113848
-0.00054660605
-0.0010865949
-0.00060259487
-0.00095141521
-0.00065278798
-0.000807143
-0.00069671499
-0.00065516049
-0.00073396502
-0.00049692181
-0.00076419026
-0.00033393939
-0.0007871089
-0.00016776977
-0.00080250749
8.8853476e-10
-0.00081024273
0.00016777154
-0.0008102427
0.00033394114
-0.00080250737
0.00049692351
-0.0007871087
0.00065516213
-0.00076418999
0.00080714457
-0.00073396468
0.0009514167
-0.00069671458
0.0010865963
-0.00065278751
0.001211386
-0.00060259433
0.001324586
-0.00054660546
0.0014251048
-0.0004853468
0.0015119706
-0.00041939517
0.00158434
-0.00034937326
0.0016415071
-0.00027594408
0.0016829099
-0.00019980501
0.0017081367
-0.00012168149
0.0017169301
-4.2320288e-05
0.0017091903
3.7517406e-05
0.0016849766
0.00011706325
0.0016445075
0.00019554897
0.0015881589
0.00027221379
0.0015164611
0.00034631205
0.0014300944
0.00041712067
0.0013298829
0.00048394641
0.0012167867
0.00054613302
0.001091893
0.000603068
0.00095640596
0.00065418912
0.00081163457
0.00069899028
0.00065898027
0.00073702704
0.00049992301
0.00076792135
0.00033600667
0.00079136567
0.00016882368
0.00080712636
0.0008150462
-0.00017342155
0.00098846682
-0.00034515521
0.00097885989
-0.00051353179
0.00095974204
-0.00067691487
0.00093130414
-0.00083371807
0.00089382987
-0.00098242078
0.00084769256
-0.0011215833
0.00079335112
-0.0012498609
0.00073134505
-0.001366017
0.00066228857
-0.0014689353
0.00058686402
-0.00155763
0.00050581462
-0.0016312553
0.00041993661
-0.0016891132
0.00033007099
-0.0017306599
0.00023709486
-0.00175551
0.00014191257
-0.00176344
4.5446672e-05
-0.0017543899
-5.1371218e-05
-0.0017284627
-0.00014760943
-0.0016859233
-0.00024234512
-0.0016271952
-0.00033467292
-0.0015528558
-0.00042371342
-0.0014636304
-0.00050862122
-0.0013603852
-0.00058859259
-0.0012441186
-0.0006628727
-0.0011159511
-0.00073076232
-0.00097711519
-0.00079162393
-0.00082894289
-0.00084488729
-0.00067285358
-0.00089005433
-0.00051034042
-0.00092670343
-0.00034295636
-0.00095449295
-0.00017229969
-0.00097316416
9.3083345e-10
-0.00098254335
0.00017230154
-0.0009825433
0.00034295819
-0.00097316402
0.0005103422
-0.00095449271
0.0006728553
-0.00092670309
0.00082894454
-0.00089005391
0.00097711674
-0.00084488678
0.0011159526
-0.00079162335
0.0012441199
-0.00073076167
0.0013603864
-0.00066287199
0.0014636315
-0.00058859181
0.0015528567
-0.00050862039
0.001627196
-0.00042371256
0.0016859239
-0.00033467202
0.0017284631
-0.00024234419
0.0017543901
-0.00014760849
0.0017634401
-5.1370264e-05
0.0017555099
4.5447629e-05
0.0017306596
0.00014191352
0.0016891128
0.0002370958
0.0016312547
0.00033007191
0.0015576292
0.0004199375
0.0014689344
0.00050581547
0.001366016
0.00058686483
0.0012498597
0.00066228932
0.0011215819
0.00073134573
0.00098241933
0.00079335173
0.00083371652
0.00084769309
0.00067691324
0.00089383032
0.00051353009
0.0009313045
0.00034515347
0.0009597423
0.00017341978
0.00097886004
0.00098846687
-0.0001791013
0.0011675672
-0.00035645855
0.0011562171
-0.00053034711
0.0011336306
-0.00069907627
0.0011000333
-0.00086100712
0.0010557607
-0.0010145689
0.0010012543
-0.0011582746
0.00093705681
-0.0012907355
0.00086380599
-0.001410675
0.00078222801
-0.0015169404
0.00069312946
-0.0016085146
0.00059738876
-0.0016845248
0.00049594684
-0.0017442512
0.00038979741
-0.0017871331
0.00027997668
-0.0018127734
0.00016755288
-0.0018209423
5.3615591e-05
-0.0018115785
-6.0734998e-05
-0.0017847892
-0.00017439871
-0.0017408485
-0.00028628588
-0.0016801938
-0.00039532756
-0.0016034218
-0.00050048547
-0.0015112815
-0.00060076149
-0.0014046674
-0.00069520673
-0.00128461
-0.00078293001
-0.0011522666
-0.00086310576
-0.0010089093
-0.00093498127
-0.00085591328
-0.00099788326
-0.00069474395
-0.0010512237
-0.00052694277
-0.0010945046
-0.00035411298
-0.0011273227
-0.00017790459
-0.0011493726
9.8026828e-10
-0.0011604489
0.00017790654
-0.0011604489
0.0003541149
-0.0011493724
0.00052694465
-0.0011273225
0.00069474577
-0.0010945042
0.00085591501
-0.0010512232
0.0010089109
-0.00099788267
0.0011522681
-0.00093498058
0.0012846114
-0.00086310498
0.0014046686
-0.00078292916
0.0015112826
-0.00069520581
0.0016034227
-0.00060076051
0.0016801946
-0.00050048444
0.0017408491
-0.00039532649
0.0017847897
-0.00028628478
0.0018115788
-0.00017439759
0.0018209424
-6.0733865e-05
0.0018127733
5.3616729e-05
0.0017871328
0.00016755402
0.0017442508
0.0002799778
0.0016845242
0.00038979851
0.0016085138
0.0004959479
0.0015169395
0.00059738977
0.0014106739
0.00069313043
0.0012907343
0.00078222891
0.0011582732
0.00086380681
0.0010145674
0.00093705755
0.0008610055
0.001001255
0.00069907456
0.0010557613
0.00053034532
0.0011000337
0.00035645671
0.0011336309
0.00017909944
0.0011562173
0.0011675672
-0.00018608242
0.0013536486
-0.00037035187
0.0013404866
-0.00055101562
0.0013142943
-0.00072631632
0.001275334
-0.00089455059
0.001223995
-0.0010540861
0.0011607898
-0.0012033777
0.0010863484
-0.0013409827
0.001001411
-0.0014655751
0.00090682038
-0.001575958
0.00080351234
-0.0016710752
0.00069250598
-0.0017500211
0.00057489277
-0.0018120489
0.00045182514
-0.0018565768
0.00032450461
-0.0018831936
0.00019416966
-0.0018916613
6.2083306e-05
-0.001881917
-7.0479263e-05
-0.0018540727
-0.000202243
-0.0018084135
-0.00033194513
-0.0017453941
-0.00045834693
-0.0016656343
-0.00058024527
-0.0015699122
-0.00069648354
-0.0014591568
-0.00080596214
-0.0013344386
-0.0009076483
-0.001196959
-0.0010005853
-0.0010480396
-0.0010839007
-0.00088910857
-0.0011568143
-0.00072168788
-0.0012186444
-0.00054737859
-0.0012688139
-0.00036784597
-0.0013068554
-0.00018480392
-0.0013324146
1.0369424e-09
-0.0013452539
0.00018480599
-0.0013452538
0.00036784801
-0.0013324144
0.00054738057
-0.001306855
0.00072168979
-0.0012688134
0.0008891104
-0.0012186438
0.0010480413
-0.0011568136
0.0011969606
-0.0010838999
0.00133444
-0.0010005844
0.0014591582
-0.00090764731
0.0015699134
-0.00080596106
0.0016656353
-0.0006964824
0.0017453949
-0.00058024407
0.0018084141
-0.00045834569
0.0018540732
-0.00033194385
0.0018819173
-0.0002022417
0.0018916614
-7.0477943e-05
0.0018831935
6.2084632e-05
0.0018565765
0.00019417098
0.0018120484
0.00032450592
0.0017500205
0.00045182642
0.0016710744
0.00057489401
0.001575957
0.00069250717
0.0014655739
0.00080351346
0.0013409814
0.00090682143
0.0012033762
0.001001412
0.0010540845
0.0010863493
0.00089454889
0.0011607906
0.00072631452
0.0012239956
0.00055101374
0.0012753345
0.00037034993
0.0013142947
0.00018608046
0.0013404868
0.0013536487
-0.00019464669
0.0015482943
-0.00038739598
0.0015332359
-0.00057637179
0.0015032702
-0.0007597351
0.0014586973
-0.0009357036
0.0013999635
-0.0011025694
0.0013276557
-0.0012587163
0.0012424953
-0.0014026354
0.0011453301
-0.00153294
0.001037125
-0.0016483789
0.00091895126
-0.0017478484
0.00079197539
-0.001830402
0.0006574464
-0.0018952597
0.00051668281
-0.0019418141
0.0003710591
-0.0019696362
0.00022199168
-0.0019784777
7.0924862e-05
-0.0019682736
-8.0683332e-05
-0.0019391415
-0.00023137519
-0.0018913795
-0.00037970709
-0.0018254634
-0.00052426302
-0.0017420411
-0.00066366757
-0.0016419262
-0.00079659849
-0.0015260896
-0.00092179867
-0.0013956506
-0.0010380873
-0.0012518655
-0.0011443704
-0.0010961158
-0.0012396504
-0.00092989517
-0.001323035
-0.00075479503
-0.0013937445
-0.00057248987
-0.0014511191
-0.00038472136
-0.0014946239
-0.00019328211
-0.0015238539
1.1010936e-09
-0.0015385371
0.0001932843
-0.001538537
0.00038472352
-0.0015238536
0.00057249198
-0.0014946235
0.00075479706
-0.0014511185
0.00092989711
-0.0013937438
0.0010961177
-0.0013230341
0.0012518672
-0.0012396495
0.0013956522
-0.0011443693
0.001526091
-0.0010380861
0.0016419274
-0.00092179743
0.0017420422
-0.00079659718
0.0018254643
-0.00066366619
0.0018913802
-0.00052426159
0.001939142
-0.00037970562
0.001968274
-0.00023137369
0.0019784778
-8.0681815e-05
0.0019696361
7.0926385e-05
0.0019418139
0.0002219932
0.0018952592
0.0003710606
0.0018304013
0.00051668429
0.0017478475
0.00065744783
0.0016483779
0.00079197677
0.0015329388
0.00091895256
0.001402634
0.0010371262
0.0012587148
0.0011453312
0.0011025678
0.0012424963
0.0009357018
0.0013276566
0.0007597332
0.0013999642
0.00057636979
0.0014586979
0.00038739393
0.0015032706
0.0001946446
0.0015332361
0.0015482943
-0.00020514873
0.0017534419
-0.00040829677
0.0017363839
-0.00060746597
0.0017024394
-0.0008007174
0.0016519488
-0.00098617204
0.0015854181
-0.0011620297
0.0015035133
-0.0013265868
0.0014070524
-0.0014782534
0.0012969967
-0.0016155686
0.0011744402
-0.0017372146
0.0010405972
-0.0018420288
0.00089678964
-0.0019290152
0.00074443275
-0.0019973525
0.00058502017
-0.0020464019
0.00042010851
-0.0020757119
0.00025130165
-0.0020850217
8.0234702e-05
-0.0020742632
-9.1441898e-05
-0.0020435601
-0.00026207822
-0.0019932268
-0.00043004039
-0.0019237641
-0.00059372574
-0.0018358541
-0.00075157754
-0.0017303535
-0.00090209912
-0.0016082848
-0.0010438674
-0.0014708267
-0.0011755454
-0.0013193025
-0.0012958946
-0.0011551678
-0.0014037852
-0.00097999611
-0.0014982066
-0.00079546475
-0.0015782758
-0.00060333843
-0.0016432454
-0.00040545292
-0.0016925094
-0.00020369781
-0.001725609
1.1732682e-09
-0.0017422361
0.00020370014
-0.001742236
0.00040545522
-0.0017256087
0.00060334067
-0.0016925089
0.00079546692
-0.0016432448
0.00097999817
-0.0015782751
0.0011551697
-0.0014982057
0.0013193043
-0.0014037841
0.0014708284
-0.0012958934
0.0016082863
-0.0011755441
0.0017303548
-0.0010438659
0.0018358553
-0.00090209762
0.0019237651
-0.00075157597
0.0019932276
-0.00059372411
0.0020435607
-0.00043003872
0.0020742635
-0.00026207652
0.0020850219
-9.1440176e-05
0.0020757118
8.0236432e-05
0.0020464016
0.00025130338
0.001997352
0.00042011022
0.0019290145
0.00058502184
0.0018420279
0.00074443439
0.0017372135
0.00089679121
0.0016155674
0.0010405987
0.001478252
0.0011744416
0.0013265852
0.001296998
0.0011620279
0.0014070536
0.00098617013
0.0015035143
0.00080071537
0.001585419
0.00060746385
0.0016519494
0.00040829459
0.0017024398
0.00020514651
0.0017363842
0.001753442
-0.00021802137
0.001971462
-0.00043391574
0.0019522783
-0.00064558012
0.0019141037
-0.00085095337
0.001857322
-0.0010480382
0.001782503
-0.0012349213
0.0016903964
-0.0014097923
0.0015819235
-0.0015709621
0.0014581665
-0.0017168785
0.0013203566
-0.0018461421
0.0011698607
-0.0019575184
0.0010081659
-0.0020499499
0.00083686424
-0.002122565
0.00065763527
-0.0021746856
0.00047222914
-0.0022058326
0.00028244867
-0.0022157293
9.0131432e-05
-0.0022043032
-0.00010286801
-0.0021716856
-0.00029469586
-0.0021182096
-0.00048351637
-0.0020444065
-0.00066752885
-0.001951
-0.00084498405
-0.0018388991
-0.0010142
-0.0017091893
-0.0011735772
-0.0015631219
-0.0013216127
-0.0014021025
-0.0014569139
-0.0012276773
-0.0015782104
-0.0010415184
-0.0016843655
-0.00084540825
-0.001774386
-0.00064122274
-0.0018474309
-0.00043091351
-0.0019028186
-0.00021648963
-0.0019400329
1.2545781e-09
-0.001958727
0.00021649213
-0.0019587268
0.00043091597
-0.0019400325
0.00064122513
-0.0019028181
0.00084541056
-0.0018474302
0.0010415206
-0.0017743851
0.0012276794
-0.0016843644
0.0014021045
-0.0015782092
0.0015631237
-0.0014569126
0.0017091908
-0.0013216113
0.0018389005
-0.0011735756
0.0019510012
-0.0010141983
0.0020444075
-0.00084498228
0.0021182104
-0.00066752702
0.0021716862
-0.00048351449
0.0022043036
-0.00029469395
0.0022157295
-0.00010286608
0.0022058326
9.0133377e-05
0.0021746853
0.00028245061
0.0021225645
0.00047223107
0.0020499492
0.00065763716
0.0019575175
0.00083686609
0.0018461409
0.0010081677
0.0017168772
0.0011698624
0.0015709605
0.0013203582
0.0014097906
0.001458168
0.0012349194
0.0015819248
0.0010480362
0.0016903976
0.00085095121
0.0017825039
0.00064557786
0.0018573228
0.0004339134
0.0019141043
0.00021801899
0.0019522786
0.0019714622
-0.00023377339
0.0022052341
-0.00046526559
0.0021837705
-0.00069222129
0.0021410594
-0.0009124301
0.0020775308
-0.0011237503
0.0019938232
-0.0013241304
0.0018907765
-0.0015116296
0.0017694227
-0.0016844371
0.001630974
-0.0018408896
0.0014768092
-0.0019794873
0.0013084584
-0.0020989077
0.0011275863
-0.0021980177
0.00093597429
-0.0022758838
0.00073550136
-0.0023317795
0.00052812486
-0.0023651914
0.00031586054
-0.0023758227
0.00010076268
-0.0023635949
-0.00011509579
-0.0023286478
-0.00032964291
-0.0022713373
-0.00054082693
-0.002192231
-0.0007466351
-0.0020921032
-0.00094511192
-0.0019719264
-0.0011343768
-0.0018328628
-0.0013126408
-0.0016762528
-0.0014782228
-0.0015036022
-0.0016295645
-0.0013165683
-0.0017652443
-0.0011169442
-0.0018839897
-0.00090664144
-0.0019846887
-0.0006876725
-0.0020663998
-0.00046213146
-0.0021283597
-0.0002321743
-0.00216999
1.3470255e-09
-0.0021909026
0.00023217698
-0.0021909025
0.00046213409
-0.0021699897
0.00068767507
-0.0021283591
0.00090664391
-0.002066399
0.0011169465
-0.0019846877
0.0013165705
-0.0018839885
0.0015036042
-0.0017652429
0.0016762546
-0.001629563
0.0018328645
-0.0014782211
0.0019719279
-0.001312639
0.0020921044
-0.0011343749
0.0021922321
-0.00094510994
0.0022713381
-0.00074663305
0.0023286485
-0.00054082483
0.0023635953
-0.00032964078
0.0023758229
-0.00011509363
0.0023651914
0.00010076485
0.0023317793
0.00031586271
0.0022758833
0.00052812702
0.002198017
0.00073550349
0.0020989067
0.00093597637
0.0019794861
0.0011275883
0.0018408882
0.0013084603
0.0016844355
0.001476811
0.0015116278
0.0016309757
0.0013241284
0.0017694242
0.0011237481
0.0018907778
0.00091242778
0.0019938243
0.00069221886
0.0020775317
0.00046526308
0.0021410601
0.00023377082
0.0021837709
0.0022052343
-0.00025297502
0.0024582078
-0.00050348145
0.0024342769
-0.00074907875
0.0023866567
-0.00098737507
0.0023158271
-0.001216053
0.0022225011
-0.0014328929
0.0021076164
-0.0016357951
0.0019723249
-0.0018228008
0.0018179797
-0.0019921108
0.0016461192
-0.002142103
0.0014584506
-0.0022713471
0.0012568305
-0.002378618
0.0010432451
-0.0024629057
0.00081978909
-0.0025234244
0.00058864355
-0.0025596181
0.00035205426
-0.0025711648
0.00011230943
-0.0025579784
-0.00012828227
-0.0025202079
-0.00036741335
-0.0024582361
-0.00060279874
-0.0023726747
-0.00083219653
-0.0022643585
-0.0010534281
-0.0021343374
-0.0012643978
-0.0019838667
-0.0014631115
-0.0018143948
-0.0016476946
-0.0016275503
-0.0018164091
-0.001425126
-0.0019676686
-0.0012090624
-0.0021000532
-0.00098142947
-0.0022123217
-0.00074440658
-0.0023034227
-0.00050026224
-0.002372504
-0.00025133245
-0.0024189198
1.4538508e-09
-0.0024422365
0.00025133534
-0.0024422364
0.00050026509
-0.0024189194
0.00074440935
-0.0023725033
0.00098143213
-0.0023034218
0.001209065
-0.0022123206
0.0014251283
-0.0021000518
0.0016275525
-0.0019676671
0.0018143969
-0.0018164074
0.0019838685
-0.0016476928
0.002134339
-0.0014631095
0.0022643598
-0.0012643957
0.0023726758
-0.0010534259
0.002458237
-0.00083219426
0.0025202086
-0.00060279642
0.0025579788
-0.00036741099
0.0025711651
-0.00012827988
0.0025596181
0.00011231183
0.0025234241
0.00035205667
0.0024629052
0.00058864594
0.0023786172
0.00081979146
0.0022713462
0.0010432475
0.0021421017
0.0012568327
0.0019921093
0.0014584527
0.0018227991
0.0016461212
0.0016357932
0.0018179816
0.0014328907
0.0019723267
0.0012160507
0.0021076179
0.00098737257
0.0022225024
0.00074907612
0.0023158282
0.00050347873
0.0023866575
0.00025297224
0.0024342774
0.0024582079
-0.00027622562
0.0027344318
-0.00054975642
0.0027078077
-0.0008179282
0.0026548285
-0.00107813
0.0025760289
-0.001327832
0.0024722031
-0.0015646115
0.0023443959
-0.0017861766
0.00219389
-0.0019903892
0.0020221923
-0.0021752856
0.0018310156
-0.0023390953
0.0016222603
-0.0024802574
0.0013979925
-0.0025974341
0.0011604219
-0.002689523
0.00091187793
-0.0027556652
0.00065478578
-0.0027952527
0.00039164173
-0.002807932
0.00012498873
-0.0027936065
-0.00014260777
-0.0027524361
-0.00040858374
-0.002684835
-0.00067039981
-0.0025914675
-0.00092556409
-0.0024732412
-0.0011716544
-0.0023312992
-0.0014063398
-0.0021670089
-0.0016274018
-0.0019819499
-0.0018327537
-0.001777899
-0.00202046
-0.0015568136
-0.002188754
-0.0013208134
-0.0023360534
-0.0010721604
-0.0024609747
-0.00081323711
-0.002562346
-0.00054652408
-0.002639217
-0.00027457623
-0.0026908677
1.5798169e-09
-0.0027168143
0.00027457937
-0.0027168142
0.00054652717
-0.0026908672
0.00081324012
-0.0026392163
0.0010721633
-0.002562345
0.0013208162
-0.0024609734
0.0015568161
-0.0023360518
0.0017779013
-0.0021887523
0.0019819521
-0.0020204581
0.0021670108
-0.0018327515
0.0023313009
-0.0016273995
0.0024732427
-0.0014063375
0.0025914687
-0.0011716519
0.002684836
-0.00092556157
0.0027524368
-0.00067039725
0.002793607
-0.00040858114
0.0028079322
-0.00014260514
0.0027952527
0.00012499138
0.002755665
0.00039164438
0.0026895225
0.00065478843
0.0025974334
0.00091188056
0.0024802564
0.0011604245
0.002339094
0.001397995
0.002175284
0.0016222627
0.0019903873
0.0018310179
0.0017861745
0.0020221944
0.0015646092
0.002193892
0.0013278295
0.0023443976
0.0010781272
0.0024722046
0.00081792533
0.0025760301
0.00054975344
0.0026548294
0.00027622258
0.0027078082
0.002734432
-0.00030409736
0.0030385275
-0.00060522952
0.0030089399
-0.00090046502
0.002950064
-0.0011869309
0.0028624948
-0.0014618435
0.0027471157
-0.0017225367
0.0026050891
-0.0019664887
0.002437842
-0.0021913464
0.00224705
-0.0023949488
0.002034618
-0.0025753472
0.0018026587
-0.0027308232
0.0015534685
-0.002859904
0.0012895027
-0.0029613748
0.0010133487
-0.0030342888
0.00072769978
-0.0030779742
0.00043532717
-0.003092039
0.00013905355
-0.0030763731
-0.0001582737
-0.0030311481
-0.00045380874
-0.0029568153
-0.00074473267
-0.0028541008
-0.0010282786
-0.0027239992
-0.001301756
-0.0025677644
-0.0015625746
-0.0023868985
-0.0018082677
-0.0021831377
-0.0020365144
-0.001958437
-0.0022451607
-0.0017149515
-0.0024322396
-0.0014550161
-0.0025959887
-0.0011811238
-0.002734867
-0.00089590144
-0.0028475683
-0.00060208487
-0.0029330336
-0.0003024925
-0.00299046
1.7312861e-09
-0.0030193085
0.00030249594
-0.0030193084
0.00060208826
-0.0029904595
0.00089590472
-0.0029330328
0.0011811269
-0.0028475672
0.0014550191
-0.0027348656
0.0017149542
-0.002595987
0.0019584396
-0.0024322376
0.00218314
-0.0022451585
0.0023869005
-0.002036512
0.0025677662
-0.0018082652
0.0027240007
-0.001562572
0.0028541021
-0.0013017533
0.0029568163
-0.0010282758
0.0030311489
-0.00074472986
0.0030763737
-0.00045380589
0.0030920393
-0.00015827083
0.0030779743
0.00013905644
0.0030342886
0.00043533007
0.0029613743
0.0007277027
0.0028599032
0.0010133516
0.0027308222
0.0012895056
0.0025753458
0.0015534714
0.0023949471
0.0018026615
0.0021913444
0.0020346207
0.0019664864
0.0022470524
0.0017225342
0.0024378442
0.0014618407
0.0026050911
0.0011869279
0.0027471174
0.00090046185
0.0028624961
0.00060522623
0.002950065
0.00030409399
0.0030089405
0.0030385277
-0.00033704907
0.0033755747
-0.00067081433
0.0033427051
-0.0009980493
0.003277299
-0.0013155721
0.0031800175
-0.0016202996
0.0030518433
-0.0019092787
0.0028940682
-0.0021797156
0.0027082788
-0.0024290033
0.0024963377
-0.0026547472
0.0022603619
-0.0028547874
0.0020026989
-0.0030272187
0.0017258999
-0.0031704076
0.0014326915
-0.0032830057
0.0011259468
-0.0033639608
0.00080865494
-0.0034125249
0.00048389128
-0.0034282591
0.00015478768
-0.0034110359
-0.00017549681
-0.0033610401
-0.00050380459
-0.0032787655
-0.00082700731
-0.0031650108
-0.0011420333
-0.0030208725
-0.0014458943
-0.0028477353
-0.0017357118
-0.00264726
-0.002008743
-0.0024213685
-0.0022624059
-0.0021722264
-0.0024943028
-0.001902223
-0.002702243
-0.0016139485
-0.0028842632
-0.0013101698
-0.0030386457
-0.00099380356
-0.0031639346
-0.00066788844
-0.0032589487
-0.00033555552
-0.0033227929
1.9158887e-09
-0.003354866
0.00033555933
-0.0033548658
0.00066789218
-0.0033227924
0.00099380718
-0.0032589478
0.0013101732
-0.0031639333
0.0016139518
-0.0030386441
0.001902226
-0.0028842612
0.0021722292
-0.0027022408
0.002421371
-0.0024943003
0.0026472622
-0.0022624033
0.0028477372
-0.0020087402
0.0030208741
-0.0017357089
0.0031650121
-0.0014458913
0.0032787665
-0.0011420302
0.0033610409
-0.00082700423
0.0034110365
-0.00050380149
0.0034282594
-0.00017549369
0.003412525
0.00015479082
0.0033639606
0.00048389445
0.0032830052
0.00080865814
0.0031704068
0.00112595
0.0030272176
0.0014326947
0.002854786
0.0017259031
0.0026547454
0.002002702
0.0024290012
0.0022603649
0.0021797131
0.0024963405
0.0019092759
0.0027082814
0.0016202965
0.0028940705
0.0013155688
0.0030518452
0.00099804576
0.0031800191
0.00067081065
0.0032773001
0.00033704529
0.0033427058
0.0033755749
-0.00037530592
0.0037508784
-0.00074695935
0.0037143586
-0.0011113492
0.0036416888
-0.0014649361
0.0035336044
-0.0018042899
0.0033911971
-0.0021261248
0.0032159031
-0.0024273316
0.0030094856
-0.0027050084
0.0027740145
-0.002956489
0.0025118425
-0.0031793676
0.0022255776
-0.0033715215
0.0019180537
-0.0035311292
0.0015922992
-0.003656686
0.0012515037
-0.0037470163
0.00089898521
-0.0038012818
0.0005381568
-0.0038189878
0.00017249368
-0.0037999859
-0.0001944987
-0.0037444744
-0.00055931613
-0.0036529958
-0.00091848589
-0.0035264323
-0.0012685968
-0.0033659981
-0.0016063284
-0.0031732296
-0.0019284804
-0.0029499716
-0.002232001
-0.0026983619
-0.0025140156
-0.0024208112
-0.0027718535
-0.0021199811
-0.0030030731
-0.0017987592
-0.0032054851
-0.0014602311
-0.0033771738
-0.0011076511
-0.0035165146
-0.00074441044
-0.0036221894
-0.00037400429
-0.0036931991
2.1415232e-09
-0.0037288724
0.00037400855
-0.0037288722
0.00074441461
-0.0036931984
0.0011076552