/*--------------------------------*- C++ -*----------------------------------*\
| =========                 |                                                 |
| \\      /  F ield         | OpenFOAM: The Open Source CFD Toolbox           |
|  \\    /   O peration     | Version:  2106                                  |
|   \\  /    A nd           | Website:  www.openfoam.com                      |
|    \\/     M anipulation  |                                                 |
\*---------------------------------------------------------------------------*/
FoamFile
{
    version     2.0;
    format      ascii;
    arch        "LSB;label=32;scalar=64";
    class       volVectorField;
    location    "0.027";
    object      U_0;
}
// * * * * * * * * * * * * * * * * * * * * * * * * * * * * * * * * * * * * * //

dimensions      [0 1 -1 0 0 0 0];

internalField   nonuniform List<vector> 
4096
(
(-0.0050920512 0.0050724854 0)
(-0.015226599 0.0050232227 0)
(-0.025213269 0.0049251881 0)
(-0.034955115 0.004779357 0)
(-0.044357623 0.0045871793 0)
(-0.053329654 0.0043505639 0)
(-0.061784343 0.0040718573 0)
(-0.069639952 0.0037538191 0)
(-0.07682067 0.0033995921 0)
(-0.083257349 0.003012669 0)
(-0.088888171 0.0025968554 0)
(-0.093659234 0.0021562304 0)
(-0.097525053 0.0016951037 0)
(-0.10044898 0.0012179649 0)
(-0.10240367 0.000729418 0)
(-0.10337066 0.00023436381 0)
(-0.10334206 -0.00026262846 0)
(-0.10231857 -0.00075667069 0)
(-0.10031095 -0.0012430363 0)
(-0.097339292 -0.0017170726 0)
(-0.093432897 -0.0021742598 0)
(-0.088629955 -0.0026102524 0)
(-0.082977173 -0.0030209183 0)
(-0.076529296 -0.0034023765 0)
(-0.069348574 -0.0037510312 0)
(-0.061504156 -0.004063604 0)
(-0.053071421 -0.0043371622 0)
(-0.044131265 -0.004569144 0)
(-0.034769328 -0.004757381 0)
(-0.025075191 -0.0049001157 0)
(-0.015141531 -0.0049960174 0)
(-0.0050632611 -0.0050441925 0)
(0.0050633625 -0.0050441922 0)
(0.015141632 -0.0049960167 0)
(0.025075289 -0.0049001146 0)
(0.034769424 -0.0047573793 0)
(0.044131357 -0.004569142 0)
(0.053071508 -0.0043371597 0)
(0.061504238 -0.0040636011 0)
(0.06934865 -0.003751028 0)
(0.076529365 -0.0034023729 0)
(0.082977234 -0.0030209145 0)
(0.088630009 -0.0026102483 0)
(0.093432942 -0.0021742555 0)
(0.097339329 -0.0017170681 0)
(0.10031097 -0.0012430317 0)
(0.10231858 -0.00075666597 0)
(0.10334207 -0.00026262368 0)
(0.10337066 0.0002343686 0)
(0.10240366 0.00072942277 0)
(0.10044896 0.0012179696 0)
(0.097525023 0.0016951083 0)
(0.093659195 0.0021562348 0)
(0.088888123 0.0025968596 0)
(0.083257293 0.003012673 0)
(0.076820606 0.0033995958 0)
(0.069639881 0.0037538225 0)
(0.061784266 0.0040718603 0)
(0.053329571 0.0043505665 0)
(0.044357535 0.0045871815 0)
(0.034955023 0.0047793587 0)
(0.025213175 0.0049251894 0)
(0.015226502 0.0050232235 0)
(0.0050919535 0.0050724857 0)
(-0.005138841 0.015254617 0)
(-0.015366503 0.01510646 0)
(-0.025444901 0.014811623 0)
(-0.035276179 0.01437304 0)
(-0.044764942 0.013795072 0)
(-0.053819203 0.013083462 0)
(-0.062351289 0.012245267 0)
(-0.070278708 0.011288789 0)
(-0.077524953 0.01022348 0)
(-0.084020248 0.0090598467 0)
(-0.089702215 0.0078093349 0)
(-0.09451647 0.0064842131 0)
(-0.09841713 0.0050974438 0)
(-0.10136724 0.0036625459 0)
(-0.10333914 0.0021934459 0)
(-0.10431455 0.00070445663 0)
(-0.10428502 -0.00079005718 0)
(-0.10325161 -0.0022757552 0)
(-0.10122513 -0.0037383662 0)
(-0.098225882 -0.0051638943 0)
(-0.094283434 -0.0065387472 0)
(-0.089436349 -0.0078498572 0)
(-0.083731767 -0.0090847995 0)
(-0.07722494 -0.010231904 0)
(-0.069978689 -0.011280359 0)
(-0.062062792 -0.012220308 0)
(-0.053553311 -0.013042931 0)
(-0.044531871 -0.013740528 0)
(-0.035084882 -0.014306577 0)
(-0.025302727 -0.014735795 0)
(-0.015278913 -0.015024181 0)
(-0.0051091982 -0.015169048 0)
(0.0051093012 -0.015169048 0)
(0.015279015 -0.015024179 0)
(0.025302827 -0.014735792 0)
(0.03508498 -0.014306572 0)
(0.044531965 -0.013740521 0)
(0.0535534 -0.013042924 0)
(0.062062875 -0.012220299 0)
(0.069978767 -0.01128035 0)
(0.07722501 -0.010231893 0)
(0.083731829 -0.0090847879 0)
(0.089436403 -0.0078498448 0)
(0.09428348 -0.0065387342 0)
(0.098225919 -0.0051638808 0)
(0.10122516 -0.0037383523 0)
(0.10325163 -0.002275741 0)
(0.10428503 -0.00079004279 0)
(0.10431455 0.00070447106 0)
(0.10333913 0.0021934603 0)
(0.10136722 0.00366256 0)
(0.0984171 0.0050974576 0)
(0.094516431 0.0064842264 0)
(0.089702167 0.0078093476 0)
(0.084020191 0.0090598587 0)
(0.077524889 0.010223491 0)
(0.070278636 0.011288799 0)
(0.06235121 0.012245276 0)
(0.053819119 0.01308347 0)
(0.044764853 0.013795079 0)
(0.035276086 0.014373045 0)
(0.025444805 0.014811627 0)
(0.015366405 0.015106463 0)
(0.0051387417 0.015254618 0)
(-0.0052077519 0.025563666 0)
(-0.01557255 0.025315358 0)
(-0.025786044 0.024821217 0)
(-0.035749042 0.024086163 0)
(-0.045364849 0.023117509 0)
(-0.054540227 0.021924883 0)
(-0.06318632 0.020520119 0)
(-0.071219524 0.018917135 0)
(-0.07856231 0.017131777 0)
(-0.085143972 0.015181659 0)
(-0.090901313 0.013085968 0)
(-0.09577924 0.010865267 0)
(-0.099731282 0.0085412853 0)
(-0.10272002 0.0061366862 0)
(-0.10471743 0.0036748443 0)
(-0.1057051 0.0011796612 0)
(-0.10567438 -0.0013247742 0)
(-0.10462644 -0.0038143778 0)
(-0.10257226 -0.0062652572 0)
(-0.099532423 -0.0086539694 0)
(-0.095536925 -0.010957742 0)
(-0.090624854 -0.013154682 0)
(-0.084843993 -0.015223973 0)
(-0.078250337 -0.017146065 0)
(-0.070907544 -0.018902846 0)
(-0.06288632 -0.020477804 0)
(-0.054263734 -0.021856165 0)
(-0.045122484 -0.02302503 0)
(-0.035550118 -0.023973475 0)
(-0.025638202 -0.024692651 0)
(-0.015481469 -0.025175854 0)
(-0.0051769283 -0.025418585 0)
(0.005177034 -0.025418584 0)
(0.015481573 -0.02517585 0)
(0.025638305 -0.024692645 0)
(0.035550217 -0.023973467 0)
(0.04512258 -0.02302502 0)
(0.054263825 -0.021856153 0)
(0.062886406 -0.020477789 0)
(0.070907623 -0.01890283 0)
(0.078250409 -0.017146047 0)
(0.084844058 -0.015223953 0)
(0.09062491 -0.013154661 0)
(0.095536972 -0.01095772 0)
(0.099532461 -0.0086539467 0)
(0.10257229 -0.0062652338 0)
(0.10462646 -0.0038143538 0)
(0.10567438 -0.00132475 0)
(0.1057051 0.0011796855 0)
(0.10471742 0.0036748685 0)
(0.10272 0.00613671 0)
(0.099731251 0.0085413085 0)
(0.0957792 0.01086529 0)
(0.090901264 0.013085989 0)
(0.085143914 0.015181679 0)
(0.078562244 0.017131796 0)
(0.07121945 0.018917152 0)
(0.06318624 0.020520135 0)
(0.054540141 0.021924896 0)
(0.045364758 0.02311752 0)
(0.035748947 0.024086171 0)
(0.025785946 0.024821223 0)
(0.01557245 0.025315362 0)
(0.0052076501 0.025563667 0)
(-0.0052999828 0.036033264 0)
(-0.015848326 0.035683215 0)
(-0.026242635 0.034986607 0)
(-0.036381931 0.033950381 0)
(-0.046167779 0.032584853 0)
(-0.055505272 0.0309036 0)
(-0.064303966 0.028923317 0)
(-0.072478773 0.026663629 0)
(-0.079950793 0.024146887 0)
(-0.086648083 0.021397928 0)
(-0.092506344 0.018443808 0)
(-0.097469538 0.015313522 0)
(-0.1014904 0.012037705 0)
(-0.1045309 0.0086483135 0)
(-0.10656254 0.0051783074 0)
(-0.10756662 0.0016613366 0)
(-0.10753439 -0.001868633 0)
(-0.10646709 -0.0053776336 0)
(-0.10437589 -0.008832 0)
(-0.10128179 -0.0121987 0)
(-0.097215339 -0.015445644 0)
(-0.092216325 -0.018541982 0)
(-0.086333388 -0.021458384 0)
(-0.079623514 -0.024167303 0)
(-0.072151485 -0.026643219 0)
(-0.063989245 -0.028862865 0)
(-0.055215211 -0.030805429 0)
(-0.045913521 -0.032452734 0)
(-0.036173245 -0.033789391 0)
(-0.026087538 -0.034802933 0)
(-0.015752776 -0.035483914 0)
(-0.0052676479 -0.035825995 0)
(0.0052677573 -0.035825993 0)
(0.015752884 -0.035483909 0)
(0.026087645 -0.034802924 0)
(0.036173348 -0.03378938 0)
(0.04591362 -0.032452719 0)
(0.055215305 -0.030805411 0)
(0.063989334 -0.028862844 0)
(0.072151567 -0.026643195 0)
(0.079623588 -0.024167277 0)
(0.086333454 -0.021458357 0)
(0.092216383 -0.018541953 0)
(0.097215388 -0.015445613 0)
(0.10128183 -0.012198668 0)
(0.10437592 -0.0088319668 0)
(0.10646711 -0.0053775997 0)
(0.1075344 -0.0018685987 0)
(0.10756662 0.001661371 0)
(0.10656253 0.0051783416 0)
(0.10453088 0.0086483472 0)
(0.10149037 0.012037738 0)
(0.097469496 0.015313554 0)
(0.092506294 0.018443838 0)
(0.086648023 0.021397957 0)
(0.079950725 0.024146914 0)
(0.072478697 0.026663653 0)
(0.064303883 0.028923338 0)
(0.055505183 0.030903619 0)
(0.046167685 0.032584869 0)
(0.036381832 0.033950394 0)
(0.026242534 0.034986616 0)
(0.015848222 0.03568322 0)
(0.0052998777 0.036033266 0)
(-0.005417983 0.046710432 0)
(-0.016201155 0.046256586 0)
(-0.026826801 0.045353424 0)
(-0.037191656 0.044009951 0)
(-0.047195065 0.04223955 0)
(-0.056739982 0.040059836 0)
(-0.065733935 0.037492465 0)
(-0.074089936 0.034562897 0)
(-0.081727336 0.031300123 0)
(-0.088572605 0.027736356 0)
(-0.094560041 0.023906686 0)
(-0.099632391 0.019848715 0)
(-0.10374139 0.015602165 0)
(-0.10684818 0.011208472 0)
(-0.1089237 0.0067103668 0)
(-0.10994888 0.0021514547 0)
(-0.10991482 -0.0024242329 0)
(-0.10882283 -0.0069726589 0)
(-0.10668437 -0.011450194 0)
(-0.10352093 -0.015814031 0)
(-0.099363755 -0.020022587 0)
(-0.094253549 -0.024035885 0)
(-0.088240034 -0.027815918 0)
(-0.081381465 -0.031326992 0)
(-0.073744055 -0.03453604 0)
(-0.065401334 -0.037412914 0)
(-0.056433441 -0.039930647 0)
(-0.046926362 -0.042065687 0)
(-0.036971114 -0.043798095 0)
(-0.026662893 -0.045111715 0)
(-0.016100177 -0.045994313 0)
(-0.0053838125 -0.046437673 0)
(0.0053839264 -0.04643767 0)
(0.016100289 -0.045994306 0)
(0.026663003 -0.045111704 0)
(0.036971222 -0.043798079 0)
(0.046926465 -0.042065667 0)
(0.056433539 -0.039930624 0)
(0.065401426 -0.037412887 0)
(0.07374414 -0.03453601 0)
(0.081381543 -0.031326959 0)
(0.088240104 -0.027815882 0)
(0.09425361 -0.024035846 0)
(0.099363806 -0.020022546 0)
(0.10352097 -0.015813989 0)
(0.1066844 -0.011450151 0)
(0.10882285 -0.0069726147 0)
(0.10991483 -0.0024241882 0)
(0.10994888 0.0021514995 0)
(0.10892369 0.0067104114 0)
(0.10684816 0.011208516 0)
(0.10374135 0.015602208 0)
(0.099632349 0.019848756 0)
(0.094559989 0.023906726 0)
(0.088572544 0.027736393 0)
(0.081727265 0.031300158 0)
(0.074089857 0.034562928 0)
(0.065733849 0.037492493 0)
(0.05673989 0.040059861 0)
(0.047194968 0.042239571 0)
(0.037191554 0.044009968 0)
(0.026826695 0.045353436 0)
(0.016201047 0.046256593 0)
(0.0054178737 0.046710434 0)
(-0.0055655156 0.057650091 0)
(-0.016642289 0.057089852 0)
(-0.027557174 0.055974971 0)
(-0.038204051 0.054316572 0)
(-0.048479487 0.052131189 0)
(-0.058283766 0.049440583 0)
(-0.067521883 0.046271505 0)
(-0.076104476 0.042655403 0)
(-0.083948709 0.038628085 0)
(-0.090979072 0.03422933 0)
(-0.097128105 0.029502471 0)
(-0.10233704 0.024493936 0)
(-0.10655634 0.019252764 0)
(-0.10974616 0.013830106 0)
(-0.11187669 0.008278704 0)
(-0.1129284 0.0026523671 0)
(-0.1128922 -0.0029945655 0)
(-0.11176948 -0.0086077498 0)
(-0.10957206 -0.014133352 0)
(-0.10632204 -0.019518559 0)
(-0.10205154 -0.024712068 0)
(-0.096802369 -0.02966456 0)
(-0.09062562 -0.034329147 0)
(-0.083581122 -0.038661796 0)
(-0.075736878 -0.042621712 0)
(-0.067168398 -0.046171705 0)
(-0.057957977 -0.04927851 0)
(-0.048193911 -0.051913069 0)
(-0.037969661 -0.054050787 0)
(-0.027382974 -0.055671735 0)
(-0.016534971 -0.056760817 0)
(-0.005529201 -0.0573079 0)
(0.0055293203 -0.057307898 0)
(0.016535089 -0.056760808 0)
(0.027383089 -0.055671721 0)
(0.037969773 -0.054050768 0)
(0.048194019 -0.051913045 0)
(0.05795808 -0.049278481 0)
(0.067168494 -0.046171672 0)
(0.075736967 -0.042621674 0)
(0.083581203 -0.038661754 0)
(0.090625692 -0.034329103 0)
(0.096802433 -0.029664512 0)
(0.10205159 -0.024712018 0)
(0.10632208 -0.019518507 0)
(0.10957209 -0.014133299 0)
(0.1117695 -0.0086076949 0)
(0.11289221 -0.00299451 0)
(0.1129284 0.0026524228 0)
(0.11187668 0.0082787594 0)
(0.10974614 0.013830161 0)
(0.10655631 0.019252817 0)
(0.10233699 0.024493988 0)
(0.097128051 0.029502521 0)
(0.090979008 0.034229377 0)
(0.083948636 0.038628128 0)
(0.076104394 0.042655443 0)
(0.067521793 0.04627154 0)
(0.05828367 0.049440614 0)
(0.048479385 0.052131214 0)
(0.038203944 0.054316592 0)
(0.027557063 0.055974986 0)
(0.016642176 0.057089861 0)
(0.0055654014 0.057650094 0)
(-0.0057478253 0.068915732 0)
(-0.01718741 0.068245877 0)
(-0.028459722 0.066912867 0)
(-0.039455117 0.064930014 0)
(-0.050066732 0.062317105 0)
(-0.060191556 0.059100184 0)
(-0.069731453 0.055311259 0)
(-0.078594134 0.050987959 0)
(-0.08669406 0.046173122 0)
(-0.093953274 0.040914338 0)
(-0.10030215 0.035263436 0)
(-0.10568003 0.029275941 0)
(-0.11003583 0.023010495 0)
(-0.11332846 0.016528256 0)
(-0.11552719 0.0098922747 0)
(-0.11661191 0.0031668683 0)
(-0.11657329 -0.0035830159 0)
(-0.11541282 -0.010292429 0)
(-0.11314274 -0.016897039 0)
(-0.10978589 -0.023333736 0)
(-0.10537548 -0.029541218 0)
(-0.099954673 -0.035460558 0)
(-0.093576235 -0.04103573 0)
(-0.086301942 -0.04621412 0)
(-0.078202004 -0.050946985 0)
(-0.069354378 -0.055189888 0)
(-0.059844025 -0.058903079 0)
(-0.049762098 -0.06205184 0)
(-0.039205085 -0.064606781 0)
(-0.028273897 -0.066544087 0)
(-0.017072931 -0.067845722 0)
(-0.0057090886 -0.068499577 0)
(0.0057092142 -0.068499574 0)
(0.017073055 -0.067845711 0)
(0.028274019 -0.06654407 0)
(0.039205203 -0.064606757 0)
(0.049762212 -0.062051811 0)
(0.059844133 -0.058903044 0)
(0.06935448 -0.055189847 0)
(0.078202098 -0.050946939 0)
(0.086302028 -0.046214069 0)
(0.093576311 -0.041035676 0)
(0.099954739 -0.0354605 0)
(0.10537553 -0.029541158 0)
(0.10978594 -0.023333673 0)
(0.11314278 -0.016896974 0)
(0.11541285 -0.010292363 0)
(0.1165733 -0.0035829492 0)
(0.11661191 0.0031669352 0)
(0.11552717 0.0098923413 0)
(0.11332844 0.016528322 0)
(0.1100358 0.02301056 0)
(0.10567999 0.029276003 0)
(0.10030209 0.035263496 0)
(0.093953208 0.040914395 0)
(0.086693984 0.046173175 0)
(0.078594049 0.050988007 0)
(0.06973136 0.055311302 0)
(0.060191455 0.059100221 0)
(0.050066625 0.062317137 0)
(0.039455005 0.064930038 0)
(0.028459606 0.066912885 0)
(0.017187291 0.068245888 0)
(0.0057477052 0.068915735 0)
(-0.005971899 0.080582732 0)
(-0.017857413 0.0797993 0)
(-0.029569045 0.078240276 0)
(-0.040992824 0.075921252 0)
(-0.052017677 0.072865392 0)
(-0.062536546 0.069103185 0)
(-0.072447455 0.064672101 0)
(-0.081654516 0.059616184 0)
(-0.090068873 0.053985573 0)
(-0.097609561 0.047835954 0)
(-0.10420428 0.041227971 0)
(-0.10979009 0.034226581 0)
(-0.11431395 0.026900375 0)
(-0.11773324 0.019320876 0)
(-0.12001612 0.01156181 0)
(-0.12114175 0.0036983742 0)
(-0.12110049 -0.0041935082 0)
(-0.11989394 -0.012037917 0)
(-0.11753483 -0.019759658 0)
(-0.11404692 -0.027284971 0)
(-0.10946471 -0.034542213 0)
(-0.10383305 -0.041462511 0)
(-0.097206747 -0.047980388 0)
(-0.08964995 -0.054034351 0)
(-0.08123558 -0.05956743 0)
(-0.072044604 -0.064527687 0)
(-0.062165258 -0.068868659 0)
(-0.051692217 -0.072549766 0)
(-0.040725699 -0.075536653 0)
(-0.029370517 -0.077801484 0)
(-0.017735109 -0.079323175 0)
(-0.0059305153 -0.080087571 0)
(0.0059306482 -0.080087567 0)
(0.01773524 -0.079323163 0)
(0.029370646 -0.077801464 0)
(0.040725824 -0.075536626 0)
(0.051692338 -0.072549731 0)
(0.062165372 -0.068868618 0)
(0.07204471 -0.064527639 0)
(0.081235679 -0.059567376 0)
(0.08965004 -0.054034291 0)
(0.097206827 -0.047980325 0)
(0.10383312 -0.041462443 0)
(0.10946477 -0.034542142 0)
(0.11404697 -0.027284897 0)
(0.11753486 -0.019759582 0)
(0.11989396 -0.012037839 0)
(0.12110051 -0.0041934298 0)
(0.12114175 0.0036984529 0)
(0.12001611 0.011561889 0)
(0.11773322 0.019320953 0)
(0.11431391 0.026900451 0)
(0.10979004 0.034226654 0)
(0.10420422 0.041228042 0)
(0.097609491 0.047836021 0)
(0.090068793 0.053985635 0)
(0.081654427 0.059616241 0)
(0.072447357 0.064672152 0)
(0.06253644 0.069103229 0)
(0.052017564 0.072865429 0)
(0.040992705 0.075921281 0)
(0.029568923 0.078240298 0)
(0.017857288 0.079799313 0)
(0.0059717721 0.080582737 0)
(-0.0062467755 0.092742307 0)
(-0.018679327 0.091840439 0)
(-0.030929902 0.090045743 0)
(-0.042879229 0.087376187 0)
(-0.054411081 0.08385847 0)
(-0.065413443 0.079527727 0)
(-0.075779629 0.074427138 0)
(-0.085409343 0.06860745 0)
(-0.094209661 0.062126425 0)
(-0.10209593 0.055048206 0)
(-0.10899258 0.047442636 0)
(-0.11483382 0.039384509 0)
(-0.11956427 0.030952794 0)
(-0.1231394 0.022229816 0)
(-0.12552597 0.013300423 0)
(-0.12670226 0.0042511414 0)
(-0.12665823 -0.004830675 0)
(-0.12539556 -0.013857686 0)
(-0.12292762 -0.022743393 0)
(-0.11927926 -0.031402949 0)
(-0.11448653 -0.039753945 0)
(-0.10859635 -0.047717154 0)
(-0.10166599 -0.055217258 0)
(-0.093762527 -0.062183513 0)
(-0.084962195 -0.068550379 0)
(-0.075349648 -0.074258098 0)
(-0.06501715 -0.079253212 0)
(-0.054063704 -0.083489027 0)
(-0.042594115 -0.086926012 0)
(-0.030718004 -0.089532134 0)
(-0.018548787 -0.091283132 0)
(-0.0062026055 -0.092162718 0)
(0.0062027466 -0.092162713 0)
(0.018548926 -0.091283118 0)
(0.030718141 -0.089532111 0)
(0.042594248 -0.08692598 0)
(0.054063832 -0.083488986 0)
(0.065017271 -0.079253163 0)
(0.075349762 -0.074258042 0)
(0.0849623 -0.068550316 0)
(0.093762622 -0.062183444 0)
(0.10166608 -0.055217184 0)
(0.10859643 -0.047717076 0)
(0.1144866 -0.039753862 0)
(0.11927931 -0.031402864 0)
(0.12292766 -0.022743305 0)
(0.12539559 -0.013857596 0)
(0.12665824 -0.0048305843 0)
(0.12670226 0.0042512325 0)
(0.12552596 0.013300514 0)
(0.12313938 0.022229906 0)
(0.11956423 0.030952882 0)
(0.11483378 0.039384595 0)
(0.10899252 0.047442718 0)
(0.10209586 0.055048284 0)
(0.094209578 0.062126497 0)
(0.085409249 0.068607517 0)
(0.075779525 0.074427197 0)
(0.065413331 0.079527779 0)
(0.054410962 0.083858513 0)
(0.042879104 0.087376221 0)
(0.030929772 0.090045768 0)
(0.018679194 0.091840454 0)
(0.0062466409 0.092742312 0)
(-0.0065838323 0.10550592 0)
(-0.019687175 0.10447967 0)
(-0.032598635 0.10243748 0)
(-0.045192455 0.099399811 0)
(-0.057346097 0.095397092 0)
(-0.068941477 0.09046935 0)
(-0.079866144 0.084665774 0)
(-0.090014401 0.078044165 0)
(-0.099288337 0.070670305 0)
(-0.10759878 0.062617232 0)
(-0.11486613 0.053964454 0)
(-0.12102114 0.044797104 0)
(-0.12600548 0.035205042 0)
(-0.12977233 0.025281933 0)
(-0.13228669 0.01512429 0)
(-0.13352573 0.004830522 0)
(-0.13347891 -0.0055000371 0)
(-0.13214803 -0.015768077 0)
(-0.12954714 -0.02587525 0)
(-0.12570243 -0.035725091 0)
(-0.12065187 -0.045223898 0)
(-0.11444483 -0.054281593 0)
(-0.10714163 -0.062812527 0)
(-0.098812905 -0.070736249 0)
(-0.089538954 -0.077978222 0)
(-0.079408951 -0.084470473 0)
(-0.068520104 -0.090152195 0)
(-0.056976735 -0.094970267 0)
(-0.044889295 -0.098879715 0)
(-0.032373325 -0.1018441 0)
(-0.019548372 -0.10383581 0)
(-0.0065368663 -0.10483631 0)
(0.0065370166 -0.1048363 0)
(0.019548521 -0.10383579 0)
(0.032373471 -0.10184407 0)
(0.044889436 -0.098879678 0)
(0.05697687 -0.09497022 0)
(0.068520232 -0.090152139 0)
(0.079409071 -0.084470409 0)
(0.089539066 -0.07797815 0)
(0.098813006 -0.070736171 0)
(0.10714172 -0.062812442 0)
(0.11444491 -0.054281503 0)
(0.12065193 -0.045223804 0)
(0.12570249 -0.035724993 0)
(0.12954719 -0.02587515 0)
(0.13214805 -0.015767974 0)
(0.13347893 -0.0054999336 0)
(0.13352574 0.004830626 0)
(0.13228668 0.015124394 0)
(0.1297723 0.025282035 0)
(0.12600545 0.035205143 0)
(0.12102109 0.044797202 0)
(0.11486607 0.053964549 0)
(0.1075987 0.062617322 0)
(0.099288249 0.070670389 0)
(0.090014302 0.078044242 0)
(0.079866035 0.084665843 0)
(0.068941358 0.09046941 0)
(0.057345971 0.095397143 0)
(0.045192322 0.099399851 0)
(0.032598497 0.10243751 0)
(0.019687033 0.10447969 0)
(0.0065836889 0.10550592 0)
(-0.0069969555 0.11901019 0)
(-0.020922482 0.11785229 0)
(-0.034644012 0.11554813 0)
(-0.048027857 0.11212084 0)
(-0.060943757 0.1076048 0)
(-0.073266203 0.10204522 0)
(-0.084875688 0.095497678 0)
(-0.095659899 0.088027448 0)
(-0.10551482 0.079708817 0)
(-0.11434572 0.070624248 0)
(-0.1220681 0.060863489 0)
(-0.1286084 0.050522615 0)
(-0.13390474 0.039703013 0)
(-0.13790739 0.028510336 0)
(-0.14057923 0.017053431 0)
(-0.14189604 0.0054432565 0)
(-0.14184661 -0.0062081958 0)
(-0.14043284 -0.017788974 0)
(-0.13766966 -0.029188216 0)
(-0.13358481 -0.04029718 0)
(-0.12821856 -0.051010235 0)
(-0.12162333 -0.061225822 0)
(-0.11386311 -0.070847368 0)
(-0.1050129 -0.079784147 0)
(-0.09515797 -0.08795209 0)
(-0.084393027 -0.095274522 0)
(-0.072821356 -0.10168284 0)
(-0.060553817 -0.10711711 0)
(-0.047707807 -0.11152659 0)
(-0.034406149 -0.11487014 0)
(-0.020775944 -0.11711662 0)
(-0.0069473708 -0.11824511 0)
(0.0069475316 -0.1182451 0)
(0.020776103 -0.1171166 0)
(0.034406305 -0.11487011 0)
(0.047707958 -0.11152655 0)
(0.060553962 -0.10711706 0)
(0.072821494 -0.10168278 0)
(0.084393156 -0.095274449 0)
(0.095158088 -0.087952008 0)
(0.10501301 -0.079784058 0)
(0.11386321 -0.070847272 0)
(0.12162341 -0.06122572 0)
(0.12821864 -0.051010128 0)
(0.13358487 -0.040297069 0)
(0.1376697 -0.029188103 0)
(0.14043287 -0.017788858 0)
(0.14184662 -0.0062080789 0)
(0.14189604 0.005443374 0)
(0.14057922 0.017053548 0)
(0.13790736 0.028510452 0)
(0.1339047 0.039703128 0)
(0.12860835 0.050522726 0)
(0.12206803 0.060863596 0)
(0.11434565 0.07062435 0)
(0.10551473 0.079708913 0)
(0.095659795 0.088027536 0)
(0.084875572 0.095497757 0)
(0.073266077 0.10204529 0)
(0.060943622 0.10760486 0)
(0.048027714 0.11212089 0)
(0.034643864 0.11554817 0)
(0.02092233 0.11785231 0)
(0.0069968019 0.1190102 0)
(-0.0075024693 0.133422 0)
(-0.022434066 0.13212356 0)
(-0.037146882 0.12953974 0)
(-0.051497544 0.12569654 0)
(-0.065346369 0.12063255 0)
(-0.078558776 0.11439854 0)
(-0.091006636 0.10705691 0)
(-0.10256955 0.098680939 0)
(-0.11313602 0.089354002 0)
(-0.12260455 0.079168632 0)
(-0.13088457 0.068225516 0)
(-0.13789729 0.056632407 0)
(-0.14357642 0.044502988 0)
(-0.14786868 0.031955696 0)
(-0.15073432 0.01911252 0)
(-0.15214735 0.00609779 0)
(-0.15209575 -0.0069630221 0)
(-0.1505815 -0.0199445 0)
(-0.14762051 -0.032722452 0)
(-0.14324243 -0.045175052 0)
(-0.13749033 -0.057183952 0)
(-0.13042026 -0.068635345 0)
(-0.12210074 -0.079420993 0)
(-0.11261206 -0.089439191 0)
(-0.10204556 -0.098595678 0)
(-0.090502764 -0.10680447 0)
(-0.078094378 -0.11398861 0)
(-0.064939289 -0.12008088 0)
(-0.051163424 -0.12502433 0)
(-0.03689856 -0.12877281 0)
(-0.022281082 -0.13129138 0)
(-0.0074507003 -0.13255655 0)
(0.0074508729 -0.13255654 0)
(0.022281253 -0.13129136 0)
(0.036898727 -0.12877278 0)
(0.051163586 -0.12502428 0)
(0.064939445 -0.12008082 0)
(0.078094525 -0.11398854 0)
(0.090502901 -0.10680439 0)
(0.10204569 -0.098595585 0)
(0.11261217 -0.08943909 0)
(0.12210084 -0.079420884 0)
(0.13042035 -0.06863523 0)
(0.1374904 -0.057183832 0)
(0.14324249 -0.045174928 0)
(0.14762056 -0.032722325 0)
(0.15058153 -0.019944371 0)
(0.15209577 -0.0069628911 0)
(0.15214736 0.0060979216 0)
(0.15073431 0.019112651 0)
(0.14786866 0.031955827 0)
(0.14357638 0.044503117 0)
(0.13789724 0.056632532 0)
(0.1308845 0.068225637 0)
(0.12260447 0.079168748 0)
(0.11313593 0.08935411 0)
(0.10256944 0.098681039 0)
(0.091006512 0.107057 0)
(0.078558641 0.11439862 0)
(0.065346225 0.12063261 0)
(0.051497391 0.12569659 0)
(0.037146723 0.12953978 0)
(0.022433903 0.13212358 0)
(0.0075023039 0.13342201 0)
(-0.0081186726 0.14894311 0)
(-0.02427665 0.14749329 0)
(-0.040197875 0.14460826 0)
(-0.055727203 0.14031708 0)
(-0.070713486 0.13466292 0)
(-0.085011108 0.12770254 0)
(-0.098481446 0.11950569 0)
(-0.11099425 0.1101543 0)
(-0.12242892 0.099741526 0)
(-0.13267566 0.088370769 0)
(-0.14163654 0.076154494 0)
(-0.14922635 0.063213028 0)
(-0.15537338 0.049673288 0)
(-0.16002003 0.035667459 0)
(-0.16312325 0.021331654 0)
(-0.16465491 0.0068045791 0)
(-0.16460191 -0.0077738134 0)
(-0.16296629 -0.022263639 0)
(-0.15976513 -0.036526375 0)
(-0.15503034 -0.050426128 0)
(-0.14880835 -0.063830859 0)
(-0.14115964 -0.07661357 0)
(-0.13215818 -0.088653445 0)
(-0.12189074 -0.099836932 0)
(-0.11045605 -0.11005876 0)
(-0.097963899 -0.11922287 0)
(-0.084534102 -0.12724329 0)
(-0.07029535 -0.13404489 0)
(-0.055384004 -0.13956401 0)
(-0.039942802 -0.14374908 0)
(-0.024119503 -0.14656101 0)
(-0.0080654885 -0.14797356 0)
(0.0080656748 -0.14797355 0)
(0.024119688 -0.14656099 0)
(0.039942983 -0.14374904 0)
(0.055384179 -0.13956396 0)
(0.070295517 -0.13404482 0)
(0.08453426 -0.12724321 0)
(0.097964046 -0.11922278 0)
(0.11045618 -0.11005865 0)
(0.12189086 -0.099836818 0)
(0.13215829 -0.088653324 0)
(0.14115973 -0.076613441 0)
(0.14880843 -0.063830725 0)
(0.1550304 -0.05042599 0)
(0.15976518 -0.036526233 0)
(0.16296632 -0.022263495 0)
(0.16460193 -0.007773668 0)
(0.16465492 0.0068047254 0)
(0.16312325 0.021331801 0)
(0.16002 0.035667604 0)
(0.15537334 0.049673432 0)
(0.14922629 0.063213169 0)
(0.14163647 0.07615463 0)
(0.13267557 0.0883709 0)
(0.12242881 0.099741649 0)
(0.11099413 0.11015441 0)
(0.098481314 0.11950579 0)
(0.085010963 0.12770263 0)
(0.07071333 0.13466299 0)
(0.055727038 0.14031714 0)
(0.040197703 0.1446083 0)
(0.024276473 0.14749331 0)
(0.0081184931 0.14894312 0)
(-0.0088648007 0.16581341 0)
(-0.02650776 0.16419906 0)
(-0.043892272 0.16098667 0)
(-0.060848973 0.15620864 0)
(-0.077212873 0.14991308 0)
(-0.092825017 0.14216331 0)
(-0.10753409 0.13303707 0)
(-0.12119793 0.12262567 0)
(-0.1336849 0.11103294 0)
(-0.14487518 0.098374066 0)
(-0.15466186 0.084774325 0)
(-0.16295194 0.0703677 0)
(-0.16966714 0.055295469 0)
(-0.17474454 0.039704732 0)
(-0.17813711 0.023746926 0)
(-0.17981399 0.0075763375 0)
(-0.17976078 -0.008651379 0)
(-0.17797951 -0.024780649 0)
(-0.17448862 -0.040657406 0)
(-0.16932273 -0.056130482 0)
(-0.16253227 -0.071052962 0)
(-0.15418305 -0.085283499 0)
(-0.14435562 -0.098687579 0)
(-0.13314456 -0.11113873 0)
(-0.12065756 -0.12251966 0)
(-0.10701445 -0.13272333 0)
(-0.09234607 -0.14165388 0)
(-0.076793028 -0.14922752 0)
(-0.060504366 -0.15537328 0)
(-0.043636145 -0.16003362 0)
(-0.026349958 -0.16316492 0)
(-0.0088113839 -0.16473792 0)
(0.0088115863 -0.16473792 0)
(0.026350158 -0.1631649 0)
(0.043636341 -0.16003357 0)
(0.060504555 -0.15537322 0)
(0.076793209 -0.14922744 0)
(0.09234624 -0.14165378 0)
(0.10701461 -0.13272322 0)
(0.1206577 -0.12251955 0)
(0.13314469 -0.1111386 0)
(0.14435574 -0.098687442 0)
(0.15418315 -0.085283356 0)
(0.16253236 -0.071052813 0)
(0.1693228 -0.056130329 0)
(0.17448868 -0.04065725 0)
(0.17797955 -0.02478049 0)
(0.1797608 -0.0086512186 0)
(0.179814 0.0075764989 0)
(0.1781371 0.023747088 0)
(0.17474452 0.039704893 0)
(0.1696671 0.055295629 0)
(0.16295188 0.070367858 0)
(0.15466178 0.084774479 0)
(0.14487509 0.098374214 0)
(0.1336848 0.11103308 0)
(0.12119781 0.12262579 0)
(0.10753395 0.13303718 0)
(0.092824861 0.14216341 0)
(0.077212704 0.14991317 0)
(0.060848794 0.15620871 0)
(0.043892083 0.16098672 0)
(0.026507567 0.16419909 0)
(0.0088646042 0.16581342 0)
(-0.0097592203 0.18431142 0)
(-0.029182326 0.18251674 0)
(-0.048321057 0.17894554 0)
(-0.066989058 0.17363387 0)
(-0.085004781 0.1666353 0)
(-0.10219332 0.15802029 0)
(-0.11838817 0.14787537 0)
(-0.13343288 0.13630213 0)
(-0.14718259 0.12341609 0)
(-0.15950543 0.10934535 0)
(-0.17028372 0.094229224 0)
(-0.17941509 0.07821664 0)
(-0.18681331 0.061464597 0)
(-0.19240905 0.044136516 0)
(-0.19615039 0.02640059 0)
(-0.19800323 0.0084281429 0)
(-0.19795147 -0.0096079972 0)
(-0.1959971 -0.027535094 0)
(-0.19216012 -0.045182065 0)
(-0.1864783 -0.062381009 0)
(-0.17900688 -0.078968696 0)
(-0.16981798 -0.094788021 0)
(-0.15900004 -0.10968941 0)
(-0.14665697 -0.12353217 0)
(-0.13290721 -0.13618576 0)
(-0.11788266 -0.14753099 0)
(-0.10172739 -0.15746113 0)
(-0.084596332 -0.16588282 0)
(-0.066653793 -0.17271697 0)
(-0.048071864 -0.17789946 0)
(-0.029028784 -0.18138166 0)
(-0.0097072284 -0.18313096 0)
(0.0097074502 -0.18313095 0)
(0.029029003 -0.18138163 0)
(0.048072078 -0.1778994 0)
(0.066654 -0.17271691 0)
(0.084596529 -0.16588273 0)
(0.10172757 -0.15746103 0)
(0.11788283 -0.14753088 0)
(0.13290737 -0.13618562 0)
(0.14665711 -0.12353202 0)
(0.15900017 -0.10968926 0)
(0.16981809 -0.094787862 0)
(0.17900697 -0.078968531 0)
(0.18647838 -0.06238084 0)
(0.19216017 -0.045181893 0)
(0.19599714 -0.02753492 0)
(0.19795149 -0.0096078214 0)
(0.19800324 0.0084283199 0)
(0.19615038 0.026400768 0)
(0.19240903 0.044136694 0)
(0.18681327 0.061464775 0)
(0.17941503 0.078216816 0)
(0.17028365 0.094229396 0)
(0.15950533 0.10934552 0)
(0.14718247 0.12341624 0)
(0.13343274 0.13630228 0)
(0.11838801 0.1478755 0)
(0.10219315 0.15802041 0)
(0.085004596 0.1666354 0)
(0.06698886 0.17363395 0)
(0.048320849 0.1789456 0)
(0.029182112 0.18251678 0)
(0.0097590028 0.18431143 0)
(-0.010816668 0.20475033 0)
(-0.032344424 0.20275654 0)
(-0.053557251 0.19878913 0)
(-0.074248764 0.19288821 0)
(-0.09421789 0.18511337 0)
(-0.1132709 0.17554293 0)
(-0.13122334 0.1642731 0)
(-0.14790191 0.15141685 0)
(-0.16314608 0.13710256 0)
(-0.17680972 0.12147262 0)
(-0.18876238 0.10468178 0)
(-0.19889054 0.086895472 0)
(-0.20709853 0.06828802 0)
(-0.21330936 0.049040829 0)
(-0.21746529 0.029340557 0)
(-0.21952825 0.0093773018 0)
(-0.21948011 -0.010657183 0)
(-0.21732271 -0.030571238 0)
(-0.21307783 -0.050175007 0)
(-0.20678695 -0.069282108 0)
(-0.19851087 -0.08771127 0)
(-0.18832919 -0.10528794 0)
(-0.17633964 -0.12184583 0)
(-0.16265716 -0.13722846 0)
(-0.14741292 -0.15129058 0)
(-0.13075308 -0.16389948 0)
(-0.11283742 -0.17493629 0)
(-0.093837876 -0.18429699 0)
(-0.073936821 -0.19189347 0)
(-0.053325376 -0.19765422 0)
(-0.032201535 -0.20152507 0)
(-0.010768256 -0.20346963 0)
(0.010768502 -0.20346962 0)
(0.032201777 -0.20152504 0)
(0.053325613 -0.19765416 0)
(0.07393705 -0.19189339 0)
(0.093838093 -0.1842969 0)
(0.11283763 -0.17493617 0)
(0.13075327 -0.16389935 0)
(0.14741309 -0.15129043 0)
(0.16265731 -0.1372283 0)
(0.17633977 -0.12184566 0)
(0.18832931 -0.10528776 0)
(0.19851097 -0.087711088 0)
(0.20678703 -0.069281922 0)
(0.2130779 -0.050174819 0)
(0.21732276 -0.030571048 0)
(0.21948014 -0.010656991 0)
(0.21952827 0.0093774948 0)
(0.21746529 0.029340751 0)
(0.21330934 0.049041024 0)
(0.20709849 0.068288216 0)
(0.19889048 0.086895668 0)
(0.1887623 0.10468197 0)
(0.17680962 0.12147281 0)
(0.16314596 0.13710274 0)
(0.14790176 0.15141702 0)
(0.13122318 0.16427326 0)
(0.11327071 0.17554306 0)
(0.094217684 0.18511348 0)
(0.074248543 0.19288831 0)
(0.053557019 0.1987892 0)
(0.032344185 0.20275658 0)
(0.010816424 0.20475035 0)
(-0.012044388 0.22746747 0)