/*--------------------------------*- C++ -*----------------------------------*\
| =========                 |                                                 |
| \\      /  F ield         | OpenFOAM: The Open Source CFD Toolbox           |
|  \\    /   O peration     | Version:  2306                                  |
|   \\  /    A nd           | Website:  www.openfoam.com                      |
|    \\/     M anipulation  |                                                 |
\*---------------------------------------------------------------------------*/
FoamFile
{
    version     2.0;
    format      ascii;
    arch        "LSB;label=32;scalar=64";
    class       surfaceScalarField;
    location    "0.32";
    object      phi_0;
}
// * * * * * * * * * * * * * * * * * * * * * * * * * * * * * * * * * * * * * //

dimensions      [0 3 -1 0 0 0 0];

oriented        oriented;

internalField   nonuniform List<scalar> 
12640
(
2.4579505e-07
-1.4842722e-06
9.817603e-07
-4.4383919e-06
2.1900364e-06
-7.2631728e-06
3.8392273e-06
-9.853588e-06
5.8827805e-06
-1.2090302e-05
8.2629066e-06
-1.3872407e-05
1.0913293e-05
-1.5117559e-05
1.3760407e-05
-1.5757102e-05
1.6724859e-05
-1.5735672e-05
1.9722211e-05
-1.501129e-05
2.2665049e-05
-1.3556848e-05
2.5464417e-05
-1.136078e-05
2.8032479e-05
-8.4278445e-06
3.0283085e-05
-4.7794927e-06
3.2143112e-05
-4.5132162e-07
3.3532948e-05
4.5106703e-06
3.4391527e-05
1.0034504e-05
3.4664245e-05
1.6050025e-05
3.4306255e-05
2.2475565e-05
3.3282479e-05
2.9222969e-05
3.1567454e-05
3.6199267e-05
2.9145003e-05
4.3308076e-05
2.6007877e-05
5.0450613e-05
2.2157783e-05
5.7526074e-05
1.7605062e-05
6.4432242e-05
1.2368308e-05
7.1065421e-05
6.4773026e-06
7.732e-05
-3.1301485e-08
8.3092317e-05
-7.1054414e-06
8.8281647e-05
-1.468492e-05
9.2767982e-05
-2.2694294e-05
9.6452755e-05
-3.1043576e-05
9.9234195e-05
-3.9627963e-05
0.0001010176
-4.8327714e-05
0.00010171821
-5.7008812e-05
0.00010126533
-6.5524687e-05
9.9607031e-05
-7.371911e-05
9.6715101e-05
-8.1430351e-05
9.2589828e-05
-8.8496575e-05
8.726416e-05
-9.4762274e-05
8.0806655e-05
-0.00010008536
7.332264e-05
-0.00010434439
6.4953096e-05
-0.00010744522
5.5871092e-05
-0.00010932666
4.6276223e-05
-0.0001099644
3.6386702e-05
-0.0001093731
2.6430077e-05
-0.00010760573
1.6632437e-05
-0.0001047539
7.2122316e-06
-0.00010092089
-1.657025e-06
-9.6268308e-05
-9.7847967e-06
-9.0951636e-05
-1.7044727e-05
-8.5141271e-05
-2.3349184e-05
-7.9009137e-05
-2.8643877e-05
-7.2721918e-05
-3.2912476e-05
-6.6434928e-05
-3.6173763e-05
-6.0287123e-05
-3.84774e-05
-5.4397384e-05
-3.9898684e-05
-4.8862114e-05
-4.0532688e-05
-4.3754041e-05
-4.0488246e-05
-3.9121986e-05
-3.988238e-05
-3.4991855e-05
-3.88345e-05
-3.1368519e-05
-3.7461163e-05
-2.8238416e-05
-3.5871538e-05
-2.5572774e-05
-3.4163633e-05
-2.3331186e-05
-3.2421545e-05
-2.1465301e-05
-3.0713774e-05
-1.9922417e-05
-2.9092572e-05
-1.8648687e-05
-2.7594385e-05
-1.759207e-05
-2.6240905e-05
-1.6704765e-05
-2.5040708e-05
-1.5944895e-05
-2.3991675e-05
-1.5277458e-05
-2.3083679e-05
-1.4674635e-05
-2.2301236e-05
-1.4115549e-05
-2.1625953e-05
-1.3585602e-05
-2.1038607e-05
-1.3075556e-05
-2.0520771e-05
-1.2580409e-05
-2.0056026e-05
-1.2098232e-05
-1.9630673e-05
-1.1629116e-05
-1.9233989e-05
-1.8858138e-05
2.8457072e-07
-1.7688429e-06
1.1364271e-06
-5.2902483e-06
2.5321393e-06
-8.6588849e-06
4.4328742e-06
-1.1754323e-05
6.7827235e-06
-1.4440151e-05
9.5148502e-06
-1.6604533e-05
1.2554058e-05
-1.8156766e-05
1.581772e-05
-1.9020765e-05
1.9216424e-05
-1.9134375e-05
2.2654926e-05
-1.8449793e-05
2.6033762e-05
-1.6935684e-05
2.9251719e-05
-1.4578738e-05
3.2208863e-05
-1.1384989e-05
3.4809052e-05
-7.3796816e-06
3.6963837e-05
-2.6061064e-06
3.8591239e-05
2.8832684e-06
3.9620514e-05
9.0052289e-06
3.999221e-05
1.5678329e-05
3.9658121e-05
2.2809655e-05
3.8581045e-05
3.0300045e-05
3.6734399e-05
3.8045913e-05
3.4101582e-05
4.5940893e-05
3.0675454e-05
5.3876742e-05
2.6457606e-05
6.1743922e-05
2.145837e-05
6.9431478e-05
1.5696752e-05
7.6827038e-05
9.2006608e-06
8.3816091e-05
2.010299e-06
9.0282678e-05
-5.819095e-06
9.6111041e-05
-1.4229937e-05
0.00010117882
-2.3140565e-05
0.00010536338
-3.2453817e-05
0.00010854745
-4.2054807e-05
0.00011061859
-5.1810075e-05
0.00011147348
-6.1567826e-05
0.00011102308
-7.1159518e-05
0.00010919872
-8.0402965e-05
0.00010595855
-8.9107145e-05
0.00010129401
-9.7078725e-05
9.523574e-05
-0.00010413012
8.7858048e-05
-0.00011008859
7.9281115e-05
-0.00011480572
6.9670224e-05
-0.00011816622
5.9231589e-05
-0.00012009544
4.8205445e-05
-0.00012056479
3.6856048e-05
-0.00011959397
2.5459261e-05
-0.0001172511
1.4289572e-05
-0.00011364813
3.6092579e-06
-0.0001089229
-6.3822555e-06
-0.00010326919
-1.5438509e-05
-9.6882283e-05
-2.3431631e-05
-8.997009e-05
-3.0261377e-05
-8.2740991e-05
-3.5872976e-05
-7.5394968e-05
-4.0258498e-05
-6.8116165e-05
-4.3452566e-05
-6.1067007e-05
-4.5526558e-05
-5.4384002e-05
-4.6581688e-05
-4.817521e-05
-4.674148e-05
-4.25191e-05
-4.6144357e-05
-3.7464635e-05
-4.4936844e-05
-3.3032883e-05
-4.3266252e-05
-2.9219627e-05
-4.1274419e-05
-2.5998799e-05
-3.9092365e-05
-2.332672e-05
-3.6835713e-05
-2.1146698e-05
-3.4601567e-05
-1.9393702e-05
-3.2466771e-05
-1.799875e-05
-3.0487524e-05
-1.6892894e-05
-2.8700242e-05
-1.6010997e-05
-2.7122801e-05
-1.5294635e-05
-2.575707e-05
-1.4693984e-05
-2.4592326e-05
-1.4168754e-05
-2.3608909e-05
-1.3688265e-05
-2.2781725e-05
-1.3230878e-05
-2.208334e-05
-1.2782974e-05
-2.1486511e-05
-1.2337479e-05
-2.0966267e-05
-1.1892222e-05
-2.0501283e-05
-1.1448361e-05
-2.0074534e-05
-1.1008979e-05
-1.9673371e-05
-1.9289176e-05
3.3076878e-07
-2.0996117e-06
1.3203918e-06
-6.2798713e-06
2.9361259e-06
-1.0274619e-05
5.1285175e-06
-1.3946715e-05
7.8292886e-06
-1.7140922e-05
1.0961431e-05
-1.9736676e-05
1.4440709e-05
-2.1636045e-05
1.8175317e-05
-2.2755373e-05
2.206541e-05
-2.3024469e-05
2.6003497e-05
-2.238788e-05
2.9876467e-05
-2.0808654e-05
3.3568648e-05
-1.8270919e-05
3.6965245e-05
-1.4781586e-05
3.9957379e-05
-1.0371815e-05
4.2442986e-05
-5.091714e-06
4.4334055e-05
9.9219955e-07
4.5550541e-05
7.788743e-06
4.6028256e-05
1.5200614e-05
4.5716024e-05
2.3121887e-05
4.4575238e-05
3.1440831e-05
4.2578983e-05
4.0042168e-05
3.9710972e-05
4.8808904e-05
3.5964536e-05
5.7623178e-05
3.1341608e-05
6.6366849e-05
2.5852431e-05
7.4920656e-05
1.9515882e-05
8.3163586e-05
1.2359325e-05
9.0972649e-05
4.4232121e-06
9.8218791e-05
-4.2421225e-06
0.00010477638
-1.357472e-05
0.00011051142
-2.3488897e-05
0.00011527756
-3.3882052e-05
0.0001189406
-4.4629741e-05
0.00012136628
-5.5584204e-05
0.00012242794
-6.6574107e-05
0.00012201298
-7.7405802e-05
0.00012003042
-8.7866532e-05
0.00011641928
-9.7729901e-05
0.00011115738
-0.00010676374
0.00010426957
-0.00011474019
9.5834497e-05
-0.00012144749
8.5988421e-05
-0.00012670243
7.4925164e-05
-0.0001303622
6.2891358e-05
-0.00013233445
5.0177693e-05
-0.00013258474
3.710634e-05
-0.0001311404
2.4014917e-05
-0.00012809279
1.1241967e-05
-0.00012355788
-9.2565541e-07
-0.0001177492
-1.2190931e-05
-0.0001108864
-2.230131e-05
-0.00010321462
-3.1103417e-05
-9.4989333e-05
-3.848666e-05
-8.6463778e-05
-4.4398531e-05
-7.7878156e-05
-4.8844121e-05
-6.9450786e-05
-5.1879936e-05
-6.1371283e-05
-5.3606062e-05
-5.37959e-05
-5.415707e-05
-4.6844982e-05
-5.3692398e-05
-4.0601994e-05
-5.2387345e-05
-3.5114068e-05
-5.042477e-05
-3.0394434e-05
-4.7985886e-05
-2.6426065e-05
-4.5242788e-05
-2.3166021e-05
-4.2352409e-05
-2.0551087e-05
-3.9450647e-05
-1.8503675e-05
-3.6648979e-05
-1.6937648e-05
-3.4032798e-05
-1.576361e-05
-3.1661562e-05
-1.4894072e-05
-2.9569779e-05
-1.42481e-05
-2.7768774e-05
-1.3754853e-05
-2.6250318e-05
-1.3355683e-05
-2.4991495e-05
-1.3004912e-05
-2.3959681e-05
-1.2669567e-05
-2.311707e-05
-1.2328476e-05
-2.2424431e-05
-1.1970529e-05
-2.1844459e-05
-1.1592437e-05
-2.1344359e-05
-1.1196458e-05
-2.0897261e-05
-1.0788262e-05
-2.048273e-05
-1.0375095e-05
-2.0086538e-05
-1.9699917e-05
3.8696181e-07
-2.4865735e-06
1.5434734e-06
-7.4363829e-06
3.4201602e-06
-1.2151306e-05
5.951971e-06
-1.6478525e-05
9.053963e-06
-2.0242914e-05
1.2638551e-05
-2.3321264e-05
1.6613526e-05
-2.5611019e-05
2.087879e-05
-2.7020637e-05
2.5323982e-05
-2.7469661e-05
2.9827886e-05
-2.6891783e-05
3.4260903e-05
-2.5241671e-05
3.8489904e-05
-2.249992e-05
4.2383339e-05
-1.8675021e-05
4.5815254e-05
-1.380373e-05
4.8670662e-05
-7.9471222e-06
5.085341e-05
-1.1905478e-06
5.2272545e-05
6.369608e-06
5.2861005e-05
1.4612153e-05
5.2565218e-05
2.3417674e-05
5.1346282e-05
3.2659767e-05
4.9178174e-05
4.2210276e-05
4.6046049e-05
5.1941029e-05
4.1944425e-05
6.1724802e-05
3.6876047e-05
7.1435227e-05
3.0850882e-05
8.0945821e-05
2.3886645e-05
9.0127823e-05
1.6010491e-05
9.8848804e-05
7.2566559e-06
0.00010697263
-2.3225615e-06
0.00011435559
-1.2671732e-05
0.00012086059
-2.3698945e-05
0.00012630477
-3.5298803e-05
0.00013054046
-4.7338322e-05
0.00013340579
-5.9655215e-05
0.00013474483
-7.2056996e-05
0.00013441476
-8.4321548e-05
0.00013229497
-9.6200199e-05
0.00012829793
-0.00010742378
0.00012238096
-0.00011771203
0.00011455782
-0.00012678619
0.00010490866
-0.00013438438
9.3586606e-05
-0.0001402781
8.0818885e-05
-0.00014428834
6.6901599e-05
-0.00014629921
5.2188564e-05
-0.00014626821
3.7075342e-05
-0.00014423085
2.1977562e-05
-0.00014030533
7.3164389e-06
-0.00013463801
-6.5929715e-06
-0.00012750225
-1.9326694e-05
-0.00011917262
-3.0630937e-05
-0.00010995387
-4.032217e-05
-0.00010016033
-4.8280197e-05
-9.0100106e-05
-5.4458756e-05
-8.006184e-05
-5.8882387e-05
-7.0304202e-05
-6.1637575e-05
-6.1048072e-05
-6.2862191e-05
-5.2471543e-05
-6.27336e-05
-4.4707474e-05
-6.1456467e-05
-3.7843005e-05
-5.9251814e-05
-3.1920594e-05
-5.6347181e-05
-2.6941542e-05
-5.2964939e-05
-2.2871253e-05
-4.9313077e-05
-1.9644223e-05
-4.5579439e-05
-1.7171835e-05
-4.1923035e-05
-1.5349827e-05
-3.8470986e-05
-1.4065363e-05
-3.5317263e-05
-1.320367e-05
-3.2523255e-05
-1.2654556e-05
-3.0118893e-05
-1.2318011e-05
-2.8105318e-05
-1.2108788e-05
-2.6459541e-05
-1.1958597e-05
-2.5141686e-05
-1.181653e-05
-2.4101748e-05
-1.1648523e-05
-2.3285077e-05
-1.1435769e-05
-2.2637186e-05
-1.1171827e-05
-2.2108401e-05
-1.0859474e-05
-2.1656711e-05
-1.0507549e-05
-2.1249186e-05
-1.0128088e-05
-2.086219e-05
-9.7339678e-06
-2.0480658e-05
-2.0096729e-05
4.574833e-07
-2.9440568e-06
1.8217487e-06
-8.8006483e-06
4.0120238e-06
-1.4341581e-05
6.9400071e-06
-1.9406509e-05
1.0498264e-05
-2.3801171e-05
1.45903e-05
-2.74133e-05
1.9119366e-05
-3.0140085e-05
2.3979789e-05
-3.188106e-05
2.9051061e-05
-3.2540932e-05
3.4195991e-05
-3.2036713e-05
3.9265102e-05
-3.0310783e-05
4.4103533e-05
-2.7338351e-05
4.8558327e-05
-2.3129815e-05
5.2485353e-05
-1.7730756e-05
5.5754548e-05
-1.1216317e-05
5.8252705e-05
-3.6887055e-06
5.9889139e-05
4.7331747e-06
6.0589512e-05
1.391178e-05
6.0299801e-05
2.3707385e-05
5.8982653e-05
3.3976915e-05
5.6614803e-05
4.4578126e-05
5.3184364e-05
5.5371469e-05
4.8688406e-05
6.6220759e-05
4.313101e-05
7.6992623e-05
3.652215e-05
8.7554682e-05
2.887703e-05
9.7772942e-05
2.0216699e-05
0.00010750913
1.0574274e-05
0.00011661505
-4.5845727e-09
0.00012493445
-1.1462619e-05
0.00013231863
-2.3717505e-05
0.00013855966
-3.6661295e-05
0.00014348425
-5.0153468e-05
0.00014689797
-6.4017613e-05
0.00014860898
-7.8038838e-05
0.00014843599
-9.1963128e-05
0.00014621926
-0.00010549982
0.00014183462
-0.00011832803
0.00013520918
-0.00013010772
0.00012633751
-0.00014049548
0.00011529642
-0.00014916441
0.00010225554
-0.00015582646
8.7480933e-05
-0.00016025439
7.1329525e-05
-0.00016230085
5.4235028e-05
-0.00016191202
3.6686515e-05
-0.0001591348
1.920034e-05
-0.00015411587
2.2975098e-06
-0.00014705503
-1.3653813e-05
-0.00013829366
-2.8088062e-05
-0.00012818009
-4.0744514e-05
-0.00011709416
-5.1408094e-05
-0.00010542372
-5.9950639e-05
-9.3544158e-05
-6.6338318e-05
-8.1802344e-05
-7.0624201e-05
-7.0504306e-05
-7.2935612e-05
-5.9906529e-05
-7.3459968e-05
-5.0210811e-05
-7.2429318e-05
-4.1562133e-05
-7.0105146e-05
-3.4049168e-05
-6.6764778e-05
-2.7705825e-05
-6.2690525e-05
-2.2515801e-05
-5.8154963e-05
-1.8421056e-05
-5.3407821e-05
-1.5326029e-05
-4.8674466e-05
-1.3109307e-05
-4.4139757e-05
-1.1632692e-05
-3.9947601e-05
-1.0749557e-05
-3.6200398e-05
-1.0313885e-05
-3.2958926e-05
-1.0187923e-05
-3.0244855e-05
-1.0248436e-05
-2.8044804e-05
-1.039355e-05
-2.6314427e-05
-1.0544653e-05
-2.4990582e-05
-1.0646279e-05
-2.4000123e-05
-1.0665411e-05
-2.3265944e-05
-1.0588293e-05
-2.2714304e-05
-1.0416268e-05
-2.2280426e-05
-1.0161312e-05
-2.1911667e-05
-9.8417113e-06
-2.1568787e-05
-9.4782741e-06
-2.1225628e-05
-9.0913422e-06
-2.086759e-05
-2.0489452e-05
5.5029013e-07
-3.494347e-06
2.1832116e-06
-1.043357e-05
4.7562168e-06
-1.6914586e-05
8.1465125e-06
-2.2796804e-05
1.2217467e-05
-2.7872126e-05
1.6870234e-05
-3.2066066e-05
2.2011517e-05
-3.5281369e-05
2.7535589e-05
-3.7405133e-05
3.3312521e-05
-3.8317864e-05
3.9185608e-05
-3.79098e-05
4.4979602e-05
-3.6104777e-05
5.05117e-05
-3.2870449e-05
5.5602495e-05
-2.8220609e-05
6.0084635e-05
-2.2212897e-05
6.3810296e-05
-1.4941978e-05
6.6654229e-05
-6.5326382e-06
6.8517229e-05
2.8701747e-06
6.9324532e-05
1.3104477e-05
6.90232e-05
2.4008716e-05
6.7579916e-05
3.5420199e-05
6.4976779e-05
4.7181263e-05
6.1207389e-05
5.9140859e-05
5.627302e-05
7.1155128e-05
5.0179914e-05
8.3085729e-05
4.2937482e-05
9.4797114e-05
3.4558009e-05
0.00010615242
2.5058305e-05
0.00011700884
1.4459862e-05
0.00012721349
2.7946851e-06
0.00013659963
-9.8694962e-06
0.00014498281
-2.3473548e-05
0.00015216371
-3.7908756e-05
0.00015791946
-5.3030422e-05
0.00016201963
-6.8650064e-05
0.00016422862
-8.4530027e-05
0.00016431595
-0.0001003812
0.00016207044
-0.00011586422
0.00015731763
-0.00013059582
0.00014994077
-0.00014416151
0.0001399032
-0.00015613518
0.00012727008
-0.00016610504
0.0001122254
-0.00017370387
9.507976e-05
-0.00017863948
7.6265141e-05
-0.00018072182
5.6317368e-05
-0.00017988366
3.5848354e-05
-0.00017619585
1.5512532e-05
-0.00016977594
-4.1224027e-06
-0.000161005
-2.2424755e-05
-0.00015024895
-3.8844116e-05
-0.000137959
-5.303446e-05
-0.00012461322
-6.4753874e-05
-0.00011069179
-7.3872071e-05
-9.6652602e-05
-8.0377503e-05
-8.2912165e-05
-8.4364638e-05
-6.9831588e-05
-8.6016189e-05
-5.7707315e-05
-8.5584242e-05
-4.6766259e-05
-8.3370373e-05
-3.7164184e-05
-7.9707221e-05
-2.8987821e-05
-7.4941141e-05
-2.2257771e-05
-6.9420575e-05
-1.6932054e-05
-6.348068e-05
-1.2922236e-05
-5.741764e-05
-1.00927e-05
-5.1504002e-05
-8.2799802e-06
-4.5952477e-05
-7.3026399e-06
-4.0924942e-05
-6.9712964e-06
-3.6531741e-05
-7.1015556e-06
-3.2828667e-05
-7.5235672e-06
-2.9822844e-05
-8.0848117e-06
-2.748356e-05
-8.6643899e-06
-2.5734849e-05
-9.1729087e-06
-2.4482064e-05
-9.5521183e-06
-2.3620913e-05
-9.7730847e-06
-2.3044978e-05
-9.8310881e-06
-2.26563e-05
-9.7396277e-06
-2.2371886e-05
-9.5241481e-06
-2.2127147e-05
-9.2161871e-06
-2.1876748e-05
-8.8484694e-06
-2.1593345e-05
-8.4509933e-06
-2.1265067e-05
-2.0891998e-05
6.8127982e-07
-4.1756268e-06
2.6801453e-06
-1.2432435e-05
5.726273e-06
-1.9960714e-05
9.6510153e-06
-2.6721546e-05
1.4283753e-05
-3.2504863e-05
1.954048e-05
-3.7322793e-05
2.5346869e-05
-4.1087758e-05
3.1606618e-05
-4.3664881e-05
3.8180459e-05
-4.4891705e-05
4.4885103e-05
-4.4614443e-05
5.1509966e-05
-4.272964e-05
5.7835216e-05
-3.9195699e-05
6.3647853e-05
-3.4033246e-05
6.8752641e-05
-2.7317685e-05
7.2981191e-05
-1.9170528e-05
7.6195279e-05
-9.7467262e-06
7.8288889e-05
7.7656517e-07
7.9189616e-05
1.2203751e-05
7.8848494e-05
2.4349837e-05
7.7240203e-05
3.702849e-05
7.4356098e-05
5.0065369e-05
7.0198484e-05
6.3298473e-05
6.4775481e-05
7.6578131e-05
5.8096887e-05
8.9764323e-05
5.0171598e-05
0.0001027224
4.1006978e-05
0.00011531704
3.0610644e-05
0.00012740517
1.8994591e-05
0.00013882955
6.1809696e-06
0.00014941325
-7.7968736e-06
0.00015896065
-2.2875412e-05
0.00016724225
-3.8957248e-05
0.00017400129
-5.5900362e-05
0.00017896275
-7.3508339e-05
0.0001818366
-9.1521989e-05
0.0001823296
-0.00010961458
0.00018016302
-0.00012739094
0.000175094
-0.00014439289
0.00016694273
-0.0001601132
0.00015562351
-0.00017401943
0.00014117632
-0.00018558791
0.00012379388
-0.0001943448
0.00010383665
-0.00019990909
8.1829436e-05
-0.00020203049
5.843876e-05
-0.00020061785
3.4435713e-05
-0.00019577015
1.0664833e-05
-0.00018765397
-1.2238579e-05
-0.00017673451
-3.3344218e-05
-0.00016351063
-5.2067997e-05
-0.00014855367
-6.7991418e-05
-0.00013246445
-8.0843094e-05
-0.00011583795
-9.049857e-05
-9.9232574e-05
-9.6982879e-05
-8.314741e-05
-0.0001004498
-6.8006776e-05
-0.00010115682
-5.4150973e-05
-9.9440045e-05
-4.1832557e-05
-9.568879e-05
-3.1215618e-05
-9.0324159e-05
-2.2379442e-05
-8.3777318e-05
-1.5325709e-05
-7.6474308e-05
-9.9749681e-06
-6.883142e-05
-6.2025613e-06
-6.1190046e-05
-3.8182152e-06
-5.3888348e-05
-2.6030363e-06
-4.7167656e-05
-2.320173e-06
-4.1207805e-05
-2.7272649e-06
-3.6124649e-05
-3.5918912e-06
-3.1964041e-05
-4.7130765e-06
-2.8701658e-05
-5.8964221e-06
-2.6300214e-05
-7.000336e-06
-2.4630935e-05
-7.924652e-06
-2.3557748e-05
-8.611213e-06
-2.2934352e-05
-9.0396945e-06
-2.2616496e-05
-9.2201631e-06
-2.2475832e-05
-9.1843622e-06
-2.2407687e-05
-8.9769795e-06
-2.2334529e-05
-8.6479324e-06
-2.2205795e-05
-8.245848e-06
-2.199543e-05
-7.8129176e-06
-2.1697997e-05
-2.1322837e-05
8.8316575e-07
-5.0587925e-06
3.4058345e-06
-1.4955104e-05
7.0418839e-06
-2.3596763e-05
1.1565744e-05
-3.1245407e-05
1.6782283e-05
-3.7721403e-05
2.266193e-05
-4.320244e-05
2.9175256e-05
-4.7601085e-05
3.6248948e-05
-5.0738573e-05
4.3730492e-05
-5.2373249e-05
5.1395562e-05
-5.2279513e-05
5.8982223e-05
-5.0316301e-05
6.6220646e-05
-4.6434122e-05
7.2854714e-05
-4.0667314e-05
7.8656763e-05
-3.3119734e-05
8.343499e-05
-2.3948755e-05
8.7038502e-05
-1.3350239e-05
8.9355227e-05
-1.5401602e-06
9.0322953e-05
1.1236025e-05
8.9898776e-05
2.4774014e-05
8.8071422e-05
3.8855844e-05
8.4846901e-05
5.3289889e-05
8.0240866e-05
6.7904508e-05
7.4271627e-05
8.254737e-05
6.6954345e-05
9.7081605e-05
5.8297543e-05
0.00011137921
4.8302095e-05
0.00012531248
3.6963167e-05
0.0001387441
2.4275161e-05
0.00015151755
1.0235803e-05
0.00016345261
-5.1356024e-06
0.00017433206
-2.1807156e-05
0.0001839138
-3.9693208e-05
0.00019188734
-5.8662131e-05
0.00019793167
-7.8515929e-05
0.0002016904
-9.8977469e-05
0.00020279114
-0.00011968123
0.00020086679
-0.00014016936
0.00019558212
-0.00015989445
0.00018666781
-0.00017823378
0.00017396285
-0.00019451789
0.00015746042
-0.00020807445
0.00013735044
-0.00021828496
0.00011404716
-0.00022464586
8.8190336e-05
-0.00022682301
6.0615914e-05
-0.00022469471
3.2307408e-05
-0.00021836757
4.3376993e-06
-0.00020811152
-2.2494635e-05
-0.000194514
-4.6941739e-05
-0.00017823001
-6.8351985e-05
-0.00015999384
-8.6227588e-05
-0.00014056503
-0.0001002719
-0.00012068224
-0.00011038136
-0.0001010258
-0.00011663932
-8.2191681e-05
-0.00011928392
-6.4675385e-05
-0.00011867312
-4.8863827e-05
-0.0001152516
-3.5033934e-05
-0.00010951868
-2.3353906e-05
-0.00010200419
-1.3888543e-05
-9.3242681e-05
-6.6163596e-06
-8.3746491e-05
-1.4100623e-06
-7.4037718e-05
1.9418618e-06
-6.454197e-05
3.6658882e-06
-5.5612374e-05
4.0417656e-06
-4.7543533e-05
3.3748869e-06
-4.0540926e-05
1.9743076e-06
-3.472407e-05
1.4042716e-07
-3.0130161e-05
-1.8393116e-06
-2.672192e-05
-3.7840329e-06
-2.4355493e-05
-5.5113965e-06
-2.2903572e-05
-6.9097041e-06
-2.215944e-05
-7.9248249e-06
-2.1919231e-05
-8.5518628e-06
-2.1989458e-05
-8.8239304e-06
-2.2203764e-05
-8.7994444e-06
-2.2432173e-05
-8.5502144e-06
-2.2583759e-05
-8.151448e-06
-2.2604561e-05
-7.672524e-06
-2.2474354e-05
-7.1707433e-06
-2.2199778e-05
-2.1805142e-05
1.2166142e-06
-6.2754068e-06
4.5138311e-06
-1.8252321e-05
8.874061e-06
-2.7956993e-05
1.4020084e-05
-3.639143e-05
1.9779337e-05
-4.3480656e-05
2.6257805e-05
-4.9680907e-05
3.3507666e-05
-5.4850946e-05
4.1493193e-05
-5.8724099e-05
5.0033077e-05
-6.0913133e-05
5.8832418e-05
-6.1078854e-05
6.7551134e-05
-5.9035017e-05
7.5850973e-05
-5.4733961e-05
8.3423098e-05
-4.8239439e-05
9.0002252e-05
-3.9698889e-05
9.5373707e-05
-2.9320209e-05
9.9374223e-05
-1.7350755e-05
0.00010189584
-4.0617787e-06
0.00010288074
1.0251123e-05
0.000102308
2.5346759e-05
0.00010018634
4.0977505e-05
9.6543351e-05
5.6932876e-05
9.1414215e-05
7.3033644e-05
8.483194e-05
8.9129645e-05
7.6819722e-05
0.00010509382
6.7385874e-05
0.00012081305
5.6522378e-05
0.00013617598
4.4206858e-05
0.00015105962
3.0406776e-05
0.00016531764
1.5094612e-05
0.00017876477
-1.7464323e-06
0.0001911731
-2.0119767e-05
0.00020228714
-3.9964136e-05
0.00021173171
-6.1171415e-05
0.00021913895
-8.3551793e-05
0.00022407077
-0.0001068173
0.00022605665
-0.0001305655
0.00022461499
-0.00015427004
0.00021928666
-0.00017727871
0.00020967648
-0.00019882582
0.00019550995
-0.00021806475
0.00017669935
-0.00023412438
0.00015341007
-0.00024618721
0.00012610999
-0.00025357791
9.5581037e-05
-0.00025584614
6.2884146e-05
-0.00025283666
2.9297928e-05
-0.00024458528
-3.9136805e-06
-0.00023163421
-3.5445708e-05
-0.00021467041
-6.3905542e-05
-0.00019456972
-8.845267e-05
-0.00017228468
-0.00010851263
-0.00014877942
-0.00012377716
-0.00012497149
-0.00013418929
-0.00010168765
-0.00013992316
-7.963548e-05
-0.00014133609
-5.9388313e-05
-0.00013892029
-4.1380505e-05
-0.00013325941
-2.5909058e-05
-0.00012499013
-1.3139739e-05
-0.00011477351
-3.1282401e-06
-0.00010325418
4.2554903e-06
-9.1130221e-05
9.1478322e-06
-7.893006e-05
1.1803608e-05
-6.7197746e-05
1.255107e-05
-5.6359836e-05
1.1760916e-05
-4.6753379e-05
9.8277795e-06
-3.860779e-05
7.1479353e-06
-3.2044226e-05
4.0933163e-06
-2.7075542e-05
9.8522311e-07
-2.3613826e-05
-1.8878914e-06
-2.1482378e-05
-4.3480397e-06
-2.0443424e-05
-6.2746279e-06
-2.0232852e-05
-7.6243937e-06
-2.0569466e-05
-8.4183077e-06
-2.1195544e-05
-8.7243968e-06
-2.1897675e-05
-8.639385e-06
-2.2517185e-05
-8.2732433e-06
-2.2949901e-05
-7.7353272e-06
-2.3142477e-05
-7.1217449e-06
-2.3087936e-05
-6.508115e-06
-2.2813408e-05
-2.2366326e-05
1.7558098e-06
-8.0312166e-06
6.1689732e-06
-2.2665484e-05
1.1357926e-05
-3.3145946e-05
1.7052123e-05
-4.2085627e-05
2.3206514e-05
-4.9635046e-05
3.020901e-05
-5.6683404e-05
3.8234292e-05
-6.2876229e-05
4.7290332e-05
-6.7780139e-05
5.7125902e-05
-7.0748703e-05
6.7319661e-05
-7.1272614e-05
7.7409237e-05
-6.9124593e-05
8.6963056e-05
-6.428778e-05
9.5610736e-05
-5.6887119e-05
0.00010305048
-4.7138632e-05
0.00010904826
-3.5317992e-05
0.00011343802
-2.1740517e-05
0.00011611279
-6.7365468e-06
0.00011703973
9.3241891e-06
0.00011622303
2.6163452e-05
0.00011370287
4.3497668e-05
0.00010953819
6.109756e-05
0.00010379202
7.8779813e-05
9.6518453e-05
9.640321e-05
8.7751928e-05
0.00011386035
7.7500795e-05
0.00013106419
6.5744697e-05
0.00014793208
5.2437279e-05
0.00016436704
3.7513908e-05
0.00018024101
2.0900034e-05
0.00019537864
2.5302227e-06
0.00020954291
-1.7624003e-05
0.00022244136
-3.956793e-05
0.00023367564
-6.3227673e-05
0.00024279869
-8.843514e-05
0.00024927824
-0.00011490376
0.00025252526
-0.00014220154
0.00025191278
-0.00016973077
0.00024681589
-0.00019671886
0.00023666457
-0.00022222441
0.00022101551
-0.00024517184
0.00019964678
-0.00026442225
0.00017266048
-0.00027888104
0.00014056877
-0.00028762667
0.00010432667
-0.00029003412
6.5291595e-05
-0.00028588954
2.515335e-05
-0.00027524517
-1.4558054e-05
-0.00025882572
-5.1865152e-05
-0.0002375871
-8.5144168e-05
-0.00021269461
-0.00011334515
-0.00018538857
-0.00013581867
-0.00015689499
-0.00015227075
-0.000128352
-0.00016273227
-0.00010075945
-0.00016751571
-7.4949959e-05
-0.00016714558
-5.1578347e-05
-0.0001622919
-3.1124823e-05
-0.00015371294
-1.3903817e-05
-0.00014221114
-5.5623661e-08
-0.0001286217
1.0463881e-05
-0.00011377368
1.7722954e-05
-9.8389294e-05
2.1983448e-05
-8.3190554e-05
2.3590545e-05
-6.8804844e-05
2.2973354e-05
-5.5742645e-05
2.0610839e-05
-4.4390863e-05
1.7009432e-05
-3.5006383e-05
1.2671871e-05
-2.7706665e-05
8.0665747e-06
-2.2470245e-05
3.5992608e-06
-1.9146513e-05
-4.0416029e-07
-1.7478957e-05
-3.7148994e-06
-1.7132684e-05
-6.2135459e-06
-1.7734205e-05
-7.8790229e-06
-1.8903989e-05
-8.7737986e-06
-2.0300769e-05
-9.0177226e-06
-2.1653751e-05
-8.7620896e-06
-2.2772818e-05
-8.170242e-06
-2.3541749e-05
-7.3969715e-06
-2.3915748e-05
-6.5723835e-06
-2.3912524e-05
-5.7937568e-06
-2.3592034e-05
-2.3036684e-05
2.495523e-06
-1.052674e-05
8.302535e-06
-2.8472496e-05
1.4267119e-05
-3.9110531e-05
2.0285721e-05
-4.8104228e-05
2.6574135e-05
-5.592346e-05
3.4025728e-05
-6.4134997e-05
4.2955935e-05
-7.1806436e-05
5.3396115e-05
-7.8220318e-05
6.4941939e-05
-8.2294527e-05
7.6954313e-05
-8.3284988e-05
8.8781394e-05
-8.0951674e-05
9.9863202e-05
-7.5369587e-05
0.0001097613
-6.6785214e-05
0.00011814796
-5.5525293e-05
0.00012478678
-4.1956815e-05
0.00012951983
-2.6473563e-05
0.00013226581
-9.482524e-06
0.0001330129
8.5770943e-06
0.00013181295
2.7363398e-05
0.0001287496
4.6561025e-05
0.00012392573
6.5921428e-05
0.00011744317
8.5262366e-05
0.0001093851
0.00010446129
9.9801738e-05
0.00012344371
8.8701458e-05
0.00014216447
7.604784e-05
0.0001605857
6.1762403e-05
0.00017865247
4.573404e-05
0.00019626937
2.7833857e-05
0.00021327883
7.9315639e-06
0.00022944521
-1.4068709e-05
0.00024444164
-3.8236451e-05
0.00025784338
-6.4556025e-05
0.00026911827
-9.2904578e-05
0.00027762679
-0.00012301743
0.00028263812
-0.00015444893
0.00028334427
-0.00018653453
0.00027890149
-0.00021836811
0.00026849815
-0.00024879595
0.00025144334
-0.0002764475
0.00022729834
-0.00029982104
0.00019603402
-0.00031743201
0.00015817975
-0.00032800133
0.00011489599
-0.00033064314
6.7933408e-05
-0.00032504373
1.9553936e-05
-0.00031130274
-2.8299047e-05
-0.00029041137
-7.2756521e-05
-0.00026370289
-0.00011185265
-0.00023275554
-0.00014429251
-0.00019919668
-0.00016937753
-0.00016458679
-0.00018688064
-0.00013033223
-0.00019698683
-9.7632915e-05
-0.00020021503
-6.7457054e-05
-0.00019732144
-4.0537418e-05
-0.00018921153
-1.7387847e-05
-0.00017686251
1.7091102e-06
-0.00016130809
1.6637267e-05
-0.00014354986
2.7415447e-05
-0.00012455186
3.4258164e-05
-0.00010523201
3.7503434e-05
-8.6435824e-05
3.7607579e-05
-6.8908989e-05
3.5123982e-05
-5.3259048e-05
3.0669313e-05
-3.9936195e-05
2.4892747e-05
-2.9229817e-05
1.8431351e-05
-2.1245269e-05
1.1875239e-05
-1.5914134e-05
5.7295578e-06
-1.3000831e-05
3.869903e-07
-1.213639e-05
-3.890804e-06
-1.285489e-05
-6.9827529e-06
-1.4642257e-05
-8.9046898e-06
-1.6982052e-05
-9.7832328e-06
-1.9422226e-05
-9.8135721e-06
-2.1623412e-05
-9.2246903e-06
-2.33617e-05
-8.2534192e-06
-2.451302e-05
-7.1146102e-06
-2.5054557e-05
-5.9810039e-06
-2.504613e-05
-4.9745265e-06
-2.4598512e-05
-2.3846396e-05
3.2170717e-06
-1.3743811e-05
1.0265314e-05
-3.5520738e-05
1.6504442e-05
-4.5349658e-05
2.242863e-05
-5.4028417e-05
2.8559529e-05
-6.205436e-05
3.6547678e-05
-7.2123145e-05
4.6768915e-05
-8.2027673e-05
5.9206273e-05
-9.0657676e-05
7.317219e-05
-9.6260444e-05
8.7697979e-05
-9.7810776e-05
0.00010185655
-9.5110247e-05
0.00011490438
-8.8417415e-05
0.00012631904
-7.8199875e-05
0.00013576501
-6.4971261e-05
0.00014303838
-4.9230187e-05
0.00014802654
-3.1461724e-05
0.00015069193
-1.2147912e-05
0.00015107777
8.1912486e-06
0.00014929409
2.9147078e-05
0.00014548679
5.0368326e-05
0.00013981944
7.1588779e-05
0.0001324469
9.2634906e-05
0.00012349188
0.00011341631
0.00011302594
0.00013390965
0.0001010574
0.00015413301
8.7527783e-05
0.00017411531
7.2315888e-05
0.00019386437
5.5249845e-05
0.00021333541
3.6125725e-05
0.00023240295
1.4732308e-05
0.00025083862
-9.1295211e-06
0.00026830347
-3.5608227e-05
0.00028432209
-6.4775321e-05
0.00029828536
-9.6584642e-05
0.00030943612
-0.00013082375
0.00031687723
-0.00016706084
0.00031958136
-0.00020458228
0.00031642293
-0.0002423414
0.00030625728
-0.00027893256
0.0002880345
-0.00031260781
0.00026097359
-0.00034137291
0.00022479912
-0.00036319165
0.00017999849
-0.00037627201
0.00012797634
-0.00037935018
7.1011577e-05
-0.00037192293
1.2126688e-05
-0.00035408806
-4.6133912e-05
-0.000327324
-9.9520585e-05
-0.00029353038
-0.00014564627
-0.00025486977
-0.00018295311
-0.00021348849
-0.00021075881
-0.00017136779
-0.00022900133
-0.0001302315
-0.00023812313
-9.1501365e-05
-0.00023894516
-5.6281078e-05
-0.00023254173
-2.5365531e-05
-0.00022012708
7.4038767e-07
-0.00020296842
2.1759532e-05
-0.00018232724
3.7608231e-05
-0.00015939856
4.8405059e-05
-0.00013534869
5.4442301e-05
-0.00011126925
5.6172965e-05
-8.8166488e-05
5.419143e-05
-6.6927454e-05
4.9205545e-05
-4.8273162e-05
4.1999974e-05
-3.2730624e-05
3.3408555e-05
-2.0638397e-05
2.4239004e-05
-1.2075718e-05
1.5236801e-05
-6.9119318e-06
7.0319924e-06
-4.796022e-06
1.058223e-07
-5.2102198e-06
-5.2485373e-06
-7.5005304e-06
-8.9162698e-06
-1.0974524e-05
-1.0973898e-05
-1.4924424e-05
-1.1644996e-05
-1.8751128e-05
-1.1232537e-05
-2.2035871e-05
-1.0076022e-05
-2.4518214e-05
-8.5123821e-06
-2.607666e-05
-6.8353561e-06
-2.6731583e-05
-5.2704739e-06
-2.6611013e-05
-3.965751e-06
-2.5903234e-05
-2.4819753e-05
3.4640457e-06
-1.7207857e-05
1.0952449e-05
-4.3009141e-05
1.6107501e-05
-5.0504711e-05
2.1235342e-05
-5.9156257e-05
2.7013146e-05
-6.7832163e-05
3.6000227e-05
-8.1110227e-05
4.8308493e-05
-9.4335939e-05
6.3719858e-05
-0.00010606904
8.1126253e-05
-0.00011366684
9.9170085e-05
-0.00011585461
0.00011657894
-0.00011251911
0.0001323345
-0.00010417297
0.00014576025
-9.1625623e-05
0.0001565
-7.5711015e-05
0.00016442488
-5.7155073e-05
0.00016953423
-3.657107e-05
0.00017189779
-1.4511476e-05
0.00017165093
8.4381167e-06
0.00016899569
3.1802314e-05
0.00016416517
5.5198842e-05
0.00015740623
7.8347722e-05
0.00014894549
0.00010109565
0.00013895857
0.00012340323
0.00012754492
0.0001453233
0.00011471181
0.00016696612
0.00010037012
0.000188457
8.4340632e-05
0.00020989386
6.6369678e-05
0.00023130637
4.6152667e-05
0.00025261996
2.3365342e-05
0.00027362595
-2.2988218e-06
0.00029396763
-3.1121163e-05
0.00031314443
-6.32874e-05
0.0003304516
-9.8871109e-05
0.00034501982
-0.0001377559
0.00035576202
-0.0001795699
0.00036139536
-0.00022359253
0.00036044556
-0.00026865092
0.00035131567
-0.00031305284
0.00033243641
-0.00035457568
0.00030249644
-0.00039056023
0.00026078367
-0.00041818699
0.00020762525
-0.00043485367
0.00014464302
-0.00043859804
7.4755951e-05
-0.00042833488
1.8635233e-06
-0.00040530248
-6.916631e-05
-0.00037079634
-0.00013402672
-0.00032770688
-0.00018873573
-0.00027911733
-0.00023154266
-0.00022789169