/*--------------------------------*- C++ -*----------------------------------*\
| =========                 |                                                 |
| \\      /  F ield         | OpenFOAM: The Open Source CFD Toolbox           |
|  \\    /   O peration     | Version:  2306                                  |
|   \\  /    A nd           | Website:  www.openfoam.com                      |
|    \\/     M anipulation  |                                                 |
\*---------------------------------------------------------------------------*/
FoamFile
{
    version     2.0;
    format      ascii;
    arch        "LSB;label=32;scalar=64";
    class       volVectorField;
    location    "0.32";
    object      U_0;
}
// * * * * * * * * * * * * * * * * * * * * * * * * * * * * * * * * * * * * * //

dimensions      [0 1 -1 0 0 0 0];

internalField   nonuniform List<vector> 
6400
(
(0.0053527838 -0.086564666 -6.3422797e-17)
(0.012238431 -0.086279137 -1.9711942e-16)
(0.019994537 -0.08469427 -4.8699012e-17)
(0.027268249 -0.082029488 1.0191654e-16)
(0.034420686 -0.078213198 1.4852976e-17)
(0.041101495 -0.073320129 -4.0045029e-17)
(0.047217842 -0.067463343 -4.2625762e-17)
(0.052701108 -0.060751223 2.8112114e-18)
(0.057487495 -0.053288756 -3.6903635e-17)
(0.061520365 -0.045180446 -3.3526137e-17)
(0.064752042 -0.036533081 -2.0244137e-17)
(0.067144945 -0.02745685 -1.6362078e-17)
(0.068672986 -0.018065132 -7.7824987e-18)
(0.069321161 -0.0084732614 6.038395e-18)
(0.069092464 0.0012029948 1.7563677e-17)
(0.068007933 0.010846987 -3.0805885e-17)
(0.066076848 0.020355305 -1.5614799e-17)
(0.063341462 0.02962422 -1.1848115e-17)
(0.059846421 0.038560117 -4.6814882e-18)
(0.05564302 0.04707797 1.9678304e-17)
(0.050787805 0.055101692 9.3446383e-18)
(0.045341013 0.062563947 7.2510686e-18)
(0.039365137 0.069405677 1.7654767e-17)
(0.032924123 0.075575074 1.0470625e-17)
(0.026083024 0.081026788 7.0076256e-19)
(0.018908914 0.085720415 1.8871929e-17)
(0.011469258 0.089621381 3.3169018e-17)
(0.0038231386 0.092699923 5.3296224e-17)
(-0.0039647569 0.094938284 4.273629e-17)
(-0.011806784 0.096296993 1.9568149e-17)
(-0.019623541 0.096767679 1.0430252e-17)
(-0.027337253 0.096339462 9.4383661e-18)
(-0.034861524 0.095009971 2.7658097e-17)
(-0.042105734 0.092786774 2.6782171e-17)
(-0.048975896 0.089689275 2.5155256e-17)
(-0.05537622 0.085750773 2.2099587e-17)
(-0.061211414 0.081020298 1.1787969e-17)
(-0.066389702 0.075563998 2.2045857e-17)
(-0.070826479 0.069465802 1.5908068e-17)
(-0.074448382 0.062827089 1.8455911e-17)
(-0.077197442 0.055765162 2.8717938e-17)
(-0.079034742 0.048410436 2.3707621e-17)
(-0.079943152 0.040902453 9.028323e-18)
(-0.079929375 0.033385181 -1.904738e-17)
(-0.079024966 0.026001526 -2.6665982e-17)
(-0.077285683 0.018887593 -1.7850865e-17)
(-0.074789503 0.012167148 -1.4567089e-17)
(-0.071633678 0.0059467622 -8.3830286e-18)
(-0.067926162 0.00031191782 -3.4789629e-18)
(-0.063783591 -0.0046703325 -2.2552006e-17)
(-0.059335881 -0.0089648831 -1.4316887e-17)
(-0.054702709 -0.012556194 -4.4494137e-18)
(-0.049999666 -0.015451685 -1.6120078e-17)
(-0.045332694 -0.017678587 -6.1449605e-18)
(-0.040794835 -0.019280764 -6.2886892e-18)
(-0.0364642 -0.020315194 -1.0426124e-17)
(-0.032402792 -0.020848257 -7.202341e-18)
(-0.028656192 -0.020952054 -4.4760187e-18)
(-0.025254092 -0.020700992 -2.2079925e-18)
(-0.02221147 -0.020168878 3.8095198e-19)
(-0.019530001 -0.019426258 -9.3455041e-19)
(-0.017199768 -0.018538195 -2.015418e-18)
(-0.015201336 -0.017562591 -3.5198705e-18)
(-0.013507985 -0.016549023 -4.5773533e-19)
(-0.012087984 -0.015538118 4.2299902e-20)
(-0.01090677 -0.014561438 -7.1796036e-19)
(-0.009928927 -0.013641797 -4.6612466e-19)
(-0.0091198871 -0.01279393 2.0665907e-19)
(-0.0084473269 -0.01202543 -1.8862119e-20)
(-0.0078822633 -0.011337987 -4.8421767e-19)
(-0.0073997495 -0.010728731 -9.7208998e-19)
(-0.0069791689 -0.010191573 -1.0382934e-18)
(-0.0066041935 -0.0097184434 2.3190719e-19)
(-0.006262485 -0.0093003586 1.4613716e-19)
(-0.0059452133 -0.0089282813 1.9509947e-19)
(-0.0056464678 -0.0085937561 -3.1114566e-19)
(-0.0053626296 -0.0082893426 -4.6987411e-19)
(-0.0050917607 -0.0080088442 2.3150246e-19)
(-0.0048330467 -0.0077473622 2.0062976e-19)
(-0.0045863292 -0.0075012179 -3.2956056e-21)
(0.0061918377 -0.10343123 -5.1865438e-17)
(0.014171024 -0.1031128 -3.2025521e-16)
(0.023133714 -0.10126449 -1.2195448e-16)
(0.031506218 -0.09817097 -1.2367533e-16)
(0.039713331 -0.093756116 -1.0779523e-16)
(0.047356314 -0.088121773 3.2680935e-17)
(0.054341304 -0.081404446 -6.6983862e-17)
(0.060599351 -0.073729099 -1.0950929e-17)
(0.066064343 -0.065213146 2.7912214e-17)
(0.070674743 -0.055971906 -7.737947e-18)
(0.074376739 -0.046123812 1.4876853e-17)
(0.077126673 -0.035792563 -2.6823845e-17)
(0.078894137 -0.025107243 -3.2023313e-17)
(0.079664116 -0.014200434 -1.144495e-17)
(0.079434795 -0.0032030544 -1.6538374e-17)
(0.078232379 0.0077466269 4.7687545e-18)
(0.076079818 0.018533303 8.6400011e-18)
(0.073019407 0.029039028 -5.2714469e-18)
(0.069107153 0.039158619 -2.0730125e-18)
(0.064404078 0.04879822 -1.1026754e-17)
(0.058976378 0.057875014 6.2726999e-18)
(0.052893395 0.066316908 2.7874077e-18)
(0.046225785 0.074061456 1.5507447e-17)
(0.039044622 0.081054567 1.9698443e-18)
(0.031420996 0.087249131 8.392717e-19)
(0.023426775 0.092603576 1.2561557e-17)
(0.015134823 0.097080533 1.9079099e-17)
(0.0066132689 0.10064797 3.6353588e-17)
(-0.0020838389 0.10328085 2.5067725e-17)
(-0.010855151 0.10494302 1.1132463e-17)
(-0.01961459 0.105615 4.2868479e-18)
(-0.028279408 0.10528042 1.5878275e-18)
(-0.036753815 0.10393099 2.0804211e-17)
(-0.044935953 0.10156861 2.5058569e-17)
(-0.052718248 0.098208141 2.0299695e-17)
(-0.059989022 0.093880362 5.5094703e-18)
(-0.066635127 0.088634667 -2.013157e-18)
(-0.072545606 0.082541319 9.8857071e-18)
(-0.077616287 0.075692823 1.1233168e-17)
(-0.081755098 0.068204043 8.9493966e-18)
(-0.084887643 0.060210737 8.7708319e-18)
(-0.086962289 0.051866309 1.1158982e-17)
(-0.087954022 0.043336868 2.6150024e-17)
(-0.087867375 0.034795256 -1.8940508e-17)
(-0.086738033 0.026413978 -1.8336109e-17)
(-0.084632268 0.018357625 -2.6326557e-17)
(-0.081644238 0.010775304 -2.3990738e-17)
(-0.077892068 0.0037938522 -7.9484745e-18)
(-0.073507103 -0.0024777879 -3.3414306e-19)
(-0.068633732 -0.0079716231 -1.0211815e-17)
(-0.063428456 -0.012644294 -1.472333e-17)
(-0.058036192 -0.016482411 -8.3799175e-18)
(-0.052595606 -0.019500256 -1.4305187e-17)
(-0.04723241 -0.02173594 -1.1928666e-17)
(-0.042055687 -0.023247375 -1.0238362e-17)
(-0.037155513 -0.024107702 -1.1788049e-17)
(-0.032601742 -0.024400564 -8.8442391e-18)
(-0.028443882 -0.024215513 -2.3732797e-18)
(-0.024712112 -0.023643871 -4.9265324e-18)
(-0.02141885 -0.022775278 -4.4680381e-18)
(-0.018560552 -0.021694409 -9.6604914e-19)
(-0.016120007 -0.020478397 -1.6810117e-18)
(-0.014068972 -0.019194929 -2.8207845e-18)
(-0.012370997 -0.017900922 -1.9744973e-18)
(-0.010984281 -0.016641909 -2.3366485e-18)
(-0.009864374 -0.015452072 -1.9946117e-19)
(-0.0089665673 -0.014354762 -6.9182378e-19)
(-0.0082479374 -0.013363404 1.0102874e-18)
(-0.0076690698 -0.012482823 1.806528e-19)
(-0.0071953699 -0.0117109 -9.1961517e-19)
(-0.0067978067 -0.011040359 -6.2415953e-19)
(-0.0064531317 -0.010460526 -4.0686729e-19)
(-0.00614367 -0.009958903 4.4150527e-19)
(-0.0058567953 -0.0095224765 -4.3770559e-19)
(-0.0055841961 -0.0091387383 -2.7357738e-19)
(-0.0053210464 -0.0087964387 6.3397766e-20)
(-0.0050651503 -0.0084860565 -3.1761143e-19)
(-0.0048161104 -0.0081999813 4.522267e-20)
(-0.0045745985 -0.0079324732 -1.6465993e-19)
(-0.0043417738 -0.0076794678 -6.034586e-19)
(0.0071906589 -0.12298494 1.2493011e-16)
(0.016475916 -0.12262221 1.9574156e-16)
(0.026856604 -0.12041924 1.966731e-16)
(0.036492115 -0.11677828 1.0696182e-16)
(0.045891297 -0.1116233 -1.3081495e-17)
(0.054604652 -0.10510136 5.0399815e-19)
(0.062549774 -0.097377529 1.5121912e-17)
(0.069663555 -0.088592317 -3.141766e-17)
(0.075880586 -0.078872358 -5.1444459e-18)
(0.081133786 -0.068340376 3.8403129e-17)
(0.085360607 -0.057124992 3.6205723e-17)
(0.088508552 -0.04536437 2.3040097e-17)
(0.090539872 -0.033205289 -2.6891143e-18)
(0.091436034 -0.020800442 7.4139814e-18)
(0.091196288 -0.0083045532 -3.2273971e-18)
(0.089845679 0.0041304994 2.0085131e-17)
(0.087429857 0.016364691 1.4308171e-17)
(0.083988804 0.028266259 1.2182447e-17)
(0.079593442 0.039716969 -4.9527003e-18)
(0.074317301 0.050613649 -1.9269582e-17)
(0.068238488 0.060866905 -3.975474e-18)
(0.061437291 0.070400479 1.2782422e-17)
(0.053993922 0.079149614 -1.6141654e-17)
(0.045987408 0.087059379 -3.1761435e-17)
(0.037495243 0.094082192 -2.2501559e-17)
(0.028593875 0.10017601 -1.3697436e-17)
(0.019359871 0.10530248 -1.4308769e-17)
(0.0098666492 0.10942529 -1.6655281e-17)
(0.00016616661 0.11251479 -2.4965258e-17)
(-0.0096350115 0.11453736 -1.2819073e-17)
(-0.019446798 0.11545836 -1.4461522e-17)
(-0.029178817 0.11525562 -2.9841135e-17)
(-0.038726208 0.11391242 -1.4473792e-17)
(-0.047975328 0.1114221 -3.6498534e-18)
(-0.056803425 0.10779203 -1.2382487e-18)
(-0.065080335 0.10304765 -3.2911339e-17)
(-0.072671448 0.097236361 -5.1761901e-17)
(-0.079442082 0.090430989 -2.4628807e-17)
(-0.085263248 0.082732232 -4.1533178e-18)
(-0.090018561 0.074269563 -1.5126863e-17)
(-0.093611753 0.065200004 1.9871703e-17)
(-0.095973792 0.055704463 3.1825064e-17)
(-0.097068326 0.04598162 2.6166261e-17)
(-0.096895864 0.036240234 -3.7846443e-18)
(-0.095496381 0.026689976 -2.2117103e-17)
(-0.092949209 0.017531393 -4.5836501e-18)
(-0.089370064 0.0089462069 2.7591089e-18)
(-0.084898442 0.0010868202 1.1402512e-17)
(-0.079694789 -0.0059145247 1.1789657e-17)
(-0.073948687 -0.011980812 1.0924622e-18)
(-0.06784134 -0.017063873 1.6624238e-17)
(-0.061550417 -0.021153693 1.7088083e-17)
(-0.0552429 -0.02427399 1.6390562e-18)
(-0.04906831 -0.026477421 -3.0657523e-18)
(-0.043154583 -0.027840143 -3.3775201e-19)
(-0.037605422 -0.02845588 4.7387387e-18)
(-0.032499113 -0.028429919 9.4705257e-18)
(-0.027888788 -0.02787339 6.1078331e-18)
(-0.023804117 -0.026898318 -1.3976252e-18)
(-0.020253337 -0.025613501 -4.7324071e-19)
(-0.017225531 -0.024120476 -3.7955939e-19)
(-0.014693749 -0.022510553 2.3075532e-18)
(-0.012618291 -0.020862737 -7.5466994e-19)
(-0.010950253 -0.019242131 -1.0346195e-19)
(-0.0096351586 -0.017699432 5.6018338e-19)
(-0.008616256 -0.016271168 5.7473874e-19)
(-0.0078373809 -0.014980448 6.0443633e-19)
(-0.0072454514 -0.013838232 6.3518817e-19)
(-0.006792614 -0.01284514 8.9548712e-19)
(-0.0064378012 -0.011993621 7.7799276e-19)
(-0.0061475297 -0.01127037 -4.1574283e-19)
(-0.0058959734 -0.010658631 -1.3231415e-19)
(-0.0056644829 -0.010140179 5.8140894e-19)
(-0.0054407246 -0.0096968828 -3.8599373e-19)
(-0.005217639 -0.0093119547 -2.9422178e-19)
(-0.0049923076 -0.0089708578 -2.690862e-19)
(-0.004764754 -0.0086617614 3.577024e-19)
(-0.0045368233 -0.0083756252 2.688506e-19)
(-0.0043112473 -0.0081060125 -2.2430981e-19)
(-0.0040909316 -0.0078487205 -4.1361921e-19)
(0.0084045916 -0.14576408 1.1909988e-16)
(0.019283991 -0.14533478 1.1205845e-17)
(0.031348149 -0.14262001 -7.0775552e-17)
(0.042430045 -0.13824889 5.7046242e-17)
(0.053161054 -0.13215133 2.0992843e-17)
(0.06304274 -0.1245516 -7.784868e-17)
(0.072030094 -0.11564604 -2.2038697e-17)
(0.080075886 -0.10558412 -5.1266642e-18)
(0.087119622 -0.094492747 5.0361478e-18)
(0.093086163 -0.082494491 6.8330651e-18)
(0.097898417 -0.069724645 -1.5822875e-17)
(0.10148955 -0.056336128 -8.7632407e-18)
(0.10381124 -0.042496902 -8.0682997e-18)
(0.10483852 -0.028384342 -6.1986446e-18)
(0.10457212 -0.014178737 2.5054884e-17)
(0.10303761 -5.3434192e-05 1.3111299e-17)
(0.10030447 0.01381817 6.3344006e-18)
(0.09641415 0.027294758 6.8015101e-18)
(0.09145583 0.040241224 4.6128961e-19)
(0.085519294 0.052544295 3.9765302e-18)
(0.07869747 0.064108473 -2.1506736e-18)
(0.071084008 0.074854529 5.8741472e-18)
(0.062770435 0.084717166 -4.2807528e-20)
(0.053844601 0.093642525 1.8472842e-17)
(0.044390295 0.10158462 2.8857953e-17)
(0.034488277 0.10850226 3.2974292e-17)
(0.024216654 0.11435715 2.7367106e-17)
(0.013652847 0.11911106 3.2377546e-17)
(0.0028504068 0.12272932 3.711702e-17)
(-0.0080913083 0.12518069 3.3501062e-17)
(-0.019073259 0.12640883 2.6406343e-17)
(-0.029999105 0.12638805 1.2606475e-17)
(-0.040756142 0.12508916 8.9745537e-18)
(-0.051218522 0.12249297 6.0521042e-18)
(-0.06124669 0.1185953 1.3574657e-17)
(-0.0706891 0.11341222 -1.3099254e-17)
(-0.079385405 0.10698559 -1.5219558e-17)
(-0.087171576 0.099388126 -1.5851955e-18)
(-0.09388705 0.090727535 1.212445e-18)
(-0.099383703 0.081148637 2.389443e-17)
(-0.10353598 0.070832783 3.7778892e-17)
(-0.10625088 0.059993837 3.8747673e-17)
(-0.10747583 0.048870646 1.2725633e-17)
(-0.10720461 0.037716972 3.0887911e-17)
(-0.10548132 0.026789558 1.1464863e-17)
(-0.10240026 0.016334684 -1.0060405e-17)
(-0.098103896 0.0065758716 -1.1377286e-17)
(-0.092762512 -0.0022988669 -6.5032746e-18)
(-0.086574914 -0.010138378 2.7892907e-18)
(-0.079778037 -0.016846759 1.0276017e-17)
(-0.072592053 -0.02237329 2.4360085e-17)
(-0.065233978 -0.026713842 1.5977375e-17)
(-0.057905047 -0.029905476 4.2065932e-18)
(-0.050783292 -0.032020308 -5.4507235e-18)
(-0.044018686 -0.033158198 -1.1097146e-17)
(-0.037730271 -0.033439095 2.3466865e-18)
(-0.032005148 -0.032995409 1.0969511e-17)
(-0.026899394 -0.031964921 8.1705905e-18)
(-0.022440727 -0.030484932 -4.4122714e-18)
(-0.018630976 -0.028687389 -7.0741815e-18)
(-0.015448998 -0.026693926 -2.2896205e-18)
(-0.012855006 -0.024612402 4.6488508e-18)
(-0.010794504 -0.022534923 5.6554346e-19)
(-0.0092026918 -0.020535635 -9.6007734e-19)
(-0.0080091887 -0.018670525 -4.5329104e-19)
(-0.0071419607 -0.016977953 -1.2265899e-18)
(-0.0065307489 -0.015479624 2.8237825e-18)
(-0.0061101593 -0.01418248 1.7923019e-18)
(-0.0058222834 -0.013081037 -1.0004216e-18)
(-0.0056186253 -0.012160137 -9.3795113e-19)
(-0.0054609728 -0.011398325 2.1307795e-19)
(-0.0053211797 -0.010770877 2.1332099e-19)
(-0.0051802176 -0.010252177 -2.8738346e-20)
(-0.0050269135 -0.0098176122 -6.6633843e-19)
(-0.0048565585 -0.0094452108 -6.6059278e-19)
(-0.0046692893 -0.0091166406 -5.3238161e-19)
(-0.0044684108 -0.0088175902 4.5969431e-19)
(-0.0042589206 -0.0085376939 5.9677292e-19)
(-0.0040463264 -0.0082701192 -1.2527296e-19)
(-0.0038357892 -0.0080109453 -5.5211696e-19)
(0.0099277089 -0.17250985 3.2521735e-16)
(0.022814975 -0.17196645 4.5423837e-16)
(0.036901446 -0.16845283 -9.936539e-17)
(0.049620759 -0.16305645 1.4682032e-16)
(0.061805428 -0.15571596 1.0910702e-16)
(0.072918819 -0.14678761 -2.1003545e-17)
(0.083004167 -0.1364924 -1.7628356e-17)
(0.092044269 -0.12496971 1.3286177e-17)
(0.099987939 -0.11232674 6.4672576e-18)
(0.10674497 -0.098670756 3.8982897e-17)
(0.11221315 -0.084137291 4.3219028e-17)
(0.11630143 -0.068894242 3.1425673e-17)
(0.11894403 -0.053135677 3.9561053e-17)
(0.12010746 -0.037070839 1.5292929e-17)
(0.11979355 -0.020912748 4.8398334e-17)
(0.11803075 -0.0048676767 5.6390763e-17)
(0.11490215 0.010864189 7.8618347e-18)
(0.11048003 0.026118637 -6.1140515e-18)
(0.10486143 0.040744492 -1.5533403e-17)
(0.098159676 0.05461797 2.2055919e-17)
(0.09048668 0.067638474 3.2612551e-17)
(0.081952582 0.079725792 2.5126949e-19)
(0.072662325 0.090816756 3.6981733e-17)
(0.062713612 0.1008613 5.5250366e-17)
(0.052196212 0.10981796 7.4504014e-17)
(0.04119411 0.11764939 1.2602458e-16)
(0.029786224 0.12431936 9.8050601e-17)
(0.018049069 0.12978903 7.967948e-17)
(0.0060439538 0.13401705 9.1992008e-17)
(-0.0061558351 0.13697475 7.2972756e-17)
(-0.018434477 0.13858408 8.1386433e-17)
(-0.030690314 0.13881161 6.1523962e-17)
(-0.042807934 0.13761123 2.3906518e-17)
(-0.054648714 0.1349465 4.691499e-17)
(-0.066054762 0.13079624 3.5596592e-17)
(-0.076850029 0.12516161 1.9890565e-17)
(-0.086843463 0.11807364 3.7969247e-17)
(-0.095834784 0.10960071 2.3911743e-17)
(-0.10362321 0.099855014 4.2298065e-17)
(-0.11001902 0.088996725 7.186222e-17)
(-0.11485724 0.077234677 5.4564776e-17)
(-0.1180117 0.064822224 5.1735687e-17)
(-0.11940648 0.052047985 2.4210437e-17)
(-0.11902451 0.039222629 1.7895089e-17)
(-0.11691356 0.026663009 -5.8577788e-18)
(-0.11318613 0.014673402 -3.3618293e-18)
(-0.10801837 0.0035258384 -1.6906239e-18)
(-0.1016168 -0.0065265707 3.0506254e-18)
(-0.094239171 -0.015325692 1.0319456e-18)
(-0.086173959 -0.022753217 5.045678e-18)
(-0.077694229 -0.028755313 1.984219e-17)
(-0.069065268 -0.033336686 1.0899689e-17)
(-0.060530239 -0.03655313 1.6010389e-18)
(-0.052301254 -0.038502791 -3.7318026e-18)
(-0.044553856 -0.03931636 -1.0005713e-17)
(-0.037424079 -0.039147179 -4.2569704e-18)
(-0.031007865 -0.038161596 4.376739e-18)
(-0.025363009 -0.036530279 7.2193293e-18)
(-0.02051319 -0.034421248 -1.2061054e-18)
(-0.016450892 -0.031994367 -2.4500697e-18)
(-0.013140944 -0.029395238 -2.6306949e-18)
(-0.010526835 -0.026750752 1.5192162e-18)
(-0.0085351113 -0.024168387 -2.5126603e-19)
(-0.0070806863 -0.021732075 1.0483604e-19)
(-0.0060733186 -0.019503028 5.380194e-19)
(-0.0054219798 -0.017520577 -2.8896901e-18)
(-0.005039124 -0.015803343 -8.9564261e-19)
(-0.0048445112 -0.01435214 7.7479701e-20)
(-0.0047682042 -0.013153013 -5.3051596e-21)
(-0.0047531975 -0.012180237 -3.3163916e-19)
(-0.0047564692 -0.011401459 -5.2907612e-19)
(-0.0047480665 -0.01078158 -3.7502805e-19)
(-0.0047094809 -0.010285401 -1.4785e-19)
(-0.0046320389 -0.0098802272 -2.415912e-19)
(-0.0045149716 -0.0095378913 -2.3704566e-19)
(-0.0043630272 -0.0092357591 -3.0917983e-19)
(-0.0041842005 -0.0089569816 4.6409358e-20)
(-0.0039878142 -0.0086901638 3.9001075e-19)
(-0.0037830408 -0.0084286248 1.4937424e-19)
(-0.0035778807 -0.0081693894 -3.1581016e-19)
(0.011937092 -0.20431598 2.9565067e-16)
(0.027464115 -0.20354703 4.6259077e-16)
(0.044004921 -0.19867816 2.0180595e-16)
(0.058523448 -0.19176158 1.4680559e-16)
(0.072218969 -0.18272022 2.8236696e-16)
(0.084546058 -0.17213137 7.0687682e-17)
(0.095730155 -0.16020762 -3.8503949e-17)
(0.10579982 -0.14703357 -1.4590774e-16)
(0.11471457 -0.1326561 -5.9419532e-17)
(0.12235129 -0.11713983 -1.0130011e-16)
(0.12856178 -0.10061078 -1.6259914e-16)
(0.13321409 -0.083254065 -7.2405999e-17)
(0.1362144 -0.065298317 -7.0723355e-17)
(0.13751595 -0.046995539 4.7096885e-18)
(0.13712029 -0.028602968 8.6970174e-18)
(0.13506927 -0.010369005 -1.6307403e-17)
(0.13145651 0.0074788501 -2.8065935e-17)
(0.12639495 0.024740623 -4.2047788e-17)
(0.11999546 0.041250248 -1.3039655e-17)
(0.11240138 0.056873327 4.9063683e-17)
(0.10374883 0.071505861 6.6639379e-17)
(0.094168412 0.085069643 -8.0994084e-18)
(0.083781024 0.097507494 8.2959143e-18)
(0.072695428 0.10877733 4.5050816e-17)
(0.061007472 0.11884634 4.9385476e-17)
(0.048802791 0.12768502 1.0903206e-16)
(0.036157349 0.13526232 8.3173793e-17)
(0.023142719 0.14154057 4.3959102e-17)
(0.0098282245 0.14647525 6.4770079e-17)
(-0.0037471817 0.15002317 3.4702002e-17)
(-0.017451585 0.15210828 6.0567238e-17)
(-0.031183956 0.15267087 3.9497806e-17)
(-0.044827891 0.15164435 -2.2875571e-17)
(-0.058232563 0.14896933 1.4779289e-17)
(-0.071220931 0.14460053 7.7553461e-18)
(-0.083589364 0.13851643 2.7823897e-17)
(-0.095110498 0.13072971 3.6202442e-17)
(-0.10553944 0.12129779 3.1690917e-18)
(-0.11462416 0.11033281 3.0974434e-17)
(-0.12212029 0.098008964 4.3909176e-17)
(-0.12780952 0.08456551 2.0282107e-17)
(-0.13151951 0.070303051 4.2298168e-17)
(-0.13314076 0.055572304 6.7840094e-17)
(-0.13263917 0.040756803 1.9541451e-18)
(-0.13006555 0.026251802 -3.6078806e-17)
(-0.12555898 0.012439204 -3.3534897e-17)
(-0.11931948 -0.00034442565 -1.2163063e-17)
(-0.11161311 -0.0117871 2.5228798e-17)
(-0.10279291 -0.021693248 9.3330793e-18)
(-0.093192215 -0.029926832 -1.2452269e-17)
(-0.083155204 -0.036433626 7.0452853e-18)
(-0.073008325 -0.041232713 1.2123929e-17)
(-0.063046159 -0.044406327 1.6195568e-18)
(-0.053521361 -0.046087564 8.0990049e-18)
(-0.044638799 -0.046447243 7.9282791e-18)
(-0.036552866 -0.045681194 2.183952e-18)
(-0.029367811 -0.043998139 7.5945464e-18)
(-0.023141128 -0.04160925 1.7198982e-17)
(-0.017889411 -0.038719623 3.7667465e-18)
(-0.013592069 -0.035522648 -1.2675507e-19)
(-0.010194884 -0.032192835 2.4865186e-18)
(-0.0076197648 -0.028877895 5.4075939e-18)
(-0.0057691784 -0.025704456 6.9777268e-18)
(-0.0045321255 -0.022766417 2.2213272e-18)
(-0.0037936727 -0.020129838 -2.557944e-18)
(-0.0034391354 -0.017833707 -1.6743123e-18)
(-0.0033597738 -0.015891062 5.0292387e-19)
(-0.003457698 -0.014293597 2.5038854e-18)
(-0.0036485098 -0.01301655 5.8024236e-19)
(-0.00386533 -0.012019268 -8.6413284e-19)
(-0.0040606016 -0.011254985 -7.6426515e-19)
(-0.0042033877 -0.010675044 4.5287792e-19)
(-0.0042771017 -0.010231913 1.0115606e-18)
(-0.0042776165 -0.0098829447 3.405585e-19)
(-0.0042102965 -0.0095926327 -5.3343187e-20)
(-0.0040866061 -0.0093335899 -1.4440101e-19)
(-0.003921091 -0.0090865659 3.7412834e-19)
(-0.0037289124 -0.0088397479 1.0250285e-18)
(-0.0035239914 -0.0085875143 2.3682719e-19)
(-0.0033177966 -0.0083288329 -2.6135828e-19)
(0.014800361 -0.2429484 4.1389185e-16)
(0.033993634 -0.24165922 4.1024135e-16)
(0.053504941 -0.23429195 5.0611702e-16)
(0.069850063 -0.22500469 1.8011497e-16)
(0.08494753 -0.21355717 1.8739104e-16)
(0.098304929 -0.20087743 1.2051735e-16)
(0.11049033 -0.18707145 2.6595955e-16)
(0.12158385 -0.17207536 1.4317581e-16)
(0.13154437 -0.15579853 5.1554118e-17)
(0.14017452 -0.13821765 1.6357741e-16)
(0.14724119 -0.11943781 7.7001443e-17)
(0.15254471 -0.099668697 -1.2341857e-17)
(0.15594867 -0.079188889 -3.7613425e-17)
(0.15738832 -0.058310322 -2.9106452e-17)
(0.15686651 -0.037349132 2.2271531e-17)
(0.15444383 -0.016606366 -5.6363707e-17)
(0.15022965 0.0036486678 3.1127493e-17)
(0.14439285 0.023176636 -5.5614478e-17)
(0.1370624 0.041797078 -1.1003495e-16)
(0.12842042 0.059364167 -7.6833863e-17)
(0.11863456 0.075773236 -1.4389234e-17)
(0.10786105 0.090952514 -2.0755321e-19)
(0.096240016 0.1048563 -9.3207122e-18)
(0.083892536 0.11745659 4.5653172e-17)
(0.070920015 0.12873515 4.5433022e-17)
(0.057407422 0.13867537 7.2932054e-17)
(0.043424972 0.14725522 9.9396346e-17)
(0.029034907 0.15444172 7.388889e-17)
(0.014297646 0.16018895 8.6721339e-17)
(-0.00076718464 0.16443784 6.4617035e-17)
(-0.016024958 0.16711159 8.2940134e-17)
(-0.031388768 0.16811984 7.6200003e-17)
(-0.046738537 0.16736972 4.1379289e-17)
(-0.061913631 0.16477102 6.3877704e-17)
(-0.076718324 0.16024483 6.5236551e-17)
(-0.090918704 0.15373638 7.0502917e-17)
(-0.10424497 0.1452292 3.9690839e-17)
(-0.11639768 0.13475986 2.6433147e-17)
(-0.12705969 0.12243273 3.3331817e-17)
(-0.13591463 0.10843241 4.1816682e-17)
(-0.14267168 0.093030654 5.0464925e-17)
(-0.14709368 0.076584262 1.5154549e-17)
(-0.14902233 0.059521771 2.7036228e-17)
(-0.14839646 0.042320527 -3.1548153e-17)
(-0.14526577 0.025477754 -1.0140243e-17)
(-0.13980203 0.0094774624 -3.3443293e-17)
(-0.132255 -0.0052447375 -5.5961169e-17)
(-0.12296064 -0.018329344 -2.0568866e-17)
(-0.11236383 -0.029515002 2.2406851e-18)
(-0.10089162 -0.038649678 -2.5523204e-19)
(-0.088972146 -0.04568319 -3.6657288e-18)
(-0.077006954 -0.050657282 -1.3098775e-17)
(-0.065352976 -0.053691461 -1.8854933e-17)
(-0.054310593 -0.054965802 4.3743286e-18)
(-0.044117664 -0.054703369 2.5208801e-17)
(-0.034947655 -0.05315393 -5.1584772e-19)
(-0.026911675 -0.050578898 -1.8713624e-17)
(-0.020063822 -0.04723917 4.9595406e-18)
(-0.014409264 -0.043384353 2.6830833e-18)
(-0.009909758 -0.039247033 1.1608037e-17)
(-0.0064848394 -0.035038464 8.0117728e-18)
(-0.0040297037 -0.030927209 -4.3013132e-18)
(-0.0024168384 -0.027064329 4.0559371e-18)
(-0.0015009885 -0.023553627 3.0257451e-18)
(-0.001136948 -0.020465334 2.0098182e-18)
(-0.0011805452 -0.01783587 2.8001168e-18)
(-0.001496963 -0.015669303 -8.6074232e-19)
(-0.0019682753 -0.013941839 2.2358441e-18)
(-0.0024923287 -0.01261926 1.3735877e-18)
(-0.0029901285 -0.011638044 6.8767667e-19)
(-0.0034106658 -0.010932655 -2.3819878e-19)
(-0.0037233051 -0.010436616 1.7637647e-20)
(-0.00391559 -0.010086759 4.3618834e-19)
(-0.0039908848 -0.0098282187 4.7849763e-19)
(-0.003963698 -0.0096168933 8.1944541e-19)
(-0.003855044 -0.0094203139 1.7909501e-19)
(-0.0036884892 -0.0092172987 -5.512009e-19)
(-0.0034869752 -0.0089967272 1.6669653e-19)
(-0.0032704459 -0.008755441 3.2045888e-19)
(-0.0030544699 -0.0084958157 1.0486154e-18)
(0.019304374 -0.29152883 5.3625454e-16)
(0.043918875 -0.28882892 1.317069e-15)
(0.066873614 -0.27659535 1.2770661e-15)
(0.084668369 -0.26344461 8.0639274e-16)
(0.10069132 -0.24851888 3.2331199e-16)
(0.11459494 -0.23323004 5.0092851e-17)
(0.12753559 -0.2173238 -3.2371537e-17)
(0.1396065 -0.20041056 1.8830577e-16)
(0.15071906 -0.18212395 1.1112334e-16)
(0.1605127 -0.16228514 6.9451759e-17)
(0.16860096 -0.14097178 1.9386292e-16)
(0.1746768 -0.11843877 6.8663832e-17)
(0.17854374 -0.095042667 6.2698958e-17)
(0.18011634 -0.071181733 3.3316607e-17)
(0.17940463 -0.047253449 1.221711e-17)
(0.17649657 -0.023627884 3.4505548e-17)
(0.17152782 -0.00063025415 -4.1467674e-17)
(0.16473774 0.021461312 -5.4162571e-17)
(0.15628782 0.042445013 -5.2134946e-17)
(0.14640541 0.062165263 -2.0132534e-17)
(0.13530026 0.08052155 1.7061144e-17)
(0.12316091 0.097455162 -1.3536501e-17)
(0.11015079 0.11293963 -3.2278795e-17)
(0.096404741 0.12696948 -1.9551635e-17)
(0.0820286 0.13954919 -3.3946854e-17)
(0.067103121 0.15068227 -4.0883495e-17)
(0.051687644 0.16036144 -3.3530358e-17)
(0.035828377 0.16856183 -1.8059355e-17)
(0.019570599 0.17523803 -1.0659692e-17)
(0.0029108079 0.18032193 2.4937679e-18)
(-0.01403492 0.1837232 -1.0181251e-17)
(-0.031185693 0.18531809 3.3899338e-19)
(-0.048431153 0.18498243 1.5795124e-17)
(-0.065603727 0.18258474 2.0663126e-17)
(-0.082490771 0.17800026 2.8104009e-17)
(-0.098826255 0.17112682 -1.182709e-17)
(-0.11429164 0.16190373 -2.7225726e-18)
(-0.12852151 0.15033201 2.6519505e-17)
(-0.14111627 0.1364959 2.8324752e-17)
(-0.15166477 0.1205828 5.1324534e-17)
(-0.15977717 0.10289709 9.1167443e-17)
(-0.16512495 0.083861768 6.6813161e-17)
(-0.16747881 0.064003353 5.4379192e-17)
(-0.16673656 0.043920851 5.6489604e-18)
(-0.16294235 0.024245223 -3.7505464e-17)
(-0.15630272 0.0055890448 -6.665568e-17)
(-0.14712771 -0.011457719 -5.703141e-17)
(-0.13587171 -0.026473288 -5.7446784e-18)
(-0.1230899 -0.039137151 4.5629729e-18)
(-0.10932851 -0.049273868 -7.6777559e-18)
(-0.09512533 -0.05684278 6.5000416e-18)
(-0.080976305 -0.061920455 -6.4033452e-18)
(-0.067313925 -0.0646789 -2.7070742e-17)
(-0.054494052 -0.065361406 2.438555e-18)
(-0.042790668 -0.064259033 2.8603773e-17)
(-0.032395814 -0.061689804 -1.5079888e-17)
(-0.023424585 -0.057980185 -1.5882899e-17)
(-0.015922962 -0.053451484 4.3165879e-18)
(-0.0098780304 -0.048407298 -1.1263211e-18)
(-0.0052303924 -0.043124372 4.8733217e-18)
(-0.0018629391 -0.037859736 -1.0696312e-17)
(0.00036346437 -0.032811325 -9.5828412e-19)
(0.0016108308 -0.028147437 5.3165518e-18)
(0.0020711826 -0.023985682 1.3609807e-18)
(0.0019270361 -0.020399796 -1.5616391e-18)
(0.0013589767 -0.01742116 -1.5886906e-18)
(0.00053571859 -0.015042827 6.0446988e-19)
(-0.00040659895 -0.013224367 1.317239e-18)
(-0.0013436585 -0.011900699 2.0107949e-18)
(-0.002177545 -0.010993038 1.5637924e-20)
(-0.0028577734 -0.010407637 -1.3122491e-18)
(-0.0033558604 -0.010054291 7.4756272e-19)
(-0.0036668675 -0.009850019 1.3921779e-19)
(-0.0038057527 -0.0097249609 3.0085339e-19)
(-0.0038003031 -0.0096250856 2.6262058e-19)
(-0.0036849077 -0.0095127518 -8.080274e-19)
(-0.0034954502 -0.0093659116 -2.5585953e-19)
(-0.0032650992 -0.0091759423 1.5264456e-19)
(-0.0030212593 -0.0089442695 3.8814082e-20)
(-0.0027841619 -0.0086787826 4.8916617e-19)
(0.026981718 -0.35589617 -4.2466278e-16)
(0.059897563 -0.34913047 -8.5231932e-16)
(0.086359779 -0.3271893 1.1169483e-15)
(0.10433818 -0.30756046 7.7206596e-16)
(0.12011686 -0.28760576 5.5291133e-16)
(0.13361865 -0.26920246 -3.3044982e-16)
(0.14691061 -0.2511375 -2.4704501e-16)
(0.159932 -0.23239354 -2.4058325e-16)
(0.17242334 -0.21209765 -2.4106264e-16)
(0.18368434 -0.18982918 -1.4610059e-16)
(0.19306186 -0.16565609 -1.1172414e-16)
(0.20008902 -0.13992906 -6.4712121e-17)
(0.20449655 -0.11313343 -6.5919207e-17)
(0.2061852 -0.08579387 -1.0360493e-17)
(0.20518719 -0.058418536 -3.4979811e-17)
(0.20163245 -0.031466905 -1.2447728e-18)
(0.19571449 -0.0053329297 -4.2597076e-17)
(0.18773465 0.019660409 -4.5418374e-17)
(0.1779218 0.043284962 -1.188463e-17)
(0.16655733 0.065380193 -4.056013e-20)
(0.15390552 0.08585632 -7.6999452e-17)
(0.14019524 0.10467695 -8.1690539e-17)
(0.12561805 0.12184562 -8.7244975e-17)
(0.11032402 0.13739082 -1.4453018e-16)
(0.094421614 0.1513508 -1.3228572e-16)
(0.077982508 0.1637591 -1.8007123e-16)
(0.061048073 0.17463159 -1.8411408e-16)
(0.043640635 0.18395779 -1.0719291e-16)
(0.025777187 0.19169442 -1.2399783e-16)
(0.0074334504 0.19776234 -1.1517041e-16)
(-0.011327221 0.20206427 -1.7897532e-16)
(-0.03041846 0.2044253 -1.5304916e-16)
(-0.049755784 0.20468821 -7.5573016e-17)
(-0.069171665 0.20266689 -8.1329637e-17)
(-0.088440636 0.19817545 -7.7312944e-17)
(-0.10726463 0.19104611 -1.3747438e-16)
(-0.12527076 0.18115312 -8.4436766e-17)
(-0.14201494 0.16844074 1.4391026e-17)
(-0.1569942 0.15295359 3.1917877e-17)
(-0.16967282 0.13486793 4.4140517e-17)
(-0.17952532 0.1145169 5.7985981e-17)
(-0.1860933 0.092399964 6.1620272e-17)
(-0.1890434 0.06916743 2.9748043e-17)
(-0.18821057 0.045579246 4.8355118e-17)
(-0.18363045 0.022449858 -2.5999909e-17)
(-0.17553164 0.00056896588 -7.4115903e-17)
(-0.16431289 -0.019301554 -8.1274391e-17)
(-0.15061992 -0.036620004 -4.7125025e-17)
(-0.1351305 -0.050997494 -2.3149865e-17)
(-0.11855367 -0.062240423 -1.9200024e-17)
(-0.10156932 -0.070330677 1.2528843e-17)
(-0.084791293 -0.075398705 1.0258738e-17)
(-0.06874266 -0.077690758 -1.6445835e-17)
(-0.053842414 -0.077535236 4.0887407e-18)
(-0.040402268 -0.075311518 7.5353684e-18)
(-0.028630199 -0.071423697 -1.8279907e-17)
(-0.018640296 -0.066278107 -5.5684821e-18)
(-0.010463999 -0.060269106 7.5119437e-18)
(-0.0040602847 -0.053759136 -2.7184602e-18)
(0.00065655273 -0.047094443 -4.3730019e-18)
(0.0038385162 -0.040566146 -1.6442083e-17)
(0.0056884505 -0.034415606 -9.012864e-20)
(0.0064145663 -0.028822446 2.8145599e-19)
(0.006250865 -0.023922376 3.152783e-19)