/*--------------------------------*- C++ -*----------------------------------*\
| =========                 |                                                 |
| \\      /  F ield         | OpenFOAM: The Open Source CFD Toolbox           |
|  \\    /   O peration     | Version:  2306                                  |
|   \\  /    A nd           | Website:  www.openfoam.com                      |
|    \\/     M anipulation  |                                                 |
\*---------------------------------------------------------------------------*/
FoamFile
{
    version     2.0;
    format      ascii;
    arch        "LSB;label=32;scalar=64";
    class       volVectorField;
    location    "0.46";
    object      U;
}
// * * * * * * * * * * * * * * * * * * * * * * * * * * * * * * * * * * * * * //

dimensions      [0 1 -1 0 0 0 0];

internalField   nonuniform List<vector> 
6400
(
(-4.7488536e-05 1.9762618e-06 -4.233643e-19)
(-5.5142295e-05 1.9560069e-06 2.142914e-19)
(-6.2359835e-05 1.9326555e-06 3.6884048e-19)
(-6.914607e-05 1.9065815e-06 -2.091862e-20)
(-7.5506955e-05 1.8781352e-06 8.0695339e-20)
(-8.144939e-05 1.8476518e-06 -1.3474538e-19)
(-8.6981146e-05 1.8154344e-06 6.4676768e-20)
(-9.2110759e-05 1.7817736e-06 4.1284573e-20)
(-9.6847449e-05 1.7469388e-06 -3.2355733e-19)
(-0.00010120105 1.7111709e-06 -2.4948872e-20)
(-0.00010518191 1.6747094e-06 -2.0767879e-19)
(-0.00010880082 1.6377854e-06 -1.1321898e-19)
(-0.00011206883 1.6005631e-06 3.0484368e-19)
(-0.00011499712 1.5631418e-06 1.7964169e-19)
(-0.00011759687 1.5254562e-06 -4.3877306e-20)
(-0.00011987922 1.4874309e-06 -2.9164269e-19)
(-0.00012185513 1.4490179e-06 9.4884009e-20)
(-0.00012353586 1.4106623e-06 2.9917284e-19)
(-0.0001249336 1.3724283e-06 6.7763063e-20)
(-0.00012606021 1.3346835e-06 -1.495971e-19)
(-0.00012692666 1.2981424e-06 -3.3023463e-19)
(-0.00012754368 1.265218e-06 1.2002029e-19)
(-0.00012792381 1.2499688e-06 2.0468467e-19)
(-0.00012808068 1.2376206e-06 6.3544956e-20)
(-0.00012802585 1.2247025e-06 -6.2928555e-20)
(-0.00012776949 1.2111412e-06 -3.5319986e-19)
(-0.00012732158 1.197314e-06 1.0137424e-19)
(-0.00012669179 1.1834165e-06 2.8065367e-19)
(-0.00012588883 1.1690587e-06 5.6233891e-20)
(-0.00012491826 1.1522248e-06 4.0214539e-20)
(-0.00012379116 1.1253355e-06 -2.7119278e-19)
(-0.00012252507 1.0909187e-06 -1.6681364e-19)
(-0.00012112923 1.0566944e-06 1.8521919e-19)
(-0.00011960827 1.0242909e-06 8.3259312e-20)
(-0.00011796934 9.9388091e-07 1.5097261e-20)
(-0.00011621998 9.6528777e-07 -5.7868644e-20)
(-0.00011436768 9.3831789e-07 -2.8278341e-22)
(-0.00011241963 9.1280476e-07 1.0582341e-19)
(-0.00011038273 8.8862147e-07 -1.7704983e-20)
(-0.00010826357 8.6566943e-07 -3.3435314e-20)
(-0.00010606842 8.438656e-07 -5.7200132e-20)
(-0.00010380326 8.2315135e-07 1.9704256e-20)
(-0.00010147374 8.0346631e-07 8.5122922e-20)
(-9.9085274e-05 7.8476012e-07 -3.022694e-21)
(-9.6642946e-05 7.6698755e-07 -4.818459e-20)
(-9.4151594e-05 7.5010981e-07 -1.0681888e-19)
(-9.1615788e-05 7.340861e-07 1.7319221e-20)
(-8.9039846e-05 7.1887951e-07 1.1569539e-19)
(-8.6427841e-05 7.0445109e-07 2.8365002e-20)
(-8.3783611e-05 6.9077409e-07 -3.4463587e-20)
(-8.1110767e-05 6.7780955e-07 -6.68048e-20)
(-7.8412704e-05 6.6552385e-07 2.5173815e-20)
(-7.5692605e-05 6.538936e-07 7.9623675e-20)
(-7.2953463e-05 6.4288351e-07 -7.9142184e-21)
(-7.0198077e-05 6.3246521e-07 -7.0105846e-20)
(-6.7429069e-05 6.2261151e-07 -3.4359558e-20)
(-6.464889e-05 6.1329664e-07 4.2473709e-20)
(-6.185983e-05 6.044891e-07 3.0054991e-20)
(-5.9064022e-05 5.9616422e-07 8.4024223e-21)
(-5.6263466e-05 5.8829909e-07 6.2801359e-23)
(-5.3460021e-05 5.808644e-07 -2.820005e-20)
(-5.0655425e-05 5.738362e-07 1.8207476e-20)
(-4.7851302e-05 5.6719208e-07 2.0759454e-20)
(-4.5049177e-05 5.6090551e-07 -1.4012868e-20)
(-4.2250482e-05 5.549606e-07 -6.1230965e-21)
(-3.9456576e-05 5.493419e-07 -4.0842613e-20)
(-3.6668771e-05 5.4404805e-07 -2.3360276e-21)
(-3.3888362e-05 5.3909591e-07 5.352909e-20)
(-3.111669e-05 5.3454386e-07 1.029091e-20)
(-2.8355253e-05 5.3052474e-07 -1.9911377e-20)
(-2.5605925e-05 5.2730014e-07 -2.4855281e-20)
(-2.2871349e-05 5.2531535e-07 4.9673821e-22)
(-2.0155659e-05 5.2538781e-07 2.2945487e-20)
(-1.746572e-05 5.2919008e-07 6.2202304e-21)
(-1.4813028e-05 5.3999133e-07 -2.1851801e-21)
(-1.2215435e-05 5.6294412e-07 -7.2008845e-21)
(-9.6947612e-06 6.0122976e-07 -3.8611179e-21)
(-7.2586224e-06 6.3355905e-07 4.7370217e-21)
(-4.837356e-06 5.0816892e-07 2.887131e-21)
(-1.8414608e-06 -1.296179e-07 -6.8186418e-23)
(-0.00072363843 1.4639183e-05 5.7320922e-20)
(-0.00072977829 1.395394e-05 1.2805197e-19)
(-0.0007349507 1.3266812e-05 8.7145057e-20)
(-0.00073917746 1.2580215e-05 -5.471879e-19)
(-0.00074248193 1.1896381e-05 -7.2222329e-20)
(-0.00074488881 1.1217388e-05 4.6642347e-19)
(-0.00074642395 1.0545134e-05 -1.2511051e-19)
(-0.00074711424 9.8813539e-06 3.3046639e-19)
(-0.00074698737 9.2276339e-06 1.501254e-19)
(-0.00074607169 8.5853915e-06 -6.918299e-19)
(-0.00074439603 7.9559036e-06 -4.7701027e-19)
(-0.00074198962 7.3401855e-06 1.1808434e-20)
(-0.00073888182 6.7389182e-06 3.9108238e-19)
(-0.00073510204 6.1526561e-06 1.1998162e-20)
(-0.00073067939 5.5818966e-06 -1.099072e-19)
(-0.00072564268 5.027232e-06 7.6338094e-20)
(-0.00072001991 4.4881572e-06 2.1016196e-19)
(-0.00071383941 3.9666983e-06 3.2263364e-19)
(-0.00070713028 3.465752e-06 -3.0282418e-19)
(-0.00069992016 2.9820043e-06 -5.0458574e-19)
(-0.00069223424 2.5159938e-06 -8.551676e-21)
(-0.00068408624 2.0660746e-06 3.8577422e-19)
(-0.00067552198 1.6190313e-06 3.1275594e-19)
(-0.00066658644 1.1869624e-06 -1.3842566e-19)
(-0.00065728939 7.7338457e-07 -3.0925303e-19)
(-0.00064765024 3.7888904e-07 -1.7700354e-19)
(-0.00063769168 3.4014742e-09 2.2282348e-19)
(-0.00062743666 -3.5343931e-07 5.1609671e-19)
(-0.00061690801 -6.9229153e-07 4.8795258e-20)
(-0.00060612984 -1.0148657e-06 -3.2831315e-19)
(-0.00059511971 -1.3266477e-06 -1.7467744e-19)
(-0.0005838903 -1.6281223e-06 -1.4685613e-19)
(-0.00057246162 -1.9153218e-06 2.851713e-19)
(-0.0005608552 -2.1874741e-06 4.1672366e-19)
(-0.00054908881 -2.4447831e-06 -1.7167998e-19)
(-0.00053717874 -2.6877704e-06 -3.9417435e-19)
(-0.00052514035 -2.9170303e-06 -9.6216006e-20)
(-0.00051298823 -3.1331567e-06 3.5373931e-19)
(-0.00050073621 -3.3367264e-06 9.9744237e-20)
(-0.0004883974 -3.5282941e-06 -4.3507886e-19)
(-0.00047598418 -3.7084054e-06 -1.3081241e-19)
(-0.00046350823 -3.8775717e-06 4.1294432e-19)
(-0.00045098057 -4.0362996e-06 3.3129484e-19)
(-0.00043841152 -4.1850897e-06 -2.3353715e-19)
(-0.00042581078 -4.3244086e-06 -5.0381947e-19)
(-0.00041318743 -4.454717e-06 -3.6532707e-20)
(-0.00040054995 -4.5764586e-06 3.7541431e-19)
(-0.00038790624 -4.690069e-06 2.0434918e-19)
(-0.00037526365 -4.7959675e-06 -7.5537762e-20)
(-0.00036262902 -4.8945424e-06 -2.0805081e-19)
(-0.00035000866 -4.9861905e-06 -9.1434541e-20)
(-0.00033740841 -5.0712867e-06 2.3004332e-19)
(-0.00032483365 -5.150174e-06 2.5763244e-19)
(-0.00031228932 -5.2232021e-06 -3.7154867e-20)
(-0.00029977997 -5.2906918e-06 -2.5423697e-19)
(-0.00028730972 -5.3529498e-06 -6.8602056e-20)
(-0.00027488235 -5.4102698e-06 1.4022232e-19)
(-0.00026250128 -5.4629299e-06 6.509266e-20)
(-0.00025016961 -5.5111927e-06 -2.1042364e-21)
(-0.00023789013 -5.5552976e-06 -3.4211315e-20)
(-0.00022566535 -5.5954736e-06 -3.5691048e-20)
(-0.00021349752 -5.6319208e-06 -3.3859696e-21)
(-0.00020138864 -5.6648308e-06 4.1871541e-20)
(-0.00018934052 -5.6943693e-06 -2.0478527e-20)
(-0.00017735475 -5.720671e-06 -8.8267897e-20)
(-0.00016543279 -5.7438379e-06 -2.4245267e-20)
(-0.00015357598 -5.7639203e-06 7.6377162e-20)
(-0.00014178563 -5.7808992e-06 8.6769471e-20)
(-0.00013006308 -5.7946217e-06 -2.8766317e-20)
(-0.00011840993 -5.8046928e-06 -8.631875e-20)
(-0.00010682837 -5.8102643e-06 -6.0053906e-21)
(-9.5321614e-05 -5.809609e-06 5.7411069e-20)
(-8.389434e-05 -5.7994976e-06 3.3863188e-20)
(-7.2553115e-05 -5.7746036e-06 -1.0920507e-20)
(-6.1306297e-05 -5.7275217e-06 -2.1352432e-20)
(-5.0161108e-05 -5.6524213e-06 -2.9611457e-21)
(-3.9112671e-05 -5.5614076e-06 1.2972e-20)
(-2.8117104e-05 -5.5347838e-06 1.3660404e-20)
(-1.7071796e-05 -5.8231819e-06 7.2507884e-21)
(-5.7505248e-06 -6.8399697e-06 6.6442031e-21)
(-0.001432284 3.2770555e-05 2.9182802e-19)
(-0.0014319694 3.0757066e-05 -5.5927646e-19)
(-0.0014303827 2.8759699e-05 -4.2684835e-19)
(-0.0014275609 2.6783401e-05 -2.3431762e-19)
(-0.001423542 2.4832689e-05 -1.564638e-19)
(-0.0014183657 2.2911692e-05 2.3487158e-19)
(-0.0014120724 2.1024129e-05 -5.4150896e-20)
(-0.0014047035 1.9173338e-05 2.5480056e-19)
(-0.0013963008 1.7362292e-05 5.7204964e-19)
(-0.0013869068 1.5593577e-05 -2.7763592e-19)
(-0.0013765642 1.3869384e-05 -4.9720231e-19)
(-0.0013653161 1.2191603e-05 -2.065473e-20)
(-0.0013532051 1.0561924e-05 1.4642739e-19)
(-0.0013402729 8.981455e-06 -1.8077513e-19)
(-0.0013265607 7.4502655e-06 2.2921394e-20)
(-0.0013121103 5.9693097e-06 4.7453153e-19)
(-0.0012969603 4.5338962e-06 5.8457573e-21)
(-0.0012811469 3.1533694e-06 -2.5809115e-19)
(-0.0012647155 1.8243377e-06 -3.5870595e-19)
(-0.0012477071 5.4868388e-07 -1.3361281e-19)
(-0.0012301568 -6.7675701e-07 4.0184657e-19)
(-0.0012121141 -1.8574562e-06 2.5864508e-19)
(-0.0011936018 -3.0118615e-06 2.4384369e-20)
(-0.0011746402 -4.1216961e-06 -2.9634263e-19)
(-0.0011552745 -5.1814922e-06 -9.2031316e-20)
(-0.0011355398 -6.1910989e-06 3.6041176e-19)
(-0.0011154675 -7.1515574e-06 9.0412547e-20)
(-0.0010950873 -8.0641406e-06 1.6362239e-20)
(-0.001074428 -8.9299581e-06 -8.6351861e-20)
(-0.0010535177 -9.7495676e-06 -2.8513544e-19)
(-0.0010323835 -1.0521316e-05 3.6204e-20)
(-0.0010110493 -1.1248682e-05 1.1521038e-19)
(-0.00098953803 -1.1936621e-05 1.0493706e-19)
(-0.00096787256 -1.2587073e-05 2.3925985e-19)
(-0.00094607476 -1.3201368e-05 -1.0269819e-19)
(-0.00092416521 -1.3780775e-05 -3.6970298e-19)
(-0.00090216334 -1.4326596e-05 -1.6917344e-19)
(-0.00088008744 -1.4840143e-05 1.4837424e-19)
(-0.00085795476 -1.5322761e-05 1.1455227e-19)
(-0.0008357815 -1.5775778e-05 -1.0181684e-19)
(-0.00081358288 -1.6200525e-05 3.2912588e-20)
(-0.00079137314 -1.6598301e-05 1.7839356e-19)
(-0.00076916558 -1.6970383e-05 7.128355e-20)
(-0.00074697262 -1.731803e-05 -1.8980534e-19)
(-0.0007248058 -1.7642454e-05 -2.2309125e-19)
(-0.00070267583 -1.7944845e-05 9.5249365e-20)
(-0.0006805926 -1.8226349e-05 2.0784759e-19)
(-0.00065856526 -1.8488085e-05 1.0171944e-19)
(-0.0006366022 -1.8731122e-05 -8.5976422e-20)
(-0.00061471112 -1.8956499e-05 -9.332746e-20)
(-0.00059289905 -1.9165216e-05 3.7937284e-20)
(-0.00057117238 -1.9358227e-05 6.8343839e-20)
(-0.0005495369 -1.9536454e-05 1.1540047e-19)
(-0.00052799782 -1.970077e-05 7.2331723e-20)
(-0.00050655982 -1.9852018e-05 -5.5101286e-20)
(-0.00048522705 -1.9990986e-05 -8.2029538e-20)
(-0.00046400319 -2.0118433e-05 1.7944757e-22)
(-0.00044289147 -2.0235073e-05 3.4595168e-20)
(-0.00042189469 -2.034158e-05 -1.1269255e-20)
(-0.00040101526 -2.0438586e-05 -1.9520319e-20)
(-0.00038025523 -2.0526673e-05 -7.155207e-21)
(-0.00035961631 -2.0606375e-05 -4.8789458e-20)
(-0.0003390999 -2.0678192e-05 9.1737067e-21)
(-0.00031870713 -2.0742553e-05 1.8240492e-20)
(-0.0002984389 -2.0799827e-05 -3.0008188e-20)
(-0.00027829593 -2.0850306e-05 2.0513208e-20)
(-0.00025827878 -2.0894169e-05 1.7543602e-20)
(-0.00023838795 -2.0931447e-05 1.4817208e-21)
(-0.00021862396 -2.0961916e-05 9.7433125e-22)
(-0.00019898743 -2.0984949e-05 -3.7258898e-21)
(-0.00017947919 -2.0999228e-05 3.5500873e-20)
(-0.00016010034 -2.1002273e-05 3.1607259e-20)
(-0.00014085231 -2.0990039e-05 4.470726e-21)
(-0.0001217364 -2.0957198e-05 -1.9604642e-20)
(-0.00010275222 -2.0899492e-05 -6.6910865e-21)
(-8.3893982e-05 -2.0822086e-05 2.1279163e-20)
(-6.5142897e-05 -2.0762804e-05 1.1460047e-20)
(-4.6454224e-05 -2.0843961e-05 1.2466296e-20)
(-2.7769216e-05 -2.1346307e-05 2.0796798e-20)
(-9.1823185e-06 -2.2606015e-05 2.8517929e-20)
(-0.0019757887 5.1550287e-05 -1.9386399e-19)
(-0.0019692112 4.7819197e-05 -3.0072119e-19)
(-0.0019611949 4.4137372e-05 -2.7867121e-20)
(-0.0019517875 4.0512041e-05 1.6580525e-19)
(-0.0019410378 3.6949762e-05 4.9677771e-20)
(-0.0019289957 3.3456452e-05 -9.8093108e-20)
(-0.0019157119 3.0037359e-05 -2.963566e-19)
(-0.0019012377 2.6697132e-05 -1.2897278e-19)
(-0.0018856248 2.3439832e-05 3.3960854e-19)
(-0.001868925 2.0268891e-05 3.3598541e-19)
(-0.0018511899 1.7187088e-05 -1.0346743e-19)
(-0.0018324709 1.4196579e-05 -3.7827784e-19)
(-0.0018128193 1.1298584e-05 -1.2938791e-19)
(-0.0017922863 8.4927844e-06 1.8345942e-19)
(-0.0017709215 5.7756249e-06 2.1962905e-19)
(-0.0017487771 3.1539153e-06 8.5615989e-20)
(-0.0017258907 6.4126208e-07 -2.2660481e-19)
(-0.0017023076 -1.7752196e-06 -1.8357778e-19)
(-0.0016780816 -4.0994747e-06 -1.2524519e-20)
(-0.0016532565 -6.32837e-06 8.7388339e-21)
(-0.0016278803 -8.4642675e-06 2.0508746e-19)
(-0.0016019966 -1.0508466e-05 9.1653604e-20)
(-0.0015756416 -1.2451335e-05 -1.149405e-19)
(-0.0015488504 -1.4305468e-05 1.3820225e-20)
(-0.0015216637 -1.6074572e-05 2.2181713e-19)
(-0.0014941201 -1.7760396e-05 1.4349114e-19)
(-0.0014662552 -1.9364742e-05 -8.8202953e-20)
(-0.001438103 -2.0889667e-05 -1.1056009e-19)
(-0.0014096958 -2.2337442e-05 -8.8481802e-20)
(-0.0013810647 -2.3710367e-05 -1.4727689e-19)
(-0.0013522394 -2.5010249e-05 -2.1823595e-20)
(-0.0013232477 -2.6238791e-05 1.190347e-19)
(-0.0012941158 -2.7398833e-05 8.3654978e-20)
(-0.0012648689 -2.849314e-05 9.1853969e-20)
(-0.0012355309 -2.9524309e-05 -6.8058042e-21)
(-0.0012061245 -3.0494881e-05 -1.4026486e-19)
(-0.0011766709 -3.1407383e-05 -1.719157e-19)
(-0.0011471902 -3.2264277e-05 -4.9166139e-20)
(-0.001117701 -3.3068029e-05 6.9359588e-20)
(-0.001088221 -3.3821054e-05 1.1147111e-19)
(-0.0010587664 -3.4525729e-05 5.6667559e-20)
(-0.0010293527 -3.5184381e-05 -6.4551205e-20)
(-0.0009999939 -3.5799279e-05 -3.2310439e-20)
(-0.00097070323 -3.6372642e-05 6.2749519e-20)
(-0.00094149282 -3.6906628e-05 9.3681139e-20)
(-0.00091237386 -3.7403332e-05 3.4934225e-20)
(-0.0008833566 -3.7864774e-05 -3.7782461e-20)
(-0.00085445044 -3.8292922e-05 -4.7179375e-21)
(-0.00082566392 -3.8689662e-05 -9.0490904e-21)
(-0.0007970048 -3.9056824e-05 3.7943094e-20)
(-0.00076848004 -3.9396154e-05 7.0959204e-20)
(-0.00074009591 -3.9709327e-05 1.0032652e-20)
(-0.000711858 -3.9997976e-05 3.1664227e-20)
(-0.00068377122 -4.0263619e-05 4.0676275e-20)
(-0.00065583989 -4.0507746e-05 -9.2285031e-21)
(-0.00062806776 -4.0731746e-05 -5.6543641e-20)
(-0.00060045801 -4.0936952e-05 -2.3856596e-20)
(-0.00057301335 -4.1124626e-05 -7.8538491e-21)
(-0.00054573597 -4.1295967e-05 -1.8866809e-20)
(-0.00051862766 -4.1452086e-05 -6.7038861e-21)
(-0.00049168979 -4.159403e-05 1.4643335e-20)
(-0.00046492335 -4.1722781e-05 -2.8672779e-21)
(-0.00043832898 -4.1839232e-05 6.1474629e-21)
(-0.00041190702 -4.1944182e-05 6.3378657e-21)
(-0.00038565754 -4.2038322e-05 7.1014156e-21)
(-0.00035958036 -4.2122237e-05 2.6988823e-20)
(-0.00033367511 -4.2196314e-05 -1.7292426e-20)
(-0.00030794127 -4.2260719e-05 -8.7581755e-21)
(-0.00028237817 -4.2315248e-05 3.357946e-20)
(-0.00025698504 -4.2359182e-05 4.3895073e-20)
(-0.00023176092 -4.2391042e-05 2.8798544e-20)
(-0.00020670451 -4.2408404e-05 7.6499509e-21)
(-0.00018181373 -4.2407982e-05 9.0255212e-21)
(-0.00015708485 -4.2386542e-05 -1.9216792e-20)
(-0.00013251088 -4.2344331e-05 1.7568395e-21)
(-0.00010807988 -4.2294166e-05 2.6739352e-20)
(-8.3773417e-05 -4.2281817e-05 1.1415477e-20)
(-5.9565309e-05 -4.2421638e-05 2.0430741e-20)
(-3.5446615e-05 -4.2932906e-05 2.809405e-20)
(-1.1665547e-05 -4.4003552e-05 3.9258264e-20)
(-0.0023315783 7.04912e-05 1.2372971e-19)
(-0.0023204548 6.4778615e-05 1.1153272e-19)
(-0.002307803 5.9159486e-05 -2.0800667e-19)
(-0.0022936777 5.3643159e-05 -5.9723309e-20)
(-0.0022781347 4.8238042e-05 1.9353222e-20)
(-0.0022612307 4.295161e-05 1.6287311e-20)
(-0.002243023 3.7790416e-05 -1.3611928e-19)
(-0.0022235691 3.2760163e-05 -2.6492e-19)
(-0.0022029268 2.7865724e-05 -2.444807e-20)
(-0.0021811539 2.3111111e-05 3.7153565e-19)
(-0.0021583082 1.8499489e-05 2.9363292e-19)
(-0.0021344476 1.4032858e-05 -2.8518173e-19)
(-0.0021096298 9.7112919e-06 -2.8905022e-19)
(-0.0020839137 5.530616e-06 1.2945928e-19)
(-0.0020573449 1.5079594e-06 1.7586718e-19)
(-0.0020299587 -2.3563901e-06 -1.4091365e-20)
(-0.0020018251 -6.0626545e-06 -1.6774045e-19)
(-0.0019730083 -9.6238654e-06 -8.5313946e-20)
(-0.0019435472 -1.3039111e-05 -1.5134509e-20)
(-0.0019134904 -1.6312699e-05 -1.5917447e-20)
(-0.0018828865 -1.9445251e-05 1.3613181e-19)
(-0.0018517815 -2.2437647e-05 4.5791983e-20)
(-0.0018202178 -2.5289719e-05 8.5280306e-21)
(-0.0017882363 -2.8007202e-05 9.8867865e-20)
(-0.0017558781 -3.059444e-05 1.316265e-19)
(-0.0017231828 -3.3054798e-05 1.0738234e-19)
(-0.0016901885 -3.5391625e-05 -5.4456358e-20)
(-0.0016569312 -3.7608405e-05 -7.3653667e-20)
(-0.0016234452 -3.97088e-05 -9.8289336e-20)
(-0.0015897633 -4.1696519e-05 -1.2898343e-19)
(-0.0015559167 -4.3575224e-05 4.7381202e-20)
(-0.0015219347 -4.5348613e-05 1.0048198e-19)
(-0.0014878451 -4.7020647e-05 -3.3797211e-21)
(-0.0014536743 -4.8595354e-05 -4.7158285e-20)
(-0.0014194474 -5.007668e-05 -4.4093647e-20)
(-0.0013851877 -5.1468511e-05 3.6315142e-20)
(-0.0013509174 -5.2774728e-05 -5.8685293e-20)
(-0.0013166572 -5.39991e-05 -1.1334713e-19)
(-0.0012824265 -5.5145376e-05 -2.3874138e-20)
(-0.0012482432 -5.6217217e-05 2.7254191e-20)
(-0.0012141242 -5.7218222e-05 7.124163e-20)
(-0.0011800851 -5.8151904e-05 3.4303111e-20)
(-0.0011461403 -5.9021675e-05 3.2877905e-20)
(-0.0011123031 -5.9830877e-05 8.7606516e-20)
(-0.0010785858 -6.0582744e-05 4.6047221e-20)
(-0.0010449996 -6.1280404e-05 5.9064348e-21)
(-0.0010115546 -6.1926889e-05 -3.8322086e-20)
(-0.00097826021 -6.2525133e-05 -4.6357051e-20)
(-0.00094512478 -6.3077957e-05 -5.4213668e-21)
(-0.00091215584 -6.3588075e-05 5.2132832e-20)
(-0.00087936011 -6.4058091e-05 9.1411108e-20)
(-0.00084674354 -6.44905e-05 6.5314346e-20)
(-0.00081431137 -6.4887713e-05 1.8654853e-20)
(-0.00078206814 -6.5252e-05 -3.5575719e-20)
(-0.00075001773 -6.5585548e-05 -4.451105e-20)
(-0.00071816344 -6.5890436e-05 -2.9438953e-20)
(-0.00068650797 -6.616863e-05 -1.0002751e-21)
(-0.00065505349 -6.6421987e-05 -1.2445784e-20)
(-0.00062380169 -6.6652294e-05 2.7890348e-21)
(-0.00059275376 -6.6861189e-05 1.41472e-20)
(-0.0005619105 -6.7050224e-05 2.4223555e-20)
(-0.00053127228 -6.7220858e-05 -5.1505923e-22)
(-0.00050083911 -6.7374418e-05 -5.0274697e-21)
(-0.00047061068 -6.7512112e-05 5.4339226e-21)
(-0.00044058636 -6.7635007e-05 4.3315207e-21)
(-0.00041076525 -6.7744032e-05 3.852402e-20)
(-0.0003811462 -6.783989e-05 1.1650656e-20)
(-0.00035172781 -6.7923061e-05 -3.7451993e-22)
(-0.00032250843 -6.7993657e-05 1.6056732e-20)
(-0.00029348609 -6.8051364e-05 1.6380134e-20)
(-0.00026465837 -6.8095297e-05 1.0559409e-20)
(-0.00023602209 -6.8124012e-05 1.0222041e-20)
(-0.0002075728 -6.8135914e-05 1.7346517e-20)
(-0.00017930398 -6.8130529e-05 -4.8873447e-21)
(-0.00015120626 -6.8112029e-05 4.753233e-21)
(-0.00012326803 -6.8096756e-05 2.3313802e-20)
(-9.5478035e-05 -6.8127424e-05 1.6348886e-20)
(-6.7827208e-05 -6.8292125e-05 1.3838168e-20)
(-4.0332531e-05 -6.8734322e-05 1.8401189e-20)
(-1.3274553e-05 -6.9526923e-05 3.0198159e-20)
(-0.0025418007 8.9020584e-05 1.5206769e-19)
(-0.0025278167 8.118416e-05 6.866453e-20)
(-0.0025122552 7.349221e-05 -1.4895358e-19)
(-0.0024951755 6.5956061e-05 -9.5003892e-20)
(-0.0024766381 5.85858e-05 -7.2653258e-20)
(-0.0024567039 5.1390306e-05 -4.869678e-20)
(-0.0024354344 4.4377265e-05 -1.2135525e-20)
(-0.0024128913 3.7553228e-05 -6.7870838e-20)
(-0.0023891361 3.0923669e-05 -1.8768499e-20)
(-0.0023642306 2.4492999e-05 1.7568444e-19)
(-0.0023382362 1.8264565e-05 1.1765354e-19)
(-0.0023112146 1.2240278e-05 -1.4273399e-19)
(-0.0022832303 6.4193973e-06 -4.091221e-20)
(-0.0022543243 8.1353549e-07 4.1983361e-20)
(-0.0022245478 -4.5688101e-06 -2.9287363e-20)
(-0.002193977 -9.7391946e-06 -2.4474473e-20)
(-0.0021626695 -1.4713078e-05 -8.9821095e-20)
(-0.0021306743 -1.948319e-05 -7.3924601e-20)
(-0.0020980417 -2.405228e-05 3.3950388e-20)
(-0.002064822 -2.8424088e-05 3.9079677e-20)
(-0.0020310646 -3.2601695e-05 5.376994e-20)
(-0.0019968167 -3.6588132e-05 4.1222106e-20)
(-0.0019621234 -4.038663e-05 1.2029933e-19)
(-0.0019270281 -4.4002169e-05 7.7668006e-20)
(-0.001891573 -4.7439875e-05 3.1223145e-20)
(-0.0018557988 -5.0704728e-05 9.6891511e-20)
(-0.0018197446 -5.380175e-05 -7.9627568e-21)
(-0.0017834475 -5.6736029e-05 -6.7992017e-20)
(-0.0017469427 -5.951277e-05 -9.6504138e-20)
(-0.0017102639 -6.213724e-05 -8.9872583e-20)
(-0.0016734431 -6.4614747e-05 1.2843177e-20)
(-0.0016365102 -6.6950656e-05 9.7542772e-20)
(-0.0015994939 -6.9150403e-05 1.5752446e-20)
(-0.001562421 -7.1219457e-05 -7.2776181e-20)
(-0.001525317 -7.3163241e-05 -5.9466129e-20)
(-0.0014882057 -7.4987111e-05 -1.2887625e-20)
(-0.0014511095 -7.6696376e-05 -4.3783918e-20)
(-0.0014140493 -7.8296232e-05 -7.3310095e-20)
(-0.0013770447 -7.9791802e-05 -2.3725993e-20)
(-0.0013401138 -8.1188081e-05 5.3877097e-20)
(-0.0013032735 -8.2489984e-05 8.7735326e-20)
(-0.0012665395 -8.370229e-05 1.9137196e-20)
(-0.0012299261 -8.4829642e-05 4.7769958e-21)
(-0.0011934466 -8.5876568e-05 5.637233e-20)
(-0.001157113 -8.6847456e-05 3.8263101e-20)
(-0.0011209366 -8.7746542e-05 -2.1477414e-20)
(-0.0010849272 -8.8577926e-05 -6.8448122e-20)
(-0.0010490941 -8.9345569e-05 -1.8230552e-20)
(-0.0010134452 -9.0053279e-05 -1.2340597e-20)
(-0.00097798801 -9.0704709e-05 2.8219094e-20)
(-0.00094272882 -9.1303383e-05 9.9416127e-20)
(-0.00090767332 -9.1852656e-05 7.032057e-20)
(-0.00087282639 -9.2355759e-05 9.2985272e-21)
(-0.00083819223 -9.2815761e-05 -3.5297701e-20)
(-0.00080377436 -9.3235588e-05 -3.7921414e-20)
(-0.00076957568 -9.3618037e-05 -4.476856e-20)
(-0.00073559851 -9.3965747e-05 5.0149309e-21)
(-0.00070184462 -9.4281218e-05 6.3596228e-21)
(-0.00066831525 -9.4566832e-05 -2.0081597e-20)
(-0.00063501119 -9.4824806e-05 -1.3292938e-20)
(-0.00060193276 -9.5057222e-05 1.3117221e-20)
(-0.00056907989 -9.5266038e-05 -4.4927835e-23)
(-0.00053645213 -9.5453047e-05 3.949182e-21)
(-0.00050404868 -9.5619906e-05 2.0019861e-20)
(-0.0004718684 -9.5768103e-05 1.6894261e-20)
(-0.00043990985 -9.5898946e-05 4.453242e-20)
(-0.00040817133 -9.6013541e-05 1.8014127e-20)
(-0.00037665079 -9.6112765e-05 1.0601209e-21)
(-0.00034534587 -9.6197192e-05 6.2723273e-21)
(-0.00031425378 -9.6267094e-05 -3.2730012e-21)
(-0.00028337118 -9.6322403e-05 -7.6488662e-21)
(-0.00025269385 -9.6362877e-05 -9.1847343e-21)
(-0.00022221638 -9.6388629e-05 2.4924439e-20)
(-0.00019193168 -9.6401393e-05 1.6301037e-20)
(-0.00016183109 -9.6407369e-05 1.600438e-20)
(-0.00013190645 -9.642234e-05 2.6833181e-20)
(-0.00010215397 -9.6479809e-05 7.3417514e-21)
(-7.2573385e-05 -9.6638418e-05 3.5077798e-21)
(-4.3184102e-05 -9.6979986e-05 3.6797909e-21)
(-1.4230481e-05 -9.7515993e-05 1.9509153e-20)
(-0.0026583707 0.00010728246 3.4428821e-20)
(-0.0026427139 9.7238345e-05 2.4109685e-20)
(-0.0026254494 8.739426e-05 -5.7372225e-21)
(-0.0026066399 7.7763431e-05 -4.3572627e-20)
(-0.0025863487 6.8357545e-05 -1.0096706e-19)
(-0.00256464 5.9186791e-05 -1.1410174e-19)
(-0.0025415779 5.0259888e-05 1.7811886e-20)
(-0.002517227 4.1584172e-05 1.3522329e-19)
(-0.0024916515 3.3165614e-05 4.4789596e-21)
(-0.0024649157 2.5008973e-05 -6.6922963e-20)
(-0.0024370837 1.7117598e-05 1.4608687e-20)
(-0.0024082211 9.4941251e-06 -6.6773161e-21)
(-0.00237838 2.1418865e-06 2.4653762e-21)
(-0.0023476135 -4.9216164e-06 -4.6254696e-20)
(-0.0023159938 -1.1720071e-05 -6.4524146e-20)
(-0.0022835839 -1.8256508e-05 7.2706283e-21)
(-0.0022504371 -2.4529141e-05 -2.0701556e-20)
(-0.0022166076 -3.0539634e-05 -2.4311768e-20)
(-0.0021821481 -3.6291409e-05 4.9684416e-20)
(-0.0021471101 -4.1788842e-05 6.0020412e-20)
(-0.0021115437 -4.703653e-05 1.9702806e-20)
(-0.0020754974 -5.2039386e-05 1.2988443e-20)
(-0.0020390173 -5.6802744e-05 9.9916446e-20)
(-0.0020021483 -6.1332734e-05 6.7823463e-20)
(-0.0019649332 -6.5635772e-05 1.5521473e-20)
(-0.0019274135 -6.9718432e-05 4.6694365e-20)
(-0.0018896285 -7.3587403e-05 -5.9965905e-21)
(-0.001851616 -7.7249469e-05 -4.3373416e-20)
(-0.0018134119 -8.0711513e-05 -5.5094038e-20)
(-0.0017750501 -8.3980482e-05 -2.8700685e-20)
(-0.0017365628 -8.7063388e-05 -7.6269205e-21)
(-0.0016979807 -8.9967243e-05 4.2695314e-20)
(-0.0016593324 -9.2699106e-05 3.4607023e-20)
(-0.0016206452 -9.5266005e-05 -2.1465156e-20)
(-0.0015819444 -9.7674917e-05 -3.9608608e-20)
(-0.0015432541 -9.9932751e-05 -4.1532506e-20)
(-0.0015045968 -0.00010204629 -5.9207332e-20)
(-0.0014659934 -0.00010402223 -6.1840279e-20)
(-0.0014274633 -0.00010586713 1.6678737e-21)
(-0.0013890247 -0.00010758736 5.2013439e-20)
(-0.0013506945 -0.00010918921 5.7587406e-20)
(-0.001312488 -0.00011067878 3.1603347e-20)
(-0.0012744197 -0.00011206199 2.3149162e-20)
(-0.0012365024 -0.00011334458 2.747507e-20)
(-0.0011987483 -0.00011453215 -9.3428809e-22)
(-0.0011611681 -0.00011563008 -3.1439151e-20)
(-0.0011237717 -0.00011664357 -7.4914031e-20)
(-0.0010865679 -0.00011757763 -2.8849258e-20)
(-0.0010495647 -0.00011843711 -9.8507876e-22)
(-0.0010127689 -0.00011922662 3.2491735e-20)
(-0.00097618679 -0.00011995062 7.03307e-20)
(-0.00093982373 -0.00012061336 5.1636129e-20)
(-0.00090368429 -0.00012121892 7.1421377e-21)
(-0.00086777238 -0.00012177118 -3.2360461e-20)
(-0.00083209121 -0.00012227383 -3.5580094e-20)
(-0.00079664336 -0.00012273041 -4.8798443e-20)
(-0.00076143083 -0.00012314423 4.1883891e-21)
(-0.00072645506 -0.00012351848 -1.7396859e-20)
(-0.00069171697 -0.00012385614 -3.4213658e-20)
(-0.00065721703 -0.00012416001 2.0978307e-22)
(-0.0006229552 -0.00012443274 1.8780799e-20)
(-0.00058893108 -0.0001246768 8.183575e-21)
(-0.00055514387 -0.00012489447 5.393865e-21)
(-0.00052159239 -0.00012508787 1.9882866e-20)
(-0.00048827516 -0.00012525894 9.5282093e-21)
(-0.00045519034 -0.00012540942 3.2064325e-20)
(-0.00042233581 -0.00012554084 2.09042e-20)
(-0.0003897091 -0.00012565452 7.096146e-21)
(-0.00035730738 -0.00012575158 1.5470145e-20)
(-0.00032512741 -0.00012583289 3.1612682e-21)
(-0.00029316535 -0.00012589921 -1.5654869e-20)
(-0.0002614167 -0.00012595136 -1.0620209e-20)
(-0.00022987603 -0.00012599072 1.7068604e-20)
(-0.00019853689 -0.00012602028 4.3767064e-21)
(-0.00016739248 -0.00012604654 1.5467509e-20)
(-0.00013643814 -0.00012608246 2.5693196e-20)
(-0.00010567473 -0.00012615125 7.1705094e-21)
(-7.5103361e-05 -0.00012628764 -2.9770986e-21)
(-4.4734395e-05 -0.00012653253 7.7491669e-22)
(-1.4760947e-05 -0.00012687235 2.3595059e-20)
(-0.0027222159 0.00012534274 -1.4863945e-20)
(-0.0027055806 0.00011303846 -4.0603975e-21)
(-0.0026873155 0.00010099295 -2.8237157e-20)
(-0.0026674856 8.9221261e-05 -4.9331494e-20)
(-0.002646157 7.7736604e-05 -3.5180997e-20)
(-0.0026233961 6.6550378e-05 -8.2873845e-20)
(-0.0025992696 5.5672227e-05 6.2641761e-21)
(-0.0025738439 4.5110123e-05 8.6938216e-20)
(-0.0025471856 3.4870439e-05 -1.8824136e-20)
(-0.002519361 2.4958327e-05 1.9153834e-20)
(-0.0024904353 1.5377925e-05 8.9218831e-21)
(-0.0024604726 6.1321143e-06 -6.9055729e-20)
(-0.0024295245 -2.7695546e-06 -4.2567179e-20)
(-0.0023976604 -1.1335869e-05 -4.2595618e-20)
(-0.0023649533 -1.9575154e-05 1.3543276e-20)
(-0.0023314558 -2.7486146e-05 3.6807708e-20)
(-0.002297225 -3.5071321e-05 -2.4386345e-20)
(-0.0022623168 -4.2334069e-05 -1.0454734e-20)
(-0.0022267856 -4.9278982e-05 2.1441977e-20)
(-0.0021906839 -5.5911576e-05 1.8565122e-20)
(-0.0021540626 -6.2237929e-05 1.2775276e-20)
(-0.0021169709 -6.826461e-05 1.3357093e-20)
(-0.002079456 -7.3998699e-05 7.2845563e-20)
(-0.0020415632 -7.9447834e-05 2.7753979e-20)
(-0.002003336 -8.4619987e-05 -1.1156361e-21)
(-0.0019648163 -8.9523383e-05 3.8420166e-20)
(-0.0019260438 -9.4166419e-05 1.0475434e-20)
(-0.0018870565 -9.8557625e-05 -3.1440199e-21)
(-0.0018478905 -0.00010270561 -3.171076e-20)
(-0.00180858 -0.00010661909 -1.511071e-20)
(-0.0017691575 -0.0001103068 -6.311415e-21)
(-0.0017296536 -0.00011377744 3.6584929e-20)
(-0.0016900972 -0.00011703977 2.1419893e-20)
(-0.0016505153 -0.00012010243 -3.7331377e-20)
(-0.0016109337 -0.00012297402 -2.2434758e-20)
(-0.0015713761 -0.00012566303 -4.2793717e-20)
(-0.001531865 -0.00012817779 -5.5661062e-20)
(-0.0014924211 -0.0001305265 -3.9793992e-20)
(-0.001453064 -0.00013271718 6.4432276e-21)
(-0.0014138115 -0.00013475768 6.639034e-20)
(-0.0013746803 -0.00013665563 5.1771278e-20)
(-0.0013356857 -0.0001384185 1.9968372e-20)
(-0.0012968418 -0.0001400535 1.8636659e-20)
(-0.0012581614 -0.00014156765 1.1716964e-21)
(-0.0012196563 -0.00014296774 -1.6498272e-21)
(-0.0011813371 -0.00014426033 -2.2485898e-20)
(-0.0011432133 -0.00014545173 -6.8472864e-20)
(-0.0011052935 -0.00014654806 -2.1235846e-20)
(-0.0010675854 -0.00014755516 -1.4177844e-20)
(-0.0010300958 -0.00014847866 2.0666113e-20)
(-0.00099283037 -0.00014932395 5.7863884e-20)
(-0.00095579435 -0.0001500962 2.6435941e-20)
(-0.00091899204 -0.00015080034 -6.3795707e-21)
(-0.00088242705 -0.00015144106 -2.1994925e-20)
(-0.0008461023 -0.00015202285 -1.6440943e-20)
(-0.00081002011 -0.00015254998 -5.0106125e-20)
(-0.0007741822 -0.00015302647 1.6627217e-22)
(-0.00073858971 -0.00015345616 -1.6684507e-20)
(-0.0007032433 -0.00015384266 -2.059871e-20)
(-0.00066814313 -0.00015418939 1.003926e-20)
(-0.00063328891 -0.00015449952 1.1996384e-20)
(-0.00059867994 -0.00015477608 -2.8653152e-21)
(-0.00056431514 -0.00015502185 -2.3241069e-21)
(-0.00053019305 -0.00015523941 2.6935579e-20)
(-0.00049631188 -0.00015543116 4.4726009e-21)
(-0.00046266951 -0.00015559929 2.4986516e-20)
(-0.00042926351 -0.00015574578 3.0141915e-20)
(-0.00039609112 -0.00015587242 1.7342277e-20)
(-0.00036314922 -0.00015598083 1.5969515e-20)
(-0.00033043431 -0.00015607247 1.6854769e-21)
(-0.00029794245 -0.00015614878 -1.5825539e-20)
(-0.00026566917 -0.00015621136 -4.970858e-21)
(-0.00023360944 -0.00015626237 1.87441e-20)
(-0.00020175785 -0.00015630523 -5.4031429e-21)
(-0.00017010931 -0.00015634573 9.1829758e-21)
(-0.00013866152 -0.00015639344 2.5769829e-20)
(-0.00010741715 -0.000156463 5.6406596e-21)
(-7.6374558e-05 -0.00015657295 -1.076339e-20)
(-4.5532323e-05 -0.00015674072 3.052691e-21)
(-1.5040268e-05 -0.00015694709 3.5753732e-20)
(-0.0027597566 0.00014324843 -8.9349154e-20)