/*--------------------------------*- C++ -*----------------------------------*\
| =========                 |                                                 |
| \\      /  F ield         | OpenFOAM: The Open Source CFD Toolbox           |
|  \\    /   O peration     | Version:  2106                                  |
|   \\  /    A nd           | Website:  www.openfoam.com                      |
|    \\/     M anipulation  |                                                 |
\*---------------------------------------------------------------------------*/
FoamFile
{
    version     2.0;
    format      ascii;
    arch        "LSB;label=32;scalar=64";
    class       surfaceScalarField;
    location    "0.031";
    object      phi;
}
// * * * * * * * * * * * * * * * * * * * * * * * * * * * * * * * * * * * * * //

dimensions      [0 3 -1 0 0 0 0];

oriented        oriented;

internalField   nonuniform List<scalar> 
32512
(
1.9889773e-05
-1.9889773e-05
3.9728801e-05
-1.9839028e-05
5.9466488e-05
-1.9737687e-05
7.9052538e-05
-1.958605e-05
9.8437102e-05
-1.9384564e-05
0.00011757092
-1.9133822e-05
0.00013640549
-1.8834561e-05
0.00015489314
-1.8487658e-05
0.00017298727
-1.8094126e-05
0.00019064238
-1.7655112e-05
0.00020781427
-1.717189e-05
0.00022446013
-1.6645854e-05
0.00024053864
-1.6078518e-05
0.00025601015
-1.5471505e-05
0.00027083669
-1.4826542e-05
0.00028498214
-1.4145454e-05
0.0002984123
-1.3430155e-05
0.00031109494
-1.2682644e-05
0.00032299994
-1.1904995e-05
0.00033409929
-1.1099349e-05
0.0003443672
-1.0267909e-05
0.00035378013
-9.4129296e-06
0.00036231684
-8.5367112e-06
0.00036995843
-7.6415912e-06
0.00037668837
-6.7299369e-06
0.0003824925
-5.8041374e-06
0.0003873591
-4.8665966e-06
0.00039127882
-3.9197257e-06
0.00039424476
-2.9659361e-06
0.00039625239
-2.0076322e-06
0.0003972996
-1.0472061e-06
0.00039738663
-8.7025923e-08
0.00039651608
8.7054599e-07
0.00039469284
1.823236e-06
0.0003919241
2.7687452e-06
0.00038821926
3.7048378e-06
0.00038358992
4.6293378e-06
0.00037804981
5.5401163e-06
0.0003716147
6.4351015e-06
0.00036430242
7.3122829e-06
0.00035613271
8.1697154e-06
0.00034712718
9.0055223e-06
0.00033730929
9.8178983e-06
0.00032670417
1.0605112e-05
0.00031533867
1.1365508e-05
0.00030324116
1.2097508e-05
0.00029044154
1.2799614e-05
0.00027697114
1.3470409e-05
0.00026286258
1.4108556e-05
0.00024814978
1.4712799e-05
0.00023286781
1.5281966e-05
0.00021705285
1.5814967e-05
0.00020074206
1.6310791e-05
0.00018397355
1.6768511e-05
0.00016678627
1.7187281e-05
0.00014921993
1.7566333e-05
0.00013131495
1.7904982e-05
0.00011311233
1.8202619e-05
9.4653617e-05
1.8458714e-05
7.5980802e-05
1.8672815e-05
5.7136258e-05
1.8844544e-05
3.8162655e-05
1.8973604e-05
1.9102887e-05
1.9059767e-05
2.5775564e-13
1.9102887e-05
-1.9102887e-05
1.9102887e-05
-3.8162654e-05
1.9059767e-05
-5.7136258e-05
1.8973604e-05
-7.5980802e-05
1.8844544e-05
-9.4653616e-05
1.8672815e-05
-0.00011311233
1.8458714e-05
-0.00013131495
1.8202619e-05
-0.00014921993
1.7904982e-05
-0.00016678627
1.7566333e-05
-0.00018397355
1.7187281e-05
-0.00020074206
1.6768511e-05
-0.00021705285
1.6310791e-05
-0.00023286781
1.5814967e-05
-0.00024814978
1.5281966e-05
-0.00026286258
1.4712799e-05
-0.00027697113
1.4108556e-05
-0.00029044154
1.3470409e-05
-0.00030324116
1.2799614e-05
-0.00031533867
1.2097508e-05
-0.00032670417
1.1365508e-05
-0.00033730929
1.0605112e-05
-0.00034712718
9.8178983e-06
-0.00035613271
9.0055223e-06
-0.00036430242
8.1697154e-06
-0.0003716147
7.3122829e-06
-0.00037804981
6.4351015e-06
-0.00038358992
5.5401163e-06
-0.00038821926
4.6293378e-06
-0.0003919241
3.7048378e-06
-0.00039469284
2.7687452e-06
-0.00039651608
1.823236e-06
-0.00039738663
8.7054601e-07
-0.0003972996
-8.7025897e-08
-0.00039625239
-1.0472061e-06
-0.00039424476
-2.0076322e-06
-0.00039127883
-2.9659361e-06
-0.0003873591
-3.9197257e-06
-0.0003824925
-4.8665966e-06
-0.00037668837
-5.8041373e-06
-0.00036995843
-6.7299368e-06
-0.00036231684
-7.6415912e-06
-0.00035378013
-8.5367111e-06
-0.0003443672
-9.4129296e-06
-0.00033409929
-1.0267909e-05
-0.00032299994
-1.1099349e-05
-0.00031109494
-1.1904995e-05
-0.0002984123
-1.2682644e-05
-0.00028498214
-1.3430155e-05
-0.00027083669
-1.4145454e-05
-0.00025601015
-1.4826542e-05
-0.00024053864
-1.5471505e-05
-0.00022446013
-1.6078518e-05
-0.00020781427
-1.6645854e-05
-0.00019064238
-1.717189e-05
-0.00017298727
-1.7655112e-05
-0.00015489314
-1.8094126e-05
-0.00013640549
-1.8487658e-05
-0.00011757092
-1.8834561e-05
-9.8437102e-05
-1.9133822e-05
-7.9052538e-05
-1.9384564e-05
-5.9466488e-05
-1.958605e-05
-3.9728801e-05
-1.9737687e-05
-1.9889773e-05
-1.9839028e-05
-1.9889773e-05
1.9978826e-05
-3.9868599e-05
3.9906674e-05
-3.9766875e-05
5.9732715e-05
-3.9563729e-05
7.9406423e-05
-3.9259758e-05
9.8877721e-05
-3.8855861e-05
0.00011809713
-3.8353227e-05
0.0001370159
-3.7753333e-05
0.00015558618
-3.7057938e-05
0.00017376112
-3.6269073e-05
0.00019149505
-3.5389037e-05
0.00020874354
-3.4420384e-05
0.0002254636
-3.3365912e-05
0.00024161374
-3.2228654e-05
0.0002571541
-3.1011864e-05
0.00027204656
-2.9719005e-05
0.00028625484
-2.8353735e-05
0.00029974458
-2.6919894e-05
0.00031248342
-2.5421486e-05
0.0003244411
-2.3862669e-05
0.00033558948
-2.2247738e-05
0.00034590268
-2.0581106e-05
0.00035535705
-1.8867295e-05
0.00036393125
-1.7110915e-05
0.00037160631
-1.5316653e-05
0.00037836563
-1.3489253e-05
0.00038419499
-1.1633504e-05
0.00038908262
-9.7542258e-06
0.00039301915
-7.8562509e-06
0.00039599763
-5.9444131e-06
0.00039801353
-4.0235325e-06
0.00039906472
-2.0984024e-06
0.00039915147
-1.7377589e-07
0.00039827637
1.7456442e-06
0.00039644437
3.6552387e-06
0.00039366268
5.5504387e-06
0.00038994075
7.4267678e-06
0.00038529023
9.2798539e-06
0.00037972492
1.110543e-05
0.00037326068
1.2899344e-05
0.00036591539
1.4657565e-05
0.00035770891
1.6376196e-05
0.00034866296
1.8051475e-05
0.00033880108
1.9679783e-05
0.00032814854
2.125765e-05
0.00031673229
2.2781759e-05
0.00030458085
2.4248947e-05
0.00029172425
2.5656212e-05
0.00027819395
2.7000712e-05
0.00026402273
2.8279769e-05
0.00024924466
2.9490868e-05
0.00023389497
3.0631659e-05
0.00021800998
3.1699956e-05
0.00020162703
3.2693737e-05
0.0001847844
3.3611143e-05
0.00016752121
3.4450477e-05
0.00014987733
3.5210206e-05
0.00013189336
3.5888951e-05
0.00011361049
3.6485496e-05
9.5070422e-05
3.6998779e-05
7.6315344e-05
3.7427892e-05
5.7387805e-05
3.7772083e-05
3.8330658e-05
3.8030751e-05
1.9186981e-05
3.8203445e-05
2.5810622e-13
3.8289867e-05
-1.918698e-05
3.8289867e-05
-3.8330658e-05
3.8203445e-05
-5.7387805e-05
3.8030751e-05
-7.6315344e-05
3.7772083e-05
-9.5070421e-05
3.7427892e-05
-0.00011361049
3.6998779e-05
-0.00013189336
3.6485496e-05
-0.00014987733
3.5888951e-05
-0.0001675212
3.5210206e-05
-0.0001847844
3.4450477e-05
-0.00020162703
3.3611143e-05
-0.00021800998
3.2693737e-05
-0.00023389497
3.1699956e-05
-0.00024924466
3.0631659e-05
-0.00026402273
2.9490868e-05
-0.00027819394
2.8279769e-05
-0.00029172425
2.7000712e-05
-0.00030458085
2.5656212e-05
-0.00031673229
2.4248947e-05
-0.00032814854
2.2781759e-05
-0.00033880107
2.125765e-05
-0.00034866296
1.9679783e-05
-0.00035770891
1.8051475e-05
-0.00036591539
1.6376196e-05
-0.00037326068
1.4657565e-05
-0.00037972492
1.2899344e-05
-0.00038529023
1.110543e-05
-0.00038994075
9.279854e-06
-0.00039366268
7.4267678e-06
-0.00039644437
5.5504388e-06
-0.00039827637
3.6552388e-06
-0.00039915147
1.7456443e-06
-0.00039906472
-1.7377584e-07
-0.00039801353
-2.0984023e-06
-0.00039599763
-4.0235325e-06
-0.00039301915
-5.9444131e-06
-0.00038908262
-7.8562509e-06
-0.00038419499
-9.7542257e-06
-0.00037836563
-1.1633504e-05
-0.00037160631
-1.3489253e-05
-0.00036393125
-1.5316653e-05
-0.00035535705
-1.7110915e-05
-0.00034590268
-1.8867295e-05
-0.00033558948
-2.0581106e-05
-0.0003244411
-2.2247738e-05
-0.00031248342
-2.3862669e-05
-0.00029974458
-2.5421486e-05
-0.00028625484
-2.6919894e-05
-0.00027204656
-2.8353735e-05
-0.0002571541
-2.9719005e-05
-0.00024161374
-3.1011864e-05
-0.0002254636
-3.2228654e-05
-0.00020874354
-3.3365912e-05
-0.00019149505
-3.4420384e-05
-0.00017376112
-3.5389037e-05
-0.00015558618
-3.6269073e-05
-0.0001370159
-3.7057938e-05
-0.00011809713
-3.7753333e-05
-9.8877721e-05
-3.8353227e-05
-7.9406424e-05
-3.8855861e-05
-5.9732716e-05
-3.9259758e-05
-3.9906674e-05
-3.9563729e-05
-1.9978826e-05
-3.9766875e-05
-3.9868599e-05
2.0132407e-05
-6.0001006e-05
4.0213442e-05
-5.9847911e-05
6.0191885e-05
-5.9542171e-05
8.0016818e-05
-5.9084692e-05
9.9637779e-05
-5.8476822e-05
0.0001190049
-5.7720352e-05
0.00013806908
-5.6817506e-05
0.00015678207
-5.5770931e-05
0.00017509668
-5.4583686e-05
0.00019296687
-5.325923e-05
0.0002103479
-5.1801407e-05
0.00022719642
-5.021443e-05
0.00024347063
-4.8502864e-05
0.00025913037
-4.6671606e-05
0.00027413723
-4.4725869e-05
0.00028845465
-4.2671158e-05
0.00030204801
-4.0513252e-05
0.00031488471
-3.825818e-05
0.00032693424
-3.5912197e-05
0.00033816826
-3.3481767e-05
0.00034856069
-3.0973533e-05
0.00035808769
-2.8394299e-05
0.00036672778
-2.5751003e-05
0.00037446183
-2.3050699e-05
0.0003812731
-2.0300525e-05
0.00038714729
-1.7507691e-05
0.00039207251
-1.4679447e-05
0.00039603932
-1.1823067e-05
0.00039904074
-8.945825e-06
0.00040107218
-6.0549753e-06
0.00040213151
-3.1577306e-06
0.00040221897
-2.612437e-07
0.00040133721
2.6274135e-06
0.00039949117
5.501271e-06
0.00039668815
8.3534642e-06
0.00039293765
1.1177261e-05
0.00038825143
1.3966077e-05
0.00038264337
1.671349e-05
0.00037612947
1.941325e-05
0.00036872774
2.2059292e-05
0.00036045819
2.464575e-05
0.0003513427
2.7166962e-05
0.000341405
2.9617482e-05
0.00033067056
3.1992087e-05
0.00031916654
3.4285785e-05
0.00030692167
3.6493816e-05
0.00029396622
3.8611662e-05
0.00028033188
4.0635047e-05
0.00026605171
4.255994e-05
0.00025116003
4.4382556e-05
0.00023569233
4.6099359e-05
0.00021968522
4.770706e-05
0.00020317634
4.9202617e-05
0.00018620425
5.0583234e-05
0.00016880837
5.1846357e-05
0.0001510289
5.2989677e-05
0.00013290673
5.4011123e-05
0.00011448336
5.4908864e-05
9.5800836e-05
5.5681302e-05
7.6901656e-05
5.6327072e-05
5.7828696e-05
5.6845043e-05
3.8625136e-05
5.723431e-05
1.9334385e-05
5.7494196e-05
2.5860546e-13
5.7624252e-05
-1.9334385e-05
5.7624252e-05
-3.8625136e-05
5.7494196e-05
-5.7828695e-05
5.723431e-05
-7.6901655e-05
5.6845043e-05
-9.5800836e-05
5.6327072e-05
-0.00011448336
5.5681302e-05
-0.00013290673
5.4908864e-05
-0.0001510289
5.4011123e-05
-0.00016880837
5.2989677e-05
-0.00018620425
5.1846357e-05
-0.00020317634
5.0583234e-05
-0.00021968522
4.9202617e-05
-0.00023569233
4.770706e-05
-0.00025116003
4.6099359e-05
-0.00026605171
4.4382556e-05
-0.00028033188
4.255994e-05
-0.00029396622
4.0635047e-05
-0.00030692167
3.8611662e-05
-0.00031916654
3.6493816e-05
-0.00033067056
3.4285785e-05
-0.000341405
3.1992087e-05
-0.0003513427
2.9617482e-05
-0.00036045819
2.7166962e-05
-0.00036872774
2.464575e-05
-0.00037612947
2.2059292e-05
-0.00038264337
1.941325e-05
-0.00038825143
1.671349e-05
-0.00039293765
1.3966077e-05
-0.00039668815
1.1177261e-05
-0.00039949117
8.3534643e-06
-0.00040133721
5.501271e-06
-0.00040221897
2.6274135e-06
-0.00040213151
-2.6124363e-07
-0.00040107218
-3.1577305e-06
-0.00039904074
-6.0549752e-06
-0.00039603932
-8.9458249e-06
-0.00039207251
-1.1823067e-05
-0.00038714729
-1.4679447e-05
-0.0003812731
-1.7507691e-05
-0.00037446183
-2.0300525e-05
-0.00036672778
-2.3050698e-05
-0.00035808769
-2.5751003e-05
-0.00034856069
-2.8394298e-05
-0.00033816826
-3.0973533e-05
-0.00032693424
-3.3481767e-05
-0.00031488471
-3.5912197e-05
-0.00030204801
-3.825818e-05
-0.00028845465
-4.0513252e-05
-0.00027413723
-4.2671158e-05
-0.00025913037
-4.4725869e-05
-0.00024347063
-4.6671606e-05
-0.00022719642
-4.8502864e-05
-0.0002103479
-5.021443e-05
-0.00019296688
-5.1801407e-05
-0.00017509668
-5.325923e-05
-0.00015678207
-5.4583686e-05
-0.00013806908
-5.5770931e-05
-0.0001190049
-5.6817506e-05
-9.9637779e-05
-5.7720352e-05
-8.0016819e-05
-5.8476822e-05
-6.0191885e-05
-5.9084692e-05
-4.0213442e-05
-5.9542171e-05
-2.0132407e-05
-5.9847911e-05
-6.0001006e-05
2.0351046e-05
-8.0352053e-05
4.0650165e-05
-8.014703e-05
6.0845583e-05
-7.9737589e-05
8.0885831e-05
-7.9124941e-05
0.0001007199
-7.8310893e-05
0.00012029739
-7.7297843e-05
0.00013956866
-7.6088771e-05
0.00015848495
-7.4687221e-05
0.00017699855
-7.3097291e-05
0.00019506294
-7.1323614e-05
0.00021263287
-6.9371338e-05
0.00022966454
-6.7246106e-05
0.00024611571
-6.495403e-05
0.00026194577
-6.250167e-05
0.00027711591
-5.9896006e-05
0.00029158917
-5.7144412e-05
0.00030533054
-5.4254625e-05
0.00031830708
-5.1234717e-05
0.00033048795
-4.8093068e-05
0.00034184451
-4.4838331e-05
0.00035235038
-4.1479402e-05
0.00036198147
-3.8025392e-05
0.00037071606
-3.4485592e-05
0.00037853481
-3.0869444e-05
0.00038542079
-2.718651e-05
0.00039135954
-2.3446441e-05
0.00039633904
-1.9658946e-05
0.00040034974
-1.5833767e-05
0.00040338456
-1.1980643e-05
0.00040543887
-8.1092871e-06
0.0004065105
-4.2293583e-06
0.00040659969
-3.5043437e-07
0.00040570909
3.5180141e-06
0.00040384371
7.3666478e-06
0.0004010109
1.1186277e-05
0.00039722027
1.4967887e-05
0.00039248369
1.8702661e-05
0.00038681518
2.2381995e-05
0.00038023092
2.5997518e-05
0.0003727491
2.9541109e-05
0.00036438994
3.3004908e-05
0.00035517557
3.6381332e-05
0.00034512996
3.9663089e-05
0.00033427887
4.2843182e-05
0.00032264973
4.5914922e-05
0.00031027161
4.8871938e-05
0.0002971751
5.1708177e-05
0.00028339223
5.4417911e-05
0.00026895643
5.6995742e-05
0.00025390238
5.9436601e-05
0.00023826599
6.1735753e-05
0.00022208426
6.3888792e-05
0.00020539523
6.5891644e-05
0.0001882379
6.7740566e-05
0.00017065212
6.9432138e-05
0.00015267853
7.0963268e-05
0.00013435847
7.2331183e-05
0.0001157339
7.3533431e-05
9.6847329e-05
7.4567873e-05
7.7741719e-05
7.5432683e-05
5.8460419e-05
7.6126344e-05
3.9047084e-05
7.6647645e-05
1.9545598e-05
7.6995681e-05
2.5918497e-13
7.716985e-05
-1.9545598e-05
7.716985e-05
-3.9047083e-05
7.6995681e-05
-5.8460418e-05
7.6647645e-05
-7.7741718e-05
7.6126344e-05
-9.6847329e-05
7.5432683e-05
-0.0001157339
7.4567873e-05
-0.00013435847
7.3533431e-05
-0.00015267853
7.2331183e-05
-0.00017065212
7.0963268e-05
-0.0001882379
6.9432138e-05
-0.00020539523
6.7740566e-05
-0.00022208426
6.5891644e-05
-0.00023826599
6.3888792e-05
-0.00025390238
6.1735753e-05
-0.00026895643
5.9436601e-05
-0.00028339223
5.6995742e-05
-0.0002971751
5.4417911e-05
-0.00031027161
5.1708177e-05
-0.00032264973
4.8871939e-05
-0.00033427887
4.5914923e-05
-0.00034512996
4.2843182e-05
-0.00035517557
3.9663089e-05
-0.00036438994
3.6381333e-05
-0.0003727491
3.3004908e-05
-0.00038023092
2.9541109e-05
-0.00038681518
2.5997518e-05
-0.00039248369
2.2381995e-05
-0.00039722027
1.8702661e-05
-0.0004010109
1.4967887e-05
-0.00040384371
1.1186277e-05
-0.00040570909
7.3666479e-06
-0.00040659969
3.5180142e-06
-0.0004065105
-3.5043427e-07
-0.00040543887
-4.2293582e-06
-0.00040338456
-8.109287e-06
-0.00040034974
-1.1980643e-05
-0.00039633904
-1.5833767e-05
-0.00039135954
-1.9658946e-05
-0.00038542079
-2.344644e-05
-0.00037853481
-2.7186509e-05
-0.00037071606
-3.0869444e-05
-0.00036198147
-3.4485592e-05
-0.00035235038
-3.8025392e-05
-0.00034184451
-4.1479402e-05
-0.00033048795
-4.4838331e-05
-0.00031830708
-4.8093068e-05
-0.00030533054
-5.1234717e-05
-0.00029158917
-5.4254625e-05
-0.00027711591
-5.7144412e-05
-0.00026194578
-5.9896006e-05
-0.00024611571
-6.250167e-05
-0.00022966454
-6.495403e-05
-0.00021263287
-6.7246106e-05
-0.00019506294
-6.9371338e-05
-0.00017699855
-7.1323614e-05
-0.00015848495
-7.3097291e-05
-0.00013956866
-7.4687221e-05
-0.00012029739
-7.6088771e-05
-0.0001007199
-7.7297843e-05
-8.0885832e-05
-7.8310893e-05
-6.0845583e-05
-7.9124941e-05
-4.0650166e-05
-7.9737589e-05
-2.0351047e-05
-8.014703e-05
-8.0352053e-05
2.0635072e-05
-0.00010098712
4.1217498e-05
-0.00010072946
6.1694788e-05
-0.00010021488
8.2014764e-05
-9.9444916e-05
0.00010212571
-9.8421838e-05
0.00012197653
-9.7148661e-05
0.00014151688
-9.5629128e-05
0.00016069736
-9.3867695e-05
0.00017946958
-9.1869513e-05
0.00019778637
-8.9640404e-05
0.00021560187
-8.7186839e-05
0.00023287167
-8.451591e-05
0.00024955294
-8.1635298e-05
0.00026560452
-7.8553249e-05
0.00028098705
-7.5278533e-05
0.00029566305
-7.1820417e-05
0.00030959705
-6.8188623e-05
0.00032275563
-6.4393298e-05
0.00033510753
-6.0444968e-05
0.00034662371
-5.6354508e-05
0.0003572774
-5.2133097e-05
0.00036704419
-4.7792182e-05
0.00037590204
-4.3343438e-05
0.00038383133
-3.879873e-05
0.00039081489
-3.4170073e-05
0.00039683804
-2.9469594e-05
0.00040188859
-2.4709494e-05
0.00040595684
-1.9902012e-05
0.00040903558
-1.5059389e-05
0.00041112012
-1.0193829e-05
0.00041220824
-5.3174723e-06
0.00041230016
-4.4235431e-07
0.00041139855
4.4196215e-06
0.00040950848
9.2567156e-06
0.00040663738
1.4057379e-05
0.00040279499
1.8810281e-05
0.00039799331
2.3504339e-05
0.00039224656
2.8128739e-05
0.00038557112
3.2672957e-05
0.00037798545
3.7126783e-05
0.00036951002
4.1480337e-05
0.00036016726
4.5724088e-05
0.00034998149
4.9848863e-05
0.0003389788
5.3845871e-05
0.00032718702
5.7706701e-05
0.00031463562
6.1423342e-05
0.00030135561
6.4988184e-05
0.00028737949
6.8394028e-05
0.00027274115
7.1634087e-05
0.00025747576
7.4701989e-05
0.00024161973
7.759178e-05
0.0002252106
8.0297923e-05
0.00020828695
8.2815297e-05
0.00019088832
8.5139194e-05
0.00017305514
8.726532e-05
0.00015482862
8.9189786e-05
0.0001362507
9.0909107e-05
0.00011736393
9.2420202e-05
9.821142e-05
9.3720382e-05
7.8836752e-05
9.4807352e-05
5.928389e-05
9.5679206e-05
3.9597111e-05
9.6334423e-05
1.9820927e-05
9.6771866e-05
2.5977757e-13
9.6990777e-05
-1.9820926e-05
9.6990777e-05
-3.9597111e-05
9.6771866e-05
-5.9283889e-05
9.6334423e-05
-7.8836751e-05
9.5679206e-05
-9.821142e-05
9.4807352e-05
-0.00011736393
9.3720382e-05
-0.0001362507
9.2420202e-05
-0.00015482862
9.0909107e-05
-0.00017305514
8.9189786e-05
-0.00019088832
8.726532e-05
-0.00020828695
8.5139194e-05
-0.0002252106
8.2815297e-05
-0.00024161973
8.0297923e-05
-0.00025747576
7.759178e-05
-0.00027274115
7.4701989e-05
-0.00028737949
7.1634087e-05
-0.00030135561
6.8394029e-05
-0.00031463562
6.4988185e-05
-0.00032718702
6.1423342e-05
-0.0003389788
5.7706701e-05
-0.00034998149
5.3845871e-05
-0.00036016726
4.9848864e-05
-0.00036951002
4.5724088e-05
-0.00037798545
4.1480338e-05
-0.00038557112
3.7126783e-05
-0.00039224656
3.2672957e-05
-0.00039799331
2.8128739e-05
-0.00040279499
2.350434e-05
-0.00040663738
1.8810281e-05
-0.00040950848
1.4057379e-05
-0.00041139855
9.2567157e-06
-0.00041230016
4.4196217e-06
-0.00041220824
-4.4235418e-07
-0.00041112012
-5.3174722e-06
-0.00040903558
-1.0193829e-05
-0.00040595684
-1.5059388e-05
-0.00040188859
-1.9902012e-05
-0.00039683804
-2.4709494e-05
-0.00039081489
-2.9469594e-05
-0.00038383133
-3.4170073e-05
-0.00037590204
-3.879873e-05
-0.00036704419
-4.3343438e-05
-0.0003572774
-4.7792182e-05
-0.00034662371
-5.2133097e-05
-0.00033510753
-5.6354508e-05
-0.00032275563
-6.0444968e-05
-0.00030959705
-6.4393298e-05
-0.00029566305
-6.8188623e-05
-0.00028098705
-7.1820416e-05
-0.00026560452
-7.5278533e-05
-0.00024955294
-7.8553248e-05
-0.00023287167
-8.1635298e-05
-0.00021560187
-8.451591e-05
-0.00019778637
-8.7186839e-05
-0.00017946958
-8.9640404e-05
-0.00016069736
-9.1869513e-05
-0.00014151688
-9.3867695e-05
-0.00012197653
-9.5629128e-05
-0.00010212571
-9.7148661e-05
-8.2014764e-05
-9.8421838e-05
-6.1694789e-05
-9.9444916e-05
-4.1217499e-05
-0.00010021488
-2.0635072e-05
-0.00010072946
-0.00010098712
2.0984607e-05
-0.00012197173
4.1915686e-05
-0.00012166054
6.273987e-05
-0.00012103906
8.3404105e-05
-0.00012010915
0.00010385581
-0.00011887354
0.00012404303
-0.00011733588
0.0001439146
-0.00011550069
0.00016342026
-0.00011337335
0.00018251083
-0.00011096008
0.00020113835
-0.00010826792
0.00021925618
-0.00010530468
0.00023681919
-0.00010207891
0.0002537838
-9.8599913e-05
0.00027010818
-9.4877629e-05
0.0002857523
-9.0922654e-05
0.00030067807
-8.6746179e-05
0.00031484939
-8.2359944e-05
0.00032823229
-7.7776198e-05
0.00034079497
-7.3007655e-05
0.00035250791
-6.8067444e-05
0.00036334388
-6.2969063e-05
0.00037327803
-5.7726335e-05
0.00038228795
-5.2353355e-05
0.00039035367
-4.6864451e-05
0.00039745772
-4.1274128e-05
0.00040358516
-3.5597031e-05
0.00040872356
-2.9847892e-05
0.00041286303
-2.404149e-05
0.00041599625
-1.8192605e-05
0.0004181184
-1.2315979e-05
0.0004192272
-6.4262688e-06
0.00041932285
-5.3801196e-07
0.00041840806
5.3344149e-06
0.00041648795
1.1176831e-05
0.00041357004
1.6975288e-05
0.00040966422
2.2716099e-05
0.00040478268
2.8385876e-05
0.00039893987
3.3971553e-05
0.00039215241
3.9460417e-05
0.00038443906
4.4840133e-05
0.00037582063
5.0098763e-05
0.00036631993
5.522479e-05
0.00035596166
6.0207132e-05
0.00034477237
6.5035164e-05
0.00033278034
6.9698726e-05
0.00032001555
7.4188135e-05
0.00030650954
7.8494197e-05
0.00029229535
8.2608212e-05
0.00027740746
8.6521978e-05
0.00026188165
9.0227799e-05
0.00024575496
9.3718478e-05
0.00022906555
9.6987326e-05
0.00021185269
0.00010002816
0.00019415661
0.00010283528
0.00017601842
0.00010540351
0.00015748006
0.00010772814
0.00013858419
0.00010980498
0.0001193741
0.00011163029
9.9893661e-05
0.00011320082
8.0187196e-05
0.00011451382
6.029944e-05
0.00011556696
4.0275441e-05
0.00011635842
2.016048e-05
0.00011688683
2.6033266e-13
0.00011715126
-2.016048e-05
0.00011715126
-4.027544e-05
0.00011688683
-6.029944e-05
0.00011635842
-8.0187196e-05
0.00011556696
-9.989366e-05
0.00011451382
-0.0001193741
0.00011320082
-0.00013858419
0.00011163029
-0.00015748006
0.00010980498
-0.00017601842
0.00010772814
-0.00019415661
0.00010540351
-0.00021185269
0.00010283528
-0.00022906555
0.00010002816
-0.00024575495
9.6987326e-05
-0.00026188165
9.3718478e-05
-0.00027740746
9.0227799e-05
-0.00029229535
8.6521978e-05
-0.00030650954
8.2608212e-05
-0.00032001555
7.8494197e-05
-0.00033278034
7.4188135e-05
-0.00034477237
6.9698726e-05
-0.00035596166
6.5035164e-05
-0.00036631993
6.0207132e-05
-0.00037582063
5.522479e-05
-0.00038443906
5.0098764e-05
-0.00039215241
4.4840134e-05
-0.00039893987
3.9460418e-05
-0.00040478268
3.3971553e-05
-0.00040966422
2.8385876e-05
-0.00041357004
2.2716099e-05
-0.00041648795
1.6975288e-05
-0.00041840806
1.1176832e-05
-0.00041932285
5.334415e-06
-0.0004192272
-5.3801181e-07
-0.0004181184
-6.4262686e-06
-0.00041599625
-1.2315979e-05
-0.00041286303
-1.8192605e-05
-0.00040872356
-2.4041489e-05
-0.00040358516
-2.9847892e-05
-0.00039745772
-3.5597031e-05
-0.00039035367
-4.1274128e-05
-0.00038228795
-4.6864451e-05
-0.00037327803
-5.2353355e-05
-0.00036334388
-5.7726335e-05
-0.00035250791
-6.2969063e-05
-0.00034079497
-6.8067444e-05
-0.00032823229
-7.3007655e-05
-0.00031484939
-7.7776198e-05
-0.00030067807
-8.2359943e-05
-0.0002857523
-8.6746179e-05
-0.00027010818
-9.0922654e-05
-0.0002537838
-9.4877628e-05
-0.00023681919
-9.8599912e-05
-0.00021925618
-0.00010207891
-0.00020113835
-0.00010530468
-0.00018251083
-0.00010826792
-0.00016342026
-0.00011096008
-0.0001439146
-0.00011337335
-0.00012404303
-0.00011550069
-0.00010385581
-0.00011733588
-8.3404105e-05
-0.00011887354
-6.273987e-05
-0.00012010915
-4.1915687e-05
-0.00012103906
-2.0984607e-05
-0.00012166054
-0.00012197173
2.139958e-05
-0.00014337131
4.2744589e-05
-0.00014300554
6.3980616e-05
-0.00014227509
8.5053574e-05
-0.00014118211
0.00010590986
-0.00013972983
0.0001264965
-0.00013792252
0.00014676132
-0.00013576552
0.0001666531
-0.00013326513
0.00018612169
-0.00013042868
0.00020511819
-0.00012726442
0.00022359507
-0.00012378155
0.00024150628
-0.00011999013
0.00025880743
-0.00011590106
0.00027545584
-0.00011152604
0.00029141071
-0.00010687752
0.00030663319
-0.00010196866
0.00032108648
-9.6813234e-05
0.00033473594
-9.1425653e-05
0.00034754913
-8.5820849e-05
0.00035949593
-8.001425e-05
0.00037054859
-7.4021716e-05
0.00038068174
-6.7859489e-05
0.00038987252
-6.1544131e-05
0.00039810054
-5.5092475e-05
0.00040534798
-4.8521568e-05
0.00041159957
-4.1848616e-05
0.00041684261
-3.5090931e-05
0.000421067
-2.826588e-05
0.00042426522
-2.1390832e-05
0.00042643236
-1.4483112e-05
0.00042756603
-7.5599454e-06
0.00042766644
-6.384197e-07
0.00042673629
6.2645662e-06
0.00042478078
1.3132343e-05
0.00042180755
1.9948512e-05
0.00041782667
2.6696984e-05
0.00041285053
3.3362017e-05
0.00040689383
3.9928249e-05
0.00039997352
4.6380731e-05
0.00039210869
5.2704956e-05
0.00038332057
5.8886887e-05
0.00037363238
6.4912976e-05
0.00036306932
7.0770194e-05
0.00035165844
7.6446042e-05
0.0003394286
8.192857e-05
0.00032641034
8.7206391e-05
0.00031263585
9.2268689e-05
0.00029813883
9.7105233e-05
0.00028295443
0.00010170638
0.00026711916
0.00010606306
0.00025067081
0.00011016684
0.00023364831
0.00011400982
0.00021609171
0.00011758475
0.00019804207
0.00012088492
0.00017954133
0.00012390425
0.00016063228
0.00012663719
0.00014135844
0.00012907882
0.00012176399
0.00013122473
0.00010189369
0.00013307113
8.179276e-05
0.00013461474
6.1506851e-05
0.00013585287
4.1081924e-05
0.00013678335
2.0564185e-05
0.00013740457
2.6079917e-13
0.00013771544
-2.0564185e-05
0.00013771544
-4.1081924e-05
0.00013740457
-6.1506851e-05
0.00013678335
-8.179276e-05
0.00013585287
-0.00010189369
0.00013461474
-0.00012176399
0.00013307113
-0.00014135844
0.00013122473
-0.00016063228
0.00012907882
-0.00017954133
0.00012663719
-0.00019804207
0.00012390425
-0.00021609171
0.00012088493
-0.00023364831
0.00011758475
-0.0002506708
0.00011400982
-0.00026711916
0.00011016684
-0.00028295443
0.00010606306
-0.00029813883
0.00010170638
-0.00031263585
9.7105233e-05
-0.00032641034
9.226869e-05
-0.0003394286
8.7206391e-05
-0.00035165844
8.192857e-05
-0.00036306932
7.6446042e-05
-0.00037363238
7.0770195e-05
-0.00038332057
6.4912977e-05
-0.00039210869
5.8886887e-05
-0.00039997352
5.2704956e-05
-0.00040689383
4.6380731e-05
-0.00041285053
3.9928249e-05
-0.00041782667
3.3362017e-05
-0.00042180755
2.6696984e-05
-0.00042478078
1.9948512e-05
-0.00042673629
1.3132343e-05
-0.00042766644
6.2645664e-06
-0.00042756603
-6.3841952e-07
-0.00042643236
-7.5599452e-06
-0.00042426522
-1.4483111e-05
-0.000421067
-2.1390832e-05
-0.00041684261
-2.826588e-05
-0.00041159957
-3.5090931e-05
-0.00040534798
-4.1848616e-05
-0.00039810054
-4.8521568e-05
-0.00038987252
-5.5092475e-05
-0.00038068174
-6.1544131e-05
-0.00037054859
-6.7859488e-05
-0.00035949593
-7.4021716e-05
-0.00034754913
-8.0014249e-05
-0.00033473594
-8.5820849e-05
-0.00032108648
-9.1425652e-05
-0.00030663319
-9.6813234e-05
-0.00029141071
-0.00010196866
-0.00027545584
-0.00010687752
-0.00025880743
-0.00011152604
-0.00024150628
-0.00011590106
-0.00022359507
-0.00011999013
-0.00020511819
-0.00012378155
-0.00018612169
-0.00012726442
-0.0001666531
-0.00013042868
-0.00014676132
-0.00013326513
-0.0001264965
-0.00013576552
-0.00010590986
-0.00013792252
-8.5053574e-05
-0.00013972983
-6.3980617e-05
-0.00014118211
-4.2744589e-05
-0.00014227509
-2.1399581e-05
-0.00014300554
-0.00014337131
2.187975e-05
-0.00016525106
4.3703721e-05
-0.00016482952
6.5416301e-05
-0.00016398767
8.6962205e-05
-0.00016272801
0.00010828664
-0.00016105426
0.00012933548
-0.00015897136
0.00015005538
-0.00015648542
0.00017039398
-0.00015360373
0.00019030004
-0.00015033474
0.00020972357
-0.00014668795
0.00022861598
-0.00014267396
0.00024693022
-0.00013830437
0.00026462089
-0.00013359173
0.00028164437
-0.00012854953
0.00029795897
-0.00012319212
0.00031352495
-0.00011753464
0.0003283047
-0.00011159298
0.00034226279
-0.00010538374
0.00035536606
-9.8924127e-05
0.00036758372
-9.2231905e-05
0.00037888735
-8.5325351e-05
0.00038925104
-7.8223174e-05
0.00039865137
-7.0944456e-05
0.00040706748
-6.3508591e-05
0.00041448113
-5.5935216e-05
0.00042087667
-4.8244155e-05
0.00042624109
-4.0455355e-05
0.00043056404
-3.2588826e-05
0.00043383779
-2.4664583e-05
0.00043605726
-1.6702588e-05
0.00043722001
-8.7226955e-06
0.00043732619
-7.4459646e-07
0.00043637852
7.2122308e-06
0.0004343823
1.5128572e-05
0.00043134529
2.2985522e-05
0.00042727774
3.0764533e-05
0.0004221923
3.8447455e-05
0.00041610397
4.6016575e-05
0.00040903005
5.3454655e-05
0.00040099004
6.0744965e-05
0.00039200561
6.7871315e-05
0.00038210051
7.4818083e-05
0.00037130046
8.1570239e-05
0.00035963314
8.8113366e-05
0.00034712803
9.4433681e-05
0.00033381637
0.00010051805
0.00031973107
0.00010635399
0.00030490659
0.00011192971
0.00028937888
0.00011723408
0.00027318529
0.00012225665
0.00025636446
0.00012698767
0.00023895623
0.00013141805
0.00022100157
0.00013553941
0.00020254246
0.00013934403
0.00018362183
0.00014282488
0.00016428344
0.00014597558
0.00014457184
0.00014879042
0.00012453221
0.00015126436
0.00010421033
0.000153393
8.3652505e-05
0.00015517257
6.2905414e-05
0.00015659996
4.201609e-05
0.00015767267
2.1031806e-05
0.00015838885
2.6112799e-13
0.00015874725
-2.1031805e-05
0.00015874725
-4.2016089e-05
0.00015838885
-6.2905414e-05
0.00015767267
-8.3652504e-05
0.00015659996
-0.00010421033
0.00015517257
-0.00012453221
0.000153393
-0.00014457184
0.00015126437
-0.00016428344
0.00014879042
-0.00018362183
0.00014597558
-0.00020254246
0.00014282488
-0.00022100157
0.00013934403
-0.00023895623
0.00013553941
-0.00025636446
0.00013141805
-0.00027318529
0.00012698767
-0.00028937888
0.00012225665
-0.00030490659
0.00011723408
-0.00031973107
0.00011192971
-0.00033381637
0.00010635399
-0.00034712803
0.00010051805
-0.00035963314
9.4433681e-05
-0.00037130046
8.8113366e-05
-0.00038210051
8.1570239e-05
-0.00039200561
7.4818083e-05
-0.00040099004
6.7871315e-05
-0.00040903005
6.0744965e-05
-0.00041610397
5.3454655e-05
-0.0004221923
4.6016575e-05
-0.00042727774
3.8447455e-05
-0.00043134529
3.0764533e-05
-0.0004343823
2.2985522e-05
-0.00043637852
1.5128572e-05
-0.00043732619
7.212231e-06
-0.00043722001
-7.4459625e-07
-0.00043605726
-8.7226953e-06
-0.00043383779
-1.6702588e-05
-0.00043056404
-2.4664583e-05
-0.00042624109
-3.2588826e-05
-0.00042087667
-4.0455354e-05
-0.00041448113
-4.8244154e-05
-0.00040706748
-5.5935215e-05
-0.00039865137
-6.350859e-05
-0.00038925104
-7.0944456e-05
-0.00037888736
-7.8223173e-05
-0.00036758372
-8.532535e-05
-0.00035536607
-9.2231905e-05
-0.00034226279
-9.8924127e-05
-0.0003283047
-0.00010538374
-0.00031352495
-0.00011159298
-0.00029795897
-0.00011753464
-0.00028164437
-0.00012319212
-0.00026462089
-0.00012854953
-0.00024693022
-0.00013359173