/*--------------------------------*- C++ -*----------------------------------*\
| =========                 |                                                 |
| \\      /  F ield         | OpenFOAM: The Open Source CFD Toolbox           |
|  \\    /   O peration     | Version:  2106                                  |
|   \\  /    A nd           | Website:  www.openfoam.com                      |
|    \\/     M anipulation  |                                                 |
\*---------------------------------------------------------------------------*/
FoamFile
{
    version     2.0;
    format      ascii;
    arch        "LSB;label=32;scalar=64";
    class       volVectorField;
    location    "0.031";
    object      U;
}
// * * * * * * * * * * * * * * * * * * * * * * * * * * * * * * * * * * * * * //

dimensions      [0 1 -1 0 0 0 0];

internalField   nonuniform List<vector> 
16384
(
(0.0012737512 -0.0012720783 0)
(0.0038180036 -0.0012688328 0)
(0.0063525153 -0.0012623515 0)
(0.0088708246 -0.0012526535 0)
(0.011366517 -0.0012397673 0)
(0.013833247 -0.0012237309 0)
(0.01626475 -0.0012045915 0)
(0.018654869 -0.001182405 0)
(0.020997565 -0.0011572364 0)
(0.02328694 -0.0011291589 0)
(0.02551725 -0.0010982539 0)
(0.02768292 -0.0010646108 0)
(0.029778565 -0.0010283263 0)
(0.031798999 -0.00098950423 0)
(0.033739249 -0.00094825498 0)
(0.035594573 -0.00090469527 0)
(0.037360466 -0.00085894757 0)
(0.039032674 -0.00081113967 0)
(0.040607205 -0.00076140421 0)
(0.042080336 -0.00070987815 0)
(0.043448623 -0.00065670236 0)
(0.044708907 -0.00060202106 0)
(0.04585832 -0.00054598136 0)
(0.046894293 -0.00048873276 0)
(0.047814557 -0.00043042665 0)
(0.048617147 -0.00037121584 0)
(0.049300407 -0.00031125408 0)
(0.049862989 -0.00025069556 0)
(0.050303851 -0.00018969451 0)
(0.050622264 -0.0001284047 0)
(0.050817802 -6.6978986e-05 0)
(0.050890345 -5.5681276e-06 0)
(0.050840082 5.5672646e-05 0)
(0.050667487 0.00011660389 0)
(0.050373335 0.00017707599 0)
(0.049958691 0.00023694547 0)
(0.049424902 0.00029607345 0)
(0.048773587 0.00035432388 0)
(0.048006639 0.00041156424 0)
(0.04712621 0.00046766596 0)
(0.046134705 0.00052250464 0)
(0.045034774 0.00057596025 0)
(0.043829303 0.00062791732 0)
(0.042521405 0.00067826511 0)
(0.041114409 0.00072689775 0)
(0.039611851 0.00077371434 0)
(0.038017464 0.00081861904 0)
(0.036335167 0.00086152117 0)
(0.034569058 0.00090233524 0)
(0.032723397 0.00094098098 0)
(0.030802601 0.00097738338 0)
(0.028811234 0.0010114727 0)
(0.026753992 0.0010431843 0)
(0.024635695 0.0010724589 0)
(0.022461277 0.0010992424 0)
(0.020235775 0.0011234856 0)
(0.01796432 0.0011451448 0)
(0.015652124 0.0011641809 0)
(0.013304475 0.0011805602 0)
(0.010926719 0.0011942535 0)
(0.0085242601 0.001205237 0)
(0.0061025422 0.0012134913 0)
(0.0036670441 0.0012190022 0)
(0.0012232683 0.00122176 0)
(-0.0012232683 0.00122176 0)
(-0.003667044 0.0012190022 0)
(-0.0061025421 0.0012134913 0)
(-0.00852426 0.001205237 0)
(-0.010926719 0.0011942535 0)
(-0.013304474 0.0011805602 0)
(-0.015652124 0.0011641809 0)
(-0.01796432 0.0011451448 0)
(-0.020235775 0.0011234856 0)
(-0.022461276 0.0010992424 0)
(-0.024635695 0.0010724589 0)
(-0.026753992 0.0010431843 0)
(-0.028811234 0.0010114727 0)
(-0.030802601 0.00097738338 0)
(-0.032723396 0.00094098098 0)
(-0.034569058 0.00090233524 0)
(-0.036335167 0.00086152117 0)
(-0.038017464 0.00081861904 0)
(-0.039611851 0.00077371434 0)
(-0.041114409 0.00072689775 0)
(-0.042521405 0.00067826511 0)
(-0.043829303 0.00062791732 0)
(-0.045034774 0.00057596025 0)
(-0.046134705 0.00052250464 0)
(-0.04712621 0.00046766597 0)
(-0.048006639 0.00041156424 0)
(-0.048773587 0.00035432388 0)
(-0.049424901 0.00029607345 0)
(-0.049958691 0.00023694547 0)
(-0.050373335 0.00017707599 0)
(-0.050667487 0.00011660389 0)
(-0.050840082 5.5672648e-05 0)
(-0.050890345 -5.568126e-06 0)
(-0.050817802 -6.6978984e-05 0)
(-0.050622264 -0.0001284047 0)
(-0.050303851 -0.00018969451 0)
(-0.049862989 -0.00025069556 0)
(-0.049300407 -0.00031125407 0)
(-0.048617147 -0.00037121584 0)
(-0.047814557 -0.00043042665 0)
(-0.046894293 -0.00048873276 0)
(-0.04585832 -0.00054598136 0)
(-0.044708907 -0.00060202106 0)
(-0.043448623 -0.00065670236 0)
(-0.042080337 -0.00070987815 0)
(-0.040607205 -0.00076140421 0)
(-0.039032674 -0.00081113967 0)
(-0.037360466 -0.00085894757 0)
(-0.035594573 -0.00090469526 0)
(-0.033739249 -0.00094825498 0)
(-0.031798999 -0.00098950423 0)
(-0.029778565 -0.0010283263 0)
(-0.02768292 -0.0010646108 0)
(-0.02551725 -0.0010982539 0)
(-0.02328694 -0.0011291589 0)
(-0.020997565 -0.0011572364 0)
(-0.018654869 -0.001182405 0)
(-0.01626475 -0.0012045915 0)
(-0.013833247 -0.0012237309 0)
(-0.011366518 -0.0012397673 0)
(-0.0088708247 -0.0012526535 0)
(-0.0063525154 -0.0012623515 0)
(-0.0038180037 -0.0012688328 0)
(-0.0012737513 -0.0012720783 0)
(0.0012794549 -0.0038205786 0)
(0.0038350997 -0.0038108308 0)
(0.0063809591 -0.003791364 0)
(0.0089105417 -0.0037622357 0)
(0.011417404 -0.0037235317 0)
(0.01389517 -0.0036753661 0)
(0.016337548 -0.0036178803 0)
(0.018738352 -0.0035512429 0)
(0.021091516 -0.0034756486 0)
(0.023391115 -0.0033913175 0)
(0.025631379 -0.0032984944 0)
(0.027806708 -0.0031974474 0)
(0.029911693 -0.003088467 0)
(0.031941123 -0.0029718651 0)
(0.033890005 -0.0028479736 0)
(0.035753575 -0.0027171428 0)
(0.037527307 -0.0025797408 0)
(0.039206931 -0.0024361512 0)
(0.040788434 -0.0022867726 0)
(0.04226808 -0.0021320162 0)
(0.043642408 -0.0019723053 0)
(0.044908245 -0.001808073 0)
(0.046062713 -0.0016397612 0)
(0.04710323 -0.0014678188 0)
(0.048027519 -0.0012927006 0)
(0.048833606 -0.0011148656 0)
(0.049519829 -0.00093477549 0)
(0.050084833 -0.00075289347 0)
(0.050527574 -0.00056968273 0)
(0.050847319 -0.0003856052 0)
(0.051043642 -0.00020112029 0)
(0.051116424 -1.668372e-05 0)
(0.051065849 0.00016725444 0)
(0.0508924 0.00035025165 0)
(0.050596858 0.00053186953 0)
(0.05018029 0.00071167897 0)
(0.049644048 0.00088926127 0)
(0.048989763 0.0010642076 0)
(0.048219335 0.0012361198 0)
(0.047334925 0.001404612 0)
(0.046338951 0.0015693105 0)
(0.045234076 0.0017298547 0)
(0.044023199 0.001885898 0)
(0.042709446 0.0020371077 0)
(0.041296162 0.0021831659 0)
(0.0397869 0.0023237696 0)
(0.038185409 0.0024586311 0)
(0.036495627 0.0025874779 0)
(0.034721669 0.0027100534 0)
(0.032867814 0.0028261166 0)
(0.030938502 0.0029354421 0)
(0.028938313 0.0030378205 0)
(0.026871964 0.003133058 0)
(0.024744299 0.0032209765 0)
(0.022560272 0.0033014132 0)
(0.020324943 0.0033742211 0)
(0.018043463 0.0034392681 0)
(0.01572107 0.0034964377 0)
(0.01336307 0.0035456278 0)
(0.010974837 0.0035867518 0)
(0.0085617941 0.0036197372 0)
(0.0061294108 0.0036445266 0)
(0.0036831888 0.0036610767 0)
(0.0012286538 0.0036693589 0)
(-0.0012286537 0.0036693589 0)
(-0.0036831887 0.0036610767 0)
(-0.0061294108 0.0036445266 0)
(-0.008561794 0.0036197372 0)
(-0.010974837 0.0035867518 0)
(-0.01336307 0.0035456278 0)
(-0.015721069 0.0034964377 0)
(-0.018043463 0.0034392681 0)
(-0.020324943 0.0033742211 0)
(-0.022560272 0.0033014132 0)
(-0.024744299 0.0032209765 0)
(-0.026871964 0.003133058 0)
(-0.028938312 0.0030378205 0)
(-0.030938502 0.0029354421 0)
(-0.032867814 0.0028261166 0)
(-0.034721669 0.0027100534 0)
(-0.036495627 0.0025874779 0)
(-0.038185409 0.0024586311 0)
(-0.0397869 0.0023237696 0)
(-0.041296162 0.0021831659 0)
(-0.042709446 0.0020371077 0)
(-0.044023199 0.001885898 0)
(-0.045234076 0.0017298547 0)
(-0.046338951 0.0015693105 0)
(-0.047334925 0.001404612 0)
(-0.048219335 0.0012361199 0)
(-0.048989763 0.0010642076 0)
(-0.049644048 0.00088926128 0)
(-0.05018029 0.00071167897 0)
(-0.050596858 0.00053186954 0)
(-0.0508924 0.00035025166 0)
(-0.051065849 0.00016725445 0)
(-0.051116424 -1.6683715e-05 0)
(-0.051043642 -0.00020112028 0)
(-0.050847319 -0.00038560519 0)
(-0.050527574 -0.00056968273 0)
(-0.050084833 -0.00075289347 0)
(-0.049519829 -0.00093477549 0)
(-0.048833606 -0.0011148656 0)
(-0.048027519 -0.0012927006 0)
(-0.04710323 -0.0014678188 0)
(-0.046062713 -0.0016397612 0)
(-0.044908245 -0.001808073 0)
(-0.043642408 -0.0019723053 0)
(-0.04226808 -0.0021320162 0)
(-0.040788434 -0.0022867726 0)
(-0.039206931 -0.0024361512 0)
(-0.037527307 -0.0025797408 0)
(-0.035753575 -0.0027171428 0)
(-0.033890005 -0.0028479736 0)
(-0.031941123 -0.0029718651 0)
(-0.029911693 -0.003088467 0)
(-0.027806708 -0.0031974474 0)
(-0.025631379 -0.0032984944 0)
(-0.023391115 -0.0033913175 0)
(-0.021091516 -0.0034756486 0)
(-0.018738352 -0.0035512429 0)
(-0.016337548 -0.0036178803 0)
(-0.01389517 -0.0036753661 0)
(-0.011417404 -0.0037235317 0)
(-0.0089105418 -0.0037622357 0)
(-0.0063809592 -0.003791364 0)
(-0.0038350998 -0.0038108308 0)
(-0.001279455 -0.0038205786 0)
(0.0012892903 -0.0063856744 0)
(0.0038645809 -0.0063693812 0)
(0.0064300104 -0.006336843 0)
(0.0089790375 -0.0062881558 0)
(0.011505169 -0.0062234634 0)
(0.014001979 -0.0061429561 0)
(0.016463129 -0.0060468707 0)
(0.018882384 -0.0059354888 0)
(0.021253632 -0.005809136 0)
(0.023570902 -0.0056681804 0)
(0.025828379 -0.0055130311 0)
(0.028020422 -0.0053441362 0)
(0.030141578 -0.0051619817 0)
(0.032186599 -0.0049670888 0)
(0.034150453 -0.0047600121 0)
(0.036028337 -0.0045413376 0)
(0.037815695 -0.0043116802 0)
(0.03950822 -0.0040716815 0)
(0.041101872 -0.0038220074 0)
(0.042592884 -0.0035633457 0)
(0.043977769 -0.0032964035 0)
(0.045253332 -0.0030219049 0)
(0.04641667 -0.0027405884 0)
(0.047465183 -0.0024532045 0)
(0.048396576 -0.0021605132 0)
(0.04920886 -0.0018632816 0)
(0.04990036 -0.0015622815 0)
(0.05046971 -0.0012582871 0)
(0.050915859 -0.00095207251 0)
(0.051238068 -0.00064440977 0)
(0.051435906 -0.00033606658 0)
(0.051509254 -2.7804287e-05 0)
(0.051458297 0.00027962451 0)
(0.051283522 0.0005854785 0)
(0.050985715 0.00088902673 0)
(0.050565951 0.0011895525 0)
(0.050025593 0.0014863554 0)
(0.049366283 0.0017787518 0)
(0.048589937 0.0020660766 0)
(0.047698731 0.0023476846 0)
(0.046695104 0.0026229512 0)
(0.045581736 0.002891274 0)
(0.04436155 0.0031520734 0)
(0.043037697 0.0034047936 0)
(0.041613548 0.0036489032 0)
(0.040092681 0.0038838959 0)
(0.038478877 0.0041092907 0)
(0.036776102 0.0043246325 0)
(0.034988504 0.0045294923 0)
(0.033120397 0.0047234675 0)
(0.031176251 0.0049061815 0)
(0.029160685 0.0050772843 0)
(0.027078452 0.0052364521 0)
(0.024934432 0.0053833873 0)
(0.022733619 0.0055178182 0)
(0.020481109 0.0056394989 0)
(0.018182097 0.005748209 0)
(0.015841856 0.0058437535 0)
(0.013465738 0.0059259623 0)
(0.011059154 0.0059946903 0)
(0.0086275718 0.0060498169 0)
(0.0061765007 0.0060912458 0)
(0.003711485 0.006118905 0)
(0.001238093 0.0061327466 0)
(-0.0012380929 0.0061327466 0)
(-0.003711485 0.006118905 0)
(-0.0061765007 0.0060912458 0)
(-0.0086275717 0.0060498169 0)
(-0.011059154 0.0059946903 0)
(-0.013465738 0.0059259623 0)
(-0.015841856 0.0058437535 0)
(-0.018182097 0.005748209 0)
(-0.020481109 0.0056394989 0)
(-0.022733619 0.0055178182 0)
(-0.024934432 0.0053833873 0)
(-0.027078452 0.0052364521 0)
(-0.029160685 0.0050772843 0)
(-0.031176251 0.0049061815 0)
(-0.033120397 0.0047234675 0)
(-0.034988504 0.0045294924 0)
(-0.036776102 0.0043246325 0)
(-0.038478877 0.0041092907 0)
(-0.040092681 0.0038838959 0)
(-0.041613548 0.0036489033 0)
(-0.043037697 0.0034047936 0)
(-0.04436155 0.0031520734 0)
(-0.045581736 0.002891274 0)
(-0.046695104 0.0026229512 0)
(-0.047698731 0.0023476846 0)
(-0.048589937 0.0020660767 0)
(-0.049366283 0.0017787518 0)
(-0.050025593 0.0014863554 0)
(-0.050565951 0.0011895525 0)
(-0.050985715 0.00088902674 0)
(-0.051283522 0.00058547851 0)
(-0.051458297 0.00027962452 0)
(-0.051509254 -2.7804279e-05 0)
(-0.051435906 -0.00033606658 0)
(-0.051238068 -0.00064440976 0)
(-0.050915859 -0.0009520725 0)
(-0.05046971 -0.0012582871 0)
(-0.04990036 -0.0015622815 0)
(-0.04920886 -0.0018632816 0)
(-0.048396576 -0.0021605131 0)
(-0.047465183 -0.0024532044 0)
(-0.04641667 -0.0027405884 0)
(-0.045253332 -0.0030219049 0)
(-0.04397777 -0.0032964035 0)
(-0.042592884 -0.0035633457 0)
(-0.041101872 -0.0038220074 0)
(-0.03950822 -0.0040716815 0)
(-0.037815695 -0.0043116802 0)
(-0.036028338 -0.0045413375 0)
(-0.034150453 -0.0047600121 0)
(-0.032186599 -0.0049670887 0)
(-0.030141578 -0.0051619817 0)
(-0.028020422 -0.0053441362 0)
(-0.025828379 -0.005513031 0)
(-0.023570902 -0.0056681804 0)
(-0.021253632 -0.005809136 0)
(-0.018882384 -0.0059354888 0)
(-0.016463129 -0.0060468707 0)
(-0.014001979 -0.0061429561 0)
(-0.011505169 -0.0062234633 0)
(-0.0089790375 -0.0062881558 0)
(-0.0064300105 -0.006336843 0)
(-0.0038645809 -0.0063693812 0)
(-0.0012892904 -0.0063856744 0)
(0.0013032921 -0.0089745974 0)
(0.0039065506 -0.008951698 0)
(0.0064998415 -0.008905967 0)
(0.0090765526 -0.0088375394 0)
(0.01163012 -0.0087466171 0)
(0.01415405 -0.0086334681 0)
(0.016641934 -0.0084984248 0)
(0.01908747 -0.0083418833 0)
(0.021484481 -0.0081643013 0)
(0.02382693 -0.0079661961 0)
(0.026108941 -0.0077481426 0)
(0.028324811 -0.0075107712 0)
(0.030469029 -0.0072547645 0)
(0.032536289 -0.0069808553 0)
(0.034521505 -0.0066898231 0)
(0.036419825 -0.0063824914 0)
(0.03822664 -0.0060597246 0)
(0.039937599 -0.0057224243 0)
(0.041548617 -0.0053715265 0)
(0.043055887 -0.0050079976 0)
(0.044455883 -0.0046328314 0)
(0.045745376 -0.0042470456 0)
(0.046921431 -0.0038516781 0)
(0.047981419 -0.0034477834 0)
(0.04892302 -0.0030364297 0)
(0.049744222 -0.002618695 0)
(0.050443332 -0.0021956639 0)
(0.051018968 -0.0017684244 0)
(0.051470066 -0.0013380643 0)
(0.051795877 -0.00090566872 0)
(0.051995967 -0.00047231644 0)
(0.052070212 -3.9077268e-05 0)
(0.052018799 0.00039299101 0)
(0.051842219 0.00082284551 0)
(0.051541264 0.0012494597 0)
(0.051117022 0.0016718267 0)
(0.050570868 0.0020889617 0)
(0.049904462 0.002499904 0)
(0.049119738 0.0029037187 0)
(0.048218898 0.0032994987 0)
(0.047204402 0.0036863663 0)
(0.046078964 0.0040634748 0)
(0.044845535 0.0044300095 0)
(0.043507301 0.0047851893 0)
(0.042067668 0.0051282672 0)
(0.040530256 0.0054585314 0)
(0.038898884 0.0057753062 0)
(0.037177565 0.0060779518 0)
(0.035370488 0.0063658654 0)
(0.033482017 0.0066384809 0)
(0.031516672 0.0068952694 0)
(0.02947912 0.0071357389 0)
(0.027374169 0.0073594344 0)
(0.02520675 0.0075659376 0)
(0.022981914 0.0077548669 0)
(0.020704813 0.0079258767 0)
(0.018380697 0.0080786574 0)
(0.016014901 0.008212935 0)
(0.013612831 0.0083284706 0)
(0.011179962 0.0084250603 0)
(0.0087218193 0.0085025345 0)
(0.0062439737 0.0085607581 0)
(0.0037520302 0.0085996299 0)
(0.0012516182 0.0086190827 0)
(-0.0012516182 0.0086190827 0)
(-0.0037520301 0.0085996299 0)
(-0.0062439736 0.0085607581 0)
(-0.0087218193 0.0085025345 0)
(-0.011179962 0.0084250603 0)
(-0.013612831 0.0083284706 0)
(-0.0160149 0.008212935 0)
(-0.018380697 0.0080786575 0)
(-0.020704813 0.0079258767 0)
(-0.022981914 0.0077548669 0)
(-0.02520675 0.0075659376 0)
(-0.027374169 0.0073594344 0)
(-0.02947912 0.0071357389 0)
(-0.031516672 0.0068952694 0)
(-0.033482017 0.0066384809 0)
(-0.035370488 0.0063658654 0)
(-0.037177564 0.0060779518 0)
(-0.038898884 0.0057753062 0)
(-0.040530256 0.0054585314 0)
(-0.042067668 0.0051282672 0)
(-0.043507301 0.0047851893 0)
(-0.044845535 0.0044300095 0)
(-0.046078964 0.0040634748 0)
(-0.047204402 0.0036863664 0)
(-0.048218898 0.0032994987 0)
(-0.049119738 0.0029037187 0)
(-0.049904462 0.002499904 0)
(-0.050570868 0.0020889618 0)
(-0.051117022 0.0016718267 0)
(-0.051541264 0.0012494597 0)
(-0.051842219 0.00082284553 0)
(-0.052018799 0.00039299102 0)
(-0.052070212 -3.9077256e-05 0)
(-0.051995967 -0.00047231643 0)
(-0.051795877 -0.00090566871 0)
(-0.051470066 -0.0013380643 0)
(-0.051018968 -0.0017684243 0)
(-0.050443332 -0.0021956639 0)
(-0.049744222 -0.002618695 0)
(-0.04892302 -0.0030364297 0)
(-0.047981419 -0.0034477834 0)
(-0.046921431 -0.0038516781 0)
(-0.045745376 -0.0042470456 0)
(-0.044455883 -0.0046328314 0)
(-0.043055887 -0.0050079976 0)
(-0.041548617 -0.0053715265 0)
(-0.039937599 -0.0057224243 0)
(-0.03822664 -0.0060597246 0)
(-0.036419825 -0.0063824914 0)
(-0.034521505 -0.0066898231 0)
(-0.032536289 -0.0069808553 0)
(-0.030469029 -0.0072547645 0)
(-0.028324811 -0.0075107712 0)
(-0.026108941 -0.0077481426 0)
(-0.02382693 -0.007966196 0)
(-0.021484481 -0.0081643013 0)
(-0.01908747 -0.0083418833 0)
(-0.016641934 -0.0084984248 0)
(-0.01415405 -0.0086334681 0)
(-0.01163012 -0.0087466171 0)
(-0.0090765526 -0.0088375394 0)
(-0.0064998416 -0.008905967 0)
(-0.0039065507 -0.008951698 0)
(-0.0013032922 -0.0089745974 0)
(0.0013214812 -0.01159563 0)
(0.0039610718 -0.011566043 0)
(0.006590557 -0.011506956 0)
(0.009203233 -0.011418545 0)
(0.011792446 -0.01130107 0)
(0.01435161 -0.011154878 0)
(0.016874231 -0.010980397 0)
(0.019353918 -0.01077814 0)
(0.021784408 -0.010548698 0)
(0.024159583 -0.01029274 0)
(0.026473484 -0.010011008 0)
(0.028720329 -0.0097043177 0)
(0.030894532 -0.0093735502 0)
(0.032990713 -0.0090196524 0)
(0.035003716 -0.0086436315 0)
(0.036928621 -0.0082465517 0)
(0.038760755 -0.0078295295 0)
(0.040495707 -0.0073937297 0)
(0.042129335 -0.0069403616 0)
(0.043657778 -0.0064706737 0)
(0.045077462 -0.0059859499 0)
(0.04638511 -0.0054875048 0)
(0.047577748 -0.0049766791 0)
(0.048652708 -0.0044548353 0)
(0.049607635 -0.0039233533 0)
(0.050440491 -0.0033836255 0)
(0.051149555 -0.0028370533 0)
(0.051733425 -0.0022850421 0)
(0.05219102 -0.0017289974 0)
(0.052521579 -0.0011703209 0)
(0.05272466 -0.00061040642 0)
(0.052800135 -5.0636029e-05 0)
(0.052748191 0.00050762349 0)
(0.052569324 0.0010630243 0)
(0.052264335 0.0016142402 0)
(0.051834325 0.0021599704 0)
(0.051280687 0.0026989423 0)
(0.050605101 0.0032299143 0)
(0.049809527 0.0037516785 0)
(0.048896197 0.0042630624 0)
(0.047867604 0.0047629319 0)
(0.046726497 0.0052501927 0)
(0.04547587 0.0057237921 0)
(0.044118952 0.0061827203 0)
(0.042659195 0.0066260123 0)
(0.041100271 0.0070527481 0)
(0.039446052 0.0074620543 0)
(0.037700606 0.0078531042 0)
(0.035868183 0.0082251188 0)
(0.033953208 0.0085773667 0)
(0.031960263 0.0089091641 0)
(0.029894085 0.0092198756 0)
(0.027759546 0.0095089131 0)
(0.025561651 0.0097757362 0)
(0.023305519 0.010019852 0)
(0.020996379 0.010240813 0)
(0.018639554 0.010438221 0)
(0.016240454 0.01061172 0)
(0.013804564 0.010761003 0)
(0.011337436 0.010885806 0)
(0.0088446734 0.01098591 0)
(0.0063319276 0.01106114 0)
(0.003804883 0.011111366 0)
(0.0012692492 0.011136501 0)
(-0.0012692492 0.011136501 0)
(-0.0038048829 0.011111366 0)
(-0.0063319275 0.01106114 0)
(-0.0088446733 0.01098591 0)
(-0.011337436 0.010885806 0)
(-0.013804564 0.010761003 0)
(-0.016240454 0.01061172 0)
(-0.018639554 0.010438221 0)
(-0.020996379 0.010240813 0)
(-0.023305519 0.010019852 0)
(-0.025561651 0.0097757362 0)
(-0.027759546 0.0095089131 0)
(-0.029894085 0.0092198756 0)
(-0.031960263 0.0089091641 0)
(-0.033953208 0.0085773667 0)
(-0.035868183 0.0082251189 0)
(-0.037700606 0.0078531043 0)
(-0.039446052 0.0074620543 0)
(-0.041100271 0.0070527481 0)
(-0.042659195 0.0066260123 0)
(-0.044118952 0.0061827204 0)
(-0.04547587 0.0057237921 0)
(-0.046726497 0.0052501928 0)
(-0.047867604 0.004762932 0)
(-0.048896197 0.0042630624 0)
(-0.049809527 0.0037516785 0)
(-0.050605101 0.0032299144 0)
(-0.051280687 0.0026989423 0)
(-0.051834325 0.0021599704 0)
(-0.052264335 0.0016142402 0)
(-0.052569324 0.0010630243 0)
(-0.052748191 0.00050762351 0)
(-0.052800135 -5.0636014e-05 0)
(-0.05272466 -0.0006104064 0)
(-0.052521579 -0.0011703209 0)
(-0.05219102 -0.0017289974 0)
(-0.051733425 -0.0022850421 0)
(-0.051149555 -0.0028370533 0)
(-0.050440491 -0.0033836255 0)
(-0.049607635 -0.0039233532 0)
(-0.048652708 -0.0044548353 0)
(-0.047577748 -0.0049766791 0)
(-0.04638511 -0.0054875048 0)
(-0.045077462 -0.0059859499 0)
(-0.043657778 -0.0064706737 0)
(-0.042129335 -0.0069403616 0)
(-0.040495707 -0.0073937297 0)
(-0.038760755 -0.0078295294 0)
(-0.036928621 -0.0082465517 0)
(-0.035003717 -0.0086436315 0)
(-0.032990713 -0.0090196523 0)
(-0.030894532 -0.0093735502 0)
(-0.02872033 -0.0097043177 0)
(-0.026473484 -0.010011008 0)
(-0.024159583 -0.01029274 0)
(-0.021784408 -0.010548698 0)
(-0.019353918 -0.01077814 0)
(-0.016874231 -0.010980397 0)
(-0.01435161 -0.011154878 0)
(-0.011792446 -0.01130107 0)
(-0.0092032331 -0.011418545 0)
(-0.0065905571 -0.011506956 0)
(-0.0039610719 -0.011566043 0)
(-0.0013214813 -0.01159563 0)
(0.0013438655 -0.014257201 0)
(0.0040281682 -0.014220825 0)
(0.0067021963 -0.014148179 0)
(0.0093591337 -0.014039478 0)
(0.011992215 -0.013895044 0)
(0.014594745 -0.013715302 0)
(0.01716012 -0.01350078 0)
(0.019681842 -0.013252109 0)
(0.022153544 -0.012970013 0)
(0.024569005 -0.012655317 0)
(0.026922166 -0.012308933 0)
(0.029207149 -0.011931863 0)
(0.031418273 -0.01152519 0)
(0.033550069 -0.011090079 0)
(0.035597294 -0.010627769 0)
(0.037554945 -0.010139567 0)
(0.039418271 -0.0096268457 0)
(0.041182785 -0.0090910374 0)
(0.042844277 -0.0085336283 0)
(0.044398817 -0.0079561533 0)
(0.045842773 -0.0073601907 0)
(0.047172811 -0.0067473561 0)
(0.048385904 -0.0061192979 0)
(0.049479339 -0.0054776908 0)
(0.050450718 -0.0048242308 0)
(0.051297967 -0.0041606299 0)
(0.052019334 -0.0034886105 0)
(0.052613391 -0.0028099003 0)
(0.053079035 -0.0021262271 0)
(0.05341549 -0.0014393142 0)
(0.053622302 -0.00075087506 0)
(0.05369934 -6.2608946e-05 0)
(0.05364679 0.00062380364 0)
(0.053465154 0.0013067052 0)
(0.053155242 0.0019844653 0)
(0.052718172 0.0026554844 0)
(0.052155358 0.0033181975 0)
(0.051468505 0.0039710778 0)
(0.050659604 0.0046126395 0)
(0.049730923 0.0052414409 0)
(0.048684996 0.0058560871 0)
(0.047524617 0.0064552319 0)
(0.046252828 0.0070375807 0)
(0.044872913 0.0076018916 0)
(0.043388383 0.0081469773 0)
(0.041802969 0.0086717066 0)
(0.040120611 0.0091750049 0)
(0.038345447 0.0096558555 0)
(0.036481798 0.0101133 0)
(0.034534165 0.010546439 0)
(0.03250721 0.010954432 0)
(0.03040575 0.011336497 0)
(0.028234744 0.011691911 0)
(0.02599928 0.012020009 0)
(0.023704568 0.012320184 0)
(0.021355926 0.012591888 0)
(0.018958772 0.012834629 0)
(0.016518607 0.013047972 0)
(0.014041014 0.013231537 0)
(0.011531638 0.013385 0)
(0.0089961834 0.013508092 0)
(0.0064403977 0.013600598 0)
(0.0038700646 0.013662358 0)
(0.0012909931 0.013693265 0)
(-0.001290993 0.013693265 0)
(-0.0038700645 0.013662358 0)
(-0.0064403976 0.013600598 0)
(-0.0089961834 0.013508092 0)
(-0.011531638 0.013385 0)
(-0.014041014 0.013231537 0)
(-0.016518607 0.013047972 0)
(-0.018958771 0.012834629 0)
(-0.021355926 0.012591888 0)
(-0.023704568 0.012320184 0)
(-0.02599928 0.012020009 0)
(-0.028234744 0.011691911 0)
(-0.03040575 0.011336497 0)
(-0.03250721 0.010954432 0)
(-0.034534165 0.010546439 0)
(-0.036481798 0.0101133 0)
(-0.038345447 0.0096558556 0)
(-0.040120611 0.0091750049 0)
(-0.041802969 0.0086717066 0)
(-0.043388382 0.0081469774 0)
(-0.044872912 0.0076018916 0)
(-0.046252828 0.0070375807 0)
(-0.047524617 0.0064552319 0)
(-0.048684996 0.0058560871 0)
(-0.049730923 0.005241441 0)
(-0.050659604 0.0046126395 0)
(-0.051468505 0.0039710778 0)
(-0.052155358 0.0033181976 0)
(-0.052718172 0.0026554844 0)
(-0.053155242 0.0019844654 0)
(-0.053465154 0.0013067053 0)
(-0.05364679 0.00062380366 0)
(-0.05369934 -6.2608928e-05 0)
(-0.053622302 -0.00075087504 0)
(-0.05341549 -0.0014393142 0)
(-0.053079035 -0.0021262271 0)
(-0.052613391 -0.0028099002 0)
(-0.052019334 -0.0034886105 0)
(-0.051297967 -0.0041606299 0)
(-0.050450718 -0.0048242308 0)
(-0.049479339 -0.0054776908 0)
(-0.048385904 -0.0061192979 0)
(-0.047172811 -0.0067473561 0)
(-0.045842773 -0.0073601906 0)
(-0.044398817 -0.0079561533 0)
(-0.042844277 -0.0085336283 0)
(-0.041182785 -0.0090910374 0)
(-0.039418271 -0.0096268457 0)
(-0.037554945 -0.010139567 0)
(-0.035597294 -0.010627769 0)
(-0.033550069 -0.011090079 0)
(-0.031418273 -0.01152519 0)
(-0.029207149 -0.011931863 0)
(-0.026922166 -0.012308933 0)
(-0.024569005 -0.012655317 0)
(-0.022153544 -0.012970013 0)
(-0.019681842 -0.013252109 0)
(-0.01716012 -0.01350078 0)
(-0.014594746 -0.013715302 0)
(-0.011992215 -0.013895044 0)
(-0.0093591338 -0.014039478 0)
(-0.0067021963 -0.014148179 0)
(-0.0040281682 -0.014220825 0)
(-0.0013438655 -0.014257201 0)
(0.0013704404 -0.01696771 0)
(0.0041078261 -0.01692442 0)
(0.0068347367 -0.016837969 0)
(0.0095442233 -0.01670861 0)
(0.012229388 -0.016536728 0)
(0.014883406 -0.016322827 0)
(0.017499543 -0.016067538 0)
(0.020071176 -0.015771608 0)
(0.022591814 -0.015435904 0)
(0.025055112 -0.015061403 0)
(0.027454895 -0.014649193 0)
(0.02978517 -0.014200465 0)
(0.032040144 -0.013716509 0)
(0.034214242 -0.01319871 0)
(0.036302118 -0.012648543 0)
(0.038298669 -0.012067562 0)
(0.040199053 -0.011457402 0)
(0.041998694 -0.010819766 0)
(0.043693296 -0.010156423 0)
(0.045278855 -0.0094691977 0)
(0.046751664 -0.0087599689 0)
(0.048108321 -0.0080306586 0)
(0.049345738 -0.0072832276 0)
(0.050461147 -0.0065196685 0)
(0.051452102 -0.0057419991 0)
(0.052316483 -0.0049522561 0)
(0.0530525 -0.0041524889 0)
(0.053658694 -0.0033447531 0)
(0.054133938 -0.0025311046 0)
(0.054477436 -0.0017135938 0)
(0.054688721 -0.00089425989 0)
(0.054767655 -7.5124897e-05 0)
(0.054714425 0.00074181115 0)
(0.054529537 0.0015545755 0)
(0.054213816 0.0023612276 0)
(0.053768395 0.0031598635 0)
(0.053194714 0.0039486203 0)
(0.052494509 0.0047256805 0)
(0.051669807 0.0054892752 0)
(0.050722917 0.0062376879 0)
(0.049656422 0.0069692578 0)
(0.048473168 0.0076823823 0)
(0.047176258 0.0083755196 0)
(0.045769037 0.0090471911 0)
(0.044255087 0.0096959831 0)
(0.042638212 0.010320548 0)
(0.04092243 0.010919608 0)
(0.039111959 0.01149195 0)
(0.03721121 0.012036435 0)
(0.035224772 0.01255199 0)
(0.033157402 0.013037616 0)
(0.031014012 0.013492381 0)
(0.028799663 0.013915423 0)
(0.026519546 0.014305953 0)
(0.024178977 0.014663247 0)
(0.02178338 0.014986653 0)
(0.019338283 0.015275584 0)
(0.016849301 0.015529523 0)
(0.014322129 0.015748017 0)
(0.011762528 0.015930682 0)
(0.0091763167 0.016077197 0)
(0.0065693605 0.016187306 0)
(0.0039475609 0.016260818 0)
(0.0013168449 0.016297605 0)
(-0.0013168449 0.016297605 0)
(-0.0039475608 0.016260818 0)
(-0.0065693605 0.016187306 0)
(-0.0091763166 0.016077197 0)
(-0.011762528 0.015930682 0)
(-0.014322129 0.015748017 0)
(-0.016849301 0.015529523 0)
(-0.019338283 0.015275584 0)
(-0.02178338 0.014986653 0)
(-0.024178976 0.014663247 0)
(-0.026519546 0.014305953 0)
(-0.028799663 0.013915423 0)
(-0.031014012 0.013492381 0)
(-0.033157401 0.013037616 0)
(-0.035224772 0.01255199 0)
(-0.03721121 0.012036435 0)
(-0.039111959 0.01149195 0)
(-0.04092243 0.010919608 0)
(-0.042638212 0.010320548 0)
(-0.044255087 0.0096959831 0)
(-0.045769037 0.0090471911 0)
(-0.047176258 0.0083755196 0)
(-0.048473168 0.0076823823 0)
(-0.049656422 0.0069692578 0)
(-0.050722917 0.0062376879 0)
(-0.051669807 0.0054892752 0)
(-0.052494509 0.0047256805 0)
(-0.053194714 0.0039486204 0)
(-0.053768395 0.0031598635 0)
(-0.054213816 0.0023612276 0)
(-0.054529537 0.0015545755 0)
(-0.054714425 0.00074181117 0)
(-0.054767655 -7.5124876e-05 0)
(-0.054688721 -0.00089425987 0)
(-0.054477436 -0.0017135938 0)
(-0.054133938 -0.0025311046 0)
(-0.053658694 -0.003344753 0)
(-0.0530525 -0.0041524889 0)
(-0.052316483 -0.0049522561 0)
(-0.051452102 -0.0057419991 0)
(-0.050461147 -0.0065196685 0)
(-0.049345738 -0.0072832276 0)
(-0.048108321 -0.0080306585 0)
(-0.046751664 -0.0087599688 0)
(-0.045278855 -0.0094691977 0)
(-0.043693296 -0.010156423 0)
(-0.041998694 -0.010819766 0)
(-0.040199053 -0.011457402 0)
(-0.038298669 -0.012067562 0)
(-0.036302118 -0.012648543 0)
(-0.034214242 -0.01319871 0)
(-0.032040144 -0.013716509 0)
(-0.02978517 -0.014200465 0)
(-0.027454895 -0.014649193 0)
(-0.025055112 -0.015061403 0)
(-0.022591814 -0.015435904 0)
(-0.020071176 -0.015771608 0)
(-0.017499543 -0.016067538 0)
(-0.014883406 -0.016322827 0)
(-0.012229388 -0.016536728 0)
(-0.0095442233 -0.01670861 0)
(-0.0068347368 -0.016837969 0)
(-0.0041078262 -0.01692442 0)
(-0.0013704405 -0.01696771 0)
(0.0014011905 -0.019735519 0)
(0.004199999 -0.019685172 0)
(0.0069881008 -0.019584627 0)
(0.0097583933 -0.019434181 0)
(0.012503826 -0.019234277 0)
(0.015217424 -0.018985506 0)
(0.017892302 -0.018688599 0)
(0.020521693 -0.018344427 0)
(0.02309896 -0.017953996 0)
(0.02561762 -0.017518444 0)
(0.02807136 -0.017039036 0)
(0.030454054 -0.016517155 0)
(0.032759782 -0.015954304 0)
(0.034982844 -0.015352093 0)
(0.037117775 -0.014712235 0)
(0.039159359 -0.01403654 0)
(0.041102646 -0.013326906 0)
(0.042942957 -0.012585314 0)
(0.0446759 -0.011813821 0)
(0.04629738 -0.01101455 0)
(0.047803605 -0.010189683 0)
(0.049191096 -0.009341456 0)
(0.050456695 -0.0084721478 0)
(0.051597568 -0.0075840753 0)
(0.05261121 -0.0066795846 0)
(0.053495452 -0.0057610437 0)
(0.05424846 -0.0048308353 0)
(0.054868738 -0.0038913496 0)
(0.055355128 -0.0029449775 0)
(0.055706813 -0.0019941032 0)
(0.055923311 -0.001041098 0)
(0.056004476 -8.831379e-05 0)
(0.055950492 0.00086192319 0)
(0.055761874 0.0018073183 0)
(0.05543946 0.0027456141 0)
(0.054984403 0.0036745956 0)
(0.054398172 0.0045920955 0)
(0.053682537 0.0054959991 0)
(0.052839568 0.006384248 0)
(0.051871621 0.007254845 0)
(0.050781335 0.0081058571 0)
(0.049571618 0.0089354194 0)
(0.04824564 0.0097417374 0)
(0.04680682 0.01052309 0)
(0.045258819 0.011277832 0)
(0.043605527 0.012004396 0)
(0.041851051 0.012701292 0)
(0.039999707 0.013367111 0)
(0.038056003 0.014000525 0)
(0.036024633 0.014600287 0)
(0.033910464 0.015165232 0)
(0.031718521 0.015694277 0)
(0.029453979 0.01618642 0)
(0.027122149 0.01664074 0)
(0.02472847 0.017056396 0)
(0.022278491 0.017432629 0)
(0.019777867 0.017768756 0)
(0.017232344 0.018064175 0)
(0.014647747 0.01831836 0)
(0.01202997 0.018530862 0)
(0.0093849677 0.01870131 0)
(0.0067187405 0.018829405 0)
(0.0040373265 0.018914925 0)
(0.0013467897 0.018957722 0)
(-0.0013467897 0.018957722 0)
(-0.0040373264 0.018914925 0)
(-0.0067187405 0.018829405 0)
(-0.0093849676 0.01870131 0)
(-0.01202997 0.018530862 0)
(-0.014647746 0.01831836 0)
(-0.017232344 0.018064175 0)
(-0.019777867 0.017768756 0)
(-0.022278491 0.017432629 0)
(-0.02472847 0.017056396 0)
(-0.027122149 0.01664074 0)
(-0.029453979 0.01618642 0)
(-0.031718521 0.015694277 0)
(-0.033910464 0.015165232 0)
(-0.036024633 0.014600287 0)
(-0.038056003 0.014000525 0)
(-0.039999706 0.013367111 0)
(-0.041851051 0.012701292 0)