/*--------------------------------*- C++ -*----------------------------------*\
| =========                 |                                                 |
| \\      /  F ield         | OpenFOAM: The Open Source CFD Toolbox           |
|  \\    /   O peration     | Version:  2106                                  |
|   \\  /    A nd           | Website:  www.openfoam.com                      |
|    \\/     M anipulation  |                                                 |
\*---------------------------------------------------------------------------*/
FoamFile
{
    version     2.0;
    format      ascii;
    arch        "LSB;label=32;scalar=64";
    class       volScalarField;
    location    "0.008";
    object      p_rgh;
}
// * * * * * * * * * * * * * * * * * * * * * * * * * * * * * * * * * * * * * //

dimensions      [1 -1 -2 0 0 0 0];

internalField   nonuniform List<scalar> 
65536
(
12.06061
12.053262
12.038571
12.016545
11.987199
11.950552
11.906625
11.855448
11.797052
11.731475
11.658756
11.578943
11.492085
11.398238
11.29746
11.189814
11.075368
10.954195
10.82637
10.691973
10.551089
10.403806
10.250216
10.090415
9.9245036
9.7525853
9.5747672
9.3911605
9.2018796
9.0070423
8.8067701
8.6011874
8.3904221
8.1746048
7.9538696
7.7283532
7.4981952
7.263538
7.0245265
6.7813083
6.5340334
6.2828541
6.027925
5.7694029
5.5074464
5.2422163
4.9738751
4.7025872
4.4285184
4.1518361
3.8727093
3.5913081
3.3078038
3.0223689
2.7351769
2.4464021
2.1562196
1.8648052
1.5723352
1.2789865
0.98493632
0.69036209
0.3954407
0.10034619
-0.19473473
-0.48962743
-0.78416131
-1.0781563
-1.3714355
-1.6638235
-1.9551457
-2.245228
-2.5338972
-2.8209811
-3.1063088
-3.3897104
-3.6710171
-3.9500619
-4.2266791
-4.5007044
-4.7719755
-5.0403315
-5.3056136
-5.5676648
-5.8263302
-6.0814571
-6.3328947
-6.5804948
-6.8241114
-7.0636009
-7.2988222
-7.5296371
-7.7559097
-7.9775069
-8.1942987
-8.4061578
-8.6129597
-8.8145833
-9.0109102
-9.2018255
-9.3872173
-9.5669771
-9.7409997
-9.9091833
-10.071429
-10.227643
-10.377734
-10.521613
-10.659198
-10.790406
-10.915163
-11.033395
-11.145033
-11.250012
-11.348271
-11.439753
-11.524404
-11.602176
-11.673022
-11.736901
-11.793777
-11.843616
-11.886389
-11.922071
-11.950642
-11.972085
-11.986387
-11.99354
-11.99354
-11.986387
-11.972085
-11.950642
-11.922071
-11.886389
-11.843616
-11.793777
-11.736901
-11.673022
-11.602176
-11.524405
-11.439753
-11.348271
-11.250012
-11.145033
-11.033395
-10.915163
-10.790406
-10.659198
-10.521613
-10.377734
-10.227643
-10.071429
-9.9091832
-9.7409996
-9.5669771
-9.3872173
-9.2018254
-9.0109102
-8.8145832
-8.6129597
-8.4061577
-8.1942987
-7.9775069
-7.7559096
-7.5296371
-7.2988222
-7.0636009
-6.8241114
-6.5804948
-6.3328947
-6.0814571
-5.8263302
-5.5676648
-5.3056136
-5.0403315
-4.7719755
-4.5007045
-4.2266791
-3.950062
-3.6710172
-3.3897104
-3.1063089
-2.8209812
-2.5338972
-2.245228
-1.9551458
-1.6638236
-1.3714356
-1.0781564
-0.78416136
-0.48962747
-0.19473477
0.10034616
0.39544068
0.69036207
0.9849363
1.2789865
1.5723352
1.8648052
2.1562196
2.4464021
2.7351769
3.0223689
3.3078038
3.5913081
3.8727093
4.1518361
4.4285184
4.7025871
4.9738751
5.2422162
5.5074463
5.7694028
6.027925
6.2828541
6.5340334
6.7813083
7.0245265
7.263538
7.4981952
7.7283532
7.9538697
8.1746049
8.3904222
8.6011875
8.8067702
9.0070425
9.2018797
9.3911607
9.5747674
9.7525854
9.9245038
10.090415
10.250216
10.403806
10.551089
10.691973
10.82637
10.954195
11.075368
11.189814
11.29746
11.398238
11.492085
11.578943
11.658756
11.731474
11.797052
11.855448
11.906625
11.950552
11.987199
12.016545
12.038571
12.053262
12.06061
12.067121
12.059769
12.04507
12.023032
11.993671
11.957003
11.913053
11.861848
11.803421
11.737808
11.66505
11.585194
11.498289
11.404391
11.303558
11.195854
11.081347
10.960108
10.832213
10.697744
10.556783
10.409421
10.255748
10.09586
9.9298593
9.7578479
9.5799337
9.3962276
9.2068442
9.0119016
8.8115209
8.605827
8.3949475
8.1790135
7.9581587
7.7325202
7.5022376
7.2674533
7.0283124
6.7849625
6.5375537
6.2862383
6.0311711
5.7725089
5.5104105
5.2450366
4.9765501
4.7051151
4.4308978
4.1540656
3.8747874
3.5932336
3.3095756
3.0239859
2.7366382
2.4477067
2.1573668
1.8657943
1.5731656
1.2796577
0.98544783
0.69071349
0.39563213
0.10038037
-0.19486277
-0.48991761
-0.78461094
-1.0787651
-1.3722035
-1.6647503
-1.9562308
-2.2464707
-2.5352968
-2.8225368
-3.1080196
-3.3915752
-3.673035
-3.9522316
-4.2289992
-4.5031736
-4.7745923
-5.0430943
-5.3085208
-5.5707146
-5.8295209
-6.0847867
-6.3363612
-6.5840962
-6.8278454
-7.0674654
-7.3028149
-7.5337555
-7.7601514
-7.9818694
-8.1987794
-8.4107539
-8.6176686
-8.8194021
-9.0158361
-9.2068555
-9.3923484
-9.5722062
-9.7463237
-9.914599
-10.076934
-10.233233
-10.383405
-10.527363
-10.665023
-10.796303
-10.921128
-11.039424
-11.151123
-11.25616
-11.354472
-11.446004
-11.530702
-11.608515
-11.6794
-11.743314
-11.800221
-11.850087
-11.892884
-11.928586
-11.957172
-11.978626
-11.992936
-12.000093
-12.000093
-11.992936
-11.978626
-11.957172
-11.928586
-11.892884
-11.850087
-11.800221
-11.743314
-11.6794
-11.608515
-11.530702
-11.446004
-11.354473
-11.25616
-11.151123
-11.039424
-10.921128
-10.796303
-10.665023
-10.527363
-10.383405
-10.233233
-10.076934
-9.914599
-9.7463237
-9.5722062
-9.3923483
-9.2068554
-9.015836
-8.819402
-8.6176685
-8.4107539
-8.1987793
-7.9818694
-7.7601513
-7.5337555
-7.3028149
-7.0674654
-6.8278454
-6.5840962
-6.3363613
-6.0847867
-5.8295209
-5.5707147
-5.3085208
-5.0430943
-4.7745923
-4.5031737
-4.2289992
-3.9522316
-3.673035
-3.3915753
-3.1080197
-2.8225368
-2.5352968
-2.2464707
-1.9562308
-1.6647504
-1.3722035
-1.0787652
-0.78461098
-0.48991765
-0.1948628
0.10038034
0.3956321
0.69071347
0.98544781
1.2796577
1.5731656
1.8657943
2.1573668
2.4477067
2.7366381
3.0239859
3.3095756
3.5932336
3.8747874
4.1540655
4.4308977
4.7051151
4.97655
5.2450366
5.5104104
5.7725089
6.0311711
6.2862383
6.5375536
6.7849625
7.0283124
7.2674533
7.5022376
7.7325203
7.9581588
8.1790135
8.3949476
8.6058271
8.8115211
9.0119017
9.2068444
9.3962277
9.5799338
9.7578481
9.9298594
10.095861
10.255748
10.409421
10.556784
10.697744
10.832213
10.960108
11.081347
11.195854
11.303558
11.404391
11.498289
11.585194
11.66505
11.737807
11.803421
11.861848
11.913053
11.957003
11.993671
12.023032
12.04507
12.059769
12.067121
12.081137
12.073777
12.05906
12.036996
12.0076
11.970889
11.926887
11.875622
11.817125
11.751435
11.678591
11.598641
11.511634
11.417625
11.316673
11.208842
11.094199
10.972817
10.844772
10.710144
10.569018
10.421482
10.267627
10.107552
9.9413557
9.7691419
9.5910184
9.4070963
9.2174903
9.0223186
8.8217025
8.615767
8.40464
8.1884525
7.9673387
7.7414355
7.5108829
7.2758235
7.0364024
6.7927675
6.545069
6.2934596
6.038094
5.7791293
5.5167245
5.2510406
4.9822404
4.7104884
4.435951
4.1587958
3.8791919
3.5973098
3.3133211
3.0273987
2.7397162
2.4504484
2.1597705
1.8678587
1.5748896
1.2810404
0.98648847
0.69141149
0.39598725
0.10039335
-0.19519209
-0.49059054
-0.78562595
-1.0801213
-1.3738998
-1.6667859
-1.9586042
-2.2491804
-2.5383412
-2.8259139
-3.1117274
-3.3956113
-3.6773969
-3.9569166
-4.2340045
-4.5084961
-4.7802287
-5.0490413
-5.3147747
-5.5772717
-5.8363771
-6.0919379
-6.3438032
-6.5918244
-6.8358553
-7.075752
-7.3113734
-7.5425807
-7.769238
-7.991212
-8.2083724
-8.4205917
-8.6277452
-8.8297115
-9.0263722
-9.217612
-9.403319
-9.5833843
-9.7577027
-9.9261722
-10.088694
-10.245174
-10.395519
-10.539643
-10.677461
-10.808893
-10.933862
-11.052295
-11.164122
-11.26928
-11.367706
-11.459344
-11.544139
-11.622042
-11.693008
-11.756996
-11.813969
-11.863892
-11.906738
-11.942481
-11.971101
-11.99258
-12.006906
-12.014071
-12.014071
-12.006906
-11.99258
-11.971101
-11.942481
-11.906738
-11.863892
-11.813969
-11.756996
-11.693008
-11.622042
-11.544139
-11.459344
-11.367706
-11.26928
-11.164122
-11.052295
-10.933862
-10.808893
-10.677461
-10.539643
-10.395519
-10.245174
-10.088694
-9.9261721
-9.7577027
-9.5833843
-9.4033189
-9.217612
-9.0263721
-8.8297114
-8.6277451
-8.4205916
-8.2083724
-7.991212
-7.7692379
-7.5425807
-7.3113733
-7.075752
-6.8358553
-6.5918244
-6.3438032
-6.0919379
-5.8363771
-5.5772717
-5.3147747
-5.0490413
-4.7802287
-4.5084961
-4.2340045
-3.9569166
-3.6773969
-3.3956113
-3.1117274
-2.825914
-2.5383412
-2.2491805
-1.9586042
-1.6667859
-1.3738999
-1.0801213
-0.78562597
-0.49059057
-0.19519211
0.10039333
0.39598724
0.69141148
0.98648846
1.2810404
1.5748896
1.8678587
2.1597705
2.4504483
2.7397162
3.0273987
3.3133211
3.5973098
3.8791919
4.1587958
4.435951
4.7104884
4.9822403
5.2510405
5.5167244
5.7791293
6.038094
6.2934596
6.545069
6.7927675
7.0364024
7.2758235
7.510883
7.7414356
7.9673387
8.1884526
8.4046401
8.6157671
8.8217027
9.0223187
9.2174905
9.4070965
9.5910185
9.7691421
9.9413558
10.107552
10.267628
10.421482
10.569018
10.710144
10.844772
10.972817
11.094199
11.208842
11.316673
11.417624
11.511633
11.598641
11.678591
11.751435
11.817125
11.875622
11.926887
11.970889
12.0076
12.036996
12.05906
12.073777
12.081137
12.102495
12.095121
12.080377
12.058274
12.028825
11.992048
11.947966
11.896609
11.838007
11.772198
11.699223
11.619128
11.531964
11.437786
11.336652
11.228627
11.113779
10.992178
10.863903
10.729033
10.587653
10.439851
10.28572
10.125358
9.9588627
9.7863399
9.6078967
9.4236448
9.2336988
9.0381773
8.8372019
8.6308976
8.4193927
8.2028184
7.9813091
7.7550021
7.5240376
7.2885583
7.0487098
6.8046402
6.5564999
6.3044419
6.0486213
5.7891953
5.5263234
5.2601667
4.9908884
4.7186534
4.4436281
4.1659806
3.8858803
3.603498
3.3190057
3.0325763
2.744384
2.4546038
2.1634112
1.8709828
1.5774955
1.2831266
0.98805401
0.69245564
0.39650963
0.10039407
-0.19571274
-0.49163266
-0.78718847
-1.0822029
-1.3764992
-1.6699012
-1.9622334
-2.2533212
-2.5429908
-2.8310695
-3.1173856
-3.4017687
-3.6840496
-3.9640605
-4.2416352
-4.516609
-4.7888187
-5.0581032
-5.324303
-5.5872606
-5.8468206
-6.1028297
-6.3551366
-6.6035927
-6.8480513
-7.0883685
-7.3244028
-7.5560152
-7.7830695
-8.0054324
-8.2229731
-8.4355639
-8.6430801
-8.8454
-9.0424049
-9.2339794
-9.4200113
-9.6003917
-9.7750151
-9.9437792
-10.106585
-10.263339
-10.413947
-10.558323
-10.696382
-10.828044
-10.953231
-11.071871
-11.183894
-11.289236
-11.387834
-11.479631
-11.564575
-11.642614
-11.713705
-11.777804
-11.834876
-11.884887
-11.927808
-11.963613
-11.992283
-12.013799
-12.028151
-12.035329
-12.035329
-12.028151
-12.013799
-11.992283
-11.963613
-11.927808
-11.884887
-11.834876
-11.777805
-11.713705
-11.642614
-11.564575
-11.479631
-11.387834
-11.289236
-11.183894
-11.071871
-10.953231
-10.828044
-10.696382
-10.558323
-10.413947
-10.263339
-10.106585
-9.9437792
-9.775015
-9.6003917
-9.4200112
-9.2339793
-9.0424048
-8.8453999
-8.64308
-8.4355638
-8.222973
-8.0054323
-7.7830695
-7.5560152
-7.3244028
-7.0883685
-6.8480513
-6.6035927
-6.3551367
-6.1028297
-5.8468207
-5.5872606
-5.324303
-5.0581032
-4.7888188
-4.516609
-4.2416353
-3.9640606
-3.6840496
-3.4017687
-3.1173856
-2.8310695
-2.5429908
-2.2533212
-1.9622334
-1.6699012
-1.3764992
-1.0822029
-0.78718847
-0.49163266
-0.19571274
0.10039408
0.39650963
0.69245565
0.98805402
1.2831266
1.5774955
1.8709828
2.1634112
2.4546038
2.744384
3.0325763
3.3190057
3.603498
3.8858803
4.1659806
4.4436281
4.7186533
4.9908883
5.2601666
5.5263233
5.7891953
6.0486213
6.3044419
6.5564999
6.8046402
7.0487098
7.2885583
7.5240376
7.7550022
7.9813092
8.2028185
8.4193928
8.6308977
8.837202
9.0381774
9.233699
9.4236449
9.6078969
9.78634
9.9588628
10.125358
10.285721
10.439851
10.587653
10.729033
10.863903
10.992178
11.113779
11.228627
11.336652
11.437786
11.531964
11.619128
11.699223
11.772197
11.838007
11.896609
11.947966
11.992048
12.028825
12.058274
12.080377
12.095121
12.102495
12.131142
12.12375
12.108971
12.086814
12.057293
12.020427
11.97624
11.924758
11.866014
11.800046
11.726895
11.646607
11.559233
11.464827
11.363449
11.255164
11.140038
11.018144
10.889559
10.754364
10.612643
10.464486
10.309984
10.149235
9.9823399
9.8094021
9.6305299
9.4458352
9.2554329
9.0594419
8.8579841
8.6511848
8.4391727
8.2220793
8.0000393
7.7731904
7.541673
7.3056303
7.0652083
6.8205553
6.5718222
6.3191624
6.0627312
5.8026864
5.5391877
5.2723968
5.0024771
4.729594
4.4539144
4.1756066
3.8948405
3.6117873
3.3266193
3.0395101
2.7506341
2.4601667
2.1682839
1.8751627
1.5809804
1.2859148
0.99014405
0.69384663
0.39720106
0.10038592
-0.19642018
-0.49303887
-0.78929223
-1.0850026
-1.3799929
-1.6740865
-1.9671076
-2.258881
-2.5492328
-2.8379896
-3.1249794
-3.4100315
-3.6929763
-3.9736455
-4.2518726
-4.5274924
-4.8003416
-5.0702585
-5.3370832
-5.6006581
-5.8608272
-6.1174369
-6.3703357
-6.6193744
-6.8644062
-7.1052867
-7.3418741
-7.5740293
-7.8016156
-8.0244993
-8.2425495
-8.4556381
-8.6636402
-8.8664337
-9.0638997
-9.2559226
-9.4423898
-9.6231923
-9.7982242
-9.9673831
-10.13057
-10.28769
-10.438651
-10.583364
-10.721746
-10.853715
-10.979195
-11.098113
-11.210398
-11.315985
-11.414814
-11.506826
-11.591968
-11.67019
-11.741446
-11.805696
-11.862901
-11.913029
-11.95605
-11.991939
-12.020675
-12.042242
-12.056627
-12.063822
-12.063822
-12.056627
-12.042242
-12.020675
-11.991939
-11.95605
-11.913029
-11.862901
-11.805696
-11.741446
-11.67019
-11.591968
-11.506826
-11.414814
-11.315986
-11.210398
-11.098113
-10.979195
-10.853716
-10.721746
-10.583364
-10.438651
-10.28769
-10.13057
-9.9673831
-9.7982241
-9.6231922
-9.4423898
-9.2559225
-9.0638996
-8.8664336
-8.6636401
-8.4556381
-8.2425494
-8.0244992
-7.8016155
-7.5740292
-7.3418741
-7.1052867
-6.8644062
-6.6193744
-6.3703357
-6.1174369
-5.8608272
-5.6006581
-5.3370833
-5.0702585
-4.8003417
-4.5274925
-4.2518726
-3.9736456
-3.6929763
-3.4100316
-3.1249795
-2.8379896
-2.5492328
-2.2588811
-1.9671076
-1.6740865
-1.3799929
-1.0850026
-0.78929221
-0.49303884
-0.19642016
0.10038595
0.39720109
0.69384666
0.99014407
1.2859148
1.5809804
1.8751627
2.1682839
2.4601667
2.7506341
3.0395101
3.3266193
3.6117872
3.8948404
4.1756065
4.4539143
4.729594
5.0024771
5.2723967
5.5391877
5.8026864
6.0627312
6.3191623
6.5718222
6.8205553
7.0652083
7.3056303
7.541673
7.7731904
8.0000394
8.2220793
8.4391728
8.6511849
8.8579842
9.059442
9.255433
9.4458353
9.63053
9.8094022
9.98234
10.149235
10.309984
10.464486
10.612643
10.754364
10.889559
11.018144
11.140038
11.255164
11.363449
11.464827
11.559233
11.646607
11.726895
11.800046
11.866014
11.924758
11.97624
12.020427
12.057293
12.086814
12.108971
12.12375
12.131142
12.167099
12.159685
12.144862
12.122638
12.093028
12.05605
12.011728
11.960091
11.901169
11.835001
11.761629
11.681098
11.593459
11.498768
11.397084
11.28847
11.172997
11.050735
10.921761
10.786158
10.644009
10.495405
10.340437
10.179203
10.011805
9.8383456
9.6589346
9.4736838
9.2827085
9.0861278
8.8840642
8.6766434
8.4639944
8.2462491
8.0235427
7.7960133
7.5638017
7.3270517
7.0859095
6.8405241
6.5910468
6.3376313
6.0804336
5.819612
5.5553265
5.2877393
5.0170145
4.7433179
4.4668167
4.1876801
3.9060782
3.6221829
3.336167
3.0482044
2.7584703
2.4671404
2.1743914
1.8804007
1.5853462
1.2894062
0.99275934
0.69558468
0.39806124
0.10036814
-0.19731554
-0.49481094
-0.79193956
-1.0885232
-1.3843843
-1.6793457
-1.9732311
-2.2658648
-2.5570723
-2.84668
-3.1345151
-3.4204065
-3.7041841
-3.9856792
-4.2647247
-4.5411551
-4.8148064
-5.0855166
-5.3531254
-5.6174745
-5.8784077
-6.1357708
-6.389412
-6.6391815
-6.8849323
-7.1265194
-7.3638007
-7.5966366
-7.8248902
-8.0484272
-8.2671164
-8.4808295
-8.6894409
-8.8928285
-9.0908728
-9.2834581
-9.4704713
-9.6518031
-9.8273474
-9.9970014
-10.160666
-10.318246
-10.469648
-10.614785
-10.753572
-10.885927
-11.011774
-11.131039
-11.243653
-11.349549
-11.448667
-11.540948
-11.626339
-11.704789
-11.776254
-11.840692
-11.898064
-11.948338
-11.991485
-12.027479
-12.056299
-12.077929
-12.092356
-12.099572
-12.099572
-12.092356
-12.077929
-12.056299
-12.027479
-11.991485
-11.948338
-11.898064
-11.840692
-11.776254
-11.704789
-11.626339
-11.540948
-11.448667
-11.349549
-11.243653
-11.131039
-11.011774
-10.885927
-10.753572
-10.614785
-10.469648
-10.318246
-10.160666
-9.9970014
-9.8273473
-9.651803
-9.4704712
-9.283458
-9.0908728
-8.8928284
-8.6894409
-8.4808294
-8.2671164
-8.0484271
-7.8248901
-7.5966366
-7.3638007
-7.1265194
-6.8849323
-6.6391815
-6.389412
-6.1357708
-5.8784077
-5.6174746
-5.3531255
-5.0855167
-4.8148065
-4.5411552
-4.2647248
-3.9856793
-3.7041841
-3.4204066
-3.1345152
-2.84668
-2.5570724
-2.2658648
-1.9732311
-1.6793457
-1.3843843
-1.0885232
-0.79193951
-0.4948109
-0.19731549
0.10036819
0.39806129
0.69558472
0.99275939
1.2894062
1.5853462
1.8804008
2.1743915
2.4671404
2.7584703
3.0482044
3.336167
3.6221829
3.9060782
4.18768
4.4668167
4.7433178
5.0170145
5.2877393
5.5553264
5.8196119
6.0804336
6.3376313
6.5910468
6.8405241
7.0859095
7.3270517
7.5638018
7.7960133
8.0235428
8.2462492
8.4639944
8.6766435
8.8840643
9.0861279
9.2827085
9.4736838
9.6589347
9.8383456
10.011805
10.179203
10.340437
10.495405
10.644009
10.786158
10.921761
11.050735
11.172997
11.28847
11.397084
11.498768
11.593459
11.681098
11.761629
11.835001
11.901169
11.960091
12.011728
12.05605
12.093028
12.122638
12.144862
12.159685
12.1671
12.210395
12.202954
12.188076
12.165772
12.136054
12.098942
12.054459
12.002633
11.943498
11.877089
11.80345
11.722626
11.634669
11.539634
11.43758
11.328572
11.212679
11.089974
10.960532
10.824437
10.681773
10.532629
10.3771
10.215283
10.047278
9.8731912
9.6931313
9.5072105
9.315545
9.1182542
8.915461
8.7072915
8.4938753
8.2753449
8.0518359
7.8234869
7.5904393
7.3528373
7.1108279
6.8645604
6.6141868
6.3598613
6.1017406
5.8399834
5.5747504
5.3062044
5.0345101
4.7598339
4.4823436
4.2022089
3.9196007
3.6346914
3.3476545
3.0586645
2.7678972
2.4755289
2.1817371
1.8866996
1.590595
1.2936022
0.99590068
0.69766993
0.39908967
0.10033964
-0.19840049
-0.49695124
-0.79513343
-1.0927683
-1.3896776
-1.6856836
-1.9806093
-2.2742786
-2.5665162
-2.8571479
-3.1460005
-3.4329021
-3.7176821
-4.0001712
-4.2802018
-4.5576077
-4.8322245
-5.1038894
-5.3724418
-5.6377227
-5.8995755
-6.1578453
-6.4123799
-6.663029
-6.909645
-7.1520825
-7.3901989
-7.623854
-7.8529105
-8.0772338
-8.296692
-8.5111565
-8.7205013
-8.9246037
-9.123344
-9.3166059
-9.5042762
-9.686245
-9.8624058
-10.032656
-10.196895
-10.355028
-10.506962
-10.652608
-10.791882
-10.924702
-11.050991
-11.170674
-11.283683
-11.389951
-11.489416
-11.582021
-11.667712
-11.746437
-11.818153
-11.882816
-11.94039
-11.990841
-12.034139
-12.070259
-12.09918
-12.120886
-12.135364
-12.142605
-12.142605
-12.135364
-12.120886
-12.09918
-12.070259
-12.034139
-11.990841
-11.94039
-11.882816
-11.818153
-11.746437
-11.667712
-11.582021
-11.489417
-11.389951
-11.283683
-11.170674
-11.050991
-10.924702
-10.791882
-10.652608
-10.506962
-10.355028
-10.196895
-10.032656
-9.8624058
-9.686245
-9.5042762
-9.3166059
-9.123344
-8.9246036
-8.7205012
-8.5111564
-8.296692
-8.0772337
-7.8529105
-7.623854
-7.3901989
-7.1520825
-6.909645
-6.663029
-6.4123799
-6.1578454
-5.8995755
-5.6377228
-5.3724418
-5.1038895
-4.8322245
-4.5576078
-4.2802019
-4.0001713
-3.7176821
-3.4329021
-3.1460005
-2.8571479
-2.5665162
-2.2742786
-1.9806093
-1.6856835
-1.3896775
-1.0927683
-0.79513338
-0.49695117
-0.19840043
0.1003397
0.39908973
0.69767
0.99590074
1.2936023
1.590595
1.8866996
2.1817371
2.4755289
2.7678972
3.0586645
3.3476545
3.6346914
3.9196007
4.2022089
4.4823436
4.7598338
5.0345101
5.3062044
5.5747504
5.8399833
6.1017406
6.3598613
6.6141868
6.8645604
7.1108279
7.3528373
7.5904393
7.8234869
8.0518359
8.2753449
8.4938754
8.7072916
8.915461
9.1182542
9.3155451
9.5072106
9.6931313
9.8731913
10.047278
10.215283
10.3771
10.532629
10.681773
10.824437
10.960532
11.089973
11.212679
11.328572
11.43758
11.539633
11.634669
11.722626
11.80345
11.877089
11.943498
12.002633
12.054459
12.098942
12.136054
12.165772
12.188076
12.202954
12.210395
12.261055
12.253583
12.238642
12.216242
12.186398
12.149129
12.104457
12.052412
11.993025
11.926335
11.852384
11.771217
11.682887
11.587449
11.484963
11.375494
11.25911
11.135885
11.005896
10.869224
10.725957
10.576183
10.419997
10.257495
10.088781
9.9139598
9.7331402
9.5464354
9.353962
9.15584
8.9521927
8.7431471
8.528833
8.3093837
8.0849353
7.8556271
7.6216011
7.3830021
7.1399777
6.8926779
6.6412553
6.385865
6.1266641
5.863812
5.5974703
5.3278024
5.0549736
4.779151
4.5005033
4.2192008
3.9354151
3.6493194
3.3610878
3.0708957
2.7789194
2.4853362
2.1903242
1.8940619
1.5967288
1.2985044
0.99956891
0.7001026
0.40028593
0.10029936
-0.1996767
-0.49946205
-0.79887679
-1.0977414
-1.3958769
-1.6931049
-1.9892476
-2.2841283
-2.5775709
-2.8694005
-3.1594433
-3.4475266
-3.7334792
-4.0171311
-4.2983139
-4.5768609
-4.8526069
-5.1253887
-5.3950447
-5.6614156
-5.9243439
-6.1836744
-6.4392539
-6.6909318
-6.9385598
-7.181992
-7.421085
-7.6556983
-7.885694
-8.1109368
-8.3312945
-8.5466378
-8.7568403
-8.9617788
-9.1613332
-9.3553865
-9.5438252
-9.726539
-9.903421
-10.074368
-10.239279
-10.398059
-10.550615
-10.696857
-10.836701
-10.970064
-11.096869
-11.217042
-11.330513
-11.437216
-11.537088
-11.630071
-11.716112
-11.795159
-11.867168
-11.932096
-11.989905
-12.040562
-12.084037
-12.120304
-12.149344
-12.171139
-12.185675
-12.192946
-12.192946
-12.185675
-12.171139
-12.149344
-12.120305
-12.084037
-12.040562
-11.989905
-11.932096
-11.867168
-11.795159
-11.716112
-11.630071
-11.537088
-11.437216
-11.330513
-11.217042
-11.096869
-10.970064
-10.836701
-10.696857
-10.550615
-10.398059
-10.239279
-10.074368
-9.9034209
-9.726539
-9.5438252
-9.3553865
-9.1613331
-8.9617788
-8.7568403
-8.5466378
-8.3312945
-8.1109368
-7.885694
-7.6556983
-7.421085
-7.181992
-6.9385598
-6.6909318
-6.4392539
-6.1836744
-5.924344
-5.6614157
-5.3950448
-5.1253887
-4.852607
-4.5768609
-4.2983139
-4.0171311
-3.7334792
-3.4475266
-3.1594433
-2.8694005
-2.5775709
-2.2841283
-1.9892476
-1.6931048
-1.3958769
-1.0977414
-0.79887673
-0.49946198
-0.19967663
0.10029943
0.400286
0.70010267
0.99956897
1.2985045
1.5967288
1.894062
2.1903242
2.4853363
2.7789194
3.0708957
3.3610878
3.6493194
3.9354151
4.2192008
4.5005033
4.779151
5.0549736
5.3278024
5.5974703
5.863812
6.1266641
6.385865
6.6412553
6.8926779
7.1399777
7.3830021
7.6216011
7.8556271
8.0849353
8.3093837
8.528833
8.7431471
8.9521928
9.15584
9.353962
9.5464355
9.7331402
9.9139599
10.088781
10.257495
10.419997
10.576183
10.725957
10.869224
11.005896
11.135884
11.25911
11.375493
11.484963
11.587449
11.682887
11.771217
11.852383
11.926335
11.993025
12.052412
12.104457
12.149129
12.186398
12.216242
12.238642
12.253583
12.261055
12.319111
12.311602
12.296588
12.27408
12.244092
12.206642
12.161754
12.109456
12.049782
11.982769
11.908459
11.8269
11.738142
11.642243
11.539261
11.429262
11.312316
11.188495
11.057878
10.920547
10.776588
10.626091
10.469151
10.305866
10.136339
9.9606754
9.7789849
9.5913814
9.3979819
9.198907
8.9942809
8.7842309
8.5688877
8.3483851
8.12286
7.8924523
7.6573048
7.4175631
7.1733753
6.9248924
6.6722677
6.4156568
6.1552179
5.8911111
5.6234987
5.3525449
5.078416
4.8012796
4.5213055
4.2386647
3.9535296
3.6660743
3.3764736
3.0849039
2.7915423
2.496567
2.2001567
1.902491
1.60375
1.3041144
1.003765
0.70288291
0.40164952
0.1002461
-0.2011461
-0.50234605
-0.80317301
-1.1034466
-1.4029871
-1.7016152
-1.9991523
-2.2954209
-2.5902441
-2.8834462
-3.1748526
-3.4642898
-3.7515857
-4.0365697
-4.3190726
-4.5989269
-4.8759667
-5.150028
-5.4209485
-5.688568
-5.9527285
-6.213274
-6.4700507
-6.7229072
-6.9716945
-7.2162661
-7.4564781
-7.6921891
-7.9232606
-8.1495568
-8.3709449
-8.587295
-8.7984801
-9.0043764
-9.2048632
-9.3998232
-9.5891422
-9.7727094
-9.9504174
-10.122162
-10.287844
-10.447365
-10.600633
-10.747558
-10.888054
-11.02204
-11.149436
-11.27017
-11.38417
-11.491371
-11.591709
-11.685126
-11.771568
-11.850984
-11.923329
-11.988559
-12.046638
-12.097531
-12.141209
-12.177646
-12.206821
-12.228717
-12.243321
-12.250626
-12.250626
-12.243321
-12.228717
-12.206821
-12.177646
-12.141209
-12.097531
-12.046638
-11.988559
-11.923329
-11.850984
-11.771568
-11.685126
-11.591709
-11.491371
-11.38417
-11.27017
-11.149436
-11.02204
-10.888054
-10.747558
-10.600633
-10.447365
-10.287844
-10.122162
-9.9504174
-9.7727094
-9.5891422
-9.3998232
-9.2048632
-9.0043763
-8.79848
-8.587295
-8.3709449
-8.1495568
-7.9232606
-7.6921891
-7.4564781
-7.2162661
-6.9716945
-6.7229072
-6.4700507
-6.213274
-5.9527286
-5.6885681
-5.4209485
-5.150028
-4.8759668
-4.598927
-4.3190727
-4.0365697
-3.7515857
-3.4642898
-3.1748526
-2.8834462
-2.5902441
-2.2954209
-1.9991523
-1.7016151
-1.402987
-1.1034466
-0.80317295
-0.50234599
-0.20114604
0.10024617
0.40164959
0.70288298
1.003765
1.3041145
1.6037501
1.9024911
2.2001567
2.496567
2.7915424
3.084904
3.3764737
3.6660743
3.9535296
4.2386647
4.5213055
4.8012796
5.0784159
5.3525449
5.6234987
5.8911111
6.1552179
6.4156568
6.6722677
6.9248924
7.1733753
7.4175631
7.6573048
7.8924523
8.12286
8.3483851
8.5688877
8.7842309
8.9942809
9.198907
9.3979819
9.5913814
9.7789849
9.9606754
10.136339
10.305866
10.469151
10.626091
10.776588
10.920547
11.057878
11.188495
11.312316
11.429262
11.539261
11.642243
11.738142
11.8269
11.908459
11.982769
12.049782
12.109456
12.161754
12.206642
12.244092
12.27408
12.296588
12.311602
12.319111
12.384596
12.377046
12.361951
12.339321
12.309169
12.271515
12.226383
12.173801
12.113802
12.046425
11.971711
11.889709
11.800469
11.704048
11.600507
11.489911
11.372329
11.247837
11.116511
10.978435
10.833696
10.682384
10.524593
10.360425
10.18998
10.013366
9.8306926
9.642075
9.4476306
9.2474807
9.0417501
8.8305669
8.6140626
8.3923717
8.1656318
7.9339838
7.6975711
7.4565401
7.21104
6.9612223
6.7072413
6.4492536
6.1874181
5.9218958
5.6528499
5.3804457
5.10485
4.8262317
4.5447614
4.2606109
3.9739537
3.6849647
3.3938198
3.1006963
2.8057721
2.5092264
2.211239
1.9119904
1.6116616
1.3104342
1.00849
0.70601112
0.40317986
0.10017844
-0.20281095
-0.50560633
-0.80802601
-1.1098887
-1.4110137
-1.7112208
-2.0103305
-2.3081644
-2.6045446
-2.8992945
-3.1922386
-3.4832027
-3.7720136
-4.0584999
-4.3424916
-4.6238201
-4.9023189
-5.177823
-5.4501694
-5.7191971
-5.9847471
-6.2466628
-6.5047895
-6.758975
-7.0090697
-7.2549262
-7.4963999
-7.7333487
-7.9656334
-8.1931176
-8.4156676
-8.6331529
-8.8454459
-9.0524223
-9.2539606
-9.449943
-9.6402546
-9.8247841
-10.003424
-10.176069
-10.342618
-10.502976
-10.657046
-10.804741
-10.945973
-11.08066
-11.208724
-11.33009
-11.444688
-11.552449
-11.653313
-11.747219
-11.834113
-11.913945
-11.986668
-12.05224
-12.110623
-12.161782
-12.205689
-12.242316
-12.271644
-12.293655
-12.308336
-12.315678
-12.315678
-12.308336
-12.293655
-12.271644
-12.242316
-12.205689
-12.161782
-12.110623
-12.05224
-11.986668
-11.913945
-11.834113
-11.747219
-11.653313
-11.552449
-11.444688
-11.33009
-11.208724
-11.08066
-10.945973
-10.804741
-10.657046
-10.502976
-10.342618
-10.176069
-10.003424
-9.8247841
-9.6402546
-9.449943
-9.2539606
-9.0524223
-8.8454459
-8.6331529
-8.4156676
-8.1931176
-7.9656334
-7.7333487
-7.4963999
-7.2549262
-7.0090697
-6.758975
-6.5047895
-6.2466628
-5.9847471
-5.7191971
-5.4501694
-5.177823
-4.9023189
-4.6238201
-4.3424916
-4.0584999
-3.7720136
-3.4832027
-3.1922386
-2.8992945
-2.6045446
-2.3081644
-2.0103305
-1.7112208
-1.4110137
-1.1098887
-0.80802596
-0.50560628
-0.20281089
0.1001785
0.40317991
0.70601118
1.00849
1.3104342
1.6116616
1.9119904
2.2112391
2.5092265
2.8057722
3.1006963
3.3938199
3.6849647
3.9739537
4.2606109
4.5447614
4.8262317
5.10485
5.3804456
5.6528499
5.9218958
6.1874181
6.4492536
6.7072413
6.9612223
7.21104
7.4565401
7.6975711
7.9339838
8.1656319
8.3923717
8.6140626
8.8305669
9.0417501
9.2474807
9.4476306
9.642075
9.8306925
10.013366
10.18998
10.360425
10.524593
10.682384
10.833696
10.978435
11.116511
11.247837
11.372329
11.489911
11.600507
11.704048
11.800469
11.889708
11.971711
12.046425
12.113802
12.173801
12.226383
12.271515
12.309169
12.339321
12.361951
12.377046
12.384596
12.457552
12.449956
12.43477
12.412003
12.38167
12.343789
12.298384
12.245485
12.185125
12.117341
12.042178
11.959681
11.869903
11.772902
11.668737
11.557476
11.439187
11.313945
11.18183
11.042924
10.897315
10.745094
10.586356
10.421202
10.249735
10.072062
9.8882937
9.6985461
9.5029374
9.3015896
9.0946282
8.8821824
8.6643842
8.4413691
8.2132757
7.9802455
7.742423
7.4999555
7.252993
7.0016881
6.746196
6.4866742
6.2232826
5.9561832
5.6855403
5.4115199
5.1342901
4.8540208
4.5708834
4.285051
3.9966981
3.7060005
3.4131352
3.1182806
2.8216156
2.5233206
2.2235762
1.9225641
1.6204665
1.3174658
1.0137451
0.70948749
0.40487626
0.10009475
-0.20467381
-0.50924639
-0.81344025
-1.1170731
-1.419963
-1.721929
-2.0227905
-2.3223678
-2.6204823
-2.9169563
-3.2116133
-3.504278
-3.7947764
-4.082936
-4.3685858
-4.6515565
-4.9316803
-5.2087915
-5.4827261
-5.7533222
-6.0204199
-6.2838616
-6.5434919
-6.7991578
-7.0507086
-7.2979962
-7.5408751
-7.7792026
-8.0128386
-8.2416457
-8.4654899
-8.6842396
-8.8977666
-9.1059459
-9.3086553
-9.5057763
-9.6971935
-9.8827948
-10.062472
-10.236119
-10.403636
-10.564924
-10.719889
-10.868441
-11.010493
-11.145962
-11.274769
-11.396839
-11.512101
-11.620488
-11.721936
-11.816387
-11.903785
-11.98408
-12.057225
-12.123178
-12.181899
-12.233355
-12.277516
-12.314356
-12.343853
-12.365992
-12.380758
-12.388143
-12.388143
-12.380758
-12.365992
-12.343853
-12.314356
-12.277516
-12.233355
-12.181899
-12.123178
-12.057225
-11.98408
-11.903785
-11.816387
-11.721936
-11.620488
-11.512101
-11.396839
-11.274769
-11.145962
-11.010493
-10.868441
-10.719889
-10.564924
-10.403636
-10.236119
-10.062472
-9.8827948
-9.6971935
-9.5057764
-9.3086554
-9.1059459
-8.8977667
-8.6842396
-8.4654899
-8.2416458
-8.0128386
-7.7792026
-7.5408752
-7.2979962
-7.0507086
-6.7991578
-6.5434919
-6.2838616
-6.0204199
-5.7533222
-5.4827261
-5.2087915
-4.9316803
-4.6515565
-4.3685858
-4.082936
-3.7947764
-3.504278
-3.2116133
-2.9169563
-2.6204823
-2.3223678
-2.0227904
-1.721929
-1.419963
-1.117073
-0.81344022
-0.50924636
-0.20467378
0.10009478
0.40487629
0.70948752
1.0137452
1.3174659
1.6204665
1.9225642
2.2235762
2.5233206
2.8216157
3.1182806
3.4131353
3.7060005
3.9966981
4.285051
4.5708834
4.8540208
5.1342901
5.4115199
5.6855402
5.9561832
6.2232826
6.4866742
6.746196
7.0016881
7.252993
7.4999555
7.742423
7.9802455
8.2132757