/*--------------------------------*- C++ -*----------------------------------*\
| =========                 |                                                 |
| \\      /  F ield         | OpenFOAM: The Open Source CFD Toolbox           |
|  \\    /   O peration     | Version:  2106                                  |
|   \\  /    A nd           | Website:  www.openfoam.com                      |
|    \\/     M anipulation  |                                                 |
\*---------------------------------------------------------------------------*/
FoamFile
{
    version     2.0;
    format      ascii;
    arch        "LSB;label=32;scalar=64";
    class       volVectorField;
    location    "0.008";
    object      U;
}
// * * * * * * * * * * * * * * * * * * * * * * * * * * * * * * * * * * * * * //

dimensions      [0 1 -1 0 0 0 0];

internalField   nonuniform List<vector> 
65536
(
(0.0030137363 -0.0030128242 0)
(0.0090392884 -0.0030109043 0)
(0.01505908 -0.003007066 0)
(0.021069276 -0.003001312 0)
(0.027066049 -0.0029936469 0)
(0.033045579 -0.0029840762 0)
(0.039004062 -0.0029726072 0)
(0.044937709 -0.0029592485 0)
(0.050842749 -0.0029440102 0)
(0.056715432 -0.0029269035 0)
(0.062552034 -0.0029079413 0)
(0.068348855 -0.0028871377 0)
(0.074102229 -0.0028645082 0)
(0.079808518 -0.0028400697 0)
(0.085464122 -0.0028138403 0)
(0.091065476 -0.0027858394 0)
(0.096609058 -0.0027560877 0)
(0.10209139 -0.0027246072 0)
(0.10750902 -0.0026914209 0)
(0.11285859 -0.0026565533 0)
(0.11813673 -0.0026200299 0)
(0.12334018 -0.0025818772 0)
(0.12846569 -0.0025421231 0)
(0.13351009 -0.0025007964 0)
(0.13847027 -0.0024579268 0)
(0.14334316 -0.0024135454 0)
(0.14812578 -0.0023676839 0)
(0.15281521 -0.0023203751 0)
(0.15740856 -0.0022716528 0)
(0.16190307 -0.0022215515 0)
(0.16629599 -0.0021701066 0)
(0.17058468 -0.0021173543 0)
(0.17476656 -0.0020633317 0)
(0.17883912 -0.0020080764 0)
(0.18279994 -0.0019516268 0)
(0.18664668 -0.0018940221 0)
(0.19037705 -0.0018353017 0)
(0.19398886 -0.0017755061 0)
(0.19748001 -0.001714676 0)
(0.20084847 -0.0016528528 0)
(0.20409229 -0.0015900781 0)
(0.20720961 -0.0015263943 0)
(0.21019866 -0.001461844 0)
(0.21305774 -0.00139647 0)
(0.21578525 -0.0013303158 0)
(0.21837967 -0.0012634249 0)
(0.22083958 -0.0011958412 0)
(0.22316363 -0.0011276087 0)
(0.22535057 -0.0010587717 0)
(0.22739924 -0.00098937465 0)
(0.22930855 -0.00091946207 0)
(0.23107752 -0.0008490786 0)
(0.23270526 -0.00077826893 0)
(0.23419095 -0.00070707777 0)
(0.23553388 -0.00063554985 0)
(0.23673342 -0.00056372984 0)
(0.23778903 -0.00049166237 0)
(0.23870027 -0.00041939199 0)
(0.23946676 -0.0003469631 0)
(0.24008823 -0.00027441998 0)
(0.24056451 -0.00020180671 0)
(0.24089549 -0.00012916718 0)
(0.24108117 -5.6545016e-05 0)
(0.24112162 1.6018245e-05 0)
(0.24101704 8.8466525e-05 0)
(0.24076762 0.00016078077 0)
(0.24037374 0.00023290219 0)
(0.23983581 0.0003047905 0)
(0.23915434 0.00037640492 0)
(0.23832992 0.00044770407 0)
(0.23736321 0.0005186468 0)
(0.23625498 0.00058919237 0)
(0.23500605 0.00065930047 0)
(0.23361735 0.00072893126 0)
(0.23208987 0.00079804534 0)
(0.23042468 0.00086660379 0)
(0.22862292 0.00093456818 0)
(0.22668584 0.0010019006 0)
(0.22461472 0.0010685636 0)
(0.22241095 0.0011345205 0)
(0.22007597 0.0011997348 0)
(0.21761131 0.0012641708 0)
(0.21501856 0.0013277934 0)
(0.21229937 0.0013905679 0)
(0.20945549 0.0014524604 0)
(0.20648871 0.0015134375 0)
(0.20340089 0.0015734665 0)
(0.20019396 0.0016325152 0)
(0.19686991 0.0016905521 0)
(0.19343081 0.0017475463 0)
(0.18987876 0.0018034678 0)
(0.18621594 0.001858287 0)
(0.18244458 0.001911975 0)
(0.17856699 0.0019645037 0)
(0.17458549 0.0020158456 0)
(0.17050251 0.002065974 0)
(0.16632047 0.0021148629 0)
(0.16204191 0.0021624868 0)
(0.15766936 0.0022088211 0)
(0.15320543 0.0022538421 0)
(0.14865278 0.0022975264 0)
(0.14401409 0.0023398517 0)
(0.13929212 0.0023807964 0)
(0.13448963 0.0024203394 0)
(0.12960947 0.0024584607 0)
(0.12465448 0.0024951409 0)
(0.11962758 0.0025303612 0)
(0.11453169 0.002564104 0)
(0.1093698 0.002596352 0)
(0.10414491 0.0026270891 0)
(0.098860055 0.0026562996 0)
(0.093518308 0.0026839689 0)
(0.088122764 0.0027100831 0)
(0.082676548 0.002734629 0)
(0.077182809 0.0027575943 0)
(0.071644721 0.0027789676 0)
(0.066065479 0.0027987381 0)
(0.0604483 0.0028168959 0)
(0.054796419 0.0028334319 0)
(0.049113088 0.0028483379 0)
(0.043401576 0.0028616065 0)
(0.037665164 0.002873231 0)
(0.031907148 0.0028832056 0)
(0.026130834 0.0028915254 0)
(0.020339535 0.0028981862 0)
(0.014536575 0.0029031847 0)
(0.0087252796 0.0029065184 0)
(0.0029089824 0.0029081857 0)
(-0.0029089824 0.0029081857 0)
(-0.0087252796 0.0029065184 0)
(-0.014536575 0.0029031847 0)
(-0.020339535 0.0028981862 0)
(-0.026130834 0.0028915254 0)
(-0.031907148 0.0028832056 0)
(-0.037665164 0.002873231 0)
(-0.043401576 0.0028616065 0)
(-0.049113088 0.0028483379 0)
(-0.054796419 0.0028334319 0)
(-0.0604483 0.0028168959 0)
(-0.066065479 0.0027987381 0)
(-0.071644721 0.0027789676 0)
(-0.077182809 0.0027575943 0)
(-0.082676548 0.002734629 0)
(-0.088122764 0.0027100831 0)
(-0.093518308 0.0026839689 0)
(-0.098860055 0.0026562996 0)
(-0.10414491 0.0026270891 0)
(-0.1093698 0.002596352 0)
(-0.11453169 0.002564104 0)
(-0.11962758 0.0025303612 0)
(-0.12465448 0.0024951409 0)
(-0.12960947 0.0024584607 0)
(-0.13448963 0.0024203394 0)
(-0.13929212 0.0023807964 0)
(-0.14401409 0.0023398517 0)
(-0.14865278 0.0022975264 0)
(-0.15320543 0.0022538421 0)
(-0.15766936 0.0022088211 0)
(-0.16204191 0.0021624868 0)
(-0.16632047 0.0021148629 0)
(-0.17050251 0.002065974 0)
(-0.17458549 0.0020158456 0)
(-0.17856699 0.0019645037 0)
(-0.18244458 0.001911975 0)
(-0.18621594 0.001858287 0)
(-0.18987876 0.0018034678 0)
(-0.19343081 0.0017475463 0)
(-0.19686991 0.0016905521 0)
(-0.20019396 0.0016325152 0)
(-0.20340089 0.0015734665 0)
(-0.20648871 0.0015134375 0)
(-0.20945549 0.0014524604 0)
(-0.21229937 0.0013905679 0)
(-0.21501856 0.0013277934 0)
(-0.21761131 0.0012641708 0)
(-0.22007597 0.0011997348 0)
(-0.22241095 0.0011345205 0)
(-0.22461472 0.0010685636 0)
(-0.22668584 0.0010019006 0)
(-0.22862292 0.00093456818 0)
(-0.23042468 0.00086660379 0)
(-0.23208987 0.00079804534 0)
(-0.23361735 0.00072893126 0)
(-0.23500605 0.00065930047 0)
(-0.23625498 0.00058919236 0)
(-0.23736321 0.0005186468 0)
(-0.23832992 0.00044770407 0)
(-0.23915434 0.00037640492 0)
(-0.23983581 0.0003047905 0)
(-0.24037374 0.00023290218 0)
(-0.24076762 0.00016078077 0)
(-0.24101704 8.8466522e-05 0)
(-0.24112162 1.6018243e-05 0)
(-0.24108117 -5.6545019e-05 0)
(-0.24089549 -0.00012916718 0)
(-0.24056451 -0.00020180671 0)
(-0.24008823 -0.00027441998 0)
(-0.23946676 -0.0003469631 0)
(-0.23870027 -0.00041939199 0)
(-0.23778903 -0.00049166237 0)
(-0.23673342 -0.00056372984 0)
(-0.23553388 -0.00063554984 0)
(-0.23419095 -0.00070707777 0)
(-0.23270526 -0.00077826893 0)
(-0.23107752 -0.0008490786 0)
(-0.22930855 -0.00091946207 0)
(-0.22739924 -0.00098937465 0)
(-0.22535057 -0.0010587717 0)
(-0.22316363 -0.0011276087 0)
(-0.22083958 -0.0011958412 0)
(-0.21837967 -0.0012634249 0)
(-0.21578525 -0.0013303158 0)
(-0.21305774 -0.00139647 0)
(-0.21019866 -0.001461844 0)
(-0.20720961 -0.0015263943 0)
(-0.20409229 -0.0015900781 0)
(-0.20084847 -0.0016528528 0)
(-0.19748001 -0.001714676 0)
(-0.19398886 -0.0017755061 0)
(-0.19037705 -0.0018353017 0)
(-0.18664668 -0.0018940221 0)
(-0.18279994 -0.0019516268 0)
(-0.17883912 -0.0020080764 0)
(-0.17476656 -0.0020633317 0)
(-0.17058468 -0.0021173543 0)
(-0.16629599 -0.0021701066 0)
(-0.16190307 -0.0022215515 0)
(-0.15740856 -0.0022716528 0)
(-0.15281521 -0.0023203751 0)
(-0.14812578 -0.0023676839 0)
(-0.14334316 -0.0024135454 0)
(-0.13847027 -0.0024579268 0)
(-0.13351009 -0.0025007964 0)
(-0.12846569 -0.0025421231 0)
(-0.12334018 -0.0025818772 0)
(-0.11813673 -0.0026200299 0)
(-0.11285859 -0.0026565533 0)
(-0.10750902 -0.0026914209 0)
(-0.10209139 -0.0027246072 0)
(-0.096609058 -0.0027560877 0)
(-0.091065476 -0.0027858394 0)
(-0.085464122 -0.0028138403 0)
(-0.079808518 -0.0028400697 0)
(-0.074102229 -0.0028645082 0)
(-0.068348855 -0.0028871377 0)
(-0.062552034 -0.0029079413 0)
(-0.056715432 -0.0029269035 0)
(-0.050842749 -0.0029440102 0)
(-0.044937709 -0.0029592485 0)
(-0.039004062 -0.0029726072 0)
(-0.033045579 -0.0029840762 0)
(-0.027066049 -0.0029936469 0)
(-0.021069276 -0.003001312 0)
(-0.01505908 -0.003007066 0)
(-0.0090392884 -0.0030109043 0)
(-0.0030137363 -0.0030128242 0)
(0.0030165616 -0.0090406643 0)
(0.0090477622 -0.009034903 0)
(0.015073196 -0.0090233846 0)
(0.021089024 -0.009006118 0)
(0.027091413 -0.008983116 0)
(0.033076542 -0.0089543959 0)
(0.0390406 -0.0089199793 0)
(0.044979795 -0.008879892 0)
(0.050890352 -0.008834164 0)
(0.056768517 -0.0087828295 0)
(0.062610562 -0.0087259269 0)
(0.068412783 -0.0086634987 0)
(0.074171509 -0.0085955914 0)
(0.0798831 -0.0085222554 0)
(0.08554395 -0.0084435452 0)
(0.091150493 -0.0083595192 0)
(0.0966992 -0.0082702394 0)
(0.10218659 -0.0081757716 0)
(0.10760922 -0.0080761854 0)
(0.1129637 -0.0079715537 0)
(0.11824669 -0.0078619533 0)
(0.1234549 -0.007747464 0)
(0.12858509 -0.007628169 0)
(0.13363408 -0.007504155 0)
(0.13859877 -0.0073755114 0)
(0.14347608 -0.0072423311 0)
(0.14826302 -0.0071047095 0)
(0.15295667 -0.0069627451 0)
(0.15755415 -0.006816539 0)
(0.16205267 -0.0066661949 0)
(0.16644951 -0.0065118192 0)
(0.17074201 -0.0063535206 0)
(0.17492759 -0.0061914099 0)
(0.17900375 -0.0060256005 0)
(0.18296805 -0.0058562075 0)
(0.18681814 -0.0056833481 0)
(0.19055175 -0.0055071414 0)
(0.19416669 -0.0053277083 0)
(0.19766085 -0.0051451711 0)
(0.20103219 -0.0049596538 0)
(0.20427877 -0.0047712819 0)
(0.20739872 -0.004580182 0)
(0.21039028 -0.004386482 0)
(0.21325175 -0.0041903109 0)
(0.21598151 -0.0039917986 0)
(0.21857807 -0.0037910759 0)
(0.22103997 -0.0035882745 0)
(0.22336589 -0.0033835265 0)
(0.22555457 -0.0031769649 0)
(0.22760484 -0.002968723 0)
(0.22951563 -0.0027589343 0)
(0.23128594 -0.0025477328 0)
(0.23291489 -0.0023352527 0)
(0.23440167 -0.0021216281 0)
(0.23574555 -0.0019069932 0)
(0.23694591 -0.0016914822 0)
(0.23800221 -0.0014752288 0)
(0.23891399 -0.0012583668 0)
(0.23968091 -0.0010410294 0)
(0.24030268 -0.00082334952 0)
(0.24077912 -0.0006054595 0)
(0.24111013 -0.00038749119 0)
(0.24129572 -0.00016957625 0)
(0.24133595 4.8153692e-05 0)
(0.241231 0.00026557224 0)
(0.24098112 0.00048255364 0)
(0.24058663 0.0006989637 0)
(0.24004798 0.00091467673 0)
(0.23936566 0.0011295679 0)
(0.23854026 0.0013435128 0)
(0.23757246 0.0015563879 0)
(0.23646301 0.0017680711 0)
(0.23521275 0.0019784414 0)
(0.2338226 0.0021873792 0)
(0.23229355 0.0023947663 0)
(0.23062667 0.002600486 0)
(0.22882312 0.002804423 0)
(0.22688413 0.0030064634 0)
(0.22481099 0.0032064952 0)
(0.22260509 0.0034044076 0)
(0.22026788 0.0036000919 0)
(0.21780088 0.0037934406 0)
(0.21520568 0.0039843484 0)
(0.21248395 0.0041727113 0)
(0.20963742 0.0043584275 0)
(0.20666789 0.0045413968 0)
(0.20357723 0.0047215209 0)
(0.20036736 0.0048987034 0)
(0.19704028 0.0050728499 0)
(0.19359806 0.0052438677 0)
(0.1900428 0.0054116664 0)
(0.18637668 0.0055761573 0)
(0.18260194 0.0057372541 0)
(0.17872088 0.0058948721 0)
(0.17473584 0.006048929 0)
(0.17064923 0.0061993445 0)
(0.16646349 0.0063460404 0)
(0.16218115 0.0064889408 0)
(0.15780475 0.0066279716 0)
(0.1533369 0.0067630613 0)
(0.14878026 0.0068941404 0)
(0.14413752 0.0070211416 0)
(0.13941143 0.0071439999 0)
(0.13460476 0.0072626525 0)
(0.12972036 0.007377039 0)
(0.12476108 0.0074871012 0)
(0.11972982 0.0075927831 0)
(0.11462953 0.0076940312 0)
(0.10946319 0.0077907943 0)
(0.1042338 0.0078830235 0)
(0.098944398 0.0079706722 0)
(0.093598062 0.0080536964 0)
(0.088197889 0.0081320542 0)
(0.082747005 0.0082057063 0)
(0.077248563 0.0082746158 0)
(0.071705739 0.008338748 0)
(0.066121729 0.008398071 0)
(0.060499754 0.0084525549 0)
(0.054843051 0.0085021727 0)
(0.049154875 0.0085468994 0)
(0.043438496 0.0085867128 0)
(0.0376972 0.008621593 0)
(0.031934283 0.0086515227 0)
(0.026153054 0.0086764869 0)
(0.020356829 0.0086964732 0)
(0.014548933 0.0087114716 0)
(0.0087326973 0.0087214747 0)
(0.0029114554 0.0087264775 0)
(-0.0029114554 0.0087264775 0)
(-0.0087326973 0.0087214747 0)
(-0.014548933 0.0087114716 0)
(-0.020356829 0.0086964732 0)
(-0.026153054 0.0086764869 0)
(-0.031934283 0.0086515227 0)
(-0.0376972 0.008621593 0)
(-0.043438496 0.0085867128 0)
(-0.049154875 0.0085468994 0)
(-0.054843051 0.0085021727 0)
(-0.060499754 0.0084525549 0)
(-0.066121729 0.008398071 0)
(-0.071705739 0.008338748 0)
(-0.077248563 0.0082746158 0)
(-0.082747005 0.0082057063 0)
(-0.088197889 0.0081320542 0)
(-0.093598062 0.0080536964 0)
(-0.098944398 0.0079706722 0)
(-0.1042338 0.0078830235 0)
(-0.10946319 0.0077907943 0)
(-0.11462953 0.0076940312 0)
(-0.11972982 0.0075927831 0)
(-0.12476108 0.0074871012 0)
(-0.12972036 0.007377039 0)
(-0.13460476 0.0072626525 0)
(-0.13941143 0.0071439999 0)
(-0.14413752 0.0070211416 0)
(-0.14878026 0.0068941404 0)
(-0.1533369 0.0067630613 0)
(-0.15780475 0.0066279716 0)
(-0.16218115 0.0064889408 0)
(-0.16646349 0.0063460404 0)
(-0.17064923 0.0061993445 0)
(-0.17473584 0.006048929 0)
(-0.17872088 0.0058948721 0)
(-0.18260194 0.0057372541 0)
(-0.18637668 0.0055761573 0)
(-0.1900428 0.0054116664 0)
(-0.19359806 0.0052438677 0)
(-0.19704028 0.0050728499 0)
(-0.20036736 0.0048987034 0)
(-0.20357723 0.0047215209 0)
(-0.20666789 0.0045413968 0)
(-0.20963742 0.0043584275 0)
(-0.21248395 0.0041727113 0)
(-0.21520568 0.0039843484 0)
(-0.21780088 0.0037934406 0)
(-0.22026788 0.0036000919 0)
(-0.22260509 0.0034044076 0)
(-0.22481099 0.0032064952 0)
(-0.22688413 0.0030064634 0)
(-0.22882312 0.0028044229 0)
(-0.23062667 0.002600486 0)
(-0.23229355 0.0023947663 0)
(-0.2338226 0.0021873792 0)
(-0.23521275 0.0019784414 0)
(-0.23646301 0.0017680711 0)
(-0.23757246 0.0015563879 0)
(-0.23854026 0.0013435128 0)
(-0.23936566 0.0011295679 0)
(-0.24004798 0.00091467673 0)
(-0.24058663 0.00069896369 0)
(-0.24098112 0.00048255364 0)
(-0.241231 0.00026557223 0)
(-0.24133595 4.8153691e-05 0)
(-0.24129572 -0.00016957625 0)
(-0.24111013 -0.00038749119 0)
(-0.24077912 -0.0006054595 0)
(-0.24030268 -0.00082334952 0)
(-0.23968091 -0.0010410294 0)
(-0.23891399 -0.0012583668 0)
(-0.23800221 -0.0014752288 0)
(-0.23694591 -0.0016914822 0)
(-0.23574555 -0.0019069932 0)
(-0.23440167 -0.0021216281 0)
(-0.23291489 -0.0023352527 0)
(-0.23128594 -0.0025477328 0)
(-0.22951563 -0.0027589343 0)
(-0.22760484 -0.002968723 0)
(-0.22555457 -0.0031769649 0)
(-0.22336589 -0.0033835265 0)
(-0.22103997 -0.0035882745 0)
(-0.21857807 -0.0037910759 0)
(-0.21598151 -0.0039917986 0)
(-0.21325175 -0.0041903109 0)
(-0.21039028 -0.004386482 0)
(-0.20739872 -0.004580182 0)
(-0.20427877 -0.0047712819 0)
(-0.20103219 -0.0049596538 0)
(-0.19766085 -0.0051451711 0)
(-0.19416669 -0.0053277083 0)
(-0.19055175 -0.0055071414 0)
(-0.18681814 -0.0056833481 0)
(-0.18296805 -0.0058562075 0)
(-0.17900375 -0.0060256005 0)
(-0.17492759 -0.0061914099 0)
(-0.17074201 -0.0063535206 0)
(-0.16644951 -0.0065118192 0)
(-0.16205267 -0.0066661949 0)
(-0.15755415 -0.006816539 0)
(-0.15295667 -0.0069627451 0)
(-0.14826302 -0.0071047095 0)
(-0.14347608 -0.0072423311 0)
(-0.13859877 -0.0073755115 0)
(-0.13363408 -0.007504155 0)
(-0.12858509 -0.007628169 0)
(-0.1234549 -0.007747464 0)
(-0.11824669 -0.0078619533 0)
(-0.1129637 -0.0079715537 0)
(-0.10760922 -0.0080761854 0)
(-0.10218659 -0.0081757716 0)
(-0.0966992 -0.0082702394 0)
(-0.091150493 -0.0083595192 0)
(-0.08554395 -0.0084435452 0)
(-0.0798831 -0.0085222554 0)
(-0.074171509 -0.0085955914 0)
(-0.068412783 -0.0086634987 0)
(-0.062610562 -0.0087259269 0)
(-0.056768517 -0.0087828295 0)
(-0.050890352 -0.008834164 0)
(-0.044979795 -0.008879892 0)
(-0.0390406 -0.0089199793 0)
(-0.033076542 -0.0089543959 0)
(-0.027091413 -0.008983116 0)
(-0.021089024 -0.009006118 0)
(-0.015073196 -0.0090233846 0)
(-0.0090477622 -0.009034903 0)
(-0.0030165616 -0.0090406643 0)
(0.0030212614 -0.015076609 0)
(0.0090618581 -0.015067 0)
(0.015096678 -0.01504779 0)
(0.021121874 -0.015018993 0)
(0.027133607 -0.01498063 0)
(0.033128048 -0.01493273 0)
(0.039101381 -0.01487533 0)
(0.045049806 -0.014808473 0)
(0.05096954 -0.014732207 0)
(0.056856825 -0.014646592 0)
(0.062707923 -0.01455169 0)
(0.068519127 -0.014447572 0)
(0.074286758 -0.014334317 0)
(0.080007169 -0.014212008 0)
(0.085676748 -0.014080736 0)
(0.091291923 -0.013940598 0)
(0.09684916 -0.013791699 0)
(0.10234497 -0.013634147 0)
(0.1077759 -0.013468059 0)
(0.11313857 -0.013293557 0)
(0.11842962 -0.013110768 0)
(0.12364575 -0.012919826 0)
(0.12878373 -0.01272087 0)
(0.13384037 -0.012514044 0)
(0.13881256 -0.012299498 0)
(0.14369722 -0.012077385 0)
(0.14849135 -0.011847866 0)
(0.15319203 -0.011611105 0)
(0.15779638 -0.01136727 0)
(0.16230159 -0.011116535 0)
(0.16670495 -0.010859077 0)
(0.17100379 -0.010595077 0)
(0.17519554 -0.01032472 0)
(0.17927767 -0.010048196 0)
(0.18324776 -0.0097656954 0)
(0.18710345 -0.009477415 0)
(0.19084246 -0.009183553 0)
(0.19446261 -0.0088843109 0)
(0.19796177 -0.0085798931 0)
(0.20133791 -0.0082705063 0)
(0.20458909 -0.0079563596 0)
(0.20771344 -0.0076376644 0)
(0.21070918 -0.0073146339 0)
(0.21357461 -0.0069874833 0)
(0.21630814 -0.0066564293 0)
(0.21890824 -0.0063216901 0)
(0.22137348 -0.0059834853 0)
(0.22370251 -0.0056420353 0)
(0.22589409 -0.0052975617 0)
(0.22794704 -0.0049502868 0)
(0.22986029 -0.0046004336 0)
(0.23163285 -0.0042482254 0)
(0.23326383 -0.0038938858 0)
(0.23475241 -0.0035376388 0)
(0.23609788 -0.0031797079 0)
(0.2372996 -0.002820317 0)
(0.23835705 -0.0024596892 0)
(0.23926977 -0.0020980474 0)
(0.24003739 -0.001735614 0)
(0.24065966 -0.0013726105 0)
(0.24113638 -0.0010092576 0)
(0.24146746 -0.00064577525 0)
(0.24165289 -0.00028238233 0)
(0.24169276 8.0703255e-05 0)
(0.24158723 0.00044326719 0)
(0.24133656 0.00080509676 0)
(0.24094108 0.0011659754 0)
(0.24040122 0.0015256918 0)
(0.23971749 0.0018840367 0)
(0.23889047 0.0022408026 0)
(0.23792086 0.0025957837 0)
(0.23680939 0.0029487762 0)
(0.23555692 0.0032995786 0)
(0.23416435 0.0036479914 0)
(0.2326327 0.0039938177 0)
(0.23096302 0.0043368626 0)
(0.22915649 0.0046769341 0)
(0.22721432 0.0050138423 0)
(0.22513783 0.0053474002 0)
(0.22292839 0.0056774236 0)
(0.22058747 0.0060037306 0)
(0.21811657 0.0063261426 0)
(0.21551731 0.0066444835 0)
(0.21279134 0.0069585804 0)
(0.20994041 0.0072682632 0)
(0.20696631 0.007573365 0)
(0.20387092 0.007873722 0)
(0.20065616 0.0081691733 0)
(0.19732404 0.0084595616 0)
(0.19387662 0.0087447324 0)
(0.19031602 0.0090245349 0)
(0.18664441 0.0092988215 0)
(0.18286405 0.0095674478 0)
(0.17897722 0.0098302731 0)
(0.17498627 0.01008716 0)
(0.17089362 0.010337974 0)
(0.16670172 0.010582586 0)
(0.16241309 0.010820869 0)
(0.15803028 0.011052699 0)
(0.1535559 0.011277957 0)
(0.14899262 0.011496527 0)
(0.14434313 0.011708298 0)
(0.13961017 0.01191316 0)
(0.13479655 0.012111009 0)
(0.12990509 0.012301744 0)
(0.12493865 0.012485268 0)
(0.11990015 0.012661489 0)
(0.11479253 0.012830316 0)
(0.10961877 0.012991664 0)
(0.10438188 0.013145452 0)
(0.099084907 0.013291602 0)
(0.093730927 0.013430041 0)
(0.088323043 0.013560699 0)
(0.082864384 0.013683511 0)
(0.077358108 0.013798414 0)
(0.071807393 0.013905352 0)
(0.066215442 0.01400427 0)
(0.060585477 0.014095119 0)
(0.054920741 0.014177854 0)
(0.049224493 0.014252433 0)
(0.043500007 0.01431882 0)
(0.037750572 0.014376981 0)
(0.03197949 0.014426887 0)
(0.026190072 0.014468514 0)
(0.02038564 0.01450184 0)
(0.014569523 0.014526849 0)
(0.0087450555 0.014543529 0)
(0.0029155755 0.014551871 0)
(-0.0029155755 0.014551871 0)
(-0.0087450555 0.014543529 0)
(-0.014569523 0.014526849 0)
(-0.02038564 0.01450184 0)
(-0.026190072 0.014468514 0)
(-0.03197949 0.014426887 0)
(-0.037750572 0.014376981 0)
(-0.043500007 0.01431882 0)
(-0.049224493 0.014252433 0)
(-0.054920741 0.014177854 0)
(-0.060585477 0.014095119 0)
(-0.066215442 0.01400427 0)
(-0.071807393 0.013905352 0)
(-0.077358108 0.013798414 0)
(-0.082864384 0.013683511 0)
(-0.088323043 0.013560699 0)
(-0.093730927 0.013430041 0)
(-0.099084907 0.013291602 0)
(-0.10438188 0.013145452 0)
(-0.10961877 0.012991664 0)
(-0.11479253 0.012830316 0)
(-0.11990015 0.012661489 0)
(-0.12493865 0.012485268 0)
(-0.12990509 0.012301744 0)
(-0.13479655 0.012111009 0)
(-0.13961017 0.01191316 0)
(-0.14434313 0.011708298 0)
(-0.14899262 0.011496527 0)
(-0.1535559 0.011277957 0)
(-0.15803028 0.011052699 0)
(-0.16241309 0.010820869 0)
(-0.16670172 0.010582586 0)
(-0.17089362 0.010337974 0)
(-0.17498627 0.01008716 0)
(-0.17897722 0.0098302731 0)
(-0.18286405 0.0095674478 0)
(-0.18664441 0.0092988215 0)
(-0.19031602 0.0090245349 0)
(-0.19387662 0.0087447324 0)
(-0.19732404 0.0084595616 0)
(-0.20065616 0.0081691733 0)
(-0.20387092 0.007873722 0)
(-0.20696631 0.007573365 0)
(-0.20994041 0.0072682632 0)
(-0.21279134 0.0069585804 0)
(-0.21551731 0.0066444835 0)
(-0.21811657 0.0063261426 0)
(-0.22058747 0.0060037306 0)
(-0.22292839 0.0056774236 0)
(-0.22513783 0.0053474002 0)
(-0.22721432 0.0050138423 0)
(-0.22915649 0.004676934 0)
(-0.23096302 0.0043368626 0)
(-0.2326327 0.0039938177 0)
(-0.23416435 0.0036479914 0)
(-0.23555692 0.0032995786 0)
(-0.23680939 0.0029487762 0)
(-0.23792086 0.0025957837 0)
(-0.23889047 0.0022408026 0)
(-0.23971749 0.0018840367 0)
(-0.24040122 0.0015256918 0)
(-0.24094108 0.0011659754 0)
(-0.24133656 0.00080509676 0)
(-0.24158723 0.00044326719 0)
(-0.24169276 8.0703254e-05 0)
(-0.24165289 -0.00028238233 0)
(-0.24146746 -0.00064577525 0)
(-0.24113638 -0.0010092576 0)
(-0.24065966 -0.0013726105 0)
(-0.24003739 -0.001735614 0)
(-0.23926977 -0.0020980474 0)
(-0.23835705 -0.0024596892 0)
(-0.2372996 -0.002820317 0)
(-0.23609788 -0.0031797079 0)
(-0.23475241 -0.0035376388 0)
(-0.23326383 -0.0038938858 0)
(-0.23163285 -0.0042482254 0)
(-0.22986029 -0.0046004336 0)
(-0.22794704 -0.0049502868 0)
(-0.22589409 -0.0052975617 0)
(-0.22370251 -0.0056420353 0)
(-0.22137348 -0.0059834853 0)
(-0.21890824 -0.0063216901 0)
(-0.21630814 -0.0066564293 0)
(-0.21357461 -0.0069874833 0)
(-0.21070918 -0.0073146339 0)
(-0.20771344 -0.0076376644 0)
(-0.20458909 -0.0079563596 0)
(-0.20133791 -0.0082705063 0)
(-0.19796177 -0.0085798931 0)
(-0.19446261 -0.0088843109 0)
(-0.19084246 -0.009183553 0)
(-0.18710345 -0.009477415 0)
(-0.18324776 -0.0097656954 0)
(-0.17927767 -0.010048196 0)
(-0.17519554 -0.01032472 0)
(-0.17100379 -0.010595077 0)
(-0.16670495 -0.010859077 0)
(-0.16230159 -0.011116535 0)
(-0.15779638 -0.01136727 0)
(-0.15319203 -0.011611105 0)
(-0.14849135 -0.011847866 0)
(-0.14369722 -0.012077385 0)
(-0.13881256 -0.012299498 0)
(-0.13384037 -0.012514044 0)
(-0.12878373 -0.01272087 0)
(-0.12364575 -0.012919826 0)
(-0.11842962 -0.013110768 0)
(-0.11313857 -0.013293557 0)
(-0.1077759 -0.013468059 0)
(-0.10234497 -0.013634147 0)
(-0.09684916 -0.013791699 0)
(-0.091291923 -0.013940598 0)
(-0.085676748 -0.014080736 0)
(-0.080007169 -0.014212008 0)
(-0.074286758 -0.014334317 0)
(-0.068519127 -0.014447572 0)
(-0.062707923 -0.01455169 0)
(-0.056856825 -0.014646592 0)
(-0.05096954 -0.014732207 0)
(-0.045049806 -0.014808473 0)
(-0.039101381 -0.01487533 0)
(-0.033128048 -0.01493273 0)
(-0.027133607 -0.01498063 0)
(-0.021121874 -0.015018993 0)
(-0.015096678 -0.01504779 0)
(-0.0090618581 -0.015067 0)
(-0.0030212614 -0.015076609 0)
(0.0030278469 -0.021123841 0)
(0.0090816096 -0.021110376 0)
(0.015129581 -0.021083457 0)
(0.021167904 -0.021043104 0)
(0.02719273 -0.020989347 0)
(0.03320022 -0.020922227 0)
(0.039186549 -0.020841793 0)
(0.045147907 -0.020748107 0)
(0.051080502 -0.020641239 0)
(0.056980565 -0.020521268 0)
(0.062844351 -0.020388284 0)
(0.068668142 -0.020242388 0)
(0.07444825 -0.020083687 0)
(0.080181021 -0.019912299 0)
(0.085862832 -0.019728353 0)
(0.091490104 -0.019531983 0)
(0.097059293 -0.019323337 0)
(0.1025669 -0.019102567 0)
(0.10800947 -0.018869836 0)
(0.11338361 -0.018625315 0)
(0.11868595 -0.018369183 0)
(0.12391319 -0.018101627 0)
(0.12906209 -0.017822842 0)
(0.13412945 -0.01753303 0)
(0.13911214 -0.017232401 0)
(0.1440071 -0.016921171 0)
(0.14881132 -0.016599563 0)
(0.15352184 -0.016267809 0)
(0.15813581 -0.015926145 0)
(0.16265041 -0.015574812 0)
(0.16706291 -0.015214061 0)
(0.17137064 -0.014844143 0)
(0.17557102 -0.014465321 0)
(0.17966153 -0.014077857 0)
(0.18363973 -0.013682021 0)
(0.18750327 -0.013278088 0)
(0.19124986 -0.012866335 0)
(0.1948773 -0.012447046 0)
(0.19838348 -0.012020506 0)
(0.20176635 -0.011587005 0)
(0.20502398 -0.011146837 0)
(0.20815448 -0.010700296 0)
(0.21115609 -0.010247684 0)
(0.21402709 -0.0097893 0)
(0.21676589 -0.0093254487 0)
(0.21937097 -0.0088564358 0)
(0.22184088 -0.0083825688 0)
(0.22417428 -0.0079041569 0)
(0.22636992 -0.0074215104 0)
(0.22842664 -0.0069349409 0)
(0.23034334 -0.0064447607 0)
(0.23211905 -0.0059512829 0)
(0.23375287 -0.0054548208 0)
(0.23524398 -0.004955688 0)
(0.23659168 -0.004454198 0)
(0.23779533 -0.0039506641 0)
(0.23885439 -0.0034453993 0)
(0.23976841 -0.0029387158 0)
(0.24053704 -0.0024309251 0)
(0.24116 -0.0019223375 0)
(0.24163712 -0.0014132623 0)
(0.24196829 -0.0009040075 0)
(0.24215352 -0.00039487947 0)
(0.24219288 0.00011381713 0)
(0.24208655 0.0006217805 0)
(0.24183477 0.0011287108 0)
(0.2414379 0.0016343081 0)
(0.24089636 0.0021382759 0)
(0.24021065 0.0026403208 0)
(0.23938138 0.0031401518 0)
(0.23840922 0.0036374806 0)
(0.23729493 0.0041320218 0)
(0.23603936 0.0046234932 0)
(0.23464342 0.0051116152 0)
(0.23310811 0.005596112 0)
(0.23143452 0.0060767109 0)
(0.22962381 0.0065531424 0)
(0.2276772 0.0070251411 0)
(0.225596 0.0074924449 0)
(0.22338161 0.0079547954 0)
(0.22103548 0.0084119384 0)
(0.21855913 0.0088636234 0)
(0.21595417 0.0093096038 0)
(0.21322227 0.0097496375 0)
(0.21036516 0.010183486 0)
(0.20738466 0.010610916 0)
(0.20428264 0.011031698 0)
(0.20106104 0.011445607 0)
(0.19772186 0.011852421 0)
(0.19426715 0.012251926 0)
(0.19069906 0.012643909 0)
(0.18701976 0.013028163 0)
(0.18323151 0.013404488 0)
(0.17933659 0.013772685 0)
(0.17533737 0.014132562 0)
(0.17123626 0.014483932 0)
(0.16703572 0.014826612 0)
(0.16273827 0.015160424 0)
(0.15834647 0.015485197 0)
(0.15386295 0.015800762 0)
(0.14929035 0.016106958 0)
(0.1446314 0.016403628 0)
(0.13988883 0.016690619 0)
(0.13506545 0.016967785 0)
(0.13016409 0.017234986 0)
(0.12518762 0.017492084 0)
(0.12013896 0.01773895 0)
(0.11502106 0.017975459 0)
(0.1098369 0.01820149 0)
(0.1045895 0.018416931 0)
(0.099281914 0.018621671 0)
(0.093917218 0.018815609 0)
(0.088498522 0.018998646 0)
(0.083028963 0.019170691 0)
(0.077511702 0.019331657 0)
(0.071949924 0.019481464 0)
(0.066346838 0.019620037 0)
(0.060705672 0.019747306 0)
(0.055029673 0.019863208 0)
(0.049322107 0.019967685 0)
(0.043586253 0.020060685 0)
(0.037825407 0.020142162 0)
(0.032042876 0.020212074 0)
(0.026241977 0.020270388 0)
(0.020426038 0.020317074 0)
(0.014598394 0.020352109 0)
(0.0087623835 0.020375475 0)
(0.0029213525 0.020387161 0)
(-0.0029213525 0.020387161 0)
(-0.0087623835 0.020375475 0)
(-0.014598394 0.020352109 0)
(-0.020426038 0.020317074 0)
(-0.026241977 0.020270388 0)
(-0.032042876 0.020212074 0)
(-0.037825407 0.020142162 0)
(-0.043586253 0.020060685 0)
(-0.049322107 0.019967685 0)
(-0.055029673 0.019863208 0)
(-0.060705672 0.019747306 0)
(-0.066346838 0.019620037 0)
(-0.071949924 0.019481464 0)
(-0.077511702 0.019331657 0)
(-0.083028963 0.019170691 0)
(-0.088498522 0.018998646 0)
(-0.093917218 0.018815609 0)
(-0.099281914 0.018621671 0)
(-0.1045895 0.018416931 0)
(-0.1098369 0.01820149 0)
(-0.11502106 0.017975459 0)
(-0.12013896 0.01773895 0)
(-0.12518762 0.017492084 0)
(-0.13016409 0.017234986 0)
(-0.13506545 0.016967785 0)
(-0.13988883 0.016690619 0)
(-0.1446314 0.016403628 0)
(-0.14929035 0.016106958 0)
(-0.15386295 0.015800762 0)
(-0.15834647 0.015485197 0)
(-0.16273827 0.015160424 0)
(-0.16703572 0.014826612 0)
(-0.17123626 0.014483932 0)
(-0.17533737 0.014132562 0)
(-0.17933659 0.013772685 0)
(-0.18323151 0.013404488 0)
(-0.18701976 0.013028163 0)
(-0.19069906 0.012643909 0)
(-0.19426715 0.012251926 0)
(-0.19772186 0.011852421 0)
(-0.20106104 0.011445607 0)
(-0.20428264 0.011031698 0)
(-0.20738466 0.010610916 0)
(-0.21036516 0.010183486 0)
(-0.21322227 0.0097496375 0)
(-0.21595417 0.0093096038 0)
(-0.21855913 0.0088636234 0)
(-0.22103548 0.0084119384 0)
(-0.22338161 0.0079547954 0)
(-0.225596 0.0074924448 0)
(-0.2276772 0.0070251411 0)
(-0.22962381 0.0065531424 0)
(-0.23143452 0.0060767109 0)
(-0.23310811 0.005596112 0)
(-0.23464342 0.0051116152 0)
(-0.23603936 0.0046234932 0)
(-0.23729493 0.0041320218 0)
(-0.23840922 0.0036374806 0)
(-0.23938138 0.0031401518 0)
(-0.24021065 0.0026403208 0)
(-0.24089636 0.0021382759 0)
(-0.2414379 0.0016343081 0)
(-0.24183477 0.0011287108 0)
(-0.24208655 0.0006217805 0)
(-0.24219288 0.00011381713 0)
(-0.24215352 -0.00039487947 0)
(-0.24196829 -0.0009040075 0)
(-0.24163712 -0.0014132623 0)
(-0.24116 -0.0019223375 0)
(-0.24053704 -0.0024309251 0)
(-0.23976841 -0.0029387158 0)
(-0.23885439 -0.0034453993 0)
(-0.23779533 -0.0039506641 0)
(-0.23659168 -0.004454198 0)
(-0.23524398 -0.004955688 0)
(-0.23375287 -0.0054548208 0)
(-0.23211905 -0.0059512829 0)
(-0.23034334 -0.0064447607 0)
(-0.22842664 -0.0069349409 0)
(-0.22636992 -0.0074215104 0)
(-0.22417428 -0.0079041569 0)
(-0.22184088 -0.0083825688 0)
(-0.21937097 -0.0088564358 0)
(-0.21676589 -0.0093254487 0)
(-0.21402709 -0.0097893 0)
(-0.21115609 -0.010247684 0)
(-0.20815448 -0.010700296 0)
(-0.20502398 -0.011146837 0)
(-0.20176635 -0.011587005 0)
(-0.19838348 -0.012020506 0)
(-0.1948773 -0.012447046 0)
(-0.19124986 -0.012866335 0)
(-0.18750327 -0.013278088 0)
(-0.18363973 -0.013682021 0)
(-0.17966153 -0.014077857 0)
(-0.17557102 -0.014465321 0)
(-0.17137064 -0.014844143 0)
(-0.16706291 -0.015214061 0)
(-0.16265041 -0.015574812 0)
(-0.15813581 -0.015926145 0)
(-0.15352184 -0.016267809 0)
(-0.14881132 -0.016599563 0)
(-0.1440071 -0.016921171 0)
(-0.13911214 -0.017232401 0)
(-0.13412945 -0.01753303 0)
(-0.12906209 -0.017822842 0)
(-0.12391319 -0.018101627 0)
(-0.11868595 -0.018369183 0)
(-0.11338361 -0.018625315 0)
(-0.10800947 -0.018869836 0)
(-0.1025669 -0.019102567 0)
(-0.097059293 -0.019323337 0)