/*--------------------------------*- C++ -*----------------------------------*\
| =========                 |                                                 |
| \\      /  F ield         | OpenFOAM: The Open Source CFD Toolbox           |
|  \\    /   O peration     | Version:  2306                                  |
|   \\  /    A nd           | Website:  www.openfoam.com                      |
|    \\/     M anipulation  |                                                 |
\*---------------------------------------------------------------------------*/
FoamFile
{
    version     2.0;
    format      ascii;
    arch        "LSB;label=32;scalar=64";
    class       surfaceScalarField;
    location    "0.38";
    object      phi_0;
}
// * * * * * * * * * * * * * * * * * * * * * * * * * * * * * * * * * * * * * //

dimensions      [0 3 -1 0 0 0 0];

oriented        oriented;

internalField   nonuniform List<scalar> 
12640
(
-1.0519756e-05
-2.0056918e-05
-1.032904e-05
-1.9525776e-05
-1.0110215e-05
-1.9092451e-05
-9.8608008e-06
-1.8728831e-05
-9.5830484e-06
-1.8411136e-05
-9.2823666e-06
-1.8120532e-05
-8.965889e-06
-1.7843208e-05
-8.6412701e-06
-1.7570029e-05
-8.3157638e-06
-1.7295884e-05
-7.9955817e-06
-1.7018874e-05
-7.6855387e-06
-1.6739419e-05
-7.3889439e-06
-1.6459406e-05
-7.107679e-06
-1.6181443e-05
-6.8424038e-06
-1.5908277e-05
-6.5928387e-06
-1.5642369e-05
-6.3580617e-06
-1.538565e-05
-6.1367829e-06
-1.5139429e-05
-5.9275713e-06
-1.4904402e-05
-5.7290217e-06
-1.4680745e-05
-5.5398628e-06
-1.4468231e-05
-5.3590115e-06
-1.4266369e-05
-5.185586e-06
-1.4074525e-05
-5.018891e-06
-1.3892015e-05
-4.8583859e-06
-1.3718181e-05
-4.7036478e-06
-1.355243e-05
-4.554336e-06
-1.339425e-05
-4.4101614e-06
-1.3243214e-05
-4.2708646e-06
-1.3098972e-05
-4.1362013e-06
-1.2961232e-05
-4.0059341e-06
-1.2829748e-05
-3.8798296e-06
-1.2704306e-05
-3.7576583e-06
-1.258471e-05
-3.6391961e-06
-1.247078e-05
-3.5242267e-06
-1.2362343e-05
-3.412543e-06
-1.2259233e-05
-3.3039488e-06
-1.2161289e-05
-3.198259e-06
-1.2068358e-05
-3.0952999e-06
-1.1980292e-05
-2.9949088e-06
-1.1896953e-05
-2.8969331e-06
-1.1818207e-05
-2.8012298e-06
-1.174393e-05
-2.7076648e-06
-1.1674005e-05
-2.6161125e-06
-1.1608322e-05
-2.5264549e-06
-1.1546777e-05
-2.4385814e-06
-1.1489273e-05
-2.3523886e-06
-1.1435718e-05
-2.2677796e-06
-1.1386026e-05
-2.1846643e-06
-1.1340119e-05
-2.1029588e-06
-1.129792e-05
-2.0225852e-06
-1.125936e-05
-1.9434715e-06
-1.1224375e-05
-1.8655514e-06
-1.1192906e-05
-1.788764e-06
-1.1164899e-05
-1.7130533e-06
-1.1140306e-05
-1.6383685e-06
-1.1119085e-05
-1.5646632e-06
-1.1101197e-05
-1.4918953e-06
-1.1086614e-05
-1.4200266e-06
-1.1075309e-05
-1.3490225e-06
-1.1067264e-05
-1.2788513e-06
-1.1062469e-05
-1.209484e-06
-1.1060918e-05
-1.1408937e-06
-1.1062614e-05
-1.0730547e-06
-1.1067567e-05
-1.0059421e-06
-1.1075796e-05
-9.3953101e-07
-1.1087325e-05
-8.7379561e-07
-1.110219e-05
-8.0870837e-07
-1.1120432e-05
-7.4423895e-07
-1.1142102e-05
-6.8035333e-07
-1.1167258e-05
-6.1701261e-07
-1.1195966e-05
-5.5417216e-07
-1.1228299e-05
-4.9178046e-07
-1.1264335e-05
-4.2977832e-07
-1.1304157e-05
-3.6809824e-07
-1.1347847e-05
-3.0666401e-07
-1.139548e-05
-2.4539101e-07
-1.1447115e-05
-1.8418698e-07
-1.1502776e-05
-1.2295422e-07
-1.1562428e-05
-6.1592782e-08
-1.1625967e-05
-1.1693394e-05
-9.7299918e-06
-2.0087006e-05
-9.6481638e-06
-1.9607604e-05
-9.5090541e-06
-1.923156e-05
-9.3146297e-06
-1.8923255e-05
-9.0721861e-06
-1.8653579e-05
-8.7922539e-06
-1.8400464e-05
-8.4867459e-06
-1.8148716e-05
-8.1674599e-06
-1.7889315e-05
-7.8449525e-06
-1.7618392e-05
-7.5278309e-06
-1.7335995e-05
-7.2224398e-06
-1.704481e-05
-6.9328616e-06
-1.6748984e-05
-6.6611431e-06
-1.6453162e-05
-6.407684e-06
-1.6161736e-05
-6.1716931e-06
-1.587836e-05
-5.9516336e-06
-1.560571e-05
-5.7456098e-06
-1.5345452e-05
-5.5516688e-06
-1.5098343e-05
-5.368007e-06
-1.4864407e-05
-5.1930877e-06
-1.464315e-05
-5.0256852e-06
-1.4433772e-05
-4.8648743e-06
-1.4235336e-05
-4.709987e-06
-1.4046902e-05
-4.5605531e-06
-1.3867615e-05
-4.4162396e-06
-1.3696744e-05
-4.276797e-06
-1.3533692e-05
-4.1420186e-06
-1.3377993e-05
-4.0117124e-06
-1.3229278e-05
-3.8856855e-06
-1.3087259e-05
-3.7637378e-06
-1.2951696e-05
-3.6456616e-06
-1.2822382e-05
-3.5312452e-06
-1.2699127e-05
-3.420278e-06
-1.2581748e-05
-3.312554e-06
-1.2470067e-05
-3.207876e-06
-1.2363911e-05
-3.1060574e-06
-1.2263108e-05
-3.0069234e-06
-1.2167492e-05
-2.9103105e-06
-1.2076905e-05
-2.8160663e-06
-1.1991197e-05
-2.7240485e-06
-1.1910225e-05
-2.6341243e-06
-1.1833855e-05
-2.546169e-06
-1.1761961e-05
-2.4600659e-06
-1.1694425e-05
-2.3757056e-06
-1.1631137e-05
-2.2929856e-06
-1.1571993e-05
-2.21181e-06
-1.1516893e-05
-2.1320896e-06
-1.1465747e-05
-2.0537411e-06
-1.1418467e-05
-1.9766877e-06
-1.1374973e-05
-1.9008583e-06
-1.133519e-05
-1.8261877e-06
-1.1299046e-05
-1.7526164e-06
-1.1266478e-05
-1.6800901e-06
-1.1237426e-05
-1.6085599e-06
-1.1211837e-05
-1.5379818e-06
-1.1189663e-05
-1.4683164e-06
-1.1170863e-05
-1.399529e-06
-1.1155401e-05
-1.3315885e-06
-1.1143249e-05
-1.2644681e-06
-1.1134385e-05
-1.1981438e-06
-1.1128793e-05
-1.1325944e-06
-1.1126467e-05
-1.0678013e-06
-1.1127407e-05
-1.0037469e-06
-1.1131621e-05
-9.4041508e-07
-1.1139127e-05
-8.7778916e-07
-1.1149951e-05
-8.1585195e-07
-1.1164127e-05
-7.5458426e-07
-1.11817e-05
-6.9396392e-07
-1.1202722e-05
-6.3396465e-07
-1.1227257e-05
-5.7455474e-07
-1.1255376e-05
-5.1569589e-07
-1.1287158e-05
-4.5734189e-07
-1.1322689e-05
-3.9943756e-07
-1.1362061e-05
-3.4191779e-07
-1.1405366e-05
-2.8470703e-07
-1.1452691e-05
-2.2771937e-07
-1.1504103e-05
-1.7085936e-07
-1.1559636e-05
-1.1402431e-07
-1.1619263e-05
-5.7107863e-08
-1.1682884e-05
-1.1750502e-05
-8.9878594e-06
-1.996022e-05
-9.0208452e-06
-1.9574618e-05
-8.9598047e-06
-1.9292601e-05
-8.8133152e-06
-1.9069744e-05
-8.5958024e-06
-1.8871092e-05
-8.3247779e-06
-1.8671489e-05
-8.0184851e-06
-1.8455008e-05
-7.6940034e-06
-1.8213796e-05
-7.365902e-06
-1.7946493e-05
-7.0455168e-06
-1.7656381e-05
-6.7407393e-06
-1.7349588e-05
-6.4561909e-06
-1.7033532e-05
-6.1936946e-06
-1.6715658e-05
-5.9529369e-06
-1.6402494e-05
-5.7321675e-06
-1.6099129e-05
-5.5288433e-06
-1.5809034e-05
-5.3401559e-06
-1.553414e-05
-5.1634187e-06
-1.527508e-05
-4.9963071e-06
-1.5031518e-05
-4.8369717e-06
-1.4802485e-05
-4.684052e-06
-1.4586692e-05
-4.5366221e-06
-1.4382766e-05
-4.3941008e-06
-1.4189424e-05
-4.2561502e-06
-1.4005566e-05
-4.1225812e-06
-1.3830313e-05
-3.9932783e-06
-1.3662995e-05
-3.868146e-06
-1.3503125e-05
-3.7470765e-06
-1.3350348e-05
-3.6299358e-06
-1.3204399e-05
-3.5165615e-06
-1.306507e-05
-3.4067688e-06
-1.2932175e-05
-3.3003597e-06
-1.2805536e-05
-3.197132e-06
-1.2684975e-05
-3.0968874e-06
-1.2570312e-05
-2.9994363e-06
-1.2461362e-05
-2.9046011e-06
-1.2357943e-05
-2.8122168e-06
-1.2259876e-05
-2.7221311e-06
-1.2166991e-05
-2.6342029e-06
-1.2079125e-05
-2.5483014e-06
-1.1996126e-05
-2.4643045e-06
-1.1917852e-05
-2.3820978e-06
-1.1844167e-05
-2.3015744e-06
-1.1774949e-05
-2.2226336e-06
-1.1710078e-05
-2.1451815e-06
-1.1649445e-05
-2.0691302e-06
-1.1592945e-05
-1.9943979e-06
-1.1540479e-05
-1.9209089e-06
-1.1491956e-05
-1.8485934e-06
-1.1447289e-05
-1.7773874e-06
-1.1406395e-05
-1.7072329e-06
-1.13692e-05
-1.6380772e-06
-1.1335633e-05
-1.5698733e-06
-1.130563e-05
-1.5025792e-06
-1.1279131e-05
-1.4361582e-06
-1.1256084e-05
-1.3705784e-06
-1.1236443e-05
-1.3058125e-06
-1.1220167e-05
-1.2418375e-06
-1.1207224e-05
-1.1786342e-06
-1.1197588e-05
-1.1161872e-06
-1.119124e-05
-1.0544838e-06
-1.118817e-05
-9.9351406e-07
-1.1188377e-05
-9.3326967e-07
-1.1191866e-05
-8.7374344e-07
-1.1198654e-05
-8.1492837e-07
-1.1208766e-05
-7.5681667e-07
-1.1222239e-05
-6.9939863e-07
-1.1239118e-05
-6.4266138e-07
-1.125946e-05
-5.8658757e-07
-1.1283331e-05
-5.3115388e-07
-1.1310809e-05
-4.763295e-07
-1.1341982e-05
-4.2207464e-07
-1.1376944e-05
-3.6833893e-07
-1.1415797e-05
-3.1506038e-07
-1.1458645e-05
-2.6216431e-07
-1.1505587e-05
-2.0956331e-07
-1.1556704e-05
-1.5715802e-07
-1.1612041e-05
-1.0483951e-07
-1.1671582e-05
-5.2493381e-08
-1.173523e-05
-1.1802995e-05
-8.3363884e-06
-1.9664328e-05
-8.4847194e-06
-1.9426287e-05
-8.4934218e-06
-1.9283899e-05
-8.3805963e-06
-1.918257e-05
-8.1705402e-06
-1.9081148e-05
-7.8901664e-06
-1.8951862e-05
-7.5659883e-06
-1.8779187e-05
-7.2216837e-06
-1.8558101e-05
-6.8765874e-06
-1.8291589e-05
-6.5450137e-06
-1.7987954e-05
-6.2362298e-06
-1.7658371e-05
-5.9549045e-06
-1.7314858e-05
-5.7019878e-06
-1.6968575e-05
-5.4757571e-06
-1.6628725e-05
-5.272856e-06
-1.630203e-05
-5.0891979e-06
-1.5992692e-05
-4.9206672e-06
-1.570267e-05
-4.7635942e-06
-1.5432153e-05
-4.6150134e-06
-1.5180099e-05
-4.4727439e-06
-1.4944755e-05
-4.3353414e-06
-1.4724094e-05
-4.2019698e-06
-1.4516137e-05
-4.0722368e-06
-1.4319157e-05
-3.9460315e-06
-1.4131771e-05
-3.8233866e-06
-1.3952958e-05
-3.7043757e-06
-1.3782006e-05
-3.5890483e-06
-1.3618452e-05
-3.4773969e-06
-1.3461999e-05
-3.3693487e-06
-1.3312448e-05
-3.2647741e-06
-1.3169645e-05
-3.1635025e-06
-1.3033446e-05
-3.0653403e-06
-1.2903698e-05
-2.9700865e-06
-1.2780229e-05
-2.8775446e-06
-1.2662854e-05
-2.7875301e-06
-1.2551377e-05
-2.699873e-06
-1.24456e-05
-2.6144191e-06
-1.234533e-05
-2.5310281e-06
-1.2250382e-05
-2.4495717e-06
-1.2160582e-05
-2.3699317e-06
-1.2075766e-05
-2.2919981e-06
-1.1995785e-05
-2.2156676e-06
-1.1920498e-05
-2.1408433e-06
-1.1849773e-05
-2.0674343e-06
-1.1783487e-05
-1.9953549e-06
-1.1721524e-05
-1.9245256e-06
-1.1663774e-05
-1.8548723e-06
-1.1610132e-05
-1.7863268e-06
-1.1560502e-05
-1.7188267e-06
-1.1514789e-05
-1.6523153e-06
-1.1472907e-05
-1.5867417e-06
-1.1434774e-05
-1.5220605e-06
-1.1400314e-05
-1.4582319e-06
-1.1369458e-05
-1.3952214e-06
-1.1342141e-05
-1.3329998e-06
-1.1318305e-05
-1.2715429e-06
-1.1297899e-05
-1.2108312e-06
-1.1280879e-05
-1.1508501e-06
-1.1267205e-05
-1.0915887e-06
-1.1256849e-05
-1.0330405e-06
-1.1249788e-05
-9.7520199e-07
-1.1246009e-05
-9.1807253e-07
-1.1245506e-05
-8.6165377e-07
-1.1248285e-05
-8.0594858e-07
-1.1254359e-05
-7.5096046e-07
-1.1263754e-05
-6.9669214e-07
-1.1276507e-05
-6.4314461e-07
-1.1292665e-05
-5.9031567e-07
-1.1312288e-05
-5.3819828e-07
-1.1335448e-05
-4.8677899e-07
-1.1362229e-05
-4.3603597e-07
-1.1392725e-05
-3.8593718e-07
-1.1427043e-05
-3.3643834e-07
-1.1465296e-05
-2.874814e-07
-1.1507602e-05
-2.3899312e-07
-1.1554075e-05
-1.9088447e-07
-1.1604813e-05
-1.4305142e-07
-1.1659874e-05
-9.5377278e-08
-1.1719256e-05
-4.7737442e-08
-1.1782869e-05
-1.1850733e-05
-7.8303244e-06
-1.919287e-05
-8.0863181e-06
-1.9170293e-05
-8.1468409e-06
-1.9223376e-05
-8.0434155e-06
-1.9285995e-05
-7.8138214e-06
-1.9310742e-05
-7.4975395e-06
-1.9268144e-05
-7.1316904e-06
-1.9145036e-05
-6.7480703e-06
-1.8941721e-05
-6.3715217e-06
-1.8668138e-05
-6.0194209e-06
-1.8340055e-05
-5.7018952e-06
-1.7975897e-05
-5.4228009e-06
-1.7593952e-05
-5.1811892e-06
-1.7210187e-05
-4.9728971e-06
-1.6837017e-05
-4.7920506e-06
-1.6482877e-05
-4.6323035e-06
-1.6152439e-05
-4.4877454e-06
-1.5847229e-05
-4.3534515e-06
-1.5566447e-05
-4.225723e-06
-1.5307828e-05
-4.1020896e-06
-1.5068388e-05
-3.9811512e-06
-1.4845033e-05
-3.8623246e-06
-1.4634964e-05
-3.7455697e-06
-1.4435911e-05
-3.6311429e-06
-1.4246198e-05
-3.5194039e-06
-1.4064697e-05
-3.4106837e-06
-1.3890726e-05
-3.3052119e-06
-1.3723924e-05
-3.2030909e-06
-1.356412e-05
-3.1043027e-06
-1.3411236e-05
-3.0087348e-06
-1.3265213e-05
-2.9162133e-06
-1.3125968e-05
-2.8265328e-06
-1.2993378e-05
-2.7394818e-06
-1.286728e-05
-2.6548585e-06
-1.2747477e-05
-2.5724795e-06
-1.2633756e-05
-2.4921826e-06
-1.2525897e-05
-2.4138251e-06
-1.2423688e-05
-2.337281e-06
-1.2326926e-05
-2.2624372e-06
-1.2235425e-05
-2.1891898e-06
-1.2149014e-05
-2.1174422e-06
-1.2067533e-05
-2.0471032e-06
-1.1990837e-05
-1.9780866e-06
-1.191879e-05
-1.9103109e-06
-1.1851263e-05
-1.8436994e-06
-1.1788136e-05
-1.7781805e-06
-1.1729293e-05
-1.7136882e-06
-1.1674625e-05
-1.6501616e-06
-1.1624028e-05
-1.5875458e-06
-1.1577405e-05
-1.5257916e-06
-1.1534661e-05
-1.4648554e-06
-1.149571e-05
-1.4046991e-06
-1.1460471e-05
-1.3452905e-06
-1.1428867e-05
-1.2866027e-06
-1.1400829e-05
-1.2286141e-06
-1.1376294e-05
-1.1713086e-06
-1.1355205e-05
-1.114675e-06
-1.1337512e-05
-1.0587071e-06
-1.1323173e-05
-1.003403e-06
-1.1312153e-05
-9.4876549e-07
-1.1304426e-05
-8.9480072e-07
-1.1299974e-05
-8.4151833e-07
-1.1298789e-05
-7.8893051e-07
-1.1300872e-05
-7.3705126e-07
-1.1306238e-05
-6.8589544e-07
-1.131491e-05
-6.354777e-07
-1.1326925e-05
-5.858111e-07
-1.1342332e-05
-5.3690554e-07
-1.1361194e-05
-4.8876604e-07
-1.1383588e-05
-4.4139077e-07
-1.1409604e-05
-3.9476871e-07
-1.1439347e-05
-3.4887733e-07
-1.1472934e-05
-3.0368018e-07
-1.1510493e-05
-2.5912448e-07
-1.1552158e-05
-2.1513917e-07
-1.159806e-05
-1.7163386e-07
-1.1648318e-05
-1.2849896e-07
-1.1703009e-05
-8.5608398e-08
-1.1762147e-05
-4.2824638e-08
-1.1825653e-05
-1.1893557e-05
-7.5385726e-06
-1.8548603e-05
-7.8824537e-06
-1.8826412e-05
-7.9633445e-06
-1.9142485e-05
-7.8313859e-06
-1.9417954e-05
-7.5426913e-06
-1.9599437e-05
-7.1532998e-06
-1.9657536e-05
-6.7137785e-06
-1.9584557e-05
-6.2657376e-06
-1.9389762e-05
-5.8401856e-06
-1.909369e-05
-5.4572872e-06
-1.8722953e-05
-5.1269965e-06
-1.8306188e-05
-4.8509535e-06
-1.7869995e-05
-4.6247535e-06
-1.7436387e-05
-4.4403052e-06
-1.7021465e-05
-4.2879568e-06
-1.6635225e-05
-4.1581775e-06
-1.6282218e-05
-4.0426879e-06
-1.5962718e-05
-3.9350431e-06
-1.5674092e-05
-3.8307909e-06
-1.541208e-05
-3.72733e-06
-1.5171849e-05
-3.6235538e-06
-1.4948809e-05
-3.5194048e-06
-1.4739113e-05
-3.4154435e-06
-1.4539873e-05
-3.3124914e-06
-1.434915e-05
-3.2113712e-06
-1.4165817e-05
-3.112749e-06
-1.3989349e-05
-3.0170637e-06
-1.3819609e-05
-2.9245227e-06
-1.3656661e-05
-2.8351378e-06
-1.3500621e-05
-2.7487819e-06
-1.3351568e-05
-2.6652463e-06
-1.3209503e-05
-2.5842896e-06
-1.3074335e-05
-2.5056729e-06
-1.2945897e-05
-2.4291798e-06
-1.282397e-05
-2.3546255e-06
-1.270831e-05
-2.2818562e-06
-1.2598666e-05
-2.2107445e-06
-1.2494799e-05
-2.1411823e-06
-1.2396488e-05
-2.0730748e-06
-1.2303533e-05
-2.0063354e-06
-1.2215753e-05
-1.9408825e-06
-1.2132986e-05
-1.8766376e-06
-1.2055082e-05
-1.8135255e-06
-1.1981902e-05
-1.7514743e-06
-1.1913314e-05
-1.6904158e-06
-1.1849194e-05
-1.6302865e-06
-1.1789422e-05
-1.5710278e-06
-1.1733884e-05
-1.5125867e-06
-1.1682469e-05
-1.4549155e-06
-1.1635076e-05
-1.3979725e-06
-1.1591604e-05
-1.3417215e-06
-1.1551961e-05
-1.286132e-06
-1.151606e-05
-1.2311794e-06
-1.1483819e-05
-1.1768445e-06
-1.1455164e-05
-1.1231138e-06
-1.1430025e-05
-1.0699792e-06
-1.140834e-05
-1.0174382e-06
-1.1390053e-05
-9.6549321e-07
-1.1375118e-05
-9.1415194e-07
-1.1363495e-05
-8.634267e-07
-1.1355151e-05
-8.1333407e-07
-1.1350066e-05
-7.6389453e-07
-1.1348228e-05
-7.1513165e-07
-1.1349635e-05
-6.6707149e-07
-1.1354298e-05
-6.1974156e-07
-1.136224e-05
-5.7316961e-07
-1.1373497e-05
-5.2738228e-07
-1.1388119e-05
-4.8240343e-07
-1.1406173e-05
-4.3825207e-07
-1.1427739e-05
-3.949401e-07
-1.1452916e-05
-3.5246962e-07
-1.1481817e-05
-3.1083e-07
-1.1514574e-05
-2.6999478e-07
-1.1551328e-05
-2.2991846e-07
-1.1592234e-05
-1.9053354e-07
-1.1637445e-05
-1.5174875e-07
-1.1687103e-05
-1.1344849e-07
-1.1741309e-05
-7.5495179e-08
-1.18001e-05
-3.7735061e-08
-1.1863413e-05
-1.1931292e-05
-7.5470629e-06
-1.7748352e-05
-7.9416369e-06
-1.8431838e-05
-7.992612e-06
-1.909151e-05
-7.775734e-06
-1.9634832e-05
-7.3719242e-06
-2.0003247e-05
-6.8587477e-06
-2.0170712e-05
-6.3036397e-06
-2.0139665e-05
-5.7598464e-06
-1.9933555e-05
-5.2649667e-06
-1.958857e-05
-4.8410185e-06
-1.9146902e-05
-4.4960022e-06
-1.8651204e-05
-4.2271487e-06
-1.8138848e-05
-4.0243069e-06
-1.7639229e-05
-3.8733456e-06
-1.7172426e-05
-3.759125e-06
-1.6749446e-05
-3.6677742e-06
-1.6373569e-05
-3.5880106e-06
-1.6042482e-05
-3.5116645e-06
-1.5750438e-05
-3.4336674e-06
-1.5490077e-05
-3.3516403e-06
-1.5253876e-05
-3.2652066e-06
-1.5035242e-05
-3.1752639e-06
-1.4829056e-05
-3.0833365e-06
-1.46318e-05
-2.9910775e-06
-1.4441409e-05
-2.8999388e-06
-1.4256956e-05
-2.8109983e-06
-1.4078289e-05
-2.7249135e-06
-1.3905694e-05
-2.6419622e-06
-1.3739612e-05
-2.5621316e-06
-1.3580451e-05
-2.4852219e-06
-1.3428478e-05
-2.4109406e-06
-1.3283785e-05
-2.3389743e-06
-1.3146301e-05
-2.2690351e-06
-1.3015836e-05
-2.2008831e-06
-1.2892122e-05
-2.1343316e-06
-1.2774862e-05
-2.06924e-06
-1.2663758e-05
-2.0055028e-06
-1.2558537e-05
-1.9430364e-06
-1.2458955e-05
-1.8817696e-06
-1.23648e-05
-1.8216362e-06
-1.2275886e-05
-1.7625713e-06
-1.2192051e-05
-1.70451e-06
-1.2113143e-05
-1.6473878e-06
-1.2039024e-05
-1.5911417e-06
-1.196956e-05
-1.5357116e-06
-1.1904624e-05
-1.4810415e-06
-1.1844092e-05
-1.4270803e-06
-1.1787845e-05
-1.3737822e-06
-1.1735768e-05
-1.321107e-06
-1.1687751e-05
-1.2690204e-06
-1.1643691e-05
-1.2174937e-06
-1.1603488e-05
-1.1665042e-06
-1.156705e-05
-1.1160348e-06
-1.1534289e-05
-1.0660742e-06
-1.1505125e-05
-1.016617e-06
-1.1479482e-05
-9.6766344e-07
-1.1457293e-05
-9.192197e-07
-1.1438497e-05
-8.7129748e-07
-1.142304e-05
-8.2391404e-07
-1.1410878e-05
-7.7709189e-07
-1.1401973e-05
-7.3085844e-07
-1.13963e-05
-6.8524569e-07
-1.1393841e-05
-6.4028948e-07
-1.1394591e-05
-5.9602888e-07
-1.1398559e-05
-5.5250516e-07
-1.1405764e-05
-5.0976067e-07
-1.1416241e-05
-4.6783734e-07
-1.1430043e-05
-4.2677486e-07
-1.1447235e-05
-3.8660856e-07
-1.1467905e-05
-3.4736666e-07
-1.1492158e-05
-3.0906724e-07
-1.1520117e-05
-2.7171461e-07
-1.1551926e-05
-2.3529533e-07
-1.1587747e-05
-1.9977392e-07
-1.1627755e-05
-1.6508884e-07
-1.167213e-05
-1.3114909e-07
-1.1721042e-05
-9.7832703e-08
-1.1774625e-05
-6.4988598e-08
-1.1832944e-05
-3.2442615e-08
-1.1895959e-05
-1.1963735e-05
-7.9620474e-06
-1.6829839e-05
-8.3454007e-06
-1.8048485e-05
-8.2902104e-06
-1.91467e-05
-7.9074191e-06
-2.0017623e-05
-7.311096e-06
-2.059957e-05
-6.6066027e-06
-2.0875206e-05
-5.8822965e-06
-2.0863971e-05
-5.2049126e-06
-2.0610939e-05
-4.6184357e-06
-2.0175047e-05
-4.1449022e-06
-1.9620435e-05
-3.787378e-06
-1.9008728e-05
-3.5353877e-06
-1.8390839e-05
-3.3697449e-06
-1.7804871e-05
-3.2673164e-06
-1.7274855e-05
-3.2052061e-06
-1.6811556e-05
-3.1638113e-06
-1.6414964e-05
-3.1282095e-06
-1.6078084e-05
-3.0884635e-06
-1.5790184e-05
-3.0393262e-06
-1.5539214e-05
-2.9792968e-06
-1.5313906e-05
-2.9094434e-06
-1.5105096e-05
-2.8322673e-06
-1.4906232e-05
-2.750766e-06
-1.4713301e-05
-2.6677685e-06
-1.4524407e-05
-2.5855409e-06
-1.4339183e-05
-2.505629e-06
-1.4158201e-05
-2.4288735e-06
-1.398245e-05
-2.3555356e-06
-1.381295e-05
-2.285475e-06
-1.3650512e-05
-2.2183248e-06
-1.3495628e-05
-2.1536351e-06
-1.3348474e-05
-2.0909725e-06
-1.3208964e-05
-2.0299758e-06
-1.3076833e-05
-1.970376e-06
-1.2951722e-05
-1.91199e-06
-1.2833248e-05
-1.8547023e-06
-1.2721046e-05
-1.7984411e-06
-1.2614798e-05
-1.7431583e-06
-1.2514238e-05
-1.6888133e-06
-1.2419145e-05
-1.6353645e-06
-1.2329335e-05
-1.5827654e-06
-1.224465e-05
-1.5309641e-06
-1.2164944e-05
-1.479906e-06
-1.2090082e-05
-1.4295357e-06
-1.201993e-05
-1.3798002e-06
-1.195436e-05
-1.33065e-06
-1.1893242e-05
-1.282041e-06
-1.1836454e-05
-1.2339345e-06
-1.1783874e-05
-1.1862977e-06
-1.1735388e-05
-1.1391039e-06
-1.1690885e-05
-1.0923318e-06
-1.165026e-05
-1.0459665e-06
-1.1613415e-05
-9.9999839e-07
-1.1580257e-05
-9.5442432e-07
-1.1550699e-05
-9.0924692e-07
-1.1524659e-05
-8.6447496e-07
-1.1502065e-05
-8.2012339e-07
-1.1482849e-05
-7.7621332e-07
-1.146695e-05
-7.3277189e-07
-1.1454319e-05
-6.8983219e-07
-1.1444913e-05
-6.4743302e-07
-1.1438699e-05
-6.0561842e-07
-1.1435655e-05
-5.644373e-07
-1.1435773e-05
-5.2394274e-07
-1.1439053e-05
-4.8419097e-07
-1.1445516e-05
-4.452404e-07
-1.1455192e-05
-4.0715009e-07
-1.1468133e-05
-3.6997779e-07
-1.1484408e-05
-3.3377769e-07
-1.1504106e-05
-2.9859747e-07
-1.1527338e-05
-2.6447465e-07
-1.155424e-05
-2.314323e-07
-1.1584969e-05
-1.9947414e-07
-1.1619706e-05
-1.6857885e-07
-1.1658651e-05
-1.386942e-07
-1.1702015e-05
-1.097319e-07
-1.1750005e-05
-8.1564238e-08
-1.1802793e-05
-5.4024515e-08
-1.1860484e-05
-2.6912978e-08
-1.1923071e-05
-1.1990648e-05
-8.9137806e-06
-1.5861276e-05
-9.1893168e-06
-1.7772949e-05
-8.9162831e-06
-1.9419734e-05
-8.2539298e-06
-2.0679977e-05
-7.360152e-06
-2.1493348e-05
-6.375981e-06
-2.1859377e-05
-5.4154268e-06
-2.1824526e-05
-4.560398e-06
-2.1465968e-05
-3.8598398e-06
-2.0875605e-05
-3.3327174e-06
-2.0147558e-05
-2.9723202e-06
-1.9369126e-05
-2.7556025e-06
-1.8607557e-05
-2.6496974e-06
-1.7910776e-05
-2.61844e-06
-1.7306112e-05
-2.6281889e-06
-1.6801807e-05
-2.6520146e-06
-1.6391138e-05
-2.6708145e-06
-1.6059284e-05
-2.673244e-06
-1.5787755e-05
-2.6547811e-06
-1.5557677e-05
-2.6159264e-06
-1.535276e-05
-2.5603081e-06
-1.5160714e-05
-2.4929765e-06
-1.4973563e-05
-2.4190935e-06
-1.4787184e-05
-2.34308e-06
-1.460042e-05
-2.2681962e-06
-1.4414067e-05
-2.1964541e-06
-1.4229943e-05
-2.1287545e-06
-1.4050149e-05
-2.0651686e-06
-1.3876536e-05
-2.0052537e-06
-1.3710427e-05
-1.9483302e-06
-1.3552552e-05
-1.8936882e-06
-1.3403116e-05
-1.8407154e-06
-1.3261937e-05
-1.7889554e-06
-1.3128593e-05
-1.7381137e-06
-1.3002564e-05
-1.6880297e-06
-1.2883332e-05
-1.6386353e-06
-1.277044e-05
-1.5899143e-06
-1.2663519e-05
-1.541869e-06
-1.2562283e-05
-1.4944995e-06
-1.2466514e-05
-1.4477929e-06
-1.2376042e-05
-1.4017214e-06
-1.2290721e-05
-1.3562447e-06
-1.2210421e-05
-1.311315e-06
-1.2135012e-05
-1.2668826e-06
-1.2064363e-05
-1.2228991e-06
-1.1998343e-05
-1.179321e-06
-1.193682e-05
-1.1361103e-06
-1.1879665e-05
-1.0932353e-06
-1.1826749e-05
-1.0506706e-06
-1.1777952e-05
-1.0083969e-06
-1.1733158e-05
-9.664008e-07
-1.1692256e-05
-9.2467478e-07
-1.1655141e-05
-8.8321728e-07
-1.1621714e-05
-8.4203276e-07
-1.1591883e-05
-8.0113206e-07
-1.156556e-05
-7.6053241e-07
-1.1542665e-05
-7.2025771e-07
-1.1523123e-05
-6.8033849e-07
-1.150687e-05
-6.4081204e-07
-1.1493846e-05
-6.0172232e-07
-1.1484003e-05
-5.6311984e-07
-1.1477301e-05
-5.2506136e-07
-1.1473714e-05
-4.876095e-07
-1.1473224e-05
-4.5083223e-07
-1.1475831e-05
-4.1480208e-07
-1.1481546e-05
-3.7959497e-07
-1.1490399e-05
-3.4528894e-07
-1.1502439e-05
-3.1196222e-07
-1.1517734e-05
-2.796908e-07
-1.1536377e-05
-2.4854534e-07
-1.1558484e-05
-2.1858703e-07
-1.1584198e-05
-1.8986261e-07
-1.1613693e-05
-1.6239842e-07
-1.164717e-05
-1.3619301e-07
-1.1684856e-05
-1.1120903e-07
-1.1726999e-05
-8.7364982e-08
-1.1773849e-05
-6.4529327e-08
-1.1825629e-05
-4.251833e-08
-1.1882495e-05
-2.1100461e-08
-1.1944489e-05
-1.2011748e-05
-1.0560401e-05
-1.4954393e-05
-1.058333e-05
-1.775002e-05
-9.9329302e-06
-2.0070133e-05
-8.8342383e-06
-2.1778668e-05
-7.5028371e-06
-2.2824749e-05
-6.1252158e-06
-2.3236998e-05
-4.8464269e-06
-2.3103314e-05
-3.7647116e-06
-2.2547683e-05
-2.9306346e-06
-2.1709682e-05
-2.3549563e-06
-2.0723236e-05
-2.0136707e-06
-1.9710411e-05
-1.8639327e-06
-1.8757295e-05
-1.8526259e-06
-1.7922083e-05
-1.9255779e-06
-1.723316e-05
-2.034322e-06
-1.6693063e-05
-2.1429016e-06
-1.6282559e-05
-2.2278434e-06
-1.5974342e-05
-2.277492e-06
-1.5738106e-05
-2.289677e-06
-1.5545492e-05
-2.2687115e-06
-1.5373726e-05
-2.2224645e-06
-1.5206961e-05
-2.1598782e-06
-1.503615e-05
-2.0891718e-06
-1.4857891e-05
-2.0168238e-06
-1.4672768e-05
-1.9472152e-06
-1.4483675e-05
-1.8826913e-06
-1.4294467e-05
-1.8239402e-06
-1.41089e-05
-1.7705333e-06
-1.3929943e-05
-1.7214468e-06
-1.3759514e-05
-1.6754768e-06
-1.3598522e-05
-1.6315194e-06
-1.3447074e-05
-1.5887198e-06
-1.3304736e-05
-1.5465176e-06
-1.3170795e-05
-1.5046182e-06
-1.3044463e-05
-1.4629236e-06
-1.2925026e-05
-1.421455e-06
-1.2811909e-05
-1.3802842e-06
-1.270469e-05
-1.3394868e-06
-1.260308e-05
-1.2991147e-06
-1.2506886e-05
-1.2591865e-06
-1.241597e-05
-1.2196907e-06
-1.2330217e-05
-1.1805936e-06
-1.2249518e-05
-1.1418496e-06
-1.2173756e-05
-1.1034101e-06
-1.2102802e-05
-1.0652293e-06
-1.2036524e-05
-1.0272675e-06
-1.1974782e-05
-9.8949277e-07
-1.1917439e-05
-9.5188034e-07
-1.1864362e-05
-9.1441238e-07
-1.181542e-05
-8.7707741e-07
-1.1770493e-05
-8.3986968e-07
-1.1729464e-05
-8.0278942e-07
-1.1692221e-05
-7.6584263e-07
-1.1658661e-05
-7.2904162e-07
-1.1628684e-05
-6.9240513e-07
-1.1602197e-05
-6.559588e-07
-1.1579111e-05
-6.1973535e-07
-1.1559347e-05
-5.8377488e-07
-1.154283e-05
-5.4812488e-07
-1.1529496e-05
-5.1284043e-07
-1.1519287e-05
-4.77984e-07
-1.1512158e-05
-4.4362551e-07
-1.1508072e-05
-4.0984192e-07
-1.1507008e-05
-3.7671701e-07
-1.1508956e-05
-3.4434059e-07
-1.1513922e-05
-3.1280766e-07
-1.1521932e-05
-2.8221716e-07
-1.1533029e-05
-2.5267023e-07
-1.1547281e-05
-2.2426787e-07
-1.1564779e-05
-1.9710779e-07
-1.1585644e-05
-1.7127983e-07
-1.1610026e-05
-1.468604e-07
-1.1638112e-05
-1.2390553e-07
-1.1670125e-05
-1.0244195e-07
-1.170632e-05
-8.2455157e-08
-1.1746986e-05
-6.3877766e-08
-1.1792426e-05
-4.6578861e-08
-1.1842928e-05
-3.0357373e-08
-1.1898716e-05
-1.4943728e-08
-1.1959902e-05
-1.2026692e-05
-1.3092184e-05
-1.4282228e-05
-1.2651212e-05
-1.8190992e-05
-1.1399486e-05
-2.1321859e-05
-9.6510152e-06
-2.3527139e-05
-7.6971342e-06
-2.477863e-05
-5.7818304e-06
-2.5152302e-05
-4.0870563e-06
-2.4798089e-05
-2.7273858e-06
-2.3907354e-05
-1.7489949e-06
-2.2688073e-05
-1.1461709e-06
-2.132606e-05
-8.6602701e-07
-1.9990555e-05
-8.3451143e-07
-1.878881e-05
-9.6906362e-07
-1.7787531e-05
-1.1931461e-06
-1.7009078e-05
-1.4370318e-06
-1.6449177e-05
-1.6542717e-06
-1.6065319e-05
-1.8177595e-06
-1.5810854e-05
-1.9176688e-06
-1.5638197e-05
-1.9569229e-06
-1.5506238e-05
-1.9464647e-06
-1.5384184e-05
-1.9008821e-06
-1.5252544e-05
-1.8348557e-06
-1.5102176e-05
-1.7607552e-06
-1.4931991e-05
-1.6875771e-06
-1.4745946e-05
-1.620792e-06
-1.4550461e-05
-1.5626967e-06
-1.4352562e-05
-1.5132521e-06
-1.4158345e-05
-1.4710161e-06
-1.3972179e-05
-1.4339619e-06
-1.3796568e-05
-1.4000715e-06
-1.3632412e-05
-1.3676856e-06
-1.347946e-05
-1.3356532e-06
-1.3336769e-05
-1.3033342e-06
-1.3203114e-05
-1.2705004e-06
-1.3077297e-05
-1.2371939e-06
-1.2958333e-05
-1.2035925e-06
-1.284551e-05
-1.1699063e-06
-1.2738376e-05
-1.1363121e-06
-1.2636674e-05
-1.1029242e-06
-1.2540274e-05
-1.0697916e-06
-1.2449102e-05
-1.0369106e-06
-1.2363098e-05
-1.0042442e-06
-1.2282185e-05
-9.717403e-07
-1.220626e-05
-9.3934529e-07
-1.2135197e-05
-9.0701214e-07
-1.2068857e-05
-8.7470411e-07
-1.200709e-05
-8.4239494e-07
-1.1949748e-05
-8.1006744e-07
-1.1896689e-05
-7.7771207e-07
-1.1847776e-05
-7.453255e-07
-1.180288e-05
-7.1290998e-07
-1.1761879e-05
-6.8047323e-07
-1.1724658e-05
-6.4802881e-07
-1.1691106e-05
-6.1559636e-07
-1.1661117e-05
-5.8320243e-07
-1.163459e-05
-5.508808e-07
-1.1611433e-05
-5.1867289e-07
-1.1591555e-05
-4.8662827e-07
-1.1574875e-05
-4.5480466e-07
-1.1561319e-05
-4.2326824e-07
-1.1550824e-05
-3.9209381e-07
-1.1543332e-05
-3.6136463e-07
-1.1538802e-05
-3.3117255e-07
-1.15372e-05
-3.0161775e-07
-1.153851e-05
-2.7280848e-07
-1.1542731e-05
-2.4486003e-07
-1.154988e-05
-2.1789404e-07
-1.1559995e-05
-1.9203704e-07
-1.1573138e-05
-1.6741842e-07
-1.1589398e-05
-1.4416747e-07
-1.1608895e-05
-1.2240825e-07
-1.1631785e-05
-1.0225392e-07
-1.1658267e-05
-8.3799107e-08
-1.1688579e-05
-6.7110874e-08
-1.1723008e-05
-5.2208823e-08
-1.1761888e-05
-3.9051433e-08
-1.1805584e-05
-2.7517643e-08
-1.1854462e-05
-1.7391554e-08
-1.1908842e-05
-8.357861e-09
-1.1968936e-05
-1.203505e-05
-1.6736006e-05
-1.4103292e-05
-1.5528526e-05
-1.9398472e-05
-1.3364849e-05
-2.3485536e-05
-1.0678883e-05
-2.6213106e-05
-7.8612927e-06
-2.759622e-05
-5.2282504e-06
-2.7785344e-05
-3.0045376e-06
-2.7021801e-05
-1.3193277e-06
-2.5592564e-05
-2.0819015e-07
-2.379921e-05
3.8177436e-07
-2.1916024e-05
5.3155251e-07
-2.0140333e-05
3.6045117e-07
-1.8617709e-05
-2.2510876e-09
-1.7424829e-05
-4.3572061e-07
-1.6575608e-05
-8.6116604e-07
-1.6023732e-05
-1.2148592e-06
-1.5711625e-05
-1.4681741e-06
-1.5557539e-05
-1.6168335e-06
-1.5489538e-05
-1.6732987e-06
-1.5449773e-05
-1.6594342e-06
-1.5398049e-05
-1.6001423e-06
-1.5311835e-05
-1.5182683e-06
-1.518405e-05
-1.4315852e-06
-1.5018674e-05
-1.3519408e-06
-1.4825591e-05
-1.285476e-06
-1.4616925e-05
-1.2336591e-06
-1.4404379e-05
-1.194836e-06
-1.4197168e-05
-1.165744e-06
-1.4001271e-05
-1.1427442e-06
-1.3819568e-05
-1.1226294e-06
-1.3652527e-05
-1.1030126e-06
-1.3499076e-05
-1.082434e-06
-1.3357347e-05
-1.0602675e-06
-1.322528e-05
-1.0364876e-06
-1.3101077e-05
-1.0114111e-06
-1.2983409e-05
-9.8547874e-07
-1.2871442e-05
-9.5910606e-07
-1.2764749e-05
-9.3260386e-07
-1.2663177e-05
-9.0615393e-07
-1.2566724e-05
-8.7982332e-07
-1.2475433e-05
-8.5359789e-07
-1.2389324e-05
-8.27419e-07
-1.2308363e-05
-8.0121394e-07
-1.2232465e-05
-7.749155e-07
-1.2161496e-05
-7.4847185e-07
-1.2095301e-05
-7.2184856e-07
-1.2033713e-05
-6.9502632e-07
-1.1976571e-05
-6.6799723e-07
-1.1923718e-05
-6.4076129e-07
-1.1875012e-05
-6.1332416e-07
-1.1830317e-05
-5.856963e-07
-1.1789507e-05
-5.5789277e-07
-1.1752462e-05
-5.2993409e-07
-1.1719064e-05
-5.0184697e-07
-1.1689204e-05
-4.7366523e-07
-1.1662772e-05
-4.4543043e-07
-1.1639667e-05
-4.1719249e-07
-1.1619793e-05
-3.8901023e-07
-1.1603057e-05
-3.6095148e-07
-1.1589378e-05
-3.3309361e-07
-1.1578682e-05
-3.055236e-07
-1.1570902e-05
-2.7833839e-07
-1.1565987e-05
-2.5164485e-07
-1.1563894e-05
-2.2556013e-07
-1.1564595e-05
-2.0021179e-07
-1.156808e-05
-1.7573644e-07
-1.1574356e-05
-1.5227994e-07
-1.1583452e-05
-1.2999637e-07
-1.1595422e-05
-1.0904691e-07
-1.1610347e-05
-8.9597421e-08
-1.1628344e-05
-7.1812015e-08
-1.1649571e-05
-5.5848869e-08
-1.167423e-05
-4.1850121e-08
-1.1702578e-05
-2.9943234e-08
-1.1734915e-05
-2.0195974e-08
-1.1771635e-05
-1.2611471e-08
-1.1813168e-05
-7.0963187e-09
-1.1859977e-05
-3.4281182e-09
-1.191251e-05
-1.2411865e-09
-1.1971123e-05
-1.2036291e-05
-2.1760244e-05
-1.4792851e-05
-1.9358219e-05
-2.1800497e-05
-1.5855142e-05
-2.6988613e-05
-1.1846725e-05
-3.0221522e-05
-7.8534978e-06
-3.1589448e-05
-4.2819614e-06
-3.135688e-05
-1.4053837e-06
-2.9898379e-05
6.5040924e-07
-2.7648357e-05
1.8794168e-06
-2.5028218e-05
2.3665655e-06
-2.2403173e-05
2.2685144e-06
-2.0042282e-05
1.7725822e-06
-1.8121777e-05
1.0691439e-06
-1.6721391e-05
3.2046634e-07
-1.5826931e-05
-3.4824517e-07
-1.535502e-05
-8.6936818e-07
-1.5190502e-05
-1.2194953e-06
-1.5207412e-05
-1.406596e-06
-1.5302437e-05
-1.4598596e-06
-1.5396509e-05
-1.418621e-06
-1.5439287e-05
-1.323133e-06
-1.5407323e-05
-1.207468e-06
-1.5299715e-05
-1.0960969e-06