/*--------------------------------*- C++ -*----------------------------------*\
| =========                 |                                                 |
| \\      /  F ield         | OpenFOAM: The Open Source CFD Toolbox           |
|  \\    /   O peration     | Version:  2106                                  |
|   \\  /    A nd           | Website:  www.openfoam.com                      |
|    \\/     M anipulation  |                                                 |
\*---------------------------------------------------------------------------*/
FoamFile
{
    version     2.0;
    format      ascii;
    arch        "LSB;label=32;scalar=64";
    class       volVectorField;
    location    "1.9";
    object      U;
}
// * * * * * * * * * * * * * * * * * * * * * * * * * * * * * * * * * * * * * //

dimensions      [0 1 -1 0 0 0 0];

internalField   nonuniform List<vector> 
90000
(
(-1.38339e-06 1.38196e-06 0)
(-4.14672e-06 1.37856e-06 0)
(-6.90104e-06 1.37304e-06 0)
(-9.64212e-06 1.36534e-06 0)
(-1.23655e-05 1.35538e-06 0)
(-1.50667e-05 1.34313e-06 0)
(-1.77411e-05 1.32859e-06 0)
(-2.03841e-05 1.31177e-06 0)
(-2.29912e-05 1.29269e-06 0)
(-2.55578e-05 1.27135e-06 0)
(-2.80795e-05 1.24781e-06 0)
(-3.05519e-05 1.22209e-06 0)
(-3.29707e-05 1.19423e-06 0)
(-3.53316e-05 1.16429e-06 0)
(-3.76305e-05 1.13231e-06 0)
(-3.98634e-05 1.09835e-06 0)
(-4.20264e-05 1.06246e-06 0)
(-4.41157e-05 1.02471e-06 0)
(-4.61276e-05 9.8516e-07 0)
(-4.80586e-05 9.43886e-07 0)
(-4.99053e-05 9.00957e-07 0)
(-5.16645e-05 8.56448e-07 0)
(-5.33331e-05 8.10438e-07 0)
(-5.49081e-05 7.63005e-07 0)
(-5.63869e-05 7.14235e-07 0)
(-5.77667e-05 6.64212e-07 0)
(-5.90452e-05 6.13024e-07 0)
(-6.02202e-05 5.6076e-07 0)
(-6.12896e-05 5.07512e-07 0)
(-6.22514e-05 4.53374e-07 0)
(-6.31041e-05 3.9844e-07 0)
(-6.38461e-05 3.42808e-07 0)
(-6.44761e-05 2.86573e-07 0)
(-6.49931e-05 2.29836e-07 0)
(-6.5396e-05 1.72695e-07 0)
(-6.56842e-05 1.15251e-07 0)
(-6.58573e-05 5.76042e-08 0)
(-6.59148e-05 -1.43784e-10 0)
(-6.58567e-05 -5.78919e-08 0)
(-6.56831e-05 -1.15539e-07 0)
(-6.53943e-05 -1.72984e-07 0)
(-6.49908e-05 -2.30125e-07 0)
(-6.44732e-05 -2.86864e-07 0)
(-6.38426e-05 -3.431e-07 0)
(-6.31001e-05 -3.98734e-07 0)
(-6.22468e-05 -4.53669e-07 0)
(-6.12843e-05 -5.07809e-07 0)
(-6.02144e-05 -5.61059e-07 0)
(-5.90388e-05 -6.13325e-07 0)
(-5.77597e-05 -6.64515e-07 0)
(-5.63792e-05 -7.1454e-07 0)
(-5.48999e-05 -7.63311e-07 0)
(-5.33242e-05 -8.10744e-07 0)
(-5.1655e-05 -8.56756e-07 0)
(-4.98952e-05 -9.01264e-07 0)
(-4.80479e-05 -9.44192e-07 0)
(-4.61163e-05 -9.85464e-07 0)
(-4.41038e-05 -1.02501e-06 0)
(-4.20139e-05 -1.06275e-06 0)
(-3.98503e-05 -1.09863e-06 0)
(-3.76168e-05 -1.13259e-06 0)
(-3.53174e-05 -1.16455e-06 0)
(-3.29559e-05 -1.19448e-06 0)
(-3.05367e-05 -1.22231e-06 0)
(-2.80639e-05 -1.24799e-06 0)
(-2.55419e-05 -1.27149e-06 0)
(-2.2975e-05 -1.29276e-06 0)
(-2.03679e-05 -1.31175e-06 0)
(-1.7725e-05 -1.32845e-06 0)
(-1.5051e-05 -1.34282e-06 0)
(-1.23506e-05 -1.35483e-06 0)
(-9.62859e-06 -1.36446e-06 0)
(-6.88966e-06 -1.3717e-06 0)
(-4.13864e-06 -1.37653e-06 0)
(-1.38036e-06 -1.37895e-06 0)
(1.38035e-06 -1.37895e-06 0)
(4.13863e-06 -1.37653e-06 0)
(6.88965e-06 -1.3717e-06 0)
(9.62859e-06 -1.36446e-06 0)
(1.23506e-05 -1.35483e-06 0)
(1.5051e-05 -1.34282e-06 0)
(1.7725e-05 -1.32845e-06 0)
(2.03679e-05 -1.31175e-06 0)
(2.2975e-05 -1.29276e-06 0)
(2.55419e-05 -1.27149e-06 0)
(2.80639e-05 -1.24799e-06 0)
(3.05367e-05 -1.22231e-06 0)
(3.29559e-05 -1.19448e-06 0)
(3.53174e-05 -1.16455e-06 0)
(3.76168e-05 -1.13259e-06 0)
(3.98503e-05 -1.09863e-06 0)
(4.20139e-05 -1.06275e-06 0)
(4.41038e-05 -1.02501e-06 0)
(4.61163e-05 -9.85464e-07 0)
(4.80479e-05 -9.44192e-07 0)
(4.98952e-05 -9.01264e-07 0)
(5.1655e-05 -8.56756e-07 0)
(5.33242e-05 -8.10744e-07 0)
(5.48999e-05 -7.63311e-07 0)
(5.63792e-05 -7.1454e-07 0)
(5.77597e-05 -6.64515e-07 0)
(5.90388e-05 -6.13325e-07 0)
(6.02144e-05 -5.61059e-07 0)
(6.12843e-05 -5.07809e-07 0)
(6.22468e-05 -4.53669e-07 0)
(6.31001e-05 -3.98734e-07 0)
(6.38426e-05 -3.431e-07 0)
(6.44732e-05 -2.86864e-07 0)
(6.49908e-05 -2.30126e-07 0)
(6.53943e-05 -1.72984e-07 0)
(6.56831e-05 -1.15539e-07 0)
(6.58567e-05 -5.78918e-08 0)
(6.59148e-05 -1.43601e-10 0)
(6.58573e-05 5.76045e-08 0)
(6.56842e-05 1.15251e-07 0)
(6.5396e-05 1.72695e-07 0)
(6.49931e-05 2.29836e-07 0)
(6.44761e-05 2.86573e-07 0)
(6.38461e-05 3.42808e-07 0)
(6.31041e-05 3.9844e-07 0)
(6.22514e-05 4.53374e-07 0)
(6.12896e-05 5.07512e-07 0)
(6.02202e-05 5.60759e-07 0)
(5.90452e-05 6.13023e-07 0)
(5.77667e-05 6.64212e-07 0)
(5.63869e-05 7.14235e-07 0)
(5.49081e-05 7.63006e-07 0)
(5.33331e-05 8.10438e-07 0)
(5.16645e-05 8.56448e-07 0)
(4.99053e-05 9.00957e-07 0)
(4.80586e-05 9.43886e-07 0)
(4.61276e-05 9.8516e-07 0)
(4.41157e-05 1.02471e-06 0)
(4.20264e-05 1.06246e-06 0)
(3.98634e-05 1.09835e-06 0)
(3.76305e-05 1.13231e-06 0)
(3.53316e-05 1.16429e-06 0)
(3.29707e-05 1.19424e-06 0)
(3.05519e-05 1.22209e-06 0)
(2.80795e-05 1.24781e-06 0)
(2.55578e-05 1.27135e-06 0)
(2.29912e-05 1.29269e-06 0)
(2.03841e-05 1.31177e-06 0)
(1.77411e-05 1.32859e-06 0)
(1.50667e-05 1.34313e-06 0)
(1.23655e-05 1.35537e-06 0)
(9.6421e-06 1.36533e-06 0)
(6.90105e-06 1.37303e-06 0)
(4.14676e-06 1.37854e-06 0)
(1.3834e-06 1.38194e-06 0)
(-1.38678e-06 4.14932e-06 0)
(-4.1568e-06 4.13921e-06 0)
(-6.91772e-06 4.12268e-06 0)
(-9.66532e-06 4.09955e-06 0)
(-1.23952e-05 4.06964e-06 0)
(-1.51028e-05 4.03287e-06 0)
(-1.77836e-05 3.98923e-06 0)
(-2.04329e-05 3.93873e-06 0)
(-2.30461e-05 3.88142e-06 0)
(-2.56189e-05 3.81738e-06 0)
(-2.81466e-05 3.74669e-06 0)
(-3.06249e-05 3.66946e-06 0)
(-3.30494e-05 3.58582e-06 0)
(-3.5416e-05 3.49591e-06 0)
(-3.77204e-05 3.39989e-06 0)
(-3.99587e-05 3.29791e-06 0)
(-4.21268e-05 3.19015e-06 0)
(-4.42211e-05 3.0768e-06 0)
(-4.62378e-05 2.95805e-06 0)
(-4.81734e-05 2.83413e-06 0)
(-5.00245e-05 2.70523e-06 0)
(-5.17879e-05 2.57158e-06 0)
(-5.34605e-05 2.43343e-06 0)
(-5.50393e-05 2.29101e-06 0)
(-5.65216e-05 2.14457e-06 0)
(-5.79047e-05 1.99437e-06 0)
(-5.91863e-05 1.84068e-06 0)
(-6.03641e-05 1.68375e-06 0)
(-6.1436e-05 1.52386e-06 0)
(-6.24001e-05 1.36131e-06 0)
(-6.32549e-05 1.19636e-06 0)
(-6.39986e-05 1.02932e-06 0)
(-6.46302e-05 8.60471e-07 0)
(-6.51483e-05 6.9011e-07 0)
(-6.55522e-05 5.18538e-07 0)
(-6.58412e-05 3.46055e-07 0)
(-6.60146e-05 1.72964e-07 0)
(-6.60723e-05 -4.30996e-10 0)
(-6.6014e-05 -1.73827e-07 0)
(-6.584e-05 -3.46919e-07 0)
(-6.55505e-05 -5.19403e-07 0)
(-6.5146e-05 -6.90978e-07 0)
(-6.46273e-05 -8.61343e-07 0)
(-6.39952e-05 -1.0302e-06 0)
(-6.32508e-05 -1.19725e-06 0)
(-6.23955e-05 -1.3622e-06 0)
(-6.14307e-05 -1.52476e-06 0)
(-6.03582e-05 -1.68464e-06 0)
(-5.91799e-05 -1.84158e-06 0)
(-5.78977e-05 -1.99528e-06 0)
(-5.65139e-05 -2.14549e-06 0)
(-5.5031e-05 -2.29193e-06 0)
(-5.34516e-05 -2.43435e-06 0)
(-5.17784e-05 -2.57251e-06 0)
(-5.00144e-05 -2.70615e-06 0)
(-4.81627e-05 -2.83504e-06 0)
(-4.62265e-05 -2.95897e-06 0)
(-4.42091e-05 -3.0777e-06 0)
(-4.21143e-05 -3.19104e-06 0)
(-3.99455e-05 -3.29877e-06 0)
(-3.77067e-05 -3.40072e-06 0)
(-3.54018e-05 -3.49671e-06 0)
(-3.30347e-05 -3.58656e-06 0)
(-3.06097e-05 -3.67012e-06 0)
(-2.81309e-05 -3.74724e-06 0)
(-2.56029e-05 -3.81779e-06 0)
(-2.30299e-05 -3.88165e-06 0)
(-2.04165e-05 -3.93869e-06 0)
(-1.77673e-05 -3.98882e-06 0)
(-1.5087e-05 -4.03196e-06 0)
(-1.23801e-05 -4.06802e-06 0)
(-9.6516e-06 -4.09695e-06 0)
(-6.90612e-06 -4.11869e-06 0)
(-4.14852e-06 -4.1332e-06 0)
(-1.38366e-06 -4.14047e-06 0)
(1.38365e-06 -4.14047e-06 0)
(4.14852e-06 -4.1332e-06 0)
(6.90611e-06 -4.11869e-06 0)
(9.65159e-06 -4.09695e-06 0)
(1.23801e-05 -4.06802e-06 0)
(1.5087e-05 -4.03196e-06 0)
(1.77673e-05 -3.98882e-06 0)
(2.04165e-05 -3.93869e-06 0)
(2.30299e-05 -3.88165e-06 0)
(2.56029e-05 -3.81779e-06 0)
(2.81309e-05 -3.74724e-06 0)
(3.06097e-05 -3.67012e-06 0)
(3.30347e-05 -3.58656e-06 0)
(3.54017e-05 -3.49671e-06 0)
(3.77067e-05 -3.40072e-06 0)
(3.99455e-05 -3.29877e-06 0)
(4.21143e-05 -3.19103e-06 0)
(4.42091e-05 -3.0777e-06 0)
(4.62265e-05 -2.95897e-06 0)
(4.81627e-05 -2.83504e-06 0)
(5.00144e-05 -2.70615e-06 0)
(5.17784e-05 -2.57251e-06 0)
(5.34516e-05 -2.43435e-06 0)
(5.5031e-05 -2.29193e-06 0)
(5.65139e-05 -2.14549e-06 0)
(5.78977e-05 -1.99528e-06 0)
(5.91799e-05 -1.84158e-06 0)
(6.03582e-05 -1.68464e-06 0)
(6.14307e-05 -1.52476e-06 0)
(6.23955e-05 -1.3622e-06 0)
(6.32508e-05 -1.19725e-06 0)
(6.39952e-05 -1.0302e-06 0)
(6.46273e-05 -8.61343e-07 0)
(6.5146e-05 -6.90979e-07 0)
(6.55505e-05 -5.19404e-07 0)
(6.584e-05 -3.46919e-07 0)
(6.6014e-05 -1.73826e-07 0)
(6.60723e-05 -4.30454e-10 0)
(6.60146e-05 1.72965e-07 0)
(6.58412e-05 3.46056e-07 0)
(6.55522e-05 5.18538e-07 0)
(6.51483e-05 6.9011e-07 0)
(6.46302e-05 8.60471e-07 0)
(6.39986e-05 1.02932e-06 0)
(6.32549e-05 1.19636e-06 0)
(6.24001e-05 1.36131e-06 0)
(6.1436e-05 1.52386e-06 0)
(6.03641e-05 1.68375e-06 0)
(5.91863e-05 1.84067e-06 0)
(5.79047e-05 1.99437e-06 0)
(5.65216e-05 2.14457e-06 0)
(5.50393e-05 2.29101e-06 0)
(5.34605e-05 2.43343e-06 0)
(5.17879e-05 2.57159e-06 0)
(5.00245e-05 2.70523e-06 0)
(4.81734e-05 2.83413e-06 0)
(4.62378e-05 2.95806e-06 0)
(4.42211e-05 3.0768e-06 0)
(4.21268e-05 3.19015e-06 0)
(3.99586e-05 3.29791e-06 0)
(3.77204e-05 3.39989e-06 0)
(3.5416e-05 3.49591e-06 0)
(3.30494e-05 3.58582e-06 0)
(3.06249e-05 3.66946e-06 0)
(2.81466e-05 3.74669e-06 0)
(2.56189e-05 3.81738e-06 0)
(2.30461e-05 3.88142e-06 0)
(2.04329e-05 3.93873e-06 0)
(1.77835e-05 3.98923e-06 0)
(1.51028e-05 4.03287e-06 0)
(1.23952e-05 4.06964e-06 0)
(9.6653e-06 4.09955e-06 0)
(6.91771e-06 4.12267e-06 0)
(4.15683e-06 4.13918e-06 0)
(1.3868e-06 4.14928e-06 0)
(-1.39231e-06 6.92569e-06 0)
(-4.17333e-06 6.90892e-06 0)
(-6.94523e-06 6.88132e-06 0)
(-9.70377e-06 6.84269e-06 0)
(-1.24445e-05 6.79275e-06 0)
(-1.51629e-05 6.73138e-06 0)
(-1.78543e-05 6.65853e-06 0)
(-2.05141e-05 6.57425e-06 0)
(-2.31377e-05 6.4786e-06 0)
(-2.57207e-05 6.3717e-06 0)
(-2.82585e-05 6.25371e-06 0)
(-3.07466e-05 6.12481e-06 0)
(-3.31808e-05 5.98521e-06 0)
(-3.55567e-05 5.83515e-06 0)
(-3.78703e-05 5.67486e-06 0)
(-4.01174e-05 5.50465e-06 0)
(-4.22942e-05 5.32478e-06 0)
(-4.43968e-05 5.13559e-06 0)
(-4.64215e-05 4.93739e-06 0)
(-4.83648e-05 4.73054e-06 0)
(-5.02233e-05 4.51539e-06 0)
(-5.19937e-05 4.29232e-06 0)
(-5.36729e-05 4.06173e-06 0)
(-5.5258e-05 3.82401e-06 0)
(-5.67461e-05 3.57958e-06 0)
(-5.81348e-05 3.32888e-06 0)
(-5.94214e-05 3.07234e-06 0)
(-6.06039e-05 2.8104e-06 0)
(-6.16801e-05 2.54354e-06 0)
(-6.26481e-05 2.27221e-06 0)
(-6.35062e-05 1.99689e-06 0)
(-6.42529e-05 1.71808e-06 0)
(-6.4887e-05 1.43624e-06 0)
(-6.54072e-05 1.15189e-06 0)
(-6.58127e-05 8.65511e-07 0)
(-6.61028e-05 5.77614e-07 0)
(-6.62769e-05 2.88703e-07 0)
(-6.63348e-05 -7.17598e-10 0)
(-6.62763e-05 -2.90138e-07 0)
(-6.61016e-05 -5.79052e-07 0)
(-6.5811e-05 -8.66953e-07 0)
(-6.54049e-05 -1.15333e-06 0)
(-6.48841e-05 -1.4377e-06 0)
(-6.42495e-05 -1.71954e-06 0)
(-6.35021e-05 -1.99836e-06 0)
(-6.26434e-05 -2.27369e-06 0)
(-6.16749e-05 -2.54502e-06 0)
(-6.05981e-05 -2.8119e-06 0)
(-5.9415e-05 -3.07384e-06 0)
(-5.81277e-05 -3.33039e-06 0)
(-5.67385e-05 -3.58111e-06 0)
(-5.52497e-05 -3.82554e-06 0)
(-5.3664e-05 -4.06326e-06 0)
(-5.19842e-05 -4.29386e-06 0)
(-5.02132e-05 -4.51693e-06 0)
(-4.83541e-05 -4.73207e-06 0)
(-4.64102e-05 -4.93892e-06 0)
(-4.43848e-05 -5.1371e-06 0)
(-4.22816e-05 -5.32627e-06 0)
(-4.01043e-05 -5.5061e-06 0)
(-3.78566e-05 -5.67627e-06 0)
(-3.55424e-05 -5.83648e-06 0)
(-3.3166e-05 -5.98645e-06 0)
(-3.07313e-05 -6.12593e-06 0)
(-2.82427e-05 -6.25466e-06 0)
(-2.57046e-05 -6.37241e-06 0)
(-2.31214e-05 -6.47899e-06 0)
(-2.04977e-05 -6.5742e-06 0)
(-1.78379e-05 -6.65788e-06 0)
(-1.51469e-05 -6.72988e-06 0)
(-1.24293e-05 -6.79008e-06 0)
(-9.68995e-06 -6.83836e-06 0)
(-6.93356e-06 -6.87464e-06 0)
(-4.16501e-06 -6.89887e-06 0)
(-1.38916e-06 -6.911e-06 0)
(1.38915e-06 -6.911e-06 0)
(4.165e-06 -6.89887e-06 0)
(6.93356e-06 -6.87465e-06 0)
(9.68995e-06 -6.83836e-06 0)
(1.24293e-05 -6.79008e-06 0)
(1.51469e-05 -6.72988e-06 0)
(1.78379e-05 -6.65788e-06 0)
(2.04977e-05 -6.5742e-06 0)
(2.31214e-05 -6.47899e-06 0)
(2.57046e-05 -6.37241e-06 0)
(2.82427e-05 -6.25466e-06 0)
(3.07313e-05 -6.12593e-06 0)
(3.3166e-05 -5.98645e-06 0)
(3.55424e-05 -5.83648e-06 0)
(3.78566e-05 -5.67626e-06 0)
(4.01043e-05 -5.50609e-06 0)
(4.22816e-05 -5.32627e-06 0)
(4.43848e-05 -5.1371e-06 0)
(4.64102e-05 -4.93891e-06 0)
(4.83541e-05 -4.73207e-06 0)
(5.02132e-05 -4.51693e-06 0)
(5.19842e-05 -4.29386e-06 0)
(5.3664e-05 -4.06326e-06 0)
(5.52497e-05 -3.82554e-06 0)
(5.67385e-05 -3.58111e-06 0)
(5.81277e-05 -3.33039e-06 0)
(5.9415e-05 -3.07384e-06 0)
(6.05981e-05 -2.8119e-06 0)
(6.16749e-05 -2.54502e-06 0)
(6.26434e-05 -2.27369e-06 0)
(6.35021e-05 -1.99836e-06 0)
(6.42495e-05 -1.71954e-06 0)
(6.48841e-05 -1.4377e-06 0)
(6.54049e-05 -1.15333e-06 0)
(6.5811e-05 -8.66953e-07 0)
(6.61016e-05 -5.79052e-07 0)
(6.62763e-05 -2.90138e-07 0)
(6.63348e-05 -7.16924e-10 0)
(6.62769e-05 2.88703e-07 0)
(6.61028e-05 5.77615e-07 0)
(6.58127e-05 8.65512e-07 0)
(6.54072e-05 1.15189e-06 0)
(6.4887e-05 1.43624e-06 0)
(6.42529e-05 1.71808e-06 0)
(6.35062e-05 1.99689e-06 0)
(6.26481e-05 2.27221e-06 0)
(6.16801e-05 2.54354e-06 0)
(6.06039e-05 2.8104e-06 0)
(5.94214e-05 3.07233e-06 0)
(5.81348e-05 3.32888e-06 0)
(5.67461e-05 3.57958e-06 0)
(5.5258e-05 3.82401e-06 0)
(5.36729e-05 4.06173e-06 0)
(5.19937e-05 4.29232e-06 0)
(5.02233e-05 4.51539e-06 0)
(4.83648e-05 4.73054e-06 0)
(4.64215e-05 4.93739e-06 0)
(4.43968e-05 5.13559e-06 0)
(4.22942e-05 5.32478e-06 0)
(4.01174e-05 5.50465e-06 0)
(3.78703e-05 5.67486e-06 0)
(3.55567e-05 5.83515e-06 0)
(3.31808e-05 5.98521e-06 0)
(3.07466e-05 6.12481e-06 0)
(2.82585e-05 6.25371e-06 0)
(2.57207e-05 6.3717e-06 0)
(2.31377e-05 6.4786e-06 0)
(2.05141e-05 6.57425e-06 0)
(1.78543e-05 6.65853e-06 0)
(1.51629e-05 6.73138e-06 0)
(1.24445e-05 6.79275e-06 0)
(9.70376e-06 6.84269e-06 0)
(6.94521e-06 6.88133e-06 0)
(4.17333e-06 6.90893e-06 0)
(1.39232e-06 6.92568e-06 0)
(-1.40005e-06 9.71531e-06 0)
(-4.19653e-06 9.69189e-06 0)
(-6.98387e-06 9.65316e-06 0)
(-9.7578e-06 9.59893e-06 0)
(-1.25138e-05 9.52885e-06 0)
(-1.52473e-05 9.44275e-06 0)
(-1.79537e-05 9.34056e-06 0)
(-2.06283e-05 9.22233e-06 0)
(-2.32666e-05 9.08815e-06 0)
(-2.5864e-05 8.9382e-06 0)
(-2.84158e-05 8.77268e-06 0)
(-3.09178e-05 8.59187e-06 0)
(-3.33656e-05 8.39604e-06 0)
(-3.57547e-05 8.18553e-06 0)
(-3.80812e-05 7.96069e-06 0)
(-4.03408e-05 7.7219e-06 0)
(-4.25297e-05 7.46959e-06 0)
(-4.4644e-05 7.20419e-06 0)
(-4.668e-05 6.92616e-06 0)
(-4.86341e-05 6.63599e-06 0)
(-5.0503e-05 6.33418e-06 0)
(-5.22832e-05 6.02126e-06 0)
(-5.39718e-05 5.69778e-06 0)
(-5.55657e-05 5.36431e-06 0)
(-5.70622e-05 5.02144e-06 0)
(-5.84585e-05 4.66975e-06 0)
(-5.97524e-05 4.30987e-06 0)
(-6.09414e-05 3.94243e-06 0)
(-6.20236e-05 3.56807e-06 0)
(-6.2997e-05 3.18745e-06 0)
(-6.38599e-05 2.80124e-06 0)
(-6.46108e-05 2.41012e-06 0)
(-6.52483e-05 2.01476e-06 0)
(-6.57715e-05 1.61587e-06 0)
(-6.61792e-05 1.21414e-06 0)
(-6.64709e-05 8.1028e-07 0)
(-6.6646e-05 4.04995e-07 0)
(-6.67043e-05 -1.00348e-09 0)
(-6.66455e-05 -4.07003e-07 0)
(-6.64698e-05 -8.12291e-07 0)
(-6.61775e-05 -1.21616e-06 0)
(-6.57692e-05 -1.61789e-06 0)
(-6.52455e-05 -2.01679e-06 0)
(-6.46073e-05 -2.41216e-06 0)
(-6.38558e-05 -2.8033e-06 0)
(-6.29924e-05 -3.18952e-06 0)
(-6.20184e-05 -3.57015e-06 0)
(-6.09356e-05 -3.94452e-06 0)
(-5.9746e-05 -4.31198e-06 0)
(-5.84515e-05 -4.67187e-06 0)
(-5.70545e-05 -5.02357e-06 0)
(-5.55575e-05 -5.36646e-06 0)
(-5.39629e-05 -5.69994e-06 0)
(-5.22738e-05 -6.02342e-06 0)
(-5.04929e-05 -6.33634e-06 0)
(-4.86234e-05 -6.63814e-06 0)
(-4.66687e-05 -6.9283e-06 0)
(-4.46321e-05 -7.20631e-06 0)
(-4.25172e-05 -7.47168e-06 0)
(-4.03277e-05 -7.72394e-06 0)
(-3.80674e-05 -7.96266e-06 0)
(-3.57404e-05 -8.1874e-06 0)
(-3.33507e-05 -8.39779e-06 0)
(-3.09025e-05 -8.59344e-06 0)
(-2.84001e-05 -8.77402e-06 0)
(-2.58478e-05 -8.93921e-06 0)
(-2.32502e-05 -9.08872e-06 0)
(-2.06118e-05 -9.22228e-06 0)
(-1.79373e-05 -9.33967e-06 0)
(-1.52313e-05 -9.44067e-06 0)
(-1.24986e-05 -9.52511e-06 0)
(-9.74393e-06 -9.59284e-06 0)
(-6.97219e-06 -9.64374e-06 0)
(-4.18821e-06 -9.67773e-06 0)
(-1.39689e-06 -9.69474e-06 0)
(1.39689e-06 -9.69474e-06 0)
(4.18821e-06 -9.67773e-06 0)
(6.97218e-06 -9.64374e-06 0)
(9.74392e-06 -9.59284e-06 0)
(1.24986e-05 -9.52511e-06 0)
(1.52313e-05 -9.44067e-06 0)
(1.79373e-05 -9.33967e-06 0)
(2.06118e-05 -9.22228e-06 0)
(2.32502e-05 -9.08872e-06 0)
(2.58478e-05 -8.93921e-06 0)
(2.84001e-05 -8.77402e-06 0)
(3.09025e-05 -8.59344e-06 0)
(3.33507e-05 -8.39779e-06 0)
(3.57404e-05 -8.1874e-06 0)
(3.80674e-05 -7.96266e-06 0)
(4.03277e-05 -7.72394e-06 0)
(4.25172e-05 -7.47168e-06 0)
(4.46321e-05 -7.20631e-06 0)
(4.66687e-05 -6.9283e-06 0)
(4.86234e-05 -6.63814e-06 0)
(5.04929e-05 -6.33634e-06 0)
(5.22738e-05 -6.02342e-06 0)
(5.39629e-05 -5.69994e-06 0)
(5.55575e-05 -5.36646e-06 0)
(5.70545e-05 -5.02357e-06 0)
(5.84515e-05 -4.67187e-06 0)
(5.9746e-05 -4.31198e-06 0)
(6.09356e-05 -3.94452e-06 0)
(6.20184e-05 -3.57015e-06 0)
(6.29924e-05 -3.18952e-06 0)
(6.38558e-05 -2.8033e-06 0)
(6.46073e-05 -2.41216e-06 0)
(6.52455e-05 -2.01679e-06 0)
(6.57692e-05 -1.61789e-06 0)
(6.61775e-05 -1.21616e-06 0)
(6.64698e-05 -8.12291e-07 0)
(6.66455e-05 -4.07003e-07 0)
(6.67043e-05 -1.00301e-09 0)
(6.6646e-05 4.04995e-07 0)
(6.64709e-05 8.10281e-07 0)
(6.61792e-05 1.21414e-06 0)
(6.57715e-05 1.61587e-06 0)
(6.52483e-05 2.01476e-06 0)
(6.46108e-05 2.41012e-06 0)
(6.38599e-05 2.80124e-06 0)
(6.2997e-05 3.18745e-06 0)
(6.20236e-05 3.56807e-06 0)
(6.09414e-05 3.94243e-06 0)
(5.97524e-05 4.30987e-06 0)
(5.84585e-05 4.66975e-06 0)
(5.70622e-05 5.02144e-06 0)
(5.55657e-05 5.36432e-06 0)
(5.39718e-05 5.69779e-06 0)
(5.22832e-05 6.02126e-06 0)
(5.0503e-05 6.33418e-06 0)
(4.86341e-05 6.63599e-06 0)
(4.668e-05 6.92616e-06 0)
(4.4644e-05 7.20419e-06 0)
(4.25297e-05 7.46959e-06 0)
(4.03408e-05 7.7219e-06 0)
(3.80812e-05 7.96069e-06 0)
(3.57547e-05 8.18553e-06 0)
(3.33655e-05 8.39604e-06 0)
(3.09178e-05 8.59187e-06 0)
(2.84158e-05 8.77268e-06 0)
(2.58639e-05 8.9382e-06 0)
(2.32666e-05 9.08815e-06 0)
(2.06283e-05 9.22233e-06 0)
(1.79537e-05 9.34056e-06 0)
(1.52473e-05 9.44275e-06 0)
(1.25138e-05 9.52885e-06 0)
(9.75779e-06 9.59893e-06 0)
(6.98387e-06 9.65317e-06 0)
(4.19653e-06 9.69191e-06 0)
(1.40006e-06 9.71533e-06 0)
(-1.41011e-06 1.25227e-05 0)
(-4.22668e-06 1.24926e-05 0)
(-7.03406e-06 1.24427e-05 0)
(-9.82795e-06 1.23728e-05 0)
(-1.26038e-05 1.22824e-05 0)
(-1.5357e-05 1.21714e-05 0)
(-1.80828e-05 1.20397e-05 0)
(-2.07767e-05 1.18873e-05 0)
(-2.3434e-05 1.17143e-05 0)
(-2.605e-05 1.15211e-05 0)
(-2.86202e-05 1.13077e-05 0)
(-3.11402e-05 1.10746e-05 0)
(-3.36055e-05 1.08222e-05 0)
(-3.60119e-05 1.05509e-05 0)
(-3.83551e-05 1.02611e-05 0)
(-4.0631e-05 9.9533e-06 0)
(-4.28356e-05 9.62808e-06 0)
(-4.49651e-05 9.28599e-06 0)
(-4.70157e-05 8.92761e-06 0)
(-4.89839e-05 8.55359e-06 0)
(-5.08662e-05 8.16457e-06 0)
(-5.26593e-05 7.76123e-06 0)
(-5.436e-05 7.34428e-06 0)
(-5.59653e-05 6.91444e-06 0)
(-5.74726e-05 6.47248e-06 0)
(-5.8879e-05 6.01917e-06 0)
(-6.01821e-05 5.55529e-06 0)
(-6.13797e-05 5.08167e-06 0)
(-6.24697e-05 4.59914e-06 0)
(-6.34501e-05 4.10854e-06 0)
(-6.43192e-05 3.61072e-06 0)
(-6.50755e-05 3.10657e-06 0)
(-6.57176e-05 2.59697e-06 0)
(-6.62445e-05 2.08281e-06 0)
(-6.66552e-05 1.565e-06 0)
(-6.6949e-05 1.04443e-06 0)
(-6.71254e-05 5.22031e-07 0)
(-6.7184e-05 -1.28839e-09 0)
(-6.71248e-05 -5.24609e-07 0)
(-6.69479e-05 -1.04701e-06 0)
(-6.66535e-05 -1.56759e-06 0)
(-6.62423e-05 -2.08541e-06 0)
(-6.57148e-05 -2.59958e-06 0)
(-6.5072e-05 -3.1092e-06 0)
(-6.43152e-05 -3.61336e-06 0)
(-6.34455e-05 -4.11119e-06 0)
(-6.24645e-05 -4.60182e-06 0)
(-6.13739e-05 -5.08437e-06 0)
(-6.01757e-05 -5.55801e-06 0)
(-5.8872e-05 -6.0219e-06 0)
(-5.74649e-05 -6.47523e-06 0)
(-5.59571e-05 -6.91721e-06 0)
(-5.43511e-05 -7.34705e-06 0)
(-5.26498e-05 -7.76401e-06 0)
(-5.08561e-05 -8.16735e-06 0)
(-4.89732e-05 -8.55637e-06 0)
(-4.70044e-05 -8.93038e-06 0)
(-4.49531e-05 -9.28872e-06 0)
(-4.2823e-05 -9.63077e-06 0)
(-4.06178e-05 -9.95593e-06 0)
(-3.83413e-05 -1.02636e-05 0)
(-3.59975e-05 -1.05533e-05 0)
(-3.35906e-05 -1.08245e-05 0)
(-3.11248e-05 -1.10767e-05 0)
(-2.86044e-05 -1.13095e-05 0)
(-2.60338e-05 -1.15224e-05 0)
(-2.34175e-05 -1.17151e-05 0)
(-2.07601e-05 -1.18873e-05 0)
(-1.80664e-05 -1.20386e-05 0)
(-1.53409e-05 -1.21687e-05 0)
(-1.25885e-05 -1.22776e-05 0)
(-9.81403e-06 -1.23649e-05 0)
(-7.02235e-06 -1.24305e-05 0)
(-4.21834e-06 -1.24743e-05 0)
(-1.40694e-06 -1.24962e-05 0)
(1.40694e-06 -1.24962e-05 0)
(4.21834e-06 -1.24743e-05 0)
(7.02234e-06 -1.24305e-05 0)
(9.81402e-06 -1.23649e-05 0)
(1.25885e-05 -1.22776e-05 0)
(1.53409e-05 -1.21687e-05 0)
(1.80663e-05 -1.20386e-05 0)
(2.07601e-05 -1.18873e-05 0)
(2.34175e-05 -1.17151e-05 0)
(2.60338e-05 -1.15224e-05 0)
(2.86044e-05 -1.13095e-05 0)
(3.11248e-05 -1.10767e-05 0)
(3.35906e-05 -1.08245e-05 0)
(3.59975e-05 -1.05533e-05 0)
(3.83413e-05 -1.02636e-05 0)
(4.06178e-05 -9.95593e-06 0)
(4.2823e-05 -9.63077e-06 0)
(4.49531e-05 -9.28872e-06 0)
(4.70044e-05 -8.93037e-06 0)
(4.89732e-05 -8.55637e-06 0)
(5.08561e-05 -8.16735e-06 0)
(5.26498e-05 -7.76401e-06 0)
(5.43511e-05 -7.34705e-06 0)
(5.59571e-05 -6.91721e-06 0)
(5.74649e-05 -6.47523e-06 0)
(5.8872e-05 -6.0219e-06 0)
(6.01757e-05 -5.55801e-06 0)
(6.13739e-05 -5.08437e-06 0)
(6.24645e-05 -4.60182e-06 0)
(6.34455e-05 -4.11119e-06 0)
(6.43152e-05 -3.61336e-06 0)
(6.5072e-05 -3.1092e-06 0)
(6.57148e-05 -2.59958e-06 0)
(6.62423e-05 -2.08541e-06 0)
(6.66535e-05 -1.56759e-06 0)
(6.69479e-05 -1.04701e-06 0)
(6.71248e-05 -5.24609e-07 0)
(6.7184e-05 -1.28818e-09 0)
(6.71254e-05 5.22032e-07 0)
(6.6949e-05 1.04443e-06 0)
(6.66552e-05 1.565e-06 0)
(6.62445e-05 2.08281e-06 0)
(6.57176e-05 2.59697e-06 0)
(6.50755e-05 3.10657e-06 0)
(6.43192e-05 3.61072e-06 0)
(6.34501e-05 4.10854e-06 0)
(6.24697e-05 4.59914e-06 0)
(6.13797e-05 5.08167e-06 0)
(6.01821e-05 5.55529e-06 0)
(5.8879e-05 6.01917e-06 0)
(5.74726e-05 6.47248e-06 0)
(5.59653e-05 6.91444e-06 0)
(5.436e-05 7.34428e-06 0)
(5.26593e-05 7.76123e-06 0)
(5.08662e-05 8.16457e-06 0)
(4.89839e-05 8.55359e-06 0)
(4.70157e-05 8.92761e-06 0)
(4.49651e-05 9.28599e-06 0)
(4.28356e-05 9.62808e-06 0)
(4.0631e-05 9.9533e-06 0)
(3.83551e-05 1.02611e-05 0)
(3.60119e-05 1.05509e-05 0)
(3.36055e-05 1.08222e-05 0)
(3.11402e-05 1.10746e-05 0)
(2.86202e-05 1.13077e-05 0)
(2.605e-05 1.15211e-05 0)
(2.34339e-05 1.17143e-05 0)
(2.07767e-05 1.18873e-05 0)
(1.80828e-05 1.20397e-05 0)
(1.5357e-05 1.21714e-05 0)
(1.26038e-05 1.22824e-05 0)
(9.82794e-06 1.23728e-05 0)
(7.03406e-06 1.24427e-05 0)
(4.22668e-06 1.24926e-05 0)
(1.41012e-06 1.25227e-05 0)
(-1.42255e-06 1.53526e-05 0)
(-4.26396e-06 1.53157e-05 0)
(-7.0961e-06 1.52545e-05 0)
(-9.91464e-06 1.51688e-05 0)
(-1.2715e-05 1.5058e-05 0)
(-1.54925e-05 1.49219e-05 0)
(-1.82424e-05 1.47604e-05 0)
(-2.096e-05 1.45736e-05 0)
(-2.36407e-05 1.43615e-05 0)
(-2.62798e-05 1.41246e-05 0)
(-2.88728e-05 1.3863e-05 0)
(-3.1415e-05 1.35773e-05 0)
(-3.39021e-05 1.32678e-05 0)
(-3.63297e-05 1.29352e-05 0)
(-3.86935e-05 1.25799e-05 0)
(-4.09895e-05 1.22026e-05 0)
(-4.32136e-05 1.18038e-05 0)
(-4.53619e-05 1.13844e-05 0)
(-4.74306e-05 1.09451e-05 0)
(-4.94162e-05 1.04865e-05 0)
(-5.13151e-05 1.00096e-05 0)
(-5.3124e-05 9.51512e-06 0)
(-5.48397e-05 9.00395e-06 0)
(-5.64592e-05 8.47698e-06 0)
(-5.79797e-05 7.93515e-06 0)
(-5.93986e-05 7.37939e-06 0)
(-6.07132e-05 6.81069e-06 0)
(-6.19214e-05 6.23004e-06 0)
(-6.3021e-05 5.63846e-06 0)
(-6.401e-05 5.03699e-06 0)
(-6.48868e-05 4.42668e-06 0)
(-6.56498e-05 3.80861e-06 0)
(-6.62976e-05 3.18385e-06 0)
(-6.68292e-05 2.5535e-06 0)
(-6.72435e-05 1.91866e-06 0)
(-6.75399e-05 1.28046e-06 0)
(-6.77178e-05 6.40008e-07 0)
(-6.7777e-05 -1.57203e-09 0)
(-6.77173e-05 -6.43154e-07 0)
(-6.75388e-05 -1.28361e-06 0)
(-6.72418e-05 -1.92182e-06 0)
(-6.68269e-05 -2.55667e-06 0)
(-6.62948e-05 -3.18703e-06 0)
(-6.56464e-05 -3.81181e-06 0)
(-6.48828e-05 -4.42991e-06 0)
(-6.40054e-05 -5.04024e-06 0)
(-6.30158e-05 -5.64174e-06 0)
(-6.19156e-05 -6.23334e-06 0)
(-6.07069e-05 -6.81401e-06 0)
(-5.93916e-05 -7.38273e-06 0)
(-5.79721e-05 -7.93851e-06 0)
(-5.6451e-05 -8.48036e-06 0)
(-5.48308e-05 -9.00734e-06 0)
(-5.31145e-05 -9.51853e-06 0)
(-5.1305e-05 -1.0013e-05 0)
(-4.94055e-05 -1.04899e-05 0)
(-4.74193e-05 -1.09485e-05 0)
(-4.53499e-05 -1.13878e-05 0)
(-4.3201e-05 -1.18072e-05 0)
(-4.09763e-05 -1.22058e-05 0)
(-3.86797e-05 -1.2583e-05 0)
(-3.63153e-05 -1.29382e-05 0)
(-3.38871e-05 -1.32706e-05 0)
(-3.13995e-05 -1.35798e-05 0)
(-2.88569e-05 -1.38652e-05 0)
(-2.62636e-05 -1.41262e-05 0)
(-2.36242e-05 -1.43625e-05 0)
(-2.09434e-05 -1.45736e-05 0)
(-1.82258e-05 -1.47591e-05 0)
(-1.54763e-05 -1.49187e-05 0)
(-1.26996e-05 -1.50521e-05 0)
(-9.90066e-06 -1.51591e-05 0)
(-7.08433e-06 -1.52396e-05 0)
(-4.25558e-06 -1.52933e-05 0)
(-1.41936e-06 -1.53202e-05 0)
(1.41935e-06 -1.53202e-05 0)
(4.25557e-06 -1.52933e-05 0)
(7.08432e-06 -1.52396e-05 0)
(9.90065e-06 -1.51591e-05 0)
(1.26996e-05 -1.50521e-05 0)
(1.54763e-05 -1.49187e-05 0)
(1.82258e-05 -1.47591e-05 0)
(2.09434e-05 -1.45736e-05 0)
(2.36242e-05 -1.43625e-05 0)
(2.62636e-05 -1.41262e-05 0)
(2.88568e-05 -1.38652e-05 0)
(3.13995e-05 -1.35798e-05 0)
(3.38871e-05 -1.32706e-05 0)
(3.63153e-05 -1.29382e-05 0)
(3.86797e-05 -1.2583e-05 0)
(4.09763e-05 -1.22058e-05 0)
(4.3201e-05 -1.18072e-05 0)
(4.53499e-05 -1.13878e-05 0)
(4.74193e-05 -1.09485e-05 0)
(4.94055e-05 -1.04899e-05 0)
(5.1305e-05 -1.0013e-05 0)
(5.31145e-05 -9.51853e-06 0)
(5.48308e-05 -9.00734e-06 0)
(5.6451e-05 -8.48036e-06 0)
(5.79721e-05 -7.93851e-06 0)
(5.93916e-05 -7.38273e-06 0)
(6.07068e-05 -6.81401e-06 0)
(6.19156e-05 -6.23334e-06 0)
(6.30158e-05 -5.64174e-06 0)
(6.40054e-05 -5.04024e-06 0)
(6.48828e-05 -4.42991e-06 0)
(6.56464e-05 -3.81181e-06 0)
(6.62948e-05 -3.18703e-06 0)
(6.68269e-05 -2.55667e-06 0)
(6.72418e-05 -1.92182e-06 0)
(6.75388e-05 -1.28361e-06 0)
(6.77172e-05 -6.43154e-07 0)
(6.7777e-05 -1.57186e-09 0)
(6.77178e-05 6.40009e-07 0)
(6.75399e-05 1.28046e-06 0)
(6.72435e-05 1.91866e-06 0)
(6.68292e-05 2.5535e-06 0)
(6.62976e-05 3.18385e-06 0)
(6.56498e-05 3.80861e-06 0)
(6.48868e-05 4.42669e-06 0)
(6.401e-05 5.03699e-06 0)
(6.3021e-05 5.63847e-06 0)
(6.19214e-05 6.23004e-06 0)
(6.07132e-05 6.81069e-06 0)
(5.93986e-05 7.37939e-06 0)
(5.79797e-05 7.93515e-06 0)
(5.64592e-05 8.47698e-06 0)
(5.48397e-05 9.00395e-06 0)
(5.3124e-05 9.51512e-06 0)
(5.13151e-05 1.00096e-05 0)
(4.94162e-05 1.04865e-05 0)
(4.74306e-05 1.09451e-05 0)
(4.53619e-05 1.13844e-05 0)
(4.32136e-05 1.18038e-05 0)
(4.09895e-05 1.22026e-05 0)
(3.86935e-05 1.25799e-05 0)
(3.63297e-05 1.29352e-05 0)
(3.39021e-05 1.32678e-05 0)
(3.1415e-05 1.35773e-05 0)
(2.88728e-05 1.3863e-05 0)
(2.62798e-05 1.41246e-05 0)
(2.36407e-05 1.43615e-05 0)
(2.096e-05 1.45736e-05 0)
(1.82424e-05 1.47604e-05 0)
(1.54925e-05 1.49219e-05 0)
(1.2715e-05 1.5058e-05 0)
(9.91464e-06 1.51688e-05 0)
(7.0961e-06 1.52545e-05 0)
(4.26396e-06 1.53157e-05 0)
(1.42255e-06 1.53526e-05 0)
(-1.43742e-06 1.82097e-05 0)
(-4.30852e-06 1.8166e-05 0)
(-7.17025e-06 1.80935e-05 0)
(-1.00182e-05 1.79918e-05 0)
(-1.28479e-05 1.78604e-05 0)
(-1.56544e-05 1.7699e-05 0)
(-1.8433e-05 1.75074e-05 0)
(-2.11791e-05 1.72858e-05 0)
(-2.38878e-05 1.70343e-05 0)
(-2.65545e-05 1.67532e-05 0)
(-2.91745e-05 1.6443e-05 0)
(-3.17433e-05 1.61041e-05 0)
(-3.42564e-05 1.5737e-05 0)
(-3.67094e-05 1.53425e-05 0)
(-3.90979e-05 1.4921e-05 0)
(-4.14179e-05 1.44735e-05 0)
(-4.36653e-05 1.40006e-05 0)
(-4.5836e-05 1.35031e-05 0)
(-4.79264e-05 1.2982e-05 0)
(-4.99327e-05 1.24381e-05 0)
(-5.18514e-05 1.18724e-05 0)
(-5.36792e-05 1.12859e-05 0)
(-5.54129e-05 1.06796e-05 0)
(-5.70493e-05 1.00546e-05 0)
(-5.85858e-05 9.41191e-06 0)
(-6.00194e-05 8.75273e-06 0)
(-6.13478e-05 8.07819e-06 0)
(-6.25686e-05 7.38948e-06 0)
(-6.36797e-05 6.68781e-06 0)
(-6.46791e-05 5.9744e-06 0)
(-6.5565e-05 5.25052e-06 0)
(-6.6336e-05 4.51741e-06 0)
(-6.69906e-05 3.77638e-06 0)
(-6.75277e-05 3.02872e-06 0)
(-6.79464e-05 2.27574e-06 0)
(-6.82459e-05 1.51877e-06 0)
(-6.84257e-05 7.59127e-07 0)
(-6.84855e-05 -1.85403e-09 0)
(-6.84251e-05 -7.62837e-07 0)
(-6.82448e-05 -1.52249e-06 0)
(-6.79447e-05 -2.27947e-06 0)
(-6.75255e-05 -3.03246e-06 0)
(-6.69878e-05 -3.78014e-06 0)
(-6.63326e-05 -4.5212e-06 0)
(-6.55611e-05 -5.25432e-06 0)
(-6.46745e-05 -5.97824e-06 0)
(-6.36746e-05 -6.69167e-06 0)
(-6.25629e-05 -7.39338e-06 0)
(-6.13415e-05 -8.08211e-06 0)
(-6.00125e-05 -8.75668e-06 0)
(-5.85782e-05 -9.41589e-06 0)
(-5.70411e-05 -1.00586e-05 0)
(-5.5404e-05 -1.06836e-05 0)
(-5.36698e-05 -1.129e-05 0)
(-5.18413e-05 -1.18765e-05 0)
(-4.9922e-05 -1.24422e-05 0)
(-4.7915e-05 -1.2986e-05 0)
(-4.5824e-05 -1.35071e-05 0)
(-4.36526e-05 -1.40045e-05 0)
(-4.14047e-05 -1.44773e-05 0)
(-3.90841e-05 -1.49248e-05 0)
(-3.66949e-05 -1.5346e-05 0)
(-3.42414e-05 -1.57404e-05 0)
(-3.17278e-05 -1.61071e-05 0)
(-2.91585e-05 -1.64456e-05 0)
(-2.65381e-05 -1.67552e-05 0)
(-2.38712e-05 -1.70354e-05 0)
(-2.11623e-05 -1.72858e-05 0)
(-1.84164e-05 -1.75058e-05 0)
(-1.56381e-05 -1.76951e-05 0)
(-1.28324e-05 -1.78534e-05 0)
(-1.00042e-05 -1.79803e-05 0)
(-7.1584e-06 -1.80757e-05 0)
(-4.30007e-06 -1.81394e-05 0)
(-1.4342e-06 -1.81713e-05 0)
(1.43419e-06 -1.81713e-05 0)
(4.30006e-06 -1.81394e-05 0)
(7.15839e-06 -1.80757e-05 0)
(1.00042e-05 -1.79803e-05 0)
(1.28324e-05 -1.78534e-05 0)
(1.56381e-05 -1.76951e-05 0)
(1.84164e-05 -1.75058e-05 0)
(2.11623e-05 -1.72858e-05 0)
(2.38712e-05 -1.70354e-05 0)
(2.65381e-05 -1.67552e-05 0)
(2.91585e-05 -1.64456e-05 0)
(3.17278e-05 -1.61071e-05 0)
(3.42414e-05 -1.57404e-05 0)
(3.66949e-05 -1.5346e-05 0)
(3.90841e-05 -1.49248e-05 0)
(4.14047e-05 -1.44773e-05 0)
(4.36526e-05 -1.40045e-05 0)
(4.5824e-05 -1.35071e-05 0)
(4.7915e-05 -1.2986e-05 0)
(4.9922e-05 -1.24422e-05 0)
(5.18413e-05 -1.18765e-05 0)
(5.36698e-05 -1.129e-05 0)
(5.5404e-05 -1.06836e-05 0)
(5.70411e-05 -1.00586e-05 0)
(5.85782e-05 -9.41589e-06 0)
(6.00125e-05 -8.75668e-06 0)
(6.13415e-05 -8.08211e-06 0)
(6.25629e-05 -7.39338e-06 0)
(6.36745e-05 -6.69168e-06 0)
(6.46745e-05 -5.97824e-06 0)
(6.55611e-05 -5.25432e-06 0)
(6.63326e-05 -4.5212e-06 0)
(6.69878e-05 -3.78014e-06 0)
(6.75254e-05 -3.03246e-06 0)