/*--------------------------------*- C++ -*----------------------------------*\
| =========                 |                                                 |
| \\      /  F ield         | OpenFOAM: The Open Source CFD Toolbox           |
|  \\    /   O peration     | Version:  2306                                  |
|   \\  /    A nd           | Website:  www.openfoam.com                      |
|    \\/     M anipulation  |                                                 |
\*---------------------------------------------------------------------------*/
FoamFile
{
    version     2.0;
    format      ascii;
    arch        "LSB;label=32;scalar=64";
    class       surfaceScalarField;
    location    "0.05";
    object      phi;
}
// * * * * * * * * * * * * * * * * * * * * * * * * * * * * * * * * * * * * * //

dimensions      [0 3 -1 0 0 0 0];

oriented        oriented;

internalField   nonuniform List<scalar> 
12640
(
-1.1835523e-07
1.2632089e-06
-4.7317296e-07
3.7820109e-06
-1.0606774e-06
6.2498634e-06
-1.8736504e-06
8.6282658e-06
-2.8998649e-06
1.0871055e-05
-4.1216934e-06
1.2934511e-05
-5.515416e-06
1.4776187e-05
-7.0507121e-06
1.635536e-05
-8.6906595e-06
1.7635273e-05
-1.0392408e-05
1.8585628e-05
-1.2108591e-05
1.9185172e-05
-1.3789452e-05
1.9423984e-05
-1.538546e-05
1.9305114e-05
-1.6850279e-05
1.8845391e-05
-1.814368e-05
1.8074921e-05
-1.9234016e-05
1.7035263e-05
-2.009991e-05
1.5776521e-05
-2.0730956e-05
1.4353694e-05
-2.1127371e-05
1.2822807e-05
-2.1298762e-05
1.1237292e-05
-2.1262385e-05
9.6453014e-06
-2.1041137e-05
8.0880302e-06
-2.0661337e-05
6.5983916e-06
-2.0150703e-05
5.200736e-06
-1.9536654e-05
3.9113306e-06
-1.8845024e-05
2.7393139e-06
-1.809911e-05
1.687838e-06
-1.7318721e-05
7.549461e-07
-1.6520861e-05
-6.4100923e-08
-1.572515e-05
-7.7289741e-07
-1.4935044e-05
-1.384432e-06
-1.4162068e-05
-1.90709e-06
-1.3412452e-05
-2.3498563e-06
-1.2690731e-05
-2.7216045e-06
-1.1999916e-05
-3.030776e-06
-1.1341796e-05
-3.2851958e-06
-1.0717201e-05
-3.4919883e-06
-1.0126227e-05
-3.6575556e-06
-9.5684178e-06
-3.7875932e-06
-9.0429188e-06
-3.8871283e-06
-8.5485936e-06
-3.9605701e-06
-8.0841188e-06
-4.0117674e-06
-7.6480565e-06
-4.0440662e-06
-7.2389099e-06
-4.0603659e-06
-6.8551644e-06
-4.0631728e-06
-6.4953182e-06
-4.0546488e-06
-6.1579046e-06
-4.0366549e-06
-5.841507e-06
-4.0107911e-06
-5.5447691e-06
-3.9784308e-06
-5.2664013e-06
-3.9407518e-06
-5.0051837e-06
-3.8987623e-06
-4.7599676e-06
-3.8533248e-06
-4.5296748e-06
-3.8051759e-06
-4.3132961e-06
-3.754944e-06
-4.109889e-06
-3.703164e-06
-3.9185746e-06
-3.6502909e-06
-3.7385346e-06
-3.5967105e-06
-3.5690075e-06
-3.5427492e-06
-3.409286e-06
-3.4886824e-06
-3.2587128e-06
-3.4347419e-06
-3.1166776e-06
-3.3811215e-06
-2.982614e-06
-3.327983e-06
-2.8559959e-06
-3.2754601e-06
-2.7363353e-06
-3.2236629e-06
-2.623179e-06
-3.1726812e-06
-2.5161062e-06
-3.1225872e-06
-2.4147262e-06
-3.073438e-06
-2.3186761e-06
-3.0252783e-06
-2.2276183e-06
-2.9781417e-06
-2.1412395e-06
-2.9320525e-06
-2.0592479e-06
-2.8870272e-06
-1.9813721e-06
-2.8430756e-06
-1.9073595e-06
-2.8002021e-06
-1.836975e-06
-2.758406e-06
-1.7699993e-06
-2.717683e-06
-1.706228e-06
-2.6780252e-06
-1.6454706e-06
-2.6394223e-06
-1.587549e-06
-2.6018615e-06
-1.5322973e-06
-2.5653285e-06
-2.5298072e-06
-1.3137491e-07
1.3945839e-06
-5.2550628e-07
4.1761423e-06
-1.1791553e-06
6.9035124e-06
-2.0857771e-06
9.5348876e-06
-3.2334964e-06
1.2018774e-05
-4.6043107e-06
1.4305325e-05
-6.1728553e-06
1.6344732e-05
-7.9054258e-06
1.8087931e-05
-9.7596765e-06
1.9489524e-05
-1.1685232e-05
2.0511183e-05
-1.3625381e-05
2.1125321e-05
-1.5519801e-05
2.1318404e-05
-1.7308039e-05
2.1093352e-05
-1.8933517e-05
2.0470868e-05
-2.0347535e-05
1.9488939e-05
-2.1512666e-05
1.8200394e-05
-2.2404998e-05
1.6668853e-05
-2.301493e-05
1.4963626e-05
-2.3346457e-05
1.3154334e-05
-2.3415249e-05
1.1306084e-05
-2.3246184e-05
9.4762362e-06
-2.2870464e-05
7.7123097e-06
-2.2322615e-05
6.0505433e-06
-2.1637865e-05
4.5159862e-06
-2.0850049e-05
3.1235144e-06
-1.9990025e-05
1.8792896e-06
-1.9084073e-05
7.818856e-07
-1.8156257e-05
-1.728697e-07
-1.7228064e-05
-9.9229339e-07
-1.630931e-05
-1.6916515e-06
-1.5412104e-05
-2.2816378e-06
-1.4544754e-05
-2.7744403e-06
-1.3712882e-05
-3.181728e-06
-1.2920029e-05
-3.5144584e-06
-1.216812e-05
-3.7826845e-06
-1.1457854e-05
-3.9954619e-06
-1.0789008e-05
-4.1608343e-06
-1.0160693e-05
-4.2858709e-06
-9.5715516e-06
-4.3767342e-06
-9.0199177e-06
-4.4387622e-06
-8.5039324e-06
-4.4765555e-06
-8.021636e-06
-4.4940638e-06
-7.5710344e-06
-4.4946678e-06
-7.1501467e-06
-4.4812535e-06
-6.75704e-06
-4.4562796e-06
-6.3898515e-06
-4.4218373e-06
-6.0468042e-06
-4.3797021e-06
-5.7262156e-06
-4.3313797e-06
-5.4265016e-06
-4.2781449e-06
-5.1461778e-06
-4.2210756e-06
-4.8838582e-06
-4.1610819e-06
-4.6382525e-06
-4.0989305e-06
-4.4081618e-06
-4.0352666e-06
-4.192474e-06
-3.9706318e-06
-3.9901591e-06
-3.9054789e-06
-3.8002641e-06
-3.840186e-06
-3.6219075e-06
-3.775067e-06
-3.4542748e-06
-3.7103818e-06
-3.2966133e-06
-3.6463439e-06
-3.1482277e-06
-3.5831275e-06
-3.0084754e-06
-3.5208739e-06
-2.8767627e-06
-3.4596956e-06
-2.7525411e-06
-3.3996817e-06
-2.6353033e-06
-3.3409008e-06
-2.5245801e-06
-3.2834043e-06
-2.4199377e-06
-3.2272296e-06
-2.3209744e-06
-3.1724014e-06
-2.2273181e-06
-3.1189346e-06
-2.1386243e-06
-3.0668355e-06
-2.0545735e-06
-3.0161033e-06
-1.9748693e-06
-2.9667313e-06
-1.8992368e-06
-2.9187082e-06
-1.8274205e-06
-2.8720184e-06
-1.7591831e-06
-2.8266434e-06
-1.694304e-06
-2.7825621e-06
-1.6325779e-06
-2.7397514e-06
-1.5738136e-06
-2.6981865e-06
-1.5178333e-06
-2.6578419e-06
-1.4644708e-06
-2.6186909e-06
-2.5807065e-06
-1.4535952e-07
1.5399434e-06
-5.8183904e-07
4.6126218e-06
-1.3072111e-06
7.6288844e-06
-2.316379e-06
1.0544056e-05
-3.5987824e-06
1.3301178e-05
-5.1369676e-06
1.584351e-05
-6.9045535e-06
1.8112318e-05
-8.8645242e-06
2.0047901e-05
-1.0968437e-05
2.1593437e-05
-1.3156864e-05
2.2699611e-05
-1.5361394e-05
2.3329851e-05
-1.7508127e-05
2.3465138e-05
-1.952238e-05
2.3107605e-05
-2.1334149e-05
2.2282637e-05
-2.288371e-05
2.1038499e-05
-2.4126355e-05
1.944304e-05
-2.5035413e-05
1.7577911e-05
-2.5603114e-05
1.5531326e-05
-2.583924e-05
1.3390461e-05
-2.5768157e-05
1.1235002e-05
-2.5425274e-05
9.1333525e-06
-2.4852889e-05
7.1399252e-06
-2.4096152e-05
5.2938061e-06
-2.319965e-05
3.6194847e-06
-2.2204748e-05
2.1286124e-06
-2.1146874e-05
8.2141487e-07
-2.0059787e-05
-3.0520076e-07
-1.8969744e-05
-1.2629132e-06
-1.7892072e-05
-2.0699656e-06
-1.6842506e-05
-2.7412166e-06
-1.5831433e-05
-3.2927109e-06
-1.4865859e-05
-3.7400147e-06
-1.3949983e-05
-4.0976042e-06
-1.3085845e-05
-4.378596e-06
-1.2273878e-05
-4.594652e-06
-1.1513348e-05
-4.7559914e-06
-1.0802713e-05
-4.8714699e-06
-1.0139886e-05
-4.9486974e-06
-9.5224499e-06
-4.9941703e-06
-8.9478051e-06
-5.0134071e-06
-8.413283e-06
-5.0110775e-06
-7.9162254e-06
-4.9911214e-06
-7.4540387e-06
-4.9568545e-06
-7.0242307e-06
-4.9110615e-06
-6.6244329e-06
-4.8560775e-06
-6.2524133e-06
-4.7938569e-06
-5.9060821e-06
-4.7260333e-06
-5.5834921e-06
-4.6539696e-06
-5.2828363e-06
-4.5788007e-06
-5.0024422e-06
-4.5014698e-06
-4.7407649e-06
-4.4227591e-06
-4.4963807e-06
-4.3433148e-06
-4.2679782e-06
-4.2636691e-06
-4.0543513e-06
-4.1842586e-06
-3.8543912e-06
-4.105439e-06
-3.6670787e-06
-4.0274985e-06
-3.4914772e-06
-3.9506686e-06
-3.326726e-06
-3.875133e-06
-3.172034e-06
-3.8010358e-06
-3.0266741e-06
-3.7284875e-06
-2.8899772e-06
-3.6575707e-06
-2.761328e-06
-3.5883448e-06
-2.6401601e-06
-3.5208496e-06
-2.5259517e-06
-3.4551092e-06
-2.4182221e-06
-3.391134e-06
-2.3165277e-06
-3.3289239e-06
-2.2204596e-06
-3.2684694e-06
-2.1296401e-06
-3.2097541e-06
-2.0437202e-06
-3.1527554e-06
-1.9623771e-06
-3.0974464e-06
-1.8853124e-06
-3.0437961e-06
-1.8122495e-06
-2.9917711e-06
-1.7429323e-06
-2.9413355e-06
-1.6771235e-06
-2.8924523e-06
-1.6146024e-06
-2.8450831e-06
-1.5551646e-06
-2.7991892e-06
-1.4986199e-06
-2.7547313e-06
-1.4447914e-06
-2.7116704e-06
-1.3935146e-06
-2.6699677e-06
-2.6295848e-06
-1.6012017e-07
1.7000635e-06
-6.4142583e-07
5.0939274e-06
-1.4433824e-06
8.430841e-06
-2.5634508e-06
1.1664124e-05
-3.993875e-06
1.4731602e-05
-5.7192561e-06
1.7568891e-05
-7.7133248e-06
2.0106386e-05
-9.9361365e-06
2.2270713e-05
-1.2332506e-05
2.3989806e-05
-1.4832108e-05
2.5199213e-05
-1.7351757e-05
2.5849501e-05
-1.9799903e-05
2.5913283e-05
-2.2083042e-05
2.5390744e-05
-2.4113273e-05
2.4312869e-05
-2.5816275e-05
2.2741501e-05
-2.7138038e-05
2.0764803e-05
-2.8048995e-05
1.8488868e-05
-2.854488e-05
1.6027211e-05
-2.8644288e-05
1.3489869e-05
-2.8384099e-05
1.0974813e-05
-2.781433e-05
8.5635831e-06
-2.6992161e-05
6.3177565e-06
-2.5976442e-05
4.2780871e-06
-2.4823165e-05
2.4662082e-06
-2.3580967e-05
8.8641432e-07
-2.2297483e-05
-4.6206979e-07
-2.1006604e-05
-1.5960796e-06
-1.9731342e-05
-2.5381753e-06
-1.8492451e-05
-3.3088563e-06
-1.7303727e-05
-3.9299401e-06
-1.6174007e-05
-4.4224314e-06
-1.5108275e-05
-4.805746e-06
-1.4108604e-05
-5.097276e-06
-1.3174935e-05
-5.3122648e-06
-1.2305725e-05
-5.4638623e-06
-1.1498437e-05
-5.5632784e-06
-1.0749923e-05
-5.6199845e-06
-1.005669e-05
-5.6419303e-06
-9.4151055e-06
-5.6357548e-06
-8.8215309e-06
-5.6069817e-06
-8.2724153e-06
-5.5601931e-06
-7.7643554e-06
-5.4991813e-06
-7.2941312e-06
-5.4270786e-06
-6.8587254e-06
-5.3464673e-06
-6.4553304e-06
-5.2594725e-06
-6.0813478e-06
-5.1678396e-06
-5.7343826e-06
-5.0729985e-06
-5.4122335e-06
-4.9761187e-06
-5.1128817e-06
-4.8781525e-06
-4.8344789e-06
-4.7798726e-06
-4.575335e-06
-4.681903e-06
-4.3339055e-06
-4.5847443e-06
-4.1087797e-06
-4.4887949e-06
-3.8986693e-06
-4.394369e-06
-3.7023976e-06
-4.3017107e-06
-3.5188897e-06
-4.2110064e-06
-3.3471635e-06
-4.1223948e-06
-3.1863208e-06
-4.0359756e-06
-3.0355406e-06
-3.9518161e-06
-2.894071e-06
-3.8699571e-06
-2.7612237e-06
-3.790418e-06
-2.6363678e-06
-3.7132007e-06
-2.5189245e-06
-3.6382928e-06
-2.408363e-06
-3.5656707e-06
-2.3041952e-06
-3.4953018e-06
-2.2059727e-06
-3.4271463e-06
-2.113283e-06
-3.3611592e-06
-2.0257459e-06
-3.2972911e-06
-1.9430115e-06
-3.2354899e-06
-1.8647566e-06
-3.1757012e-06
-1.7906831e-06
-3.1178696e-06
-1.7205156e-06
-3.0619385e-06
-1.6539994e-06
-3.0078518e-06
-1.5908987e-06
-2.955553e-06
-1.5309953e-06
-2.9049866e-06
-1.4740867e-06
-2.8560977e-06
-1.4199854e-06
-2.8088327e-06
-1.3685169e-06
-2.7631389e-06
-1.3195193e-06
-2.7189652e-06
-2.6762619e-06
-1.7537005e-07
1.8754336e-06
-7.0293682e-07
5.6214942e-06
-1.5849036e-06
9.3128078e-06
-2.8228202e-06
1.2902041e-05
-4.4139507e-06
1.6322732e-05
-6.3473368e-06
1.9502278e-05
-8.5987508e-06
2.23578e-05
-1.1126177e-05
2.4798139e-05
-1.3867168e-05
2.6730796e-05
-1.673829e-05
2.8070335e-05
-1.9637587e-05
2.8748798e-05
-2.245031e-05
2.8726006e-05
-2.505767e-05
2.7998104e-05
-2.7347491e-05
2.660269e-05
-2.9225747e-05
2.4619757e-05
-3.0626353e-05
2.2165409e-05
-3.1516927e-05
1.9379441e-05
-3.1899432e-05
1.6409716e-05
-3.180586e-05
1.3396297e-05
-3.1291206e-05
1.0460159e-05
-3.0425869e-05
7.6982457e-06
-2.928698e-05
5.1788678e-06
-2.7950763e-05
2.9418704e-06
-2.6485115e-05
1.0005595e-06
-2.4957729e-05
-6.4097117e-07
-2.3414759e-05
-2.0050399e-06
-2.1890502e-05
-3.1203366e-06
-2.0413365e-05
-4.0153123e-06
-1.9002078e-05
-4.7201431e-06
-1.7668197e-05
-5.2638207e-06
-1.6417739e-05
-5.67289e-06
-1.5252653e-05
-5.9708315e-06
-1.4172024e-05
-6.1779054e-06
-1.3173009e-05
-6.3112796e-06
-1.2251561e-05
-6.3853104e-06
-1.1402951e-05
-6.4118887e-06
-1.0622141e-05
-6.4007943e-06
-9.9040405e-06
-6.3600309e-06
-9.2436717e-06
-6.2961236e-06
-8.6362755e-06
-6.2143779e-06
-8.0773719e-06
-6.1190968e-06
-7.5627898e-06
-6.0137634e-06
-7.0886768e-06
-5.9011916e-06
-6.651496e-06
-5.7836481e-06
-6.2480133e-06
-5.6629552e-06
-5.8752803e-06
-5.5405725e-06
-5.5306151e-06
-5.4176638e-06
-5.2115821e-06
-5.2951517e-06
-4.9159718e-06
-5.1737628e-06
-4.6417804e-06
-5.054064e-06
-4.3871913e-06
-4.9364921e-06
-4.1505574e-06
-4.8213782e-06
-3.9303847e-06
-4.7089676e-06
-3.7253178e-06
-4.5994359e-06
-3.5341261e-06
-4.4929024e-06
-3.3556917e-06
-4.3894407e-06
-3.1889984e-06
-4.2890882e-06
-3.0331213e-06
-4.1918527e-06
-2.8872185e-06
-4.0977189e-06
-2.7505223e-06
-4.0066533e-06
-2.6223327e-06
-3.9186077e-06
-2.50201e-06
-3.8335234e-06
-2.3889699e-06
-3.751333e-06
-2.2826775e-06
-3.6719631e-06
-2.1826432e-06
-3.5953362e-06
-2.0884178e-06
-3.5213717e-06
-1.9995896e-06
-3.4499875e-06
-1.9157798e-06
-3.3811008e-06
-1.8366408e-06
-3.314629e-06
-1.7618522e-06
-3.2504899e-06
-1.691119e-06
-3.1886027e-06
-1.6241693e-06
-3.1288882e-06
-1.5607521e-06
-3.0712689e-06
-1.5006356e-06
-3.0156695e-06
-1.4436053e-06
-2.9620169e-06
-1.3894629e-06
-2.9102401e-06
-1.3380246e-06
-2.8602709e-06
-1.2891202e-06
-2.8120433e-06
-1.2425916e-06
-2.7654939e-06
-2.7205615e-06
-1.9058473e-07
2.0660183e-06
-7.6420562e-07
6.1951151e-06
-1.7271614e-06
1.0275764e-05
-3.087132e-06
1.4262011e-05
-4.8497109e-06
1.8085311e-05
-7.0119942e-06
2.1664561e-05
-9.5550822e-06
2.4900888e-05
-1.2436414e-05
2.7679471e-05
-1.5586043e-05
2.9880426e-05
-1.8904832e-05
3.1389123e-05
-2.2266926e-05
3.2110892e-05
-2.5526776e-05
3.1985856e-05
-2.8531081e-05
3.100241e-05
-3.1134108e-05
2.9205717e-05
-3.3214674e-05
2.6700322e-05
-3.469075e-05
2.3641486e-05
-3.5527661e-05
2.0216352e-05
-3.5738076e-05
1.6620131e-05
-3.5374385e-05
1.3032606e-05
-3.4518037e-05
9.6038098e-06
-3.3267916e-05
6.4481254e-06
-3.1727625e-05
3.6385767e-06
-2.9993112e-05
1.2073577e-06
-2.8161247e-05
-8.3130629e-07
-2.6298375e-05
-2.503843e-06
-2.4455921e-05
-3.8474934e-06
-2.267431e-05
-4.9019476e-06
-2.0979891e-05
-5.7097321e-06
-1.9388286e-05
-6.3117475e-06
-1.7906962e-05
-6.7451452e-06
-1.653752e-05
-7.042332e-06
-1.5277577e-05
-7.2307746e-06
-1.4122213e-05
-7.3332692e-06
-1.3065043e-05
-7.3684498e-06
-1.2098969e-05
-7.3513842e-06
-1.1216693e-05
-7.2941645e-06
-1.0411044e-05
-7.2064434e-06
-9.6751763e-06
-7.0958983e-06
-9.0026823e-06
-6.9686177e-06
-8.3876409e-06
-6.8294193e-06
-7.8246323e-06
-6.6821054e-06
-7.3087278e-06
-6.529668e-06
-6.8354636e-06
-6.3744558e-06
-6.40081e-06
-6.2183018e-06
-6.001137e-06
-6.0626282e-06
-5.6331796e-06
-5.9085299e-06
-5.2940027e-06
-5.7568407e-06
-4.9809682e-06
-5.6081862e-06
-4.6917049e-06
-5.4630261e-06
-4.4240805e-06
-5.3216884e-06
-4.1761766e-06
-5.184396e-06
-3.9462658e-06
-5.051289e-06
-3.7327915e-06
-4.922442e-06
-3.5343494e-06
-4.797878e-06
-3.3496718e-06
-4.67758e-06
-3.1776126e-06
-4.5614999e-06
-3.0171348e-06
-4.4495661e-06
-2.8672986e-06
-4.3416888e-06
-2.7272521e-06
-4.2377654e-06
-2.5962213e-06
-4.137684e-06
-2.4735029e-06
-4.0413262e-06
-2.3584564e-06
-3.9485699e-06
-2.2504983e-06
-3.859291e-06
-2.1490965e-06
-3.773365e-06
-2.0537646e-06
-3.690668e-06
-1.9640581e-06
-3.6110781e-06
-1.8795701e-06
-3.5344755e-06
-1.7999276e-06
-3.4607433e-06
-1.7247885e-06
-3.3897681e-06
-1.6538385e-06
-3.3214399e-06
-1.5867887e-06
-3.2556525e-06
-1.5233732e-06
-3.1923037e-06
-1.4633472e-06
-3.131295e-06
-1.4064847e-06
-3.0725321e-06
-1.3525771e-06
-3.0159244e-06
-1.3014319e-06
-2.9613853e-06
-1.2528709e-06
-2.908832e-06
-1.206729e-06
-2.8581852e-06
-1.1628535e-06
-2.8093694e-06
-2.7623124e-06
-2.0483168e-07
2.27085e-06
-8.2194869e-07
6.8122321e-06
-1.8630033e-06
1.1316818e-05
-3.3444889e-06
1.5743497e-05
-5.2852413e-06
2.0026064e-05
-7.6958245e-06
2.4075144e-05
-1.0568128e-05
2.7773192e-05
-1.3861521e-05
3.0972864e-05
-1.7498843e-05
3.3517748e-05
-2.1362276e-05
3.5252555e-05
-2.5295646e-05
3.6044263e-05
-2.9112242e-05
3.5802452e-05
-3.2610892e-05
3.4501059e-05
-3.5598511e-05
3.2193335e-05
-3.7915599e-05
2.9017411e-05
-3.9458694e-05
2.5184581e-05
-4.0192226e-05
2.0949885e-05
-4.0146958e-05
1.6574863e-05
-3.9406567e-05
1.2292215e-05
-3.8091331e-05
8.2885742e-06
-3.6339865e-05
4.6966589e-06
-3.4288205e-05
1.5869166e-06
-3.2075995e-05
-1.0048523e-06
-2.9803267e-05
-3.1040344e-06
-2.7548163e-05
-4.758947e-06
-2.5370708e-05
-6.0249476e-06
-2.3309593e-05
-6.9630631e-06
-2.1386937e-05
-7.6323882e-06
-1.9612391e-05
-8.0862932e-06
-1.7986848e-05
-8.370688e-06
-1.6505464e-05
-8.523716e-06
-1.5159964e-05
-8.5762745e-06
-1.3940296e-05
-8.5529375e-06
-1.2835748e-05
-8.4729984e-06
-1.183566e-05
-8.3514715e-06
-1.0929852e-05
-8.1999728e-06
-1.0108842e-05
-8.0274528e-06
-9.3639506e-06
-7.8407902e-06
-8.6873166e-06
-7.6452517e-06
-8.0718747e-06
-7.4448611e-06
-7.5113018e-06
-7.2426784e-06
-6.9999571e-06
-7.0410127e-06
-6.5328201e-06
-6.8415927e-06
-6.1054256e-06
-6.6456962e-06
-5.7138033e-06
-6.4542505e-06
-5.354422e-06
-6.2679112e-06
-5.0241396e-06
-6.0871231e-06
-4.7201577e-06
-5.9121681e-06
-4.4399815e-06
-5.7432023e-06
-4.1813846e-06
-5.5802853e-06
-3.9423772e-06
-5.4234034e-06
-3.721179e-06
-5.2724872e-06
-3.5161948e-06
-5.1274261e-06
-3.3259933e-06
-4.9880795e-06
-3.1492883e-06
-4.8542849e-06
-2.9849226e-06
-4.7258657e-06
-2.8318531e-06
-4.6026355e-06
-2.6891388e-06
-4.4844031e-06
-2.5559291e-06
-4.3709751e-06
-2.4314544e-06
-4.2621587e-06
-2.3150171e-06
-4.1577635e-06
-2.2059842e-06
-4.0576028e-06
-2.1037805e-06
-3.9614946e-06
-2.0078828e-06
-3.8692627e-06
-1.917814e-06
-3.7807368e-06
-1.8331393e-06
-3.6957528e-06
-1.7534613e-06
-3.6141535e-06
-1.6784167e-06
-3.5357879e-06
-1.6076728e-06
-3.460512e-06
-1.5409247e-06
-3.388188e-06
-1.4778924e-06
-3.3186848e-06
-1.4183188e-06
-3.2518772e-06
-1.3619675e-06
-3.1876463e-06
-1.3086206e-06
-3.1258789e-06
-1.2580774e-06
-3.0664676e-06
-1.2101528e-06
-3.00931e-06
-1.1646756e-06
-2.9543092e-06
-1.1214876e-06
-2.9013732e-06
-1.0804426e-06
-2.8504144e-06
-2.8013501e-06
-2.1703439e-07
2.4878844e-06
-8.7159186e-07
7.4667896e-06
-1.9819945e-06
1.2427221e-05
-3.5765936e-06
1.7338096e-05
-5.6950658e-06
2.2144536e-05
-8.3690772e-06
2.6749155e-05
-1.1610712e-05
3.1014827e-05
-1.5384653e-05
3.4746804e-05
-1.9607818e-05
3.7740914e-05
-2.4140333e-05
3.978507e-05
-2.8788104e-05
4.0692034e-05
-3.3309349e-05
4.0323696e-05
-3.7435404e-05
3.8627114e-05
-4.0904828e-05
3.566276e-05
-4.3502626e-05
3.1615209e-05
-4.5095945e-05
2.67779e-05
-4.5651454e-05
2.1505393e-05
-4.5230325e-05
1.6153734e-05
-4.396456e-05
1.102645e-05
-4.2031593e-05
6.3556076e-06
-3.9622853e-05
2.2879189e-06
-3.6939654e-05
-1.0962831e-06
-3.4138445e-05
-3.8060609e-06
-3.1340314e-05
-5.9021658e-06
-2.8638468e-05
-7.4607922e-06
-2.6092583e-05
-8.5708329e-06
-2.3735854e-05
-9.3197921e-06
-2.1581636e-05
-9.7866057e-06
-1.9629608e-05
-1.0038322e-05
-1.7870822e-05
-1.0129473e-05
-1.629152e-05
-1.0103018e-05
-1.4875788e-05
-9.9920062e-06
-1.3607283e-05
-9.8214424e-06
-1.2470255e-05
-9.6100264e-06
-1.1450088e-05
-9.3716393e-06
-1.0533526e-05
-9.1165347e-06
-9.7087292e-06
-8.8522494e-06
-8.9652059e-06
-8.5843135e-06
-8.2937076e-06
-8.3167499e-06
-7.68611e-06
-8.0524587e-06
-7.1352868e-06
-7.7935016e-06
-6.6349876e-06
-7.5413118e-06
-6.1797284e-06
-7.296852e-06
-5.7646928e-06
-7.0607318e-06
-5.3856461e-06
-6.8332972e-06
-5.0388592e-06
-6.6146981e-06
-4.7210434e-06
-6.404939e-06
-4.4292931e-06
-6.2039184e-06
-4.1610371e-06
-6.0114582e-06
-3.9139958e-06
-5.8273267e-06
-3.6861442e-06
-5.6512549e-06
-3.4756807e-06
-5.4829507e-06
-3.2809991e-06
-5.3221077e-06
-3.1006651e-06
-5.1684135e-06
-2.9333954e-06
-5.0215546e-06
-2.7780401e-06
-4.8812211e-06
-2.6335666e-06
-4.747109e-06
-2.4990465e-06
-4.6189232e-06
-2.3736435e-06
-4.4963781e-06
-2.2566032e-06
-4.3791991e-06
-2.1472436e-06
-4.2671231e-06
-2.0449478e-06
-4.1598986e-06
-1.9491564e-06
-4.057286e-06
-1.8593617e-06
-3.9590574e-06
-1.7751023e-06
-3.8649962e-06
-1.695958e-06
-3.7748971e-06
-1.6215458e-06
-3.6885656e-06
-1.5515163e-06
-3.6058175e-06
-1.4855498e-06
-3.5264784e-06
-1.4233541e-06
-3.4503837e-06
-1.3646614e-06
-3.3773776e-06
-1.3092257e-06
-3.3073128e-06
-1.2568216e-06
-3.2400505e-06
-1.2072414e-06
-3.1754591e-06
-1.1602942e-06
-3.1134148e-06
-1.1158038e-06
-3.0538003e-06
-1.073608e-06
-2.996505e-06
-1.0335568e-06
-2.9414244e-06
-9.9551148e-07
-2.8884597e-06
-2.8375177e-06
-2.2582113e-07
2.7137055e-06
-9.0722269e-07
8.1481911e-06
-2.0697616e-06
1.358976e-05
-3.7562972e-06
1.9024632e-05
-6.0400622e-06
2.4428301e-05
-8.9834767e-06
2.969257e-05
-1.2636177e-05
3.4667528e-05
-1.6970868e-05
3.9081495e-05
-2.1902323e-05
4.2672369e-05
-2.7264315e-05
4.5147062e-05
-3.2816961e-05
4.624468e-05
-3.8245577e-05
4.5752313e-05
-4.3184698e-05
4.3566236e-05
-4.7271624e-05
3.9749686e-05
-5.0208549e-05
3.4552134e-05
-5.1821536e-05
2.8390887e-05
-5.2085973e-05
2.1769829e-05
-5.1113922e-05
1.5181684e-05
-4.9113135e-05
9.0256623e-06
-4.6342985e-05
3.5854571e-06
-4.3091822e-05
-9.6324355e-07
-3.9609891e-05
-4.5782138e-06
-3.6088197e-05
-7.3277553e-06
-3.2677932e-05
-9.3124311e-06
-2.94762e-05
-1.0662524e-05
-2.6536406e-05
-1.1510627e-05
-2.3878997e-05
-1.1977201e-05
-2.1501955e-05
-1.2163649e-05
-1.9389549e-05
-1.2150728e-05
-1.7518924e-05
-1.2000098e-05
-1.5864591e-05
-1.1757351e-05
-1.4401214e-05
-1.1455384e-05
-1.3105132e-05
-1.1117525e-05
-1.1955054e-05
-1.0760104e-05
-1.093224e-05
-1.0394453e-05
-1.0020387e-05
-1.0028388e-05
-9.2054038e-06
-9.6672322e-06
-8.4751616e-06
-9.3145557e-06
-7.8192189e-06
-8.9726927e-06
-7.2285797e-06
-8.6430979e-06
-6.6954814e-06
-8.3265999e-06
-6.2132113e-06
-8.0235819e-06
-5.7759521e-06
-7.7341112e-06
-5.3786502e-06
-7.4580336e-06
-5.0169052e-06
-7.1950422e-06
-4.6868755e-06
-6.9447277e-06
-4.3851996e-06
-6.7066149e-06
-4.1089285e-06
-6.4801895e-06
-3.8554692e-06
-6.2649176e-06
-3.622536e-06
-6.0602598e-06
-3.4081099e-06
-5.8656811e-06
-3.2104028e-06
-5.6806578e-06
-3.0278281e-06
-5.5046824e-06
-2.8589748e-06
-5.3372668e-06
-2.7025853e-06
-5.1779441e-06
-2.5575367e-06
-5.0262696e-06
-2.4228244e-06
-4.8818214e-06
-2.2975476e-06
-4.7442e-06
-2.1808973e-06
-4.6130283e-06
-2.0721458e-06
-4.4879506e-06
-1.9706369e-06
-4.3686319e-06
-1.8757785e-06
-4.254757e-06
-1.7870349e-06
-4.1460297e-06
-1.7039208e-06
-4.0421714e-06
-1.6259962e-06
-3.9429208e-06
-1.5528612e-06
-3.8480322e-06
-1.4841517e-06
-3.7572751e-06
-1.4195364e-06
-3.6704328e-06
-1.3587126e-06
-3.5873022e-06
-1.3014039e-06
-3.5076924e-06
-1.2473574e-06
-3.4314241e-06
-1.1963414e-06
-3.3583289e-06
-1.1481433e-06
-3.2882485e-06
-1.102568e-06
-3.2210344e-06
-1.0594362e-06
-3.1565467e-06
-1.0185826e-06
-3.0946539e-06
-9.7985501e-07
-3.0352326e-06
-9.4311313e-07
-2.9781663e-06
-9.082273e-07
-2.9233456e-06
-2.8706673e-06
-2.2964857e-07
2.9433541e-06
-9.219035e-07
8.8404461e-06
-2.1084343e-06
1.477629e-05
-3.8442897e-06
2.0760487e-05
-6.2621413e-06
2.6846152e-05
-9.4629433e-06
3.2893372e-05
-1.356908e-05
3.8773665e-05
-1.8557463e-05
4.4069878e-05
-2.4350736e-05
4.8465642e-05
-3.0748967e-05
5.1545293e-05
-3.7461127e-05
5.295684e-05
-4.40792e-05
5.2370386e-05
-5.0096388e-05
4.9583423e-05
-5.4995511e-05
4.4648809e-05
-5.8350813e-05
3.7907435e-05
-5.9929879e-05
2.9969954e-05
-5.9729473e-05
2.1569424e-05
-5.7948122e-05
1.3400333e-05
-5.4911923e-05
5.9894633e-06
-5.1018784e-05
-3.0768136e-07
-4.6673733e-05
-5.3082945e-06
-4.218104e-05
-9.0709071e-06
-3.7795571e-05
-1.1713225e-05
-3.3683949e-05
-1.3424053e-05
-2.9938717e-05
-1.4407755e-05
-2.6595381e-05
-1.4853963e-05
-2.3650482e-05
-1.49221e-05
-2.1077286e-05
-1.4736845e-05
-1.8837658e-05
-1.4390355e-05
-1.689008e-05
-1.3947676e-05
-1.5194408e-05
-1.3453024e-05
-1.3714334e-05
-1.2935458e-05
-1.2418251e-05
-1.2413607e-05
-1.1279229e-05
-1.1899127e-05
-1.0274592e-05
-1.1399089e-05
-9.3853414e-06
-1.0917639e-05
-8.5955407e-06
-1.0457033e-05
-7.8917864e-06
-1.001831e-05
-7.2627624e-06
-9.6017167e-06
-6.6988759e-06
-9.2069843e-06
-6.1919625e-06
-8.8335134e-06
-5.7350459e-06
-8.4804984e-06
-5.3221437e-06
-8.1470134e-06
-4.9481067e-06
-7.8320706e-06
-4.6084881e-06
-7.5346609e-06
-4.2994348e-06
-7.253781e-06
-4.0175977e-06
-6.9884521e-06
-3.7600564e-06
-6.7377307e-06
-3.5242575e-06
-6.5007165e-06
-3.3079615e-06
-6.2765559e-06
-3.1091989e-06
-6.0644436e-06
-2.9262336e-06
-5.8636231e-06
-2.7575306e-06
-5.6733853e-06
-2.6017302e-06
-5.4930672e-06
-2.4576244e-06
-5.3220499e-06
-2.3241381e-06
-5.1597559e-06
-2.200312e-06
-5.0056475e-06
-2.0852887e-06
-4.8592234e-06
-1.9782998e-06
-4.7200172e-06
-1.8786558e-06
-4.5875946e-06
-1.7857368e-06
-4.461551e-06
-1.698984e-06
-4.3415098e-06
-1.6178931e-06
-4.2271205e-06
-1.5420085e-06
-4.1180561e-06
-1.4709172e-06
-4.0140121e-06
-1.4042449e-06
-3.9147045e-06
-1.3416514e-06
-3.8198686e-06
-1.2828271e-06
-3.729257e-06
-1.2274903e-06
-3.6426391e-06
-1.1753835e-06
-3.5597992e-06
-1.1262716e-06
-3.4805359e-06
-1.0799396e-06
-3.4046608e-06
-1.0361905e-06
-3.3319977e-06
-9.9484334e-07
-3.2623815e-06
-9.5573227e-07
-3.1956577e-06
-9.1870459e-07
-3.1316816e-06
-8.8361981e-07
-3.0703174e-06
-8.5034842e-07
-3.0114377e-06
-8.1877093e-07
-2.954923e-06
-2.9006613e-06
-2.2724763e-07
3.1706017e-06
-9.0879465e-07
9.5219931e-06
-2.0738779e-06
1.5941374e-05
-3.7838606e-06
2.247047e-05
-6.2783489e-06
2.9340641e-05
-9.689506e-06
3.6304529e-05
-1.4292102e-05
4.3376261e-05
-2.0040402e-05
4.9818177e-05
-2.68891e-05
5.531434e-05
-3.4588507e-05
5.92447e-05
-4.2799762e-05
6.1168095e-05
-5.1005064e-05
6.0575688e-05
-5.8488068e-05
5.7066427e-05
-6.448752e-05
5.064826e-05
-6.8371588e-05
4.1791503e-05
-6.9823084e-05
3.1421451e-05
-6.8885757e-05
2.0632096e-05
-6.5908511e-05
1.0423087e-05
-6.1409023e-05
1.4899752e-06
-5.601615e-05
-5.7005534e-06
-5.0225715e-05
-1.109873e-05
-4.447756e-05
-1.4819062e-05
-3.9071063e-05
-1.7119721e-05
-3.417776e-05
-1.8317357e-05
-2.986745e-05
-1.8718065e-05
-2.6138735e-05
-1.8582678e-05
-2.294777e-05
-1.8113065e-05
-2.023061e-05
-1.7454005e-05
-1.7918211e-05
-1.6702755e-05
-1.5945284e-05
-1.5920602e-05
-1.4254493e-05
-1.5143815e-05
-1.2797647e-05
-1.4392305e-05
-1.1535337e-05
-1.3675917e-05
-1.04357e-05
-1.2998764e-05
-9.4729737e-06
-1.2361816e-05
-8.6262352e-06
-1.1764378e-05
-7.8783626e-06
-1.1204906e-05
-7.2152331e-06
-1.0681439e-05
-6.6251093e-06
-1.019184e-05
-6.0981702e-06
-9.7339234e-06
-5.6261495e-06
-9.3055341e-06
-5.202052e-06
-8.9045959e-06
-4.8199302e-06
-8.5291353e-06
-4.4747038e-06
-8.177297e-06
-4.1620156e-06
-7.8473491e-06
-3.8781135e-06
-7.5376831e-06
-3.6197543e-06
-7.2468113e-06
-3.3841246e-06
-6.9733603e-06
-3.1687758e-06
-6.7160653e-06
-2.9715695e-06
-6.4737622e-06
-2.7906326e-06
-6.2453805e-06
-2.6243198e-06
-6.0299359e-06
-2.4711816e-06
-5.8265236e-06
-2.3299374e-06
-5.6343114e-06
-2.1994534e-06
-5.4525339e-06
-2.0787228e-06
-5.2804865e-06
-1.9668499e-06
-5.1175204e-06
-1.8630355e-06
-4.9630378e-06
-1.7665656e-06
-4.8164872e-06
-1.6768004e-06
-4.6773597e-06
-1.5931658e-06
-4.5451856e-06
-1.5151454e-06
-4.4195302e-06
-1.4422741e-06
-4.2999918e-06
-1.374132e-06
-4.1861982e-06
-1.3103394e-06
-4.0778047e-06
-1.2505525e-06
-3.9744915e-06
-1.1944593e-06
-3.8759617e-06
-1.1417765e-06
-3.7819398e-06
-1.0922462e-06
-3.6921694e-06
-1.0456332e-06
-3.6064122e-06
-1.0017232e-06
-3.524446e-06
-9.6031988e-07
-3.4460641e-06
-9.2124399e-07
-3.3710736e-06
-8.8433104e-07
-3.2992945e-06
-8.4943016e-07
-3.2305586e-06
-8.1640279e-07
-3.164709e-06
-7.8512142e-07
-3.1015987e-06
-7.5546869e-07
-3.0410904e-06
-7.2733639e-07
-2.9830553e-06
-2.927373e-06
-2.1887413e-07
3.3894759e-06
-8.6830561e-07
1.0171425e-05
-1.9327004e-06
1.7005768e-05
-3.4986992e-06
2.4036468e-05
-5.9730773e-06
3.1815019e-05
-9.4832716e-06
3.9814723e-05
-1.4627502e-05
4.8520492e-05
-2.1255572e-05
5.6446246e-05
-2.9405112e-05
6.346388e-05
-3.8740366e-05
6.8579953e-05
-4.8897788e-05
7.1325518e-05
-5.9257144e-05
7.0935044e-05
-6.8789207e-05
6.659849e-05
-7.6330588e-05
5.8189641e-05
-8.0901408e-05
4.6362324e-05
-8.2061884e-05
3.2581926e-05
-7.9956243e-05
1.8526455e-05
-7.5192718e-05
5.6595622e-06
-6.8654789e-05
-5.0479544e-06
-6.1179206e-05
-1.3176136e-05
-5.3519266e-05
-1.8758671e-05
-4.622833e-05
-2.2109998e-05
-3.9644263e-05
-2.3703788e-05
-3.3917051e-05
-2.4044568e-05
-2.906197e-05
-2.3573146e-05
-2.501119e-05
-2.2633459e-05
-2.1657445e-05
-2.1466809e-05
-1.8883608e-05
-2.0227842e-05
-1.6580054e-05
-1.9006309e-05
-1.4652759e-05
-1.7847897e-05
-1.3025958e-05
-1.6770616e-05
-1.1640601e-05
-1.5777662e-05
-1.0451201e-05
-1.4865316e-05
-9.4226759e-06
-1.402729e-05
-8.5276878e-06
-1.3256804e-05
-7.7446287e-06
-1.2547437e-05
-7.0561612e-06
-1.1893373e-05
-6.4481902e-06
-1.128941e-05
-5.9091315e-06
-1.0730899e-05
-5.4293814e-06
-1.0213673e-05
-5.0009211e-06
-9.7339945e-06
-4.6170137e-06
-9.2885032e-06
-4.2719684e-06
-8.8741806e-06
-3.9609534e-06
-8.4883121e-06
-3.6798466e-06
-8.1284559e-06
-3.425116e-06
-7.7924137e-06
-3.1937224e-06
-7.4782048e-06
-2.9830402e-06
-7.1840426e-06
-2.7907924e-06
-6.908313e-06
-2.614998e-06
-6.6495567e-06
-2.4539268e-06
-6.4064516e-06
-2.3060638e-06
-6.1777989e-06
-2.1700778e-06
-5.9625096e-06
-2.0447958e-06
-5.7595934e-06
-1.9291817e-06
-5.568148e-06
-1.8223175e-06
-5.3873506e-06
-1.7233883e-06
-5.2164497e-06
-1.6316685e-06
-5.0547576e-06
-1.5465106e-06
-4.901645e-06
-1.467336e-06
-4.7565343e-06
-1.393626e-06
-4.6188956e-06
-1.3249148e-06
-4.4882414e-06
-1.2607835e-06
-4.3641231e-06
-1.2008544e-06
-4.2461273e-06
-1.1447867e-06
-4.1338724e-06
-1.0922718e-06
-4.0270063e-06
-1.0430303e-06
-3.9252032e-06
-9.9680861e-07
-3.8281615e-06
-9.5337606e-07
-3.735602e-06
-9.1252281e-07
-3.6472654e-06
-8.7405742e-07
-3.5629114e-06
-8.3780515e-07
-3.4823164e-06
-8.0360621e-07
-3.4052725e-06
-7.713143e-07
-3.3315864e-06
-7.4079528e-07
-3.2610776e-06
-7.1192602e-07
-3.1935782e-06
-6.845934e-07
-3.1289314e-06
-6.5869328e-07
-3.0669905e-06
-6.3412975e-07
-3.0076189e-06
-2.9506884e-06
-2.0891177e-07
3.5983876e-06
-8.2315569e-07
1.0785668e-05
-1.635386e-06
1.7817999e-05
-2.8998445e-06
2.5300927e-05
-5.1362766e-06
3.4051451e-05
-8.5758588e-06
4.3254306e-05
-1.4318158e-05
5.426279e-05
-2.1957383e-05
6.4085471e-05
-3.1719491e-05
7.3225989e-05
-4.3099886e-05
7.9960349e-05
-5.5771589e-05
8.3997221e-05
-6.9094021e-05
8.4257476e-05
-8.1582804e-05
7.9087274e-05
-9.1375941e-05
6.7982778e-05
-9.6868818e-05
5.1855201e-05
-9.7451001e-05
3.3164109e-05
-9.3474991e-05
1.4550445e-05
-8.6053437e-05
-1.7619921e-06
-7.654929e-05
-1.4552101e-05
-6.6247766e-05
-2.3477661e-05
-5.61793e-05
-2.8827136e-05
-4.7026823e-05
-3.1262475e-05
-3.9136324e-05
-3.1594287e-05
-3.2583367e-05
-3.0597525e-05
-2.7276152e-05
-2.8880361e-05
-2.3037035e-05
-2.6872576e-05
-1.96642e-05
-2.4839644e-05
-1.6966968e-05
-2.2925074e-05
-1.4784791e-05
-2.1188486e-05
-1.2993625e-05
-1.9639062e-05
-1.1501804e-05
-1.8262438e-05
-1.0242988e-05