/*--------------------------------*- C++ -*----------------------------------*\
| =========                 |                                                 |
| \\      /  F ield         | OpenFOAM: The Open Source CFD Toolbox           |
|  \\    /   O peration     | Version:  2306                                  |
|   \\  /    A nd           | Website:  www.openfoam.com                      |
|    \\/     M anipulation  |                                                 |
\*---------------------------------------------------------------------------*/
FoamFile
{
    version     2.0;
    format      ascii;
    arch        "LSB;label=32;scalar=64";
    class       surfaceScalarField;
    location    "0.35";
    object      phi_0;
}
// * * * * * * * * * * * * * * * * * * * * * * * * * * * * * * * * * * * * * //

dimensions      [0 3 -1 0 0 0 0];

oriented        oriented;

internalField   nonuniform List<scalar> 
12640
(
2.9476288e-06
5.9045585e-06
3.1304053e-06
5.725103e-06
3.2997915e-06
5.5423473e-06
3.4562737e-06
5.3568983e-06
3.600334e-06
5.1693157e-06
3.7324499e-06
4.980113e-06
3.8530917e-06
4.7897612e-06
3.9627203e-06
4.5986926e-06
4.0617875e-06
4.4073022e-06
4.1507344e-06
4.2159511e-06
4.2299897e-06
4.0249684e-06
4.2999714e-06
3.8346533e-06
4.3610845e-06
3.6452782e-06
4.4137218e-06
3.4570902e-06
4.4582627e-06
3.2703118e-06
4.4950746e-06
3.085145e-06
4.524512e-06
2.9017705e-06
4.5469167e-06
2.7203514e-06
4.5626172e-06
2.5410328e-06
4.5719317e-06
2.3639432e-06
4.5751635e-06
2.1891975e-06
4.5726065e-06
2.0168958e-06
4.5645411e-06
1.8471267e-06
4.5512363e-06
1.6799664e-06
4.53295e-06
1.5154808e-06
4.5099302e-06
1.3537249e-06
4.4824144e-06
1.1947474e-06
4.4506281e-06
1.0385852e-06
4.4147896e-06
8.8526708e-07
4.3750985e-06
7.3481948e-07
4.3317609e-06
5.8726254e-07
4.2849585e-06
4.4260108e-07
4.2348678e-06
3.0084748e-07
4.1816614e-06
1.6200207e-07
4.1255291e-06
2.6055694e-08
4.0665787e-06
-1.0695748e-07
4.0049771e-06
-2.3711097e-07
3.9408614e-06
-3.6438909e-07
3.8743624e-06
-4.8880767e-07
3.8056037e-06
-6.1038538e-07
3.7347028e-06
-7.2914128e-07
3.6617708e-06
-8.4509814e-07
3.5869116e-06
-9.5827799e-07
3.5102239e-06
-1.0687057e-06
3.4317999e-06
-1.1764072e-06
3.3517276e-06
-1.281408e-06
3.2700879e-06
-1.3837344e-06
3.1869576e-06
-1.4834133e-06
3.1024093e-06
-1.5804722e-06
3.0165089e-06
-1.6749374e-06
2.9293191e-06
-1.7668358e-06
2.8408983e-06
-1.8561936e-06
2.7513011e-06
-1.9430367e-06
2.6605765e-06
-2.0273894e-06
2.5687721e-06
-2.1092765e-06
2.4759298e-06
-2.1887214e-06
2.3820895e-06
-2.2657464e-06
2.2872872e-06
-2.3403716e-06
2.1915558e-06
-2.412617e-06
2.0949257e-06
-2.4825021e-06
1.9974241e-06
-2.5500433e-06
1.8990758e-06
-2.615256e-06
1.7999029e-06
-2.6781538e-06
1.6999252e-06
-2.7387494e-06
1.5991602e-06
-2.7970529e-06
1.4976237e-06
-2.8530724e-06
1.3953293e-06
-2.9068153e-06
1.2922887e-06
-2.9582848e-06
1.188512e-06
-3.0074845e-06
1.084008e-06
-3.0544143e-06
9.7878352e-07
-3.0990721e-06
8.728447e-07
-3.1414537e-06
7.6619617e-07
-3.1815531e-06
6.58841e-07
-3.2193613e-06
5.5078254e-07
-3.2548722e-06
4.4202323e-07
-3.2880791e-06
3.3256385e-07
-3.3189875e-06
2.2240604e-07
-3.347629e-06
1.1155121e-07
-3.3740826e-06
-3.3984148e-06
2.6960719e-06
5.7087667e-06
2.8786173e-06
5.5425577e-06
3.0483444e-06
5.3726201e-06
3.2056846e-06
5.199558e-06
3.3510709e-06
5.0239294e-06
3.4849336e-06
4.8462502e-06
3.6076998e-06
4.666995e-06
3.719791e-06
4.4866014e-06
3.821622e-06
4.3054712e-06
3.9136e-06
4.1239732e-06
3.9961233e-06
3.942445e-06
4.0695809e-06
3.7611956e-06
4.1343515e-06
3.5805077e-06
4.1908039e-06
3.4006378e-06
4.2392957e-06
3.2218201e-06
4.280174e-06
3.0442666e-06
4.3137745e-06
2.86817e-06
4.3404221e-06
2.6937039e-06
4.3604306e-06
2.5210243e-06
4.374103e-06
2.350271e-06
4.3817308e-06
2.1815698e-06
4.3835945e-06
2.015032e-06
4.3799648e-06
1.8507563e-06
4.3711016e-06
1.6888297e-06
4.3572543e-06
1.5293283e-06
4.338661e-06
1.3723179e-06
4.3155536e-06
1.2178547e-06
4.2881521e-06
1.0659868e-06
4.2566648e-06
9.1675444e-07
4.2212924e-06
7.7019183e-07
4.1822301e-06
6.2632499e-07
4.1396645e-06
4.8516677e-07
4.0937625e-06
3.4674938e-07
4.0446978e-06
2.1106683e-07
3.992628e-06
7.8125349e-08
3.9377107e-06
-5.2040341e-08
3.8800803e-06
-1.7948061e-07
3.8198758e-06
-3.0418456e-07
3.7572281e-06
-4.2615993e-07
3.6922603e-06
-5.4541767e-07
3.6250892e-06
-6.6197006e-07
3.5558254e-06
-7.7583415e-07
3.4845734e-06
-8.8702587e-07
3.4114311e-06
-9.9556363e-07
3.3364925e-06
-1.1014683e-06
3.259844e-06
-1.2047597e-06
3.1815694e-06
-1.3054599e-06
3.1017456e-06
-1.4035894e-06
3.0204452e-06
-1.499172e-06
2.9377362e-06
-1.5922284e-06
2.8536832e-06
-1.6827827e-06
2.768345e-06
-1.7708555e-06
2.6817775e-06
-1.8564692e-06
2.5940326e-06
-1.9396444e-06
2.5051581e-06
-2.0204019e-06
2.4151985e-06
-2.0987618e-06
2.3241957e-06
-2.1747434e-06
2.232187e-06
-2.2483631e-06
2.1392083e-06
-2.3196382e-06
2.0452914e-06
-2.3885852e-06
1.9504651e-06
-2.4552172e-06
1.8547571e-06
-2.5195481e-06
1.7581921e-06
-2.5815886e-06
1.6607915e-06
-2.6413488e-06
1.5625755e-06
-2.6988367e-06
1.4635623e-06
-2.754059e-06
1.3637677e-06
-2.8070207e-06
1.263206e-06
-2.8577232e-06
1.1618901e-06
-2.9061686e-06
1.0598307e-06
-2.9523552e-06
9.5703833e-07
-2.9962795e-06
8.5352071e-07
-3.0379357e-06
7.492851e-07
-3.0773173e-06
6.4433906e-07
-3.1144155e-06
5.3868712e-07
-3.1492199e-06
4.3233432e-07
-3.1817262e-06
3.2528529e-07
-3.2119385e-06
2.1754413e-07
-3.2398877e-06
1.0911449e-07
-3.265653e-06
-3.2893005e-06
2.4601317e-06
5.5144555e-06
2.6418294e-06
5.3608598e-06
2.811287e-06
5.2031627e-06
2.9688845e-06
5.0419606e-06
3.1150056e-06
4.8778082e-06
3.2500365e-06
4.7112193e-06
3.3743623e-06
4.5426694e-06
3.4883656e-06
4.3725981e-06
3.5924256e-06
4.2014113e-06
3.6869162e-06
4.0294825e-06
3.772205e-06
3.8571564e-06
3.8486526e-06
3.6847481e-06
3.9166118e-06
3.5125485e-06
3.976427e-06
3.3408225e-06
4.0284342e-06
3.169813e-06
4.0729593e-06
2.9997415e-06
4.1103197e-06
2.8308096e-06
4.1408231e-06
2.6632004e-06
4.164768e-06
2.4970795e-06
4.182442e-06
2.3325969e-06
4.1941235e-06
2.1698883e-06
4.2000812e-06
2.0090741e-06
4.2005752e-06
1.8502624e-06
4.1958543e-06
1.6935506e-06
4.1861593e-06
1.5390231e-06
4.1717216e-06
1.3867556e-06
4.152762e-06
1.2368146e-06
4.1294967e-06
1.089252e-06
4.1021292e-06
9.4412202e-07
4.0708502e-06
8.014708e-07
4.0358531e-06
6.613222e-07
3.997312e-06
5.2370793e-07
3.9554035e-06
3.886581e-07
3.9102933e-06
2.5617692e-07
3.8621304e-06
1.2628825e-07
3.8110769e-06
-9.8662297e-10
3.7572593e-06
-1.2566314e-07
3.7008186e-06
-2.4774392e-07
3.641883e-06
-3.6722451e-07
3.5805745e-06
-4.8410908e-07
3.5170093e-06
-5.9840507e-07
3.4512971e-06
-7.1012201e-07
3.3835418e-06
-8.1927052e-07
3.3138425e-06
-9.2586426e-07
3.2422911e-06
-1.0299172e-06
3.1689765e-06
-1.1314452e-06
3.093981e-06
-1.2304643e-06
3.0173834e-06
-1.3269918e-06
2.9392564e-06
-1.421045e-06
2.8596699e-06
-1.5126418e-06
2.7786879e-06
-1.6018008e-06
2.6963722e-06
-1.68854e-06
2.6127786e-06
-1.7728757e-06
2.527961e-06
-1.8548269e-06
2.4419684e-06
-1.9344094e-06
2.3548476e-06
-2.0116407e-06
2.266641e-06
-2.0865366e-06
2.1773892e-06
-2.159111e-06
2.0871282e-06
-2.2293773e-06
1.9958925e-06
-2.2973495e-06
1.9037137e-06
-2.3630382e-06
1.8106203e-06
-2.4264546e-06
1.7166391e-06
-2.4876076e-06
1.6217949e-06
-2.5465042e-06
1.5261091e-06
-2.603151e-06
1.4296019e-06
-2.6575518e-06
1.3322917e-06
-2.7097107e-06
1.2341959e-06
-2.7596272e-06
1.1353291e-06
-2.8073018e-06
1.0357048e-06
-2.8527308e-06
9.3533483e-07
-2.8959094e-06
8.342309e-07
-2.9368319e-06
7.3240274e-07
-2.9754894e-06
6.2985925e-07
-3.0118721e-06
5.2660894e-07
-3.0459697e-06
4.2265875e-07
-3.0777764e-06
3.1801642e-07
-3.107296e-06
2.126879e-07
-3.1345594e-06
1.0668085e-07
-3.1596459e-06
-3.1826197e-06
2.2391566e-06
5.3221768e-06
2.4194538e-06
5.1805626e-06
2.5880906e-06
5.0345258e-06
2.7453978e-06
4.8846533e-06
2.8917137e-06
4.7314924e-06
3.0273809e-06
4.575552e-06
3.1527443e-06
4.417306e-06
3.2681492e-06
4.257193e-06
3.37394e-06
4.0956205e-06
3.4704578e-06
3.9329648e-06
3.5580405e-06
3.7695736e-06
3.6370203e-06
3.6057682e-06
3.7077248e-06
3.441844e-06
3.7704741e-06
3.2780731e-06
3.825582e-06
3.114705e-06
3.8733544e-06
2.9519692e-06
3.9140899e-06
2.7900741e-06
3.9480787e-06
2.6292116e-06
3.9756027e-06
2.4695556e-06
3.996935e-06
2.3112646e-06
4.0123415e-06
2.1544819e-06
4.0220783e-06
1.9993374e-06
4.026393e-06
1.8459475e-06
4.0255254e-06
1.6944182e-06
4.0197062e-06
1.5448423e-06
4.0091581e-06
1.3973037e-06
3.9940956e-06
1.2518771e-06
3.974722e-06
1.1086255e-06
3.9512363e-06
9.6760779e-07
3.9238324e-06
8.2887474e-07
3.8926894e-06
6.9246543e-07
3.8579798e-06
5.5841739e-07
3.8198754e-06
4.2676246e-07
3.7785316e-06
2.9752077e-07
3.7341107e-06
1.7070915e-07
3.6867549e-06
4.6369155e-08
3.6365959e-06
-7.5503998e-08
3.5837722e-06
-1.9492023e-07
3.5284101e-06
-3.1186256e-07
3.4706298e-06
-4.2632883e-07
3.4105467e-06
-5.3832205e-07
3.3482692e-06
-6.4784443e-07
3.2839007e-06
-7.5490203e-07
3.2175391e-06
-8.5950263e-07
3.1492775e-06
-9.6165566e-07
3.0792042e-06
-1.0613716e-06
3.0074016e-06
-1.1586617e-06
2.9339483e-06
-1.2535386e-06
2.8589189e-06
-1.3460157e-06
2.7823829e-06
-1.436106e-06
2.7044064e-06
-1.5238243e-06
2.62505e-06
-1.6091836e-06
2.5443726e-06
-1.6921983e-06
2.4624282e-06
-1.7728824e-06
2.379268e-06
-1.8512494e-06
2.2949396e-06
-1.9273125e-06
2.2094866e-06
-2.0010837e-06
2.1229508e-06
-2.0725751e-06
2.0353713e-06
-2.1417979e-06
1.9467836e-06
-2.2087618e-06
1.8572207e-06
-2.2734755e-06
1.766714e-06
-2.3359477e-06
1.6752914e-06
-2.3961849e-06
1.5829789e-06
-2.4541918e-06
1.4898014e-06
-2.5099735e-06
1.3957812e-06
-2.5635315e-06
1.3009389e-06
-2.6148681e-06
1.2052926e-06
-2.6639809e-06
1.1088601e-06
-2.7108694e-06
1.0116576e-06
-2.7555283e-06
9.1369925e-07
-2.7979511e-06
8.1499848e-07
-2.838131e-06
7.1556781e-07
-2.8760587e-06
6.1541894e-07
-2.9117231e-06
5.1456208e-07
-2.945113e-06
4.1300759e-07
-2.9762217e-06
3.1076509e-07
-3.0050535e-06
2.0784381e-07
-3.031638e-06
1.0425286e-07
-3.0560547e-06
-3.0783666e-06
2.0324903e-06
5.1324186e-06
2.2108938e-06
5.0021592e-06
2.3782143e-06
4.8672052e-06
2.5347369e-06
4.7281307e-06
2.6807558e-06
4.5854734e-06
2.8165725e-06
4.4397353e-06
2.9424938e-06
4.2913847e-06
3.0588287e-06
4.1408582e-06
3.1658875e-06
3.9885616e-06
3.2639805e-06
3.8348718e-06
3.3534158e-06
3.6801384e-06
3.4344987e-06
3.5246854e-06
3.507531e-06
3.3688118e-06
3.5728096e-06
3.2127945e-06
3.6306257e-06
3.0568889e-06
3.681266e-06
2.9013289e-06
3.7250093e-06
2.7463308e-06
3.7621289e-06
2.5920921e-06
3.7928909e-06
2.4387938e-06
3.8175532e-06
2.2866021e-06
3.8363685e-06
2.1356667e-06
3.84958e-06
1.9861259e-06
3.8574234e-06
1.8381039e-06
3.8601284e-06
1.6917132e-06
3.8579154e-06
1.5470554e-06
3.8509982e-06
1.4042209e-06
3.8395835e-06
1.2632917e-06
3.8238685e-06
1.1243403e-06
3.8040444e-06
9.8743196e-07
3.780297e-06
8.526222e-07
3.7528022e-06
7.1996027e-07
3.7217283e-06
5.8949129e-07
3.6872433e-06
4.6124736e-07
3.6494955e-06
3.352687e-07
3.6086308e-06
2.115739e-07
3.5648097e-06
9.0190188e-08
3.5181625e-06
-2.8856714e-08
3.4688117e-06
-1.4556934e-07
3.4168854e-06
-2.5993615e-07
3.3625029e-06
-3.7194647e-07
3.305778e-06
-4.8159704e-07
3.2468175e-06
-5.8888424e-07
3.1857249e-06
-6.9380959e-07
3.1225971e-06
-7.9637479e-07
3.0575267e-06
-8.9658526e-07
2.9906012e-06
-9.9444613e-07
2.921904e-06
-1.0899644e-06
2.8515133e-06
-1.183148e-06
2.7795039e-06
-1.2740062e-06
2.705946e-06
-1.3625482e-06
2.6309059e-06
-1.4487841e-06
2.5544457e-06
-1.5327232e-06
2.4766247e-06
-1.6143771e-06
2.3974981e-06
-1.6937559e-06
2.317118e-06
-1.7708691e-06
2.2355328e-06
-1.8457271e-06
2.1527883e-06
-1.9183392e-06
2.0689275e-06
-1.9887144e-06
1.9839905e-06
-2.0568607e-06
1.8980145e-06
-2.1227858e-06
1.8110348e-06
-2.1864958e-06
1.7230835e-06
-2.2479964e-06
1.6341908e-06
-2.3072923e-06
1.5443856e-06
-2.3643864e-06
1.4536925e-06
-2.4192806e-06
1.3621372e-06
-2.4719763e-06
1.2697415e-06
-2.5224721e-06
1.1765271e-06
-2.5707667e-06
1.0825126e-06
-2.6168548e-06
9.8771631e-07
-2.6607321e-06
8.9215507e-07
-2.70239e-06
7.9584488e-07
-2.7418207e-06
6.9879967e-07
-2.7790138e-06
6.0103368e-07
-2.8139572e-06
5.0256025e-07
-2.8466395e-06
4.0339154e-07
-2.8770529e-06
3.035397e-07
-2.9052017e-06
2.0301672e-07
-2.9311152e-06
1.0183337e-07
-2.9548713e-06
-2.9765334e-06
1.8394764e-06
4.9456082e-06
2.0155496e-06
4.8260859e-06
2.1811121e-06
4.7016427e-06
2.3364052e-06
4.5728376e-06
2.4816819e-06
4.4401967e-06
2.6172053e-06
4.3042118e-06
2.743245e-06
4.165345e-06
2.8600759e-06
4.0240274e-06
2.9679758e-06
3.8806618e-06
3.0672244e-06
3.7356232e-06
3.1581014e-06
3.5892613e-06
3.2408857e-06
3.4419009e-06
3.3158542e-06
3.2938434e-06
3.3832803e-06
3.1453685e-06
3.4434346e-06
2.9967345e-06
3.4965828e-06
2.8481807e-06
3.5429859e-06
2.6999276e-06
3.5828994e-06
2.5521785e-06
3.6165733e-06
2.4051199e-06
3.6442516e-06
2.2589236e-06
3.6661715e-06
2.1137468e-06
3.6825649e-06
1.9697325e-06
3.6936556e-06
1.8270132e-06
3.6996623e-06
1.6857064e-06
3.7007961e-06
1.5459217e-06
3.6972609e-06
1.407756e-06
3.6892543e-06
1.2712984e-06
3.6769695e-06
1.1366251e-06
3.6605865e-06
1.0038149e-06
3.6402856e-06
8.7292313e-07
3.6162352e-06
7.4401048e-07
3.5886084e-06
6.1711817e-07
3.5575519e-06
4.9230408e-07
3.5232214e-06
3.6959906e-07
3.4857633e-06
2.490319e-07
3.445317e-06
1.3063651e-07
3.4020274e-06
1.4432849e-08
3.3560027e-06
-9.9544684e-08
3.307375e-06
-2.1130838e-07
3.2562604e-06
-3.2083195e-07
3.2027699e-06
-4.2810657e-07
3.1470107e-06
-5.3312494e-07
3.0890833e-06
-6.3588205e-07
3.0290845e-06
-7.3637621e-07
2.9671062e-06
-8.3460692e-07
2.9032358e-06
-9.3057566e-07
2.8375556e-06
-1.0242844e-06
2.7701445e-06
-1.1157369e-06
2.7010768e-06
-1.2049385e-06
2.6304232e-06
-1.2918946e-06
2.5582499e-06
-1.376611e-06
2.484621e-06
-1.4590942e-06
2.4095949e-06
-1.5393514e-06
2.3332287e-06
-1.6173895e-06
2.2555747e-06
-1.6932153e-06
2.1766829e-06
-1.7668353e-06
2.0966003e-06
-1.8382566e-06
2.0153706e-06
-1.9074847e-06
1.9330354e-06
-1.9745255e-06
1.8496339e-06
-2.0393841e-06
1.7652016e-06
-2.1020635e-06
1.6797731e-06
-2.162568e-06
1.5933802e-06
-2.2208996e-06
1.5060531e-06
-2.2770591e-06
1.417819e-06
-2.3310467e-06
1.3287043e-06
-2.3828616e-06
1.2387338e-06
-2.4325015e-06
1.1479293e-06
-2.4799621e-06
1.0563134e-06
-2.5252389e-06
9.639058e-07
-2.5683244e-06
8.7072538e-07
-2.6092094e-06
7.7678984e-07
-2.6478852e-06
6.8211595e-07
-2.6843398e-06
5.8671975e-07
-2.718561e-06
4.9061653e-07
-2.7505361e-06
3.938216e-07
-2.7802582e-06
2.9634891e-07
-2.8077288e-06
1.9821214e-07
-2.8329787e-06
9.9424873e-08
-2.8560842e-06
-2.8771085e-06
1.6594614e-06
4.7621168e-06
1.8328216e-06
4.6527257e-06
1.9962346e-06
4.5382298e-06
2.149901e-06
4.4191713e-06
2.2940356e-06
4.296062e-06
2.4288644e-06
4.1693832e-06
2.5546225e-06
4.0395869e-06
2.6715519e-06
3.9070979e-06
2.7798996e-06
3.7723139e-06
2.8799159e-06
3.635607e-06
2.9718533e-06
3.497324e-06
3.0559648e-06
3.3577893e-06
3.1325031e-06
3.2173051e-06
3.2017195e-06
3.0761521e-06
3.263863e-06
2.934591e-06
3.3191798e-06
2.7928639e-06
3.3679126e-06
2.6511949e-06
3.4103001e-06
2.5097912e-06
3.4465759e-06
2.3688441e-06
3.4769693e-06
2.2285302e-06
3.5017044e-06
2.0890117e-06
3.5209992e-06
1.9504376e-06
3.5350676e-06
1.8129448e-06
3.5441157e-06
1.6766582e-06
3.5483455e-06
1.5416919e-06
3.5479509e-06
1.4081504e-06
3.5431231e-06
1.2761263e-06
3.534041e-06
1.1457071e-06
3.5208877e-06
1.0169683e-06
3.5038287e-06
8.8998232e-07
3.4830322e-06
7.6480695e-07
3.4586504e-06
6.4149995e-07
3.4308527e-06
5.2010196e-07
3.3997715e-06
4.0068038e-07
3.3655498e-06
2.8325354e-07
3.3283278e-06
1.6785855e-07
3.2882367e-06
5.4523825e-08
3.245401e-06
-5.6708832e-08
3.1999378e-06
-1.6584512e-07
3.1519629e-06
-2.7285685e-07
3.1015853e-06
-3.777291e-07
3.0489102e-06
-4.8044995e-07
2.9940377e-06
-5.8100969e-07
2.9370637e-06
-6.7940221e-07
2.8780787e-06
-7.7562203e-07
2.8171688e-06
-8.6966572e-07
2.7544171e-06
-9.6153283e-07
2.6899014e-06
-1.0512213e-06
2.6236962e-06
-1.1387332e-06
2.5558723e-06
-1.2240708e-06
2.4864966e-06
-1.307235e-06
2.415632e-06
-1.3882295e-06
2.3433388e-06
-1.4670582e-06
2.269674e-06
-1.5437247e-06
2.1946913e-06
-1.6182325e-06
2.1184416e-06
-1.6905855e-06
2.0409721e-06
-1.7607873e-06
1.9623284e-06
-1.8288409e-06
1.8825528e-06
-1.89475e-06
1.801685e-06
-1.9585164e-06
1.7197636e-06
-2.0201421e-06
1.6368235e-06
-2.079628e-06
1.5528982e-06
-2.1369741e-06
1.4680186e-06
-2.1921794e-06
1.3822151e-06
-2.2452432e-06
1.295515e-06
-2.2961616e-06
1.2079444e-06
-2.3449309e-06
1.1195284e-06
-2.391546e-06
1.0302895e-06
-2.4360001e-06
9.4025027e-07
-2.4782847e-06
8.4943138e-07
-2.5183905e-06
7.5785286e-07
-2.5563069e-06
6.655336e-07
-2.5920204e-06
5.7249132e-07
-2.6255186e-06
4.7874344e-07
-2.6567886e-06
3.8430739e-07
-2.6858218e-06
2.89199e-07
-2.7126209e-06
1.9343487e-07
-2.7372144e-06
9.7030261e-08
-2.7596797e-06
-2.7800781e-06
1.4917997e-06
4.582263e-06
1.6621139e-06
4.4824113e-06
1.8230335e-06
4.3773102e-06
1.9747211e-06
4.2674837e-06
2.1173558e-06
4.1534273e-06
2.251129e-06
4.03561e-06
2.3762432e-06
3.9144727e-06
2.4929092e-06
3.790432e-06
2.6013444e-06
3.6638787e-06
2.7017717e-06
3.5351798e-06
2.7944167e-06
3.4046789e-06
2.879508e-06
3.2726979e-06
2.957275e-06
3.1395383e-06
3.0279467e-06
3.0054803e-06
3.0917522e-06
2.8707856e-06
3.1489181e-06
2.7356979e-06
3.1996693e-06
2.6004438e-06
3.2442275e-06
2.4652331e-06
3.2828109e-06
2.3302606e-06
3.3156343e-06
2.1957069e-06
3.3429074e-06
2.0617385e-06
3.3648366e-06
1.9285084e-06
3.3816231e-06
1.7961583e-06
3.3934629e-06
1.6648184e-06
3.4005468e-06
1.5346081e-06
3.403061e-06
1.4056361e-06
3.4011854e-06
1.2780021e-06
3.3950958e-06
1.1517966e-06
3.3849605e-06
1.0271034e-06
3.3709463e-06
9.0399661e-07
3.3532108e-06
7.8254243e-07
3.3319066e-06
6.6280411e-07
3.307176e-06
5.4483253e-07
3.2791711e-06
4.2868536e-07
3.2480339e-06
3.1439086e-07
3.2138802e-06
2.020121e-07
3.1768469e-06
9.1557144e-08
3.1370583e-06
-1.6920351e-08
3.0946254e-06
-1.2341226e-07
3.0496621e-06
-2.2789354e-07
3.0022762e-06
-3.3034339e-07
2.9525709e-06
-4.3074453e-07
2.9006442e-06
-5.2908297e-07
2.8465906e-06
-6.2534846e-07
2.7904994e-06
-7.1953069e-07
2.7324572e-06
-8.1162343e-07
2.6725447e-06
-9.0162023e-07
2.6108405e-06
-9.8951712e-07
2.5474186e-06
-1.0753114e-06
2.4823487e-06
-1.1590009e-06
2.4156981e-06
-1.2405846e-06
2.3475313e-06
-1.3200628e-06
2.2779078e-06
-1.3974347e-06
2.2068851e-06
-1.4727019e-06
2.1345173e-06
-1.5458647e-06
2.0608561e-06
-1.6169244e-06
1.9859502e-06
-1.6858814e-06
1.9098452e-06
-1.7527361e-06
1.8325851e-06
-1.8174898e-06
1.7542108e-06
-1.8801423e-06
1.6747612e-06
-1.9406925e-06
1.5942725e-06
-1.9991394e-06
1.5127805e-06
-2.0554819e-06
1.4303174e-06
-2.1097165e-06
1.3469144e-06
-2.1618401e-06
1.2626004e-06
-2.2118477e-06
1.1774035e-06
-2.2597342e-06
1.0913501e-06
-2.3054927e-06
1.0044651e-06
-2.3491151e-06
9.1677239e-07
-2.390592e-06
8.2829466e-07
-2.4299129e-06
7.39053e-07
-2.4670651e-06
6.4906891e-07
-2.5020366e-06
5.5836218e-07
-2.534812e-06
4.6695188e-07
-2.5653783e-06
3.7485771e-07
-2.5937275e-06
2.8209764e-07
-2.6198609e-06
1.8869001e-07
-2.6438068e-06
9.4651942e-08
-2.6656416e-06
-2.6854261e-06
1.3358566e-06
4.4063163e-06
1.5028387e-06
4.3154293e-06
1.6609652e-06
4.2191837e-06
1.8103643e-06
4.1180845e-06
1.9511813e-06
4.0126104e-06
2.083576e-06
3.9032153e-06
2.2077196e-06
3.7903291e-06
2.3237937e-06
3.6743579e-06
2.4319883e-06
3.5556842e-06
2.532499e-06
3.434669e-06
2.6255271e-06
3.3116509e-06
2.7112768e-06
3.1869483e-06
2.7899554e-06
3.0608597e-06
2.8617711e-06
2.9336645e-06
2.9269325e-06
2.8056241e-06
2.985648e-06
2.6769825e-06
3.0381244e-06
2.5479672e-06
3.0845675e-06
2.41879e-06
3.1251795e-06
2.2896487e-06
3.1601614e-06
2.1607249e-06
3.1897099e-06
2.0321901e-06
3.2140178e-06
1.9042006e-06
3.233275e-06
1.7769012e-06
3.2476666e-06
1.6504267e-06
3.2573736e-06
1.5249011e-06
3.2625724e-06
1.4004375e-06
3.2634345e-06
1.2771399e-06
3.2601271e-06
1.1551039e-06
3.2528129e-06
1.0344177e-06
3.2416488e-06
9.1516055e-07
3.2267875e-06
7.9740388e-07
3.2083773e-06
6.8121434e-07
3.1865571e-06
5.6665267e-07
3.1614707e-06
4.5377174e-07
3.1332414e-06
3.4261999e-07
3.1020086e-06
2.3324519e-07
3.0678937e-06
1.2567183e-07
3.0310165e-06
1.9956969e-08
2.9914812e-06
-8.3877028e-08
2.9494046e-06
-1.8581688e-07
2.9048906e-06
-2.8582952e-07
2.8580402e-06
-3.8389417e-07
2.8089507e-06
-4.7999356e-07
2.7577141e-06
-5.7411189e-07
2.7044191e-06
-6.6623578e-07
2.6491504e-06
-7.5635448e-07
2.5919886e-06
-8.4445842e-07
2.5330115e-06
-9.3054e-07
2.4722923e-06
-1.0145923e-06
2.4099012e-06
-1.09661e-06
2.3459052e-06
-1.1765886e-06
2.2803677e-06
-1.2545253e-06
2.2133498e-06
-1.3304167e-06
2.1449083e-06
-1.4042605e-06
2.0750985e-06
-1.4760548e-06
2.0039718e-06
-1.5457979e-06
1.9315777e-06
-1.6134875e-06
1.8579637e-06
-1.6791221e-06
1.7831736e-06
-1.7426995e-06
1.7072492e-06
-1.8042179e-06
1.6302308e-06
-1.8636743e-06
1.5521566e-06
-1.9210651e-06
1.473062e-06
-1.9763875e-06
1.3929813e-06
-2.029636e-06
1.311947e-06
-2.0808057e-06
1.2299894e-06
-2.1298901e-06
1.1471381e-06
-2.1768827e-06
1.0634207e-06
-2.2217751e-06
9.7886363e-07
-2.2645582e-06
8.9349314e-07
-2.3052213e-06
8.0733288e-07
-2.3437525e-06
7.2040655e-07
-2.3801389e-06
6.3273635e-07
-2.4143664e-06
5.4434464e-07
-2.4464204e-06
4.552532e-07
-2.4762868e-06
3.654819e-07
-2.5039562e-06
2.7505084e-07
-2.52943e-06
1.8398091e-07
-2.5527369e-06
9.2291305e-08
-2.5739519e-06
-2.593135e-06
1.1910099e-06
4.2345013e-06
1.3544172e-06
4.1520221e-06
1.5094928e-06
4.0641081e-06
1.6563334e-06
3.9712439e-06
1.7950531e-06
3.8738905e-06
1.9257819e-06
3.7724866e-06
2.0486623e-06
3.6674487e-06
2.1638487e-06
3.5591714e-06
2.2715045e-06
3.4480286e-06
2.3718001e-06
3.3343732e-06
2.4649133e-06
3.2185377e-06
2.5510256e-06
3.100836e-06
2.6303226e-06
2.9815627e-06
2.7029926e-06
2.8609946e-06
2.7692246e-06
2.739392e-06
2.8292093e-06
2.6169978e-06
2.8831362e-06
2.4940401e-06
2.9311951e-06
2.3707312e-06
2.9735735e-06
2.2472703e-06
3.0104575e-06
2.1238408e-06
3.0420309e-06
2.0006167e-06
3.0684746e-06
1.8777571e-06
3.0899663e-06
1.7554094e-06
3.1066807e-06
1.6337125e-06
3.1187891e-06
1.5127928e-06
3.1264576e-06
1.392769e-06
3.1298501e-06
1.2737472e-06
3.1291253e-06
1.1558289e-06
3.1244377e-06
1.0391051e-06
3.1159381e-06
9.2366015e-07
3.103772e-06
8.0956993e-07
3.0880803e-06
6.969059e-07
3.0690029e-06
5.8573007e-07
3.0466732e-06
4.7610154e-07
3.0212131e-06
3.6807997e-07
2.9927544e-06
2.6170397e-07
2.9614083e-06
1.570178e-07
2.927303e-06
5.4062228e-08
2.8905403e-06
-4.7114429e-08
2.8512273e-06
-1.4650385e-07
2.8094675e-06
-2.4406989e-07
2.7653604e-06
-3.3978705e-07
2.7190002e-06
-4.3363342e-07
2.6704786e-06
-5.2559023e-07
2.6198818e-06
-6.1563917e-07
2.5672943e-06
-7.0376697e-07
2.5127948e-06
-7.8995903e-07
2.4564607e-06
-8.7420615e-07
2.3983643e-06
-9.5649558e-07
2.3385755e-06
-1.0368212e-06
2.2771616e-06
-1.1151746e-06
2.2141854e-06
-1.1915491e-06
2.1497078e-06
-1.2659393e-06
2.0837862e-06
-1.3383387e-06
2.0164756e-06
-1.4087445e-06
1.9478284e-06
-1.4771507e-06
1.8778952e-06
-1.543554e-06
1.8067221e-06
-1.6079491e-06
1.7343553e-06
-1.6703325e-06
1.6608369e-06
-1.7306996e-06
1.5862084e-06
-1.7890459e-06
1.5105084e-06
-1.845365e-06
1.4337739e-06
-1.8996529e-06
1.3560405e-06
-1.9519025e-06
1.2773411e-06
-2.0021065e-06
1.1977082e-06
-2.050257e-06
1.117172e-06
-2.0963468e-06
1.0357622e-06
-2.1403654e-06
9.5350691e-07
-2.1823026e-06
8.7043207e-07
-2.2221467e-06
7.865645e-07
-2.2598851e-06
7.0192959e-07
-2.2955038e-06
6.1655088e-07
-2.3289877e-06
5.3045202e-07
-2.3603215e-06
4.4365665e-07
-2.3894914e-06
3.5618692e-07
-2.4164864e-06
2.6806521e-07
-2.4413083e-06
1.7931254e-07
-2.4639842e-06
8.995121e-08
-2.4845906e-06
-2.5031836e-06
1.0566533e-06
4.0670016e-06
1.2162828e-06
3.9923926e-06
1.3680884e-06
3.9123024e-06
1.5121374e-06
3.827195e-06
1.6485156e-06
3.7375124e-06
1.7773251e-06
3.643677e-06
1.8986822e-06
3.5460916e-06
2.0127154e-06
3.4451382e-06
2.1195632e-06
3.3411808e-06
2.2193731e-06
3.2345632e-06
2.3122994e-06
3.1256114e-06
2.3985028e-06
3.0146325e-06
2.4781482e-06
2.9019173e-06
2.5514042e-06
2.7877386e-06
2.6184419e-06
2.6723545e-06
2.679434e-06
2.5560058e-06
2.7345542e-06
2.43892e-06
2.7839762e-06
2.3213093e-06
2.8278735e-06
2.203373e-06
2.8664175e-06
2.0852968e-06
2.8997795e-06
1.9672547e-06
2.9281285e-06
1.8494079e-06
2.951631e-06
1.7319072e-06
2.9704503e-06
1.6148931e-06
2.9847476e-06
1.4984954e-06
2.9946811e-06
1.3828354e-06
3.0004047e-06
1.2680238e-06
3.0020691e-06
1.1541645e-06
2.9998222e-06
1.041352e-06
2.9938071e-06
9.2967514e-07
2.9841634e-06
8.192136e-07
2.9710267e-06
7.1004265e-07
2.954528e-06
6.0222877e-07
2.9347951e-06
4.9583461e-07
2.9119553e-06
3.9091981e-07
2.8861244e-06
2.8753474e-07
2.8574169e-06
1.8572544e-07
2.8259547e-06
8.552444e-08
2.7918349e-06
-1.2994608e-08
2.7551634e-06
-1.0983255e-07
2.716042e-06
-2.049486e-07
2.6745666e-06
-2.9831144e-07
2.6308299e-06
-3.8989699e-07
2.5849213e-06
-4.7968166e-07
2.5369267e-06
-5.6764453e-07
2.4869273e-06
-6.5376748e-07
2.4350025e-06
-7.3803412e-07
2.3812271e-06
-8.2043065e-07
2.3256741e-06
-9.0094259e-07
2.2684121e-06
-9.7955935e-07
2.2095079e-06
-1.0562705e-06
2.1490243e-06
-1.1310656e-06
2.0870215e-06
-1.2039363e-06
2.0235579e-06
-1.2748751e-06
1.9586881e-06
-1.3438745e-06
1.8924647e-06
-1.4109276e-06
1.8249383e-06
-1.4760274e-06
1.7561565e-06
-1.5391674e-06
1.6861651e-06
-1.600341e-06
1.6150076e-06
-1.6595423e-06
1.5427259e-06
-1.716764e-06
1.4693597e-06
-1.771999e-06
1.394947e-06
-1.8252402e-06
1.3195233e-06
-1.876479e-06
1.243124e-06
-1.9257072e-06
1.1657824e-06
-1.9729154e-06
1.08753e-06
-2.0180943e-06
1.0083975e-06
-2.061233e-06
9.2841369e-07
-2.1023189e-06
8.4760797e-07
-2.141341e-06
7.6600706e-07
-2.1782842e-06
6.8363763e-07
-2.2131341e-06
6.0052526e-07
-2.2458756e-06
5.1669581e-07
-2.2764919e-06
4.3217335e-07
-2.3049687e-06
3.469821e-07
-2.3312953e-06
2.6114612e-07
-2.3554724e-06
1.7468918e-07
-2.3775274e-06
8.7633223e-08
-2.3975348e-06
-2.4155503e-06
9.3219759e-07
3.9039625e-06
1.0878836e-06
3.8367065e-06
1.2362355e-06
3.7639506e-06
1.3772943e-06
3.6861362e-06
1.5111197e-06
3.603687e-06
1.6377887e-06
3.5170079e-06
1.757393e-06
3.4264875e-06
1.8700362e-06
3.332495e-06
1.9758348e-06
3.2353823e-06
2.0749136e-06
3.1354845e-06
2.1674061e-06
3.0331189e-06
2.2534524e-06
2.9285862e-06
2.3331982e-06
2.8221714e-06
2.4067931e-06
2.7141436e-06
2.474391e-06
2.6047565e-06
2.5361476e-06
2.4942492e-06
2.5922211e-06
2.3828465e-06
2.6427697e-06
2.2707606e-06
2.6879531e-06
2.1581896e-06
2.7279294e-06
2.0453205e-06
2.7628572e-06
1.9323269e-06
2.7928935e-06
1.8193714e-06
2.8181933e-06
1.7066074e-06
2.8389102e-06
1.5941762e-06
2.8551949e-06
1.4822107e-06
2.8671966e-06
1.3708338e-06
2.8750605e-06
1.2601599e-06
2.8789298e-06
1.1502951e-06
2.8789443e-06
1.0413375e-06
2.8752405e-06
9.3337913e-07
2.8679506e-06
8.2650323e-07
2.8572062e-06
7.2078722e-07
2.8431294e-06
6.163055e-07
2.8258508e-06
5.1311322e-07
2.8054842e-06
4.1128645e-07
2.7821408e-06
3.1087808e-07
2.755941e-06
2.1192528e-07
2.726982e-06
1.1448337e-07
2.6953875e-06
1.8599802e-08
2.6612392e-06
-7.5684086e-08
2.6246416e-06
-1.6835079e-07
2.5856888e-06
-2.5935893e-07
2.5444713e-06
-3.4867947e-07
2.5010762e-06
-4.3628637e-07
2.4555872e-06
-5.2215539e-07
2.4080851e-06
-6.0626549e-07
2.3586475e-06
-6.8859674e-07
2.3073478e-06
-7.6913097e-07
2.2542584e-06
-8.4785327e-07
2.1994473e-06
-9.247484e-07
2.1429802e-06
-9.9980317e-07
2.0849201e-06
-1.0730054e-06
2.025327e-06
-1.1443431e-06
1.9642585e-06
-1.2138069e-06
1.9017698e-06
-1.2813859e-06
1.8379136e-06
-1.3470714e-06
1.7727405e-06
-1.4108544e-06
1.7062989e-06
-1.4727256e-06
1.6386348e-06
-1.5326768e-06
1.569792e-06
-1.5906996e-06
1.4998129e-06
-1.646785e-06
1.4287382e-06
-1.7009243e-06
1.3566068e-06
-1.7531087e-06
1.2834558e-06
-1.8033279e-06
1.2093205e-06
-1.8515721e-06
1.1342357e-06
-1.8978306e-06
1.0582335e-06
-1.9420923e-06
9.8134625e-07
-1.9843457e-06
9.03605e-07
-2.0245777e-06
8.2503854e-07
-2.0627744e-06
7.4567571e-07
-2.0989215e-06
6.6554461e-07
-2.1330031e-06
5.8467251e-07
-2.1650035e-06
5.0308583e-07
-2.1949056e-06
4.2081115e-07
-2.2226941e-06
3.3787404e-07
-2.2483581e-06
2.5429969e-07
-2.2718982e-06
1.7011373e-07
-2.2933412e-06
8.5339164e-08
-2.3127602e-06
-2.3302114e-06
8.1707247e-07
3.745495e-06
9.6868259e-07
3.6850963e-06
1.1134304e-06
3.6192028e-06
1.2513324e-06
3.5482341e-06
1.382425e-06
3.4725944e-06
1.5067614e-06
3.3926715e-06
1.6244108e-06
3.308838e-06
1.7354553e-06
3.2214504e-06
1.8399891e-06
3.1308484e-06
1.9381169e-06
3.0373566e-06
2.0299523e-06
2.9412835e-06
2.1156158e-06
2.8429226e-06
2.1952348e-06
2.7425525e-06
2.2689417e-06
2.6404367e-06
2.3368732e-06
2.536825e-06
2.3991698e-06
2.4319527e-06
2.4559732e-06
2.3260431e-06
2.5074282e-06
2.2193057e-06
2.5536799e-06
2.111938e-06
2.5948748e-06
2.0041256e-06
2.6311584e-06
1.8960432e-06
2.6626757e-06
1.7878543e-06
2.6895714e-06
1.6797117e-06
2.7119884e-06
1.5717591e-06
2.7300688e-06
1.4641304e-06
2.7439515e-06
1.3569512e-06
2.7537738e-06
1.2503375e-06
2.759671e-06
1.1443978e-06
2.761775e-06
1.0392335e-06
2.760216e-06
9.3493807e-07
2.7551204e-06
8.3159892e-07
2.7466112e-06
7.2929658e-07
2.7348123e-06
6.2810449e-07
2.7198327e-06
5.2809264e-07
2.7017933e-06
4.2932583e-07
2.6808075e-06
3.3186377e-07
2.6569755e-06
2.3575734e-07
2.6304185e-06
1.4104019e-07
2.6012124e-06
4.7805932e-08
2.5694725e-06
-4.3944251e-08
2.5352885e-06
-1.3416689e-07
2.4987518e-06
-2.2282211e-07
2.4599506e-06
-3.0987838e-07
2.4189701e-06
-3.9530593e-07
2.3758929e-06
-4.7907822e-07
2.3307974e-06
-5.6116981e-07
2.2837599e-06
-6.4155916e-07
2.2348537e-06
-7.2022499e-07
2.1841491e-06
-7.9714854e-07
2.131713e-06
-8.7231254e-07
2.0776113e-06
-9.4570144e-07
2.0219059e-06
-1.0172999e-06
1.9646563e-06
-1.0870936e-06
1.9059206e-06
-1.155071e-06
1.8457536e-06
-1.2212186e-06
1.7842076e-06
-1.2855257e-06
1.7213334e-06
-1.34798e-06
1.6571794e-06
-1.4085717e-06
1.5917925e-06
-1.4672899e-06
1.5252173e-06
-1.5241244e-06
1.4574965e-06
-1.579064e-06
1.388671e-06
-1.6320987e-06
1.31878e-06
-1.6832176e-06
1.2478618e-06
-1.7324098e-06
1.1759531e-06
-1.7796632e-06
1.103089e-06
-1.8249664e-06
1.0293034e-06
-1.8683067e-06
9.5462884e-07
-1.9096712e-06
8.7909714e-07
-1.9490459e-06
8.0273948e-07
-1.9864165e-06
7.2558478e-07
-2.021767e-06
6.476636e-07
-2.0550816e-06
5.6900324e-07