/*--------------------------------*- C++ -*----------------------------------*\
| =========                 |                                                 |
| \\      /  F ield         | OpenFOAM: The Open Source CFD Toolbox           |
|  \\    /   O peration     | Version:  2306                                  |
|   \\  /    A nd           | Website:  www.openfoam.com                      |
|    \\/     M anipulation  |                                                 |
\*---------------------------------------------------------------------------*/
FoamFile
{
    version     2.0;
    format      ascii;
    arch        "LSB;label=32;scalar=64";
    class       volVectorField;
    location    "0.36";
    object      U_0;
}
// * * * * * * * * * * * * * * * * * * * * * * * * * * * * * * * * * * * * * //

dimensions      [0 1 -1 0 0 0 0];

internalField   nonuniform List<vector> 
6400
(
(-0.0044376169 -0.0077398651 -7.5783658e-19)
(-0.0042530831 -0.0074868528 -9.4382139e-19)
(-0.0040677487 -0.0072556214 -8.8113754e-19)
(-0.0038828501 -0.0070402273 -9.5391513e-19)
(-0.0037001923 -0.0068363682 -5.2802877e-19)
(-0.0035217164 -0.0066411701 4.1657968e-19)
(-0.0033491932 -0.0064529152 3.5190088e-20)
(-0.0031840344 -0.006270751 1.8831427e-19)
(-0.0030272062 -0.006094411 9.0440864e-20)
(-0.002879222 -0.0059239743 -1.6201881e-19)
(-0.0027401916 -0.0057596747 -5.6991507e-20)
(-0.0026099019 -0.0056017629 5.4538604e-20)
(-0.0024879099 -0.0054504198 -1.8524632e-19)
(-0.0023736341 -0.005305714 -1.7095749e-19)
(-0.0022664321 -0.0051675928 -6.0003934e-20)
(-0.0021656606 -0.0050358954 -1.1423148e-19)
(-0.0020707149 -0.0049103773 -6.8705371e-20)
(-0.0019810521 -0.0047907398 -1.458988e-19)
(-0.0018961991 -0.004676657 -2.6020503e-19)
(-0.0018157508 -0.0045677984 -1.0473254e-19)
(-0.001739363 -0.0044638447 -1.5136782e-19)
(-0.0016667412 -0.0043644983 -1.5314822e-19)
(-0.0015976306 -0.0042694872 -1.0605026e-19)
(-0.0015318059 -0.0041785658 -1.2364199e-19)
(-0.0014690641 -0.0040915133 -4.3972718e-20)
(-0.0014092185 -0.0040081306 -2.1130337e-20)
(-0.0013520955 -0.0039282364 -5.3879368e-20)
(-0.0012975323 -0.0038516642 3.011947e-20)
(-0.0012453755 -0.00377826 -1.8123841e-20)
(-0.0011954806 -0.0037078797 -6.702599e-20)
(-0.001147712 -0.0036403879 -4.0322673e-20)
(-0.0011019423 -0.0035756571 8.2528785e-22)
(-0.0010580525 -0.0035135669 -3.8188027e-20)
(-0.0010159312 -0.0034540034 -3.872046e-20)
(-0.00097547457 -0.0033968592 3.1765386e-20)
(-0.00093658567 -0.0033420327 -2.8941892e-20)
(-0.00089917405 -0.0032894279 -1.0785467e-20)
(-0.00086315521 -0.0032389544 -4.3712425e-20)
(-0.00082845021 -0.0031905266 -7.3496793e-20)
(-0.00079498522 -0.0031440637 -1.5407293e-20)
(-0.00076269117 -0.0030994891 1.4571921e-20)
(-0.0007315034 -0.0030567306 8.4153161e-21)
(-0.00070136141 -0.0030157196 -8.5003158e-21)
(-0.00067220859 -0.0029763912 -2.6976397e-20)
(-0.00064399192 -0.002938684 -1.2238343e-22)
(-0.00061666183 -0.0029025395 4.8543839e-20)
(-0.00059017198 -0.0028679026 4.5628446e-20)
(-0.00056447905 -0.0028347209 2.3040391e-21)
(-0.00053954259 -0.0028029447 -4.6357453e-21)
(-0.00051532487 -0.002772527 3.0909624e-20)
(-0.00049179067 -0.0027434234 4.5895099e-20)
(-0.00046890721 -0.0027155919 1.3436821e-20)
(-0.00044664394 -0.0026889929 -2.1694007e-21)
(-0.00042497247 -0.0026635891 -1.6902325e-20)
(-0.00040386635 -0.0026393453 -3.3175497e-20)
(-0.00038330103 -0.0026162288 -1.7422222e-20)
(-0.00036325366 -0.0025942089 -2.3743041e-20)
(-0.00034370299 -0.002573257 -8.315908e-21)
(-0.00032462923 -0.0025533467 -2.0811292e-20)
(-0.00030601392 -0.0025344537 -2.0491252e-20)
(-0.00028783973 -0.0025165558 5.2989459e-21)
(-0.00027009041 -0.0024996327 -9.397338e-23)
(-0.00025275053 -0.0024836663 -7.9166741e-21)
(-0.00023580539 -0.0024686405 -8.9802218e-22)
(-0.00021924082 -0.0024545411 -1.6973681e-20)
(-0.00020304299 -0.0024413559 4.2771983e-21)
(-0.00018719825 -0.0024290746 1.4509351e-20)
(-0.00017169291 -0.0024176886 -9.8732263e-21)
(-0.00015651307 -0.0024071912 -5.174239e-21)
(-0.00014164438 -0.0023975772 1.3242508e-20)
(-0.00012707189 -0.0023888428 -3.5066005e-21)
(-0.00011277986 -0.0023809852 -1.5570039e-20)
(-9.8751579e-05 -0.0023740027 1.8377811e-20)
(-8.4969225e-05 -0.0023678933 2.5610488e-20)
(-7.1413878e-05 -0.0023626541 2.1105411e-20)
(-5.8065841e-05 -0.0023582789 3.0308048e-20)
(-4.4904409e-05 -0.002354755 -6.8183662e-21)
(-3.1902296e-05 -0.002352059 -3.3138259e-21)
(-1.9026613e-05 -0.0023501531 1.6681411e-20)
(-6.2914318e-06 -0.0023490185 2.6812404e-20)
(-0.0041709344 -0.0078548564 -1.1366028e-18)
(-0.0040120657 -0.0076097626 -1.1367809e-18)
(-0.0038449921 -0.0073847958 -9.5959498e-19)
(-0.0036729165 -0.0071731831 -8.2080901e-19)
(-0.0034993949 -0.006970346 -3.8577081e-19)
(-0.0033278187 -0.0067735483 6.8795505e-20)
(-0.0031610699 -0.0065814797 -1.524227e-19)
(-0.0030013355 -0.0063938341 -4.5293023e-20)
(-0.0028500568 -0.0062109262 -1.9624301e-20)
(-0.0027079783 -0.0060333755 -2.8361387e-19)
(-0.0025752594 -0.005861866 -9.0966481e-20)
(-0.002451616 -0.0056969842 -2.4962992e-19)
(-0.0023364703 -0.0055391298 -3.7559546e-19)
(-0.0022290854 -0.0053884869 -1.269448e-19)
(-0.0021286742 -0.0052450364 -1.3621144e-19)
(-0.0020344768 -0.005108593 -2.2316842e-19)
(-0.0019458074 -0.0049788535 -2.8673311e-19)
(-0.0018620773 -0.0048554444 -2.3797933e-19)
(-0.0017827973 -0.0047379639 -4.3329411e-20)
(-0.0017075691 -0.0046260131 -7.7873784e-20)
(-0.0016360693 -0.0045192166 -1.549144e-19)
(-0.0015680322 -0.0044172333 -1.8076394e-19)
(-0.0015032337 -0.0043197604 -1.831598e-19)
(-0.0014414777 -0.0042265311 -9.7600282e-20)
(-0.0013825871 -0.0041373104 -3.2393043e-20)
(-0.0013263967 -0.0040518895 -5.0330405e-20)
(-0.0012727506 -0.0039700799 -9.1366905e-20)
(-0.0012214999 -0.0038917092 -1.7212989e-20)
(-0.0011725027 -0.0038166176 3.1919829e-21)
(-0.0011256241 -0.003744655 -4.2753645e-20)
(-0.0010807366 -0.0036756803 -6.0863822e-20)
(-0.0010377206 -0.0036095597 -4.1054725e-20)
(-0.0009964639 -0.0035461666 2.2520037e-20)
(-0.00095686181 -0.0034853816 -8.307368e-21)
(-0.0009188168 -0.0034270913 -1.9804914e-20)
(-0.00088223798 -0.0033711893 -6.7828189e-20)
(-0.00084704058 -0.0033175746 -3.4969044e-21)
(-0.00081314547 -0.0032661525 2.5866388e-20)
(-0.00078047873 -0.0032168332 -4.4626928e-20)
(-0.00074897125 -0.0031695321 -1.2419608e-20)
(-0.00071855833 -0.0031241694 -3.7268521e-20)
(-0.00068917944 -0.0030806693 -3.2885443e-20)
(-0.00066077791 -0.0030389604 -2.0520938e-20)
(-0.0006333007 -0.0029989747 -2.1492519e-20)
(-0.00060669821 -0.0029606482 -1.78153e-20)
(-0.00058092408 -0.0029239199 -1.5324062e-20)
(-0.000555935 -0.0028887321 -1.065557e-20)
(-0.00053169054 -0.0028550301 -8.272254e-21)
(-0.00050815304 -0.0028227621 -5.8012805e-23)
(-0.00048528739 -0.002791879 1.9140421e-20)
(-0.00046306096 -0.0027623344 4.9896097e-21)
(-0.00044144342 -0.0027340845 -1.5963722e-20)
(-0.00042040665 -0.0027070879 -2.472073e-20)
(-0.00039992457 -0.0026813056 -2.7177251e-20)
(-0.00037997304 -0.0026567009 -2.377405e-20)
(-0.00036052976 -0.0026332396 -3.6539078e-20)
(-0.0003415741 -0.0026108897 -2.9117918e-20)
(-0.000323087 -0.0025896214 -3.959457e-20)
(-0.00030505084 -0.0025694072 -2.560714e-20)
(-0.00028744931 -0.0025502218 3.1564725e-21)
(-0.00027026723 -0.0025320419 -1.8458082e-21)
(-0.00025349046 -0.0025148469 -1.787818e-20)
(-0.00023710569 -0.0024986178 -2.8785799e-20)
(-0.00022110029 -0.0024833383 -4.8158446e-20)
(-0.00020546215 -0.0024689938 -3.5246983e-20)
(-0.00019017946 -0.0024555722 -1.4940723e-20)
(-0.0001752405 -0.0024430632 3.7944314e-21)
(-0.00016063345 -0.0024314587 -1.2055479e-20)
(-0.00014634616 -0.0024207524 -5.0646988e-21)
(-0.00013236591 -0.0024109399 1.0325687e-20)
(-0.0001186792 -0.0024020184 -1.3120428e-20)
(-0.0001052715 -0.0023939863 -2.6901742e-20)
(-9.2127066e-05 -0.0023868431 -5.344918e-21)
(-7.9228772e-05 -0.0023805884 -1.124803e-21)
(-6.6558028e-05 -0.0023752206 1.0039091e-20)
(-5.409509e-05 -0.002370735 1.2201635e-20)
(-4.1818841e-05 -0.0023671202 1.279862e-20)
(-2.9701608e-05 -0.0023643535 2.7691148e-20)
(-1.7710208e-05 -0.0023623972 3.4441637e-20)
(-5.8553212e-06 -0.0023612326 4.9302977e-20)
(-0.0039167355 -0.0079428407 -8.9357112e-19)
(-0.003781693 -0.0077146093 -1.1340498e-18)
(-0.0036298865 -0.0075025774 -7.6668838e-19)
(-0.0034671726 -0.0072993125 -5.1807624e-19)
(-0.0032993908 -0.0071002685 -2.56862e-19)
(-0.0031317486 -0.0069032288 -1.1684212e-19)
(-0.0029684445 -0.0067076857 -3.5381768e-19)
(-0.0028125132 -0.006514247 2.0129405e-19)
(-0.0026658441 -0.0063241223 2.2037776e-19)
(-0.0025293189 -0.006138716 -3.0713706e-19)
(-0.0024030134 -0.0059593299 -1.0112813e-19)
(-0.00228643 -0.0057869811 -1.4609482e-19)
(-0.0021787236 -0.0056223253 -2.3316241e-19)
(-0.0020788941 -0.0054656566 -7.3262817e-20)
(-0.0019859304 -0.005316957 -1.4047645e-19)
(-0.0018989051 -0.0051759726 -1.5589356e-19)
(-0.0018170264 -0.0050422948 -1.8907471e-19)
(-0.001739653 -0.0049154348 -1.9221172e-19)
(-0.0016662865 -0.0047948828 -4.7108389e-20)
(-0.0015965487 -0.0046801498 2.7226512e-20)
(-0.0015301533 -0.0045707918 -6.7065505e-20)
(-0.0014668788 -0.0044664205 -9.4957775e-20)
(-0.0014065445 -0.0043667024 -5.508177e-20)
(-0.0013489931 -0.0042713535 -4.859761e-20)
(-0.0012940793 -0.0041801297 -6.3791509e-21)
(-0.0012416634 -0.0040928174 2.7147284e-20)
(-0.0011916084 -0.0040092254 -7.1854105e-20)
(-0.0011437797 -0.0039291788 -3.5935014e-20)
(-0.0010980466 -0.0038525142 -1.7034487e-21)
(-0.0010542834 -0.0037790772 8.8192233e-21)
(-0.0010123707 -0.0037087214 -2.2661457e-20)
(-0.00097219591 -0.0036413074 -3.1887876e-20)
(-0.00093365405 -0.0035767028 5.8138622e-21)
(-0.0008966473 -0.0035147822 5.4732551e-20)
(-0.00086108479 -0.0034554272 5.1578568e-20)
(-0.00082688201 -0.0033985261 -1.2400475e-20)
(-0.0007939603 -0.0033439736 -1.5640412e-22)
(-0.00076224627 -0.0032916706 6.7326327e-20)
(-0.00073167136 -0.0032415237 1.8899881e-21)
(-0.00070217144 -0.0031934449 -6.7564365e-21)
(-0.00067368644 -0.0031473509 -2.7947054e-20)
(-0.00064616014 -0.003103163 -5.2763162e-20)
(-0.00061953989 -0.003060807 -7.3204951e-21)
(-0.0005937764 -0.0030202121 1.1852402e-20)
(-0.00056882362 -0.0029813118 3.4959429e-21)
(-0.00054463851 -0.0029440426 5.6654584e-21)
(-0.00052118093 -0.0029083445 -5.2620424e-21)
(-0.00049841349 -0.0028741606 -2.6116044e-20)
(-0.00047630136 -0.002841437 -3.4255262e-20)
(-0.00045481222 -0.0028101227 1.5488846e-20)
(-0.0004339161 -0.0027801692 -5.1721311e-21)
(-0.00041358525 -0.002751531 -1.8829717e-21)
(-0.00039379402 -0.0027241649 -3.1590576e-21)
(-0.0003745188 -0.0026980303 -2.3335692e-20)
(-0.00035573784 -0.0026730891 -2.2436448e-20)
(-0.00033743117 -0.0026493055 -2.3634816e-20)
(-0.00031958051 -0.0026266462 -6.2245057e-21)
(-0.00030216909 -0.0026050802 8.0797003e-21)
(-0.0002851816 -0.0025845788 2.6159397e-22)
(-0.00026860397 -0.0025651157 2.5929947e-21)
(-0.00025242333 -0.0025466669 2.2701902e-21)
(-0.00023662781 -0.0025292109 -4.4814066e-21)
(-0.00022120635 -0.0025127282 -2.8317835e-20)
(-0.00020614859 -0.002497202 -5.8612829e-20)
(-0.00019144465 -0.0024826176 -4.4567499e-20)
(-0.00017708491 -0.0024689628 -2.6171391e-20)
(-0.00016305983 -0.0024562276 -3.1661205e-20)
(-0.00014935968 -0.0024444042 -6.7779143e-21)
(-0.00013597427 -0.002433487 -8.2641476e-21)
(-0.00012289273 -0.0024234725 9.8447953e-21)
(-0.00011010322 -0.002414359 -6.0262666e-21)
(-9.7592647e-05 -0.0024061465 -1.6983773e-20)
(-8.5346412e-05 -0.0023988358 5.1631839e-21)
(-7.3348173e-05 -0.0023924285 -5.4199099e-21)
(-6.1579741e-05 -0.0023869248 4.579036e-21)
(-5.0021303e-05 -0.0023823219 -5.699969e-21)
(-3.8651219e-05 -0.0023786098 1.0828269e-20)
(-2.7441224e-05 -0.0023757672 2.528549e-20)
(-1.6357553e-05 -0.0023737566 1.2219797e-20)
(-5.4070893e-06 -0.0023725596 3.796346e-20)
(-0.003686102 -0.0080056434 -6.1644898e-19)
(-0.0035703912 -0.0078048615 -9.8549048e-19)
(-0.0034283294 -0.0076132224 -1.0493081e-18)
(-0.0032692996 -0.0074229704 -6.4283856e-19)
(-0.0031020708 -0.0072300954 -1.2494929e-20)
(-0.0029340694 -0.0070334673 1.9599526e-19)
(-0.0027709982 -0.0068339401 5.9428056e-20)
(-0.0026167582 -0.0066335371 2.2660671e-19)
(-0.0024735844 -0.006434778 -3.542662e-20)
(-0.0023423119 -0.0062401578 -1.4872968e-19)
(-0.0022227117 -0.0060517854 -2.2610334e-19)
(-0.002113854 -0.0058711985 1.7683863e-20)
(-0.0020144377 -0.0056993209 -1.8248383e-19)
(-0.0019230534 -0.0055365165 -2.7982729e-19)
(-0.0018383667 -0.0053827004 -1.3548191e-19)
(-0.0017592274 -0.0052374726 -6.7591042e-20)
(-0.0016847158 -0.0051002464 3.4459954e-20)
(-0.0016141425 -0.0049703582 -7.0992525e-20)
(-0.0015470185 -0.0048471474 -2.4022527e-19)
(-0.0014830117 -0.0047300088 -7.6022756e-20)
(-0.0014218993 -0.0046184179 1.051666e-20)
(-0.0013635264 -0.0045119369 -7.2157123e-21)
(-0.0013077734 -0.0044102074 -3.1319462e-20)
(-0.0012545334 -0.0043129357 -9.813593e-20)
(-0.0012036998 -0.0042198774 6.0596001e-21)
(-0.0011551607 -0.0041308224 6.1335796e-20)
(-0.0011087985 -0.0040455827 8.9815404e-20)
(-0.0010644921 -0.0039639851 5.6745038e-21)
(-0.0010221207 -0.0038858652 -3.5919126e-20)
(-0.00098156611 -0.0038110657 -4.9209136e-20)
(-0.00094271595 -0.0037394355 -3.6655547e-20)
(-0.00090546466 -0.0036708295 6.4373225e-20)
(-0.00086971415 -0.0036051094 2.7486088e-20)
(-0.00083537374 -0.0035421442 1.3777937e-22)
(-0.00080235958 -0.0034818099 2.6337207e-20)
(-0.00077059405 -0.0034239902 7.4722131e-21)
(-0.00074000501 -0.0033685755 -9.9131044e-21)
(-0.00071052522 -0.0033154628 -4.0662726e-20)
(-0.0006820918 -0.0032645552 -1.0680123e-20)
(-0.00065464587 -0.0032157617 -1.8513575e-20)
(-0.00062813223 -0.0031689959 2.5105504e-20)
(-0.00060249911 -0.0031241765 4.2831061e-20)
(-0.00057769803 -0.0030812264 3.4603597e-20)
(-0.00055368362 -0.0030400727 -7.7165897e-21)
(-0.00053041346 -0.0030006461 1.3982064e-22)
(-0.00050784798 -0.002962881 3.2252298e-20)
(-0.00048595031 -0.0029267153 8.5144125e-21)
(-0.00046468614 -0.0028920898 -2.3725184e-20)
(-0.00044402365 -0.0028589486 -6.7646409e-20)
(-0.00042393337 -0.0028272389 -2.3882961e-20)
(-0.00040438805 -0.0027969102 -1.1923894e-20)
(-0.00038536262 -0.0027679154 -2.4536113e-21)
(-0.00036683403 -0.0027402094 -3.7332223e-21)
(-0.00034878117 -0.0027137502 -8.0961313e-21)
(-0.00033118479 -0.0026884981 2.0435939e-20)
(-0.00031402738 -0.0026644159 1.9743397e-20)
(-0.00029729306 -0.0026414689 9.4548345e-21)
(-0.00028096748 -0.0026196248 2.8148976e-20)
(-0.00026503772 -0.0025988538 1.0004296e-20)
(-0.00024949216 -0.0025791288 -5.1822238e-21)
(-0.0002343203 -0.0025604246 -1.6746854e-21)
(-0.00021951269 -0.002542719 -4.7001382e-21)
(-0.00020506072 -0.0025259921 -1.4464507e-20)
(-0.00019095646 -0.0025102265 -2.1748375e-20)
(-0.00017719246 -0.0024954074 -3.1674002e-20)
(-0.00016376154 -0.0024815224 -1.3568331e-20)
(-0.00015065652 -0.0024685618 -1.6291749e-20)
(-0.00013787001 -0.0024565184 -1.3737072e-20)
(-0.00012539409 -0.0024453873 -7.0191156e-21)
(-0.00011322 -0.0024351661 2.1907008e-20)
(-0.00010133782 -0.0024258543 3.3473831e-21)
(-8.9736145e-05 -0.0024174536 2.0793209e-20)
(-7.8401745e-05 -0.0024099669 1.7011557e-20)
(-6.7319247e-05 -0.0024033978 4.5498219e-21)
(-5.647096e-05 -0.0023977489 1.1377692e-20)
(-4.5837009e-05 -0.0023930195 1.0671228e-20)
(-3.539511e-05 -0.0023892022 1.6029776e-20)
(-2.5116173e-05 -0.0023862768 1.4739446e-21)
(-1.4965487e-05 -0.0023842068 2.8066087e-21)
(-4.9456504e-06 -0.0023829744 5.9212365e-21)
(-0.0034923274 -0.008048037 -3.3202052e-19)
(-0.0033877634 -0.0078869157 -8.1166346e-19)
(-0.0032465314 -0.007723646 -7.7425756e-19)
(-0.0030826447 -0.0075507455 -1.5166309e-19)
(-0.0029085639 -0.0073655089 6.3881334e-19)
(-0.0027343555 -0.0071687136 5.8332628e-19)
(-0.0025673663 -0.0069633535 2.4777039e-19)
(-0.0024122912 -0.0067535451 1.9996672e-19)
(-0.0022714875 -0.0065436615 -6.3431042e-20)
(-0.0021454239 -0.0063376544 1.4930039e-19)
(-0.0020332188 -0.0061386418 3.6091222e-20)
(-0.0019331895 -0.0059487472 -8.8781475e-20)
(-0.0018433176 -0.0057691267 -2.2526343e-19)
(-0.0017615955 -0.0056001165 3.4296088e-20)
(-0.0016862491 -0.0054414412 8.7339981e-20)
(-0.0016158507 -0.0052924302 1.8395816e-20)
(-0.0015493454 -0.0051522115 4.8143755e-21)
(-0.0014860188 -0.0050198636 -5.7548951e-20)
(-0.0014254314 -0.0048945209 -6.1891476e-20)
(-0.0013673415 -0.0047754335 1.6674166e-20)
(-0.0013116303 -0.0046619878 3.0814261e-20)
(-0.0012582423 -0.0045537019 2.988929e-20)
(-0.0012071409 -0.0044502042 -4.9602612e-20)
(-0.0011582833 -0.0043512068 2.9626769e-20)
(-0.0011116074 -0.0042564792 1.3113786e-19)
(-0.00106703 -0.0041658257 7.0800587e-20)
(-0.0010244511 -0.0040790704 4.9575314e-20)
(-0.00098375974 -0.0039960462 1.0555596e-20)
(-0.00094484147 -0.0039165907 2.4732325e-21)
(-0.00090758356 -0.0038405443 3.6573907e-20)
(-0.00087187895 -0.0037677509 7.3872459e-20)
(-0.00083762821 -0.0036980593 8.8247212e-20)
(-0.00080474019 -0.0036313249 -3.4217497e-21)
(-0.00077313163 -0.0035674105 -6.9915828e-22)
(-0.0007427263 -0.0035061868 4.192238e-21)
(-0.00071345405 -0.0034475327 3.0203439e-20)
(-0.00068524981 -0.0033913346 -8.8377502e-21)
(-0.00065805292 -0.0033374863 -7.2740441e-20)
(-0.00063180652 -0.0032858878 2.3619933e-20)
(-0.00060645722 -0.0032364451 9.1379175e-21)
(-0.00058195484 -0.0031890695 3.7081368e-20)
(-0.00055825225 -0.003143677 5.0402353e-20)
(-0.00053530523 -0.0031001883 1.8640337e-20)
(-0.00051307241 -0.0030585281 -8.6336564e-21)
(-0.00049151513 -0.0030186248 1.4398433e-20)
(-0.00047059733 -0.0029804109 1.226431e-20)
(-0.00045028552 -0.0029438219 -1.2701685e-20)
(-0.00043054858 -0.0029087968 9.3366861e-21)
(-0.00041135774 -0.0028752778 -6.8144639e-21)
(-0.00039268645 -0.0028432101 -1.730988e-20)
(-0.00037451032 -0.0028125417 -1.5832873e-20)
(-0.00035680697 -0.0027832233 -1.1537102e-20)
(-0.00033955604 -0.0027552087 -1.1574676e-20)
(-0.00032273902 -0.0027284539 -1.2754181e-20)
(-0.00030633922 -0.0027029179 3.0578423e-20)
(-0.00029034165 -0.0026785619 3.3360137e-20)
(-0.00027473297 -0.00265535 2.1883683e-20)
(-0.00025950133 -0.0026332486 1.9003508e-20)
(-0.00024463632 -0.0026122267 4.5397626e-21)
(-0.00023012883 -0.0025922561 7.0568895e-22)
(-0.00021597094 -0.0025733108 1.2336246e-21)
(-0.00020215574 -0.0025553677 -1.2607522e-21)
(-0.00018867724 -0.0025384063 -4.73177e-21)
(-0.00017553012 -0.0025224087 -1.0223539e-21)
(-0.00016270959 -0.0025073599 -8.6053717e-21)
(-0.0001502111 -0.0024932475 2.2767392e-21)
(-0.00013803015 -0.002480062 1.8788626e-20)
(-0.00012616196 -0.0024677967 -7.6538728e-21)
(-0.00011460117 -0.0024564476 9.8416849e-21)
(-0.00010334144 -0.0024460134 1.0819075e-20)
(-9.2375147e-05 -0.0024364953 9.8624548e-21)
(-8.1692877e-05 -0.0024278968 2.2884135e-20)
(-7.1283071e-05 -0.0024202232 1.0077539e-20)
(-6.1131589e-05 -0.0024134805 2.7305939e-20)
(-5.1221406e-05 -0.0024076745 2.4258681e-21)
(-4.1532628e-05 -0.0024028073 1.368796e-20)
(-3.2042235e-05 -0.0023988741 2.6382162e-20)
(-2.272003e-05 -0.0023958572 5.7637058e-21)
(-1.3529923e-05 -0.0023937213 5.9604558e-21)
(-4.4695987e-06 -0.0023924494 6.1574334e-21)
(-0.0033510159 -0.0080789504 -4.4788345e-19)
(-0.0032443708 -0.0079711453 -8.6044906e-19)
(-0.0030905756 -0.0078442651 -3.3485032e-19)
(-0.002909651 -0.0076920587 1.7100655e-20)
(-0.0027186191 -0.007514268 2.7490183e-19)
(-0.0025305982 -0.0073147473 5.1648747e-19)
(-0.0023546215 -0.0070996951 4.3983448e-21)
(-0.0021959613 -0.0068762417 2.4323694e-19)
(-0.0020566833 -0.0066512984 1.2679614e-19)
(-0.001936366 -0.0064306984 2.0311773e-19)
(-0.0018329517 -0.0062187633 3.0593749e-19)
(-0.001743549 -0.0060182103 -1.8648414e-20)
(-0.001665071 -0.0058303065 -4.6520719e-20)
(-0.0015946784 -0.0056551731 2.5265554e-19)
(-0.0015300316 -0.0054921391 1.4777541e-19)
(-0.0014693854 -0.0053400745 7.2665722e-20)
(-0.0014115705 -0.0051976677 -1.0879092e-19)
(-0.0013559048 -0.0050636301 -1.2572114e-20)
(-0.0013020712 -0.0049368277 4.5847129e-20)
(-0.00124999 -0.0048163396 3.3404358e-20)
(-0.0011997063 -0.0047014645 5.5243349e-20)
(-0.0011513073 -0.0045916935 1.0711765e-20)
(-0.0011048674 -0.0044866669 2.1104035e-20)
(-0.0010604207 -0.0043861276 1.2619967e-19)
(-0.0010179529 -0.0042898803 1.2342647e-19)
(-0.00097740666 -0.0041977605 4.3238296e-20)
(-0.00093869298 -0.0041096136 -4.641659e-20)
(-0.00090170462 -0.0040252846 4.2948579e-20)
(-0.0008663279 -0.0039446141 6.9454617e-20)
(-0.00083245138 -0.00386744 3.9438571e-20)
(-0.00079997113 -0.0037935999 3.7885685e-20)
(-0.00076879303 -0.0037229349 2.4850266e-20)
(-0.00073883299 -0.0036552927 2.3239666e-20)
(-0.00071001588 -0.0035905293 1.2070916e-20)
(-0.00068227397 -0.00352851 -2.5597572e-20)
(-0.00065554537 -0.0034691091 -2.2552095e-21)
(-0.00062977282 -0.0034122097 6.3542986e-22)
(-0.00060490268 -0.0033577025 1.2484141e-20)
(-0.00058088446 -0.0033054851 3.7247847e-20)
(-0.00055767046 -0.0032554611 4.7368456e-20)
(-0.00053521565 -0.0032075397 3.2463402e-20)
(-0.00051347759 -0.0031616347 3.2516272e-20)
(-0.00049241642 -0.0031176647 2.765887e-20)
(-0.0004719948 -0.0030755523 2.9356628e-20)
(-0.00045217788 -0.0030352239 5.6406157e-21)
(-0.00043293323 -0.0029966098 2.400943e-20)
(-0.00041423075 -0.0029596438 1.3889937e-20)
(-0.0003960426 -0.0029242629 -1.7904326e-20)
(-0.00037834312 -0.0028904075 2.2462862e-21)
(-0.00036110875 -0.002858021 -1.1799139e-20)
(-0.00034431797 -0.0028270496 -2.0799828e-20)
(-0.00032795124 -0.0027974425 -9.0645532e-21)
(-0.00031199088 -0.0027691517 -1.5934605e-20)
(-0.00029642106 -0.0027421318 -1.0095036e-20)
(-0.00028122773 -0.0027163402 -3.6348572e-21)
(-0.00026639851 -0.0026917366 1.0371747e-21)
(-0.00025192263 -0.0026682838 -8.7498651e-21)
(-0.00023779085 -0.002645947 -2.8846869e-21)
(-0.00022399538 -0.0026246938 -9.987573e-21)
(-0.00021052975 -0.002604495 3.4470209e-21)
(-0.00019738872 -0.0025853235 8.0141109e-21)
(-0.00018456809 -0.0025671556 1.6479046e-20)
(-0.00017206464 -0.0025499698 2.267731e-20)
(-0.00015987587 -0.0025337479 1.4710651e-20)
(-0.00014799984 -0.0025184744 9.209831e-21)
(-0.00013643495 -0.002504137 1.6808949e-20)
(-0.00012517962 -0.0024907265 9.1500224e-21)
(-0.00011423201 -0.0024782365 3.9681331e-21)
(-0.00010358966 -0.002466664 2.1042774e-20)
(-9.324909e-05 -0.002456009 -2.3831976e-21)
(-8.3205324e-05 -0.0024462745 1.4099339e-20)
(-7.3451397e-05 -0.0024374662 7.8672587e-21)
(-6.397783e-05 -0.002429592 2.4240913e-20)
(-5.4772067e-05 -0.0024226613 1.9144641e-20)
(-4.581802e-05 -0.0024166831 9.3874868e-21)
(-3.7095909e-05 -0.0024116634 6.3956584e-21)
(-2.8581918e-05 -0.002407601 -2.2413619e-21)
(-2.0244463e-05 -0.0024044812 -2.6400434e-21)
(-1.2045531e-05 -0.0024022707 -1.3639265e-21)
(-3.9770969e-06 -0.002400954 -1.3709942e-20)
(-0.0032800395 -0.0081130703 2.2900419e-19)
(-0.0031512933 -0.0080732631 -1.9400984e-19)
(-0.002965711 -0.0079900453 1.5757992e-19)
(-0.0027510013 -0.0078598609 -6.0060056e-19)
(-0.002529721 -0.0076865696 -3.8039194e-19)
(-0.0023183814 -0.0074787369 2.7269487e-19)
(-0.0021275908 -0.0072472305 1.260401e-19)
(-0.0019627468 -0.0070034228 5.398096e-19)
(-0.0018249058 -0.0067575976 2.2700688e-20)
(-0.0017119455 -0.0065179433 -1.3153471e-19)
(-0.0016198672 -0.0062901361 2.1308512e-19)
(-0.001543935 -0.0060773836 -1.2435997e-20)
(-0.0014795372 -0.0058808009 1.3432998e-19)
(-0.0014227307 -0.0056999702 6.3454578e-20)
(-0.0013704925 -0.0055335052 -6.3846613e-20)
(-0.0013207564 -0.0053795393 -4.7944325e-20)
(-0.0012723109 -0.0052361078 -1.6504357e-19)
(-0.00122462 -0.0051014197 2.1142392e-20)
(-0.0011776122 -0.0049740053 8.1078878e-20)
(-0.0011314785 -0.0048527589 -4.4073387e-20)
(-0.0010865125 -0.0047369124 -1.3069284e-20)
(-0.0010429998 -0.0046259688 -7.8322583e-21)
(-0.0010011556 -0.0045196242 6.4197237e-20)
(-0.00096110154 -0.0044176923 9.2666427e-21)
(-0.00092286772 -0.0043200444 1.6838378e-21)
(-0.00088641188 -0.0042265674 2.6909647e-21)
(-0.00085164349 -0.0041371398 -2.7338107e-20)
(-0.00081844717 -0.0040516226 1.0958513e-19)
(-0.00078670123 -0.0039698592 4.7170505e-20)
(-0.00075628991 -0.0038916817 -2.1057095e-20)
(-0.00072710973 -0.0038169179 -3.2468206e-20)
(-0.0006990714 -0.0037453984 -1.9752858e-20)
(-0.00067209866 -0.003676961 2.6412061e-20)
(-0.00064612587 -0.0036114541 -1.7318592e-20)
(-0.00062109524 -0.003548737 -4.1690305e-20)
(-0.0005969544 -0.0034886803 -1.5452103e-20)
(-0.00057365467 -0.003431164 3.2035415e-20)
(-0.00055115005 -0.0033760767 3.0457599e-20)
(-0.00052939665 -0.0033233143 -5.8605061e-20)
(-0.00050835258 -0.0032727788 2.8166095e-20)
(-0.00048797797 -0.0032243774 5.9931411e-20)
(-0.00046823508 -0.0031780224 6.42236e-20)
(-0.00044908839 -0.0031336302 2.694279e-20)
(-0.00043050463 -0.0030911217 9.035695e-21)
(-0.00041245279 -0.0030504214 -3.4226969e-21)
(-0.00039490408 -0.0030114578 1.4466171e-20)
(-0.00037783187 -0.0029741626 1.6934116e-20)
(-0.00036121163 -0.0029384714 -3.0778716e-21)
(-0.00034502086 -0.0029043226 1.7771337e-20)
(-0.00032923905 -0.002871658 -1.4276872e-20)
(-0.0003138476 -0.0028404221 -1.8179422e-20)
(-0.0002988298 -0.0028105625 -3.2975007e-21)
(-0.00028417076 -0.0027820296 2.8726666e-20)
(-0.00026985736 -0.0027547764 1.9776382e-20)
(-0.00025587823 -0.0027287588 -4.423669e-21)
(-0.00024222365 -0.0027039352 3.9833578e-21)
(-0.00022888552 -0.0026802668 -1.4654986e-20)
(-0.00021585729 -0.0026577174 -1.5984801e-20)
(-0.00020313385 -0.0026362536 -4.2546486e-21)
(-0.0001907115 -0.0026158448 2.521759e-20)
(-0.00017858777 -0.0025964631 3.2768281e-20)
(-0.00016676136 -0.0025780835 2.4366332e-20)
(-0.00015523196 -0.002560684 4.4984744e-20)
(-0.00014400009 -0.0025442456 4.3088864e-20)
(-0.00013306692 -0.0025287526 3.209642e-20)
(-0.00012243401 -0.0025141925 1.7743727e-20)
(-0.00011210305 -0.0025005561 1.9534209e-20)
(-0.00010207549 -0.0024878377 -1.4942904e-22)
(-9.2352221e-05 -0.0024760351 3.9016885e-21)
(-8.293303e-05 -0.0024651498 -2.4275068e-21)
(-7.3816121e-05 -0.0024551866 1.5106331e-20)
(-6.4997512e-05 -0.0024461537 1.8387958e-20)
(-5.6470344e-05 -0.0024380622 3.860928e-20)
(-4.8224154e-05 -0.0024309251 1.6961055e-20)
(-4.0244229e-05 -0.0024247557 1.748504e-20)
(-3.251117e-05 -0.0024195649 -3.5201591e-21)
(-2.5000385e-05 -0.0024153559 -2.2462468e-20)
(-1.7678637e-05 -0.0024121185 -9.3494838e-21)
(-1.0505333e-05 -0.002409822 -1.5094186e-20)
(-3.4657243e-06 -0.0024084535 -2.8904422e-20)
(-0.0032992717 -0.0081729541 -1.2222658e-19)
(-0.0031193548 -0.0082160788 -2.1769512e-19)
(-0.0028752465 -0.0081817868 -3.4701102e-20)
(-0.0026043622 -0.0080714265 -4.7327108e-19)
(-0.0023358325 -0.0078953721 4.3531618e-20)
(-0.0020897643 -0.0076691607 3.6787567e-19)
(-0.0018779751 -0.0074103759 2.5601826e-19)
(-0.0017051428 -0.0071361949 6.0788851e-19)
(-0.0015701458 -0.0068612753 3.9939061e-19)
(-0.0014679533 -0.0065966544 6.7352245e-20)
(-0.0013915265 -0.0063494096 1.4771042e-19)
(-0.0013334158 -0.0061229385 3.199419e-19)
(-0.0012869131 -0.0059177168 1.6169664e-19)
(-0.0012466808 -0.005732263 -3.6186774e-20)
(-0.0012089348 -0.0055639962 3.3431627e-20)
(-0.0011713548 -0.0054099151 8.1280262e-20)
(-0.001132849 -0.0052671216 1.1649796e-19)
(-0.0010932308 -0.0051331649 3.8726247e-20)
(-0.0010528692 -0.005006183 5.4921382e-20)
(-0.0010123855 -0.0048849004 1.168079e-19)
(-0.00097243362 -0.0047685386 1.1171911e-19)
(-0.00093356454 -0.0046566864 1.6890414e-19)
(-0.00089616292 -0.0045491677 1.0113487e-19)
(-0.00086043799 -0.0044459272 -2.7053264e-20)
(-0.00082644855 -0.0043469452 8.0803579e-20)
(-0.00079414448 -0.0042521854 1.7249315e-19)
(-0.00076341088 -0.00416157 1.0131051e-19)
(-0.00073410566 -0.0040749764 5.2577764e-20)
(-0.00070608644 -0.0039922459 -2.7145667e-22)
(-0.00067922619 -0.0039131978 4.6009873e-20)
(-0.00065341952 -0.0038376434 3.9721201e-20)
(-0.00062858253 -0.0037653973 5.7471371e-20)
(-0.00060464899 -0.0036962847 4.3835213e-20)
(-0.00058156535 -0.0036301449 3.5734509e-20)
(-0.00055928605 -0.0035668317 5.1296108e-20)
(-0.00053776992 -0.0035062124 1.5809505e-20)
(-0.00051697795 -0.0034481655 1.9862598e-20)
(-0.00049687224 -0.0033925785 3.3694532e-20)
(-0.00047741567 -0.0033393466 -4.4128701e-20)
(-0.00045857209 -0.0032883706 -9.8617822e-21)
(-0.00044030667 -0.0032395567 3.2264557e-21)
(-0.00042258625 -0.0031928155 -2.0583965e-21)
(-0.00040537956 -0.0031480621 4.2517345e-21)
(-0.00038865737 -0.0031052152 -1.0526609e-20)
(-0.00037239251 -0.003064198 4.3025878e-21)
(-0.00035655985 -0.0030249369 -2.342183e-21)
(-0.00034113628 -0.0029873622 4.4403195e-20)
(-0.00032610061 -0.0029514076 4.0787643e-20)
(-0.00031143354 -0.0029170101 2.753554e-20)
(-0.00029711761 -0.0028841095 2.2080369e-20)
(-0.00028313721 -0.0028526491 8.4986491e-21)
(-0.00026947846 -0.0028225747 2.3795084e-20)
(-0.00025612929 -0.0027938352 5.9381001e-20)
(-0.00024307933 -0.002766382 1.7051825e-20)
(-0.00023031992 -0.0027401695 1.1746951e-20)
(-0.00021784405 -0.0027151547 1.8717617e-20)
(-0.00020564635 -0.0026912972 2.5404117e-20)
(-0.000193723 -0.0026685595 1.8410058e-20)
(-0.0001820717 -0.002646907 2.0483123e-20)
(-0.00017069155 -0.0026263075 3.7096518e-20)
(-0.00015958301 -0.0026067322 3.2984188e-20)
(-0.00014874778 -0.002588155 3.5590926e-20)
(-0.00013818865 -0.002570553 3.2429981e-20)
(-0.00012790935 -0.0025539065 3.6856935e-20)
(-0.00011791439 -0.0025381992 2.7154479e-20)
(-0.00010820878 -0.0025234184 2.0689416e-20)
(-9.8797799e-05 -0.0025095549 2.0900311e-20)
(-8.968661e-05 -0.0024966034 1.4176525e-20)
(-8.087987e-05 -0.0024845626 -8.6279037e-21)
(-7.2381205e-05 -0.0024734354 1.9439484e-20)
(-6.419262e-05 -0.0024632286 3.535333e-20)
(-5.6313782e-05 -0.0024539531 3.7840915e-20)
(-4.8741178e-05 -0.0024456236 1.9786638e-20)
(-4.1467167e-05 -0.0024382574 1.4453211e-20)
(-3.4479051e-05 -0.0024318732 -2.0269132e-21)
(-2.7758309e-05 -0.0024264874 -1.6133217e-20)
(-2.1279778e-05 -0.0024221095 -1.8159342e-20)
(-1.5008369e-05 -0.0024187349 -1.5602475e-20)
(-8.9001356e-06 -0.0024163375 -1.6138575e-20)
(-2.9322825e-06 -0.0024149078 -3.0074464e-20)
(-0.0034299566 -0.0082918507 -2.6932019e-19)
(-0.0031578538 -0.0084317446 -5.4270936e-19)
(-0.002818878 -0.0084476907 -6.6155386e-19)
(-0.0024625632 -0.0083492177 -1.0528393e-19)
(-0.0021256356 -0.0081566028 2.409262e-19)
(-0.0018317877 -0.0078955152 4.8280075e-19)
(-0.0015932319 -0.0075930588 3.2410367e-19)
(-0.0014124307 -0.0072741518 2.7297391e-19)
(-0.0012842982 -0.0069589951 1.9916479e-19)