/*--------------------------------*- C++ -*----------------------------------*\
| =========                 |                                                 |
| \\      /  F ield         | OpenFOAM: The Open Source CFD Toolbox           |
|  \\    /   O peration     | Version:  2306                                  |
|   \\  /    A nd           | Website:  www.openfoam.com                      |
|    \\/     M anipulation  |                                                 |
\*---------------------------------------------------------------------------*/
FoamFile
{
    version     2.0;
    format      ascii;
    arch        "LSB;label=32;scalar=64";
    class       volVectorField;
    location    "0.45";
    object      U;
}
// * * * * * * * * * * * * * * * * * * * * * * * * * * * * * * * * * * * * * //

dimensions      [0 1 -1 0 0 0 0];

internalField   nonuniform List<vector> 
6400
(
(-0.0014171555 -0.057915203 -2.5355261e-17)
(-0.0031181666 -0.057596027 -5.0741318e-17)
(-0.0050335831 -0.056925508 -5.9810542e-17)
(-0.0067922942 -0.056082362 -8.1028615e-18)
(-0.0084983637 -0.055153241 7.5938309e-18)
(-0.010128206 -0.054163181 5.9921013e-17)
(-0.011681785 -0.053119669 4.6398155e-17)
(-0.013165544 -0.052021597 1.1725553e-17)
(-0.014581496 -0.050868216 -5.6410684e-19)
(-0.015931554 -0.049659509 -1.0924296e-17)
(-0.017216965 -0.048395397 -9.888919e-18)
(-0.018438139 -0.047075941 -6.6494628e-18)
(-0.019594309 -0.045701109 -8.0461116e-18)
(-0.02068377 -0.044271181 -4.4600472e-18)
(-0.021703885 -0.042787146 1.9135057e-18)
(-0.022651255 -0.041250591 5.668678e-18)
(-0.023522179 -0.03966398 1.8624516e-18)
(-0.024312833 -0.038030705 4.70055e-18)
(-0.025019457 -0.036355225 7.5956982e-18)
(-0.02563849 -0.034643086 1.0463012e-17)
(-0.026167089 -0.03290072 7.8489045e-18)
(-0.026603099 -0.031135199 5.4966996e-18)
(-0.026945223 -0.029354253 2.2693165e-18)
(-0.027193138 -0.027565882 7.8271087e-18)
(-0.02734744 -0.025778227 1.3968537e-17)
(-0.027409643 -0.023999368 5.1627281e-18)
(-0.0273821 -0.022237149 3.000204e-19)
(-0.027267904 -0.020499059 4.6316319e-18)
(-0.0270708 -0.018792169 1.0003724e-17)
(-0.026795114 -0.017123017 1.2585325e-17)
(-0.026445634 -0.015497542 5.0752001e-18)
(-0.02602751 -0.01392105 1.0420897e-18)
(-0.025546159 -0.012398198 1.486979e-18)
(-0.025007182 -0.010932983 5.0118609e-18)
(-0.024416286 -0.00952875 7.6291787e-18)
(-0.023779207 -0.0081882119 -2.8673035e-19)
(-0.023101649 -0.0069134691 -1.3379405e-18)
(-0.022389233 -0.005706041 1.2642573e-18)
(-0.021647441 -0.0045669004 2.9538529e-18)
(-0.020881584 -0.0034965091 5.8616176e-18)
(-0.020096763 -0.0024948556 3.6487932e-18)
(-0.019297824 -0.0015615034 5.242311e-19)
(-0.018489337 -0.00069565104 -3.7414983e-18)
(-0.017675906 0.000103937 -2.9080028e-18)
(-0.016861223 0.00083873066 -7.7996453e-20)
(-0.01604916 0.0015104823 -4.7065532e-19)
(-0.015243199 0.0021211983 -2.9012044e-18)
(-0.014446481 0.002673081 -3.2637016e-18)
(-0.013661852 0.0031685019 -3.2275844e-18)
(-0.012891865 0.0036099663 -3.5243201e-19)
(-0.012138785 0.0040000842 1.4471315e-18)
(-0.011404592 0.0043415427 1.5890728e-19)
(-0.010690995 0.0046370797 -3.6123505e-20)
(-0.0099994391 0.0048894596 -8.8461832e-19)
(-0.0093311213 0.0051014514 -1.8805878e-19)
(-0.0086869998 0.0052758079 1.4217336e-18)
(-0.0080678099 0.005415248 1.5321268e-18)
(-0.0074740776 0.0055224397 2.4330929e-19)
(-0.0069061351 0.0055999858 -1.0619194e-18)
(-0.006364135 0.0056504113 -2.1836819e-19)
(-0.0058480661 0.0056761525 8.9590117e-19)
(-0.0053577684 0.0056795475 3.2586292e-19)
(-0.0048929483 0.0056628291 -1.1930216e-18)
(-0.0044531936 0.0056281185 -1.2796837e-18)
(-0.0040379878 0.005577421 9.1272069e-20)
(-0.0036467246 0.0055126229 6.7934944e-19)
(-0.003278721 0.0054354904 6.9396169e-19)
(-0.0029332303 0.0053476682 1.5442977e-19)
(-0.0026094545 0.0052506809 -4.4665363e-19)
(-0.0023065563 0.0051459345 4.939292e-19)
(-0.0020236681 0.0050347193 8.0816659e-19)
(-0.001759904 0.0049182124 2.3846375e-21)
(-0.0015143666 0.0047974834 -3.951831e-19)
(-0.0012861592 0.0046734983 -7.3621346e-19)
(-0.0010743883 0.0045471216 5.2432245e-20)
(-0.00087816204 0.0044191285 7.6823589e-20)
(-0.00069662913 0.0042902057 -3.3300792e-20)
(-0.00052893329 0.0041609548 -3.3162675e-19)
(-0.00037426533 0.0040319044 -4.7349155e-19)
(-0.00023184842 0.0039035207 -2.5578332e-19)
(-0.001293817 -0.054061334 1.8057616e-17)
(-0.0028563876 -0.053800847 -3.2585668e-17)
(-0.004621537 -0.053238299 -4.0891267e-18)
(-0.0062538465 -0.052519849 7.3306915e-18)
(-0.0078458965 -0.051713374 2.5873666e-17)
(-0.009371236 -0.050840369 3.6439823e-17)
(-0.010829822 -0.049907912 2.9828424e-17)
(-0.012225521 -0.048916684 4.6844189e-18)
(-0.013559485 -0.047866876 -1.0008296e-17)
(-0.014832549 -0.046759509 -5.4252353e-18)
(-0.016045042 -0.045595353 -3.9281625e-18)
(-0.017196697 -0.044375396 -7.2093373e-19)
(-0.018286359 -0.043100654 -6.583008e-19)
(-0.019312334 -0.041772438 2.2107047e-18)
(-0.020272225 -0.040392377 1.2934067e-18)
(-0.021163048 -0.03896284 -8.473821e-19)
(-0.021981668 -0.037486733 8.9124852e-18)
(-0.022725002 -0.035967749 7.5157155e-18)
(-0.023390047 -0.034410284 9.4178067e-18)
(-0.023973974 -0.032819519 7.4610207e-18)
(-0.024474551 -0.031201359 1.1723997e-17)
(-0.024890089 -0.029562193 1.0949062e-17)
(-0.02521961 -0.027908899 7.1372263e-18)
(-0.025462918 -0.026248596 1.3994465e-17)
(-0.025620585 -0.024588499 2.1252532e-18)
(-0.02569395 -0.022935798 2.9778327e-18)
(-0.025685065 -0.021297496 8.3109364e-18)
(-0.025596625 -0.019680298 9.9979753e-18)
(-0.025431896 -0.018090562 1.4967014e-17)
(-0.025194653 -0.016534201 1.001232e-18)
(-0.024889097 -0.015016623 1.4459691e-18)
(-0.024519764 -0.013542699 5.8921994e-18)
(-0.024091441 -0.012116736 6.0459157e-18)
(-0.023609103 -0.010742473 9.5510951e-18)
(-0.023077837 -0.0094230746 -2.6388566e-18)
(-0.022502782 -0.0081611468 -2.0122173e-19)
(-0.021889068 -0.0069587514 2.7936967e-18)
(-0.02124177 -0.0058174289 3.618841e-18)
(-0.020565863 -0.0047382262 5.4207409e-18)
(-0.019866181 -0.0037217264 -1.9818222e-18)
(-0.019147389 -0.0027680795 -2.9168149e-18)
(-0.018413952 -0.0018770373 -2.2510654e-18)
(-0.017670093 -0.0010480186 -4.6461207e-18)
(-0.016919797 -0.00028011511 -2.8482546e-18)
(-0.016167047 0.00042809794 -9.2514057e-19)
(-0.015415089 0.001077878 -8.2483323e-19)
(-0.014667241 0.0016710197 -3.1824445e-18)
(-0.013926464 0.0022094322 -4.1760668e-18)
(-0.013195465 0.0026951871 -3.0479264e-18)
(-0.01247668 0.0031304917 -5.32758e-19)
(-0.01177228 0.0035176593 4.3489448e-19)
(-0.011084181 0.0038590854 -6.7079646e-19)
(-0.010414051 0.0041572215 -6.1243594e-19)
(-0.0097633166 0.0044145543 -1.3749525e-18)
(-0.0091331752 0.0046335845 -9.7013854e-19)
(-0.0085246063 0.0048168071 3.0291384e-19)
(-0.0079383824 0.0049666953 5.6325645e-19)
(-0.0073750823 0.005085684 3.9259588e-19)
(-0.0068351034 0.0051761565 -1.3349365e-18)
(-0.0063186759 0.0052404318 -1.5508595e-18)
(-0.0058258754 0.0052807553 -3.5493179e-19)
(-0.0053566373 0.0052992879 -7.1331226e-19)
(-0.00491077 0.0052981005 -1.4369744e-18)
(-0.0044879684 0.0052791668 -1.4369564e-18)
(-0.0040878268 0.0052443588 -6.0797641e-19)
(-0.0037098521 0.0051954438 -5.3620911e-21)
(-0.0033534759 0.0051340827 4.3439938e-20)
(-0.0030180663 0.0050618281 -1.3471189e-19)
(-0.002702939 0.0049801249 -5.4666017e-19)
(-0.0024073684 0.0048903119 -5.4984902e-20)
(-0.0021305964 0.0047936223 3.3914045e-19)
(-0.0018718422 0.004691188 -5.7376909e-20)
(-0.0016303103 0.0045840431 -5.4329288e-19)
(-0.0014052012 0.0044731223 -7.5162891e-19)
(-0.0011957141 0.004359278 -2.1399713e-19)
(-0.0010010466 0.0042432694 -1.6065158e-19)
(-0.0008204246 0.0041257703 -3.2114775e-19)
(-0.00065306823 0.0040074 -5.0628795e-19)
(-0.00049823781 0.0038886761 -5.0239605e-19)
(-0.00035522321 0.0037700822 -3.7858468e-19)
(-0.0011842434 -0.050530401 2.6273115e-17)
(-0.0026218622 -0.050315736 -1.4475088e-17)
(-0.0042501344 -0.049840251 -1.7373464e-18)
(-0.0057652455 -0.04922419 1.0533744e-17)
(-0.0072502409 -0.048520636 1.4740474e-17)
(-0.0086770687 -0.047747954 1.0856123e-17)
(-0.010045509 -0.046912568 1.8746661e-17)
(-0.011357434 -0.046016043 1.2757624e-18)
(-0.012613182 -0.045059387 -6.0213031e-20)
(-0.013812733 -0.0440442 3.0212996e-18)
(-0.014955647 -0.042972022 2.9119201e-18)
(-0.016041235 -0.041844436 -5.7278699e-18)
(-0.017068128 -0.040663255 -6.2660503e-19)
(-0.01803456 -0.039430377 -3.5736325e-18)
(-0.018938391 -0.038147987 -1.2384629e-18)
(-0.019777005 -0.036818845 3.6821431e-18)
(-0.020547708 -0.035446146 2.1275793e-18)
(-0.021247946 -0.034033751 -6.0262505e-19)
(-0.021875256 -0.032585912 -3.9796869e-18)
(-0.022427379 -0.031107542 -7.0087574e-18)
(-0.022902538 -0.02960406 -6.6918884e-18)
(-0.023299417 -0.028081294 -4.3391935e-18)
(-0.023617285 -0.026545419 3.3780992e-18)
(-0.023856049 -0.025002812 1.7907242e-18)
(-0.02401626 -0.02345992 4.7575568e-18)
(-0.024099118 -0.021923168 4.096618e-18)
(-0.024106435 -0.020398835 -1.8512489e-18)
(-0.024040576 -0.018892949 1.9237864e-18)
(-0.023904401 -0.017411243 2.5383427e-18)
(-0.023701224 -0.015959077 5.7456237e-18)
(-0.023434746 -0.014541382 5.7779377e-18)
(-0.02310897 -0.01316263 -1.3008967e-18)
(-0.022728143 -0.011826804 6.296565e-19)
(-0.02229669 -0.010537391 8.0477383e-19)
(-0.021819154 -0.0092973771 4.0717109e-18)
(-0.021300144 -0.0081092524 6.232667e-18)
(-0.020744276 -0.0069750236 -1.8984151e-18)
(-0.020156138 -0.0058962307 1.2847292e-19)
(-0.01954024 -0.0048739677 -7.7948409e-19)
(-0.018900986 -0.0039089083 8.9974793e-19)
(-0.018242638 -0.0030013314 5.7038307e-18)
(-0.017569295 -0.0021511491 -1.5018329e-20)
(-0.016884848 -0.0013579442 -3.2638253e-18)
(-0.016192975 -0.00062101236 -1.4193443e-18)
(-0.015497393 6.0676191e-05 -7.0976629e-19)
(-0.014801113 0.00068839635 -5.5869395e-19)
(-0.014107213 0.0012635559 -2.3837237e-18)
(-0.013418522 0.0017878132 -2.4788557e-18)
(-0.012737589 0.002262979 -1.5502906e-18)
(-0.012066725 0.0026909942 3.069211e-19)
(-0.011408008 0.0030739062 6.3520577e-19)
(-0.010763284 0.0034138469 -2.5280537e-19)
(-0.010134171 0.0037130092 -6.2109848e-19)
(-0.0095220695 0.003973627 -6.5802937e-19)
(-0.0089281702 0.004197956 1.0104461e-18)
(-0.008353462 0.0043882555 -2.2995837e-19)
(-0.0077987433 0.0045467727 -1.3071041e-19)
(-0.007264633 0.0046757275 7.756529e-19)
(-0.0067515812 0.0047773002 -9.4364962e-20)
(-0.0062598819 0.0048536188 -4.682214e-20)
(-0.0057896841 0.0049067504 -9.5117862e-19)
(-0.0053410046 0.0049386903 -1.0168282e-18)
(-0.0049137397 0.0049513572 -4.7381234e-19)
(-0.0045076777 0.0049465855 -4.0543432e-19)
(-0.0041225102 0.0049261207 3.5011835e-19)
(-0.0037578441 0.0048916164 -3.7477831e-19)
(-0.0034132129 0.0048446322 -1.908674e-19)
(-0.0030880868 0.0047866315 5.2254931e-19)
(-0.0027818833 0.0047189813 1.4607402e-19)
(-0.002493978 0.0046429532 3.1452035e-19)
(-0.0022237111 0.004559724 -2.3877806e-19)
(-0.0019703977 0.0044703788 -3.1604999e-19)
(-0.001733336 0.0043759138 -1.9359754e-19)
(-0.0015118138 0.0042772329 -9.89804e-20)
(-0.0013051151 0.004175167 1.9545e-19)
(-0.001112523 0.0040704611 -5.4914839e-19)
(-0.00093333072 0.0039637791 -6.0318036e-19)
(-0.00076683734 0.0038557374 -2.4364741e-19)
(-0.00061236737 0.0037468492 -1.1796176e-19)
(-0.0004692588 0.0036376064 1.8694657e-21)
(-0.0010866614 -0.047287882 3.0031739e-17)
(-0.0024116021 -0.047109417 3.0709503e-17)
(-0.0039154522 -0.046704533 -3.3046599e-18)
(-0.0053222288 -0.046172841 -3.156231e-18)
(-0.0067070744 -0.045555863 3.3817361e-18)
(-0.0080412505 -0.044869343 8.9156989e-18)
(-0.0093243373 -0.044118809 3.4573442e-18)
(-0.010556668 -0.043306342 2.558332e-18)
(-0.011737855 -0.042433501 -2.8184061e-18)
(-0.012867288 -0.041502242 9.1164161e-19)
(-0.013943977 -0.04051455 1.7639079e-18)
(-0.014966914 -0.039472551 -2.0423314e-18)
(-0.015934548 -0.038378485 -1.0883332e-18)
(-0.0168451 -0.037234641 -3.6545117e-18)
(-0.017696614 -0.036043608 1.7120669e-18)
(-0.018486782 -0.034808352 -8.7476218e-18)
(-0.019213305 -0.033532208 -4.0727188e-18)
(-0.019873978 -0.032219053 -5.6249703e-18)
(-0.020466748 -0.030873013 -5.5611489e-18)
(-0.020989789 -0.02949874 -1.4164244e-18)
(-0.02144167 -0.028101235 -8.1044078e-18)
(-0.021821365 -0.02668584 1.1699027e-19)
(-0.022128329 -0.025258137 4.5499196e-18)
(-0.022362549 -0.023823873 8.3128289e-18)
(-0.022524555 -0.022388848 1.0443659e-17)
(-0.022615434 -0.020958833 -1.2935324e-18)
(-0.022636793 -0.019539481 1.2432311e-19)
(-0.022590723 -0.018136231 4.472894e-18)
(-0.022479746 -0.016754265 5.9528178e-18)
(-0.022306782 -0.015398454 1.0312047e-17)
(-0.022075099 -0.014073304 -2.4124466e-19)
(-0.021788246 -0.01278292 -2.1560968e-18)
(-0.021449997 -0.011530985 1.5596377e-18)
(-0.021064296 -0.010320749 1.8774109e-18)
(-0.020635209 -0.0091550214 7.2776121e-18)
(-0.020166871 -0.0080361732 -1.2071673e-18)
(-0.019663445 -0.0069661446 -3.5023176e-18)
(-0.019129075 -0.005946458 -6.7448458e-19)
(-0.018567855 -0.0049782339 6.3856832e-19)
(-0.017983795 -0.0040622119 4.1657628e-18)
(-0.017380791 -0.0031987722 3.2749024e-19)
(-0.016762603 -0.0023879582 -1.6704782e-18)
(-0.016132827 -0.0016295042 -4.8212273e-19)
(-0.015494874 -0.0009228867 -9.4827918e-19)
(-0.014851959 -0.00026732186 -2.0206123e-18)
(-0.014207294 0.00033839829 -1.6817551e-18)
(-0.013563545 0.00089531505 -5.7521386e-19)
(-0.01292336 0.0014049063 -1.1908371e-19)
(-0.012289151 0.0018687484 -8.2520974e-19)
(-0.011663119 0.0022885425 -6.8969335e-19)
(-0.011047248 0.0026660975 -8.6998991e-19)
(-0.010443311 0.0030033075 -3.0105404e-20)
(-0.0098528727 0.0033021309 -1.0254486e-19)
(-0.009277302 0.0035645724 4.7385585e-19)
(-0.0087177732 0.0037926642 1.1396077e-18)
(-0.0081752767 0.0039884499 -1.8056502e-18)
(-0.0076506266 0.0041539694 -8.6979443e-19)
(-0.0071444712 0.0042912448 2.4731225e-19)
(-0.0066573023 0.0044022686 4.3157382e-19)
(-0.0061894655 0.0044889919 4.0966397e-19)
(-0.0057411715 0.0045533153 -1.6370096e-18)
(-0.0053125057 0.0045970803 -1.5236957e-18)
(-0.0049034405 0.0046220621 -5.8188003e-19)
(-0.0045138448 0.0046299639 7.2220813e-21)
(-0.0041434955 0.0046224117 6.1751183e-19)
(-0.0037920875 0.0046009507 -6.9729674e-19)
(-0.0034592444 0.0045670432 -3.96874e-19)
(-0.0031445275 0.0045220665 4.1008865e-19)
(-0.0028474456 0.0044673117 1.0046892e-19)
(-0.0025674645 0.0044039846 3.2860384e-19)
(-0.0023040137 0.0043332057 -4.5562124e-19)
(-0.0020564953 0.0042560124 -5.6965723e-19)
(-0.0018242926 0.0041733612 -3.7096251e-19)
(-0.0016067743 0.0040861268 -9.9218562e-20)
(-0.0014033005 0.0039951113 2.8958786e-19)
(-0.0012132317 0.0039010442 -6.1244619e-19)
(-0.0010359283 0.0038045814 -7.8151736e-19)
(-0.00087075972 0.0037063206 -4.3595675e-19)
(-0.00071710828 0.0036067862 -2.7937006e-19)
(-0.00057436643 0.003506463 1.6583352e-19)
(-0.0009994691 -0.044303682 3.2738049e-17)
(-0.0022227403 -0.044154118 3.492105e-17)
(-0.0036135217 -0.043806895 1.0469979e-17)
(-0.0049203618 -0.043345068 -5.4459684e-18)
(-0.0062118678 -0.042801308 1.2827488e-17)
(-0.0074590843 -0.042188932 -7.5086192e-18)
(-0.0086614249 -0.041512727 -4.0326382e-18)
(-0.009818291 -0.04077496 -2.5677829e-18)
(-0.010928659 -0.039977552 -1.3980762e-17)
(-0.011991403 -0.039122669 -5.6386174e-18)
(-0.013005187 -0.038212558 9.8801539e-19)
(-0.013968786 -0.037249678 1.4036553e-17)
(-0.014880493 -0.036236486 3.6206648e-18)
(-0.015738543 -0.035175569 8.3243541e-18)
(-0.016541145 -0.034069714 1.4970999e-18)
(-0.017286209 -0.032922023 4.8381387e-18)
(-0.017971749 -0.031735858 1.2494656e-17)
(-0.018595864 -0.030514989 4.6492182e-18)
(-0.019156791 -0.029263443 5.8619232e-18)
(-0.019653033 -0.027985596 1.423794e-19)
(-0.020083419 -0.026686094 1.0878926e-18)
(-0.020447137 -0.025369842 -1.6119216e-18)
(-0.020743786 -0.024041918 9.5710245e-19)
(-0.020973412 -0.02270753 3.6809716e-18)
(-0.021136527 -0.021371922 -1.9692164e-18)
(-0.021234116 -0.020040305 -2.2255664e-18)
(-0.021267612 -0.018717785 -4.1166072e-19)
(-0.021238871 -0.017409288 1.3809459e-18)
(-0.02115013 -0.016119517 3.6491593e-18)
(-0.021003971 -0.014852904 9.7571413e-20)
(-0.020803292 -0.01361357 -3.1804347e-18)
(-0.020551246 -0.012405291 -2.2248451e-18)
(-0.020251194 -0.011231472 -1.8495416e-20)
(-0.01990666 -0.010095142 2.8125228e-18)
(-0.019521287 -0.0089989378 1.4111315e-18)
(-0.019098793 -0.007945111 -5.265762e-18)
(-0.01864293 -0.0069355279 -3.5672015e-18)
(-0.018157449 -0.0059716813 -1.378257e-18)
(-0.017646067 -0.0050547014 3.768377e-18)
(-0.017112435 -0.0041853736 3.6837726e-19)
(-0.016560113 -0.0033641561 -2.6435159e-18)
(-0.015992549 -0.0025911992 -2.0854867e-18)
(-0.015413054 -0.0018663676 -4.2677515e-18)
(-0.014824775 -0.0011892704 -2.9454163e-18)
(-0.014230688 -0.00055928741 -1.8030353e-18)
(-0.013633807 2.444882e-05 4.4258982e-19)
(-0.013036601 0.00056304006 4.2375129e-19)
(-0.012441531 0.0010576235 -1.5835756e-18)
(-0.011850901 0.0015095771 -1.8581496e-18)
(-0.011266789 0.0019203957 -8.1953319e-19)
(-0.010691082 0.0022916744 -2.7873666e-20)
(-0.010125475 0.0026250931 4.215463e-19)
(-0.0095714794 0.0029223992 3.9521908e-20)
(-0.0090304232 0.0031853889 3.9108601e-19)
(-0.0085034599 0.0034158913 -6.0075667e-20)
(-0.0079915733 0.0036157528 -5.6007205e-19)
(-0.0074955854 0.0037868235 1.3700154e-19)
(-0.0070161647 0.0039309433 3.9613524e-20)
(-0.0065538343 0.0040499314 3.4053033e-19)
(-0.006108982 0.0041455753 1.4054117e-19)
(-0.0056818686 0.004219621 -6.8811114e-19)
(-0.0052726382 0.0042737659 -9.1670605e-19)
(-0.0048813273 0.0043096515 -1.0830848e-18)
(-0.0045078751 0.0043288571 -1.2420726e-19)
(-0.0041521324 0.0043328958 3.7273439e-19)
(-0.0038138715 0.0043232099 -2.068846e-19)
(-0.0034927955 0.0043011687 -1.588396e-20)
(-0.0031885466 0.0042680666 2.5919406e-19)
(-0.0029007152 0.0042251212 1.3499418e-19)
(-0.0026288481 0.0041734736 4.7345539e-19)
(-0.0023724553 0.0041141893 -2.833596e-20)
(-0.0021310173 0.0040482572 -2.6693336e-19)
(-0.0019039945 0.0039765933 -4.2428356e-19)
(-0.0016908302 0.0039000423 -1.105868e-19)
(-0.0014909553 0.0038193768 2.49253e-19)
(-0.0013037982 0.0037353062 -4.0284145e-19)
(-0.0011287853 0.0036484758 -5.8635e-19)
(-0.00096534691 0.0035594656 -4.143011e-19)
(-0.0008129211 0.0034688043 -1.1666602e-19)
(-0.00067095529 0.0033769669 2.6856779e-19)
(-0.00092122566 -0.041551602 2.1082686e-17)
(-0.0020524835 -0.04142533 -2.8452241e-17)
(-0.0033403719 -0.041125553 3.4951365e-17)
(-0.0045552143 -0.040721969 2.8178841e-18)
(-0.0057598605 -0.040240432 1.3995032e-17)
(-0.0069256748 -0.039692096 2.1545803e-17)
(-0.0080519748 -0.039081152 -2.2349988e-18)
(-0.0091374749 -0.038409947 -7.0026597e-18)
(-0.010180732 -0.037680504 -1.8779316e-18)
(-0.011180258 -0.036895088 -1.0001659e-17)
(-0.012134449 -0.036056159 -1.1627787e-17)
(-0.013041904 -0.035166268 -9.5819254e-18)
(-0.01390085 -0.034227999 -1.0790705e-17)
(-0.014709555 -0.033244135 -9.2463851e-18)
(-0.015466341 -0.032217527 -7.707069e-18)
(-0.016169303 -0.031151319 -1.4170292e-18)
(-0.016816682 -0.030048849 -4.1711336e-18)
(-0.017406829 -0.028913734 -7.3614021e-18)
(-0.017938225 -0.027749864 -6.9202168e-18)
(-0.018409602 -0.02656135 -6.9090075e-18)
(-0.018819988 -0.02535252 -6.1458016e-18)
(-0.019168729 -0.024127887 -6.5725754e-18)
(-0.01945553 -0.022892099 -8.2046459e-18)
(-0.019680485 -0.021649893 -7.4043497e-18)
(-0.019844078 -0.020406031 -6.2211825e-18)
(-0.019947206 -0.019165238 -6.7248556e-18)
(-0.019991149 -0.017932146 -8.9880072e-18)
(-0.019977563 -0.016711229 -6.6443223e-18)
(-0.019908436 -0.015506765 -2.8552142e-18)
(-0.019786064 -0.014322801 -2.1322856e-18)
(-0.019613021 -0.01316311 -6.2361572e-18)
(-0.019392118 -0.012031168 -6.3001963e-18)
(-0.019126354 -0.010930127 -2.2588677e-18)
(-0.018818884 -0.0098628046 1.7789504e-18)
(-0.018472977 -0.0088316778 -9.8732673e-20)
(-0.018091978 -0.0078388775 -4.0271663e-18)
(-0.017679276 -0.0068861929 -2.6645799e-18)
(-0.017238267 -0.0059750776 -6.052915e-19)
(-0.016772325 -0.0051066593 1.806242e-18)
(-0.016284778 -0.004281753 1.6568516e-18)
(-0.01577888 -0.0035008762 1.7383748e-18)
(-0.015257792 -0.0027642653 -2.4866384e-18)
(-0.014724562 -0.0020718934 -4.7279094e-18)
(-0.014182108 -0.0014234924 -2.6198586e-18)
(-0.013633198 -0.00081859245 -8.9789255e-19)
(-0.01308044 -0.00025651452 1.3882211e-18)
(-0.012526438 0.00026376359 -1.1703836e-18)
(-0.011973387 0.00074311448 -2.5739158e-18)
(-0.011423415 0.0011827566 -9.902786e-19)
(-0.010878493 0.0015839975 -1.3888525e-20)
(-0.010340419 0.0019482397 7.8239323e-19)
(-0.009810816 0.002276971 4.3148369e-20)
(-0.0092911358 0.0025717476 -5.1323741e-19)
(-0.0087826654 0.0028341771 -7.786969e-19)
(-0.008286531 0.0030659037 -2.4116634e-19)
(-0.0078037041 0.0032685941 1.068827e-18)
(-0.0073350072 0.0034439244 3.2216498e-19)
(-0.0068811212 0.0035935672 -2.1863997e-19)
(-0.0064425925 0.0037191819 -7.2571774e-19)
(-0.0060198414 0.0038224046 -9.4607465e-20)
(-0.0056131701 0.0039048381 1.8398552e-19)
(-0.0052227711 0.0039680453 -9.0332312e-19)
(-0.0048487358 0.0040135426 -1.3750946e-18)
(-0.0044910635 0.0040427933 -8.6084777e-19)
(-0.0041496692 0.0040572036 1.6153552e-19)
(-0.0038243929 0.0040581184 8.6343001e-20)
(-0.0035150079 0.0040468185 -3.4047007e-19)
(-0.0032212279 0.0040245186 -1.3992465e-19)
(-0.0029427158 0.0039923652 -1.3278207e-19)
(-0.0026790912 0.0039514369 5.6998609e-19)
(-0.0024299364 0.0039027442 2.75398e-19)
(-0.0021948032 0.0038472286 -2.285061e-19)
(-0.0019732208 0.0037857657 -5.6723106e-19)
(-0.0017647011 0.003719167 -3.9465842e-19)
(-0.0015687403 0.0036481776 2.210788e-19)
(-0.0013848285 0.0035734838 -1.8708628e-19)
(-0.001212453 0.0034957154 -5.3777064e-19)
(-0.0010511008 0.0034154391 -4.7183581e-19)
(-0.0009002617 0.0033331772 -1.089528e-19)
(-0.00075943457 0.0032493974 1.1190317e-19)
(-0.00085077912 -0.03900873 2.4160361e-17)
(-0.0018986224 -0.0389014 8.4758816e-18)
(-0.0030927944 -0.038640964 1.1140469e-17)
(-0.0042229123 -0.038286326 2.2361717e-17)
(-0.0053468616 -0.037857896 7.4312416e-18)
(-0.0064365656 -0.037365167 1.3535707e-17)
(-0.0074914001 -0.03681173 7.1995977e-18)
(-0.0085096448 -0.036199923 5.2800205e-18)
(-0.0094894581 -0.035531778 3.8401852e-18)
(-0.010429169 -0.034809596 5.2854125e-19)
(-0.011327002 -0.034035902 1.188973e-18)
(-0.012181415 -0.033213262 -6.7736035e-18)
(-0.012990635 -0.032344315 -8.4766269e-19)
(-0.013752949 -0.031431906 -5.3411088e-18)
(-0.014466764 -0.030478901 6.0269086e-19)
(-0.015130333 -0.029488397 -1.5225939e-18)
(-0.015742071 -0.028463661 -2.6690506e-18)
(-0.016300541 -0.027408173 -6.1682786e-19)
(-0.016804407 -0.026325624 -6.3234604e-19)
(-0.017252576 -0.025219875 -1.2022568e-19)
(-0.017644231 -0.024094967 4.1995098e-18)
(-0.017978837 -0.022955062 4.5520861e-18)
(-0.018256174 -0.021804429 -1.4096455e-18)
(-0.018476361 -0.020647392 1.8120619e-18)
(-0.018639856 -0.019488291 -1.0177337e-18)
(-0.018747471 -0.018331428 -3.6664083e-19)
(-0.018800359 -0.017181015 1.7574019e-18)
(-0.018799997 -0.016041134 9.8638842e-19)
(-0.01874816 -0.014915684 3.7854515e-18)
(-0.018646893 -0.013808367 -8.1031527e-19)
(-0.018498491 -0.012722648 -2.5136479e-18)
(-0.018305463 -0.011661726 9.4176762e-19)
(-0.018070493 -0.010628523 1.6686531e-18)
(-0.017796409 -0.0096256606 3.641149e-18)
(-0.01748615 -0.0086554619 -1.0682222e-18)
(-0.01714273 -0.0077199415 -5.4455626e-19)
(-0.016769211 -0.0068208091 1.6764312e-18)
(-0.01636867 -0.0059594734 1.9663459e-18)
(-0.015944175 -0.0051370492 3.3933831e-18)
(-0.015498757 -0.0043543684 3.5846083e-18)
(-0.015035392 -0.0036119921 1.8364804e-18)
(-0.014556978 -0.0029102245 -3.221931e-18)
(-0.014066318 -0.0022491285 -4.1199654e-18)
(-0.013566107 -0.0016285429 -1.7734404e-18)
(-0.0130589 -0.0010481071 1.0288613e-18)
(-0.012547122 -0.00050727454 1.2094997e-18)
(-0.012033221 -5.313767e-06 -2.2219828e-18)
(-0.011519236 0.00045872483 -2.1207613e-18)
(-0.01100715 0.00088576733 -3.9456916e-19)
(-0.010498842 0.0012769632 1.451018e-18)
(-0.0099960154 0.0016335504 1.4695767e-18)
(-0.0095002136 0.0019568438 4.0511384e-19)
(-0.0090128286 0.0022482273 2.9421434e-20)
(-0.0085351024 0.0025091378 -6.1822087e-19)
(-0.0080681307 0.0027410517 1.8556631e-18)
(-0.0076128672 0.0029454718 1.6450392e-18)
(-0.0071701293 0.0031239149 3.8968214e-19)
(-0.0067406035 0.0032779004 8.2241827e-19)
(-0.0063248521 0.0034089405 -2.7615107e-19)
(-0.0059233206 0.0035185312 7.5574648e-19)
(-0.0055363438 0.0036081424 5.5056413e-19)
(-0.0051641544 0.0036792125 -6.836139e-19)
(-0.0048068902 0.0037331405 -4.8653865e-19)
(-0.0044646014 0.003771281 -3.3029661e-19)
(-0.0041372589 0.0037949398 1.0032176e-18)
(-0.0038247616 0.0038053696 5.0241359e-19)
(-0.003526944 0.0038037667 -2.5933567e-19)
(-0.0032435834 0.0037912697 4.3283148e-19)
(-0.0029744072 0.0037689571 3.2706733e-19)
(-0.0027190996 0.0037378464 9.3914682e-19)
(-0.0024773082 0.0036988944 5.8515045e-19)
(-0.0022486489 0.0036529961 5.2963018e-20)
(-0.0020327137 0.0036009868 3.423107e-20)
(-0.0018290758 0.0035436434 -4.570369e-20)
(-0.0016372917 0.0034816834 5.4052107e-19)
(-0.0014569083 0.0034157695 9.1149277e-20)
(-0.0012874691 0.0033465117 -3.8847191e-19)
(-0.0011285129 0.003274465 -1.6256498e-19)
(-0.00097957849 0.00320014 -2.2657999e-20)
(-0.0008402116 0.0031239979 7.6057242e-20)
(-0.00078710592 -0.036655233 2.1878888e-17)
(-0.0017590809 -0.036563426 8.0686657e-18)
(-0.0028677185 -0.036335832 3.5358027e-18)
(-0.0039197847 -0.036022568 1.8970227e-17)
(-0.0049688345 -0.035639736 7.8868623e-18)
(-0.0059875858 -0.035195457 -2.0935116e-17)
(-0.0069754185 -0.0346929 1.3526674e-17)
(-0.0079303744 -0.034134181 1.738674e-18)
(-0.0088503981 -0.033521396 2.5774992e-18)
(-0.0097336783 -0.032856796 1.1916732e-17)
(-0.010578318 -0.032142853 6.8694913e-18)
(-0.0113827 -0.031382134 6.8204321e-18)
(-0.01214507 -0.030577247 5.4214658e-18)
(-0.012863751 -0.02973101 4.6584353e-18)
(-0.013537219 -0.028846272 6.9304124e-18)
(-0.014163859 -0.027926013 -8.6832875e-20)
(-0.014742236 -0.026973415 9.6031178e-18)
(-0.015271065 -0.025991807 7.9808421e-18)
(-0.015749163 -0.024984656 6.7826845e-18)
(-0.016175576 -0.023955594 6.4438428e-18)
(-0.016549599 -0.022908387 -4.5700138e-19)
(-0.016870788 -0.021846884 -3.6417387e-18)
(-0.017138975 -0.020775014 1.6333128e-18)
(-0.01735429 -0.019696736 1.9068012e-18)
(-0.01751716 -0.018616021 -1.6116258e-18)
(-0.017628325 -0.017536794 1.1613925e-18)
(-0.017688818 -0.016462902 -2.400117e-18)
(-0.017699965 -0.015398072 5.2801652e-19)
(-0.01766335 -0.014345874 2.8862748e-18)
(-0.0175808 -0.0133097 -1.4758705e-18)
(-0.017454368 -0.012292733 -9.7011135e-20)
(-0.017286296 -0.011297929 -2.5027123e-18)
(-0.017078991 -0.01032799 6.3423275e-20)
(-0.016834993 -0.0093853627 2.0072057e-18)
(-0.016556948 -0.0084722215 -4.3183372e-19)
(-0.016247574 -0.0075904696 1.822974e-18)
(-0.015909641 -0.0067417365 -1.47683e-18)
(-0.01554594 -0.0059273821 -2.9579833e-20)
(-0.01515926 -0.0051485008 -5.1725669e-20)
(-0.014752365 -0.0044059311 -3.0199088e-18)
(-0.014327977 -0.0037002651 -2.7278009e-18)
(-0.013888752 -0.0030318603 -4.8283086e-19)
(-0.01343727 -0.0024008534 8.2351223e-19)
(-0.012976017 -0.0018071737 -8.6597989e-19)
(-0.01250737 -0.001250561 -1.1205983e-18)
(-0.012033591 -0.00073059557 -1.5535759e-18)
(-0.01155681 -0.00024668892 2.5574236e-19)
(-0.011079145 0.00020202041 1.2714989e-18)
(-0.010602407 0.00061627232 -2.6867318e-19)
(-0.010128316 0.0009970724 2.6099784e-19)
(-0.0096584913 0.0013455095 -5.5725705e-20)
(-0.0091944095 0.0016627435 7.6817677e-19)
(-0.0087374027 0.0019500026 3.0195895e-19)
(-0.0082886659 0.0022085695 5.2747372e-19)
(-0.0078492611 0.0024397682 2.228563e-18)
(-0.0074201208 0.0026449523 3.7450659e-21)
(-0.0070020518 0.002825493 7.7557695e-19)
(-0.0065957408 0.0029827693 1.25442e-18)
(-0.00620176 0.0031181582 8.5471617e-19)
(-0.0058205728 0.003233026 8.5717408e-19)
(-0.0054525403 0.00332872 -5.2814197e-19)
(-0.0050979275 0.0034065624 -1.1704319e-19)
(-0.0047569106 0.0034678431 1.2395407e-19)
(-0.0044295836 0.0035138149 3.3289673e-19)
(-0.0041159649 0.0035456891 8.3618797e-19)
(-0.0038160045 0.0035646311 -1.6117607e-19)
(-0.0035295909 0.0035717575 1.0239377e-19)
(-0.0032565572 0.0035681342 7.2867444e-19)
(-0.0029966878 0.0035547741 5.4760542e-19)
(-0.0027497249 0.003532636 6.7894892e-19)
(-0.0025153739 0.0035026243 5.7710764e-20)
(-0.0022933087 0.0034655885 -1.0146342e-21)
(-0.0020831784 0.0034223239 1.7163463e-19)
(-0.001884612 0.0033735723 2.4480019e-19)
(-0.0016972205 0.0033200236 4.3056384e-19)
(-0.0015206032 0.0032623154 -2.2160417e-19)
(-0.0013543542 0.0032010369 -4.1489671e-19)
(-0.0011980604 0.0031367305 -1.4689846e-19)
(-0.0010513069 0.0030698924 -2.6824736e-20)
(-0.0009136832 0.0030009771 9.9868762e-20)
(-0.00072937285 -0.034473476 2.1056566e-17)
(-0.0016321713 -0.034394493 1.1527559e-17)
(-0.0026625923 -0.03419453 7.1292415e-18)
(-0.0036427156 -0.033916488 -1.1441287e-17)
(-0.004622298 -0.033573081 9.6280261e-19)
(-0.0055749869 -0.03317125 -2.6925464e-18)
(-0.0065001072 -0.032713821 -2.8096454e-18)
(-0.0073956544 -0.032202703 -1.026644e-17)
(-0.0082594422 -0.031639999 5.6470756e-18)
(-0.0090895528 -0.03102784 -1.8879061e-18)
(-0.0098840684 -0.030368631 -4.6863809e-18)
(-0.010641318 -0.02966488 2.517154e-18)
(-0.011359574 -0.028919125 -4.4629527e-18)
(-0.01203722 -0.028134108 -1.1638784e-18)
(-0.01267278 -0.027312608 -4.7220769e-18)
(-0.013264759 -0.026457475 -2.0533909e-18)
(-0.013811845 -0.025571776 -1.8222824e-18)
(-0.014312865 -0.024658672 -3.4275498e-18)
(-0.014766765 -0.023721415 -4.3764535e-18)
(-0.015172707 -0.02276341 -7.3117377e-18)
(-0.015530068 -0.021788168 -7.4359072e-18)
(-0.015838465 -0.020799249 -8.5792174e-18)
(-0.016097765 -0.019800276 -4.7411983e-18)
(-0.016308103 -0.018794889 -1.8746631e-18)
(-0.016469876 -0.017786724 1.2326562e-18)
(-0.01658375 -0.016779378 -2.7986023e-18)
(-0.016650658 -0.015776369 -4.4875902e-18)
(-0.016671784 -0.014781113 -1.4357588e-18)
(-0.016648549 -0.013796882 -4.0298791e-19)
(-0.016582588 -0.012826792 2.5228171e-18)
(-0.016475739 -0.011873774 -1.594559e-18)
(-0.016330011 -0.010940557 -3.5504819e-18)
(-0.016147567 -0.01002965 -1.0090533e-18)
(-0.01593069 -0.0091433303 1.1850532e-19)
(-0.015681765 -0.0082836361 3.9998479e-18)
(-0.015403248 -0.007452363 -3.6082398e-19)
(-0.015097646 -0.0066510613 -3.4462832e-18)
(-0.014767492 -0.005881039 -1.4140342e-18)
(-0.014415325 -0.0051433651 -2.7793472e-19)