/*--------------------------------*- C++ -*----------------------------------*\
| =========                 |                                                 |
| \\      /  F ield         | OpenFOAM: The Open Source CFD Toolbox           |
|  \\    /   O peration     | Version:  2106                                  |
|   \\  /    A nd           | Website:  www.openfoam.com                      |
|    \\/     M anipulation  |                                                 |
\*---------------------------------------------------------------------------*/
FoamFile
{
    version     2.0;
    format      ascii;
    arch        "LSB;label=32;scalar=64";
    class       volVectorField;
    location    "0.044";
    object      U;
}
// * * * * * * * * * * * * * * * * * * * * * * * * * * * * * * * * * * * * * //

dimensions      [0 1 -1 0 0 0 0];

internalField   nonuniform List<vector> 
4096
(
(0.0016269764 -0.0016195164 0)
(0.0048651147 -0.0016037758 0)
(0.0080559683 -0.0015724522 0)
(0.01116854 -0.001525859 0)
(0.014172616 -0.0014644617 0)
(0.017039066 -0.0013888725 0)
(0.019740129 -0.0012998439 0)
(0.022249692 -0.0011982597 0)
(0.024543537 -0.0010851257 0)
(0.026599584 -0.00096155888 0)
(0.028398092 -0.00082877545 0)
(0.029921854 -0.00068807834 0)
(0.031156356 -0.00054084383 0)
(0.032089906 -0.00038850767 0)
(0.032713745 -0.00023255082 0)
(0.033022119 -7.4484883e-05 0)
(0.033012318 8.4164061e-05 0)
(0.032684748 0.0002418586 0)
(0.032042776 0.00039710336 0)
(0.031092882 0.00054839728 0)
(0.029844437 0.00069430003 0)
(0.028309668 0.00083342484 0)
(0.026503519 0.00096445325 0)
(0.024443503 0.0010861478 0)
(0.022149525 0.0011973632 0)
(0.019643688 0.0012970562 0)
(0.016950077 0.0013842949 0)
(0.014094533 0.0014582662 0)
(0.0111044 0.0015182825 0)
(0.0080082736 0.0015637873 0)
(0.0048357299 0.0015943594 0)
(0.0016170518 0.0016097164 0)
(-0.0016170518 0.0016097164 0)
(-0.0048357299 0.0015943594 0)
(-0.0080082736 0.0015637873 0)
(-0.0111044 0.0015182825 0)
(-0.014094533 0.0014582662 0)
(-0.016950077 0.0013842949 0)
(-0.019643688 0.0012970562 0)
(-0.022149525 0.0011973632 0)
(-0.024443503 0.0010861478 0)
(-0.026503519 0.00096445325 0)
(-0.028309668 0.00083342484 0)
(-0.029844437 0.00069430003 0)
(-0.031092882 0.00054839728 0)
(-0.032042776 0.00039710336 0)
(-0.032684748 0.0002418586 0)
(-0.033012318 8.4164061e-05 0)
(-0.033022119 -7.4484883e-05 0)
(-0.032713745 -0.00023255082 0)
(-0.032089906 -0.00038850767 0)
(-0.031156356 -0.00054084383 0)
(-0.029921854 -0.00068807834 0)
(-0.028398092 -0.00082877545 0)
(-0.026599584 -0.00096155888 0)
(-0.024543537 -0.0010851257 0)
(-0.022249692 -0.0011982597 0)
(-0.019740129 -0.0012998439 0)
(-0.017039066 -0.0013888725 0)
(-0.014172616 -0.0014644617 0)
(-0.01116854 -0.001525859 0)
(-0.0080559683 -0.0015724522 0)
(-0.0048651147 -0.0016037758 0)
(-0.0016269764 -0.0016195164 0)
(0.0016501673 -0.0048763469 0)
(0.0049344607 -0.0048289509 0)
(0.0081707915 -0.0047346334 0)
(0.011327719 -0.0045943383 0)
(0.014374596 -0.0044094673 0)
(0.017281876 -0.0041818647 0)
(0.020021404 -0.0039137958 0)
(0.022566693 -0.0036079226 0)
(0.024893184 -0.0032672737 0)
(0.02697848 -0.0028952124 0)
(0.028802564 -0.0024954009 0)
(0.030347984 -0.0020717623 0)
(0.031600021 -0.0016284407 0)
(0.032546818 -0.001169759 0)
(0.033179492 -0.00070017637 0)
(0.033492208 -0.00022424472 0)
(0.033482226 0.00025343578 0)
(0.033149925 0.0007282681 0)
(0.032498773 0.0011956941 0)
(0.03153531 0.0016512319 0)
(0.030269049 0.0020905376 0)
(0.028712394 0.002509434 0)
(0.026880504 0.0029039513 0)
(0.024791143 0.0032703639 0)
(0.0224645 0.0036052232 0)
(0.019922996 0.0039053888 0)
(0.017191059 0.0041680547 0)
(0.014294898 0.0043907731 0)
(0.011262245 0.0045714742 0)
(0.0081221009 0.0047084828 0)
(0.0049044606 0.0048005312 0)
(0.0016400346 0.0048467688 0)
(-0.0016400346 0.0048467688 0)
(-0.0049044606 0.0048005312 0)
(-0.0081221009 0.0047084828 0)
(-0.011262245 0.0045714742 0)
(-0.014294898 0.0043907731 0)
(-0.017191059 0.0041680547 0)
(-0.019922996 0.0039053888 0)
(-0.0224645 0.0036052232 0)
(-0.024791143 0.0032703639 0)
(-0.026880504 0.0029039514 0)
(-0.028712394 0.002509434 0)
(-0.030269049 0.0020905376 0)
(-0.03153531 0.0016512319 0)
(-0.032498773 0.0011956941 0)
(-0.033149925 0.0007282681 0)
(-0.033482226 0.00025343578 0)
(-0.033492208 -0.00022424472 0)
(-0.033179492 -0.00070017637 0)
(-0.032546818 -0.001169759 0)
(-0.031600021 -0.0016284407 0)
(-0.030347984 -0.0020717623 0)
(-0.028802564 -0.0024954009 0)
(-0.02697848 -0.0028952124 0)
(-0.024893184 -0.0032672737 0)
(-0.022566693 -0.0036079226 0)
(-0.020021404 -0.0039137958 0)
(-0.017281876 -0.0041818647 0)
(-0.014374596 -0.0044094673 0)
(-0.011327719 -0.0045943383 0)
(-0.0081707915 -0.0047346334 0)
(-0.0049344607 -0.0048289509 0)
(-0.0016501673 -0.0048763469 0)
(0.0016890376 -0.0081996247 0)
(0.0050506933 -0.0081199248 0)
(0.0083632548 -0.0079613235 0)
(0.01159454 -0.0077254082 0)
(0.01471318 -0.0074145372 0)
(0.017688934 -0.0070318122 0)
(0.020492983 -0.0065810437 0)
(0.023098219 -0.0060667083 0)
(0.025479507 -0.0054938993 0)
(0.027613923 -0.0048682724 0)
(0.029480981 -0.0041959854 0)
(0.03106282 -0.0034836348 0)
(0.032344371 -0.0027381884 0)
(0.033313498 -0.0019669146 0)
(0.033961107 -0.0011773112 0)
(0.034281222 -0.00037703107 0)
(0.034271037 0.0004261926 0)
(0.033930933 0.0012246244 0)
(0.033264463 0.0020105976 0)
(0.032278315 0.0027765839 0)
(0.030982229 0.0035152744 0)
(0.029388898 0.0042196444 0)
(0.027513842 0.0048830183 0)
(0.025375244 0.0054991312 0)
(0.022993772 0.0060621849 0)
(0.020392376 0.0065668994 0)
(0.017596064 0.0070085571 0)
(0.014631662 0.0073830432 0)
(0.011527558 0.0076868785 0)
(0.0083134351 0.007917247 0)
(0.0050199943 0.0080720181 0)
(0.0016786684 0.0081497623 0)
(-0.0016786684 0.0081497623 0)
(-0.0050199943 0.0080720181 0)
(-0.0083134351 0.007917247 0)
(-0.011527558 0.0076868785 0)
(-0.014631662 0.0073830432 0)
(-0.017596064 0.0070085571 0)
(-0.020392376 0.0065668994 0)
(-0.022993772 0.0060621849 0)
(-0.025375244 0.0054991312 0)
(-0.027513842 0.0048830183 0)
(-0.029388898 0.0042196444 0)
(-0.030982229 0.0035152744 0)
(-0.032278315 0.0027765839 0)
(-0.033264463 0.0020105976 0)
(-0.033930933 0.0012246244 0)
(-0.034271037 0.0004261926 0)
(-0.034281222 -0.00037703107 0)
(-0.033961107 -0.0011773112 0)
(-0.033313498 -0.0019669146 0)
(-0.032344371 -0.0027381883 0)
(-0.03106282 -0.0034836348 0)
(-0.029480981 -0.0041959854 0)
(-0.027613923 -0.0048682724 0)
(-0.025479507 -0.0054938993 0)
(-0.023098219 -0.0060667083 0)
(-0.020492983 -0.0065810437 0)
(-0.017688934 -0.0070318122 0)
(-0.01471318 -0.0074145372 0)
(-0.01159454 -0.0077254082 0)
(-0.0083632548 -0.0079613235 0)
(-0.0050506933 -0.0081199248 0)
(-0.0016890376 -0.0081996247 0)
(0.0017440356 -0.011616416 0)
(0.0052151527 -0.011503503 0)
(0.0086355774 -0.011278808 0)
(0.01197208 -0.010944582 0)
(0.015192273 -0.010504166 0)
(0.018264931 -0.0099619556 0)
(0.021160301 -0.0093233509 0)
(0.023850395 -0.0085946941 0)
(0.026309262 -0.0077832013 0)
(0.028513235 -0.0068968844 0)
(0.030441162 -0.0059444664 0)
(0.032074598 -0.0049352911 0)
(0.033397983 -0.0038792278 0)
(0.034398783 -0.0027865724 0)
(0.0350676 -0.0016679455 0)
(0.035398258 -0.00053418753 0)
(0.035387852 0.00060374663 0)
(0.035036769 0.0017348955 0)
(0.034348672 0.0028483953 0)
(0.033330461 0.0039335827 0)
(0.03199219 0.0049801007 0)
(0.030346968 0.0059779951 0)
(0.028410818 0.006917807 0)
(0.02620252 0.0077906601 0)
(0.023743419 0.0085883397 0)
(0.021057215 0.0093033657 0)
(0.018169736 0.0099290559 0)
(0.015108685 0.010459582 0)
(0.011903378 0.010890016 0)
(0.0085844665 0.011216371 0)
(0.0051836532 0.011435628 0)
(0.0017333952 0.011545765 0)
(-0.0017333952 0.011545765 0)
(-0.0051836532 0.011435628 0)
(-0.0085844665 0.011216371 0)
(-0.011903378 0.010890016 0)
(-0.015108685 0.010459582 0)
(-0.018169736 0.0099290559 0)
(-0.021057215 0.0093033657 0)
(-0.023743419 0.0085883397 0)
(-0.02620252 0.0077906601 0)
(-0.028410818 0.006917807 0)
(-0.030346968 0.0059779951 0)
(-0.03199219 0.0049801007 0)
(-0.033330461 0.0039335827 0)
(-0.034348672 0.0028483953 0)
(-0.035036769 0.0017348955 0)
(-0.035387852 0.00060374663 0)
(-0.035398258 -0.00053418753 0)
(-0.0350676 -0.0016679455 0)
(-0.034398783 -0.0027865724 0)
(-0.033397983 -0.0038792278 0)
(-0.032074598 -0.0049352911 0)
(-0.030441162 -0.0059444664 0)
(-0.028513235 -0.0068968844 0)
(-0.026309262 -0.0077832013 0)
(-0.023850395 -0.0085946941 0)
(-0.021160301 -0.0093233509 0)
(-0.018264931 -0.0099619556 0)
(-0.015192273 -0.010504166 0)
(-0.01197208 -0.010944582 0)
(-0.0086355774 -0.011278808 0)
(-0.0052151527 -0.011503503 0)
(-0.0017440356 -0.011616416 0)
(0.0018157277 -0.015159042 0)
(0.0054295328 -0.015011693 0)
(0.0089905641 -0.014718473 0)
(0.012464228 -0.014282318 0)
(0.015816809 -0.013707593 0)
(0.019015801 -0.013000034 0)
(0.022030234 -0.012166688 0)
(0.024830974 -0.011215834 0)
(0.027391005 -0.010156888 0)
(0.029685692 -0.0090003022 0)
(0.031693013 -0.0077574587 0)
(0.033393765 -0.0064405472 0)
(0.034771743 -0.0050624436 0)
(0.035813891 -0.0036365802 0)
(0.036510416 -0.0021768136 0)
(0.036854875 -0.00069728887 0)
(0.036844233 0.0007876989 0)
(0.036478882 0.0022638433 0)
(0.035762625 0.0037169643 0)
(0.034702639 0.0051331451 0)
(0.033309388 0.0064988662 0)
(0.031596516 0.0078011337 0)
(0.02958071 0.009027601 0)
(0.027281523 0.010166682 0)
(0.024721184 0.011207656 0)
(0.021924375 0.012140761 0)
(0.018917992 0.012957278 0)
(0.015730884 0.013649603 0)
(0.012393576 0.014211306 0)
(0.0089379858 0.014637187 0)
(0.0053971219 0.014923309 0)
(0.0018047782 0.015067032 0)
(-0.0018047782 0.015067032 0)
(-0.0053971219 0.014923309 0)
(-0.0089379858 0.014637187 0)
(-0.012393576 0.014211306 0)
(-0.015730884 0.013649603 0)
(-0.018917992 0.012957278 0)
(-0.021924375 0.012140761 0)
(-0.024721184 0.011207656 0)
(-0.027281523 0.010166682 0)
(-0.02958071 0.009027601 0)
(-0.031596516 0.0078011337 0)
(-0.033309388 0.0064988662 0)
(-0.034702639 0.0051331451 0)
(-0.035762625 0.0037169643 0)
(-0.036478882 0.0022638433 0)
(-0.036844233 0.0007876989 0)
(-0.036854875 -0.00069728886 0)
(-0.036510416 -0.0021768136 0)
(-0.035813891 -0.0036365802 0)
(-0.034771743 -0.0050624436 0)
(-0.033393765 -0.0064405472 0)
(-0.031693013 -0.0077574587 0)
(-0.029685692 -0.0090003022 0)
(-0.027391005 -0.010156888 0)
(-0.024830974 -0.011215834 0)
(-0.022030234 -0.012166688 0)
(-0.019015801 -0.013000034 0)
(-0.015816809 -0.013707593 0)
(-0.012464228 -0.014282318 0)
(-0.0089905641 -0.014718473 0)
(-0.0054295328 -0.015011693 0)
(-0.0018157277 -0.015159042 0)
(0.0019048447 -0.018861635 0)
(0.0056960187 -0.018678298 0)
(0.0094318334 -0.018313463 0)
(0.013076002 -0.017770786 0)
(0.016593156 -0.017055699 0)
(0.019949204 -0.016175342 0)
(0.023111658 -0.015138486 0)
(0.026049963 -0.013955429 0)
(0.028735781 -0.012637887 0)
(0.031143274 -0.011198862 0)
(0.033249337 -0.0096525122 0)
(0.035033822 -0.0080139981 0)
(0.036479724 -0.0062993344 0)
(0.037573331 -0.0045252289 0)
(0.038304358 -0.0027089179 0)
(0.038666029 -0.00086799886 0)
(0.038655144 0.00097974174 0)
(0.038272095 0.0028165005 0)
(0.037520861 0.0046246296 0)
(0.03640896 0.0063868076 0)
(0.034947363 0.0080862061 0)
(0.033150385 0.0097066512 0)
(0.031035533 0.011232775 0)
(0.028623328 0.012650156 0)
(0.025937097 0.013945454 0)
(0.023002745 0.015106521 0)
(0.019848497 0.016122508 0)
(0.016504627 0.016983957 0)
(0.013003167 0.017682871 0)
(0.0093776082 0.01821278 0)
(0.0056625828 0.01856879 0)
(0.0018935471 0.018747619 0)
(-0.0018935471 0.018747619 0)
(-0.0056625828 0.01856879 0)
(-0.0093776082 0.01821278 0)
(-0.013003167 0.017682871 0)
(-0.016504627 0.016983957 0)
(-0.019848497 0.016122508 0)
(-0.023002745 0.015106521 0)
(-0.025937097 0.013945454 0)
(-0.028623328 0.012650156 0)
(-0.031035533 0.011232775 0)
(-0.033150385 0.0097066512 0)
(-0.034947363 0.0080862061 0)
(-0.03640896 0.0063868076 0)
(-0.037520861 0.0046246296 0)
(-0.038272095 0.0028165005 0)
(-0.038655144 0.00097974174 0)
(-0.038666029 -0.00086799886 0)
(-0.038304358 -0.0027089179 0)
(-0.037573331 -0.0045252289 0)
(-0.036479724 -0.0062993344 0)
(-0.035033822 -0.0080139981 0)
(-0.033249337 -0.0096525122 0)
(-0.031143274 -0.011198862 0)
(-0.028735781 -0.012637887 0)
(-0.026049963 -0.013955429 0)
(-0.023111658 -0.015138486 0)
(-0.019949204 -0.016175342 0)
(-0.016593156 -0.017055699 0)
(-0.013076002 -0.017770786 0)
(-0.0094318334 -0.018313463 0)
(-0.0056960187 -0.018678298 0)
(-0.0019048447 -0.018861635 0)
(0.002012377 -0.022759838 0)
(0.0060175727 -0.022538615 0)
(0.0099642911 -0.022098389 0)
(0.013814202 -0.021443576 0)
(0.017529949 -0.020580731 0)
(0.021075522 -0.019518475 0)
(0.024416609 -0.018267389 0)
(0.027520938 -0.016839903 0)
(0.030358579 -0.015250148 0)
(0.032902237 -0.013513811 0)
(0.035127505 -0.011647966 0)
(0.037013094 -0.0096708989 0)
(0.038541025 -0.0076019236 0)
(0.039696799 -0.005461192 0)
(0.040469528 -0.0032694963 0)
(0.040852033 -0.0010480666 0)
(0.040840906 0.0011816341 0)
(0.040436543 0.0033981189 0)
(0.039643128 0.0055800851 0)
(0.038468589 0.0077066218 0)
(0.036924513 0.0097574121 0)
(0.035026022 0.011712928 0)
(0.032791616 0.013554617 0)
(0.030242985 0.015265071 0)
(0.027404788 0.016828186 0)
(0.024304404 0.018229304 0)
(0.020971666 0.019455336 0)
(0.01743857 0.020494868 0)
(0.013738967 0.021338258 0)
(0.0099082465 0.021977702 0)
(0.0059830014 0.0224073 0)
(0.0020006935 0.022623091 0)
(-0.0020006935 0.022623091 0)
(-0.0059830014 0.0224073 0)
(-0.0099082465 0.021977702 0)
(-0.013738967 0.021338258 0)
(-0.01743857 0.020494868 0)
(-0.020971666 0.019455336 0)
(-0.024304404 0.018229304 0)
(-0.027404788 0.016828186 0)
(-0.030242985 0.015265071 0)
(-0.032791616 0.013554617 0)
(-0.035026022 0.011712928 0)
(-0.036924513 0.0097574121 0)
(-0.038468589 0.0077066218 0)
(-0.039643128 0.0055800851 0)
(-0.040436543 0.0033981189 0)
(-0.040840906 0.0011816341 0)
(-0.040852033 -0.0010480666 0)
(-0.040469528 -0.0032694963 0)
(-0.039696799 -0.005461192 0)
(-0.038541025 -0.0076019236 0)
(-0.037013094 -0.0096708989 0)
(-0.035127505 -0.011647966 0)
(-0.032902237 -0.013513811 0)
(-0.030358579 -0.015250148 0)
(-0.027520938 -0.016839903 0)
(-0.024416609 -0.018267389 0)
(-0.021075522 -0.019518475 0)
(-0.017529949 -0.020580731 0)
(-0.013814202 -0.021443576 0)
(-0.0099642911 -0.022098389 0)
(-0.0060175727 -0.022538615 0)
(-0.002012377 -0.022759838 0)
(0.0021397233 -0.026891531 0)
(0.0063983773 -0.026630158 0)
(0.010594864 -0.026110039 0)
(0.014688435 -0.025336392 0)
(0.018639381 -0.024316967 0)
(0.022409421 -0.023061952 0)
(0.025962086 -0.021583854 0)
(0.029263071 -0.019897353 0)
(0.032280561 -0.018019143 0)
(0.03498554 -0.01596775 0)
(0.037352055 -0.013763334 0)
(0.039357462 -0.011427487 0)
(0.040982629 -0.0089830139 0)
(0.042212118 -0.0064537119 0)
(0.043034323 -0.003864137 0)
(0.043441579 -0.0012393685 0)
(0.043430232 0.0013952335 0)
(0.043000673 0.0040142744 0)
(0.042157327 0.0065925725 0)
(0.040908609 0.0091054052 0)
(0.039266833 0.011528751 0)
(0.037248079 0.01383952 0)
(0.03487203 0.016015777 0)
(0.032161762 0.018036946 0)
(0.029143515 0.019883992 0)
(0.02584642 0.021539596 0)
(0.022302218 0.022988292 0)
(0.018544945 0.024216603 0)
(0.014610608 0.02521314 0)
(0.010536844 0.02596869 0)
(0.0063625691 0.026476286 0)
(0.0021276187 0.026731257 0)
(-0.0021276187 0.026731257 0)
(-0.0063625691 0.026476286 0)
(-0.010536844 0.02596869 0)
(-0.014610608 0.02521314 0)
(-0.018544945 0.024216603 0)
(-0.022302218 0.022988292 0)
(-0.02584642 0.021539596 0)
(-0.029143515 0.019883992 0)
(-0.032161762 0.018036946 0)
(-0.03487203 0.016015777 0)
(-0.037248079 0.01383952 0)
(-0.039266833 0.011528751 0)
(-0.040908609 0.0091054052 0)
(-0.042157327 0.0065925725 0)
(-0.043000673 0.0040142744 0)
(-0.043430232 0.0013952335 0)
(-0.043441579 -0.0012393685 0)
(-0.043034323 -0.003864137 0)
(-0.042212118 -0.0064537119 0)
(-0.040982629 -0.0089830139 0)
(-0.039357462 -0.011427487 0)
(-0.037352055 -0.013763334 0)
(-0.03498554 -0.01596775 0)
(-0.032280561 -0.018019143 0)
(-0.029263071 -0.019897353 0)
(-0.025962086 -0.021583854 0)
(-0.022409421 -0.023061952 0)
(-0.018639381 -0.024316967 0)
(-0.014688435 -0.025336392 0)
(-0.010594864 -0.026110039 0)
(-0.0063983773 -0.026630158 0)
(-0.0021397233 -0.026891531 0)
(0.0022888839 -0.031297884 0)
(0.0068444144 -0.030993701 0)
(0.011333458 -0.030388394 0)
(0.015712438 -0.02948804 0)
(0.019938888 -0.028301665 0)
(0.023971874 -0.02684113 0)
(0.027772399 -0.02512099 0)
(0.03130378 -0.023158331 0)
(0.034531998 -0.020972574 0)
(0.037426018 -0.018585265 0)
(0.039958076 -0.016019851 0)
(0.042103939 -0.01330144 0)
(0.04384312 -0.010456552 0)
(0.045159075 -0.0075128643 0)
(0.046039348 -0.0044989416 0)
(0.046475699 -0.0014439664 0)
(0.046464177 0.0016225434 0)
(0.046005159 0.0046710206 0)
(0.045103353 0.0076721383 0)
(0.043767741 0.010597099 0)
(0.042011488 0.013417919 0)
(0.039851805 0.016107702 0)
(0.037309761 0.018640899 0)
(0.034410067 0.020993546 0)
(0.031180817 0.023143485 0)
(0.027653202 0.025070554 0)
(0.023861201 0.026756761 0)
(0.019841243 0.028186426 0)
(0.015631862 0.029346304 0)
(0.01127333 0.030225685 0)
(0.0068072802 0.030816467 0)
(0.0022763268 0.031113221 0)
(-0.0022763268 0.031113221 0)
(-0.0068072802 0.030816467 0)
(-0.01127333 0.030225685 0)
(-0.015631862 0.029346304 0)
(-0.019841243 0.028186426 0)
(-0.023861201 0.026756761 0)
(-0.027653202 0.025070554 0)
(-0.031180817 0.023143485 0)
(-0.034410067 0.020993546 0)
(-0.037309761 0.018640899 0)
(-0.039851805 0.016107702 0)
(-0.042011488 0.013417919 0)
(-0.043767741 0.010597099 0)
(-0.045103353 0.0076721383 0)
(-0.046005159 0.0046710206 0)
(-0.046464177 0.0016225434 0)
(-0.046475699 -0.0014439664 0)
(-0.046039348 -0.0044989416 0)
(-0.045159075 -0.0075128643 0)
(-0.04384312 -0.010456552 0)
(-0.042103939 -0.01330144 0)
(-0.039958076 -0.016019851 0)
(-0.037426018 -0.018585265 0)
(-0.034531998 -0.020972574 0)
(-0.03130378 -0.023158331 0)
(-0.027772399 -0.02512099 0)
(-0.023971874 -0.02684113 0)
(-0.019938888 -0.028301665 0)
(-0.015712438 -0.02948804 0)
(-0.011333458 -0.030388394 0)
(-0.0068444144 -0.030993701 0)
(-0.0022888839 -0.031297884 0)
(0.0024626868 -0.036024771 0)
(0.0073641408 -0.035674674 0)
(0.012194079 -0.034978005 0)
(0.016905631 -0.033941765 0)
(0.021453122 -0.032576347 0)
(0.02579253 -0.030895409 0)
(0.029881915 -0.028915706 0)
(0.033681826 -0.0266569 0)
(0.037155676 -0.024141331 0)
(0.04027008 -0.021393782 0)
(0.042995165 -0.018441214 0)
(0.045304838 -0.015312494 0)
(0.04717703 -0.012038119 0)
(0.048593897 -0.008649915 0)
(0.049541987 -0.0051807436 0)
(0.050012374 -0.0016641856 0)
(0.050000751 0.0018657775 0)
(0.049507477 0.0053750945 0)
(0.048537576 0.0088299801 0)
(0.047100694 0.012197252 0)
(0.045210993 0.015444661 0)
(0.042887002 0.018541215 0)
(0.040151418 0.021457478 0)
(0.037030863 0.024165848 0)
(0.033555603 0.02664081 0)
(0.029759236 0.028859161 0)
(0.025678354 0.030800197 0)
(0.021352181 0.032445885 0)
(0.016822195 0.033780994 0)
(0.012131736 0.034793212 0)
(0.0073256055 0.035473228 0)
(0.0024496502 0.035814802 0)
(-0.0024496502 0.035814802 0)
(-0.0073256055 0.035473228 0)
(-0.012131736 0.034793212 0)
(-0.016822195 0.033780994 0)
(-0.021352181 0.032445885 0)
(-0.025678354 0.030800197 0)
(-0.029759236 0.028859161 0)
(-0.033555603 0.02664081 0)
(-0.037030863 0.024165848 0)
(-0.040151418 0.021457478 0)
(-0.042887002 0.018541215 0)
(-0.045210993 0.015444661 0)
(-0.047100694 0.012197252 0)
(-0.048537576 0.0088299801 0)
(-0.049507477 0.0053750945 0)
(-0.050000751 0.0018657775 0)
(-0.050012374 -0.0016641856 0)
(-0.049541987 -0.0051807436 0)
(-0.048593897 -0.008649915 0)
(-0.04717703 -0.012038119 0)
(-0.045304838 -0.015312494 0)
(-0.042995165 -0.018441214 0)
(-0.04027008 -0.021393782 0)
(-0.037155676 -0.024141331 0)
(-0.033681826 -0.0266569 0)
(-0.029881915 -0.028915706 0)
(-0.02579253 -0.030895409 0)
(-0.021453122 -0.032576347 0)
(-0.016905631 -0.033941765 0)
(-0.012194079 -0.034978005 0)
(-0.0073641408 -0.035674674 0)
(-0.0024626868 -0.036024771 0)
(0.0026650253 -0.04112465 0)
(0.0079691997 -0.040725032 0)
(0.013196009 -0.039929823 0)
(0.018294752 -0.038747022 0)
(0.023216023 -0.037188503 0)
(0.027912207 -0.035269862 0)
(0.032337944 -0.033010227 0)
(0.036450565 -0.030432035 0)
(0.040210494 -0.027560773 0)
(0.043581612 -0.024424702 0)
(0.046531586 -0.021054562 0)
(0.049032158 -0.017483264 0)
(0.051059408 -0.013745576 0)
(0.052593965 -0.0098777921 0)
(0.053621203 -0.0059173975 0)
(0.054131386 -0.0019027174 0)
(0.054119779 0.0021274462 0)
(0.053586703 0.0061341928 0)
(0.052537552 0.010078909 0)
(0.050982739 0.013923663 0)
(0.048937592 0.017631584 0)
(0.046422184 0.021167243 0)
(0.043461119 0.024496998 0)
(0.040083255 0.027589316 0)
(0.036321401 0.030415061 0)
(0.032211966 0.032947748 0)
(0.027794594 0.035163758 0)
(0.023111764 0.037042524 0)
(0.018208385 0.038566686 0)
(0.01313137 0.03972221 0)
(0.0079292002 0.040498488 0)
(0.0026514858 0.040888411 0)
(-0.0026514858 0.040888411 0)
(-0.0079292002 0.040498488 0)
(-0.01313137 0.03972221 0)
(-0.018208385 0.038566686 0)
(-0.023111764 0.037042524 0)
(-0.027794594 0.035163758 0)
(-0.032211966 0.032947748 0)
(-0.036321401 0.030415061 0)
(-0.040083255 0.027589316 0)
(-0.043461119 0.024496998 0)
(-0.046422184 0.021167243 0)
(-0.048937592 0.017631584 0)
(-0.050982739 0.013923663 0)
(-0.052537552 0.010078909 0)
(-0.053586703 0.0061341928 0)
(-0.054119779 0.0021274462 0)
(-0.054131386 -0.0019027174 0)
(-0.053621203 -0.0059173975 0)
(-0.052593965 -0.0098777921 0)
(-0.051059408 -0.013745576 0)
(-0.049032158 -0.017483264 0)
(-0.046531586 -0.021054562 0)
(-0.043581612 -0.024424702 0)
(-0.040210494 -0.027560773 0)
(-0.036450565 -0.030432035 0)
(-0.032337944 -0.033010227 0)
(-0.027912207 -0.035269862 0)
(-0.023216023 -0.037188503 0)
(-0.018294752 -0.038747022 0)
(-0.013196009 -0.039929823 0)
(-0.0079691997 -0.040725032 0)
(-0.0026650253 -0.04112465 0)
(0.0029010761 -0.04665893 0)
(0.0086750719 -0.046205593 0)
(0.014364886 -0.045303491 0)
(0.01991535 -0.043961712 0)
(0.025272713 -0.042193736 0)
(0.030385173 -0.040017264 0)
(0.035203383 -0.037453999 0)
(0.039680927 -0.034529387 0)
(0.043774744 -0.031272318 0)
(0.047445528 -0.027714817 0)
(0.050658074 -0.023891707 0)
(0.053381594 -0.019840269 0)
(0.055589993 -0.015599884 0)
(0.057262111 -0.011211677 0)
(0.058381932 -0.0067181404 0)
(0.058938756 -0.0021627454 0)
(0.058927327 0.0024104677 0)
(0.058347914 0.0069573187 0)
(0.05720633 0.011433932 0)
(0.055513884 0.015797191 0)
(0.053287269 0.020005187 0)
(0.050548377 0.024017651 0)
(0.047324046 0.027796363 0)
(0.043645766 0.031305516 0)
(0.039549324 0.034512044 0)
(0.035074425 0.037385909 0)
(0.030264279 0.039900337 0)
(0.025165171 0.042032029 0)
(0.019826012 0.043761321 0)
(0.01429788 0.045072328 0)
(0.0086335497 0.045953043 0)
(0.0028870113 0.046395418 0)
(-0.0028870113 0.046395418 0)
(-0.0086335497 0.045953043 0)
(-0.01429788 0.045072328 0)
(-0.019826012 0.043761321 0)
(-0.025165171 0.042032029 0)
(-0.030264279 0.039900337 0)
(-0.035074425 0.037385909 0)
(-0.039549324 0.034512044 0)
(-0.043645766 0.031305516 0)
(-0.047324046 0.027796363 0)
(-0.050548377 0.024017651 0)
(-0.053287269 0.020005187 0)
(-0.055513884 0.015797191 0)
(-0.05720633 0.011433932 0)
(-0.058347914 0.0069573187 0)
(-0.058927327 0.0024104677 0)
(-0.058938756 -0.0021627454 0)
(-0.058381932 -0.0067181404 0)
(-0.057262111 -0.011211677 0)
(-0.055589993 -0.015599884 0)
(-0.053381594 -0.019840269 0)
(-0.050658074 -0.023891707 0)
(-0.047445528 -0.027714817 0)
(-0.043774744 -0.031272318 0)
(-0.039680927 -0.034529387 0)
(-0.035203383 -0.037453999 0)
(-0.030385173 -0.040017264 0)
(-0.025272713 -0.042193736 0)
(-0.01991535 -0.043961712 0)
(-0.014364886 -0.045303491 0)
(-0.0086750719 -0.046205593 0)
(-0.0029010761 -0.04665893 0)
(0.0031774499 -0.052700728 0)
(0.0095015255 -0.052188771 0)
(0.015733445 -0.05117003 0)
(0.021812818 -0.049654778 0)
(0.027680808 -0.047658254 0)
(0.033280717 -0.04520046 0)
(0.03855854 -0.04230591 0)
(0.043463473 -0.039003326 0)
(0.047948384 -0.035325306 0)
(0.051970234 -0.031307967 0)
(0.055490458 -0.026990567 0)
(0.058475296 -0.022415128 0)
(0.060896098 -0.017626045 0)
(0.06272959 -0.012669692 0)
(0.063958106 -0.0075940122 0)
(0.064569792 -0.0024480925 0)
(0.064558762 0.0027182973 0)
(0.063925204 0.0078551889 0)
(0.062675411 0.012912928 0)
(0.060821744 0.017842701 0)
(0.058382504 0.02259706 0)
(0.055381724 0.027130426 0)
(0.051848889 0.031399561 0)
(0.047818584 0.035363984 0)
(0.043330107 0.038986343 0)
(0.038427036 0.04223273 0)
(0.033156767 0.045072945 0)
(0.027570047 0.047480722 0)
(0.021720473 0.049433905 0)
(0.015663998 0.0509146 0)
(0.0094584133 0.051909284 0)
(0.0031628335 0.052408898 0)
(-0.0031628335 0.052408898 0)
(-0.0094584133 0.051909284 0)
(-0.015663998 0.0509146 0)
(-0.021720473 0.049433905 0)
(-0.027570047 0.047480722 0)
(-0.033156767 0.045072945 0)
(-0.038427036 0.04223273 0)
(-0.043330107 0.038986343 0)
(-0.047818584 0.035363984 0)
(-0.051848889 0.031399561 0)
(-0.055381724 0.027130426 0)
(-0.058382504 0.02259706 0)
(-0.060821744 0.017842701 0)
(-0.062675411 0.012912928 0)
(-0.063925204 0.0078551889 0)
(-0.064558762 0.0027182973 0)
(-0.064569792 -0.0024480925 0)
(-0.063958106 -0.0075940122 0)
(-0.06272959 -0.012669692 0)
(-0.060896098 -0.017626045 0)
(-0.058475296 -0.022415128 0)
(-0.055490458 -0.026990567 0)
(-0.051970234 -0.031307967 0)
(-0.047948384 -0.035325306 0)
(-0.043463473 -0.039003326 0)
(-0.03855854 -0.04230591 0)
(-0.033280717 -0.04520046 0)
(-0.027680808 -0.047658254 0)
(-0.021812818 -0.049654778 0)
(-0.015733445 -0.05117003 0)
(-0.0095015255 -0.052188771 0)
(-0.0031774499 -0.052700728 0)
(0.0035022084 -0.059337831 0)
(0.010472669 -0.058761512 0)
(0.017341612 -0.057614707 0)
(0.024042514 -0.055908998 0)
(0.030510571 -0.053661557 0)
(0.036683339 -0.050894916 0)
(0.042501341 -0.047636675 0)
(0.047908628 -0.043919151 0)
(0.052853287 -0.039779001 0)
(0.0572879 -0.035256816 0)
(0.061169948 -0.030396699 0)
(0.064462176 -0.025245846 0)
(0.06713292 -0.019854122 0)
(0.069156398 -0.014273637 0)
(0.070512979 -0.0085583059 0)
(0.071189425 -0.0027633773 0)
(0.07117908 0.0030550681 0)
(0.070482013 0.0088406704 0)
(0.069105071 0.01453738 0)
(0.067061852 0.020090075 0)
(0.06437256 0.025445172 0)
(0.061063769 0.030551223 0)
(0.057168095 0.035359452 0)
(0.052723795 0.039824239 0)
(0.047774315 0.043903529 0)
(0.042367798 0.04755918 0)
(0.036556576 0.050757255 0)
(0.030396638 0.053468249 0)
(0.023947091 0.055667295 0)
(0.017269608 0.057334311 0)
(0.010427871 0.05845413 0)
(0.0034870038 0.059016587 0)
(-0.0034870038 0.059016587 0)
(-0.010427871 0.05845413 0)
(-0.017269608 0.057334311 0)
(-0.023947091 0.055667295 0)
(-0.030396638 0.053468249 0)
(-0.036556576 0.050757255 0)
(-0.042367798 0.04755918 0)
(-0.047774315 0.043903529 0)
(-0.052723795 0.039824239 0)
(-0.057168095 0.035359452 0)
(-0.061063769 0.030551223 0)
(-0.06437256 0.025445172 0)
(-0.067061852 0.020090075 0)
(-0.069105071 0.01453738 0)
(-0.070482013 0.0088406704 0)
(-0.07117908 0.0030550681 0)
(-0.071189425 -0.0027633773 0)
(-0.070512979 -0.0085583059 0)
(-0.069156398 -0.014273637 0)
(-0.06713292 -0.019854122 0)
(-0.064462176 -0.025245846 0)
(-0.061169948 -0.030396699 0)
(-0.0572879 -0.035256816 0)
(-0.052853287 -0.039779001 0)
(-0.047908628 -0.043919151 0)
(-0.042501341 -0.047636675 0)
(-0.036683339 -0.050894916 0)
(-0.030510571 -0.053661557 0)
(-0.024042514 -0.055908998 0)
(-0.017341612 -0.057614707 0)
(-0.010472669 -0.058761512 0)
(-0.0035022084 -0.059337831 0)
(0.0038846655 -0.066675526 0)
(0.011616355 -0.066028094 0)
(0.019235509 -0.064739792 0)
(0.026668391 -0.062823654 0)
(0.033843173 -0.060298993 0)
(0.040690648 -0.057191142 0)
(0.047144904 -0.053531109 0)
(0.053143939 -0.049355181 0)
(0.058630217 -0.044704489 0)
(0.063551167 -0.039624541 0)
(0.067859618 -0.034164762 0)
(0.071514194 -0.028378026 0)
(0.074479666 -0.0223202 0)
(0.076727278 -0.016049695 0)
(0.078235056 -0.0096269959 0)
(0.078988091 -0.0031141632 0)
(0.078978788 0.0034257262 0)
(0.078207046 0.0099292002 0)
(0.076680355 0.016333077 0)
(0.07441377 0.022575187 0)
(0.071429754 0.028595106 0)
(0.067757904 0.034334843 0)
(0.063434559 0.039739479 0)
(0.05850233 0.044757701 0)
(0.053009575 0.049342271 0)
(0.047009838 0.053450395 0)
(0.040561269 0.057044028 0)
(0.033726038 0.060090129 0)
(0.026569732 0.062560856 0)
(0.019160759 0.064433739 0)
(0.011569724 0.065691808 0)
(0.0038688179 0.066323693 0)
(-0.0038688179 0.066323693 0)
(-0.011569724 0.065691808 0)
(-0.019160759 0.064433739 0)
(-0.026569732 0.062560856 0)
(-0.033726038 0.060090129 0)
(-0.040561269 0.057044028 0)
(-0.047009838 0.053450395 0)
(-0.053009575 0.049342271 0)
(-0.05850233 0.044757701 0)
(-0.063434559 0.039739479 0)
(-0.067757904 0.034334843 0)
(-0.071429754 0.028595106 0)
(-0.07441377 0.022575187 0)
(-0.076680355 0.016333077 0)
(-0.078207046 0.0099292002 0)
(-0.078978788 0.0034257262 0)
(-0.078988091 -0.0031141632 0)
(-0.078235056 -0.0096269959 0)
(-0.076727278 -0.016049695 0)
(-0.074479666 -0.0223202 0)
(-0.071514194 -0.028378026 0)
(-0.067859618 -0.034164762 0)
(-0.063551167 -0.039624541 0)
(-0.058630217 -0.044704489 0)
(-0.053143939 -0.049355181 0)
(-0.047144904 -0.053531109 0)
(-0.040690648 -0.057191142 0)
(-0.033843173 -0.060298993 0)
(-0.026668391 -0.062823654 0)
(-0.019235509 -0.064739792 0)
(-0.011616355 -0.066028094 0)
(-0.0038846655 -0.066675526 0)
(0.0043348663 -0.074838766 0)
(0.012962622 -0.07411227 0)
(0.021464881 -0.072666655 0)
(0.02975942 -0.07051657 0)
(0.037766147 -0.067683718 0)
(0.045407903 -0.064196549 0)
(0.052611205 -0.060089865 0)
(0.059306933 -0.055404361 0)
(0.065430941 -0.050186127 0)
(0.070924597 -0.044486117 0)
(0.075735264 -0.038359631 0)
(0.07981671 -0.031865805 0)
(0.0831295 -0.025067126 0)
(0.085641356 -0.01802896 0)
(0.087327508 -0.010819066 0)
(0.088171042 -0.0035070716 0)
(0.088163212 0.0038361342 0)
(0.087303687 0.011139107 0)
(0.085600696 0.018330644 0)
(0.083071012 0.025340649 0)
(0.079739785 0.032100997 0)
(0.075640205 0.038546366 0)
(0.070813035 0.044614964 0)
(0.06530605 0.050249153 0)
(0.059173421 0.055395945 0)
(0.052475065 0.060007407 0)
(0.045275991 0.064040973 0)
(0.037645643 0.067459703 0)
(0.029657233 0.070232491 0)