/*--------------------------------*- C++ -*----------------------------------*\
| =========                 |                                                 |
| \\      /  F ield         | OpenFOAM: The Open Source CFD Toolbox           |
|  \\    /   O peration     | Version:  2106                                  |
|   \\  /    A nd           | Website:  www.openfoam.com                      |
|    \\/     M anipulation  |                                                 |
\*---------------------------------------------------------------------------*/
FoamFile
{
    version     2.0;
    format      ascii;
    arch        "LSB;label=32;scalar=64";
    class       surfaceScalarField;
    location    "0.019";
    object      phi;
}
// * * * * * * * * * * * * * * * * * * * * * * * * * * * * * * * * * * * * * //

dimensions      [0 3 -1 0 0 0 0];

oriented        oriented;

internalField   nonuniform List<scalar> 
130560
(
9.9226497e-06
-9.9226497e-06
1.9838637e-05
-9.9159869e-06
2.9741303e-05
-9.9026668e-06
3.9624004e-05
-9.8827008e-06
4.948011e-05
-9.856106e-06
5.9303015e-05
-9.8229048e-06
6.9086141e-05
-9.7831256e-06
7.8822943e-05
-9.736802e-06
8.8506916e-05
-9.6839733e-06
9.81316e-05
-9.6246843e-06
0.00010769059
-9.558985e-06
0.00011717752
-9.4869309e-06
0.0001265861
-9.4085827e-06
0.00013591011
-9.3240065e-06
0.00014514338
-9.233273e-06
0.00015427984
-9.1364585e-06
0.00016331348
-9.0336437e-06
0.00017223839
-8.9249145e-06
0.00018104876
-8.8103612e-06
0.00018973884
-8.6900788e-06
0.000198303
-8.5641669e-06
0.00020673573
-8.4327291e-06
0.0002150316
-8.2958735e-06
0.00022318532
-8.1537122e-06
0.00023119168
-8.006361e-06
0.00023904562
-7.8539399e-06
0.00024674219
-7.6965721e-06
0.00025427657
-7.5343847e-06
0.00026164408
-7.3675077e-06
0.00026884016
-7.1960747e-06
0.00027586038
-7.020222e-06
0.00028270047
-6.840089e-06
0.00028935629
-6.6558175e-06
0.00029582384
-6.467552e-06
0.00030209928
-6.2754395e-06
0.00030817891
-6.079629e-06
0.00031405918
-5.8802715e-06
0.0003197367
-5.6775199e-06
0.00032520823
-5.4715288e-06
0.00033047068
-5.2624545e-06
0.00033552113
-5.0504542e-06
0.00034035682
-4.8356867e-06
0.00034497513
-4.6183116e-06
0.00034937362
-4.3984894e-06
0.00035355
-4.1763812e-06
0.00035750215
-3.9521487e-06
0.00036122811
-3.725954e-06
0.00036472607
-3.4979592e-06
0.00036799439
-3.2683265e-06
0.00037103161
-3.0372181e-06
0.00037383641
-2.8047959e-06
0.00037640763
-2.5712211e-06
0.00037874428
-2.3366546e-06
0.00038084554
-2.1012566e-06
0.00038271072
-1.8651862e-06
0.00038433933
-1.6286017e-06
0.00038573099
-1.3916603e-06
0.0003868855
-1.1545177e-06
0.00038780283
-9.1732845e-07
0.00038848308
-6.8024549e-07
0.0003889265
-4.4342017e-07
0.0003891335
-2.0700238e-07
0.00038910464
2.8859944e-08
0.00038884062
2.6401898e-07
0.00038834228
4.9833927e-07
0.00038761061
7.3167118e-07
0.00038664673
9.6387633e-07
0.00038545192
1.1948186e-06
0.00038402755
1.4243633e-06
0.00038237517
1.6523782e-06
0.00038049644
1.8787333e-06
0.00037839314
2.1033017e-06
0.00037606718
2.3259586e-06
0.0003735206
2.5465823e-06
0.00037075554
2.7650538e-06
0.00036777429
2.9812566e-06
0.00036457921
3.1950773e-06
0.00036117281
3.4064052e-06
0.00035755767
3.6151326e-06
0.00035373652
3.8211547e-06
0.00034971215
4.0243694e-06
0.00034548747
4.2246778e-06
0.00034106549
4.4219838e-06
0.00033644929
4.6161942e-06
0.00033164207
4.8072188e-06
0.0003266471
4.9949704e-06
0.00032146774
5.1793645e-06
0.00031610742
5.3603197e-06
0.00031056966
5.5377574e-06
0.00030485806
5.7116018e-06
0.00029897628
5.8817799e-06
0.00029292806
6.0482217e-06
0.0002867172
6.2108598e-06
0.00028034757
6.3696295e-06
0.0002738231
6.5244689e-06
0.00026714778
6.6753185e-06
0.00026032566
6.8221217e-06
0.00025336084
6.9648243e-06
0.00024625746
7.1033744e-06
0.00023901974
7.2377228e-06
0.00023165192
7.3678227e-06
0.00022415829
7.4936293e-06
0.00021654319
7.6151005e-06
0.00020881099
7.732196e-06
0.00020096611
7.844878e-06
0.000193013
7.9531105e-06
0.00018495614
8.0568599e-06
0.00017680005
8.1560941e-06
0.00016854927
8.2507833e-06
0.00016020837
8.3408993e-06
0.00015178195
8.4264161e-06
0.00014327464
8.5073089e-06
0.00013469109
8.5835551e-06
0.00012603595
8.6551333e-06
0.00011731393
8.7220241e-06
0.00010852972
8.7842093e-06
9.9688047e-05
8.8416724e-06
9.0793648e-05
8.8943983e-06
8.1851275e-05
8.9423734e-06
7.286569e-05
8.9855853e-06
6.3841667e-05
9.0240229e-06
5.478399e-05
9.0576767e-06
4.5697452e-05
9.0865382e-06
3.6586851e-05
9.1106003e-06
2.7456994e-05
9.1298571e-06
1.8312691e-05
9.1443037e-06
9.1587539e-06
9.1539368e-06
-1.8295839e-15
9.1587539e-06
-9.1587539e-06
9.1587539e-06
-1.8312691e-05
9.1539368e-06
-2.7456994e-05
9.1443037e-06
-3.6586851e-05
9.1298571e-06
-4.5697452e-05
9.1106003e-06
-5.478399e-05
9.0865382e-06
-6.3841667e-05
9.0576767e-06
-7.286569e-05
9.0240229e-06
-8.1851275e-05
8.9855853e-06
-9.0793648e-05
8.9423734e-06
-9.9688047e-05
8.8943983e-06
-0.00010852972
8.8416724e-06
-0.00011731393
8.7842093e-06
-0.00012603595
8.7220241e-06
-0.00013469109
8.6551333e-06
-0.00014327464
8.5835551e-06
-0.00015178195
8.5073089e-06
-0.00016020837
8.4264161e-06
-0.00016854927
8.3408993e-06
-0.00017680005
8.2507833e-06
-0.00018495614
8.1560941e-06
-0.000193013
8.0568599e-06
-0.00020096611
7.9531105e-06
-0.00020881099
7.844878e-06
-0.00021654319
7.732196e-06
-0.00022415829
7.6151005e-06
-0.00023165192
7.4936293e-06
-0.00023901974
7.3678227e-06
-0.00024625746
7.2377228e-06
-0.00025336084
7.1033744e-06
-0.00026032566
6.9648243e-06
-0.00026714778
6.8221217e-06
-0.0002738231
6.6753185e-06
-0.00028034757
6.5244689e-06
-0.0002867172
6.3696295e-06
-0.00029292806
6.2108598e-06
-0.00029897628
6.0482217e-06
-0.00030485806
5.8817799e-06
-0.00031056966
5.7116018e-06
-0.00031610742
5.5377574e-06
-0.00032146774
5.3603197e-06
-0.0003266471
5.1793645e-06
-0.00033164207
4.9949704e-06
-0.00033644929
4.8072188e-06
-0.00034106549
4.6161942e-06
-0.00034548747
4.4219838e-06
-0.00034971215
4.2246778e-06
-0.00035373652
4.0243694e-06
-0.00035755767
3.8211547e-06
-0.00036117281
3.6151326e-06
-0.00036457921
3.4064052e-06
-0.00036777429
3.1950773e-06
-0.00037075554
2.9812566e-06
-0.0003735206
2.7650538e-06
-0.00037606718
2.5465823e-06
-0.00037839314
2.3259586e-06
-0.00038049644
2.1033017e-06
-0.00038237517
1.8787333e-06
-0.00038402755
1.6523782e-06
-0.00038545192
1.4243633e-06
-0.00038664673
1.1948186e-06
-0.00038761061
9.6387633e-07
-0.00038834228
7.3167118e-07
-0.00038884062
4.9833927e-07
-0.00038910464
2.6401898e-07
-0.0003891335
2.8859943e-08
-0.0003889265
-2.0700238e-07
-0.00038848308
-4.4342017e-07
-0.00038780283
-6.8024549e-07
-0.0003868855
-9.1732845e-07
-0.00038573099
-1.1545177e-06
-0.00038433933
-1.3916603e-06
-0.00038271072
-1.6286017e-06
-0.00038084554
-1.8651862e-06
-0.00037874428
-2.1012566e-06
-0.00037640763
-2.3366546e-06
-0.00037383641
-2.5712211e-06
-0.00037103161
-2.8047959e-06
-0.00036799439
-3.0372181e-06
-0.00036472607
-3.2683265e-06
-0.00036122811
-3.4979592e-06
-0.00035750215
-3.725954e-06
-0.00035355
-3.9521487e-06
-0.00034937362
-4.1763812e-06
-0.00034497513
-4.3984894e-06
-0.00034035682
-4.6183116e-06
-0.00033552113
-4.8356867e-06
-0.00033047068
-5.0504542e-06
-0.00032520823
-5.2624545e-06
-0.0003197367
-5.4715288e-06
-0.00031405918
-5.6775199e-06
-0.00030817891
-5.8802715e-06
-0.00030209928
-6.079629e-06
-0.00029582384
-6.2754395e-06
-0.00028935629
-6.467552e-06
-0.00028270047
-6.6558175e-06
-0.00027586038
-6.840089e-06
-0.00026884016
-7.020222e-06
-0.00026164408
-7.1960747e-06
-0.00025427657
-7.3675077e-06
-0.00024674219
-7.5343847e-06
-0.00023904562
-7.6965721e-06
-0.00023119168
-7.8539399e-06
-0.00022318532
-8.006361e-06
-0.0002150316
-8.1537122e-06
-0.00020673573
-8.2958735e-06
-0.000198303
-8.4327291e-06
-0.00018973884
-8.5641669e-06
-0.00018104876
-8.6900788e-06
-0.00017223839
-8.8103612e-06
-0.00016331348
-8.9249145e-06
-0.00015427984
-9.0336437e-06
-0.00014514338
-9.1364585e-06
-0.00013591011
-9.233273e-06
-0.0001265861
-9.3240065e-06
-0.00011717752
-9.4085827e-06
-0.00010769059
-9.4869309e-06
-9.81316e-05
-9.558985e-06
-8.8506916e-05
-9.6246843e-06
-7.8822943e-05
-9.6839733e-06
-6.9086141e-05
-9.736802e-06
-5.9303015e-05
-9.7831256e-06
-4.948011e-05
-9.8229048e-06
-3.9624004e-05
-9.856106e-06
-2.9741303e-05
-9.8827008e-06
-1.9838637e-05
-9.9026668e-06
-9.9226497e-06
-9.9159868e-06
-9.9226497e-06
9.9361649e-06
-1.9858815e-05
1.9865657e-05
-1.9845479e-05
2.978181e-05
-1.981882e-05
3.9677968e-05
-1.9778859e-05
4.9547492e-05
-1.972563e-05
5.9383767e-05
-1.965918e-05
6.9180205e-05
-1.9579563e-05
7.8930251e-05
-1.9486849e-05
8.8627393e-05
-1.9381115e-05
9.8265159e-05
-1.926245e-05
0.00010783713
-1.9130956e-05
0.00011733694
-1.8986744e-05
0.00012675829
-1.8829934e-05
0.00013609495
-1.8660659e-05
0.00014534073
-1.847906e-05
0.00015448957
-1.8285291e-05
0.00016353544
-1.8079513e-05
0.00017247242
-1.7861897e-05
0.00018129468
-1.7632625e-05
0.00018999649
-1.7391887e-05
0.00019857221
-1.7139882e-05
0.00020701629
-1.6876817e-05
0.00021532333
-1.6602909e-05
0.000223488
-1.6318382e-05
0.00023150511
-1.6023468e-05
0.00023936958
-1.5718408e-05
0.00024707645
-1.5403447e-05
0.00025462091
-1.507884e-05
0.00026199825
-1.4744848e-05
0.00026920391
-1.4401738e-05
0.00027623347
-1.4049782e-05
0.00028308264
-1.368926e-05
0.00028974728
-1.3320455e-05
0.00029622338
-1.2943657e-05
0.0003025071
-1.255916e-05
0.00030859474
-1.2167263e-05
0.00031448273
-1.1768266e-05
0.00032016769
-1.1362478e-05
0.00032564637
-1.0950206e-05
0.00033091568
-1.0531764e-05
0.00033597269
-1.0107466e-05
0.00034081463
-9.6776309e-06
0.0003454389
-9.2425773e-06
0.00034984304
-8.8026266e-06
0.00035402476
-8.3581013e-06
0.00035798193
-7.9093252e-06
0.0003617126
-7.4566224e-06
0.00036521496
-7.0003176e-06
0.00036848737
-6.5407355e-06
0.00037152835
-6.0782005e-06
0.00037433659
-5.6130367e-06
0.00037691094
-5.1455669e-06
0.0003792504
-4.6761132e-06
0.00038135413
-4.2049958e-06
0.00038322148
-3.7325336e-06
0.00038485192
-3.2590433e-06
0.0003862451
-2.7848392e-06
0.00038740082
-2.3102334e-06
0.00038831902
-1.835535e-06
0.00038899983
-1.3610502e-06
0.00038944349
-8.8708193e-07
0.00038965042
-4.1392984e-07
0.00038962117
5.8109953e-08
0.00038935644
5.2874591e-07
0.00038885709
9.9769351e-07
0.00038812409
1.4646657e-06
0.00038715859
1.9293834e-06
0.00038596183
2.3915726e-06
0.00038453523
2.8509638e-06
0.00038288032
3.3072924e-06
0.00038099875
3.7602986e-06
0.00037889233
4.2097279e-06
0.00037656295
4.6553312e-06
0.00037401267
5.0968645e-06
0.00037124364
5.5340896e-06
0.00036825812
5.9667737e-06
0.00036505851
6.3946896e-06
0.00036164729
6.817616e-06
0.00035802709
7.2353372e-06
0.0003542006
7.6476434e-06
0.00035017064
8.0543306e-06
0.00034594012
8.4552006e-06
0.00034151204
8.8500612e-06
0.00033688951
9.238726e-06
0.00033207571
9.6210145e-06
0.00032707393
9.9967519e-06
0.00032188753
1.0365769e-05
0.00031651994
1.0727904e-05
0.0003109747
1.1082999e-05
0.0003052554
1.1430902e-05
0.00029936571
1.1771467e-05
0.00029330938
1.2104554e-05
0.00028709021
1.2430029e-05
0.00028071208
1.2747761e-05
0.00027417892
1.3057627e-05
0.00026749473
1.3359509e-05
0.00026066356
1.3653292e-05
0.00025368952
1.3938868e-05
0.00024657676
1.4216134e-05
0.00023932949
1.4484991e-05
0.00023195197
1.4745346e-05
0.00022444849
1.4997108e-05
0.00021682339
1.5240194e-05
0.00020908107
1.5474523e-05
0.00020122592
1.5700019e-05
0.00019326242
1.5916611e-05
0.00018519505
1.6124231e-05
0.00017702833
1.6322815e-05
0.00016876681
1.6512304e-05
0.00016041507
1.669264e-05
0.00015197771
1.6863773e-05
0.00014345937
1.7025652e-05
0.00013486469
1.7178232e-05
0.00012619836
1.732147e-05
0.00011746505
1.7455329e-05
0.00010866949
1.757977e-05
9.9816401e-05
1.7694762e-05
9.0910526e-05
1.7800274e-05
8.195662e-05
1.7896279e-05
7.2959453e-05
1.7982752e-05
6.3923805e-05
1.8059671e-05
5.4854465e-05
1.8127017e-05
4.5756231e-05
1.8184772e-05
3.6633908e-05
1.8232924e-05
2.7492306e-05
1.8271459e-05
1.8336241e-05
1.8300369e-05
9.1705316e-06
1.8319646e-05
-1.6911554e-15
1.8329285e-05
-9.1705316e-06
1.8329285e-05
-1.8336241e-05
1.8319646e-05
-2.7492306e-05
1.8300369e-05
-3.6633908e-05
1.8271459e-05
-4.5756231e-05
1.8232924e-05
-5.4854465e-05
1.8184772e-05
-6.3923805e-05
1.8127017e-05
-7.2959453e-05
1.8059671e-05
-8.195662e-05
1.7982752e-05
-9.0910526e-05
1.7896279e-05
-9.9816401e-05
1.7800274e-05
-0.00010866949
1.7694762e-05
-0.00011746505
1.757977e-05
-0.00012619836
1.7455329e-05
-0.00013486469
1.732147e-05
-0.00014345937
1.7178232e-05
-0.00015197771
1.7025652e-05
-0.00016041507
1.6863773e-05
-0.00016876681
1.669264e-05
-0.00017702833
1.6512304e-05
-0.00018519505
1.6322815e-05
-0.00019326242
1.6124231e-05
-0.00020122592
1.5916611e-05
-0.00020908107
1.5700019e-05
-0.00021682339
1.5474523e-05
-0.00022444849
1.5240194e-05
-0.00023195197
1.4997108e-05
-0.00023932949
1.4745346e-05
-0.00024657676
1.4484991e-05
-0.00025368952
1.4216134e-05
-0.00026066356
1.3938868e-05
-0.00026749473
1.3653292e-05
-0.00027417892
1.3359509e-05
-0.00028071208
1.3057627e-05
-0.00028709021
1.2747761e-05
-0.00029330938
1.2430029e-05
-0.00029936571
1.2104554e-05
-0.0003052554
1.1771467e-05
-0.0003109747
1.1430902e-05
-0.00031651994
1.1082999e-05
-0.00032188753
1.0727904e-05
-0.00032707393
1.0365769e-05
-0.00033207571
9.9967519e-06
-0.00033688951
9.6210144e-06
-0.00034151204
9.238726e-06
-0.00034594012
8.8500612e-06
-0.00035017064
8.4552006e-06
-0.0003542006
8.0543306e-06
-0.00035802709
7.6476434e-06
-0.00036164729
7.2353372e-06
-0.00036505851
6.817616e-06
-0.00036825812
6.3946896e-06
-0.00037124364
5.9667737e-06
-0.00037401267
5.5340896e-06
-0.00037656295
5.0968645e-06
-0.00037889233
4.6553312e-06
-0.00038099875
4.2097279e-06
-0.00038288032
3.7602986e-06
-0.00038453523
3.3072924e-06
-0.00038596183
2.8509638e-06
-0.00038715859
2.3915726e-06
-0.00038812409
1.9293834e-06
-0.00038885709
1.4646657e-06
-0.00038935644
9.976935e-07
-0.00038962117
5.287459e-07
-0.00038965042
5.8109951e-08
-0.00038944349
-4.1392984e-07
-0.00038899983
-8.8708193e-07
-0.00038831902
-1.3610502e-06
-0.00038740082
-1.835535e-06
-0.0003862451
-2.3102334e-06
-0.00038485192
-2.7848392e-06
-0.00038322148
-3.2590433e-06
-0.00038135413
-3.7325336e-06
-0.0003792504
-4.2049958e-06
-0.00037691094
-4.6761132e-06
-0.00037433659
-5.1455669e-06
-0.00037152835
-5.6130367e-06
-0.00036848737
-6.0782005e-06
-0.00036521496
-6.5407355e-06
-0.0003617126
-7.0003176e-06
-0.00035798193
-7.4566224e-06
-0.00035402476
-7.9093252e-06
-0.00034984304
-8.3581013e-06
-0.0003454389
-8.8026266e-06
-0.00034081463
-9.2425773e-06
-0.00033597269
-9.6776309e-06
-0.00033091568
-1.0107466e-05
-0.00032564637
-1.0531764e-05
-0.00032016769
-1.0950206e-05
-0.00031448273
-1.1362478e-05
-0.00030859474
-1.1768266e-05
-0.0003025071
-1.2167263e-05
-0.00029622338
-1.255916e-05
-0.00028974728
-1.2943657e-05
-0.00028308264
-1.3320455e-05
-0.00027623347
-1.368926e-05
-0.00026920391
-1.4049782e-05
-0.00026199825
-1.4401738e-05
-0.00025462091
-1.4744848e-05
-0.00024707645
-1.507884e-05
-0.00023936958
-1.5403447e-05
-0.00023150511
-1.5718408e-05
-0.000223488
-1.6023468e-05
-0.00021532333
-1.6318382e-05
-0.00020701629
-1.6602909e-05
-0.00019857221
-1.6876817e-05
-0.00018999649
-1.7139882e-05
-0.00018129468
-1.7391887e-05
-0.00017247242
-1.7632625e-05
-0.00016353544
-1.7861897e-05
-0.00015448957
-1.8079513e-05
-0.00014534073
-1.8285291e-05
-0.00013609495
-1.847906e-05
-0.00012675829
-1.8660659e-05
-0.00011733694
-1.8829934e-05
-0.00010783713
-1.8986744e-05
-9.8265159e-05
-1.9130956e-05
-8.8627393e-05
-1.926245e-05
-7.8930251e-05
-1.9381115e-05
-6.9180205e-05
-1.9486849e-05
-5.9383767e-05
-1.9579563e-05
-4.9547492e-05
-1.965918e-05
-3.9677968e-05
-1.972563e-05
-2.978181e-05
-1.9778859e-05
-1.9865657e-05
-1.981882e-05
-9.9361649e-06
-1.9845479e-05
-1.9858815e-05
9.9598941e-06
-2.9818709e-05
1.9913099e-05
-2.9798684e-05
2.9852931e-05
-2.9758652e-05
3.9772719e-05
-2.9698646e-05
4.9665807e-05
-2.9618718e-05
5.9525563e-05
-2.9518936e-05
6.9345383e-05
-2.9399383e-05
7.9118697e-05
-2.9260162e-05
8.8838973e-05
-2.9101392e-05
9.8499728e-05
-2.8923205e-05
0.00010809452
-2.8725753e-05
0.00011761698
-2.8509202e-05
0.00012706079
-2.8273736e-05
0.00013641968
-2.8019552e-05
0.00014568748
-2.7746864e-05
0.00015485809
-2.74559e-05
0.00016392548
-2.7146904e-05
0.00017288372
-2.6820132e-05
0.00018172695
-2.6475858e-05
0.00019044943
-2.6114366e-05
0.0001990455
-2.5735956e-05
0.00020750962
-2.5340939e-05
0.00021583636
-2.4929641e-05
0.00022402037
-2.4502398e-05
0.00023205646
-2.4059558e-05
0.00023993953
-2.3601482e-05
0.00024766463
-2.312854e-05
0.0002552269
-2.2641115e-05
0.00026262165
-2.2139598e-05
0.0002698443
-2.1624389e-05
0.00027689042
-2.1095898e-05
0.00028375571
-2.0554545e-05
0.00029043601
-2.0000756e-05
0.00029692731
-1.9434965e-05
0.00030322577
-1.8857614e-05
0.00030932765
-1.826915e-05
0.00031522942
-1.7670028e-05
0.00032092765
-1.7060708e-05
0.00032641909
-1.6441654e-05
0.00033170067
-1.5813335e-05
0.00033676942
-1.5176225e-05
0.00034162259
-1.45308e-05
0.00034625756
-1.3877541e-05
0.00035067186
-1.3216929e-05
0.00035486321
-1.2549449e-05
0.00035882947
-1.1875587e-05
0.00036256867
-1.119583e-05
0.00036607902
-1.0510665e-05
0.00036935887
-9.82058e-06
0.00037240673
-9.1260624e-06
0.00037522129
-8.4275984e-06
0.0003778014
-7.725673e-06
0.00038014605
-7.0207695e-06
0.00038225443
-6.3133693e-06
0.00038412584
-5.6039507e-06
0.00038575979
-4.8929895e-06
0.00038715591
-4.1809578e-06
0.000388314
-3.4683239e-06
0.00038923402
-2.7555523e-06
0.00038991607
-2.0431025e-06
0.00039036041
-1.3314294e-06
0.00039056747
-6.2098293e-07
0.00039053779
8.7792822e-08
0.00039027207
7.9446024e-07
0.00038977118
1.4985883e-06
0.00038903609
2.1997499e-06
0.00038806795
2.8975257e-06
0.00038686802
3.5915039e-06
0.0003854377
4.2812796e-06
0.00038377854
4.9664555e-06
0.0003818922
5.6466415e-06
0.00037978047
6.3214556e-06
0.00037744528
6.9905236e-06
0.00037488866
7.6534794e-06
0.00037211279
8.309965e-06
0.00036911993
8.9596312e-06
0.00036591248
9.6021367e-06
0.00036249295
1.0237149e-05
0.00035886394
1.0864345e-05
0.00035502817
1.1483409e-05
0.00035098847
1.2094035e-05
0.00034674774
1.2695926e-05
0.00034230901
1.3288793e-05
0.00033767538
1.3872355e-05
0.00033285006
1.4446342e-05
0.00032783632
1.5010493e-05
0.00032263753
1.5564552e-05
0.00031725716
1.6108276e-05
0.00031169873
1.6641429e-05
0.00030596585
1.7163782e-05
0.0003000622
1.7675118e-05
0.00029399153
1.8175225e-05
0.00028775766
1.86639e-05
0.00028136447
1.9140951e-05
0.0002748159
1.960619e-05
0.00026811597
2.005944e-05
0.00026126874
2.0500529e-05
0.00025427831
2.0929296e-05
0.00024714886
2.1345585e-05
0.0002398846
2.1749248e-05
0.0002324898
2.2140145e-05
0.00022496877
2.251814e-05
0.00021732586
2.2883108e-05
0.00020956545
2.3234928e-05
0.00020169198
2.3573485e-05
0.00019370992
2.3898673e-05
0.00018562376
2.4210391e-05
0.00017743804
2.4508541e-05
0.00016915731
2.4793035e-05
0.00016078616
2.5063788e-05
0.00015232921
2.5320722e-05
0.0001437911
2.5563762e-05
0.00013517649
2.5792841e-05
0.00012649006
2.6007896e-05
0.00011773653
2.6208866e-05
0.0001089206
2.6395698e-05
0.00010004702
2.6568343e-05
9.1120539e-05
2.6726754e-05
8.2145926e-05
2.6870892e-05
7.3127959e-05
2.7000719e-05
6.4071429e-05
2.7116201e-05
5.4981134e-05
2.7217311e-05
4.5861883e-05
2.7304023e-05
3.6718491e-05
2.7376316e-05
2.7555779e-05
2.7434171e-05
1.8378574e-05
2.7477575e-05
9.1917032e-06
2.7506516e-05
-1.5491895e-15
2.7520989e-05
-9.1917032e-06
2.7520989e-05
-1.8378574e-05
2.7506516e-05
-2.7555779e-05
2.7477575e-05
-3.6718491e-05
2.7434171e-05
-4.5861883e-05
2.7376316e-05
-5.4981134e-05
2.7304023e-05
-6.4071429e-05
2.7217311e-05
-7.3127959e-05
2.7116201e-05
-8.2145926e-05
2.7000719e-05
-9.1120539e-05
2.6870892e-05
-0.00010004702
2.6726754e-05
-0.0001089206
2.6568343e-05
-0.00011773653
2.6395698e-05
-0.00012649006
2.6208866e-05
-0.00013517649
2.6007896e-05
-0.0001437911
2.5792841e-05
-0.00015232921
2.5563762e-05
-0.00016078616
2.5320722e-05
-0.00016915731
2.5063788e-05
-0.00017743804
2.4793035e-05
-0.00018562376
2.4508541e-05
-0.00019370992
2.4210391e-05
-0.00020169198
2.3898673e-05
-0.00020956545
2.3573485e-05
-0.00021732586
2.3234928e-05
-0.00022496877
2.2883108e-05
-0.0002324898
2.251814e-05
-0.0002398846
2.2140145e-05
-0.00024714886
2.1749248e-05
-0.00025427831
2.1345585e-05
-0.00026126874
2.0929296e-05
-0.00026811597
2.0500529e-05
-0.0002748159
2.005944e-05
-0.00028136447
1.960619e-05
-0.00028775766
1.9140951e-05
-0.00029399153
1.86639e-05
-0.0003000622
1.8175225e-05
-0.00030596585
1.7675118e-05
-0.00031169873
1.7163782e-05
-0.00031725716
1.6641429e-05
-0.00032263753
1.6108276e-05
-0.00032783632
1.5564552e-05
-0.00033285006
1.5010493e-05
-0.00033767538
1.4446342e-05
-0.00034230901
1.3872355e-05
-0.00034674774
1.3288792e-05
-0.00035098847
1.2695926e-05
-0.00035502817
1.2094035e-05
-0.00035886394
1.1483409e-05
-0.00036249295
1.0864345e-05
-0.00036591248
1.0237149e-05
-0.00036911993
9.6021367e-06
-0.00037211279
8.9596312e-06
-0.00037488866
8.309965e-06
-0.00037744528
7.6534794e-06
-0.00037978047
6.9905236e-06
-0.0003818922
6.3214556e-06
-0.00038377854
5.6466415e-06
-0.0003854377
4.9664555e-06
-0.00038686802
4.2812796e-06
-0.00038806795
3.5915039e-06
-0.00038903609
2.8975257e-06
-0.00038977118
2.1997499e-06
-0.00039027207
1.4985883e-06
-0.00039053779
7.9446023e-07
-0.00039056747
8.779282e-08
-0.00039036041
-6.2098293e-07
-0.00038991607
-1.3314294e-06
-0.00038923402
-2.0431025e-06
-0.000388314
-2.7555523e-06
-0.00038715591
-3.4683239e-06
-0.00038575979
-4.1809578e-06
-0.00038412584
-4.8929895e-06
-0.00038225443
-5.6039507e-06
-0.00038014605
-6.3133693e-06
-0.0003778014
-7.0207695e-06
-0.00037522129
-7.725673e-06
-0.00037240673
-8.4275984e-06
-0.00036935887
-9.1260624e-06
-0.00036607902
-9.82058e-06
-0.00036256867
-1.0510665e-05
-0.00035882947
-1.119583e-05
-0.00035486321
-1.1875587e-05
-0.00035067186
-1.2549449e-05
-0.00034625756
-1.3216929e-05
-0.00034162259
-1.3877541e-05
-0.00033676942
-1.45308e-05
-0.00033170067
-1.5176225e-05
-0.00032641909
-1.5813335e-05
-0.00032092765
-1.6441654e-05
-0.00031522942
-1.7060708e-05
-0.00030932765
-1.7670028e-05
-0.00030322577
-1.826915e-05
-0.00029692731
-1.8857614e-05
-0.00029043601
-1.9434965e-05
-0.00028375571
-2.0000756e-05
-0.00027689042
-2.0554545e-05
-0.0002698443
-2.1095898e-05
-0.00026262165
-2.1624389e-05
-0.0002552269
-2.2139598e-05
-0.00024766463
-2.2641115e-05
-0.00023993953
-2.312854e-05
-0.00023205646
-2.3601482e-05
-0.00022402037
-2.4059558e-05
-0.00021583636
-2.4502398e-05
-0.00020750962
-2.4929641e-05
-0.0001990455
-2.5340939e-05
-0.00019044943
-2.5735956e-05
-0.00018172695
-2.6114366e-05
-0.00017288372
-2.6475858e-05
-0.00016392548
-2.6820132e-05
-0.00015485809
-2.7146904e-05
-0.00014568748
-2.74559e-05
-0.00013641968
-2.7746864e-05
-0.00012706079
-2.8019552e-05
-0.00011761698
-2.8273736e-05
-0.00010809452
-2.8509202e-05
-9.8499728e-05
-2.8725753e-05
-8.8838973e-05
-2.8923205e-05
-7.9118697e-05
-2.9101392e-05
-6.9345383e-05
-2.9260162e-05
-5.9525563e-05
-2.9399383e-05
-4.9665807e-05
-2.9518936e-05
-3.9772719e-05
-2.9618718e-05
-2.9852931e-05
-2.9698646e-05
-1.9913099e-05
-2.9758652e-05
-9.9598941e-06
-2.9798684e-05
-2.9818709e-05
9.9938596e-06
-3.9812568e-05
1.9981007e-05
-3.9785831e-05
2.9954734e-05
-3.9732379e-05
3.9908346e-05
-3.9652259e-05
4.9835165e-05
-3.9545537e-05
5.9728535e-05
-3.9412305e-05
6.9581829e-05
-3.9252677e-05
7.9388453e-05
-3.9066787e-05
8.9141854e-05
-3.8854793e-05
9.8835524e-05
-3.8616875e-05
0.000108463
-3.8353234e-05
0.00011801789
-3.8064092e-05
0.00012749385
-3.7749694e-05
0.0001368846
-3.7410303e-05
0.00014618395
-3.7046206e-05
0.00015538575
-3.6657707e-05
0.00016448398
-3.6245131e-05
0.00017347267
-3.5808822e-05
0.00018234596
-3.5349143e-05
0.00019109807
-3.4866476e-05
0.00019972333
-3.4361219e-05
0.00020821618
-3.383379e-05
0.00021657116
-3.3284621e-05
0.00022478293
-3.2714164e-05
0.00023284625
-3.2122882e-05
0.00024075603
-3.1511258e-05
0.00024850727
-3.0879785e-05
0.00025609513
-3.0228975e-05
0.00026351488
-2.9559349e-05
0.00027076194
-2.8871443e-05
0.00027783184
-2.8165804e-05
0.00028472029
-2.7442992e-05
0.00029142311
-2.6703576e-05
0.00029793628
-2.5948137e-05
0.00030425593
-2.5177263e-05
0.00031037834
-2.4391553e-05
0.00031629992
-2.3591614e-05
0.00032201727
-2.2778058e-05
0.00032752712
-2.1951507e-05
0.00033282638
-2.1112587e-05
0.00033791208
-2.0261929e-05
0.00034278145
-1.9400172e-05
0.00034743187
-1.8527955e-05
0.00035186086
-1.7645922e-05
0.00035606613
-1.6754721e-05
0.00036004554
-1.5854999e-05
0.00036379712
-1.4947408e-05
0.00036731906
-1.4032598e-05
0.0003706097
-1.311122e-05
0.00037366756
-1.2183925e-05
0.00037649132
-1.1251363e-05
0.00037907983
-1.031418e-05
0.00038143208
-9.3730222e-06
0.00038354725
-8.4285325e-06
0.00038542464
-7.4813494e-06
0.00038706376
-6.5321082e-06
0.00038846424
-5.5814392e-06
0.00038962589
-4.6299678e-06
0.00039054865
-3.6783139e-06
0.00039123264
-2.7270913e-06
0.00039167812
-1.7769074e-06
0.0003918855
-8.2836247e-07
0.00039185534
1.1795053e-07
0.00039158835
1.0614469e-06
0.00039108539
2.0015501e-06
0.00039034745
2.9376912e-06
0.00038937566
3.8693105e-06
0.00038817131
4.7958579e-06
0.0003867358
5.7167928e-06
0.00038507067
6.6315847e-06
0.0003831776
7.5397127e-06
0.00038105838
8.4406669e-06
0.00037871496
9.3339476e-06
0.00037614937
1.0219066e-05
0.00037336379
1.1095544e-05
0.00037036051
1.1962916e-05
0.00036714192
1.2820726e-05
0.00036371054
1.366853e-05
0.00036006899
1.4505897e-05
0.00035621999
1.5332405e-05
0.00035216638
1.6147645e-05
0.00034791109
1.6951222e-05
0.00034345713
1.7742748e-05
0.00033880764
1.8521851e-05
0.00033396581
1.9288169e-05
0.00032893495
2.0041352e-05
0.00032371844
2.0781062e-05
0.00031831974
2.1506971e-05
0.00031274241
2.2218765e-05
0.00030699005
2.291614e-05
0.00030106637
2.3598803e-05
0.00029497512
2.4266474e-05
0.00028872013
2.4918882e-05
0.00028230532
2.5555769e-05
0.00027573462
2.6176886e-05
0.00026901207
2.6781994e-05
0.00026214173
2.7370867e-05
0.00025512774
2.7943288e-05
0.00024797427
2.8499049e-05
0.00024068557
2.9037952e-05
0.0002332659
2.955981e-05
0.0002257196
3.0064445e-05
0.00021805102
3.0551685e-05
0.00021026458
3.1021372e-05
0.00020236471
3.1473354e-05
0.0001943559
3.1907485e-05
0.00018624266
3.2323632e-05
0.00017802953
3.2721666e-05
0.0001697211
3.3101468e-05
0.00016132196
3.3462925e-05
0.00015283675
3.3805933e-05
0.00014427012
3.4130393e-05
0.00013562675
3.4436214e-05
0.00012691133
3.4723311e-05
0.00011812859
3.4991605e-05
0.00010928326
3.5241025e-05
0.0001003801
3.5471505e-05
9.1423874e-05
3.5682983e-05
8.2419361e-05
3.5875405e-05
7.3371357e-05
3.6048723e-05
6.4284667e-05
3.6202891e-05
5.5164107e-05
3.6337871e-05
4.60145e-05
3.6453631e-05
3.6840676e-05
3.655014e-05
2.7647471e-05
3.6627376e-05
1.8439727e-05
3.6685319e-05
9.2222874e-06
3.6723955e-05
-1.4677185e-15
3.6743276e-05
-9.2222874e-06
3.6743276e-05
-1.8439727e-05
3.6723955e-05
-2.7647471e-05
3.6685319e-05
-3.6840676e-05
3.6627376e-05
-4.60145e-05
3.655014e-05
-5.5164107e-05
3.6453631e-05
-6.4284667e-05
3.6337871e-05
-7.3371357e-05
3.6202891e-05
-8.2419361e-05
3.6048723e-05
-9.1423874e-05
3.5875405e-05
-0.0001003801
3.5682983e-05
-0.00010928326
3.5471505e-05
-0.00011812859
3.5241025e-05
-0.00012691133
3.4991605e-05
-0.00013562675
3.4723311e-05
-0.00014427012
3.4436214e-05
-0.00015283675
3.4130393e-05
-0.00016132196
3.3805933e-05
-0.0001697211
3.3462925e-05
-0.00017802953
3.3101468e-05
-0.00018624266
3.2721666e-05
-0.0001943559
3.2323632e-05
-0.00020236471
3.1907485e-05
-0.00021026458
3.1473354e-05
-0.00021805102
3.1021372e-05
-0.0002257196
3.0551685e-05
-0.0002332659
3.0064445e-05
-0.00024068557
2.955981e-05
-0.00024797427
2.9037952e-05
-0.00025512774
2.8499049e-05
-0.00026214173
2.7943288e-05
-0.00026901207
2.7370867e-05
-0.00027573462
2.6781994e-05
-0.00028230532
2.6176886e-05
-0.00028872013
2.5555769e-05
-0.00029497512
2.4918882e-05
-0.00030106637
2.4266474e-05
-0.00030699005
2.3598803e-05
-0.00031274241
2.291614e-05
-0.00031831974
2.2218765e-05
-0.00032371844
2.1506971e-05
-0.00032893495
2.0781062e-05
-0.00033396581
2.0041352e-05
-0.00033880764
1.9288169e-05
-0.00034345713
1.8521851e-05
-0.00034791109
1.7742748e-05
-0.00035216638
1.6951222e-05
-0.00035621999
1.6147645e-05
-0.00036006899
1.5332405e-05
-0.00036371054
1.4505897e-05
-0.00036714192
1.366853e-05
-0.00037036051
1.2820726e-05
-0.00037336379
1.1962916e-05
-0.00037614937
1.1095544e-05
-0.00037871496
1.0219066e-05
-0.00038105838
9.3339476e-06
-0.0003831776
8.4406669e-06
-0.00038507067
7.5397127e-06
-0.0003867358
6.6315847e-06
-0.00038817131
5.7167928e-06
-0.00038937566
4.7958579e-06
-0.00039034745
3.8693105e-06
-0.00039108539
2.9376912e-06
-0.00039158835
2.0015501e-06
-0.00039185534
1.0614469e-06
-0.0003918855
1.1795053e-07
-0.00039167812
-8.2836247e-07
-0.00039123264
-1.7769074e-06
-0.00039054865
-2.7270913e-06
-0.00038962589
-3.6783139e-06
-0.00038846424
-4.6299678e-06
-0.00038706376
-5.5814392e-06
-0.00038542464
-6.5321082e-06
-0.00038354725
-7.4813494e-06
-0.00038143208
-8.4285325e-06
-0.00037907983
-9.3730222e-06
-0.00037649132
-1.031418e-05
-0.00037366756
-1.1251363e-05
-0.0003706097
-1.2183925e-05
-0.00036731906
-1.311122e-05
-0.00036379712
-1.4032598e-05
-0.00036004554
-1.4947408e-05
-0.00035606613
-1.5854999e-05
-0.00035186086
-1.6754721e-05
-0.00034743187
-1.7645922e-05
-0.00034278145
-1.8527955e-05
-0.00033791208
-1.9400172e-05
-0.00033282638
-2.0261929e-05
-0.00032752712
-2.1112587e-05
-0.00032201727
-2.1951507e-05
-0.00031629992
-2.2778058e-05
-0.00031037834
-2.3591614e-05
-0.00030425593
-2.4391553e-05
-0.00029793628
-2.5177263e-05
-0.00029142311
-2.5948137e-05
-0.00028472029
-2.6703576e-05
-0.00027783184
-2.7442992e-05
-0.00027076194
-2.8165804e-05
-0.00026351488
-2.8871443e-05
-0.00025609513
-2.9559349e-05
-0.00024850727
-3.0228975e-05
-0.00024075603
-3.0879785e-05
-0.00023284625
-3.1511258e-05
-0.00022478293
-3.2122882e-05
-0.00021657116
-3.2714164e-05
-0.00020821618
-3.3284621e-05
-0.00019972333
-3.383379e-05
-0.00019109807
-3.4361219e-05
-0.00018234596
-3.4866476e-05
-0.00017347267
-3.5349143e-05
-0.00016448398
-3.5808822e-05
-0.00015538575
-3.6245131e-05
-0.00014618395
-3.6657707e-05
-0.0001368846
-3.7046206e-05
-0.00012749385
-3.7410303e-05
-0.00011801789
-3.7749694e-05