/*--------------------------------*- C++ -*----------------------------------*\
| =========                 |                                                 |
| \\      /  F ield         | OpenFOAM: The Open Source CFD Toolbox           |
|  \\    /   O peration     | Version:  2106                                  |
|   \\  /    A nd           | Website:  www.openfoam.com                      |
|    \\/     M anipulation  |                                                 |
\*---------------------------------------------------------------------------*/
FoamFile
{
    version     2.0;
    format      ascii;
    arch        "LSB;label=32;scalar=64";
    class       volVectorField;
    location    "0.019";
    object      U;
}
// * * * * * * * * * * * * * * * * * * * * * * * * * * * * * * * * * * * * * //

dimensions      [0 1 -1 0 0 0 0];

internalField   nonuniform List<vector> 
65536
(
(0.001270312 -0.0012698271 0)
(0.003810083 -0.0012689744 0)
(0.0063472957 -0.0012672698 0)
(0.0088802468 -0.0012647148 0)
(0.011407237 -0.0012613114 0)
(0.013926571 -0.0012570626 0)
(0.016436563 -0.001251972 0)
(0.01893553 -0.0012460439 0)
(0.021421804 -0.0012392834 0)
(0.023893723 -0.0012316961 0)
(0.02634964 -0.0012232885 0)
(0.028787922 -0.0012140676 0)
(0.031206947 -0.0012040413 0)
(0.033605114 -0.001193218 0)
(0.035980837 -0.0011816067 0)
(0.038332549 -0.0011692172 0)
(0.040658702 -0.0011560599 0)
(0.042957773 -0.0011421457 0)
(0.045228257 -0.0011274861 0)
(0.047468676 -0.0011120934 0)
(0.049677576 -0.0010959803 0)
(0.051853528 -0.00107916 0)
(0.053995132 -0.0010616464 0)
(0.056101014 -0.0010434538 0)
(0.058169831 -0.0010245971 0)
(0.06020027 -0.0010050915 0)
(0.062191047 -0.0009849529 0)
(0.064140913 -0.00096419752 0)
(0.066048651 -0.00094284201 0)
(0.067913076 -0.00092090345 0)
(0.06973304 -0.00089839929 0)
(0.071507428 -0.00087534736 0)
(0.073235164 -0.00085176582 0)
(0.074915206 -0.00082767317 0)
(0.07654655 -0.00080308819 0)
(0.07812823 -0.00077802995 0)
(0.079659319 -0.0007525178 0)
(0.081138928 -0.0007265713 0)
(0.082566208 -0.00070021023 0)
(0.08394035 -0.00067345458 0)
(0.085260584 -0.00064632448 0)
(0.086526181 -0.00061884025 0)
(0.087736454 -0.00059102231 0)
(0.088890756 -0.00056289119 0)
(0.08998848 -0.00053446753 0)
(0.091029062 -0.00050577201 0)
(0.09201198 -0.00047682537 0)
(0.09293675 -0.00044764835 0)
(0.093802934 -0.00041826173 0)
(0.094610133 -0.00038868624 0)
(0.095357989 -0.00035894261 0)
(0.096046188 -0.00032905147 0)
(0.096674454 -0.00029903342 0)
(0.097242554 -0.00026890893 0)
(0.097750297 -0.0002386984 0)
(0.098197529 -0.00020842206 0)
(0.098584141 -0.00017810003 0)
(0.098910059 -0.00014775225 0)
(0.099175253 -0.00011739848 0)
(0.099379731 -8.7058303e-05 0)
(0.099523539 -5.6751076e-05 0)
(0.099606762 -2.6495927e-05 0)
(0.099629523 3.6886106e-06 0)
(0.099591987 3.3781428e-05 0)
(0.099494346 6.3768472e-05 0)
(0.099336837 9.3628863e-05 0)
(0.09911973 0.00012334493 0)
(0.098843332 0.00015289936 0)
(0.098507983 0.00018227495 0)
(0.098114058 0.00021145477 0)
(0.097661966 0.00024042221 0)
(0.097152147 0.00026916099 0)
(0.096585076 0.00029765518 0)
(0.095961257 0.00032588919 0)
(0.095281226 0.00035384777 0)
(0.09454555 0.00038151604 0)
(0.093754823 0.00040887947 0)
(0.092909671 0.00043592391 0)
(0.092010744 0.00046263557 0)
(0.091058723 0.00048900102 0)
(0.090054314 0.00051500722 0)
(0.088998247 0.00054064149 0)
(0.087891279 0.00056589155 0)
(0.086734192 0.00059074547 0)
(0.085527789 0.0006151917 0)
(0.084272897 0.00063921907 0)
(0.082970365 0.00066281679 0)
(0.081621063 0.00068597443 0)
(0.080225882 0.00070868192 0)
(0.078785732 0.00073092958 0)
(0.077301543 0.00075270806 0)
(0.075774262 0.0007740084 0)
(0.074204854 0.00079482196 0)
(0.072594303 0.00081514049 0)
(0.070943605 0.00083495603 0)
(0.069253776 0.000854261 0)
(0.067525843 0.00087304814 0)
(0.06576085 0.0008913105 0)
(0.063959854 0.00090904147 0)
(0.062123924 0.00092623473 0)
(0.060254141 0.00094288429 0)
(0.0583516 0.00095898443 0)
(0.056417405 0.00097452974 0)
(0.05445267 0.00098951508 0)
(0.052458522 0.0010039356 0)
(0.050436094 0.0010177867 0)
(0.04838653 0.0010310641 0)
(0.046310983 0.0010437637 0)
(0.044210612 0.0010558816 0)
(0.042086583 0.0010674142 0)
(0.039940072 0.0010783583 0)
(0.03777226 0.0010887106 0)
(0.035584332 0.0010984683 0)
(0.033377481 0.0011076286 0)
(0.031152905 0.001116189 0)
(0.028911806 0.0011241472 0)
(0.026655391 0.0011315011 0)
(0.024384871 0.0011382487 0)
(0.022101461 0.0011443884 0)
(0.019806378 0.0011499185 0)
(0.017500843 0.0011548376 0)
(0.01518608 0.0011591445 0)
(0.012863314 0.001162838 0)
(0.010533774 0.0011659174 0)
(0.0081986881 0.0011683818 0)
(0.0058592883 0.0011702306 0)
(0.0035168062 0.0011714634 0)
(0.0011724743 0.0011720799 0)
(-0.0011724743 0.0011720799 0)
(-0.0035168062 0.0011714634 0)
(-0.0058592883 0.0011702306 0)
(-0.0081986881 0.0011683818 0)
(-0.010533774 0.0011659174 0)
(-0.012863314 0.001162838 0)
(-0.01518608 0.0011591445 0)
(-0.017500843 0.0011548376 0)
(-0.019806378 0.0011499185 0)
(-0.022101461 0.0011443884 0)
(-0.024384871 0.0011382487 0)
(-0.026655391 0.0011315011 0)
(-0.028911806 0.0011241472 0)
(-0.031152905 0.001116189 0)
(-0.033377481 0.0011076286 0)
(-0.035584332 0.0010984683 0)
(-0.03777226 0.0010887106 0)
(-0.039940072 0.0010783583 0)
(-0.042086583 0.0010674142 0)
(-0.044210612 0.0010558816 0)
(-0.046310983 0.0010437637 0)
(-0.04838653 0.0010310641 0)
(-0.050436094 0.0010177867 0)
(-0.052458522 0.0010039356 0)
(-0.05445267 0.00098951508 0)
(-0.056417405 0.00097452974 0)
(-0.0583516 0.00095898443 0)
(-0.060254141 0.00094288429 0)
(-0.062123924 0.00092623473 0)
(-0.063959854 0.00090904147 0)
(-0.06576085 0.0008913105 0)
(-0.067525843 0.00087304814 0)
(-0.069253776 0.000854261 0)
(-0.070943605 0.00083495603 0)
(-0.072594303 0.00081514049 0)
(-0.074204854 0.00079482196 0)
(-0.075774262 0.0007740084 0)
(-0.077301543 0.00075270806 0)
(-0.078785732 0.00073092958 0)
(-0.080225882 0.00070868192 0)
(-0.081621063 0.00068597443 0)
(-0.082970365 0.00066281679 0)
(-0.084272897 0.00063921907 0)
(-0.085527789 0.0006151917 0)
(-0.086734192 0.00059074547 0)
(-0.087891279 0.00056589155 0)
(-0.088998247 0.00054064149 0)
(-0.090054314 0.00051500722 0)
(-0.091058723 0.00048900102 0)
(-0.092010744 0.00046263557 0)
(-0.092909671 0.00043592391 0)
(-0.093754823 0.00040887947 0)
(-0.09454555 0.00038151604 0)
(-0.095281226 0.00035384777 0)
(-0.095961257 0.00032588919 0)
(-0.096585076 0.00029765518 0)
(-0.097152147 0.00026916099 0)
(-0.097661966 0.00024042221 0)
(-0.098114058 0.00021145477 0)
(-0.098507983 0.00018227495 0)
(-0.098843332 0.00015289936 0)
(-0.09911973 0.00012334493 0)
(-0.099336837 9.3628863e-05 0)
(-0.099494346 6.3768472e-05 0)
(-0.099591987 3.3781429e-05 0)
(-0.099629523 3.6886108e-06 0)
(-0.099606762 -2.6495927e-05 0)
(-0.099523539 -5.6751075e-05 0)
(-0.099379731 -8.7058302e-05 0)
(-0.099175253 -0.00011739848 0)
(-0.098910059 -0.00014775225 0)
(-0.098584141 -0.00017810003 0)
(-0.098197529 -0.00020842206 0)
(-0.097750297 -0.0002386984 0)
(-0.097242554 -0.00026890893 0)
(-0.096674454 -0.00029903342 0)
(-0.096046188 -0.00032905147 0)
(-0.095357989 -0.00035894261 0)
(-0.094610133 -0.00038868624 0)
(-0.093802934 -0.00041826173 0)
(-0.09293675 -0.00044764835 0)
(-0.09201198 -0.00047682537 0)
(-0.091029062 -0.00050577201 0)
(-0.08998848 -0.00053446753 0)
(-0.088890756 -0.00056289119 0)
(-0.087736454 -0.00059102231 0)
(-0.086526181 -0.00061884025 0)
(-0.085260584 -0.00064632448 0)
(-0.08394035 -0.00067345458 0)
(-0.082566208 -0.00070021023 0)
(-0.081138928 -0.0007265713 0)
(-0.079659319 -0.0007525178 0)
(-0.07812823 -0.00077802995 0)
(-0.07654655 -0.00080308819 0)
(-0.074915206 -0.00082767317 0)
(-0.073235164 -0.00085176582 0)
(-0.071507428 -0.00087534736 0)
(-0.06973304 -0.00089839929 0)
(-0.067913076 -0.00092090345 0)
(-0.066048651 -0.00094284201 0)
(-0.064140913 -0.00096419752 0)
(-0.062191047 -0.0009849529 0)
(-0.06020027 -0.0010050915 0)
(-0.058169831 -0.0010245971 0)
(-0.056101014 -0.0010434538 0)
(-0.053995132 -0.0010616464 0)
(-0.051853528 -0.00107916 0)
(-0.049677576 -0.0010959803 0)
(-0.047468676 -0.0011120934 0)
(-0.045228257 -0.0011274861 0)
(-0.042957773 -0.0011421457 0)
(-0.040658702 -0.0011560599 0)
(-0.038332549 -0.0011692172 0)
(-0.035980837 -0.0011816067 0)
(-0.033605114 -0.001193218 0)
(-0.031206947 -0.0012040413 0)
(-0.028787922 -0.0012140676 0)
(-0.02634964 -0.0012232885 0)
(-0.023893723 -0.0012316961 0)
(-0.021421804 -0.0012392834 0)
(-0.01893553 -0.0012460439 0)
(-0.016436563 -0.001251972 0)
(-0.013926571 -0.0012570626 0)
(-0.011407237 -0.0012613114 0)
(-0.0088802468 -0.0012647148 0)
(-0.0063472957 -0.0012672698 0)
(-0.003810083 -0.0012689744 0)
(-0.001270312 -0.0012698271 0)
(0.0012720423 -0.0038108002 0)
(0.0038152726 -0.0038082413 0)
(0.0063559409 -0.0038031256 0)
(0.0088923414 -0.0037954576 0)
(0.011422772 -0.0037852436 0)
(0.013945536 -0.0037724925 0)
(0.016458943 -0.003757215 0)
(0.018961311 -0.0037394242 0)
(0.021450966 -0.003719135 0)
(0.023926246 -0.0036963646 0)
(0.026385501 -0.0036711324 0)
(0.028827094 -0.0036434596 0)
(0.031249403 -0.0036133695 0)
(0.033650824 -0.0035808874 0)
(0.036029768 -0.0035460407 0)
(0.038384666 -0.0035088585 0)
(0.040713969 -0.0034693719 0)
(0.04301615 -0.0034276137 0)
(0.045289703 -0.0033836189 0)
(0.047533148 -0.0033374237 0)
(0.049745027 -0.0032890665 0)
(0.051923912 -0.0032385871 0)
(0.054068399 -0.003186027 0)
(0.056177113 -0.0031314291 0)
(0.058248709 -0.0030748382 0)
(0.060281871 -0.0030163 0)
(0.062275315 -0.0029558621 0)
(0.06422779 -0.0028935732 0)
(0.066138075 -0.0028294833 0)
(0.068004987 -0.0027636437 0)
(0.069827374 -0.0026961066 0)
(0.07160412 -0.0026269257 0)
(0.073334148 -0.0025561555 0)
(0.075016414 -0.0024838513 0)
(0.076649913 -0.0024100697 0)
(0.078233678 -0.0023348679 0)
(0.07976678 -0.0022583039 0)
(0.08124833 -0.0021804364 0)
(0.082677478 -0.0021013249 0)
(0.084053412 -0.0020210291 0)
(0.085375363 -0.0019396098 0)
(0.086642602 -0.0018571277 0)
(0.087854438 -0.0017736441 0)
(0.089010225 -0.0016892208 0)
(0.090109356 -0.0016039196 0)
(0.091151265 -0.0015178026 0)
(0.092135429 -0.0014309321 0)
(0.093061367 -0.0013433702 0)
(0.093928636 -0.0012551794 0)
(0.094736839 -0.0011664218 0)
(0.095485619 -0.0010771597 0)
(0.096174658 -0.00098745504 0)
(0.096803683 -0.00089736955 0)
(0.097372461 -0.00080696473 0)
(0.097880797 -0.00071630176 0)
(0.098328542 -0.00062544139 0)
(0.098715583 -0.00053444397 0)
(0.099041849 -0.00044336936 0)
(0.099307309 -0.00035227688 0)
(0.099511971 -0.00026122528 0)
(0.099655881 -0.0001702727 0)
(0.099739126 -7.9476692e-05 0)
(0.099761828 1.1105797e-05 0)
(0.09972415 0.00010141922 0)
(0.099626288 0.00019140896 0)
(0.09946848 0.00028101957 0)
(0.099250995 0.00037019756 0)
(0.098974141 0.00045889047 0)
(0.098638257 0.00054704656 0)
(0.098243721 0.00063461506 0)
(0.097790941 0.0007215461 0)
(0.09728036 0.00080779087 0)
(0.096712452 0.00089330152 0)
(0.096087722 0.00097803127 0)
(0.095406707 0.0010619344 0)
(0.094669976 0.0011449662 0)
(0.093878123 0.0012270831 0)
(0.093031775 0.0013082426 0)
(0.092131584 0.0013884033 0)
(0.09117823 0.0014675251 0)
(0.090172422 0.0015455686 0)
(0.089114891 0.0016224959 0)
(0.088006395 0.0016982701 0)
(0.086847716 0.0017728554 0)
(0.085639659 0.0018462172 0)
(0.084383053 0.001918322 0)
(0.083078748 0.0019891373 0)
(0.081727615 0.0020586318 0)
(0.080330546 0.0021267754 0)
(0.078888452 0.002193539 0)
(0.077402265 0.0022588946 0)
(0.075872933 0.0023228152 0)
(0.074301424 0.002385275 0)
(0.07268872 0.0024462492 0)
(0.071035821 0.0025057139 0)
(0.069343744 0.0025636463 0)
(0.067613517 0.0026200247 0)
(0.065846185 0.0026748282 0)
(0.064042807 0.002728037 0)
(0.062204453 0.0027796322 0)
(0.060332207 0.0028295957 0)
(0.058427163 0.0028779105 0)
(0.056490427 0.0029245601 0)
(0.054523116 0.0029695294 0)
(0.052526357 0.0030128037 0)
(0.050501285 0.0030543692 0)
(0.048449046 0.0030942129 0)
(0.046370792 0.0031323226 0)
(0.044267686 0.0031686869 0)
(0.042140895 0.0032032949 0)
(0.039991596 0.0032361366 0)
(0.03782097 0.0032672025 0)
(0.035630206 0.0032964838 0)
(0.033420497 0.0033239726 0)
(0.031193042 0.0033496611 0)
(0.028949046 0.0033735425 0)
(0.026689716 0.0033956105 0)
(0.024416265 0.0034158592 0)
(0.022129909 0.0034342834 0)
(0.019831867 0.0034508783 0)
(0.017523361 0.0034656398 0)
(0.015205617 0.0034785641 0)
(0.012879861 0.003489648 0)
(0.010547322 0.0034988887 0)
(0.0082092326 0.003506284 0)
(0.0058668236 0.003511832 0)
(0.0035213287 0.0035155314 0)
(0.001173982 0.0035173814 0)
(-0.001173982 0.0035173814 0)
(-0.0035213287 0.0035155314 0)
(-0.0058668236 0.003511832 0)
(-0.0082092326 0.003506284 0)
(-0.010547322 0.0034988887 0)
(-0.012879861 0.003489648 0)
(-0.015205617 0.0034785641 0)
(-0.017523361 0.0034656398 0)
(-0.019831867 0.0034508783 0)
(-0.022129909 0.0034342834 0)
(-0.024416265 0.0034158592 0)
(-0.026689716 0.0033956105 0)
(-0.028949046 0.0033735425 0)
(-0.031193042 0.0033496611 0)
(-0.033420497 0.0033239726 0)
(-0.035630206 0.0032964838 0)
(-0.03782097 0.0032672025 0)
(-0.039991596 0.0032361366 0)
(-0.042140895 0.0032032949 0)
(-0.044267686 0.0031686869 0)
(-0.046370792 0.0031323226 0)
(-0.048449046 0.0030942129 0)
(-0.050501285 0.0030543692 0)
(-0.052526357 0.0030128037 0)
(-0.054523116 0.0029695294 0)
(-0.056490427 0.0029245601 0)
(-0.058427163 0.0028779105 0)
(-0.060332207 0.0028295957 0)
(-0.062204453 0.0027796322 0)
(-0.064042807 0.002728037 0)
(-0.065846185 0.0026748282 0)
(-0.067613517 0.0026200247 0)
(-0.069343744 0.0025636463 0)
(-0.071035821 0.0025057139 0)
(-0.07268872 0.0024462492 0)
(-0.074301424 0.002385275 0)
(-0.075872933 0.0023228152 0)
(-0.077402265 0.0022588946 0)
(-0.078888452 0.002193539 0)
(-0.080330546 0.0021267754 0)
(-0.081727615 0.0020586318 0)
(-0.083078748 0.0019891373 0)
(-0.084383053 0.001918322 0)
(-0.085639659 0.0018462172 0)
(-0.086847716 0.0017728554 0)
(-0.088006395 0.0016982701 0)
(-0.089114891 0.0016224959 0)
(-0.090172422 0.0015455686 0)
(-0.09117823 0.0014675251 0)
(-0.092131584 0.0013884033 0)
(-0.093031775 0.0013082426 0)
(-0.093878123 0.0012270831 0)
(-0.094669976 0.0011449662 0)
(-0.095406707 0.0010619344 0)
(-0.096087722 0.00097803127 0)
(-0.096712452 0.00089330152 0)
(-0.09728036 0.00080779087 0)
(-0.097790941 0.0007215461 0)
(-0.098243721 0.00063461505 0)
(-0.098638257 0.00054704656 0)
(-0.098974141 0.00045889047 0)
(-0.099250995 0.00037019756 0)
(-0.09946848 0.00028101957 0)
(-0.099626288 0.00019140896 0)
(-0.09972415 0.00010141922 0)
(-0.099761828 1.1105797e-05 0)
(-0.099739126 -7.9476692e-05 0)
(-0.099655881 -0.0001702727 0)
(-0.099511971 -0.00026122529 0)
(-0.099307309 -0.00035227688 0)
(-0.099041849 -0.00044336936 0)
(-0.098715583 -0.00053444397 0)
(-0.098328542 -0.00062544139 0)
(-0.097880797 -0.00071630176 0)
(-0.097372461 -0.00080696473 0)
(-0.096803683 -0.00089736955 0)
(-0.096174658 -0.00098745504 0)
(-0.095485619 -0.0010771597 0)
(-0.094736839 -0.0011664218 0)
(-0.093928636 -0.0012551794 0)
(-0.093061367 -0.0013433702 0)
(-0.092135429 -0.0014309321 0)
(-0.091151265 -0.0015178026 0)
(-0.090109356 -0.0016039196 0)
(-0.089010225 -0.0016892208 0)
(-0.087854438 -0.0017736441 0)
(-0.086642602 -0.0018571277 0)
(-0.085375363 -0.0019396098 0)
(-0.084053412 -0.0020210291 0)
(-0.082677478 -0.0021013249 0)
(-0.08124833 -0.0021804364 0)
(-0.07976678 -0.0022583039 0)
(-0.078233678 -0.0023348679 0)
(-0.076649913 -0.0024100697 0)
(-0.075016414 -0.0024838513 0)
(-0.073334148 -0.0025561555 0)
(-0.07160412 -0.0026269257 0)
(-0.069827374 -0.0026961066 0)
(-0.068004987 -0.0027636437 0)
(-0.066138075 -0.0028294833 0)
(-0.06422779 -0.0028935732 0)
(-0.062275315 -0.0029558621 0)
(-0.060281871 -0.0030163 0)
(-0.058248709 -0.0030748382 0)
(-0.056177113 -0.0031314291 0)
(-0.054068399 -0.003186027 0)
(-0.051923912 -0.0032385871 0)
(-0.049745027 -0.0032890665 0)
(-0.047533148 -0.0033374237 0)
(-0.045289703 -0.0033836189 0)
(-0.04301615 -0.0034276137 0)
(-0.040713969 -0.0034693719 0)
(-0.038384666 -0.0035088585 0)
(-0.036029768 -0.0035460407 0)
(-0.033650824 -0.0035808874 0)
(-0.031249403 -0.0036133695 0)
(-0.028827094 -0.0036434596 0)
(-0.026385501 -0.0036711324 0)
(-0.023926246 -0.0036963646 0)
(-0.021450966 -0.003719135 0)
(-0.018961311 -0.0037394242 0)
(-0.016458943 -0.003757215 0)
(-0.013945536 -0.0037724925 0)
(-0.011422772 -0.0037852436 0)
(-0.0088923414 -0.0037954576 0)
(-0.0063559409 -0.0038031256 0)
(-0.0038152726 -0.0038082413 0)
(-0.0012720423 -0.0038108002 0)
(0.0012750802 -0.0063568621 0)
(0.0038243841 -0.0063525933 0)
(0.0063711196 -0.0063440594 0)
(0.0089135768 -0.0063312675 0)
(0.011450049 -0.0063142287 0)
(0.013978836 -0.0062929573 0)
(0.016498243 -0.0062674714 0)
(0.019006583 -0.0062377927 0)
(0.021502178 -0.0062039463 0)
(0.023983363 -0.0061659608 0)
(0.026448483 -0.0061238685 0)
(0.028895897 -0.0060777048 0)
(0.03132398 -0.0060275086 0)
(0.033731123 -0.0059733223 0)
(0.036115732 -0.0059151912 0)
(0.038476237 -0.005853164 0)
(0.040811083 -0.0057872928 0)
(0.043118739 -0.0057176323 0)
(0.045397698 -0.0056442405 0)
(0.047646473 -0.0055671783 0)
(0.049863606 -0.0054865094 0)
(0.052047662 -0.0054023004 0)
(0.054197235 -0.0053146204 0)
(0.056310947 -0.0052235412 0)
(0.058387449 -0.0051291371 0)
(0.060425424 -0.0050314849 0)
(0.062423582 -0.0049306638 0)
(0.06438067 -0.0048267548 0)
(0.066295466 -0.0047198416 0)
(0.068166781 -0.0046100097 0)
(0.069993462 -0.0044973463 0)
(0.071774391 -0.0043819407 0)
(0.073508487 -0.004263884 0)
(0.075194704 -0.0041432687 0)
(0.076832035 -0.0040201889 0)
(0.078419511 -0.0038947401 0)
(0.079956201 -0.003767019 0)
(0.081441212 -0.0036371237 0)
(0.082873694 -0.0035051533 0)
(0.084252833 -0.0033712077 0)
(0.085577857 -0.0032353878 0)
(0.086848036 -0.0030977953 0)
(0.088062679 -0.0029585325 0)
(0.089221137 -0.0028177022 0)
(0.090322801 -0.0026754076 0)
(0.091367106 -0.0025317524 0)
(0.092353526 -0.0023868403 0)
(0.093281579 -0.0022407753 0)
(0.094150824 -0.0020936613 0)
(0.094960859 -0.0019456021 0)
(0.095711328 -0.0017967015 0)
(0.096401914 -0.0016470629 0)
(0.097032342 -0.0014967892 0)
(0.097602378 -0.0013459832 0)
(0.098111829 -0.0011947467 0)
(0.098560543 -0.0010431812 0)
(0.098948409 -0.00089138738 0)
(0.099275356 -0.00073946503 0)
(0.099541351 -0.00058751314 0)
(0.099746404 -0.00043562971 0)
(0.099890562 -0.00028391172 0)
(0.09997391 -0.00013245509 0)
(0.099996573 1.8645444e-05 0)
(0.099958712 0.0001692967 0)
(0.099860527 0.00031940696 0)
(0.099702254 0.00046888491 0)
(0.099484164 0.00061764116 0)
(0.099206565 0.00076558796 0)
(0.0988698 0.00091263903 0)
(0.098474244 0.0010587096 0)
(0.098020308 0.0012037166 0)
(0.097508437 0.0013475786 0)
(0.096939104 0.0014902157 0)
(0.096312818 0.0016315499 0)
(0.095630118 0.001771505 0)
(0.094891571 0.0019100063 0)
(0.094097775 0.0020469813 0)
(0.093249358 0.0021823591 0)
(0.092346975 0.0023160706 0)
(0.091391307 0.0024480486 0)
(0.090383063 0.0025782279 0)
(0.089322978 0.0027065451 0)
(0.088211812 0.0028329385 0)
(0.087050349 0.0029573486 0)
(0.085839395 0.0030797176 0)
(0.084579782 0.0031999895 0)
(0.083272361 0.0033181103 0)
(0.081918006 0.0034340279 0)
(0.080517611 0.0035476918 0)
(0.07907209 0.0036590536 0)
(0.077582377 0.0037680666 0)
(0.076049422 0.0038746859 0)
(0.074474194 0.0039788683 0)
(0.072857681 0.0040805724 0)
(0.071200882 0.0041797585 0)
(0.069504818 0.0042763887 0)
(0.067770519 0.0043704265 0)
(0.065999033 0.0044618374 0)
(0.064191421 0.0045505881 0)
(0.062348755 0.0046366471 0)
(0.060472122 0.0047199844 0)
(0.058562619 0.0048005714 0)
(0.056621355 0.0048783811 0)
(0.054649449 0.0049533877 0)
(0.052648029 0.0050255671 0)
(0.050618235 0.0050948961 0)
(0.048561215 0.0051613532 0)
(0.046478123 0.0052249181 0)
(0.044370124 0.0052855714 0)
(0.04223839 0.0053432954 0)
(0.040084098 0.0053980731 0)
(0.037908433 0.0054498889 0)
(0.035712587 0.0054987281 0)
(0.033497754 0.0055445773 0)
(0.031265138 0.0055874239 0)
(0.029015945 0.0056272563 0)
(0.026751385 0.0056640639 0)
(0.024472673 0.0056978371 0)
(0.022181029 0.0057285671 0)
(0.019877673 0.0057562461 0)
(0.017563831 0.005780867 0)
(0.015240731 0.0058024236 0)
(0.012909601 0.0058209105 0)
(0.010571675 0.0058363232 0)
(0.0082281862 0.0058486579 0)
(0.0058803685 0.0058579115 0)
(0.0035294583 0.0058640819 0)
(0.0011766923 0.0058671674 0)
(-0.0011766923 0.0058671674 0)
(-0.0035294583 0.0058640819 0)
(-0.0058803685 0.0058579115 0)
(-0.0082281862 0.0058486579 0)
(-0.010571675 0.0058363232 0)
(-0.012909601 0.0058209105 0)
(-0.015240731 0.0058024236 0)
(-0.017563831 0.005780867 0)
(-0.019877673 0.0057562461 0)
(-0.022181029 0.0057285671 0)
(-0.024472673 0.0056978371 0)
(-0.026751385 0.0056640639 0)
(-0.029015945 0.0056272563 0)
(-0.031265138 0.0055874239 0)
(-0.033497754 0.0055445773 0)
(-0.035712587 0.0054987281 0)
(-0.037908433 0.0054498889 0)
(-0.040084098 0.0053980731 0)
(-0.04223839 0.0053432954 0)
(-0.044370124 0.0052855714 0)
(-0.046478123 0.0052249181 0)
(-0.048561215 0.0051613532 0)
(-0.050618235 0.0050948961 0)
(-0.052648029 0.0050255671 0)
(-0.054649449 0.0049533877 0)
(-0.056621355 0.0048783811 0)
(-0.058562619 0.0048005714 0)
(-0.060472122 0.0047199844 0)
(-0.062348755 0.0046366471 0)
(-0.064191421 0.0045505881 0)
(-0.065999033 0.0044618374 0)
(-0.067770519 0.0043704265 0)
(-0.069504818 0.0042763887 0)
(-0.071200882 0.0041797585 0)
(-0.072857681 0.0040805724 0)
(-0.074474194 0.0039788683 0)
(-0.076049422 0.0038746859 0)
(-0.077582377 0.0037680666 0)
(-0.07907209 0.0036590536 0)
(-0.080517611 0.0035476918 0)
(-0.081918006 0.0034340279 0)
(-0.083272361 0.0033181103 0)
(-0.084579782 0.0031999895 0)
(-0.085839395 0.0030797176 0)
(-0.087050349 0.0029573486 0)
(-0.088211812 0.0028329385 0)
(-0.089322978 0.0027065451 0)
(-0.090383063 0.0025782279 0)
(-0.091391307 0.0024480486 0)
(-0.092346975 0.0023160706 0)
(-0.093249358 0.0021823591 0)
(-0.094097775 0.0020469813 0)
(-0.094891571 0.0019100063 0)
(-0.095630118 0.001771505 0)
(-0.096312818 0.0016315499 0)
(-0.096939104 0.0014902157 0)
(-0.097508437 0.0013475786 0)
(-0.098020308 0.0012037166 0)
(-0.098474244 0.0010587096 0)
(-0.0988698 0.00091263903 0)
(-0.099206565 0.00076558796 0)
(-0.099484164 0.00061764116 0)
(-0.099702254 0.00046888491 0)
(-0.099860527 0.00031940696 0)
(-0.099958712 0.0001692967 0)
(-0.099996573 1.8645444e-05 0)
(-0.09997391 -0.00013245509 0)
(-0.099890562 -0.00028391172 0)
(-0.099746404 -0.00043562971 0)
(-0.099541351 -0.00058751314 0)
(-0.099275356 -0.00073946503 0)
(-0.098948409 -0.00089138738 0)
(-0.098560543 -0.0010431812 0)
(-0.098111829 -0.0011947467 0)
(-0.097602378 -0.0013459832 0)
(-0.097032342 -0.0014967892 0)
(-0.096401914 -0.0016470629 0)
(-0.095711328 -0.0017967015 0)
(-0.094960859 -0.0019456021 0)
(-0.094150824 -0.0020936613 0)
(-0.093281579 -0.0022407753 0)
(-0.092353526 -0.0023868403 0)
(-0.091367106 -0.0025317524 0)
(-0.090322801 -0.0026754076 0)
(-0.089221137 -0.0028177022 0)
(-0.088062679 -0.0029585325 0)
(-0.086848036 -0.0030977953 0)
(-0.085577857 -0.0032353878 0)
(-0.084252833 -0.0033712077 0)
(-0.082873694 -0.0035051533 0)
(-0.081441212 -0.0036371237 0)
(-0.079956201 -0.003767019 0)
(-0.078419511 -0.0038947401 0)
(-0.076832035 -0.0040201889 0)
(-0.075194704 -0.0041432687 0)
(-0.073508487 -0.004263884 0)
(-0.071774391 -0.0043819407 0)
(-0.069993462 -0.0044973463 0)
(-0.068166781 -0.0046100097 0)
(-0.066295466 -0.0047198416 0)
(-0.06438067 -0.0048267548 0)
(-0.062423582 -0.0049306638 0)
(-0.060425424 -0.0050314849 0)
(-0.058387449 -0.0051291371 0)
(-0.056310947 -0.0052235412 0)
(-0.054197235 -0.0053146204 0)
(-0.052047662 -0.0054023004 0)
(-0.049863605 -0.0054865094 0)
(-0.047646473 -0.0055671783 0)
(-0.045397698 -0.0056442405 0)
(-0.043118739 -0.0057176323 0)
(-0.040811083 -0.0057872928 0)
(-0.038476237 -0.005853164 0)
(-0.036115732 -0.0059151912 0)
(-0.033731123 -0.0059733223 0)
(-0.03132398 -0.0060275086 0)
(-0.028895897 -0.0060777048 0)
(-0.026448483 -0.0061238685 0)
(-0.023983363 -0.0061659608 0)
(-0.021502178 -0.0062039463 0)
(-0.019006583 -0.0062377927 0)
(-0.016498243 -0.0062674714 0)
(-0.013978836 -0.0062929573 0)
(-0.011450049 -0.0063142287 0)
(-0.0089135768 -0.0063312675 0)
(-0.0063711196 -0.0063440594 0)
(-0.0038243841 -0.0063525933 0)
(-0.0012750802 -0.0063568621 0)
(0.0012794285 -0.0089103048 0)
(0.0038374261 -0.008904321 0)
(0.0063928462 -0.0088923585 0)
(0.008943973 -0.0088744275 0)
(0.011489094 -0.0088505432 0)
(0.014026503 -0.008820726 0)
(0.016554498 -0.0087850011 0)
(0.019071388 -0.0087433989 0)
(0.021575488 -0.0086959546 0)
(0.024065128 -0.0086427085 0)
(0.026538646 -0.0085837056 0)
(0.028994396 -0.0085189956 0)
(0.031430748 -0.0084486332 0)
(0.033846085 -0.0083726775 0)
(0.036238811 -0.0082911924 0)
(0.038607347 -0.0082042461 0)
(0.040950135 -0.0081119113 0)
(0.043265638 -0.008014265 0)
(0.045552343 -0.0079113885 0)
(0.047808759 -0.0078033671 0)
(0.050033422 -0.0076902902 0)
(0.052224892 -0.0075722509 0)
(0.05438176 -0.0074493464 0)
(0.056502641 -0.0073216771 0)
(0.058586183 -0.0071893475 0)
(0.060631062 -0.0070524649 0)
(0.062635987 -0.0069111404 0)
(0.064599698 -0.0067654878 0)
(0.06652097 -0.0066156242 0)
(0.06839861 -0.0064616694 0)
(0.070231461 -0.0063037459 0)
(0.072018401 -0.0061419789 0)
(0.073758345 -0.0059764958 0)
(0.075450244 -0.0058074264 0)
(0.077093088 -0.0056349027 0)
(0.078685904 -0.0054590585 0)
(0.080227757 -0.0052800295 0)
(0.081717754 -0.0050979531 0)
(0.083155039 -0.0049129681 0)
(0.084538798 -0.0047252147 0)
(0.085868255 -0.0045348344 0)
(0.087142678 -0.0043419697 0)
(0.088361373 -0.0041467639 0)
(0.089523689 -0.0039493612 0)
(0.090629017 -0.0037499064 0)
(0.091676788 -0.0035485446 0)
(0.092666475 -0.0033454213 0)
(0.093597595 -0.0031406822 0)
(0.094469705 -0.0029344731 0)
(0.095282403 -0.0027269396 0)
(0.09603533 -0.0025182268 0)
(0.096728169 -0.00230848 0)
(0.097360645 -0.0020978433 0)
(0.097932522 -0.0018864607 0)
(0.098443608 -0.0016744752 0)
(0.09889375 -0.0014620288 0)
(0.099282837 -0.0012492627 0)
(0.099610796 -0.0010363168 0)
(0.099877598 -0.00082332982 0)
(0.10008325 -0.00061043921 0)
(0.1002278 -0.00039778086 0)
(0.10031133 -0.00018548915 0)
(0.10033398 2.6303221e-05 0)
(0.10029589 0.00023746542 0)
(0.10019728 0.00044786852 0)
(0.10003838 0.00065738506 0)
(0.099819455 0.00086588978 0)
(0.099540824 0.0010732596 0)
(0.099202826 0.0012793735 0)
(0.098805841 0.0014841127 0)
(0.09835028 0.0016873607 0)
(0.097836589 0.0018890034 0)
(0.097265245 0.0020889288 0)
(0.096636756 0.0022870278 0)
(0.095951665 0.0024831932 0)
(0.09521054 0.0026773206 0)
(0.094413983 0.0028693083 0)
(0.093562623 0.0030590568 0)
(0.092657117 0.0032464695 0)
(0.091698149 0.0034314521 0)
(0.090686432 0.0036139132 0)
(0.089622701 0.0037937638 0)
(0.088507721 0.0039709178 0)
(0.087342277 0.0041452915 0)
(0.086127179 0.004316804 0)
(0.084863262 0.0044853768 0)
(0.08355138 0.0046509344 0)
(0.08219241 0.0048134034 0)
(0.080787249 0.0049727135 0)
(0.079336815 0.0051287966 0)
(0.077842043 0.0052815872 0)
(0.076303889 0.0054310225 0)
(0.074723325 0.005577042 0)
(0.073101339 0.0057195876 0)
(0.071438939 0.0058586039 0)
(0.069737144 0.0059940374 0)
(0.067996992 0.0061258374 0)
(0.066219532 0.0062539552 0)
(0.064405829 0.0063783443 0)
(0.06255696 0.0064989607 0)
(0.060674014 0.0066157621 0)
(0.058758092 0.0067287087 0)
(0.056810307 0.0068377624 0)
(0.054831782 0.0069428874 0)
(0.052823649 0.0070440496 0)
(0.050787051 0.0071412168 0)
(0.048723138 0.0072343588 0)
(0.046633072 0.0073234469 0)
(0.04451802 0.0074084543 0)
(0.042379156 0.007489356 0)
(0.040217663 0.0075661283 0)
(0.038034729 0.0076387493 0)
(0.035831549 0.0077071985 0)
(0.033609324 0.0077714569 0)
(0.031369258 0.0078315071 0)
(0.029112563 0.0078873328 0)
(0.026840452 0.0079389191 0)
(0.024554145 0.0079862527 0)
(0.022254864 0.0080293211 0)
(0.019943836 0.0080681134 0)
(0.017622288 0.0081026197 0)
(0.015291452 0.0081328315 0)
(0.012952562 0.008158741 0)
(0.010606854 0.008180342 0)
(0.0082555658 0.0081976291 0)
(0.0058999351 0.0082105981 0)
(0.0035412021 0.0082192459 0)
(0.0011806076 0.0082235703 0)
(-0.0011806076 0.0082235703 0)
(-0.0035412021 0.0082192459 0)
(-0.0058999351 0.0082105981 0)
(-0.0082555658 0.0081976291 0)
(-0.010606854 0.008180342 0)
(-0.012952562 0.008158741 0)
(-0.015291452 0.0081328315 0)
(-0.017622288 0.0081026197 0)
(-0.019943836 0.0080681134 0)
(-0.022254864 0.0080293211 0)
(-0.024554145 0.0079862527 0)
(-0.026840452 0.0079389191 0)
(-0.029112563 0.0078873328 0)
(-0.031369258 0.0078315071 0)
(-0.033609324 0.0077714569 0)
(-0.035831549 0.0077071985 0)
(-0.038034729 0.0076387493 0)
(-0.040217663 0.0075661283 0)
(-0.042379156 0.007489356 0)
(-0.04451802 0.0074084543 0)
(-0.046633072 0.0073234469 0)
(-0.048723138 0.0072343588 0)
(-0.050787051 0.0071412168 0)
(-0.052823649 0.0070440496 0)
(-0.054831782 0.0069428874 0)
(-0.056810307 0.0068377624 0)
(-0.058758092 0.0067287087 0)
(-0.060674014 0.0066157621 0)
(-0.06255696 0.0064989607 0)
(-0.064405829 0.0063783443 0)
(-0.066219532 0.0062539552 0)
(-0.067996992 0.0061258374 0)
(-0.069737144 0.0059940374 0)
(-0.071438939 0.0058586039 0)
(-0.073101339 0.0057195876 0)
(-0.074723325 0.005577042 0)
(-0.076303889 0.0054310225 0)
(-0.077842043 0.0052815872 0)
(-0.079336815 0.0051287966 0)
(-0.080787249 0.0049727135 0)
(-0.08219241 0.0048134034 0)
(-0.08355138 0.0046509344 0)
(-0.084863262 0.0044853768 0)
(-0.086127179 0.004316804 0)
(-0.087342277 0.0041452915 0)
(-0.088507721 0.0039709178 0)
(-0.089622701 0.0037937638 0)
(-0.090686432 0.0036139132 0)
(-0.091698149 0.0034314521 0)
(-0.092657117 0.0032464695 0)
(-0.093562623 0.0030590568 0)
(-0.094413983 0.0028693083 0)
(-0.09521054 0.0026773206 0)
(-0.095951665 0.0024831932 0)
(-0.096636756 0.0022870278 0)
(-0.097265245 0.0020889288 0)
(-0.097836589 0.0018890034 0)
(-0.09835028 0.0016873607 0)
(-0.098805841 0.0014841127 0)
(-0.099202826 0.0012793735 0)
(-0.099540824 0.0010732596 0)
(-0.099819455 0.00086588978 0)
(-0.10003838 0.00065738506 0)
(-0.10019728 0.00044786852 0)
(-0.10029589 0.00023746542 0)
(-0.10033398 2.630322e-05 0)
(-0.10031133 -0.00018548915 0)
(-0.1002278 -0.00039778086 0)
(-0.10008325 -0.00061043921 0)
(-0.099877598 -0.00082332982 0)
(-0.099610796 -0.0010363168 0)
(-0.099282837 -0.0012492627 0)