/*--------------------------------*- C++ -*----------------------------------*\
| =========                 |                                                 |
| \\      /  F ield         | OpenFOAM: The Open Source CFD Toolbox           |
|  \\    /   O peration     | Version:  2306                                  |
|   \\  /    A nd           | Website:  www.openfoam.com                      |
|    \\/     M anipulation  |                                                 |
\*---------------------------------------------------------------------------*/
FoamFile
{
    version     2.0;
    format      ascii;
    arch        "LSB;label=32;scalar=64";
    class       surfaceScalarField;
    location    "0.24";
    object      phi;
}
// * * * * * * * * * * * * * * * * * * * * * * * * * * * * * * * * * * * * * //

dimensions      [0 3 -1 0 0 0 0];

oriented        oriented;

internalField   nonuniform List<scalar> 
12640
(
1.2320077e-07
3.4731186e-08
4.9108502e-07
1.205865e-07
1.0896322e-06
3.100856e-07
1.8938935e-06
6.7956925e-07
2.8658832e-06
1.3123277e-06
3.9571928e-06
2.2780337e-06
5.1105044e-06
3.6334544e-06
6.2614215e-06
5.4232056e-06
7.3404402e-06
7.6782892e-06
8.2749609e-06
1.0415177e-05
8.991442e-06
1.3634985e-05
9.417539e-06
1.7323095e-05
9.4843566e-06
2.1449156e-05
9.1281719e-06
2.5968133e-05
8.2925185e-06
3.0820361e-05
6.9295662e-06
3.593378e-05
5.0023315e-06
4.1224032e-05
2.4844257e-06
4.6598058e-05
-6.3701949e-07
5.1953382e-05
-4.3664442e-06
5.7191999e-05
-8.6894854e-06
6.218731e-05
-1.3578503e-05
6.682693e-05
-1.8990275e-05
7.0993525e-05
-2.4865347e-05
7.4570617e-05
-3.1127521e-05
7.7445466e-05
-3.7683778e-05
7.9512323e-05
-4.4424658e-05
8.0676107e-05
-5.1225444e-05
8.0856924e-05
-5.7948396e-05
7.9995003e-05
-6.4446222e-05
7.8055797e-05
-7.0566871e-05
7.5034803e-05
-7.6159587e-05
7.0961511e-05
-8.1081917e-05
6.590176e-05
-8.5207148e-05
5.9957883e-05
-8.8431476e-05
5.3266256e-05
-9.0680297e-05
4.5992586e-05
-9.1912935e-05
3.8324568e-05
-9.2125158e-05
3.0462426e-05
-9.1349181e-05
2.2608363e-05
-8.9651302e-05
1.495596e-05
-8.7127038e-05
7.6805848e-06
-8.3893735e-05
9.2967481e-07
-8.0086315e-05
-5.1768513e-06
-7.5846306e-05
-1.0556986e-05
-7.1316089e-05
-1.5164066e-05
-6.6631768e-05
-1.8985032e-05
-6.191775e-05
-2.2037112e-05
-5.7282643e-05
-2.4363101e-05
-5.2816528e-05
-2.6025841e-05
-4.8589597e-05
-2.7102372e-05
-4.4651859e-05
-2.7678386e-05
-4.1034096e-05
-2.7842806e-05
-3.7749724e-05
-2.7682873e-05
-3.4797328e-05
-2.7280144e-05
-3.2163616e-05
-2.6707495e-05
-2.9826538e-05
-2.6027165e-05
-2.7758339e-05
-2.5289825e-05
-2.5928332e-05
-2.453457e-05
-2.430525e-05
-2.3789666e-05
-2.2859065e-05
-2.3073878e-05
-2.1562326e-05
-2.2398038e-05
-2.0390976e-05
-2.1766799e-05
-1.9324676e-05
-2.1180377e-05
-1.8346763e-05
-2.0636123e-05
-1.7443943e-05
-2.0129813e-05
-1.6605822e-05
-1.9656641e-05
-1.5824375e-05
-1.9211899e-05
-1.5093413e-05
-1.8791395e-05
-1.4408105e-05
-1.8391652e-05
-1.376458e-05
-1.8009938e-05
-1.3159621e-05
-1.7644203e-05
-1.2590445e-05
-1.7292958e-05
-1.2054557e-05
-1.6955134e-05
-1.1549664e-05
-1.662996e-05
-1.1073623e-05
-1.6316846e-05
-1.0624428e-05
-1.6015312e-05
-1.0200198e-05
-1.5724931e-05
-9.799176e-06
-1.5445298e-05
-9.4197307e-06
-1.5176017e-05
-1.4916693e-05
1.4979471e-07
-1.1506352e-07
5.9733539e-07
-3.2695418e-07
1.3260891e-06
-4.1866811e-07
2.3078737e-06
-3.0221536e-07
3.4971469e-06
1.2305446e-07
4.8385041e-06
9.3667653e-07
6.2651724e-06
2.2067862e-06
7.7023484e-06
3.9860295e-06
9.0692318e-06
6.3114058e-06
1.0281437e-05
9.2029723e-06
1.1253497e-05
1.2662925e-05
1.1901392e-05
1.66752e-05
1.2144987e-05
2.1205561e-05
1.1910525e-05
2.6202595e-05
1.1132375e-05
3.1598511e-05
9.755089e-06
3.7311066e-05
7.7341572e-06
4.3244964e-05
5.0378004e-06
4.9294415e-05
1.648495e-06
5.5342687e-05
-2.428179e-06
6.1268673e-05
-7.1943731e-06
6.6953504e-05
-1.2615808e-05
7.2248365e-05
-1.8646458e-05
7.7024174e-05
-2.5221743e-05
8.1145902e-05
-3.2257535e-05
8.4481258e-05
-3.9649582e-05
8.690437e-05
-4.7273465e-05
8.829999e-05
-5.4985416e-05
8.8568875e-05
-6.262448e-05
8.7634067e-05
-7.0016304e-05
8.5447622e-05
-7.6978772e-05
8.1997271e-05
-8.3329467e-05
7.7312206e-05
-8.8894631e-05
7.1466925e-05
-9.351893e-05
6.4582182e-05
-9.7075017e-05
5.6822343e-05
-9.9471985e-05
4.8389554e-05
-0.0001006618
3.9514383e-05
-0.0001006427
3.0443322e-05
-9.9459054e-05
2.142472e-05
-9.7198075e-05
1.2694982e-05
-9.3984382e-05
4.4668914e-06
-8.996339e-05
-3.0913175e-06
-8.5308478e-05
-9.831763e-06
-8.0195596e-05
-1.5669867e-05
-7.4799315e-05
-2.0560348e-05
-6.9284252e-05
-2.4500095e-05
-6.3798458e-05
-2.7522905e-05
-5.846859e-05
-2.9692969e-05
-5.3396951e-05
-3.1097481e-05
-4.8660187e-05
-3.1839136e-05
-4.430943e-05
-3.2029143e-05
-4.0371971e-05
-3.1780266e-05
-3.6854005e-05
-3.1200839e-05
-3.3744164e-05
-3.0389985e-05
-3.1017498e-05
-2.9434161e-05
-2.8639585e-05
-2.8405078e-05
-2.657046e-05
-2.735895e-05
-2.4768102e-05
-2.6336928e-05
-2.3191256e-05
-2.5366513e-05
-2.1801649e-05
-2.4463485e-05
-2.0565484e-05
-2.3634203e-05
-1.9454165e-05
-2.2878118e-05
-1.8444427e-05
-2.2190115e-05
-1.7518016e-05
-2.1562535e-05
-1.6661064e-05
-2.0986765e-05
-1.5863316e-05
-2.0454388e-05
-1.5117313e-05
-1.9957902e-05
-1.4417634e-05
-1.9491074e-05
-1.3760255e-05
-1.9049032e-05
-1.3142041e-05
-1.8628152e-05
-1.2560387e-05
-1.8225857e-05
-1.2012979e-05
-1.7840366e-05
-1.1497653e-05
-1.747046e-05
-1.1012336e-05
-1.7115277e-05
-1.0555022e-05
-1.677416e-05
-1.0123783e-05
-1.6446551e-05
-9.7167812e-06
-1.6131932e-05
-9.3322882e-06
-1.5829791e-05
-8.9686927e-06
-1.5539612e-05
-1.526088e-05
1.8125294e-07
-2.9631646e-07
7.2235445e-07
-8.680557e-07
1.6041577e-06
-1.3004714e-06
2.7925317e-06
-1.4905894e-06
4.2377197e-06
-1.3221335e-06
5.8737537e-06
-6.9935748e-07
7.6214508e-06
4.5908913e-07
9.3951105e-06
2.2123697e-06
1.110089e-05
4.6056259e-06
1.264071e-05
7.6631523e-06
1.3915297e-05
1.1388338e-05
1.4827093e-05
1.5763404e-05
1.5283168e-05
2.0749486e-05
1.5198102e-05
2.6287661e-05
1.4496046e-05
3.2300567e-05
1.3112609e-05
3.8694503e-05
1.0996781e-05
4.5360792e-05
8.1118431e-06
5.2179353e-05
4.4349051e-06
5.9019625e-05
-3.842943e-08
6.5742008e-05
-5.296096e-06
7.2211171e-05
-1.1313953e-05
7.8266222e-05
-1.8042014e-05
8.3752235e-05
-2.541091e-05
8.8514799e-05
-3.3328875e-05
9.2399223e-05
-4.1680114e-05
9.5255609e-05
-5.0324083e-05
9.6943959e-05
-5.9095652e-05
9.7340445e-05
-6.7806937e-05
9.6345352e-05
-7.6251263e-05
9.3891947e-05
-8.4209671e-05
8.9955679e-05
-9.1460101e-05
8.4562635e-05
-9.7788899e-05
7.7795722e-05
-0.00010300375
6.9797031e-05
-0.0001069466
6.0765193e-05
-0.00010950519
5.0948142e-05
-0.00011062188
4.0631079e-05
-0.00011029834
3.0119776e-05
-0.00010859524
1.9721619e-05
-0.0001056278
9.7275498e-06
-0.00010155794
3.9702905e-07
-9.6568519e-05
-8.0807404e-06
-9.0882556e-05
-1.5517726e-05
-8.471865e-05
-2.1833773e-05
-7.8291217e-05
-2.698778e-05
-7.1799548e-05
-3.0991765e-05
-6.5419648e-05
-3.3902805e-05
-5.9298719e-05
-3.5813897e-05
-5.3552084e-05
-3.6844116e-05
-4.8262047e-05
-3.7129172e-05
-4.3478806e-05
-3.6812383e-05
-3.9223103e-05
-3.6035969e-05
-3.5490168e-05
-3.4933774e-05
-3.2254578e-05
-3.3625575e-05
-2.9475579e-05
-3.221316e-05
-2.7102453e-05
-3.0778204e-05
-2.5079549e-05
-2.9381854e-05
-2.3350556e-05
-2.806592e-05
-2.1862053e-05
-2.6855016e-05
-2.0566166e-05
-2.5759372e-05
-1.9422068e-05
-2.4778301e-05
-1.8396534e-05
-2.3903652e-05
-1.7463737e-05
-2.3122912e-05
-1.6604496e-05
-2.2421775e-05
-1.5805199e-05
-2.1786062e-05
-1.5056584e-05
-2.1203004e-05
-1.4352556e-05
-2.066193e-05
-1.3689144e-05
-2.0154486e-05
-1.3063665e-05
-1.9674512e-05
-1.2474108e-05
-1.9217709e-05
-1.1918736e-05
-1.8781229e-05
-1.1395853e-05
-1.8363249e-05
-1.0903705e-05
-1.7962608e-05
-1.0440465e-05
-1.7578518e-05
-1.0004261e-05
-1.7210363e-05
-9.5932328e-06
-1.6857579e-05
-9.2055746e-06
-1.651959e-05
-8.8395761e-06
-1.6195789e-05
-8.493645e-06
-1.5885543e-05
-1.5588208e-05
2.1832086e-07
-5.1463732e-07
8.7026363e-07
-1.5199985e-06
1.9324177e-06
-2.3626254e-06
3.3664251e-06
-2.9245968e-06
5.1099193e-06
-3.0656277e-06
7.0874688e-06
-2.676907e-06
9.2126109e-06
-1.6660529e-06
1.1381532e-05
4.3448415e-08
1.3485442e-05
2.5017159e-06
1.5410819e-05
5.7377754e-06
1.7042353e-05
9.7568043e-06
1.8266765e-05
1.4538992e-05
1.8976458e-05
2.0039793e-05
1.9072694e-05
2.6191424e-05
1.8468113e-05
3.2905148e-05
1.7088993e-05
4.0073623e-05
1.4876029e-05
4.7573755e-05
1.1785949e-05
5.5269433e-05
7.7928621e-06
6.3012712e-05
2.8863808e-06
7.0648489e-05
-2.9170333e-06
7.8014585e-05
-9.6030716e-06
8.495226e-05
-1.7115073e-05
9.1264237e-05
-2.5381349e-05
9.6781075e-05
-3.4303584e-05
0.00010132146
-4.3754767e-05
0.00010470679
-5.3577487e-05
0.00010676668
-6.3583099e-05
0.00010734606
-7.355277e-05
0.00010631502
-8.3241329e-05
0.00010358051
-9.2384591e-05
9.9098942e-05
-0.00010071056
9.2888603e-05
-0.00010795425
8.5039413e-05
-0.00011387499
7.5717769e-05
-0.00011827413
6.5164333e-05
-0.000121011
5.3685018e-05
-0.0001220153
4.1635374e-05
-0.00012129362
2.9398101e-05
-0.00011892922
1.7357219e-05
-0.0001150811
5.8794301e-06
-0.00010992641
-4.7576603e-06
-0.00010374978
-1.4257378e-05
-9.6807271e-05
-2.2460231e-05
-8.9375243e-05
-2.9265801e-05
-8.1718403e-05
-3.4644621e-05
-7.4078184e-05
-3.8631985e-05
-6.6663456e-05
-4.1317533e-05
-5.9644506e-05
-4.2832848e-05
-5.3149996e-05
-4.3338626e-05
-4.7266297e-05
-4.3012871e-05
-4.2039548e-05
-4.2039133e-05
-3.7479631e-05
-4.0595885e-05
-3.3565743e-05
-3.8847663e-05
-3.0253004e-05
-3.6938314e-05
-2.74795e-05
-3.4986665e-05
-2.5173246e-05
-3.3084458e-05
-2.3258468e-05
-3.1296632e-05
-2.1660984e-05
-2.9663404e-05
-2.0312789e-05
-2.8203211e-05
-1.9154978e-05
-2.6917183e-05
-1.8139191e-05
-2.5794088e-05
-1.7227825e-05
-2.4815018e-05
-1.6393287e-05
-2.395745e-05
-1.5616607e-05
-2.3198455e-05
-1.4885695e-05
-2.2516974e-05
-1.4193531e-05
-2.1895168e-05
-1.3536481e-05
-2.1318979e-05
-1.2912904e-05
-2.0778064e-05
-1.2322101e-05
-2.0265314e-05
-1.1763618e-05
-1.9776193e-05
-1.1236833e-05
-1.9308014e-05
-1.0740784e-05
-1.8859298e-05
-1.027415e-05
-1.8429242e-05
-9.8353233e-06
-1.8017344e-05
-9.4225238e-06
-1.7623163e-05
-9.0339104e-06
-1.7246193e-05
-8.6676744e-06
-1.6885826e-05
-8.3221026e-06
-1.6541361e-05
-7.9956132e-06
-1.6212033e-05
-1.5897053e-05
2.621276e-07
-7.7676491e-07
1.0449177e-06
-2.3027885e-06
2.3186791e-06
-3.6363869e-06
4.041569e-06
-4.6474867e-06
6.1359098e-06
-5.1599685e-06
8.5167627e-06
-5.0577599e-06
1.1079382e-05
-4.2286717e-06
1.3709366e-05
-2.586536e-06
1.6281261e-05
-7.0178786e-08
1.8659243e-05
3.3597932e-06
2.0710778e-05
7.7052692e-06
2.2304077e-05
1.2945693e-05
2.3314545e-05
1.9029325e-05
2.36284e-05
2.587757e-05
2.3145608e-05
3.338794e-05
2.1781921e-05
4.143731e-05
1.9470045e-05
4.9885631e-05
1.6160349e-05
5.8579128e-05
1.1820684e-05
6.7352378e-05
6.4380503e-06
7.6031122e-05
2.2099015e-08
8.4430536e-05
-7.4022802e-06
9.2376639e-05
-1.5790961e-05
9.9652918e-05
-2.506847e-05
0.00010605858
-3.5130996e-05
0.00011138398
-4.5841542e-05
0.00011541734
-5.7025895e-05
0.00011795103
-6.8470199e-05
0.00011879036
-7.9920542e-05
0.00011776537
-9.1086152e-05
0.00011474612
-0.00010164729
0.00010966008
-0.00011126874
0.00010251005
-0.00011961888
9.3389546e-05
-0.000126393
8.2491894e-05
-0.00013133801
7.0109336e-05
-0.00013427482
5.6621827e-05
-0.00013511604
4.2476599e-05
-0.00013387487
2.8156928e-05
-0.00013066403
1.4146387e-05
-0.00012569041
9.0580055e-07
-0.00011920372
-1.1244343e-05
-0.00011155045
-2.1910649e-05
-0.00010306883
-3.0941851e-05
-9.4102736e-05
-3.8231896e-05
-8.4978147e-05
-4.376921e-05
-7.5987059e-05
-4.7623072e-05
-6.7376517e-05
-4.9928074e-05
-5.9342231e-05
-5.0867134e-05
-5.20257e-05
-5.0655157e-05
-4.5514601e-05
-4.9523971e-05
-3.984642e-05
-4.7707313e-05
-3.5014218e-05
-4.5428087e-05
-3.0974354e-05
-4.2887526e-05
-2.765544e-05
-4.0257228e-05
-2.4967537e-05
-3.7674568e-05
-2.2811043e-05
-3.5240952e-05
-2.1084407e-05
-3.3023267e-05
-1.9691425e-05
-3.1056387e-05
-1.8546744e-05
-2.9347892e-05
-1.7579057e-05
-2.788487e-05
-1.6732305e-05
-2.664084e-05
-1.5965281e-05
-2.5582041e-05
-1.5250048e-05
-2.4672683e-05
-1.4569665e-05
-2.3878837e-05
-1.3915504e-05
-2.3171135e-05
-1.3284537e-05
-2.2526135e-05
-1.2677033e-05
-2.1926484e-05
-1.2094768e-05
-2.1360329e-05
-1.1539773e-05
-2.0820309e-05
-1.1013584e-05
-2.0302382e-05
-1.0516892e-05
-1.9804705e-05
-1.0049501e-05
-1.9326689e-05
-9.6104544e-06
-1.8868289e-05
-9.1982576e-06
-1.8429541e-05
-8.811109e-06
-1.8010311e-05
-8.4470976e-06
-1.7610204e-05
-8.1043476e-06
-1.7228576e-05
-7.7811084e-06
-1.68646e-05
-7.4757971e-06
-1.6517344e-05
-1.6185843e-05
3.1428412e-07
-1.091049e-06
1.252902e-06
-3.2414064e-06
2.7747515e-06
-5.1582364e-06
4.8398814e-06
-6.7126166e-06
7.3428299e-06
-7.6629169e-06
1.0193289e-05
-7.9082193e-06
1.3270484e-05
-7.3058662e-06
1.643951e-05
-5.7555619e-06
1.9555372e-05
-3.1860411e-06
2.2464738e-05
4.5042663e-07
2.5009452e-05
5.1605561e-06
2.7036441e-05
1.0918703e-05
2.8401556e-05
1.7664209e-05
2.8974032e-05
2.5305094e-05
2.8639837e-05
3.3722136e-05
2.7303781e-05
4.2773366e-05
2.4890132e-05
5.229928e-05
2.1343366e-05
6.2125894e-05
1.6626751e-05
7.2068993e-05
1.0722934e-05
8.1934939e-05
3.6319898e-06
9.1521481e-05
-4.6112488e-06
0.00010061988
-1.3978864e-05
0.00010902053
-2.4391355e-05
0.00011647107
-3.5743881e-05
0.00012273651
-4.7892607e-05
0.00012756606
-6.0648113e-05
0.00013070654
-7.3770582e-05
0.00013191283
-8.6967152e-05
0.00013096194
-9.989351e-05
0.00012767247
-0.00011216179
0.00012192836
-0.00012335637
0.00011370463
-0.00013305833
0.00010309151
-0.00014087714
9.0310703e-05
-0.00014648542
7.5717625e-05
-0.00014965123
5.978763e-05
-0.00015026372
4.3089088e-05
-0.00014834737
2.624058e-05
-0.00014406803
9.8670515e-06
-0.00013763331
-5.5289191e-06
-0.00012948284
-1.9394812e-05
-0.00012000184
-3.1391651e-05
-0.00010963197
-4.1311723e-05
-9.8806714e-05
-4.9057151e-05
-8.7928241e-05
-5.4647683e-05
-7.7349071e-05
-5.8202243e-05
-6.7360004e-05
-5.9917141e-05
-5.818394e-05
-6.0043198e-05
-4.9973449e-05
-5.8865648e-05
-4.2813032e-05
-5.6684388e-05
-3.672499e-05
-5.3795356e-05
-3.1677404e-05
-5.0475673e-05
-2.7594762e-05
-4.6970168e-05
-2.4370026e-05
-4.3481965e-05
-2.1876474e-05
-4.016812e-05
-1.9978618e-05
-3.7138807e-05
-1.8542339e-05
-3.4459547e-05
-1.7444376e-05
-3.215435e-05
-1.6579003e-05
-3.0213265e-05
-1.5861341e-05
-2.8602532e-05
-1.5227971e-05
-2.727421e-05
-1.4635577e-05
-2.6174436e-05
-1.4058429e-05
-2.5249831e-05
-1.3484525e-05
-2.4452741e-05
-1.2911389e-05
-2.3744271e-05
-1.234233e-05
-2.3095194e-05
-1.1783376e-05
-2.2485438e-05
-1.1241034e-05
-2.1902671e-05
-1.0720867e-05
-2.1340475e-05
-1.022678e-05
-2.0796469e-05
-9.7608483e-06
-2.0270637e-05
-9.3235129e-06
-1.9764024e-05
-8.9139691e-06
-1.9277833e-05
-8.5306052e-06
-1.8812905e-05
-8.1713989e-06
-1.8369517e-05
-7.8342221e-06
-1.7947381e-05
-7.5170412e-06
-1.7545757e-05
-7.2180253e-06
-1.7163616e-05
-6.935582e-06
-1.6799787e-05
-1.6453076e-05
3.7673959e-07
-1.4677886e-06
1.502945e-06
-4.3676118e-06
3.3140207e-06
-6.9693122e-06
5.7888235e-06
-9.1874194e-06
8.7657148e-06
-1.0639808e-05
1.2163544e-05
-1.1306048e-05
1.583813e-05
-1.0980452e-05
1.96356e-05
-9.5530326e-06
2.3390117e-05
-6.9405578e-06
2.6920662e-05
-3.0801185e-06
3.0042525e-05
2.0386929e-06
3.2577709e-05
8.3835197e-06
3.4358541e-05
1.5883377e-05
3.5235165e-05
2.4428471e-05
3.5078533e-05
3.3878768e-05
3.3782182e-05
4.4069717e-05
3.1262969e-05
5.4818493e-05
2.7459308e-05
6.5929555e-05
2.233062e-05
7.7197681e-05
1.5855417e-05
8.8410142e-05
8.0314673e-06
9.934543e-05
-1.1199418e-06
0.00010977129
-1.1571741e-05
0.00011947233
-2.3249463e-05
0.0001281488
-3.6053615e-05
0.00013554066
-4.9838362e-05
0.00014135081
-6.4402939e-05
0.00014527111
-7.9482562e-05
0.00014699245
-9.4742434e-05
0.00014622181
-0.00010977625
0.00014270629
-0.00012411296
0.00013626507
-0.00013723446
0.00012682613
-0.00014860656
0.00011446361
-0.00015772213
9.9426282e-05
-0.00016415097
8.2146459e-05
-0.00016758689
6.3223552e-05
-0.0001678857
4.3387894e-05
-0.00016508371
2.3438598e-05
-0.0001593974
4.1807337e-06
-0.0001511564
-1.3769914e-05
-0.00014088888
-2.9662338e-05
-0.00012912657
-4.3153959e-05
-0.00011643167
-5.400662e-05
-0.00010334893
-6.2139888e-05
-9.0373612e-05
-6.7623006e-05
-7.7929689e-05
-7.0646165e-05
-6.6357053e-05
-7.1489777e-05
-5.5906306e-05
-7.0493944e-05
-4.6737466e-05
-6.8034489e-05
-3.8924924e-05
-6.4496929e-05
-3.2466743e-05
-6.0253537e-05
-2.7295032e-05
-5.5647383e-05
-2.3290435e-05
-5.0974765e-05
-2.0298532e-05
-4.6473868e-05
-1.814449e-05
-4.2322161e-05
-1.664657e-05
-3.8636727e-05
-1.5629842e-05
-3.5476275e-05
-1.4937869e-05
-3.2846323e-05
-1.4441308e-05
-3.0709826e-05
-1.4040856e-05
-2.9002984e-05
-1.3666782e-05
-2.7648284e-05
-1.3276905e-05
-2.6564312e-05
-1.2851748e-05
-2.5674989e-05
-1.2388272e-05
-2.4916217e-05
-1.1893937e-05
-2.4238606e-05
-1.1381536e-05
-2.3607595e-05
-1.0865196e-05
-2.3001778e-05
-1.0357668e-05
-2.2410199e-05
-9.868828e-06
-2.1829316e-05
-9.4051532e-06
-2.1260144e-05
-8.9699205e-06
-2.070587e-05
-8.5638246e-06
-2.017012e-05
-8.1857712e-06
-1.9655886e-05
-7.8336314e-06
-1.9165045e-05
-7.5048517e-06
-1.8698297e-05
-7.1968808e-06
-1.8255352e-05
-6.9074159e-06
-1.7835222e-05
-6.6345068e-06
-1.7436525e-05
-6.3765607e-06
-1.7057733e-05
-1.6697344e-05
4.521245e-07
-1.9199131e-06
1.809479e-06
-5.7249663e-06
3.9515714e-06
-9.1114046e-06
6.9252744e-06
-1.2161122e-05
1.044539e-05
-1.4159924e-05
1.4480886e-05
-1.5341544e-05
1.8848112e-05
-1.5347678e-05
2.3377441e-05
-1.4082361e-05
2.7876256e-05
-1.1439373e-05
3.2134589e-05
-7.3384522e-06
3.5932561e-05
-1.7592785e-06
3.9061423e-05
5.2546571e-06
4.1326885e-05
1.3617915e-05
4.2557339e-05
2.3198017e-05
4.2608027e-05
3.382808e-05
4.1361915e-05
4.5315829e-05
3.872922e-05
5.7451188e-05
3.4645255e-05
7.001352e-05
2.9066286e-05
8.277665e-05
2.1967629e-05
9.5508799e-05
1.3339779e-05
0.00010797328
3.1873242e-06
0.00011992374
-8.4419636e-06
0.00013110162
-2.1518016e-05
0.00014122485
-3.5944006e-05
0.00014996665
-5.1579576e-05
0.00015698638
-6.8219941e-05
0.00016191148
-8.5579564e-05
0.00016435208
-0.00010328057
0.00016392282
-0.00012084645
0.00016027217
-0.00013770542
0.00015312403
-0.00015320881
0.00014232952
-0.00016666909
0.00012792389
-0.00017741864
0.00011017582
-0.00018488205
8.960987e-05
-0.00018864714
6.6988642e-05
-0.00018852338
4.3264133e-05
-0.00018458064
1.9495862e-05
-0.00017703963
-3.3602742e-06
-0.00016648198
-2.4327565e-05
-0.00015353932
-4.2604998e-05
-0.00013892287
-5.7770416e-05
-0.00012335783
-6.9571652e-05
-0.00010753017
-7.7967555e-05
-9.2048416e-05
-8.3104756e-05
-7.7419596e-05
-8.5274986e-05
-6.40369e-05
-8.4872473e-05
-5.2176948e-05
-8.2353897e-05
-4.2000912e-05
-7.8210524e-05
-3.3562724e-05
-7.2935118e-05
-2.6823903e-05
-6.6992358e-05
-2.1666032e-05
-6.0805254e-05
-1.7910093e-05
-5.4730704e-05
-1.5339275e-05
-4.9044686e-05
-1.371581e-05
-4.3945627e-05
-1.2799172e-05
-3.9553364e-05
-1.2363713e-05
-3.5911734e-05
-1.221216e-05
-3.2997876e-05
-1.2188152e-05
-3.0733833e-05
-1.2177518e-05
-2.9013619e-05
-1.2107346e-05
-2.7718456e-05
-1.194187e-05
-2.6729787e-05
-1.1673646e-05
-2.5943213e-05
-1.1314491e-05
-2.5275373e-05
-1.0887018e-05
-2.4666078e-05
-1.0417633e-05
-2.4076979e-05
-9.9314409e-06
-2.348797e-05
-9.4490787e-06
-2.2892561e-05
-8.9853122e-06
-2.2293082e-05
-8.5490294e-06
-2.1696427e-05
-8.1440842e-06
-2.1110815e-05
-7.7706348e-06
-2.0543569e-05
-7.4265348e-06
-1.9999986e-05
-7.1085144e-06
-1.9483065e-05
-6.8130513e-06
-1.899376e-05
-6.5369127e-06
-1.853149e-05
-6.2774158e-06
-1.8094719e-05
-6.0324819e-06
-1.7681459e-05
-5.8005673e-06
-1.7289648e-05
-1.6917373e-05
5.4373943e-07
-2.4636526e-06
2.1870042e-06
-7.3682311e-06
4.7035803e-06
-1.1627981e-05
8.3006923e-06
-1.5758234e-05
1.2432969e-05
-1.8292201e-05
1.7211267e-05
-2.0119842e-05
2.2374612e-05
-2.0511023e-05
2.7753405e-05
-1.9461154e-05
3.3126948e-05
-1.6812916e-05
3.8235763e-05
-1.2447268e-05
4.2826878e-05
-6.3503936e-06
4.6645882e-05
1.4356533e-06
4.9472747e-05
1.079105e-05
5.1109819e-05
2.1560945e-05
5.139632e-05
3.3541579e-05
5.0206445e-05
4.6505704e-05
4.7446837e-05
6.0210796e-05
4.305222e-05
7.4408138e-05
3.6979914e-05
8.8848956e-05
2.9203386e-05
0.00010328533
1.9707727e-05
0.00011746894
8.4921289e-06
0.00013113934
-4.430166e-06
0.00014402391
-1.9042295e-05
0.00015583698
-3.5263568e-05
0.00016618793
-5.2977075e-05
0.00017469989
-7.1986906e-05
0.00018092131
-9.1996314e-05
0.00018436148
-0.00011258688
0.00018451338
-0.00013320518
0.00018089047
-0.00015315927
0.00017307812
-0.00017163478
0.00016080504
-0.00018773945
0.00014402856
-0.00020058198
0.00012301836
-0.00020937793
9.8405811e-05
-0.0002135585
7.1169216e-05
-0.00021286154
4.2567176e-05
-0.00020739556
1.4029876e-05
-0.00019747904
-1.3276792e-05
-0.00018391211
-3.7894499e-05
-0.0001675566
-5.89605e-05
-0.00014935234
-7.5974675e-05
-0.0001302349
-8.8689095e-05
-0.0001110668
-9.7135653e-05
-9.2592327e-05
-0.00010157923
-7.5412436e-05
-0.00010245488
-5.9975298e-05
-0.00010030961
-4.6578007e-05
-9.5751188e-05
-3.5372934e-05
-8.9415596e-05
-2.6379033e-05
-8.1929019e-05
-1.9504314e-05
-7.3867077e-05
-1.4561408e-05
-6.574816e-05
-1.129033e-05
-5.8001782e-05
-9.3925898e-06
-5.0942426e-05
-8.5484107e-06
-4.4789806e-05
-8.4428165e-06
-3.9658959e-05
-8.7889283e-06
-3.5565623e-05
-9.3385798e-06
-3.2448224e-05
-9.9046174e-06
-3.0167796e-05
-1.0358843e-05
-2.8559393e-05
-1.063133e-05
-2.744597e-05
-1.0700357e-05
-2.666076e-05
-1.0579225e-05
-2.6064345e-05
-1.0302948e-05
-2.555165e-05
-9.9163975e-06
-2.5052629e-05
-9.4650295e-06
-2.4528347e-05
-8.9883284e-06
-2.3964671e-05
-8.5163089e-06
-2.3364581e-05
-8.0687586e-06
-2.2740633e-05
-7.6561127e-06
-2.2109073e-05
-7.28147e-06
-2.1485457e-05
-6.9430621e-06
-2.0881977e-05
-6.6364861e-06
-2.0306562e-05
-6.3564356e-06
-1.9763116e-05
-6.0978536e-06
-1.9252342e-05
-5.8565479e-06
-1.8772796e-05
-5.6293895e-06
-1.8321877e-05
-5.4142367e-06
-1.7896612e-05
-5.2097194e-06
-1.7494165e-05
-1.7112104e-05
6.5556105e-07
-3.1192136e-06
2.6580374e-06
-9.3707074e-06
5.5844303e-06
-1.4554374e-05
9.9836478e-06
-2.0157452e-05
1.4792879e-05
-2.3101432e-05
2.0431138e-05
-2.5758101e-05
2.6501016e-05
-2.6580901e-05
3.2869755e-05
-2.5829894e-05
3.9269997e-05
-2.3213158e-05
4.5382122e-05
-1.8559393e-05
5.0896838e-05
-1.1865109e-05
5.5521703e-05
-3.1892115e-06
5.8994077e-05
7.3186761e-06
6.1091445e-05
1.9463577e-05
6.1637513e-05
3.2995511e-05
6.0501018e-05
4.7642198e-05
5.7590146e-05
6.3121668e-05
5.284525e-05
7.9153034e-05
4.6229309e-05
9.5464898e-05
3.7717229e-05
0.00011179741
2.7289279e-05
0.00012789689
1.4925359e-05
0.00014350326
6.1288594e-07
0.00015833639
-1.5639094e-05
0.00017208896
-3.3817337e-05
0.00018436617
-5.3838592e-05
0.00019472114
-7.5532922e-05
0.00020261564
-9.8609082e-05
0.00020743765
-0.00012261783
0.00020852213
-0.00014692574
0.00020519839
-0.00017070088
0.00019685325
-0.00019292063
0.00018302479
-0.00021241924
0.00016352717
-0.00022799059
0.00013858971
-0.00023854427
0.00010895949
-0.0002432765
7.5901448e-05
-0.00024181238
4.1103056e-05
-0.00023430805
6.5255507e-06
-0.00022125912
-2.6325725e-05
-0.00020377826
-5.5375361e-05
-0.00018304674
-7.9692021e-05
-0.00016031474
-9.8706672e-05
-0.0001367915
-0.00011221233
-0.00011355857
-0.00012036859
-9.151928e-05
-0.00012361852
-7.1376583e-05
-0.00012259757
-5.3630583e-05
-0.00011805561
-3.8587283e-05
-0.00011079449
-2.6374062e-05
-0.00010162882
-1.6957149e-05
-9.1345931e-05
-1.0167849e-05
-8.0656378e-05
-5.7295886e-06
-7.018642e-05
-3.2682885e-06
-6.0463083e-05
-2.3766434e-06
-5.1834071e-05
-2.6295653e-06
-4.4536884e-05
-3.619315e-06
-3.8669209e-05
-4.9909689e-06
-3.4193969e-05
-6.4314505e-06
-3.1007743e-05
-7.7168228e-06
-2.8882423e-05
-8.7088344e-06
-2.7567381e-05
-9.3493542e-06
-2.680545e-05
-9.6426989e-06
-2.6367415e-05
-9.6356544e-06
-2.6071389e-05
-9.3981358e-06
-2.5789169e-05
-9.0071187e-06
-2.5443646e-05
-8.5340351e-06
-2.5001431e-05
-8.0363245e-06
-2.4462382e-05
-7.5544917e-06
-2.3846413e-05
-7.1125157e-06
-2.3182609e-05
-6.7202958e-06
-2.2501292e-05
-6.3777688e-06
-2.1827984e-05
-6.0789952e-06
-2.1180751e-05
-5.8155356e-06
-2.0570022e-05
-5.5788481e-06
-1.9999803e-05
-5.3616849e-06
-1.9469505e-05
-5.1586659e-06
-1.8975815e-05
-4.9662751e-06
-1.8514268e-05
-4.7825206e-06
-1.8080367e-05
-4.6064619e-06
-1.7670224e-05
-1.7280805e-05
7.9354872e-07
-3.9127623e-06
3.2529449e-06
-1.1830104e-05
6.6020344e-06
-1.7903463e-05
1.2065788e-05
-2.5621205e-05
1.7602394e-05
-2.8638037e-05
2.4214794e-05
-3.2370501e-05
3.1312406e-05
-3.3678513e-05
3.8848723e-05
-3.336621e-05
4.6470175e-05
-3.083461e-05
5.3768637e-05
-2.5857855e-05
6.0370556e-05
-1.8467028e-05
6.5930767e-05
-8.7494226e-06
7.0133066e-05
3.1163779e-06
7.2740695e-05
1.6855948e-05
7.3559404e-05
3.2176802e-05
7.2457749e-05
4.8743853e-05
6.9353575e-05
6.6225843e-05
6.4201864e-05
8.4304745e-05
5.6979674e-05
0.00010268709
4.7670918e-05
0.00012110616
3.625355e-05
0.00013931426
2.268961e-05
0.0001570672
6.9307467e-06
0.00017409525
-1.1068792e-05
0.0001900885
-3.1351899e-05
0.00020464928
-5.3901389e-05
0.00021727063
-7.86059e-05
0.00022732015
-0.00010520864
0.00023404039
-0.00013325165
0.00023656513
-0.00016202652
0.00023397326
-0.00019054417
0.0002253709
-0.000217525
0.00021000562
-0.00024143989
0.00018744206
-0.00026063614
0.00015778596
-0.00027356661
0.00012188995
-0.00027906925
8.1404084e-05
-0.00027661637
3.8650176e-05
-0.00026627175
-3.819068e-06
-0.00024907425
-4.3523227e-05
-0.00022645954
-7.799007e-05
-0.00020007995
-0.00010607161
-0.00017161151
-0.00012717511
-0.00014261687
-0.00014120697
-0.00011444415
-0.0001485413
-8.8176539e-05
-0.00014988613
-6.4619876e-05
-0.00014615424
-4.4314295e-05
-0.00013836119
-2.7555548e-05
-0.00012755324
-1.4420483e-05
-0.00011476388
-4.8141828e-06
-0.00010095223
1.5788607e-06
-8.7049421e-05
5.1667961e-06
-7.3774356e-05
6.4079882e-06
-6.1704275e-05
5.852874e-06
-5.1278957e-05
4.0638419e-06
-4.2747852e-05
1.5788529e-06
-3.618422e-05
-1.1115006e-06
-3.1503615e-05
-3.6639687e-06
-2.8455275e-05
-5.8069825e-06
-2.673941e-05
-7.3991549e-06
-2.5975209e-05
-8.4081883e-06
-2.5796416e-05
-8.8827645e-06
-2.5892839e-05
-8.9215851e-06
-2.6032568e-05
-8.6461582e-06
-2.6064596e-05
-8.1791371e-06
-2.5910667e-05
-7.6259851e-06
-2.5554583e-05
-7.0657243e-06
-2.5022643e-05
-6.549475e-06
-2.4362663e-05
-6.1025333e-06
-2.3629551e-05
-5.730375e-06
-2.2873451e-05
-5.425783e-06
-2.2132576e-05
-5.1752222e-06
-2.1431312e-05
-4.9637266e-06
-2.0781517e-05
-4.7780357e-06
-2.0185494e-05
-4.608059e-06
-1.9639482e-05
-4.4471823e-06
-1.9136692e-05
-4.291837e-06
-1.8669614e-05
-4.1406566e-06
-1.8231547e-05
-3.9935828e-06
-1.7817298e-05
-1.7423244e-05
9.7737136e-07
-4.8901337e-06
4.0346844e-06
-1.4887417e-05
7.7673791e-06
-2.1636158e-05
1.4675268e-05
-3.2529094e-05
2.094424e-05
-3.4907009e-05
2.8597347e-05
-4.0023608e-05
3.686553e-05
-4.1946696e-05
4.5821973e-05
-4.2322654e-05
5.4934744e-05
-3.9947382e-05
6.3659333e-05
-3.4582443e-05
7.1542051e-05
-2.6349747e-05
7.8174291e-05
-1.5381663e-05
8.319715e-05
-1.9064805e-06
8.635745e-05
1.3695648e-05
8.7441739e-05
3.1092513e-05
8.6329543e-05
4.9856049e-05
8.2961116e-05
6.9594269e-05
7.7319848e-05
8.9946013e-05
6.9411279e-05
0.00011059566
5.923846e-05
0.00013127898
4.6780781e-05
0.00015177194
3.1981194e-05
0.00017186679
1.4742788e-05
0.00019133366
-5.054993e-06
0.00020988628
-2.7544209e-05
0.00022713849
-5.2808237e-05
0.00024253466
-8.0840292e-05
0.00025535221
-0.00011146253
0.00026466263
-0.00014424765
0.00026935025
-0.00017843446
0.00026816008
-0.00021286644
0.00025980288
-0.00024595477
0.00024309395
-0.00027569317
0.00021718046
-0.00029979469
0.00018188749
-0.00031601583
0.00013811109
-0.00032261658
8.8004835e-05
-0.00031880802
3.4841617e-05
-0.0003046708
-1.7956294e-05
-0.00028181923
-6.6374789e-05
-0.00025237575
-0.00010743355
-0.00021865044
-0.00013979693
-0.00018288831
-0.00016293724
-0.00014709751
-0.00017699777
-0.00011294022
-0.0001826986
-8.1691154e-05
-0.0001811352
-5.4245698e-05
-0.00017359969
-3.115594e-05
-0.00016145095
-1.2688803e-05
-0.00014602037
1.1959387e-06
-0.00012864862
1.0755478e-05
-0.00011051177
1.6341205e-05
-9.2635148e-05
1.8509997e-05
-7.5943148e-05
1.7937561e-05
-6.1131839e-05
1.535271e-05
-4.8694106e-05
1.1497263e-05
-3.8892405e-05
7.0652528e-06
-3.175221e-05
2.6463638e-06
-2.7084726e-05
-1.2853741e-06
-2.4523537e-05
-4.430887e-06
-2.3593897e-05
-6.6631459e-06
-2.374295e-05
-7.9990448e-06
-2.4460517e-05
-8.5602882e-06
-2.5331596e-05
-8.5243802e-06
-2.6068476e-05
-8.0891123e-06
-2.6499864e-05
-7.4399644e-06
-2.6559815e-05
-6.7259109e-06
-2.6268636e-05
-6.0507203e-06
-2.5697833e-05
-5.4734026e-06
-2.493998e-05
-5.0146406e-06
-2.4088313e-05
-4.6688313e-06
-2.321926e-05
-4.4153567e-06
-2.2386051e-05
-4.2280679e-06
-2.1618601e-05
-4.0821882e-06
-2.0927397e-05
-3.9580815e-06
-2.0309601e-05
-3.8423523e-06
-1.9755211e-05
-3.7275647e-06
-1.9251479e-05
-3.6109387e-06
-1.878624e-05
-3.4926171e-06
-1.8349869e-05
-3.3741604e-06
-1.7935754e-05
-1.7539932e-05
1.3023396e-06
-6.1924733e-06
5.2358908e-06
-1.8820968e-05
9.1897399e-06
-2.5590007e-05
1.8042034e-05
-4.1381388e-05
2.4907061e-05
-4.1772037e-05
3.3496237e-05
-4.8612784e-05
4.3110576e-05
-5.1561034e-05
5.389086e-05
-5.3102938e-05
6.4920312e-05
-5.0976834e-05
7.5426501e-05
-4.5088633e-05
8.4841639e-05
-3.5764885e-05
9.2706393e-05
-2.3246416e-05
9.8646619e-05
-7.846707e-06
0.00010236156
9.9807103e-06
0.00010366494
2.9789131e-05
0.00010245244
5.1068546e-05
9.8702847e-05
7.3343864e-05
9.2448264e-05
9.6200596e-05
8.3742375e-05
0.00011930155
7.2624234e-05
0.00014239712
5.9084801e-05
0.00016531137
4.3044227e-05
0.00018790736
2.4344143e-05
0.00021003374
2.764633e-06
0.00023146579
-2.1955254e-05
0.00025185838
-5.0053071e-05
0.00027063248
-8.1692439e-05
0.00028699157
-0.00011684015
0.00029981034
-0.00015516339
0.00030767349
-0.00019590244
0.00030889913
-0.00023774543
0.00030164587
-0.00027875001
0.00028409853
-0.00031629617
0.00025472663
-0.00034719635
0.00021278766
-0.00036811754
0.00015903229
-0.00037634519
9.6232488e-05
-0.00037063583
2.9132257e-05
-0.00035121959
-3.7372537e-05
-0.00032059048
-9.7003902e-05
-0.00028196219
-0.00014606184
-0.00023861436
-0.00018314476
-0.00019355196
-0.00020799963
-0.00014932874
-0.00022122099
-0.00010795968
-0.00022406767