/*--------------------------------*- C++ -*----------------------------------*\
| =========                 |                                                 |
| \\      /  F ield         | OpenFOAM: The Open Source CFD Toolbox           |
|  \\    /   O peration     | Version:  2106                                  |
|   \\  /    A nd           | Website:  www.openfoam.com                      |
|    \\/     M anipulation  |                                                 |
\*---------------------------------------------------------------------------*/
FoamFile
{
    version     2.0;
    format      ascii;
    arch        "LSB;label=32;scalar=64";
    class       volVectorField;
    location    "0.105";
    object      U;
}
// * * * * * * * * * * * * * * * * * * * * * * * * * * * * * * * * * * * * * //

dimensions      [0 1 -1 0 0 0 0];

internalField   nonuniform List<vector> 
32768
(
(0.0013377511 -0.0014969426 0)
(0.0051427765 -0.0017623864 0)
(0.0093200079 -0.0018197428 0)
(0.01356925 -0.0018485528 0)
(0.017825381 -0.0018590604 0)
(0.022094824 -0.0018647195 0)
(0.026377936 -0.0018708677 0)
(0.030674979 -0.0018784474 0)
(0.0349878 -0.0018880218 0)
(0.039322934 -0.0019031675 0)
(0.04368614 -0.0019311058 0)
(0.048077047 -0.0019642047 0)
(0.05249644 -0.0019997642 0)
(0.056945776 -0.0020365021 0)
(0.061426903 -0.0020737788 0)
(0.065941878 -0.0021113242 0)
(0.070492958 -0.0021490825 0)
(0.075082544 -0.0021871086 0)
(0.079713143 -0.0022255113 0)
(0.084387343 -0.0022644237 0)
(0.089107811 -0.0023039901 0)
(0.093877261 -0.0023443456 0)
(0.098698503 -0.0023856434 0)
(0.10357429 -0.0024279559 0)
(0.10850771 -0.0024715422 0)
(0.11350116 -0.002516134 0)
(0.11855887 -0.0025627145 0)
(0.12368089 -0.0026093551 0)
(0.12887646 -0.0026603258 0)
(0.13413622 -0.0027074968 0)
(0.13948579 -0.0027655848 0)
(0.14489035 -0.0028106716 0)
(0.15041024 -0.0028780206 0)
(0.15597195 -0.0029227651 0)
(0.16166617 -0.002991403 0)
(0.16741572 -0.0030535959 0)
(0.17327058 -0.0030958999 0)
(0.17923873 -0.0032055979 0)
(0.18527028 -0.0032025662 0)
(0.19144358 -0.0033467396 0)
(0.19768551 -0.0033725244 0)
(0.20408468 -0.0034219825 0)
(0.2105279 -0.0035800491 0)
(0.21714163 -0.0035694616 0)
(0.22388894 -0.0036608184 0)
(0.23063916 -0.003806964 0)
(0.23763229 -0.0038143853 0)
(0.24476227 -0.0038998388 0)
(0.25186428 -0.0040352563 0)
(0.25919801 -0.0040825133 0)
(0.26674185 -0.0041703275 0)
(0.27428029 -0.0042721555 0)
(0.28194021 -0.0043349607 0)
(0.28982916 -0.0044418136 0)
(0.2978467 -0.0045634024 0)
(0.30596303 -0.004620871 0)
(0.31419528 -0.0046767824 0)
(0.32254241 -0.0048078035 0)
(0.33109247 -0.0049354794 0)
(0.33983458 -0.0050075791 0)
(0.34862886 -0.0050743533 0)
(0.35750252 -0.005163097 0)
(0.36656244 -0.005269757 0)
(0.37580311 -0.0053806861 0)
(0.38519051 -0.0054854333 0)
(0.39468975 -0.0055713046 0)
(0.40427487 -0.0056366506 0)
(0.41399062 -0.0057128835 0)
(0.42387555 -0.0058192752 0)
(0.43388947 -0.0059296043 0)
(0.44400289 -0.0060156642 0)
(0.45423926 -0.0060902177 0)
(0.46461129 -0.0061783712 0)
(0.47511258 -0.0062709918 0)
(0.48573725 -0.0063500229 0)
(0.4964621 -0.0064144898 0)
(0.50725418 -0.0064826631 0)
(0.51811278 -0.006565129 0)
(0.52909423 -0.0066480911 0)
(0.5402261 -0.0067299926 0)
(0.55146704 -0.0068071419 0)
(0.5627724 -0.0068636704 0)
(0.57411192 -0.0068994443 0)
(0.58547429 -0.0069304685 0)
(0.59688701 -0.00696975 0)
(0.60840117 -0.007022393 0)
(0.62002875 -0.0070839233 0)
(0.63169467 -0.0071326401 0)
(0.64329342 -0.0071450349 0)
(0.65478214 -0.0071356371 0)
(0.66619375 -0.0071374418 0)
(0.67764966 -0.0071573189 0)
(0.6892907 -0.0071926893 0)
(0.70110325 -0.0072380116 0)
(0.71295895 -0.0072546177 0)
(0.72474358 -0.0072088451 0)
(0.73631169 -0.0071319352 0)
(0.74758161 -0.007046909 0)
(0.75860634 -0.0069695608 0)
(0.76948642 -0.0069247885 0)
(0.78035154 -0.0069072985 0)
(0.79131269 -0.0069071812 0)
(0.80238906 -0.0069203935 0)
(0.81353386 -0.006925308 0)
(0.82464842 -0.0068737577 0)
(0.83557121 -0.006747635 0)
(0.84616682 -0.0065641443 0)
(0.85641931 -0.0063781204 0)
(0.86645146 -0.0062454658 0)
(0.87644885 -0.0061681588 0)
(0.88642093 -0.0060668829 0)
(0.89612797 -0.0058520796 0)
(0.90528598 -0.0055145299 0)
(0.91377764 -0.0051606298 0)
(0.92175338 -0.0049512572 0)
(0.92954124 -0.0049799457 0)
(0.9374882 -0.0051160999 0)
(0.94582057 -0.0052121119 0)
(0.95455914 -0.0050842092 0)
(0.96345477 -0.0046383332 0)
(0.9720933 -0.0038122952 0)
(0.97918656 -0.0030755174 0)
(0.9845064 -0.0027709528 0)
(0.98847469 -0.002647617 0)
(0.99162384 -0.0023593809 0)
(0.99443545 -0.0019571972 0)
(0.99775106 -0.0014363368 0)
(1.001969 -0.00024014187 0)
(1.0054939 0.0014424715 0)
(1.0071616 0.0024668824 0)
(1.0075964 0.0026167691 0)
(1.0072902 0.0023109325 0)
(1.0063378 0.0017899865 0)
(1.0049316 0.0012487607 0)
(1.0033838 0.00082808953 0)
(1.0018626 0.00019385524 0)
(1.001111 -0.00096992498 0)
(1.0014073 -0.0016721761 0)
(1.0027687 -0.002194998 0)
(1.0054744 -0.0026333851 0)
(1.0099578 -0.0031658873 0)
(1.0161189 -0.0037123847 0)
(1.023319 -0.004186642 0)
(1.030753 -0.0046338542 0)
(1.0376976 -0.0051671585 0)
(1.0438855 -0.0057777275 0)
(1.0498242 -0.0064183845 0)
(1.0567219 -0.0070573782 0)
(1.0658354 -0.0077387541 0)
(1.0780184 -0.0089433346 0)
(1.0933897 -0.010342149 0)
(1.1111066 -0.011598247 0)
(1.1285774 -0.013921272 0)
(1.1443373 -0.020972977 0)
(1.1554088 -0.02096906 0)
(1.116528 -0.013436413 0)
(0.96030402 -0.0073251122 0)
(1.0058181 0.087995525 0)
(0.59350397 0.096667232 0)
(0.44852375 0.063280962 0)
(0.36523848 0.036616135 0)
(0.30168028 0.022393508 0)
(0.25924165 0.015534924 0)
(0.22787804 0.01154234 0)
(0.20351651 0.0090907576 0)
(0.18389524 0.0070396314 0)
(0.1675797 0.0059531689 0)
(0.15378179 0.0051121591 0)
(0.14192259 0.0043817168 0)
(0.13156576 0.0040273357 0)
(0.12242919 0.0034361801 0)
(0.11430988 0.002999753 0)
(0.10704555 0.0026586514 0)
(0.1004975 0.0023832637 0)
(0.094564335 0.0021509658 0)
(0.089163177 0.0019510307 0)
(0.084224757 0.0017772107 0)
(0.079691982 0.0016249329 0)
(0.075517321 0.0014907639 0)
(0.071660514 0.0013719653 0)
(0.068087164 0.0012662819 0)
(0.064767721 0.0011718577 0)
(0.061676626 0.0010871575 0)
(0.058791701 0.0010108979 0)
(0.056093246 0.00094198309 0)
(0.053565456 0.00087945578 0)
(0.051188598 0.00082135221 0)
(0.048956544 0.00083479555 0)
(0.046858286 0.00073681444 0)
(0.044875902 0.00068334063 0)
(0.04300176 0.00064153729 0)
(0.041227969 0.00060447152 0)
(0.039547671 0.00057062532 0)
(0.037953998 0.00053947191 0)
(0.036440603 0.0005106784 0)
(0.035001793 0.00048400335 0)
(0.033632447 0.00045926405 0)
(0.032327549 0.00043639089 0)
(0.031082718 0.00041500448 0)
(0.029894306 0.00039502887 0)
(0.028758634 0.00037642215 0)
(0.027672507 0.00035911114 0)
(0.026631225 0.00034391976 0)
(0.02563575 0.00035927569 0)
(0.024682427 0.00031857516 0)
(0.023765158 0.0003010938 0)
(0.022883577 0.00028787839 0)
(0.022035785 0.00027595324 0)
(0.021220143 0.00026483649 0)
(0.02043484 0.00025439948 0)
(0.019678169 0.0002445755 0)
(0.018948393 0.00023524151 0)
(0.018244821 0.0002253554 0)
(0.017563916 0.00019671178 0)
(0.016905868 0.00020619614 0)
(0.016268963 0.00018312861 0)
(0.015651606 0.00019374914 0)
(0.015054688 0.00019014739 0)
(0.014475589 0.00018537521 0)
(0.013916995 0.00017976753 0)
(0.01337484 0.00017400002 0)
(0.012844235 0.00018132869 0)
(0.012328381 0.00016289775 0)
(0.011827893 0.00015745742 0)
(0.011340835 0.000153314 0)
(0.010865951 0.00014929662 0)
(0.010402801 0.00014542442 0)
(0.0099508613 0.00014173143 0)
(0.0095095631 0.00013821857 0)
(0.0090782907 0.00013482582 0)
(0.0086567397 0.000130927 0)
(0.0082435038 0.00011884221 0)
(0.0078385875 0.00012478009 0)
(0.0074422388 0.00012330741 0)
(0.0070532717 0.00012104074 0)
(0.0066713702 0.00011883701 0)
(0.0062959164 0.00011723479 0)
(0.005927286 0.00012158441 0)
(0.0055645982 0.00011348179 0)
(0.0052068497 0.00011084754 0)
(0.0048542588 0.00010874176 0)
(0.0045054532 0.00010708203 0)
(0.0041609891 0.00010581135 0)
(0.0038213692 0.00010498855 0)
(0.0034852864 0.00010442535 0)
(0.0031524099 0.00010699974 0)
(0.0028224396 0.0001025916 0)
(0.002495375 9.8675809e-05 0)
(0.0021706203 0.00010076235 0)
(0.0018476443 0.00010225765 0)
(0.0015263418 9.9681476e-05 0)
(0.0012062636 9.8969328e-05 0)
(0.00088908861 9.7944155e-05 0)
(0.00057962683 9.5469746e-05 0)
(0.00028507859 8.5911466e-05 0)
(5.9932698e-05 5.9477902e-05 0)
(0.0013429251 -0.0049317554 0)
(0.0056317658 -0.0063349142 0)
(0.010435234 -0.0065890087 0)
(0.015219065 -0.0066597745 0)
(0.020024802 -0.0066846283 0)
(0.024842187 -0.0067010183 0)
(0.029670397 -0.0067193831 0)
(0.034511095 -0.006741646 0)
(0.039366013 -0.0067686315 0)
(0.044236852 -0.0067993044 0)
(0.04911618 -0.0068236488 0)
(0.054010862 -0.0068472437 0)
(0.058924922 -0.0068723913 0)
(0.063862199 -0.0069004502 0)
(0.068826063 -0.0069321626 0)
(0.073819654 -0.0069679313 0)
(0.078846007 -0.0070079871 0)
(0.083908095 -0.0070524575 0)
(0.089008854 -0.0071014092 0)
(0.094151191 -0.0071548716 0)
(0.099338017 -0.0072128614 0)
(0.10457217 -0.0072753659 0)
(0.10985672 -0.0073424363 0)
(0.11519406 -0.0074139279 0)
(0.12058855 -0.0074902532 0)
(0.12603927 -0.0075702834 0)
(0.1315589 -0.007656896 0)
(0.13712719 -0.0077431666 0)
(0.1427994 -0.0078443272 0)
(0.14846761 -0.0079297282 0)
(0.15435532 -0.0080535648 0)
(0.1600553 -0.0081357629 0)
(0.16627985 -0.0082591407 0)
(0.17189818 -0.0084224242 0)
(0.17857591 -0.0083555517 0)
(0.18410392 -0.0089154231 0)
(0.19112026 -0.0082878371 0)
(0.19686427 -0.0094550024 0)
(0.20382623 -0.008512123 0)
(0.21016304 -0.0094086128 0)
(0.21688599 -0.0094321338 0)
(0.22386896 -0.0090827223 0)
(0.23041865 -0.0099344604 0)
(0.23784016 -0.0097387756 0)
(0.24480049 -0.0096927447 0)
(0.25179513 -0.010309395 0)
(0.25966038 -0.010248965 0)
(0.26695478 -0.010254353 0)
(0.27420837 -0.010742405 0)
(0.28239553 -0.010728202 0)
(0.29030872 -0.010902933 0)
(0.29795414 -0.011166235 0)
(0.30613848 -0.011269375 0)
(0.31457578 -0.011448772 0)
(0.32293068 -0.01172834 0)
(0.33144974 -0.011850086 0)
(0.3400293 -0.011898096 0)
(0.34867793 -0.012259496 0)
(0.35781381 -0.012489309 0)
(0.36704059 -0.012515186 0)
(0.37605633 -0.012720147 0)
(0.38528294 -0.012943349 0)
(0.39477946 -0.013122518 0)
(0.40444507 -0.013328064 0)
(0.41430021 -0.013507633 0)
(0.42418566 -0.013633384 0)
(0.43408942 -0.013796319 0)
(0.44421544 -0.014012262 0)
(0.45453929 -0.014188048 0)
(0.4649104 -0.014333415 0)
(0.47540068 -0.014473033 0)
(0.48608146 -0.014619336 0)
(0.49688867 -0.014814952 0)
(0.50781344 -0.015007025 0)
(0.51886498 -0.015145252 0)
(0.52998551 -0.015217147 0)
(0.54111842 -0.015297966 0)
(0.55231418 -0.015443132 0)
(0.56377661 -0.015627094 0)
(0.57542017 -0.01575908 0)
(0.58716005 -0.015859319 0)
(0.59893261 -0.015938977 0)
(0.61069001 -0.015946496 0)
(0.62244046 -0.015984888 0)
(0.63427657 -0.016135787 0)
(0.64630969 -0.016297319 0)
(0.65853156 -0.016348211 0)
(0.67071145 -0.01627275 0)
(0.68271488 -0.016103586 0)
(0.69457842 -0.015898982 0)
(0.70638434 -0.015871144 0)
(0.71844716 -0.01613578 0)
(0.73093134 -0.016412102 0)
(0.74352892 -0.016558033 0)
(0.75608745 -0.016564217 0)
(0.76853002 -0.016279557 0)
(0.7804821 -0.015840492 0)
(0.79209394 -0.015454261 0)
(0.80353513 -0.015051773 0)
(0.81495571 -0.014992429 0)
(0.82657261 -0.01507804 0)
(0.83847955 -0.015274643 0)
(0.85057604 -0.015433509 0)
(0.86283736 -0.015453632 0)
(0.8750189 -0.015307081 0)
(0.88677957 -0.014930109 0)
(0.89802145 -0.014428273 0)
(0.90890765 -0.014059764 0)
(0.9198512 -0.013971165 0)
(0.93129072 -0.013917045 0)
(0.94283062 -0.013725585 0)
(0.95386446 -0.013144195 0)
(0.96392074 -0.012280777 0)
(0.97305125 -0.011443466 0)
(0.98176267 -0.010950802 0)
(0.99071358 -0.01084738 0)
(1.0004242 -0.011259117 0)
(1.0110698 -0.01204572 0)
(1.0224646 -0.012886447 0)
(1.0340288 -0.013057558 0)
(1.0450503 -0.011983864 0)
(1.0547218 -0.0095048809 0)
(1.0621602 -0.0065470702 0)
(1.0670598 -0.0042806906 0)
(1.0703774 -0.0035671054 0)
(1.0738191 -0.004508874 0)
(1.0788626 -0.0063012345 0)
(1.0862466 -0.0073248283 0)
(1.095641 -0.006639329 0)
(1.1060422 -0.0048011914 0)
(1.1155833 -0.0027823376 0)
(1.1222782 -0.0010144465 0)
(1.1259163 0.00065637818 0)
(1.1268744 0.0019002572 0)
(1.1263534 0.0022837876 0)
(1.1252148 0.0020041365 0)
(1.1233919 0.0013422612 0)
(1.1213402 0.00028067149 0)
(1.1204466 -0.0018867318 0)
(1.1226817 -0.004556821 0)
(1.1273703 -0.0074337655 0)
(1.1335839 -0.0097289918 0)
(1.1401955 -0.010696105 0)
(1.1457509 -0.010140053 0)
(1.1495801 -0.0083537789 0)
(1.1520901 -0.0065676789 0)
(1.1552403 -0.0064462426 0)
(1.161364 -0.0092516157 0)
(1.1717754 -0.01414657 0)
(1.1870223 -0.019082854 0)
(1.2057016 -0.021814168 0)
(1.2207321 -0.025995274 0)
(1.2240715 -0.029972373 0)
(1.2055287 -0.014681821 0)
(1.1405742 0.010181136 0)
(1.0079046 0.021637439 0)
(1.0428869 0.3895098 0)
(0.76523853 0.32490644 0)
(0.57989686 0.27027976 0)
(0.5145852 0.17869666 0)
(0.44658219 0.11347629 0)
(0.39125316 0.07753794 0)
(0.34736544 0.056597396 0)
(0.31181928 0.043594162 0)
(0.28264572 0.034795383 0)
(0.25826929 0.028970226 0)
(0.23755939 0.024443931 0)
(0.21974394 0.020648205 0)
(0.20415381 0.018079785 0)
(0.19042539 0.015707115 0)
(0.17820834 0.014032846 0)
(0.16725185 0.01258697 0)
(0.15738544 0.011351278 0)
(0.1484369 0.010279212 0)
(0.14027378 0.0093495245 0)
(0.13279635 0.0085430811 0)
(0.12592068 0.0078378725 0)
(0.1195761 0.0072162995 0)
(0.11370313 0.0066653254 0)
(0.10825097 0.0061745084 0)
(0.10317597 0.0057352491 0)
(0.098440459 0.0053404789 0)
(0.094011668 0.0049843489 0)
(0.089861011 0.0046619638 0)
(0.085962974 0.0043692416 0)
(0.082296388 0.0041021832 0)
(0.078836923 0.0038677538 0)
(0.075577178 0.0035644176 0)
(0.072499725 0.0034101359 0)
(0.069581857 0.0032373461 0)
(0.066814281 0.0030669517 0)
(0.06418705 0.0029065216 0)
(0.061690362 0.0027573708 0)
(0.059314817 0.002619042 0)
(0.0570519 0.0024905082 0)
(0.054894008 0.0023708414 0)
(0.052834501 0.0022593417 0)
(0.050866221 0.0021560061 0)
(0.048983164 0.0020589448 0)
(0.047180776 0.0019678271 0)
(0.045453876 0.0018827072 0)
(0.043797752 0.0018033049 0)
(0.042206757 0.0017295015 0)
(0.040681874 0.0016207395 0)
(0.03921711 0.0015839407 0)
(0.037804807 0.0015284676 0)
(0.036444407 0.0014708665 0)
(0.035133528 0.0014155074 0)
(0.033869585 0.0013631246 0)
(0.03265 0.0013136668 0)
(0.03147237 0.0012669591 0)
(0.030334365 0.0012227235 0)
(0.029234102 0.0011812604 0)
(0.028168489 0.0011661815 0)
(0.027136997 0.0011089521 0)
(0.026136365 0.0010934274 0)
(0.025165624 0.0010403774 0)
(0.024225162 0.0010055309 0)
(0.023312508 0.00097540773 0)
(0.022423102 0.00092936716 0)
(0.021555823 0.00091730824 0)
(0.020718811 0.00089178218 0)
(0.019905234 0.00086862325 0)
(0.019107647 0.00084672784 0)
(0.018329611 0.0008253729 0)
(0.017570712 0.00080485361 0)
(0.016829949 0.00078532567 0)
(0.016106267 0.00076680689 0)
(0.015398727 0.00074926424 0)
(0.014706414 0.0007326636 0)
(0.014028507 0.0007176617 0)
(0.013364052 0.00071391731 0)
(0.012712453 0.00068992182 0)
(0.01207309 0.00067541854 0)
(0.011445167 0.00066304557 0)
(0.010828016 0.00065151997 0)
(0.010220879 0.00064004854 0)
(0.009623948 0.00062185997 0)
(0.0090359261 0.00061971085 0)
(0.0084554276 0.00061174105 0)
(0.0078824776 0.00060367009 0)
(0.0073176439 0.00060135799 0)
(0.0067596344 0.00058911194 0)
(0.0062068076 0.00058226775 0)
(0.005659656 0.00057612681 0)
(0.0051177717 0.00056716059 0)
(0.0045805947 0.00056630584 0)
(0.0040469163 0.00056262209 0)
(0.003516797 0.00055875817 0)
(0.0029904978 0.0005529008 0)
(0.0024668891 0.00055236297 0)
(0.001946308 0.00055031198 0)
(0.0014310309 0.00053986798 0)
(0.00092901974 0.00051616664 0)
(0.00045687437 0.00045409325 0)
(8.7208889e-05 0.00028571293 0)
(0.0013448088 -0.0083859452 0)
(0.0056170615 -0.010916103 0)
(0.010384588 -0.011346495 0)
(0.015144055 -0.011437562 0)
(0.019926572 -0.011470748 0)
(0.024719281 -0.011496861 0)
(0.029521713 -0.011526304 0)
(0.034335932 -0.011561322 0)
(0.039163972 -0.011602436 0)
(0.044007889 -0.011649381 0)
(0.048871126 -0.011703185 0)
(0.053756708 -0.011764433 0)
(0.058666682 -0.011832983 0)
(0.0636033 -0.011908737 0)
(0.068568974 -0.011991609 0)
(0.073566199 -0.012081512 0)
(0.07859752 -0.012178382 0)
(0.083665526 -0.012282181 0)
(0.088772835 -0.012392913 0)
(0.093922102 -0.0125106 0)
(0.099116018 -0.012635281 0)
(0.10435724 -0.012767007 0)
(0.10964872 -0.012905851 0)
(0.11499257 -0.013051873 0)
(0.12039352 -0.013205184 0)
(0.12584923 -0.013365804 0)
(0.13137597 -0.013533882 0)
(0.13694394 -0.013709503 0)
(0.1426318 -0.013892093 0)
(0.1482768 -0.014084543 0)
(0.15422293 -0.014277423 0)
(0.15981535 -0.014497364 0)
(0.16623615 -0.014677271 0)
(0.17153962 -0.01497359 0)
(0.17866404 -0.015045748 0)
(0.18364178 -0.015590737 0)
(0.19121122 -0.015284528 0)
(0.19652582 -0.016412755 0)
(0.20368171 -0.015489236 0)
(0.21002622 -0.017021966 0)
(0.2166641 -0.016393319 0)
(0.22365027 -0.016760036 0)
(0.23021299 -0.017799395 0)
(0.23772728 -0.017180928 0)
(0.24444643 -0.017663693 0)
(0.25158356 -0.01864437 0)
(0.25952211 -0.018350954 0)
(0.26662455 -0.018385211 0)
(0.27392464 -0.019427183 0)
(0.28214635 -0.019590101 0)
(0.28998082 -0.019649287 0)
(0.29772449 -0.019907904 0)
(0.30583481 -0.020523616 0)
(0.3141054 -0.02098397 0)
(0.32253195 -0.021281763 0)
(0.33125947 -0.021304878 0)
(0.3397383 -0.021520636 0)
(0.34810069 -0.022461721 0)
(0.35723953 -0.022930721 0)
(0.36665821 -0.022808008 0)
(0.37576155 -0.023072262 0)
(0.38493185 -0.023577134 0)
(0.39419167 -0.024013588 0)
(0.40364215 -0.024522326 0)
(0.41366916 -0.024920947 0)
(0.42387946 -0.025008285 0)
(0.43375257 -0.025252923 0)
(0.44355791 -0.025766133 0)
(0.45369992 -0.026164685 0)
(0.46414758 -0.026441456 0)
(0.47476612 -0.026769895 0)
(0.48551168 -0.027151965 0)
(0.49626026 -0.027563128 0)
(0.50712058 -0.027860925 0)
(0.5180951 -0.028075563 0)
(0.52921316 -0.02818147 0)
(0.54030328 -0.028390797 0)
(0.55150306 -0.028811015 0)
(0.56293811 -0.029261239 0)
(0.57453065 -0.029639895 0)
(0.58630783 -0.0298717 0)
(0.59817612 -0.029955471 0)
(0.61003961 -0.029916155 0)
(0.62180763 -0.030015156 0)
(0.63345532 -0.030334344 0)
(0.64526888 -0.030768421 0)
(0.65736621 -0.030967402 0)
(0.66952423 -0.030816965 0)
(0.681672 -0.030487782 0)
(0.69380486 -0.030267548 0)
(0.70585149 -0.030486727 0)
(0.71802372 -0.031192643 0)
(0.73048587 -0.031726941 0)
(0.74291564 -0.031900497 0)
(0.75529741 -0.031773297 0)
(0.76744848 -0.031000881 0)
(0.77910955 -0.030156934 0)
(0.79072691 -0.029544796 0)
(0.80237835 -0.029186952 0)
(0.81411481 -0.029380631 0)
(0.82599936 -0.029840106 0)
(0.83812592 -0.030321348 0)
(0.85043149 -0.030765413 0)
(0.86285639 -0.030815874 0)
(0.87506114 -0.030239851 0)
(0.88674827 -0.029237927 0)
(0.897844 -0.028186533 0)
(0.90828804 -0.027722987 0)
(0.91861308 -0.028115183 0)
(0.92950805 -0.028556805 0)
(0.94102335 -0.028048764 0)
(0.95272459 -0.026396292 0)
(0.96398007 -0.024151919 0)
(0.97418494 -0.022487105 0)
(0.98339217 -0.022244881 0)
(0.99248431 -0.023334707 0)
(1.0021311 -0.025107219 0)
(1.0123345 -0.026777261 0)
(1.02291 -0.027543745 0)
(1.0333724 -0.026863269 0)
(1.0432846 -0.024448527 0)
(1.052436 -0.020331684 0)
(1.0606568 -0.015339776 0)
(1.0677429 -0.011089255 0)
(1.0738107 -0.0092249876 0)
(1.079366 -0.01032837 0)
(1.085248 -0.01358996 0)
(1.0922939 -0.016966736 0)
(1.1007478 -0.018528168 0)
(1.1095566 -0.017231241 0)
(1.1170052 -0.01325724 0)
(1.1220363 -0.0078256584 0)
(1.1247413 -0.0025891161 0)
(1.1258595 0.0010400842 0)
(1.1260266 0.0027023878 0)
(1.1258389 0.0030694974 0)
(1.1253948 0.0024579142 0)
(1.1256517 0.00012560416 0)
(1.1279927 -0.004259256 0)
(1.1322805 -0.0097704989 0)
(1.1368151 -0.014198612 0)
(1.1404912 -0.0164986 0)
(1.1427979 -0.016053976 0)
(1.1442256 -0.013542002 0)
(1.1468221 -0.011077747 0)
(1.1529293 -0.011227401 0)
(1.1641708 -0.015823121 0)
(1.1810552 -0.023845837 0)
(1.2020066 -0.031807303 0)
(1.2223743 -0.040624411 0)
(1.2323661 -0.048366332 0)
(1.2283308 -0.042776528 0)
(1.193463 -0.0020490424 0)
(1.1018683 0.036963518 0)
(0.94352403 0.063009449 0)
(0.89010044 0.28504979 0)
(0.64183112 0.45379761 0)
(0.53524377 0.42871635 0)
(0.51663102 0.33204933 0)
(0.48343209 0.230755 0)
(0.44049562 0.16435921 0)
(0.39864324 0.12210349 0)
(0.36122993 0.094198742 0)
(0.32879558 0.075042004 0)
(0.30093074 0.061562153 0)
(0.27690496 0.051299375 0)
(0.25605936 0.043708053 0)
(0.23782713 0.038093203 0)
(0.22171216 0.033226459 0)
(0.2073909 0.029531266 0)
(0.19457704 0.026294497 0)
(0.18303987 0.02336222 0)
(0.17257055 0.021162928 0)
(0.16303389 0.019247181 0)
(0.15432581 0.017570706 0)
(0.14633165 0.016106889 0)
(0.13895968 0.014819713 0)
(0.13214002 0.013680419 0)
(0.12581365 0.012667164 0)
(0.11992891 0.011761933 0)
(0.11444105 0.01094969 0)
(0.10931133 0.010217972 0)
(0.10450593 0.0095563971 0)
(0.099995185 0.0089562478 0)
(0.095753204 0.0084101935 0)
(0.091756258 0.0079119958 0)
(0.08798692 0.0074589839 0)
(0.084423489 0.007032352 0)
(0.081045304 0.0066496998 0)
(0.077845857 0.0062954932 0)
(0.074810978 0.0059672327 0)
(0.071926648 0.005663098 0)
(0.069181813 0.0053810265 0)
(0.066566675 0.0051193021 0)
(0.064072349 0.0048755788 0)
(0.061690986 0.0046480316 0)
(0.059416605 0.0044355628 0)
(0.057239926 0.0042388735 0)
(0.055154441 0.0040537312 0)
(0.053157358 0.00387946 0)
(0.051242535 0.0037164858 0)
(0.049404441 0.0035641153 0)
(0.047639556 0.0034215861 0)
(0.045940915 0.0032825896 0)
(0.044304437 0.0031575432 0)
(0.042730647 0.0030382334 0)
(0.041214309 0.0029250372 0)
(0.039751581 0.0028180257 0)
(0.038339589 0.0027169029 0)
(0.036975786 0.0026213114 0)
(0.035657568 0.0025309979 0)
(0.034382455 0.0024456195 0)
(0.033146954 0.0023648707 0)
(0.031952188 0.0022888742 0)
(0.030794959 0.002215917 0)
(0.029671515 0.002149419 0)
(0.028581956 0.0020825423 0)
(0.027522737 0.0020206307 0)
(0.026493667 0.0019627539 0)
(0.025491942 0.0019260211 0)
(0.024516905 0.0018579167 0)
(0.023569282 0.0017864918 0)
(0.022646081 0.0017548904 0)
(0.021745473 0.0017127136 0)
(0.020866495 0.0016703206 0)
(0.020008204 0.0016297597 0)
(0.019169639 0.001591282 0)
(0.018349786 0.0015548487 0)
(0.017547626 0.0015203815 0)
(0.016762212 0.0014878041 0)
(0.015992389 0.0014570959 0)
(0.015238376 0.0014283058 0)
(0.014498866 0.001400689 0)
(0.013771957 0.0013747153 0)
(0.013057745 0.0013503655 0)
(0.012355607 0.0013275418 0)
(0.011664893 0.0013060471 0)
(0.010984245 0.0012850324 0)
(0.01031331 0.0012669441 0)
(0.0096520431 0.0012494467 0)
(0.0089992174 0.0012325751 0)
(0.0083548259 0.0012115522 0)
(0.007717831 0.0012030302 0)
(0.0070870406 0.0011909566 0)
(0.006462444 0.0011796466 0)
(0.0058436568 0.0011727093 0)
(0.005230069 0.0011596939 0)
(0.00462059 0.0011511585 0)
(0.0040151367 0.0011434844 0)
(0.0034134709 0.0011367222 0)
(0.0028150245 0.0011307454 0)
(0.002220548 0.0011220718 0)
(0.0016323242 0.0011028196 0)
(0.0010592461 0.0010534843 0)
(0.00052154622 0.00092782514 0)
(9.6809018e-05 0.00058329009 0)
(0.0013487549 -0.011837041 0)
(0.005617293 -0.015475363 0)
(0.010376047 -0.016088493 0)
(0.015130269 -0.016215769 0)
(0.019908799 -0.016261275 0)
(0.024697296 -0.016297143 0)
(0.029494957 -0.016337478 0)
(0.034304166 -0.016385294 0)
(0.039127255 -0.016441182 0)
(0.043966646 -0.016505171 0)
(0.048825054 -0.016576967 0)
(0.053705126 -0.016657 0)
(0.05860924 -0.016745448 0)
(0.063539776 -0.016842366 0)
(0.068499181 -0.016947793 0)
(0.073489947 -0.017061789 0)
(0.0785146 -0.01718444 0)
(0.083575697 -0.017315864 0)
(0.088675847 -0.017456204 0)
(0.093817699 -0.017605629 0)
(0.099003974 -0.01776432 0)
(0.10423732 -0.017932471 0)
(0.10952073 -0.018110235 0)
(0.11485637 -0.018297848 0)
(0.12024884 -0.018495259 0)
(0.1256963 -0.018703171 0)
(0.1312137 -0.018920089 0)
(0.1367749 -0.019150401 0)
(0.14244954 -0.019383416 0)
(0.14809598 -0.019644518 0)
(0.15401291 -0.019878007 0)
(0.15963404 -0.020197988 0)
(0.1659878 -0.020387089 0)
(0.17135701 -0.0208322 0)
(0.1784098 -0.020882913 0)
(0.18337478 -0.021592379 0)
(0.19108199 -0.021290542 0)
(0.1960564 -0.02256214 0)
(0.20367672 -0.021638281 0)
(0.20957439 -0.023368486 0)
(0.21642624 -0.022735871 0)
(0.22343713 -0.023172565 0)
(0.22988573 -0.024427068 0)
(0.23739068 -0.023828999 0)
(0.24417857 -0.024305551 0)
(0.25137122 -0.025490415 0)
(0.25914291 -0.025456821 0)
(0.26620315 -0.025313399 0)
(0.27377862 -0.026374352 0)
(0.28189814 -0.02702541 0)
(0.2895219 -0.027140268 0)
(0.29732313 -0.02716215 0)
(0.30561335 -0.027975633 0)
(0.31399903 -0.028678225 0)
(0.32214646 -0.029262363 0)
(0.33067394 -0.029267957 0)
(0.33943963 -0.029280111 0)
(0.34808881 -0.030306846 0)
(0.35703441 -0.031277688 0)
(0.36623166 -0.031496743 0)
(0.3752753 -0.03160433 0)
(0.38462054 -0.031776112 0)
(0.39409565 -0.032230309 0)
(0.40353343 -0.033403217 0)
(0.41345875 -0.03431743 0)
(0.42357796 -0.034162859 0)
(0.43343115 -0.034021505 0)
(0.44326988 -0.034571948 0)
(0.4534515 -0.035394434 0)
(0.46402642 -0.036024064 0)
(0.47482562 -0.036435214 0)
(0.48561377 -0.03676721 0)
(0.49621896 -0.037138886 0)
(0.50688215 -0.037500056 0)
(0.51774083 -0.037856729 0)
(0.52889001 -0.038054238 0)
(0.54021952 -0.038327955 0)
(0.55174846 -0.038786778 0)
(0.56336748 -0.039305635 0)
(0.57492884 -0.039860399 0)
(0.58651872 -0.040258814 0)
(0.59821765 -0.040440086 0)
(0.60998264 -0.040276097 0)
(0.62171446 -0.040146937 0)
(0.63344116 -0.04037476 0)
(0.64537774 -0.040977786 0)
(0.65758791 -0.041349544 0)
(0.66990553 -0.041396865 0)
(0.68235456 -0.041162843 0)
(0.69487469 -0.040855698 0)
(0.70703684 -0.040928289 0)
(0.71912482 -0.041640769 0)
(0.73126233 -0.042070233 0)
(0.74304033 -0.042167211 0)
(0.75489435 -0.041866359 0)
(0.76688992 -0.040788342 0)
(0.77867677 -0.039972422 0)
(0.79090447 -0.039455324 0)
(0.80349399 -0.039237587 0)
(0.81601023 -0.039469805 0)
(0.82850206 -0.039896876 0)
(0.84053642 -0.040480667 0)
(0.85222436 -0.040985746 0)
(0.86395459 -0.040925252 0)
(0.87546551 -0.03997567 0)
(0.88675184 -0.038303295 0)
(0.89810692 -0.036542366 0)
(0.90900636 -0.035589961 0)
(0.91930777 -0.035906611 0)
(0.92952025 -0.037024515 0)
(0.94016641 -0.037630779 0)
(0.95181635 -0.036770822 0)
(0.964267 -0.034272464 0)
(0.97634967 -0.031499416 0)
(0.98730139 -0.030025749 0)
(0.99734359 -0.030362061 0)
(1.0070375 -0.031964674 0)
(1.0166884 -0.033875555 0)
(1.0261408 -0.034763283 -2.7421776e-34)
(1.0349029 -0.033907425 -1.4487614e-29)
(1.0427581 -0.031261902 0)
(1.049999 -0.027131365 0)
(1.0572092 -0.02218365 0)
(1.0649013 -0.017838125 0)
(1.0733041 -0.015700315 0)
(1.0821967 -0.016634486 0)
(1.0912705 -0.019918327 0)
(1.1001187 -0.023406648 0)
(1.1081512 -0.024424938 -1.7650165e-34)
(1.1145919 -0.021702478 -1.0093286e-29)
(1.1189241 -0.01589937 -1.8812227e-34)
(1.1211362 -0.0090860509 -1.0917032e-29)
(1.1218322 -0.0031725956 0)
(1.1221111 0.00066235883 0)
(1.1227418 0.0022235714 0)
(1.1237945 0.0020867984 0)
(1.1254477 0.00046880573 0)
(1.128683 -0.0033645292 0)
(1.1339785 -0.0092692663 -2.7585396e-34)
(1.138295 -0.013938155 -1.6100481e-29)
(1.1403484 -0.01623624 0)
(1.1404785 -0.016608877 0)
(1.1414176 -0.015477236 0)
(1.1458033 -0.015275167 0)
(1.1551304 -0.018110798 0)
(1.1700711 -0.024549336 0)
(1.1895249 -0.034268393 0)
(1.2090159 -0.047496052 0)
(1.2205452 -0.058514865 0)
(1.2188321 -0.065645206 0)
(1.1884641 -0.036965685 1.4175249e-34)
(1.1213482 0.014242754 3.6807806e-29)
(0.9875583 0.063669289 0)
(0.79953267 0.12064441 0)
(0.72338331 0.3485112 0)
(0.48765393 0.47129319 0)
(0.41741027 0.50597541 0)
(0.43365642 0.452835 0)
(0.44599079 0.3436228 0)
(0.43366966 0.25990077 0)
(0.40842872 0.19993854 1.0780411e-33)
(0.37911635 0.15735248 1.0453976e-28)
(0.35007516 0.1262155 0)
(0.32307766 0.103387 0)
(0.29869066 0.086183186 2.0097388e-33)
(0.2769321 0.073360859 1.0439121e-28)
(0.2575262 0.063046449 0)
(0.24019623 0.054892481 0)
(0.22469736 0.048248573 0)
(0.21075669 0.042864173 0)
(0.1981951 0.03828721 1.1696075e-33)
(0.18682991 0.034640377 6.0023254e-29)
(0.1764348 0.031304416 0)
(0.16690855 0.028454869 0)
(0.15819015 0.026003473 0)
(0.1501656 0.023867264 0)
(0.14274333 0.021988818 0)
(0.13586081 0.02032627 0)
(0.12946393 0.018846283 0)
(0.12350353 0.01752208 0)
(0.11793654 0.016332035 0)
(0.11272549 0.015258365 0)
(0.10783762 0.014286232 0)
(0.10324404 0.013403138 0)
(0.098919528 0.012598496 0)
(0.094840899 0.011863172 0)
(0.09099033 0.011189923 0)
(0.087345515 0.010566601 0)
(0.083888782 0.0099957481 0)
(0.080612353 0.0094710168 0)
(0.077501804 0.008985411 0)
(0.074543608 0.0085349861 0)
(0.071726998 0.0081166456 0)
(0.069041502 0.0077285734 0)
(0.066477806 0.0073666202 0)
(0.064028671 0.0070278272 0)
(0.061688542 0.0067103838 0)
(0.059448753 0.0064188149 0)
(0.057301635 0.0061398728 0)
(0.055243752 0.0058802424 0)
(0.053269666 0.0056374127 0)
(0.051373686 0.0054093703 0)
(0.049551854 0.005194573 0)
(0.047797406 0.0049903106 0)
(0.04610697 0.0048004277 0)
(0.044480207 0.0046219202 0)
(0.042912152 0.0044529146 0)
(0.041399036 0.0042928892 0)
(0.039937843 0.004141423 0)
(0.038526005 0.003998024 0)
(0.037160968 0.0038625656 0)
(0.035839997 0.0037346748 0)
(0.034561227 0.003613805 -1.0920573e-34)
(0.033321261 0.0034751577 -5.8565882e-30)
(0.032117442 0.0033861254 0)
(0.030952274 0.0032866768 0)
(0.029822372 0.0031887328 0)
(0.028722579 0.0030955917 0)
(0.027652422 0.0030073493 0)
(0.026612621 0.0029239008 0)
(0.025601884 0.0028445033 0)
(0.024614974 0.0027661833 0)
(0.02365215 0.0026966734 0)
(0.022714499 0.0026295725 0)
(0.02179969 0.0025652776 0)
(0.020906187 0.0025041067 0)
(0.020032839 0.0024460604 0)
(0.019178658 0.0023910521 0)
(0.018342689 0.0023389871 0)
(0.017523975 0.0022897801 0)
(0.016721737 0.0022427886 -4.8726628e-35)
(0.01593461 0.00218806 -2.5910752e-30)
(0.015161938 0.0021562517 0)
(0.014403459 0.0021183025 0)
(0.013658092 0.0020814001 0)
(0.012925035 0.0020465921 0)
(0.012203569 0.0020137767 0)
(0.011492437 0.0019828146 0)
(0.010791366 0.0019545461 0)
(0.010100259 0.0019281594 0)
(0.0094180103 0.0019034068 0)
(0.0087438711 0.0018797471 0)
(0.0080772395 0.0018591577 0)
(0.0074176155 0.0018397568 0)
(0.0067643792 0.0018215681 -1.9215922e-35)
(0.0061168464 0.0018012424 -9.7172669e-31)
(0.0054745409 0.0017911777 1.5514376e-35)
(0.0048372073 0.0017825996 7.6864959e-31)