/*--------------------------------*- C++ -*----------------------------------*\
| =========                 |                                                 |
| \\      /  F ield         | OpenFOAM: The Open Source CFD Toolbox           |
|  \\    /   O peration     | Version:  2106                                  |
|   \\  /    A nd           | Website:  www.openfoam.com                      |
|    \\/     M anipulation  |                                                 |
\*---------------------------------------------------------------------------*/
FoamFile
{
    version     2.0;
    format      ascii;
    arch        "LSB;label=32;scalar=64";
    class       volVectorField;
    location    "0.004";
    object      U;
}
// * * * * * * * * * * * * * * * * * * * * * * * * * * * * * * * * * * * * * //

dimensions      [0 1 -1 0 0 0 0];

internalField   nonuniform List<vector> 
16384
(
(-0.012390779 0.012377021 0)
(-0.037143006 0.012347719 0)
(-0.061807301 0.012289181 0)
(-0.08632526 0.012201537 0)
(-0.11063881 0.012084983 0)
(-0.13469032 0.011939778 0)
(-0.15842276 0.011766248 0)
(-0.18177981 0.011564779 0)
(-0.20470598 0.011335825 0)
(-0.22714675 0.011079898 0)
(-0.24904871 0.010797574 0)
(-0.27035963 0.01048949 0)
(-0.29102863 0.010156342 0)
(-0.31100629 0.0097988831 0)
(-0.33024475 0.0094179265 0)
(-0.34869782 0.0090143392 0)
(-0.36632111 0.0085890431 0)
(-0.38307214 0.0081430126 0)
(-0.39891041 0.0076772726 0)
(-0.41379753 0.0071928971 0)
(-0.42769732 0.0066910064 0)
(-0.44057585 0.0061727655 0)
(-0.45240161 0.0056393812 0)
(-0.46314552 0.0050920998 0)
(-0.47278102 0.0045322044 0)
(-0.48128419 0.0039610122 0)
(-0.48863374 0.0033798712 0)
(-0.49481114 0.0027901581 0)
(-0.4998006 0.0021932726 0)
(-0.50358914 0.0015906192 0)
(-0.50616705 0.00098355335 0)
(-0.50752602 0.00037392783 0)
(-0.50766344 -0.00023728861 0)
(-0.50657692 -0.00084838801 0)
(-0.5042684 -0.0014579217 0)
(-0.5007425 -0.0020644084 0)
(-0.49600676 -0.0026663725 0)
(-0.49007171 -0.0032623457 0)
(-0.48295081 -0.0038508699 0)
(-0.4746604 -0.004430501 0)
(-0.46521973 -0.004999813 0)
(-0.45465085 -0.0055574016 0)
(-0.44297861 -0.0061018876 0)
(-0.43023061 -0.006631921 0)
(-0.41643709 -0.007146184 0)
(-0.40163092 -0.0076433947 0)
(-0.38584747 -0.0081223109 0)
(-0.36912459 -0.0085817329 0)
(-0.35150245 -0.0090205071 0)
(-0.3330235 -0.0094375293 0)
(-0.31373236 -0.0098317475 0)
(-0.29367567 -0.010202165 0)
(-0.27290204 -0.010547844 0)
(-0.25146187 -0.010867905 0)
(-0.22940728 -0.011161537 0)
(-0.20679194 -0.011427989 0)
(-0.18367095 -0.011666583 0)
(-0.16010071 -0.011876708 0)
(-0.13613875 -0.012057827 0)
(-0.11184362 -0.012209475 0)
(-0.087274733 -0.012331263 0)
(-0.062492182 -0.012422879 0)
(-0.037556623 -0.012484088 0)
(-0.012529101 -0.012514732 0)
(0.012529101 -0.012514732 0)
(0.037556623 -0.012484088 0)
(0.062492183 -0.012422879 0)
(0.087274733 -0.012331263 0)
(0.11184362 -0.012209475 0)
(0.13613875 -0.012057827 0)
(0.16010071 -0.011876708 0)
(0.18367095 -0.011666583 0)
(0.20679194 -0.011427989 0)
(0.22940728 -0.011161537 0)
(0.25146187 -0.010867905 0)
(0.27290204 -0.010547844 0)
(0.29367567 -0.010202165 0)
(0.31373236 -0.0098317475 0)
(0.3330235 -0.0094375293 0)
(0.35150245 -0.0090205071 0)
(0.36912459 -0.0085817329 0)
(0.38584747 -0.0081223109 0)
(0.40163092 -0.0076433947 0)
(0.41643709 -0.007146184 0)
(0.43023061 -0.006631921 0)
(0.44297861 -0.0061018876 0)
(0.45465085 -0.0055574016 0)
(0.46521973 -0.004999813 0)
(0.4746604 -0.004430501 0)
(0.48295081 -0.0038508699 0)
(0.49007171 -0.0032623457 0)
(0.49600676 -0.0026663725 0)
(0.5007425 -0.0020644084 0)
(0.5042684 -0.0014579217 0)
(0.50657692 -0.00084838801 0)
(0.50766344 -0.00023728861 0)
(0.50752602 0.00037392783 0)
(0.50616705 0.00098355335 0)
(0.50358914 0.0015906192 0)
(0.4998006 0.0021932726 0)
(0.49481114 0.0027901581 0)
(0.48863374 0.0033798712 0)
(0.48128419 0.0039610122 0)
(0.47278102 0.0045322044 0)
(0.46314552 0.0050920998 0)
(0.45240161 0.0056393812 0)
(0.44057585 0.0061727655 0)
(0.42769732 0.0066910064 0)
(0.41379753 0.0071928971 0)
(0.39891041 0.0076772726 0)
(0.38307214 0.0081430126 0)
(0.36632111 0.0085890431 0)
(0.34869782 0.0090143392 0)
(0.33024475 0.0094179265 0)
(0.31100629 0.0097988831 0)
(0.29102863 0.010156342 0)
(0.27035963 0.01048949 0)
(0.24904871 0.010797574 0)
(0.22714675 0.011079898 0)
(0.20470598 0.011335825 0)
(0.18177981 0.011564779 0)
(0.15842276 0.011766248 0)
(0.13469032 0.011939778 0)
(0.11063881 0.012084983 0)
(0.08632526 0.012201537 0)
(0.061807301 0.012289181 0)
(0.037143006 0.012347719 0)
(0.012390779 0.012377021 0)
(-0.0124339 0.037164034 0)
(-0.03727227 0.037076055 0)
(-0.06202242 0.036900294 0)
(-0.086625753 0.036637141 0)
(-0.111024 0.036287184 0)
(-0.13515935 0.035851203 0)
(-0.15897457 0.035330173 0)
(-0.18241317 0.034725259 0)
(-0.20541945 0.034037815 0)
(-0.22793874 0.033269384 0)
(-0.24991741 0.032421695 0)
(-0.27130309 0.031496657 0)
(-0.2920447 0.03049636 0)
(-0.31209266 0.029423068 0)
(-0.33139894 0.02827922 0)
(-0.34991719 0.027067418 0)
(-0.36760287 0.025790431 0)
(-0.38441333 0.024451184 0)
(-0.40030795 0.023052753 0)
(-0.41524817 0.021598364 0)
(-0.42919769 0.020091379 0)
(-0.44212247 0.018535297 0)
(-0.45399086 0.01693374 0)
(-0.46477366 0.015290451 0)
(-0.47444424 0.013609281 0)
(-0.48297855 0.011894186 0)
(-0.49035524 0.010149213 0)
(-0.49655567 0.0083784945 0)
(-0.50156402 0.0065862348 0)
(-0.50536726 0.0047766884 0)
(-0.50795538 0.0029541181 0)
(-0.50932097 0.0011230864 0)
(-0.50945997 -0.00071204625 0)
(-0.50837091 -0.0025469797 0)
(-0.50605551 -0.0043772323 0)
(-0.50251837 -0.0061983462 0)
(-0.49776708 -0.0080058868 0)
(-0.49181219 -0.0097954433 0)
(-0.48466717 -0.011562636 0)
(-0.47634844 -0.01330313 0)
(-0.46687529 -0.015012642 0)
(-0.45626985 -0.016686955 0)
(-0.44455705 -0.018321928 0)
(-0.43176457 -0.019913505 0)
(-0.41792276 -0.021457731 0)
(-0.4030646 -0.022950756 0)
(-0.38722559 -0.024388849 0)
(-0.37044369 -0.025768408 0)
(-0.35275922 -0.027085968 0)
(-0.3342148 -0.028338213 0)
(-0.31485517 -0.029521983 0)
(-0.29472716 -0.030634287 0)
(-0.27387956 -0.031672305 0)
(-0.25236294 -0.032633402 0)
(-0.23022961 -0.033515133 0)
(-0.20753344 -0.034315251 0)
(-0.18432974 -0.035031715 0)
(-0.1606751 -0.035662692 0)
(-0.13662728 -0.036206567 0)
(-0.11224504 -0.036661946 0)
(-0.087588021 -0.037027661 0)
(-0.062716534 -0.037302773 0)
(-0.037691464 -0.037486575 0)
(-0.012574087 -0.037578594 0)
(0.012574087 -0.037578594 0)
(0.037691464 -0.037486575 0)
(0.062716534 -0.037302773 0)
(0.087588021 -0.037027661 0)
(0.11224504 -0.036661946 0)
(0.13662728 -0.036206567 0)
(0.1606751 -0.035662692 0)
(0.18432974 -0.035031715 0)
(0.20753344 -0.034315251 0)
(0.23022961 -0.033515133 0)
(0.25236294 -0.032633402 0)
(0.27387956 -0.031672305 0)
(0.29472716 -0.030634287 0)
(0.31485517 -0.029521983 0)
(0.3342148 -0.028338213 0)
(0.35275922 -0.027085968 0)
(0.37044369 -0.025768408 0)
(0.38722559 -0.024388849 0)
(0.4030646 -0.022950756 0)
(0.41792276 -0.021457731 0)
(0.43176457 -0.019913505 0)
(0.44455705 -0.018321928 0)
(0.45626985 -0.016686955 0)
(0.46687529 -0.015012642 0)
(0.47634844 -0.01330313 0)
(0.48466717 -0.011562636 0)
(0.49181219 -0.0097954433 0)
(0.49776708 -0.0080058868 0)
(0.50251837 -0.0061983462 0)
(0.50605551 -0.0043772323 0)
(0.50837091 -0.0025469797 0)
(0.50945997 -0.00071204625 0)
(0.50932097 0.0011230864 0)
(0.50795538 0.0029541181 0)
(0.50536726 0.0047766884 0)
(0.50156402 0.0065862348 0)
(0.49655567 0.0083784945 0)
(0.49035524 0.010149213 0)
(0.48297855 0.011894186 0)
(0.47444424 0.013609281 0)
(0.46477366 0.015290451 0)
(0.45399086 0.01693374 0)
(0.44212247 0.018535297 0)
(0.42919769 0.020091379 0)
(0.41524817 0.021598364 0)
(0.40030795 0.023052753 0)
(0.38441333 0.024451184 0)
(0.36760287 0.025790431 0)
(0.34991719 0.027067418 0)
(0.33139894 0.02827922 0)
(0.31209266 0.029423068 0)
(0.2920447 0.03049636 0)
(0.27130309 0.031496657 0)
(0.24991741 0.032421695 0)
(0.22793874 0.033269384 0)
(0.20541945 0.034037815 0)
(0.18241317 0.034725259 0)
(0.15897457 0.035330173 0)
(0.13515935 0.035851203 0)
(0.111024 0.036287184 0)
(0.086625753 0.036637141 0)
(0.06202242 0.036900294 0)
(0.03727227 0.037076055 0)
(0.0124339 0.037164034 0)
(-0.01250546 0.062074359 0)
(-0.037486791 0.061927427 0)
(-0.062379421 0.061633891 0)
(-0.087124435 0.061194404 0)
(-0.11166325 0.060609945 0)
(-0.13593773 0.059881818 0)
(-0.15989034 0.059011648 0)
(-0.18346426 0.05800138 0)
(-0.20660351 0.056853276 0)
(-0.22925309 0.055569911 0)
(-0.25135909 0.054154168 0)
(-0.27286883 0.052609238 0)
(-0.29373095 0.050938607 0)
(-0.31389559 0.049146056 0)
(-0.33331443 0.047235654 0)
(-0.35194086 0.045211749 0)
(-0.36973008 0.04307896 0)
(-0.38663919 0.040842172 0)
(-0.40262731 0.038506523 0)
(-0.41765568 0.036077395 0)
(-0.43168776 0.033560407 0)
(-0.44468929 0.030961397 0)
(-0.45662843 0.028286416 0)
(-0.4674758 0.025541713 0)
(-0.47720459 0.022733722 0)
(-0.4857906 0.019869047 0)
(-0.49321233 0.016954447 0)
(-0.49945103 0.013996822 0)
(-0.50449074 0.011003194 0)
(-0.50831838 0.0079806863 0)
(-0.51092377 0.0049365065 0)
(-0.51229962 0.00187806 0)
(-0.5124416 -0.0011873263 0)
(-0.51134834 -0.0042523259 0)
(-0.50902152 -0.007309509 0)
(-0.50546575 -0.010351446 0)
(-0.50068865 -0.013370729 0)
(-0.49470082 -0.016359991 0)
(-0.48751579 -0.019311914 0)
(-0.47915005 -0.022219254 0)
(-0.469623 -0.025074858 0)
(-0.45895689 -0.02787168 0)
(-0.44717677 -0.030602801 0)
(-0.43431047 -0.033261449 0)
(-0.42038852 -0.035841011 0)
(-0.40544408 -0.038335057 0)
(-0.38951284 -0.040737353 0)
(-0.37263299 -0.043041881 0)
(-0.35484509 -0.045242852 0)
(-0.33619198 -0.047334724 0)
(-0.3167187 -0.04931222 0)
(-0.29647233 -0.051170338 0)
(-0.27550195 -0.052904368 0)
(-0.25385844 -0.054509906 0)
(-0.23159444 -0.055982867 0)
(-0.20876412 -0.057319497 0)
(-0.18542313 -0.058516381 0)
(-0.16162842 -0.059570459 0)
(-0.1374381 -0.060479031 0)
(-0.11291129 -0.061239768 0)
(-0.088107987 -0.061850717 0)
(-0.063088893 -0.062310308 0)
(-0.037915262 -0.062617361 0)
(-0.01264875 -0.062771085 0)
(0.01264875 -0.062771085 0)
(0.037915262 -0.062617361 0)
(0.063088893 -0.062310308 0)
(0.088107987 -0.061850717 0)
(0.11291129 -0.061239768 0)
(0.1374381 -0.060479031 0)
(0.16162842 -0.059570459 0)
(0.18542313 -0.058516381 0)
(0.20876412 -0.057319497 0)
(0.23159444 -0.055982867 0)
(0.25385844 -0.054509906 0)
(0.27550195 -0.052904368 0)
(0.29647233 -0.051170338 0)
(0.3167187 -0.04931222 0)
(0.33619198 -0.047334724 0)
(0.35484509 -0.045242852 0)
(0.37263299 -0.043041881 0)
(0.38951284 -0.040737353 0)
(0.40544408 -0.038335057 0)
(0.42038852 -0.035841011 0)
(0.43431047 -0.033261449 0)
(0.44717677 -0.030602801 0)
(0.45895689 -0.02787168 0)
(0.469623 -0.025074858 0)
(0.47915005 -0.022219254 0)
(0.48751579 -0.019311914 0)
(0.49470082 -0.016359991 0)
(0.50068865 -0.013370729 0)
(0.50546575 -0.010351446 0)
(0.50902152 -0.007309509 0)
(0.51134834 -0.0042523259 0)
(0.5124416 -0.0011873263 0)
(0.51229962 0.00187806 0)
(0.51092377 0.0049365065 0)
(0.50831838 0.0079806863 0)
(0.50449074 0.011003194 0)
(0.49945103 0.013996822 0)
(0.49321233 0.016954447 0)
(0.4857906 0.019869047 0)
(0.47720459 0.022733722 0)
(0.4674758 0.025541713 0)
(0.45662843 0.028286416 0)
(0.44468929 0.030961397 0)
(0.43168776 0.033560407 0)
(0.41765568 0.036077395 0)
(0.40262731 0.038506523 0)
(0.38663919 0.040842172 0)
(0.36973008 0.04307896 0)
(0.35194086 0.045211749 0)
(0.33331443 0.047235654 0)
(0.31389559 0.049146056 0)
(0.29373095 0.050938607 0)
(0.27286883 0.052609238 0)
(0.25135909 0.054154168 0)
(0.22925309 0.055569911 0)
(0.20660351 0.056853276 0)
(0.18346426 0.05800138 0)
(0.15989034 0.059011648 0)
(0.13593773 0.059881818 0)
(0.11166325 0.060609945 0)
(0.087124435 0.061194404 0)
(0.062379421 0.061633891 0)
(0.037486791 0.061927427 0)
(0.01250546 0.062074359 0)
(-0.012605531 0.087156571 0)
(-0.03778678 0.086950302 0)
(-0.062878659 0.086538224 0)
(-0.087821806 0.085921252 0)
(-0.11255719 0.08510076 0)
(-0.13702624 0.084078577 0)
(-0.16117099 0.082856982 0)
(-0.18493416 0.081438704 0)
(-0.20825937 0.079826915 0)
(-0.23109117 0.078025229 0)
(-0.25337525 0.07603769 0)
(-0.2750585 0.073868773 0)
(-0.29608917 0.071523369 0)
(-0.316417 0.069006785 0)
(-0.33599328 0.066324728 0)
(-0.35477104 0.063483299 0)
(-0.37270509 0.060488981 0)
(-0.3897522 0.057348627 0)
(-0.40587113 0.054069449 0)
(-0.42102282 0.050658999 0)
(-0.43517039 0.047125163 0)
(-0.4482793 0.043476137 0)
(-0.46031744 0.039720413 0)
(-0.47125517 0.035866763 0)
(-0.48106543 0.031924219 0)
(-0.4897238 0.027902051 0)
(-0.49720858 0.023809748 0)
(-0.50350084 0.019656999 0)
(-0.50858448 0.015453665 0)
(-0.51244627 0.011209758 0)
(-0.51507592 0.0069354253 0)
(-0.51646605 0.0026409621 0)
(-0.51661227 -0.0016633135 0)
(-0.51551318 -0.0059670495 0)
(-0.51317043 -0.010259831 0)
(-0.50958865 -0.014531234 0)
(-0.5047755 -0.018770862 0)
(-0.49874163 -0.022968366 0)
(-0.49150067 -0.02711347 0)
(-0.48306922 -0.031196001 0)
(-0.47346681 -0.035205913 0)
(-0.46271585 -0.03913331 0)
(-0.45084159 -0.042968476 0)
(-0.43787206 -0.046701898 0)
(-0.42383803 -0.050324289 0)
(-0.40877291 -0.053826617 0)
(-0.39271268 -0.057200126 0)
(-0.37569583 -0.060436362 0)
(-0.35776324 -0.063527194 0)
(-0.33895811 -0.066464838 0)
(-0.31932583 -0.069241878 0)
(-0.29891389 -0.071851288 0)
(-0.27777175 -0.074286452 0)
(-0.25595074 -0.076541183 0)
(-0.23350392 -0.07860974 0)
(-0.21048592 -0.080486848 0)
(-0.18695287 -0.08216771 0)
(-0.1629622 -0.083648026 0)
(-0.13857251 -0.084924003 0)
(-0.11384343 -0.085992367 0)
(-0.088835474 -0.086850373 0)
(-0.063609862 -0.087495817 0)
(-0.038228378 -0.087927038 0)
(-0.012753211 -0.088142927 0)
(0.012753211 -0.088142927 0)
(0.038228378 -0.087927038 0)
(0.063609862 -0.087495817 0)
(0.088835474 -0.086850373 0)
(0.11384343 -0.085992367 0)
(0.13857251 -0.084924003 0)
(0.1629622 -0.083648026 0)
(0.18695287 -0.08216771 0)
(0.21048592 -0.080486848 0)
(0.23350392 -0.07860974 0)
(0.25595074 -0.076541183 0)
(0.27777175 -0.074286452 0)
(0.29891389 -0.071851288 0)
(0.31932583 -0.069241878 0)
(0.33895811 -0.066464838 0)
(0.35776324 -0.063527194 0)
(0.37569583 -0.060436362 0)
(0.39271268 -0.057200126 0)
(0.40877291 -0.053826617 0)
(0.42383803 -0.050324289 0)
(0.43787206 -0.046701898 0)
(0.45084159 -0.042968476 0)
(0.46271585 -0.03913331 0)
(0.47346681 -0.035205913 0)
(0.48306922 -0.031196001 0)
(0.49150067 -0.02711347 0)
(0.49874163 -0.022968366 0)
(0.5047755 -0.018770862 0)
(0.50958865 -0.014531234 0)
(0.51317043 -0.010259831 0)
(0.51551318 -0.0059670495 0)
(0.51661227 -0.0016633135 0)
(0.51646605 0.0026409621 0)
(0.51507592 0.0069354253 0)
(0.51244627 0.011209758 0)
(0.50858448 0.015453665 0)
(0.50350084 0.019656999 0)
(0.49720858 0.023809748 0)
(0.4897238 0.027902051 0)
(0.48106543 0.031924219 0)
(0.47125517 0.035866763 0)
(0.46031744 0.039720413 0)
(0.4482793 0.043476137 0)
(0.43517039 0.047125163 0)
(0.42102282 0.050658999 0)
(0.40587113 0.054069449 0)
(0.3897522 0.057348627 0)
(0.37270509 0.060488981 0)
(0.35477104 0.063483299 0)
(0.33599328 0.066324728 0)
(0.316417 0.069006785 0)
(0.29608917 0.071523369 0)
(0.2750585 0.073868773 0)
(0.25337525 0.07603769 0)
(0.23109117 0.078025229 0)
(0.20825937 0.079826915 0)
(0.18493416 0.081438704 0)
(0.16117099 0.082856982 0)
(0.13702624 0.084078577 0)
(0.11255719 0.08510076 0)
(0.087821806 0.085921252 0)
(0.062878659 0.086538224 0)
(0.03778678 0.086950302 0)
(0.012605531 0.087156571 0)
(-0.012734293 0.11246694 0)
(-0.03817278 0.11220083 0)
(-0.063521035 0.11166919 0)
(-0.088719124 0.11087321 0)
(-0.11370745 0.10981465 0)
(-0.13842687 0.10849588 0)
(-0.16281884 0.10691983 0)
(-0.18682555 0.10509002 0)
(-0.21039005 0.10301054 0)
(-0.23345635 0.10068604 0)
(-0.25596958 0.098121742 0)
(-0.27787614 0.095323408 0)
(-0.29912373 0.092297346 0)
(-0.31966159 0.089050397 0)
(-0.33944052 0.085589918 0)
(-0.35841305 0.081923776 0)
(-0.37653353 0.07806033 0)
(-0.39375827 0.074008417 0)
(-0.41004561 0.069777336 0)
(-0.42535605 0.06537683 0)
(-0.43965232 0.060817065 0)
(-0.4528995 0.056108616 0)
(-0.46506512 0.051262436 0)
(-0.47611921 0.04628984 0)
(-0.48603439 0.04120248 0)
(-0.49478597 0.036012317 0)
(-0.50235198 0.030731594 0)
(-0.50871326 0.025372812 0)
(-0.51385351 0.019948698 0)
(-0.51775933 0.014472177 0)
(-0.52042028 0.0089563453 0)
(-0.52182887 0.003414451 0)
(-0.52198062 -0.0021401791 0)
(-0.5208741 -0.0076941576 0)
(-0.51851093 -0.013234046 0)
(-0.51489575 -0.018746399 0)
(-0.51003626 -0.024217795 0)
(-0.5039432 -0.029634879 0)
(-0.49663031 -0.03498439 0)
(-0.48811434 -0.040253196 0)
(-0.47841498 -0.045428329 0)
(-0.46755487 -0.050497017 0)
(-0.45555947 -0.055446717 0)
(-0.44245711 -0.060265147 0)
(-0.42827885 -0.064940321 0)
(-0.41305842 -0.069460578 0)
(-0.39683218 -0.073814613 0)
(-0.379639 -0.077991512 0)
(-0.36152019 -0.081980776 0)
(-0.34251937 -0.085772355 0)
(-0.32268243 -0.089356672 0)
(-0.30205735 -0.092724656 0)
(-0.28069411 -0.095867763 0)
(-0.25864459 -0.098778 0)
(-0.23596241 -0.10144796 0)
(-0.21270279 -0.10387082 0)
(-0.18892247 -0.10604039 0)
(-0.1646795 -0.10795111 0)
(-0.14003312 -0.10959809 0)
(-0.11504361 -0.1109771 0)
(-0.089772157 -0.11208459 0)
(-0.064280643 -0.11291771 0)
(-0.038631536 -0.11347432 0)
(-0.012887712 -0.11375298 0)
(0.012887712 -0.11375298 0)
(0.038631536 -0.11347432 0)
(0.064280643 -0.11291771 0)
(0.089772157 -0.11208459 0)
(0.11504361 -0.1109771 0)
(0.14003312 -0.10959809 0)
(0.1646795 -0.10795111 0)
(0.18892247 -0.10604039 0)
(0.21270279 -0.10387082 0)
(0.23596241 -0.10144796 0)
(0.25864459 -0.098778 0)
(0.28069411 -0.095867763 0)
(0.30205735 -0.092724656 0)
(0.32268243 -0.089356672 0)
(0.34251937 -0.085772355 0)
(0.36152019 -0.081980776 0)
(0.379639 -0.077991512 0)
(0.39683218 -0.073814613 0)
(0.41305842 -0.069460578 0)
(0.42827885 -0.064940321 0)
(0.44245711 -0.060265147 0)
(0.45555947 -0.055446717 0)
(0.46755487 -0.050497017 0)
(0.47841498 -0.045428329 0)
(0.48811434 -0.040253196 0)
(0.49663031 -0.03498439 0)
(0.5039432 -0.029634879 0)
(0.51003626 -0.024217795 0)
(0.51489575 -0.018746399 0)
(0.51851093 -0.013234046 0)
(0.5208741 -0.0076941576 0)
(0.52198062 -0.0021401791 0)
(0.52182887 0.003414451 0)
(0.52042028 0.0089563453 0)
(0.51775933 0.014472177 0)
(0.51385351 0.019948698 0)
(0.50871326 0.025372812 0)
(0.50235198 0.030731594 0)
(0.49478597 0.036012317 0)
(0.48603439 0.04120248 0)
(0.47611921 0.04628984 0)
(0.46506512 0.051262436 0)
(0.4528995 0.056108616 0)
(0.43965232 0.060817065 0)
(0.42535605 0.06537683 0)
(0.41004561 0.069777336 0)
(0.39375827 0.074008417 0)
(0.37653353 0.07806033 0)
(0.35841305 0.081923776 0)
(0.33944052 0.085589918 0)
(0.31966159 0.089050397 0)
(0.29912373 0.092297346 0)
(0.27787614 0.095323408 0)
(0.25596958 0.098121742 0)
(0.23345635 0.10068604 0)
(0.21039005 0.10301054 0)
(0.18682555 0.10509002 0)
(0.16281884 0.10691983 0)
(0.13842687 0.10849588 0)
(0.11370745 0.10981465 0)
(0.088719124 0.11087321 0)
(0.063521035 0.11166919 0)
(0.03817278 0.11220083 0)
(0.012734293 0.11246694 0)
(-0.012892029 0.13806341 0)
(-0.038645637 0.13773681 0)
(-0.064307959 0.13708434 0)
(-0.089818362 0.13610744 0)
(-0.11511655 0.13480828 0)
(-0.14014268 0.13318975 0)
(-0.16483754 0.13125545 0)
(-0.18914261 0.1290097 0)
(-0.21300027 0.1264575 0)
(-0.23635387 0.12360456 0)
(-0.25914789 0.12045729 0)
(-0.28132805 0.11702273 0)
(-0.30284145 0.11330864 0)
(-0.32363667 0.10932339 0)
(-0.34366392 0.10507602 0)
(-0.36287514 0.10057615 0)
(-0.38122411 0.09583406 0)
(-0.39866657 0.090860572 0)
(-0.41516032 0.085667095 0)
(-0.43066535 0.080265583 0)
(-0.44514391 0.074668509 0)
(-0.45856061 0.068888844 0)
(-0.47088254 0.062940031 0)
(-0.4820793 0.056835954 0)
(-0.49212316 0.050590912 0)
(-0.50098906 0.044219584 0)
(-0.50865472 0.037737 0)
(-0.5151007 0.031158503 0)
(-0.52031044 0.024499718 0)
(-0.52427033 0.017776512 0)
(-0.52696974 0.011004962 0)
(-0.52840106 0.0042013176 0)
(-0.52855971 -0.0026180558 0)
(-0.52744419 -0.0094367094 0)
(-0.52505609 -0.016238143 0)
(-0.52140008 -0.023005847 0)
(-0.51648391 -0.029723346 0)
(-0.51031841 -0.036374239 0)
(-0.50291747 -0.042942243 0)
(-0.494298 -0.049411232 0)
(-0.48447992 -0.055765283 0)
(-0.4734861 -0.061988709 0)
(-0.46134233 -0.068066106 0)
(-0.44807724 -0.073982392 0)
(-0.43372226 -0.079722843 0)
(-0.41831154 -0.085273138 0)
(-0.40188188 -0.090619391 0)
(-0.38447262 -0.095748194 0)
(-0.36612559 -0.10064665 0)
(-0.34688496 -0.10530241 0)
(-0.32679719 -0.10970372 0)
(-0.30591087 -0.11383942 0)
(-0.28427663 -0.11769902 0)
(-0.26194701 -0.12127269 0)
(-0.23897633 -0.12455134 0)
(-0.21542053 -0.12752658 0)
(-0.19133709 -0.13019079 0)
(-0.16678483 -0.13253717 0)
(-0.14182377 -0.13455967 0)
(-0.11651501 -0.13625311 0)
(-0.090920508 -0.13761313 0)
(-0.065103006 -0.13863622 0)
(-0.039125801 -0.13931975 0)
(-0.013052608 -0.13966195 0)
(0.013052608 -0.13966195 0)
(0.039125801 -0.13931975 0)
(0.065103006 -0.13863622 0)
(0.090920508 -0.13761313 0)
(0.11651501 -0.13625311 0)
(0.14182377 -0.13455967 0)
(0.16678483 -0.13253717 0)
(0.19133709 -0.13019079 0)
(0.21542053 -0.12752658 0)
(0.23897633 -0.12455134 0)
(0.26194701 -0.12127269 0)
(0.28427663 -0.11769902 0)
(0.30591087 -0.11383942 0)
(0.32679719 -0.10970372 0)
(0.34688496 -0.10530241 0)
(0.36612559 -0.10064665 0)
(0.38447262 -0.095748194 0)
(0.40188188 -0.090619391 0)
(0.41831154 -0.085273138 0)
(0.43372226 -0.079722843 0)
(0.44807724 -0.073982392 0)
(0.46134233 -0.068066106 0)
(0.4734861 -0.061988709 0)
(0.48447992 -0.055765283 0)
(0.494298 -0.049411232 0)
(0.50291747 -0.042942243 0)
(0.51031841 -0.036374239 0)
(0.51648391 -0.029723346 0)
(0.52140008 -0.023005847 0)
(0.52505609 -0.016238143 0)
(0.52744419 -0.0094367094 0)
(0.52855971 -0.0026180558 0)
(0.52840106 0.0042013176 0)
(0.52696974 0.011004962 0)
(0.52427033 0.017776512 0)
(0.52031044 0.024499718 0)
(0.5151007 0.031158503 0)
(0.50865472 0.037737 0)
(0.50098906 0.044219584 0)
(0.49212316 0.050590912 0)
(0.4820793 0.056835954 0)
(0.47088254 0.062940031 0)
(0.45856061 0.068888844 0)
(0.44514391 0.074668509 0)
(0.43066535 0.080265583 0)
(0.41516032 0.085667095 0)
(0.39866657 0.090860572 0)
(0.38122411 0.09583406 0)
(0.36287514 0.10057615 0)
(0.34366392 0.10507602 0)
(0.32363667 0.10932339 0)
(0.30284145 0.11330864 0)
(0.28132805 0.11702273 0)
(0.25914789 0.12045729 0)
(0.23635387 0.12360456 0)
(0.21300027 0.1264575 0)
(0.18914261 0.1290097 0)
(0.16483754 0.13125545 0)
(0.14014268 0.13318975 0)
(0.11511655 0.13480828 0)
(0.089818362 0.13610744 0)
(0.064307959 0.13708434 0)
(0.038645637 0.13773681 0)
(0.012892029 0.13806341 0)
(-0.013079115 0.16400432 0)
(-0.039206478 0.16361647 0)
(-0.065241309 0.16284163 0)
(-0.091122144 0.16168151 0)
(-0.11678786 0.16013869 0)
(-0.1421778 0.15821659 0)
(-0.16723191 0.15591949 0)
(-0.1918909 0.15325249 0)
(-0.21609632 0.15022154 0)
(-0.23979073 0.14683341 0)
(-0.26291784 0.14309567 0)
(-0.2854226 0.13901672 0)
(-0.30725134 0.13460574 0)
(-0.32835192 0.12987265 0)
(-0.34867382 0.12482818 0)
(-0.36816827 0.11948376 0)
(-0.38678837 0.11385157 0)
(-0.4044892 0.10794445 0)
(-0.42122794 0.10177596 0)
(-0.43696394 0.095360266 0)
(-0.45165888 0.088712185 0)
(-0.46527682 0.081847113 0)
(-0.47778432 0.07478101 0)
(-0.4891505 0.067530363 0)
(-0.49934717 0.060112149 0)
(-0.50834885 0.052543802 0)
(-0.51613289 0.044843172 0)
(-0.52267951 0.037028484 0)
(-0.52797185 0.029118297 0)
(-0.53199604 0.021131461 0)
(-0.53474125 0.013087073 0)
(-0.53619969 0.0050044291 0)
(-0.53636667 -0.0030970234 0)
(-0.53524062 -0.011197737 0)
(-0.53282309 -0.019278106 0)
(-0.52911877 -0.027318514 0)
(-0.52413548 -0.035299383 0)
(-0.51788416 -0.043201227 0)
(-0.51037885 -0.051004697 0)
(-0.50163669 -0.05869063 0)
(-0.49167783 -0.066240101 0)
(-0.48052546 -0.073634471 0)
(-0.4682057 -0.080855431 0)
(-0.45474759 -0.087885055 0)
(-0.44018299 -0.094705844 0)
(-0.42454652 -0.10130077 0)
(-0.40787551 -0.10765334 0)
(-0.39020988 -0.1137476 0)
(-0.37159205 -0.11956822 0)
(-0.35206685 -0.12510053 0)
(-0.33168142 -0.13033054 0)
(-0.31048507 -0.13524498 0)
(-0.2885292 -0.13983138 0)
(-0.26586714 -0.14407806 0)
(-0.24255404 -0.14797418 0)
(-0.21864669 -0.15150979 0)
(-0.19420346 -0.15467582 0)
(-0.16928407 -0.15746416 0)
(-0.14394947 -0.15986765 0)
(-0.11826171 -0.16188009 0)
(-0.092283737 -0.16349631 0)
(-0.066079254 -0.16471213 0)
(-0.039712556 -0.16552443 0)
(-0.013248361 -0.16593111 0)
(0.013248361 -0.16593111 0)
(0.039712556 -0.16552443 0)
(0.066079254 -0.16471213 0)
(0.092283737 -0.16349631 0)
(0.11826171 -0.16188009 0)
(0.14394947 -0.15986765 0)
(0.16928407 -0.15746416 0)
(0.19420346 -0.15467582 0)
(0.21864669 -0.15150979 0)
(0.24255404 -0.14797418 0)
(0.26586714 -0.14407806 0)
(0.2885292 -0.13983138 0)
(0.31048507 -0.13524498 0)
(0.33168142 -0.13033054 0)
(0.35206685 -0.12510053 0)
(0.37159205 -0.11956822 0)
(0.39020988 -0.1137476 0)
(0.40787551 -0.10765334 0)
(0.42454652 -0.10130077 0)
(0.44018299 -0.094705844 0)
(0.45474759 -0.087885055 0)
(0.4682057 -0.080855431 0)
(0.48052546 -0.073634471 0)
(0.49167783 -0.066240101 0)
(0.50163669 -0.05869063 0)
(0.51037885 -0.051004697 0)
(0.51788416 -0.043201227 0)
(0.52413548 -0.035299383 0)
(0.52911877 -0.027318514 0)
(0.53282309 -0.019278106 0)
(0.53524062 -0.011197737 0)
(0.53636667 -0.0030970234 0)
(0.53619969 0.0050044291 0)
(0.53474125 0.013087073 0)
(0.53199604 0.021131461 0)
(0.52797185 0.029118297 0)
(0.52267951 0.037028484 0)
(0.51613289 0.044843172 0)
(0.50834885 0.052543802 0)
(0.49934717 0.060112149 0)
(0.4891505 0.067530363 0)
(0.47778432 0.07478101 0)
(0.46527682 0.081847113 0)
(0.45165888 0.088712185 0)
(0.43696394 0.095360266 0)
(0.42122794 0.10177596 0)
(0.4044892 0.10794445 0)
(0.38678837 0.11385157 0)
(0.36816827 0.11948376 0)
(0.34867382 0.12482818 0)
(0.32835192 0.12987265 0)
(0.30725134 0.13460574 0)
(0.2854226 0.13901672 0)
(0.26291784 0.14309567 0)
(0.23979073 0.14683341 0)
(0.21609632 0.15022154 0)
(0.1918909 0.15325249 0)
(0.16723191 0.15591949 0)
(0.1421778 0.15821659 0)
(0.11678786 0.16013869 0)
(0.091122144 0.16168151 0)
(0.065241309 0.16284163 0)
(0.039206478 0.16361647 0)
(0.013079115 0.16400432 0)
(-0.013296013 0.19034874 0)
(-0.03985669 0.18989874 0)
(-0.066323392 0.18899974 0)
(-0.092633696 0.18765372 0)
(-0.11872552 0.18586367 0)
(-0.14453726 0.18363355 0)
(-0.17000792 0.18096831 0)
(-0.19507726 0.17787386 0)
(-0.21968591 0.17435709 0)
(-0.24377552 0.17042585 0)
(-0.26728888 0.16608892 0)
(-0.29017005 0.16135601 0)
(-0.3123645 0.15623775 0)
(-0.33381923 0.15074567 0)
(-0.35448288 0.14489218 0)
(-0.37430585 0.13869053 0)
(-0.39324047 0.13215482 0)
(-0.41124104 0.12529998 0)
(-0.428264 0.11814168 0)
(-0.444268 0.11069639 0)
(-0.45921402 0.10298126 0)
(-0.4730655 0.095014167 0)
(-0.48578838 0.086813609 0)
(-0.49735123 0.078398716 0)
(-0.5077253 0.069789186 0)
(-0.51688465 0.061005245 0)
(-0.52480618 0.052067607 0)
(-0.53146971 0.042997421 0)
(-0.53685805 0.033816226 0)
(-0.54095702 0.024545901 0)
(-0.54375554 0.015208611 0)
(-0.54524563 0.0058267511 0)
(-0.54542247 -0.003577103 0)
(-0.54428438 -0.012980256 0)
(-0.54183289 -0.022359946 0)
(-0.53807271 -0.031693399 0)
(-0.53301173 -0.040957885 0)
(-0.52666103 -0.050130779 0)
(-0.51903482 -0.059189615 0)
(-0.51015049 -0.068112144 0)
(-0.50002848 -0.076876391 0)
(-0.48869232 -0.085460709 0)
(-0.47616855 -0.093843839 0)
(-0.46248664 -0.10200496 0)
(-0.44767896 -0.10992375 0)
(-0.43178071 -0.11758044 0)
(-0.41482981 -0.12495585 0)
(-0.39686683 -0.13203147 0)
(-0.37793489 -0.13878949 0)
(-0.3580796 -0.14521285 0)
(-0.33734887 -0.15128529 0)
(-0.31579287 -0.15699142 0)
(-0.29346386 -0.16231672 0)
(-0.27041611 -0.16724764 0)
(-0.2467057 -0.17177156 0)
(-0.22239045 -0.17587691 0)
(-0.19752974 -0.17955318 0)
(-0.17218433 -0.18279091 0)
(-0.14641628 -0.18558178 0)
(-0.12028873 -0.18791859 0)
(-0.093865745 -0.18979533 0)
(-0.067212181 -0.19120714 0)
(-0.040393483 -0.19215038 0)
(-0.013475532 -0.19262261 0)
(0.013475532 -0.19262261 0)
(0.040393483 -0.19215038 0)
(0.067212181 -0.19120714 0)
(0.093865745 -0.18979533 0)
(0.12028873 -0.18791859 0)
(0.14641628 -0.18558178 0)
(0.17218433 -0.18279091 0)
(0.19752974 -0.17955318 0)
(0.22239045 -0.17587691 0)
(0.2467057 -0.17177156 0)
(0.27041611 -0.16724764 0)
(0.29346386 -0.16231672 0)
(0.31579287 -0.15699142 0)
(0.33734887 -0.15128529 0)
(0.3580796 -0.14521285 0)
(0.37793489 -0.13878949 0)
(0.39686683 -0.13203147 0)
(0.41482981 -0.12495585 0)
(0.43178071 -0.11758044 0)
(0.44767896 -0.10992375 0)
(0.46248664 -0.10200496 0)
(0.47616855 -0.093843839 0)
(0.48869232 -0.085460709 0)
(0.50002848 -0.076876391 0)
(0.51015049 -0.068112144 0)
(0.51903482 -0.059189615 0)
(0.52666103 -0.050130779 0)
(0.53301173 -0.040957885 0)
(0.53807271 -0.031693399 0)
(0.54183289 -0.022359946 0)
(0.54428438 -0.012980256 0)
(0.54542247 -0.003577103 0)
(0.54524563 0.0058267511 0)
(0.54375554 0.015208611 0)
(0.54095702 0.024545902 0)
(0.53685805 0.033816226 0)
(0.53146971 0.042997421 0)
(0.52480618 0.052067607 0)
(0.51688465 0.061005245 0)
(0.5077253 0.069789186 0)
(0.49735123 0.078398716 0)
(0.48578838 0.086813609 0)
(0.4730655 0.095014167 0)
(0.45921402 0.10298126 0)
(0.444268 0.11069639 0)
(0.428264 0.11814168 0)
(0.41124104 0.12529998 0)
(0.39324047 0.13215482 0)
(0.37430585 0.13869053 0)
(0.35448288 0.14489218 0)
(0.33381923 0.15074567 0)
(0.3123645 0.15623775 0)
(0.29017005 0.16135601 0)
(0.26728888 0.16608892 0)
(0.24377552 0.17042585 0)
(0.21968591 0.17435709 0)
(0.19507726 0.17787386 0)
(0.17000792 0.18096831 0)
(0.14453726 0.18363355 0)
(0.11872552 0.18586367 0)
(0.092633696 0.18765372 0)
(0.066323392 0.18899974 0)
(0.03985669 0.18989874 0)
(0.013296013 0.19034874 0)
(-0.013543265 0.21715676 0)
(-0.040597899 0.21664359 0)
(-0.067556917 0.21561837 0)
(-0.094356803 0.21408338 0)
(-0.12093439 0.212042 0)
(-0.14722699 0.20949874 0)
(-0.17317253 0.20645924 0)
(-0.1987097 0.20293023 0)
(-0.22377809 0.19891956 0)
(-0.24831829 0.19443614 0)
(-0.27227206 0.18948998 0)
(-0.29558246 0.18409214 0)
(-0.31819395 0.17825471 0)
(-0.34005256 0.17199083 0)
(-0.36110597 0.16531462 0)
(-0.38130366 0.15824118 0)
(-0.40059703 0.15078659 0)
(-0.41893953 0.14296782 0)
(-0.43628674 0.13480276 0)
(-0.45259651 0.12631016 0)
(-0.46782905 0.11750957 0)
(-0.48194705 0.10842136 0)
(-0.49491576 0.099066633 0)