/*--------------------------------*- C++ -*----------------------------------*\
| =========                 |                                                 |
| \\      /  F ield         | OpenFOAM: The Open Source CFD Toolbox           |
|  \\    /   O peration     | Version:  2306                                  |
|   \\  /    A nd           | Website:  www.openfoam.com                      |
|    \\/     M anipulation  |                                                 |
\*---------------------------------------------------------------------------*/
FoamFile
{
    version     2.0;
    format      ascii;
    arch        "LSB;label=32;scalar=64";
    class       volVectorField;
    location    "0.39";
    object      U_0;
}
// * * * * * * * * * * * * * * * * * * * * * * * * * * * * * * * * * * * * * //

dimensions      [0 1 -1 0 0 0 0];

internalField   nonuniform List<vector> 
6400
(
(7.2407233e-06 -1.7069113e-05 -1.1436713e-20)
(1.1809264e-05 -1.4396982e-05 -1.6981818e-21)
(1.5314737e-05 -1.3228278e-05 -1.0051303e-21)
(1.7541725e-05 -1.212133e-05 1.3264802e-20)
(1.82959e-05 -1.1417339e-05 1.2533449e-20)
(1.8547084e-05 -1.1033232e-05 -8.96394e-21)
(1.8464189e-05 -1.0752538e-05 -3.5957685e-21)
(1.8163061e-05 -1.0521603e-05 8.8417808e-21)
(1.7645158e-05 -1.0304407e-05 1.2543807e-20)
(1.6895866e-05 -1.0084585e-05 2.370567e-21)
(1.589505e-05 -9.8597907e-06 5.5766778e-21)
(1.4598391e-05 -9.6476278e-06 3.6852013e-20)
(1.2944684e-05 -9.4424013e-06 2.8062091e-20)
(1.0899431e-05 -9.2227793e-06 -1.3058106e-20)
(8.4614808e-06 -8.9842726e-06 -1.267552e-20)
(5.5855949e-06 -8.7415012e-06 2.2881681e-20)
(2.2543554e-06 -8.4754201e-06 4.6155609e-20)
(-1.5436444e-06 -8.2017775e-06 1.9124733e-21)
(-5.8246972e-06 -7.9100519e-06 -3.2596751e-20)
(-1.0585143e-05 -7.6105085e-06 -1.1731976e-21)
(-1.5843001e-05 -7.3035407e-06 1.0938804e-20)
(-2.1601909e-05 -6.9900113e-06 1.8313811e-20)
(-2.7862325e-05 -6.671001e-06 6.4682834e-20)
(-3.462167e-05 -6.3476499e-06 9.6820987e-20)
(-4.1874392e-05 -6.0211067e-06 7.9489747e-20)
(-4.961205e-05 -5.6925429e-06 -1.2415211e-19)
(-5.7823407e-05 -5.3630759e-06 -2.8151702e-19)
(-6.6494536e-05 -5.0338208e-06 -9.0006091e-20)
(-7.5608966e-05 -4.7058467e-06 8.6656218e-20)
(-8.5147807e-05 -4.3801814e-06 1.7999689e-19)
(-9.5089909e-05 -4.0578149e-06 1.4605254e-19)
(-0.00010541201 -3.7396836e-06 -7.0340334e-20)
(-0.0001160889 -3.426679e-06 -8.3461236e-20)
(-0.00012709361 -3.1196335e-06 -1.3442003e-19)
(-0.00013839758 -2.8193301e-06 -7.1138853e-20)
(-0.00014997082 -2.5264914e-06 1.9097921e-19)
(-0.00016178215 -2.2417784e-06 -7.0590663e-20)
(-0.00017379933 -1.965796e-06 -4.2701352e-19)
(-0.00018598929 -1.6990772e-06 1.3070858e-19)
(-0.00019831833 -1.4421045e-06 5.5166832e-19)
(-0.00021075226 -1.1952966e-06 9.1476316e-20)
(-0.00022325666 -9.5900636e-07 -2.2798643e-19)
(-0.00023579698 -7.3352814e-07 -1.2644166e-19)
(-0.0002483388 -5.1909776e-07 -1.3246031e-20)
(-0.00026084796 -3.1588788e-07 1.6498229e-19)
(-0.00027329072 -1.2402576e-07 3.9814109e-19)
(-0.00028563397 5.6429006e-08 -2.1888509e-19)
(-0.00029784532 2.2546016e-07 -2.1062686e-19)
(-0.00030989326 3.8310108e-07 -1.3421209e-19)
(-0.00032174733 5.2944611e-07 -7.277834e-19)
(-0.00033337821 6.6461426e-07 3.3153535e-19)
(-0.00034475782 7.8878297e-07 6.0387774e-19)
(-0.00035585945 9.0215179e-07 1.0128503e-19)
(-0.00036665781 1.0049749e-06 2.016247e-19)
(-0.00037712915 1.0975254e-06 -6.7808606e-19)
(-0.0003872513 1.1801161e-06 -5.3611168e-19)
(-0.00039700374 1.2530713e-06 4.6370888e-19)
(-0.0004063676 1.3167494e-06 1.9570141e-19)
(-0.00041532575 1.3715264e-06 -3.8984185e-20)
(-0.00042386277 1.4177937e-06 8.0644961e-20)
(-0.00043196497 1.4559573e-06 -4.6716646e-20)
(-0.00043962044 1.4864349e-06 7.7489151e-20)
(-0.00044681894 1.50964e-06 -3.7273117e-20)
(-0.00045355195 1.526013e-06 -4.1536139e-19)
(-0.00045981264 1.5359783e-06 -5.2111514e-19)
(-0.0004655958 1.539968e-06 1.0340824e-19)
(-0.00047089781 1.5384054e-06 8.6951555e-19)
(-0.00047571658 1.5317184e-06 9.8810313e-21)
(-0.00048005153 1.5203239e-06 -3.6364247e-19)
(-0.00048390348 1.5046256e-06 4.1236993e-19)
(-0.00048727461 1.4850251e-06 -6.0372334e-20)
(-0.00049016839 1.4619116e-06 -2.5708952e-19)
(-0.00049258949 1.4356488e-06 1.2995614e-19)
(-0.00049454372 1.4066016e-06 1.5469997e-19)
(-0.00049603794 1.3751046e-06 1.8978506e-19)
(-0.00049707999 1.3414795e-06 -3.151148e-19)
(-0.00049767857 1.3060291e-06 -3.4059506e-19)
(-0.0004978432 1.2690396e-06 2.3380166e-19)
(-0.00049758417 1.2307834e-06 3.3160401e-19)
(-0.00049691244 1.1915272e-06 -1.9299611e-19)
(-8.1549097e-06 -1.8561237e-05 1.432525e-20)
(-2.2905063e-05 -9.9294051e-06 -3.7038597e-21)
(-4.1456797e-05 -5.4841523e-06 3.7140624e-21)
(-6.1105332e-05 -1.1497314e-06 3.7777158e-20)
(-8.3153633e-05 1.8551196e-06 2.0002878e-20)
(-0.00010606523 3.7573614e-06 -2.1092538e-20)
(-0.00012958652 5.1224107e-06 1.2782298e-20)
(-0.00015353054 6.2095302e-06 6.8195378e-21)
(-0.00017783174 7.1705672e-06 9.2367788e-21)
(-0.00020247247 8.088123e-06 4.9757335e-20)
(-0.0002274699 9.0001337e-06 4.6613358e-20)
(-0.00025284211 9.9127021e-06 8.4893574e-20)
(-0.00027859955 1.0838746e-05 1.1386918e-19)
(-0.00030477031 1.1797295e-05 8.8591648e-20)
(-0.00033138282 1.2794027e-05 4.3565053e-20)
(-0.00035845777 1.3811881e-05 7.4382792e-20)
(-0.00038600645 1.4870272e-05 1.387773e-19)
(-0.00041403552 1.5948592e-05 2.4185103e-20)
(-0.00044254503 1.7056151e-05 -1.4024444e-19)
(-0.0004715273 1.8176795e-05 -7.178817e-20)
(-0.00050097561 1.9305466e-05 1.3723914e-20)
(-0.00053087689 2.0436849e-05 4.2168908e-20)
(-0.00056121283 2.1565377e-05 1.421148e-19)
(-0.00059196034 2.2685426e-05 2.6572582e-19)
(-0.0006230918 2.3791362e-05 8.1462283e-20)
(-0.00065457526 2.4877609e-05 -4.4004403e-19)
(-0.00068637466 2.5938744e-05 -4.4350627e-19)
(-0.00071845006 2.6969493e-05 -1.7748226e-19)
(-0.0007507579 2.7964806e-05 -1.1231685e-19)
(-0.00078325128 2.891986e-05 5.0700884e-19)
(-0.00081588023 2.9830119e-05 5.892248e-19)
(-0.00084859205 3.0691318e-05 -3.4159281e-19)
(-0.00088133162 3.1499523e-05 -6.3668182e-19)
(-0.0009140417 3.2251122e-05 -1.8164963e-19)
(-0.00094666332 3.2942848e-05 4.8899738e-19)
(-0.0009791361 3.3571795e-05 3.3244527e-19)
(-0.0010113986 3.4135428e-05 -5.3987189e-19)
(-0.0010433886 3.4631581e-05 -7.8354431e-19)
(-0.0010750437 3.5058485e-05 4.420955e-19)
(-0.0011063014 3.5414738e-05 6.8954663e-19)
(-0.0011370993 3.5699318e-05 -7.9994524e-19)
(-0.0011673762 3.5911584e-05 -2.1437098e-19)
(-0.0011970713 3.6051262e-05 1.4450801e-18)
(-0.0012261254 3.6118434e-05 1.9450474e-18)
(-0.0012544808 3.611354e-05 -7.2933942e-20)
(-0.0012820818 3.6037335e-05 -2.9765263e-18)
(-0.0013088747 3.5890923e-05 -1.6941698e-18)
(-0.0013348079 3.5675688e-05 1.2315908e-18)
(-0.0013598328 3.5393309e-05 1.3098731e-18)
(-0.0013839034 3.5045747e-05 -6.7519667e-19)
(-0.0014069765 3.4635184e-05 -1.1736758e-18)
(-0.0014290121 3.4164045e-05 1.3783709e-18)
(-0.0014499736 3.3634947e-05 1.7377709e-18)
(-0.0014698275 3.3050702e-05 -3.1330408e-19)
(-0.0014885438 3.2414261e-05 -1.1242129e-18)
(-0.0015060959 3.1728727e-05 -1.2244784e-18)
(-0.0015224609 3.0997314e-05 -1.8583185e-19)
(-0.0015376193 3.0223314e-05 1.2288439e-18)
(-0.0015515552 2.9410095e-05 5.0523589e-19)
(-0.0015642562 2.8561068e-05 -1.1842133e-18)
(-0.0015757133 2.7679671e-05 -4.6249307e-19)
(-0.0015859211 2.6769344e-05 1.3227049e-18)
(-0.0015948774 2.5833508e-05 3.270522e-19)
(-0.0016025831 2.4875571e-05 -1.6714099e-18)
(-0.0016090427 2.3898867e-05 -9.7193039e-19)
(-0.0016142632 2.2906681e-05 1.004855e-18)
(-0.0016182548 2.1902211e-05 1.3198147e-18)
(-0.0016210305 2.0888576e-05 2.8681915e-19)
(-0.0016226056 1.9868786e-05 -7.4018104e-19)
(-0.0016229982 1.8845739e-05 -1.3971067e-18)
(-0.0016222286 1.7822215e-05 1.1399212e-19)
(-0.001620319 1.6800876e-05 1.0809063e-18)
(-0.0016172939 1.5784225e-05 9.2836712e-20)
(-0.0016131795 1.4774645e-05 2.0017542e-19)
(-0.0016080035 1.3774361e-05 3.9633364e-19)
(-0.0016017952 1.2785442e-05 1.5816333e-19)
(-0.0015945851 1.1809833e-05 -6.0034811e-19)
(-0.0015864049 1.0849345e-05 -9.0397333e-19)
(-0.0015772873 9.9056795e-06 4.6370072e-20)
(-0.0015672657 8.9804551e-06 3.9094621e-19)
(-2.8270536e-05 4.0695253e-05 2.8088721e-21)
(-6.7040421e-05 5.1884703e-05 -3.4601708e-20)
(-0.00011147954 5.8809246e-05 -4.4401803e-20)
(-0.00015524127 6.5640752e-05 -1.0934166e-20)
(-0.00020156291 7.0636514e-05 1.7540616e-20)
(-0.00024858136 7.4054023e-05 -4.8223161e-20)
(-0.00029617139 7.6570673e-05 -6.926897e-22)
(-0.00034420373 7.8584517e-05 -6.7159825e-21)
(-0.00039260162 8.0337286e-05 5.7522907e-20)
(-0.00044131509 8.1970794e-05 1.6789662e-19)
(-0.00049031927 8.3564719e-05 1.1028532e-19)
(-0.0005396002 8.5167639e-05 1.2582475e-19)
(-0.00058914756 8.6797512e-05 5.9388412e-20)
(-0.00063895738 8.845466e-05 1.3128226e-19)
(-0.00068902674 9.0140184e-05 1.9855811e-19)
(-0.00073934976 9.1849279e-05 8.2924874e-20)
(-0.00078991529 9.3578676e-05 9.7734093e-20)
(-0.00084070732 9.531844e-05 -8.5065841e-21)
(-0.00089170499 9.7062057e-05 -1.055511e-19)
(-0.00094288224 9.8796878e-05 2.5399034e-20)
(-0.00099420983 0.00010051145 7.8266129e-20)
(-0.0010456539 0.00010219455 8.3552393e-20)
(-0.0010971758 0.00010383494 1.5732627e-19)
(-0.0011487326 0.00010542149 1.5090111e-19)
(-0.0012002769 0.00010694316 -1.0335154e-19)
(-0.0012517574 0.00010838921 -1.7808196e-19)
(-0.0013031191 0.00010974922 -1.0808208e-19)
(-0.0013543032 0.0001110132 -2.1631632e-19)
(-0.0014052481 0.0001121717 -2.6524004e-19)
(-0.0014558889 0.00011321581 1.3307777e-19)
(-0.0015061586 0.0001141373 3.0960496e-19)
(-0.0015559877 0.00011492858 -1.5160324e-19)
(-0.0016053052 0.00011558281 -4.1998718e-19)
(-0.0016540383 0.00011609391 -2.3949124e-19)
(-0.0017021136 0.0001164566 2.9045441e-19)
(-0.0017494568 0.0001166664 3.9589427e-19)
(-0.0017959937 0.00011671965 -1.0527759e-19)
(-0.0018416499 0.00011661354 -2.1390421e-19)
(-0.001886352 0.00011634613 -8.8128338e-20)
(-0.0019300273 0.00011591626 -3.9351939e-19)
(-0.0019726047 0.00011532364 -4.5648958e-19)
(-0.0020140146 0.00011456878 5.1813722e-19)
(-0.0020541897 0.00011365296 1.1131488e-18)
(-0.0020930649 0.00011257824 9.2259233e-19)
(-0.0021305782 0.0001113474 -1.8108782e-19)
(-0.0021666702 0.00010996393 -2.0190302e-18)
(-0.002201285 0.00010843197 -9.0857648e-19)
(-0.0022343703 0.00010675625 5.797217e-19)
(-0.0022658775 0.00010494212 8.2269838e-19)
(-0.0022957618 0.00010299541 7.9875302e-19)
(-0.0023239827 0.00010092246 -9.198342e-19)
(-0.0023505039 9.8729987e-05 -1.4629946e-19)
(-0.0023752934 9.6425129e-05 9.9621167e-19)
(-0.0023983235 9.4015304e-05 -1.0320052e-19)
(-0.0024195714 9.1508213e-05 -2.0988658e-19)
(-0.0024390183 8.8911763e-05 -3.8508293e-19)
(-0.0024566503 8.6234041e-05 -3.6263287e-19)
(-0.0024724577 8.3483225e-05 5.2834739e-19)
(-0.0024864354 8.0667555e-05 1.3717562e-19)
(-0.0024985826 7.779529e-05 -8.0972459e-19)
(-0.0025089028 7.4874651e-05 -2.1119096e-19)
(-0.0025174036 7.1913796e-05 5.951415e-19)
(-0.0025240966 6.8920752e-05 -1.1571501e-20)
(-0.0025289974 6.5903405e-05 -3.9023989e-19)
(-0.0025321252 6.286944e-05 3.5947375e-19)
(-0.0025335026 5.9826337e-05 3.9596481e-19)
(-0.0025331557 5.6781312e-05 -2.487309e-19)
(-0.0025311138 5.374132e-05 -1.4870646e-19)
(-0.002527409 5.0713021e-05 -1.140698e-19)
(-0.0025220762 4.7702763e-05 -6.2637099e-19)
(-0.0025151527 4.4716569e-05 -9.2758957e-20)
(-0.0025066782 4.1760122e-05 3.722911e-19)
(-0.0024966944 3.8838737e-05 2.5177241e-20)
(-0.002485245 3.595737e-05 2.9472809e-19)
(-0.0024723751 3.3120599e-05 2.5499635e-19)
(-0.0024581313 3.0332621e-05 3.1557593e-19)
(-0.0024425615 2.7597282e-05 -8.5063498e-20)
(-0.0024257144 2.491809e-05 -9.166637e-19)
(-0.0024076397 2.2298225e-05 -2.7914985e-19)
(-0.0023883874 1.974057e-05 6.7406109e-19)
(-4.3595587e-05 0.00015504882 -2.8706663e-19)
(-0.00010101712 0.00016472556 -1.4815983e-19)
(-0.00016540408 0.00017202007 -5.6557895e-20)
(-0.00022742014 0.00017933983 -1.6662536e-19)
(-0.00029189916 0.00018499893 -8.8422786e-20)
(-0.00035669917 0.00018913217 -1.407274e-19)
(-0.00042188103 0.0001923008 -1.0126251e-19)
(-0.00048741926 0.00019488609 -1.2137604e-20)
(-0.00055326529 0.00019713925 6.666031e-20)
(-0.00061936264 0.00019921689 1.6188326e-19)
(-0.00068566501 0.00020121151 1.4603753e-19)
(-0.00075213449 0.00020317555 1.2144586e-19)
(-0.00081873801 0.00020513357 7.6542993e-22)
(-0.00088544636 0.00020709302 1.1946299e-19)
(-0.00095223162 0.00020905357 1.4562239e-19)
(-0.0010190649 0.0002110091 -7.3512966e-22)
(-0.0010859144 0.00021295086 1.0460717e-19)
(-0.0011527451 0.00021486652 5.7791258e-20)
(-0.0012195183 0.00021674276 7.1112671e-21)
(-0.0012861913 0.00021856401 6.9536891e-20)
(-0.0013527183 0.0002203142 7.5429236e-20)
(-0.0014190495 0.00022197718 6.8356339e-20)
(-0.0014851311 0.0002235368 2.4914025e-20)
(-0.0015509059 0.00022497714 -6.7208458e-20)
(-0.0016163127 0.00022628258 4.9162696e-21)
(-0.0016812872 0.00022743798 -3.3656378e-21)
(-0.0017457619 0.00022842884 -2.4638604e-19)
(-0.0018096663 0.00022924137 -1.177003e-19)
(-0.0018729278 0.00022986263 6.1248261e-20)
(-0.0019354711 0.00023028064 -3.3099416e-21)
(-0.0019972193 0.00023048443 -1.6379785e-19)
(-0.0020580943 0.00023046416 -1.5278214e-19)
(-0.0021180165 0.00023021111 1.5164435e-19)
(-0.002176906 0.00022971783 9.1701378e-20)
(-0.0022346824 0.00022897808 -2.2297307e-19)
(-0.0022912656 0.00022798692 -1.9685868e-19)
(-0.0023465762 0.0002267407 1.5601193e-19)
(-0.0024005355 0.00022523711 2.4251364e-19)
(-0.0024530665 0.00022347511 -1.6431657e-19)
(-0.0025040939 0.00022145497 -2.597038e-19)
(-0.0025535444 0.00021917827 -5.3484868e-20)
(-0.0026013475 0.00021664776 1.7324891e-19)
(-0.0026474356 0.00021386743 3.0366222e-19)
(-0.002691744 0.00021084242 5.6957586e-20)
(-0.0027342121 0.00020757897 9.4002845e-21)
(-0.0027747825 0.00020408434 -3.5770018e-19)
(-0.0028134022 0.00020036678 -3.7334636e-19)
(-0.0028500225 0.00019643542 8.8877442e-20)
(-0.0028845991 0.00019230024 2.0640239e-19)
(-0.0029170923 0.00018797195 5.0127518e-19)
(-0.0029474674 0.00018346193 3.4139485e-20)
(-0.0029756944 0.00017878214 -4.9315733e-19)
(-0.0030017484 0.00017394503 8.5564e-20)
(-0.0030256094 0.00016896348 2.4370689e-19)
(-0.0030472626 0.0001638507 -6.3438053e-20)
(-0.0030666982 0.00015862011 -2.4136152e-19)
(-0.0030839114 0.00015328535 -1.9363079e-19)
(-0.0030989022 0.00014786009 1.466158e-19)
(-0.0031116757 0.00014235802 2.4489676e-20)
(-0.0031222416 0.00013679277 -3.6025846e-19)
(-0.0031306141 0.00013117782 -3.9873827e-20)
(-0.0031368121 0.00012552646 3.0667478e-19)
(-0.0031408587 0.00011985169 4.8604719e-20)
(-0.0031427809 0.00011416619 -1.0082812e-19)
(-0.0031426098 0.00010848228 1.1350979e-19)
(-0.0031403802 0.00010281183 1.1414408e-19)
(-0.0031361302 9.716626e-05 -2.673859e-19)
(-0.0031299012 9.1556486e-05 -2.1779908e-19)
(-0.0031217376 8.5992886e-05 -5.5338319e-20)
(-0.0031116865 8.0485288e-05 -5.8180567e-20)
(-0.0030997974 7.5042942e-05 4.7260479e-20)
(-0.0030861222 6.967449e-05 3.9674504e-20)
(-0.0030707147 6.4387955e-05 -1.1583521e-19)
(-0.0030536303 5.9190726e-05 -9.1063197e-20)
(-0.0030349261 5.4089544e-05 2.4966339e-19)
(-0.0030146604 4.9090517e-05 3.001763e-19)
(-0.0029928923 4.4199129e-05 -2.9946573e-19)
(-0.002969682 3.9420265e-05 -5.778065e-19)
(-0.0029450899 3.4758232e-05 -5.4968669e-20)
(-0.002919177 3.0216778e-05 1.8501585e-19)
(-5.2482143e-05 0.00030411126 -5.128999e-19)
(-0.00012139028 0.00031111789 -4.7411205e-19)
(-0.00019833014 0.00031747549 -2.3917207e-19)
(-0.00027179156 0.00032406244 -1.2051691e-19)
(-0.00034766266 0.00032949651 -3.5400115e-19)
(-0.00042352404 0.00033374087 -3.8531857e-19)
(-0.00049955711 0.00033714935 -2.6252993e-19)
(-0.00057582116 0.00034000563 -1.4148942e-19)
(-0.0006523069 0.00034251692 1.7579638e-20)
(-0.00072897036 0.00034482155 1.8851195e-19)
(-0.00080576356 0.00034700526 5.6013975e-20)
(-0.00088264033 0.00034911728 8.3564428e-20)
(-0.00095955644 0.0003511817 3.7617076e-20)
(-0.0010364693 0.00035320623 7.7604435e-20)
(-0.0011133367 0.0003551887 1.4245093e-19)
(-0.0011901161 0.00035712038 -1.1929676e-20)
(-0.0012667626 0.00035898843 6.8712832e-20)
(-0.0013432292 0.00036077677 6.2569096e-20)
(-0.0014194655 0.00036246739 -1.7510247e-20)
(-0.0014954185 0.00036404066 6.0378117e-20)
(-0.0015710317 0.00036547619 1.103673e-19)
(-0.0016462452 0.00036675333 -4.5269395e-20)
(-0.0017209962 0.00036785149 -6.0692749e-20)
(-0.0017952182 0.00036875044 3.4649474e-20)
(-0.0018688418 0.00036943045 2.8735901e-20)
(-0.0019417947 0.00036987254 -1.331524e-19)
(-0.0020140019 0.00037005865 -2.6982481e-19)
(-0.002085386 0.00036997181 -8.4194823e-20)
(-0.0021558676 0.00036959625 1.1757915e-19)
(-0.0022253657 0.00036891753 1.0329807e-19)
(-0.0022937977 0.0003679227 -2.3297134e-19)
(-0.0023610804 0.00036660033 -1.1290518e-19)
(-0.0024271299 0.00036494062 1.6119189e-19)
(-0.0024918619 0.00036293546 1.5611147e-19)
(-0.0025551929 0.00036057846 3.4682483e-20)
(-0.0026170397 0.00035786503 -2.7468038e-19)
(-0.0026773204 0.00035479231 2.5177499e-20)
(-0.0027359544 0.00035135931 3.249407e-20)
(-0.0027928635 0.00034756675 -1.6875958e-19)
(-0.0028479712 0.00034341714 -1.7494563e-19)
(-0.0029012043 0.00033891471 -1.9203459e-19)
(-0.0029524922 0.00033406535 1.4051782e-19)
(-0.0030017681 0.00032887655 3.3050859e-19)
(-0.0030489687 0.00032335735 -5.2671294e-20)
(-0.0030940347 0.00031751822 -2.324643e-19)
(-0.0031369113 0.00031137101 -1.8594194e-19)
(-0.0031775481 0.00030492886 -1.0242018e-19)
(-0.0032158994 0.00029820603 1.7189868e-19)
(-0.0032519246 0.00029121788 9.3294013e-20)
(-0.0032855881 0.0002839807 2.9212557e-20)
(-0.0033168595 0.0002765116 1.3764179e-19)
(-0.0033457136 0.00026882843 -6.985168e-20)
(-0.0033721308 0.0002609496 -9.1154363e-20)
(-0.0033960966 0.00025289402 -1.4230641e-20)
(-0.0034176021 0.00024468097 -9.9859384e-21)
(-0.0034366435 0.00023632993 -2.9991277e-20)
(-0.0034532225 0.00022786055 -2.5806289e-19)
(-0.003467346 0.00021929249 -2.5458288e-19)
(-0.0034790257 0.00021064527 -2.0066344e-20)
(-0.0034882786 0.0002019383 -1.8163608e-20)
(-0.0034951261 0.00019319066 9.6448447e-20)
(-0.0034995946 0.00018442107 2.5436033e-19)
(-0.0035017146 0.00017564777 1.4586598e-19)
(-0.0035015209 0.00016688849 -6.4557273e-20)
(-0.0034990523 0.00015816035 -2.5138156e-19)
(-0.0034943513 0.00014947982 -1.0175105e-19)
(-0.0034874638 0.00014086262 4.2482193e-20)
(-0.003478439 0.00013232375 1.1973646e-20)
(-0.0034673291 0.00012387736 -2.1464801e-19)
(-0.0034541889 0.00011553681 -2.8553773e-19)
(-0.0034390756 0.00010731456 7.7984082e-20)
(-0.0034220486 9.9222217e-05 2.6787781e-19)
(-0.0034031691 9.1270462e-05 9.7922368e-20)
(-0.0033825001 8.3469068e-05 -1.5030839e-19)
(-0.0033601058 7.5826878e-05 -1.1196391e-19)
(-0.0033360515 6.8351825e-05 -6.3799844e-20)
(-0.0033104034 6.1050952e-05 -2.3202652e-19)
(-0.0032832282 5.3930444e-05 -1.8212567e-19)
(-0.0032545933 4.6995649e-05 -1.1280634e-19)
(-0.0032245659 4.0251127e-05 -1.3549875e-19)
(-5.6638441e-05 0.00047113036 -8.1962787e-19)
(-0.00013143236 0.00047566846 -7.7174475e-19)
(-0.00021512477 0.00048066253 -7.8695904e-19)
(-0.00029484915 0.0004860777 -5.7026417e-19)
(-0.00037704836 0.00049086648 -5.5961044e-19)
(-0.00045904372 0.00049486585 -4.6958508e-19)
(-0.00054105401 0.00049823541 -2.3218052e-19)
(-0.0006231816 0.00050114442 -2.1122569e-20)
(-0.00070544721 0.00050373515 7.4623478e-20)
(-0.00078782456 0.00050611064 2.2189679e-19)
(-0.00087027451 0.00050833793 1.5244429e-19)
(-0.00095275383 0.00051045599 1.4160915e-19)
(-0.0010352174 0.00051248323 1.3861016e-19)
(-0.001117619 0.00051442363 2.6469008e-19)
(-0.0011999115 0.00051627147 2.5060855e-19)
(-0.0012820462 0.00051801437 1.21099e-20)
(-0.0013639725 0.0005196354 1.7713352e-19)
(-0.0014456372 0.00052111439 2.0172931e-19)
(-0.0015269844 0.00052242899 1.5611298e-19)
(-0.001607955 0.00052355537 1.3579764e-19)
(-0.0016884869 0.0005244689 3.9356429e-20)
(-0.0017685148 0.00052514469 -6.0940699e-20)
(-0.0018479705 0.00052555799 2.4651334e-20)
(-0.0019267823 0.00052568453 1.8497525e-19)
(-0.002004876 0.00052550081 1.5600376e-19)
(-0.0020821745 0.00052498433 7.9478817e-20)
(-0.0021585982 0.00052411382 -8.7947498e-20)
(-0.0022340654 0.00052286944 -1.6992935e-19)
(-0.0023084928 0.00052123297 -6.3916854e-20)
(-0.0023817952 0.00051918793 7.0981863e-20)
(-0.0024538867 0.00051671975 -1.5681658e-21)
(-0.0025246806 0.00051381582 1.0203961e-19)
(-0.0025940898 0.00051046567 1.5756226e-19)
(-0.0026620273 0.00050666097 1.0956442e-19)
(-0.002728407 0.00050239564 1.1214411e-19)
(-0.0027931434 0.00049766583 -6.2147196e-20)
(-0.0028561526 0.00049246998 1.1027386e-21)
(-0.0029173526 0.00048680882 -8.2283522e-20)
(-0.0029766635 0.00048068531 -3.5515594e-20)
(-0.0030340081 0.00047410464 -8.1522442e-20)
(-0.0030893122 0.00046707419 -2.4272885e-19)
(-0.0031425051 0.00045960337 -2.3146596e-20)
(-0.0031935197 0.00045170366 2.2142777e-19)
(-0.003242293 0.00044338843 1.4771615e-19)
(-0.0032887663 0.00043467285 -1.2280736e-20)
(-0.0033328856 0.00042557378 3.9931987e-20)
(-0.0033746018 0.00041610963 6.6293264e-22)
(-0.0034138707 0.00040630026 1.163426e-19)
(-0.0034506533 0.00039616677 1.2122264e-19)
(-0.0034849162 0.00038573143 -7.421757e-21)
(-0.0035166313 0.00037501747 1.0169662e-20)
(-0.0035457762 0.00036404894 -2.7823783e-20)
(-0.0035723338 0.00035285061 -1.2414072e-20)
(-0.003596293 0.0003414477 -9.7456263e-20)
(-0.0036176481 0.00032986586 -1.3832835e-19)
(-0.003636399 0.00031813094 4.9722852e-20)
(-0.003652551 0.00030626885 -1.427954e-20)
(-0.0036661148 0.00029430544 -1.2182723e-19)
(-0.0036771063 0.00028226637 -7.8695364e-20)
(-0.0036855467 0.00027017694 -7.2347628e-20)
(-0.0036914619 0.00025806204 6.1049055e-21)
(-0.0036948824 0.00024594597 1.3830815e-19)
(-0.0036958436 0.00023385236 1.9846404e-19)
(-0.0036943847 0.00022180408 1.3533244e-19)
(-0.0036905492 0.00020982316 -6.5997603e-20)
(-0.0036843843 0.0001979307 -1.0436767e-19)
(-0.0036759407 0.00018614682 -5.2263443e-20)
(-0.0036652723 0.00017449057 -6.4934182e-20)
(-0.0036524359 0.00016297993 -1.6409936e-19)
(-0.0036374912 0.00015163173 -1.2064274e-19)
(-0.0036204999 0.00014046165 3.035802e-20)
(-0.0036015261 0.00012948419 5.2717581e-20)
(-0.0035806356 0.00011871263 -2.2959286e-21)
(-0.0035578957 0.00010815903 2.9206981e-20)
(-0.003533375 9.7834256e-05 8.669042e-20)
(-0.0035071431 8.7747953e-05 -1.080586e-19)
(-0.0034792705 7.7908609e-05 -2.1192738e-19)
(-0.0034498279 6.8323574e-05 -1.8933094e-19)
(-0.0034188865 5.8999098e-05 -1.8706788e-19)
(-0.0033865176 4.9940381e-05 -4.4447633e-20)
(-5.8128948e-05 0.00064568441 -9.0445556e-19)
(-0.0001354038 0.00064848118 -7.2279518e-19)
(-0.00022220407 0.00065225639 -8.7925078e-19)
(-0.00030495678 0.00065657071 -9.904245e-19)
(-0.00039032797 0.00066065885 -7.8760644e-19)
(-0.00047542962 0.0006642941 -3.2187479e-19)
(-0.00056046279 0.00066749867 -2.0828355e-19)
(-0.00064553755 0.00067034718 -1.2021572e-19)
(-0.00073068907 0.00067292044 1.3401451e-19)
(-0.00081590479 0.0006752836 1.8146173e-19)
(-0.00090115635 0.00067748093 8.9352859e-20)
(-0.00098640786 0.00067953748 2.7772225e-20)
(-0.0010716186 0.00068146277 -8.1452161e-20)
(-0.0011567445 0.00068325449 6.7557004e-20)
(-0.0012417387 0.00068490174 1.898244e-19)
(-0.0013265518 0.00068638738 -3.5386294e-20)
(-0.0014111316 0.00068768986 2.4932464e-20)
(-0.001495423 0.00068878443 6.5704703e-20)
(-0.0015793677 0.00068964418 9.7684388e-20)
(-0.0016629042 0.00069024081 2.6341021e-19)
(-0.0017459676 0.00069054525 2.5472269e-19)
(-0.0018284899 0.00069052831 1.5393479e-19)
(-0.0019103996 0.00069016101 1.5525958e-19)
(-0.0019916223 0.0006894151 3.1756017e-19)
(-0.0020720805 0.00068826327 1.9306659e-19)
(-0.0021516941 0.00068667955 -4.6370847e-21)
(-0.0022303806 0.00068463953 -5.1027248e-20)
(-0.002308055 0.0006821206 -8.5008294e-20)
(-0.0023846309 0.00067910213 -1.7081932e-21)
(-0.0024600203 0.00067556572 1.6383402e-19)
(-0.0025341342 0.0006714953 1.6879591e-19)
(-0.002606883 0.00066687725 2.3882755e-19)
(-0.0026781767 0.00066170057 2.5315985e-19)
(-0.0027479259 0.00065595691 1.1912935e-19)
(-0.0028160416 0.00064964066 -1.8768645e-20)
(-0.0028824359 0.00064274895 -1.5514128e-19)
(-0.0029470228 0.00063528173 -2.5452662e-20)
(-0.003009718 0.00062724169 -7.9780015e-20)
(-0.0030704397 0.00061863427 -8.6814977e-20)
(-0.0031291089 0.00060946761 -4.0136402e-21)
(-0.0031856499 0.00059975247 -2.3624302e-20)
(-0.0032399905 0.00058950211 -7.8478195e-20)
(-0.0032920627 0.00057873226 -1.1765753e-19)
(-0.0033418024 0.00056746089 1.2116389e-19)
(-0.0033891503 0.00055570816 1.6491116e-19)
(-0.003434052 0.00054349625 1.8607834e-19)
(-0.003476458 0.00053084915 1.807629e-19)
(-0.0035163243 0.00051779255 1.3267805e-20)
(-0.0035536121 0.00050435364 1.2167406e-20)
(-0.0035882885 0.00049056093 -1.7745533e-20)
(-0.0036203262 0.00047644403 -3.7769683e-20)
(-0.0036497036 0.00046203352 -5.5721174e-20)
(-0.0036764049 0.0004473607 -8.1613246e-20)
(-0.0037004203 0.00043245744 -1.0689506e-19)
(-0.0037217458 0.00041735597 -1.8245484e-19)
(-0.0037403829 0.00040208872 -5.8131963e-20)
(-0.0037563389 0.00038668811 7.2005297e-20)
(-0.0037696268 0.00037118639 9.4557744e-20)
(-0.0037802647 0.0003556155 1.159073e-20)
(-0.0037882761 0.00034000687 -9.1878039e-20)
(-0.0037936895 0.00032439131 -9.9773724e-20)
(-0.0037965383 0.00030879886 -4.1462745e-20)
(-0.0037968603 0.00029325866 4.3692555e-20)
(-0.0037946978 0.00027779884 1.8220347e-19)
(-0.0037900972 0.00026244643 8.9365481e-20)
(-0.0037831086 0.00024722723 -1.9461961e-20)
(-0.0037737859 0.0002321658 -8.5492474e-20)
(-0.0037621858 0.00021728534 -9.52112e-20)
(-0.0037483685 0.00020260765 -8.7229973e-20)
(-0.0037323964 0.00018815307 -5.7745488e-20)
(-0.0037143346 0.00017394049 5.2672051e-21)
(-0.00369425 0.00015998728 -1.2331139e-20)
(-0.0036722115 0.00014630931 -7.3070431e-20)
(-0.0036482894 0.00013292091 -2.4743209e-20)
(-0.0036225552 0.00011983491 6.3528538e-20)
(-0.0035950814 0.00010706264 -3.2843126e-20)
(-0.0035659412 9.4613991e-05 -1.2051916e-19)
(-0.0035352081 8.2497418e-05 -2.1742672e-19)
(-0.003502956 7.0720015e-05 -1.6791191e-19)
(-0.0034692585 5.9287569e-05 -4.9584757e-20)
(-5.8390226e-05 0.00082247854 -1.2538778e-18)
(-0.00013642052 0.00082424645 -1.2188493e-18)
(-0.00022437636 0.00082715486 -1.0011434e-18)
(-0.00030839382 0.00083065051 -8.3887364e-19)
(-0.00039519556 0.00083417017 -7.2757416e-19)
(-0.00048174616 0.00083747012 -4.7490582e-19)
(-0.00056820675 0.00084049279 -2.4538466e-19)
(-0.00065467502 0.00084324866 -2.0399933e-19)
(-0.00074118787 0.00084577146 1.8870769e-20)
(-0.00082773995 0.00084809401 1.4941213e-19)
(-0.00091431121 0.00085023905 9.8252105e-20)
(-0.0010008731 0.00085221711 1.514705e-20)
(-0.0010873909 0.00085402748 -2.0718337e-19)
(-0.0011738245 0.00085566016 -7.7001428e-20)
(-0.00126013 0.00085709789 1.2751077e-20)
(-0.0013462596 0.00085831784 -5.9367536e-20)
(-0.0014321619 0.00085929312 5.3518618e-20)
(-0.001517782 0.00085999382 3.2723691e-20)
(-0.0016030611 0.00086038804 -1.1134617e-20)
(-0.0016879368 0.00086044256 1.3846736e-19)
(-0.0017723432 0.00086012357 2.3553203e-19)
(-0.0018562105 0.00085939721 9.7184471e-20)
(-0.0019394655 0.00085823009 2.01763e-19)
(-0.0020220318 0.0008565897 5.4637695e-19)
(-0.0021038295 0.0008544448 4.1508248e-19)
(-0.0021847762 0.00085176579 -3.530226e-20)
(-0.0022647866 0.00084852496 -1.1053417e-19)
(-0.0023437733 0.00084469681 -1.6221348e-19)
(-0.0024216468 0.00084025828 -5.2529381e-20)
(-0.0024983164 0.00083518893 1.0852835e-19)
(-0.0025736901 0.00082947118 1.0285716e-19)
(-0.0026476751 0.00082309037 2.7811125e-19)
(-0.0027201788 0.00081603497 2.2234636e-19)
(-0.0027911083 0.00080829666 -6.6638502e-20)
(-0.0028603719 0.00079987033 -1.3759587e-19)
(-0.0029278789 0.00079075421 -1.1282409e-19)
(-0.0029935401 0.0007809498 6.8697565e-21)
(-0.0030572686 0.00077046193 -1.264756e-19)
(-0.0031189799 0.00075929862 -3.0525691e-19)
(-0.0031785925 0.00074747113 -2.8362238e-19)
(-0.0032360284 0.00073499378 -1.324211e-19)
(-0.0032912132 0.00072188388 5.6891673e-20)
(-0.0033440766 0.00070816157 -6.5809496e-20)
(-0.003394553 0.00069384969 -9.3051887e-20)
(-0.0034425814 0.00067897361 5.6331969e-20)
(-0.0034881058 0.00066356103 2.6031064e-19)
(-0.0035310757 0.0006476418 3.0975028e-19)
(-0.003571446 0.00063124769 -1.5284835e-20)
(-0.0036091773 0.00061441222 -1.3255713e-19)
(-0.003644236 0.0005971704 -1.0937914e-20)
(-0.0036765945 0.00057955849 -1.0005545e-19)
(-0.0037062313 0.00056161382 -4.3295667e-20)
(-0.0037331308 0.00054337452 -8.6158725e-20)
(-0.0037572834 0.00052487931 -1.9658238e-19)
(-0.0037786858 0.00050616728 -1.4813358e-19)
(-0.0037973404 0.00048727765 -7.5711108e-20)
(-0.0038132555 0.00046824956 -6.985276e-21)
(-0.0038264452 0.00044912189 -3.5312886e-20)
(-0.003836929 0.00042993305 -5.401087e-20)
(-0.003844732 0.00041072078 -7.5837961e-20)
(-0.0038498843 0.000391522 -5.9381497e-20)
(-0.0038524211 0.00037237264 9.5838485e-21)
(-0.0038523823 0.0003533075 -6.1684389e-20)
(-0.0038498122 0.00033436009 -1.7633355e-20)
(-0.0038447594 0.00031556256 5.8159611e-20)
(-0.0038372761 0.00029694553 -1.9990633e-20)
(-0.0038274184 0.00027853808 -3.5668861e-20)
(-0.0038152457 0.00026036761 -7.5698479e-20)
(-0.0038008202 0.0002424598 -7.1988777e-20)
(-0.003784207 0.00022483857 -4.703955e-20)
(-0.0037654734 0.00020752603 -2.8695574e-20)
(-0.0037446888 0.00019054248 -2.5476235e-20)
(-0.0037219244 0.00017390636 -4.0154274e-21)
(-0.003697253 0.00015763429 3.0728856e-20)
(-0.0036707483 0.00014174107 1.9611585e-20)
(-0.0036424852 0.0001262397 -7.2295607e-20)
(-0.0036125391 0.00011114144 -1.2914574e-19)
(-0.0035809856 9.645582e-05 -1.5475953e-19)
(-0.0035479008 8.2190752e-05 -1.7030704e-19)
(-0.0035133603 6.8352539e-05 -1.0431028e-19)
(-5.8198655e-05 0.00099929211 -1.5207193e-18)
(-0.00013624813 0.0010005396 -1.5776207e-18)
(-0.0002244518 0.0010029298 -8.2601354e-19)
(-0.0003088751 0.0010059143 -4.8303148e-19)
(-0.00039623277 0.0010090556 -3.55939e-19)
(-0.00048339793 0.001012117 -3.2259015e-19)
(-0.00057049217 0.0010150027 -3.6928902e-20)
(-0.0006575941 0.0010176857 1.392404e-19)
(-0.00074473537 0.0010201685 2.409167e-19)
(-0.00083191262 0.0010224597 3.2038875e-19)
(-0.00091911071 0.0010245643 3.5355521e-19)
(-0.0010063068 0.0010264794 3.1591004e-19)