/*--------------------------------*- C++ -*----------------------------------*\
| =========                 |                                                 |
| \\      /  F ield         | OpenFOAM: The Open Source CFD Toolbox           |
|  \\    /   O peration     | Version:  2106                                  |
|   \\  /    A nd           | Website:  www.openfoam.com                      |
|    \\/     M anipulation  |                                                 |
\*---------------------------------------------------------------------------*/
FoamFile
{
    version     2.0;
    format      ascii;
    arch        "LSB;label=32;scalar=64";
    class       surfaceScalarField;
    location    "0.046";
    object      phi_0;
}
// * * * * * * * * * * * * * * * * * * * * * * * * * * * * * * * * * * * * * //

dimensions      [0 3 -1 0 0 0 0];

oriented        oriented;

internalField   nonuniform List<scalar> 
1984
(
5.8731314e-06
-5.8752757e-06
1.1545626e-05
-5.6724943e-06
1.6816787e-05
-5.2711612e-06
2.1497016e-05
-4.6802289e-06
2.5410967e-05
-3.9139516e-06
2.8403592e-05
-2.9926248e-06
3.0346798e-05
-1.9432061e-06
3.1146333e-05
-7.9953521e-07
3.074888e-05
3.974531e-07
2.914653e-05
1.6023499e-06
2.6381655e-05
2.7648753e-06
2.2547863e-05
3.8337925e-06
1.7788179e-05
4.7596837e-06
1.2290205e-05
5.4979739e-06
6.2781527e-06
6.0120524e-06
2.2652133e-09
6.2758874e-06
-6.2736917e-06
6.2759569e-06
-1.2285955e-05
6.012263e-06
-1.7784287e-05
5.4983319e-06
-2.254448e-05
4.7601939e-06
-2.6378932e-05
3.8344518e-06
-2.9144599e-05
2.7656664e-06
-3.0747839e-05
1.6032404e-06
-3.1146236e-05
3.9839641e-07
-3.034764e-05
-7.985954e-07
-2.8405317e-05
-1.9423226e-06
-2.5413474e-05
-2.9918432e-06
-2.1500172e-05
-3.9133021e-06
-1.6820446e-05
-4.6797264e-06
-1.1549638e-05
-5.2708083e-06
-5.8773512e-06
-5.6722863e-06
-5.8752069e-06
8.0214546e-06
-1.3899044e-05
1.5761365e-05
-1.3412404e-05
2.2940707e-05
-1.2450503e-05
2.9297466e-05
-1.1036988e-05
3.4592266e-05
-9.2087522e-06
3.8616793e-05
-7.0171517e-06
4.1202504e-05
-4.5289163e-06
4.2229187e-05
-1.8262189e-06
4.1632938e-05
9.9370288e-07
3.9412081e-05
3.8232061e-06
3.5631354e-05
6.5456028e-06
3.0422332e-05
9.0428146e-06
2.3980487e-05
1.1201528e-05
1.6558341e-05
1.292012e-05
8.454979e-06
1.4115415e-05
2.4364826e-09
1.472843e-05
-8.4501762e-06
1.472857e-05
-1.6553755e-05
1.4115841e-05
-2.3976273e-05
1.292085e-05
-3.0418657e-05
1.1202578e-05
-3.5628387e-05
9.0441816e-06
-3.9409974e-05
6.5472537e-06
-4.1631806e-05
3.8250726e-06
-4.2229094e-05
9.9568426e-07
-4.1203444e-05
-1.8242457e-06
-3.86187e-05
-4.5270662e-06
-3.459502e-05
-7.015523e-06
-2.9300915e-05
-9.2074076e-06
-2.2944686e-05
-1.1035956e-05
-1.576571e-05
-1.2449784e-05
-8.0260134e-06
-1.3411983e-05
-1.3898906e-05
1.1682545e-05
-2.5584135e-05
2.2944648e-05
-2.4674508e-05
3.3373104e-05
-2.2878959e-05
4.2582084e-05
-2.0245968e-05
5.0223137e-05
-1.6849806e-05
5.5997675e-05
-1.2791689e-05
5.9669086e-05
-8.2003274e-06
6.1073985e-05
-3.2311184e-06
6.0131987e-05
1.9357014e-06
5.6852912e-05
7.1022811e-06
5.1340464e-05
1.205805e-05
4.3791535e-05
1.6591744e-05
3.4490975e-05
2.0502089e-05
2.3801433e-05
2.3609661e-05
1.2148622e-05
2.5768225e-05
2.6677717e-09
2.6874385e-05
-1.2143355e-05
2.6874592e-05
-2.379638e-05
2.5768867e-05
-3.4486303e-05
2.3610773e-05
-4.3787433e-05
2.0503708e-05
-5.1337133e-05
1.6593881e-05
-5.6850538e-05
1.2060659e-05
-6.0130718e-05
7.1052526e-06
-6.10739e-05
1.9388664e-06
-5.9670178e-05
-3.2279671e-06
-5.5999859e-05
-8.1973854e-06
-5.0226262e-05
-1.278912e-05
-4.2585961e-05
-1.6847708e-05
-3.337754e-05
-2.0244377e-05
-2.2949459e-05
-2.2877865e-05
-1.1687569e-05
-2.4673873e-05
-2.5583929e-05
1.7141441e-05
-4.2728397e-05
3.3654649e-05
-4.1187715e-05
4.8925938e-05
-3.8150248e-05
6.2384612e-05
-3.3704642e-05
7.3519606e-05
-2.7984801e-05
8.1898028e-05
-2.1170111e-05
8.7182306e-05
-1.3484605e-05
8.9145316e-05
-5.1941277e-06
8.7683033e-05
3.3979843e-06
8.2823035e-05
1.1962279e-05
7.4727865e-05
2.015322e-05
6.3692236e-05
2.7627373e-05
5.0134336e-05
3.4059989e-05
3.4580703e-05
3.9163294e-05
1.7645199e-05
4.2703729e-05
2.9389636e-09
4.4516645e-05
-1.7639379e-05
4.451691e-05
-3.4575078e-05
4.2704565e-05
-5.0129079e-05
3.9164774e-05
-6.3687567e-05
3.4062196e-05
-7.4724034e-05
2.7630349e-05
-8.2820288e-05
2.0156913e-05
-8.768157e-05
1.1966534e-05
-8.9145245e-05
3.4025413e-06
-8.7183618e-05
-5.1895939e-06
-8.1900604e-05
-1.3480399e-05
-7.352324e-05
-2.1166485e-05
-6.2389059e-05
-2.7981888e-05
-4.893096e-05
-3.3702477e-05
-3.3660034e-05
-3.814879e-05
-1.7147023e-05
-4.1186884e-05
-4.2728131e-05
2.5340778e-05
-6.8072321e-05
4.9740453e-05
-6.558739e-05
7.2283763e-05
-6.0693559e-05
9.2121991e-05
-5.3542869e-05
0.00010849975
-4.4362559e-05
0.00012078263
-3.345299e-05
0.0001284819
-2.1183879e-05
0.00013127543
-7.9876537e-06
0.00012902454
5.6488757e-06
0.00012178485
1.9201965e-05
0.00010980848
3.2129593e-05
9.3537902e-05
4.3897949e-05
7.3591866e-05
5.4006025e-05
5.0742717e-05
6.2012443e-05
2.5885974e-05
6.7560472e-05
3.2552161e-09
7.0399364e-05
-2.5879498e-05
7.0399663e-05
-5.0736385e-05
6.7561452e-05
-7.3585852e-05
6.2014241e-05
-9.3532467e-05
5.400881e-05
-0.00010980395
4.3901837e-05
-0.00012178158
3.2134534e-05
-0.0001290228
1.9207757e-05
-0.00013127538
5.6551274e-06
-0.00012848354
-7.9814422e-06
-0.00012078577
-2.1178168e-05
-0.0001085041
-3.3448157e-05
-9.212721e-05
-4.4358774e-05
-7.2289545e-05
-5.3540142e-05
-4.9746551e-05
-6.0691784e-05
-2.5347029e-05
-6.5586406e-05
-6.8072015e-05
3.7546778e-05
-0.00010562263
7.3686266e-05
-0.00010172688
0.00010705407
-9.4061359e-05
0.00013638722
-8.2876022e-05
0.00016056628
-6.8541619e-05
0.00017865657
-5.154328e-05
0.00018994425
-3.2471558e-05
0.00019396583
-1.2009234e-05
0.00019053194
9.0827616e-06
0.00017974168
2.9992223e-05
0.00016198264
4.9888634e-05
0.0001379189
6.7961689e-05
0.0001084686
8.3456332e-05
7.4769797e-05
9.5711243e-05
3.8136145e-05
0.00010419412
3.6229391e-09
0.00010853189
-3.8128888e-05
0.00010853217
-7.4762581e-05
0.00010419514
-0.00010846159
9.5713248e-05
-0.00013791242
8.3459639e-05
-0.00016197714
6.7966559e-05
-0.00017973765
4.9895044e-05
-0.00019052981
2.9999916e-05
-0.00019396584
9.0911565e-06
-0.00018994636
-1.2000913e-05
-0.00017866053
-3.2463998e-05
-0.00016057164
-5.1537053e-05
-0.0001363935
-6.8536917e-05
-0.00010706085
-8.2872792e-05
-7.3693255e-05
-9.4059375e-05
-3.7553831e-05
-0.00010172583
-0.00010562232
5.4688356e-05
-0.00016031494
0.00010731564
-0.00015435416
0.00015588753
-0.00014263326
0.00019855924
-0.00012554772
0.00023369913
-0.00010368152
0.00025994925
-7.7793395e-05
0.0002762777
-4.8800006e-05
0.00028202055
-1.7752083e-05
0.00027691678
1.4186523e-05
0.00026112881
4.5780193e-05
0.00023523798
7.5779472e-05
0.00020022253
0.00010297714
0.00015742299
0.00012625587
0.0001084915
0.00014464273
5.5327881e-05
0.00015735775
4.0330717e-09
0.00016385573
-5.5319721e-05
0.00016385593
-0.0001084832
0.00015735862
-0.00015741468
0.00014464473
-0.00020021459
0.00012625955
-0.00023523108
0.00010298305
-0.00026112368
7.5787638e-05
-0.00027691407
4.5790315e-05
-0.00028202065
1.4197728e-05
-0.00027628054
-1.7741022e-05
-0.00025995443
-4.8790107e-05
-0.00023370594
-7.7785545e-05
-0.00019856696
-0.00010367589
-0.00015589561
-0.00012554414
-0.00010732372
-0.00014263127
-5.4696339e-05
-0.00015435321
-0.0001603147
7.5995175e-05
-0.00023631449
0.00014912107
-0.00022748005
0.00021660399
-0.00021011618
0.00027587668
-0.00018482041
0.00032466895
-0.00015247379
0.00036109183
-0.00011421627
0.00038371155
-7.1419728e-05
0.00039160754
-2.5648068e-05
0.00038442545
2.1368605e-05
0.00036240914
6.7796504e-05
0.00032638693
0.00011180168
0.00027773307
0.000151631
0.00021831741
0.00018567153
0.00015043313
0.00021252701
7.670861e-05
0.00023108226
4.4292483e-09
0.00024055991
-7.6699517e-05
0.00024055987
-0.00015042357
0.00023108267
-0.00021830745
0.00021252861
-0.00027772319
0.0001856753
-0.00032637811
0.00015163797
-0.00036240244
0.00011181196
-0.00038442193
6.7809805e-05
-0.0003916078
2.1383605e-05
-0.00038371546
-2.5633362e-05
-0.00036109877
-7.14068e-05
-0.00032467776
-0.00011420656
-0.00027588633
-0.00015246732
-0.00021661368
-0.00018481679
-0.00014913038
-0.00021011458
-7.6004119e-05
-0.00022747946
-0.00023631444
9.6738491e-05
-0.00033305756
0.00018983402
-0.00032057558
0.00027576481
-0.00029604698
0.00035126346
-0.00026031905
0.00041343306
-0.00021464339
0.00045985495
-0.00016063817
0.00048868738
-0.00010025216
0.0004987379
-3.5698587e-05
0.00048954608
3.0560425e-05
0.00046143916
9.5903418e-05
0.00041549921
0.00015774163
0.00035349725
0.00021363296
0.00027782802
0.00026134076
0.00019141473
0.0002989403
9.7597569e-05
0.00032489943
4.6033474e-09
0.00033815288
-9.7587874e-05
0.00033815235
-0.00019140404
0.00032489883
-0.00027781625
0.00029894082
-0.00035348494
0.00026134399
-0.00041548785
0.00021364089
-0.00046143028
0.00015775439
-0.00048954141
9.5920927e-05
-0.00049873846
3.0580658e-05
-0.00048869286
-3.5678964e-05
-0.0004598644
-0.00010023526
-0.00041344454
-0.00016062642
-0.00035127547
-0.00021463639
-0.00027577625
-0.00026031601
-0.00018984439
-0.00029604643
-9.6748051e-05
-0.00032057581
-0.00033305791
0.00010542092
-0.0004384824
0.00020691337
-0.00042206803
0.00030067355
-0.00038980716
0.00038315012
-0.00034279562
0.00045117052
-0.0002826638
0.00050206172
-0.00021152936
0.00053376481
-0.00013195525
0.00054490585
-4.6839636e-05
0.00053492927
4.0537007e-05
0.00050420839
0.0001266243
0.00045396989
0.00020798014
0.00038617944
0.00028142341
0.00030347584
0.00034404436
0.00020906289
0.00039335325
0.00010658807
0.00042737424
3.9106746e-09
0.00044473704
-0.00010657927
0.00044473553
-0.00020905211
0.00042737167
-0.00030346271
0.00039335142
-0.00038616444
0.00034404572
-0.00045395533
0.00028143177
-0.00050419651
0.00020799557
-0.00053492296
0.00012664738
-0.0005449069
4.05646e-05
-0.00053377255
-4.6813313e-05
-0.00050207469
-0.00013193312
-0.00045118539
-0.00021151572
-0.00038316465
-0.00028265714
-0.00030068621
-0.00034279444
-0.00020692365
-0.00038980899
-0.00010542957
-0.00042206989
-0.00043848356
8.1952496e-05
-0.0005204356
0.00016096739
-0.00050108292
0.00023417859
-0.00046301836
0.00029885554
-0.00040747257
0.00035249398
-0.00033630224
0.00039292677
-0.00025196215
0.0004184192
-0.00015744768
0.00042769577
-5.6116203e-05
0.00042016376
4.8069015e-05
0.00039613814
0.00015064992
0.00035667941
0.00024743887
0.00030338864
0.00033471418
0.00023838164
0.00040905135
0.0001641972
0.0004675377
8.3704866e-05
0.00050786658
5.5560662e-10
0.00052844135
-8.3701643e-05
0.00052843773
-0.00016418994
0.00050785997
-0.00023836927
0.00046753075
-0.00030337129
0.00040904773
-0.0003566608
0.00033472129
-0.00039612175
0.00024745652
-0.00042015477
0.0001506804
-0.00042769753
4.8107353e-05
-0.00041843044
-5.6080404e-05
-0.00039294493
-0.00015741863
-0.00035251314
-0.0002519475
-0.00029887204
-0.00033629824
-0.00023419035
-0.00040747613
-0.00016097385
-0.00046302549
-8.1955552e-05
-0.00050108819
-0.00052043841
5.0607939e-07
-0.0005209332
1.3308118e-06
-0.00050190765
2.7330268e-06
-0.00046442057
4.7923991e-06
-0.00040953194
7.3652221e-06
-0.00033887506
1.0210887e-05
-0.00025480781
1.2924279e-05
-0.00016016107
1.4864074e-05
-5.8055998e-05
1.5537686e-05
4.7395403e-05
1.5000187e-05
0.00015118742
1.3581285e-05
0.00024885777
1.151089e-05
0.00033678458
8.9720424e-06
0.0004115902
6.127013e-06
0.00047038273
3.0999286e-06
0.00051089366
-9.0610385e-09
0.00053155034
-3.1139224e-06
0.00053154259
-6.1320247e-06
0.00051087808
-8.9652873e-06
0.00047036401
-1.1492248e-05
0.00041157469
-1.3556627e-05
0.00033678567
-1.4976059e-05
0.00024887596
-1.5523803e-05
0.00015122814
-1.4866536e-05
4.7450086e-05
-1.2941393e-05
-5.8005547e-05
-1.0237093e-05
-0.00016012293
-7.3902935e-06
-0.0002547943
-4.8093484e-06
-0.00033887918
-2.7388149e-06
-0.00040954666
-1.3248837e-06
-0.00046443942
-4.9242231e-07
-0.00050192066
-0.00052093931
-0.00015953066
-0.00036137572
-0.00031243383
-0.00034900448
-0.00045236338
-0.00032449102
-0.00057374864
-0.00028814669
-0.00067214839
-0.00024047531
-0.00074389187
-0.00018306433
-0.00078656602
-0.00011748692
-0.00079950359
-4.5118426e-05
-0.00078297551
3.0867321e-05
-0.00073739529
0.00010560719
-0.00066379828
0.00017526076
-0.00056475786
0.00023774415
-0.00044395344
0.00029078579
-0.00030594049
0.00033236977
-0.00015602629
0.00036097946
-2.9401361e-08
0.00037555345
0.00015597569
0.0003755375
0.00030590675
0.00036094701
0.00044394312
0.00033232764
0.00056477479
0.00029074302
0.00066383194
0.00023772852
0.00073743521
0.00017527269
0.0007830006
0.00010566275
0.00079950034
3.0950349e-05
0.00078653851
-4.504372e-05
0.00074385117
-0.00011743559
0.00067211616
-0.00018305929
0.00057373662
-0.00024049965
0.00045237411
-0.00028818415
0.00031246842
-0.00032453373
0.00015957838
-0.00034903062
-0.00036138776
-0.00037740834
1.6086045e-05
-0.00073974178
1.3328961e-05
-0.0010723632
8.1303935e-06
-0.0013622624
1.7525443e-06
-0.0015991097
-3.6280301e-06
-0.001773439
-8.7350386e-06
-0.0018788823
-1.2043619e-05
-0.0019129438
-1.105696e-05
-0.001875429
-6.6474687e-06
-0.0017676386
-2.183202e-06
-0.0015919685
-4.0935155e-07
-0.0013547546
5.302769e-07
-0.0010650931
1.1243137e-06
-0.00073402553
1.3021909e-06
-0.00037434814
1.3020705e-06
-6.0689505e-08
1.2659984e-06
0.00037424057
1.2362357e-06
0.00073394649
1.2410951e-06
0.0010650541
1.2200527e-06
0.0013547626
1.0345172e-06
0.001592008
4.8314369e-07
0.0017676972
-4.1652256e-07
0.0018754709
-2.1109551e-06
0.0019129379
-6.5166661e-06
0.0018788425
-1.0948312e-05
0.0017733826
-1.1975743e-05
0.0015990756
-8.7522001e-06
0.0013622632
-3.6872447e-06
0.0010723991
1.6798929e-06
0.00073982122
8.0441608e-06
0.00037750603
1.3284562e-05
1.6064859e-05
-0.00055634154
0.00057246906
-0.0010911363
0.00054812372
-0.001583834
0.00050082808
-0.0020153287
0.00043324726
-0.0023684524
0.00034949569
-0.0026304645
0.00025327701
-0.0027904619
0.00014795384
-0.0028442773
4.2758378e-05
-0.0027925583
-5.8366405e-05
-0.0026337724
-0.00016096913
-0.0023724128
-0.00026176896
-0.0020194702
-0.00035241234
-0.0015880819
-0.00043026402
-0.0010946255
-0.00049215415
-0.00055829944
-0.000535024
-6.7710137e-08
-0.00055696573
0.00055817568
-0.00055700715
0.0010945001
-0.00053508337
0.0015879763
-0.00049225613
0.0020194302
-0.00043041939
0.0023724174
-0.00035250399
0.002633828
-0.00026182715
0.0027926091
-0.00016089202
0.0028442773
-5.81849e-05
0.0027904285
4.2900509e-05
0.0026304167
0.00014803599
0.0023684617
0.00025320288
0.0020154021
0.00034937234
0.0015839475
0.0004331345
0.0010912434
0.00050074826
0.00055642201
0.00054810591
0.0005724454
-0.0004171136
0.00098958235
-0.00081911604
0.00095012616
-0.0011914703
0.00087318235
-0.0015202834
0.0007620603
-0.0017930057
0.000622218
-0.0019991436
0.00045941493
-0.0021288021
0.0002776124
-0.0021773782
9.133446e-05
-0.0021443497
-9.1394961e-05
-0.0020277401
-0.00027757868
-0.0018302771
-0.00045923193
-0.0015606458
-0.00062204366
-0.0012289595
-0.00076195029
-0.00084793516
-0.00087317853
-0.00043273392
-0.00095022524
-1.7755312e-08
-0.0009896819
0.00043269185
-0.00098971676
0.00084784783
-0.00095023934
0.0012288439
-0.00087325223
0.0015605568
-0.00076213225
0.0018302128
-0.00062216001
0.0020277335
-0.00045934784
0.0021443663
-0.00027752478
0.0021773811
-9.1199711e-05
0.0021288127
9.1468902e-05
0.001999163
0.00027768569
0.0017930796
0.00045928626
0.0015203914
0.00062206058
0.0011915768
0.00076194903
0.00081918545
0.00087313964
0.0004171231
0.00095016826
0.0009895688
0.0004335833
0.00055599532
0.00084959114
0.00053411832
0.0012313798
0.00049139365
0.0015637655
0.00042967461
0.0018339998
0.00035198371
0.0020319298
0.00026148491
0.002148854
0.00016068829
0.0021819824
5.820599e-05
0.0021333216
-4.2734145e-05
0.0020034235
-0.00014768059
0.0017969301
-0.00025273852
0.0015237027
-0.00034881621
0.0011942338
-0.0004324814
0.00082102928
-0.00049997405
0.00041806849
-0.00054726444
1.3511442e-08
-0.00057162692
-0.00041803272
-0.00057167053
-0.00082094522
-0.00054732684
-0.0011941178
-0.00050007965
-0.0015236161
-0.00043263397
-0.0017968663
-0.00034890973
-0.0020034149
-0.0002527993
-0.0021333334
-0.00014760625
-0.0021819781
-4.2554978e-05
-0.0021488587
5.8349497e-05
-0.0020319473
0.00016077429
-0.0018340729
0.00026141183
-0.0015638732
0.00035186089
-0.0012314875
0.00042956328
-0.00084966679
0.00049131895
-0.00043360042
0.00053410189
0.00055597211
0.00055903696
-3.0881876e-06
0.0010961738
-3.018476e-06
0.001590412
-2.844611e-06
0.0020225299
-2.443311e-06
0.0023760975
-1.5838281e-06
0.0026378495
-2.6713567e-07
0.002796998
1.5397976e-06
0.0028487925
6.4114742e-06
0.0027948612
1.1197148e-05
0.0026346078
1.2572841e-05
0.0023722332
9.6360873e-06
0.0020186512
4.7657482e-06
0.0015866305
-4.606524e-07
0.0010931044
-6.4479674e-06
0.00055735343
-1.1513468e-05
6.1758575e-08
-1.4335248e-05
-0.00055723544
-1.4373334e-05
-0.0010929794
-1.1582844e-05
-0.0015865145
-6.5445538e-06
-0.0020186178
-5.307058e-07
-0.0023722391
4.7115946e-06
-0.0026346643
9.6258471e-06
-0.0027949117
1.2641146e-05
-0.0028487863
1.1319596e-05
-0.0027969608
6.5240836e-06
-0.0026378051
1.6185534e-06
-0.0023761065
-2.867611e-07
-0.0020226
-1.6456407e-06
-0.0015905189
-2.51777e-06
-0.0010962878
-2.9121423e-06
-0.00055912701
-3.0589298e-06
-3.1083505e-06
0.00037512198
-0.00037826132
0.00073566438
-0.00036356088
0.0010675422
-0.00033472245
0.0013579224
-0.00029282344
0.0015957343
-0.00023939578
0.0017719363
-0.00017646912
0.0018798884
-0.0001064123
0.0019174549
-3.1155052e-05
0.0018832914
4.5360676e-05
0.0017776022
0.00011826207
0.0016028997
0.00018433855
0.0013654989
0.00024216654
0.0010748469
0.00029019131
0.00074152243
0.00032687654
0.00037842215
0.00035158681
6.4350379e-08
0.00036402255
-0.0003783127
0.00036400372
-0.00074144501
0.00035154947
-0.0010748191
0.00032682952
-0.0013655015
0.00029015173
-0.0016029395
0.00024214954
-0.0017776618
0.00018434819
-0.0018833355
0.00011831488
-0.0019174579
4.5441981e-05
-0.0018798536
-3.1080219e-05
-0.0017718778
-0.00010635727
-0.0015957006
-0.00017646392
-0.0013579265
-0.00023941975
-0.0010675853
-0.00029285904
-0.00073573939
-0.00033475802
-0.00037521494
-0.00036358337
-0.00037827215
0.0001569088
-0.00053519512
0.00030773177
-0.00051438385
0.00044658982
-0.0004735805
0.00056814087
-0.00041437449
0.00066779902
-0.00033905393
0.00074186379
-0.00025053389
0.00078767942
-0.00015222792
0.00080427302
-4.7748656e-05
0.00079121826
5.8415433e-05
0.00074826557
0.00016121477
0.00067609008
0.00025651404
0.00057709946
0.00034115716
0.00045498729
0.00041230348
0.00031427848
0.00046758536
0.00016052
0.00050534528
3.112753e-08
0.00052451143
-0.00016046767
0.00052450252
-0.00031424546
0.00050532725
-0.00045498071
0.00046756478
-0.00057711672
0.00041228773
-0.0006761242
0.00034115703
-0.00074830719
0.00025653117
-0.0007912464
0.00016125409
-0.00080427351
5.846909e-05
-0.00078765582
-4.769791e-05
-0.00074182425
-0.00015218884
-0.0006677686
-0.00025051957
-0.00056813098
-0.00033905737
-0.00044660274
-0.00041438728
-0.00030776457
-0.00047359618
-0.00015695314
-0.00051439481
-0.00053520029
-2.0584014e-06
-0.00053314419
-4.0654018e-06
-0.00051237685
-5.9698423e-06
-0.00047167606
-7.6864774e-06
-0.00041265786
-9.0879933e-06
-0.00033765242
-1.001953e-05
-0.00024960235
-1.0283289e-05
-0.00015196416
-9.5463243e-06
-4.8485621e-05
-7.745512e-06
5.6614621e-05
-5.3664148e-06
0.00015883567
-3.0346412e-06
0.00025418226
-1.1387043e-06
0.00033926122
1.0818028e-07
0.00041105659
6.0213225e-07
0.00046709141
4.6903323e-07
0.00050547838
9.6315108e-09
0.00052497083
-4.5460651e-07
0.00052496676
-5.9820246e-07
0.00050547085
-1.1659838e-07
0.00046708318
1.1190019e-06
0.00041105213
3.0086848e-06
0.00033926735
5.3406336e-06
0.00025419922
7.7293911e-06
0.00015886533
9.5461461e-06
5.6652335e-05
1.029793e-05
-4.8449694e-05
1.0044061e-05
-0.00015193497
9.1116149e-06
-0.00024958712
7.7021503e-06
-0.00033764791
5.9749665e-06
-0.0004126601
4.0602706e-06
-0.00047168149
2.0463679e-06
-0.00051238091
-0.00053314644
-8.2215183e-05
-0.00045092772
-0.00016127583
-0.0004333162
-0.00023414127
-0.00039881062
-0.00029799501
-0.00034880412
-0.00035034435
-0.00028530308
-0.00038911216
-0.00021083454
-0.00041272608
-0.00012835024
-0.00042013382
-4.1077881e-05
-0.00041102817
4.7508968e-05
-0.00038598371
0.00013379121
-0.00034625925
0.00021445781
-0.00029356354
0.00028656551
-0.00023002505
0.0003475181
-0.00015810137
0.00039516773
-8.0484008e-05
0.00042786102
-5.1647554e-10
0.00044448734
8.0480627e-05
0.00044448561
0.00015809352
0.00042785795
0.00023001146
0.00039516523
0.00029354481
0.00034751879
0.00034623905
0.0002865731
0.00038596564
0.00021447263
0.00041101741
0.00013381356
0.00042013378
4.7535969e-05
0.00041273588
-4.1051792e-05
0.00038912915
-0.00012832824
0.00035036259
-0.00021082057
0.00029801071
-0.00028529603
0.00023415269
-0.00034880207
0.00016128271
-0.00039881151
8.2219194e-05
-0.00043331738
-0.00045092853
-0.000105551
-0.00034537224
-0.00020704242
-0.00033182478
-0.00030056069
-0.00030529235
-0.00038249717
-0.00026686764
-0.00044967978
-0.00021812047
-0.00049949269
-0.00016102163
-0.00052998421
-9.7858724e-05
-0.00053993512
-3.112697e-05
-0.0005289505
3.6524347e-05
-0.00049758621
0.00010242691
-0.00044719153
0.00016406313
-0.00037980236
0.00021917634
-0.00029806569
0.00026578143
-0.00020512771
0.00030222974
-0.00010451522
0.00032724852
-4.3193763e-09
0.00033997644
0.00010450553
0.00033997577
0.00020511595
0.00032724753
0.00029805149
0.00030222969
0.00037978632
0.00026578396
0.00044717591
0.00021918351
0.00049757329
0.00016407525
0.00052894306
0.00010244379
0.00053993498
3.6544051e-05
0.00052999084
-3.1107646e-05
0.00049950465
-9.7842048e-05
0.00044969393
-0.00016100985
0.00038251126
-0.00021811336
0.00030057342
-0.00026686423
0.00020705329
-0.00030529138
0.0001055606
-0.0003318247
-0.00034537241
-9.338328e-05
-0.00025198432
-0.00018315521
-0.00024205285
-0.00026583765
-0.00022260991
-0.00033823345
-0.00019447184
-0.00039754519
-0.00015880873
-0.00044148192
-0.0001170849
-0.00046834955
-7.0991094e-05
-0.00047711012
-2.2366397e-05
-0.00046746726
2.6881481e-05
-0.00043985417
7.4813834e-05
-0.00039542204
0.000119631
-0.00033593824
0.00015969254
-0.00026371868
0.00019356187
-0.00018153478
0.00022004585
-9.2509976e-05
0.00023822372
-4.6466208e-09
0.00024747111
9.250012e-05
0.000247471
0.00018152374
0.00023822391
0.00026370633
0.0002200471
0.00033592514
0.00019356515
0.00039540973
0.00015969892
0.00043984433
0.00011964066
0.00046746165
7.4826465e-05
0.00047710985
2.6895857e-05
0.00046835439
-2.2352195e-05
0.00044149087
-7.0978523e-05
0.00039755632
-0.0001170753
0.00033824517
-0.00015880222
0.00026584892
-0.00019446798
0.00018316555
-0.00022260801
9.3392902e-05
-0.00024205204
-0.00025198415
-8.0879568e-05
-0.00017109937
-0.00015863555
-0.00016429687
-0.00023025692
-0.00015098853
-0.00029297852
-0.00013175024
-0.00034438267
-0.00010740459
-0.00038249191
-7.8975656e-05
-0.00040584611
-4.7636892e-05
-0.00041356125
-1.465126e-05
-0.00040533906
1.8659289e-05
-0.00038155583
5.1030601e-05
-0.00034316188
8.1237054e-05
-0.0002916599
0.00010819056
-0.00022904137
0.00013094334
-0.0001577083
0.00014871278
-8.0382843e-05
0.00016089826
-5.5168342e-09
0.00016709379
8.0371635e-05
0.00016709385
0.00015769679
0.00016089876
0.00022902971
0.00014871418
0.00029164859
0.00013094626
0.0003431519
0.00010819562
0.0003815482
8.1244354e-05
0.0004053348
5.1039868e-05
0.00041356097
1.8669685e-05
0.00040584966
-1.4640889e-05
0.00038249875
-4.7627611e-05
0.00034439175
-7.8968305e-05
0.00029298888
-0.00010739934
0.0002302678
-0.0001317469
0.00015864647
-0.00015098668
8.0890409e-05
-0.00016429599
-0.00017109913
-4.7652022e-05
-0.00012344385
-9.3435122e-05
-0.00011851377
-0.0001355519
-0.00010887175
-0.00017236069
-9.4941445e-05
-0.00020243816
-7.7327121e-05
-0.00022463436
-5.6779449e-05
-0.00023811533
-3.4155927e-05
-0.00024238681
-1.0379778e-05
-0.00023735394
1.3626415e-05
-0.00022322999
3.6906656e-05
-0.00020060653
5.8613595e-05
-0.00017038179
7.7965812e-05
-0.00013372691
9.4288463e-05
-9.2041341e-05
0.00010702721
-4.6901375e-05
0.0001157583
-3.5898906e-09
0.000120196
4.6894032e-05
0.00012019623
9.2033671e-05
0.00011575912
0.00013371897
0.00010702888
0.00017037395
9.4291288e-05
0.0002005995
7.797007e-05
0.00022322455
5.8619302e-05
0.00023735083
3.6913589e-05
0.00024238646
1.3634058e-05
0.00023811774
-1.0372174e-05
0.00022463909
-3.4148955e-05
0.00020244443
-5.6773649e-05
0.00017236778
-7.732269e-05
0.00013555923
-9.4938346e-05
9.3442353e-05
-0.00010886981
4.7659089e-05
-0.00011851272
-0.00012344353
-6.1156207e-05
-6.2281696e-05
-0.00011994547
-5.9724507e-05
-0.00017408373
-5.4733495e-05
-0.00022147827
-4.7546911e-05
-0.00026030397
-3.8501419e-05
-0.00028907407
-2.8009351e-05
-0.00030669683
-1.6533168e-05
-0.00031252676
-4.549847e-06
-0.00030631103
7.4106848e-06
-0.0002883593
1.8954934e-05
-0.00025937055
2.9624842e-05
-0.00022046969
3.906495e-05
-0.00017315458
4.6973351e-05
-0.00011923807
5.31107e-05
-6.0779233e-05
5.7299462e-05
-6.1204068e-09
5.9422891e-05
6.0767105e-05
5.9423002e-05
0.00011922633
5.7299893e-05
0.00017314358
5.3111625e-05
0.00022045988
4.6974991e-05
0.00025936245
3.9067493e-05
0.00028835344
2.9628312e-05
0.00030630784
1.8959187e-05
0.00031252653
7.41537e-06
0.00030669944
-4.545082e-06
0.00028907934
-1.6528854e-05
0.00026031147
-2.8005784e-05
0.00022148751
-3.8498724e-05
0.00017409422
-4.7545061e-05
0.00011995678
-5.473236e-05
6.1167964e-05
-5.9723912e-05
-6.2281519e-05
-1.9657456e-05
-4.2622151e-05
-3.8520086e-05
-4.0861877e-05
-5.5825931e-05
-3.7427651e-05
-7.0886758e-05
-3.2486084e-05
-8.3115578e-05
-2.6272598e-05
-9.2050785e-05
-1.9074144e-05
-9.736961e-05
-1.1214343e-05
-9.888622e-05
-3.0332369e-06
-9.6646234e-05
5.1706981e-06
-9.0718058e-05
1.3026758e-05
-8.1376584e-05
2.0283369e-05
-6.9006559e-05
2.6694924e-05
-5.4090739e-05
3.2057531e-05
-3.7193861e-05
3.6213822e-05
-1.8941944e-05
3.9047545e-05
-2.1870734e-09
4.0483134e-05
1.8937529e-05
4.0483286e-05
3.7189382e-05
3.904804e-05
5.4086267e-05
3.621474e-05
6.9002292e-05
3.2058965e-05
8.137284e-05
2.6696946e-05
9.0715192e-05
2.0285961e-05
9.6644553e-05
1.3029826e-05
9.8885874e-05
5.1740497e-06
9.7370726e-05
-3.029934e-06
9.2053115e-05
-1.1211243e-05
8.3118806e-05
-1.9071474e-05
7.0890553e-05
-2.6270471e-05
5.5830012e-05
-3.248452e-05
3.8524262e-05
-3.7426611e-05
1.9661642e-05
-4.0861291e-05
-4.2621966e-05
-7.8649725e-05
3.6035775e-05
-0.00015425504
3.4743442e-05
-0.00022387693
3.2194232e-05
-0.00028482326
2.8460253e-05
-0.0003347467
2.3650843e-05
-0.00037173591
1.7915057e-05
-0.00039438906
1.143881e-05
-0.00040187227
4.4499754e-06
-0.00039388177
-2.8197998e-06
-0.00037079853
-1.0056483e-05
-0.00033352321
-1.6991956e-05
-0.0002835012
-2.3327079e-05
-0.00022265888
-2.8784791e-05
-0.00015332779
-3.3117266e-05
-7.8155938e-05
-3.612431e-05
-8.3648166e-09
-3.7664439e-05
7.8139481e-05
-3.7664559e-05
0.00015331217
-3.6124645e-05
0.00022264464
-3.3117737e-05
0.00028348891
-2.8785301e-05
0.00033351338
-2.3327527e-05
0.00037079163
-1.6992288e-05
0.00039387814
-1.0056686e-05
0.00040187212
-2.8199308e-06
0.00039439229
4.4498971e-06
0.00037174239
1.1438659e-05
0.00033475611
1.7914802e-05
0.00028483515
2.3650488e-05
0.00022389078
2.845985e-05
0.00015427031
3.2193858e-05
7.8665845e-05
3.4743177e-05
3.6035679e-05
-1.341735e-06
3.7377928e-05
-2.6068159e-06
3.6008522e-05
-3.72459e-06
3.3312007e-05
-4.6374369e-06
2.93731e-05
-5.3053771e-06
2.4318783e-05
-5.7061608e-06
1.8315841e-05
-5.839606e-06
1.1572255e-05
-5.7143642e-06
4.3247336e-06
-5.3935486e-06
-3.1406154e-06
-4.8808547e-06
-1.0569177e-05
-4.2271979e-06
-1.7645613e-05
-3.4707345e-06
-2.4083543e-05
-2.6471542e-06
-2.9608371e-05
-1.7825823e-06
-3.3981838e-05
-8.9615834e-07
-3.7010733e-05
-5.2277353e-10
-3.8560074e-05
8.9510134e-07
-3.8560184e-05
1.781499e-06
-3.7011042e-05
2.6460565e-06
-3.3982295e-05
3.4696661e-06
-2.960891e-05
4.2262312e-06
-2.4084092e-05
4.8800702e-06
-1.7646127e-05
5.3930213e-06
-1.0569637e-05
5.7141143e-06
-3.1410237e-06
5.8397087e-06
4.3243026e-06
5.7065495e-06
1.1571818e-05
5.3059812e-06
1.8315371e-05
4.6381771e-06
2.4318292e-05
3.7254008e-06
2.9372626e-05
2.6076506e-06
3.3311608e-05
1.342572e-06
3.6008256e-05
3.7377833e-05
-8.8305357e-05
0.00012569288
-0.00017319025
0.00012089341
-0.00025135219
0.00011147395
-0.00031976703
9.7787934e-05
-0.0003757987
8.0350455e-05
-0.00041730184
5.9818984e-05
-0.00044270268
3.6973088e-05
-0.00045105817
1.2680228e-05
-0.0004420736
-1.2125186e-05
-0.00041614082
-3.6501958e-05
-0.00037428332
-5.9503114e-05
-0.00031812918
-8.0237681e-05
-0.0002498428
-9.7894756e-05
-0.00017204081
-0.00011178382
-8.7692668e-05
-0.00012135888
-9.7823362e-09
-0.00012624296
8.767345e-05
-0.00012624342
0.00017202263
-0.00012136022
0.00024982632
-0.00011178598
0.00031811505
-9.7897641e-05
0.00037427211
-8.0241158e-05
0.00041613303
-5.9507037e-05
0.00044206956
-3.6506176e-05
0.00045105808
-1.2129541e-05
0.00044270649
1.2675895e-05
0.00041730938
3.6968925e-05
0.00037580962
5.9815135e-05
0.00031978084
8.0347069e-05
0.00025136833
9.7785141e-05
0.00017320807
0.00011147187
8.8324199e-05
0.00012089213
0.00012569244
0.00011213094
0.00021999328
0.00031945728
0.00040671779
0.00047842785
0.00053182553
0.00056484327
0.00057618622
0.00056539325
0.00053284229
0.00047975748
0.00040815895
0.0003207923
0.0002210209
0.00011269698
1.0299018e-08
-0.0001126768
-0.00022100196
-0.00032077533
-0.00040814463
-0.00047974634
-0.00053283473
-0.00056538954
-0.00057618648
-0.00056484748
-0.00053183354
-0.00047843938
-0.00040673241
-0.00031947445
-0.00022001236
-0.0001121512
)
;

boundaryField
{
    leftWall
    {
        type            cyclic;
        value           nonuniform List<scalar> 
32
(
2.1443153e-09
2.3141893e-09
2.545825e-09
2.8208675e-09
3.1453232e-09
3.5271289e-09
3.9584734e-09
4.379102e-09
4.5790745e-09
3.9177866e-09
6.9938863e-10
-8.4786908e-09
-2.6827811e-08
-5.3416411e-08
-4.1474481e-08
3.0246203e-10
3.7312234e-09
4.6549698e-08
5.1149807e-08
2.4997682e-08
7.4807167e-09
-1.2903618e-09
-4.4775046e-09
-4.64291e-09
-5.3867047e-09
-3.4914116e-09
-5.9496702e-09
-2.0879347e-09
-8.2005405e-09
-4.1795758e-10
-9.591489e-09
1.0329176e-08
)
;
    }
    rightWall
    {