/*--------------------------------*- C++ -*----------------------------------*\
| =========                 |                                                 |
| \\      /  F ield         | OpenFOAM: The Open Source CFD Toolbox           |
|  \\    /   O peration     | Version:  2106                                  |
|   \\  /    A nd           | Website:  www.openfoam.com                      |
|    \\/     M anipulation  |                                                 |
\*---------------------------------------------------------------------------*/
FoamFile
{
    version     2.0;
    format      ascii;
    arch        "LSB;label=32;scalar=64";
    class       volVectorField;
    location    "0.046";
    object      U;
}
// * * * * * * * * * * * * * * * * * * * * * * * * * * * * * * * * * * * * * //

dimensions      [0 1 -1 0 0 0 0];

internalField   nonuniform List<vector> 
1024
(
(9.4283084e-05 -8.4879169e-05 0)
(0.00027974574 -8.198179e-05 0)
(0.00045554994 -7.6241804e-05 0)
(0.00061548164 -6.7777123e-05 0)
(0.00075368712 -5.6778973e-05 0)
(0.00086485313 -4.3525049e-05 0)
(0.00094441109 -2.8391144e-05 0)
(0.00098875632 -1.1857412e-05 0)
(0.00099547826 5.4967012e-06 0)
(0.00096355986 2.2998272e-05 0)
(0.00089350716 3.9922062e-05 0)
(0.00078748933 5.5511283e-05 0)
(0.00064929352 6.9034948e-05 0)
(0.00048423916 7.983132e-05 0)
(0.00029896329 8.7355384e-05 0)
(0.00010112323 9.1218891e-05 0)
(-0.00010097967 9.1219962e-05 0)
(-0.00029882392 8.7358627e-05 0)
(-0.00048410863 7.9836834e-05 0)
(-0.00064917656 6.9042808e-05 0)
(-0.00078739084 5.5521444e-05 0)
(-0.00089343178 3.9934265e-05 0)
(-0.00096351146 2.3012025e-05 0)
(-0.00099545945 5.5112852e-06 0)
(-0.00098876798 -1.1842837e-05 0)
(-0.00094445228 -2.8377405e-05 0)
(-0.00086492126 -4.3512852e-05 0)
(-0.00075377833 -5.6768797e-05 0)
(-0.00061559138 -6.7769216e-05 0)
(-0.00045567336 -7.6236229e-05 0)
(-0.00027987813 -8.1978493e-05 0)
(-9.4419745e-05 -8.4878076e-05 0)
(0.0001290426 -0.0002834848 0)
(0.00038272365 -0.00027370476 0)
(0.00062285898 -0.00025434797 0)
(0.00084079886 -0.00022584492 0)
(0.0010284822 -0.00018888148 0)
(0.0011786978 -0.00014443495 0)
(0.0012853601 -9.3804564e-05 0)
(0.0013437899 -3.8624477e-05 0)
(0.0013509831 1.9152081e-05 0)
(0.0013058456 7.7296817e-05 0)
(0.0012093537 0.00013340464 0)
(0.0010646449 0.00018499964 0)
(0.00087697087 0.00022969384 0)
(0.00065354961 0.00026533403 0)
(0.0004032814 0.00029015143 0)
(0.00013636025 0.00030288839 0)
(-0.00013620589 0.00030289162 0)
(-0.00040313131 0.00029016124 0)
(-0.00065340858 0.00026535078 0)
(-0.00087684401 0.00022971783 0)
(-0.0010645377 0.00018503077 0)
(-0.0012092714 0.00013344215 0)
(-0.0013057928 7.7339185e-05 0)
(-0.0013509629 1.9197061e-05 0)
(-0.0013438032 -3.8579528e-05 0)
(-0.0012854058 -9.3762258e-05 0)
(-0.0011787729 -0.00014439749 0)
(-0.0010285821 -0.00018885034 0)
(-0.00084091848 -0.00022582083 0)
(-0.00062299289 -0.00025433105 0)
(-0.00038286678 -0.00027369478 0)
(-0.0001291901 -0.0002834815 0)
(0.0001882862 -0.0005841103 0)
(0.00055821811 -0.00056358579 0)
(0.00090793495 -0.00052302954 0)
(0.0012246166 -0.00046346147 0)
(0.0014964339 -0.00038646574 0)
(0.00171295 -0.00029423612 0)
(0.0018655169 -0.00018960843 0)
(0.0019476536 -7.6060267e-05 0)
(0.0019553884 4.2333919e-05 0)
(0.0018875421 0.0001610182 0)
(0.0017459085 0.00027513239 0)
(0.0015353088 0.00037974383 0)
(0.0012634979 0.00047012856 0)
(0.00094092163 0.00054205617 0)
(0.00058031318 0.00059206759 0)
(0.0001961528 0.00061771153 0)
(-0.00019598394 0.00061771692 0)
(-0.00058014842 0.00059208417 0)
(-0.00094076586 0.00054208473 0)
(-0.0012633567 0.00047016989 0)
(-0.0015351886 0.00037979805 0)
(-0.0017458157 0.00027519827 0)
(-0.0018874824 0.00016109306 0)
(-0.0019553658 4.2413619e-05 0)
(-0.0019476694 -7.5980664e-05 0)
(-0.0018655697 -0.00018953375 0)
(-0.0017130357 -0.00029417042 0)
(-0.0014965469 -0.00038641158 0)
(-0.0012247506 -0.00046341997 0)
(-0.0009080837 -0.00052300069 0)
(-0.00055837612 -0.00056356891 0)
(-0.00018844851 -0.00058410477 0)
(0.00027659431 -0.0010209024 0)
(0.0008197942 -0.00098445606 0)
(0.0013328098 -0.00091253895 0)
(0.0017965927 -0.00080713857 0)
(0.0021936936 -0.00067128694 0)
(0.0025088729 -0.00050909487 0)
(0.0027296768 -0.00032576178 0)
(0.0028469576 -0.0001275348 0)
(0.0028553259 7.8396646e-05 0)
(0.0027535033 0.00028411047 0)
(0.0025445213 0.00048126783 0)
(0.0022357328 0.00066150105 0)
(0.0018386306 0.0008168571 0)
(0.0013684686 0.00094025864 0)
(0.00084367691 0.0010259444 0)
(0.00028509895 0.0010698443 0)
(-0.00028491324 0.0010698517 0)
(-0.00084349461 0.0010259674 0)
(-0.0013682945 0.00094029895 0)
(-0.0018384707 0.00081691649 0)
(-0.002235595 0.00066158032 0)
(-0.0025444139 0.00048136545 0)
(-0.0027534341 0.00028422243 0)
(-0.0028553001 7.8516399e-05 0)
(-0.0028469771 -0.00012741527 0)
(-0.0027297396 -0.0003256502 0)
(-0.0025089734 -0.00050899764 0)
(-0.0021938242 -0.00067120781 0)
(-0.0017967455 -0.00080707883 0)
(-0.0013329772 -0.00091249805 0)
(-0.00081997028 -0.00098443242 0)
(-0.0002767742 -0.0010208948 0)
(0.00040920601 -0.0016665761 0)
(0.0012125842 -0.001606239 0)
(0.0019707767 -0.0014873256 0)
(0.0026553678 -0.00131338 0)
(0.0032404613 -0.0010897369 0)
(0.0037036079 -0.00082351095 0)
(0.0040266503 -0.00052354456 0)
(0.0041964555 -0.00020028128 0)
(0.004205529 0.00013443991 0)
(0.0040524811 0.00046774226 0)
(0.0037422448 0.0007862399 0)
(0.0032860098 0.0010766416 0)
(0.0027009006 0.0013264119 0)
(0.0020093902 0.0015244635 0)
(0.0012384418 0.0016618101 0)
(0.00041841554 0.0017321232 0)
(-0.0004182104 0.0017321321 0)
(-0.0012382385 0.0016618385 0)
(-0.0020091928 0.0015245146 0)
(-0.0027007159 0.0013264895 0)
(-0.0032858477 0.0010767481 0)
(-0.0037421168 0.00078637366 0)
(-0.0040523979 0.00046789787 0)
(-0.0042054988 0.0001346075 0)
(-0.0041964806 -0.00020011416 0)
(-0.0040267277 -0.00052338966 0)
(-0.0037037296 -0.00082337797 0)
(-0.0032406164 -0.0010896307 0)
(-0.0026555456 -0.0013133017 0)
(-0.0019709678 -0.0014872734 0)
(-0.0012127823 -0.0016062094 0)
(-0.0004094066 -0.0016665667 0)
(0.0006065798 -0.0026263232 0)
(0.0017971847 -0.0025300957 0)
(0.0029202617 -0.0023406442 0)
(0.0039334439 -0.0020639584 0)
(0.0047982509 -0.0017089668 0)
(0.005481492 -0.0012874291 0)
(0.0059565145 -0.00081376231 0)
(0.0062042521 -0.00030475869 0)
(0.0062140883 0.00022077182 0)
(0.0059845109 0.00074259535 0)
(0.0055233523 0.0012399165 0)
(0.0048475768 0.0016922961 0)
(0.0039827319 0.0020806009 0)
(0.0029620457 0.0023880093 0)
(0.0018251593 0.0026009458 0)
(0.00061654519 0.0027098781 0)
(-0.00061631781 0.0027098874 0)
(-0.0018249306 0.0026009772 0)
(-0.0029618186 0.0023880687 0)
(-0.0039825135 0.0020806956 0)
(-0.0048473806 0.0016924318 0)
(-0.0055231944 0.0012400922 0)
(-0.0059844074 0.00074280399 0)
(-0.0062140516 0.00022099866 0)
(-0.0062042857 -0.00030453286 0)
(-0.0059566137 -0.00081355506 0)
(-0.0054816445 -0.001287255 0)
(-0.0047984403 -0.0017088318 0)
(-0.0039336554 -0.0020638624 0)
(-0.0029204832 -0.0023405827 0)
(-0.0017974095 -0.002530062 0)
(-0.0006068047 -0.0026263129 0)
(0.00088369672 -0.0040494409 0)
(0.0026179857 -0.003899618 0)
(0.004253427 -0.0036048917 0)
(0.0057280784 -0.0031750001 0)
(0.0069857745 -0.0026243645 0)
(0.0079782003 -0.0019718069 0)
(0.0086667162 -0.0012401727 0)
(0.0090238554 -0.00045578606 0)
(0.0090345665 0.00035211784 0)
(0.0086971956 0.0011523523 0)
(0.0080237535 0.0019132109 0)
(0.0070394242 0.0026038425 0)
(0.0057816621 0.0031955727 0)
(0.0042988373 0.0036633425 0)
(0.0026483805 0.003987013 0)
(0.00089452462 0.0041524849 0)
(-0.00089427314 0.0041524927 0)
(-0.002648122 0.0039870429 0)
(-0.0042985724 0.003663405 0)
(-0.0057813983 0.0031956815 0)
(-0.0070391799 0.0026040094 0)
(-0.0080235527 0.0019134363 0)
(-0.0086970624 0.0011526276 0)
(-0.0090345208 0.00035242096 0)
(-0.0090239024 -0.00045548518 0)
(-0.008666848 -0.0012399002 0)
(-0.0079783977 -0.0019715848 0)
(-0.0069860121 -0.0026241994 0)
(-0.0057283351 -0.0031748891 0)
(-0.0042536869 -0.0036048254 0)
(-0.0026182421 -0.0038995838 0)
(-0.00088394888 -0.0040494311 0)
(0.0012280384 -0.0061016474 0)
(0.0036379687 -0.00587426 0)
(0.0059103504 -0.0054272165 0)
(0.0079589937 -0.0047757243 0)
(0.0097057386 -0.0039422271 0)
(0.011083362 -0.0029558537 0)
(0.012038137 -0.0018517387 0)
(0.012531912 -0.000670044 0)
(0.012543895 0.00054481761 0)
(0.012072235 0.0017456953 0)
(0.011134314 0.0028851553 0)
(0.0097657341 0.0039175196 0)
(0.0080189031 0.0048006127 0)
(0.0059611151 0.0054977971 0)
(0.0036719404 0.0059797483 0)
(0.0012401324 0.0062259945 0)
(-0.0012398591 0.0062259973 0)
(-0.0036716501 0.0059797688 0)
(-0.0059608049 0.0054978534 0)
(-0.0080185795 0.0048007287 0)
(-0.0097654235 0.0039177189 0)
(-0.011134053 0.0028854403 0)
(-0.012072059 0.0017460568 0)
(-0.012543837 0.00054522231 0)
(-0.012531979 -0.0006696443 0)
(-0.012038317 -0.0018513824 0)
(-0.011083624 -0.0029555756 0)
(-0.009706042 -0.0039420321 0)
(-0.0079593089 -0.0047756046 0)
(-0.0059106557 -0.0054271538 0)
(-0.0036382589 -0.0058742315 0)
(-0.001228317 -0.006101641 0)
(0.0015630704 -0.0088827297 0)
(0.0046305797 -0.0085502444 0)
(0.0075235196 -0.0078968019 0)
(0.010132351 -0.0069449391 0)
(0.01235749 -0.0057279172 0)
(0.01411301 -0.0042887614 0)
(0.015330003 -0.0026792705 0)
(0.015959264 -0.00095841767 0)
(0.015973694 0.00080854999 0)
(0.015371065 0.0025523868 0)
(0.01417438 0.004204199 0)
(0.012429799 0.005698394 0)
(0.01020461 0.0069747415 0)
(0.0075847851 0.0079812398 0)
(0.004671578 0.0086764299 0)
(0.0015776315 0.0090314469 0)
(-0.0015773522 0.0090314389 0)
(-0.0046712649 0.008676428 0)
(-0.0075844294 0.0079812736 0)
(-0.010204215 0.0069748509 0)
(-0.012429402 0.0056986246 0)
(-0.014174035 0.0042045556 0)
(-0.015370828 0.0025528623 0)
(-0.01597362 0.0008090935 0)
(-0.015959362 -0.00095788536 0)
(-0.015330253 -0.0026788048 0)
(-0.014113362 -0.0042884194 0)
(-0.012357878 -0.0057276968 0)
(-0.010132735 -0.0069448233 0)
(-0.0075238692 -0.0078967578 0)
(-0.0046308943 -0.0085502319 0)
(-0.0015633615 -0.0088827312 0)
(0.0017028078 -0.012255037 0)
(0.0050451789 -0.011795802 0)
(0.0081993854 -0.0108933 0)
(0.011046863 -0.0095785367 0)
(0.013479019 -0.0078974046 0)
(0.015401297 -0.0059094314 0)
(0.01673721 -0.0036864938 0)
(0.017431 -0.0013100278 0)
(0.017450574 0.0011290074 0)
(0.01679289 0.0035333038 0)
(0.01548451 0.0058073915 0)
(0.01357714 0.0078617329 0)
(0.011145067 0.009614419 0)
(0.008282766 0.010995187 0)
(0.0051009886 0.011948187 0)
(0.0017225367 0.01243465 0)
(-0.001722309 0.01243462 0)
(-0.0051006966 0.011948141 0)
(-0.0082823914 0.01099517 0)
(-0.0111446 0.0096144942 0)
(-0.013576637 0.0078619869 0)
(-0.015484053 0.0058078302 0)
(-0.016792564 0.0035339307 0)
(-0.017450478 0.0011297439 0)
(-0.017431144 -0.0013093163 0)
(-0.016737562 -0.0036858843 0)
(-0.015401771 -0.0059090222 0)
(-0.013479508 -0.0078971729 0)
(-0.011047311 -0.0095784502 0)
(-0.0081997506 -0.010893302 0)
(-0.005045473 -0.011795823 0)
(-0.0017030569 -0.012255054 0)
(0.0013221775 -0.015592697 0)
(0.0039192837 -0.015010223 0)
(0.006375796 -0.013865141 0)
(0.0086017996 -0.012195657 0)
(0.010512886 -0.0100588 0)
(0.012033328 -0.0075293049 0)
(0.013100181 -0.0046983023 0)
(0.013664445 -0.0016683956 0)
(0.013693745 0.0014431251 0)
(0.013183487 0.0045077977 0)
(0.012157793 0.007402409 0)
(0.010659759 0.010014222 0)
(0.0087490619 0.012240007 0)
(0.0065010855 0.013991878 0)
(0.0040031942 0.015200204 0)
(0.0013516685 0.01581675 0)
(-0.0013516621 0.015816675 0)
(-0.0040030609 0.015200069 0)
(-0.0065007891 0.013991752 0)
(-0.0087485577 0.012239985 0)
(-0.010659135 0.010014474 0)
(-0.012157179 0.0074029338 0)
(-0.013183019 0.0045086283 0)
(-0.013693613 0.0014441362 0)
(-0.01366466 -0.0016674397 0)
(-0.013100689 -0.0046975033 0)
(-0.012033977 -0.0075288385 0)
(-0.010513483 -0.010058596 0)
(-0.0086022707 -0.012195656 0)
(-0.0063760782 -0.013865248 0)
(-0.0039194191 -0.015010313 0)
(-0.0013222235 -0.015592748 0)
(-2.3725174e-07 -0.01733249 0)
(4.7817743e-06 -0.0166912 0)
(2.6580388e-05 -0.015429502 0)
(7.1622863e-05 -0.013586774 0)
(0.00013961578 -0.011222094 0)
(0.00022359383 -0.0084160661 0)
(0.00031373085 -0.0052677557 0)
(0.00039305104 -0.001886838 0)
(0.00043752208 0.0015933817 0)
(0.00043989533 0.0050199458 0)
(0.00041149774 0.0082511601 0)
(0.000360972 0.011163701 0)
(0.00029371597 0.013643645 0)
(0.00021581145 0.015594113 0)
(0.00013155495 0.016938725 0)
(4.3926515e-05 0.017624667 0)
(-4.4561467e-05 0.01762451 0)
(-0.00013191391 0.016938426 0)
(-0.00021583026 0.015593766 0)
(-0.00029326287 0.013643394 0)
(-0.00036019369 0.011163853 0)
(-0.00041062539 0.0082517184 0)
(-0.00043916269 0.0050210322 0)
(-0.00043731936 0.0015947933 0)
(-0.00039338418 -0.0018855254 0)
(-0.00031450051 -0.0052667125 0)
(-0.00022451918 -0.0084155986 0)
(-0.00014032751 -0.011222024 0)
(-7.2016962e-05 -0.013586988 0)
(-2.6548286e-05 -0.015429813 0)
(-4.4303554e-06 -0.016691408 0)
(7.8056213e-07 -0.017332601 0)
(-0.0025804762 -0.016276845 0)
(-0.0076359092 -0.015691111 0)
(-0.012373094 -0.014535588 0)
(-0.016598574 -0.01283954 0)
(-0.020149297 -0.010645741 0)
(-0.022896517 -0.008026042 0)
(-0.024740414 -0.0050669166 0)
(-0.025630239 -0.0018601491 0)
(-0.025570472 0.001462314 0)
(-0.024571824 0.0047339668 0)
(-0.022647534 0.0078063876 0)
(-0.019857452 0.010567561 0)
(-0.016305362 0.012913375 0)
(-0.012122594 0.014754782 0)
(-0.0074683017 0.016022475 0)
(-0.0025230418 0.016668335 0)
(0.0025210599 0.016667959 0)
(0.0074668575 0.016021688 0)
(0.012121813 0.014753828 0)
(0.016305548 0.012912549 0)
(0.019858384 0.010567446 0)
(0.022648842 0.0078070071 0)
(0.024573077 0.0047355426 0)
(0.025570855 0.0014644792 0)
(0.02562971 -0.001858179 0)
(0.024739179 -0.005065466 0)
(0.022895162 -0.0080255845 0)
(0.020148513 -0.010646012 0)
(0.016598512 -0.012840286 0)
(0.012373896 -0.014536533 0)
(0.0076372789 -0.015691757 0)
(0.0025821962 -0.016277133 0)
(-0.0060950235 -0.0059229032 0)
(-0.0180447 -0.005745295 0)
(-0.029270633 -0.0053892396 0)
(-0.03932396 -0.0048554101 0)
(-0.047823823 -0.0041441789 0)
(-0.05445877 -0.0032500499 0)
(-0.05896996 -0.0021832004 0)
(-0.061208645 -0.00093626527 0)
(-0.061151788 0.00042577434 0)
(-0.058815415 0.001742468 0)
(-0.054241186 0.0029476169 0)
(-0.047575503 0.0040308205 0)
(-0.039071828 0.004947391 0)
(-0.029051008 0.0056624958 0)
(-0.017897721 0.0061532703 0)
(-0.0060459017 0.006403091 0)
(0.0060418491 0.0064024008 0)
(0.017894588 0.0061518815 0)
(0.029048986 0.0056605871 0)
(0.039071469 0.0049452549 0)
(0.047576526 0.0040297449 0)
(0.054243041 0.0029475905 0)
(0.058817393 0.0017441816 0)
(0.06115242 0.00042868334 0)
(0.06120782 -0.00093361885 0)
(0.058968162 -0.0021814555 0)
(0.054456999 -0.0032502413 0)
(0.047823166 -0.0041455136 0)
(0.039324525 -0.0048568894 0)
(0.029272611 -0.0053904652 0)
(0.018047627 -0.0057459684 0)
(0.0060984539 -0.0059232743 0)
(-0.0089770796 0.0071057069 0)
(-0.026585632 0.0067541582 0)
(-0.043164755 0.0060765924 0)
(-0.058076426 0.0051227574 0)
(-0.070739938 0.0039651479 0)
(-0.080673693 0.0026935954 0)
(-0.087480811 0.0013890294 0)
(-0.090912313 0.00020324985 0)
(-0.090947939 -0.00084831159 0)
(-0.087573761 -0.0019435902 0)
(-0.080801597 -0.0030710427 0)
(-0.070885342 -0.0041038788 0)
(-0.058228532 -0.0050025229 0)
(-0.043302477 -0.0057260323 0)
(-0.02668061 -0.0062315994 0)
(-0.0090128225 -0.0064915273 0)
(0.0090085434 -0.0064930573 0)
(0.026676644 -0.0062346803 0)
(0.043298571 -0.0057301336 0)
(0.058226196 -0.0050070126 0)
(0.070884847 -0.0041062742 0)
(0.08080275 -0.0030715538 0)
(0.087576011 -0.0019407687 0)
(0.090948887 -0.00084314445 0)
(0.090911621 0.00020782981 0)
(0.087479086 0.0013918922 0)
(0.080672642 0.0026926604 0)
(0.07074137 0.003962121 0)
(0.058079582 0.0051193241 0)
(0.043168423 0.0060736136 0)
(0.026588638 0.0067523969 0)
(0.0089797115 0.0071047669 0)
(-0.0067200752 0.031008482 0)
(-0.019916974 0.029750128 0)
(-0.032393597 0.02729872 0)
(-0.043692609 0.023766782 0)
(-0.053389495 0.019338339 0)
(-0.061117953 0.014200825 0)
(-0.066537711 0.0084899672 0)
(-0.069405382 0.002662468 0)
(-0.069663345 -0.0030297737 0)
(-0.067270648 -0.0087958929 0)
(-0.062212889 -0.014398941 0)
(-0.054681333 -0.019406152 0)
(-0.044988994 -0.023695795 0)
(-0.033497342 -0.027097981 0)
(-0.020655902 -0.029449797 0)
(-0.0069798551 -0.030652311 0)
(0.0069787417 -0.030653474 0)
(0.020653916 -0.029450493 0)
(0.033493864 -0.027100546 0)
(0.044985605 -0.023701647 0)
(0.054678828 -0.019409876 0)
(0.062211808 -0.014402467 0)
(0.067271183 -0.0087940434 0)
(0.069663744 -0.003023471 0)
(0.069405502 0.0026668859 0)
(0.066537953 0.0084923441 0)
(0.061119256 0.014196851 0)
(0.053392607 0.019333391 0)
(0.043696253 0.023763191 0)
(0.032396549 0.02729723 0)
(0.019918132 0.029751288 0)
(0.0067199969 0.031008035 0)
(0.0069932028 0.030636445 0)
(0.020695994 0.029434714 0)
(0.033562229 0.02708743 0)
(0.045077348 0.023690096 0)
(0.05479099 0.019402892 0)
(0.062340652 0.014397386 0)
(0.067411592 0.0087918857 0)
(0.06981073 0.0030257786 0)
(0.069552723 -0.0026636282 0)
(0.066679594 -0.0084855795 0)
(0.061250304 -0.014189715 0)
(0.053508357 -0.019325222 0)
(0.043792262 -0.023752025 0)
(0.032468359 -0.027285889 0)
(0.019962695 -0.029739572 0)
(0.0067354335 -0.030997823 0)
(-0.0067345138 -0.030999001 0)
(-0.019960849 -0.029740265 0)
(-0.032464976 -0.027288466 0)
(-0.043788909 -0.023757878 0)
(-0.053505872 -0.01932896 0)
(-0.061249207 -0.014193295 0)
(-0.06668 -0.0084837844 0)
(-0.069552902 -0.0026573757 0)
(-0.069810601 0.0030302151 0)
(-0.067411635 0.0087943243 0)
(-0.062341821 0.014393427 0)
(-0.054794008 0.019398005 0)
(-0.045081026 0.023686585 0)
(-0.033565399 0.027086039 0)
(-0.020697486 0.029435891 0)
(-0.0069935144 0.030636007 0)
(0.0090227463 0.0064345223 0)
(0.026717346 0.0061785992 0)
(0.043364254 0.0056792883 0)
(0.058313694 0.0049636382 0)
(0.070992285 0.0040738526 0)
(0.080927078 0.0030493518 0)
(0.087712629 0.0019294647 0)
(0.091093071 0.00084159743 0)
(0.091056233 -0.00020109796 0)
(0.087618358 -0.0013763357 0)
(0.080801415 -0.0026698698 0)
(0.070856375 -0.0039328574 0)
(0.05817579 -0.0050868098 0)
(0.043240092 -0.0060382795 0)
(0.02663306 -0.0067153427 0)
(0.0089950647 -0.0070668 0)
(-0.0089910023 -0.007068277 0)
(-0.026629186 -0.0067183209 0)
(-0.043236125 -0.0060423157 0)
(-0.058173372 -0.005091395 0)
(-0.070855929 -0.0039353496 0)
(-0.080802652 -0.0026704226 0)
(-0.087620621 -0.0013734722 0)
(-0.091057041 -0.00019591009 0)
(-0.09109216 0.00084602398 0)
(-0.087710844 0.0019320546 0)
(-0.080925956 0.0030482086 0)
(-0.070993494 0.0040704703 0)
(-0.05831671 0.0049596702 0)
(-0.043368064 0.0056756918 0)
(-0.026720757 0.006176401 0)
(-0.0090258573 0.0064334282 0)
(0.0060563214 -0.0064890812 0)
(0.017936593 -0.0062350611 0)
(0.029117517 -0.0057366462 0)
(0.039164383 -0.005010864 0)
(0.04768973 -0.0040811171 0)
(0.054371877 -0.0029841624 0)
(0.058956324 -0.0017648909 0)
(0.061296377 -0.00043420941 0)
(0.061352419 0.0009423878 0)
(0.059108008 0.0022047025 0)
(0.054586529 0.0032865335 0)
(0.047935107 0.0041932922 0)
(0.039415696 0.0049120267 0)
(0.029341214 0.0054521833 0)
(0.018090482 0.0058117233 0)
(0.0061136067 0.0059915592 0)
(-0.0061094721 0.0059909089 0)
(-0.018087346 0.0058103978 0)
(-0.029339283 0.0054503167 0)
(-0.039415433 0.0049098203 0)
(-0.047936128 0.0041921531 0)
(-0.05458836 0.0032864738 0)
(-0.059110017 0.0022064539 0)
(-0.061353249 0.00094529987 0)
(-0.061295806 -0.00043172296 0)
(-0.058954594 -0.0017634202 0)
(-0.054370187 -0.0029845937 0)
(-0.047689281 -0.0040828047 0)
(-0.03916511 -0.0050128682 0)
(-0.029119432 -0.005738437 0)
(-0.017939293 -0.006236108 0)
(-0.0060595098 -0.0064895884 0)
(0.0025363092 -0.016757609 0)
(0.0075115705 -0.016107575 0)
(0.012194517 -0.014832391 0)
(0.016403477 -0.012980937 0)
(0.019977599 -0.010623345 0)
(0.022784434 -0.0078480831 0)
(0.02471979 -0.0047604959 0)
(0.025723058 -0.0014716567 0)
(0.02578181 0.0018683888 0)
(0.024885625 0.0050923629 0)
(0.023029881 0.008067483 0)
(0.020265936 0.010700995 0)
(0.016695083 0.012908044 0)
(0.012445976 0.014614594 0)
(0.0076818567 0.01577597 0)
(0.0025976239 0.016364462 0)
(-0.0025955846 0.016364046 0)
(-0.0076803937 0.015775115 0)
(-0.012445221 0.014613574 0)
(-0.016695322 0.012907214 0)
(-0.020266957 0.010700868 0)
(-0.023031262 0.0080680487 0)
(-0.024886942 0.0050938551 0)
(-0.025782323 0.0018704695 0)
(-0.025722658 -0.0014696715 0)
(-0.024718665 -0.0047589757 0)
(-0.02278318 -0.0078476269 0)
(-0.019976939 -0.010623529 0)
(-0.016403502 -0.012981523 0)
(-0.012195259 -0.014833112 0)
(-0.0075128133 -0.016108097 0)
(-0.0025378541 -0.016757846 0)
(-2.7139208e-05 -0.017808553 0)
(-8.0582371e-05 -0.017115284 0)
(-0.00013256512 -0.015756533 0)
(-0.00018141663 -0.013785919 0)
(-0.00022427823 -0.011280688 0)
(-0.00025618309 -0.0083384079 0)
(-0.00027231839 -0.0050741092 0)
(-0.00026461165 -0.0016123067 0)
(-0.00022136138 0.001904363 0)
(-0.00014959056 0.0053207754 0)
(-7.3173509e-05 0.0085026586 0)
(-8.1888004e-06 0.011338851 0)
(3.7477334e-05 0.01372951 0)
(5.4880119e-05 0.015592178 0)
(4.5348636e-05 0.016867477 0)
(1.8035826e-05 0.017515363 0)
(-1.7385958e-05 0.017515189 0)
(-4.498992e-05 0.016867138 0)
(-5.4886437e-05 0.015591786 0)
(-3.7986217e-05 0.013729221 0)
(7.3440897e-06 0.011338966 0)
(7.2243591e-05 0.0085032005 0)
(0.00014879494 0.0053218221 0)
(0.00022106495 0.0019057433 0)
(0.00026485021 -0.0016109952 0)
(0.00027299804 -0.0050730539 0)
(0.00025702747 -0.0083379081 0)
(0.00022492308 -0.011280568 0)
(0.00018177216 -0.013786021 0)
(0.00013256495 -0.015756728 0)
(8.0311128e-05 -0.017115418 0)
(2.6703383e-05 -0.017808629 0)
(-0.0013274996 -0.015713614 0)
(-0.0039316388 -0.015100393 0)
(-0.0063848682 -0.01389879 0)
(-0.0085927266 -0.012157033 0)
(-0.010469527 -0.009944566 0)
(-0.011941281 -0.0073488843 0)
(-0.01294926 -0.0044727018 0)
(-0.013450992 -0.0014282214 0)
(-0.013422569 0.0016621633 0)
(-0.012868394 0.0046705901 0)
(-0.011820307 0.0074808064 0)
(-0.010326449 0.0099910053 0)
(-0.0084485643 0.012111023 0)
(-0.0062618447 0.013765663 0)
(-0.0038491539 0.014901296 0)
(-0.0012983959 0.015478276 0)
(0.0012983847 0.015478189 0)
(0.0038490078 0.014901132 0)
(0.006261523 0.013765493 0)
(0.0084480198 0.01211096 0)
(0.010325768 0.0099912247 0)
(0.011819635 0.0074813018 0)
(0.012867871 0.0046713876 0)
(0.013422371 0.0016631481 0)
(0.013451146 -0.0014272714 0)
(0.012949711 -0.0044719012 0)
(0.011941881 -0.007348398 0)
(0.010470087 -0.0099443334 0)
(0.0085931787 -0.012156981 0)
(0.0063851706 -0.013898844 0)
(0.0039318201 -0.015100447 0)
(0.0013276109 -0.015713651 0)
(-0.0017056121 -0.013665608 0)
(-0.0050514479 -0.013131898 0)
(-0.008202792 -0.012086254 0)
(-0.011038193 -0.010571028 0)
(-0.013448072 -0.0086472024 0)
(-0.015338835 -0.0063915684 0)
(-0.01663673 -0.0038936744 0)
(-0.017290439 -0.0012516304 0)
(-0.017273085 0.0014301238 0)
(-0.016587343 0.0040447593 0)
(-0.015264963 0.0064922496 0)
(-0.013360823 0.0086824031 0)
(-0.010950645 0.010535483 0)
(-0.0081283652 0.011985042 0)
(-0.005001719 0.012980554 0)
(-0.0016882962 0.013487066 0)
(0.0016880383 0.013487036 0)
(0.0050013952 0.012980506 0)
(0.0081279575 0.011985023 0)
(0.010950143 0.010535558 0)
(0.013360281 0.0086826622 0)
(0.015264468 0.0064927016 0)
(0.01658698 0.0040453997 0)
(0.017272946 0.0014308789 0)
(0.01729054 -0.0012508886 0)
(0.016637039 -0.0038930299 0)
(0.015339273 -0.0063911115 0)
(0.013448539 -0.0086469188 0)
(0.011038637 -0.010570881 0)
(0.0082031802 -0.0120862 0)
(0.0050517836 -0.013131881 0)
(0.0017059159 -0.01366561 0)
(-0.0015093777 -0.0074777451 0)
(-0.0044699709 -0.007181393 0)
(-0.0072574991 -0.0066014646 0)
(-0.0097641376 -0.0057627184 0)
(-0.011892991 -0.0047005495 0)
(-0.013561789 -0.0034591175 0)
(-0.014706147 -0.0020892841 0)
(-0.015281835 -0.00064609265 0)
(-0.015267068 0.00081299597 0)
(-0.014664124 0.002230599 0)
(-0.013498963 0.0035532763 0)
(-0.011818932 0.0047332965 0)
(-0.0096900924 0.005729126 0)
(-0.0071947519 0.0065065874 0)
(-0.004428139 0.007039653 0)
(-0.0014948754 0.007310648 0)
(0.0014945904 0.0073106284 0)
(0.0044278162 0.0070396176 0)
(0.0071943804 0.0065065692 0)
(0.0096896732 0.005729169 0)
(0.011818503 0.0047334508 0)
(0.013498584 0.003553553 0)
(0.014663853 0.002230991 0)
(0.01526696 0.00081345762 0)
(0.015281905 -0.00064563483 0)
(0.014706374 -0.002088885 0)
(0.013562123 -0.0034588284 0)
(0.011893368 -0.0047003698 0)
(0.009764517 -0.005762628 0)
(0.0072578541 -0.0066014349 0)
(0.0044702979 -0.007181388 0)
(0.0015096861 -0.0074777477 0)
(-0.0013072224 -0.0095898671 0)
(-0.0038714264 -0.0092142011 0)
(-0.0062858629 -0.0084783979 0)
(-0.0084572443 -0.0074127475 0)
(-0.010301793 -0.0060607969 0)
(-0.01174847 -0.0044772493 0)
(-0.012741728 -0.0027254958 0)
(-0.0132437 -0.00087477955 0)
(-0.013235154 0.0010025944 0)
(-0.012717401 0.0028337331 0)
(-0.011712103 0.0045493702 0)
(-0.010258962 0.0060858688 0)
(-0.0084144804 0.0073870223 0)
(-0.0062496913 0.0084058086 0)
(-0.0038473862 0.0091057911 0)
(-0.001299008 0.0094621045 0)
(0.0012986634 0.0094621154 0)
(0.0038470283 0.0091058357 0)
(0.0062493205 0.0084059046 0)
(0.0084141045 0.0073871925 0)
(0.010258607 0.0060861358 0)
(0.011711805 0.0045497356 0)
(0.012717196 0.0028341838 0)
(0.013235072 0.0010030949 0)
(0.013243749 -0.00087427966 0)
(0.012741898 -0.0027250389 0)
(0.011748732 -0.0044768725 0)
(0.010302112 -0.0060605101 0)
(0.0084575929 -0.0074125468 0)
(0.0062862197 -0.0084782715 0)
(0.0038717819 -0.009214132 0)
(0.0013075744 -0.0095898462 0)
(-0.00077061972 -0.00023273109 0)
(-0.0022817824 -0.00021684008 0)
(-0.0037033089 -0.00018675258 0)
(-0.0049796124 -0.00014559821 0)
(-0.0060611165 -9.7517467e-05 0)
(-0.0069062135 -4.7096919e-05 0)
(-0.0074828612 1.2158752e-06 0)
(-0.0077695296 4.3662381e-05 0)
(-0.0077568079 7.7412861e-05 0)
(-0.0074466708 0.00010133653 0)
(-0.0068521442 0.00011548582 0)
(-0.0059974484 0.00012135569 0)
(-0.0049160517 0.00012129502 0)
(-0.003649521 0.00011802557 0)
(-0.0022459454 0.00011413952 0)
(-0.00075818692 0.0001116498 0)
(0.00075796124 0.00011163804 0)
(0.0022457085 0.00011411156 0)
(0.0036492708 0.00011799434 0)
(0.0049157936 0.00012127789 0)
(0.005997201 0.00012136999 0)
(0.0068519336 0.00011553866 0)
(0.0074465238 0.00010142615 0)
(0.007756746 7.7525502e-05 0)
(0.0077695602 4.3776876e-05 0)
(0.0074829773 1.3130803e-06 0)
(0.0069063944 -4.703174e-05 0)
(0.0060613362 -9.7485677e-05 0)
(0.0049798494 -0.00014559291 0)
(0.0037035478 -0.00018676244 0)
(0.0022820166 -0.00021685184 0)
(0.00077084934 -0.00023273647 0)
(-0.00098783207 -0.0087270508 0)
(-0.0029255348 -0.0083860733 0)
(-0.0047497303 -0.0077180627 0)
(-0.0063897935 -0.0067502914 0)
(-0.0077824296 -0.0055220319 0)
(-0.0088741431 -0.0040827124 0)
(-0.009623312 -0.0024896935 0)
(-0.010001916 -0.00080573263 0)
(-0.0099954318 0.0009038923 0)
(-0.0096048118 0.0025728743 0)
(-0.0088464328 0.0041381803 0)
(-0.0077497766 0.0055413342 0)
(-0.0063572096 0.0067305023 0)
(-0.0047222064 0.0076622079 0)
(-0.0029072918 0.0083026549 0)
(-0.00098168145 0.0086287528 0)
(0.0009812933 0.0086287804 0)
(0.0029069098 0.0083027408 0)
(0.0047218403 0.0076623566 0)
(0.0063568715 0.0067307185 0)
(0.0077494829 0.0055416201 0)
(0.0088462018 0.0041385299 0)
(0.0096046603 0.0025732743 0)
(0.0099953729 0.00090432051 0)
(0.010001952 -0.00080530393 0)
(0.0096234394 -0.0024892892 0)
(0.0088743513 -0.0040823549 0)
(0.0077827026 -0.0055217348 0)
(0.0063901151 -0.0067500611 0)
(0.004750085 -0.0077179007 0)
(0.0029259098 -0.0083859774 0)
(0.0009882162 -0.0087270193 0)
(-0.00031822415 0.0057086801 0)
(-0.00094188505 0.005493115 0)
(-0.0015273768 0.0050696634 0)
(-0.0020512277 0.0044535223 0)
(-0.0024927811 0.0036669649 0)
(-0.0028350765 0.0027387071 0)
(-0.0030654849 0.0017030132 0)
(-0.0031756096 0.00059867038 0)
(-0.0031634989 -0.00053248684 0)
(-0.0030310796 -0.0016469109 0)
(-0.0027836969 -0.0027012418 0)
(-0.0024322433 -0.0036538253 0)
(-0.001990755 -0.004466689 0)
(-0.0014761694 -0.0051071196 0)
(-0.00090773211 -0.0055491615 0)
(-0.00030632366 -0.0057748046 0)
(0.0003061846 -0.0057748288 0)
(0.00090759021 -0.0055492311 0)
(0.001476025 -0.0051072285 0)
(0.0019906121 -0.0044668284 0)
(0.0024321107 -0.0036539852 0)
(0.0027835861 -0.0027014136 0)
(0.0030310024 -0.0016470878 0)
(0.0031634631 -0.0005326648 0)
(0.0031756205 0.000598494 0)
(0.003065541 0.0017028411 0)
(0.0028351677 0.0027385429 0)
(0.0024928966 0.0036668146 0)
(0.0020513573 0.0044533935 0)
(0.0015275126 0.0050695639 0)
(0.00094202244 0.0054930521 0)
(0.00031836142 0.0057086584 0)
(-0.0012678101 -0.0092889133 0)
(-0.003754733 -0.0089267584 0)
(-0.0060959395 -0.0082171263 0)
(-0.0082007622 -0.00718875 0)
(-0.0099879486 -0.0058830836 0)
(-0.011388864 -0.0043523209 0)
(-0.012350075 -0.00265729 0)
(-0.012835648 -0.00086445373 0)
(-0.01282722 0.00095615792 0)
(-0.012326073 0.0027349254 0)
(-0.011352959 0.0044040786 0)
(-0.0099456478 0.0059010994 0)
(-0.008158551 0.007170281 0)
(-0.0060602859 0.0081649942 0)
(-0.0037311101 0.0088488992 0)
(-0.0012598659 0.0091971716 0)
(0.0012593326 0.0091972079 0)
(0.0037305941 0.0088490084 0)
(0.0060598046 0.0081651761 0)
(0.0081581223 0.0071705338 0)
(0.0099452894 0.0059014186 0)
(0.011352687 0.0044044544 0)
(0.012325901 0.0027353434 0)
(0.012827157 0.00095659887 0)
(0.012835697 -0.00086401136 0)
(0.012350231 -0.0026568687 0)
(0.011389121 -0.0043519399 0)
(0.0099882932 -0.005882758 0)
(0.0082011788 -0.0071884899 0)
(0.0060964106 -0.0082169377 0)
(0.0037552405 -0.0089266444 0)
(0.0012683357 -0.0092888752 0)
(-2.1097332e-05 0.012542716 0)
(-6.2078986e-05 0.012062686 0)
(-9.9438806e-05 0.011120728 0)
(-0.00013114491 0.0097524955 0)
(-0.00015559487 0.0080098511 0)
(-0.00017192571 0.0059590006 0)
(-0.00017974828 0.0036780578 0)
(-0.00017908789 0.001254182 0)
(-0.0001715045 -0.0012195944 0)
(-0.0001581402 -0.0036486897 0)
(-0.00013956396 -0.0059393027 0)
(-0.00011742553 -0.0080027934 0)
(-9.2995613e-05 -0.0097591242 0)
(-6.7108087e-05 -0.011140012 0)
(-4.0490687e-05 -0.012091677 0)
(-1.353731e-05 -0.012577006 0)
(1.3503984e-05 -0.012577054 0)
(4.0456258e-05 -0.012091819 0)
(6.7072557e-05 -0.011140242 0)
(9.2959753e-05 -0.0097594306 0)
(0.00011739126 -0.0080031638 0)
(0.00013953413 -0.0059397222 0)