/*--------------------------------*- C++ -*----------------------------------*\
| =========                 |                                                 |
| \\      /  F ield         | OpenFOAM: The Open Source CFD Toolbox           |
|  \\    /   O peration     | Version:  2106                                  |
|   \\  /    A nd           | Website:  www.openfoam.com                      |
|    \\/     M anipulation  |                                                 |
\*---------------------------------------------------------------------------*/
FoamFile
{
    version     2.0;
    format      ascii;
    arch        "LSB;label=32;scalar=64";
    class       surfaceScalarField;
    location    "0.037";
    object      phi;
}
// * * * * * * * * * * * * * * * * * * * * * * * * * * * * * * * * * * * * * //

dimensions      [0 3 -1 0 0 0 0];

oriented        oriented;

internalField   nonuniform List<scalar> 
130560
(
-5.2736381e-06
5.2736381e-06
-1.0544222e-05
5.2705836e-06
-1.5808698e-05
5.2644762e-06
-2.1064017e-05
5.2553189e-06
-2.6307133e-05
5.2431164e-06
-3.1535008e-05
5.2278748e-06
-3.674461e-05
5.2096017e-06
-4.1932916e-05
5.1883064e-06
-4.7096916e-05
5.1639996e-06
-5.2233609e-05
5.1366937e-06
-5.7340012e-05
5.1064023e-06
-6.2413153e-05
5.0731409e-06
-6.7450079e-05
5.0369262e-06
-7.2447856e-05
4.9977768e-06
-7.7403568e-05
4.9557125e-06
-8.2314323e-05
4.9107547e-06
-8.7177249e-05
4.8629264e-06
-9.1989501e-05
4.8122522e-06
-9.6748259e-05
4.7587578e-06
-0.00010145073
4.7024709e-06
-0.00010609415
4.6434205e-06
-0.00011067579
4.5816369e-06
-0.00011519294
4.5171523e-06
-0.00011964294
4.4500001e-06
-0.00012402316
4.3802153e-06
-0.00012833099
4.3078342e-06
-0.00013256388
4.2328947e-06
-0.00013671932
4.1554363e-06
-0.00014079482
4.0754997e-06
-0.00014478795
3.9931272e-06
-0.00014869631
3.9083624e-06
-0.00015251756
3.8212504e-06
-0.0001562494
3.7318376e-06
-0.00015988957
3.6401721e-06
-0.00016343587
3.546303e-06
-0.00016688615
3.450281e-06
-0.00017023831
3.3521579e-06
-0.0001734903
3.2519872e-06
-0.00017664012
3.1498234e-06
-0.00017968584
3.0457224e-06
-0.00018262559
2.9397413e-06
-0.00018545752
2.8319387e-06
-0.0001881799
2.722374e-06
-0.00019079101
2.6111083e-06
-0.00019328921
2.4982034e-06
-0.00019567293
2.3837227e-06
-0.00019794066
2.2677304e-06
-0.00020009096
2.1502918e-06
-0.00020212243
2.0314736e-06
-0.00020403377
1.9113432e-06
-0.00020582374
1.7899692e-06
-0.00020749116
1.667421e-06
-0.00020903493
1.5437692e-06
-0.00021045402
1.419085e-06
-0.00021174746
1.2934407e-06
-0.00021291437
1.1669094e-06
-0.00021395393
1.0395649e-06
-0.00021486541
9.1148183e-07
-0.00021564815
7.8273556e-07
-0.00021630155
6.5340207e-07
-0.00021682511
5.2355803e-07
-0.00021721839
3.9328061e-07
-0.00021748104
2.6264718e-07
-0.00021761277
1.3173603e-07
-0.0002176134
6.282511e-10
-0.0002174828
-1.3060022e-07
-0.00021722093
-2.6186858e-07
-0.00021682783
-3.9309724e-07
-0.00021630363
-5.2420608e-07
-0.00021564851
-6.5511485e-07
-0.00021486277
-7.8574315e-07
-0.00021394676
-9.1601049e-07
-0.00021290092
-1.0458363e-06
-0.00021172578
-1.1751401e-06
-0.00021042194
-1.3038414e-06
-0.00020899008
-1.4318598e-06
-0.00020743097
-1.5591152e-06
-0.00020574544
-1.6855275e-06
-0.00020393442
-1.8110171e-06
-0.00020199892
-1.9355046e-06
-0.00019994001
-2.0589111e-06
-0.00019775885
-2.1811581e-06
-0.00019545668
-2.3021676e-06
-0.00019303482
-2.4218622e-06
-0.00019049465
-2.5401651e-06
-0.00018783765
-2.6570001e-06
-0.00018506536
-2.7722919e-06
-0.0001821794
-2.8859659e-06
-0.00017918145
-2.9979484e-06
-0.00017607328
-3.1081666e-06
-0.00017285673
-3.2165486e-06
-0.00016953371
-3.3230235e-06
-0.00016610619
-3.4275217e-06
-0.00016257621
-3.5299744e-06
-0.0001589459
-3.6303143e-06
-0.00015521742
-3.7284752e-06
-0.00015139303
-3.8243922e-06
-0.00014747503
-3.9180016e-06
-0.00014346579
-4.0092415e-06
-0.00013936774
-4.098051e-06
-0.00013518337
-4.184371e-06
-0.00013091522
-4.2681439e-06
-0.00012656591
-4.3493135e-06
-0.00012213808
-4.4278255e-06
-0.00011763446
-4.5036271e-06
-0.00011305779
-4.5766675e-06
-0.00010841089
-4.6468973e-06
-0.00010369662
-4.7142692e-06
-9.8917884e-05
-4.7787377e-06
-9.4077625e-05
-4.8402592e-06
-8.9178833e-05
-4.898792e-06
-8.4224537e-05
-4.9542963e-06
-7.9217802e-05
-5.0067345e-06
-7.4161731e-05
-5.056071e-06
-6.9059459e-05
-5.1022721e-06
-6.3914153e-05
-5.1453064e-06
-5.8729008e-05
-5.1851446e-06
-5.3507249e-05
-5.2217594e-06
-4.8252123e-05
-5.2551258e-06
-4.2966902e-05
-5.285221e-06
-3.7654878e-05
-5.3120244e-06
-3.231936e-05
-5.3355177e-06
-2.6963675e-05
-5.3556849e-06
-2.1591163e-05
-5.372512e-06
-1.6205176e-05
-5.3859875e-06
-1.0809073e-05
-5.3961023e-06
-5.406224e-06
-5.4028493e-06
1.6341495e-15
-5.406224e-06
5.406224e-06
-5.406224e-06
1.0809073e-05
-5.4028493e-06
1.6205176e-05
-5.3961023e-06
2.1591163e-05
-5.3859875e-06
2.6963675e-05
-5.372512e-06
3.231936e-05
-5.3556849e-06
3.7654878e-05
-5.3355177e-06
4.2966902e-05
-5.3120244e-06
4.8252123e-05
-5.285221e-06
5.3507249e-05
-5.2551258e-06
5.8729008e-05
-5.2217594e-06
6.3914153e-05
-5.1851446e-06
6.9059459e-05
-5.1453064e-06
7.4161731e-05
-5.1022721e-06
7.9217802e-05
-5.056071e-06
8.4224537e-05
-5.0067345e-06
8.9178833e-05
-4.9542963e-06
9.4077625e-05
-4.898792e-06
9.8917884e-05
-4.8402592e-06
0.00010369662
-4.7787377e-06
0.00010841089
-4.7142692e-06
0.00011305779
-4.6468973e-06
0.00011763446
-4.5766675e-06
0.00012213808
-4.5036271e-06
0.00012656591
-4.4278255e-06
0.00013091522
-4.3493135e-06
0.00013518337
-4.2681439e-06
0.00013936774
-4.184371e-06
0.00014346579
-4.098051e-06
0.00014747503
-4.0092415e-06
0.00015139303
-3.9180016e-06
0.00015521742
-3.8243922e-06
0.0001589459
-3.7284752e-06
0.00016257621
-3.6303143e-06
0.00016610619
-3.5299744e-06
0.00016953371
-3.4275217e-06
0.00017285673
-3.3230235e-06
0.00017607328
-3.2165486e-06
0.00017918145
-3.1081666e-06
0.0001821794
-2.9979484e-06
0.00018506536
-2.8859659e-06
0.00018783765
-2.7722919e-06
0.00019049465
-2.6570001e-06
0.00019303482
-2.5401651e-06
0.00019545668
-2.4218622e-06
0.00019775885
-2.3021676e-06
0.00019994001
-2.1811581e-06
0.00020199892
-2.0589111e-06
0.00020393442
-1.9355046e-06
0.00020574544
-1.8110171e-06
0.00020743097
-1.6855275e-06
0.00020899008
-1.5591152e-06
0.00021042194
-1.4318598e-06
0.00021172578
-1.3038414e-06
0.00021290092
-1.1751401e-06
0.00021394676
-1.0458363e-06
0.00021486277
-9.1601049e-07
0.00021564851
-7.8574315e-07
0.00021630363
-6.5511485e-07
0.00021682783
-5.2420608e-07
0.00021722093
-3.9309724e-07
0.0002174828
-2.6186858e-07
0.0002176134
-1.3060022e-07
0.00021761277
6.282512e-10
0.00021748104
1.3173603e-07
0.00021721839
2.6264718e-07
0.00021682511
3.9328061e-07
0.00021630155
5.2355803e-07
0.00021564815
6.5340207e-07
0.00021486541
7.8273556e-07
0.00021395393
9.1148183e-07
0.00021291437
1.0395649e-06
0.00021174746
1.1669094e-06
0.00021045402
1.2934407e-06
0.00020903493
1.419085e-06
0.00020749116
1.5437692e-06
0.00020582374
1.667421e-06
0.00020403377
1.7899692e-06
0.00020212243
1.9113432e-06
0.00020009096
2.0314736e-06
0.00019794066
2.1502918e-06
0.00019567293
2.2677304e-06
0.00019328921
2.3837227e-06
0.00019079101
2.4982034e-06
0.0001881799
2.6111083e-06
0.00018545752
2.722374e-06
0.00018262559
2.8319387e-06
0.00017968584
2.9397413e-06
0.00017664012
3.0457224e-06
0.0001734903
3.1498234e-06
0.00017023831
3.2519872e-06
0.00016688615
3.3521579e-06
0.00016343587
3.450281e-06
0.00015988957
3.546303e-06
0.0001562494
3.6401721e-06
0.00015251756
3.7318376e-06
0.00014869631
3.8212504e-06
0.00014478795
3.9083624e-06
0.00014079482
3.9931272e-06
0.00013671932
4.0754997e-06
0.00013256388
4.1554363e-06
0.00012833099
4.2328947e-06
0.00012402316
4.3078342e-06
0.00011964294
4.3802153e-06
0.00011519294
4.4500001e-06
0.00011067579
4.5171523e-06
0.00010609415
4.5816369e-06
0.00010145073
4.6434205e-06
9.6748259e-05
4.7024709e-06
9.1989501e-05
4.7587578e-06
8.7177249e-05
4.8122522e-06
8.2314323e-05
4.8629264e-06
7.7403568e-05
4.9107547e-06
7.2447856e-05
4.9557125e-06
6.7450079e-05
4.9977768e-06
6.2413153e-05
5.0369262e-06
5.7340012e-05
5.0731409e-06
5.2233609e-05
5.1064023e-06
4.7096916e-05
5.1366937e-06
4.1932916e-05
5.1639996e-06
3.674461e-05
5.1883064e-06
3.1535008e-05
5.2096017e-06
2.6307133e-05
5.2278748e-06
2.1064017e-05
5.2431164e-06
1.5808698e-05
5.2553189e-06
1.0544222e-05
5.2644762e-06
5.2736381e-06
5.2705836e-06
5.2736381e-06
-5.2771162e-06
1.0550754e-05
-1.0551176e-05
1.0544643e-05
-1.5819125e-05
1.0532425e-05
-2.107791e-05
1.0514105e-05
-2.6324486e-05
1.0489692e-05
-3.1555811e-05
1.0459199e-05
-3.6768851e-05
1.0422642e-05
-4.1960582e-05
1.0380038e-05
-4.7127992e-05
1.0331409e-05
-5.2268079e-05
1.027678e-05
-5.7377855e-05
1.0216179e-05
-6.245435e-05
1.0149635e-05
-6.7494607e-05
1.0077183e-05
-7.2495691e-05
9.9988602e-06
-7.7454683e-05
9.9147054e-06
-8.2368691e-05
9.8247618e-06
-8.7234839e-05
9.7290753e-06
-9.2050282e-05
9.6276951e-06
-9.6812197e-05
9.5206729e-06
-0.00010151779
9.4080638e-06
-0.0001061643
9.2899259e-06
-0.00011074898
9.16632e-06
-0.00011526914
9.0373103e-06
-0.0001197221
8.9029635e-06
-0.00012410523
8.7633498e-06
-0.00012841594
8.6185419e-06
-0.00013265166
8.4686157e-06
-0.00013680988
8.3136498e-06
-0.0001408881
8.1537259e-06
-0.0001448839
7.9889285e-06
-0.00014879489
7.819345e-06
-0.0001526187
7.6450656e-06
-0.00015635305
7.4661831e-06
-0.00015999567
7.2827935e-06
-0.00016354436
7.0949953e-06
-0.00016699697
6.9028896e-06
-0.00017035139
6.7065806e-06
-0.00017360558
6.5061748e-06
-0.00017675754
6.3017813e-06
-0.00017980533
6.0935122e-06
-0.00018274707
5.8814816e-06
-0.00018558094
5.6658065e-06
-0.00018830517
5.4466062e-06
-0.00019091806
5.2240025e-06
-0.00019341798
4.9981194e-06
-0.00019580334
4.7690833e-06
-0.00019807263
4.537023e-06
-0.00020022441
4.3020692e-06
-0.00020225729
4.064355e-06
-0.00020416996
3.8240154e-06
-0.00020596118
3.5811876e-06
-0.00020762977
3.3360106e-06
-0.00020917463
3.0886254e-06
-0.00021059472
2.8391747e-06
-0.00021188908
2.587803e-06
-0.00021305683
2.3346566e-06
-0.00021409714
2.0798831e-06
-0.00021500929
1.8236319e-06
-0.00021579261
1.5660536e-06
-0.00021644651
1.3073004e-06
-0.00021697048
1.0475255e-06
-0.00021736408
7.8688339e-07
-0.00021762696
5.2552946e-07
-0.00021775885
2.6362052e-07
-0.00021775953
1.315055e-09
-0.00021762891
-2.6122987e-07
-0.00021736692
-5.238551e-07
-0.00021697361
-7.8640096e-07
-0.00021644911
-1.0487073e-06
-0.00021579362
-1.3106134e-06
-0.0002150074
-1.5719586e-06
-0.00021409083
-1.8325818e-06
-0.00021304434
-2.0923218e-06
-0.00021186847
-2.3510174e-06
-0.0002105638
-2.6085078e-06
-0.00020913103
-2.8646321e-06
-0.00020757091
-3.1192298e-06
-0.0002058843
-3.372141e-06
-0.00020407211
-3.6232062e-06
-0.00020213535
-3.8722668e-06
-0.00020007509
-4.1191647e-06
-0.00019789251
-4.3637429e-06
-0.00019558883
-4.6058453e-06
-0.00019316538
-4.8453171e-06
-0.00019062354
-5.0820046e-06
-0.00018796478
-5.3157555e-06
-0.00018519065
-5.546419e-06
-0.00018230277
-5.773846e-06
-0.00017930283
-5.9978887e-06
-0.0001761926
-6.2184017e-06
-0.00017297391
-6.4352411e-06
-0.00016964867
-6.6482652e-06
-0.00016621885
-6.8573344e-06
-0.00016268652
-7.0623115e-06
-0.00015905377
-7.2630614e-06
-0.00015532279
-7.4594519e-06
-0.00015149583
-7.651353e-06
-0.00014757519
-7.8386376e-06
-0.00014356325
-8.0211814e-06
-0.00013946244
-8.1988629e-06
-0.00013527525
-8.3715636e-06
-0.00013100423
-8.5391682e-06
-0.00012665197
-8.7015647e-06
-0.00012222116
-8.858644e-06
-0.00011771448
-9.0103008e-06
-0.00011313472
-9.1564331e-06
-0.00010848467
-9.2969423e-06
-0.00010376721
-9.4317338e-06
-9.8985229e-05
-9.5607165e-06
-9.4141685e-05
-9.683803e-06
-8.9239567e-05
-9.80091e-06
-8.4281905e-05
-9.911958e-06
-7.9271768e-05
-1.0016872e-05
-7.4212259e-05
-1.011558e-05
-6.9106517e-05
-1.0208015e-05
-6.3957709e-05
-1.0294114e-05
-5.8769035e-05
-1.0373819e-05
-5.3543721e-05
-1.0447074e-05
-4.8285016e-05
-1.0513831e-05
-4.2996194e-05
-1.0574042e-05
-3.768055e-05
-1.0627668e-05
-3.2341396e-05
-1.0674672e-05
-2.6982061e-05
-1.071502e-05
-2.1605886e-05
-1.0748687e-05
-1.6216226e-05
-1.0775647e-05
-1.0816444e-05
-1.0795884e-05
-5.4099107e-06
-1.0809383e-05
1.614836e-15
-1.0816135e-05
5.4099107e-06
-1.0816135e-05
1.0816444e-05
-1.0809383e-05
1.6216226e-05
-1.0795884e-05
2.1605886e-05
-1.0775647e-05
2.6982061e-05
-1.0748687e-05
3.2341396e-05
-1.071502e-05
3.768055e-05
-1.0674672e-05
4.2996194e-05
-1.0627668e-05
4.8285016e-05
-1.0574042e-05
5.3543721e-05
-1.0513831e-05
5.8769035e-05
-1.0447074e-05
6.3957709e-05
-1.0373819e-05
6.9106517e-05
-1.0294114e-05
7.4212259e-05
-1.0208015e-05
7.9271768e-05
-1.011558e-05
8.4281905e-05
-1.0016872e-05
8.9239567e-05
-9.911958e-06
9.4141685e-05
-9.80091e-06
9.8985229e-05
-9.683803e-06
0.00010376721
-9.5607165e-06
0.00010848467
-9.4317338e-06
0.00011313472
-9.2969423e-06
0.00011771448
-9.1564331e-06
0.00012222116
-9.0103008e-06
0.00012665197
-8.858644e-06
0.00013100423
-8.7015647e-06
0.00013527525
-8.5391682e-06
0.00013946244
-8.3715636e-06
0.00014356325
-8.1988629e-06
0.00014757519
-8.0211814e-06
0.00015149583
-7.8386376e-06
0.00015532279
-7.651353e-06
0.00015905377
-7.4594519e-06
0.00016268652
-7.2630614e-06
0.00016621885
-7.0623115e-06
0.00016964867
-6.8573344e-06
0.00017297391
-6.6482652e-06
0.0001761926
-6.4352411e-06
0.00017930283
-6.2184017e-06
0.00018230277
-5.9978887e-06
0.00018519065
-5.773846e-06
0.00018796478
-5.546419e-06
0.00019062354
-5.3157555e-06
0.00019316538
-5.0820046e-06
0.00019558883
-4.8453171e-06
0.00019789251
-4.6058453e-06
0.00020007509
-4.3637429e-06
0.00020213535
-4.1191647e-06
0.00020407211
-3.8722668e-06
0.0002058843
-3.6232062e-06
0.00020757091
-3.372141e-06
0.00020913103
-3.1192298e-06
0.0002105638
-2.8646321e-06
0.00021186847
-2.6085078e-06
0.00021304434
-2.3510174e-06
0.00021409083
-2.0923218e-06
0.0002150074
-1.8325818e-06
0.00021579362
-1.5719586e-06
0.00021644911
-1.3106134e-06
0.00021697361
-1.0487073e-06
0.00021736692
-7.8640096e-07
0.00021762891
-5.238551e-07
0.00021775953
-2.6122987e-07
0.00021775885
1.3150553e-09
0.00021762696
2.6362052e-07
0.00021736408
5.2552946e-07
0.00021697048
7.8688339e-07
0.00021644651
1.0475255e-06
0.00021579261
1.3073004e-06
0.00021500929
1.5660536e-06
0.00021409714
1.8236319e-06
0.00021305683
2.0798831e-06
0.00021188908
2.3346566e-06
0.00021059472
2.587803e-06
0.00020917463
2.8391747e-06
0.00020762977
3.0886254e-06
0.00020596118
3.3360106e-06
0.00020416996
3.5811876e-06
0.00020225729
3.8240154e-06
0.00020022441
4.064355e-06
0.00019807263
4.3020692e-06
0.00019580334
4.537023e-06
0.00019341798
4.7690833e-06
0.00019091806
4.9981194e-06
0.00018830517
5.2240025e-06
0.00018558094
5.4466062e-06
0.00018274707
5.6658065e-06
0.00017980533
5.8814816e-06
0.00017675754
6.0935122e-06
0.00017360558
6.3017813e-06
0.00017035139
6.5061748e-06
0.00016699697
6.7065806e-06
0.00016354436
6.9028896e-06
0.00015999567
7.0949953e-06
0.00015635305
7.2827935e-06
0.0001526187
7.4661831e-06
0.00014879489
7.6450656e-06
0.0001448839
7.819345e-06
0.0001408881
7.9889285e-06
0.00013680988
8.1537259e-06
0.00013265166
8.3136498e-06
0.00012841594
8.4686157e-06
0.00012410523
8.6185419e-06
0.0001197221
8.7633498e-06
0.00011526914
8.9029635e-06
0.00011074898
9.0373103e-06
0.0001061643
9.16632e-06
0.00010151779
9.2899259e-06
9.6812197e-05
9.4080638e-06
9.2050282e-05
9.5206729e-06
8.7234839e-05
9.6276951e-06
8.2368691e-05
9.7290753e-06
7.7454683e-05
9.8247618e-06
7.2495691e-05
9.9147054e-06
6.7494607e-05
9.9988602e-06
6.245435e-05
1.0077183e-05
5.7377855e-05
1.0149635e-05
5.2268079e-05
1.0216179e-05
4.7127992e-05
1.027678e-05
4.1960582e-05
1.0331409e-05
3.6768851e-05
1.0380038e-05
3.1555811e-05
1.0422642e-05
2.6324486e-05
1.0459199e-05
2.107791e-05
1.0489692e-05
1.5819125e-05
1.0514105e-05
1.0551176e-05
1.0532425e-05
5.2771162e-06
1.0544643e-05
1.0550754e-05
-5.2825531e-06
1.5833307e-05
-1.0562047e-05
1.5824137e-05
-1.5835423e-05
1.5805801e-05
-2.1099628e-05
1.5778309e-05
-2.635161e-05
1.5741674e-05
-3.1588326e-05
1.5695915e-05
-3.680674e-05
1.5641055e-05
-4.2003823e-05
1.5577122e-05
-4.7176561e-05
1.5504147e-05
-5.2321949e-05
1.5422168e-05
-5.7436997e-05
1.5331227e-05
-6.251873e-05
1.5231368e-05
-6.7564189e-05
1.5122643e-05
-7.2570436e-05
1.5005107e-05
-7.753455e-05
1.487882e-05
-8.2453634e-05
1.4743846e-05
-8.7324812e-05
1.4600253e-05
-9.2145234e-05
1.4448117e-05
-9.6912074e-05
1.4287513e-05
-0.00010162254
1.4118526e-05
-0.00010627385
1.3941242e-05
-0.00011086328
1.3755752e-05
-0.00011538813
1.3562152e-05
-0.00011984571
1.3360544e-05
-0.00012423339
1.3151031e-05
-0.00012854857
1.2933724e-05
-0.00013278869
1.2708736e-05
-0.00013695123
1.2476185e-05
-0.00014103369
1.2236193e-05
-0.00014503365
1.1988888e-05
-0.00014894871
1.1734401e-05
-0.00015277651
1.1472866e-05
-0.00015651475
1.1204424e-05
-0.00016016117
1.0929217e-05
-0.00016371357
1.0647395e-05
-0.00016716979
1.0359109e-05
-0.00017052773
1.0064514e-05
-0.00017378532
9.7637715e-06
-0.00017694059
9.4570447e-06
-0.00017999158
9.1445016e-06
-0.00018293641
8.8263136e-06
-0.00018577326
8.5026563e-06
-0.00018850036
8.1737086e-06
-0.00019111601
7.8396533e-06
-0.00019361857
7.5006765e-06
-0.00019600645
7.156968e-06
-0.00019827815
6.8087208e-06
-0.00020043221
6.4561312e-06
-0.00020246726
6.099399e-06
-0.00020438197
5.7387268e-06
-0.0002061751
5.3743203e-06
-0.00020784548
5.0063883e-06
-0.00020939199
4.6351422e-06
-0.00021081362
4.2607963e-06
-0.00021210938
3.8835674e-06
-0.0002132784
3.5036749e-06
-0.00021431986
3.1213406e-06
-0.00021523301
2.7367884e-06
-0.0002160172
2.3502446e-06
-0.00021667184
1.9619373e-06
-0.00021719641
1.5720965e-06
-0.00021759048
1.1809542e-06
-0.0002178537
7.8874376e-07
-0.00021798578
3.9570034e-07
-0.00021798652
2.0606475e-09
-0.00021785581
-3.9193815e-07
-0.00021759361
-7.8605756e-07
-0.00021719995
-1.180058e-06
-0.00021667496
-1.5736991e-06
-0.00021601884
-1.96674e-06
-0.00021523186
-2.3589392e-06
-0.00021431438
-2.750055e-06
-0.00021326686
-3.1398457e-06
-0.00021208981
-3.5280694e-06
-0.00021078383
-3.9144844e-06
-0.00020934961
-4.2988495e-06
-0.00020778792
-4.6809239e-06
-0.00020609959
-5.0604676e-06
-0.00020428556
-5.4372411e-06
-0.00020234682
-5.8110064e-06
-0.00020028446
-6.1815264e-06
-0.00019809963
-6.5485653e-06
-0.00019579359
-6.911889e-06
-0.00019336764
-7.2712651e-06
-0.00019082318
-7.6264629e-06
-0.00018816168
-7.977254e-06
-0.00018538469
-8.3234119e-06
-0.00018249382
-8.6647127e-06
-0.00017949078
-9.0009351e-06
-0.00017637732
-9.3318604e-06
-0.00017315529
-9.6572729e-06
-0.00016982659
-9.9769599e-06
-0.00016639322
-1.0290712e-05
-0.0001628572
-1.0598323e-05
-0.00015922068
-1.089959e-05
-0.00015548581
-1.1194315e-05
-0.00015165486
-1.1482303e-05
-0.00014773014
-1.1763364e-05
-0.00014371401
-1.2037309e-05
-0.00013960891
-1.2303958e-05
-0.00013541734
-1.2563132e-05
-0.00013114185
-1.2814659e-05
-0.00012678505
-1.3058369e-05
-0.00012234959
-1.32941e-05
-0.0001178382
-1.3521694e-05
-0.00011325364
-1.3740997e-05
-0.00010859872
-1.3951861e-05
-0.00010387631
-1.4154145e-05
-9.9089312e-05
-1.4347711e-05
-9.4240686e-05
-1.4532429e-05
-8.9333422e-05
-1.4708174e-05
-8.4370555e-05
-1.4874825e-05
-7.9355156e-05
-1.5032271e-05
-7.4290332e-05
-1.5180404e-05
-6.9179223e-05
-1.5319123e-05
-6.4025004e-05
-1.5448333e-05
-5.8830875e-05
-1.5567948e-05
-5.3600065e-05
-1.5677884e-05
-4.833583e-05
-1.5778066e-05
-4.3041445e-05
-1.5868427e-05
-3.7720208e-05
-1.5948905e-05
-3.2375436e-05
-1.6019444e-05
-2.701046e-05
-1.6079996e-05
-2.1628628e-05
-1.6130519e-05
-1.6233295e-05
-1.617098e-05
-1.082783e-05
-1.6201349e-05
-5.4156053e-06
-1.6221607e-05
1.6071839e-15
-1.623174e-05
5.4156053e-06
-1.623174e-05
1.082783e-05
-1.6221607e-05
1.6233295e-05
-1.6201349e-05
2.1628628e-05
-1.617098e-05
2.701046e-05
-1.6130519e-05
3.2375436e-05
-1.6079996e-05
3.7720208e-05
-1.6019444e-05
4.3041445e-05
-1.5948905e-05
4.833583e-05
-1.5868427e-05
5.3600065e-05
-1.5778066e-05
5.8830875e-05
-1.5677884e-05
6.4025004e-05
-1.5567948e-05
6.9179223e-05
-1.5448333e-05
7.4290332e-05
-1.5319123e-05
7.9355156e-05
-1.5180404e-05
8.4370555e-05
-1.5032271e-05
8.9333422e-05
-1.4874825e-05
9.4240686e-05
-1.4708174e-05
9.9089312e-05
-1.4532429e-05
0.00010387631
-1.4347711e-05
0.00010859872
-1.4154145e-05
0.00011325364
-1.3951861e-05
0.0001178382
-1.3740997e-05
0.00012234959
-1.3521694e-05
0.00012678505
-1.32941e-05
0.00013114185
-1.3058369e-05
0.00013541734
-1.2814659e-05
0.00013960891
-1.2563132e-05
0.00014371401
-1.2303958e-05
0.00014773014
-1.2037309e-05
0.00015165486
-1.1763364e-05
0.00015548581
-1.1482303e-05
0.00015922068
-1.1194315e-05
0.0001628572
-1.089959e-05
0.00016639322
-1.0598323e-05
0.00016982659
-1.0290712e-05
0.00017315529
-9.9769599e-06
0.00017637732
-9.6572729e-06
0.00017949078
-9.3318604e-06
0.00018249382
-9.0009351e-06
0.00018538469
-8.6647127e-06
0.00018816168
-8.3234119e-06
0.00019082318
-7.977254e-06
0.00019336764
-7.6264629e-06
0.00019579359
-7.2712651e-06
0.00019809963
-6.911889e-06
0.00020028446
-6.5485653e-06
0.00020234682
-6.1815264e-06
0.00020428556
-5.8110064e-06
0.00020609959
-5.4372411e-06
0.00020778792
-5.0604676e-06
0.00020934961
-4.6809239e-06
0.00021078383
-4.2988495e-06
0.00021208981
-3.9144844e-06
0.00021326686
-3.5280693e-06
0.00021431438
-3.1398457e-06
0.00021523186
-2.750055e-06
0.00021601884
-2.3589392e-06
0.00021667496
-1.96674e-06
0.00021719995
-1.5736991e-06
0.00021759361
-1.180058e-06
0.00021785581
-7.8605756e-07
0.00021798652
-3.9193815e-07
0.00021798578
2.0606481e-09
0.0002178537
3.9570034e-07
0.00021759048
7.8874376e-07
0.00021719641
1.1809542e-06
0.00021667184
1.5720965e-06
0.0002160172
1.9619373e-06
0.00021523301
2.3502446e-06
0.00021431986
2.7367884e-06
0.0002132784
3.1213406e-06
0.00021210938
3.5036749e-06
0.00021081362
3.8835674e-06
0.00020939199
4.2607963e-06
0.00020784548
4.6351422e-06
0.0002061751
5.0063883e-06
0.00020438197
5.3743203e-06
0.00020246726
5.7387268e-06
0.00020043221
6.099399e-06
0.00019827815
6.4561312e-06
0.00019600645
6.8087208e-06
0.00019361857
7.156968e-06
0.00019111601
7.5006765e-06
0.00018850036
7.8396533e-06
0.00018577326
8.1737086e-06
0.00018293641
8.5026563e-06
0.00017999158
8.8263136e-06
0.00017694059
9.1445016e-06
0.00017378532
9.4570447e-06
0.00017052773
9.7637715e-06
0.00016716979
1.0064514e-05
0.00016371357
1.0359109e-05
0.00016016117
1.0647395e-05
0.00015651475
1.0929217e-05
0.00015277651
1.1204424e-05
0.00014894871
1.1472866e-05
0.00014503365
1.1734401e-05
0.00014103369
1.1988888e-05
0.00013695123
1.2236193e-05
0.00013278869
1.2476185e-05
0.00012854857
1.2708736e-05
0.00012423339
1.2933724e-05
0.00011984571
1.3151031e-05
0.00011538813
1.3360544e-05
0.00011086328
1.3562152e-05
0.00010627385
1.3755752e-05
0.00010162254
1.3941242e-05
9.6912074e-05
1.4118526e-05
9.2145234e-05
1.4287513e-05
8.7324812e-05
1.4448117e-05
8.2453634e-05
1.4600253e-05
7.753455e-05
1.4743846e-05
7.2570436e-05
1.487882e-05
6.7564189e-05
1.5005107e-05
6.251873e-05
1.5122643e-05
5.7436997e-05
1.5231368e-05
5.2321949e-05
1.5331227e-05
4.7176561e-05
1.5422168e-05
4.2003823e-05
1.5504147e-05
3.680674e-05
1.5577122e-05
3.1588326e-05
1.5641055e-05
2.635161e-05
1.5695915e-05
2.1099628e-05
1.5741674e-05
1.5835423e-05
1.5778309e-05
1.0562047e-05
1.5805801e-05
5.2825531e-06
1.5824137e-05
1.5833307e-05
-5.2899556e-06
2.1123263e-05
-1.0576848e-05
2.1111029e-05
-1.5857614e-05
2.1086568e-05
-2.1129196e-05
2.1049891e-05
-2.638854e-05
2.1001018e-05
-3.1632596e-05
2.0939972e-05
-3.6858325e-05
2.0866784e-05
-4.2062695e-05
2.0781492e-05
-4.7242687e-05
2.0684139e-05
-5.2395291e-05
2.0574772e-05
-5.7517513e-05
2.0453449e-05
-6.2606375e-05
2.032023e-05
-6.7658915e-05
2.0175182e-05
-7.2672188e-05
2.001838e-05
-7.7643271e-05
1.9849903e-05
-8.2569263e-05
1.9669837e-05
-8.7447284e-05
1.9478274e-05
-9.2274478e-05
1.9275311e-05
-9.7048019e-05
1.9061054e-05
-0.0001017651
1.8835611e-05
-0.00010642296
1.8599099e-05
-0.00011101885
1.8351641e-05
-0.00011555006
1.8093363e-05
-0.00012001392
1.7824401e-05
-0.00012440778
1.7544894e-05
-0.00012872904
1.7254988e-05
-0.00013297514
1.6954835e-05
-0.00013714355
1.6644592e-05
-0.00014123178
1.6324422e-05
-0.00014523739
1.5994496e-05
-0.00014915797
1.5654988e-05
-0.00015299118
1.5306077e-05
-0.00015673471
1.4947951e-05
-0.0001603863
1.4580802e-05
-0.00016394373
1.4204825e-05
-0.00016740484
1.3820225e-05
-0.00017076754
1.3427209e-05
-0.00017402976
1.3025991e-05
-0.0001771895
1.2616789e-05
-0.00018024483
1.2199827e-05
-0.00018319385
1.1775334e-05
-0.00018603474
1.1343545e-05
-0.00018876572
1.0904697e-05
-0.00019138511
1.0459035e-05
-0.00019389124
1.0006807e-05
-0.00019628253
9.5482659e-06
-0.00019855748
9.0836697e-06
-0.00020071463
8.6132801e-06
-0.0002027526
8.1373635e-06
-0.00020467006
7.6561903e-06
-0.00020646577
7.170035e-06
-0.00020813856
6.6791759e-06
-0.00020968732
6.1838953e-06
-0.000211111
5.6844789e-06
-0.00021240865
5.1812161e-06
-0.00021357937
4.6743994e-06
-0.00021462236
4.1643248e-06
-0.00021553686
3.6512911e-06
-0.00021632221
3.1356e-06
-0.00021697783
2.6175559e-06
-0.0002175032
2.0974659e-06
-0.00021789789
1.5756392e-06
-0.00021816153
1.0523874e-06
-0.00021829385
5.2802395e-07
-0.00021829466
2.8644452e-09
-0.00021816382
-5.2277438e-07
-0.0002179013
-1.0485743e-06
-0.00021750715
-1.5742157e-06
-0.00021698147
-2.0993779e-06
-0.00021632447
-2.6237396e-06
-0.00021553643
-3.1469786e-06
-0.00021461771
-3.6687726e-06
-0.00021356876
-4.1887989e-06
-0.00021239009
-4.7067349e-06
-0.00021108232
-5.2222582e-06
-0.00020964612
-5.7350469e-06
-0.00020808227
-6.2447797e-06
-0.0002063916
-6.7511364e-06
-0.00020457504
-7.2537978e-06
-0.0002026336
-7.7524459e-06
-0.00020056836
-8.2467646e-06
-0.00019838049
-8.7364394e-06
-0.00019607122
-9.2211579e-06
-0.00019364187
-9.7006099e-06
-0.00019109385
-1.0174488e-05
-0.00018842862
-1.0642487e-05
-0.00018564772
-1.1104305e-05
-0.00018275279
-1.1559643e-05
-0.00017974552
-1.2008206e-05
-0.00017662768
-1.2449702e-05
-0.00017340111
-1.2883844e-05
-0.00017006772
-1.3310347e-05
-0.0001666295
-1.3728932e-05
-0.0001630885
-1.4139325e-05
-0.00015944684
-1.4541254e-05
-0.0001557067
-1.4934456e-05
-0.00015187033
-1.5318669e-05
-0.00014794005
-1.569364e-05
-0.00014391824
-1.605912e-05
-0.00013980734
-1.6414864e-05
-0.00013560983
-1.6760637e-05
-0.00013132829
-1.7096206e-05
-0.00012696531
-1.7421348e-05
-0.00012252356
-1.7735845e-05
-0.00011800577
-1.8039485e-05
-0.0001134147
-1.8332065e-05
-0.00010875318
-1.8613386e-05
-0.00010402406
-1.888326e-05
-9.923027e-05
-1.9141503e-05
-9.4374757e-05
-1.9387942e-05
-8.9460521e-05
-1.9622409e-05
-8.4490602e-05
-1.9844745e-05
-7.9468074e-05
-2.0054799e-05
-7.4396049e-05
-2.0252428e-05
-6.9277674e-05
-2.0437498e-05
-6.4116124e-05
-2.0609883e-05
-5.8914607e-05
-2.0769465e-05
-5.3676356e-05
-2.0916134e-05
-4.840463e-05
-2.1049792e-05
-4.3102712e-05
-2.1170346e-05
-3.7773902e-05
-2.1277714e-05
-3.2421523e-05
-2.1371823e-05
-2.7048912e-05
-2.1452608e-05
-2.1659418e-05
-2.1520013e-05
-1.6256405e-05
-2.1573993e-05
-1.0843245e-05
-2.161451e-05
-5.4233152e-06
-2.1641537e-05
1.6141856e-15
-2.1655055e-05
5.4233152e-06
-2.1655055e-05
1.0843245e-05
-2.1641537e-05
1.6256405e-05
-2.161451e-05
2.1659418e-05
-2.1573993e-05
2.7048912e-05
-2.1520013e-05
3.2421523e-05
-2.1452608e-05
3.7773902e-05
-2.1371823e-05
4.3102712e-05
-2.1277714e-05
4.840463e-05
-2.1170346e-05
5.3676356e-05
-2.1049792e-05
5.8914607e-05
-2.0916134e-05
6.4116124e-05
-2.0769465e-05
6.9277674e-05
-2.0609883e-05
7.4396049e-05
-2.0437498e-05
7.9468074e-05
-2.0252428e-05
8.4490602e-05
-2.0054799e-05
8.9460521e-05
-1.9844745e-05
9.4374757e-05
-1.9622409e-05
9.923027e-05
-1.9387942e-05
0.00010402406
-1.9141503e-05
0.00010875318
-1.888326e-05
0.0001134147
-1.8613386e-05
0.00011800577
-1.8332065e-05
0.00012252356
-1.8039485e-05
0.00012696531
-1.7735845e-05
0.00013132829
-1.7421348e-05
0.00013560983
-1.7096206e-05
0.00013980734
-1.6760637e-05
0.00014391824
-1.6414864e-05
0.00014794005
-1.605912e-05
0.00015187033
-1.569364e-05
0.0001557067
-1.5318669e-05
0.00015944684
-1.4934456e-05
0.0001630885
-1.4541254e-05
0.0001666295
-1.4139325e-05
0.00017006772
-1.3728932e-05
0.00017340111
-1.3310347e-05
0.00017662768
-1.2883844e-05
0.00017974552
-1.2449702e-05
0.00018275279
-1.2008206e-05
0.00018564772
-1.1559643e-05
0.00018842862
-1.1104305e-05
0.00019109385
-1.0642487e-05
0.00019364187
-1.0174488e-05
0.00019607122
-9.7006099e-06
0.00019838049
-9.2211579e-06
0.00020056836
-8.7364394e-06
0.0002026336
-8.2467646e-06
0.00020457504
-7.7524459e-06
0.0002063916
-7.2537978e-06
0.00020808227
-6.7511364e-06
0.00020964612
-6.2447797e-06
0.00021108232
-5.7350469e-06
0.00021239009
-5.2222582e-06
0.00021356876
-4.7067349e-06
0.00021461771
-4.1887989e-06
0.00021553643
-3.6687726e-06
0.00021632447
-3.1469786e-06
0.00021698147
-2.6237396e-06
0.00021750715
-2.0993779e-06
0.0002179013
-1.5742157e-06
0.00021816382
-1.0485743e-06
0.00021829466
-5.2277438e-07
0.00021829385
2.8644457e-09
0.00021816153
5.2802395e-07
0.00021789789
1.0523874e-06
0.0002175032
1.5756392e-06
0.00021697783
2.0974659e-06
0.00021632221
2.6175559e-06
0.00021553686
3.1356e-06
0.00021462236
3.6512911e-06
0.00021357937
4.1643248e-06
0.00021240865
4.6743994e-06
0.000211111
5.1812161e-06
0.00020968732
5.6844789e-06
0.00020813856
6.1838953e-06
0.00020646577
6.6791759e-06
0.00020467006
7.170035e-06
0.0002027526
7.6561903e-06
0.00020071463
8.1373635e-06
0.00019855748
8.6132801e-06
0.00019628253
9.0836697e-06
0.00019389124
9.5482659e-06
0.00019138511
1.0006807e-05
0.00018876572
1.0459035e-05
0.00018603474
1.0904697e-05
0.00018319385
1.1343545e-05
0.00018024483
1.1775334e-05
0.0001771895
1.2199827e-05
0.00017402976
1.2616789e-05
0.00017076754
1.3025991e-05
0.00016740484
1.3427209e-05
0.00016394373
1.3820225e-05
0.0001603863
1.4204825e-05
0.00015673471
1.4580802e-05
0.00015299118
1.4947951e-05
0.00014915797
1.5306077e-05
0.00014523739
1.5654988e-05
0.00014123178
1.5994496e-05
0.00013714355
1.6324422e-05
0.00013297514
1.6644592e-05
0.00012872904
1.6954835e-05
0.00012440778
1.7254988e-05
0.00012001392
1.7544894e-05
0.00011555006
1.7824401e-05
0.00011101885
1.8093363e-05
0.00010642296
1.8351641e-05
0.0001017651
1.8599099e-05
9.7048019e-05
1.8835611e-05
9.2274478e-05
1.9061054e-05
8.7447283e-05
1.9275311e-05
8.2569263e-05
1.9478274e-05
7.7643271e-05
1.9669837e-05
7.2672188e-05
1.9849903e-05
6.7658915e-05
2.001838e-05