/*--------------------------------*- C++ -*----------------------------------*\
| =========                 |                                                 |
| \\      /  F ield         | OpenFOAM: The Open Source CFD Toolbox           |
|  \\    /   O peration     | Version:  2106                                  |
|   \\  /    A nd           | Website:  www.openfoam.com                      |
|    \\/     M anipulation  |                                                 |
\*---------------------------------------------------------------------------*/
FoamFile
{
    version     2.0;
    format      ascii;
    arch        "LSB;label=32;scalar=64";
    class       volVectorField;
    location    "0.037";
    object      U;
}
// * * * * * * * * * * * * * * * * * * * * * * * * * * * * * * * * * * * * * //

dimensions      [0 1 -1 0 0 0 0];

internalField   nonuniform List<vector> 
65536
(
(-0.00067512334 0.00067495919 0)
(-0.002024979 0.00067456826 0)
(-0.0033736618 0.00067378658 0)
(-0.0047203905 0.00067261456 0)
(-0.0060643847 0.00067105279 0)
(-0.0074048657 0.00066910204 0)
(-0.0087410563 0.00066676331 0)
(-0.010072181 0.00066403776 0)
(-0.011397469 0.00066092679 0)
(-0.012716149 0.00065743195 0)
(-0.014027456 0.00065355502 0)
(-0.015330627 0.00064929796 0)
(-0.016624903 0.00064466292 0)
(-0.017909532 0.00063965226 0)
(-0.019183765 0.00063426854 0)
(-0.020446857 0.00062851449 0)
(-0.021698071 0.00062239304 0)
(-0.022936675 0.00061590735 0)
(-0.024161944 0.00060906072 0)
(-0.025373159 0.00060185668 0)
(-0.026569608 0.00059429893 0)
(-0.027750589 0.00058639139 0)
(-0.028915406 0.00057813814 0)
(-0.030063371 0.00056954347 0)
(-0.031193806 0.00056061186 0)
(-0.032306041 0.00055134796 0)
(-0.033399417 0.00054175662 0)
(-0.034473283 0.00053184289 0)
(-0.035527 0.00052161198 0)
(-0.036559938 0.00051106931 0)
(-0.037571481 0.00050022045 0)
(-0.03856102 0.00048907118 0)
(-0.039527961 0.00047762745 0)
(-0.04047172 0.00046589539 0)
(-0.041391728 0.0004538813 0)
(-0.042287427 0.00044159166 0)
(-0.043158272 0.00042903312 0)
(-0.044003732 0.0004162125 0)
(-0.044823289 0.0004031368 0)
(-0.045616441 0.00038981315 0)
(-0.046382699 0.00037624889 0)
(-0.047121589 0.00036245149 0)
(-0.047832651 0.00034842858 0)
(-0.048515444 0.00033418795 0)
(-0.049169539 0.00031973754 0)
(-0.049794524 0.00030508543 0)
(-0.050390004 0.00029023986 0)
(-0.050955602 0.0002752092 0)
(-0.051490954 0.00026000196 0)
(-0.051995716 0.00024462678 0)
(-0.052469561 0.00022909243 0)
(-0.05291218 0.0002134078 0)
(-0.053323281 0.00019758192 0)
(-0.05370259 0.00018162392 0)
(-0.054049852 0.00016554304 0)
(-0.054364831 0.00014934863 0)
(-0.05464731 0.00013305015 0)
(-0.054897089 0.00011665715 0)
(-0.055113988 0.00010017926 0)
(-0.055297849 8.3626219e-05 0)
(-0.05544853 6.7007834e-05 0)
(-0.055565911 5.0333972e-05 0)
(-0.05564989 3.3614493e-05 0)
(-0.055700386 1.6859449e-05 0)
(-0.055717339 7.968829e-08 0)
(-0.055700708 -1.6716027e-05 0)
(-0.055650472 -3.3516718e-05 0)
(-0.055566631 -5.0312305e-05 0)
(-0.055449206 -6.709255e-05 0)
(-0.055298237 -8.3847187e-05 0)
(-0.055113787 -0.00010056593 0)
(-0.054895937 -0.00011723846 0)
(-0.05464479 -0.00013385449 0)
(-0.054360469 -0.00015040371 0)
(-0.054043118 -0.00016687581 0)
(-0.053692902 -0.0001832605 0)
(-0.053310006 -0.00019954753 0)
(-0.052894635 -0.00021572667 0)
(-0.052447016 -0.0002317877 0)
(-0.051967395 -0.00024772048 0)
(-0.051456038 -0.00026351491 0)
(-0.050913232 -0.00027916093 0)
(-0.050339285 -0.00029464856 0)
(-0.049734523 -0.0003099679 0)
(-0.049099292 -0.00032510912 0)
(-0.048433958 -0.00034006247 0)
(-0.047738908 -0.00035481831 0)
(-0.047014545 -0.00036936709 0)
(-0.046261293 -0.00038369938 0)
(-0.045479596 -0.00039780586 0)
(-0.044669912 -0.00041167732 0)
(-0.043832723 -0.00042530471 0)
(-0.042968525 -0.00043867909 0)
(-0.042077832 -0.00045179169 0)
(-0.041161178 -0.00046463387 0)
(-0.040219111 -0.00047719717 0)
(-0.039252199 -0.00048947327 0)
(-0.038261023 -0.00050145404 0)
(-0.037246182 -0.00051313153 0)
(-0.036208291 -0.00052449798 0)
(-0.03514798 -0.00053554579 0)
(-0.034065894 -0.0005462676 0)
(-0.032962691 -0.00055665623 0)
(-0.031839046 -0.00056670472 0)
(-0.030695645 -0.00057640633 0)
(-0.029533189 -0.00058575452 0)
(-0.028352391 -0.000594743 0)
(-0.027153978 -0.0006033657 0)
(-0.025938686 -0.00061161681 0)
(-0.024707264 -0.00061949074 0)
(-0.023460473 -0.00062698215 0)
(-0.022199083 -0.00063408596 0)
(-0.020923874 -0.00064079736 0)
(-0.019635635 -0.00064711177 0)
(-0.018335166 -0.00065302489 0)
(-0.017023272 -0.00065853271 0)
(-0.015700769 -0.00066363145 0)
(-0.014368479 -0.00066831765 0)
(-0.013027229 -0.00067258811 0)
(-0.011677855 -0.00067643989 0)
(-0.010321196 -0.00067987037 0)
(-0.0089580986 -0.0006828772 0)
(-0.0075894115 -0.00068545832 0)
(-0.0062159883 -0.00068761197 0)
(-0.0048386857 -0.00068933666 0)
(-0.0034583631 -0.00069063121 0)
(-0.0020758817 -0.00069149474 0)
(-0.00069210459 -0.00069192665 0)
(0.00069210459 -0.00069192665 0)
(0.0020758817 -0.00069149474 0)
(0.0034583631 -0.00069063121 0)
(0.0048386857 -0.00068933666 0)
(0.0062159883 -0.00068761197 0)
(0.0075894115 -0.00068545832 0)
(0.0089580986 -0.0006828772 0)
(0.010321196 -0.00067987037 0)
(0.011677855 -0.00067643989 0)
(0.013027229 -0.00067258811 0)
(0.014368479 -0.00066831765 0)
(0.015700769 -0.00066363145 0)
(0.017023272 -0.00065853271 0)
(0.018335166 -0.00065302489 0)
(0.019635635 -0.00064711177 0)
(0.020923874 -0.00064079736 0)
(0.022199083 -0.00063408596 0)
(0.023460473 -0.00062698215 0)
(0.024707264 -0.00061949074 0)
(0.025938686 -0.00061161681 0)
(0.027153978 -0.0006033657 0)
(0.028352391 -0.000594743 0)
(0.029533189 -0.00058575452 0)
(0.030695645 -0.00057640633 0)
(0.031839046 -0.00056670472 0)
(0.032962691 -0.00055665623 0)
(0.034065894 -0.0005462676 0)
(0.03514798 -0.00053554579 0)
(0.036208291 -0.00052449798 0)
(0.037246182 -0.00051313153 0)
(0.038261023 -0.00050145404 0)
(0.039252199 -0.00048947327 0)
(0.040219111 -0.00047719717 0)
(0.041161178 -0.00046463387 0)
(0.042077832 -0.00045179169 0)
(0.042968525 -0.00043867909 0)
(0.043832723 -0.00042530471 0)
(0.044669912 -0.00041167732 0)
(0.045479596 -0.00039780586 0)
(0.046261293 -0.00038369938 0)
(0.047014545 -0.00036936709 0)
(0.047738908 -0.00035481831 0)
(0.048433958 -0.00034006247 0)
(0.049099292 -0.00032510912 0)
(0.049734523 -0.0003099679 0)
(0.050339285 -0.00029464856 0)
(0.050913232 -0.00027916093 0)
(0.051456038 -0.00026351491 0)
(0.051967395 -0.00024772048 0)
(0.052447016 -0.0002317877 0)
(0.052894635 -0.00021572667 0)
(0.053310006 -0.00019954753 0)
(0.053692902 -0.0001832605 0)
(0.054043118 -0.00016687581 0)
(0.054360469 -0.00015040371 0)
(0.05464479 -0.00013385449 0)
(0.054895937 -0.00011723846 0)
(0.055113787 -0.00010056593 0)
(0.055298237 -8.3847187e-05 0)
(0.055449206 -6.709255e-05 0)
(0.055566631 -5.0312304e-05 0)
(0.055650472 -3.3516718e-05 0)
(0.055700708 -1.6716027e-05 0)
(0.055717339 7.9688392e-08 0)
(0.055700386 1.6859449e-05 0)
(0.05564989 3.3614493e-05 0)
(0.055565911 5.0333972e-05 0)
(0.05544853 6.7007834e-05 0)
(0.055297849 8.3626219e-05 0)
(0.055113988 0.00010017926 0)
(0.054897089 0.00011665715 0)
(0.05464731 0.00013305015 0)
(0.054364831 0.00014934863 0)
(0.054049852 0.00016554304 0)
(0.05370259 0.00018162392 0)
(0.053323281 0.00019758192 0)
(0.05291218 0.0002134078 0)
(0.052469561 0.00022909243 0)
(0.051995716 0.00024462678 0)
(0.051490954 0.00026000196 0)
(0.050955602 0.0002752092 0)
(0.050390004 0.00029023986 0)
(0.049794524 0.00030508543 0)
(0.049169539 0.00031973754 0)
(0.048515444 0.00033418795 0)
(0.047832651 0.00034842858 0)
(0.047121589 0.00036245149 0)
(0.046382699 0.00037624889 0)
(0.045616441 0.00038981316 0)
(0.044823289 0.0004031368 0)
(0.044003732 0.0004162125 0)
(0.043158272 0.00042903312 0)
(0.042287427 0.00044159166 0)
(0.041391728 0.0004538813 0)
(0.04047172 0.00046589539 0)
(0.039527961 0.00047762745 0)
(0.03856102 0.00048907118 0)
(0.037571481 0.00050022045 0)
(0.036559938 0.00051106931 0)
(0.035527 0.00052161198 0)
(0.034473283 0.00053184289 0)
(0.033399417 0.00054175662 0)
(0.032306041 0.00055134796 0)
(0.031193806 0.00056061186 0)
(0.030063371 0.00056954347 0)
(0.028915406 0.00057813814 0)
(0.027750589 0.00058639139 0)
(0.026569608 0.00059429893 0)
(0.025373159 0.00060185668 0)
(0.024161944 0.00060906072 0)
(0.022936675 0.00061590735 0)
(0.021698071 0.00062239304 0)
(0.020446857 0.00062851449 0)
(0.019183765 0.00063426854 0)
(0.017909532 0.00063965226 0)
(0.016624903 0.00064466292 0)
(0.015330627 0.00064929796 0)
(0.014027456 0.00065355502 0)
(0.012716149 0.00065743195 0)
(0.011397469 0.00066092679 0)
(0.010072181 0.00066403776 0)
(0.0087410563 0.00066676331 0)
(0.0074048657 0.00066910204 0)
(0.0060643847 0.00067105279 0)
(0.0047203905 0.00067261456 0)
(0.0033736618 0.00067378658 0)
(0.002024979 0.00067456826 0)
(0.00067512334 0.00067495919 0)
(-0.00067556861 0.00202523 0)
(-0.0020263146 0.002024057 0)
(-0.0033758869 0.0020217116 0)
(-0.004723504 0.0020181949 0)
(-0.0060683849 0.0020135089 0)
(-0.0074097503 0.0020076557 0)
(-0.0087468227 0.0020006383 0)
(-0.010078827 0.0019924604 0)
(-0.011404989 0.0019831259 0)
(-0.01272454 0.0019726397 0)
(-0.014036713 0.001961007 0)
(-0.015340745 0.0019482337 0)
(-0.016635878 0.0019343263 0)
(-0.017921357 0.0019192919 0)
(-0.019196432 0.0019031381 0)
(-0.020460361 0.0018858731 0)
(-0.021712404 0.0018675058 0)
(-0.022951829 0.0018480455 0)
(-0.02417791 0.0018275022 0)
(-0.025389929 0.0018058865 0)
(-0.026587173 0.0017832096 0)
(-0.027768939 0.001759483 0)
(-0.028934531 0.0017347192 0)
(-0.03008326 0.0017089309 0)
(-0.031214448 0.0016821316 0)
(-0.032327425 0.0016543353 0)
(-0.03342153 0.0016255565 0)
(-0.034496113 0.0015958104 0)
(-0.035550535 0.0015651125 0)
(-0.036584165 0.0015334792 0)
(-0.037596385 0.0015009272 0)
(-0.038586588 0.0014674738 0)
(-0.039554178 0.0014331369 0)
(-0.040498573 0.0013979348 0)
(-0.0414192 0.0013618864 0)
(-0.042315503 0.0013250113 0)
(-0.043186936 0.0012873293 0)
(-0.044032967 0.001248861 0)
(-0.044853079 0.0012096272 0)
(-0.045646769 0.0011696495 0)
(-0.046413548 0.0011289498 0)
(-0.04715294 0.0010875505 0)
(-0.047864488 0.0010454746 0)
(-0.048547747 0.0010027454 0)
(-0.049202289 0.00095938673 0)
(-0.049827704 0.00091542287 0)
(-0.050423594 0.0008708785 0)
(-0.050989581 0.00082577875 0)
(-0.051525304 0.00078014915 0)
(-0.052030416 0.00073401563 0)
(-0.052504592 0.0006874045 0)
(-0.05294752 0.00064034246 0)
(-0.05335891 0.00059285657 0)
(-0.053738486 0.00054497422 0)
(-0.054085995 0.00049672316 0)
(-0.0544012 0.00044813144 0)
(-0.054683882 0.00039922743 0)
(-0.054933843 0.00035003979 0)
(-0.055150903 0.00030059744 0)
(-0.055334902 0.00025092957 0)
(-0.055485699 0.00020106561 0)
(-0.055603173 0.00015103521 0)
(-0.055687223 0.00010086816 0)
(-0.055737769 5.0594554e-05 0)
(-0.055754748 2.4490892e-07 0)
(-0.05573812 -5.0150609e-05 0)
(-0.055687866 -0.00010056158 0)
(-0.055603983 -0.00015095732 0)
(-0.055486494 -0.00020130705 0)
(-0.055335439 -0.00025157996 0)
(-0.055150879 -0.00030174517 0)
(-0.054932896 -0.00035177177 0)
(-0.054681594 -0.00040162883 0)
(-0.054397096 -0.00045128543 0)
(-0.054079545 -0.00050071064 0)
(-0.053729107 -0.00054987362 0)
(-0.053345966 -0.00059874356 0)
(-0.052930328 -0.00064728976 0)
(-0.05248242 -0.00069548162 0)
(-0.052002488 -0.00074328866 0)
(-0.051490798 -0.00079068056 0)
(-0.050947638 -0.00083762718 0)
(-0.050373315 -0.00088409858 0)
(-0.049768155 -0.00093006501 0)
(-0.049132506 -0.00097549698 0)
(-0.048466733 -0.0010203653 0)
(-0.047771223 -0.0010646409 0)
(-0.04704638 -0.0011082953 0)
(-0.046292629 -0.0011513001 0)
(-0.045510411 -0.0011936273 0)
(-0.044700189 -0.0012352494 0)
(-0.043862441 -0.0012761391 0)
(-0.042997665 -0.0013162697 0)
(-0.042106377 -0.0013556148 0)
(-0.041189109 -0.0013941485 0)
(-0.040246411 -0.0014318453 0)
(-0.039278849 -0.0014686805 0)
(-0.038287007 -0.0015046295 0)
(-0.037271484 -0.0015396685 0)
(-0.036232894 -0.0015737742 0)
(-0.035171868 -0.0016069238 0)
(-0.034089052 -0.0016390953 0)
(-0.032985104 -0.001670267 0)
(-0.031860699 -0.0017004181 0)
(-0.030716525 -0.0017295284 0)
(-0.029553283 -0.0017575782 0)
(-0.028371685 -0.0017845487 0)
(-0.02717246 -0.0018104217 0)
(-0.025956344 -0.0018351796 0)
(-0.024724087 -0.0018588059 0)
(-0.02347645 -0.0018812843 0)
(-0.022214203 -0.0019025998 0)
(-0.020938127 -0.0019227378 0)
(-0.019649013 -0.0019416846 0)
(-0.018347659 -0.0019594273 0)
(-0.017034873 -0.0019759538 0)
(-0.01571147 -0.001991253 0)
(-0.014378272 -0.0020053142 0)
(-0.013036109 -0.002018128 0)
(-0.011685816 -0.0020296855 0)
(-0.010328233 -0.0020399789 0)
(-0.0089642064 -0.0020490011 0)
(-0.0075945864 -0.002056746 0)
(-0.0062202269 -0.0020632081 0)
(-0.0048419853 -0.0020683832 0)
(-0.0034607214 -0.0020722676 0)
(-0.0020772974 -0.0020748586 0)
(-0.00069257657 -0.0020761546 0)
(0.00069257657 -0.0020761546 0)
(0.0020772974 -0.0020748586 0)
(0.0034607214 -0.0020722676 0)
(0.0048419853 -0.0020683832 0)
(0.0062202269 -0.0020632081 0)
(0.0075945864 -0.002056746 0)
(0.0089642064 -0.0020490011 0)
(0.010328233 -0.0020399789 0)
(0.011685816 -0.0020296855 0)
(0.013036109 -0.002018128 0)
(0.014378272 -0.0020053142 0)
(0.01571147 -0.001991253 0)
(0.017034873 -0.0019759538 0)
(0.018347659 -0.0019594273 0)
(0.019649013 -0.0019416846 0)
(0.020938127 -0.0019227378 0)
(0.022214203 -0.0019025998 0)
(0.02347645 -0.0018812843 0)
(0.024724087 -0.0018588059 0)
(0.025956344 -0.0018351796 0)
(0.02717246 -0.0018104217 0)
(0.028371685 -0.0017845487 0)
(0.029553283 -0.0017575782 0)
(0.030716525 -0.0017295284 0)
(0.031860699 -0.0017004181 0)
(0.032985104 -0.001670267 0)
(0.034089052 -0.0016390953 0)
(0.035171868 -0.0016069238 0)
(0.036232894 -0.0015737742 0)
(0.037271484 -0.0015396685 0)
(0.038287007 -0.0015046295 0)
(0.039278849 -0.0014686805 0)
(0.040246411 -0.0014318453 0)
(0.041189109 -0.0013941485 0)
(0.042106377 -0.0013556148 0)
(0.042997665 -0.0013162697 0)
(0.043862441 -0.0012761391 0)
(0.044700189 -0.0012352494 0)
(0.045510411 -0.0011936273 0)
(0.046292629 -0.0011513001 0)
(0.04704638 -0.0011082953 0)
(0.047771223 -0.0010646409 0)
(0.048466733 -0.0010203653 0)
(0.049132506 -0.00097549698 0)
(0.049768155 -0.00093006501 0)
(0.050373315 -0.00088409858 0)
(0.050947638 -0.00083762718 0)
(0.051490798 -0.00079068056 0)
(0.052002488 -0.00074328866 0)
(0.05248242 -0.00069548162 0)
(0.052930328 -0.00064728976 0)
(0.053345966 -0.00059874356 0)
(0.053729107 -0.00054987362 0)
(0.054079545 -0.00050071064 0)
(0.054397096 -0.00045128543 0)
(0.054681594 -0.00040162883 0)
(0.054932896 -0.00035177177 0)
(0.055150879 -0.00030174517 0)
(0.055335439 -0.00025157996 0)
(0.055486494 -0.00020130705 0)
(0.055603983 -0.00015095732 0)
(0.055687866 -0.00010056158 0)
(0.05573812 -5.0150609e-05 0)
(0.055754748 2.4490898e-07 0)
(0.055737769 5.0594554e-05 0)
(0.055687223 0.00010086816 0)
(0.055603173 0.00015103521 0)
(0.055485699 0.00020106561 0)
(0.055334902 0.00025092957 0)
(0.055150903 0.00030059744 0)
(0.054933843 0.00035003979 0)
(0.054683882 0.00039922743 0)
(0.0544012 0.00044813144 0)
(0.054085995 0.00049672316 0)
(0.053738486 0.00054497422 0)
(0.05335891 0.00059285657 0)
(0.05294752 0.00064034246 0)
(0.052504592 0.0006874045 0)
(0.052030416 0.00073401563 0)
(0.051525304 0.00078014915 0)
(0.050989581 0.00082577875 0)
(0.050423594 0.0008708785 0)
(0.049827704 0.00091542287 0)
(0.049202289 0.00095938673 0)
(0.048547747 0.0010027454 0)
(0.047864488 0.0010454746 0)
(0.04715294 0.0010875505 0)
(0.046413548 0.0011289498 0)
(0.045646769 0.0011696495 0)
(0.044853079 0.0012096272 0)
(0.044032967 0.001248861 0)
(0.043186936 0.0012873293 0)
(0.042315503 0.0013250113 0)
(0.0414192 0.0013618864 0)
(0.040498573 0.0013979348 0)
(0.039554178 0.0014331369 0)
(0.038586588 0.0014674738 0)
(0.037596385 0.0015009272 0)
(0.036584165 0.0015334792 0)
(0.035550535 0.0015651125 0)
(0.034496113 0.0015958104 0)
(0.03342153 0.0016255565 0)
(0.032327425 0.0016543353 0)
(0.031214448 0.0016821316 0)
(0.03008326 0.0017089309 0)
(0.028934531 0.0017347192 0)
(0.027768939 0.001759483 0)
(0.026587173 0.0017832096 0)
(0.025389929 0.0018058865 0)
(0.02417791 0.0018275022 0)
(0.022951829 0.0018480455 0)
(0.021712404 0.0018675058 0)
(0.020460361 0.0018858731 0)
(0.019196432 0.0019031381 0)
(0.017921357 0.0019192919 0)
(0.016635878 0.0019343263 0)
(0.015340745 0.0019482337 0)
(0.014036713 0.001961007 0)
(0.01272454 0.0019726397 0)
(0.011404989 0.0019831259 0)
(0.010078827 0.0019924604 0)
(0.0087468227 0.0020006383 0)
(0.0074097503 0.0020076557 0)
(0.0060683849 0.0020135089 0)
(0.004723504 0.0020181949 0)
(0.0033758869 0.0020217116 0)
(0.0020263146 0.002024057 0)
(0.00067556861 0.00202523 0)
(-0.00067626462 0.0033767439 0)
(-0.0020284022 0.0033747882 0)
(-0.0033793651 0.0033708777 0)
(-0.0047283706 0.0033650144 0)
(-0.0060746374 0.0033572012 0)
(-0.0074173852 0.0033474422 0)
(-0.0087558357 0.0033357421 0)
(-0.010089213 0.003322107 0)
(-0.011416742 0.0033065436 0)
(-0.012737654 0.0032890599 0)
(-0.014051181 0.0032696647 0)
(-0.015356558 0.0032483677 0)
(-0.016653027 0.0032251798 0)
(-0.017939833 0.0032001128 0)
(-0.019216225 0.0031731795 0)
(-0.020481459 0.0031443934 0)
(-0.021734796 0.0031137694 0)
(-0.022975502 0.0030813231 0)
(-0.024202852 0.0030470712 0)
(-0.025416124 0.0030110311 0)
(-0.026614608 0.0029732216 0)
(-0.027797598 0.0029336621 0)
(-0.028964397 0.0028923731 0)
(-0.030114317 0.002849376 0)
(-0.031246678 0.0028046932 0)
(-0.032360809 0.002758348 0)
(-0.033456051 0.0027103647 0)
(-0.034531751 0.0026607685 0)
(-0.035587268 0.0026095855 0)
(-0.036621974 0.0025568428 0)
(-0.037635248 0.0025025682 0)
(-0.038626482 0.0024467907 0)
(-0.039595081 0.0023895401 0)
(-0.040540461 0.0023308469 0)
(-0.04146205 0.0022707428 0)
(-0.042359289 0.00220926 0)
(-0.043231634 0.002146432 0)
(-0.044078551 0.0020822928 0)
(-0.044899523 0.0020168774 0)
(-0.045694046 0.0019502215 0)
(-0.046461629 0.0018823618 0)
(-0.0472018 0.0018133357 0)
(-0.047914096 0.0017431813 0)
(-0.048598076 0.0016719376 0)
(-0.049253309 0.0015996444 0)
(-0.049879385 0.0015263421 0)
(-0.050475906 0.0014520718 0)
(-0.051042494 0.0013768755 0)
(-0.051578786 0.0013007957 0)
(-0.052084436 0.0012238756 0)
(-0.052559118 0.0011461592 0)
(-0.05300252 0.0010676909 0)
(-0.053414351 0.00098851586 0)
(-0.053794337 0.00090867974 0)
(-0.054142221 0.00082822881 0)
(-0.054457768 0.00074720984 0)
(-0.054740759 0.00066567012 0)
(-0.054990994 0.00058365744 0)
(-0.055208295 0.00050122003 0)
(-0.0553925 0.00041840655 0)
(-0.055543469 0.00033526607 0)
(-0.05566108 0.00025184802 0)
(-0.055745233 0.00016820219 0)
(-0.055795846 8.4378715e-05 0)
(-0.055812858 4.2817455e-07 0)
(-0.055796228 -8.3598932e-05 0)
(-0.055745935 -0.00016765176 0)
(-0.05566198 -0.00025167919 0)
(-0.055544383 -0.00033562997 0)
(-0.055393184 -0.0004194527 0)
(-0.055208446 -0.00050309592 0)
(-0.05499025 -0.00058650806 0)
(-0.0547387 -0.00066963756 0)
(-0.054453918 -0.00075243285 0)
(-0.054136049 -0.0008348424 0)
(-0.053785258 -0.00091681474 0)
(-0.05340173 -0.00099829853 0)
(-0.052985671 -0.0010792426 0)
(-0.052537307 -0.0011595958 0)
(-0.052056885 -0.0012393075 0)
(-0.051544673 -0.001318327 0)
(-0.051000956 -0.0013966041 0)
(-0.050426044 -0.0014740889 0)
(-0.049820262 -0.0015507317 0)
(-0.049183958 -0.0016264835 0)
(-0.048517499 -0.0017012954 0)
(-0.047821271 -0.0017751192 0)
(-0.047095679 -0.0018479071 0)
(-0.046341148 -0.0019196119 0)
(-0.04555812 -0.0019901871 0)
(-0.044747057 -0.0020595865 0)
(-0.04390844 -0.0021277649 0)
(-0.043042766 -0.0021946775 0)
(-0.042150551 -0.0022602804 0)
(-0.041232328 -0.0023245304 0)
(-0.040288648 -0.0023873852 0)
(-0.039320078 -0.0024488032 0)
(-0.038327202 -0.0025087437 0)
(-0.037310619 -0.0025671669 0)
(-0.036270945 -0.0026240339 0)
(-0.03520881 -0.0026793068 0)
(-0.034124862 -0.0027329488 0)
(-0.033019759 -0.0027849238 0)
(-0.031894178 -0.0028351971 0)
(-0.030748806 -0.002883735 0)
(-0.029584345 -0.0029305047 0)
(-0.02840151 -0.0029754747 0)
(-0.027201027 -0.0030186148 0)
(-0.025983636 -0.0030598958 0)
(-0.024750086 -0.0030992897 0)
(-0.023501139 -0.0031367699 0)
(-0.022237567 -0.0031723109 0)
(-0.020960152 -0.0032058886 0)
(-0.019669683 -0.0032374802 0)
(-0.018366962 -0.0032670641 0)
(-0.017052796 -0.0032946202 0)
(-0.015728002 -0.0033201297 0)
(-0.014393402 -0.0033435752 0)
(-0.013049828 -0.0033649407 0)
(-0.011698114 -0.0033842116 0)
(-0.010339103 -0.0034013746 0)
(-0.0089736412 -0.0034164181 0)
(-0.00760258 -0.0034293317 0)
(-0.0062267741 -0.0034401066 0)
(-0.0048470819 -0.0034487354 0)
(-0.0034643642 -0.0034552122 0)
(-0.002079484 -0.0034595325 0)
(-0.0006933056 -0.0034616934 0)
(0.0006933056 -0.0034616934 0)
(0.002079484 -0.0034595325 0)
(0.0034643642 -0.0034552122 0)
(0.0048470819 -0.0034487354 0)
(0.0062267741 -0.0034401066 0)
(0.00760258 -0.0034293317 0)
(0.0089736412 -0.0034164181 0)
(0.010339103 -0.0034013746 0)
(0.011698114 -0.0033842116 0)
(0.013049828 -0.0033649407 0)
(0.014393402 -0.0033435752 0)
(0.015728002 -0.0033201297 0)
(0.017052796 -0.0032946202 0)
(0.018366962 -0.0032670641 0)
(0.019669683 -0.0032374802 0)
(0.020960152 -0.0032058886 0)
(0.022237567 -0.0031723109 0)
(0.023501139 -0.0031367699 0)
(0.024750086 -0.0030992897 0)
(0.025983636 -0.0030598958 0)
(0.027201027 -0.0030186148 0)
(0.02840151 -0.0029754747 0)
(0.029584345 -0.0029305047 0)
(0.030748806 -0.002883735 0)
(0.031894178 -0.0028351971 0)
(0.033019759 -0.0027849238 0)
(0.034124862 -0.0027329488 0)
(0.03520881 -0.0026793068 0)
(0.036270945 -0.0026240339 0)
(0.037310619 -0.0025671669 0)
(0.038327202 -0.0025087437 0)
(0.039320078 -0.0024488032 0)
(0.040288648 -0.0023873852 0)
(0.041232328 -0.0023245304 0)
(0.042150551 -0.0022602804 0)
(0.043042766 -0.0021946775 0)
(0.04390844 -0.0021277649 0)
(0.044747057 -0.0020595865 0)
(0.04555812 -0.0019901871 0)
(0.046341148 -0.0019196119 0)
(0.047095679 -0.0018479071 0)
(0.047821271 -0.0017751192 0)
(0.048517499 -0.0017012954 0)
(0.049183958 -0.0016264835 0)
(0.049820262 -0.0015507317 0)
(0.050426044 -0.0014740889 0)
(0.051000956 -0.0013966041 0)
(0.051544673 -0.001318327 0)
(0.052056885 -0.0012393075 0)
(0.052537307 -0.0011595958 0)
(0.052985671 -0.0010792426 0)
(0.05340173 -0.00099829853 0)
(0.053785258 -0.00091681474 0)
(0.054136049 -0.0008348424 0)
(0.054453918 -0.00075243285 0)
(0.0547387 -0.00066963756 0)
(0.05499025 -0.00058650806 0)
(0.055208446 -0.00050309592 0)
(0.055393184 -0.0004194527 0)
(0.055544383 -0.00033562997 0)
(0.05566198 -0.00025167919 0)
(0.055745935 -0.00016765176 0)
(0.055796228 -8.3598932e-05 0)
(0.055812858 4.2817464e-07 0)
(0.055795846 8.4378715e-05 0)
(0.055745233 0.00016820219 0)
(0.05566108 0.00025184802 0)
(0.055543469 0.00033526607 0)
(0.0553925 0.00041840655 0)
(0.055208295 0.00050122003 0)
(0.054990994 0.00058365744 0)
(0.054740759 0.00066567012 0)
(0.054457768 0.00074720984 0)
(0.054142221 0.00082822881 0)
(0.053794337 0.00090867974 0)
(0.053414351 0.00098851586 0)
(0.05300252 0.0010676909 0)
(0.052559118 0.0011461592 0)
(0.052084436 0.0012238756 0)
(0.051578786 0.0013007957 0)
(0.051042494 0.0013768755 0)
(0.050475906 0.0014520718 0)
(0.049879385 0.0015263421 0)
(0.049253309 0.0015996444 0)
(0.048598076 0.0016719376 0)
(0.047914096 0.0017431813 0)
(0.0472018 0.0018133357 0)
(0.046461629 0.0018823618 0)
(0.045694046 0.0019502215 0)
(0.044899523 0.0020168774 0)
(0.044078551 0.0020822928 0)
(0.043231634 0.002146432 0)
(0.042359289 0.00220926 0)
(0.04146205 0.0022707428 0)
(0.040540461 0.0023308469 0)
(0.039595081 0.0023895401 0)
(0.038626482 0.0024467907 0)
(0.037635248 0.0025025682 0)
(0.036621974 0.0025568428 0)
(0.035587268 0.0026095855 0)
(0.034531751 0.0026607685 0)
(0.033456051 0.0027103647 0)
(0.032360809 0.002758348 0)
(0.031246678 0.0028046932 0)
(0.030114317 0.002849376 0)
(0.028964397 0.0028923731 0)
(0.027797598 0.0029336621 0)
(0.026614608 0.0029732216 0)
(0.025416124 0.0030110311 0)
(0.024202852 0.0030470712 0)
(0.022975502 0.0030813231 0)
(0.021734796 0.0031137694 0)
(0.020481459 0.0031443934 0)
(0.019216225 0.0031731795 0)
(0.017939833 0.0032001128 0)
(0.016653027 0.0032251798 0)
(0.015356558 0.0032483677 0)
(0.014051181 0.0032696647 0)
(0.012737654 0.0032890599 0)
(0.011416742 0.0033065436 0)
(0.010089213 0.003322107 0)
(0.0087558357 0.0033357421 0)
(0.0074173852 0.0033474422 0)
(0.0060746374 0.0033572012 0)
(0.0047283706 0.0033650144 0)
(0.0033793651 0.0033708777 0)
(0.0020284022 0.0033747882 0)
(0.00067626462 0.0033767439 0)
(-0.00067721228 0.0047299046 0)
(-0.0020312447 0.0047271652 0)
(-0.0033841007 0.0047216878 0)
(-0.0047349968 0.0047134751 0)
(-0.0060831504 0.0047025312 0)
(-0.0074277803 0.0046888617 0)
(-0.0087681069 0.0046724735 0)
(-0.010103353 0.0046533747 0)
(-0.011432744 0.0046315751 0)
(-0.012755508 0.0046070856 0)
(-0.014070877 0.0045799187 0)
(-0.015378086 0.004550088 0)
(-0.016676374 0.0045176087 0)
(-0.017964986 0.0044824973 0)
(-0.01924317 0.0044447717 0)
(-0.02051018 0.004404451 0)
(-0.021765277 0.0043615558 0)
(-0.023007726 0.0043161082 0)
(-0.024236801 0.0042681313 0)
(-0.025451779 0.0042176498 0)
(-0.026651948 0.0041646898 0)
(-0.027836602 0.0041092785 0)
(-0.029005043 0.0040514447 0)
(-0.030156581 0.0039912184 0)
(-0.031290537 0.0039286308 0)
(-0.032406239 0.0038637148 0)
(-0.033503024 0.0037965041 0)
(-0.034580241 0.0037270342 0)
(-0.035637248 0.0036553417 0)
(-0.036673414 0.0035814643 0)
(-0.037688119 0.0035054413 0)
(-0.038680754 0.003427313 0)
(-0.039650723 0.0033471212 0)
(-0.04059744 0.0032649089 0)
(-0.041520334 0.0031807201 0)
(-0.042418844 0.0030946003 0)
(-0.043292425 0.003006596 0)
(-0.044140544 0.0029167551 0)
(-0.044962681 0.0028251265 0)
(-0.045758333 0.0027317603 0)
(-0.046527008 0.0026367079 0)
(-0.047268231 0.0025400216 0)
(-0.047981542 0.0024417548 0)
(-0.048666497 0.0023419623 0)
(-0.049322665 0.0022406995 0)
(-0.049949635 0.0021380231 0)
(-0.05054701 0.0020339909 0)
(-0.051114409 0.0019286615 0)
(-0.05165147 0.0018220945 0)
(-0.052157847 0.0017143505 0)
(-0.052633211 0.0016054909 0)
(-0.053077253 0.0014955782 0)
(-0.053489678 0.0013846753 0)
(-0.053870214 0.0012728464 0)
(-0.054218604 0.0011601563 0)
(-0.05453461 0.0010466704 0)
(-0.054818015 0.0009324551 0)
(-0.055068618 0.00081757718 0)
(-0.05528624 0.00070210427 0)
(-0.05547072 0.00058610452 0)
(-0.055621917 0.00046964667 0)
(-0.055739709 0.00035279997 0)
(-0.055823995 0.00023563418 0)
(-0.055874694 0.00011821953 0)
(-0.055891745 6.266822e-07 0)
(-0.055875106 -0.00011707346 0)
(-0.055824757 -0.00023480965 0)
(-0.055740698 -0.00035251032 0)
(-0.055622948 -0.00047010367 0)
(-0.05547155 -0.00058751772 0)
(-0.055286564 -0.00070468037 0)
(-0.055068074 -0.00082151941 0)
(-0.054816181 -0.0009379626 0)
(-0.05453101 -0.0010539377 0)
(-0.054212704 -0.0011693725 0)
(-0.05386143 -0.001284195 0)
(-0.053477371 -0.0013983332 0)
(-0.053060736 -0.0015117154 0)
(-0.052611749 -0.0016242701 0)
(-0.052130659 -0.0017359261 0)
(-0.051617732 -0.0018466127 0)
(-0.051073257 -0.0019562594 0)
(-0.050497541 -0.0020647962 0)
(-0.049890911 -0.0021721538 0)
(-0.049253716 -0.0022782632 0)
(-0.048586323 -0.0023830562 0)
(-0.047889117 -0.0024864652 0)
(-0.047162506 -0.0025884232 0)
(-0.046406913 -0.0026888641 0)
(-0.045622784 -0.0027877226 0)
(-0.044810579 -0.0028849342 0)
(-0.043970779 -0.0029804355 0)
(-0.043103885 -0.0030741638 0)
(-0.042210411 -0.0031660575 0)
(-0.041290892 -0.0032560563 0)
(-0.040345879 -0.0033441007 0)
(-0.03937594 -0.0034301325 0)
(-0.03838166 -0.0035140947 0)
(-0.037363639 -0.0035959316 0)
(-0.036322493 -0.0036755886 0)
(-0.035258855 -0.0037530128 0)
(-0.034173371 -0.0038281523 0)
(-0.033066703 -0.003900957 0)
(-0.031939526 -0.0039713779 0)
(-0.03079253 -0.0040393679 0)
(-0.029626417 -0.0041048812 0)
(-0.028441903 -0.0041678736 0)
(-0.027239716 -0.0042283027 0)
(-0.026020597 -0.0042861276 0)
(-0.024785295 -0.0043413093 0)
(-0.023534574 -0.0043938102 0)
(-0.022269207 -0.0044435948 0)
(-0.020989976 -0.0044906293 0)
(-0.019697673 -0.0045348816 0)
(-0.0183931 -0.0045763218 0)
(-0.017077065 -0.0046149215 0)
(-0.015750386 -0.0046506543 0)
(-0.014413889 -0.004683496 0)
(-0.013068402 -0.0047134241 0)
(-0.011714765 -0.0047404181 0)
(-0.01035382 -0.0047644595 0)
(-0.0089864153 -0.0047855319 0)
(-0.0076134026 -0.0048036209 0)
(-0.0062356385 -0.004818714 0)
(-0.0048539823 -0.0048308009 0)
(-0.0034692962 -0.0048398734 0)
(-0.0020824444 -0.0048459252 0)
(-0.00069429262 -0.0048489521 0)
(0.00069429262 -0.0048489521 0)
(0.0020824444 -0.0048459252 0)
(0.0034692962 -0.0048398734 0)
(0.0048539823 -0.0048308009 0)
(0.0062356385 -0.004818714 0)
(0.0076134026 -0.0048036209 0)
(0.0089864153 -0.0047855319 0)
(0.01035382 -0.0047644595 0)
(0.011714765 -0.0047404181 0)
(0.013068402 -0.0047134241 0)
(0.014413889 -0.004683496 0)
(0.015750386 -0.0046506543 0)
(0.017077065 -0.0046149215 0)
(0.0183931 -0.0045763218 0)
(0.019697673 -0.0045348816 0)
(0.020989976 -0.0044906293 0)
(0.022269207 -0.0044435948 0)
(0.023534574 -0.0043938102 0)
(0.024785295 -0.0043413093 0)
(0.026020597 -0.0042861276 0)
(0.027239716 -0.0042283027 0)
(0.028441903 -0.0041678736 0)
(0.029626417 -0.0041048812 0)
(0.03079253 -0.0040393679 0)
(0.031939526 -0.0039713779 0)
(0.033066703 -0.003900957 0)
(0.034173371 -0.0038281523 0)
(0.035258855 -0.0037530128 0)
(0.036322493 -0.0036755886 0)
(0.037363639 -0.0035959316 0)
(0.03838166 -0.0035140947 0)
(0.03937594 -0.0034301325 0)
(0.040345879 -0.0033441007 0)
(0.041290892 -0.0032560563 0)
(0.042210411 -0.0031660575 0)
(0.043103885 -0.0030741638 0)
(0.043970779 -0.0029804355 0)
(0.044810579 -0.0028849342 0)
(0.045622784 -0.0027877226 0)
(0.046406913 -0.0026888641 0)
(0.047162506 -0.0025884232 0)
(0.047889117 -0.0024864652 0)
(0.048586323 -0.0023830562 0)
(0.049253716 -0.0022782632 0)
(0.049890911 -0.0021721538 0)
(0.050497541 -0.0020647962 0)
(0.051073257 -0.0019562594 0)
(0.051617732 -0.0018466127 0)
(0.052130659 -0.0017359261 0)
(0.052611749 -0.0016242701 0)
(0.053060736 -0.0015117154 0)
(0.053477371 -0.0013983332 0)
(0.05386143 -0.001284195 0)
(0.054212704 -0.0011693725 0)
(0.05453101 -0.0010539377 0)
(0.054816181 -0.0009379626 0)
(0.055068074 -0.00082151941 0)
(0.055286564 -0.00070468037 0)
(0.05547155 -0.00058751772 0)
(0.055622948 -0.00047010367 0)
(0.055740698 -0.00035251032 0)