/*--------------------------------*- C++ -*----------------------------------*\
| =========                 |                                                 |
| \\      /  F ield         | OpenFOAM: The Open Source CFD Toolbox           |
|  \\    /   O peration     | Version:  2106                                  |
|   \\  /    A nd           | Website:  www.openfoam.com                      |
|    \\/     M anipulation  |                                                 |
\*---------------------------------------------------------------------------*/
FoamFile
{
    version     2.0;
    format      ascii;
    arch        "LSB;label=32;scalar=64";
    class       volVectorField;
    location    "0.037";
    object      U_0;
}
// * * * * * * * * * * * * * * * * * * * * * * * * * * * * * * * * * * * * * //

dimensions      [0 1 -1 0 0 0 0];

internalField   nonuniform List<vector> 
65536
(
(-0.00067498843 0.00067482431 0)
(-0.0020245743 0.00067443346 0)
(-0.0033729876 0.00067365195 0)
(-0.0047194472 0.00067248018 0)
(-0.006063173 0.00067091874 0)
(-0.0074033862 0.00066896841 0)
(-0.0087393099 0.00066663017 0)
(-0.010070169 0.0006639052 0)
(-0.011395192 0.00066079489 0)
(-0.012713609 0.00065730079 0)
(-0.014024654 0.00065342468 0)
(-0.015327565 0.00064916852 0)
(-0.016621584 0.00064453446 0)
(-0.017905957 0.00063952487 0)
(-0.019179936 0.00063414228 0)
(-0.020442777 0.00062838944 0)
(-0.021693742 0.0006222693 0)
(-0.0229321 0.00061578497 0)
(-0.024157125 0.00060893978 0)
(-0.0253681 0.00060173726 0)
(-0.026564312 0.0005941811 0)
(-0.027745059 0.00058627522 0)
(-0.028909645 0.00057802371 0)
(-0.030057383 0.00056943084 0)
(-0.031187594 0.00056050109 0)
(-0.03229961 0.00055123913 0)
(-0.03339277 0.0005416498 0)
(-0.034466424 0.00053173814 0)
(-0.035519934 0.00052150936 0)
(-0.036552669 0.00051096888 0)
(-0.037564013 0.00050012227 0)
(-0.038553358 0.00048897532 0)
(-0.039520109 0.00047753396 0)
(-0.040463684 0.00046580433 0)
(-0.041383513 0.00045379272 0)
(-0.042279037 0.00044150562 0)
(-0.043149712 0.00042894967 0)
(-0.043995008 0.00041613169 0)
(-0.044814406 0.00040305867 0)
(-0.045607405 0.00038973776 0)
(-0.046373514 0.00037617627 0)
(-0.047112261 0.00036238169 0)
(-0.047823187 0.00034836164 0)
(-0.048505849 0.00033412391 0)
(-0.049159819 0.00031967644 0)
(-0.049784685 0.0003050273 0)
(-0.050380052 0.00029018474 0)
(-0.050945542 0.00027515712 0)
(-0.051480793 0.00025995295 0)
(-0.05198546 0.00024458086 0)
(-0.052459217 0.00022904964 0)
(-0.052901753 0.00021336816 0)
(-0.053312778 0.00019754545 0)
(-0.053692017 0.00018159064 0)
(-0.054039216 0.00016551297 0)
(-0.054354138 0.00014932179 0)
(-0.054636566 0.00013302655 0)
(-0.054886301 0.0001166368 0)
(-0.055103163 0.00010016217 0)
(-0.055286993 8.3612405e-05 0)
(-0.05543765 6.6997299e-05 0)
(-0.055555012 5.0326721e-05 0)
(-0.05563898 3.3610528e-05 0)
(-0.055689472 1.6858771e-05 0)
(-0.055706426 8.2296155e-08 0)
(-0.055689804 -1.6710137e-05 0)
(-0.055639583 -3.3507551e-05 0)
(-0.055555764 -5.0299867e-05 0)
(-0.055438367 -6.7076853e-05 0)
(-0.055287433 -8.3828239e-05 0)
(-0.055103024 -0.00010054374 0)
(-0.054885221 -0.00011721306 0)
(-0.054634128 -0.00013382588 0)
(-0.054349868 -0.00015037191 0)
(-0.054032584 -0.00016684084 0)
(-0.053682441 -0.0001832224 0)
(-0.053299624 -0.00019950631 0)
(-0.052884339 -0.00021568235 0)
(-0.052436811 -0.00023174032 0)
(-0.051957288 -0.00024767007 0)
(-0.051446035 -0.00026346149 0)
(-0.050903339 -0.00027910454 0)
(-0.050329508 -0.00029458924 0)
(-0.049724867 -0.00030990569 0)
(-0.049089763 -0.00032504404 0)
(-0.048424563 -0.00033999458 0)
(-0.047729651 -0.00035474764 0)
(-0.047005432 -0.00036929369 0)
(-0.04625233 -0.00038362329 0)
(-0.045470787 -0.00039772712 0)
(-0.044661264 -0.00041159599 0)
(-0.04382424 -0.00042522083 0)
(-0.042960212 -0.00043859272 0)
(-0.042069695 -0.00045170288 0)
(-0.041153221 -0.00046454267 0)
(-0.040211339 -0.00047710363 0)
(-0.039244616 -0.00048937746 0)
(-0.038253634 -0.00050135601 0)
(-0.037238991 -0.00051303134 0)
(-0.036201303 -0.00052439568 0)
(-0.035141199 -0.00053544146 0)
(-0.034059323 -0.00054616129 0)
(-0.032956335 -0.00055654801 0)
(-0.031832907 -0.00056659465 0)
(-0.030689729 -0.00057629447 0)
(-0.029527498 -0.00058564095 0)
(-0.028346929 -0.00059462778 0)
(-0.027148748 -0.0006032489 0)
(-0.025933691 -0.0006114985 0)
(-0.024702508 -0.00061937099 0)
(-0.023455958 -0.00062686103 0)
(-0.022194811 -0.00063396355 0)
(-0.020919848 -0.00064067372 0)
(-0.019631858 -0.00064698697 0)
(-0.018331639 -0.00065289902 0)
(-0.017019999 -0.00065840583 0)
(-0.01569775 -0.00066350365 0)
(-0.014365716 -0.000668189 0)
(-0.013024725 -0.00067245867 0)
(-0.01167561 -0.00067630976 0)
(-0.010319212 -0.00067973962 0)
(-0.008956377 -0.0006827459 0)
(-0.007587953 -0.00068532655 0)
(-0.0062147939 -0.00068747981 0)
(-0.004837756 -0.00068920418 0)
(-0.0034576986 -0.0006904985 0)
(-0.0020754829 -0.00069136187 0)
(-0.00069197161 -0.00069179371 0)
(0.00069197161 -0.00069179371 0)
(0.0020754829 -0.00069136187 0)
(0.0034576986 -0.0006904985 0)
(0.004837756 -0.00068920418 0)
(0.0062147939 -0.00068747981 0)
(0.007587953 -0.00068532655 0)
(0.008956377 -0.0006827459 0)
(0.010319212 -0.00067973962 0)
(0.01167561 -0.00067630976 0)
(0.013024725 -0.00067245867 0)
(0.014365716 -0.000668189 0)
(0.01569775 -0.00066350365 0)
(0.017019999 -0.00065840583 0)
(0.018331639 -0.00065289902 0)
(0.019631858 -0.00064698697 0)
(0.020919848 -0.00064067372 0)
(0.022194811 -0.00063396355 0)
(0.023455958 -0.00062686103 0)
(0.024702508 -0.00061937099 0)
(0.025933691 -0.0006114985 0)
(0.027148748 -0.0006032489 0)
(0.028346929 -0.00059462778 0)
(0.029527498 -0.00058564095 0)
(0.030689729 -0.00057629447 0)
(0.031832907 -0.00056659465 0)
(0.032956335 -0.00055654801 0)
(0.034059323 -0.00054616129 0)
(0.035141199 -0.00053544146 0)
(0.036201303 -0.00052439568 0)
(0.037238991 -0.00051303134 0)
(0.038253634 -0.00050135601 0)
(0.039244616 -0.00048937746 0)
(0.040211339 -0.00047710363 0)
(0.041153221 -0.00046454267 0)
(0.042069695 -0.00045170288 0)
(0.042960212 -0.00043859272 0)
(0.04382424 -0.00042522083 0)
(0.044661264 -0.00041159599 0)
(0.045470787 -0.00039772712 0)
(0.04625233 -0.00038362329 0)
(0.047005432 -0.00036929369 0)
(0.047729651 -0.00035474764 0)
(0.048424563 -0.00033999458 0)
(0.049089763 -0.00032504404 0)
(0.049724867 -0.00030990569 0)
(0.050329508 -0.00029458924 0)
(0.050903339 -0.00027910454 0)
(0.051446035 -0.00026346149 0)
(0.051957288 -0.00024767007 0)
(0.052436811 -0.00023174032 0)
(0.052884339 -0.00021568235 0)
(0.053299624 -0.00019950631 0)
(0.053682441 -0.0001832224 0)
(0.054032584 -0.00016684084 0)
(0.054349868 -0.00015037191 0)
(0.054634128 -0.00013382588 0)
(0.054885221 -0.00011721306 0)
(0.055103024 -0.00010054374 0)
(0.055287433 -8.3828239e-05 0)
(0.055438367 -6.7076852e-05 0)
(0.055555764 -5.0299867e-05 0)
(0.055639583 -3.3507551e-05 0)
(0.055689804 -1.6710136e-05 0)
(0.055706426 8.2296256e-08 0)
(0.055689472 1.6858772e-05 0)
(0.05563898 3.3610528e-05 0)
(0.055555012 5.0326721e-05 0)
(0.05543765 6.6997299e-05 0)
(0.055286993 8.3612405e-05 0)
(0.055103163 0.00010016217 0)
(0.054886301 0.0001166368 0)
(0.054636566 0.00013302655 0)
(0.054354138 0.00014932179 0)
(0.054039216 0.00016551297 0)
(0.053692017 0.00018159064 0)
(0.053312778 0.00019754545 0)
(0.052901753 0.00021336816 0)
(0.052459217 0.00022904964 0)
(0.05198546 0.00024458086 0)
(0.051480793 0.00025995295 0)
(0.050945542 0.00027515712 0)
(0.050380052 0.00029018474 0)
(0.049784685 0.0003050273 0)
(0.049159819 0.00031967644 0)
(0.048505849 0.00033412391 0)
(0.047823187 0.00034836164 0)
(0.047112261 0.00036238169 0)
(0.046373514 0.00037617627 0)
(0.045607405 0.00038973776 0)
(0.044814406 0.00040305867 0)
(0.043995008 0.00041613169 0)
(0.043149712 0.00042894967 0)
(0.042279037 0.00044150562 0)
(0.041383513 0.00045379272 0)
(0.040463684 0.00046580433 0)
(0.039520109 0.00047753396 0)
(0.038553358 0.00048897532 0)
(0.037564013 0.00050012227 0)
(0.036552669 0.00051096888 0)
(0.035519934 0.00052150936 0)
(0.034466424 0.00053173814 0)
(0.03339277 0.0005416498 0)
(0.03229961 0.00055123913 0)
(0.031187594 0.00056050109 0)
(0.030057383 0.00056943084 0)
(0.028909645 0.00057802371 0)
(0.027745059 0.00058627522 0)
(0.026564312 0.0005941811 0)
(0.0253681 0.00060173725 0)
(0.024157125 0.00060893978 0)
(0.0229321 0.00061578497 0)
(0.021693742 0.0006222693 0)
(0.020442777 0.00062838944 0)
(0.019179936 0.00063414228 0)
(0.017905957 0.00063952487 0)
(0.016621584 0.00064453446 0)
(0.015327565 0.00064916852 0)
(0.014024654 0.00065342468 0)
(0.012713609 0.00065730079 0)
(0.011395192 0.00066079489 0)
(0.010070169 0.0006639052 0)
(0.0087393099 0.00066663017 0)
(0.0074033862 0.00066896841 0)
(0.006063173 0.00067091874 0)
(0.0047194472 0.00067248018 0)
(0.0033729876 0.00067365195 0)
(0.0020245743 0.00067443346 0)
(0.00067498842 0.00067482432 0)
(-0.00067543357 0.0020248253 0)
(-0.0020259095 0.0020236525 0)
(-0.0033752122 0.0020213076 0)
(-0.0047225599 0.0020177917 0)
(-0.0060671721 0.0020131066 0)
(-0.0074082695 0.0020072547 0)
(-0.0087450748 0.0020002388 0)
(-0.010076813 0.0019920626 0)
(-0.01140271 0.0019827301 0)
(-0.012721998 0.0019722461 0)
(-0.014033909 0.0019606159 0)
(-0.015337681 0.0019478453 0)
(-0.016632556 0.0019339409 0)
(-0.017917778 0.0019189096 0)
(-0.0191926 0.0019027592 0)
(-0.020456277 0.0018854979 0)
(-0.021708071 0.0018671344 0)
(-0.022947249 0.0018476783 0)
(-0.024173087 0.0018271393 0)
(-0.025384865 0.0018055282 0)
(-0.026581872 0.001782856 0)
(-0.027763404 0.0017591344 0)
(-0.028928765 0.0017343758 0)
(-0.030077266 0.0017085929 0)
(-0.031208231 0.0016817993 0)
(-0.032320988 0.0016540088 0)
(-0.033414877 0.001625236 0)
(-0.034489249 0.0015954961 0)
(-0.035543463 0.0015648046 0)
(-0.036576889 0.0015331779 0)
(-0.037588911 0.0015006326 0)
(-0.038578919 0.0014671862 0)
(-0.03954632 0.0014328563 0)
(-0.040490529 0.0013976615 0)
(-0.041410977 0.0013616206 0)
(-0.042307105 0.0013247531 0)
(-0.043178368 0.0012870789 0)
(-0.044024235 0.0012486185 0)
(-0.044844188 0.0012093927 0)
(-0.045637725 0.0011694232 0)
(-0.046404355 0.0011287319 0)
(-0.047143605 0.0010873411 0)
(-0.047855015 0.0010452737 0)
(-0.048538143 0.0010025532 0)
(-0.049192561 0.00095920339 0)
(-0.049817855 0.00091524845 0)
(-0.050413632 0.0008707131 0)
(-0.050979512 0.00082562247 0)
(-0.051515134 0.00078000208 0)
(-0.052020151 0.00073387785 0)
(-0.052494238 0.0006872761 0)
(-0.052937084 0.00064022351 0)
(-0.053348397 0.00059274713 0)
(-0.053727904 0.00054487435 0)
(-0.05407535 0.00049663292 0)
(-0.054390497 0.00044805089 0)
(-0.054673129 0.0003991566 0)
(-0.054923045 0.00034997872 0)
(-0.055140068 0.00030054616 0)
(-0.055324036 0.00025088812 0)
(-0.055474808 0.000201034 0)
(-0.055592265 0.00015101345 0)
(-0.055676304 0.00010085626 0)
(-0.055726845 5.059252e-05 0)
(-0.055743826 2.5273426e-07 0)
(-0.055727207 -5.0132934e-05 0)
(-0.055676967 -0.00010053407 0)
(-0.055593107 -0.00015092 0)
(-0.055475645 -0.00020125994 0)
(-0.055324625 -0.0002515231 0)
(-0.055140106 -0.0003016786 0)
(-0.054922171 -0.00035169554 0)
(-0.054670923 -0.00040154299 0)
(-0.054386486 -0.00045119002 0)
(-0.054069002 -0.00050060573 0)
(-0.053718636 -0.00054975928 0)
(-0.053335575 -0.00059861987 0)
(-0.052920023 -0.00064715679 0)
(-0.052472206 -0.00069533945 0)
(-0.051992372 -0.00074313739 0)
(-0.051480786 -0.00079052028 0)
(-0.050937736 -0.000837458 0)
(-0.050363529 -0.00088392058 0)
(-0.049758491 -0.00092987832 0)
(-0.049122969 -0.00097530171 0)
(-0.04845733 -0.0010201615 0)
(-0.047761958 -0.0010644289 0)
(-0.04703726 -0.001108075 0)
(-0.046283658 -0.0011510717 0)
(-0.045501595 -0.001193391 0)
(-0.044691533 -0.0012350053 0)
(-0.04385395 -0.0012758874 0)
(-0.042989345 -0.0013160105 0)
(-0.042098232 -0.0013553483 0)
(-0.041181144 -0.0013938748 0)
(-0.040238631 -0.0014315647 0)
(-0.039271259 -0.001468393 0)
(-0.038279611 -0.0015043353 0)
(-0.037264286 -0.0015393679 0)
(-0.036225899 -0.0015734672 0)
(-0.03516508 -0.0016066108 0)
(-0.034082475 -0.0016387763 0)
(-0.032978742 -0.0016699422 0)
(-0.031854556 -0.0017000878 0)
(-0.030710604 -0.0017291927 0)
(-0.029547587 -0.0017572374 0)
(-0.028366219 -0.001784203 0)
(-0.027167225 -0.0018100712 0)
(-0.025951345 -0.0018348246 0)
(-0.024719326 -0.0018584465 0)
(-0.02347193 -0.0018809209 0)
(-0.022209927 -0.0019022325 0)
(-0.020934098 -0.0019223668 0)
(-0.019645232 -0.0019413101 0)
(-0.018344129 -0.0019590496 0)
(-0.017031596 -0.0019755731 0)
(-0.015708448 -0.0019908695 0)
(-0.014375507 -0.0020049282 0)
(-0.013033603 -0.0020177396 0)
(-0.011683569 -0.0020292951 0)
(-0.010326247 -0.0020395866 0)
(-0.0089624833 -0.0020486072 0)
(-0.0075931266 -0.0020563506 0)
(-0.0062190314 -0.0020628116 0)
(-0.0048410547 -0.0020679857 0)
(-0.0034600564 -0.0020718694 0)
(-0.0020768982 -0.00207446 0)
(-0.00069244347 -0.0020757557 0)
(0.00069244347 -0.0020757557 0)
(0.0020768982 -0.00207446 0)
(0.0034600564 -0.0020718694 0)
(0.0048410547 -0.0020679857 0)
(0.0062190314 -0.0020628116 0)
(0.0075931266 -0.0020563506 0)
(0.0089624833 -0.0020486072 0)
(0.010326247 -0.0020395866 0)
(0.011683569 -0.0020292951 0)
(0.013033603 -0.0020177396 0)
(0.014375507 -0.0020049282 0)
(0.015708448 -0.0019908695 0)
(0.017031596 -0.0019755731 0)
(0.018344129 -0.0019590496 0)
(0.019645232 -0.0019413101 0)
(0.020934098 -0.0019223668 0)
(0.022209927 -0.0019022325 0)
(0.02347193 -0.0018809209 0)
(0.024719326 -0.0018584465 0)
(0.025951345 -0.0018348246 0)
(0.027167225 -0.0018100712 0)
(0.028366219 -0.001784203 0)
(0.029547587 -0.0017572374 0)
(0.030710604 -0.0017291927 0)
(0.031854556 -0.0017000878 0)
(0.032978742 -0.0016699422 0)
(0.034082475 -0.0016387763 0)
(0.03516508 -0.0016066108 0)
(0.036225899 -0.0015734672 0)
(0.037264286 -0.0015393679 0)
(0.038279611 -0.0015043353 0)
(0.039271259 -0.001468393 0)
(0.040238631 -0.0014315647 0)
(0.041181144 -0.0013938748 0)
(0.042098232 -0.0013553483 0)
(0.042989345 -0.0013160105 0)
(0.04385395 -0.0012758874 0)
(0.044691533 -0.0012350053 0)
(0.045501595 -0.001193391 0)
(0.046283658 -0.0011510717 0)
(0.04703726 -0.001108075 0)
(0.047761958 -0.0010644289 0)
(0.04845733 -0.0010201615 0)
(0.049122969 -0.00097530171 0)
(0.049758491 -0.00092987832 0)
(0.050363529 -0.00088392058 0)
(0.050937736 -0.00083745799 0)
(0.051480786 -0.00079052028 0)
(0.051992372 -0.00074313739 0)
(0.052472206 -0.00069533945 0)
(0.052920023 -0.00064715679 0)
(0.053335575 -0.00059861987 0)
(0.053718636 -0.00054975928 0)
(0.054069002 -0.00050060573 0)
(0.054386486 -0.00045119002 0)
(0.054670923 -0.00040154298 0)
(0.054922171 -0.00035169554 0)
(0.055140106 -0.0003016786 0)
(0.055324625 -0.0002515231 0)
(0.055475645 -0.00020125994 0)
(0.055593107 -0.00015092 0)
(0.055676967 -0.00010053407 0)
(0.055727207 -5.0132934e-05 0)
(0.055743826 2.5273432e-07 0)
(0.055726845 5.059252e-05 0)
(0.055676304 0.00010085626 0)
(0.055592265 0.00015101345 0)
(0.055474808 0.000201034 0)
(0.055324036 0.00025088812 0)
(0.055140068 0.00030054616 0)
(0.054923045 0.00034997872 0)
(0.054673129 0.0003991566 0)
(0.054390497 0.00044805089 0)
(0.05407535 0.00049663292 0)
(0.053727904 0.00054487435 0)
(0.053348397 0.00059274713 0)
(0.052937084 0.00064022351 0)
(0.052494238 0.0006872761 0)
(0.052020151 0.00073387785 0)
(0.051515134 0.00078000208 0)
(0.050979512 0.00082562247 0)
(0.050413632 0.0008707131 0)
(0.049817855 0.00091524845 0)
(0.049192561 0.00095920339 0)
(0.048538143 0.0010025532 0)
(0.047855015 0.0010452737 0)
(0.047143605 0.0010873411 0)
(0.046404355 0.0011287319 0)
(0.045637725 0.0011694232 0)
(0.044844188 0.0012093927 0)
(0.044024235 0.0012486185 0)
(0.043178368 0.0012870789 0)
(0.042307105 0.0013247531 0)
(0.041410977 0.0013616206 0)
(0.040490529 0.0013976615 0)
(0.03954632 0.0014328563 0)
(0.038578919 0.0014671862 0)
(0.037588911 0.0015006326 0)
(0.036576889 0.0015331779 0)
(0.035543463 0.0015648046 0)
(0.034489249 0.0015954961 0)
(0.033414877 0.001625236 0)
(0.032320988 0.0016540088 0)
(0.031208231 0.0016817993 0)
(0.030077266 0.0017085929 0)
(0.028928765 0.0017343758 0)
(0.027763404 0.0017591344 0)
(0.026581872 0.001782856 0)
(0.025384865 0.0018055282 0)
(0.024173087 0.0018271393 0)
(0.022947249 0.0018476783 0)
(0.021708071 0.0018671344 0)
(0.020456277 0.0018854979 0)
(0.0191926 0.0019027592 0)
(0.017917778 0.0019189096 0)
(0.016632556 0.0019339409 0)
(0.015337681 0.0019478453 0)
(0.014033909 0.0019606159 0)
(0.012721998 0.0019722461 0)
(0.01140271 0.0019827301 0)
(0.010076813 0.0019920626 0)
(0.0087450748 0.0020002388 0)
(0.0074082695 0.0020072547 0)
(0.0060671721 0.0020131066 0)
(0.0047225599 0.0020177917 0)
(0.0033752122 0.0020213076 0)
(0.0020259095 0.0020236525 0)
(0.00067543357 0.0020248253 0)
(-0.00067612939 0.003376069 0)
(-0.0020279966 0.0033741137 0)
(-0.0033786893 0.003370204 0)
(-0.0047274251 0.003364342 0)
(-0.0060734228 0.0033565305 0)
(-0.0074159022 0.0033467735 0)
(-0.0087540852 0.0033350759 0)
(-0.010087196 0.0033214437 0)
(-0.01141446 0.0033058836 0)
(-0.012735108 0.0032884036 0)
(-0.014048373 0.0032690125 0)
(-0.01535349 0.00324772 0)
(-0.0166497 0.0032245371 0)
(-0.01793625 0.0031994754 0)
(-0.019212388 0.0031725477 0)
(-0.02047737 0.0031437678 0)
(-0.021730457 0.0031131502 0)
(-0.022970916 0.0030807108 0)
(-0.024198022 0.003046466 0)
(-0.025411053 0.0030104336 0)
(-0.026609299 0.002972632 0)
(-0.027792054 0.0029330808 0)
(-0.028958622 0.0028918004 0)
(-0.030108314 0.0028488124 0)
(-0.031240451 0.0028041389 0)
(-0.032354363 0.0027578035 0)
(-0.033449388 0.0027098302 0)
(-0.034524876 0.0026602444 0)
(-0.035580185 0.002609072 0)
(-0.036614687 0.0025563403 0)
(-0.037627762 0.002502077 0)
(-0.038618802 0.0024463111 0)
(-0.039587211 0.0023890723 0)
(-0.040532406 0.0023303913 0)
(-0.041453815 0.0022702995 0)
(-0.042350879 0.0022088295 0)
(-0.043223054 0.0021460144 0)
(-0.044069806 0.0020818884 0)
(-0.044890619 0.0020164864 0)
(-0.045684988 0.0019498442 0)
(-0.046452423 0.0018819984 0)
(-0.04719245 0.0018129864 0)
(-0.04790461 0.0017428463 0)
(-0.048588458 0.0016716172 0)
(-0.049243566 0.0015993387 0)
(-0.049869522 0.0015260512 0)
(-0.05046593 0.001451796 0)
(-0.05103241 0.0013766149 0)
(-0.051568601 0.0013005504 0)
(-0.052074156 0.0012236459 0)
(-0.052548749 0.0011459451 0)
(-0.052992068 0.0010674925 0)
(-0.053403823 0.00098833336 0)
(-0.053783739 0.00090851321 0)
(-0.05413156 0.00082807834 0)
(-0.054447049 0.00074707551 0)
(-0.054729989 0.00066555201 0)
(-0.054980181 0.00058355561 0)
(-0.055197444 0.00050113453 0)
(-0.055381618 0.00041833742 0)
(-0.055532563 0.00033521335 0)
(-0.055650156 0.00025181174 0)
(-0.055734298 0.00016818235 0)
(-0.055784906 8.4375325e-05 0)
(-0.05580192 4.4122512e-07 0)
(-0.055785298 -8.3569457e-05 0)
(-0.055735021 -0.00016760588 0)
(-0.055651087 -0.00025161696 0)
(-0.055533518 -0.00033555142 0)
(-0.055382355 -0.00041935789 0)
(-0.055197658 -0.00050298491 0)
(-0.054979509 -0.00058638093 0)
(-0.054728013 -0.0006694944 0)
(-0.054443292 -0.00075227375 0)
(-0.05412549 -0.00083466746 0)
(-0.053774772 -0.00091662407 0)
(-0.053391324 -0.00099809226 0)
(-0.05297535 -0.0010790208 0)
(-0.052527078 -0.0011593587 0)
(-0.052046755 -0.0012390552 0)
(-0.051534646 -0.0013180597 0)
(-0.05099104 -0.001396322 0)
(-0.050416243 -0.001473792 0)
(-0.049810583 -0.0015504204 0)
(-0.049174407 -0.0016261578 0)
(-0.048508082 -0.0017009556 0)
(-0.047811993 -0.0017747655 0)
(-0.047086545 -0.0018475398 0)
(-0.046332163 -0.0019192312 0)
(-0.045549291 -0.0019897931 0)
(-0.044738388 -0.0020591795 0)
(-0.043899937 -0.0021273451 0)
(-0.043034433 -0.0021942453 0)
(-0.042142394 -0.002259836 0)
(-0.041224352 -0.0023240741 0)
(-0.040280857 -0.0023869172 0)
(-0.039312477 -0.0024483238 0)
(-0.038319795 -0.0025082532 0)
(-0.037303411 -0.0025666655 0)
(-0.03626394 -0.002623522 0)
(-0.035202012 -0.0026787848 0)
(-0.034118275 -0.0027324168 0)
(-0.033013388 -0.0027843823 0)
(-0.031888025 -0.0028346463 0)
(-0.030742876 -0.0028831753 0)
(-0.029578641 -0.0029299364 0)
(-0.028396035 -0.0029748982 0)
(-0.027195785 -0.0030180304 0)
(-0.025978629 -0.0030593038 0)
(-0.024745318 -0.0030986905 0)
(-0.023496613 -0.0031361639 0)
(-0.022233285 -0.0031716984 0)
(-0.020956116 -0.0032052699 0)
(-0.019665897 -0.0032368557 0)
(-0.018363427 -0.0032664343 0)
(-0.017049515 -0.0032939854 0)
(-0.015724976 -0.0033194902 0)
(-0.014390633 -0.0033429315 0)
(-0.013047317 -0.0033642931 0)
(-0.011695864 -0.0033835604 0)
(-0.010337115 -0.0034007204 0)
(-0.0089719155 -0.0034157611 0)
(-0.007601118 -0.0034286724 0)
(-0.0062255768 -0.0034394453 0)
(-0.00484615 -0.0034480725 0)
(-0.0034636982 -0.0034545481 0)
(-0.0020790842 -0.0034588677 0)
(-0.0006931723 -0.0034610282 0)
(0.0006931723 -0.0034610282 0)
(0.0020790842 -0.0034588677 0)
(0.0034636982 -0.0034545481 0)
(0.00484615 -0.0034480725 0)
(0.0062255768 -0.0034394453 0)
(0.007601118 -0.0034286724 0)
(0.0089719155 -0.0034157611 0)
(0.010337115 -0.0034007204 0)
(0.011695864 -0.0033835604 0)
(0.013047317 -0.0033642931 0)
(0.014390633 -0.0033429315 0)
(0.015724976 -0.0033194902 0)
(0.017049515 -0.0032939854 0)
(0.018363427 -0.0032664343 0)
(0.019665897 -0.0032368557 0)
(0.020956116 -0.0032052699 0)
(0.022233285 -0.0031716984 0)
(0.023496613 -0.0031361639 0)
(0.024745318 -0.0030986905 0)
(0.025978629 -0.0030593038 0)
(0.027195785 -0.0030180304 0)
(0.028396035 -0.0029748982 0)
(0.029578641 -0.0029299364 0)
(0.030742876 -0.0028831753 0)
(0.031888025 -0.0028346463 0)
(0.033013388 -0.0027843823 0)
(0.034118275 -0.0027324168 0)
(0.035202012 -0.0026787848 0)
(0.03626394 -0.002623522 0)
(0.037303411 -0.0025666655 0)
(0.038319795 -0.0025082532 0)
(0.039312477 -0.0024483238 0)
(0.040280857 -0.0023869172 0)
(0.041224352 -0.0023240741 0)
(0.042142394 -0.002259836 0)
(0.043034433 -0.0021942453 0)
(0.043899937 -0.0021273451 0)
(0.044738388 -0.0020591795 0)
(0.045549291 -0.0019897931 0)
(0.046332163 -0.0019192312 0)
(0.047086545 -0.0018475398 0)
(0.047811993 -0.0017747655 0)
(0.048508082 -0.0017009556 0)
(0.049174407 -0.0016261578 0)
(0.049810583 -0.0015504204 0)
(0.050416243 -0.001473792 0)
(0.05099104 -0.001396322 0)
(0.051534646 -0.0013180597 0)
(0.052046755 -0.0012390552 0)
(0.052527078 -0.0011593587 0)
(0.05297535 -0.0010790208 0)
(0.053391324 -0.00099809226 0)
(0.053774772 -0.00091662407 0)
(0.05412549 -0.00083466746 0)
(0.054443292 -0.00075227375 0)
(0.054728013 -0.0006694944 0)
(0.054979509 -0.00058638093 0)
(0.055197658 -0.00050298491 0)
(0.055382355 -0.00041935789 0)
(0.055533518 -0.00033555142 0)
(0.055651087 -0.00025161696 0)
(0.055735021 -0.00016760588 0)
(0.055785298 -8.3569457e-05 0)
(0.05580192 4.412252e-07 0)
(0.055784906 8.4375325e-05 0)
(0.055734298 0.00016818235 0)
(0.055650156 0.00025181174 0)
(0.055532563 0.00033521335 0)
(0.055381618 0.00041833742 0)
(0.055197444 0.00050113453 0)
(0.054980181 0.00058355561 0)
(0.054729989 0.00066555201 0)
(0.054447049 0.00074707551 0)
(0.05413156 0.00082807834 0)
(0.053783739 0.00090851321 0)
(0.053403823 0.00098833336 0)
(0.052992068 0.0010674925 0)
(0.052548749 0.0011459451 0)
(0.052074156 0.0012236459 0)
(0.051568601 0.0013005504 0)
(0.05103241 0.0013766149 0)
(0.05046593 0.001451796 0)
(0.049869522 0.0015260512 0)
(0.049243566 0.0015993387 0)
(0.048588458 0.0016716172 0)
(0.04790461 0.0017428463 0)
(0.04719245 0.0018129864 0)
(0.046452423 0.0018819984 0)
(0.045684988 0.0019498442 0)
(0.044890619 0.0020164864 0)
(0.044069806 0.0020818884 0)
(0.043223054 0.0021460144 0)
(0.042350879 0.0022088295 0)
(0.041453815 0.0022702995 0)
(0.040532406 0.0023303913 0)
(0.039587211 0.0023890723 0)
(0.038618802 0.0024463111 0)
(0.037627762 0.002502077 0)
(0.036614687 0.0025563403 0)
(0.035580185 0.002609072 0)
(0.034524876 0.0026602444 0)
(0.033449388 0.0027098302 0)
(0.032354363 0.0027578035 0)
(0.031240451 0.0028041389 0)
(0.030108314 0.0028488124 0)
(0.028958622 0.0028918004 0)
(0.027792054 0.0029330808 0)
(0.026609299 0.002972632 0)
(0.025411053 0.0030104336 0)
(0.024198022 0.003046466 0)
(0.022970916 0.0030807108 0)
(0.021730457 0.0031131502 0)
(0.02047737 0.0031437678 0)
(0.019212388 0.0031725477 0)
(0.01793625 0.0031994754 0)
(0.0166497 0.0032245371 0)
(0.01535349 0.00324772 0)
(0.014048373 0.0032690125 0)
(0.012735108 0.0032884036 0)
(0.01141446 0.0033058836 0)
(0.010087196 0.0033214437 0)
(0.0087540852 0.0033350759 0)
(0.0074159022 0.0033467735 0)
(0.0060734228 0.0033565305 0)
(0.0047274251 0.003364342 0)
(0.0033786893 0.003370204 0)
(0.0020279966 0.0033741137 0)
(0.00067612939 0.003376069 0)
(-0.00067707677 0.0047289591 0)
(-0.0020308382 0.0047262202 0)
(-0.0033834236 0.004720744 0)
(-0.0047340494 0.004712533 0)
(-0.0060819333 0.0047015915 0)
(-0.0074262942 0.0046879249 0)
(-0.0087663528 0.0046715401 0)
(-0.010101332 0.0046524454 0)
(-0.011430457 0.0046306504 0)
(-0.012752957 0.0046061661 0)
(-0.014068063 0.0045790049 0)
(-0.015375011 0.0045491806 0)
(-0.01667304 0.0045167082 0)
(-0.017961395 0.0044816042 0)
(-0.019239324 0.0044438865 0)
(-0.020506082 0.0044035744 0)
(-0.021760929 0.0043606883 0)
(-0.023003131 0.0043152502 0)
(-0.024231961 0.0042672834 0)
(-0.025446697 0.0042168126 0)
(-0.026646628 0.0041638637 0)
(-0.027831047 0.0041084641 0)
(-0.028999256 0.0040506425 0)
(-0.030150567 0.0039904287 0)
(-0.031284298 0.0039278543 0)
(-0.032399779 0.0038629518 0)
(-0.033496347 0.0037957552 0)
(-0.034573352 0.0037262998 0)
(-0.03563015 0.0036546222 0)
(-0.036666112 0.0035807602 0)
(-0.037680618 0.003504753 0)
(-0.038673058 0.003426641 0)
(-0.039642837 0.0033464659 0)
(-0.040589368 0.0032642705 0)
(-0.041512082 0.0031800991 0)
(-0.042410417 0.0030939971 0)
(-0.043283827 0.0030060109 0)
(-0.044131781 0.0029161885 0)
(-0.044953759 0.0028245788 0)
(-0.045749256 0.0027312318 0)
(-0.046517782 0.0026361988 0)
(-0.047258862 0.0025395322 0)
(-0.047972036 0.0024412856 0)
(-0.048656859 0.0023415133 0)
(-0.049312902 0.0022402711 0)
(-0.049939752 0.0021376156 0)
(-0.050537013 0.0020336045 0)
(-0.051104304 0.0019282964 0)
(-0.051641264 0.0018217509 0)
(-0.052147545 0.0017140286 0)
(-0.052622821 0.001605191 0)
(-0.053066779 0.0014953002 0)
(-0.053479128 0.0013844196 0)
(-0.053859594 0.0012726131 0)
(-0.05420792 0.0011599455 0)
(-0.054523869 0.0010464823 0)
(-0.054807223 0.00093228962 0)
(-0.055057782 0.00081743452 0)
(-0.055275367 0.00070198448 0)
(-0.055459816 0.00058600768 0)
(-0.055610988 0.00046957281 0)
(-0.055728762 0.00035274914 0)
(-0.055813037 0.00023560639 0)
(-0.055863732 0.00011821478 0)
(-0.055880784 6.4496903e-07 0)
(-0.055864154 -0.00011703217 0)
(-0.05581382 -0.00023474538 0)
(-0.055729782 -0.00035242312 0)
(-0.055612061 -0.00046999361 0)
(-0.055460698 -0.00058738488 0)
(-0.055275754 -0.00070452484 0)
(-0.055057311 -0.0008213413 0)
(-0.054805472 -0.00093776203 0)
(-0.054520362 -0.0010537148 0)
(-0.054202123 -0.0011691274 0)
(-0.053850922 -0.0012839279 0)
(-0.053466944 -0.0013980442 0)
(-0.053050394 -0.0015114047 0)
(-0.052601499 -0.0016239379 0)
(-0.052120507 -0.0017355727 0)
(-0.051607685 -0.0018462382 0)
(-0.05106332 -0.0019558641 0)
(-0.05048772 -0.0020643804 0)
(-0.049881213 -0.0021717177 0)
(-0.049244146 -0.002277807 0)
(-0.048576886 -0.0023825803 0)
(-0.04787982 -0.0024859697 0)
(-0.047153353 -0.0025879085 0)
(-0.046397911 -0.0026883306 0)
(-0.045613936 -0.0027871706 0)
(-0.044801892 -0.002884364 0)
(-0.043962259 -0.0029798474 0)
(-0.043095535 -0.0030735582 0)
(-0.042202237 -0.0031654349 0)
(-0.041282899 -0.0032554169 0)
(-0.040338072 -0.003343445 0)
(-0.039368323 -0.0034294608 0)
(-0.038374238 -0.0035134074 0)
(-0.037356416 -0.0035952291 0)
(-0.036315474 -0.0036748715 0)
(-0.035252043 -0.0037522813 0)
(-0.034166771 -0.003827407 0)
(-0.033060318 -0.0039001983 0)
(-0.031933361 -0.0039706063 0)
(-0.030786587 -0.0040385838 0)
(-0.029620701 -0.004104085 0)
(-0.028436417 -0.0041670659 0)
(-0.027234464 -0.0042274839 0)
(-0.02601558 -0.0042852982 0)
(-0.024780518 -0.0043404697 0)
(-0.023530039 -0.0043929611 0)
(-0.022264916 -0.0044427366 0)
(-0.020985932 -0.0044897625 0)
(-0.019693879 -0.0045340068 0)
(-0.018389557 -0.0045754394 0)
(-0.017073777 -0.004614032 0)
(-0.015747354 -0.0046497584 0)
(-0.014411114 -0.0046825941 0)
(-0.013065887 -0.0047125167 0)
(-0.011712511 -0.0047395058 0)
(-0.010351828 -0.0047635428 0)
(-0.0089846861 -0.0047846114 0)
(-0.0076119377 -0.0048026971 0)
(-0.0062344387 -0.0048177875 0)
(-0.0048530484 -0.0048298722 0)
(-0.0034686288 -0.004838943 0)
(-0.0020820438 -0.0048449937 0)
(-0.00069415905 -0.0048480201 0)
(0.00069415905 -0.0048480201 0)
(0.0020820438 -0.0048449937 0)
(0.0034686288 -0.004838943 0)
(0.0048530484 -0.0048298722 0)
(0.0062344387 -0.0048177875 0)
(0.0076119377 -0.0048026971 0)
(0.0089846861 -0.0047846114 0)
(0.010351828 -0.0047635428 0)
(0.011712511 -0.0047395058 0)
(0.013065887 -0.0047125167 0)
(0.014411114 -0.0046825941 0)
(0.015747354 -0.0046497584 0)
(0.017073777 -0.004614032 0)
(0.018389557 -0.0045754394 0)
(0.019693879 -0.0045340068 0)
(0.020985932 -0.0044897625 0)
(0.022264916 -0.0044427366 0)
(0.023530039 -0.0043929611 0)
(0.024780518 -0.0043404697 0)
(0.02601558 -0.0042852982 0)
(0.027234464 -0.0042274839 0)
(0.028436417 -0.0041670659 0)
(0.029620701 -0.004104085 0)
(0.030786587 -0.0040385838 0)
(0.031933361 -0.0039706063 0)
(0.033060318 -0.0039001983 0)
(0.034166771 -0.003827407 0)
(0.035252043 -0.0037522813 0)
(0.036315474 -0.0036748715 0)
(0.037356416 -0.0035952291 0)
(0.038374238 -0.0035134074 0)
(0.039368323 -0.0034294608 0)
(0.040338072 -0.003343445 0)
(0.041282899 -0.0032554169 0)
(0.042202237 -0.0031654349 0)
(0.043095535 -0.0030735582 0)
(0.043962259 -0.0029798474 0)
(0.044801892 -0.002884364 0)
(0.045613936 -0.0027871706 0)
(0.046397911 -0.0026883306 0)
(0.047153353 -0.0025879085 0)
(0.04787982 -0.0024859697 0)
(0.048576886 -0.0023825803 0)
(0.049244146 -0.002277807 0)
(0.049881213 -0.0021717176 0)
(0.05048772 -0.0020643804 0)
(0.05106332 -0.0019558641 0)
(0.051607685 -0.0018462382 0)
(0.052120507 -0.0017355727 0)
(0.052601499 -0.0016239379 0)
(0.053050394 -0.0015114047 0)
(0.053466944 -0.0013980442 0)
(0.053850922 -0.0012839279 0)
(0.054202123 -0.0011691274 0)
(0.054520362 -0.0010537148 0)
(0.054805472 -0.00093776203 0)
(0.055057311 -0.0008213413 0)
(0.055275754 -0.00070452484 0)
(0.055460698 -0.00058738488 0)
(0.055612061 -0.00046999361 0)
(0.055729782 -0.00035242312 0)