/*--------------------------------*- C++ -*----------------------------------*\
| =========                 |                                                 |
| \\      /  F ield         | OpenFOAM: The Open Source CFD Toolbox           |
|  \\    /   O peration     | Version:  2106                                  |
|   \\  /    A nd           | Website:  www.openfoam.com                      |
|    \\/     M anipulation  |                                                 |
\*---------------------------------------------------------------------------*/
FoamFile
{
    version     2.0;
    format      ascii;
    arch        "LSB;label=32;scalar=64";
    class       surfaceScalarField;
    location    "0.028";
    object      phi_0;
}
// * * * * * * * * * * * * * * * * * * * * * * * * * * * * * * * * * * * * * //

dimensions      [0 3 -1 0 0 0 0];

oriented        oriented;

internalField   nonuniform List<scalar> 
480
(
-0.002524432
0.0025251462
-0.0046653306
0.0021408986
-0.0060948278
0.0014294973
-0.0065958382
0.00050101035
-0.0060932305
-0.00050260767
-0.00466339
-0.0014298405
-0.0025239832
-0.0021394068
-7.5017548e-07
-0.002523233
0.0025226048
-0.002523355
0.0046623521
-0.0021397473
0.0060926962
-0.001430344
0.0065958781
-0.00050318193
0.0060954096
0.00050046851
0.0046663655
0.001429044
0.0025257628
0.0021406027
0.0025250486
-0.0027965761
0.0053225386
-0.0051683222
0.0045126446
-0.0067518219
0.0030129971
-0.0073064749
0.0010556633
-0.0067497548
-0.0010593278
-0.0051661498
-0.0030134455
-0.0027962135
-0.0045093432
-8.6892902e-07
-0.0053185775
0.0027946194
-0.0053188433
0.0051649551
-0.004510083
0.0067491499
-0.0030145388
0.0073065339
-0.001060566
0.0067524964
0.001054506
0.0051695129
0.0030120275
0.0027981009
0.0045120147
0.0053223333
-0.0033670207
0.0086905941
-0.0062230686
0.0073686925
-0.0081292612
0.0049191896
-0.0087968192
0.0017232214
-0.0081273476
-0.0017287994
-0.0062214132
-0.00491938
-0.0033676195
-0.0073631368
-1.1279549e-06
-0.0086850691
0.0033655541
-0.0086855254
0.0062198762
-0.0073644051
0.0081265948
-0.0049212575
0.0087969274
-0.0017308985
0.0081301396
0.0017212938
0.0062245973
0.0049175699
0.0033689625
0.0073676495
0.0086902611
-0.0044488446
0.013140856
-0.0082246586
0.011144506
-0.010745072
0.0074396032
-0.011629358
0.0026075075
-0.010748287
-0.0026098708
-0.0082312837
-0.0074363831
-0.004456705
-0.011137716
-1.5920937e-06
-0.013140182
0.0044538034
-0.013140921
0.008229151
-0.011139753
0.010747291
-0.0074393974
0.011629557
-0.002613165
0.010746301
0.0026045505
0.0082267837
0.0074370868
0.004451519
0.011142914
0.013140363
-0.0065330475
0.019675997
-0.012085067
0.016696526
-0.01579569
0.011150226
-0.017102612
0.0039144301
-0.015811603
-0.0039008806
-0.012107972
-0.011140014
-0.0065532351
-0.016692452
-2.4366194e-06
-0.01969098
0.0065487925
-0.01969215
0.012104734
-0.016695694
0.015810198
-0.011144862
0.017103026
-0.0039059925
0.015797578
0.0039099977
0.012088273
0.011146392
0.0065370249
0.016694162
0.019675294
-0.0092267839
0.028905667
-0.017090298
0.02456004
-0.022363584
0.016423512
-0.024230734
0.0057815802
-0.022400333
-0.0057312818
-0.017146416
-0.016393931
-0.009271624
-0.024567244
-3.5720517e-06
-0.028959032
0.0092651516
-0.028960874
0.017141824
-0.024572367
0.022398595
-0.016401632
0.024231487
-0.0057388852
0.022366312
0.0057751726
0.017094886
0.016417819
0.0092323358
0.024556712
0.028904744
-0.010444006
0.039352615
-0.019409791
0.033525825
-0.025479064
0.022492785
-0.027643004
0.0079455205
-0.025479987
-0.007894299
-0.019396524
-0.022477394
-0.010422072
-0.033541696
-4.5122833e-06
-0.039376592
0.010414009
-0.039379394
0.019391179
-0.033549537
0.025478784
-0.022489238
0.02764449
-0.0079045911
0.025482609
0.0079370545
0.019415225
0.022485203
0.010449973
0.033521964
0.039351774
-0.0042223513
0.043575743
-0.0079445978
0.037248071
-0.010533236
0.025081423
-0.011473099
0.0088853834
-0.010518745
-0.0088486534
-0.0079240903
-0.025072049
-0.0042155062
-0.03725028
-2.5289814e-06
-0.04358957
0.0042114818
-0.043593405
0.007922319
-0.037260374
0.010518737
-0.025085656
0.011475394
-0.0088612474
0.010534223
0.0088782256
0.0079470445
0.025072381
0.0042244411
0.037244568
0.043575439
0.0041305348
0.039444487
0.0077739909
0.033604615
0.010329894
0.02252552
0.011283107
0.0079321701
0.010370699
-0.0079362455
0.0078256022
-0.022526951
0.0041616293
-0.033586307
2.6031615e-06
-0.039430543
-0.0041574649
-0.039433337
-0.0078237193
-0.03359412
-0.01037058
-0.022538795
-0.011285348
-0.007946479
-0.010330793
0.0079236706
-0.0077763095
0.022517897
-0.0041324983
0.033600756
0.039443662
0.010359014
0.029082602
0.019287464
0.024676165
0.02534129
0.016471695
0.027503258
0.0057702024
0.025360285
-0.0057932724
0.01932285
-0.016489517
0.010401676
-0.024665133
4.5467368e-06
-0.029033414
-0.010393555
-0.029035236
-0.019317444
-0.02467023
-0.025359029
-0.016497211
-0.027504658
-0.0058008504
-0.025344768
0.0057637813
-0.019292841
0.01646597
-0.010364872
0.024672787
0.029081661
0.0091294966
0.019950291
0.016888482
0.01691718
0.022063588
0.011296589
0.023868435
0.0039653546
0.022031202
-0.0039560387
0.01683682
-0.011295135
0.0090925786
-0.016920892
3.5138407e-06
-0.019944349
-0.0090861999
-0.019945522
-0.016832271
-0.016924159
-0.022029465
-0.011300017
-0.023869123
-0.0039611923
-0.022066206
0.0039608641
-0.016892935
0.011292698
-0.0091349071
0.01691476
0.019949568
0.0064612704
0.013486969
0.011941782
0.011436668
0.015594656
0.0076437159
0.016866725
0.0026932848
0.015575959
-0.0026652719
0.01191544
-0.0076346163
0.0064423934
-0.011447845
2.3998746e-06
-0.013504355
-0.0064380141
-0.013505108
-0.011912243
-0.01144993
-0.015574562
-0.0076376981
-0.016867111
-0.0026686435
-0.015596487
0.0026902406
-0.011944912
0.0076411227
-0.0064651653
0.011435013
0.013486454
0.0041145045
0.0093711798
0.007600409
0.0079507634
0.0099230428
0.005321082
0.010734831
0.0018814969
0.0099174485
-0.0018478897
0.0075905615
-0.0053077293
0.0041064873
-0.0079637712
1.4501309e-06
-0.0093993183
-0.0041038425
-0.0093998151
-0.0075886168
-0.0079651553
-0.0099165428
-0.0053097721
-0.010735009
-0.0018501769
-0.0099241505
0.0018793817
-0.00760233
0.0053193022
-0.0041169294
0.0079496125
0.0093708095
0.0031673045
0.0062029114
0.0058539577
0.0052641102
0.0076491806
0.0035258591
0.008280551
0.0012501264
0.0076528015
-0.0012201402
0.0058586497
-0.0035135775
0.0031705823
-0.0052757037
1.0621464e-06
-0.0062297982
-0.0031686393
-0.0062301137
-0.0058572092
-0.0052765855
-0.0076521028
-0.0035148785
-0.0082806592
-0.0012216205
-0.007650005
0.0012487275
-0.0058553866
0.0035246837
-0.0031691158
0.0052633418
0.0062026575
0.0027767414
0.0034253735
0.005132896
0.0029079557
0.0067094596
0.0019492955
0.0072664489
0.00069313717
0.0067199301
-0.00067362142
0.0051474559
-0.0019411033
0.0027872724
-0.0029155202
8.2767325e-07
-0.0034433535
-0.0027857502
-0.0034435358
-0.0051463051
-0.0029160306
-0.0067193335
-0.0019418501
-0.0072664837
-0.00067447034
-0.0067100928
0.0006923367
-0.0051340411
0.001948632
-0.0027782237
0.0029075245
0.0034252302
0.0034398982
0.00636103
0.0083191216
0.009015337
0.0083386303
0.0063887201
0.0034600073
1.0862061e-06
-0.0034580129
-0.0063872242
-0.0083378636
-0.009015399
-0.0083199647
-0.0063625211
-0.0034418106
)
;

boundaryField
{
    leftWall
    {
        type            cyclic;
        value           nonuniform List<scalar> 
16
(
-7.1423907e-07
-8.1623666e-07
-1.03476e-06
-1.4169816e-06
-2.0938027e-06
-2.8859408e-06
-2.9425502e-06
-7.7624585e-07
7.2138716e-07
2.8704821e-06
2.8145682e-06
2.0510968e-06
1.2849368e-06
9.6381384e-07
7.9649642e-07
1.0261348e-06
)
;
    }
    rightWall
    {
        type            cyclic;
        value           nonuniform List<scalar> 
16
(
7.1423907e-07
8.1623666e-07
1.03476e-06
1.4169816e-06
2.0938027e-06
2.8859408e-06
2.9425502e-06
7.7624585e-07
-7.2138716e-07
-2.8704821e-06
-2.8145682e-06
-2.0510968e-06
-1.2849368e-06
-9.6381384e-07
-7.9649642e-07
-1.0261348e-06
)
;
    }
    lowerWall
    {
        type            calculated;
        value           uniform 0;
    }
    atmosphere
    {
        type            calculated;
        value           nonuniform List<scalar> 
16
(
-1.5550813e-05
-1.317614e-05
-8.79604e-06
-3.0782605e-06
3.085324e-06
8.8068681e-06
1.3192639e-05
1.5567581e-05
1.5563359e-05
1.3180678e-05
8.7892437e-06
3.0651276e-06
-3.0975944e-06
-8.8116483e-06
-1.3186111e-05
-1.5554214e-05
)
;
    }
    defaultFaces
    {
        type            empty;
        value           nonuniform List<scalar> 0();
    }
}


// ************************************************************************* //
