/*--------------------------------*- C++ -*----------------------------------*\
| =========                 |                                                 |
| \\      /  F ield         | OpenFOAM: The Open Source CFD Toolbox           |
|  \\    /   O peration     | Version:  2106                                  |
|   \\  /    A nd           | Website:  www.openfoam.com                      |
|    \\/     M anipulation  |                                                 |
\*---------------------------------------------------------------------------*/
FoamFile
{
    version     2.0;
    format      ascii;
    arch        "LSB;label=32;scalar=64";
    class       surfaceScalarField;
    location    "0.05";
    object      phi_0;
}
// * * * * * * * * * * * * * * * * * * * * * * * * * * * * * * * * * * * * * //

dimensions      [0 3 -1 0 0 0 0];

oriented        oriented;

internalField   nonuniform List<scalar> 
8064
(
-3.8977748e-05
3.8977748e-05
-7.7582274e-05
3.8604526e-05
-0.00011544386
3.7861588e-05
-0.00015219978
3.6755914e-05
-0.00018749768
3.5297903e-05
-0.00022099896
3.3501279e-05
-0.00025238194
3.1382981e-05
-0.00028134495
2.896301e-05
-0.00030760921
2.6264256e-05
-0.0003309215
2.3312295e-05
-0.00035105666
2.013516e-05
-0.00036781974
1.6763082e-05
-0.00038104796
1.3228215e-05
-0.00039061229
9.5643307e-06
-0.00039641876
5.8064674e-06
-0.00039840955
1.9907899e-06
-0.00039656344
-1.8461005e-06
-0.00039089619
-5.6672598e-06
-0.00038146038
-9.4358057e-06
-0.00036834508
-1.3115299e-05
-0.00035167498
-1.6670097e-05
-0.00033160928
-2.0065701e-05
-0.0003083402
-2.3269087e-05
-0.00028209115
-2.6249044e-05
-0.00025311467
-2.8976478e-05
-0.00022168996
-3.142471e-05
-0.00018812022
-3.3569747e-05
-0.00015272968
-3.5390533e-05
-0.00011586052
-3.6869166e-05
-7.786943e-05
-3.7991088e-05
-3.9124188e-05
-3.8745242e-05
3.331624e-15
-3.9124188e-05
3.9124188e-05
-3.9124188e-05
7.786943e-05
-3.8745242e-05
0.00011586052
-3.7991088e-05
0.00015272968
-3.6869166e-05
0.00018812022
-3.5390533e-05
0.00022168996
-3.3569747e-05
0.00025311467
-3.142471e-05
0.00028209115
-2.8976478e-05
0.0003083402
-2.6249044e-05
0.00033160928
-2.3269087e-05
0.00035167498
-2.0065701e-05
0.00036834508
-1.6670097e-05
0.00038146038
-1.3115299e-05
0.00039089619
-9.4358057e-06
0.00039656344
-5.6672598e-06
0.00039840955
-1.8461005e-06
0.00039641876
1.9907899e-06
0.00039061229
5.8064674e-06
0.00038104796
9.5643307e-06
0.00036781974
1.3228215e-05
0.00035105666
1.6763082e-05
0.0003309215
2.013516e-05
0.00030760921
2.3312295e-05
0.00028134495
2.6264256e-05
0.00025238194
2.896301e-05
0.00022099896
3.1382981e-05
0.00018749768
3.3501279e-05
0.00015219978
3.5297903e-05
0.00011544386
3.6755914e-05
7.7582274e-05
3.7861588e-05
3.8977748e-05
3.8604526e-05
3.8977748e-05
-3.9409165e-05
7.8386913e-05
-7.8441003e-05
7.7636365e-05
-0.00011672173
7.6142317e-05
-0.00015388462
7.3918803e-05
-0.00018957345
7.0986729e-05
-0.00022344586
6.7373692e-05
-0.00025517663
6.3113746e-05
-0.00028446073
5.824711e-05
-0.00031101628
5.2819811e-05
-0.00033458726
4.6883279e-05
-0.00035494599
4.0493885e-05
-0.00037189534
3.3712426e-05
-0.00038527068
2.6603562e-05
-0.00039494157
1.9235214e-05
-0.00040081302
1.1677918e-05
-0.00040282646
4.0042317e-06
-0.00040096045
-3.7121101e-06
-0.0003952309
-1.1396811e-05
-0.00038569099
-1.8975712e-05
-0.00037243075
-2.6375537e-05
-0.00035557624
-3.3524607e-05
-0.00033528841
-4.0353537e-05
-0.00031176157
-4.6795919e-05
-0.00028522164
-5.2788978e-05
-0.00025592392
-5.8274203e-05
-0.00022415069
-6.3197934e-05
-0.00019020852
-6.7511916e-05
-0.00015442526
-7.1173795e-05
-0.00011714686
-7.4147561e-05
-7.8734021e-05
-7.6403931e-05
-3.9558601e-05
-7.7920662e-05
3.6271153e-15
-7.8682789e-05
3.9558601e-05
-7.8682789e-05
7.8734021e-05
-7.7920662e-05
0.00011714686
-7.6403931e-05
0.00015442526
-7.4147561e-05
0.00019020852
-7.1173795e-05
0.00022415069
-6.7511916e-05
0.00025592392
-6.3197934e-05
0.00028522164
-5.8274203e-05
0.00031176157
-5.2788978e-05
0.00033528841
-4.6795919e-05
0.00035557624
-4.0353537e-05
0.00037243075
-3.3524607e-05
0.00038569099
-2.6375537e-05
0.0003952309
-1.8975712e-05
0.00040096045
-1.1396811e-05
0.00040282646
-3.7121101e-06
0.00040081302
4.0042317e-06
0.00039494157
1.1677918e-05
0.00038527068
1.9235214e-05
0.00037189534
2.6603562e-05
0.00035494599
3.3712426e-05
0.00033458726
4.0493885e-05
0.00031101628
4.6883279e-05
0.00028446073
5.2819811e-05
0.00025517663
5.824711e-05
0.00022344586
6.3113746e-05
0.00018957345
6.7373692e-05
0.00015388462
7.0986729e-05
0.00011672173
7.3918803e-05
7.8441003e-05
7.6142317e-05
3.9409165e-05
7.7636365e-05
7.8386913e-05
-4.0092287e-05
0.0001184792
-7.980073e-05
0.00011734481
-0.00011874509
0.00011508667
-0.00015655229
0.000111726
-0.00019285994
0.00010729438
-0.00022731976
0.00010183352
-0.00025960088
9.5394866e-05
-0.00028939298
8.8039208e-05
-0.00031640927
7.9836104e-05
-0.00034038928
7.0863282e-05
-0.00036110133
6.1205943e-05
-0.00037834489
5.0955979e-05
-0.00039195245
4.0211127e-05
-0.00040179129
2.9074056e-05
-0.00040776478
1.7651405e-05
-0.00040981333
6.0527857e-06
-0.00040791513
-5.6103129e-06
-0.00040208637
-1.7225576e-05
-0.00039238115
-2.8680923e-05
-0.00037889109
-3.9865606e-05
-0.00036174441
-5.0671288e-05
-0.00034110484
-6.09931e-05
-0.00031717009
-7.0730672e-05
-0.00029016994
-7.9789125e-05
-0.00026036413
-8.8080018e-05
-0.00022803982
-9.5522245e-05
-0.00019350887
-0.00010204286
-0.00015710483
-0.00010757784
-0.00011917965
-0.00011207274
-8.010028e-05
-0.0001154833
-4.0245065e-05
-0.00011777588
3.7737774e-15
-0.00011892785
4.0245065e-05
-0.00011892785
8.010028e-05
-0.00011777588
0.00011917965
-0.0001154833
0.00015710483
-0.00011207274
0.00019350887
-0.00010757784
0.00022803982
-0.00010204286
0.00026036413
-9.5522245e-05
0.00029016994
-8.8080018e-05
0.00031717009
-7.9789125e-05
0.00034110484
-7.0730672e-05
0.00036174441
-6.09931e-05
0.00037889109
-5.0671288e-05
0.00039238115
-3.9865606e-05
0.00040208637
-2.8680923e-05
0.00040791513
-1.7225576e-05
0.00040981333
-5.6103129e-06
0.00040776478
6.0527857e-06
0.00040179129
1.7651405e-05
0.00039195245
2.9074056e-05
0.00037834489
4.0211127e-05
0.00036110133
5.0955979e-05
0.00034038928
6.1205943e-05
0.00031640927
7.0863282e-05
0.00028939298
7.9836104e-05
0.00025960088
8.8039208e-05
0.00022731976
9.5394866e-05
0.00019285994
0.00010183352
0.00015655229
0.00010729438
0.00011874509
0.000111726
7.980073e-05
0.00011508667
4.0092287e-05
0.00011734481
0.0001184792
-4.1038199e-05
0.0001595174
-8.168352e-05
0.00015799013
-0.00012154677
0.00015494992
-0.00016024608
0.00015042532
-0.00019741053
0.00014445883
-0.00023268361
0.00013710659
-0.00026572662
0.00012843788
-0.00029622191
0.0001185345
-0.0003238759
0.00010749009
-0.00034842193
9.5409317e-05
-0.00036962286
8.2406876e-05
-0.00038727338
6.8606497e-05
-0.00040120204
5.4139784e-05
-0.00041127297
3.9144986e-05
-0.00041738726
2.3765692e-05
-0.00041948395
8.1494779e-06
-0.00041754073
-7.5535341e-06
-0.0004115742
-2.3192109e-05
-0.00040163977
-3.8615347e-05
-0.00038783123
-5.3674148e-05
-0.00037027986
-6.8222662e-05
-0.00034915325
-8.211971e-05
-0.00032465375
-9.5230166e-05
-0.00029701658
-0.0001074263
-0.00026650756
-0.00011858904
-0.00023342063
-0.00012860918
-0.00019807498
-0.00013738851
-0.000160812
-0.00014484082
-0.00012199195
-0.00015089279
-8.1990447e-05
-0.0001554848
-4.1194756e-05
-0.00015857157
3.7579326e-15
-0.00016012261
4.1194756e-05
-0.00016012261
8.1990447e-05
-0.00015857157
0.00012199195
-0.0001554848
0.000160812
-0.00015089279
0.00019807498
-0.00014484082
0.00023342063
-0.00013738851
0.00026650756
-0.00012860918
0.00029701658
-0.00011858904
0.00032465375
-0.0001074263
0.00034915325
-9.5230166e-05
0.00037027986
-8.211971e-05
0.00038783123
-6.8222662e-05
0.00040163977
-5.3674148e-05
0.0004115742
-3.8615347e-05
0.00041754073
-2.3192109e-05
0.00041948395
-7.5535341e-06
0.00041738726
8.1494779e-06
0.00041127297
2.3765692e-05
0.00040120204
3.9144986e-05
0.00038727338
5.4139784e-05
0.00036962286
6.8606497e-05
0.00034842193
8.2406876e-05
0.0003238759
9.5409317e-05
0.00029622191
0.00010749009
0.00026572662
0.0001185345
0.00023268361
0.00012843788
0.00019741053
0.00013710659
0.00016024608
0.00014445883
0.00012154677
0.00015042532
8.168352e-05
0.00015494992
4.1038199e-05
0.00015799013
0.0001595174
-4.2263094e-05
0.00020178049
-8.4121606e-05
0.00019984864
-0.00012517475
0.00019600306
-0.00016502927
0.00019027984
-0.00020330317
0.00018273273
-0.00023962929
0.00017343272
-0.00027365882
0.0001624674
-0.00030506458
0.00014994025
-0.00033354419
0.00013596971
-0.00035882301
0.00012068813
-0.00038065677
0.00010424063
-0.000398834
8.6783733e-05
-0.00041317814
6.8483921e-05
-0.00042354926
4.9516103e-05
-0.00042984551
3.0061943e-05
-0.00043200416
1.0308131e-05
-0.00043000228
-9.5554145e-06
-0.00042385702
-2.9337375e-05
-0.00041362549
-4.8846871e-05
-0.00039940433
-6.7895313e-05
-0.00038132876
-8.6298231e-05
-0.0003595714
-0.00010387707
-0.00033434065
-0.00012046092
-0.00030587871
-0.00013588824
-0.00027445933
-0.00015000842
-0.00024038517
-0.00016268334
-0.00020398494
-0.00017378875
-0.00016561018
-0.00018321558
-0.00012563188
-0.00019087109
-8.4436846e-05
-0.00019667983
-4.2423915e-05
-0.0002005845
3.5697689e-15
-0.00020254653
4.2423915e-05
-0.00020254653
8.4436846e-05
-0.0002005845
0.00012563188
-0.00019667983
0.00016561018
-0.00019087109
0.00020398494
-0.00018321558
0.00024038517
-0.00017378875
0.00027445933
-0.00016268334
0.00030587871
-0.00015000842
0.00033434065
-0.00013588824
0.0003595714
-0.00012046092
0.00038132876
-0.00010387707
0.00039940433
-8.6298231e-05
0.00041362549
-6.7895313e-05
0.00042385702
-4.8846871e-05
0.00043000228
-2.9337375e-05
0.00043200416
-9.5554145e-06
0.00042984551
1.0308131e-05
0.00042354926
3.0061943e-05
0.00041317814
4.9516103e-05
0.000398834
6.8483921e-05
0.00038065677
8.6783733e-05
0.00035882301
0.00010424063
0.00033354419
0.00012068813
0.00030506458
0.00013596971
0.00027365882
0.00014994025
0.00023962929
0.0001624674
0.00020330317
0.00017343272
0.00016502927
0.00018273273
0.00012517475
0.00019027984
8.4121606e-05
0.00019600306
4.2263094e-05
0.00019984864
0.00020178049
-4.3789118e-05
0.00024556961
-8.7159076e-05
0.0002432186
-0.00012969464
0.00023853862
-0.00017098837
0.00023157357
-0.00021064447
0.00022238884
-0.00024828253
0.00021107078
-0.00028354108
0.00019772596
-0.00031608111
0.00018248028
-0.00034558927
0.00016547786
-0.00037178092
0.00014687979
-0.00039440295
0.00012686266
-0.00041323621
0.00010561699
-0.00042809773
8.3345444e-05
-0.00043884255
6.0260926e-05
-0.00044536518
3.6584573e-05
-0.00044760068
1.254363e-05
-0.00044552536
-1.1630733e-05
-0.00043915708
-3.5705658e-05
-0.0004285551
-5.9448846e-05
-0.00041381961
-8.2630801e-05
-0.00039509079
-0.00010502705
-0.00037254752
-0.00012642034
-0.00034640572
-0.00014660272
-0.00031691633
-0.00016537763
-0.00028436295
-0.0001825618
-0.00024905913
-0.00019798715
-0.00021134539
-0.00021150249
-0.00017158592
-0.00022297505
-0.00013016508
-0.00023229193
-8.7483605e-05
-0.0002393613
-4.3954712e-05
-0.00024411339
3.2132509e-15
-0.00024650124
4.3954712e-05
-0.00024650124
8.7483605e-05
-0.00024411339
0.00013016508
-0.0002393613
0.00017158592
-0.00023229193
0.00021134539
-0.00022297505
0.00024905913
-0.00021150249
0.00028436295
-0.00019798715
0.00031691633
-0.0001825618
0.00034640572
-0.00016537763
0.00037254752
-0.00014660272
0.00039509079
-0.00012642034
0.00041381961
-0.00010502705
0.0004285551
-8.2630801e-05
0.00043915708
-5.9448846e-05
0.00044552536
-3.5705658e-05
0.00044760068
-1.1630733e-05
0.00044536518
1.254363e-05
0.00043884255
3.6584573e-05
0.00042809773
6.0260926e-05
0.00041323621
8.3345444e-05
0.00039440295
0.00010561699
0.00037178092
0.00012686266
0.00034558927
0.00014687979
0.00031608111
0.00016547786
0.00028354108
0.00018248028
0.00024828253
0.00019772596
0.00021064447
0.00021107078
0.00017098837
0.00022238884
0.00012969464
0.00023157357
8.7159076e-05
0.00023853862
4.3789118e-05
0.0002432186
0.00024556961
-4.5646183e-05
0.00029121579
-9.0855471e-05
0.00028842789
-0.00013519505
0.0002828782
-0.00017824023
0.00027461875
-0.00021957843
0.00026372704
-0.00025881307
0.00025030542
-0.00029556734
0.00023448022
-0.00032948775
0.00021640069
-0.0003602476
0.00019623772
-0.00038755012
0.00017418231
-0.00041113136
0.0001504439
-0.00043076285
0.00012524847
-0.00044625381
9.8836411e-05
-0.00045745316
7.146027e-05
-0.00046425096
4.3382373e-05
-0.00046657961
1.4872278e-05
-0.00046441452
-1.379582e-05
-0.00045777443
-4.2345747e-05
-0.00044672125
-7.0502022e-05
-0.00043135953
-9.7992522e-05
-0.00041183548
-0.00012455111
-0.00038833561
-0.0001499202
-0.00036108505
-0.00017385329
-0.00033034535
-0.00019611733
-0.00029641209
-0.00021649505
-0.00025961208
-0.00023478717
-0.0002203002
-0.00025081437
-0.00017885603
-0.00026441922
-0.00013568015
-0.00027546781
-9.119026e-05
-0.00028385119
-4.5817059e-05
-0.00028948659
2.7023448e-15
-0.0002923183
4.5817059e-05
-0.0002923183
9.119026e-05
-0.00028948659
0.00013568015
-0.00028385119
0.00017885603
-0.00027546781
0.0002203002
-0.00026441922
0.00025961208
-0.00025081437
0.00029641209
-0.00023478717
0.00033034535
-0.00021649505
0.00036108505
-0.00019611733
0.00038833561
-0.00017385329
0.00041183548
-0.0001499202
0.00043135953
-0.00012455111
0.00044672125
-9.7992522e-05
0.00045777443
-7.0502022e-05
0.00046441452
-4.2345747e-05
0.00046657961
-1.379582e-05
0.00046425096
1.4872278e-05
0.00045745316
4.3382373e-05
0.00044625381
7.146027e-05
0.00043076285
9.8836411e-05
0.00041113136
0.00012524848
0.00038755012
0.0001504439
0.0003602476
0.00017418231
0.00032948775
0.00019623772
0.00029556734
0.00021640069
0.00025881307
0.00023448022
0.00021957843
0.00025030542
0.00017824023
0.00026372704
0.00013519505
0.00027461875
9.0855471e-05
0.0002828782
4.5646182e-05
0.00028842789
0.00029121579
-4.7874794e-05
0.00033909059
-9.5291422e-05
0.00033584452
-0.00014179599
0.00032938276
-0.0001869431
0.00031976586
-0.00023030003
0.00030708397
-0.00027145082
0.00029145621
-0.00031000019
0.00027302959
-0.00034557732
0.00025197782
-0.00037783945
0.00022849984
-0.00040647519
0.00020281805
-0.00043120761
0.00017517633
-0.00045179699
0.00014583785
-0.0004680432
0.00011508262
-0.00047978777
8.3204836e-05
-0.00048691545
5.051006e-05
-0.00048935546
1.7312287e-05
-0.00048708216
-1.606912e-05
-0.00048011538
-4.9312532e-05
-0.00046852023
-8.2097174e-05
-0.00045240652
-0.00011410623
-0.00043192775
-0.00014502988
-0.00040727963
-0.00017456832
-0.0003786983
-0.00020243462
-0.0003464581
-0.00022835753
-0.00031086898
-0.00025208417
-0.00027227363
-0.00027338252
-0.00023104417
-0.00029204383
-0.00018757861
-0.00030788478
-0.00014229702
-0.0003207494
-9.563741e-05
-0.0003305108
-4.8051449e-05
-0.00033707255
2.0648199e-15
-0.00034036975
4.8051449e-05
-0.00034036975
9.563741e-05
-0.00033707255
0.00014229702
-0.0003305108
0.00018757861
-0.0003207494
0.00023104417
-0.00030788478
0.00027227363
-0.00029204383
0.00031086898
-0.00027338252
0.0003464581
-0.00025208417
0.0003786983
-0.00022835753
0.00040727963
-0.00020243462
0.00043192775
-0.00017456832
0.00045240652
-0.00014502988
0.00046852023
-0.00011410623
0.00048011538
-8.2097174e-05
0.00048708216
-4.9312532e-05
0.00048935546
-1.606912e-05
0.00048691545
1.7312287e-05
0.00047978777
5.051006e-05
0.0004680432
8.3204836e-05
0.00045179699
0.00011508262
0.00043120761
0.00014583785
0.00040647519
0.00017517633
0.00037783945
0.00020281805
0.00034557732
0.00022849984
0.00031000019
0.00025197782
0.00027145082
0.00027302959
0.00023030003
0.00029145621
0.0001869431
0.00030708397
0.00014179599
0.00031976586
9.5291422e-05
0.00032938276
4.7874794e-05
0.00033584452
0.00033909059
-5.0529704e-05
0.00038962029
-0.00010057592
0.00038589073
-0.00014965966
0.0003784665
-0.00019731087
0.00036741707
-0.00024307285
0.00035284595
-0.00028650653
0.00033488989
-0.00032719463
0.00031371769
-0.00036474566
0.00028952886
-0.0003987977
0.00026255188
-0.00042902193
0.00023304228
-0.0004551259
0.00020128029
-0.00047685645
0.0001675684
-0.0004940023
0.00013222847
-0.00050639615
9.5598689e-05
-0.00051391645
5.8030365e-05
-0.00051648863
1.9884458e-05
-0.00051408581
-1.8471931e-05
-0.00050672919
-5.6669158e-05
-0.00049448773
-9.4338629e-05
-0.00047747759
-0.00013111637
-0.00045586095
-0.00016664652
-0.00042984453
-0.00020058474
-0.00039967762
-0.00023260153
-0.00036564977
-0.00026238538
-0.00032808808
-0.00028964585
-0.00028735415
-0.00031411646
-0.0002438406
-0.00033555738
-0.00019796741
-0.00035375797
-0.00015017781
-0.000368539
-0.00010093401
-0.00037975461
-5.0712622e-05
-0.00038729394
1.3415853e-15
-0.00039108237
5.0712622e-05
-0.00039108237
0.00010093401
-0.00038729394
0.00015017781
-0.00037975461
0.00019796741
-0.000368539
0.0002438406
-0.00035375797
0.00028735415
-0.00033555738
0.00032808808
-0.00031411646
0.00036564977
-0.00028964585
0.00039967762
-0.00026238538
0.00042984453
-0.00023260153
0.00045586095
-0.00020058474
0.00047747759
-0.00016664652
0.00049448773
-0.00013111637
0.00050672919
-9.4338629e-05
0.00051408581
-5.6669158e-05
0.00051648863
-1.8471931e-05
0.00051391645
1.9884458e-05
0.00050639615
5.8030365e-05
0.0004940023
9.5598689e-05
0.00047685645
0.00013222847
0.0004551259
0.0001675684
0.00042902193
0.00020128029
0.0003987977
0.00023304228
0.00036474566
0.00026255188
0.00032719463
0.00028952886
0.00028650653
0.00031371769
0.00024307285
0.00033488989
0.00019731087
0.00035284595
0.00014965966
0.00036741707
0.00010057592
0.0003784665
5.0529704e-05
0.00038589073
0.00038962029
-5.368405e-05
0.00044330434
-0.00010685456
0.00043906124
-0.00015900273
0.00043061467
-0.00020962926
0.00041804359
-0.00025824894
0.00040146564
-0.00030439527
0.00038103622
-0.00034762483
0.00035694725
-0.00038752152
0.00032942555
-0.00042370062
0.00029873098
-0.00045581255
0.00026515421
-0.00048354639
0.00022901413
-0.00050663296
0.00019065498
-0.00052484767
0.00015044317
-0.00053801275
0.00010876376
-0.00054599911
6.6016732e-05
-0.00054872771
2.2613056e-05
-0.00054617029
-2.1029357e-05
-0.00053834966
-6.4489787e-05
-0.00052533947
-0.00010734882
-0.00050726344
-0.00014919239
-0.00048429418
-0.00018961579
-0.00045665148
-0.00022822744
-0.00042460032
-0.00026465269
-0.00038844834
-0.00029853736
-0.00034854299
-0.0003295512
-0.00030526832
-0.00035739113
-0.00025904132
-0.00038178437
-0.00021030801
-0.00040249127
-0.00015953915
-0.00041930786
-0.00010722563
-0.00043206813
-5.3873715e-05
-0.00044064585
5.7103014e-16
-0.00044495608
5.3873715e-05
-0.00044495608
0.00010722563
-0.00044064585
0.00015953915
-0.00043206813
0.00021030801
-0.00041930786
0.00025904132
-0.00040249127
0.00030526832
-0.00038178437
0.00034854299
-0.00035739113
0.00038844834
-0.0003295512
0.00042460032
-0.00029853736
0.00045665148
-0.00026465269
0.00048429418
-0.00022822744
0.00050726344
-0.00018961579
0.00052533947
-0.00014919239
0.00053834966
-0.00010734882
0.00054617029
-6.4489787e-05
0.00054872771
-2.1029357e-05
0.00054599911
2.2613056e-05
0.00053801275
6.6016732e-05
0.00052484767
0.00010876376
0.00050663296
0.00015044317
0.00048354639
0.00019065498
0.00045581255
0.00022901413
0.00042370062
0.00026515421
0.00038752152
0.00029873098
0.00034762483
0.00032942555
0.00030439527
0.00035694725
0.00025824894
0.00038103622
0.00020962926
0.00040146564
0.00015900273
0.00041804359
0.00010685456
0.00043061467
5.368405e-05
0.00043906124
0.00044330434
-5.7433453e-05
0.00050073779
-0.00011431767
0.00049594546
-0.00017010849
0.00048640549
-0.00022427181
0.00047220692
-0.00027628861
0.00045348244
-0.00032565976
0.00043040737
-0.00037191074
0.00040319823
-0.00041459619
0.000372111
-0.00045330425
0.00033743904
-0.0004876606
0.00029951056
-0.00051733226
0.00025868579
-0.00054203099
0.00021535371
-0.00056151629
0.00016992848
-0.0005755979
0.00012284538
-0.00058413781
7.455664e-05
-0.00058705165
2.5526897e-05
-0.00058430955
-2.3771457e-05
-0.00057593636
-7.2862973e-05
-0.00056201136
-0.00012127382
-0.00054266735
-0.0001685364
-0.00051808938
-0.00021419376
-0.00048851288
-0.00025780394
-0.00045422148
-0.00029894409
-0.00041554433
-0.00033721451
-0.0003728531
-0.00037224243
-0.0003265585
-0.00040368573
-0.00027710646
-0.00043123642
-0.00022497393
-0.0004546238
-0.00017066434
-0.00047361746
-0.00011470268
-0.00048802979
-5.7630389e-05
-0.00049771814
-2.1530014e-16
-0.00050258647
5.7630389e-05
-0.00050258647
0.00011470268
-0.00049771814
0.00017066434
-0.00048802979
0.00022497393
-0.00047361746
0.00027710646
-0.0004546238
0.0003265585
-0.00043123642
0.0003728531
-0.00040368573
0.00041554433
-0.00037224243
0.00045422148
-0.00033721451
0.00048851288
-0.00029894409
0.00051808938
-0.00025780394
0.00054266735
-0.00021419376
0.00056201136
-0.0001685364
0.00057593636
-0.00012127382
0.00058430955
-7.2862973e-05
0.00058705165
-2.3771457e-05
0.00058413781
2.5526897e-05
0.0005755979
7.455664e-05
0.00056151629
0.00012284538
0.00054203099
0.00016992848
0.00051733226
0.00021535371
0.0004876606
0.00025868579
0.00045330425
0.00029951056
0.00041459619
0.00033743904
0.00037191074
0.000372111
0.00032565976
0.00040319823
0.00027628861
0.00043040737
0.00022427181
0.00045348244
0.00017010849
0.00047220692
0.00011431767
0.00048640549
5.7433453e-05
0.00049594546
0.00050073779
-6.1899343e-05
0.00056263714
-0.00012320699
0.0005572531
-0.00018333666
0.00054653516
-0.0002417129
0.00053058316
-0.00029777639
0.00050954593
-0.00035098915
0.00048362014
-0.00040083963
0.0004530487
-0.00044684756
0.00041811894
-0.0004885687
0.00037916017
-0.00052559918
0.00033654104
-0.00055757969
0.00029066629
-0.00058419916
0.00024197319
-0.00060519809
0.0001909274
-0.00062037128
0.00013801857
-0.00062957005
8.3755409e-05
-0.00063270374
2.8660597e-05
-0.00062974063
-2.6734571e-05
-0.00062070808
-8.1895527e-05
-0.00060569215
-0.00013628975
-0.00058483661
-0.00018939194
-0.00055834139
-0.00024068898
-0.00052646061
-0.00028968471
-0.00048950018
-0.00033590452
-0.0004478149
-0.00037889979
-0.00040180524
-0.00041825209
-0.00035191367
-0.00045357731
-0.00029862055
-0.00048452953
-0.00024243967
-0.00051080468
-0.0001839133
-0.00053214382
-0.00012360703
-0.00054833606
-6.210417e-05
-0.000559221
-9.9818444e-16
-0.00056469064
6.210417e-05
-0.00056469064
0.00012360703
-0.000559221
0.0001839133
-0.00054833606
0.00024243967
-0.00053214382
0.00029862055
-0.00051080468
0.00035191367
-0.00048452953
0.00040180524
-0.00045357731
0.0004478149
-0.00041825209
0.00048950018
-0.00037889979
0.00052646061
-0.00033590452
0.00055834139
-0.00028968471
0.00058483661
-0.00024068898
0.00060569215
-0.00018939194
0.00062070808
-0.00013628975
0.00062974063
-8.1895527e-05
0.00063270374
-2.6734571e-05
0.00062957005
2.8660597e-05
0.00062037128
8.3755409e-05
0.00060519809
0.00013801857
0.00058419916
0.0001909274
0.00055757969
0.00024197319
0.00052559918
0.00029066629
0.0004885687
0.00033654104
0.00044684756
0.00037916017
0.00040083963
0.00041811894
0.00035098915
0.0004530487
0.00029777639
0.00048362014
0.0002417129
0.00050954593
0.00018333666
0.00053058316
0.00012320699
0.00054653516
6.1899343e-05
0.0005572531
0.00056263714
-6.7230436e-05
0.00062986757
-0.00013381853
0.0006238412
-0.00019912781
0.00061184444
-0.00026253347
0.00059398881
-0.00032342812
0.00057044059
-0.00038122744
0.00054141945
-0.00043537563
0.00050719689
-0.00048535075
0.00046809406
-0.00053066981
0.00042447923
-0.00057089359
0.00037676483
-0.00060563123
0.00032540393
-0.00063454429
0.00027088625
-0.00065735049
0.00021373359
-0.00067382673
0.0001544948
-0.00068381156
9.3740244e-05
-0.00068720686
3.2055898e-05
-0.00068397873
-2.9962699e-05
-0.00067415766
-9.1716599e-05
-0.00065783796
-0.00015260946
-0.00063517657
-0.00021205333
-0.00060639134
-0.00026947421
-0.00057175877
-0.00032431728
-0.00053161138
-0.00037605191
-0.00048633461
-0.00042417655
-0.00043636334
-0.00046822336
-0.00038217792
-0.00050776273
-0.00032429977
-0.00054240768
-0.00026328658
-0.00057181787
-0.00019972702
-0.00059570338
-0.00013423506
-0.00061382802
-6.7443953e-05
-0.00062601211
-1.7668369e-15
-0.00063213459
6.7443953e-05
-0.00063213459
0.00013423506
-0.00062601211
0.00019972702
-0.00061382802
0.00026328658
-0.00059570338
0.00032429977
-0.00057181787
0.00038217792
-0.00054240768
0.00043636334
-0.00050776273
0.00048633461
-0.00046822336
0.00053161138
-0.00042417655
0.00057175877
-0.00037605191
0.00060639134
-0.00032431728
0.00063517657
-0.00026947421
0.00065783796
-0.00021205333
0.00067415766
-0.00015260946
0.00068397873
-9.1716599e-05
0.00068720686
-2.9962699e-05
0.00068381156
3.2055898e-05
0.00067382673
9.3740244e-05
0.00065735049
0.00015449481
0.00063454429
0.00021373359
0.00060563123
0.00027088625
0.00057089359
0.00032540393
0.00053066981
0.00037676483
0.00048535075
0.00042447923
0.00043537563
0.00046809406
0.00038122744
0.00050719689
0.00032342812
0.00054141945
0.00026253347
0.00057044059
0.00019912781
0.00059398881
0.00013381853
0.00061184444
6.7230436e-05
0.0006238412
0.00062986757
-7.3600979e-05
0.00070346855
-0.00014649917
0.00069673939
-0.00021799814
0.00068334341
-0.00028741418
0.00066340486
-0.00035408252
0.00063710892
-0.00041736344
0.00060470038
-0.00047664831
0.00056648176
-0.00053136533
0.00052281107
-0.00058098515
0.00047409904
-0.00062502621
0.00042080589
-0.00066305978
0.00036343751
-0.00069471462
0.00030254109
-0.00071968106
0.00023870003
-0.00073771453
0.00017252828
-0.0007486383
0.00010466401
-0.00075234532
3.5762922e-05
-0.00074879922
-3.3508803e-05
-0.00073803433
-0.00010248149
-0.00072015497
-0.00017048881
-0.000695334
-0.0002368743
-0.00066381077
-0.00030099744
-0.00062588863
-0.00036223942
-0.00058193195
-0.0004200086
-0.00053236279
-0.00047374571
-0.00047765712
-0.00052292903
-0.00041834051
-0.00056707934
-0.00035498345
-0.00060576474
-0.00028819605
-0.00063860527
-0.00021862235
-0.00066527708
-0.00014693411
-0.00068551626
-7.3824258e-05
-0.00069912196
-2.5103108e-15
-0.00070595885
7.3824258e-05
-0.00070595885
0.00014693411
-0.00069912196
0.00021862235
-0.00068551626
0.00028819605
-0.00066527708
0.00035498345
-0.00063860527
0.00041834051
-0.00060576474
0.00047765712
-0.00056707934
0.00053236279
-0.00052292903
0.00058193195
-0.00047374571
0.00062588863
-0.0004200086
0.00066381077
-0.00036223942
0.000695334
-0.00030099744
0.00072015497
-0.0002368743
0.00073803433
-0.00017048881
0.00074879922
-0.00010248149
0.00075234532
-3.3508803e-05
0.0007486383
3.5762922e-05
0.00073771453
0.00010466401
0.00071968106
0.00017252828
0.00069471462
0.00023870003
0.00066305978
0.00030254109
0.00062502621
0.00036343751
0.00058098515
0.00042080589
0.00053136533
0.00047409904
0.00047664831
0.00052281107
0.00041736344
0.00056648176
0.00035408252
0.00060470038
0.00028741418
0.00063710892
0.00021799814
0.00066340486
0.00014649917
0.00068334341
7.3600979e-05
0.00069673939
0.00070346855
-8.1204003e-05
0.00078467255
-0.00016163312
0.00077716851
-0.00024051946
0.00076222974
-0.00031710902
0.00073999442
-0.0003906686
0.0007106685
-0.00046049245
0.00067452422
-0.00052590883
0.00063189815
-0.00058628643
0.00058318868
-0.00064104053
0.00052885314
-0.0006896389
0.00046940426
-0.00073160751
0.00040540612
-0.00076653574
0.00033746932
-0.00079408113
0.00026624542
-0.00081397335
0.0001924205
-0.00082601736
0.00011670802
-0.00083009552
3.9841078e-05
-0.00082616857
-3.7435751e-05
-0.00081427562
-0.00011437444
-0.00079453311
-0.00019023132
-0.00076713304
-0.00026427436
-0.00073234058
-0.0003357899
-0.00069049118
-0.00040408883
-0.00064198727
-0.0004685125
-0.00058729463
-0.00052843835
-0.00052693821
-0.00058328545
-0.00046149755
-0.00063252
-0.00039160162
-0.00067566068
-0.00031792307
-0.00071228381
-0.000241172
-0.00074202816
-0.0001620891
-0.00076459916
-8.1438471e-05
-0.00077977259
-3.2084279e-15
-0.00078739732
8.1438471e-05
-0.00078739732
0.0001620891
-0.00077977259
0.000241172
-0.00076459916
0.00031792307
-0.00074202816
0.00039160162
-0.00071228381
0.00046149755
-0.00067566068
0.00052693821
-0.00063252
0.00058729463
-0.00058328545
0.00064198727
-0.00052843835
0.00069049118
-0.0004685125
0.00073234058
-0.00040408883
0.00076713304
-0.0003357899
0.00079453311
-0.00026427436
0.00081427562
-0.00019023132
0.00082616857
-0.00011437444
0.00083009552
-3.7435751e-05
0.00082601736
3.9841078e-05
0.00081397335
0.00011670802
0.00079408113
0.0001924205
0.00076653574
0.00026624542
0.00073160751
0.00033746932
0.0006896389
0.00040540612
0.00064104053
0.00046940426
0.00058628643
0.00052885314
0.00052590883
0.00058318868
0.00046049245
0.00063189815
0.0003906686
0.00067452422
0.00031710902
0.0007106685
0.00024051946
0.00073999442
0.00016163312
0.00076222974
8.1204003e-05
0.00077716851
0.00078467255
-9.0237568e-05
0.00087491012
-0.00017961464
0.00086654558
-0.00026727843
0.00084989353
-0.00035239152
0.00082510752
-0.00043413943
0.00079241641
-0.00051173797
0.00075212276
-0.0005844405
0.00070460068
-0.00065154498
0.00065029316
-0.00071240083
0.00058970898
-0.00076641553
0.00052341897
-0.00081306107
0.00045205166
-0.00085187989
0.00037628814
-0.00088249033
0.00029685586
-0.00090459134
0.0002145215
-0.00091796607
0.00013008275
-0.00092248429
4.4359299e-05
-0.00091810347
-4.1816567e-05
-0.00090486856
-0.00012760936
-0.0008829106
-0.00021218928
-0.00085244453
-0.00029474043
-0.0008137663
-0.00037446812
-0.00076724959
-0.00045060554
-0.00071334206
-0.00052242002
-0.00065256139
-0.00058921902
-0.00058549071
-0.00065035613
-0.00051277362
-0.00070523709
-0.00043510851
-0.00075332578
-0.00035324233
-0.00079414999
-0.00026796362
-0.00082730687
-0.00018009497
-0.00085246781
-9.0485026e-05
-0.00086938253
-3.8329559e-15
-0.00087788235
9.0485026e-05
-0.00087788235
0.00018009497
-0.00086938253
0.00026796362
-0.00085246781
0.00035324233
-0.00082730687
0.00043510851
-0.00079414999
0.00051277362
-0.00075332578
0.00058549071
-0.00070523709
0.00065256139
-0.00065035613
0.00071334206
-0.00058921902
0.00076724959
-0.00052242002
0.0008137663
-0.00045060554
0.00085244453
-0.00037446812
0.0008829106
-0.00029474043
0.00090486856
-0.00021218928
0.00091810347
-0.00012760936
0.00092248429
-4.1816567e-05
0.00091796607
4.4359299e-05
0.00090459134
0.00013008275
0.00088249033
0.0002145215
0.00085187989
0.00029685586
0.00081306107
0.00037628814
0.00076641553
0.00045205166
0.00071240083
0.00052341897
0.00065154498
0.00058970898
0.0005844405