/*--------------------------------*- C++ -*----------------------------------*\
| =========                 |                                                 |
| \\      /  F ield         | OpenFOAM: The Open Source CFD Toolbox           |
|  \\    /   O peration     | Version:  2106                                  |
|   \\  /    A nd           | Website:  www.openfoam.com                      |
|    \\/     M anipulation  |                                                 |
\*---------------------------------------------------------------------------*/
FoamFile
{
    version     2.0;
    format      ascii;
    arch        "LSB;label=32;scalar=64";
    class       volVectorField;
    location    "0.05";
    object      U;
}
// * * * * * * * * * * * * * * * * * * * * * * * * * * * * * * * * * * * * * //

dimensions      [0 1 -1 0 0 0 0];

internalField   nonuniform List<vector> 
4096
(
(-0.0012501344 0.0012450714 0)
(-0.0037384334 0.0012331495 0)
(-0.0061909353 0.0012094175 0)
(-0.0085841493 0.0011740985 0)
(-0.010895142 0.0011275248 0)
(-0.013101752 0.0010701346 0)
(-0.015182803 0.0010024692 0)
(-0.017118303 0.00092516738 0)
(-0.018889634 0.00083896045 0)
(-0.020479734 0.00074466537 0)
(-0.021873258 0.00064317759 0)
(-0.023056732 0.00053546283 0)
(-0.024018681 0.00042254814 0)
(-0.024749743 0.00030551199 0)
(-0.025242775 0.00018547292 0)
(-0.025492882 6.3591778e-05 0)
(-0.025497561 -5.8971647e-05 0)
(-0.025256613 -0.0001810313 0)
(-0.024772235 -0.00030141013 0)
(-0.02404897 -0.00041894429 0)
(-0.023093673 -0.00053249526 0)
(-0.021915447 -0.00064096099 0)
(-0.020525564 -0.00074328667 0)
(-0.018937353 -0.00083847527 0)
(-0.01716608 -0.00092559746 0)
(-0.015228798 -0.001003801 0)
(-0.013144188 -0.0010723197 0)
(-0.010932375 -0.0011304807 0)
(-0.0086147315 -0.0011777124 0)
(-0.006213675 -0.0012135497 0)
(-0.0037524427 -0.0012376394 0)
(-0.0012548659 -0.001249744 0)
(0.0012548659 -0.001249744 0)
(0.0037524427 -0.0012376394 0)
(0.006213675 -0.0012135497 0)
(0.0086147315 -0.0011777124 0)
(0.010932375 -0.0011304807 0)
(0.013144188 -0.0010723197 0)
(0.015228798 -0.001003801 0)
(0.01716608 -0.00092559746 0)
(0.018937353 -0.00083847527 0)
(0.020525564 -0.00074328667 0)
(0.021915447 -0.00064096099 0)
(0.023093673 -0.00053249526 0)
(0.02404897 -0.00041894429 0)
(0.024772235 -0.00030141013 0)
(0.025256613 -0.0001810313 0)
(0.025497561 -5.8971647e-05 0)
(0.025492882 6.3591778e-05 0)
(0.025242775 0.00018547292 0)
(0.024749743 0.00030551199 0)
(0.024018681 0.00042254814 0)
(0.023056732 0.00053546283 0)
(0.021873258 0.00064317759 0)
(0.020479734 0.00074466537 0)
(0.018889634 0.00083896045 0)
(0.017118303 0.00092516738 0)
(0.015182803 0.0010024692 0)
(0.013101752 0.0010701346 0)
(0.010895142 0.0011275248 0)
(0.0085841493 0.0011740985 0)
(0.0061909353 0.0012094175 0)
(0.0037384334 0.0012331495 0)
(0.0012501344 0.0012450714 0)
(-0.0012639699 0.0037460206 0)
(-0.0037798083 0.003710152 0)
(-0.0062594561 0.0036387516 0)
(-0.0086791638 0.0035324903 0)
(-0.011015745 0.0033923673 0)
(-0.013246795 0.0032197016 0)
(-0.015350902 0.0030161209 0)
(-0.017307853 0.0027835474 0)
(-0.019098825 0.0025241809 0)
(-0.020706563 0.0022404793 0)
(-0.022115555 0.0019351366 0)
(-0.023312173 0.0016110582 0)
(-0.024284814 0.0012713343 0)
(-0.025024014 0.00091921041 0)
(-0.025522542 0.00055805651 0)
(-0.025775469 0.0001913415 0)
(-0.025780232 -0.00017741056 0)
(-0.025536648 -0.00054465102 0)
(-0.025046935 -0.00090683533 0)
(-0.024315684 -0.0012604615 0)
(-0.023349824 -0.0016021041 0)
(-0.022158561 -0.0019284472 0)
(-0.020753287 -0.0022363173 0)
(-0.019147481 -0.0025227145 0)
(-0.017356577 -0.0027848425 0)
(-0.015397815 -0.0030201374 0)
(-0.013290084 -0.003226293 0)
(-0.011053731 -0.0034012857 0)
(-0.0087103674 -0.0035433947 0)
(-0.0062826597 -0.0036512209 0)
(-0.0037941043 -0.0037237016 0)
(-0.0012687983 -0.0037601216 0)
(0.0012687983 -0.0037601216 0)
(0.0037941043 -0.0037237016 0)
(0.0062826597 -0.0036512209 0)
(0.0087103674 -0.0035433947 0)
(0.011053731 -0.0034012857 0)
(0.013290084 -0.003226293 0)
(0.015397815 -0.0030201374 0)
(0.017356577 -0.0027848425 0)
(0.019147481 -0.0025227145 0)
(0.020753287 -0.0022363173 0)
(0.022158561 -0.0019284472 0)
(0.023349824 -0.0016021041 0)
(0.024315684 -0.0012604615 0)
(0.025046935 -0.00090683533 0)
(0.025536648 -0.00054465102 0)
(0.025780232 -0.00017741056 0)
(0.025775469 0.0001913415 0)
(0.025522542 0.00055805651 0)
(0.025024014 0.00091921041 0)
(0.024284814 0.0012713343 0)
(0.023312173 0.0016110582 0)
(0.022115555 0.0019351366 0)
(0.020706563 0.0022404793 0)
(0.019098825 0.0025241809 0)
(0.017307853 0.0027835474 0)
(0.015350902 0.0030161209 0)
(0.013246795 0.0032197016 0)
(0.011015745 0.0033923673 0)
(0.0086791638 0.0035324903 0)
(0.0062594561 0.0036387516 0)
(0.0037798083 0.003710152 0)
(0.0012639699 0.0037460206 0)
(-0.0012858799 0.0062856236 0)
(-0.0038453294 0.0062254401 0)
(-0.006367963 0.0061056382 0)
(-0.0088296209 0.0059273431 0)
(-0.011206715 0.005692231 0)
(-0.013476454 0.0054025147 0)
(-0.015617054 0.0050609246 0)
(-0.017607951 0.0046706855 0)
(-0.019429994 0.004235488 0)
(-0.02106563 0.0037594561 0)
(-0.022499073 0.0032471099 0)
(-0.023716461 0.0027033243 0)
(-0.024705988 0.0021332845 0)
(-0.025458024 0.0015424369 0)
(-0.025965211 0.00093643838 0)
(-0.026222539 0.00032110503 0)
(-0.026227395 -0.00029764893 0)
(-0.025979597 -0.0009138657 0)
(-0.0254814 -0.0015215989 0)
(-0.024737476 -0.0021149728 0)
(-0.023754874 -0.0026882397 0)
(-0.022542959 -0.0032358358 0)
(-0.021113321 -0.0037524362 0)
(-0.01947967 -0.0042330069 0)
(-0.017657708 -0.0046728562 0)
(-0.015664975 -0.005067681 0)
(-0.013520684 -0.0054136117 0)
(-0.011245535 -0.0057072517 0)
(-0.0088615147 -0.0059457135 0)
(-0.0063916831 -0.0061266486 0)
(-0.003859945 -0.0062482732 0)
(-0.0012908165 -0.0063093871 0)
(0.0012908165 -0.0063093871 0)
(0.003859945 -0.0062482732 0)
(0.0063916831 -0.0061266486 0)
(0.0088615147 -0.0059457135 0)
(0.011245535 -0.0057072517 0)
(0.013520684 -0.0054136117 0)
(0.015664975 -0.005067681 0)
(0.017657708 -0.0046728562 0)
(0.01947967 -0.0042330069 0)
(0.021113321 -0.0037524362 0)
(0.022542959 -0.0032358358 0)
(0.023754874 -0.0026882397 0)
(0.024737476 -0.0021149728 0)
(0.0254814 -0.0015215989 0)
(0.025979597 -0.0009138657 0)
(0.026227395 -0.00029764893 0)
(0.026222539 0.00032110503 0)
(0.025965211 0.00093643838 0)
(0.025458024 0.0015424369 0)
(0.024705988 0.0021332845 0)
(0.023716461 0.0027033243 0)
(0.022499073 0.0032471099 0)
(0.02106563 0.0037594561 0)
(0.019429994 0.004235488 0)
(0.017607951 0.0046706855 0)
(0.015617054 0.0050609246 0)
(0.013476454 0.0054025147 0)
(0.011206715 0.005692231 0)
(0.0088296209 0.0059273431 0)
(0.006367963 0.0061056382 0)
(0.0038453294 0.0062254401 0)
(0.0012858799 0.0062856236 0)
(-0.0013162185 0.0088772715 0)
(-0.0039360553 0.0087922763 0)
(-0.0065182097 0.0086230835 0)
(-0.0090379528 0.0083712821 0)
(-0.011471141 0.0080392383 0)
(-0.013794444 0.0076300765 0)
(-0.015985566 0.0071476522 0)
(-0.018023454 0.0065965189 0)
(-0.019888505 0.0059818884 0)
(-0.02156275 0.0053095844 0)
(-0.023030029 0.0045859906 0)
(-0.02427615 0.0038179923 0)
(-0.02528903 0.0030129129 0)
(-0.026058809 0.0021784453 0)
(-0.026577957 0.00132258 0)
(-0.026841345 0.00045352936 0)
(-0.026846302 -0.00042035261 0)
(-0.026592642 -0.0012906501 0)
(-0.026082675 -0.0021489652 0)
(-0.025321184 -0.0029870003 0)
(-0.024315388 -0.003796638 0)
(-0.023074871 -0.0045700213 0)
(-0.021611499 -0.0052996298 0)
(-0.019939304 -0.0059783546 0)
(-0.018074356 -0.0065995691 0)
(-0.016034608 -0.0071571963 0)
(-0.013839725 -0.0076457704 0)
(-0.011510895 -0.0080604937 0)
(-0.0090706235 -0.0083972871 0)
(-0.0065425127 -0.0086528331 0)
(-0.0039510321 -0.0088246116 0)
(-0.0013212775 -0.0089109271 0)
(0.0013212775 -0.0089109271 0)
(0.0039510321 -0.0088246116 0)
(0.0065425127 -0.0086528331 0)
(0.0090706235 -0.0083972871 0)
(0.011510895 -0.0080604937 0)
(0.013839725 -0.0076457704 0)
(0.016034608 -0.0071571963 0)
(0.018074356 -0.0065995691 0)
(0.019939304 -0.0059783546 0)
(0.021611499 -0.0052996298 0)
(0.023074871 -0.0045700213 0)
(0.024315388 -0.003796638 0)
(0.025321184 -0.0029870003 0)
(0.026082675 -0.0021489652 0)
(0.026592642 -0.0012906501 0)
(0.026846302 -0.00042035261 0)
(0.026841345 0.00045352936 0)
(0.026577957 0.00132258 0)
(0.026058809 0.0021784453 0)
(0.02528903 0.0030129129 0)
(0.02427615 0.0038179923 0)
(0.023030029 0.0045859906 0)
(0.02156275 0.0053095844 0)
(0.019888505 0.0059818884 0)
(0.018023454 0.0065965189 0)
(0.015985566 0.0071476522 0)
(0.013794444 0.0076300765 0)
(0.011471141 0.0080392383 0)
(0.0090379528 0.0083712821 0)
(0.0065182097 0.0086230835 0)
(0.0039360553 0.0087922763 0)
(0.0013162185 0.0088772715 0)
(-0.0013555049 0.011537922 0)
(-0.0040535394 0.011427456 0)
(-0.0067127689 0.01120756 0)
(-0.0093077276 0.010880298 0)
(-0.011813552 0.010448746 0)
(-0.014206215 0.0099169614 0)
(-0.016462753 0.0092899552 0)
(-0.018561485 0.0085736444 0)
(-0.02048222 0.0077748019 0)
(-0.02220645 0.0069009966 0)
(-0.023717531 0.0059605256 0)
(-0.025000845 0.0049623383 0)
(-0.026043945 0.003915954 0)
(-0.026836679 0.0028313728 0)
(-0.027371292 0.0017189812 0)
(-0.027642505 0.00058945357 0)
(-0.027647567 -0.00054635132 0)
(-0.027386293 -0.0016774942 0)
(-0.026861065 -0.0027930604 0)
(-0.026076811 -0.003882266 0)
(-0.025040968 -0.0049345618 0)
(-0.023763408 -0.0059397369 0)
(-0.022256351 -0.0068880183 0)
(-0.020534249 -0.0077701672 0)
(-0.018613648 -0.0085775716 0)
(-0.016513038 -0.0093023331 0)
(-0.014252666 -0.0099373474 0)
(-0.011854352 -0.010476378 0)
(-0.0093412708 -0.010914122 0)
(-0.0067377283 -0.011246267 0)
(-0.0040689238 -0.011469537 0)
(-0.0013607021 -0.011581725 0)
(0.0013607021 -0.011581725 0)
(0.0040689238 -0.011469537 0)
(0.0067377283 -0.011246267 0)
(0.0093412708 -0.010914122 0)
(0.011854352 -0.010476378 0)
(0.014252666 -0.0099373474 0)
(0.016513038 -0.0093023331 0)
(0.018613648 -0.0085775716 0)
(0.020534249 -0.0077701672 0)
(0.022256351 -0.0068880183 0)
(0.023763408 -0.0059397369 0)
(0.025040968 -0.0049345618 0)
(0.026076811 -0.003882266 0)
(0.026861065 -0.0027930604 0)
(0.027386293 -0.0016774942 0)
(0.027647567 -0.00054635132 0)
(0.027642505 0.00058945357 0)
(0.027371292 0.0017189812 0)
(0.026836679 0.0028313728 0)
(0.026043945 0.003915954 0)
(0.025000845 0.0049623383 0)
(0.023717531 0.0059605256 0)
(0.02220645 0.0069009966 0)
(0.02048222 0.0077748019 0)
(0.018561485 0.0085736444 0)
(0.016462753 0.0092899552 0)
(0.014206215 0.0099169614 0)
(0.011813552 0.010448746 0)
(0.0093077276 0.010880298 0)
(0.0067127689 0.01120756 0)
(0.0040535394 0.011427456 0)
(0.0013555049 0.011537922 0)
(-0.0014044498 0.014286156 0)
(-0.0041999066 0.014149382 0)
(-0.0069551601 0.013877117 0)
(-0.0096438261 0.013471915 0)
(-0.012240144 0.012937581 0)
(-0.014719219 0.012279141 0)
(-0.017057256 0.011502795 0)
(-0.01923179 0.010615868 0)
(-0.021221896 0.0096267465 0)
(-0.023008395 0.0085448005 0)
(-0.024574038 0.007380304 0)
(-0.025903678 0.0061443394 0)
(-0.026984415 0.0048486952 0)
(-0.027805731 0.0035057557 0)
(-0.028359592 0.0021283838 0)
(-0.02864053 0.00072979818 0)
(-0.028645702 -0.00067655422 0)
(-0.02837492 -0.0020771274 0)
(-0.027830656 -0.0034584072 0)
(-0.027018024 -0.0048070417 0)
(-0.025944732 -0.0061099712 0)
(-0.024621013 -0.0073545546 0)
(-0.023059528 -0.008528693 0)
(-0.02127525 -0.0096209494 0)
(-0.019285324 -0.010620662 0)
(-0.017108902 -0.01151805 0)
(-0.014766961 -0.012304319 0)
(-0.012282104 -0.012971745 0)
(-0.0096783404 -0.013513762 0)
(-0.0069808523 -0.013925027 0)
(-0.0042157471 -0.014201481 0)
(-0.0014098018 -0.014340395 0)
(0.0014098018 -0.014340395 0)
(0.0042157471 -0.014201481 0)
(0.0069808523 -0.013925027 0)
(0.0096783404 -0.013513762 0)
(0.012282104 -0.012971745 0)
(0.014766961 -0.012304319 0)
(0.017108902 -0.01151805 0)
(0.019285324 -0.010620662 0)
(0.02127525 -0.0096209494 0)
(0.023059528 -0.008528693 0)
(0.024621013 -0.0073545546 0)
(0.025944732 -0.0061099712 0)
(0.027018024 -0.0048070417 0)
(0.027830656 -0.0034584072 0)
(0.02837492 -0.0020771274 0)
(0.028645702 -0.00067655422 0)
(0.02864053 0.00072979818 0)
(0.028359592 0.0021283838 0)
(0.027805731 0.0035057557 0)
(0.026984415 0.0048486952 0)
(0.025903678 0.0061443394 0)
(0.024574038 0.007380304 0)
(0.023008395 0.0085448005 0)
(0.021221896 0.0096267465 0)
(0.01923179 0.010615868 0)
(0.017057256 0.011502795 0)
(0.014719219 0.012279141 0)
(0.012240144 0.012937581 0)
(0.0096438261 0.013471915 0)
(0.0069551601 0.013877117 0)
(0.0041999066 0.014149382 0)
(0.0014044498 0.014286156 0)
(-0.0014640129 0.017142092 0)
(-0.0043780269 0.016977981 0)
(-0.0072501367 0.016651298 0)
(-0.010052841 0.016165106 0)
(-0.012759286 0.015523969 0)
(-0.015343522 0.014733913 0)
(-0.017780744 0.013802377 0)
(-0.020047527 0.012738146 0)
(-0.022122057 0.011551282 0)
(-0.023984336 0.010253028 0)
(-0.025616378 0.0088557134 0)
(-0.027002388 0.0073726365 0)
(-0.028128919 0.0058179462 0)
(-0.028985003 0.0042065062 0)
(-0.029562269 0.0025537547 0)
(-0.029855021 0.00087555646 0)
(-0.029860302 -0.0008119506 0)
(-0.029577922 -0.002492511 0)
(-0.029010467 -0.0041499089 0)
(-0.028163277 -0.0057681251 0)
(-0.027044392 -0.0073314916 0)
(-0.025664485 -0.0088248438 0)
(-0.024036755 -0.010233668 0)
(-0.022176813 -0.011544244 0)
(-0.020102526 -0.012743781 0)
(-0.017833856 -0.013820547 0)
(-0.015392666 -0.014763985 0)
(-0.012802514 -0.01556483 0)
(-0.010088422 -0.016215199 0)
(-0.0072766375 -0.016708681 0)
(-0.004394372 -0.017040404 0)
(-0.0014695364 -0.017207089 0)
(0.0014695364 -0.017207089 0)
(0.004394372 -0.017040404 0)
(0.0072766375 -0.016708681 0)
(0.010088422 -0.016215199 0)
(0.012802514 -0.01556483 0)
(0.015392666 -0.014763985 0)
(0.017833856 -0.013820547 0)
(0.020102526 -0.012743781 0)
(0.022176813 -0.011544244 0)
(0.024036755 -0.010233668 0)
(0.025664485 -0.0088248438 0)
(0.027044392 -0.0073314916 0)
(0.028163277 -0.0057681251 0)
(0.029010467 -0.0041499089 0)
(0.029577922 -0.002492511 0)
(0.029860302 -0.0008119506 0)
(0.029855021 0.00087555646 0)
(0.029562269 0.0025537547 0)
(0.028985003 0.0042065062 0)
(0.028128919 0.0058179462 0)
(0.027002388 0.0073726365 0)
(0.025616378 0.0088557134 0)
(0.023984336 0.010253028 0)
(0.022122057 0.011551282 0)
(0.020047527 0.012738146 0)
(0.017780744 0.013802377 0)
(0.015343522 0.014733913 0)
(0.012759286 0.015523969 0)
(0.010052841 0.016165106 0)
(0.0072501367 0.016651298 0)
(0.0043780269 0.016977981 0)
(0.0014640129 0.017142092 0)
(-0.0015354936 0.02012801 0)
(-0.004591787 0.019935322 0)
(-0.0076041357 0.01955175 0)
(-0.010543698 0.018980889 0)
(-0.013382312 0.018228095 0)
(-0.016092759 0.017300439 0)
(-0.018649018 0.016206651 0)
(-0.02102652 0.014957045 0)
(-0.023202376 0.013563431 0)
(-0.025155605 0.012039011 0)
(-0.026867336 0.010398262 0)
(-0.028320997 0.0086568021 0)
(-0.029502478 0.0068312497 0)
(-0.030400277 0.0049390633 0)
(-0.031005612 0.0029983766 0)
(-0.031312517 0.0010278234 0)
(-0.031317898 -0.00095364262 0)
(-0.031021567 -0.002926932 0)
(-0.030426249 -0.0048730041 0)
(-0.029537555 -0.0067730517 0)
(-0.028363928 -0.0086086819 0)
(-0.026916568 -0.010362094 0)
(-0.025209325 -0.012016253 0)
(-0.023258571 -0.013555053 0)
(-0.021083045 -0.01496348 0)
(-0.018703679 -0.016227761 0)
(-0.016143399 -0.017335502 0)
(-0.013426905 -0.018275822 0)
(-0.010580437 -0.019039464 0)
(-0.007631518 -0.019618898 0)
(-0.0046086838 -0.0200084 0)
(-0.0015412049 -0.020204119 0)
(0.001541205 -0.020204119 0)
(0.0046086838 -0.0200084 0)
(0.007631518 -0.019618898 0)
(0.010580437 -0.019039464 0)
(0.013426905 -0.018275822 0)
(0.016143399 -0.017335502 0)
(0.018703679 -0.016227761 0)
(0.021083045 -0.01496348 0)
(0.023258571 -0.013555053 0)
(0.025209325 -0.012016253 0)
(0.026916568 -0.010362094 0)
(0.028363928 -0.0086086819 0)
(0.029537555 -0.0067730517 0)
(0.030426249 -0.0048730041 0)
(0.031021567 -0.002926932 0)
(0.031317898 -0.00095364262 0)
(0.031312517 0.0010278234 0)
(0.031005612 0.0029983766 0)
(0.030400277 0.0049390633 0)
(0.029502478 0.0068312497 0)
(0.028320997 0.0086568021 0)
(0.026867336 0.010398262 0)
(0.025155605 0.012039011 0)
(0.023202376 0.013563431 0)
(0.02102652 0.014957045 0)
(0.018649018 0.016206651 0)
(0.016092759 0.017300439 0)
(0.013382312 0.018228095 0)
(0.010543698 0.018980889 0)
(0.0076041357 0.01955175 0)
(0.004591787 0.019935322 0)
(0.0015354936 0.02012801 0)
(-0.0016206487 0.023269178 0)
(-0.0048464401 0.023046431 0)
(-0.0080258581 0.022603021 0)
(-0.011128466 0.0219431 0)
(-0.01412454 0.021072854 0)
(-0.016985353 0.020000452 0)
(-0.019683438 0.018735981 0)
(-0.022192856 0.01729136 0)
(-0.024489441 0.015680237 0)
(-0.026551036 0.013917874 0)
(-0.028357715 0.012021007 0)
(-0.029891976 0.010007697 0)
(-0.031138919 0.0078971622 0)
(-0.032086402 0.0057095951 0)
(-0.032725157 0.003465969 0)
(-0.033048894 0.0011878349 0)
(-0.033054359 -0.0011028883 0)
(-0.032741368 -0.0033841278 0)
(-0.032112814 -0.0056338708 0)
(-0.031174634 -0.0078303781 0)
(-0.029935755 -0.0099523926 0)
(-0.028408008 -0.011979344 0)
(-0.026606019 -0.013891547 0)
(-0.024547069 -0.015670392 0)
(-0.022250934 -0.017298528 0)
(-0.019739703 -0.018760036 0)
(-0.017037566 -0.020040592 0)
(-0.014170584 -0.021127616 0)
(-0.011166445 -0.022010404 0)
(-0.0080541912 -0.022680247 0)
(-0.0048639346 -0.023130525 0)
(-0.0016265639 -0.023356785 0)
(0.0016265639 -0.023356785 0)
(0.0048639346 -0.023130525 0)
(0.0080541912 -0.022680247 0)
(0.011166445 -0.022010404 0)
(0.014170584 -0.021127616 0)
(0.017037566 -0.020040592 0)
(0.019739703 -0.018760036 0)
(0.022250934 -0.017298528 0)
(0.024547069 -0.015670392 0)
(0.026606019 -0.013891547 0)
(0.028408008 -0.011979344 0)
(0.029935755 -0.0099523926 0)
(0.031174634 -0.0078303781 0)
(0.032112814 -0.0056338708 0)
(0.032741368 -0.0033841278 0)
(0.033054359 -0.0011028883 0)
(0.033048894 0.0011878349 0)
(0.032725157 0.003465969 0)
(0.032086402 0.0057095951 0)
(0.031138919 0.0078971622 0)
(0.029891976 0.010007697 0)
(0.028357715 0.012021007 0)
(0.026551036 0.013917874 0)
(0.024489441 0.015680237 0)
(0.022192856 0.01729136 0)
(0.019683438 0.018735981 0)
(0.016985353 0.020000452 0)
(0.01412454 0.021072854 0)
(0.011128466 0.0219431 0)
(0.0080258581 0.022603021 0)
(0.0048464401 0.023046431 0)
(0.0016206487 0.023269178 0)
(-0.0017218242 0.026594891 0)
(-0.0051490028 0.026340325 0)
(-0.0085269247 0.025833574 0)
(-0.011823259 0.025079376 0)
(-0.01500643 0.024084794 0)
(-0.018045916 0.022859158 0)
(-0.020912532 0.021413987 0)
(-0.023578711 0.019762893 0)
(-0.026018765 0.017921472 0)
(-0.028209143 0.015907163 0)
(-0.030128656 0.013739095 0)
(-0.031758696 0.011437919 0)
(-0.033083423 0.0090256077 0)
(-0.03408993 0.0065252533 0)
(-0.034768374 0.0039608414 0)
(-0.035112076 0.0013570175 0)
(-0.035117597 -0.0012611555 0)
(-0.03478476 -0.0038684428 0)
(-0.034116662 -0.0064396841 0)
(-0.033119632 -0.0089500369 0)
(-0.031803176 -0.011375215 0)
(-0.030179878 -0.01369172 0)
(-0.028265287 -0.015877065 0)
(-0.026077766 -0.017909996 0)
(-0.023638325 -0.01977069 0)
(-0.020970425 -0.021440961 0)
(-0.018099756 -0.022904442 0)
(-0.015053999 -0.024146754 0)
(-0.011862557 -0.025155662 0)
(-0.0085562765 -0.025921208 0)
(-0.0051671408 -0.026435823 0)
(-0.0017279595 -0.026694412 0)
(0.0017279595 -0.026694412 0)
(0.0051671408 -0.026435823 0)
(0.0085562765 -0.025921208 0)
(0.011862557 -0.025155662 0)
(0.015053999 -0.024146754 0)
(0.018099756 -0.022904442 0)
(0.020970425 -0.021440961 0)
(0.023638325 -0.01977069 0)
(0.026077766 -0.017909996 0)
(0.028265287 -0.015877065 0)
(0.030179878 -0.01369172 0)
(0.031803176 -0.011375215 0)
(0.033119632 -0.0089500369 0)
(0.034116662 -0.0064396841 0)
(0.03478476 -0.0038684428 0)
(0.035117597 -0.0012611555 0)
(0.035112076 0.0013570175 0)
(0.034768374 0.0039608414 0)
(0.03408993 0.0065252533 0)
(0.033083423 0.0090256077 0)
(0.031758696 0.011437919 0)
(0.030128656 0.013739095 0)
(0.028209143 0.015907163 0)
(0.026018765 0.017921472 0)
(0.023578711 0.019762893 0)
(0.020912532 0.021413987 0)
(0.018045916 0.022859158 0)
(0.01500643 0.024084794 0)
(0.011823259 0.025079376 0)
(0.0085269247 0.025833574 0)
(0.0051490028 0.026340325 0)
(0.0017218242 0.026594891 0)
(-0.0018420875 0.030139782 0)
(-0.0055086481 0.029851311 0)
(-0.0091225283 0.02927706 0)
(-0.012649147 0.028422395 0)
(-0.01605473 0.027295309 0)
(-0.019306622 0.025906363 0)
(-0.022373596 0.024268597 0)
(-0.025226147 0.022397428 0)
(-0.02783678 0.02031052 0)
(-0.030180276 0.018027632 0)
(-0.032233946 0.015570446 0)
(-0.033977863 0.012962371 0)
(-0.035395063 0.010228324 0)
(-0.036471729 0.007394494 0)
(-0.037197327 0.0044880858 0)
(-0.037564726 0.001537051 0)
(-0.037570261 -0.0014301892 0)
(-0.037213772 -0.0043850252 0)
(-0.036498601 -0.0072989397 0)
(-0.035431551 -0.010143784 0)
(-0.034022818 -0.012892047 0)
(-0.032285889 -0.015517114 0)
(-0.03023741 -0.017993523 0)
(-0.027897034 -0.020297201 0)
(-0.025287237 -0.022405701 0)
(-0.022433111 -0.024298424 0)
(-0.019362129 -0.025956826 0)
(-0.016103892 -0.027364613 0)
(-0.012689844 -0.028507916 0)
(-0.0091529703 -0.029375448 0)
(-0.0055274792 -0.029958623 0)
(-0.0018484605 -0.030251664 0)
(0.0018484605 -0.030251664 0)
(0.0055274792 -0.029958623 0)
(0.0091529703 -0.029375448 0)
(0.012689844 -0.028507916 0)
(0.016103892 -0.027364613 0)
(0.019362129 -0.025956826 0)
(0.022433111 -0.024298424 0)
(0.025287237 -0.022405701 0)
(0.027897034 -0.020297201 0)
(0.03023741 -0.017993523 0)
(0.032285889 -0.015517114 0)
(0.034022818 -0.012892047 0)
(0.035431551 -0.010143784 0)
(0.036498601 -0.0072989397 0)
(0.037213772 -0.0043850252 0)
(0.037570261 -0.0014301892 0)
(0.037564726 0.001537051 0)
(0.037197327 0.0044880858 0)
(0.036471729 0.007394494 0)
(0.035395063 0.010228324 0)
(0.033977863 0.012962371 0)
(0.032233946 0.015570446 0)
(0.030180276 0.018027632 0)
(0.02783678 0.02031052 0)
(0.025226147 0.022397428 0)
(0.022373596 0.024268597 0)
(0.019306622 0.025906363 0)
(0.01605473 0.027295309 0)
(0.012649147 0.028422395 0)
(0.0091225283 0.02927706 0)
(0.0055086481 0.029851311 0)
(0.0018420875 0.030139782 0)
(-0.0019853333 0.033945387 0)
(-0.0059370238 0.033620529 0)
(-0.0098319602 0.03297384 0)
(-0.013632885 0.032011352 0)
(-0.017303404 0.030742052 0)
(-0.020808325 0.029177818 0)
(-0.024113986 0.027333319 0)
(-0.027188575 0.0252259 0)
(-0.030002439 0.02287544 0)
(-0.03252837 0.020304187 0)
(-0.034741888 0.017536561 0)
(-0.036621484 0.014598936 0)
(-0.038148854 0.011519395 0)
(-0.03930909 0.0083274622 0)
(-0.040090837 0.0050538077 0)
(-0.04048642 0.0017299441 0)
(-0.040491912 -0.001612092 0)
(-0.040107177 -0.0049400615 0)
(-0.039335855 -0.0082218405 0)
(-0.038185321 -0.011425732 0)
(-0.0366666 -0.014520769 0)
(-0.034794256 -0.017476999 0)
(-0.032586251 -0.020265772 0)
(-0.030063773 -0.022860003 0)
(-0.027251044 -0.025234432 0)
(-0.024175099 -0.027365874 0)
(-0.020865534 -0.029233453 0)
(-0.017354233 -0.030818822 0)
(-0.013675069 -0.032106358 0)
(-0.0098635763 -0.03308334 0)
(-0.0059566064 -0.033740097 0)
(-0.0019919649 -0.034070113 0)
(0.0019919649 -0.034070113 0)
(0.0059566064 -0.033740097 0)
(0.0098635763 -0.03308334 0)
(0.013675069 -0.032106358 0)
(0.017354233 -0.030818822 0)
(0.020865534 -0.029233453 0)
(0.024175099 -0.027365874 0)
(0.027251044 -0.025234432 0)
(0.030063773 -0.022860003 0)
(0.032586251 -0.020265772 0)
(0.034794256 -0.017476999 0)
(0.0366666 -0.014520769 0)
(0.038185321 -0.011425732 0)
(0.039335855 -0.0082218405 0)
(0.040107177 -0.0049400615 0)
(0.040491912 -0.001612092 0)
(0.04048642 0.0017299441 0)
(0.040090837 0.0050538077 0)
(0.03930909 0.0083274622 0)
(0.038148854 0.011519395 0)
(0.036621484 0.014598936 0)
(0.034741888 0.017536561 0)
(0.03252837 0.020304187 0)
(0.030002439 0.02287544 0)
(0.027188575 0.0252259 0)
(0.024113986 0.027333319 0)
(0.020808325 0.029177818 0)
(0.017303404 0.030742052 0)
(0.013632885 0.032011352 0)
(0.0098319602 0.03297384 0)
(0.0059370238 0.033620529 0)
(0.0019853333 0.033945387 0)
(-0.0021563312 0.038061881 0)
(-0.0064483938 0.037697681 0)
(-0.010678844 0.03697267 0)
(-0.014807233 0.035893595 0)
(-0.018794042 0.034470515 0)
(-0.022601051 0.032716723 0)
(-0.026191693 0.03064864 0)
(-0.0295314 0.02828569 0)
(-0.032587936 0.025650142 0)
(-0.03533172 0.022766928 0)
(-0.037736121 0.019663429 0)
(-0.039777741 0.01636923 0)
(-0.041436663 0.012915846 0)
(-0.042696673 0.0093364183 0)
(-0.043545434 0.005665383 0)
(-0.043974618 0.0019381194 0)
(-0.043979994 -0.0018094122 0)
(-0.043561455 -0.0055410366 0)
(-0.042723009 -0.0092207248 0)
(-0.041472719 -0.012812944 0)
(-0.039822609 -0.016282993 0)
(-0.037788537 -0.019597323 0)
(-0.035390036 -0.022723846 0)
(-0.03265013 -0.025632227 0)
(-0.029595127 -0.028294178 0)
(-0.026254378 -0.030683722 0)
(-0.022660012 -0.032777467 0)
(-0.018846638 -0.034554842 0)
(-0.014851024 -0.035998329 0)
(-0.010711743 -0.03709366 0)
(-0.0064688034 -0.037829979 0)
(-0.0021632484 -0.038199978 0)
(0.0021632484 -0.038199978 0)
(0.0064688034 -0.037829979 0)
(0.010711743 -0.03709366 0)
(0.014851024 -0.035998329 0)
(0.018846638 -0.034554842 0)
(0.022660012 -0.032777467 0)
(0.026254378 -0.030683722 0)
(0.029595127 -0.028294178 0)
(0.03265013 -0.025632227 0)
(0.035390036 -0.022723846 0)
(0.037788537 -0.019597323 0)
(0.039822609 -0.016282993 0)
(0.041472719 -0.012812944 0)
(0.042723009 -0.0092207248 0)
(0.043561455 -0.0055410366 0)
(0.043979994 -0.0018094122 0)
(0.043974618 0.0019381194 0)
(0.043545434 0.005665383 0)
(0.042696673 0.0093364183 0)
(0.041436663 0.012915846 0)
(0.039777741 0.01636923 0)
(0.037736121 0.019663429 0)
(0.03533172 0.022766928 0)
(0.032587936 0.025650142 0)
(0.0295314 0.02828569 0)
(0.026191693 0.03064864 0)
(0.022601051 0.032716723 0)
(0.018794042 0.034470515 0)
(0.014807233 0.035893595 0)
(0.010678844 0.03697267 0)
(0.0064483938 0.037697681 0)
(0.0021563312 0.038061881 0)
(-0.0023606691 0.042549832 0)
(-0.0070594687 0.042142765 0)
(-0.011690857 0.041332407 0)
(-0.016210573 0.040126285 0)
(-0.020575368 0.038535617 0)
(-0.024743407 0.036575229 0)
(-0.028674651 0.034263443 0)
(-0.032331237 0.031621936 0)
(-0.035677845 0.028675574 0)
(-0.038682044 0.025452207 0)
(-0.041314631 0.02198244 0)
(-0.043549937 0.018299361 0)
(-0.045366113 0.014438237 0)
(-0.046745375 0.01043617 0)
(-0.047674206 0.006331718 0)
(-0.048143502 0.002164498 0)
(-0.048148666 -0.0020252331 0)
(-0.047689639 -0.006196996 0)
(-0.046770875 -0.010310498 0)
(-0.045401272 -0.014326027 0)
(-0.043594055 -0.01820482 0)
(-0.041366634 -0.021909419 0)
(-0.038740424 -0.025404004 0)
(-0.035740646 -0.028654715 0)
(-0.0323961 -0.031629968 0)
(-0.028738903 -0.034300758 0)
(-0.024804207 -0.036640949 0)
(-0.020629876 -0.038627554 0)
(-0.016256134 -0.040240987 0)
(-0.011725186 -0.041465288 0)
(-0.0070808066 -0.042288315 0)
(-0.0023679078 -0.042701886 0)
(0.0023679078 -0.042701886 0)
(0.0070808066 -0.042288315 0)
(0.011725186 -0.041465288 0)
(0.016256134 -0.040240987 0)
(0.020629876 -0.038627554 0)
(0.024804207 -0.036640949 0)
(0.028738903 -0.034300758 0)
(0.0323961 -0.031629968 0)
(0.035740646 -0.028654715 0)
(0.038740424 -0.025404004 0)
(0.041366634 -0.021909419 0)
(0.043594055 -0.01820482 0)
(0.045401272 -0.014326027 0)
(0.046770875 -0.010310498 0)
(0.047689639 -0.006196996 0)
(0.048148666 -0.0020252331 0)
(0.048143502 0.002164498 0)
(0.047674206 0.006331718 0)
(0.046745375 0.01043617 0)
(0.045366113 0.014438237 0)
(0.043549937 0.018299361 0)
(0.041314631 0.02198244 0)
(0.038682044 0.025452207 0)
(0.035677845 0.028675574 0)
(0.032331237 0.031621936 0)
(0.028674651 0.034263443 0)
(0.024743407 0.036575229 0)
(0.020575368 0.038535617 0)
(0.016210573 0.040126285 0)
(0.011690857 0.041332407 0)
(0.0070594687 0.042142765 0)
(0.0023606691 0.042549832 0)
(-0.0026045361 0.047481715 0)
(-0.0077887581 0.047027569 0)
(-0.012898653 0.046123479 0)
(-0.017885414 0.04477782 0)
(-0.022701347 0.043003075 0)
(-0.0273003 0.040815744 0)
(-0.031638096 0.038236226 0)
(-0.03567294 0.035288659 0)
(-0.039365823 0.032000746 0)
(-0.042680914 0.028403535 0)
(-0.045585926 0.024531168 0)
(-0.048052475 0.020420585 0)
(-0.050056391 0.016111187 0)
(-0.051578009 0.011644444 0)
(-0.052602396 0.007063473 0)
(-0.053119523 0.0024125741 0)
(-0.053124361 -0.0022632496 0)
(-0.052616914 -0.0069187711 0)
(-0.051602183 -0.011509005 0)
(-0.050090071 -0.015989648 0)
(-0.048095249 -0.020317487 0)
(-0.045636985 -0.024450785 0)
(-0.042738945 -0.02834964 0)
(-0.039428971 -0.031976336 0)
(-0.035738834 -0.035295686 0)
(-0.031703954 -0.038275363 0)
(-0.027363087 -0.040886228 0)
(-0.022757977 -0.043102636 0)
(-0.017932974 -0.04490273 0)
(-0.012934612 -0.046268691 0)
(-0.0078111593 -0.047186957 0)
(-0.0026121441 -0.047648389 0)
(0.002612144 -0.047648389 0)
(0.0078111593 -0.047186957 0)
(0.012934612 -0.046268691 0)
(0.017932974 -0.04490273 0)
(0.022757977 -0.043102636 0)
(0.027363087 -0.040886228 0)
(0.031703954 -0.038275363 0)
(0.035738834 -0.035295686 0)
(0.039428971 -0.031976336 0)
(0.042738945 -0.02834964 0)
(0.045636985 -0.024450785 0)
(0.048095249 -0.020317487 0)
(0.050090071 -0.015989648 0)
(0.051602183 -0.011509005 0)
(0.052616914 -0.0069187711 0)
(0.053124361 -0.0022632496 0)
(0.053119523 0.0024125741 0)
(0.052602396 0.007063473 0)
(0.051578009 0.011644444 0)
(0.050056391 0.016111187 0)
(0.048052475 0.020420585 0)
(0.045585926 0.024531168 0)
(0.042680914 0.028403535 0)
(0.039365823 0.032000746 0)
(0.03567294 0.035288659 0)
(0.031638096 0.038236226 0)
(0.0273003 0.040815744 0)
(0.022701347 0.043003075 0)
(0.017885414 0.04477782 0)
(0.012898653 0.046123479 0)
(0.0077887581 0.047027569 0)
(0.0026045361 0.047481715 0)
(-0.0028942819 0.052942798 0)
(-0.0086552501 0.052436556 0)
(-0.014333679 0.051428744 0)
(-0.019875364 0.049928668 0)
(-0.025227329 0.047950204 0)
(-0.030338303 0.045511695 0)
(-0.035159189 0.042635816 0)
(-0.039643522 0.039349418 0)
(-0.043747913 0.035683326 0)
(-0.047432481 0.031672115 0)
(-0.050661272 0.027353834 0)
(-0.053402659 0.022769688 0)
(-0.055629706 0.017963666 0)
(-0.0573205 0.012982103 0)
(-0.058458423 0.0078731931 0)
(-0.059032338 0.0026864577 0)
(-0.059036713 -0.0025278124 0)
(-0.058471638 -0.0077191103 0)
(-0.057342774 -0.012837245 0)
(-0.055661233 -0.017832832 0)
(-0.053443412 -0.022657748 0)
(-0.050710794 -0.027265537 0)
(-0.047489722 -0.031611805 0)
(-0.043811152 -0.035654589 0)
(-0.039710382 -0.039354727 0)