/*--------------------------------*- C++ -*----------------------------------*\
| =========                 |                                                 |
| \\      /  F ield         | OpenFOAM: The Open Source CFD Toolbox           |
|  \\    /   O peration     | Version:  2306                                  |
|   \\  /    A nd           | Website:  www.openfoam.com                      |
|    \\/     M anipulation  |                                                 |
\*---------------------------------------------------------------------------*/
FoamFile
{
    version     2.0;
    format      ascii;
    arch        "LSB;label=32;scalar=64";
    class       volVectorField;
    location    "0.46";
    object      U;
}
// * * * * * * * * * * * * * * * * * * * * * * * * * * * * * * * * * * * * * //

dimensions      [0 1 -1 0 0 0 0];

internalField   nonuniform List<vector> 
6400
(
(-0.0017835867 -0.066778351 -5.8764769e-18)
(-0.0039607079 -0.066423879 -2.0960843e-17)
(-0.0064001052 -0.06560186 -5.3306156e-17)
(-0.0086351381 -0.064519137 -1.461296e-17)
(-0.01078956 -0.063266707 -1.9084043e-17)
(-0.012811321 -0.061886227 4.697775e-17)
(-0.014696366 -0.06040188 3.2733728e-17)
(-0.016448 -0.058828139 5.7391362e-18)
(-0.01806837 -0.057178724 1.4549713e-18)
(-0.019561854 -0.055466511 -1.4785812e-17)
(-0.02093396 -0.053702756 -1.0715629e-17)
(-0.022190733 -0.051896865 -7.0790638e-18)
(-0.02333792 -0.050056206 -9.1505058e-18)
(-0.024380635 -0.048186524 -3.1349462e-18)
(-0.025323004 -0.046292526 2.0347151e-18)
(-0.026168148 -0.044378012 6.8146962e-18)
(-0.026918374 -0.042446332 1.0685625e-18)
(-0.02757522 -0.040500758 5.0180787e-18)
(-0.028139596 -0.038544803 8.806763e-18)
(-0.028611959 -0.036582445 1.0896299e-17)
(-0.028992761 -0.034618137 7.5964674e-18)
(-0.029282512 -0.032656736 5.2102603e-18)
(-0.029482006 -0.03070359 2.1077752e-18)
(-0.029592476 -0.028764305 8.4629563e-18)
(-0.029615631 -0.026844668 1.4738423e-17)
(-0.029553713 -0.024950512 4.8488871e-18)
(-0.02940949 -0.023087571 2.0804548e-19)
(-0.029186217 -0.021261394 5.035297e-18)
(-0.028887605 -0.019477282 1.06402e-17)
(-0.02851778 -0.017740186 1.3109568e-17)
(-0.028081219 -0.016054637 4.9800886e-18)
(-0.027582673 -0.01442471 8.9391208e-19)
(-0.02702711 -0.012853991 1.6430027e-18)
(-0.026419648 -0.011345559 5.3521249e-18)
(-0.025765497 -0.009901982 7.80994e-18)
(-0.025069898 -0.0085253175 -4.8343438e-19)
(-0.024338075 -0.0072171243 -1.3065908e-18)
(-0.023575186 -0.0059784788 1.366422e-18)
(-0.022786282 -0.0048099969 3.1250904e-18)
(-0.021976272 -0.0037118578 6.0960311e-18)
(-0.021149889 -0.0026838315 3.7515287e-18)
(-0.02031165 -0.0017253175 5.3225812e-19)
(-0.019465839 -0.00083539361 -3.8780549e-18)
(-0.018616747 -1.274002e-05 -3.0909763e-18)
(-0.017767917 0.00074416534 -1.8661534e-19)
(-0.016922979 0.0014371025 -5.328999e-19)
(-0.016085265 0.0020680986 -3.0509486e-18)
(-0.015257777 0.0026393524 -3.4317487e-18)
(-0.014443251 0.003153227 -3.371064e-18)
(-0.013644156 0.0036122138 -4.0262814e-19)
(-0.012862687 0.0040189069 1.4891438e-18)
(-0.01210078 0.0043759776 1.9795806e-19)
(-0.01136011 0.0046861501 -1.3305256e-20)
(-0.010642103 0.0049521782 -9.376766e-19)
(-0.0099479482 0.0051768254 -1.9630982e-19)
(-0.0092786046 0.0053628444 1.5158873e-18)
(-0.008634815 0.00551296 1.6150727e-18)
(-0.0080171183 0.005629852 2.6921623e-19)
(-0.0074258626 0.0057161414 -1.1026256e-18)
(-0.0068612185 0.0057743774 -2.2913537e-19)
(-0.0063231932 0.0058070262 9.4874806e-19)
(-0.0058116449 0.0058164608 3.4466442e-19)
(-0.0053262965 0.0058049538 -1.2387626e-18)
(-0.0048667501 0.0057746697 -1.3297147e-18)
(-0.0044325004 0.005727661 9.5735056e-20)
(-0.0040229492 0.0056658635 7.2122977e-19)
(-0.003637418 0.0055910943 7.2095345e-19)
(-0.0032751604 0.0055050509 1.6817379e-19)
(-0.0029353749 0.0054093105 -4.6917041e-19)
(-0.0026172168 0.0053053315 5.0254641e-19)
(-0.0023198073 0.0051944558 8.3526622e-19)
(-0.0020422459 0.0050779107 1.9567272e-20)
(-0.0017836175 0.004956814 -4.1151563e-19)
(-0.0015430034 0.0048321773 -7.7777305e-19)
(-0.0013194866 0.0047049087 4.4804373e-20)
(-0.001112153 0.0045758233 7.5044122e-20)
(-0.00092011874 0.0044456446 -3.7611026e-20)
(-0.0007425022 0.004315009 -3.4922845e-19)
(-0.00057846237 0.0041844739 -5.0640106e-19)
(-0.00042718747 0.0040545317 -2.7593729e-19)
(-0.00160504 -0.061930909 1.8746961e-17)
(-0.0035722832 -0.06164172 -5.3926589e-17)
(-0.0057838517 -0.060956002 -8.6490604e-18)
(-0.0078241699 -0.060042211 3.8088416e-18)
(-0.0098033676 -0.058971058 2.6886424e-17)
(-0.011671126 -0.057776938 3.5328032e-17)
(-0.013423679 -0.056479886 2.28956e-17)
(-0.015062055 -0.055092738 7.9246521e-18)
(-0.016586915 -0.053627205 -9.2363676e-18)
(-0.018000471 -0.052094667 -6.9400242e-18)
(-0.019305919 -0.050505242 -1.7824089e-18)
(-0.020507031 -0.048867809 7.7732176e-19)
(-0.021607524 -0.047189822 3.4889078e-19)
(-0.022610926 -0.045477513 3.7158694e-18)
(-0.023520192 -0.043736115 1.6886555e-18)
(-0.024337594 -0.041970325 -1.0436101e-18)
(-0.025064946 -0.040184315 9.2088631e-18)
(-0.025703659 -0.038382124 8.5798763e-18)
(-0.026254731 -0.036567789 1.0459011e-17)
(-0.026718855 -0.034745574 8.5444521e-18)
(-0.027096745 -0.032920036 1.308434e-17)
(-0.027389171 -0.031095962 1.1246526e-17)
(-0.027597129 -0.029278437 7.2441087e-18)
(-0.027721961 -0.027472712 1.4694292e-17)
(-0.027765394 -0.025684128 1.5034543e-18)
(-0.027729583 -0.023918039 2.5871246e-18)
(-0.027617118 -0.022179701 8.6319309e-18)
(-0.027430997 -0.020474183 1.0485608e-17)
(-0.027174599 -0.01880633 1.5506024e-17)
(-0.026851663 -0.017180679 7.4103388e-19)
(-0.026466231 -0.015601403 1.3286589e-18)
(-0.026022591 -0.014072274 6.0426816e-18)
(-0.025525225 -0.012596637 6.2049495e-18)
(-0.024978755 -0.011177391 9.6657137e-18)
(-0.024387895 -0.0098169801 -2.8451623e-18)
(-0.023757397 -0.0085173973 -1.9735368e-19)
(-0.023092009 -0.0072801875 2.8591356e-18)
(-0.022396434 -0.0061064617 3.725159e-18)
(-0.021675286 -0.004996914 5.576135e-18)
(-0.020933065 -0.0039518417 -2.1095846e-18)
(-0.020174127 -0.0029711674 -3.035626e-18)
(-0.019402649 -0.0020544655 -2.3379669e-18)
(-0.0186226 -0.0012010185 -4.8182575e-18)
(-0.017837745 -0.00040981006 -2.9846033e-18)
(-0.017051868 0.0003206241 -1.0557571e-18)
(-0.016268002 0.00099163258 -9.1395452e-19)
(-0.015489359 0.0016050236 -3.3296985e-18)
(-0.014718768 0.0021627235 -4.3530107e-18)
(-0.01395883 0.0026668125 -3.2062392e-18)
(-0.013211898 0.0031194993 -5.8352449e-19)
(-0.012480081 0.0035230953 4.6101336e-19)
(-0.011765246 0.003879992 -6.7350371e-19)
(-0.011069026 0.0041926376 -6.3030046e-19)
(-0.010392826 0.0044635172 -1.4276435e-18)
(-0.009737832 0.0046951328 -9.9045983e-19)
(-0.0091050188 0.0048899851 3.3242971e-19)
(-0.0084951617 0.005050557 5.9707878e-19)
(-0.0079088465 0.005179298 4.2076254e-19)
(-0.0073464815 0.0052786106 -1.372262e-18)
(-0.0068083094 0.0053508385 -1.6234762e-18)
(-0.0062944197 0.0053982556 -3.7886566e-19)
(-0.0058047614 0.0054230562 -7.3757424e-19)
(-0.0053391556 0.0054273483 -1.5079217e-18)
(-0.0048973081 0.0054131456 -1.4972304e-18)
(-0.0044788221 0.0053823635 -6.2093421e-19)
(-0.0040832104 0.0053368145 -1.3787612e-20)
(-0.0037099077 0.0052782063 5.3990308e-20)
(-0.0033582818 0.0052081394 -1.2329969e-19)
(-0.003027645 0.0051281069 -5.7317765e-19)
(-0.0027172648 0.0050394952 -4.8809325e-20)
(-0.0024263729 0.0049435853 3.604875e-19)
(-0.0021541756 0.0048415546 -6.1161595e-20)
(-0.0018998617 0.0047344815 -5.6773856e-19)
(-0.0016626122 0.004623344 -7.8611121e-19)
(-0.0014416052 0.0045090327 -2.292935e-19)
(-0.0012360181 0.0043923451 -1.7191235e-19)
(-0.0010450488 0.004273992 -3.4570913e-19)
(-0.00086789531 0.0041546194 -5.4050824e-19)
(-0.00070378987 0.0040347787 -5.319119e-19)
(-0.00055199034 0.0039149749 -4.0671905e-19)
(-0.0014503012 -0.057552591 2.3221755e-17)
(-0.0032340771 -0.057314411 -3.3606397e-17)
(-0.0052450113 -0.056738017 1.4290765e-18)
(-0.0071115275 -0.055961471 2.5351532e-17)
(-0.0089323711 -0.055039767 2.8374409e-17)
(-0.010659327 -0.054001251 1.3936244e-17)
(-0.01228881 -0.0528625 2.3901965e-17)
(-0.013820174 -0.051634675 9.1544339e-18)
(-0.015252906 -0.050327943 7.9284282e-18)
(-0.016587646 -0.048952318 6.5873004e-18)
(-0.017825884 -0.04751698 6.4216729e-18)
(-0.018969774 -0.046030193 -4.968141e-18)
(-0.020021562 -0.044499276 5.1360141e-21)
(-0.020983507 -0.042930554 -3.8636616e-18)
(-0.021857669 -0.041329561 -2.0535858e-18)
(-0.022645658 -0.039701376 4.6047476e-18)
(-0.023348829 -0.038050656 2.0718678e-18)
(-0.023968377 -0.036381903 -4.8699428e-19)
(-0.024505253 -0.034699439 -4.1592565e-18)
(-0.024960244 -0.033007711 -6.9228457e-18)
(-0.025334186 -0.031311289 -6.9504586e-18)
(-0.025627985 -0.029614874 -5.3665849e-18)
(-0.025842745 -0.027923319 3.6396969e-18)
(-0.025979845 -0.026241567 1.7124222e-18)
(-0.026040984 -0.024574589 5.2297532e-18)
(-0.026028222 -0.022927332 4.9122556e-18)
(-0.025943978 -0.021304638 -1.7325193e-18)
(-0.025791016 -0.019711169 2.218345e-18)
(-0.025572421 -0.018151377 2.5365397e-18)
(-0.025291588 -0.016629438 6.0012058e-18)
(-0.024952178 -0.01514921 6.3627511e-18)
(-0.024558072 -0.013714195 -1.2785739e-18)
(-0.024113323 -0.012327515 6.6184107e-19)
(-0.023622115 -0.010991902 7.0524048e-19)
(-0.023088721 -0.0097096801 4.1271709e-18)
(-0.022517456 -0.0084827716 6.6551727e-18)
(-0.021912641 -0.0073126974 -1.8435723e-18)
(-0.021278565 -0.0062005873 1.9607396e-19)
(-0.020619449 -0.0051471932 -8.0958598e-19)
(-0.019939419 -0.0041529063 8.8133227e-19)
(-0.019242481 -0.0032177756 5.8903667e-18)
(-0.01853249 -0.0023415288 -2.7502397e-20)
(-0.017813123 -0.0015236037 -3.3995644e-18)
(-0.017087873 -0.00076318351 -1.4755958e-18)
(-0.016360219 -5.9148131e-05 -7.9592752e-19)
(-0.015633103 0.00058983824 -6.4318109e-19)
(-0.014909432 0.001185221 -2.5101723e-18)
(-0.014191925 0.0017286998 -2.5832979e-18)
(-0.013483035 0.0022221039 -1.6382466e-18)
(-0.012785 0.0026673882 3.1181838e-19)
(-0.012099836 0.0030666093 6.8017708e-19)
(-0.011429343 0.0034219056 -2.5864111e-19)
(-0.010775105 0.0037354755 -6.598336e-19)
(-0.010138498 0.0040095588 -6.8431294e-19)
(-0.0095206985 0.0042464189 1.056641e-18)
(-0.0089226876 0.0044483256 -2.3436127e-19)
(-0.0083452626 0.0046175395 -1.2372021e-19)
(-0.0077890452 0.0047562975 8.2312991e-19)
(-0.0072544921 0.0048668005 -9.9833866e-20)
(-0.006741906 0.0049512014 -5.0194411e-20)
(-0.0062514456 0.0050115951 -1.0000777e-18)
(-0.0057831378 0.0050500092 -1.0730303e-18)
(-0.0053368884 0.0050683968 -5.0609803e-19)
(-0.0049124939 0.00506863 -4.3805072e-19)
(-0.0045096524 0.0050524943 3.6195874e-19)
(-0.0041279753 0.0050216852 -3.9328525e-19)
(-0.0037669979 0.0049778051 -1.7481676e-19)
(-0.0034261897 0.0049223614 5.524969e-19)
(-0.0031049647 0.0048567652 1.4932432e-19)
(-0.0028026919 0.0047823321 3.3419438e-19)
(-0.0025187025 0.0047002825 -2.4760785e-19)
(-0.0022523 0.0046117435 -3.2540265e-19)
(-0.0020027682 0.004517752 -1.9377866e-19)
(-0.0017693781 0.0044192524 -1.0714685e-19)
(-0.0015513952 0.0043171109 2.0625029e-19)
(-0.0013480826 0.0042121077 -5.7171186e-19)
(-0.0011587116 0.0041049419 -6.3662953e-19)
(-0.00098255919 0.0039962542 -2.6745607e-19)
(-0.00081892433 0.0038865925 -1.3248039e-19)
(-0.00066712093 0.0037764678 -4.4323183e-21)
(-0.0013154942 -0.053582903 3.9484495e-17)
(-0.0029383206 -0.05338504 4.663884e-17)
(-0.0047720769 -0.052896897 4.6787519e-18)
(-0.0064830983 -0.052232442 7.5140884e-19)
(-0.0081605935 -0.0514345 6.2054677e-18)
(-0.0097586724 -0.050526523 9.9596302e-18)
(-0.011273919 -0.049522137 3.9221747e-18)
(-0.012704494 -0.048431008 9.1067218e-18)
(-0.014048986 -0.047262018 -9.7672034e-19)
(-0.015306953 -0.046023965 -9.801364e-19)
(-0.016478659 -0.044725138 -3.9764917e-19)
(-0.017565083 -0.04337323 -2.9984734e-18)
(-0.018567362 -0.04197522 -5.6390489e-19)
(-0.019486802 -0.040537318 -2.9717754e-18)
(-0.020324727 -0.039065155 4.0106059e-18)
(-0.021082224 -0.037563928 -1.1059028e-17)
(-0.021760286 -0.036038504 -5.3878203e-18)
(-0.02235983 -0.034493594 -5.6686722e-18)
(-0.022881695 -0.03293367 -4.9054228e-18)
(-0.023326671 -0.031363247 4.8092757e-19)
(-0.023695621 -0.029786846 -8.5620011e-18)
(-0.023989504 -0.028209054 -6.0133625e-19)
(-0.02420945 -0.026634506 4.1064121e-18)
(-0.02435683 -0.025067869 8.0467138e-18)
(-0.024433284 -0.023513794 1.1270491e-17)
(-0.024440761 -0.021976878 -1.3043747e-18)
(-0.024381512 -0.020461603 -2.5371469e-19)
(-0.024258086 -0.018972278 4.4654576e-18)
(-0.024073307 -0.017513009 5.9180566e-18)
(-0.02383026 -0.016087662 1.0855493e-17)
(-0.02353227 -0.01469981 -1.6520599e-19)
(-0.023182854 -0.013352714 -2.4592233e-18)
(-0.022785686 -0.012049296 1.4160619e-18)
(-0.022344561 -0.010792128 1.7797227e-18)
(-0.021863359 -0.0095834216 7.5588543e-18)
(-0.021346003 -0.0084250253 -1.1682763e-18)
(-0.020796431 -0.0073184286 -3.6492172e-18)
(-0.020218556 -0.0062647676 -8.2851949e-19)
(-0.019616244 -0.0052648361 6.5630752e-19)
(-0.018993278 -0.0043190992 4.3481419e-18)
(-0.018353344 -0.0034277096 2.7118106e-19)
(-0.017699999 -0.0025905245 -1.7984088e-18)
(-0.017036657 -0.0018071273 -5.7491713e-19)
(-0.016366559 -0.0010768723 -1.0387868e-18)
(-0.015692776 -0.0003988727 -2.1416855e-18)
(-0.015018393 0.00022811136 -1.7794885e-18)
(-0.014345918 0.00080523792 -6.444926e-19)
(-0.013677939 0.0013339935 -1.4525645e-19)
(-0.013016776 0.0018159908 -8.6376096e-19)
(-0.012364557 0.0022529569 -7.5051278e-19)
(-0.01172321 0.0026467195 -9.1883015e-19)
(-0.011094463 0.0029991876 8.3297565e-21)
(-0.010479848 0.0033123328 -9.6044704e-20)
(-0.0098807093 0.0035881721 4.9449591e-19)
(-0.009298205 0.0038287509 1.1950043e-18)
(-0.0087333157 0.0040361275 -1.8938378e-18)
(-0.0081868516 0.0042123584 -8.8417065e-19)
(-0.0076594609 0.0043594849 2.7403047e-19)
(-0.0071516386 0.0044795215 4.5008564e-19)
(-0.006663736 0.0045744445 4.249994e-19)
(-0.00619597 0.004646182 -1.7325187e-18)
(-0.0057484336 0.0046966062 -1.5973402e-18)
(-0.0053211057 0.0047275256 -6.0914176e-19)
(-0.0049138615 0.0047406785 -4.1732851e-21)
(-0.0045264824 0.004737728 6.2975954e-19)
(-0.0041586666 0.0047202584 -7.3674039e-19)
(-0.0038100385 0.0046897716 -4.0632936e-19)
(-0.0034801581 0.0046476853 4.35275e-19)
(-0.0031685307 0.0045953314 1.1186876e-19)
(-0.0028746162 0.0045339562 3.4421796e-19)
(-0.0025978356 0.0044647203 -4.8257911e-19)
(-0.0023375807 0.0043887 -5.8745009e-19)
(-0.0020932217 0.0043068897 -3.7374888e-19)
(-0.0018641124 0.0042202007 -1.0569616e-19)
(-0.001649597 0.0041294695 3.0229619e-19)
(-0.001449017 0.0040354576 -6.5658295e-19)
(-0.0012617144 0.0039388525 -8.2463838e-19)
(-0.0010870375 0.0038402789 -4.5863517e-19)
(-0.00092434671 0.0037402891 -2.9975911e-19)
(-0.0007730132 0.0036393891 1.746835e-19)
(-0.0011973987 -0.049971065 4.3623509e-17)
(-0.0026784409 -0.049805404 4.7793195e-17)
(-0.0043551884 -0.049389026 9.4019216e-18)
(-0.0059267665 -0.048816677 -1.8189599e-17)
(-0.0074743474 -0.04812185 7.9687042e-18)
(-0.0089543737 -0.047323909 -1.8475333e-17)
(-0.010363619 -0.046434123 -1.0120585e-17)
(-0.011699556 -0.045460813 -4.8503428e-18)
(-0.012960108 -0.044411763 -1.9245794e-17)
(-0.01414403 -0.04329472 -7.9653802e-18)
(-0.015250744 -0.042117142 1.8640483e-18)
(-0.016280382 -0.040886133 1.6350661e-17)
(-0.017233247 -0.039608222 4.1453794e-18)
(-0.018109926 -0.038289416 9.7030501e-18)
(-0.018911175 -0.036935246 1.5121918e-18)
(-0.01963763 -0.035550904 4.9443397e-18)
(-0.020289978 -0.034141262 1.3039914e-17)
(-0.020868898 -0.032711052 4.6217091e-18)
(-0.02137507 -0.031264806 6.2820147e-18)
(-0.021809229 -0.029807001 1.8699618e-19)
(-0.022172203 -0.028342072 9.4198006e-19)
(-0.022464938 -0.026874457 -1.7969465e-18)
(-0.022688544 -0.025408581 7.3216168e-19)
(-0.022844346 -0.023948856 4.019811e-18)
(-0.022933905 -0.022499649 -1.7604599e-18)
(-0.022959046 -0.021065246 -2.7757319e-18)
(-0.022921858 -0.019649812 -7.128778e-19)
(-0.022824685 -0.018257349 1.3663652e-18)
(-0.022670112 -0.016891661 3.9140733e-18)
(-0.022460951 -0.015556331 2.9626498e-19)
(-0.022200223 -0.014254684 -3.5143636e-18)
(-0.021891123 -0.012989763 -2.6208546e-18)
(-0.021536985 -0.011764305 -1.6935316e-19)
(-0.021141258 -0.010580736 2.9649788e-18)
(-0.020707467 -0.0094411574 1.562448e-18)
(-0.020239187 -0.008347346 -5.5365049e-18)
(-0.019740006 -0.0073007539 -3.739942e-18)
(-0.019213502 -0.006302514 -1.4060602e-18)
(-0.018663214 -0.0053534484 4.0416118e-18)
(-0.018092616 -0.0044540803 4.7781788e-19)
(-0.017505096 -0.0036046465 -2.7475958e-18)
(-0.016903939 -0.0028051131 -2.2046801e-18)
(-0.016292302 -0.0020551927 -4.5035647e-18)
(-0.015673194 -0.0013543694 -3.1161093e-18)
(-0.015049475 -0.00070192364 -1.96303e-18)
(-0.014423976 -9.6903228e-05 4.3110476e-19)
(-0.013799155 0.00046186487 4.4890322e-19)
(-0.013177356 0.00097554364 -1.6622783e-18)
(-0.012560792 0.0014455708 -1.9475665e-18)
(-0.011951486 0.0018734707 -8.6316532e-19)
(-0.011351272 0.0022608645 1.3054456e-20)
(-0.010761806 0.0026094538 4.6526348e-19)
(-0.010184567 0.0029210053 1.3321555e-20)
(-0.00962086 0.0031973331 3.9354264e-19)
(-0.0090718213 0.0034402838 -5.0259336e-20)
(-0.008538424 0.0036517222 -5.8583769e-19)
(-0.008021484 0.003833518 1.4265896e-19)
(-0.0075216676 0.0039875322 6.891684e-20)
(-0.0070394991 0.0041156071 3.6810225e-19)
(-0.0065753689 0.0042195555 1.245537e-19)
(-0.0061295422 0.0043011512 -7.3248187e-19)
(-0.005702168 0.004362121 -9.4943967e-19)
(-0.0052932876 0.0044041381 -1.1541546e-18)
(-0.0049028443 0.0044288153 -1.3505111e-19)
(-0.0045306923 0.0044377006 3.7539001e-19)
(-0.0041766058 0.0044322723 -2.2643761e-19)
(-0.0038402881 0.004413937 -1.3384712e-20)
(-0.0035213798 0.0043840261 2.782087e-19)
(-0.0032194676 0.0043437954 1.3999399e-19)
(-0.0029340928 0.0042944232 4.9055873e-19)
(-0.0026647578 0.004237012 -3.4084255e-20)
(-0.0024109339 0.0041725871 -2.6908431e-19)
(-0.0021720693 0.0041020996 -4.3990908e-19)
(-0.0019475943 0.0040264276 -1.2311189e-19)
(-0.0017369253 0.0039463766 2.4278676e-19)
(-0.0015394744 0.0038626861 -4.33315e-19)
(-0.0013546507 0.0037760296 -6.1508825e-19)
(-0.0011818658 0.003687015 -4.3168052e-19)
(-0.0010205387 0.0035961948 -1.2468453e-19)
(-0.00087009713 0.0035040662 2.7297269e-19)
(-0.001093345 -0.046674308 1.9985817e-17)
(-0.0024488474 -0.046534604 -4.4209395e-17)
(-0.0039858966 -0.046177029 3.8665431e-17)
(-0.0054321594 -0.045680891 -5.0094936e-18)
(-0.0068618029 -0.04507249 1.1309196e-17)
(-0.0082336609 -0.044367812 2.1345007e-17)
(-0.0095447333 -0.043576245 -4.4239464e-18)
(-0.010792066 -0.042704975 -9.8226991e-18)
(-0.01197316 -0.041760781 -3.9643924e-18)
(-0.013086234 -0.040750495 -9.923671e-18)
(-0.014130107 -0.039680857 -1.1027972e-17)
(-0.015104289 -0.038558331 -1.0862361e-17)
(-0.01600849 -0.037388984 -1.2267821e-17)
(-0.016842765 -0.036178548 -1.050095e-17)
(-0.017607413 -0.034932339 -8.7438271e-18)
(-0.018302706 -0.03365542 -1.1476331e-18)
(-0.01892906 -0.032352581 -4.9024702e-18)
(-0.019486951 -0.031028447 -7.9044195e-18)
(-0.019976903 -0.02968751 -7.2492355e-18)
(-0.020399553 -0.028334147 -7.31709e-18)
(-0.020755658 -0.026972669 -6.3859261e-18)
(-0.021046109 -0.02560734 -6.7466431e-18)
(-0.021271964 -0.024242379 -8.5406001e-18)
(-0.021434477 -0.02288196 -7.0483671e-18)
(-0.021535113 -0.021530185 -5.936668e-18)
(-0.021575569 -0.020191063 -7.1957256e-18)
(-0.021557771 -0.018868479 -9.1930504e-18)
(-0.021483874 -0.017566157 -6.5217885e-18)
(-0.021356244 -0.016287634 -2.4684139e-18)
(-0.021177443 -0.015036243 -1.8472337e-18)
(-0.02095022 -0.013815085 -6.5298936e-18)
(-0.020677479 -0.012627003 -6.567565e-18)
(-0.020362253 -0.011474567 -2.2013953e-18)
(-0.020007677 -0.010360066 2.1225104e-18)
(-0.019616962 -0.0092854986 8.9362797e-20)
(-0.019193363 -0.0082525685 -4.1704376e-18)
(-0.018740158 -0.0072626875 -2.6168008e-18)
(-0.018260617 -0.0063169781 -4.6356116e-19)
(-0.017757984 -0.0054162804 2.0753438e-18)
(-0.017235449 -0.0045611615 1.8501142e-18)
(-0.01669613 -0.0037519273 1.8340389e-18)
(-0.016143057 -0.0029886345 -2.64303e-18)
(-0.015579153 -0.002271106 -5.0079643e-18)
(-0.015007219 -0.0015989479 -2.7591483e-18)
(-0.014429914 -0.00097158403 -9.9860674e-19)
(-0.013849751 -0.00038824284 1.4091422e-18)
(-0.013269271 0.00015211687 -1.2630647e-18)
(-0.012690548 0.00065051237 -2.6991834e-18)
(-0.012115664 0.0011081449 -1.0230207e-18)
(-0.011546539 0.0015263763 -1.3631308e-20)
(-0.010984925 0.0019066436 8.0771175e-19)
(-0.010432404 0.0022504618 4.9796009e-20)
(-0.0098904008 0.0025594112 -5.0189718e-19)
(-0.0093601784 0.002835122 -8.2812529e-19)
(-0.0088428467 0.0030792596 -2.6893383e-19)
(-0.008339366 0.0032935122 1.1380814e-18)
(-0.0078505516 0.0034795777 3.6172462e-19)
(-0.007377081 0.0036391517 -2.1145821e-19)
(-0.0069194999 0.0037739177 -7.7675036e-19)
(-0.0064782297 0.0038855375 -1.2129312e-19)
(-0.006053575 0.0039756411 1.9823757e-19)
(-0.0056457313 0.0040458203 -9.4374328e-19)
(-0.0052547935 0.004097622 -1.43059e-18)
(-0.0048807634 0.0041325412 -9.0077298e-19)
(-0.0045235584 0.0041520172 1.6153961e-19)
(-0.0041830194 0.0041574286 1.0075591e-19)
(-0.0038589192 0.0041500909 -3.5427057e-19)
(-0.0035509699 0.0041312535 -1.3534347e-19)
(-0.0032588309 0.0041020981 -1.3806074e-19)
(-0.0029821162 0.0040637381 5.9162117e-19)
(-0.0027204014 0.0040172184 3.0194294e-19)
(-0.0024732297 0.0039635143 -2.3703439e-19)
(-0.00224012 0.0039035338 -6.0250226e-19)
(-0.0020205718 0.0038381199 -4.2100097e-19)
(-0.0018140688 0.003768048 2.164167e-19)
(-0.0016200864 0.0036940332 -1.952146e-19)
(-0.0014380961 0.0036167314 -5.6964658e-19)
(-0.0012675685 0.0035367359 -5.009846e-19)
(-0.0011079764 0.0034545911 -1.1735144e-19)
(-0.00095880073 0.0033707869 1.0182723e-19)
(-0.0010011986 -0.043656368 2.5261045e-17)
(-0.0022450724 -0.043537769 7.1123315e-18)
(-0.0036573755 -0.043228743 1.6115884e-17)
(-0.0049906921 -0.042796142 2.9155902e-17)
(-0.0063131079 -0.0422606 1.2805363e-17)
(-0.0075857761 -0.041635444 1.7433514e-17)
(-0.008805993 -0.040928499 9.7399904e-18)
(-0.0099705973 -0.040145981 9.3398891e-18)
(-0.011076779 -0.0392938 6.4988649e-18)
(-0.012122443 -0.038378001 1.5711531e-18)
(-0.013106004 -0.037404644 2.7530105e-18)
(-0.014026522 -0.036379592 -7.5337407e-18)
(-0.014883295 -0.035308448 -8.1772003e-19)
(-0.015675972 -0.034196608 -6.0357106e-18)
(-0.016404493 -0.033049119 1.0195036e-18)
(-0.017068842 -0.03187083 -1.1232187e-18)
(-0.0176692 -0.030666374 -3.4315413e-18)
(-0.018205871 -0.029440227 -7.6926597e-19)
(-0.018679233 -0.028196741 -5.8064202e-19)
(-0.019089804 -0.026940151 2.917903e-19)
(-0.019438256 -0.025674615 5.4495249e-18)
(-0.019725404 -0.02440421 5.1678275e-18)
(-0.019952228 -0.023132949 -1.5418796e-18)
(-0.020119895 -0.021864772 2.1057013e-18)
(-0.020229762 -0.020603541 -1.1156366e-18)
(-0.020283396 -0.01935301 -5.9693233e-19)
(-0.020282567 -0.018116808 1.8308694e-18)
(-0.020229251 -0.016898412 1.0949473e-18)
(-0.020125609 -0.015701119 4.0258984e-18)
(-0.019973978 -0.014528038 -9.1406742e-19)
(-0.019776861 -0.013382064 -2.7233829e-18)
(-0.019536901 -0.01226586 9.0468773e-19)
(-0.019256856 -0.011181844 1.6705188e-18)
(-0.018939582 -0.010132175 3.8271437e-18)
(-0.018588002 -0.0091187536 -1.2064497e-18)
(-0.018205089 -0.0081432133 -6.3695053e-19)
(-0.017793835 -0.007206923 1.8494843e-18)
(-0.017357235 -0.0063109888 2.0644359e-18)
(-0.01689826 -0.0054562602 3.5054836e-18)
(-0.016419842 -0.0046433375 3.7293238e-18)
(-0.015924852 -0.0038725813 1.8912389e-18)
(-0.015416085 -0.0031441241 -3.4298181e-18)
(-0.014896247 -0.0024578821 -4.3589318e-18)
(-0.014367935 -0.0018135705 -1.8404056e-18)
(-0.013833623 -0.0012107233 1.0690608e-18)
(-0.013295666 -0.00064870973 1.2483045e-18)
(-0.012756359 -0.00012672303 -2.3584082e-18)
(-0.012217785 0.00035628119 -2.2297972e-18)
(-0.011681846 0.00080120224 -4.0326521e-19)
(-0.011150333 0.0012092898 1.5274921e-18)
(-0.010624926 0.0015818088 1.5306105e-18)
(-0.010107138 0.001920104 4.2350865e-19)
(-0.0095983357 0.002225587 5.3723954e-20)
(-0.0090997386 0.0024997209 -6.4126644e-19)
(-0.0086124269 0.0027440065 1.9340534e-18)
(-0.0081373433 0.0029599705 1.7159585e-18)
(-0.0076752978 0.0031491535 4.2982921e-19)
(-0.0072269724 0.0033130992 8.6905332e-19)
(-0.0067929278 0.0034533447 -2.963191e-19)
(-0.0063736092 0.0035714121 7.8778287e-19)
(-0.0059693527 0.0036687984 5.8486411e-19)
(-0.0055803928 0.0037469699 -7.1845409e-19)
(-0.0052068692 0.0038073552 -5.1626499e-19)
(-0.004848834 0.0038513394 -3.5031494e-19)
(-0.0045062591 0.0038802592 1.0477802e-18)
(-0.0041790439 0.0038953993 5.302186e-19)
(-0.0038670223 0.0038979886 -2.6620461e-19)
(-0.0035699695 0.0038891983 4.5473973e-19)
(-0.0032876093 0.0038701393 3.3629725e-19)
(-0.0030196213 0.0038418619 9.8312211e-19)
(-0.0027656464 0.0038053549 6.2052322e-19)
(-0.0025252929 0.0037615447 6.4078236e-20)
(-0.0022981435 0.003711297 3.1514893e-20)
(-0.0020837607 0.003655418 -5.5126494e-20)
(-0.0018816891 0.0035946538 5.6148072e-19)
(-0.0016914629 0.0035296936 8.7081053e-20)
(-0.0015126112 0.0034611727 -4.1801672e-19)
(-0.001344658 0.0033896706 -1.788889e-19)
(-0.0011871274 0.0033157195 -3.4288267e-20)
(-0.0010395484 0.0032398013 7.6317404e-20)
(-0.0009191827 -0.040886485 2.7533999e-17)
(-0.0020633238 -0.040785178 1.3799759e-17)
(-0.0033637937 -0.040516517 7.5762822e-18)
(-0.0045950366 -0.040137234 2.8105508e-17)
(-0.0058198139 -0.039663504 1.0816929e-17)
(-0.0070015339 -0.039106508 -2.4519711e-17)
(-0.008137736 -0.038472853 2.0892601e-17)
(-0.0092252202 -0.03776784 5.4258105e-18)
(-0.010261032 -0.036996702 4.627792e-18)
(-0.011242877 -0.036164775 1.5438536e-17)
(-0.012168902 -0.035277476 7.8821055e-18)
(-0.01303786 -0.034340135 7.580967e-18)
(-0.013848763 -0.03335789 6.3870162e-18)
(-0.014600964 -0.032335763 5.3671587e-18)
(-0.015294125 -0.031278517 8.0404931e-18)
(-0.015928008 -0.030190724 -9.8553673e-19)
(-0.016502601 -0.029076823 1.0574726e-17)
(-0.017018049 -0.027941104 8.6978187e-18)
(-0.0174746 -0.026787719 7.2767444e-18)
(-0.01787266 -0.025620736 7.6348782e-18)
(-0.018212801 -0.024444132 -3.4576184e-19)
(-0.018495749 -0.023261789 -4.2411715e-18)
(-0.018722397 -0.022077511 1.8310793e-18)
(-0.018893812 -0.020895019 2.0895092e-18)
(-0.019011239 -0.019717942 -1.6874311e-18)
(-0.019076117 -0.018549803 1.3440589e-18)
(-0.019090067 -0.017393996 -2.6476487e-18)
(-0.019054893 -0.016253771 5.4842226e-19)
(-0.018972568 -0.015132209 3.0188259e-18)
(-0.018845223 -0.014032216 -1.4942122e-18)
(-0.018675136 -0.0129565 1.281859e-20)
(-0.018464714 -0.011907558 -2.7378416e-18)
(-0.018216468 -0.010887666 -6.015306e-20)
(-0.017933001 -0.0098988656 2.021506e-18)
(-0.017616979 -0.0089429625 -4.5836822e-19)
(-0.017271114 -0.0080215215 1.9853404e-18)
(-0.016898143 -0.0071358668 -1.4688779e-18)
(-0.016500807 -0.0062870846 -1.2487251e-20)
(-0.016081833 -0.0054760264 -1.0839933e-19)
(-0.015643915 -0.0047033163 -3.1777283e-18)
(-0.015189697 -0.0039693589 -2.7825568e-18)
(-0.014721758 -0.003274349 -4.3913475e-19)
(-0.014242602 -0.0026182824 8.0844118e-19)
(-0.013754638 -0.0020009681 -9.6082737e-19)
(-0.013260175 -0.0014220426 -1.1879763e-18)
(-0.012761401 -0.00088099574 -1.6243142e-18)
(-0.012260378 -0.00037715877 2.5776545e-19)
(-0.011759239 9.0321964e-05 1.3019701e-18)
(-0.011259678 0.00052239037 -2.882232e-19)
(-0.010763354 0.0009199859 2.8842791e-19)
(-0.0102719 0.0012842561 -2.8619119e-20)
(-0.0097867528 0.0016164017 8.1404876e-19)
(-0.0093092195 0.0019176826 3.1496911e-19)
(-0.0088404756 0.0021894106 5.5802577e-19)
(-0.0083815687 0.0024329367 2.3434607e-18)
(-0.0079334204 0.0026496405 5.2610374e-21)
(-0.0074968304 0.0028409185 8.1674283e-19)
(-0.0070724809 0.0030081749 1.3214919e-18)
(-0.0066609417 0.0031528125 8.8344667e-19)
(-0.0062626752 0.0032762236 8.9703429e-19)
(-0.0058780427 0.0033797826 -5.5255622e-19)
(-0.0055073103 0.003464839 -1.3051461e-19)
(-0.0051506553 0.0035327112 1.1866435e-19)
(-0.0048081727 0.0035846811 3.4840837e-19)
(-0.0044798815 0.0036219896 8.8821925e-19)
(-0.0041657315 0.0036458325 -1.7293322e-19)
(-0.0038656103 0.0036573569 1.1109832e-19)
(-0.0035793489 0.0036576593 7.7030876e-19)
(-0.0033067284 0.0036477831 5.7677758e-19)
(-0.0030474865 0.0036287177 7.2789441e-19)
(-0.0028013226 0.0036013973 6.1242954e-20)
(-0.002567904 0.0035667009 1.5603118e-20)
(-0.0023468711 0.0035254521 1.8810509e-19)
(-0.0021378431 0.0034784205 2.5272177e-19)
(-0.0019404206 0.0034263224 4.5324646e-19)
(-0.0017541918 0.0033698205 -2.4021168e-19)
(-0.0015787375 0.0033095284 -4.2859192e-19)
(-0.0014136316 0.0032460105 -1.573879e-19)
(-0.0012584458 0.0031797845 -2.7647088e-20)
(-0.0011127547 0.0031113241 1.063868e-19)
(-0.00084585638 -0.03833817 2.5743387e-17)
(-0.0019005245 -0.03825114 1.566354e-17)
(-0.003100374 -0.038016287 7.1149929e-18)
(-0.0042391334 -0.037682056 -1.7167423e-17)
(-0.0053748698 -0.037261122 -2.9370789e-19)
(-0.006473149 -0.036762893 -3.0229876e-18)
(-0.0075316946 -0.036192999 -9.7343559e-19)
(-0.0085474065 -0.03555598 -1.1307147e-17)
(-0.0095172795 -0.03485648 7.4210023e-18)
(-0.010438906 -0.034099198 -2.8682971e-18)
(-0.011310294 -0.03328899 -7.0569e-18)
(-0.012129986 -0.032430683 2.3696595e-18)
(-0.012896796 -0.031528976 -5.1456757e-18)
(-0.013609872 -0.030588512 -1.1095839e-18)
(-0.014268665 -0.029613746 -4.7821872e-18)
(-0.014872765 -0.02860896 -2.0902217e-18)
(-0.015422004 -0.027578368 -2.2726988e-18)
(-0.015916386 -0.02652604 -3.9701227e-18)
(-0.016356046 -0.025455912 -4.7870103e-18)
(-0.016741291 -0.024371854 -7.651374e-18)
(-0.017072586 -0.023277651 -7.9211344e-18)
(-0.017350565 -0.022176981 -9.1250705e-18)
(-0.017576024 -0.021073443 -5.0643521e-18)
(-0.017749931 -0.019970543 -2.0083354e-18)
(-0.01787342 -0.018871693 1.8437036e-18)
(-0.017947801 -0.017780196 -2.6458202e-18)
(-0.017974551 -0.016699232 -4.7267148e-18)
(-0.017955316 -0.015631843 -1.3621657e-18)
(-0.017891894 -0.014580912 -3.3380814e-19)
(-0.017786225 -0.013549157 3.0072203e-18)
(-0.017640385 -0.012539117 -1.4446517e-18)
(-0.017456564 -0.011553138 -3.80093e-18)
(-0.017237051 -0.010593361 -1.0060855e-18)
(-0.016984217 -0.0096617191 1.7507855e-19)
(-0.016700497 -0.0087599275 4.3642173e-18)
(-0.016388368 -0.0078894845 -2.4868571e-19)
(-0.016050333 -0.0070516691 -3.5430215e-18)
(-0.015688904 -0.0062475434 -1.4207158e-18)
(-0.015306583 -0.0054779559 -2.624782e-19)
(-0.014905846 -0.0047435466 3.2725529e-18)