/*--------------------------------*- C++ -*----------------------------------*\
| =========                 |                                                 |
| \\      /  F ield         | OpenFOAM: The Open Source CFD Toolbox           |
|  \\    /   O peration     | Version:  2106                                  |
|   \\  /    A nd           | Website:  www.openfoam.com                      |
|    \\/     M anipulation  |                                                 |
\*---------------------------------------------------------------------------*/
FoamFile
{
    version     2.0;
    format      ascii;
    arch        "LSB;label=32;scalar=64";
    class       surfaceScalarField;
    location    "0.022";
    object      phi_0;
}
// * * * * * * * * * * * * * * * * * * * * * * * * * * * * * * * * * * * * * //

dimensions      [0 3 -1 0 0 0 0];

oriented        oriented;

internalField   nonuniform List<scalar> 
1984
(
0.0003944072
-0.00039443731
0.00077389235
-0.00037948515
0.0011240194
-0.00035012709
0.0014314592
-0.00030743978
0.0016844529
-0.00025299365
0.0018732536
-0.00018880079
0.0019905013
-0.0001172477
0.0020315168
-4.1015422e-05
0.001994507
3.7009815e-05
0.0018806572
0.00011384976
0.0016941202
0.00018653703
0.0014419218
0.00025219834
0.0011336909
0.00030823092
0.00078130892
0.00035238198
0.00039844935
0.00038285957
3.1127063e-08
0.00039841823
-0.00039838836
0.00039841949
-0.00078125165
0.00038286329
-0.0011336396
0.00035238798
-0.0014418786
0.00030823893
-0.0016940866
0.00025220801
-0.0018806345
0.00018654794
-0.001994496
0.00011386146
-0.0020315178
3.7021821e-05
-0.0019905142
-4.1003575e-05
-0.0018732778
-0.00011723645
-0.0016844872
-0.00018879054
-0.0014315025
-0.00025298476
-0.0011240699
-0.00030743254
-0.00077394818
-0.00035012174
-0.00039446632
-0.00037948187
-0.0003944362
0.00042759548
-0.0008220643
0.00083900924
-0.00079089891
0.0012185908
-0.00072970867
0.0015518918
-0.00064074076
0.0018261695
-0.00052727138
0.0020308644
-0.00039349565
0.002158003
-0.0002443863
0.0022025136
-8.5526019e-05
0.0021624428
7.708059e-05
0.0020390656
0.00023722701
0.0018368849
0.00038871775
0.0015634905
0.0005255927
0.0012293122
0.00064240923
0.00084722974
0.00073446443
0.00043207392
0.00079801539
3.2706509e-08
0.00083045944
-0.00043200984
0.00083046203
-0.00084716959
0.00079802304
-0.0012292584
0.00073447678
-0.0015634452
0.00064242571
-0.0018368497
0.00052561256
-0.0020390419
0.00038874014
-0.0021624314
0.000237251
-0.0022025148
7.7105192e-05
-0.0021580166
-8.5501764e-05
-0.0020308898
-0.0002443633
-0.0018262056
-0.00039347471
-0.0015519371
-0.00052725322
-0.0012186437
-0.00064072597
-0.0008390677
-0.00072969775
-0.00042765736
-0.00079089221
-0.00082206204
0.00048656903
-0.0013086672
0.00095470446
-0.0012590343
0.0013865878
-0.001161592
0.0017657775
-0.0010199304
0.0020777852
-0.00083927914
0.0023106163
-0.00062632673
0.0024552215
-0.00038899147
0.0025058475
-0.00013615204
0.0024602765
0.00012265157
0.0023199531
0.00037755047
0.0020899817
0.00061868906
0.0017789773
0.00083659714
0.0013987868
0.0010225997
0.00096405569
0.0011691956
0.00049166123
0.0012704098
3.541754e-08
0.0013220853
-0.00049159185
0.0013220893
-0.00096399061
0.0012704218
-0.0013987287
0.0011692148
-0.0017789284
0.0010226254
-0.0020899439
0.00083662808
-0.0023199277
0.00061872391
-0.0024602644
0.00037758776
-0.002505849
0.00012268977
-0.0024552364
-0.00013611442
-0.0023106438
-0.00038895583
-0.0020778242
-0.00062629433
-0.0017658264
-0.00083925106
-0.0013866448
-0.0010199076
-0.00095476738
-0.0011615751
-0.0004866356
-0.001259024
-0.0013086637
0.00057504069
-0.0018837454
0.0011282513
-0.001812245
0.0016385476
-0.0016718883
0.0020864931
-0.0014678759
0.0024549859
-0.0012077719
0.0027298925
-0.00090123331
0.00290057
-0.00055966895
0.0029602641
-0.00019584616
0.0029063793
0.00017653633
0.0027406208
0.000543309
0.0024689947
0.00089031513
0.0021016486
0.0012039433
0.001652549
0.0014716993
0.0011389806
0.001682764
0.00058088102
0.0018285094
3.9481435e-08
0.0019029268
-0.00058080371
0.0019029325
-0.0011389081
0.0018285262
-0.0016524844
0.0016827911
-0.0021015943
0.0014717353
-0.0024689529
0.0012039867
-0.0027405929
0.00089036391
-0.0029063663
0.00054336112
-0.0029602662
0.00017658965
-0.0029005868
-0.00019579377
-0.0027299232
-0.00055961941
-0.0024550292
-0.00090118833
-0.0020865473
-0.001207733
-0.0016386107
-0.0014678442
-0.0011283208
-0.001671865
-0.00057511422
-0.0018122306
-0.0018837405
0.00070029142
-0.0025840791
0.0013739157
-0.0024858692
0.0019951445
-0.0022931172
0.0025402936
-0.002013025
0.0029885686
-0.0016560469
0.0033228308
-0.0012354955
0.0035302128
-0.00076705098
0.0036025765
-0.0002682099
0.0035368176
0.00024229524
0.0033350237
0.00074510293
0.0030044807
0.0012208581
0.0025574979
0.0016509261
0.0020110304
0.0020181668
0.0013860838
0.0023077106
0.00070691319
0.00250768
4.5145844e-08
0.0026097948
-0.00070682484
0.0026098025
-0.0013860012
0.0025077025
-0.0020109568
0.0023077467
-0.0025574363
0.0020182149
-0.0030044335
0.0016509838
-0.0033349924
0.0012209229
-0.0035368033
0.00074517199
-0.0036025794
0.00024236576
-0.0035302324
-0.00026814079
-0.003322866
-0.0007669858
-0.0029886179
-0.0012354364
-0.002540355
-0.0016559959
-0.0019952159
-0.0020129834
-0.0013739943
-0.0022930865
-0.00070037452
-0.0024858504
-0.0025840727
0.00087324929
-0.0034573771
0.0017131108
-0.0033257308
0.0024874139
-0.0030674202
0.0031665955
-0.0026922066
0.0037247717
-0.0022142231
0.0041406829
-0.0016514067
0.0043984342
-0.0010248023
0.0044880239
-0.00035779965
0.0044056855
0.00032463364
0.0041540608
0.00099672764
0.0037422144
0.0016327045
0.0031854377
0.0022077028
0.0025047987
0.0026988059
0.0017264198
0.0030860894
0.00088049126
0.0033536086
5.2708338e-08
0.0034902334
-0.00088038817
0.0034902433
-0.0017263235
0.0033536379
-0.0025047132
0.0030861364
-0.0031853665
0.0026988682
-0.00374216
0.0022077773
-0.0041540251
0.001632788
-0.0044056696
0.00099681645
-0.004488028
0.00032472414
-0.0043984575
-0.00035771128
-0.0041407241
-0.0010247192
-0.0037248289
-0.0016513316
-0.0031666665
-0.0022141582
-0.0024874962
-0.0026921538
-0.0017132014
-0.0030673813
-0.00087334497
-0.0033257068
-0.003457369
0.0011075538
-0.0045649877
0.0021725666
-0.0043907437
0.0031541051
-0.0040489586
0.0040146246
-0.0035527261
0.0047213511
-0.0029209496
0.0052474712
-0.0021775269
0.0055730357
-0.0013503667
0.0056855754
-0.00047033943
0.0055804827
0.00042972642
0.0052611949
0.0013160154
0.0047392178
0.0021546817
0.004033897
0.0029130235
0.003171866
0.0035608369
0.0021861533
0.0040718021
0.0011149485
0.0044248134
6.2529402e-08
0.0046051194
-0.0011148263
0.0046051322
-0.0021860394
0.004424851
-0.0031717652
0.0040718623
-0.0040338134
0.0035609163
-0.0047391543
0.0029131183
-0.0052611537
0.0021547874
-0.0055804648
0.0013161275
-0.0056855812
0.00042984051
-0.0055730638
-0.00047022863
-0.0052475202
-0.0013502628
-0.0047214185
-0.0021774332
-0.0040147079
-0.0029208688
-0.0031542013
-0.0035526605
-0.0021726724
-0.0040489101
-0.0011076655
-0.0043907138
-0.0045649776
0.0014151542
-0.0059802089
0.0027757117
-0.0057513012
0.0040292084
-0.0053024554
0.0051276018
-0.0046511195
0.0060290644
-0.0038224121
0.0066995006
-0.0028479632
0.0071136615
-0.0017645275
0.0072558823
-0.00061256024
0.0071205128
0.00056509591
0.0067121033
0.0017244249
0.0060454293
0.0028213556
0.0051452125
0.0038132403
0.0040454089
0.0046606405
0.0027880913
0.0053291197
0.001421898
0.0057910067
7.5034933e-08
0.0060269424
-0.0014217515
0.0060269588
-0.0027879552
0.0057910546
-0.0040452889
0.005329196
-0.0051451134
0.0046607408
-0.0060453546
0.0038133595
-0.0067120554
0.0028214882
-0.0071204927
0.0017245648
-0.0072558904
0.00056523819
-0.0071136959
-0.00061242319
-0.0066995592
-0.0017643995
-0.0060291444
-0.002847848
-0.0051277003
-0.0038223129
-0.0040293219
-0.0046510389
-0.0027758363
-0.0053023957
-0.0014152858
-0.0057512643
-0.0059801964
0.0017955339
-0.0077758222
0.0035215691
-0.0074773363
0.0051113985
-0.0068922849
0.006503987
-0.006043708
0.0076462805
-0.0049647056
0.0084951359
-0.0036968185
0.0090186885
-0.0022880802
0.0091972938
-0.00079116549
0.0090240573
0.00073833239
0.0085049915
0.0022434907
0.0076590294
0.0036673177
0.0065176577
0.004954612
0.0051239448
0.0060543533
0.0035311439
0.0069219206
0.0018007622
0.0075213883
9.0724629e-08
0.0078276139
-0.0018005854
0.0078276349
-0.0035309801
0.0075214493
-0.0051238012
0.0069220171
-0.00651754
0.0060544796
-0.0076589415
0.0049547611
-0.0085049362
0.0036674828
-0.009024035
0.0022436637
-0.0091973055
0.00073850865
-0.0090187307
-0.00079099799
-0.0084952063
-0.0022879238
-0.007646376
-0.0036966784
-0.0065041039
-0.004964585
-0.0051115328
-0.0060436099
-0.0035217164
-0.0068922122
-0.0017956896
-0.007477291
-0.0077758067
0.0022167246
-0.0099926404
0.004347561
-0.0096081727
0.006310152
-0.0088548759
0.0080291017
-0.0077626577
0.0094388628
-0.0063744667
0.010486131
-0.0047440867
0.011131442
-0.0029333911
0.011350546
-0.0010102693
0.011135163
0.00095371472
0.010493
0.0028856541
0.0094477689
0.0047125489
0.0080386586
0.0063637224
0.0063189356
0.0077740763
0.0043542693
0.008886587
0.0022204051
0.0096552525
1.1021245e-07
0.010047909
-0.0022201908
0.010047936
-0.0043540719
0.0096553305
-0.0063187638
0.0088867089
-0.0080385191
0.007774235
-0.0094476665
0.0063639084
-0.010492938
0.0047127542
-0.01113514
0.0028858657
-0.011350563
0.00095393206
-0.011131494
-0.0010100677
-0.010486216
-0.0029332017
-0.0094389765
-0.0047439176
-0.0080292399
-0.0063743217
-0.0063103102
-0.0077625396
-0.0043477342
-0.0088547881
-0.0022169081
-0.0096081172
-0.0099926211
0.0025907097
-0.012583459
0.0050812754
-0.012098738
0.0073757902
-0.011149391
0.0093862202
-0.0097730877
0.011035887
-0.008024134
0.012262029
-0.0059702283
0.01301766
-0.0036890224
0.013274167
-0.001266776
0.013021829
0.0012060527
0.012269808
0.0036376748
0.011046322
0.0059360349
0.0093977572
0.0080122876
0.0073865744
0.009785259
0.0050895729
0.011183588
0.0025952508
0.012149575
1.3426492e-07
0.012643025
-0.0025949908
0.012643061
-0.0050893358
0.012149676
-0.00738637
0.011183743
-0.0093975941
0.009785459
-0.011046206
0.0080125202
-0.012269743
0.0059362916
-0.013021808
0.0036379299
-0.013274195
0.0012063192
-0.013017722
-0.0012665399
-0.01226213
-0.0036887942
-0.011036022
-0.0059700258
-0.0093863817
-0.0080239616
-0.0073759739
-0.0097729475
-0.005081476
-0.011149286
-0.0025909233
-0.01209867
-0.012583435
0.0027558026
-0.015339387
0.00540576
-0.014748696
0.007848828
-0.013592459
0.0099915655
-0.011915825
0.011752172
-0.0097847401
0.013063286
-0.0072813424
0.013873657
-0.0044993932
0.014151332
-0.001544451
0.013884788
0.0014725962
0.013084
0.0044384631
0.011779598
0.0072404364
0.010021666
0.0097702195
0.0078769504
0.011929975
0.0054273897
0.013633149
0.0027675207
0.014809444
1.6344781e-07
0.015410383
-0.0027672067
0.015410431
-0.0054271083
0.014809577
-0.0078767117
0.013633346
-0.010021481
0.011930228
-0.011779472
0.0097705117
-0.013083943
0.0072407628
-0.013884777
0.0044387632
-0.014151376
0.0014729181
-0.013873727
-0.0015441885
-0.013063403
-0.0044991179
-0.011752327
-0.0072811019
-0.0099917493
-0.0097845394
-0.0078490348
-0.011915662
-0.0054059853
-0.013592335
-0.0027560456
-0.01474861
-0.015339355
0.0024951592
-0.017834685
0.0048956306
-0.017149167
0.0071117271
-0.015808555
0.0090591924
-0.013863291
0.010664106
-0.011389653
0.011865268
-0.0084825049
0.012613067
-0.0052471919
0.012875114
-0.0018064977
0.012639163
0.0017085471
0.011914083
0.005163543
0.010729016
0.0084255029
0.00913043
0.011368806
0.0071780874
0.013882318
0.0049465731
0.015864663
0.0025226835
0.017233333
1.9571633e-07
0.01793287
-0.0025223128
0.01793294
-0.0049462514
0.017233516
-0.0071778197
0.015864915
-0.009130227
0.013882635
-0.010728887
0.011369172
-0.011914058
0.008425933
-0.012639178
0.0051638839
-0.012875177
0.0017089172
-0.012613129
-0.0018062368
-0.011865399
-0.0052468482
-0.010664281
-0.00848222
-0.0090593922
-0.011389428
-0.0071119465
-0.013863108
-0.0048958688
-0.015808413
-0.002495425
-0.017149053
-0.017834642
0.0016401447
-0.019474973
0.0032208006
-0.018729823
0.0046832485
-0.017271003
0.0059719913
-0.015152033
0.0070395066
-0.012457169
0.007847708
-0.0092907063
0.008359825
-0.005759309
0.0085494231
-0.0019960958
0.0084036953
0.0018542749
0.007928269
0.0056389692
0.0071444455
0.0092093263
0.0060849891
0.012428262
0.0047875467
0.01517976
0.0033011187
0.017351091
0.0016845075
0.018849944
2.1691716e-07
0.019617161
-0.0016841067
0.019617263
-0.0033007871
0.018850196
-0.0047872678
0.017351395
-0.0060847685
0.015180136
-0.0071443109
0.012428714
-0.0079283166
0.0092099387
-0.0084037812
0.0056393485
-0.0085494857
0.0018546216
-0.0083598196
-0.0019959028
-0.0078478463
-0.0057588215
-0.0070397078
-0.0092903585
-0.0059721996
-0.012456936
-0.0046834578
-0.01515185
-0.0032210227
-0.017270848
-0.0016404112
-0.018729665
-0.01947491
0.00033094148
-0.019806026
0.00064665356
-0.019045535
0.00093746567
-0.017561815
0.0011907871
-0.015405355
0.001400548
-0.01266693
0.0015678115
-0.0094579698
0.0016812148
-0.0058727123
0.0017252432
-0.0020401242
0.0016982258
0.0018812924
0.0016012097
0.0057359854
0.0014453568
0.0093651792
0.001239071
0.012634548
0.00098175531
0.015437076
0.00068054977
0.017652297
0.00034916175
0.019181333
1.7766158e-07
0.019966145
-0.00034884203
0.019966283
-0.00068028557
0.01918164
-0.00098148319
0.017652593
-0.0012387907
0.015437444
-0.0014452042
0.012635128
-0.0016014168
0.0093661514
-0.0016984824
0.0057364141
-0.0017251958
0.0018813351
-0.0016809974
-0.0020401012
-0.0015679165
-0.0058719025
-0.0014008065
-0.0094574684
-0.0011910164
-0.012666726
-0.00093763806
-0.015405228
-0.00064680624
-0.01756168
-0.00033114203
-0.019045329
-0.019805941
-0.00053938958
-0.019266653
-0.0010785683
-0.018506356
-0.0016060058
-0.017034378
-0.002111549
-0.014899811
-0.00257557
-0.012202909
-0.0029616211
-0.0090719187
-0.0032420203
-0.0055923132
-0.0033959167
-0.0018862278
-0.003404343
0.0018897186
-0.0032598965
0.0055915388
-0.0029643043
0.009069587
-0.0025321971
0.012202441
-0.001994796
0.014899674
-0.0013763289
0.01703383
-0.00070054866
0.018505552
1.8259622e-08
0.019265578
0.00070059266
0.019265708
0.0013764343
0.018505798
0.0019950471
0.01703398
0.0025325258
0.014899965
0.002964438
0.012203216
0.0032593835
0.0090712058
0.0034037624
0.0055920353
0.0033962631
0.0018888344
0.0032426349
-0.001886473
0.0029616534
-0.005590921
0.0025753355
-0.0090711505
0.0021113352
-0.012202726
0.0016058865
-0.014899779
0.0010785241
-0.017034317
0.00053934952
-0.018506155
-0.019266575
0.0007147541
-0.019981387
0.0014042856
-0.019195888
0.002035446
-0.017665538
0.0025840431
-0.015448409
0.0030251181
-0.012643983
0.0033263448
-0.0093731454
0.003474445
-0.0057404134
0.0034693085
-0.0018810912
0.003315711
0.0020433162
0.003030647
0.0058766028
0.0026367207
0.0094635133
0.002163391
0.012675771
0.0016467919
0.015416273
0.0011066929
0.017573929
0.00055375505
0.01905849
-7.7791527e-09
0.019819341
-0.00055377913
0.01981948
-0.001106778
0.019058797
-0.0016470158
0.017574218
-0.002163688
0.015416637
-0.002636841
0.012676369
-0.0030301638
0.0094645286
-0.0033151811
0.0058770526
-0.0034696215
0.0020432748
-0.0034750694
-0.0018810251
-0.0033263611
-0.0057396293
-0.0030248601
-0.0093726516
-0.002583812
-0.012643774
-0.002035318
-0.015448273
-0.0014042381
-0.017665397
-0.00071470846
-0.019195684
-0.019981303
-0.00033432091
-0.019646951
-0.00065165865
-0.01887855
-0.00093981306
-0.017377384
-0.0011855399
-0.015202682
-0.0013824511
-0.012447072
-0.0015319417
-0.0092236549
-0.0016248187
-0.0056475364
-0.0016493398
-0.0018565701
-0.0016056179
0.0019995942
-0.0014967717
0.0057677566
-0.0013372273
0.009303969
-0.0011369592
0.012475503
-0.00089505514
0.015174369
-0.00061743827
0.017296312
-0.000316138
0.01875719
-1.657093e-07
0.019503369
0.00031583904
0.019503475
0.00061718651
0.01875745
0.00089478327
0.017296621
0.0011366697
0.015174751
0.0013370691
0.012475969
0.0014969924
0.0093046052
0.0016059014
0.0057681436
0.001649267
0.0019999092
0.001624605
-0.001856363
0.0015320359
-0.0056470602
0.0013826951
-0.0092233108
0.001185759
-0.012446838
0.0009399817
-0.015202496
0.00065181334
-0.017377229
0.00033452672
-0.018878398
-0.019646891
-0.0016681979
-0.017978613
-0.0032694407
-0.017277307
-0.0047416789
-0.015905145
-0.0060266364
-0.013917724
-0.007075877
-0.011397832
-0.0078523816
-0.0084471503
-0.0083232063
-0.0051767116
-0.0084670192
-0.0017127572
-0.0082786345
0.0018112095
-0.0077713096
0.0052604317
-0.0069710441
0.0085037034
-0.0059138095
0.011418268
-0.0046375401
0.0138981
-0.0031893914
0.015848163
-0.0016242844
0.017192083
-2.1630726e-07
0.0178793
0.0016238853
0.017879374
0.0031890616
0.017192273
0.0046372601
0.015848423
0.0059135847
0.013898426
0.0069709076
0.011418646
0.0077713676
0.0085041452
0.0082787322
0.005260779
0.0084670686
0.0018115728
0.0083232009
-0.0017124953
0.0078525109
-0.0051763702
0.0070760677
-0.0084468676
0.0060268369
-0.011397607
0.0047418837
-0.013917543
0.0032696602
-0.015905006
0.0016684607
-0.017277198
-0.017978571
-0.0025040084
-0.015474468
-0.0049102699
-0.014871046
-0.0071255681
-0.013689847
-0.0090637331
-0.011979559
-0.010650774
-0.0098107911
-0.01182746
-0.0072704644
-0.012547449
-0.0044567223
-0.012781738
-0.0014784687
-0.012521606
0.0015510784
-0.01177933
0.0045181551
-0.010587044
0.0073114175
-0.0089938253
0.0098250493
-0.0070604922
0.011964767
-0.0048604695
0.013648141
-0.0024774043
0.014809018
-1.9862413e-07
0.015402095
0.0024770292
0.015402146
0.0048601455
0.014809157
0.0070602233
0.013648345
0.0089936214
0.011965028
0.010586917
0.0098253509
0.01177931
0.0073117524
0.012521628
0.0045184612
0.0127818
0.0015514004
0.01254751
-0.001478205
0.011827587
-0.0044564472
0.010650944
-0.007270225
0.0090639285
-0.0098105916
0.0071257835
-0.011979398
0.0049105044
-0.013689726
0.0025042688
-0.014870962
-0.015474438
-0.0027452455
-0.0127291
-0.0053840163
-0.012232275
-0.0078142219
-0.011259642
-0.0099421001
-0.009851681
-0.011686386
-0.0080665051
-0.012980866
-0.0059759842
-0.013775745
-0.0036618441
-0.014040577
-0.0012136361
-0.013765442
0.0012759436
-0.012961754
0.0037144665
-0.011661192
0.006010856
-0.0099144878
0.008078345
-0.0077884807
0.0098387599
-0.005364359
0.011224019
-0.0027348635
0.012179522
-1.6601617e-07
0.012667397
0.0027345452
0.012667435
0.0053640751
0.012179627
0.007788241
0.011224179
0.0099143025
0.0098389664
0.011661068
0.0080785851
0.012961701
0.0060111197
0.013765435
0.0037147272
0.014040623
0.0012762128
0.013775815
-0.0012133977
0.012980983
-0.003661615
0.01168654
-0.0059757818
0.0099422817
-0.0080663336
0.0078144259
-0.0098515422
0.0053842382
-0.011259539
0.002745484
-0.012232208
-0.012729077
-0.0025677383
-0.010161255
-0.00503591
-0.0097641033
-0.007308946
-0.0089866057
-0.0092993123
-0.0078613147
-0.01093103
-0.0064347879
-0.012142272
-0.0047647414
-0.012887059
-0.0029170578
-0.013137403
-0.00096329145
-0.012884162
0.0010227019
-0.012136861
0.0029671658
-0.010923746
0.0047977415
-0.0092912325
0.0064458312
-0.0073014323
0.0078489596
-0.0050302474
0.0089528341
-0.0025648532
0.0097141278
-1.3581356e-07
0.01010268
0.0025645906
0.010102708
0.0050300088
0.0097142088
0.0073012275
0.0089529604
0.0092910703
0.0078491237
0.010923632
0.0064460232
0.012136799
0.0047979528
0.012884144
0.0029673827
0.013137433
0.0010229231
0.012887122
-0.00096308681
0.012142374
-0.0029168665
0.010931164
-0.0047645713
0.0092994727
-0.0064346428
0.0073091278
-0.0078611972
0.0050361079
-0.0089865189
0.0025679483
-0.0097640486
-0.010161236
-0.0021858484
-0.0079753142
-0.0042867669
-0.0076631847
-0.0062212351
-0.0070521376
-0.0079147193
-0.0061678305
-0.0093025782
-0.0050469289
-0.010332343
-0.0037349765
-0.01096536
-0.0022840409
-0.011178201
-0.00075045029
-0.010963182
0.00080768277
-0.010328335
0.0023323191
-0.0092974401
0.0037668464
-0.0079092876
0.0050576787
-0.0062163323
0.0061560044
-0.0042831418
0.0070196436
-0.0021840299
0.0076150159
-1.1086643e-07
0.0079187609
0.0021838145
0.0079187827
0.004282944
0.0076150793
0.0062161608
0.0070197436
0.0079091493
0.0061561351
0.0092973397
0.0050578329
0.010328276
0.0037670168
0.010963161
0.002332497
0.011178221
0.00080786335
0.010965414
-0.00075027924
0.010332429
-0.0022838818
0.0093026921
-0.0037348346
0.0079148568
-0.0050468074
0.0062213917
-0.0061677321
0.0042869378
-0.007052065
0.0021860289
-0.0076631397
-0.0079752988
-0.0017580519
-0.0062171846
-0.0034476227
-0.0059736139
-0.005002991
-0.0054967693
-0.0063641437
-0.0048066777
-0.0074791007
-0.0039319719
-0.008305787
-0.0029082903
-0.0088133959
-0.0017764319
-0.0089833502
-0.00058049598
-0.0088096994
0.00063403196
-0.0082990293
0.001821649
-0.0074704227
0.0029382398
-0.0063549171
0.003942173
-0.004994608
0.0047956953
-0.0034413282
0.0054663638
-0.00175476
0.0059284477
-9.0658265e-08
0.0061640916
0.0017545834
0.0061641087
0.0034411651
0.0059284976
0.0049944654
0.0054664432
0.0063548008
0.0047957998
0.0074703368
0.0039422969
0.0082989762
0.0029383774
0.0088096794
0.0018217938
0.0089833637
0.00063417904
0.0088134396
-0.00058035511
0.0083058583
-0.0017763005
0.0074791962
-0.0029081726
0.0063642597
-0.0039318709
0.0050031235
-0.004806596
0.0034477676
-0.0054967091
0.0017582046
-0.0059735767
-0.006217172
-0.0013722558
-0.0048448637
-0.0026909812
-0.0046548885
-0.0039047792
-0.0042829713
-0.0049667215
-0.0037447355
-0.0058361825
-0.0030625109
-0.006480357
-0.0022641159
-0.0068753351
-0.0013814538
-0.0070067929
-0.00044903821
-0.0068701871
0.00049742614
-0.00647091
0.0014223719
-0.005823966
0.0022912959
-0.0049536552
0.0030718622
-0.0038928616
0.0037349016
-0.0026819881
0.0042554903
-0.0013674915
0.004613951
-7.4027748e-08
0.0047966742
0.001367347
0.0047966876
0.0026818541
0.0046139906
0.0038927438
0.0042555535
0.0049535584
0.0037349851
0.0058238936
0.0030719617
0.0064708642
0.0022914068
0.0068701688
0.0014224892
0.0070068027
0.00049754519
0.0068753702
-0.00044892265
0.0064804155
-0.0013813458
0.0058362617
-0.0022640188
0.0049668182
-0.0030624274
0.0039048901
-0.0037446679
0.0026911025
-0.0042829215
0.0013723837
-0.0046548579
-0.0048448533
-0.0010591543
-0.003785653
-0.0020768852
-0.0036371576
-0.0030134303
-0.0033464262
-0.0038325233
-0.0029256425
-0.0045027957
-0.0023922385
-0.004998944
-0.0017679675
-0.0053025784
-0.0010778194
-0.0054027346
-0.00034888203
-0.0052961603
0.00039085182
-0.0049871308
0.0011133424
-0.0044874485
0.0017916135
-0.0038160189
0.0024004326
-0.00299828
0.0029171627
-0.0020653698
0.0033225801
-0.0010529964
0.0036015775
-6.2805196e-08
0.0037437406
0.0010528737
0.0037437512
0.0020652556
0.0036016086
0.0029981792
0.00332263
0.0038159355
0.0029172288
0.0044873855
0.0024005116
0.0049870904
0.0017917019
0.0052961434
0.0011134363
0.0054027412
0.0003909474
0.0053026076
-0.00034878903
0.0049989937
-0.001077732
0.0045028636
-0.0017678886
0.0038326067
-0.0023921705
0.0030135262
-0.0029255873
0.0020769903
-0.0033463856
0.0010592651
-0.0036371327
-0.0037856446
-0.00085949531
-0.0029261127
-0.0016854188
-0.0028112341
-0.0024455324
-0.0025863127
-0.0031104033
-0.0022607716
-0.0036545317
-0.0018481101
-0.0040573036
-0.0013651956
-0.0043037043
-0.00083141875
-0.0043847907
-0.0002677956
-0.0042978138
0.00030387495
-0.0040464425
0.00086197112
-0.0036403778
0.0013855488
-0.0030951149
0.0018551698
-0.0024314343
0.0022534822
-0.0016746591
0.0025658049
-0.00085371849
0.0027806369
-4.9255085e-08
0.0028900714
0.00085362217
0.0028900797
0.0016745692
0.0027806616
0.0024313547
0.0025658445
0.0030950486
0.0022535348
0.0036403274
0.0018552329
0.0040464098
0.0013856195
0.0042977997
0.0008620464
0.0043847954
0.00030395169
0.0043037267
-0.00026772029
0.0040573425
-0.00083134782
0.0036545853
-0.0013651314
0.0031104694
-0.0018480547
0.0024456087
-0.0022607266
0.0016855026
-0.0025862795
0.00085958366
-0.0028112138
-0.0029261059
-0.00067254331
-0.0022535261
-0.0013186927
-0.0021650847
-0.0019130951
-0.0019919103
-0.002432634
-0.0017412327
-0.0028573269
-0.0014234172
-0.0031710909
-0.0010514316
-0.0033623044
-0.00064020523
-0.0034241313
-0.00020596877
-0.0033547741
0.00023451774
-0.0031571909
0.00066438792
-0.0028391882
0.001067546
-0.0024130306
0.0014290122
-0.0018950214
0.001735473
-0.001304901
0.0019756846
-0.00066512862
0.0021408645
-4.6623735e-08
0.0022249894
0.00066503738
0.0022249957
0.0013048157
0.0021408832
0.0018949455
0.0019757147
0.0024129672
0.0017355131
0.0028391396
0.0014290604
0.003157159
0.0010676001
0.0033547597
0.00066444566
0.0034241345
0.00023457684
0.0033623251
-0.00020591083
0.0031711276
-0.00064015037
0.002857378
-0.0010513818
0.0024326974
-0.001423374
0.0019131684
-0.0017411976
0.0013187734
-0.0019918844
0.00067262842
-0.0021650688
-0.0022535208
-0.0007192885
-0.0015342044
-0.0014105369
-0.0014738363
-0.002046795
-0.0013556522
-0.0026034008
-0.0011846269
-0.0030589307
-0.00096788725
-0.0033960266
-0.00071433578
-0.0036020373
-0.00043419449
-0.0036694607
-0.00013854538
-0.0035960155
0.00016107256
-0.0033849046
0.00045327702
-0.0030444128
0.00072705424
-0.0025877124
0.00097231184
-0.0020323301
0.0011800907
-0.001399496
0.0013428504
-0.00071334966
0.0014547181
-3.5151561e-08
0.0015116749
0.00071328082
0.0015116798
0.0013994315
0.0014547326
0.0020322725
0.0013428737
0.0025876641
0.0011801216
0.0030443756
0.00097234893
0.0033848798
0.00072709585
0.0035960041
0.00045332141
0.003669463
0.00016111796
0.0036020526
-0.00013850039
0.0033960541
-0.00043415192
0.0030589694
-0.00071429706
0.002603449
-0.0009678537
0.002046851
-0.0011845996
0.0014105986
-0.001355632
0.00071935366
-0.0014738239
-0.0015342003
-0.00052933041
-0.0010048368
-0.0010378176
-0.00096534904
-0.0015054364
-0.00088803342
-0.0019139362
-0.00077612706
-0.0022475528
-0.00063427069
-0.0024936219
-0.00046826667
-0.0026430286
-0.00028478775
-0.0026904885
-9.1085538e-05
-0.0026347728
0.00010535687
-0.0024783729
0.00029687719
-0.0022276452
0.00047632647
-0.0018924069
0.00063707359
-0.0014855679
0.0007732516
-0.0010226381
0.00087992071
-0.00052115394
0.00095323395
-3.9058951e-08
0.00099055999
0.00052107744
0.00099056328
0.0010225664
0.00095324362
0.0014855038
0.00087993628
0.0018923531
0.0007732723
0.0022276036
0.00063709843
0.0024783451
0.00047635433
0.0026347596
0.00029690694
0.0026904901
0.00010538745
0.0026430452
-9.1055457e-05
0.0024936523
-0.00028475909
0.0022475958
-0.00046824054
0.0019139901
-0.000634248
0.0015054991
-0.00077610858
0.0010378868
-0.00088801976
0.00052940358
-0.00096534067
-0.0010048339
-0.00081832476
-0.00018647903
-0.0016048449
-0.00017882894
-0.0023289755
-0.00016390274
-0.0029626785
-0.00014242407
-0.0034815391
-0.00011541015
-0.0038657135
-8.4092288e-05
-0.004100682
-4.9819231e-05
-0.004177877
-1.3890495e-05
-0.0040946716
2.2151403e-05
-0.0038545983
5.6803952e-05
-0.0034670224
8.8750558e-05
-0.0029469779
0.00011702911
-0.0023144868
0.00014076045
-0.0015937779
0.00015921184
-0.00081236871
0.00017182476
-3.426705e-08
0.00017822554
0.00081230158
0.00017822743
0.0015937149
0.00017183032
0.0023144304
0.00015922078
0.0029469304
0.0001407723
0.0034669855
0.00011704327
0.0038545735
8.8766365e-05
0.0040946597
5.6820719e-05
0.0041778789
2.2168292e-05
0.0041006962
-1.3872766e-05
0.0038657399
-4.9802826e-05
0.0034815767
-8.4077367e-05
0.0029627259
-0.00011539719
0.0023290309
-0.00014241351
0.001604906
-0.00016389493
0.00081838952
-0.00017882414
-0.00018647741
-0.00024069798
-0.00047171015
-0.00068371278
-0.00086830722
-0.0010183385
-0.0011281716
-0.0011938599
-0.0012131354
-0.001185674
-0.0011130642
-0.0009986153
-0.00084698015
-0.00066403494
-0.0004566816
-0.00023261114
-4.7222984e-08
0.00023251866
0.00045659488
0.00066395749
0.00084691499
0.00099856484
0.0011130302
0.0011856574
0.0012131364
0.0011938793
0.001128208
0.0010183904
0.00086837264
0.00068378918
0.00047179468
0.00024078751
)
;

boundaryField
{
    leftWall
    {
        type            cyclic;
        value           nonuniform List<scalar> 
32
(
3.011316e-08
3.1514548e-08
3.3901409e-08
3.7439159e-08
4.230487e-08
4.8704809e-08
5.687477e-08
6.7045411e-08
7.934535e-08
9.3633372e-08
1.0931195e-07
1.2519914e-07
1.3893784e-07
1.4281498e-07
1.113502e-07
1.6575851e-08
-2.0098874e-08
-1.1458634e-07
-1.4069667e-07
-1.3581119e-07
-1.2268103e-07
-1.0738635e-07
-9.2005521e-08
-7.7763125e-08
-6.5058359e-08
-5.6367519e-08
-4.4944977e-08
-4.3312781e-08
-3.3167175e-08
-3.7256403e-08
-3.2984409e-08
-4.560527e-08
)
;
    }
    rightWall
    {
        type            cyclic;
        value           nonuniform List<scalar> 
32
(
-3.011316e-08
-3.1514548e-08
-3.3901409e-08
-3.7439159e-08
-4.230487e-08
-4.8704809e-08
-5.687477e-08
-6.7045411e-08
-7.934535e-08
-9.3633372e-08
-1.0931195e-07
-1.2519914e-07
-1.3893784e-07
-1.4281498e-07
-1.113502e-07
-1.6575851e-08
2.0098874e-08
1.1458634e-07
1.4069667e-07
1.3581119e-07
1.2268103e-07
1.0738635e-07
9.2005521e-08
7.7763125e-08
6.5058359e-08
5.6367519e-08
4.4944977e-08
4.3312781e-08
3.3167175e-08
3.7256403e-08
3.2984409e-08
4.560527e-08
)
;
    }
    lowerWall
    {
        type            calculated;
        value           uniform 0;
    }
    atmosphere
    {
        type            calculated;
        value           nonuniform List<scalar> 
32
(
5.4264561e-05
5.2183225e-05
4.8099885e-05
4.2170373e-05
3.462113e-05
2.5740785e-05
1.5869118e-05
5.3849977e-06
-5.3100325e-06
-1.5805777e-05
-2.5698393e-05
-3.4606037e-05
-4.2184765e-05
-4.8141503e-05
-5.2245699e-05
-5.4338378e-05
-5.4338447e-05
-5.2245901e-05
-4.8141832e-05
-4.2185208e-05
-3.4606577e-05
-2.5699008e-05
-1.5806442e-05
-5.3107213e-06
5.3843247e-06
1.5868471e-05
2.5740191e-05
3.4620612e-05
4.2169949e-05
4.8099571e-05
5.2183032e-05
5.4264496e-05
)
;
    }
    defaultFaces
    {
        type            empty;
        value           nonuniform List<scalar> 0();
    }
}


// ************************************************************************* //
