/*--------------------------------*- C++ -*----------------------------------*\
| =========                 |                                                 |
| \\      /  F ield         | OpenFOAM: The Open Source CFD Toolbox           |
|  \\    /   O peration     | Version:  2106                                  |
|   \\  /    A nd           | Website:  www.openfoam.com                      |
|    \\/     M anipulation  |                                                 |
\*---------------------------------------------------------------------------*/
FoamFile
{
    version     2.0;
    format      ascii;
    arch        "LSB;label=32;scalar=64";
    class       volScalarField;
    location    "0.022";
    object      reconstructedDistanceFunction;
}
// * * * * * * * * * * * * * * * * * * * * * * * * * * * * * * * * * * * * * //

dimensions      [0 1 0 0 0 0 0];

internalField   nonuniform List<scalar> 
1024
(
0
0
0
0
0
0
0
0
0
0
0
0
0
0
0
0
0
0
0
0
0
0
0
0
0
0
0
0
0
0
0
0
0
0
0
0
0
0
0
0
0
0
0
0
0
0
0
0
0
0
0
0
0
0
0
0
0
0
0
0
0
0
0
0
0
0
0
0
0
0
0
0
0
0
0
0
0
0
0
0
0
0
0
0
0
0
0
0
0
0
0
0
0
0
0
0
0
0
0
0
0
0
0
0
0
0
0
0
0
0
0
0
0
0
0
0
0
0
0
0
0
0
0
0
0
0
0
0
0
0
0
0
0
0
0
0
0
0
0
0
0
0
0
0
0
0
0
0
0
0
0
0
0
0
0
0
0
0
0
0
0
0
0
0
0
0
0
0
0
0
0
0
0
0
0
0
0
0
0
0
0
0
0
0
0
0
0
0
0
0
0
0
0
0
0
0
0
0
0
0
0
0
0
0
0
0
0
0
0
0
0
0
0
0
0
0
0
0
0
0
0
0
0
0
0
0
0
0
0
0
0
0
0
0
0
0
0
0
0
0
0
0
0
0
0
0
0
0
0
0
0
0
0
0
0
0
0
0
0
0
0
0
0
0
0
0
0
0
0
0
0
0
0
0
0
0
0
0
0
0
0
0
0
0
0
0
0
0
0
0
0
0
0
0
0
0
0
0
0
0
0
0
0
0
0
0
0
0
0
0
0
0
0
0
0
0
0
0
0
0
0
0
0
0
0
0
0
0
0
0
0
0
0
0
0
0
0
0
0
0
0
0
0
0
0
0
0
0
0
0
0
0
0
0
0
0
0
0
0
0
0
0
0
0
0
0
0
0
0
0
0
0
0
0
0
0
0
0
0
0
0
0
0
0
0.1073443
0.10742155
0.10757376
0.10779437
0.10807609
0.10840663
0.1087757
0.10916608
0.10956619
0.10995788
0.11032938
0
0
0
0
0
0
0
0
0
0
0.11032941
0.1099579
0.10956627
0.10916611
0.10877572
0.10840665
0.1080761
0.10779439
0.10757377
0.10742156
0.10734431
0.076094304
0.076171756
0.076324354
0.076545403
0.076827622
0.077158623
0.077528041
0.077918602
0.078318713
0.078710219
0.079081373
0.079414702
0.079699429
0.079922738
0.080077193
0.080155644
0.080155655
0.080077202
0.07992276
0.079699448
0.079414722
0.079081405
0.078710236
0.078318785
0.077918627
0.077528063
0.077158648
0.076827633
0.076545423
0.076324364
0.076171767
0.076094306
0.044844304
0.044921963
0.045074947
0.045296437
0.045579151
0.045910617
0.046280381
0.04667112
0.047071232
0.047462559
0.047833368
0.048166235
0.048450461
0.048673309
0.048827409
0.048905669
0.048905679
0.048827418
0.048673331
0.048450481
0.048166255
0.0478334
0.047462575
0.047071304
0.046671146
0.046280403
0.045910643
0.045579162
0.045296458
0.045074956
0.044921974
0.044844306
0.013594304
0.01367217
0.013825539
0.014047471
0.01433068
0.014662612
0.015032721
0.015423639
0.015823751
0.016214899
0.016585363
0.016917767
0.017201494
0.017423879
0.017577626
0.017655694
0.017655704
0.017577635
0.017423901
0.017201514
0.016917787
0.016585396
0.016214915
0.015823823
0.015423665
0.015032742
0.014662638
0.014330691
0.014047492
0.013825548
0.013672182
0.013594306
-0.017655696
-0.017577622
-0.017423869
-0.017201494
-0.01691779
-0.016585393
-0.016214939
-0.015823842
-0.01542373
-0.015032761
-0.014662642
-0.0143307
-0.014047473
-0.01382555
-0.013672158
-0.013594282
-0.013594272
-0.013672149
-0.013825528
-0.014047454
-0.014330681
-0.014662609
-0.015032745
-0.015423659
-0.015823816
-0.016214918
-0.016585368
-0.016917779
-0.017201474
-0.017423859
-0.017577611
-0.017655694
-0.048905696
-0.048827415
-0.048673277
-0.04845046
-0.048166261
-0.047833398
-0.047462599
-0.047071324
-0.046671211
-0.046280421
-0.045910647
-0.045579168
-0.045296441
-0.04507498
-0.044921942
-0.044844257
-0.044844247
-0.044921932
-0.045074958
-0.045296421
-0.045579148
-0.045910614
-0.046280406
-0.04667114
-0.047071297
-0.047462578
-0.047833373
-0.04816625
-0.048450439
-0.048673267
-0.048827403
-0.048905694
-0.080155696
-0.080077207
-0.079922684
-0.079699425
-0.079414732
-0.079081404
-0.078710259
-0.078318805
-0.077918692
-0.077528081
-0.077158651
-0.076827635
-0.076545408
-0.07632441
-0.076171725
-0.076094232
-0.076094222
-0.076171716
-0.076324387
-0.076545388
-0.076827616
-0.077158619
-0.077528066
-0.077918621
-0.078318778
-0.078710238
-0.079081378
-0.079414721
-0.079699405
-0.079922675
-0.080077196
-0.080155694
0
0
0
0
0
-0.11032941
-0.10995792
-0.10956629
-0.10916617
-0.10877574
-0.10840666
-0.1080761
-0.10779438
-0.10757384
-0.10742151
-0.10734421
-0.1073442
-0.1074215
-0.10757382
-0.10779436
-0.10807608
-0.10840662
-0.10877573
-0.1091661
-0.10956626
-0.1099579
-0.11032938
0
0
0
0
0
0
0
0
0
0
0
0
0
0
0
0
0
0
0
0
0
0
0
0
0
0
0
0
0
0
0
0
0
0
0
0
0
0
0
0
0
0
0
0
0
0
0
0
0
0
0
0
0
0
0
0
0
0
0
0
0
0
0
0
0
0
0
0
0
0
0
0
0
0
0
0
0
0
0
0
0
0
0
0
0
0
0
0
0
0
0
0
0
0
0
0
0
0
0
0
0
0
0
0
0
0
0
0
0
0
0
0
0
0
0
0
0
0
0
0
0
0
0
0
0
0
0
0
0
0
0
0
0
0
0
0
0
0
0
0
0
0
0
0
0
0
0
0
0
0
0
0
0
0
0
0
0
0
0
0
0
0
0
0
0
0
0
0
0
0
0
0
0
0
0
0
0
0
0
0
0
0
0
0
0
0
0
0
0
0
0
0
0
0
0
0
0
0
0
0
0
0
0
0
0
0
0
0
0
0
0
0
0
0
0
0
0
0
0
0
0
0
0
0
0
0
0
0
0
0
0
0
0
0
0
0
0
0
0
0
0
0
0
0
0
0
0
0
0
0
0
0
0
0
0
0
0
0
0
0
0
0
0
0
0
0
0
0
0
0
0
0
0
0
0
0
0
0
0
0
0
0
0
0
0
0
0
0
0
0
0
0
0
0
0
0
0
0
0
0
0
0
0
0
0
0
0
0
0
0
0
0
0
0
0
0
0
0
0
0
0
0
0
0
0
0
0
0
0
0
0
0
0
0
0
0
0
0
0
0
0
0
0
0
0
0
0
0
0
0
0
0
0
0
0
0
0
0
0
0
0
0
0
0
0
0
0
0
0
0
0
0
0
0
0
0
0
0
0
0
0
0
0
0
0
0
0
0
0
)
;

boundaryField
{
    leftWall
    {
        type            cyclic;
    }
    rightWall
    {
        type            cyclic;
    }
    lowerWall
    {
        type            calculated;
        value           uniform 0;
    }
    atmosphere
    {
        type            calculated;
        value           uniform 0;
    }
    defaultFaces
    {
        type            empty;
    }
}


// ************************************************************************* //
