/*--------------------------------*- C++ -*----------------------------------*\
| =========                 |                                                 |
| \\      /  F ield         | OpenFOAM: The Open Source CFD Toolbox           |
|  \\    /   O peration     | Version:  2106                                  |
|   \\  /    A nd           | Website:  www.openfoam.com                      |
|    \\/     M anipulation  |                                                 |
\*---------------------------------------------------------------------------*/
FoamFile
{
    version     2.0;
    format      ascii;
    arch        "LSB;label=32;scalar=64";
    class       volVectorField;
    location    "0.022";
    object      U;
}
// * * * * * * * * * * * * * * * * * * * * * * * * * * * * * * * * * * * * * //

dimensions      [0 1 -1 0 0 0 0];

internalField   nonuniform List<vector> 
1024
(
(0.0063742208 -0.0062104269 0)
(0.018883019 -0.0059750138 0)
(0.030675869 -0.0055127827 0)
(0.041304613 -0.0048406763 0)
(0.050363822 -0.0039834115 0)
(0.057505905 -0.0029726626 0)
(0.062454295 -0.0018460056 0)
(0.065014325 -0.00064565696 0)
(0.065080534 0.00058298496 0)
(0.062644505 0.0017926616 0)
(0.057789815 0.0029371961 0)
(0.050698746 0.0039710032 0)
(0.041639573 0.0048531649 0)
(0.030960127 0.0055482438 0)
(0.019073607 0.0060280465 0)
(0.0064424315 0.0062729796 0)
(-0.0064404391 0.0062729995 0)
(-0.019071695 0.0060281054 0)
(-0.030958372 0.0055483389 0)
(-0.041638045 0.0048532919 0)
(-0.050697505 0.0039711565 0)
(-0.057788907 0.002937369 0)
(-0.062643962 0.001792847 0)
(-0.065080375 0.00058317532 0)
(-0.065014551 -0.00064546904 0)
(-0.062454894 -0.0018458271 0)
(-0.057506851 -0.0029725 0)
(-0.050365076 -0.0039832704 0)
(-0.041306127 -0.0048405613 0)
(-0.030677587 -0.0055126977 0)
(-0.018884876 -0.0059749617 0)
(-0.0063761481 -0.0062104093 0)
(0.006910095 -0.019037335 0)
(0.020470368 -0.018315722 0)
(0.033254378 -0.016898857 0)
(0.044776312 -0.014838696 0)
(0.054596796 -0.01221102 0)
(0.062339246 -0.0091129182 0)
(0.067704083 -0.0056595479 0)
(0.070480369 -0.0019802732 0)
(0.070554154 0.0017856594 0)
(0.067914477 0.0054945935 0)
(0.062653964 0.0090029672 0)
(0.054968049 0.012172497 0)
(0.045147624 0.014877319 0)
(0.033569458 0.017008651 0)
(0.020681572 0.018479946 0)
(0.0069856052 0.019231046 0)
(-0.0069835116 0.019231106 0)
(-0.020679563 0.018480126 0)
(-0.033567616 0.01700894 0)
(-0.045146021 0.014877705 0)
(-0.054966748 0.012172963 0)
(-0.062653013 0.0090034929 0)
(-0.067913911 0.0054951569 0)
(-0.070553991 0.0017862378 0)
(-0.07048061 -0.0019797025 0)
(-0.067704714 -0.0056590061 0)
(-0.06234024 -0.0091124248 0)
(-0.054598112 -0.012210592 0)
(-0.044777899 -0.014838347 0)
(-0.033256176 -0.016898599 0)
(-0.020472311 -0.018315564 0)
(-0.006912112 -0.019037282 0)
(0.0078631624 -0.033431332 0)
(0.023293279 -0.032163863 0)
(0.037839237 -0.029675345 0)
(0.050948008 -0.026057224 0)
(0.062119816 -0.021442792 0)
(0.07092671 -0.016002678 0)
(0.077028588 -0.0099390809 0)
(0.080186133 -0.0034789406 0)
(0.080270233 0.0031337226 0)
(0.077268058 0.009646529 0)
(0.071284957 0.015807475 0)
(0.062542312 0.021374404 0)
(0.0513705 0.026125799 0)
(0.038197668 0.029870238 0)
(0.023533469 0.032455337 0)
(0.0079489512 0.033775113 0)
(-0.0079466841 0.033775218 0)
(-0.023531295 0.032455646 0)
(-0.038195676 0.029870737 0)
(-0.051368769 0.026126465 0)
(-0.06254091 0.021375207 0)
(-0.071283937 0.01580838 0)
(-0.077267455 0.0096474979 0)
(-0.080270064 0.0031347162 0)
(-0.0801864 -0.0034779613 0)
(-0.077029275 -0.0099381524 0)
(-0.070927786 -0.016001833 0)
(-0.062121236 -0.021442059 0)
(-0.050949719 -0.026056628 0)
(-0.037841173 -0.029674904 0)
(-0.02329537 -0.032163592 0)
(-0.0078653321 -0.03343124 0)
(0.0092930456 -0.050124736 0)
(0.02752817 -0.048223338 0)
(0.044716418 -0.044490524 0)
(0.060203611 -0.039064037 0)
(0.073399352 -0.032144427 0)
(0.083798964 -0.02398806 0)
(0.091002135 -0.014898247 0)
(0.094727711 -0.0052148999 0)
(0.094824375 0.0046968958 0)
(0.091277292 0.014459391 0)
(0.084210489 0.02369529 0)
(0.07388447 0.032042031 0)
(0.060688537 0.039167189 0)
(0.045127669 0.044783181 0)
(0.027803661 0.048660838 0)
(0.0093913757 0.05064066 0)
(-0.0093888484 0.050640814 0)
(-0.027801239 0.048661292 0)
(-0.045125454 0.044783913 0)
(-0.060686616 0.039168165 0)
(-0.073882919 0.032043206 0)
(-0.084209365 0.023696613 0)
(-0.091276632 0.014460805 0)
(-0.0948242 0.004698344 0)
(-0.094728019 -0.0052134749 0)
(-0.091002906 -0.014896898 0)
(-0.083800162 -0.023986833 0)
(-0.073400928 -0.032143365 0)
(-0.060205504 -0.039063172 0)
(-0.044718558 -0.044489885 0)
(-0.02753048 -0.048222946 0)
(-0.0092954416 -0.050124604 0)
(0.011317468 -0.07015852 0)
(0.033523416 -0.067494528 0)
(0.054450794 -0.062265373 0)
(0.073301731 -0.054665321 0)
(0.089357528 -0.044976745 0)
(0.10200539 -0.033559822 0)
(0.1107607 -0.020839652 0)
(0.11528419 -0.0072915038 0)
(0.1153941 0.006575019 0)
(0.11107345 0.020232844 0)
(0.10247291 0.033155269 0)
(0.089908294 0.044835632 0)
(0.073851952 0.054808473 0)
(0.054917186 0.062670449 0)
(0.033835728 0.0680997 0)
(0.011428922 0.070871987 0)
(-0.011426032 0.070872198 0)
(-0.033832962 0.068100321 0)
(-0.05491466 0.062671448 0)
(-0.073849767 0.054809802 0)
(-0.089906537 0.04483723 0)
(-0.10247164 0.033157065 0)
(-0.11107272 0.020234761 0)
(-0.11539391 0.0065769783 0)
(-0.11528456 -0.0072895801 0)
(-0.11076159 -0.020837834 0)
(-0.10200676 -0.033558173 0)
(-0.089359318 -0.044975317 0)
(-0.073303875 -0.05466416 0)
(-0.054453215 -0.062264516 0)
(-0.033526027 -0.067494002 0)
(-0.011320175 -0.070158343 0)
(0.014113097 -0.094855478 0)
(0.041801848 -0.091248164 0)
(0.067890187 -0.084168888 0)
(0.091381101 -0.073883213 0)
(0.11137865 -0.06077627 0)
(0.12712137 -0.045337856 0)
(0.13800947 -0.02814408 0)
(0.14362503 -0.009836886 0)
(0.14374571 0.0088971446 0)
(0.13835271 0.027348587 0)
(0.12763401 0.04480811 0)
(0.11198197 0.060592281 0)
(0.091983291 0.074071923 0)
(0.068400268 0.084700709 0)
(0.042143275 0.092041911 0)
(0.014235022 0.095790899 0)
(-0.014231648 0.095791177 0)
(-0.042140049 0.092042728 0)
(-0.068397329 0.084702022 0)
(-0.091980758 0.074073667 0)
(-0.11197994 0.060594372 0)
(-0.12763255 0.044810454 0)
(-0.13835187 0.027351084 0)
(-0.14374552 0.0088996917 0)
(-0.14362548 -0.0098343929 0)
(-0.13801052 -0.02814173 0)
(-0.12712296 -0.045335728 0)
(-0.11138072 -0.06077443 0)
(-0.091383576 -0.073881718 0)
(-0.067892977 -0.084167784 0)
(-0.041804855 -0.091247486 0)
(-0.014116214 -0.094855249 0)
(0.017900361 -0.12594417 0)
(0.053015866 -0.1211443 0)
(0.086092736 -0.11172737 0)
(0.1158633 -0.098051099 0)
(0.14119127 -0.080632835 0)
(0.16111435 -0.060128126 0)
(0.17487799 -0.037304693 0)
(0.18195948 -0.013014254 0)
(0.18208343 0.011835347 0)
(0.17523026 0.036307493 0)
(0.16163972 0.059465223 0)
(0.14180858 0.080404072 0)
(0.1164786 0.098289566 0)
(0.086613379 0.11239545 0)
(0.053364195 0.12214 0)
(0.018025014 0.12711691 0)
(-0.018021011 0.12711726 0)
(-0.053360374 0.12214105 0)
(-0.086609908 0.11239714 0)
(-0.11647562 0.098291805 0)
(-0.14180621 0.080406749 0)
(-0.16163803 0.059468216 0)
(-0.17522931 0.03631067 0)
(-0.18208324 0.011838582 0)
(-0.18196004 -0.0130111 0)
(-0.17487924 -0.03730173 0)
(-0.16111623 -0.060125448 0)
(-0.1411937 -0.080630523 0)
(-0.11586619 -0.098049221 0)
(-0.086095996 -0.11172599 0)
(-0.053019376 -0.12114345 0)
(-0.017904001 -0.12594388 0)
(0.022872218 -0.16561696 0)
(0.067736739 -0.15928823 0)
(0.10998561 -0.14687612 0)
(0.1479951 -0.12885903 0)
(0.18031294 -0.10592682 0)
(0.20571314 -0.078950087 0)
(0.22323852 -0.048943292 0)
(0.23222984 -0.017026228 0)
(0.23234392 0.015612378 0)
(0.22356228 0.047748663 0)
(0.20619481 0.078157975 0)
(0.18087734 0.10565593 0)
(0.14855642 0.1291478 0)
(0.11045985 0.14767866 0)
(0.06805384 0.16048202 0)
(0.022986269 0.16702185 0)
(-0.022981464 0.16702231 0)
(-0.068049265 0.16048336 0)
(-0.1104557 0.14768082 0)
(-0.14855289 0.12915064 0)
(-0.18087453 0.10565931 0)
(-0.20619283 0.078161743 0)
(-0.22356118 0.047752649 0)
(-0.23234373 0.01561643 0)
(-0.23223055 -0.017022304 0)
(-0.22324003 -0.048939615 0)
(-0.20571539 -0.078946772 0)
(-0.18031582 -0.10592397 0)
(-0.14799852 -0.12885671 0)
(-0.10998945 -0.1468744 0)
(-0.067740875 -0.15928718 0)
(-0.022876509 -0.1656166 0)
(0.029019879 -0.21636607 0)
(0.085939026 -0.20807365 0)
(0.13952957 -0.1918165 0)
(0.18772775 -0.16823046 0)
(0.22868985 -0.13822996 0)
(0.2608626 -0.10296451 0)
(0.28303638 -0.063766823 0)
(0.29438118 -0.022100821 0)
(0.29447056 0.020486004 0)
(0.28328968 0.062404462 0)
(0.2612383 0.10206429 0)
(0.22912824 0.13792553 0)
(0.18816241 0.16856386 0)
(0.13989607 0.19273439 0)
(0.086183939 0.2094358 0)
(0.029109005 0.21796731 0)
(-0.029103195 0.2179679 0)
(-0.086178424 0.20943751 0)
(-0.1398911 0.19273712 0)
(-0.1881582 0.16856744 0)
(-0.22912492 0.13792977 0)
(-0.26123599 0.102069 0)
(-0.28328842 0.062409411 0)
(-0.2944704 0.020491034 0)
(-0.29438208 -0.022095995 0)
(-0.28303821 -0.063762309 0)
(-0.26086529 -0.10296046 0)
(-0.22869328 -0.13822646 0)
(-0.1877318 -0.16822762 0)
(-0.13953411 -0.1918144 0)
(-0.085943914 -0.20807235 0)
(-0.029024957 -0.21636563 0)
(0.035825911 -0.28034961 0)
(0.10609241 -0.26957524 0)
(0.1722468 -0.24846058 0)
(0.23174092 -0.2178411 0)
(0.28229699 -0.17891634 0)
(0.32199633 -0.13318945 0)
(0.34934264 -0.082396508 0)
(0.36330665 -0.028438945 0)
(0.3633683 0.026682173 0)
(0.34951785 0.080917373 0)
(0.32225817 0.13221558 0)
(0.28260285 0.17859003 0)
(0.23204451 0.21820657 0)
(0.17250307 0.24945944 0)
(0.10626369 0.27105449 0)
(0.035889656 0.28208607 0)
(-0.035882595 0.28208682 0)
(-0.10625702 0.27105667 0)
(-0.17249711 0.24946288 0)
(-0.2320395 0.21821106 0)
(-0.28259896 0.17859534 0)
(-0.32225551 0.13222144 0)
(-0.34951644 0.080923461 0)
(-0.36336822 0.026688378 0)
(-0.36330782 -0.028433088 0)
(-0.34934486 -0.082391012 0)
(-0.32199954 -0.13318453 0)
(-0.28230104 -0.17891211 0)
(-0.23174569 -0.21783767 0)
(-0.17225214 -0.24845804 0)
(-0.10609816 -0.26957365 0)
(-0.035831905 -0.28034906 0)
(0.041866938 -0.35801307 0)
(0.12398527 -0.34422688 0)
(0.20131172 -0.31722095 0)
(0.27087644 -0.27806952 0)
(0.33001693 -0.22831706 0)
(0.3764849 -0.16989573 0)
(0.40850881 -0.10501411 0)
(0.42485575 -0.036108067 0)
(0.4249241 0.034243383 0)
(0.40870207 0.10343248 0)
(0.3767869 0.16884969 0)
(0.33038207 0.22796421 0)
(0.27124688 0.27845134 0)
(0.20162835 0.3182745 0)
(0.12419727 0.34578833 0)
(0.041945428 0.35984333 0)
(-0.041936819 0.3598443 0)
(-0.12418922 0.34579111 0)
(-0.20162123 0.31827884 0)
(-0.27124098 0.278457 0)
(-0.33037758 0.22797084 0)
(-0.37678398 0.16885701 0)
(-0.4087006 0.10343989 0)
(-0.42492422 0.034250992 0)
(-0.42485733 -0.036101095 0)
(-0.40851147 -0.10500745 0)
(-0.3764887 -0.16988979 0)
(-0.33002167 -0.22831199 0)
(-0.27088199 -0.2780654 0)
(-0.2013179 -0.31721789 0)
(-0.12399195 -0.34422493 0)
(-0.04187394 -0.35801239 0)
(0.044529409 -0.44587697 0)
(0.13188148 -0.42869765 0)
(0.21417551 -0.39505971 0)
(0.28827449 -0.34629269 0)
(0.35134658 -0.2843198 0)
(0.4009856 -0.21153511 0)
(0.43526465 -0.13069045 0)
(0.45285222 -0.044853015 0)
(0.4530369 0.042785736 0)
(0.4357909 0.12895083 0)
(0.4017809 0.21036871 0)
(0.35230159 0.28390213 0)
(0.28924274 0.34669113 0)
(0.21500291 0.39620822 0)
(0.13243428 0.43041224 0)
(0.044727926 0.44788517 0)
(-0.044717433 0.44788645 0)
(-0.13242462 0.43041585 0)
(-0.21499453 0.39621372 0)
(-0.28923597 0.34669827 0)
(-0.35229661 0.28391045 0)
(-0.40177801 0.21037795 0)
(-0.4357896 0.12895969 0)
(-0.45303746 0.042794962 0)
(-0.45285433 -0.044845028 0)
(-0.43526769 -0.1306824 0)
(-0.40099001 -0.21152799 0)
(-0.35135198 -0.2843138 0)
(-0.28828074 -0.34628785 0)
(-0.21418244 -0.3950561 0)
(-0.13188901 -0.42869525 0)
(-0.04453744 -0.4458761 0)
(0.040308408 -0.53402714 0)
(0.11940743 -0.51348482 0)
(0.19399297 -0.47327086 0)
(0.26126458 -0.41493925 0)
(0.31866074 -0.3407829 0)
(0.36401837 -0.25366084 0)
(0.39553031 -0.15679906 0)
(0.41186329 -0.053872888 0)
(0.41229471 0.051249777 0)
(0.39676917 0.15456114 0)
(0.36589758 0.25214028 0)
(0.32092262 0.3402125 0)
(0.263555 0.41540478 0)
(0.19594273 0.47470583 0)
(0.12070927 0.5156565 0)
(0.040773117 0.53658078 0)
(-0.04076053 0.53658256 0)
(-0.12069804 0.51566133 0)
(-0.19593328 0.47471282 0)
(-0.26354757 0.41541381 0)
(-0.32091732 0.34022301 0)
(-0.36589526 0.25215229 0)
(-0.39676857 0.15457141 0)
(-0.41229607 0.051260634 0)
(-0.4118659 -0.053864461 0)
(-0.39553331 -0.1567891 0)
(-0.36402336 -0.25365235 0)
(-0.31866666 -0.340776 0)
(-0.26127125 -0.4149337 0)
(-0.19400025 -0.47326668 0)
(-0.11941551 -0.51348177 0)
(-0.040317348 -0.534026 0)
(0.026470356 -0.60527689 0)
(0.078519225 -0.58202487 0)
(0.12768149 -0.53661482 0)
(0.1721287 -0.47070902 0)
(0.21017841 -0.38688304 0)
(0.2405076 -0.28834369 0)
(0.26188744 -0.17854519 0)
(0.27324995 -0.061641747 0)
(0.27397977 0.057816066 0)
(0.26395506 0.17522459 0)
(0.24359 0.28603567 0)
(0.21379484 0.38599133 0)
(0.17572936 0.4713784 0)
(0.13074105 0.53872371 0)
(0.080587543 0.58521462 0)
(0.027234925 0.60899323 0)
(-0.027220935 0.60899579 0)
(-0.080575728 0.58522124 0)
(-0.1307314 0.53873246 0)
(-0.17572158 0.47138961 0)
(-0.2137889 0.38600456 0)
(-0.24358903 0.28605227 0)
(-0.26395652 0.17523603 0)
(-0.27398238 0.057827663 0)
(-0.27325171 -0.061634181 0)
(-0.261889 -0.17853197 0)
(-0.24051345 -0.28833346 0)
(-0.21018489 -0.38687549 0)
(-0.17213529 -0.47070304 0)
(-0.12768818 -0.53661011 0)
(-0.078526976 -0.58202075 0)
(-0.026479596 -0.60527531 0)
(0.0053707826 -0.63942553 0)
(0.015779887 -0.6151185 0)
(0.025571863 -0.56748571 0)
(0.034361002 -0.49822056 0)
(0.0417499 -0.41007453 0)
(0.047817532 -0.30640316 0)
(0.052425503 -0.19046272 0)
(0.054983664 -0.066493011 0)
(0.055256823 0.060545003 0)
(0.053250447 0.1853496 0)
(0.049119185 0.30293378 0)
(0.043295183 0.40883717 0)
(0.035887332 0.49937423 0)
(0.026861397 0.57083153 0)
(0.016651184 0.62014965 0)
(0.0056470971 0.6453919 0)
(-0.0056355632 0.64539566 0)
(-0.016642136 0.62015882 0)
(-0.026853233 0.57084219 0)
(-0.035878511 0.49938728 0)
(-0.04328614 0.40885308 0)
(-0.049120915 0.30295605 0)
(-0.053259467 0.18536191 0)
(-0.055261075 0.060554055 0)
(-0.054978046 -0.066487987 0)
(-0.052421705 -0.19044538 0)
(-0.047825564 -0.30639109 0)
(-0.04175814 -0.41006705 0)
(-0.034367342 -0.49821473 0)
(-0.02557648 -0.56748062 0)
(-0.015785276 -0.61511277 0)
(-0.0053780651 -0.63942323 0)
(-0.0086153386 -0.62035928 0)
(-0.02590007 -0.59613276 0)
(-0.043014177 -0.54915861 0)
(-0.059611521 -0.48096409 0)
(-0.075325615 -0.3946659 0)
(-0.089126192 -0.29419612 0)
(-0.099927277 -0.18224425 0)
(-0.10705651 -0.062740207 0)
(-0.10974962 0.059337298 0)
(-0.10755281 0.1792637 0)
(-0.1004873 0.29218196 0)
(-0.088710438 0.39403251 0)
(-0.072997864 0.48175424 0)
(-0.054371193 0.55123071 0)
(-0.03349451 0.5991885 0)
(-0.011267999 0.62393445 0)
(0.01126924 0.62393898 0)
(0.033496271 0.59919738 0)
(0.054376482 0.55123681 0)
(0.073007652 0.48176394 0)
(0.088721247 0.39405595 0)
(0.10048057 0.29222954 0)
(0.10753022 0.17927926 0)
(0.1097446 0.059314637 0)
(0.1070766 -0.062746271 0)
(0.099940062 -0.18220353 0)
(0.089119905 -0.29417317 0)
(0.07531755 -0.39466026 0)
(0.059606207 -0.48096273 0)
(0.043012116 -0.54915611 0)
(0.025899037 -0.59612584 0)
(0.0086142054 -0.62035648 0)
(0.011496769 -0.62419524 0)
(0.034173503 -0.59943269 0)
(0.055475895 -0.55144884 0)
(0.0744881 -0.48193401 0)
(0.090532182 -0.39419058 0)
(0.10254096 -0.29235715 0)
(0.10974123 -0.17935097 0)
(0.11205396 -0.059256336 0)
(0.10943561 0.062863662 0)
(0.10223811 0.18228848 0)
(0.091221241 0.29423435 0)
(0.077141155 0.39479688 0)
(0.061105736 0.48113619 0)
(0.044125818 0.5493412 0)
(0.026585698 0.59632335 0)
(0.0088473022 0.62054997 0)
(-0.0088478383 0.62055452 0)
(-0.026586952 0.59633219 0)
(-0.044130322 0.54934708 0)
(-0.061114605 0.48114574 0)
(-0.077150834 0.39482068 0)
(-0.091214758 0.29428262 0)
(-0.10221747 0.18230449 0)
(-0.10943068 0.062842351 0)
(-0.11207353 -0.059262292 0)
(-0.10975403 -0.17931028 0)
(-0.10253393 -0.29233426 0)
(-0.090523395 -0.39418478 0)
(-0.074482358 -0.48193243 0)
(-0.05547374 -0.55144619 0)
(-0.034172339 -0.59942583 0)
(-0.011495397 -0.62419248 0)
(-0.0054021854 -0.64610271 0)
(-0.015944189 -0.62083213 0)
(-0.025715788 -0.57145735 0)
(-0.034343018 -0.4999176 0)
(-0.041405533 -0.40928332 0)
(-0.04697733 -0.30327948 0)
(-0.050947772 -0.18555188 0)
(-0.052844243 -0.060585575 0)
(-0.052526812 0.066586857 0)
(-0.050043283 0.19066115 0)
(-0.045643274 0.306707 0)
(-0.039857375 0.41050457 0)
(-0.032801247 0.49874431 0)
(-0.024410776 0.56807603 0)
(-0.015066062 0.61575537 0)
(-0.005135265 0.64008462 0)
(0.0051244925 0.6400885 0)
(0.015057579 0.6157647 0)
(0.024402861 0.56808661 0)
(0.032792175 0.49875731 0)
(0.03984797 0.41052109 0)
(0.045645037 0.30673034 0)
(0.050053298 0.19067408 0)
(0.052531043 0.066596778 0)
(0.052838077 -0.060580252 0)
(0.050944018 -0.18553471 0)
(0.046984825 -0.3032675 0)
(0.041413337 -0.40927565 0)
(0.034349136 -0.49991152 0)
(0.025720389 -0.57145213 0)
(0.015949714 -0.62082659 0)
(0.005409668 -0.64610052 0)
(-0.026965497 -0.6101847 0)
(-0.079812348 -0.58635965 0)
(-0.12948809 -0.53977768 0)
(-0.17404512 -0.47229991 0)
(-0.2117424 -0.38674718 0)
(-0.24125487 -0.28660398 0)
(-0.26142823 -0.17556888 0)
(-0.27134661 -0.057921529 0)
(-0.27060582 0.061769461 0)
(-0.25933896 0.17888704 0)
(-0.23816612 0.2888878 0)
(-0.20813245 0.38762395 0)
(-0.1704488 0.47161141 0)
(-0.12643435 0.53764103 0)
(-0.077754686 0.58313659 0)
(-0.026219459 0.60643218 0)
(0.026205502 0.60643487 0)
(0.077742933 0.5831435 0)
(0.12642475 0.53765002 0)
(0.17044091 0.47162285 0)
(0.20812638 0.38763764 0)
(0.23816528 0.28890499 0)
(0.25934089 0.17889873 0)
(0.27060837 0.061780391 0)
(0.27134811 -0.0579137 0)
(0.26142972 -0.17555587 0)
(0.24126035 -0.28659383 0)
(0.21174858 -0.38673962 0)
(0.17405151 -0.47229393 0)
(0.12949469 -0.53977302 0)
(0.079820012 -0.58635571 0)
(0.026974595 -0.6101832 0)
(-0.040465832 -0.53831145 0)
(-0.11982065 -0.51732042 0)
(-0.19450695 -0.47623793 0)
(-0.26162812 -0.41674548 0)
(-0.31857898 -0.34131142 0)
(-0.36323247 -0.25295651 0)
(-0.39388622 -0.15505854 0)
(-0.40930268 -0.051410748 0)
(-0.40887654 0.054050301 0)
(-0.39266344 0.15730241 0)
(-0.36138422 0.2544689 0)
(-0.31635947 0.34186959 0)
(-0.25938022 0.41626049 0)
(-0.19259674 0.47477494 0)
(-0.11855219 0.51511489 0)
(-0.040026929 0.53572203 0)
(0.040014152 0.5357239 0)
(0.11854085 0.51511992 0)
(0.19258724 0.47478218 0)
(0.25937275 0.41626979 0)
(0.31635419 0.34188044 0)
(0.36138202 0.25448127 0)
(0.39266304 0.15731284 0)
(0.40887796 0.054060977 0)
(0.40930522 -0.051402207 0)
(0.39388915 -0.15504867 0)
(0.3632373 -0.25294808 0)
(0.31858475 -0.34130457 0)
(0.26163466 -0.41673999 0)
(0.19451411 -0.47623381 0)
(0.11982859 -0.51731747 0)
(0.040474568 -0.53831036 0)
(-0.044363075 -0.45024943 0)
(-0.13137276 -0.43268449 0)
(-0.21328723 -0.39829896 0)
(-0.28694194 -0.34851865 0)
(-0.34950789 -0.28539582 0)
(-0.39860644 -0.21147196 0)
(-0.43236086 -0.12962031 0)
(-0.44948397 -0.042998946 0)
(-0.44931364 0.045100703 0)
(-0.43187538 0.1313858 0)
(-0.39787482 0.21264792 0)
(-0.34863158 0.28580857 0)
(-0.28605428 0.34809857 0)
(-0.21253174 0.39711344 0)
(-0.13087436 0.4309219 0)
(-0.044195887 0.44818875 0)
(0.044185228 0.44819009 0)
(0.13086459 0.43092566 0)
(0.2125233 0.39711913 0)
(0.2860475 0.34810594 0)
(0.34862664 0.28581716 0)
(0.39787203 0.21265741 0)
(0.43187423 0.13139483 0)
(0.44931429 0.04510997 0)
(0.4494861 -0.042990889 0)
(0.43236389 -0.12961225 0)
(0.39861081 -0.21146486 0)
(0.34951324 -0.28538987 0)
(0.28694811 -0.34851386 0)
(0.21329406 -0.39829542 0)
(0.13138017 -0.43268215 0)
(0.044370943 -0.4502486 0)
(-0.041496557 -0.36297559 0)
(-0.12288448 -0.34879711 0)
(-0.19950512 -0.32104035 0)
(-0.26839962 -0.28086539 0)
(-0.32692602 -0.22993268 0)
(-0.37286092 -0.17029761 0)
(-0.40446164 -0.1043061 0)
(-0.42053503 -0.03451354 0)
(-0.42048812 0.036446889 0)
(-0.40432918 0.10594399 0)
(-0.37265097 0.17137713 0)
(-0.32667064 0.23028987 0)
(-0.26814087 0.28045728 0)
(-0.1992864 0.31993281 0)
(-0.12274343 0.34716132 0)
(-0.0414533 0.36106136 0)
(0.041444591 0.36106237 0)
(0.12273531 0.34716421 0)
(0.19927925 0.3199373 0)
(0.26813498 0.28046312 0)
(0.32666621 0.23029671 0)
(0.37264814 0.17138465 0)
(0.40432783 0.10595157 0)
(0.42048835 0.036454603 0)
(0.42053666 -0.034506482 0)
(0.40446434 -0.1042994 0)
(0.37286473 -0.17029166 0)
(0.32693074 -0.22992762 0)
(0.26840511 -0.28086131 0)
(0.19951122 -0.32103733 0)
(0.12289106 -0.3487952 0)
(0.041503435 -0.36297493 0)
(-0.035327527 -0.28615549 0)
(-0.10461322 -0.27496176 0)
(-0.16983156 -0.25304841 0)
(-0.2284606 -0.22133519 0)
(-0.27825143 -0.18113647 0)
(-0.31731364 -0.13408321 0)
(-0.34417603 -0.082038209 0)
(-0.35783827 -0.027019443 0)
(-0.35780242 0.028891053 0)
(-0.34407426 0.083613175 0)
(-0.31716213 0.13511757 0)
(-0.27807683 0.18147794 0)
(-0.22829008 0.22093645 0)
(-0.16969095 0.25197214 0)
(-0.10452391 0.27337214 0)
(-0.035301187 0.28429204 0)
(0.035294083 0.28429282 0)
(0.10451721 0.27337439 0)
(0.16968498 0.2519757 0)
(0.22828509 0.2209411 0)
(0.27807299 0.18148342 0)
(0.31715955 0.13512361 0)
(0.34407294 0.083619429 0)
(0.35780242 0.028897392 0)
(0.35783952 -0.027013477 0)
(0.34417831 -0.082032635 0)
(0.31731687 -0.13407823 0)
(0.27825548 -0.18113222 0)
(0.22846533 -0.22133175 0)
(0.16983683 -0.25304588 0)
(0.10461889 -0.27496018 0)
(0.035333417 -0.28615495 0)
(-0.028415635 -0.22320312 0)
(-0.084142777 -0.21446068 0)
(-0.13658987 -0.1973461 0)
(-0.1837248 -0.17257906 0)
(-0.22373758 -0.14118785 0)
(-0.2551096 -0.10445074 0)
(-0.27666489 -0.063829571 0)
(-0.28760833 -0.02090433 0)
(-0.28754682 0.022694326 0)
(-0.27649102 0.06533904 0)
(-0.25485318 0.10544609 0)
(-0.22344082 0.14151971 0)
(-0.18343326 0.1722001 0)
(-0.13634709 0.19631566 0)
(-0.083984459 0.2129354 0)
(-0.028364089 0.22141239 0)
(0.028358283 0.22141301 0)
(0.083978957 0.21293719 0)
(0.13634215 0.19631852 0)
(0.18342909 0.17220385 0)
(0.22343757 0.14152415 0)
(0.25485094 0.10545101 0)
(0.27648983 0.065344204 0)
(0.28754673 0.022699555 0)
(0.28760928 -0.020899318 0)
(0.27666676 -0.0638249 0)
(0.2551123 -0.10444656 0)
(0.22374099 -0.14118427 0)
(0.1837288 -0.17257616 0)
(0.13659434 -0.19734396 0)
(0.084147577 -0.21445936 0)
(0.028420612 -0.22320267 0)
(-0.022181261 -0.17621375 0)
(-0.065680938 -0.16931108 0)
(-0.10661617 -0.15579642 0)
(-0.14339766 -0.13623562 0)
(-0.17460995 -0.11143833 0)
(-0.19906704 -0.082414125 0)
(-0.21585445 -0.050320909 0)
(-0.22435655 -0.01641091 0)
(-0.22427078 0.018021429 0)
(-0.2156114 0.051682894 0)
(-0.19870663 0.083319386 0)
(-0.17418969 0.11175164 0)
(-0.14298281 0.1359133 0)
(-0.10626938 0.154891 0)
(-0.065453066 0.16796218 0)
(-0.022104666 0.17462639 0)
(0.022099926 0.17462684 0)
(0.065448558 0.16796352 0)
(0.10626531 0.15489314 0)
(0.14297934 0.13591613 0)
(0.17418696 0.111755 0)
(0.19870473 0.083323121 0)
(0.21561036 0.051686834 0)
(0.22427066 0.01802542 0)
(0.22435729 -0.016407059 0)
(0.21585597 -0.050317318 0)
(0.19906926 -0.082410903 0)
(0.17461279 -0.11143556 0)
(0.14340101 -0.13623338 0)
(0.10661991 -0.15579477 0)
(0.065684958 -0.16931006 0)
(0.022185424 -0.17621341 0)
(-0.017121803 -0.12931229 0)
(-0.050697776 -0.12423121 0)
(-0.082288829 -0.11428561 0)
(-0.11066617 -0.099896219 0)
(-0.13473666 -0.08166335 0)
(-0.15358512 -0.06033379 0)
(-0.16650623 -0.036763189 0)
(-0.1730275 -0.011876893 0)
(-0.17292076 0.013369701 0)
(-0.16620315 0.03802506 0)
(-0.15313388 0.061170518 0)
(-0.13420796 0.081947531 0)
(-0.11014087 0.099584613 0)
(-0.08184628 0.11342469 0)
(-0.050404423 0.12295045 0)
(-0.017021504 0.12780482 0)
(0.017017484 0.12780522 0)
(0.050400589 0.12295164 0)
(0.081842803 0.11342661 0)
(0.1101379 0.099587151 0)
(0.1342056 0.081950565 0)
(0.15313221 0.061173911 0)
(0.16620223 0.038028663 0)
(0.1729206 0.013373368 0)
(0.17302808 -0.011873322 0)
(0.16650751 -0.036759835 0)
(0.15358703 -0.060330763 0)
(0.13473911 -0.081660741 0)
(0.11066906 -0.099894104 0)
(0.082292072 -0.11428406 0)
(0.050701259 -0.12423025 0)
(0.01712541 -0.12931197 0)
(-0.013892833 -0.1191417 0)
(-0.041137527 -0.11448105 0)
(-0.066773735 -0.10535319 0)
(-0.089804826 -0.092135503 0)
(-0.10934287 -0.075369727 0)
(-0.12464298 -0.055734551 0)
(-0.13513029 -0.034012544 0)
(-0.14041891 -0.011054813 0)
(-0.1403206 0.012254518 0)
(-0.13485088 0.035029632 0)
(-0.12422597 0.056414904 0)
(-0.10885233 0.075611416 0)
(-0.089315205 0.091903229 0)
(-0.06635956 0.1046842 0)
(-0.040861987 0.11347882 0)
(-0.013798093 0.11795973 0)
(0.013794939 0.11796001 0)
(0.040858973 0.11347962 0)
(0.066356817 0.10468549 0)
(0.089312846 0.09190494 0)
(0.10885045 0.075613463 0)
(0.12422463 0.056417194 0)
(0.13485013 0.035032064 0)
(0.14032046 0.012256994 0)
(0.14041935 -0.011052397 0)
(0.13513128 -0.034010274 0)
(0.12464448 -0.055732501 0)
(0.1093448 -0.075367961 0)
(0.089807127 -0.092134072 0)
(0.066776319 -0.10535214 0)
(0.041140305 -0.1144804 0)
(0.01389571 -0.11914148 0)
(-0.010875265 -0.059682489 0)
(-0.032200699 -0.057317393 0)
(-0.052260775 -0.052690327 0)
(-0.07027197 -0.046001747 0)
(-0.085537285 -0.037537398 0)
(-0.097473857 -0.027652009 0)
(-0.10563441 -0.016750236 0)
(-0.10972116 -0.0052670283 0)
(-0.10959612 0.0063521039 0)
(-0.1052785 0.017667981 0)
(-0.096941806 0.028260675 0)
(-0.084910528 0.037742978 0)
(-0.069646495 0.0457727 0)
(-0.051731861 0.052061008 0)
(-0.031848719 0.056382467 0)
(-0.010753645 0.058582593 0)
(0.010750662 0.058582845 0)
(0.031845864 0.056383208 0)
(0.051729255 0.052062202 0)
(0.069644245 0.045774288 0)
(0.084908721 0.037744885 0)
(0.096940508 0.028262817 0)
(0.10527775 0.017670267 0)
(0.10959594 0.0063544423 0)
(0.10972155 -0.0052647306 0)
(0.10563534 -0.016748063 0)
(0.097475276 -0.027650037 0)
(0.085539134 -0.037535691 0)
(0.070274177 -0.046000359 0)
(0.052263259 -0.052689303 0)
(0.032203374 -0.057316765 0)
(0.010878036 -0.059682277 0)
(-0.011619954 -0.094267163 0)
(-0.034408167 -0.090595707 0)
(-0.055853609 -0.083401925 0)
(-0.075122647 -0.072977256 0)
(-0.09147067 -0.059741506 0)
(-0.10427135 -0.04422322 0)
(-0.11304065 -0.027035405 0)
(-0.11745345 -0.008850075 0)
(-0.11735276 0.0096304953 0)
(-0.11275376 0.027697703 0)
(-0.10384238 0.044667159 0)
(-0.090965298 0.059900899 0)
(-0.074618196 0.072829096 0)
(-0.055426929 0.082969991 0)
(-0.034124109 0.089946887 0)
(-0.011521699 0.093501203 0)
(0.011519447 0.093501374 0)
(0.03412195 0.089947391 0)
(0.055424953 0.082970802 0)
(0.074616482 0.072830174 0)
(0.090963913 0.059902194 0)
(0.10384138 0.044668612 0)
(0.11275317 0.027699253 0)
(0.11735262 0.009632081 0)
(0.11745373 -0.0088485161 0)
(0.11304135 -0.027033929 0)
(0.10427242 -0.04422188 0)
(0.091472075 -0.059740345 0)
(0.075124331 -0.072976313 0)
(0.05585551 -0.083401229 0)
(0.034410216 -0.09059528 0)
(0.011622078 -0.094267019 0)
(-0.0085643746 0.006675112 0)
(-0.025357395 0.0064562843 0)
(-0.041150513 0.0060208183 0)
(-0.055324682 0.0053738671 0)
(-0.067329448 0.0045254791 0)
(-0.07670481 0.0034929713 0)
(-0.083099866 0.0023032436 0)
(-0.08627915 0.0009935553 0)
(-0.086142756 -0.00038968239 0)
(-0.082709024 -0.0017928015 0)
(-0.076121124 -0.003155073 0)
(-0.066641307 -0.0044125215 0)
(-0.054637222 -0.0055038412 0)
(-0.04056851 -0.006374812 0)
(-0.024969535 -0.0069814585 0)
(-0.0084298163 -0.0072927484 0)
(0.0084273174 -0.0072926264 0)
(0.024967139 -0.006981099 0)
(0.040566315 -0.0063742332 0)
(0.054635317 -0.0055030725 0)
(0.066639765 -0.0044116 0)
(0.076120003 -0.0031540404 0)
(0.082708362 -0.0017917002 0)
(0.08614257 -0.00038855316 0)
(0.086279444 0.00099467636 0)
(0.083100626 0.0023043079 0)
(0.076705998 0.0034939405 0)
(0.067331014 0.0045263203 0)
(0.055326565 0.0053745522 0)
(0.041152643 0.0060213246 0)
(0.025359694 0.006456595 0)
(0.008566758 0.0066752168 0)
(-0.01320217 -0.081399026 0)
(-0.03909473 -0.078249057 0)
(-0.063466356 -0.072073663 0)
(-0.085371473 -0.06311674 0)
(-0.10396373 -0.051730916 0)
(-0.11852908 -0.038362407 0)
(-0.12851376 -0.023532139 0)
(-0.13354561 -0.0078148011 0)
(-0.13344508 0.008183874 0)
(-0.12822713 0.023845825 0)
(-0.11810024 0.038573822 0)
(-0.10345816 0.051808769 0)
(-0.084866392 0.06305029 0)
(-0.063038799 0.071874091 0)
(-0.038809909 0.077947744 0)
(-0.013103593 0.081042778 0)
(0.013101398 0.081042889 0)
(0.038807802 0.077948068 0)
(0.063036867 0.071874613 0)
(0.084864712 0.063050986 0)
(0.10345679 0.051809605 0)
(0.11809924 0.038574761 0)
(0.12822654 0.023846829 0)
(0.13344492 0.0081849064 0)
(0.13354587 -0.0078137864 0)
(0.12851441 -0.023531171 0)
(0.11853011 -0.038361524 0)
(0.1039651 -0.051730148 0)
(0.085373134 -0.063116115 0)
(0.063468239 -0.0720732 0)
(0.039096765 -0.078248773 0)
(0.013204282 -0.08139893 0)
(-0.0038978561 0.074977411 0)
(-0.011538643 0.072098426 0)
(-0.018713213 0.066450555 0)
(-0.025134941 0.058249883 0)
(-0.030551874 0.047810335 0)
(-0.034756963 0.035532045 0)
(-0.037596431 0.021886572 0)
(-0.038969162 0.0074016125 0)
(-0.038832894 -0.0073590062 0)
(-0.037208558 -0.021851562 0)
(-0.034177085 -0.035510912 0)
(-0.029868446 -0.047807318 0)
(-0.024452297 -0.058266359 0)
(-0.018135426 -0.066484969 0)
(-0.011153801 -0.072146537 0)
(-0.0037647073 -0.075032938 0)
(0.0037616837 -0.075032959 0)
(0.011150899 -0.072146597 0)
(0.01813277 -0.066485068 0)
(0.02444999 -0.058266493 0)
(0.029866577 -0.047807482 0)
(0.03417572 -0.0355111 0)
(0.037207742 -0.021851766 0)
(0.03883264 -0.0073592176 0)
(0.038969491 0.0074014046 0)
(0.037597337 0.021886374 0)
(0.034758393 0.035531865 0)
(0.030553773 0.04781018 0)
(0.025137234 0.058249757 0)
(0.018715815 0.066450463 0)
(0.011541459 0.07209837 0)
(0.0039007759 0.074977392 0)
)
;

boundaryField
{
    leftWall
    {
        type            cyclic;
    }
    rightWall
    {
        type            cyclic;
    }
    lowerWall
    {
        type            slip;
    }
    atmosphere
    {
        type            slip;
    }
    defaultFaces
    {
        type            empty;
    }
}


// ************************************************************************* //
