/*--------------------------------*- C++ -*----------------------------------*\
| =========                 |                                                 |
| \\      /  F ield         | OpenFOAM: The Open Source CFD Toolbox           |
|  \\    /   O peration     | Version:  2106                                  |
|   \\  /    A nd           | Website:  www.openfoam.com                      |
|    \\/     M anipulation  |                                                 |
\*---------------------------------------------------------------------------*/
FoamFile
{
    version     2.0;
    format      ascii;
    arch        "LSB;label=32;scalar=64";
    class       surfaceScalarField;
    location    "2.9";
    object      phi;
}
// * * * * * * * * * * * * * * * * * * * * * * * * * * * * * * * * * * * * * //

dimensions      [0 3 -1 0 0 0 0];

oriented        oriented;

internalField   nonuniform List<scalar> 
179250
(
-1.65214e-07
1.65214e-07
-3.30022e-07
1.64809e-07
-4.94169e-07
1.64147e-07
-6.57389e-07
1.63219e-07
-8.19411e-07
1.62022e-07
-9.79964e-07
1.60554e-07
-1.13878e-06
1.58812e-07
-1.29558e-06
1.56799e-07
-1.45009e-06
1.54515e-07
-1.60206e-06
1.51965e-07
-1.75121e-06
1.49151e-07
-1.89728e-06
1.46077e-07
-2.04003e-06
1.42749e-07
-2.1792e-06
1.39172e-07
-2.31455e-06
1.35351e-07
-2.44585e-06
1.31294e-07
-2.57286e-06
1.27007e-07
-2.69535e-06
1.22498e-07
-2.81313e-06
1.17774e-07
-2.92597e-06
1.12844e-07
-3.03369e-06
1.07716e-07
-3.13608e-06
1.02398e-07
-3.23299e-06
9.69019e-08
-3.32422e-06
9.12353e-08
-3.40963e-06
8.54085e-08
-3.48906e-06
7.94319e-08
-3.56238e-06
7.33157e-08
-3.62945e-06
6.70708e-08
-3.69016e-06
6.0708e-08
-3.7444e-06
5.42385e-08
-3.79207e-06
4.76736e-08
-3.83309e-06
4.10249e-08
-3.8674e-06
3.43038e-08
-3.89492e-06
2.75223e-08
-3.91561e-06
2.06923e-08
-3.92944e-06
1.38256e-08
-3.93637e-06
6.93436e-09
-3.9364e-06
3.0602e-11
-3.92953e-06
-6.87358e-09
-3.91576e-06
-1.3766e-08
-3.89513e-06
-2.06347e-08
-3.86766e-06
-2.74675e-08
-3.83341e-06
-3.42524e-08
-3.79243e-06
-4.09776e-08
-3.7448e-06
-4.76311e-08
-3.6906e-06
-5.42014e-08
-3.62992e-06
-6.06769e-08
-3.56287e-06
-6.70463e-08
-3.48958e-06
-7.32982e-08
-3.41015e-06
-7.94219e-08
-3.32475e-06
-8.54064e-08
-3.23351e-06
-9.12413e-08
-3.13659e-06
-9.69162e-08
-3.03417e-06
-1.02421e-07
-2.92642e-06
-1.07747e-07
-2.81354e-06
-1.12883e-07
-2.69572e-06
-1.17822e-07
-2.57316e-06
-1.22554e-07
-2.44609e-06
-1.27071e-07
-2.31473e-06
-1.31365e-07
-2.1793e-06
-1.35429e-07
-2.04004e-06
-1.39255e-07
-1.89721e-06
-1.42836e-07
-1.75104e-06
-1.46167e-07
-1.6018e-06
-1.49242e-07
-1.44974e-06
-1.52054e-07
-1.29514e-06
-1.54599e-07
-1.13827e-06
-1.56873e-07
-9.79399e-07
-1.58872e-07
-8.18807e-07
-1.60592e-07
-6.56778e-07
-1.62029e-07
-4.93595e-07
-1.63183e-07
-3.29546e-07
-1.64049e-07
-1.64918e-07
-1.64628e-07
6.14273e-14
-1.64918e-07
1.64918e-07
-1.64918e-07
3.29546e-07
-1.64628e-07
4.93595e-07
-1.64049e-07
6.56778e-07
-1.63183e-07
8.18807e-07
-1.62029e-07
9.79399e-07
-1.60592e-07
1.13827e-06
-1.58872e-07
1.29514e-06
-1.56873e-07
1.44974e-06
-1.54599e-07
1.6018e-06
-1.52054e-07
1.75104e-06
-1.49242e-07
1.89721e-06
-1.46167e-07
2.04004e-06
-1.42836e-07
2.1793e-06
-1.39255e-07
2.31473e-06
-1.35429e-07
2.44609e-06
-1.31365e-07
2.57316e-06
-1.27071e-07
2.69572e-06
-1.22554e-07
2.81354e-06
-1.17822e-07
2.92642e-06
-1.12883e-07
3.03417e-06
-1.07747e-07
3.13659e-06
-1.02421e-07
3.23351e-06
-9.69162e-08
3.32475e-06
-9.12413e-08
3.41015e-06
-8.54064e-08
3.48958e-06
-7.94219e-08
3.56288e-06
-7.32983e-08
3.62992e-06
-6.70463e-08
3.6906e-06
-6.06769e-08
3.7448e-06
-5.42014e-08
3.79243e-06
-4.76311e-08
3.83341e-06
-4.09775e-08
3.86766e-06
-3.42524e-08
3.89513e-06
-2.74675e-08
3.91576e-06
-2.06347e-08
3.92953e-06
-1.37661e-08
3.9364e-06
-6.87362e-09
3.93637e-06
3.05403e-11
3.92944e-06
6.93431e-09
3.91561e-06
1.38256e-08
3.89492e-06
2.06923e-08
3.8674e-06
2.75224e-08
3.83309e-06
3.43038e-08
3.79207e-06
4.10249e-08
3.7444e-06
4.76736e-08
3.69016e-06
5.42385e-08
3.62945e-06
6.0708e-08
3.56238e-06
6.70708e-08
3.48906e-06
7.33157e-08
3.40963e-06
7.94319e-08
3.32422e-06
8.54085e-08
3.23299e-06
9.12353e-08
3.13608e-06
9.69019e-08
3.03369e-06
1.02398e-07
2.92597e-06
1.07715e-07
2.81313e-06
1.12844e-07
2.69535e-06
1.17774e-07
2.57286e-06
1.22498e-07
2.44585e-06
1.27007e-07
2.31455e-06
1.31294e-07
2.1792e-06
1.35351e-07
2.04003e-06
1.39172e-07
1.89728e-06
1.42749e-07
1.75121e-06
1.46077e-07
1.60206e-06
1.49151e-07
1.45009e-06
1.51965e-07
1.29558e-06
1.54515e-07
1.13878e-06
1.56799e-07
9.79965e-07
1.58812e-07
8.19411e-07
1.60554e-07
6.57389e-07
1.62023e-07
4.94169e-07
1.6322e-07
3.30023e-07
1.64146e-07
1.65214e-07
1.64809e-07
1.65214e-07
-1.65618e-07
3.30832e-07
-3.3083e-07
3.30021e-07
-4.95374e-07
3.2869e-07
-6.58986e-07
3.26832e-07
-8.21398e-07
3.24434e-07
-9.82337e-07
3.21493e-07
-1.14153e-06
3.18005e-07
-1.29871e-06
3.13974e-07
-1.45359e-06
3.09402e-07
-1.60592e-06
3.04295e-07
-1.75543e-06
2.9866e-07
-1.90186e-06
2.92506e-07
-2.04495e-06
2.85842e-07
-2.18446e-06
2.78679e-07
-2.32014e-06
2.71029e-07
-2.45175e-06
2.62905e-07
-2.57906e-06
2.5432e-07
-2.70186e-06
2.45291e-07
-2.81991e-06
2.35832e-07
-2.93303e-06
2.2596e-07
-3.04101e-06
2.15691e-07
-3.14365e-06
2.05044e-07
-3.24079e-06
1.94038e-07
-3.33224e-06
1.82691e-07
-3.41786e-06
1.71023e-07
-3.49748e-06
1.59056e-07
-3.57097e-06
1.46809e-07
-3.63821e-06
1.34304e-07
-3.69906e-06
1.21563e-07
-3.75343e-06
1.08608e-07
-3.80122e-06
9.54627e-08
-3.84235e-06
8.21491e-08
-3.87673e-06
6.86909e-08
-3.90432e-06
5.51116e-08
-3.92506e-06
4.14349e-08
-3.93892e-06
2.76849e-08
-3.94588e-06
1.38857e-08
-3.94591e-06
6.15077e-11
-3.93902e-06
-1.37635e-08
-3.92522e-06
-2.7565e-08
-3.90453e-06
-4.13188e-08
-3.877e-06
-5.50009e-08
-3.84267e-06
-6.85871e-08
-3.80159e-06
-8.20537e-08
-3.75384e-06
-9.53769e-08
-3.69951e-06
-1.08533e-07
-3.63869e-06
-1.215e-07
-3.57148e-06
-1.34254e-07
-3.49801e-06
-1.46773e-07
-3.41839e-06
-1.59035e-07
-3.33278e-06
-1.71019e-07
-3.24132e-06
-1.82703e-07
-3.14417e-06
-1.94066e-07
-3.0415e-06
-2.0509e-07
-2.93349e-06
-2.15754e-07
-2.82034e-06
-2.2604e-07
-2.70223e-06
-2.35929e-07
-2.57938e-06
-2.45404e-07
-2.452e-06
-2.54449e-07
-2.32032e-06
-2.63048e-07
-2.18456e-06
-2.71185e-07
-2.04497e-06
-2.78846e-07
-1.90179e-06
-2.86018e-07
-1.75527e-06
-2.92688e-07
-1.60567e-06
-2.98844e-07
-1.45325e-06
-3.04475e-07
-1.29827e-06
-3.09572e-07
-1.14102e-06
-3.14126e-07
-9.81766e-07
-3.18128e-07
-8.20786e-07
-3.21572e-07
-6.58365e-07
-3.2445e-07
-4.94788e-07
-3.2676e-07
-3.30342e-07
-3.28495e-07
-1.65316e-07
-3.29654e-07
2.27893e-14
-3.30234e-07
1.65316e-07
-3.30234e-07
3.30342e-07
-3.29654e-07
4.94788e-07
-3.28495e-07
6.58365e-07
-3.2676e-07
8.20786e-07
-3.2445e-07
9.81766e-07
-3.21572e-07
1.14102e-06
-3.18128e-07
1.29827e-06
-3.14126e-07
1.45325e-06
-3.09572e-07
1.60567e-06
-3.04475e-07
1.75527e-06
-2.98844e-07
1.90179e-06
-2.92688e-07
2.04497e-06
-2.86018e-07
2.18456e-06
-2.78846e-07
2.32032e-06
-2.71185e-07
2.452e-06
-2.63048e-07
2.57938e-06
-2.54449e-07
2.70223e-06
-2.45404e-07
2.82034e-06
-2.35929e-07
2.93349e-06
-2.2604e-07
3.0415e-06
-2.15754e-07
3.14417e-06
-2.0509e-07
3.24132e-06
-1.94066e-07
3.33278e-06
-1.82703e-07
3.41839e-06
-1.71019e-07
3.49801e-06
-1.59035e-07
3.57148e-06
-1.46773e-07
3.63869e-06
-1.34254e-07
3.69951e-06
-1.215e-07
3.75384e-06
-1.08533e-07
3.80159e-06
-9.53769e-08
3.84267e-06
-8.20537e-08
3.877e-06
-6.85871e-08
3.90453e-06
-5.50009e-08
3.92522e-06
-4.13188e-08
3.93902e-06
-2.7565e-08
3.94591e-06
-1.37634e-08
3.94588e-06
6.15527e-11
3.93892e-06
1.38858e-08
3.92506e-06
2.7685e-08
3.90432e-06
4.14349e-08
3.87673e-06
5.51116e-08
3.84235e-06
6.86909e-08
3.80122e-06
8.21491e-08
3.75343e-06
9.54627e-08
3.69906e-06
1.08608e-07
3.63821e-06
1.21563e-07
3.57098e-06
1.34304e-07
3.49748e-06
1.46809e-07
3.41786e-06
1.59056e-07
3.33224e-06
1.71023e-07
3.24079e-06
1.82691e-07
3.14365e-06
1.94038e-07
3.04101e-06
2.05044e-07
2.93303e-06
2.15691e-07
2.81991e-06
2.2596e-07
2.70186e-06
2.35832e-07
2.57906e-06
2.45291e-07
2.45175e-06
2.5432e-07
2.32014e-06
2.62905e-07
2.18446e-06
2.71029e-07
2.04495e-06
2.78679e-07
1.90186e-06
2.85842e-07
1.75543e-06
2.92506e-07
1.60592e-06
2.9866e-07
1.45359e-06
3.04295e-07
1.29871e-06
3.09402e-07
1.14153e-06
3.13974e-07
9.82337e-07
3.18006e-07
8.21398e-07
3.21493e-07
6.58986e-07
3.24435e-07
4.95374e-07
3.26832e-07
3.3083e-07
3.2869e-07
1.65618e-07
3.30021e-07
3.30832e-07
-1.6628e-07
4.97112e-07
-3.32157e-07
4.95898e-07
-4.97363e-07
4.93897e-07
-6.61633e-07
4.91102e-07
-8.24696e-07
4.87498e-07
-9.86281e-07
4.83077e-07
-1.14611e-06
4.77837e-07
-1.30392e-06
4.71779e-07
-1.45942e-06
4.64909e-07
-1.61236e-06
4.57236e-07
-1.76247e-06
4.48769e-07
-1.90949e-06
4.39521e-07
-2.05316e-06
4.29508e-07
-2.19322e-06
4.18745e-07
-2.32944e-06
4.0725e-07
-2.46158e-06
3.95043e-07
-2.58941e-06
3.82145e-07
-2.71269e-06
3.68577e-07
-2.83122e-06
3.54364e-07
-2.94479e-06
3.39529e-07
-3.0532e-06
3.241e-07
-3.15626e-06
3.08102e-07
-3.25379e-06
2.91564e-07
-3.34561e-06
2.74514e-07
-3.43157e-06
2.56982e-07
-3.51151e-06
2.38999e-07
-3.5853e-06
2.20597e-07
-3.6528e-06
2.01807e-07
-3.7139e-06
1.82662e-07
-3.76849e-06
1.63197e-07
-3.81647e-06
1.43444e-07
-3.85776e-06
1.23439e-07
-3.89229e-06
1.03217e-07
-3.91999e-06
8.28121e-08
-3.94082e-06
6.22615e-08
-3.95473e-06
4.16007e-08
-3.96171e-06
2.08658e-08
-3.96174e-06
9.33705e-11
-3.95483e-06
-2.06803e-08
-3.94097e-06
-4.14186e-08
-3.92021e-06
-6.20854e-08
-3.89256e-06
-8.26442e-08
-3.85809e-06
-1.03059e-07
-3.81685e-06
-1.23294e-07
-3.76891e-06
-1.43314e-07
-3.71436e-06
-1.63083e-07
-3.6533e-06
-1.82567e-07
-3.58582e-06
-2.01731e-07
-3.51205e-06
-2.20543e-07
-3.43212e-06
-2.38968e-07
-3.34616e-06
-2.56975e-07
-3.25434e-06
-2.74531e-07
-3.1568e-06
-2.91606e-07
-3.05371e-06
-3.0817e-07
-2.94527e-06
-3.24194e-07
-2.83166e-06
-3.3965e-07
-2.71308e-06
-3.54509e-07
-2.58974e-06
-3.68747e-07
-2.46185e-06
-3.82339e-07
-2.32964e-06
-3.95259e-07
-2.19334e-06
-4.07486e-07
-2.05319e-06
-4.18998e-07
-1.90943e-06
-4.29774e-07
-1.76232e-06
-4.39796e-07
-1.61212e-06
-4.49047e-07
-1.45909e-06
-4.57509e-07
-1.30349e-06
-4.65168e-07
-1.14561e-06
-4.7201e-07
-9.8571e-07
-4.78024e-07
-8.24084e-07
-4.83198e-07
-6.6101e-07
-4.87524e-07
-4.96776e-07
-4.90994e-07
-3.31669e-07
-4.93602e-07
-1.6598e-07
-4.95343e-07
-5.85611e-15
-4.96214e-07
1.6598e-07
-4.96214e-07
3.31669e-07
-4.95343e-07
4.96776e-07
-4.93602e-07
6.6101e-07
-4.90994e-07
8.24084e-07
-4.87524e-07
9.8571e-07
-4.83198e-07
1.14561e-06
-4.78024e-07
1.30349e-06
-4.7201e-07
1.45909e-06
-4.65168e-07
1.61212e-06
-4.57509e-07
1.76232e-06
-4.49047e-07
1.90943e-06
-4.39796e-07
2.05319e-06
-4.29774e-07
2.19334e-06
-4.18998e-07
2.32964e-06
-4.07486e-07
2.46185e-06
-3.95259e-07
2.58974e-06
-3.82339e-07
2.71308e-06
-3.68747e-07
2.83166e-06
-3.54509e-07
2.94527e-06
-3.3965e-07
3.05371e-06
-3.24194e-07
3.1568e-06
-3.0817e-07
3.25434e-06
-2.91606e-07
3.34616e-06
-2.74531e-07
3.43212e-06
-2.56975e-07
3.51205e-06
-2.38968e-07
3.58582e-06
-2.20543e-07
3.6533e-06
-2.01731e-07
3.71437e-06
-1.82567e-07
3.76891e-06
-1.63083e-07
3.81685e-06
-1.43314e-07
3.85809e-06
-1.23294e-07
3.89256e-06
-1.03059e-07
3.92021e-06
-8.26442e-08
3.94097e-06
-6.20853e-08
3.95483e-06
-4.14186e-08
3.96174e-06
-2.06802e-08
3.96171e-06
9.33788e-11
3.95473e-06
2.08658e-08
3.94082e-06
4.16006e-08
3.91999e-06
6.22615e-08
3.89229e-06
8.28121e-08
3.85776e-06
1.03217e-07
3.81647e-06
1.23439e-07
3.76849e-06
1.43444e-07
3.7139e-06
1.63197e-07
3.6528e-06
1.82663e-07
3.5853e-06
2.01807e-07
3.51151e-06
2.20597e-07
3.43157e-06
2.38999e-07
3.34561e-06
2.56982e-07
3.25379e-06
2.74514e-07
3.15626e-06
2.91564e-07
3.0532e-06
3.08102e-07
2.94479e-06
3.241e-07
2.83122e-06
3.3953e-07
2.71269e-06
3.54364e-07
2.58941e-06
3.68577e-07
2.46158e-06
3.82145e-07
2.32944e-06
3.95043e-07
2.19322e-06
4.0725e-07
2.05316e-06
4.18745e-07
1.90949e-06
4.29508e-07
1.76247e-06
4.39522e-07
1.61236e-06
4.48769e-07
1.45942e-06
4.57236e-07
1.30392e-06
4.64909e-07
1.14611e-06
4.71779e-07
9.86281e-07
4.77837e-07
8.24696e-07
4.83077e-07
6.61633e-07
4.87498e-07
4.97363e-07
4.91102e-07
3.32157e-07
4.93896e-07
1.6628e-07
4.95898e-07
4.97112e-07
-1.67211e-07
6.64322e-07
-3.34018e-07
6.62705e-07
-5.00152e-07
6.6003e-07
-6.65344e-07
6.56294e-07
-8.29323e-07
6.51477e-07
-9.91814e-07
6.45568e-07
-1.15254e-06
6.38564e-07
-1.31123e-06
6.30469e-07
-1.46761e-06
6.21289e-07
-1.62141e-06
6.11034e-07
-1.77236e-06
5.9972e-07
-1.9202e-06
5.87362e-07
-2.06467e-06
5.7398e-07
-2.20552e-06
5.59597e-07
-2.34251e-06
5.44236e-07
-2.47539e-06
5.27923e-07
-2.60393e-06
5.10686e-07
-2.72791e-06
4.92555e-07
-2.84711e-06
4.73561e-07
-2.96131e-06
4.53737e-07
-3.07033e-06
4.33118e-07
-3.17397e-06
4.11739e-07
-3.27204e-06
3.89638e-07
-3.36438e-06
3.66853e-07
-3.45082e-06
3.43424e-07
-3.53122e-06
3.19393e-07
-3.60542e-06
2.948e-07
-3.6733e-06
2.6969e-07
-3.73475e-06
2.44106e-07
-3.78964e-06
2.18093e-07
-3.83789e-06
1.91696e-07
-3.87942e-06
1.64962e-07
-3.91414e-06
1.37937e-07
-3.94199e-06
1.10669e-07
-3.96294e-06
8.32059e-08
-3.97693e-06
5.55954e-08
-3.98395e-06
2.7886e-08
-3.98399e-06
1.26394e-10
-3.97703e-06
-2.76349e-08
-3.9631e-06
-5.5349e-08
-3.94222e-06
-8.29675e-08
-3.91442e-06
-1.10442e-07
-3.87976e-06
-1.37724e-07
-3.83828e-06
-1.64765e-07
-3.79008e-06
-1.91519e-07
-3.73522e-06
-2.17938e-07
-3.67382e-06
-2.43976e-07
-3.60596e-06
-2.69587e-07
-3.53178e-06
-2.94726e-07
-3.4514e-06
-3.19349e-07
-3.36496e-06
-3.43412e-07
-3.27262e-06
-3.66874e-07
-3.17453e-06
-3.89693e-07
-3.07087e-06
-4.11829e-07
-2.96182e-06
-4.33243e-07
-2.84757e-06
-4.53897e-07
-2.72833e-06
-4.73756e-07
-2.60429e-06
-4.92783e-07
-2.47568e-06
-5.10946e-07
-2.34273e-06
-5.28213e-07
-2.20566e-06
-5.44552e-07
-2.06472e-06
-5.59937e-07
-1.92016e-06
-5.74338e-07
-1.77222e-06
-5.87732e-07
-1.62118e-06
-6.00094e-07
-1.46728e-06
-6.11402e-07
-1.31081e-06
-6.21637e-07
-1.15204e-06
-6.30781e-07
-9.91249e-07
-6.38818e-07
-8.28715e-07
-6.45733e-07
-6.64725e-07
-6.51514e-07
-4.99568e-07
-6.56151e-07
-3.33533e-07
-6.59636e-07
-1.66913e-07
-6.61963e-07
-1.75559e-14
-6.63127e-07
1.66913e-07
-6.63127e-07
3.33533e-07
-6.61963e-07
4.99568e-07
-6.59636e-07
6.64725e-07
-6.56151e-07
8.28715e-07
-6.51514e-07
9.91249e-07
-6.45733e-07
1.15204e-06
-6.38818e-07
1.31081e-06
-6.30781e-07
1.46728e-06
-6.21637e-07
1.62118e-06
-6.11402e-07
1.77222e-06
-6.00094e-07
1.92016e-06
-5.87732e-07
2.06472e-06
-5.74338e-07
2.20566e-06
-5.59937e-07
2.34273e-06
-5.44552e-07
2.47568e-06
-5.28213e-07
2.60429e-06
-5.10946e-07
2.72833e-06
-4.92783e-07
2.84757e-06
-4.73756e-07
2.96182e-06
-4.53897e-07
3.07087e-06
-4.33243e-07
3.17453e-06
-4.11829e-07
3.27262e-06
-3.89693e-07
3.36496e-06
-3.66874e-07
3.4514e-06
-3.43412e-07
3.53178e-06
-3.19349e-07
3.60596e-06
-2.94726e-07
3.67382e-06
-2.69587e-07
3.73522e-06
-2.43976e-07
3.79008e-06
-2.17938e-07
3.83828e-06
-1.91519e-07
3.87976e-06
-1.64765e-07
3.91442e-06
-1.37724e-07
3.94222e-06
-1.10442e-07
3.9631e-06
-8.29675e-08
3.97703e-06
-5.5349e-08
3.98399e-06
-2.76349e-08
3.98395e-06
1.26377e-10
3.97693e-06
2.7886e-08
3.96294e-06
5.55954e-08
3.94199e-06
8.32059e-08
3.91414e-06
1.10669e-07
3.87942e-06
1.37937e-07
3.83789e-06
1.64962e-07
3.78964e-06
1.91696e-07
3.73475e-06
2.18093e-07
3.6733e-06
2.44106e-07
3.60542e-06
2.6969e-07
3.53122e-06
2.948e-07
3.45082e-06
3.19393e-07
3.36438e-06
3.43424e-07
3.27204e-06
3.66853e-07
3.17397e-06
3.89638e-07
3.07033e-06
4.11739e-07
2.96131e-06
4.33118e-07
2.84711e-06
4.53737e-07
2.72791e-06
4.73561e-07
2.60393e-06
4.92555e-07
2.47539e-06
5.10686e-07
2.34251e-06
5.27923e-07
2.20552e-06
5.44236e-07
2.06467e-06
5.59597e-07
1.9202e-06
5.7398e-07
1.77236e-06
5.87362e-07
1.62141e-06
5.9972e-07
1.46761e-06
6.11034e-07
1.31123e-06
6.21289e-07
1.15254e-06
6.30469e-07
9.91814e-07
6.38565e-07
8.29323e-07
6.45568e-07
6.65344e-07
6.51477e-07
5.00152e-07
6.56294e-07
3.34018e-07
6.6003e-07
1.6721e-07
6.62705e-07
6.64322e-07
-1.68418e-07
8.3274e-07
-3.3643e-07
8.30717e-07
-5.03765e-07
8.27365e-07
-6.70152e-07
8.22681e-07
-8.35317e-07
8.16641e-07
-9.98983e-07
8.09234e-07
-1.16087e-06
8.00454e-07
-1.32071e-06
7.90306e-07
-1.47822e-06
7.78799e-07
-1.63313e-06
7.65944e-07
-1.78517e-06
7.51761e-07
-1.93408e-06
7.36271e-07
-2.0796e-06
7.19497e-07
-2.22147e-06
7.01468e-07
-2.35945e-06
6.82212e-07
-2.49329e-06
6.61764e-07
-2.62276e-06
6.40157e-07
-2.74763e-06
6.1743e-07
-2.86769e-06
5.93621e-07
-2.98273e-06
5.68771e-07
-3.09253e-06
5.42924e-07
-3.19692e-06
5.16125e-07
-3.2957e-06
4.88421e-07
-3.38871e-06
4.5986e-07
-3.47578e-06
4.30492e-07
-3.55675e-06
4.00368e-07
-3.63149e-06
3.69541e-07
-3.69987e-06
3.38065e-07
-3.76176e-06
3.05995e-07
-3.81705e-06
2.73387e-07
-3.86565e-06
2.40298e-07
-3.90748e-06
2.06786e-07
-3.94245e-06
1.7291e-07
-3.97051e-06
1.38729e-07
-3.99161e-06
1.04303e-07
-4.00571e-06
6.96927e-08
-4.01278e-06
3.49583e-08
-4.01281e-06
1.60914e-10
-4.00581e-06
-3.46385e-08
-3.99178e-06
-6.93789e-08
-3.97075e-06
-1.03999e-07
-3.94275e-06
-1.38439e-07
-3.90784e-06
-1.72638e-07
-3.86607e-06
-2.06535e-07
-3.81751e-06
-2.40072e-07
-3.76226e-06
-2.73189e-07
-3.70041e-06
-3.05828e-07
-3.63206e-06
-3.37932e-07
-3.55735e-06
-3.69445e-07
-3.47638e-06
-4.0031e-07
-3.38932e-06
-4.30475e-07
-3.29631e-06
-4.59885e-07
-3.19751e-06
-4.8849e-07
-3.0931e-06
-5.16238e-07
-2.98327e-06
-5.43081e-07
-2.86819e-06
-5.68972e-07
-2.74808e-06
-5.93865e-07
-2.62315e-06
-6.17717e-07
-2.49361e-06
-6.40484e-07
-2.3597e-06
-6.62129e-07
-2.22164e-06
-6.82611e-07
-2.07968e-06
-7.01896e-07
-1.93407e-06
-7.19949e-07
-1.78506e-06
-7.36738e-07
-1.63292e-06
-7.52234e-07
-1.47791e-06
-7.6641e-07
-1.32031e-06
-7.7924e-07
-1.16039e-06
-7.90703e-07
-9.98429e-07
-8.00777e-07
-8.34717e-07
-8.09445e-07
-6.6954e-07
-8.16692e-07
-5.03186e-07
-8.22505e-07
-3.35949e-07
-8.26873e-07
-1.68122e-07
-8.2979e-07
-1.98883e-14
-8.3125e-07
1.68122e-07
-8.3125e-07
3.35949e-07
-8.2979e-07
5.03186e-07
-8.26873e-07
6.6954e-07
-8.22505e-07
8.34717e-07
-8.16692e-07
9.98429e-07
-8.09445e-07
1.16039e-06
-8.00777e-07
1.32031e-06
-7.90703e-07
1.47791e-06
-7.7924e-07
1.63292e-06
-7.6641e-07
1.78506e-06
-7.52234e-07
1.93407e-06
-7.36738e-07
2.07968e-06
-7.19949e-07
2.22164e-06
-7.01896e-07
2.3597e-06
-6.82611e-07
2.49361e-06
-6.62129e-07
2.62315e-06
-6.40484e-07
2.74808e-06
-6.17717e-07
2.86819e-06
-5.93865e-07
2.98327e-06
-5.68972e-07
3.0931e-06
-5.43081e-07
3.19751e-06
-5.16238e-07
3.29631e-06
-4.8849e-07
3.38932e-06
-4.59885e-07
3.47638e-06
-4.30475e-07
3.55735e-06
-4.0031e-07
3.63206e-06
-3.69445e-07
3.70041e-06
-3.37932e-07
3.76226e-06
-3.05828e-07
3.81751e-06
-2.73189e-07
3.86607e-06
-2.40072e-07
3.90784e-06
-2.06535e-07
3.94275e-06
-1.72638e-07
3.97075e-06
-1.38439e-07
3.99178e-06
-1.03999e-07
4.00581e-06
-6.9379e-08
4.01281e-06
-3.46385e-08
4.01278e-06
1.60935e-10
4.00571e-06
3.49584e-08
3.99161e-06
6.96927e-08
3.97051e-06
1.04303e-07
3.94245e-06
1.38729e-07
3.90748e-06
1.7291e-07
3.86565e-06
2.06786e-07
3.81705e-06
2.40298e-07
3.76176e-06
2.73387e-07
3.69987e-06
3.05995e-07
3.63149e-06
3.38065e-07
3.55675e-06
3.69541e-07
3.47578e-06
4.00368e-07
3.38871e-06
4.30492e-07
3.2957e-06
4.5986e-07
3.19692e-06
4.88421e-07
3.09253e-06
5.16125e-07
2.98273e-06
5.42924e-07
2.86769e-06
5.68771e-07
2.74763e-06
5.93621e-07
2.62276e-06
6.1743e-07
2.49329e-06
6.40157e-07
2.35944e-06
6.61764e-07
2.22147e-06
6.82212e-07
2.0796e-06
7.01468e-07
1.93408e-06
7.19497e-07
1.78517e-06
7.36271e-07
1.63313e-06
7.51761e-07
1.47822e-06
7.65944e-07
1.32071e-06
7.78799e-07
1.16087e-06
7.90307e-07
9.98983e-07
8.00455e-07
8.35317e-07
8.09234e-07
6.70152e-07
8.16642e-07
5.03765e-07
8.22681e-07
3.3643e-07
8.27365e-07
1.68417e-07
8.30717e-07
8.3274e-07
-1.69908e-07
1.00265e-06
-3.39407e-07
1.00022e-06
-5.08223e-07
9.96182e-07
-6.76084e-07
9.90542e-07
-8.42711e-07
9.83269e-07
-1.00783e-06
9.74349e-07
-1.17115e-06
9.63778e-07
-1.3324e-06
9.51559e-07
-1.49131e-06
9.37703e-07
-1.64759e-06
9.22227e-07
-1.80098e-06
9.0515e-07
-1.95121e-06
8.86499e-07
-2.09801e-06
8.66303e-07
-2.24114e-06
8.44595e-07
-2.38034e-06
8.21411e-07
-2.51537e-06
7.96791e-07
-2.64598e-06
7.70776e-07
-2.77197e-06
7.43411e-07
-2.89309e-06
7.14744e-07
-3.00914e-06
6.84825e-07
-3.11992e-06
6.53704e-07
-3.22524e-06
6.21438e-07
-3.3249e-06
5.88081e-07
-3.41873e-06
5.53693e-07
-3.50657e-06
5.18332e-07
-3.58826e-06
4.82062e-07
-3.66367e-06
4.44945e-07
-3.73265e-06
4.07047e-07
-3.79509e-06
3.68433e-07
-3.85087e-06
3.29172e-07
-3.89991e-06
2.89332e-07
-3.9421e-06
2.48982e-07
-3.97739e-06
2.08194e-07
-4.0057e-06
1.67039e-07
-4.02698e-06
1.25589e-07
-4.04121e-06
8.39167e-08
-4.04834e-06
4.2095e-08
-4.04838e-06
1.97429e-10
-4.04132e-06
-4.17026e-08
-4.02716e-06
-8.35316e-08
-4.00595e-06
-1.25216e-07
-3.9777e-06
-1.66683e-07
-3.94248e-06
-2.0786e-07
-3.90034e-06
-2.48674e-07
-3.85136e-06
-2.89053e-07
-3.79562e-06
-3.28928e-07
-3.73322e-06
-3.68227e-07
-3.66427e-06
-4.06882e-07
-3.58889e-06
-4.44825e-07
-3.50721e-06
-4.81989e-07
-3.41938e-06
-5.18308e-07
-3.32555e-06
-5.5372e-07
-3.22587e-06
-5.88161e-07
-3.12054e-06
-6.21572e-07
-3.00973e-06
-6.53892e-07
-2.89363e-06
-6.85066e-07
-2.77246e-06
-7.15039e-07
-2.64642e-06
-7.43757e-07
-2.51573e-06
-7.71171e-07
-2.38063e-06
-7.97232e-07
-2.24135e-06
-8.21894e-07
-2.09813e-06
-8.45114e-07
-1.95123e-06
-8.66851e-07
-1.8009e-06
-8.87066e-07
-1.64741e-06
-9.05724e-07
-1.49103e-06
-9.22793e-07
-1.33202e-06
-9.38241e-07
-1.17068e-06
-9.52043e-07
-1.00729e-06
-9.64172e-07
-8.42124e-07
-9.74609e-07
-6.75481e-07
-9.83335e-07
-5.07651e-07
-9.90334e-07
-3.3893e-07
-9.95594e-07
-1.69614e-07
-9.99106e-07
-2.21209e-14
-1.00086e-06
1.69614e-07
-1.00086e-06
3.3893e-07
-9.99106e-07
5.07651e-07
-9.95594e-07
6.75481e-07
-9.90334e-07
8.42124e-07
-9.83335e-07
1.00729e-06
-9.74609e-07
1.17068e-06
-9.64172e-07
1.33202e-06
-9.52043e-07
1.49103e-06
-9.38241e-07
1.64741e-06
-9.22793e-07
1.8009e-06
-9.05724e-07
1.95123e-06
-8.87066e-07
2.09813e-06
-8.66851e-07
2.24135e-06
-8.45114e-07
2.38063e-06
-8.21894e-07
2.51573e-06
-7.97232e-07
2.64642e-06
-7.71171e-07
2.77246e-06
-7.43757e-07
2.89363e-06
-7.15039e-07
3.00973e-06
-6.85066e-07
3.12054e-06
-6.53892e-07
3.22587e-06
-6.21572e-07
3.32555e-06
-5.88161e-07
3.41938e-06
-5.5372e-07
3.50721e-06
-5.18308e-07
3.58889e-06
-4.81989e-07
3.66427e-06
-4.44825e-07
3.73322e-06
-4.06882e-07
3.79562e-06
-3.68227e-07
3.85136e-06
-3.28928e-07
3.90034e-06
-2.89053e-07
3.94248e-06
-2.48674e-07
3.9777e-06
-2.0786e-07
4.00595e-06
-1.66683e-07
4.02716e-06
-1.25216e-07
4.04132e-06
-8.35316e-08
4.04838e-06
-4.17026e-08
4.04834e-06
1.97461e-10
4.04121e-06
4.2095e-08
4.02698e-06
8.39167e-08
4.0057e-06
1.25589e-07
3.97739e-06
1.67039e-07
3.9421e-06
2.08194e-07
3.89991e-06
2.48982e-07
3.85087e-06
2.89332e-07
3.79509e-06
3.29172e-07
3.73265e-06
3.68433e-07
3.66367e-06
4.07047e-07
3.58826e-06
4.44945e-07
3.50657e-06
4.82062e-07
3.41873e-06
5.18332e-07
3.3249e-06
5.53693e-07
3.22524e-06
5.88081e-07
3.11992e-06
6.21438e-07
3.00914e-06
6.53704e-07
2.89309e-06
6.84825e-07
2.77197e-06
7.14744e-07
2.64598e-06
7.43411e-07
2.51537e-06
7.70776e-07
2.38034e-06
7.96791e-07
2.24114e-06
8.21411e-07
2.09801e-06
8.44595e-07
1.95121e-06
8.66303e-07
1.80098e-06
8.86499e-07
1.64759e-06
9.0515e-07
1.49131e-06
9.22227e-07
1.3324e-06
9.37704e-07
1.17115e-06
9.5156e-07
1.00783e-06
9.63779e-07
8.42711e-07
9.7435e-07
6.76084e-07
9.83269e-07
5.08223e-07
9.90542e-07
3.39407e-07
9.96182e-07
1.69908e-07
1.00022e-06
1.00265e-06
-1.71687e-07
1.17433e-06
-3.4296e-07
1.17149e-06
-5.13544e-07
1.16677e-06
-6.83163e-07
1.16016e-06
-8.51536e-07
1.15164e-06
-1.01838e-06
1.14119e-06
-1.18342e-06
1.12881e-06
-1.34636e-06
1.1145e-06
-1.50693e-06
1.09827e-06
-1.66485e-06
1.08015e-06
-1.81984e-06
1.06015e-06
-1.97165e-06
1.0383e-06
-2.11999e-06
1.01465e-06
-2.26462e-06
9.89222e-07
-2.40527e-06
9.62069e-07
-2.54172e-06
9.33233e-07
-2.6737e-06
9.02763e-07
-2.80101e-06
8.70713e-07
-2.9234e-06
8.37138e-07
-3.04067e-06
8.02095e-07
-3.15261e-06
7.65646e-07
-3.25903e-06
7.27855e-07
-3.35974e-06
6.88787e-07
-3.45455e-06
6.4851e-07
-3.54331e-06
6.07095e-07
-3.62587e-06
5.64614e-07
-3.70206e-06
5.21142e-07
-3.77177e-06
4.76754e-07
-3.83486e-06
4.31528e-07
-3.89124e-06
3.85544e-07
-3.94079e-06
3.38882e-07
-3.98343e-06
2.91623e-07
-4.01908e-06
2.4385e-07
-4.04769e-06
1.95648e-07
-4.0692e-06
1.471e-07
-4.08358e-06
9.82917e-08
-4.09079e-06
4.93085e-08
-4.09083e-06
2.36373e-10
-4.08369e-06
-4.88387e-08
-4.0694e-06
-9.78306e-08
-4.04796e-06
-1.46653e-07
-4.01942e-06
-1.95221e-07
-3.98383e-06
-2.43449e-07
-3.94125e-06
-2.91253e-07
-3.89176e-06
-3.38547e-07
-3.83544e-06
-3.8525e-07
-3.77238e-06
-4.31279e-07
-3.70271e-06
-4.76554e-07
-3.62654e-06
-5.20994e-07
-3.54401e-06
-5.64523e-07
-3.45526e-06
-6.07062e-07
-3.36044e-06
-6.48538e-07
-3.25972e-06
-6.88877e-07
-3.15328e-06
-7.28009e-07
-3.04131e-06
-7.65865e-07
-2.924e-06
-8.02378e-07
-2.80155e-06
-8.37483e-07
-2.67419e-06
-8.7112e-07
-2.54213e-06
-9.03229e-07
-2.40561e-06
-9.33753e-07
-2.26487e-06
-9.62638e-07
-2.12015e-06
-9.89835e-07
-1.97171e-06
-1.01529e-06
-1.8198e-06
-1.03897e-06
-1.6647e-06
-1.06083e-06
-1.50668e-06
-1.08082e-06
-1.34601e-06
-1.09891e-06
-1.18297e-06
-1.11508e-06
-1.01786e-06
-1.12928e-06
-8.50964e-07
-1.14151e-06
-6.82571e-07
-1.15173e-06
-5.1298e-07
-1.15993e-06
-3.42488e-07
-1.16609e-06
-1.71395e-07
-1.1702e-06
-3.00828e-14
-1.17226e-06
1.71394e-07
-1.17226e-06
3.42488e-07
-1.1702e-06
5.1298e-07
-1.16609e-06
6.82571e-07
-1.15993e-06
8.50964e-07
-1.15173e-06
1.01786e-06
-1.14151e-06
1.18297e-06
-1.12928e-06
1.34601e-06
-1.11508e-06
1.50668e-06
-1.09891e-06
1.6647e-06
-1.08082e-06
1.8198e-06
-1.06083e-06
1.97171e-06
-1.03897e-06
2.12015e-06
-1.01529e-06
2.26487e-06
-9.89835e-07
2.40561e-06
-9.62638e-07
2.54213e-06
-9.33753e-07
2.67419e-06
-9.03229e-07
2.80155e-06
-8.7112e-07
2.924e-06
-8.37483e-07
3.04131e-06
-8.02378e-07
3.15328e-06
-7.65865e-07
3.25972e-06
-7.28009e-07
3.36044e-06
-6.88877e-07
3.45526e-06
-6.48538e-07
3.54401e-06
-6.07062e-07
3.62654e-06
-5.64523e-07
3.70271e-06
-5.20994e-07
3.77238e-06
-4.76554e-07
3.83544e-06
-4.31279e-07
3.89176e-06
-3.8525e-07
3.94125e-06
-3.38547e-07
3.98383e-06
-2.91253e-07
4.01942e-06
-2.43449e-07
4.04796e-06
-1.95221e-07
4.0694e-06
-1.46653e-07
4.08369e-06
-9.78306e-08
4.09083e-06
-4.88387e-08
4.09079e-06
2.36391e-10
4.08358e-06
4.93085e-08
4.0692e-06
9.82917e-08
4.04769e-06
1.471e-07
4.01908e-06
1.95648e-07
3.98343e-06
2.4385e-07
3.94079e-06
2.91623e-07
3.89124e-06
3.38882e-07
3.83486e-06
3.85544e-07
3.77177e-06
4.31528e-07
3.70206e-06
4.76754e-07
3.62587e-06
5.21142e-07
3.54331e-06
5.64614e-07
3.45455e-06
6.07095e-07
3.35974e-06
6.4851e-07
3.25903e-06
6.88787e-07
3.15261e-06
7.27855e-07
3.04067e-06
7.65646e-07
2.9234e-06
8.02095e-07
2.80101e-06
8.37138e-07
2.6737e-06
8.70713e-07
2.54172e-06
9.02763e-07
2.40527e-06
9.33233e-07
2.26462e-06
9.62069e-07
2.11999e-06
9.89222e-07
1.97165e-06
1.01465e-06
1.81984e-06
1.0383e-06
1.66485e-06
1.06015e-06
1.50693e-06
1.08015e-06
1.34636e-06
1.09827e-06
1.18342e-06
1.1145e-06
1.01838e-06
1.12881e-06
8.51536e-07
1.1412e-06
6.83163e-07
1.15164e-06
5.13544e-07
1.16016e-06
3.4296e-07
1.16677e-06
1.71687e-07
1.17149e-06
1.17433e-06
-1.7376e-07
1.34809e-06
-3.47101e-07
1.34483e-06
-5.19745e-07
1.33941e-06
-6.91412e-07
1.33183e-06
-8.61819e-07
1.32205e-06
-1.03068e-06
1.31006e-06
-1.19771e-06
1.29584e-06
-1.36262e-06
1.27941e-06
-1.52513e-06
1.26078e-06
-1.68496e-06
1.23997e-06
-1.84182e-06
1.21701e-06
-1.99546e-06
1.19194e-06
-2.1456e-06
1.16478e-06
-2.29197e-06
1.1356e-06
-2.43433e-06
1.10443e-06
-2.57242e-06
1.07132e-06
-2.706e-06
1.03635e-06
-2.83484e-06
9.99554e-07
-2.95872e-06
9.61011e-07
-3.07741e-06
9.20784e-07
-3.1907e-06
8.78942e-07
-3.2984e-06
8.35559e-07
-3.40033e-06
7.9071e-07
-3.49629e-06
7.44474e-07
-3.58613e-06
6.96931e-07
-3.66968e-06
6.48165e-07
-3.7468e-06
5.9826e-07
-3.81735e-06
5.47305e-07
-3.88121e-06
4.95388e-07
-3.93827e-06
4.42599e-07
-3.98842e-06
3.89033e-07
-4.03157e-06
3.34781e-07
-4.06766e-06
2.7994e-07
-4.09662e-06
2.24605e-07
-4.11839e-06
1.68873e-07
-4.13295e-06
1.12843e-07
-4.14025e-06
5.66116e-08
-4.14029e-06
2.78168e-10
-4.13307e-06
-5.60587e-08
-4.1186e-06
-1.123e-07
-4.09691e-06
-1.68347e-07
-4.06803e-06
-2.24102e-07
-4.03201e-06
-2.79467e-07
-3.98892e-06
-3.34344e-07
-3.93883e-06
-3.88637e-07
-3.88183e-06
-4.42251e-07
-3.81801e-06
-4.95092e-07
-3.7475e-06
-5.47066e-07
-3.67041e-06
-5.98083e-07
-3.58688e-06
-6.48053e-07
-3.49706e-06
-6.96887e-07
-3.40109e-06
-7.44501e-07
-3.29916e-06
-7.9081e-07
-3.19144e-06
-8.35733e-07
-3.07811e-06
-8.79191e-07
-2.95938e-06
-9.21107e-07
-2.83546e-06
-9.61408e-07
-2.70655e-06
-1.00002e-06
-2.5729e-06
-1.03688e-06
-2.43473e-06
-1.07192e-06
-2.29228e-06
-1.10509e-06
-2.14581e-06
-1.13631e-06
-1.99557e-06
-1.16553e-06
-1.84183e-06
-1.19272e-06
-1.68485e-06
-1.2178e-06
-1.52491e-06
-1.24075e-06
-1.3623e-06
-1.26153e-06
-1.19729e-06
-1.28008e-06
-1.03018e-06
-1.29639e-06
-8.61264e-07
-1.31043e-06
-6.90833e-07
-1.32216e-06
-5.19189e-07
-1.33157e-06
-3.46634e-07
-1.33864e-06
-1.73469e-07
-1.34336e-06
-4.10275e-14
-1.34573e-06
1.73469e-07
-1.34573e-06
3.46633e-07
-1.34336e-06
5.19189e-07
-1.33864e-06
6.90833e-07
-1.33157e-06
8.61264e-07
-1.32216e-06
1.03018e-06
-1.31043e-06
1.19729e-06
-1.29639e-06
1.3623e-06
-1.28008e-06
1.52491e-06
-1.26153e-06
1.68485e-06
-1.24075e-06
1.84183e-06
-1.2178e-06
1.99557e-06
-1.19272e-06
2.14581e-06
-1.16553e-06
2.29228e-06
-1.13631e-06
2.43473e-06
-1.10509e-06
2.5729e-06
-1.07192e-06
2.70655e-06
-1.03688e-06
2.83546e-06
-1.00002e-06
2.95938e-06
-9.61408e-07
3.07811e-06
-9.21107e-07
3.19144e-06
-8.79191e-07
3.29916e-06
-8.35733e-07
3.40109e-06
-7.9081e-07
3.49706e-06
-7.44501e-07
3.58688e-06
-6.96887e-07
3.67041e-06
-6.48053e-07
3.7475e-06
-5.98083e-07
3.81801e-06
-5.47066e-07
3.88183e-06
-4.95092e-07
3.93883e-06
-4.42251e-07
3.98892e-06
-3.88637e-07
4.03201e-06
-3.34344e-07
4.06803e-06
-2.79467e-07
4.09691e-06
-2.24102e-07
4.1186e-06
-1.68347e-07
4.13307e-06
-1.123e-07
4.14029e-06
-5.60587e-08
4.14025e-06
2.78184e-10
4.13295e-06
5.66117e-08
4.11839e-06
1.12843e-07
4.09662e-06
1.68873e-07
4.06766e-06
2.24605e-07
4.03157e-06
2.7994e-07
3.98842e-06
3.34781e-07
3.93827e-06
3.89033e-07
3.88121e-06
4.42599e-07
3.81735e-06
4.95388e-07
3.7468e-06
5.47305e-07
3.66968e-06
5.9826e-07
3.58613e-06
6.48165e-07