/*--------------------------------*- C++ -*----------------------------------*\
| =========                 |                                                 |
| \\      /  F ield         | OpenFOAM: The Open Source CFD Toolbox           |
|  \\    /   O peration     | Version:  2306                                  |
|   \\  /    A nd           | Website:  www.openfoam.com                      |
|    \\/     M anipulation  |                                                 |
\*---------------------------------------------------------------------------*/
FoamFile
{
    version     2.0;
    format      ascii;
    arch        "LSB;label=32;scalar=64";
    class       surfaceScalarField;
    location    "0.11";
    object      phi_0;
}
// * * * * * * * * * * * * * * * * * * * * * * * * * * * * * * * * * * * * * //

dimensions      [0 3 -1 0 0 0 0];

oriented        oriented;

internalField   nonuniform List<scalar> 
12640
(
-3.6726276e-06
-6.2846761e-06
-3.5459559e-06
-6.197451e-06
-3.4250066e-06
-6.1127888e-06
-3.3094457e-06
-6.0306349e-06
-3.1989611e-06
-5.9509341e-06
-3.0932609e-06
-5.8736314e-06
-2.9920726e-06
-5.7986717e-06
-2.8951408e-06
-5.7260006e-06
-2.8022266e-06
-5.6555644e-06
-2.713106e-06
-5.5873101e-06
-2.6275692e-06
-5.5211861e-06
-2.545419e-06
-5.4571419e-06
-2.4664707e-06
-5.3951282e-06
-2.3905504e-06
-5.3350972e-06
-2.317495e-06
-5.2770023e-06
-2.2471509e-06
-5.2207988e-06
-2.1793736e-06
-5.166443e-06
-2.1140271e-06
-5.1138931e-06
-2.050983e-06
-5.0631087e-06
-1.9901207e-06
-5.0140509e-06
-1.931326e-06
-4.9666822e-06
-1.8744913e-06
-4.9209669e-06
-1.8195151e-06
-4.8768705e-06
-1.7663013e-06
-4.8343602e-06
-1.7147591e-06
-4.7934043e-06
-1.6648025e-06
-4.7539728e-06
-1.6163504e-06
-4.7160371e-06
-1.5693256e-06
-4.6795697e-06
-1.5236553e-06
-4.6445446e-06
-1.4792701e-06
-4.6109372e-06
-1.4361044e-06
-4.5787238e-06
-1.3940959e-06
-4.5478821e-06
-1.3531853e-06
-4.5183913e-06
-1.3133164e-06
-4.4902312e-06
-1.2744355e-06
-4.4633831e-06
-1.2364918e-06
-4.4378294e-06
-1.1994367e-06
-4.4135533e-06
-1.1632239e-06
-4.3905392e-06
-1.1278092e-06
-4.3687727e-06
-1.0931507e-06
-4.34824e-06
-1.059208e-06
-4.3289286e-06
-1.0259428e-06
-4.3108266e-06
-9.9331825e-07
-4.2939233e-06
-9.6129917e-07
-4.2782087e-06
-9.2985185e-07
-4.2636737e-06
-8.9894396e-07
-4.25031e-06
-8.6854448e-07
-4.2381102e-06
-8.3862365e-07
-4.2270675e-06
-8.091528e-07
-4.217176e-06
-7.8010441e-07
-4.2084306e-06
-7.5145192e-07
-4.2008267e-06
-7.2316981e-07
-4.1943605e-06
-6.952335e-07
-4.189029e-06
-6.6761917e-07
-4.1848298e-06
-6.4030391e-07
-4.1817609e-06
-6.1326561e-07
-4.1798213e-06
-5.8648285e-07
-4.1790104e-06
-5.5993506e-07
-4.1793284e-06
-5.3360222e-07
-4.1807759e-06
-5.0746512e-07
-4.1833543e-06
-4.815051e-07
-4.1870656e-06
-4.5570414e-07
-4.1919127e-06
-4.3004485e-07
-4.1978989e-06
-4.0451025e-07
-4.2050284e-06
-3.7908395e-07
-4.2133062e-06
-3.5374995e-07
-4.2227383e-06
-3.2849258e-07
-4.2333314e-06
-3.0329646e-07
-4.2450932e-06
-2.7814632e-07
-4.2580327e-06
-2.5302699e-07
-4.2721595e-06
-2.2792317e-07
-4.2874846e-06
-2.0281946e-07
-4.3040198e-06
-1.7770001e-07
-4.321778e-06
-1.5254872e-07
-4.3407732e-06
-1.2734882e-07
-4.36102e-06
-1.0208303e-07
-4.3825331e-06
-7.673349e-08
-4.4053253e-06
-5.1281878e-08
-4.4293995e-06
-2.5709937e-08
-4.4547268e-06
-4.4812489e-06
-3.5081323e-06
-6.4127334e-06
-3.3860198e-06
-6.3195635e-06
-3.2694966e-06
-6.229312e-06
-3.1582315e-06
-6.1419e-06
-3.0519154e-06
-6.0572502e-06
-2.95026e-06
-5.9752868e-06
-2.8529961e-06
-5.8959356e-06
-2.759872e-06
-5.8191247e-06
-2.6706524e-06
-5.7447839e-06
-2.5851171e-06
-5.6728455e-06
-2.5030596e-06
-5.6032436e-06
-2.4242868e-06
-5.5359148e-06
-2.3486173e-06
-5.4707978e-06
-2.2758808e-06
-5.4078336e-06
-2.2059178e-06
-5.3469654e-06
-2.138578e-06
-5.2881386e-06
-2.0737203e-06
-5.2313007e-06
-2.0112118e-06
-5.1764016e-06
-1.9509276e-06
-5.1233929e-06
-1.8927498e-06
-5.0722287e-06
-1.8365675e-06
-5.0228646e-06
-1.7822759e-06
-4.9752585e-06
-1.7297762e-06
-4.9293703e-06
-1.678975e-06
-4.8851613e-06
-1.6297843e-06
-4.842595e-06
-1.5821207e-06
-4.8016365e-06
-1.5359053e-06
-4.7622525e-06
-1.4910634e-06
-4.7244116e-06
-1.4475244e-06
-4.6880837e-06
-1.4052212e-06
-4.6532403e-06
-1.3640904e-06
-4.6198546e-06
-1.3240716e-06
-4.587901e-06
-1.2851076e-06
-4.5573553e-06
-1.2471439e-06
-4.5281948e-06
-1.210129e-06
-4.5003981e-06
-1.1740136e-06
-4.4739448e-06
-1.1387508e-06
-4.448816e-06
-1.1042961e-06
-4.4249939e-06
-1.0706069e-06
-4.4024619e-06
-1.0376427e-06
-4.3812042e-06
-1.0053647e-06
-4.3612065e-06
-9.7373595e-07
-4.3424553e-06
-9.4272107e-07
-4.3249382e-06
-9.1228617e-07
-4.3086436e-06
-8.8239885e-07
-4.293561e-06
-8.5302802e-07
-4.2796808e-06
-8.2414386e-07
-4.2669943e-06
-7.9571777e-07
-4.2554936e-06
-7.677222e-07
-4.2451715e-06
-7.4013071e-07
-4.236022e-06
-7.1291783e-07
-4.2280395e-06
-6.8605905e-07
-4.2212193e-06
-6.5953066e-07
-4.2155574e-06
-6.333099e-07
-4.2110505e-06
-6.0737476e-07
-4.207696e-06
-5.8170407e-07
-4.205492e-06
-5.5627726e-07
-4.2044372e-06
-5.3107465e-07
-4.204531e-06
-5.0607718e-07
-4.2057733e-06
-4.8126639e-07
-4.2081651e-06
-4.5662467e-07
-4.2117074e-06
-4.3213486e-07
-4.2164025e-06
-4.077805e-07
-4.2222532e-06
-3.8354574e-07
-4.2292631e-06
-3.5941508e-07
-4.2374368e-06
-3.353737e-07
-4.2467797e-06
-3.11407e-07
-4.2572981e-06
-2.8750071e-07
-4.2689995e-06
-2.636408e-07
-4.2818926e-06
-2.3981321e-07
-4.2959871e-06
-2.1600385e-07
-4.311294e-06
-1.9219835e-07
-4.3278253e-06
-1.6838199e-07
-4.3455944e-06
-1.4453948e-07
-4.3646157e-06
-1.2065502e-07
-4.3849045e-06
-9.671193e-08
-4.4064763e-06
-7.269281e-08
-4.4293444e-06
-4.8579743e-08
-4.4535125e-06
-2.4354678e-08
-4.4789519e-06
-4.5056035e-06
-3.3361263e-06
-6.5356158e-06
-3.2190195e-06
-6.4366702e-06
-3.1073381e-06
-6.3409934e-06
-3.0007561e-06
-6.2484821e-06
-2.8989699e-06
-6.1590364e-06
-2.8016966e-06
-6.0725601e-06
-2.7086721e-06
-5.9889601e-06
-2.6196503e-06
-5.9081466e-06
-2.5344008e-06
-5.8300335e-06
-2.4527084e-06
-5.7545378e-06
-2.3743719e-06
-5.6815801e-06
-2.2992028e-06
-5.6110839e-06
-2.2270243e-06
-5.5429762e-06
-2.1576709e-06
-5.4771869e-06
-2.0909874e-06
-5.413649e-06
-2.0268276e-06
-5.3522983e-06
-1.9650548e-06
-5.2930736e-06
-1.9055399e-06
-5.2359164e-06
-1.8481619e-06
-5.180771e-06
-1.7928066e-06
-5.127584e-06
-1.7393666e-06
-5.0763046e-06
-1.6877405e-06
-5.0268846e-06
-1.637833e-06
-4.9792778e-06
-1.5895537e-06
-4.9334405e-06
-1.5428177e-06
-4.889331e-06
-1.4975444e-06
-4.8469097e-06
-1.4536578e-06
-4.8061391e-06
-1.4110861e-06
-4.7669833e-06
-1.3697611e-06
-4.7294087e-06
-1.3296182e-06
-4.6933832e-06
-1.2905964e-06
-4.6588764e-06
-1.2526376e-06
-4.6258597e-06
-1.2156869e-06
-4.594306e-06
-1.1796919e-06
-4.5641898e-06
-1.1446031e-06
-4.5354869e-06
-1.1103732e-06
-4.5081747e-06
-1.0769572e-06
-4.482232e-06
-1.0443124e-06
-4.4576388e-06
-1.012398e-06
-4.4343763e-06
-9.8117513e-07
-4.4124271e-06
-9.506067e-07
-4.391775e-06
-9.2065724e-07
-4.3724048e-06
-8.9129289e-07
-4.3543025e-06
-8.6248123e-07
-4.3374552e-06
-8.3419127e-07
-4.321851e-06
-8.0639324e-07
-4.3074788e-06
-7.7905864e-07
-4.2943289e-06
-7.5216006e-07
-4.2823921e-06
-7.2567124e-07
-4.2716604e-06
-6.9956686e-07
-4.2621264e-06
-6.7382257e-07
-4.2537838e-06
-6.4841486e-07
-4.246627e-06
-6.233212e-07
-4.2406511e-06
-5.9851974e-07
-4.235852e-06
-5.7398949e-07
-4.2322263e-06
-5.4971015e-07
-4.2297713e-06
-5.2566219e-07
-4.2284852e-06
-5.0182676e-07
-4.2283664e-06
-4.7818569e-07
-4.2294144e-06
-4.5472159e-07
-4.2316292e-06
-4.314176e-07
-4.2350114e-06
-4.0825771e-07
-4.2395624e-06
-3.8522637e-07
-4.2452845e-06
-3.6230876e-07
-4.2521808e-06
-3.3949057e-07
-4.260255e-06
-3.1675807e-07
-4.2695122e-06
-2.9409789e-07
-4.2799582e-06
-2.7149709e-07
-4.2916004e-06
-2.4894278e-07
-4.3044469e-06
-2.2642237e-07
-4.3185075e-06
-2.0392297e-07
-4.3337933e-06
-1.8143149e-07
-4.3503167e-06
-1.5893441e-07
-4.3680915e-06
-1.3641747e-07
-4.3871326e-06
-1.1386575e-07
-4.4074562e-06
-9.1263275e-08
-4.4290787e-06
-6.8593243e-08
-4.4520144e-06
-4.5837908e-08
-4.4762678e-06
-2.297939e-08
-4.5018105e-06
-4.5285829e-06
-3.1568419e-06
-6.6528517e-06
-3.0451792e-06
-6.548333e-06
-2.9387473e-06
-6.4474253e-06
-2.837228e-06
-6.3500014e-06
-2.7403253e-06
-6.2559391e-06
-2.6477636e-06
-6.1651218e-06
-2.5592863e-06
-6.0774374e-06
-2.4746539e-06
-5.992779e-06
-2.3936428e-06
-5.9110445e-06
-2.3160445e-06
-5.8321361e-06
-2.2416638e-06
-5.7559608e-06
-2.1703183e-06
-5.6824295e-06
-2.101837e-06
-5.6114575e-06
-2.03606e-06
-5.5429639e-06
-1.9728372e-06
-5.4768718e-06
-1.9120279e-06
-5.4131076e-06
-1.8534998e-06
-5.3516016e-06
-1.797129e-06
-5.2922872e-06
-1.7427987e-06
-5.2351013e-06
-1.6903991e-06
-5.1799836e-06
-1.6398268e-06
-5.1268769e-06
-1.5909846e-06
-5.0757268e-06
-1.5437807e-06
-5.0264817e-06
-1.4981285e-06
-4.9790927e-06
-1.4539465e-06
-4.9335131e-06
-1.4111574e-06
-4.8896988e-06
-1.3696885e-06
-4.847608e-06
-1.3294708e-06
-4.8072011e-06
-1.2904391e-06
-4.7684404e-06
-1.2525317e-06
-4.7312906e-06
-1.2156901e-06
-4.695718e-06
-1.1798589e-06
-4.6616909e-06
-1.1449855e-06
-4.6291794e-06
-1.11102e-06
-4.5981553e-06
-1.077915e-06
-4.5685919e-06
-1.0456255e-06
-4.5404643e-06
-1.0141084e-06
-4.513749e-06
-9.8332318e-07
-4.488424e-06
-9.5323085e-07
-4.4644686e-06
-9.2379433e-07
-4.4418636e-06
-8.9497833e-07
-4.420591e-06
-8.6674911e-07
-4.400634e-06
-8.3907436e-07
-4.3819772e-06
-8.1192328e-07
-4.3646063e-06
-7.8526635e-07
-4.3485079e-06
-7.5907529e-07
-4.3336699e-06
-7.3332295e-07
-4.3200813e-06
-7.0798325e-07
-4.3077318e-06
-6.8303121e-07
-4.2966124e-06
-6.5844276e-07
-4.2867149e-06
-6.3419468e-07
-4.2780319e-06
-6.1026474e-07
-4.270557e-06
-5.8663133e-07
-4.2642845e-06
-5.6327374e-07
-4.2592096e-06
-5.4017194e-07
-4.2553281e-06
-5.1730669e-07
-4.2526366e-06
-4.9465931e-07
-4.2511325e-06
-4.7221194e-07
-4.2508138e-06
-4.4994737e-07
-4.251679e-06
-4.2784912e-07
-4.2537274e-06
-4.0590133e-07
-4.2569592e-06
-3.840889e-07
-4.2613748e-06
-3.6239745e-07
-4.266976e-06
-3.4081316e-07
-4.273765e-06
-3.1932296e-07
-4.2817452e-06
-2.9791435e-07
-4.2909208e-06
-2.7657526e-07
-4.3012973e-06
-2.5529411e-07
-4.3128815e-06
-2.340596e-07
-4.3256814e-06
-2.1286039e-07
-4.3397067e-06
-1.9168517e-07
-4.3549685e-06
-1.7052234e-07
-4.3714796e-06
-1.4935965e-07
-4.3892542e-06
-1.2818412e-07
-4.4083082e-06
-1.0698177e-07
-4.4286586e-06
-8.5737399e-08
-4.4503231e-06
-6.4434733e-08
-4.4733171e-06
-4.3056283e-08
-4.4976463e-06
-2.1583991e-08
-4.5232827e-06
-4.5501669e-06
-2.9705505e-06
-6.7639808e-06
-2.864759e-06
-6.6541245e-06
-2.7639735e-06
-6.5482109e-06
-2.6678858e-06
-6.446089e-06
-2.5762101e-06
-6.3476149e-06
-2.48868e-06
-6.2526518e-06
-2.4050479e-06
-6.1610695e-06
-2.3250831e-06
-6.0727439e-06
-2.2485702e-06
-5.9875573e-06
-2.1753085e-06
-5.9053978e-06
-2.1051105e-06
-5.8261588e-06
-2.0378009e-06
-5.7497392e-06
-1.9732156e-06
-5.6760428e-06
-1.9112012e-06
-5.6049783e-06
-1.8516138e-06
-5.5364591e-06
-1.7943187e-06
-5.4704027e-06
-1.7391895e-06
-5.4067309e-06
-1.6861073e-06
-5.3453695e-06
-1.6349606e-06
-5.286248e-06
-1.5856445e-06
-5.2292996e-06
-1.5380604e-06
-5.174461e-06
-1.4921154e-06
-5.1216718e-06
-1.447722e-06
-5.0708751e-06
-1.4047977e-06
-5.0220169e-06
-1.3632648e-06
-4.975046e-06
-1.3230497e-06
-4.9299138e-06
-1.2840832e-06
-4.8865745e-06
-1.2462997e-06
-4.8449846e-06
-1.2096372e-06
-4.8051029e-06
-1.1740371e-06
-4.7668907e-06
-1.1394437e-06
-4.7303113e-06
-1.1058046e-06
-4.6953301e-06
-1.0730696e-06
-4.6619144e-06
-1.0411916e-06
-4.6300333e-06
-1.0101254e-06
-4.599658e-06
-9.7982847e-07
-4.5707612e-06
-9.502601e-07
-4.5433174e-06
-9.2138166e-07
-4.5173024e-06
-8.9315632e-07
-4.4926939e-06
-8.6554904e-07
-4.4694709e-06
-8.3852628e-07
-4.4476137e-06
-8.1205619e-07
-4.4271041e-06
-7.8610824e-07
-4.4079252e-06
-7.6065326e-07
-4.3900613e-06
-7.356633e-07
-4.3734978e-06
-7.1111161e-07
-4.3582216e-06
-6.8697258e-07
-4.3442203e-06
-6.6322155e-07
-4.3314828e-06
-6.3983484e-07
-4.3199991e-06
-6.1678969e-07
-4.30976e-06
-5.9406422e-07
-4.3007574e-06
-5.7163722e-07
-4.292984e-06
-5.4948837e-07
-4.2864333e-06
-5.27598e-07
-4.2810999e-06
-5.0594712e-07
-4.276979e-06
-4.8451742e-07
-4.2740663e-06
-4.6329132e-07
-4.2723587e-06
-4.4225183e-07
-4.2718532e-06
-4.2138273e-07
-4.2725481e-06
-4.006684e-07
-4.2744417e-06
-3.8009405e-07
-4.2775335e-06
-3.5964558e-07
-4.2818233e-06
-3.3930959e-07
-4.287312e-06
-3.1907353e-07
-4.2940011e-06
-2.9892553e-07
-4.3018932e-06
-2.7885434e-07
-4.310992e-06
-2.5884945e-07
-4.3213022e-06
-2.3890073e-07
-4.3328302e-06
-2.1899849e-07
-4.3455837e-06
-1.991331e-07
-4.3595721e-06
-1.7929493e-07
-4.3748067e-06
-1.5947401e-07
-4.3913005e-06
-1.3965963e-07
-4.4090685e-06
-1.1984029e-07
-4.4281275e-06
-1.0000313e-07
-4.4484958e-06
-8.0133908e-08
-4.4701923e-06
-6.0216729e-08
-4.4932343e-06
-4.0234227e-08
-4.5176288e-06
-2.0168094e-08
-4.5433488e-06
-4.570335e-06
-2.7775621e-06
-6.868558e-06
-2.6780546e-06
-6.753632e-06
-2.5832985e-06
-6.642967e-06
-2.4929984e-06
-6.536389e-06
-2.4068805e-06
-6.4337329e-06
-2.3246899e-06
-6.3348424e-06
-2.2461898e-06
-6.2395695e-06
-2.1711598e-06
-6.1477739e-06
-2.0993944e-06
-6.0593227e-06
-2.0307022e-06
-5.97409e-06
-1.9649043e-06
-5.8919566e-06
-1.9018339e-06
-5.8128096e-06
-1.8413349e-06
-5.7365418e-06
-1.7832612e-06
-5.663052e-06
-1.7274763e-06
-5.592244e-06
-1.6738521e-06
-5.5240269e-06
-1.6222685e-06
-5.4583145e-06
-1.5726129e-06
-5.3950251e-06
-1.5247794e-06
-5.3340815e-06
-1.4786688e-06
-5.2754103e-06
-1.4341875e-06
-5.2189422e-06
-1.3912477e-06
-5.1646116e-06
-1.3497665e-06
-5.1123563e-06
-1.309666e-06
-5.0621175e-06
-1.2708726e-06
-5.0138394e-06
-1.2333169e-06
-4.9674695e-06
-1.1969334e-06
-4.922958e-06
-1.1616603e-06
-4.8802577e-06
-1.1274391e-06
-4.8393242e-06
-1.0942143e-06
-4.8001155e-06
-1.0619337e-06
-4.762592e-06
-1.0305476e-06
-4.7267162e-06
-1.000009e-06
-4.692453e-06
-9.7027325e-07
-4.659769e-06
-9.412981e-07
-4.6286332e-06
-9.1304329e-07
-4.5990161e-06
-8.8547057e-07
-4.5708901e-06
-8.5854365e-07
-4.5442294e-06
-8.3222786e-07
-4.5190097e-06
-8.0649028e-07
-4.4952085e-06
-7.8129938e-07
-4.4728046e-06
-7.5662525e-07
-4.4517782e-06
-7.3243918e-07
-4.4321113e-06
-7.0871378e-07
-4.4137867e-06
-6.8542285e-07
-4.3967888e-06
-6.6254124e-07
-4.3811032e-06
-6.4004487e-07
-4.3667167e-06
-6.179106e-07
-4.3536171e-06
-5.9611621e-07
-4.3417935e-06
-5.7464029e-07
-4.3312359e-06
-5.5346225e-07
-4.3219354e-06
-5.3256216e-07
-4.3138841e-06
-5.1192086e-07
-4.3070747e-06
-4.9151977e-07
-4.301501e-06
-4.71341e-07
-4.2971577e-06
-4.5136728e-07
-4.29404e-06
-4.3158198e-07
-4.292144e-06
-4.1196909e-07
-4.2914662e-06
-3.9251324e-07
-4.2920039e-06
-3.731998e-07
-4.2937552e-06
-3.54015e-07
-4.2967183e-06
-3.3494566e-07
-4.3008927e-06
-3.1597958e-07
-4.3062781e-06
-2.9710524e-07
-4.3128754e-06
-2.7831214e-07
-4.3206863e-06
-2.5959051e-07
-4.3297136e-06
-2.4093128e-07
-4.3399614e-06
-2.2232608e-07
-4.3514354e-06
-2.0376696e-07
-4.3641428e-06
-1.8524625e-07
-4.3780928e-06
-1.6675622e-07
-4.3932967e-06
-1.4828886e-07
-4.4097679e-06
-1.298354e-07
-4.427522e-06
-1.1138591e-07
-4.446577e-06
-9.2928964e-08
-4.4669527e-06
-7.4451367e-08
-4.4886699e-06
-5.5937649e-08
-4.511748e-06
-3.7370457e-08
-4.536196e-06
-1.8730998e-08
-4.5619883e-06
-4.589066e-06
-2.5782245e-06
-6.9661566e-06
-2.4853963e-06
-6.8464602e-06
-2.397036e-06
-6.7313273e-06
-2.3128637e-06
-6.6205613e-06
-2.2326194e-06
-6.5139772e-06
-2.156062e-06
-6.4113998e-06
-2.0829674e-06
-6.3126642e-06
-2.0131268e-06
-6.2176145e-06
-1.9463463e-06
-6.1261032e-06
-1.8824449e-06
-6.0379914e-06
-1.821254e-06
-5.9531476e-06
-1.7626161e-06
-5.8714475e-06
-1.706384e-06
-5.7927739e-06
-1.6524202e-06
-5.7170158e-06
-1.600596e-06
-5.6440681e-06
-1.550791e-06
-5.5738319e-06
-1.5028922e-06
-5.5062133e-06
-1.4567938e-06
-5.4411236e-06
-1.4123963e-06
-5.378479e-06
-1.3696064e-06
-5.3182002e-06
-1.3283363e-06
-5.2602122e-06
-1.2885037e-06
-5.2044442e-06
-1.2500308e-06
-5.1508292e-06
-1.2128446e-06
-5.0993037e-06
-1.176876e-06
-5.049808e-06
-1.1420602e-06
-5.0022853e-06
-1.1083358e-06
-4.9566824e-06
-1.0756448e-06
-4.9129486e-06
-1.0439326e-06
-4.8710364e-06
-1.0131474e-06
-4.8309007e-06
-9.8324028e-07
-4.7924991e-06
-9.5416475e-07
-4.7557917e-06
-9.2587697e-07
-4.7207407e-06
-8.9833522e-07
-4.6873108e-06
-8.7150003e-07
-4.6554684e-06
-8.4533383e-07
-4.6251823e-06
-8.19801e-07
-4.5964229e-06
-7.9486758e-07
-4.5691628e-06
-7.705013e-07
-4.543376e-06
-7.4667141e-07
-4.5190384e-06
-7.233486e-07
-4.4961273e-06
-7.0050495e-07
-4.4746219e-06
-6.7811372e-07
-4.4545025e-06
-6.5614938e-07
-4.435751e-06
-6.3458752e-07
-4.4183507e-06
-6.1340474e-07
-4.402286e-06
-5.9257858e-07
-4.3875428e-06
-5.720875e-07
-4.3741082e-06
-5.5191074e-07
-4.3619703e-06
-5.3202836e-07
-4.3511183e-06
-5.1242109e-07
-4.3415427e-06
-4.9307039e-07
-4.3332348e-06
-4.7395825e-07
-4.3261868e-06
-4.5506726e-07
-4.320392e-06
-4.3638063e-07
-4.3158443e-06
-4.1788211e-07
-4.3125385e-06
-3.9955597e-07
-4.3104701e-06
-3.8138721e-07
-4.3096349e-06
-3.6336137e-07
-4.3100298e-06
-3.4546473e-07
-4.3116518e-06
-3.2768435e-07
-4.3144987e-06
-3.1000815e-07
-4.3185689e-06
-2.9242494e-07
-4.3238613e-06
-2.7492453e-07
-4.3303759e-06
-2.5749759e-07
-4.3381132e-06
-2.401359e-07
-4.3470753e-06
-2.2283208e-07
-4.3572652e-06
-2.0557957e-07
-4.3686879e-06
-1.8837247e-07
-4.3813499e-06
-1.7120528e-07
-4.39526e-06
-1.5407262e-07
-4.4104294e-06
-1.3696867e-07
-4.4268718e-06
-1.1988694e-07
-4.4446037e-06
-1.0281964e-07
-4.4636443e-06
-8.5757003e-08
-4.4840153e-06
-6.8687006e-08
-4.5057399e-06
-5.1594794e-08
-4.5288402e-06
-3.4462857e-08
-4.5533279e-06
-1.7271525e-08
-4.5791797e-06
-4.6063375e-06
-2.3729224e-06
-7.0563719e-06
-2.2871479e-06
-6.9322347e-06
-2.2055306e-06
-6.8129446e-06
-2.1278077e-06
-6.6982842e-06
-2.0537359e-06
-6.588049e-06
-1.9830893e-06
-6.4820465e-06
-1.915658e-06
-6.3800955e-06
-1.8512472e-06
-6.2820253e-06
-1.7896753e-06
-6.1876751e-06
-1.7307735e-06
-6.0968932e-06
-1.6743842e-06
-6.0095369e-06
-1.6203605e-06
-5.9254712e-06
-1.5685653e-06
-5.8445692e-06
-1.5188703e-06
-5.7667107e-06
-1.4711557e-06
-5.6917827e-06
-1.4253093e-06
-5.6196783e-06
-1.381226e-06
-5.5502966e-06
-1.3388073e-06
-5.4835423e-06
-1.2979607e-06
-5.4193255e-06
-1.2585996e-06
-5.3575613e-06
-1.2206424e-06
-5.2981694e-06
-1.1840125e-06
-5.2410741e-06
-1.1486379e-06
-5.1862038e-06
-1.1144506e-06
-5.133491e-06
-1.0813867e-06
-5.0828718e-06
-1.0493861e-06
-5.034286e-06
-1.0183918e-06
-4.9876767e-06
-9.8835006e-07
-4.9429903e-06
-9.5921032e-07
-4.9001761e-06
-9.3092461e-07
-4.8591864e-06
-9.0344755e-07
-4.8199762e-06
-8.7673627e-07
-4.782503e-06
-8.5075011e-07
-4.7467269e-06
-8.2545056e-07
-4.7126104e-06
-8.0080103e-07
-4.6801179e-06
-7.7676682e-07
-4.6492165e-06
-7.53315e-07
-4.6198748e-06
-7.3041419e-07
-4.5920636e-06
-7.0803463e-07
-4.5657556e-06
-6.8614788e-07
-4.5409251e-06
-6.647269e-07
-4.5175484e-06
-6.4374587e-07
-4.4956029e-06
-6.2318015e-07
-4.4750682e-06
-6.0300616e-07
-4.455925e-06
-5.8320136e-07
-4.4381554e-06
-5.6374414e-07
-4.4217432e-06
-5.4461385e-07
-4.4066731e-06
-5.2579052e-07
-4.3929315e-06
-5.07255e-07
-4.3805058e-06
-4.8898886e-07
-4.3693845e-06
-4.7097423e-07
-4.3595573e-06
-4.5319388e-07
-4.3510151e-06
-4.3563116e-07
-4.3437495e-06
-4.1826976e-07
-4.3377534e-06
-4.0109402e-07
-4.3330201e-06
-3.8408869e-07
-4.3295439e-06
-3.6723906e-07
-4.3273197e-06
-3.5053088e-07
-4.3263431e-06
-3.3395066e-07
-4.32661e-06
-3.1748549e-07
-4.3281169e-06
-3.0112332e-07
-4.3308608e-06
-2.8485305e-07
-4.3348392e-06
-2.6866444e-07
-4.3400499e-06
-2.5254852e-07
-4.3464918e-06
-2.3649737e-07
-4.3541644e-06
-2.2050428e-07
-4.3630684e-06
-2.0456364e-07
-4.3732059e-06
-1.8867094e-07
-4.3845806e-06
-1.7282256e-07
-4.3971983e-06
-1.570155e-07
-4.4110671e-06
-1.4124702e-07
-4.4261979e-06
-1.2551413e-07
-4.4426047e-06
-1.0981312e-07
-4.4603048e-06
-9.4138642e-08
-4.4793188e-06
-7.848318e-08
-4.4996708e-06
-6.2836296e-08
-4.5213868e-06
-4.7183866e-08
-4.5444926e-06
-3.1508002e-08
-4.5690038e-06
-1.5787678e-08
-4.5949e-06
-4.6221252e-06
-2.1620754e-06
-7.1388245e-06
-2.0837056e-06
-7.0106045e-06
-2.009156e-06
-6.8874942e-06
-1.9381836e-06
-6.7692565e-06
-1.8705635e-06
-6.6556691e-06
-1.8060869e-06
-6.5465231e-06
-1.7445601e-06
-6.4416223e-06
-1.6858031e-06
-6.3407823e-06
-1.6296486e-06
-6.2438296e-06
-1.5759407e-06
-6.1506011e-06
-1.5245345e-06
-6.0609432e-06
-1.4752944e-06
-5.9747113e-06
-1.4280942e-06
-5.8917694e-06
-1.3828159e-06
-5.811989e-06
-1.3393492e-06
-5.7352494e-06
-1.2975909e-06
-5.6614366e-06
-1.2574445e-06
-5.590443e-06
-1.2188193e-06
-5.5221675e-06
-1.1816305e-06
-5.4565143e-06
-1.1457985e-06
-5.3933933e-06
-1.1112484e-06
-5.3327196e-06
-1.0779098e-06
-5.2744126e-06
-1.0457168e-06
-5.2183969e-06
-1.014607e-06
-5.1646008e-06
-9.8452177e-07
-5.112957e-06
-9.55406e-07
-5.0634018e-06
-9.2720748e-07
-5.0158752e-06
-8.9987712e-07
-4.9703207e-06
-8.7336848e-07
-4.9266848e-06
-8.4763766e-07
-4.8849172e-06
-8.2264316e-07
-4.8449707e-06
-7.9834574e-07
-4.8068004e-06
-7.7470819e-07
-4.7703644e-06
-7.5169528e-07
-4.7356232e-06
-7.2927361e-07
-4.7025396e-06
-7.0741144e-07
-4.6710786e-06
-6.8607867e-07
-4.6412075e-06
-6.6524663e-07
-4.6128956e-06
-6.448881e-07
-4.5861141e-06
-6.2497715e-07
-4.5608361e-06
-6.0548911e-07
-4.5370364e-06
-5.8640033e-07
-4.5146917e-06
-5.6768837e-07
-4.4937802e-06
-5.4933174e-07
-4.4742816e-06
-5.3130982e-07
-4.4561774e-06
-5.1360293e-07
-4.4394501e-06
-4.9619209e-07
-4.4240839e-06
-4.7905919e-07
-4.4100644e-06
-4.6218671e-07
-4.3973783e-06
-4.4555773e-07
-4.3860134e-06
-4.2915595e-07
-4.3759591e-06
-4.1296548e-07
-4.3672055e-06
-3.9697093e-07
-4.3597441e-06
-3.8115732e-07
-4.353567e-06
-3.6551e-07
-4.3486674e-06
-3.5001474e-07
-4.3450391e-06
-3.3465772e-07
-4.3426767e-06
-3.194256e-07
-4.3415752e-06
-3.0430557e-07
-4.3417301e-06
-2.8928555e-07
-4.343137e-06
-2.7435427e-07
-4.3457921e-06
-2.5950138e-07
-4.349692e-06
-2.4471779e-07
-4.3548335e-06
-2.2999556e-07
-4.361214e-06
-2.1532811e-07
-4.3688318e-06
-2.0071034e-07
-4.3776862e-06
-1.8613856e-07
-4.3877777e-06
-1.7161044e-07
-4.3991087e-06
-1.5712491e-07
-4.4116838e-06
-1.4268187e-07
-4.4255101e-06
-1.2828169e-07
-4.440598e-06
-1.139248e-07
-4.4569616e-06
-9.9610837e-08
-4.4746187e-06
-8.5337792e-08
-4.4935918e-06
-7.1101008e-08
-4.5139075e-06
-5.6892149e-08
-4.5355957e-06
-4.2698054e-08
-4.5586867e-06
-2.850056e-08
-4.5832013e-06
-1.4276579e-08
-4.609124e-06
-4.6364018e-06
-1.9461364e-06
-7.2131636e-06
-1.8754955e-06
-7.0812454e-06
-1.8083137e-06
-6.954676e-06
-1.7443697e-06
-6.8332004e-06
-1.683459e-06
-6.7165799e-06
-1.6253915e-06
-6.6045906e-06
-1.5699912e-06
-6.4970225e-06
-1.5170946e-06
-6.3936789e-06
-1.4665497e-06
-6.2943745e-06
-1.4182149e-06
-6.1989359e-06
-1.3719585e-06
-6.1071995e-06
-1.3276577e-06
-6.0190121e-06
-1.2851979e-06
-5.9342291e-06
-1.2444722e-06
-5.8527148e-06
-1.2053805e-06
-5.7743411e-06
-1.1678293e-06
-5.6989877e-06
-1.1317312e-06
-5.6265412e-06
-1.097004e-06
-5.5568946e-06
-1.063571e-06
-5.4899473e-06
-1.03136e-06
-5.4256043e-06
-1.0003033e-06
-5.3637762e-06
-9.7033737e-07
-5.3043786e-06
-9.4140229e-07
-5.247332e-06
-9.1344183e-07
-5.1925613e-06
-8.8640301e-07
-5.1399958e-06
-8.6023589e-07
-5.0895689e-06
-8.3489343e-07
-5.0412177e-06
-8.1033121e-07
-4.9948829e-06
-7.8650728e-07
-4.9505087e-06
-7.6338204e-07
-4.9080425e-06
-7.4091801e-07
-4.8674347e-06
-7.1907979e-07
-4.8286386e-06
-6.9783377e-07
-4.7916105e-06
-6.7714818e-07
-4.7563088e-06
-6.569929e-07
-4.7226949e-06
-6.3733931e-07
-4.6907322e-06
-6.1816026e-07
-4.6603866e-06
-5.9942996e-07
-4.6316259e-06
-5.811238e-07
-4.6044202e-06
-5.6321847e-07
-4.5787414e-06
-5.4569172e-07
-4.5545632e-06
-5.2852226e-07
-4.5318611e-06
-5.116899e-07
-4.5106126e-06
-4.9517523e-07
-4.4907963e-06
-4.7895971e-07
-4.4723929e-06
-4.6302558e-07
-4.4553842e-06
-4.4735584e-07
-4.4397537e-06
-4.3193409e-07
-4.4254862e-06
-4.1674453e-07
-4.4125678e-06
-4.0177193e-07
-4.4009861e-06
-3.8700149e-07
-4.3907295e-06
-3.7241882e-07
-4.3817882e-06
-3.5800987e-07
-4.3741531e-06
-3.4376084e-07
-4.367816e-06
-3.2965825e-07
-4.36277e-06
-3.156888e-07
-4.3590086e-06
-3.0183955e-07
-4.356526e-06
-2.8809786e-07
-4.3553169e-06
-2.7445167e-07
-4.3553763e-06
-2.6088944e-07
-4.3566992e-06
-2.4740062e-07
-4.359281e-06
-2.3397558e-07
-4.363117e-06
-2.2060608e-07
-4.368203e-06
-2.0728515e-07
-4.3745349e-06
-1.940076e-07
-4.3821094e-06
-1.8076989e-07
-4.3909239e-06
-1.6757029e-07
-4.4009773e-06
-1.5440891e-07
-4.4122701e-06
-1.4128746e-07
-4.4248052e-06
-1.2820915e-07
-4.4385884e-06
-1.1517806e-07
-4.4536291e-06
-1.021987e-07
-4.4699409e-06
-8.9275037e-08
-4.4875424e-06
-7.6409322e-08
-4.5064576e-06
-6.3600764e-08
-4.5267161e-06
-5.0844003e-08
-4.5483525e-06
-3.8127472e-08
-4.5714032e-06
-2.5432661e-08
-4.5958961e-06
-1.2733781e-08
-4.6218228e-06
-4.6491355e-06
-1.7255893e-06
-7.2790699e-06
-1.6629722e-06
-7.1438625e-06
-1.603431e-06
-7.0142173e-06
-1.546768e-06
-6.8898634e-06
-1.4928006e-06
-6.7705473e-06
-1.4413595e-06
-6.6560318e-06
-1.3922874e-06
-6.5460946e-06
-1.3454386e-06
-6.4405277e-06
-1.3006775e-06
-6.3391356e-06
-1.2578781e-06
-6.2417353e-06
-1.2169229e-06
-6.1481547e-06
-1.1777026e-06
-6.0582325e-06
-1.140115e-06
-5.9718167e-06
-1.1040649e-06
-5.8887649e-06
-1.0694632e-06
-5.8089427e-06
-1.0362268e-06
-5.7322241e-06
-1.0042778e-06
-5.6584903e-06
-9.7354312e-07
-5.5876293e-06
-9.4395444e-07
-5.519536e-06
-9.1544764e-07
-5.4541111e-06
-8.879625e-07
-5.3912614e-06
-8.6144245e-07
-5.3308987e-06
-8.3583434e-07
-5.2729401e-06
-8.1108819e-07
-5.2173074e-06
-7.8715689e-07
-5.1639271e-06
-7.6399609e-07
-5.1127297e-06
-7.4156399e-07
-5.0636498e-06
-7.1982116e-07
-5.0166257e-06
-6.9873036e-07
-4.9715995e-06
-6.7825639e-07
-4.9285165e-06
-6.5836604e-07
-4.8873251e-06
-6.3902785e-07
-4.8479769e-06
-6.2021206e-07
-4.8104263e-06
-6.0189042e-07
-4.7746304e-06
-5.8403627e-07
-4.740549e-06
-5.6662419e-07
-4.7081443e-06
-5.4963014e-07
-4.6773807e-06
-5.3303119e-07
-4.6482249e-06
-5.1680563e-07
-4.6206458e-06
-5.0093276e-07
-4.5946143e-06
-4.8539285e-07
-4.5701031e-06
-4.7016702e-07
-4.5470869e-06
-4.5523749e-07
-4.5255422e-06
-4.405869e-07
-4.5054469e-06
-4.2619895e-07
-4.4867808e-06
-4.1205793e-07
-4.4695253e-06
-3.9814867e-07
-4.453663e-06
-3.8445672e-07
-4.4391781e-06
-3.7096806e-07
-4.4260565e-06
-3.5766918e-07
-4.4142849e-06
-3.4454686e-07
-4.4038519e-06
-3.3158828e-07
-4.3947468e-06
-3.1878076e-07
-4.3869606e-06
-3.0611182e-07
-4.380485e-06
-2.9356905e-07
-4.3753128e-06
-2.8114009e-07
-4.3714375e-06
-2.6881276e-07
-4.3688533e-06
-2.5657509e-07
-4.3675546e-06
-2.4441548e-07
-4.3675359e-06
-2.3232293e-07
-4.3687917e-06
-2.2028725e-07
-4.3713167e-06
-2.0829941e-07
-4.3751049e-06
-1.9635178e-07
-4.3801507e-06
-1.8443837e-07
-4.3864484e-06
-1.7255511e-07
-4.3939927e-06
-1.6070005e-07
-4.402779e-06
-1.4887348e-07
-4.4128038e-06
-1.3707802e-07
-4.4240655e-06
-1.2531853e-07
-4.4365647e-06
-1.1360189e-07
-4.4503051e-06
-1.0193666e-07
-4.4652944e-06
-9.0332262e-08
-4.4815453e-06
-7.8798048e-08
-4.4990766e-06
-6.7341966e-08
-4.5179137e-06
-5.5968425e-08
-4.5380896e-06
-4.4676518e-08
-4.5596444e-06
-3.3457412e-08
-4.5826224e-06
-2.2292448e-08
-4.607061e-06
-1.1152563e-08
-4.6329627e-06
-4.6602881e-06
-1.5009453e-06
-7.3362585e-06
-1.4466154e-06
-7.1981924e-06
-1.3949581e-06
-7.0658746e-06
-1.3458014e-06
-6.9390201e-06
-1.2989861e-06
-6.8173626e-06
-1.2543647e-06
-6.7006531e-06
-1.2118006e-06
-6.5886588e-06
-1.1711665e-06
-6.4811617e-06
-1.1323447e-06
-6.3779575e-06
-1.0952252e-06
-6.2788548e-06
-1.0597059e-06
-6.183674e-06
-1.0256916e-06
-6.0922468e-06
-9.9309334e-07
-6.0044149e-06
-9.6182838e-07
-5.9200298e-06
-9.3181919e-07
-5.8389519e-06
-9.0299331e-07
-5.76105e-06
-8.7528302e-07
-5.6862005e-06
-8.4862482e-07
-5.6142875e-06
-8.2295925e-07
-5.5452015e-06
-7.982305e-07
-5.4788399e-06
-7.7438626e-07
-5.4151056e-06
-7.5137735e-07
-5.3539076e-06
-7.2915751e-07
-5.2951599e-06
-7.0768333e-07
-5.2387816e-06
-6.8691379e-07
-5.1846966e-06
-6.6681046e-07
-5.132833e-06
-6.4733694e-07
-5.0831233e-06
-6.2845898e-07
-5.0355037e-06
-6.101442e-07
-4.9899143e-06
-5.9236206e-07
-4.9462986e-06
-5.750837e-07
-4.9046034e-06
-5.582818e-07
-4.8647788e-06
-5.4193052e-07
-4.8267776e-06
-5.2600533e-07
-4.7905556e-06
-5.1048307e-07
-4.7560713e-06
-4.9534165e-07
-4.7232857e-06
-4.8056028e-07
-4.6921621e-06
-4.6611902e-07
-4.6626661e-06
-4.5199904e-07
-4.6347658e-06
-4.3818236e-07
-4.608431e-06
-4.2465188e-07
-4.5836336e-06
-4.1139131e-07
-4.5603475e-06
-3.9838504e-07
-4.5385484e-06
-3.856182e-07
-4.5182137e-06
-3.7307661e-07
-4.4993225e-06
-3.6074654e-07
-4.4818553e-06
-3.4861498e-07
-4.4657945e-06
-3.3666938e-07
-4.4511238e-06
-3.2489755e-07
-4.4378283e-06
-3.1328776e-07
-4.4258947e-06
-3.0182859e-07
-4.415311e-06
-2.9050874e-07
-4.4060667e-06
-2.7931706e-07
-4.3981523e-06
-2.6824232e-07
-4.3915597e-06
-2.5727327e-07
-4.3862818e-06
-2.4639846e-07
-4.3823123e-06
-2.356064e-07
-4.3796454e-06
-2.2488554e-07
-4.3782754e-06
-2.1422465e-07
-4.3781968e-06
-2.0361288e-07
-4.3794035e-06
-1.930403e-07
-4.3818892e-06
-1.8249811e-07
-4.3856471e-06
-1.719791e-07
-4.3906697e-06
-1.6147795e-07
-4.3969495e-06
-1.5099166e-07
-4.404479e-06
-1.4051968e-07
-4.413251e-06
-1.3006432e-07
-4.4232592e-06
-1.1963077e-07
-4.4344991e-06
-1.0922726e-07
-4.4469682e-06
-9.8864915e-08
-4.4606674e-06
-8.8557323e-08
-4.4756019e-06
-7.831996e-08
-4.4917827e-06
-6.8169016e-08
-4.5092275e-06
-5.8119787e-08
-4.5279629e-06
-4.8184189e-08
-4.5480252e-06
-3.8367881e-08
-4.5694607e-06
-2.8666469e-08
-4.5923238e-06
-1.9062549e-08
-4.616665e-06
-9.5234359e-09
-4.6425018e-06
-4.6698116e-06
-1.2727367e-06
-7.3844808e-06
-1.2269233e-06
-7.2440058e-06
-1.183362e-06
-7.1094359e-06
-1.1419078e-06
-6.9804743e-06
-1.1024265e-06
-6.8568439e-06
-1.0647936e-06
-6.7382859e-06
-1.0288939e-06
-6.6245586e-06
-9.9462007e-07
-6.5154355e-06
-9.6187266e-07
-6.4107049e-06
-9.3055902e-07
-6.3101684e-06
-9.005929e-07
-6.2136401e-06
-8.7189399e-07
-6.1209457e-06
-8.4438727e-07
-6.0319216e-06
-8.1800277e-07
-5.9464143e-06
-7.9267511e-07
-5.8642796e-06
-7.6834312e-07
-5.785382e-06
-7.4494963e-07
-5.7095941e-06
-7.2244102e-07
-5.6367961e-06
-7.0076708e-07
-5.5668755e-06
-6.7988072e-07
-5.4997262e-06
-6.5973777e-07
-5.4352486e-06
-6.4029666e-07
-5.3733487e-06
-6.2151844e-07
-5.3139381e-06