/*--------------------------------*- C++ -*----------------------------------*\
| =========                 |                                                 |
| \\      /  F ield         | OpenFOAM: The Open Source CFD Toolbox           |
|  \\    /   O peration     | Version:  2106                                  |
|   \\  /    A nd           | Website:  www.openfoam.com                      |
|    \\/     M anipulation  |                                                 |
\*---------------------------------------------------------------------------*/
FoamFile
{
    version     2.0;
    format      ascii;
    arch        "LSB;label=32;scalar=64";
    class       volScalarField;
    location    "0.19";
    object      p;
}
// * * * * * * * * * * * * * * * * * * * * * * * * * * * * * * * * * * * * * //

dimensions      [1 -1 -2 0 0 0 0];

internalField   nonuniform List<scalar> 
32768
(
267.74677
267.78515
267.80096
267.7966
267.75991
267.68848
267.58184
267.43982
267.2629
267.0517
266.80668
266.52821
266.21676
265.87277
265.49686
265.08934
264.65101
264.18158
263.68185
263.15255
262.59009
262.00612
261.3758
260.74268
260.04804
259.3468
258.61878
257.8283
257.05312
256.22586
255.34639
254.48232
253.56995
252.59952
251.636
250.64258
249.59137
248.5254
247.43432
246.31381
245.16527
243.9747
242.76022
241.54163
240.283
238.98276
237.67393
236.34381
234.97886
233.61371
232.21955
230.7793
229.3474
227.90382
226.43821
224.95321
223.45247
221.9461
220.42405
218.89741
217.36158
215.81873
214.26981
212.71343
211.14669
209.57355
208.01973
206.4554
204.87428
203.3147
201.74814
200.16348
198.60164
197.04798
195.47253
193.9088
192.37136
190.8086
189.24173
187.7233
186.18326
184.60669
183.09128
181.58441
180.02862
178.52271
177.04366
175.5056
173.98965
172.54243
171.05023
169.52045
168.06333
166.62316
165.13747
163.6826
162.26488
160.80926
159.34711
157.94272
156.54136
155.10341
153.68521
152.30211
150.91227
149.50213
148.13047
146.79669
145.41696
144.02182
142.70361
141.39733
140.02579
138.6813
137.4098
136.10615
134.77075
133.49399
132.26935
131.00799
129.71103
128.46481
127.27261
126.04931
124.78612
123.57925
122.43465
121.23601
119.99978
118.84682
117.73775
116.57127
115.39666
114.2983
113.21555
112.08547
110.96089
109.89316
108.84624
107.78485
106.72395
105.68574
104.6654
103.65479
102.63615
101.61749
100.64031
99.688636
98.725512
97.76476
96.826562
95.901663
94.977646
94.070273
93.173497
92.28135
91.410079
90.547208
89.683756
88.827679
87.991932
87.183041
86.373374
85.559745
84.754853
83.968901
83.218882
82.464698
81.692834
80.955382
80.245887
79.529335
78.818141
78.12047
77.427176
76.732687
76.037145
75.356503
74.687299
74.030965
73.396351
72.767071
72.162218
71.591001
71.038821
70.459958
69.901182
69.391172
68.853813
68.312447
67.790536
67.287077
66.823393
66.385532
65.93358
65.527535
65.213966
64.846557
64.46163
64.175439
63.883536
63.540161
63.155711
62.722646
62.260049
61.812776
61.46938
61.185291
60.83933
60.512939
60.192859
59.92931
59.8028
59.866298
60.008817
60.125093
60.241354
60.369623
60.512799
60.697554
60.928111
61.080299
61.099488
61.045924
61.35442
61.77308
62.133233
62.568327
63.174517
63.973679
65.031914
66.483669
68.566023
71.301266
75.021743
80.007823
86.562832
94.960033
105.28722
118.4135
136.49396
158.80273
188.80344
224.44127
270.08223
323.49253
386.50971
455.10035
526.70186
597.41119
659.21666
707.56216
737.71157
751.72487
762.16093
777.72637
258.98362
259.01982
259.03625
259.03338
258.99614
258.92454
258.81783
258.67598
258.49919
258.28786
258.04244
257.76342
257.45135
257.10678
256.73041
256.32221
255.88333
255.41299
254.91294
254.3827
253.82043
253.2345
252.60649
251.96897
251.27719
250.57654
249.84245
249.05917
248.2808
247.44452
246.5794
245.70998
244.78419
243.83137
242.86588
241.85491
240.81557
239.75551
238.65086
237.53241
236.38641
235.19202
233.98141
232.75979
231.49092
230.19676
228.89477
227.55365
226.1857
224.82422
223.42534
221.98736
220.55796
219.10686
217.63968
216.15238
214.65552
213.15349
211.61963
210.09191
208.5658
207.01736
205.45994
203.90989
202.34698
200.77256
199.21209
197.64163
196.07662
194.51673
192.92853
191.35664
189.81066
188.23765
186.65591
185.11554
183.57316
181.99143
180.44287
178.92838
177.36122
175.80503
174.31129
172.76672
171.20992
169.74043
168.24074
166.68691
165.20195
163.74668
162.22887
160.72744
159.28471
157.8097
156.3246
154.89878
153.4678
151.99759
150.55838
149.15719
147.72879
146.29852
144.90649
143.51269
142.1012
140.7052
139.35181
137.99458
136.59887
135.23841
133.93104
132.58331
131.20751
129.90459
128.62618
127.29099
125.96547
124.71277
123.477
122.19404
120.90712
119.68903
118.49159
117.23831
115.97864
114.80521
113.65381
112.4201
111.19755
110.07435
108.94273
107.75166
106.60293
105.52837
104.42972
103.28494
102.17831
101.11963
100.05317
98.973763
97.91691
96.89258
95.881774
94.864901
93.832825
92.820579
91.859202
90.902933
89.922385
88.958495
88.034693
87.121502
86.187868
85.265763
84.375558
83.493781
82.616383
81.753487
80.901701
80.046115
79.199817
78.382561
77.580975
76.778012
75.968768
75.17847
74.42277
73.669502
72.909676
72.164314
71.444043
70.7361
70.028639
69.330009
68.636699
67.945693
67.25159
66.567676
65.897454
65.244496
64.612401
63.986091
63.37726
62.792938
62.235435
61.676888
61.116502
60.5744
60.034583
59.494298
58.972943
58.486393
58.030422
57.586445
57.16879
56.80211
56.452537
56.071347
55.696171
55.361471
55.007079
54.621436
54.251419
53.874315
53.473776
53.103579
52.782439
52.448205
52.111308
51.783262
51.553994
51.334695
51.19832
51.236965
51.323897
51.418768
51.53898
51.663068
51.797879
51.957232
52.117722
52.2496
52.390789
52.403717
52.440343
52.741958
53.119905
53.511695
54.022822
54.754203
55.676973
56.992985
58.782831
61.253337
64.530452
68.914675
74.994118
82.815967
92.484631
104.75022
120.65102
141.56445
168.66117
203.21316
245.30362
297.15994
358.04318
424.96036
497.06684
567.22396
632.80996
685.5376
724.3617
748.16164
758.78151
778.71063
250.1874
250.22357
250.24025
250.23736
250.19974
250.12768
250.02049
249.8781
249.70085
249.48923
249.24373
248.96486
248.65317
248.30897
247.93297
247.52485
247.0865
246.61569
246.11692
245.58484
245.02552
244.43593
243.81236
243.1696
242.4818
241.78054
241.04154
240.26693
239.48083
238.64436
237.78853
236.90746
235.9824
235.03997
234.06137
233.05045
232.02172
230.94774
229.8434
228.73652
227.57252
226.37775
225.18054
223.9472
222.66723
221.38538
220.08008
218.72396
217.36885
216.00532
214.58656
213.15771
211.73397
210.27414
208.80238
207.31078
205.82269
204.31085
202.76852
201.25859
199.72826
198.16056
196.61042
195.06661
193.49406
191.92507
190.35892
188.79121
187.24034
185.65228
184.06058
182.52398
180.96438
179.36695
177.80987
176.28532
174.71118
173.12549
171.61342
170.07605
168.48555
166.97829
165.47636
163.88713
162.37613
160.92083
159.36445
157.82754
156.3838
154.89204
153.36079
151.90699
150.45204
148.94064
147.48988
146.08181
144.60881
143.13533
141.73411
140.32115
138.86642
137.46283
136.0922
134.67118
133.24099
131.87864
130.54652
129.13821
127.72779
126.43494
125.12004
123.70218
122.36195
121.12023
119.78553
118.4142
117.14751
115.91381
114.62744
113.33019
112.09084
110.88706
109.64722
108.37136
107.15439
106.01082
104.80769
103.54925
102.39162
101.2814
100.08227
98.882681
97.792122
96.720888
95.582052
94.446735
93.369231
92.305825
91.228537
90.148395
89.085913
88.058641
87.056054
86.036285
84.997588
83.998295
83.045856
82.090996
81.125048
80.155758
79.200467
78.286226
77.367934
76.428255
75.532183
74.674604
73.79382
72.916976
72.076353
71.246072
70.408857
69.569644
68.743415
67.937518
67.15508
66.390736
65.602774
64.82283
64.097989
63.3641
62.611886
61.884843
61.193934
60.511781
59.811855
59.119094
58.449346
57.76981
57.081059
56.428734
55.80071
55.178907
54.572285
53.96985
53.384369
52.813779
52.257255
51.718547
51.200908
50.685027
50.158849
49.67073
49.216577
48.772756
48.363607
47.977596
47.587847
47.20245
46.838164
46.5013
46.172725
45.835352
45.485982
45.091483
44.666745
44.281248
43.935653
43.595681
43.288049
43.018201
42.790328
42.629
42.570632
42.614213
42.674396
42.751323
42.872895
42.999348
43.125833
43.295755
43.436181
43.510412
43.676052
43.812446
43.617392
43.776909
44.0918
44.35421
44.687864
45.170918
45.871974
46.988416
48.483913
50.463599
53.075459
56.699788
61.608824
67.777967
75.762822
86.453607
99.651735
117.39779
140.32236
169.72478
206.62554
252.95306
307.88453
371.79354
443.78963
517.74913
590.02706
653.23306
706.97993
744.70876
771.46742
790.94823
241.3603
241.39615
241.41276
241.40973
241.37167
241.29897
241.19106
241.04787
240.86977
240.65723
240.41075
240.1308
239.81791
239.47247
239.0952
238.68595
238.24635
237.77452
237.27464
236.74124
236.18204
235.58926
234.96864
234.32068
233.63579
232.93299
232.18893
231.42127
230.6287
229.79029
228.94093
228.05186
227.12491
226.18747
225.20399
224.18865
223.16128
222.08461
220.97961
219.86926
218.69699
217.50643
216.30989
215.06617
213.77986
212.50416
211.19218
209.82838
208.48103
207.10238
205.67551
204.25985
202.82744
201.36125
199.88764
198.38739
196.90568
195.38608
193.84137
192.33892
190.79623
189.22125
187.67857
186.13237
184.55939
182.9919
181.414
179.85666
178.30641
176.69575
175.11975
173.59769
172.02059
170.41901
168.87736
167.35297
165.76008
164.18513
162.69124
161.12677
159.5398
158.06759
156.53778
154.93339
153.46483
151.99661
150.40569
148.89579
147.47354
145.95371
144.42027
142.99332
141.52814
140.00616
138.5743
137.16463
135.67204
134.21001
132.82681
131.39158
129.9353
128.56448
127.18229
125.74081
124.32919
122.97933
121.62745
120.2019
118.81467
117.54134
116.19905
114.76529
113.46399
112.22881
110.86067
109.49782
108.25956
107.02179
105.70929
104.4071
103.19192
102.00247
100.73928
99.440771
98.258424
97.136664
95.881182
94.608986
93.506943
92.399558
91.162515
89.982488
88.921754
87.817178
86.64689
85.542149
84.491895
83.410121
82.320459
81.266582
80.225363
79.18342
78.165348
77.139018
76.100215
75.117849
74.163211
73.173124
72.205959
71.288854
70.354874
69.398471
68.46065
67.553697
66.657322
65.765458
64.894008
64.039117
63.18721
62.342522
61.517638
60.710582
59.890069
59.047378
58.243864
57.501671
56.747748
55.962849
55.205155
54.488063
53.769768
53.019521
52.300503
51.605046
50.908352
50.239007
49.570658
48.890704
48.240526
47.597583
46.925119
46.267923
45.663779
45.094305
44.510663
43.923533
43.36549
42.830167
42.315
41.796098
41.281989
40.813155
40.345415
39.885184
39.49395
39.120876
38.720951
38.338854
37.989021
37.647235
37.296818
36.944665
36.591766
36.199028
35.787424
35.428891
35.092529
34.766977
34.497774
34.259855
34.037615
33.879174
33.805719
33.81523
33.889316
33.999464
34.141991
34.293264
34.397754
34.517865
34.644883
34.678288
34.805391
34.913092
34.827237
34.722748
34.871308
35.024247
35.278902
35.586892
35.952669
36.540957
37.41705
38.66623
40.534279
43.169368
46.708894
51.289528
56.912043
63.560383
73.190673
86.140963
102.57393
125.18055
154.30909
192.28129
240.03545
298.96843
368.13771
443.71982
524.12569
601.40575
670.39665
724.14749
764.68426
793.67918
232.50199
232.53764
232.55402
232.55051
232.51179
232.43823
232.32931
232.18504
232.00578
231.79201
231.54427
231.26306
230.94893
230.60228
230.22386
229.81357
229.37297
228.90023
228.39958
227.86517
227.30572
226.71148
226.09138
225.44163
224.75687
224.05372
223.30656
222.54261
221.74538
220.90624
220.06111
219.1629
218.23903
217.30262
216.31277
215.29594
214.26968
213.18768
212.08115
210.96684
209.79061
208.59906
207.40002
206.14663
204.85827
203.58354
202.26055
200.89548
199.54878
198.1518
196.73009
195.31804
193.86675
192.4042
190.92741
189.41616
187.93688
186.41357
184.8698
183.36172
181.80734
180.2367
178.69529
177.14244
175.5759
174.00308
172.41637
170.86798
169.30717
167.69917
166.13509
164.59772
163.02446
161.43334
159.88098
158.358
156.76779
155.1945
153.70736
152.13451
150.54906
149.09347
147.55383
145.93851
144.48412
143.01822
141.41677
139.91663
138.50595
136.97348
135.4368
134.02202
132.55403
131.02472
129.60126
128.20176
126.69672
125.23578
123.8719
122.42788
120.96104
119.60251
118.22721
116.77424
115.36114
114.03997
112.67581
111.20873
109.86304
108.6259
107.2272
105.78931
104.54273
103.27284
101.87187
100.5612
99.33349
98.061874
96.755193
95.461413
94.231836
93.052064
91.801193
90.494261
89.323158
88.203402
86.916989
85.649057
84.575561
83.443562
82.180051
81.041802
80.020768
78.885452
77.683832
76.605523
75.576353
74.476665
73.368683
72.31163
71.282737
70.268924
69.255992
68.206758
67.168386
66.204963
65.24723
64.24414
63.250485
62.312115
61.420596
60.493052
59.518825
58.608853
57.756459
56.851557
55.947011
55.113595
54.27646
53.421896
52.583103
51.763088
50.954669
50.141378
49.345006
48.558328
47.776812
47.058076
46.330109
45.564421
44.830752
44.121322
43.423255
42.701203
41.958966
41.283993
40.638656
39.96564
39.305615
38.680451
38.057704
37.400492
36.741429
36.131164
35.551787
34.984555
34.434869
33.907172
33.394447
32.868554
32.355749
31.886395
31.437297
31.006166
30.598289
30.191365
29.793402
29.414045
29.047077
28.703785
28.383853
28.061488
27.702761
27.316487
26.958362
26.619332
26.238326
25.859102
25.565884
25.323736
25.103002
24.974782
24.958849
25.010495
25.116466
25.246722
25.424022
25.658083
25.722126
25.940081
26.115185
26.126709
26.153794
26.032503
25.808013
25.61471
25.498026
25.403503
25.476251
25.608403
25.637443
25.825531
26.180419
26.647078
27.304802
28.65373
30.574276
33.570954
37.786543
42.073278
46.157369
52.226111
62.040418
74.382869
90.269596
115.85825
158.10234
215.47209
282.52783
356.95555
437.55247
525.11894
611.72161
684.97848
743.98047
784.34386
223.61264
223.64807
223.66406
223.65985
223.62024
223.54558
223.43542
223.28979
223.10908
222.89381
222.64453
222.36178
222.04611
221.69797
221.31803
220.90637
220.46425
219.99036
219.48815
218.95281
218.39202
217.79662
217.176
216.5245
215.83941
215.1353
214.38582
213.62368
212.82199
211.98372
211.13824
210.23396
209.31452
208.37216
207.37993
206.36282
205.3325
204.24393
203.14218
202.01479
200.83753
199.64575
198.44051
197.17222
195.89033
194.61092
193.27116
191.91045
190.55807
189.14216
187.73184
186.31353
184.84172
183.38584
181.90116
180.38774
178.89926
177.37348
175.83637
174.31027
172.74847
171.1914
169.6426
168.07631
166.52202
164.94025
163.34885
161.80766
160.23279
158.63948
157.08125
155.51916
153.95256
152.37355
150.8171
149.28675
147.69906
146.14596
144.64959
143.05817
141.49617
140.04756
138.48438
136.88257
135.44645
133.95569
132.34652
130.88711
129.47899
127.90403
126.37618
124.99264
123.5118
121.96963
120.56438
119.16499
117.64729
116.20933
114.84357
113.38028
111.94042
110.5778
109.18134
107.74968
106.33366
105.00879
103.6594
102.1783
100.83218
99.619658
98.208073
96.769571
95.53978
94.241934
92.838776
91.557168
90.323869
89.044921
87.760038
86.459577
85.19855
84.027549
82.787144
81.485246
80.333229
79.204093
77.899992
76.649682
75.573501
74.411519
73.163495
72.044703
70.993857
69.856946
68.699176
67.621819
66.570411
65.490537
64.404135
63.322868
62.253961
61.242642
60.257602
59.220267
58.18667
57.229628
56.26936
55.274646
54.290223
53.305664
52.368828
51.474547
50.540927
49.601171
48.728772
47.879278
46.993435
46.123672
45.295801
44.476488
43.633697
42.776327
41.944242
41.141018
40.357704
39.581482
38.798904
38.032694
37.299375
36.609708
35.887052
35.113076
34.422009
33.768108
33.046582
32.324506
31.653274
31.00702
30.367112
29.707483
29.024294
28.387446
27.817041
27.182646
26.522117
25.937361
25.398775
24.90025
24.419255
23.925771
23.42104
22.913082
22.458154
22.036436
21.627546
21.244111
20.845024
20.44741
20.100251
19.780699
19.456301
19.124452
18.763708
18.374757
17.994363
17.649699
17.303866
16.946441
16.635007
16.382139
16.181891
16.052283
16.028395
16.101929
16.235584
16.39553
16.595104
16.864033
16.975072
17.114067
17.442003
17.55836
17.370137
17.219006
16.824464
16.491816
16.248136
15.964045
15.949195
15.934944
15.395237
14.662934
14.20866
13.859116
13.650618
13.810582
14.093567
14.946878
14.239487
11.103959
6.3104837
5.0739852
3.0787625
2.1741162
0.69531338
-1.1094563
-2.3238212
72.248417
146.24159
233.40418
330.8766
433.67897
533.33604
625.36635
696.03609
736.49499
214.69243
214.72764
214.7431
214.73796
214.69721
214.62121
214.50953
214.36225
214.17981
213.96274
213.71163
213.42703
213.10952
212.75959
212.37786
211.96453
211.52066
211.04537
210.54137
210.00501
209.44245
208.84617
208.22436
207.57128
206.88617
206.17983
205.42987
204.66756
203.86143
203.0262
202.17675
201.26893
200.35356
199.40243
198.40968
197.3907
196.35695
195.25979
194.16309
193.01879
191.84677
190.64851
189.43217
188.15463
186.88248
185.58518
184.23367
182.8783
181.51257
180.08576
178.68075
177.24952
175.76254
174.30817
172.81868
171.30844
169.79726
168.27257
166.74274
165.1942
163.63536
162.08786
160.52568
158.95141
157.39734
155.8093
154.23172
152.67655
151.09264
149.53301
147.95363
146.37116
144.83179
143.24581
141.68369
140.1673
138.56901
137.02545
135.53959
133.92055
132.37087
130.94726
129.36094
127.76126
126.35201
124.84196
123.22188
121.79028
120.38183
118.78948
117.26286
115.89918
114.42148
112.85664
111.46961
110.0788
108.53923
107.12482
105.7692
104.28021
102.84961
101.49793
100.09474
98.672793
97.270162
95.934838
94.562181
93.101815
91.782967
90.534856
89.108601
87.715757
86.480101
85.147422
83.774169
82.503548
81.238546
79.977107
78.722558
77.413394
76.153326
74.976943
73.702515
72.408236
71.2881
70.140595
68.828453
67.627496
66.547807
65.328452
64.106575
63.043106
61.930725
60.734495
59.658476
58.623785
57.490171
56.407082
55.416009
54.349129
53.219929
52.186729
51.216364
50.167421
49.122927
48.181459
47.235037
46.237838
45.270945
44.337938
43.375129
42.402761
41.501212
40.61044
39.66625
38.769912
37.960121
37.119143
36.238096
35.431539
34.659094
33.811527
32.944477
32.13418
31.357107
30.554117
29.773164
29.049764
28.27263
27.52037
26.831664
26.103424
25.376739
24.701142
24.036989
23.367576
22.708258
22.026394
21.361836
20.750993
20.086066
19.377576
18.76689
18.18093
17.541448
16.932045
16.34615
15.787122
15.313096
14.850214
14.373678
13.909876
13.480105
13.053444
12.64291
12.271869
11.877705
11.490699
11.149769
10.846982
10.534377
10.20143
9.8637504
9.5048762
9.0904893
8.6309468
8.2059301
7.8454931
7.5530558
7.3077758
7.1358584
7.0336869
7.0491916
7.1771032
7.3565212
7.6131325
7.9310104
8.1964447
8.4065756
8.6646067
8.9920668
9.0521452
8.83937
8.288421
7.5359858
6.947265
6.3733815
5.5456835
5.8366286
5.9789612
5.1238865
4.1305044
3.0546797
2.2870953
1.7228489
1.2596504
1.3396753
1.8516415
1.6517231
0.57101007
-0.0056385347
-0.25386319
-0.2983897
-0.29404119
-0.26305339
-0.2154637
-0.12052825
-0.98707322
-2.2787404
38.477881
172.96115
311.44866
434.97185
542.96654
614.79517
651.971
205.74157
205.77651
205.79133
205.78504
205.74293
205.66531
205.55184
205.40263
205.21815
204.99898
204.74572
204.45895
204.13929
203.78724
203.40341
202.98812
202.54222
202.06523
201.55922
201.02153
200.45706
199.85956
199.2365
198.58154
197.89651
197.18736
196.43789
195.67327
194.86452
194.03198
193.17594
192.26801
191.35409
190.392
189.40228
188.37927
187.33944
186.2361
185.14043
183.98191
182.81139
181.60346
180.37702
179.09433
177.82682
176.50134
175.15281
173.79428
172.40625
170.98473
169.56715
168.12434
166.63519
165.16749
163.67573
162.16733
160.63117
159.11249
157.5821
156.00913
154.4692
152.91491
151.33209
149.77237
148.20511
146.6102
145.05707
143.47599
141.87479
140.35449
138.76443
137.15575
135.63669
134.06111
132.48547
130.96747
129.38442
127.83512
126.34114
124.73709
123.19459
121.75258
120.17114
118.60348
117.18266
115.6376
114.04964
112.64302
111.18304
109.60449
108.12403
106.739
105.25234
103.70231
102.3043
100.90263
99.393463
97.982562
96.600105
95.147401
93.725958
92.326794
90.942815
89.535713
88.132274
86.8213
85.419097
83.951496
82.679944
81.392258
79.937316
78.611516
77.359429
75.993233
74.677312
73.401174
72.071474
70.835952
69.60902
68.263431
67.046663
65.910069
64.573012
63.261552
62.171234
61.003703
59.686433
58.524689
57.449528
56.218206
55.020477
53.967713
52.831332
51.606157
50.523601
49.523842
48.400449
47.264636
46.271708
45.290126
44.189013
43.099132
42.121178
41.099956
40.024365
39.047911
38.118608
37.136637
36.135336
35.205519
34.319249
33.372989
32.419405
31.525725
30.637692
29.70071
28.806607
27.998111
27.176808
26.305307
25.482896
24.688081
23.899315
23.102579
22.266272
21.514441
20.783803
19.973255
19.203555
18.525453
17.750331
16.984324
16.354347
15.638662
14.854282
14.171036
13.563648
12.963533
12.358056
11.67146
10.971065
10.35651
9.765717
9.0565533
8.3394021
7.7454423
7.215365
6.7022695
6.1264203
5.6688776
5.1802926
4.6101243
4.2402473
3.9468292
3.762875
3.5775207
3.3852147
3.2045027
3.0594247
2.9616784
2.8608132
2.7073333
2.5211579
2.325675
2.0999191
1.8484374
1.6273282
1.4657905
1.3437433
1.2367104
1.148634
1.1058447
1.1198624
1.195037
1.3033628
1.418924
1.5542619
1.7035006
1.8497102
2.0360219
2.2961994
2.457289
2.281147
1.7989208
1.3352253
1.0138312
0.7232477
0.44037473
0.23644178
0.058097586
-0.23645991
-0.32879011
-0.33770647
-0.34261963
-0.34725106
-0.33793819
-0.32529115
-0.30558488
-0.27870889
-0.26965962
-0.28304139
-0.28366961
-0.31403225
-0.35138743
-0.35483552
-0.33040755
-0.30675676
-0.31011929
-0.19346132
-0.12474055
-3.2790379
122.42653
304.5383
434.74586
516.43378
553.82062
196.76032
196.79494
196.80899
196.80135
196.75764
196.67814
196.56258
196.41113
196.22431
196.0027
195.74696
195.4577
195.13554
194.78106
194.39483
193.97726
193.52907
193.0501
192.54188
192.00262
191.43602
190.8372
190.21267
189.55567
188.87098
188.15834
187.41002
186.64222
185.83162
185.00083
184.13821
183.23087
182.31608
181.34435
180.35718
179.3295
178.27937
177.17774
176.07062
174.90868
173.72862
172.51591
171.27483
169.991
168.71929
167.37045
166.02307
164.65666
163.24605
161.83441
160.39145
158.94046
157.45917
155.9706
154.47271
152.95764
151.40912
149.89494
148.35256
146.76075
145.24318
143.67165
142.0694
140.53028
138.94421
137.35847
135.8094
134.2068
132.61093
131.0866
129.50161
127.90244
126.36742
124.78996
123.23955
121.70493
120.11616
118.59305
117.07716
115.48119
113.97736
112.49615
110.8947
109.38411
107.95612
106.37927
104.819
103.41653
101.93752
100.36217
98.89728
97.53135
96.024159
94.474099
93.1035
91.667855
90.170039
88.794977
87.375038
85.942839
84.554636
83.114732
81.739863
80.346471
78.916363
77.631567
76.237124
74.756058
73.509967
72.20041
70.713866
69.437641
68.189294
66.790322
65.516904
64.256431
62.882296
61.644455
60.43127
59.064526
57.86088
56.764251
55.434695
54.114873
52.999527
51.793792
50.496091
49.374677
48.266777
47.022223
45.896116
44.851454
43.655027
42.473821
41.419952
40.329322
39.211504
38.15881
37.109581
36.068821
35.060107
34.021708
32.994154
31.969836
30.93069
29.929673
28.965334
27.992403
26.994374
26.028464
25.086139
24.20013
23.362126
22.413474
21.476059
20.658763
19.803434
18.869366
18.009124
17.253953
16.392515
15.444663
14.628887
13.983097
13.167268
12.316068
11.66407
10.979965
10.110811
9.4115777
8.7973923
7.9347805
7.2104815
6.7080405
5.8572464
4.9901237
4.3992961
3.942034
3.6891607
3.3561885
2.9462881
2.6328773
2.4031333
2.0798275
1.6812438
1.3510213
1.0996694
0.87282367
0.6557685
0.45178413
0.25299285
0.062096986
-0.13726806
-0.18945557
-0.19665021
-0.19547652
-0.19860812
-0.20323124
-0.2081736
-0.21395554
-0.22115345
-0.22968637
-0.23891912
-0.24789676
-0.25567312
-0.2617855
-0.26605576
-0.26770159
-0.26777177
-0.26743823
-0.26732197
-0.26689652
-0.26769689
-0.27026187
-0.27391771
-0.27720861
-0.27899546
-0.27804351
-0.27612889
-0.2757883
-0.2786441
-0.28708205
-0.30137006
-0.32038135
-0.33928003
-0.34992383
-0.35176555
-0.34964741
-0.34360194
-0.32097679
-0.28111865
-0.27222037
-0.2906588
-0.30884463
-0.32141433
-0.3316336
-0.33215755
-0.32249866
-0.3023274
-0.28211327
-0.27078638
-0.30875515
-0.37472884
-0.41945478
-0.42225326
-0.40364755
-0.38297112
-0.35523723
-0.31247197
-0.1382112
0.29201314
-6.4224798
141.96328
310.58274
409.79852
449.77943
187.74893
187.78319
187.79635
187.78717
187.74161
187.65996
187.54201
187.38801
187.1985
186.97412
186.71555
186.42345
186.09847
185.74121
185.35227
184.9321
184.48136
184.0001
183.48949
182.94834
182.37953
181.77915
181.15293
180.49413
179.80906
179.09351
178.34622
177.57446
176.76397
175.93194
175.06367
174.15901
173.23808
172.26213
171.2728
170.2424
169.1774
168.08245
166.95669
165.79621
164.59933
163.38763
162.12395
160.84651
159.55053
158.20357
156.83931
155.4621
154.03832
152.62159
151.16221
149.7006
148.2218
146.71396
145.21094
143.68122
142.12986
140.61927
139.04749
137.45884
135.94824
134.34943
132.75095
131.22638
129.60808
128.03406
126.50088
124.86163
123.28143
121.77051
120.15455
118.57107
117.05764
115.44862
113.89614
112.39432
110.79108
109.25791
107.76482
106.18282
104.66257
103.17202
101.585
100.08884
98.637495
97.074131
95.563793
94.103302
92.615991
91.096779
89.587548
88.222793
86.757351
85.181234
83.825517
82.408067
80.883453
79.517113
78.115075
76.683305
75.288917
73.850612
72.488071
71.104643
69.667937
68.368907
66.992508
65.525941
64.256297
62.946756
61.483014
60.178295
58.921721
57.558493
56.279904
55.00137
53.668443
52.441759
51.171837
49.817826
48.639705
47.498453
46.200931
44.969766
43.815746
42.544755
41.273043
40.151363
39.016685
37.779686
36.670484
35.648167
34.437297
33.262893
32.269771
31.143165
29.954777
28.952121
27.971518
26.86792
25.778635
24.786532
23.844729
22.80495
21.714134
20.768296
19.843289
18.82738
17.841962
16.892857
15.859427
14.863206
14.102698
13.178821
12.218277
11.347077
10.57452
9.8263841
8.9064068
8.0133373
7.3673824
6.4487165
5.3134751
4.7441213
4.0347828
3.5977305
3.2408595
2.925973
2.5736634
2.220861
1.8938198
1.5617855
1.2398716
0.92310896
0.59355161
0.26954692
-0.054359603
-0.1170526
-0.13712255
-0.1548361
-0.18108176
-0.2101207
-0.23801904
-0.26402376
-0.28562092
-0.30216788
-0.31286915
-0.3119213
-0.29991245
-0.28073749
-0.25878824
-0.23884346
-0.22531105
-0.21355316
-0.20964472
-0.20804307
-0.20956478
-0.21351523
-0.21836847
-0.22410137
-0.23106293
-0.23951226
-0.24920072
-0.25891542
-0.26732262
-0.27351404
-0.27666264
-0.27710675
-0.2767237
-0.27647372
-0.2758629
-0.27580549
-0.27787411
-0.28213008
-0.28787108
-0.29385271
-0.29658559
-0.29428689
-0.28889911
-0.28500925
-0.28456526
-0.28878163
-0.29950444
-0.31669134
-0.33683301
-0.35155832
-0.35776366
-0.3619526
-0.35556819
-0.32400838
-0.29962306
-0.31096583
-0.3325601
-0.34541908
-0.34647362
-0.34150967
-0.33598461
-0.32817462
-0.31754415
-0.310934
-0.31647318
-0.33739518
-0.37042394
-0.39884297
-0.40970526
-0.40601011
-0.39432656
-0.37133983
-0.34354713
-0.17540648
-0.040176299
-0.3220543
31.906418
201.24309
297.3398
341.84071
178.70773
178.74156
178.7537
178.74278
178.69515
178.61106
178.49041
178.33352
178.14096
177.91345
177.6517
177.3564
177.02825
176.66787
176.27589
175.85282
175.39925
174.91541
174.4022
173.85894
173.28771
172.68572
172.05752
171.39706
170.71131
169.99298
169.24671
168.47129
167.66091
166.82685
165.95353
165.05216
164.12108
163.1471
162.14908
161.11728
160.03888
158.94701
157.80303
156.64311
155.428
154.21692
152.92952
151.65404
150.33162
148.97488
147.61539
146.21958
144.77237
143.35171
141.88772
140.40159
138.91909
137.39503
135.88911
134.33767
132.79227
131.27919
129.66909
128.10468
126.57602
124.9667
123.37231
121.83782
120.22793
118.62358
117.10759
115.47825
113.86913
112.38379
110.75657
109.15326
107.67349
106.06507
104.47627
102.99985
101.42801
99.8509
98.373873
96.845806
95.267207
93.765423
92.250148
90.721407
89.240614
87.723493
86.226419
84.729039
83.249487
81.754091
80.230607
78.86819
77.404133
75.825286
74.489265
73.082723
71.551947
70.171461
68.788975
67.376285
65.951544
64.53284
63.195968
61.784465
60.368382
59.059418
57.663189
56.265747
54.970483
53.59438
52.215843
50.907879
49.565411
48.265732
47.00051
45.662018
44.374358
43.193321
41.885321
40.519296
39.389646
38.188113
36.835194
35.724933
34.582829
33.249595
32.064
30.9395
29.70188
28.500105
27.43712
26.332497
25.097114
24.01831
23.05203
21.890212
20.729911
19.72569
18.716453
17.691175
16.57835
15.427568
14.529969
13.604547
12.469652
11.46632
10.648967
9.6883703
8.6077818
7.7331019
6.7280815
5.4299584
4.8720141
3.9649225
3.4346663
3.0064659
2.6546344
2.3073463
1.9265368
1.5513817
1.175479
0.76371395
0.37640533
-0.021925268
-0.11403589
-0.12096706
-0.11221589
-0.10896061
-0.10764926
-0.10607496
-0.10332283
-0.10007479
-0.099205746
-0.10044318
-0.10255721
-0.10794029
-0.11795769
-0.12532855
-0.14220176
-0.1653718
-0.19377308
-0.22411242
-0.25256276
-0.27980574
-0.30538537
-0.32319402
-0.3292392
-0.32517256
-0.31380676
-0.29483955
-0.27110746
-0.24907752
-0.2327164
-0.22062599
-0.2162275
-0.21697544
-0.22008433
-0.22453271
-0.22949102
-0.23499862
-0.24163386
-0.25022122
-0.26081952
-0.27175248
-0.28096323
-0.2874232
-0.28998497
-0.28961539
-0.28849805
-0.28760026
-0.28648818
-0.28582394
-0.2872148
-0.29077062
-0.29539657
-0.30001429
-0.30120049
-0.29822715
-0.29524508
-0.29479458
-0.29863641
-0.30674833
-0.31934175
-0.33505649
-0.34959437
-0.35898272
-0.36223816
-0.35985738
-0.35080812
-0.33186831
-0.31752838
-0.31624969
-0.32439643
-0.33471096
-0.34220582
-0.34419304
-0.342585
-0.33860106
-0.33438454
-0.33441376
-0.34341609
-0.36246973
-0.3841946
-0.40049046
-0.40686328
-0.40399124
-0.39274485
-0.36923213
-0.34320708
-0.24595079
-0.13666858
-0.17111378
-2.1923842
111.1299
189.4772
235.78315
169.63703
169.67039
169.68139
169.66853
169.61857
169.53176
169.40809
169.24793
169.05197
168.82095
168.55563
168.25677
167.92508
167.56124
167.16589
166.73958
166.28291
165.7962
165.28017
164.73454
164.16081
163.55702
162.9267
162.26482
161.57772
160.85764
160.11135
159.33297
158.52327
157.68593
156.80929
155.9098
154.96721
153.99808
152.98814
151.95477
150.86538
149.77219
148.61026
147.44804
146.21821
144.99682
143.69917
142.40401
141.07582
139.69696
138.33021
136.93098
135.44748
134.03224
132.55408
131.03808
129.56337
128.01502
126.49872
124.94133
123.38393
121.86176
120.23798
118.67837
117.13061
115.52462
113.92792
112.37205
110.78085
109.15935
107.62588
106.02868
104.41566
102.89687
101.27852
99.700793
98.204818
96.593967