/*--------------------------------*- C++ -*----------------------------------*\
| =========                 |                                                 |
| \\      /  F ield         | OpenFOAM: The Open Source CFD Toolbox           |
|  \\    /   O peration     | Version:  2106                                  |
|   \\  /    A nd           | Website:  www.openfoam.com                      |
|    \\/     M anipulation  |                                                 |
\*---------------------------------------------------------------------------*/
FoamFile
{
    version     2.0;
    format      ascii;
    arch        "LSB;label=32;scalar=64";
    class       volScalarField;
    location    "0.04";
    object      p_rgh;
}
// * * * * * * * * * * * * * * * * * * * * * * * * * * * * * * * * * * * * * //

dimensions      [1 -1 -2 0 0 0 0];

internalField   nonuniform List<scalar> 
32768
(
467.78822
467.73843
467.62312
467.44347
467.19982
466.89173
466.51871
466.08025
465.57578
465.00461
464.36597
463.65901
462.88276
462.03618
461.1181
460.12726
459.06231
457.92178
456.70407
455.40748
454.0302
452.57027
451.02562
449.39401
447.67308
445.86042
443.95341
441.94924
439.84497
437.63747
435.32344
432.89939
430.36167
427.70639
424.92948
422.02663
418.99331
415.82476
412.51596
409.0616
405.45614
401.69367
397.76815
393.67277
389.4015
384.94537
380.30085
375.45265
370.40509
365.13291
359.63746
353.92141
347.90412
341.73592
335.17755
328.38193
321.39421
313.88438
306.16025
298.25296
289.72669
280.82549
271.80546
262.31284
252.1674
241.60375
230.74012
219.51768
207.81083
195.43119
182.3803
168.81901
155.05404
141.39466
127.78868
113.68036
98.961301
84.179488
70.427707
58.056335
47.185066
37.605704
27.607439
17.710536
2.725922
0.44907944
0.39345816
0.36228584
0.32343317
0.29092068
0.26993576
0.25445354
0.24199105
0.23128442
0.22165548
0.21279219
0.20452747
0.19676367
0.18943786
0.18250543
0.17593204
0.16968967
0.16375444
0.15810547
0.15272412
0.14759363
0.14269874
0.13802551
0.13356114
0.12929387
0.1252128
0.12130785
0.11756968
0.11398958
0.11055946
0.10727175
0.10411947
0.10109576
0.098195161
0.095410757
0.092737269
0.090170395
0.087705114
0.085336633
0.083060532
0.080872703
0.078769367
0.076746897
0.074801993
0.072931102
0.071131383
0.0693999
0.067733751
0.066129157
0.064586149
0.063101091
0.061671013
0.060294383
0.058968606
0.057691148
0.056462014
0.055278579
0.054138466
0.053040071
0.051982088
0.050962886
0.049981359
0.049036008
0.048125381
0.047248148
0.046403099
0.045588945
0.044804763
0.04404939
0.043321744
0.042620816
0.04194564
0.041295288
0.040668876
0.040065553
0.039484573
0.03892528
0.038386094
0.037866941
0.037367204
0.036886025
0.036422877
0.035977309
0.035547856
0.035134483
0.034736719
0.03435398
0.033985612
0.033631184
0.033290186
0.032962145
0.032646612
0.032343146
0.032051318
0.031770714
0.031500935
0.031241593
0.030992318
0.030752749
0.030522542
0.030301368
0.030088913
0.029884913
0.029688938
0.029500756
0.029320122
0.029146767
0.028980416
0.028820808
0.028667701
0.028520862
0.028380067
0.028245103
0.028115767
0.027991848
0.02787314
0.027759449
0.027650591
0.027546405
0.027446646
0.027351198
0.027259925
0.027172675
0.027089292
0.027009628
0.026933541
0.026860894
0.026791553
0.026725388
0.026662321
0.026602209
0.026544982
0.026490505
0.026438674
0.02638939
0.026342456
0.026297874
0.026255625
0.026215571
0.026177622
0.026141701
0.02610773
0.026075641
0.026045379
0.026016885
0.025990094
0.025964939
0.025941376
0.025919342
0.02589879
0.025879681
0.025861972
0.025845618
0.025830556
0.025816758
0.025804194
0.025792836
0.025782674
0.025773649
0.025765727
0.025758891
0.025753129
0.025748422
0.025744736
0.025742066
0.025740402
0.025739732
0.025740051
0.025741542
0.025743473
0.025747585
467.81289
467.76338
467.64825
467.46897
467.22553
466.91761
466.54479
466.10657
465.60237
465.0315
464.3932
463.6866
462.91076
462.06461
461.147
460.15668
459.09227
457.95231
456.73521
455.43927
454.06267
452.60346
451.05958
449.42882
447.70884
445.89711
443.99098
441.98771
439.88432
437.67772
435.36459
432.94145
430.40462
427.75024
424.97421
422.07222
419.03974
415.87199
412.56393
409.11025
405.5054
401.74339
397.81835
393.72291
389.45229
384.9946
380.35189
375.49906
370.45585
365.177
359.68679
353.96385
347.94805
341.76524
335.2039
328.42981
321.38282
313.90345
306.20454
298.19453
289.67368
280.87302
271.77666
262.11889
252.00533
241.572
230.66444
219.22674
207.34375
194.95864
181.96661
168.50284
154.69938
140.69989
126.5835
112.23863
97.484368
82.899744
69.425653
57.239188
46.410749
36.941516
27.041514
9.2022399
0.080621272
0.23766769
0.30876133
0.30146406
0.28931254
0.27544164
0.26275861
0.25120363
0.24050584
0.23054406
0.22125477
0.21254992
0.20436225
0.19663826
0.18933486
0.18241645
0.17585291
0.16961816
0.16368927
0.15804583
0.15266945
0.14754347
0.14265272
0.13798331
0.13352247
0.12925844
0.12518036
0.12127818
0.11754256
0.11396481
0.11053685
0.10725114
0.10410064
0.1010786
0.09817905
0.095395555
0.092723991
0.090158878
0.087694863
0.085327436
0.083052287
0.080865339
0.078762837
0.076741105
0.07479688
0.072926149
0.071126969
0.069396581
0.067731437
0.066129392
0.064586034
0.063100583
0.061670939
0.060295079
0.058969567
0.057693484
0.056463765
0.055280084
0.054139619
0.053041218
0.051983414
0.050964213
0.049982961
0.049037938
0.048127517
0.047250411
0.046405425
0.045591206
0.044807171
0.044052073
0.043324623
0.042623823
0.041948749
0.041298482
0.040672129
0.040068803
0.039487677
0.038927918
0.038389284
0.037870474
0.037370844
0.036889788
0.03642656
0.035980465
0.035551399
0.03513829
0.034740698
0.034358166
0.033989768
0.033635269
0.033294248
0.032966212
0.032650689
0.032347236
0.032055422
0.031774833
0.031505067
0.03124574
0.030996477
0.030756922
0.030526731
0.030305581
0.030093163
0.029889181
0.029693169
0.029504972
0.029324341
0.029150989
0.028984637
0.028825026
0.028671915
0.028525073
0.02838428
0.028249318
0.028119985
0.027996069
0.027877365
0.027763679
0.027654829
0.027550638
0.027450862
0.027355403
0.027264127
0.027176872
0.027093484
0.027013812
0.026937715
0.026865053
0.026795691
0.026729508
0.026666444
0.026606341
0.026549128
0.02649465
0.026442788
0.026393449
0.026346593
0.026302098
0.026259811
0.02621972
0.026181756
0.026145823
0.02611184
0.026079744
0.026049479
0.026020982
0.025994186
0.025969027
0.025945457
0.02592342
0.02590287
0.025883764
0.025866056
0.025849694
0.025834626
0.025820827
0.025808273
0.025796931
0.02578675
0.025777704
0.025769771
0.025762936
0.025757176
0.02575246
0.02574877
0.025746102
0.025744444
0.025743774
0.0257441
0.025745573
0.025747609
0.025751724
467.87146
467.82175
467.70674
467.52765
467.28448
466.9769
466.60449
466.16674
465.66308
465.09282
464.45521
463.74937
462.97435
462.1291
461.21246
460.22318
459.15988
458.0211
456.80524
455.51062
454.13541
452.67766
451.1353
449.50613
447.78783
445.97789
444.07366
442.07233
439.97094
437.76636
435.4553
433.03425
430.49953
427.84726
425.07333
422.17341
419.14296
415.97717
412.67098
409.21906
405.61582
401.85522
397.93136
393.8368
389.56672
385.10914
380.46613
375.61221
370.56852
365.28559
359.79776
354.06271
348.05304
341.84925
335.28564
328.51595
321.42934
313.9646
306.24626
298.17014
289.6715
280.84139
271.64894
261.97502
251.84537
241.32624
230.33129
218.7876
206.77097
194.27186
181.20149
167.61554
153.60399
139.25909
124.66023
109.74381
94.603691
79.879579
66.439615
54.49254
44.535756
35.386871
15.012795
0.41089872
-0.22741675
0.10619616
0.2269456
0.26131631
0.27109181
0.26594268
0.25729605
0.24773348
0.23810557
0.22877564
0.21987023
0.21141358
0.20339611
0.19579591
0.18858733
0.18174468
0.17524376
0.16906214
0.1631792
0.15757605
0.15223539
0.14714132
0.14227925
0.13763575
0.13319843
0.12895581
0.12489729
0.12101302
0.11729383
0.11373121
0.1103172
0.1070444
0.10390579
0.10089517
0.098005901
0.095234632
0.092571974
0.090013645
0.087556554
0.085196163
0.082927523
0.080746778
0.078650245
0.076634363
0.074695493
0.072831163
0.071036669
0.069310227
0.06764855
0.066049662
0.064510047
0.063027928
0.061601187
0.060227215
0.058905086
0.057632284
0.056405671
0.055223748
0.054086435
0.052991104
0.051935813
0.050919183
0.049939865
0.048996487
0.048087775
0.047212453
0.046369262
0.0455572
0.044774505
0.044020439
0.043294174
0.042594635
0.041920801
0.041271737
0.040646549
0.04004436
0.039464352
0.038905603
0.038367859
0.037849997
0.037351277
0.036871017
0.036408639
0.035963356
0.035534894
0.035122334
0.034725366
0.034343241
0.033975748
0.033622128
0.033281796
0.032954377
0.032639438
0.032336537
0.032045248
0.03176516
0.031495875
0.031237009
0.030988188
0.030749054
0.03051926
0.030298466
0.030086339
0.029882575
0.02968704
0.029499298
0.029319042
0.029146019
0.028979976
0.028820659
0.028667833
0.028521266
0.028380741
0.028246031
0.028116948
0.027993261
0.027874769
0.027761273
0.027652577
0.027548515
0.027448995
0.027353787
0.027262719
0.027175648
0.027092432
0.027012927
0.026936993
0.026864502
0.026795336
0.026729372
0.026666421
0.02660644
0.026549285
0.026494872
0.026443091
0.026393839
0.02634705
0.026302625
0.026260467
0.026220502
0.026182637
0.026146789
0.026112887
0.026080873
0.026050689
0.026022276
0.025995567
0.025970481
0.025946956
0.025924953
0.025904446
0.025885384
0.025867708
0.025851375
0.025836354
0.025822606
0.025810096
0.025798787
0.025788631
0.025779611
0.025771708
0.025764901
0.025759155
0.025754446
0.025750774
0.025748128
0.025746481
0.025745813
0.025746135
0.025747555
0.025749591
0.025753585
467.96202
467.91233
467.79751
467.61873
467.37597
467.06889
466.69708
466.26005
465.7572
465.18787
464.55128
463.84658
463.0728
462.2289
461.31371
460.32598
459.26435
458.12733
456.91335
455.6207
454.24756
452.79198
451.25189
449.62508
447.9092
446.10177
444.20011
442.20142
440.10273
437.90091
435.59263
433.17439
430.64249
427.99302
425.22186
422.32466
419.29684
416.13356
412.82973
409.37996
405.77864
402.01966
398.09707
394.00331
389.73359
385.27556
380.63182
375.77549
370.73015
365.44205
359.95197
354.20804
348.19366
341.97524
335.39826
328.62181
321.50576
314.02418
306.29208
298.15868
289.62853
280.78125
271.51404
261.74629
251.55832
240.98036
229.89191
218.16554
205.88866
193.19934
180.04212
166.29937
151.91652
136.94332
121.53933
105.85377
90.113587
75.144925
62.138607
51.656477
41.004103
12.451026
0.7713712
0.4839866
0.17471153
0.18785203
0.22240215
0.25028461
0.25751242
0.25566639
0.24996625
0.24241672
0.23411666
0.22565845
0.2173368
0.20928771
0.20156793
0.19419459
0.18716542
0.18046914
0.17409052
0.16801297
0.1622199
0.15669524
0.15142376
0.14639114
0.14158399
0.13698984
0.13259706
0.12839481
0.12437301
0.12052224
0.11683372
0.11329923
0.10991111
0.10666215
0.10354567
0.10055522
0.097685119
0.094928858
0.092282237
0.089740617
0.08729843
0.084952367
0.082696319
0.080526888
0.078441099
0.076435428
0.074506174
0.072650843
0.070864761
0.069145179
0.067491235
0.06589918
0.064367026
0.062892073
0.061471878
0.060104231
0.05878742
0.05751918
0.056297537
0.055120725
0.053987745
0.052896628
0.051845508
0.050833588
0.049857554
0.04891716
0.048011576
0.047139361
0.04629915
0.045489987
0.044710021
0.043958611
0.043234899
0.042537797
0.041866292
0.04121946
0.040596417
0.039996323
0.039418353
0.03886175
0.038325604
0.037809321
0.037312182
0.036833471
0.036372739
0.03592937
0.035502335
0.035091411
0.034695485
0.03431439
0.033947949
0.033595506
0.033256211
0.032929781
0.032615842
0.032313926
0.032023592
0.031744426
0.031476029
0.031218018
0.030970022
0.030731684
0.030502661
0.030282623
0.030071257
0.029868245
0.029673319
0.029486158
0.02930649
0.029134046
0.028968565
0.02880979
0.028657493
0.028511434
0.028371385
0.028237131
0.028108511
0.027985285
0.027867229
0.027754154
0.027645882
0.027542231
0.027443053
0.027348167
0.027257425
0.027170675
0.027087769
0.027008562
0.026932911
0.026860681
0.026791746
0.026725995
0.026663319
0.026603609
0.026546712
0.026492552
0.026441027
0.026392023
0.026345397
0.02630111
0.026259138
0.02621935
0.026181646
0.02614595
0.026112198
0.02608033
0.026050285
0.026021993
0.025995383
0.025970402
0.025946995
0.025925126
0.02590474
0.025885784
0.025868205
0.025851958
0.025837009
0.025823329
0.025810882
0.025799625
0.025789531
0.02578057
0.025772728
0.025765972
0.025760267
0.025755597
0.025751956
0.025749329
0.025747691
0.025747043
0.025747393
0.025748815
0.02575091
0.025754923
468.0847
468.03506
467.92048
467.74208
467.49985
467.19344
466.82243
466.38635
465.88459
465.31648
464.68127
463.97808
463.20595
462.36385
461.4506
460.46495
459.40553
458.27088
457.0594
455.76938
454.399
452.94632
451.40925
449.78558
448.07295
446.26886
444.37065
442.37551
440.28044
438.08231
435.77776
433.36329
430.83516
428.18946
425.42202
422.52847
419.50419
416.3443
413.04368
409.59687
405.9982
402.2415
398.32072
394.22828
389.9591
385.50112
380.85606
375.99795
370.94916
365.65593
360.16214
354.40589
348.38848
342.14967
335.55925
328.76765
321.61999
314.11801
306.35465
298.16809
289.60116
280.70297
271.345
261.49992
251.24072
240.5311
229.26363
217.37106
204.89423
191.93994
178.49267
164.38412
149.4532
133.72431
117.34053
100.48705
83.530354
67.632418
54.878132
34.636932
5.9197659
0.39669542
0.40609086
0.37568257
0.26302821
0.23503901
0.23785401
0.24889839
0.25013343
0.24787245
0.24294679
0.23641255
0.22906843
0.22140851
0.21372382
0.20617804
0.19885814
0.19180657
0.18504042
0.1785626
0.17236816
0.16644799
0.16079093
0.15538496
0.15021792
0.14527785
0.14055322
0.13603305
0.13170689
0.12756489
0.12359779
0.11979684
0.11615384
0.11266107
0.10931127
0.10609759
0.1030137
0.10005326
0.09721112
0.094480451
0.091858013
0.089338951
0.086917769
0.084590303
0.082352626
0.080200923
0.078131484
0.076140807
0.074225726
0.072382466
0.070609246
0.068902199
0.067259811
0.065678402
0.064156323
0.06269088
0.061279625
0.059920371
0.058611362
0.057349821
0.056135868
0.054967099
0.053840749
0.052755464
0.051709964
0.050702853
0.049732541
0.048797742
0.047897211
0.047029644
0.046193797
0.045388376
0.044612708
0.043865509
0.043145631
0.042452115
0.041784031
0.041140474
0.040520566
0.039923507
0.039348485
0.038794968
0.038261341
0.037747424
0.037252765
0.036776769
0.036318105
0.0358766
0.035451403
0.035042095
0.034648334
0.034269466
0.033904781
0.033553814
0.033216206
0.032891446
0.032579066
0.032278629
0.031989712
0.031711908
0.031444822
0.031188073
0.030941292
0.030704126
0.030476232
0.030257281
0.030046959
0.02984496
0.029651
0.029464782
0.029286024
0.029114452
0.028949809
0.028791837
0.028640335
0.028495051
0.028355766
0.028222277
0.028094295
0.027971669
0.027854218
0.027741738
0.027634043
0.027530955
0.027432316
0.027337958
0.027247724
0.027161462
0.027079024
0.027000267
0.026925048
0.026853236
0.026784702
0.02671933
0.026657036
0.026597686
0.026541133
0.026487282
0.026436032
0.026387291
0.026340993
0.026297038
0.026255344
0.026215808
0.026178346
0.026142885
0.026109363
0.026077717
0.026047882
0.026019786
0.025993362
0.025968554
0.025945321
0.025923612
0.025903375
0.025884558
0.02586711
0.025850986
0.02583616
0.025822598
0.025810259
0.025799098
0.025789089
0.025780211
0.025772442
0.025765748
0.025760099
0.025755488
0.025751899
0.025749303
0.025747695
0.025747078
0.025747441
0.025748874
0.025750994
0.025754988
468.23954
468.19001
468.07571
467.89778
467.6562
467.35062
466.98062
466.54571
466.04531
465.47875
464.84525
464.14395
463.3739
462.53404
461.62322
460.64018
459.58355
458.45185
457.24349
455.95677
454.58987
453.14081
451.60753
449.9878
448.27925
446.47937
444.5855
442.59481
440.5043
438.3108
436.01097
433.60124
431.07789
428.43694
425.67421
422.7853
419.76553
416.60998
413.31347
409.87048
406.27526
402.52158
398.60325
394.5127
390.24447
385.78687
381.14054
376.28072
371.22764
365.92943
360.42892
354.66214
348.63577
342.37893
335.77089
328.9564
321.77968
314.24822
306.44153
298.20865
289.58583
280.61897
271.1763
261.23487
250.87093
240.01691
228.55771
216.44762
203.72788
190.4611
176.59604
161.96663
146.34881
129.65003
111.99685
93.279828
74.146353
56.967926
21.329241
0.58845566
0.14723273
0.21790126
0.31379246
0.30390974
0.26735834
0.24828662
0.2450735
0.2450076
0.24337849
0.24023862
0.23552432
0.22967738
0.22313082
0.21622466
0.20919884
0.20221041
0.19535674
0.18869522
0.18225711
0.1760573
0.17010052
0.16438527
0.15890634
0.1536564
0.14862696
0.14380899
0.1391933
0.1347708
0.1305326
0.12647016
0.12257525
0.11884005
0.11525711
0.11181936
0.10852008
0.10535294
0.1023119
0.099391329
0.096585623
0.093890503
0.091300337
0.088809792
0.086415791
0.084112451
0.081898617
0.079770282
0.077722409
0.0757517
0.073855286
0.072030033
0.070273487
0.068583123
0.066955292
0.065388149
0.063878717
0.062425037
0.061025278
0.059677189
0.058378819
0.057128109
0.055923456
0.0547631
0.053645121
0.052567971
0.051530229
0.050530127
0.04956705
0.048639291
0.047745295
0.046883876
0.046053921
0.045254244
0.044483929
0.043741792
0.043026781
0.042337941
0.041674344
0.041035085
0.040419295
0.039826154
0.039254833
0.038704603
0.038174622
0.037664238
0.03717276
0.036699454
0.036243838
0.035805163
0.035382973
0.034976561
0.034585357
0.034208836
0.0338464
0.033497533
0.033162212
0.032839665
0.032529338
0.032230848
0.031943799
0.031667791
0.031402434
0.03114735
0.030902175
0.030666555
0.030440152
0.03022264
0.030013705
0.029813044
0.02962037
0.029435392
0.02925783
0.029087408
0.028923864
0.02876694
0.028616482
0.028472217
0.028333904
0.028201345
0.028074253
0.027952481
0.027835855
0.027724173
0.027617249
0.027514907
0.027416986
0.02732332
0.027233753
0.027148133
0.027066315
0.026988158
0.026913509
0.02684225
0.026774263
0.026709422
0.02664759
0.026588664
0.02653257
0.026479172
0.02642835
0.026380018
0.02633411
0.026290531
0.026249189
0.02620999
0.026172852
0.026137705
0.026104487
0.026073133
0.026043573
0.026015739
0.025989568
0.025965003
0.02594199
0.025920487
0.025900447
0.025881817
0.025864543
0.025848587
0.02583392
0.02582051
0.02580831
0.025797275
0.025787382
0.025778615
0.025770945
0.025764333
0.025758764
0.025754225
0.025750693
0.025748145
0.025746588
0.02574601
0.025746401
0.025747856
0.025749988
0.025753976
468.42663
468.37722
468.26326
468.08589
467.84509
467.5405
467.1717
466.73821
466.23945
465.67473
465.04329
464.34427
463.57671
462.73956
461.83166
460.85175
459.79846
458.67032
457.46573
456.18299
454.82026
453.37558
451.84686
450.23187
448.52825
446.73347
444.84484
442.85954
440.77455
438.58668
436.29255
433.8886
431.37105
428.73591
425.97895
423.09572
420.08151
416.93133
413.63992
410.20172
406.61088
402.8611
398.94601
394.85808
390.59141
386.13475
381.48739
376.62629
371.56845
366.26536
360.75709
354.97881
348.94342
342.66546
336.04015
329.19737
321.98989
314.42429
306.57085
298.2826
289.60432
280.55565
271.01405
260.97316
250.48886
239.46998
227.78974
215.44407
202.47306
188.85029
174.45983
159.11659
142.65192
124.9347
105.67297
84.805608
61.107482
12.762629
0.40336263
0.30490637
0.25201895
0.24883153
0.26784791
0.26737169
0.25550527
0.24520716
0.24243754
0.23877049
0.23585285
0.23223789
0.22770982
0.22240305
0.21653422
0.21032009
0.20393981
0.19752711
0.19117568
0.184948
0.17888383
0.17300693
0.16733012
0.16185886
0.15659373
0.15153219
0.14666964
0.14200025
0.13751748
0.1332144
0.12908394
0.12511903
0.12131274
0.11765831
0.1141492
0.11077912
0.10754203
0.10443218
0.10144403
0.098572429
0.095812225
0.09315896
0.090607463
0.088153527
0.085793418
0.083523484
0.081339844
0.079238457
0.077216184
0.075269848
0.073396453
0.071593068
0.069856895
0.068185452
0.066575656
0.06502595
0.063532832
0.062094514
0.06070931
0.059375125
0.058089884
0.056852071
0.055659151
0.054509373
0.053401842
0.052334913
0.051306894
0.050315999
0.049361655
0.048442246
0.047556216
0.04670241
0.045879734
0.045087044
0.044323324
0.043587493
0.04287854
0.042195508
0.04153747
0.040903534
0.040292841
0.039704552
0.039137872
0.038591948
0.038066373
0.037560264
0.037072834
0.036603426
0.03615152
0.035716409
0.035297599
0.034894497
0.034506384
0.034132825
0.03377338
0.033427563
0.033094814
0.032774695
0.032466807
0.032170705
0.031885962
0.031612177
0.031348963
0.031095945
0.030852761
0.030619062
0.03039451
0.030178783
0.029971569
0.029772567
0.029581489
0.029398051
0.029221974
0.029052993
0.028890849
0.028735297
0.028586099
0.02844303
0.028305864
0.028174387
0.028048434
0.027927774
0.027812193
0.027701508
0.027595544
0.02749413
0.0273971
0.027304293
0.027215552
0.027130729
0.027049682
0.026972271
0.026898333
0.026827754
0.026760421
0.026696212
0.026634993
0.026576662
0.026521132
0.026468278
0.026417997
0.026370193
0.026324757
0.026281614
0.026240706
0.026201929
0.026165197
0.026130443
0.026097603
0.026066609
0.026037389
0.026009875
0.025984009
0.025959739
0.025937009
0.025915773
0.025895981
0.025877583
0.025860529
0.025844783
0.025830316
0.025817086
0.02580505
0.025794169
0.025784428
0.0257758
0.025768247
0.025761741
0.025756271
0.025751825
0.025748369
0.025745892
0.025744398
0.025743864
0.025744285
0.025745762
0.025747905
0.025751898
468.64603
468.59676
468.4832
468.30649
468.06658
467.76315
467.39576
466.96392
466.46706
465.9045
465.27547
464.57911
463.81447
462.98048
462.076
461.09976
460.05039
458.92642
457.72624
456.44815
455.09032
453.65077
452.12741
450.518
448.82016
447.03137
445.14893
443.16998
441.0915
438.91027
436.62291
434.2258
431.71514
429.08691
426.33683
423.46041
420.45287
417.30917
414.02399
410.59167
407.00626
403.26139
399.35053
395.26612
391.00185
386.54687
381.89913
377.03729
371.97495
366.66729
361.15054
355.36141
349.31537
343.01667
336.37211
329.49984
322.25892
314.65818
306.75241
298.40905
289.66637
280.53245
270.88447
260.74517
250.11944
238.91508
227.02706
214.42879
201.17699
187.17133
172.21347
156.10598
138.71903
120.06004
99.512553
75.051897
16.764684
0.29679691
0.28801879
0.26715378
0.2337784
0.23181065
0.24036457
0.24292315
0.23976382
0.23631018
0.23358264
0.23033903
0.22720178
0.22361755
0.21942454
0.21465153
0.20941348
0.20385092
0.19809606
0.19225884
0.1864242
0.18065444
0.17499338
0.1694706
0.1641051
0.15890816
0.15388558
0.14903929
0.14436852
0.13987069
0.13554196
0.13137772
0.12737282
0.12352185
0.11981927
0.11625952
0.11283707
0.10954651
0.10638258
0.10334018
0.10041435
0.097600394
0.094893669
0.092289863
0.089784656
0.087374067
0.085054362
0.082822016
0.080673255
0.078604814
0.076613514
0.074696268
0.072850199
0.071072496
0.069360507
0.067711675
0.066123491
0.064593239
0.063119523
0.061700088
0.060332455
0.059014761
0.057745096
0.05652194
0.055342947
0.054207288
0.053112462
0.052057206
0.051040516
0.050060856
0.049116807
0.048207028
0.047330354
0.046485565
0.045671509
0.044887038
0.044131213
0.043402942
0.042701211
0.042025088
0.041373668
0.040746072
0.040141454
0.03955898
0.038997897
0.038457382
0.037936962
0.037435767
0.036953074
0.036488232
0.036040703
0.0356098
0.035194933
0.034795448
0.034411175
0.034041391
0.033685458
0.033342943
0.033013413
0.032696415
0.03239151
0.032098268
0.03181628
0.031545149
0.031284491
0.031033937
0.030793129
0.030561719
0.030339376
0.030125777
0.029920614
0.029723588
0.029534415
0.029352812
0.029178507
0.029011245
0.028850767
0.028696844
0.028549156
0.028407529
0.028271777
0.028141675
0.028017039
0.027897642
0.027783285
0.027673786
0.027568967
0.027468658
0.027372692
0.027280909
0.027193153
0.027109275
0.027029127
0.026952573
0.026879499
0.026809764
0.026743229
0.026679785
0.026619316
0.02656171
0.026506841
0.026454609
0.026404925
0.026357698
0.026312848
0.02627028
0.026229908
0.026191642
0.0261554
0.026121115
0.026088725
0.026058159
0.026029343
0.026002213
0.025976714
0.025952794
0.025930401
0.025909483
0.025889987
0.025871864
0.025855074
0.025839582
0.02582535
0.025812335
0.025800496
0.025789808
0.025780248
0.025771781
0.02576437
0.025757998
0.025752658
0.025748319
0.025744953
0.025742558
0.025741128
0.025740637
0.025741099
0.025742606
0.025744766
0.025748762
468.89782
468.84872
468.73562
468.55964
468.32077
468.01865
467.65287
467.22293
466.72826
466.16817
465.5419
464.84859
464.08728
463.25693
462.35636
461.38433
460.33946
459.22026
458.02516
456.75242
455.4002
453.96655
452.44936
450.84637
449.15521
447.37333
445.49803
443.52642
441.45548
439.28196
437.00244
434.61329
432.11067
429.49052
426.74851
423.8801
420.88046
417.74447
414.46673
411.0415
407.46274
403.72397
399.8185
395.73872
391.47795
387.02564
382.3785
377.51676
372.45071
367.13906
361.61421
355.81452
349.7581
343.43859
336.7746
329.87269
322.59663
314.9605
307.0023
298.60015
289.79178
280.56832
270.81983
260.56336
249.8084
238.40309
226.30569
213.46967
199.91227
185.51018
169.97905
153.13215
134.98309
115.76892
92.715609
35.987908
0.060155891
0.11971212
0.18273211
0.20386603
0.20968021
0.21500578
0.22100546
0.22435005
0.22489681
0.22438407
0.22258282
0.22028478
0.21759818
0.21442103
0.21071321
0.20650658
0.20188248
0.19694329
0.19179173
0.1865194
0.18120221
0.17589989
0.17065762
0.16550843
0.16047567
0.15557518
0.15081712
0.14620739
0.14174876
0.13744172
0.13328509
0.12927656
0.12541295
0.12169056
0.1181053
0.11465286
0.11132883
0.10812873
0.10504813
0.10208265
0.099227962
0.096479918
0.093834387
0.091287479
0.088835353
0.086474195
0.084200849
0.082011079
0.07990239
0.077872129
0.075916614
0.074032867
0.072218259
0.070470098
0.068786036
0.067163533
0.065600263
0.064093428
0.062641923
0.061243565
0.059895862
0.05859704
0.057345283
0.056139278
0.054976471
0.053855362
0.052775132
0.051734316
0.050731143
0.049764742
0.048832627
0.047933945
0.047068106
0.046233773
0.045429692
0.044654653
0.043907923
0.043188436
0.042495091
0.041826979
0.041183226
0.040562979
0.039965407
0.039389698
0.038835081
0.038300736
0.037786246
0.037290809
0.036813616
0.036354002
0.035911526
0.035485552
0.035075457
0.034680739
0.034300721
0.033934963
0.033582948
0.03324421
0.032918407
0.032605026
0.032303578
0.032013654
0.03173486
0.031466806
0.031209113
0.030961417
0.030723363
0.030494611
0.030274828
0.030063696
0.029860911
0.029666174
0.02947921
0.029299738
0.029127489
0.028962211
0.028803636
0.028651549
0.028505635
0.028365732
0.028231637
0.028103127
0.027980022
0.027862101
0.02774917
0.027641049
0.02753756
0.027438532
0.027343801
0.027253207
0.027166596
0.027083822
0.027004742
0.026929218
0.026857135
0.026788353
0.02672273
0.026660166
0.026600542
0.026543752
0.026489661
0.026438184
0.026389228
0.026342705
0.026298536
0.026256619
0.026216852
0.026179162
0.026143481
0.026109741
0.02607787
0.026047796
0.02601945
0.025992767
0.025967695
0.025944185
0.025922182
0.025901629
0.025882474
0.025864675
0.025848196
0.025833001
0.025819044
0.025806278
0.025794673
0.025784212
0.025774865
0.025766586
0.025759341
0.025753126
0.025747927
0.025743706
0.025740443
0.025738142
0.025736787
0.025736353
0.025736872
0.025738407
0.025740586
0.025744576
469.18209
469.13318
469.02059
468.84546
468.60775
468.30712
467.94315
467.51534
467.02313
466.46582
465.84267
465.1528
464.39526
463.569
462.67286
461.70558
460.66579
459.552
458.36262
457.09593
455.75009
454.32312
452.81292
451.21722
449.53364
447.75962
445.89243
443.9292
441.86686
439.70214
437.43161
435.05159
432.55822
429.94738
427.21471
424.35561
421.36517
418.23823
414.96929
411.55252
407.98178
404.25048
400.35177
396.27797
392.02204
387.57369
382.92847
378.06801
372.99956
367.68499
362.15297
356.34385
350.27754
343.93842
337.2558
330.32492
323.01417
315.34324
307.33397
298.8726
290.0001
280.68505
270.84041
260.47215
249.57118
237.99047
225.67621
212.628
198.74924
183.95014
167.887
150.44058
131.88606
111.44388
75.411935
2.5325477
0.057769249
0.11393877
0.15523698
0.1775874
0.19008827
0.19841511
0.20463961
0.20859415
0.21096162
0.21144559
0.21085842
0.20946546
0.20743491
0.20482843
0.20168656
0.19806611
0.19404275
0.18970216
0.18513024
0.18040602
0.17559787
0.17076227
0.16594423
0.16117858
0.15649156
0.15190236
0.1474246
0.14306751
0.13883697
0.13473625
0.13076668
0.12692812
0.12321934
0.11963829
0.11618237
0.11284855
0.10963353
0.10653383
0.10354588
0.10066603
0.097890675
0.095216237
0.09263914
0.090155993
0.087763092
0.08545727
0.083235426
0.081094926
0.079032389
0.077044234
0.075128325
0.07328204
0.071502873
0.069787736
0.068134896
0.066542261
0.06500709
0.063527491
0.062101257
0.060726182
0.059400707
0.058123038
0.056891492
0.055704413
0.054559888
0.053456274
0.052392716
0.051367702
0.050379499
0.049426963
0.048508529
0.047623042
0.046769714
0.045947367
0.045154706
0.044390833
0.043654413
0.042944593
0.042260617
0.041601547
0.040966474
0.04035456
0.039764984
0.039196993
0.038649734
0.038122533
0.037614773
0.037125734
0.036654785
0.036201418
0.035764617
0.035343991
0.034939154
0.034549563
0.034174456
0.033813479
0.033466051
0.033131792
0.032810153
0.032500736
0.03220316
0.031916992
0.031641822
0.031377261
0.031122936
0.030878487
0.030643564
0.03041783
0.030200957
0.029992627
0.02979254
0.029600397
0.029415948
0.029238903
0.029068993
0.028905977
0.028749571
0.028599578
0.028455692
0.028317731
0.028185506
0.0280588
0.027937436
0.027821206
0.027709903
0.027603349
0.027501372
0.027403802
0.027310475
0.027221232
0.027135924
0.027054406
0.02697654
0.026902188
0.026831229
0.026763529
0.026698951
0.026637388
0.026578722
0.026522853
0.026469659
0.026419047
0.026370931
0.026325222
0.02628182
0.02624063
0.026201542
0.026164505
0.026129463
0.026096339
0.026065056
0.026035543
0.026007731
0.025981558
0.025956974
0.02593393
0.02591237
0.025892235
0.025873471
0.025856044
0.025839921
0.025825062
0.025811418
0.025798939
0.025787606
0.025777402
0.025768288
0.025760214
0.025753159
0.025747123
0.025742079
0.025737993
0.025734857
0.025732666
0.025731399
0.025731038
0.025731614
0.025733176
0.025735374
0.025739356
469.49895
469.45025
469.33823
469.16403
468.92761
468.62863
468.26668
467.84125
467.35178
466.79758
466.17789
465.49186
464.73852
463.91683
463.02562
462.06364
461.02952
459.92177
458.73879
457.47887
456.14015
454.72067
453.21829
451.63077
449.9557
448.19051
446.33246
444.37866
442.32602
440.17125
437.91089
435.54125
433.05839
430.45818
427.7362
424.88779
421.90799
418.79155
415.5329
412.12611
408.56493
404.84266
400.9523
396.88608
392.63662
388.19381
383.55221
378.69459
373.62548
368.30962
362.77205
356.95517
350.88031
344.52351
337.82411
330.86649
323.52199
315.81958
307.76119
299.24487
290.30651
280.90945