/*--------------------------------*- C++ -*----------------------------------*\
| =========                 |                                                 |
| \\      /  F ield         | OpenFOAM: The Open Source CFD Toolbox           |
|  \\    /   O peration     | Version:  2306                                  |
|   \\  /    A nd           | Website:  www.openfoam.com                      |
|    \\/     M anipulation  |                                                 |
\*---------------------------------------------------------------------------*/
FoamFile
{
    version     2.0;
    format      ascii;
    arch        "LSB;label=32;scalar=64";
    class       volVectorField;
    location    "0.17";
    object      U_0;
}
// * * * * * * * * * * * * * * * * * * * * * * * * * * * * * * * * * * * * * //

dimensions      [0 1 -1 0 0 0 0];

internalField   nonuniform List<vector> 
6400
(
(6.4566166e-05 0.074846607 -1.0064785e-16)
(0.00011372557 0.075076661 -8.8510639e-17)
(0.00011732855 0.075847404 -8.3489685e-17)
(-2.5656519e-05 0.077012378 -8.7531133e-17)
(-0.00038351697 0.078560358 -3.6430753e-17)
(-0.0010262029 0.080434607 -2.2853817e-17)
(-0.0020176968 0.082574111 -3.3958955e-18)
(-0.0034088166 0.084908158 3.5059477e-18)
(-0.0052425165 0.087354959 -7.578766e-18)
(-0.0075491267 0.089823953 5.0587484e-19)
(-0.010343369 0.09221675 -3.6765268e-19)
(-0.013623548 0.094430759 1.2267863e-18)
(-0.017371344 0.096362148 -3.2336301e-18)
(-0.021551689 0.097909104 -6.7421736e-18)
(-0.026113253 0.098974921 8.3185424e-18)
(-0.030989264 0.099470976 1.2116078e-17)
(-0.036098679 0.099319552 4.5107776e-18)
(-0.041347687 0.098456572 3.0747066e-18)
(-0.046631639 0.096834231 -9.2447226e-18)
(-0.051837431 0.094423547 -1.0316114e-17)
(-0.056846331 0.091216654 -1.6031535e-18)
(-0.061537446 0.087228846 3.3693982e-18)
(-0.065792006 0.082500091 1.142487e-17)
(-0.069498391 0.077095647 2.2595232e-17)
(-0.07255763 0.071105392 1.9444864e-17)
(-0.074888894 0.064641517 1.016408e-17)
(-0.076434066 0.057834484 -7.8408204e-19)
(-0.077161293 0.050827572 -5.1147165e-18)
(-0.07706763 0.043770307 3.5165141e-18)
(-0.076179758 0.036810872 9.6777719e-18)
(-0.074552324 0.030088456 5.1820754e-18)
(-0.072264217 0.02372634 2.2606999e-18)
(-0.069413136 0.017826408 -2.3289598e-18)
(-0.066108994 0.012465593 1.6219913e-18)
(-0.062467124 0.0076944048 6.2891723e-18)
(-0.058602425 0.0035370655 2.7134673e-18)
(-0.05462744 -9.8119309e-06 -5.8653424e-18)
(-0.050637617 -0.0029668771 -1.0276909e-17)
(-0.046715606 -0.0053689529 -4.8617529e-18)
(-0.042929619 -0.007266895 -4.4024685e-18)
(-0.039331554 -0.008717966 -2.4064539e-18)
(-0.035957447 -0.0097827827 3.2689579e-18)
(-0.032829075 -0.010522003 1.5574887e-18)
(-0.029955918 -0.010993554 2.7102133e-19)
(-0.027337349 -0.011250536 -6.2252692e-18)
(-0.024964957 -0.011339911 -1.0409639e-17)
(-0.022824822 -0.01130188 -5.8539363e-18)
(-0.020899558 -0.011169828 -3.8117451e-19)
(-0.019170019 -0.010970689 1.277486e-18)
(-0.017616646 -0.010725605 -3.8289762e-18)
(-0.016220446 -0.010450728 -2.9524193e-18)
(-0.014963644 -0.010158094 -1.5424093e-18)
(-0.013830056 -0.0098564488 -2.5700078e-18)
(-0.012805241 -0.0095520021 -6.8219073e-19)
(-0.011876502 -0.009249066 -3.3692284e-19)
(-0.011032781 -0.0089505715 -1.4565043e-18)
(-0.010264497 -0.0086584691 -1.3717396e-18)
(-0.0095633626 -0.0083740262 -5.6544162e-19)
(-0.0089222022 -0.0080980402 -1.8147068e-19)
(-0.0083347799 -0.0078309861 1.1294684e-19)
(-0.0077956534 -0.0075731167 -4.8229995e-20)
(-0.0073000494 -0.007324529 -5.0145057e-19)
(-0.0068437607 -0.0070852083 -8.7945715e-19)
(-0.0064230621 -0.006855058 2.7277774e-20)
(-0.0060346429 -0.0066339211 3.6788572e-21)
(-0.005675551 -0.0064215948 -2.5611245e-19)
(-0.0053431467 -0.0062178426 -4.3523277e-20)
(-0.0050350648 -0.0060224039 2.9225523e-20)
(-0.0047491812 -0.0058350014 -7.9107652e-20)
(-0.0044835858 -0.0056553472 -1.8673242e-19)
(-0.0042365571 -0.0054831485 -4.0390894e-19)
(-0.0040065421 -0.0053181106 -3.3514975e-19)
(-0.0037921373 -0.0051599413 1.3795482e-19)
(-0.0035920722 -0.0050083522 1.3168679e-19)
(-0.0034051956 -0.0048630617 1.4192644e-19)
(-0.0032304625 -0.0047237952 -1.338701e-19)
(-0.0030669234 -0.0045902872 -1.5955557e-19)
(-0.0029137141 -0.0044622811 1.4337756e-19)
(-0.0027700471 -0.0043395302 1.3529343e-19)
(-0.002635204 -0.0042217977 5.1442729e-20)
(0.00036570699 0.074313329 -7.2921873e-17)
(0.00078689187 0.074585889 -4.7382263e-17)
(0.0012176478 0.075503489 -3.9534037e-17)
(0.0014685727 0.076919215 -2.5583865e-18)
(0.0014819658 0.078818331 1.9663082e-17)
(0.0011621334 0.081141804 -6.63996e-18)
(0.00042934079 0.083819971 -4.5634838e-18)
(-0.00078409494 0.086770151 -3.7261364e-18)
(-0.0025335696 0.089894515 -1.0578777e-17)
(-0.004858651 0.093084478 6.8887275e-18)
(-0.0077807904 0.096220908 1.2643727e-17)
(-0.011301348 0.099179653 4.0599676e-17)
(-0.01540165 0.10183467 2.1090518e-17)
(-0.0200428 0.10406207 3.0081387e-17)
(-0.025166414 0.10574369 2.2271459e-17)
(-0.030695573 0.10677057 2.3446787e-17)
(-0.036536123 0.10704614 3.4441157e-17)
(-0.042578268 0.10648934 2.8251427e-17)
(-0.048698546 0.10503774 2.4016762e-17)
(-0.054762343 0.10265064 1.2045155e-17)
(-0.060626932 0.09931212 -5.5601964e-18)
(-0.066145305 0.095033898 6.0207399e-18)
(-0.071171181 0.089857805 1.7213204e-17)
(-0.075565208 0.083857284 2.3587107e-17)
(-0.079202118 0.077137313 1.6807883e-17)
(-0.081978175 0.069832139 -1.7364785e-18)
(-0.083817601 0.062100519 -7.628701e-18)
(-0.084677628 0.054118813 -7.2813099e-18)
(-0.084552401 0.046072491 6.8162481e-19)
(-0.08347438 0.038146014 1.2769947e-17)
(-0.081512298 0.030512485 -4.2052412e-18)
(-0.078766189 0.023324323 -6.2419198e-18)
(-0.075359996 0.016705915 6.7480349e-19)
(-0.071432682 0.010749003 4.9895832e-18)
(-0.067129361 0.0055103974 2.6760929e-18)
(-0.062596598 0.001011305 4.8859998e-18)
(-0.057966676 -0.0027566449 1.2461818e-18)
(-0.053356716 -0.0058237765 -5.5644057e-18)
(-0.048865904 -0.0082439253 -5.3226292e-18)
(-0.044572516 -0.010084203 -7.4123046e-18)
(-0.04053373 -0.01141941 -3.3772304e-18)
(-0.036786814 -0.012327022 4.5838739e-19)
(-0.033351388 -0.012882972 4.2424779e-19)
(-0.030232136 -0.01315824 1.250532e-18)
(-0.027421838 -0.013216449 -2.8690343e-18)
(-0.024904539 -0.013112515 -8.2366739e-18)
(-0.022658525 -0.012892175 -9.0948188e-18)
(-0.020658907 -0.012592227 -2.5856625e-18)
(-0.01887971 -0.012241274 -2.1601216e-19)
(-0.017295451 -0.011860789 -1.9570747e-18)
(-0.015882212 -0.011466319 -2.0517699e-18)
(-0.014618277 -0.011068695 -2.7852224e-18)
(-0.013484425 -0.01067515 -2.1139341e-18)
(-0.012463959 -0.01029028 -1.9917679e-18)
(-0.011542557 -0.0099168343 -1.7430936e-18)
(-0.010708031 -0.0095563185 -1.3693738e-18)
(-0.0099500347 -0.0092094356 -1.2243713e-18)
(-0.0092597765 -0.0088763929 -3.015787e-19)
(-0.0086297513 -0.0085571032 -8.4151221e-19)
(-0.0080535118 -0.0082513108 -6.9273997e-19)
(-0.0075254778 -0.007958666 2.0235106e-19)
(-0.0070407844 -0.0076787666 -2.909071e-19)
(-0.0065951615 -0.0074111811 -7.6721224e-19)
(-0.0061848405 -0.0071554607 -5.2874848e-19)
(-0.0058064795 -0.0069111469 -6.2579549e-19)
(-0.005457105 -0.0066777769 -1.3181165e-19)
(-0.0051340635 -0.0064548875 -2.2369504e-19)
(-0.0048349818 -0.006242019 2.6579333e-19)
(-0.0045577335 -0.0060387191 -9.4310445e-20)
(-0.0043004096 -0.0058445449 -3.631106e-19)
(-0.0040612937 -0.0056590663 -2.1760442e-19)
(-0.0038388401 -0.0054818668 -1.2075762e-19)
(-0.0036316547 -0.0053125458 1.9330438e-19)
(-0.0034384778 -0.0051507187 -2.2242406e-19)
(-0.0032581701 -0.0049960175 -8.5401724e-20)
(-0.0030896989 -0.004848091 3.0208614e-20)
(-0.0029321274 -0.0047066048 -1.3344309e-19)
(-0.0027846042 -0.0045712408 4.7986295e-20)
(-0.0026463547 -0.0044416969 -3.9484953e-20)
(-0.002516673 -0.0043176865 -2.0042105e-19)
(0.00073550272 0.072828873 -8.9210346e-17)
(0.0016170034 0.073140242 -7.2998862e-17)
(0.0025748999 0.074223658 -4.1025328e-17)
(0.0033213959 0.075918407 9.488227e-18)
(0.0038089611 0.07822482 -1.1542665e-17)
(0.0039076216 0.081076958 -2.8807652e-17)
(0.0035195048 0.084395084 -3.2874359e-18)
(0.0025568334 0.088082524 -1.5852811e-17)
(0.00094741125 0.092023216 -7.671524e-18)
(-0.001361407 0.096087872 -3.8836354e-18)
(-0.0043992389 0.10013137 -7.2595368e-18)
(-0.0081714609 0.1040031 -2.8641279e-18)
(-0.012659395 0.10755035 -3.3273923e-18)
(-0.017819911 0.11062272 -4.9217634e-18)
(-0.023586623 0.11307637 4.3949269e-18)
(-0.029871113 0.11477792 6.3772216e-18)
(-0.036564387 0.11560805 1.1916556e-17)
(-0.043538512 0.11546492 9.3375388e-18)
(-0.050648535 0.11426768 2.3558689e-18)
(-0.057734927 0.11196022 6.12977e-19)
(-0.064626684 0.1085151 -3.4576588e-17)
(-0.071145367 0.10393756 -3.6763989e-17)
(-0.077110742 0.098269306 -6.5574654e-18)
(-0.082348345 0.091591506 9.7975571e-18)
(-0.086698745 0.084025854 1.641781e-18)
(-0.090027711 0.075732739 -1.7298887e-17)
(-0.092235409 0.066905819 -4.1684315e-17)
(-0.093263662 0.057763264 -8.4705826e-18)
(-0.093101774 0.048536704 2.1392857e-17)
(-0.091789083 0.039457586 1.2172429e-17)
(-0.089412495 0.030742988 4.3578969e-18)
(-0.086099748 0.022582834 -1.2392687e-17)
(-0.082009318 0.01512984 6.421351e-18)
(-0.077318702 0.0084932307 1.6007139e-17)
(-0.072213496 0.0027363055 1.2904512e-17)
(-0.066874314 -0.0021244605 1.5823489e-17)
(-0.061462957 -0.0061030209 8.6123759e-18)
(-0.05612358 -0.0092507111 6.5676692e-18)
(-0.050973285 -0.011641949 1.3653566e-17)
(-0.046101534 -0.013366563 6.6802235e-18)
(-0.041570445 -0.01452215 8.2306159e-18)
(-0.037417034 -0.015207584 5.8801151e-18)
(-0.033656468 -0.015517741 3.2513227e-18)
(-0.030285832 -0.015539314 7.2709019e-18)
(-0.027288371 -0.015348161 6.5430449e-18)
(-0.024637744 -0.015007996 9.4575937e-19)
(-0.022301889 -0.014570211 -5.1045064e-18)
(-0.020246271 -0.014074589 -2.2894611e-19)
(-0.018436417 -0.013550605 3.4195194e-18)
(-0.016839712 -0.01301907 3.482681e-18)
(-0.015426529 -0.012493865 2.1243931e-18)
(-0.014170785 -0.011983597 1.8376161e-19)
(-0.013050067 -0.011493081 -5.1911131e-19)
(-0.012045456 -0.011024556 -4.4307524e-20)
(-0.011141164 -0.010578628 5.6161032e-19)
(-0.010324091 -0.010154948 4.7574463e-19)
(-0.0095833604 -0.009752667 9.4915789e-19)
(-0.0089098951 -0.0093707318 5.6708949e-19)
(-0.0082960563 -0.0090080417 -1.3683594e-19)
(-0.0077353461 -0.0086635329 2.9024642e-19)
(-0.0072221762 -0.0083362083 2.791472e-19)
(-0.0067516913 -0.008025142 4.3010575e-19)
(-0.0063196378 -0.0077294714 -2.9576665e-19)
(-0.0059222637 -0.0074483868 -1.0558927e-19)
(-0.0055562443 -0.0071811224 1.9982054e-19)
(-0.0052186228 -0.0069269501 4.661976e-19)
(-0.0049067632 -0.0066851751 4.5207447e-19)
(-0.0046183109 -0.006455135 3.3038859e-19)
(-0.0043511591 -0.0062361983 1.0226009e-19)
(-0.0041034199 -0.0060277642 2.6018376e-19)
(-0.0038733985 -0.0058292626 -3.0539374e-20)
(-0.0036595716 -0.0056401536 3.925452e-20)
(-0.0034605674 -0.0054599264 3.0964824e-19)
(-0.0032751485 -0.0052880989 -1.7274001e-19)
(-0.0031021971 -0.0051242164 -6.0598483e-20)
(-0.0029407021 -0.0049678505 -9.552308e-20)
(-0.0027897469 -0.0048185975 1.8799152e-19)
(-0.0026484998 -0.0046760778 1.2721443e-19)
(-0.002516205 -0.004539934 -7.0048708e-20)
(-0.0023921746 -0.0044098297 -1.0955775e-19)
(0.0011825815 0.07017344 -1.1351083e-16)
(0.002625659 0.07052314 -1.2349741e-16)
(0.0042282756 0.071785793 -7.2666667e-17)
(0.0055911246 0.073791082 -5.9070708e-18)
(0.0066775656 0.076561506 -1.5704939e-19)
(0.0073140123 0.080028549 -4.9850879e-18)
(0.0073792729 0.084102463 -2.9657285e-18)
(0.0067587742 0.088670418 2.074215e-18)
(0.0053620761 0.093593002 -1.818276e-18)
(0.0031189628 0.098713628 -1.2972427e-17)
(-1.5384142e-05 0.10385908 -1.4525079e-17)
(-0.0040487176 0.10884695 -6.8737529e-18)
(-0.0089618172 0.11348993 2.0971391e-18)
(-0.014707197 0.11760644 3.6449407e-18)
(-0.021209403 0.12102201 5.0626814e-18)
(-0.028366917 0.12357429 2.1402552e-17)
(-0.036054077 0.12511678 4.261811e-17)
(-0.044122646 0.12552247 3.7129006e-17)
(-0.052403531 0.12468763 3.1715133e-17)
(-0.060708815 0.12253604 3.8592119e-18)
(-0.068834618 0.11902407 -1.2047252e-17)
(-0.07656503 0.11414611 -1.5485181e-17)
(-0.083678139 0.10794032 2.3321359e-18)
(-0.089954992 0.10049388 5.2607477e-18)
(-0.095191527 0.091946166 -4.6959469e-19)
(-0.099212514 0.082488123 -4.3568246e-18)
(-0.10188491 0.072356413 -1.0496231e-17)
(-0.10312847 0.061822349 -4.8606352e-18)
(-0.10292452 0.051177365 -6.5653643e-18)
(-0.10132044 0.040714442 -1.152902e-17)
(-0.098426785 0.030708308 7.8544093e-18)
(-0.094408144 0.021397513 -1.0909363e-18)
(-0.089469203 0.012970587 -1.0423712e-17)
(-0.08383821 0.0055575097 -1.2471477e-17)
(-0.077754398 -0.00077430164 -9.3384171e-18)
(-0.071436247 -0.0060065835 -3.9527186e-18)
(-0.065090677 -0.01017561 -5.0262147e-18)
(-0.058891352 -0.013356382 -7.5669242e-18)
(-0.052976291 -0.015651935 -3.7037068e-18)
(-0.047446777 -0.017182316 -3.2368391e-18)
(-0.042368816 -0.018074608 4.9539074e-18)
(-0.03777678 -0.018454852 9.3344146e-18)
(-0.033677969 -0.018441264 7.2793635e-18)
(-0.030057953 -0.018139333 6.6427519e-18)
(-0.02688646 -0.01763895 4.5704417e-18)
(-0.024123027 -0.017013296 2.2589492e-19)
(-0.021721986 -0.016319184 -4.36905e-18)
(-0.019636527 -0.015598483 -1.112265e-18)
(-0.01782171 -0.014880238 1.6591187e-18)
(-0.016236468 -0.014183089 1.6729068e-18)
(-0.01484469 -0.01351772 2.9327175e-18)
(-0.013615604 -0.012889135 2.5268291e-18)
(-0.012523633 -0.012298578 1.6317488e-19)
(-0.011547875 -0.01174503 -4.7390719e-19)
(-0.010671425 -0.011226284 -1.0288577e-18)
(-0.0098806451 -0.010739675 -2.0543326e-19)
(-0.0091644872 -0.010282509 1.3316658e-18)
(-0.0085139065 -0.0098522943 1.3007164e-18)
(-0.0079213899 -0.0094468265 -6.4373539e-19)
(-0.0073805933 -0.0090641949 -1.0572656e-18)
(-0.0068860746 -0.0087027454 -5.8433185e-20)
(-0.0064331033 -0.0083610313 9.9842182e-19)
(-0.0060175259 -0.0080377665 7.5482606e-20)
(-0.0056356704 -0.0077317873 -3.9796612e-19)
(-0.0052842769 -0.0074420252 -1.5714801e-19)
(-0.0049604432 -0.0071674888 1.8358083e-19)
(-0.0046615817 -0.0069072528 1.1789512e-18)
(-0.0043853826 -0.0066604511 6.1421461e-19)
(-0.0041297815 -0.0064262725 -5.9296766e-19)
(-0.0038929311 -0.0062039574 -5.2679161e-19)
(-0.0036731757 -0.0059927952 1.938445e-19)
(-0.0034690295 -0.0057921218 1.8718603e-19)
(-0.0032791563 -0.0056013165 6.9060063e-20)
(-0.0031023526 -0.0054198001 -3.0722988e-19)
(-0.0029375329 -0.0052470313 -2.7226708e-19)
(-0.002783716 -0.005082505 -2.3162017e-19)
(-0.0026400137 -0.0049257491 2.3932213e-19)
(-0.0025056209 -0.0047763227 2.7135264e-19)
(-0.0023798066 -0.004633814 -6.3957256e-20)
(-0.0022619064 -0.0044978376 -2.0426496e-19)
(0.0017162284 0.066101987 -8.4241945e-17)
(0.0038339984 0.066487431 -4.8182394e-17)
(0.0062152851 0.067935732 -6.1878628e-17)
(0.0083374215 0.070274455 2.3054731e-17)
(0.010175711 0.073564833 -7.6744046e-18)
(0.011499391 0.077738845 -2.5593272e-17)
(0.012156896 0.082699658 -1.0324731e-17)
(0.011998638 0.088314904 -1.6384187e-17)
(0.010904953 0.094418413 -3.3335828e-18)
(0.0087866039 0.10081442 -7.1806312e-18)
(0.0055900043 0.10729348 -2.3421316e-17)
(0.0012919024 0.11363796 -2.2483156e-17)
(-0.00408792 0.11962285 -2.972398e-17)
(-0.01049154 0.12502394 -3.2681489e-17)
(-0.017834348 0.12963143 -3.4334073e-17)
(-0.025999969 0.13324896 -1.9049006e-17)
(-0.03484411 0.13569799 -5.871111e-18)
(-0.044196185 0.13682161 -3.0635498e-17)
(-0.053860597 0.13648797 -2.9654588e-17)
(-0.063617846 0.13459498 -5.1534204e-17)
(-0.07322656 0.13107654 -4.6928947e-18)
(-0.082426796 0.12590985 -7.3990033e-18)
(-0.090945887 0.11912385 -2.0478988e-17)
(-0.09850861 0.1108079 2.8415614e-17)
(-0.1048523 0.10111861 2.666154e-18)
(-0.10974604 0.090281791 -2.5433646e-17)
(-0.11301028 0.07858693 7.3942478e-18)
(-0.11453271 0.066373265 -5.8933944e-18)
(-0.11428157 0.05401047 4.3347404e-18)
(-0.11231344 0.041873048 -1.8822884e-17)
(-0.10877001 0.030312078 -4.5831665e-17)
(-0.10386549 0.019629748 -1.1618039e-17)
(-0.097866907 0.010060313 -1.9232207e-18)
(-0.091073822 0.0017576109 -9.4627708e-18)
(-0.083779715 -0.0051993134 -2.6982329e-17)
(-0.076272343 -0.010807001 -4.0141238e-17)
(-0.0688065 -0.015127627 -2.7826147e-17)
(-0.061591857 -0.018270199 -1.5964956e-17)
(-0.054790434 -0.020376737 -2.314495e-17)
(-0.048515445 -0.021607248 -1.9167283e-17)
(-0.042834731 -0.022127067 2.2999094e-18)
(-0.037776223 -0.02209654 1.4951754e-17)
(-0.033334378 -0.021662515 1.0300083e-17)
(-0.029477841 -0.020952746 1.8135117e-18)
(-0.026157477 -0.020072941 3.6887613e-18)
(-0.023313824 -0.019106087 -6.2870408e-19)
(-0.020883498 -0.01811362 -3.9261153e-18)
(-0.018804206 -0.017137913 -1.0879751e-18)
(-0.017018265 -0.016205498 -6.6086635e-19)
(-0.01547472 -0.015330587 7.9022551e-19)
(-0.014130325 -0.014518565 2.0741848e-18)
(-0.012949574 -0.013769035 1.1163589e-18)
(-0.011904043 -0.013078236 -1.4683803e-19)
(-0.010971374 -0.012440815 7.2888547e-20)
(-0.010134141 -0.011851019 -4.887987e-19)
(-0.0093787586 -0.011303404 -1.0749779e-18)
(-0.0086945265 -0.010793177 -2.9284811e-19)
(-0.0080728581 -0.010316299 7.832506e-19)
(-0.0075066959 -0.0098694405 -1.3684073e-19)
(-0.0069900917 -0.0094498658 -3.2484648e-19)
(-0.0065179215 -0.0090553044 -3.5907363e-20)
(-0.0060856981 -0.0086838303 5.6996334e-19)
(-0.0056894506 -0.0083337674 -1.8243245e-19)
(-0.0053256453 -0.0080036224 -1.9108172e-19)
(-0.0049911299 -0.0076920398 -6.0830509e-20)
(-0.0046830912 -0.0073977746 -4.6592487e-19)
(-0.0043990187 -0.0071196755 3.6054292e-19)
(-0.0041366723 -0.0068566757 3.0929811e-19)
(-0.0038940519 -0.0066077857 -1.9501589e-19)
(-0.0036693706 -0.0063720882 -4.1536635e-19)
(-0.0034610293 -0.0061487335 -1.9662882e-19)
(-0.003267595 -0.0059369345 4.4095555e-20)
(-0.0030877807 -0.0057359624 9.4805623e-20)
(-0.0029204288 -0.0055451419 -1.7142293e-19)
(-0.0027644959 -0.0053638472 -8.5891723e-20)
(-0.00261904 -0.0051914976 -1.478726e-19)
(-0.0024832092 -0.0050275543 -2.6010031e-21)
(-0.0023562319 -0.0048715168 1.3550416e-19)
(-0.0022374082 -0.0047229198 6.2694659e-20)
(-0.002126102 -0.0045813303 -1.2334315e-19)
(0.0023437774 0.060343562 -1.2358762e-16)
(0.0052587251 0.060757109 -9.4295846e-17)
(0.0085664905 0.06238464 -9.107224e-17)
(0.01161817 0.065060555 -4.661386e-17)
(0.01439676 0.068921171 2.1846874e-18)
(0.016595686 0.073896221 -1.4957654e-17)
(0.018023297 0.079889559 -1.8780905e-17)
(0.018481373 0.086745411 -1.2903705e-18)
(0.017811792 0.094261895 2.7187681e-17)
(0.015898916 0.10219868 -1.6142912e-17)
(0.012673742 0.11029777 -4.9455138e-18)
(0.0081149341 0.11828753 2.2267163e-17)
(0.0022313052 0.12590371 3.5677636e-17)
(-0.0049153296 0.13287947 1.6281963e-17)
(-0.013218329 0.1389562 3.8271181e-17)
(-0.022546535 0.14389902 3.8124313e-17)
(-0.032735037 0.14749219 4.2152798e-17)
(-0.043589066 0.14954404 4.168399e-17)
(-0.05488491 0.14988887 -2.3809643e-17)
(-0.066369115 0.14839184 -4.0426901e-17)
(-0.07775878 0.14495607 -1.2093113e-17)
(-0.088743267 0.13953254 -1.993742e-17)
(-0.09898892 0.13213194 -4.8542926e-17)
(-0.10814966 0.12283851 3.6478417e-18)
(-0.11588563 0.11182283 -1.804905e-17)
(-0.12188946 0.099348959 -3.3248321e-17)
(-0.12591552 0.085770746 1.4052281e-18)
(-0.12780424 0.071514777 -1.7024424e-17)
(-0.12750251 0.057054246 -1.6145386e-17)
(-0.12507703 0.042873148 -1.1153578e-17)
(-0.12071114 0.029425246 -4.1652456e-17)
(-0.11468631 0.017097129 -7.4445981e-18)
(-0.10735536 0.006179655 1.9151873e-17)
(-0.099104693 -0.0031357713 7.7603985e-19)
(-0.09031429 -0.010768345 -8.474272e-18)
(-0.081356072 -0.016739287 -2.7351695e-17)
(-0.07254245 -0.021146054 -2.4752111e-17)
(-0.064127738 -0.024146087 -1.8687823e-18)
(-0.056300527 -0.025934422 -1.9235622e-17)
(-0.049185026 -0.026723929 -1.2694864e-17)
(-0.042847229 -0.026729496 1.2128424e-17)
(-0.037302751 -0.026154535 1.3204642e-17)
(-0.032526121 -0.025180781 4.8857974e-18)
(-0.028461642 -0.023962057 3.0078075e-18)
(-0.0250342 -0.022621493 4.5957716e-18)
(-0.022159033 -0.021251646 4.4738401e-19)
(-0.019749868 -0.019916932 -2.8022089e-18)
(-0.017725017 -0.018657544 -1.1465963e-18)
(-0.016011415 -0.017494264 1.086227e-18)
(-0.014546878 -0.016433712 2.3501655e-18)
(-0.013280718 -0.015473163 3.2368815e-18)
(-0.012173042 -0.014604499 1.7614357e-18)
(-0.011193335 -0.013817186 7.6784987e-19)
(-0.010318718 -0.013100311 1.2447226e-18)
(-0.0095322019 -0.012443813 8.1113635e-20)
(-0.0088211119 -0.01183907 -6.3509993e-19)
(-0.0081758074 -0.011279045 9.2212749e-19)
(-0.0075887056 -0.010758161 2.2372376e-18)
(-0.007053597 -0.010272048 6.9553177e-19)
(-0.0065651963 -0.0098172623 1.2389542e-19)
(-0.0061188702 -0.0093910235 5.0661019e-19)
(-0.0057104827 -0.008991014 7.9598406e-19)
(-0.0053363134 -0.0086152312 7.5149901e-19)
(-0.0049930112 -0.0082618936 4.7794148e-19)
(-0.0046775645 -0.0079293838 -2.6957523e-19)
(-0.0043872761 -0.007616217 -2.0089673e-19)
(-0.0041197371 -0.0073210242 5.4407177e-19)
(-0.0038727995 -0.0070425419 9.3220311e-19)
(-0.0036445491 -0.0067796058 5.6128262e-20)
(-0.0034332786 -0.0065311437 -2.9691006e-19)
(-0.0032374631 -0.0062961696 -1.3802316e-19)
(-0.0030557376 -0.0060737766 2.536859e-19)
(-0.0028868781 -0.0058631306 6.6488454e-19)
(-0.0027297844 -0.0056634635 7.3393572e-20)
(-0.0025834657 -0.0054740672 1.399256e-20)
(-0.0024470281 -0.0052942888 -5.7630346e-20)
(-0.0023196637 -0.0051235246 1.3675494e-19)
(-0.0022006411 -0.0049612166 4.447943e-19)
(-0.0020892971 -0.0048068484 7.4512807e-20)
(-0.0019850299 -0.0046599412 -1.3359671e-19)
(0.0030671594 0.052609166 -1.0096045e-16)
(0.0069064982 0.053034296 -1.1385289e-16)
(0.011294745 0.054814363 -6.7612801e-17)
(0.015480226 0.057789775 -5.6952154e-17)
(0.019435976 0.062256325 -2.2503183e-17)
(0.02274659 0.068120486 -5.6700689e-18)
(0.025175435 0.075306169 6.1957196e-17)
(0.026449438 0.083627912 1.8878616e-17)
(0.026361044 0.092834057 -3.7793359e-17)
(0.02476172 0.10262759 3.1681429e-17)
(0.021563802 0.11268781 9.4987873e-18)
(0.01673725 0.122682 2.273588e-17)
(0.010308477 0.13227701 -2.4943657e-18)
(0.0023337356 0.14116781 1.1667912e-18)
(-0.0070678743 0.14904758 2.6982085e-17)
(-0.017734787 0.15562889 1.4003906e-18)
(-0.029481475 0.16065466 1.8131435e-17)
(-0.042087566 0.16389443 1.1116736e-17)
(-0.055301022 0.16514267 -3.1404972e-17)
(-0.068833764 0.16422384 -1.5153819e-17)
(-0.082358915 0.16099978 1.2899633e-17)
(-0.095509299 0.1553824 -1.3527664e-19)
(-0.10787941 0.14735031 1.098998e-17)
(-0.11903478 0.13696976 3.2441246e-17)
(-0.12853374 0.12441699 3.5205674e-17)
(-0.13596304 0.10999487 3.3722637e-17)
(-0.14098166 0.09413462 -1.3460704e-17)
(-0.14335913 0.07737581 -2.8876755e-17)
(-0.14300742 0.060330376 -3.2320754e-17)
(-0.14000336 0.043631829 6.7711477e-18)
(-0.13458671 0.027874111 -1.6101751e-17)
(-0.12713459 0.013558017 -4.7563751e-17)
(-0.11811384 0.0010478377 -7.5538356e-18)
(-0.10801831 -0.009419294 -2.429446e-17)
(-0.097372593 -0.017775168 -2.791538e-17)
(-0.086634479 -0.024070554 -1.5487053e-17)
(-0.076195299 -0.028459142 -2.4580084e-17)
(-0.066361707 -0.031166296 -1.5221172e-17)
(-0.057350625 -0.032458986 -2.2045902e-17)
(-0.049294588 -0.032619978 -2.0324423e-17)
(-0.042251527 -0.03192801 -5.1420175e-18)
(-0.0362159 -0.030640223 -4.621081e-19)
(-0.031132371 -0.028980483 -1.2713192e-18)
(-0.026910842 -0.027132662 5.3462531e-18)
(-0.02344085 -0.025238494 9.6724205e-19)
(-0.020604214 -0.023398957 -3.9982751e-18)
(-0.01828522 -0.021678431 -5.9252958e-18)
(-0.016377995 -0.020110544 -4.964657e-19)
(-0.014791336 -0.018705676 4.024907e-19)
(-0.013450838 -0.01745849 -5.1550077e-19)
(-0.01229856 -0.016354393 2.2117699e-19)
(-0.01129122 -0.015374588 -1.4990168e-18)
(-0.010397627 -0.014499661 -1.2307255e-19)
(-0.0095959113 -0.013711815 1.1144303e-18)
(-0.0088709441 -0.012995983 2.4142543e-18)
(-0.0082121652 -0.012340132 6.125277e-20)
(-0.0076119188 -0.011735031 -1.5353073e-18)
(-0.007064286 -0.011173769 6.7886999e-19)
(-0.0065643394 -0.01065119 7.7681005e-19)
(-0.0061077191 -0.010163377 1.7349762e-18)
(-0.0056904277 -0.0097072333 8.3456752e-19)
(-0.0053087547 -0.0092801891 -8.3429119e-19)
(-0.004959266 -0.0088800062 -1.6028526e-21)
(-0.0046388132 -0.008504669 4.4213068e-19)
(-0.0043445417 -0.0081523275 8.9508105e-19)
(-0.0040738869 -0.0078212718 3.2026457e-19)
(-0.0038245604 -0.0075099221 -5.3793822e-19)
(-0.003594527 -0.0072168231 5.039763e-19)
(-0.0033819786 -0.006940639 3.7867274e-19)
(-0.0031853071 -0.0066801471 6.8251693e-19)
(-0.003003079 -0.0064342295 5.7875236e-20)
(-0.0028340133 -0.0062018645 -3.249185e-19)
(-0.0026769622 -0.0059821171 2.9799368e-19)
(-0.0025308946 -0.0057741307 2.8579365e-21)
(-0.0023948822 -0.0055771197 4.6969912e-19)
(-0.0022680878 -0.0053903616 1.8108626e-19)
(-0.0021497548 -0.005213192 -3.1381413e-19)
(-0.0020391987 -0.0050449982 6.135049e-20)
(-0.001935799 -0.004885215 1.1342739e-19)
(-0.0018389925 -0.0047333204 4.5861999e-19)
(0.0038673145 0.042622443 -4.3965648e-17)
(0.0087720126 0.04301732 1.2996127e-16)
(0.014383326 0.044896235 1.2559112e-16)
(0.019948666 0.048038952 8.6356748e-17)
(0.025383854 0.053126072 4.1613647e-19)
(0.030105644 0.059942195 -3.8712036e-17)
(0.033841687 0.068495332 -6.7294738e-17)
(0.03619245 0.07854807 -1.2994216e-17)
(0.036889658 0.089777207 -1.0416771e-17)
(0.035742702 0.10180942 -1.7813105e-17)
(0.032643631 0.11424168 -1.4775972e-17)
(0.027557404 0.12666281 -1.1290887e-17)
(0.020519701 0.1386703 -7.7247594e-17)
(0.011621113 0.14988086 -3.1652837e-17)
(0.00097087148 0.15995078 -2.9859894e-17)
(-0.011237097 0.16854956 -4.8738868e-17)
(-0.024783916 0.17535434 -5.4324926e-17)
(-0.039425049 0.1801001 -6.5157774e-17)
(-0.054882213 0.18253494 -6.3246839e-17)
(-0.070834914 0.18243421 -6.7823623e-17)
(-0.086913162 0.17960566 -6.9764556e-17)
(-0.10268988 0.17390443 -5.0466921e-17)
(-0.11767749 0.16525628 -3.9329528e-17)
(-0.13133298 0.15368801 -4.0853923e-17)
(-0.1430809 0.13936426 -8.0281725e-18)
(-0.15236009 0.12262112 1.5943122e-17)
(-0.15868955 0.1039803 1.6837494e-17)
(-0.16173054 0.084128185 2.2240263e-17)
(-0.16133762 0.063865337 1.0403712e-17)
(-0.15759664 0.044033139 2.3664848e-17)
(-0.15082404 0.02541926 4.9148416e-17)
(-0.14153145 0.0086736727 3.742285e-17)
(-0.13033973 -0.0057114538 3.4004012e-17)
(-0.11791532 -0.017489214 7.5332651e-18)
(-0.10494554 -0.026595314 9.1235483e-18)
(-0.092015273 -0.033135235 4.6627344e-17)
(-0.079611806 -0.037344972 3.3693155e-17)
(-0.068101917 -0.03954514 6.1370852e-18)
(-0.057730799 -0.040100043 1.0309476e-17)
(-0.048633721 -0.039384652 -2.5845148e-18)
(-0.040850487 -0.037759343 -7.0486408e-18)
(-0.034341459 -0.035547758 -5.2652778e-18)
(-0.029007677 -0.033024033 -8.8375937e-18)
(-0.024711169 -0.030405959 6.0540192e-19)
(-0.021293897 -0.027854287 6.6340841e-18)
(-0.018593768 -0.025475794 1.7278898e-18)
(-0.01645724 -0.023329579 -7.0568951e-18)
(-0.014748713 -0.021436197 -4.3763043e-18)
(-0.013356248 -0.019788992 -1.0173033e-18)
(-0.012192763 -0.018364628 2.0156074e-18)
(-0.011194168 -0.017131701 1.5223637e-18)
(-0.010315805 -0.016057059 -1.3700483e-18)
(-0.0095281869 -0.015109996 -1.6797523e-18)
(-0.0088127971 -0.014264501 8.4205336e-19)
(-0.0081584123 -0.013500031 2.1628239e-18)
(-0.0075581938 -0.01280123 -1.9311846e-18)
(-0.0070076199 -0.012157073 -1.2104482e-18)
(-0.0065031775 -0.011559811 2.7363976e-19)
(-0.0060416484 -0.011003982 4.0892075e-19)
(-0.0056198058 -0.010485592 1.111768e-18)
(-0.0052343622 -0.010001519 -1.3454948e-18)
(-0.0048820392 -0.0095491269 -6.3973257e-19)
(-0.0045596717 -0.0091260516 -1.52163e-19)
(-0.0042642971 -0.0087300987 2.4798015e-19)
(-0.0039932106 -0.0083592092 7.4264942e-19)
(-0.0037439859 -0.0080114559 -4.8585106e-19)
(-0.0035144692 -0.0076850506 -2.1360925e-19)
(-0.0033027574 -0.0073783476 1.0333709e-19)
(-0.0031071694 -0.0070898436 2.9889826e-19)
(-0.0029262162 -0.0068181703 6.9232985e-19)
(-0.0027585741 -0.0065620844 -5.7433163e-19)
(-0.0026030616 -0.0063204557 -3.0355748e-19)
(-0.0024586203 -0.0060922551 2.4385174e-19)
(-0.0023242993 -0.0058765439 2.1850895e-21)
(-0.0021992424 -0.0056724636 1.4900902e-19)
(-0.0020826772 -0.0054792278 -3.8495207e-19)
(-0.0019739056 -0.0052961148 -6.9965135e-20)
(-0.0018722958 -0.0051224612 9.349876e-20)
(-0.0017772754 -0.0049576564 -1.2110507e-21)
(-0.0016883248 -0.0048011377 2.1500832e-19)
(0.0047446703 0.030468629 -1.856822e-16)
(0.010793474 0.030706308 -2.1753977e-16)
(0.01768568 0.032486895 2.1965681e-16)
(0.024947132 0.035364564 1.1530247e-16)
(0.032286404 0.041020428 9.5056523e-17)
(0.038816254 0.048775238 -1.7027485e-16)
(0.044287944 0.058885135 -6.8638085e-17)
(0.048060738 0.070987195 -5.3127328e-17)
(0.049807647 0.084646431 1.4955773e-17)
(0.049289564 0.099383872 1.0364067e-17)
(0.046378947 0.11468814 3.5183341e-18)
(0.041043574 0.13004634 1.8035114e-17)
(0.033335215 0.14497089 1.104582e-18)
(0.023369089 0.15900268 1.6756371e-17)
(0.011318123 0.17172149 2.1537683e-17)
(-0.0026594467 0.18276976 2.1864071e-17)
(-0.018280868 0.19177141 1.5632128e-17)
(-0.035271709 0.19840865 3.4820552e-17)
(-0.053337824 0.20238319 3.8496099e-18)
(-0.072132215 0.20341359 -4.9651385e-17)
(-0.091248591 0.20123863 -1.251047e-16)
(-0.11020201 0.19563334 -7.6202491e-17)
(-0.12841561 0.18643988 -4.4950261e-17)
(-0.14521666 0.17361121 -5.3623137e-17)
(-0.15985548 0.15726834 -6.0070658e-17)
(-0.17156328 0.13776231 -3.8406047e-17)
(-0.17965046 0.11571526 1.6840073e-17)
(-0.18360985 0.092004825 5.7578266e-17)
(-0.18320063 0.067692795 7.1570023e-17)
(-0.17851431 0.043916553 4.0746713e-17)
(-0.16998216 0.021741756 1.2035469e-16)
(-0.15828849 0.0020194249 1.2909141e-16)
(-0.14426616 -0.014604693 7.7207359e-17)
(-0.12887874 -0.027859205 7.6601937e-17)
(-0.11298597 -0.037709965 6.0179816e-17)
(-0.097347382 -0.04435153 9.3282279e-17)
(-0.0825682 -0.048140761 8.1921661e-17)
(-0.069082388 -0.049531877 2.848917e-17)
(-0.057159977 -0.049020669 2.9778885e-17)
(-0.046928658 -0.047102895 1.1208491e-17)
(-0.038394353 -0.044242487 -1.2938393e-18)
(-0.031464807 -0.040844502 -1.1282433e-18)
(-0.025978628 -0.037242087 -1.7907107e-18)
(-0.021732197 -0.033690225 -2.8780566e-18)
(-0.018504065 -0.030367889 1.4926574e-18)
(-0.016074476 -0.02738241 -1.9842864e-18)
(-0.014241636 -0.024779625 -5.4711928e-18)
(-0.012834055 -0.022557465 -3.7639284e-18)
(-0.011716772 -0.020682698 -1.0744876e-18)
(-0.010790732 -0.019105805 3.3152582e-19)