/*--------------------------------*- C++ -*----------------------------------*\
| =========                 |                                                 |
| \\      /  F ield         | OpenFOAM: The Open Source CFD Toolbox           |
|  \\    /   O peration     | Version:  2106                                  |
|   \\  /    A nd           | Website:  www.openfoam.com                      |
|    \\/     M anipulation  |                                                 |
\*---------------------------------------------------------------------------*/
FoamFile
{
    version     2.0;
    format      ascii;
    arch        "LSB;label=32;scalar=64";
    class       surfaceScalarField;
    location    "0.04";
    object      phi_0;
}
// * * * * * * * * * * * * * * * * * * * * * * * * * * * * * * * * * * * * * //

dimensions      [0 3 -1 0 0 0 0];

oriented        oriented;

internalField   nonuniform List<scalar> 
8064
(
-4.9329115e-05
4.9329115e-05
-9.8191074e-05
4.8861959e-05
-0.00014612288
4.7931803e-05
-0.00019266981
4.6546938e-05
-0.00023738956
4.4719746e-05
-0.00027985618
4.2466624e-05
-0.00031966407
3.9807888e-05
-0.00035643172
3.6767648e-05
-0.00038980536
3.3373636e-05
-0.00041946237
2.9657015e-05
-0.00044511451
2.5652138e-05
-0.00046651078
2.1396271e-05
-0.00048344006
1.6929282e-05
-0.00049573334
1.2293279e-05
-0.00050326552
7.5321821e-06
-0.00050595715
2.6916217e-06
-0.00050377508
-2.1820684e-06
-0.00049673321
-7.0418685e-06
-0.00048489258
-1.1840627e-05
-0.00046836103
-1.653155e-05
-0.00044729235
-2.106868e-05
-0.000421885
-2.5407355e-05
-0.00039238034
-2.950466e-05
-0.00035906046
-3.3319879e-05
-0.00032224553
-3.6814924e-05
-0.00028229079
-3.9954747e-05
-0.00023958306
-4.2707728e-05
-0.00019453703
-4.5046032e-05
-0.00014759109
-4.6945936e-05
-9.9202986e-05
-4.8388103e-05
-4.9845169e-05
-4.9357818e-05
1.3520853e-14
-4.9845169e-05
4.9845169e-05
-4.9845169e-05
9.9202986e-05
-4.9357818e-05
0.00014759109
-4.8388103e-05
0.00019453703
-4.6945936e-05
0.00023958306
-4.5046032e-05
0.00028229079
-4.2707728e-05
0.00032224553
-3.9954747e-05
0.00035906046
-3.6814924e-05
0.00039238034
-3.3319879e-05
0.000421885
-2.950466e-05
0.00044729235
-2.5407355e-05
0.00046836103
-2.106868e-05
0.00048489258
-1.653155e-05
0.00049673321
-1.1840627e-05
0.00050377508
-7.0418685e-06
0.00050595715
-2.1820684e-06
0.00050326552
2.6916218e-06
0.00049573334
7.5321821e-06
0.00048344006
1.2293279e-05
0.00046651078
1.6929282e-05
0.00044511451
2.1396271e-05
0.00041946237
2.5652138e-05
0.00038980536
2.9657015e-05
0.00035643172
3.3373636e-05
0.00031966407
3.6767648e-05
0.00027985618
3.9807888e-05
0.00023738956
4.2466624e-05
0.00019266981
4.4719746e-05
0.00014612288
4.6546938e-05
9.8191074e-05
4.7931803e-05
4.9329115e-05
4.8861959e-05
4.9329115e-05
-4.9817217e-05
9.9146332e-05
-9.9162808e-05
9.820755e-05
-0.00014756933
9.6338329e-05
-0.00019457771
9.355531e-05
-0.0002397413
8.9883342e-05
-0.00028263002
8.5355346e-05
-0.00032283425
8.0012114e-05
-0.00035996866
7.3902057e-05
-0.0003936759
6.7080882e-05
-0.00042363008
5.9611189e-05
-0.00044953994
5.1562001e-05
-0.00047115188
4.3008209e-05
-0.00048825253
3.4029936e-05
-0.00050067109
2.4711831e-05
-0.0005082812
1.5142293e-05
-0.00051100234
5.4127649e-06
-0.00050880101
-4.383398e-06
-0.0005016912
-1.4151684e-05
-0.0004897345
-2.3797319e-05
-0.0004730398
-3.3226251e-05
-0.00045176238
-4.23461e-05
-0.00042610265
-5.1067085e-05
-0.00039630437
-5.9302946e-05
-0.00036265241
-6.6971838e-05
-0.00032547014
-7.3997196e-05
-0.00028511632
-8.0308563e-05
-0.00024198168
-8.5842374e-05
-0.00019648504
-9.0542666e-05
-0.00014906924
-9.4361738e-05
-0.00010019664
-9.7260707e-05
-5.034447e-05
-9.9209985e-05
1.3651777e-14
-0.00010018964
5.034447e-05
-0.00010018964
0.00010019664
-9.9209985e-05
0.00014906924
-9.7260707e-05
0.00019648504
-9.4361738e-05
0.00024198168
-9.0542666e-05
0.00028511632
-8.5842374e-05
0.00032547014
-8.0308563e-05
0.00036265241
-7.3997196e-05
0.00039630437
-6.6971838e-05
0.00042610265
-5.9302946e-05
0.00045176238
-5.1067085e-05
0.0004730398
-4.23461e-05
0.0004897345
-3.3226251e-05
0.0005016912
-2.3797319e-05
0.00050880101
-1.4151684e-05
0.00051100234
-4.383398e-06
0.0005082812
5.4127649e-06
0.00050067109
1.5142293e-05
0.00048825253
2.4711831e-05
0.00047115188
3.4029936e-05
0.00044953994
4.3008209e-05
0.00042363008
5.1562001e-05
0.0003936759
5.9611189e-05
0.00035996866
6.7080882e-05
0.00032283425
7.3902057e-05
0.00028263002
8.0012114e-05
0.0002397413
8.5355346e-05
0.00019457771
8.9883342e-05
0.00014756933
9.355531e-05
9.9162808e-05
9.6338329e-05
4.9817217e-05
9.820755e-05
9.9146332e-05
-5.0549231e-05
0.00014969556
-0.0001006201
0.00014827842
-0.00014973849
0.00014545671
-0.00019743869
0.00014125551
-0.00024326762
0.00013571227
-0.0002867889
0.00012887663
-0.00032758687
0.00012081009
-0.00036527048
0.00011158566
-0.00039947699
0.00010128739
-0.00042987554
9.0009741e-05
-0.00045617043
7.7856893e-05
-0.00047810413
6.4941907e-05
-0.00049545996
5.1385771e-05
-0.00050806446
3.7316329e-05
-0.00051578928
2.2867115e-05
-0.00051855266
8.1761395e-06
-0.00051632052
-6.6155392e-06
-0.00050910705
-2.1365152e-05
-0.00049697479
-3.592958e-05
-0.00048003424
-5.0166802e-05
-0.00045844301
-6.3937326e-05
-0.0004324045
-7.7105592e-05
-0.00040216609
-8.9541357e-05
-0.00036801688
-0.00010112105
-0.00033028501
-0.00011172906
-0.00028933456
-0.00012125902
-0.00024556201
-0.00012961492
-0.0001993924
-0.00013671227
-0.00015127512
-0.00014247902
-0.00010167937
-0.00014685645
-5.1089498e-05
-0.00014979986
1.3831742e-14
-0.00015127914
5.1089499e-05
-0.00015127914
0.00010167937
-0.00014979986
0.00015127512
-0.00014685645
0.0001993924
-0.00014247902
0.00024556201
-0.00013671227
0.00028933456
-0.00012961492
0.00033028501
-0.00012125902
0.00036801688
-0.00011172906
0.00040216609
-0.00010112105
0.0004324045
-8.9541357e-05
0.00045844301
-7.7105592e-05
0.00048003424
-6.3937326e-05
0.00049697479
-5.0166802e-05
0.00050910705
-3.592958e-05
0.00051632052
-2.1365152e-05
0.00051855266
-6.6155392e-06
0.00051578928
8.1761396e-06
0.00050806446
2.2867115e-05
0.00049545996
3.7316329e-05
0.00047810413
5.1385771e-05
0.00045617043
6.4941907e-05
0.00042987554
7.7856893e-05
0.00039947699
9.0009741e-05
0.00036527048
0.00010128739
0.00032758687
0.00011158566
0.0002867889
0.00012081009
0.00024326762
0.00012887663
0.00019743869
0.00013571227
0.00014973849
0.00014125551
0.0001006201
0.00014545671
5.0549231e-05
0.00014827842
0.00014969556
-5.1535054e-05
0.00020123062
-0.00010258268
0.00019932604
-0.00015265972
0.00019553376
-0.0002012916
0.00018988739
-0.00024801649
0.00018243717
-0.00029238956
0.00017324969
-0.00033398697
0.0001624075
-0.00037240992
0.00015000861
-0.00040728842
0.00013616589
-0.00043828491
0.00012100623
-0.00046509766
0.00010466964
-0.00048746384
8.7308096e-05
-0.00050516235
6.9084275e-05
-0.00051801612
5.0170099e-05
-0.00052589417
3.0745167e-05
-0.00052871309
1.0995061e-05
-0.00052643814
-8.890494e-06
-0.00051908382
-2.8719471e-05
-0.00050671397
-4.8299422e-05
-0.00048944138
-6.7439399e-05
-0.00046742683
-8.5951872e-05
-0.00044087781
-0.00010365462
-0.0004100466
-0.00012037257
-0.00037522801
-0.00013593963
-0.00033675665
-0.00015020043
-0.00029500371
-0.00016301196
-0.00025037344
-0.00017424519
-0.00020329918
-0.00018378653
-0.00015423911
-0.0001915391
-0.00010367162
-0.00019742394
-5.2090516e-05
-0.00020138096
1.3968208e-14
-0.00020336965
5.2090516e-05
-0.00020336965
0.00010367162
-0.00020138096
0.00015423911
-0.00019742394
0.00020329918
-0.0001915391
0.00025037344
-0.00018378653
0.00029500371
-0.00017424519
0.00033675665
-0.00016301196
0.00037522801
-0.00015020043
0.0004100466
-0.00013593963
0.00044087781
-0.00012037257
0.00046742683
-0.00010365462
0.00048944138
-8.5951872e-05
0.00050671397
-6.7439399e-05
0.00051908382
-4.8299422e-05
0.00052643814
-2.8719471e-05
0.00052871309
-8.890494e-06
0.00052589417
1.0995061e-05
0.00051801612
3.0745167e-05
0.00050516235
5.0170099e-05
0.00048746384
6.9084275e-05
0.00046509765
8.7308096e-05
0.00043828491
0.00010466964
0.00040728842
0.00012100623
0.00037240992
0.00013616589
0.00033398697
0.00015000861
0.00029238956
0.0001624075
0.00024801649
0.00017324969
0.0002012916
0.00018243717
0.00015265972
0.00018988739
0.00010258268
0.00019553376
5.1535054e-05
0.00019932604
0.00020123062
-5.280396e-05
0.00025403458
-0.00010510882
0.00025163091
-0.00015641985
0.00024684478
-0.000206251
0.00023971853
-0.00025412923
0.0002303154
-0.00029959876
0.00021871922
-0.00034222526
0.000205034
-0.0003815999
0.00018938326
-0.00041734332
0.0001719093
-0.0004491093
0.00015277221
-0.00047658832
0.00013214866
-0.00049951073
0.00011023051
-0.00051764966
8.7223204e-05
-0.00053082346
6.3343897e-05
-0.00053889777
3.8819475e-05
-0.00054178708
1.388437e-05
-0.00053945584
-1.1221735e-05
-0.00053191903
-3.6256275e-05
-0.00051924226
-6.0976197e-05
-0.00050154126
-8.5140393e-05
-0.00047898103
-0.00010851211
-0.00045177432
-0.00013086132
-0.0004201798
-0.00015196709
-0.00038449967
-0.00017161977
-0.00034507682
-0.00018962327
-0.00030229164
-0.00020579714
-0.00025655834
-0.00021997849
-0.00020832094
-0.00023202394
-0.00015804885
-0.00024181118
-0.00010623226
-0.00024924054
-5.3377106e-05
-0.00025423611
1.4047853e-14
-0.00025674676
5.3377106e-05
-0.00025674676
0.00010623226
-0.00025423611
0.00015804885
-0.00024924054
0.00020832094
-0.00024181118
0.00025655834
-0.00023202394
0.00030229164
-0.00021997849
0.00034507682
-0.00020579714
0.00038449967
-0.00018962327
0.0004201798
-0.00017161977
0.00045177432
-0.00015196709
0.00047898103
-0.00013086132
0.00050154126
-0.00010851211
0.00051924226
-8.5140393e-05
0.00053191903
-6.0976197e-05
0.00053945584
-3.6256275e-05
0.00054178708
-1.1221735e-05
0.00053889777
1.388437e-05
0.00053082346
3.8819475e-05
0.00051764966
6.3343897e-05
0.00049951073
8.7223204e-05
0.00047658832
0.00011023051
0.0004491093
0.00013214866
0.00041734332
0.00015277221
0.0003815999
0.0001719093
0.00034222526
0.00018938326
0.00029959876
0.000205034
0.00025412923
0.00021871922
0.000206251
0.0002303154
0.00015641985
0.00023971853
0.00010510882
0.00024684478
5.280396e-05
0.00025163091
0.00025403458
-5.4405187e-05
0.00030843976
-0.00010829658
0.0003055223
-0.00016116484
0.00029971304
-0.00021250947
0.00029106316
-0.00026184326
0.0002796492
-0.00030869666
0.00026557262
-0.00035262202
0.00024895936
-0.00039319786
0.0002299591
-0.0004300329
0.00020874435
-0.00046276999
0.00018550929
-0.0004910897
0.00016046837
-0.00051471374
0.00013385456
-0.00053340795
0.00010591741
-0.00054698487
7.6920815e-05
-0.00055530589
4.7140499e-05
-0.00055828291
1.6861382e-05
-0.00055587939
-1.3625252e-05
-0.00054811101
-4.4024657e-05
-0.00053504564
-7.4041568e-05
-0.00051680287
-0.00010338316
-0.00049355303
-0.00013176195
-0.00046551564
-0.00015889872
-0.00043295745
-0.00018452528
-0.00039618999
-0.00020838722
-0.00035556668
-0.00023024658
-0.00031147949
-0.00024988433
-0.00026435518
-0.00026710281
-0.00021465118
-0.00028172793
-0.0001628511
-0.00029361126
-0.0001094599
-0.00030263174
-5.4998807e-05
-0.0003086972
1.3993388e-14
-0.00031174557
5.4998807e-05
-0.00031174557
0.0001094599
-0.0003086972
0.0001628511
-0.00030263174
0.00021465118
-0.00029361126
0.00026435518
-0.00028172793
0.00031147949
-0.00026710281
0.00035556668
-0.00024988433
0.00039618999
-0.00023024658
0.00043295745
-0.00020838722
0.00046551564
-0.00018452528
0.00049355303
-0.00015889872
0.00051680287
-0.00013176195
0.00053504564
-0.00010338316
0.00054811101
-7.4041568e-05
0.00055587939
-4.4024657e-05
0.00055828291
-1.3625251e-05
0.00055530589
1.6861382e-05
0.00054698487
4.7140499e-05
0.00053340795
7.6920815e-05
0.00051471374
0.00010591741
0.0004910897
0.00013385456
0.00046276999
0.00016046837
0.0004300329
0.00018550929
0.00039319786
0.00020874435
0.00035262202
0.0002299591
0.00030869666
0.00024895936
0.00026184326
0.00026557262
0.00021250947
0.0002796492
0.00016116484
0.00029106316
0.00010829658
0.00029971304
5.4405187e-05
0.0003055223
0.00030843976
-5.6408986e-05
0.00036484875
-0.00011228583
0.00036139915
-0.00016710292
0.00035453013
-0.00022034173
0.00034430197
-0.00027149732
0.00033080479
-0.00032008286
0.00031415816
-0.00036563405
0.00029451054
-0.00040771349
0.00027203854
-0.00044591498
0.00024694584
-0.00047986757
0.00021946188
-0.0005092394
0.0001898402
-0.00053374131
0.00015835647
-0.00055312996
0.00012530606
-0.00056721061
9.1001468e-05
-0.00057583937
5.5769258e-05
-0.00057892489
1.9946896e-05
-0.00057642949
-1.6120644e-05
-0.00056836978
-5.2084366e-05
-0.00055481659
-8.7594761e-05
-0.00053589442
-0.00012230532
-0.00051178036
-0.00015587601
-0.00048270247
-0.00018797661
-0.00044893768
-0.00021829006
-0.00041080927
-0.00024651563
-0.00036868383
-0.00027237203
-0.00032296781
-0.00029560035
-0.00027410368
-0.00031596694
-0.00022256563
-0.00033326598
-0.00016885496
-0.00034732193
-0.00011349506
-0.00035799163
-5.7026203e-05
-0.00036516606
1.3842481e-14
-0.00036877177
5.7026203e-05
-0.00036877177
0.00011349506
-0.00036516606
0.00016885496
-0.00035799163
0.00022256563
-0.00034732193
0.00027410368
-0.00033326598
0.00032296781
-0.00031596694
0.00036868383
-0.00029560035
0.00041080927
-0.00027237203
0.00044893768
-0.00024651563
0.00048270247
-0.00021829006
0.00051178036
-0.00018797661
0.00053589442
-0.00015587601
0.00055481659
-0.00012230532
0.00056836978
-8.7594761e-05
0.00057642949
-5.2084366e-05
0.00057892489
-1.6120644e-05
0.00057583937
1.9946896e-05
0.00056721061
5.5769258e-05
0.00055312996
9.1001468e-05
0.00053374131
0.00012530606
0.0005092394
0.00015835647
0.00047986757
0.0001898402
0.00044591498
0.00021946188
0.00040771349
0.00024694584
0.00036563405
0.00027203854
0.00032008286
0.00029451054
0.00027149732
0.00031415816
0.00022034173
0.00033080479
0.00016710292
0.00034430197
0.00011228583
0.00035453013
5.6408986e-05
0.00036139915
0.00036484875
-5.8908273e-05
0.00042375702
-0.00011726155
0.00041975243
-0.00017450951
0.00041177808
-0.00023011112
0.00039990359
-0.00028353936
0.00038423303
-0.00033428583
0.00036490462
-0.0003818654
0.00034209012
-0.00042582082
0.00031599396
-0.00046572716
0.00028685218
-0.0005011962
0.00025493092
-0.0005318805
0.0002205245
-0.00055747723
0.0001839532
-0.0005777316
0.00014556043
-0.00059243975
0.00010570962
-0.00060145119
6.4780698e-05
-0.00060467058
2.316629e-05
-0.00060205892
-1.8732312e-05
-0.00059363404
-6.0509245e-05
-0.00057947058
-0.00010175822
-0.00055969928
-0.00014207662
-0.0005345058
-0.00018106949
-0.00050412892
-0.00021835349
-0.00046885837
-0.00025356061
-0.00042903212
-0.00028634189
-0.00038503319
-0.00031637095
-0.00033728614
-0.0003433474
-0.00028625299
-0.00036700009
-0.00023242879
-0.00038709018
-0.00017633684
-0.00040341388
-0.00011852347
-0.00041580499
-5.9552606e-05
-0.00042413693
1.3612363e-14
-0.00042832437
5.9552606e-05
-0.00042832437
0.00011852347
-0.00042413693
0.00017633684
-0.00041580499
0.00023242879
-0.00040341388
0.00028625299
-0.00038709018
0.00033728614
-0.00036700009
0.00038503319
-0.0003433474
0.00042903212
-0.00031637095
0.00046885837
-0.00028634189
0.00050412892
-0.00025356061
0.0005345058
-0.00021835349
0.00055969928
-0.00018106949
0.00057947058
-0.00014207662
0.00059363404
-0.00010175822
0.00060205892
-6.0509245e-05
0.00060467058
-1.8732312e-05
0.00060145119
2.316629e-05
0.00059243975
6.4780698e-05
0.0005777316
0.00010570962
0.00055747723
0.00014556043
0.0005318805
0.0001839532
0.0005011962
0.0002205245
0.00046572716
0.00025493092
0.00042582082
0.00028685218
0.0003818654
0.00031599396
0.00033428583
0.00034209012
0.00028353936
0.00036490462
0.00023011112
0.00038423303
0.00017450951
0.00039990359
0.00011726155
0.00041177808
5.8908273e-05
0.00041975243
0.00042375702
-6.2020124e-05
0.00048577715
-0.00012345686
0.00048118917
-0.00018373164
0.00047205286
-0.00024227546
0.00045844741
-0.0002985338
0.00044049137
-0.00035197141
0.00041834224
-0.00040207721
0.00039219591
-0.00044836911
0.00036228586
-0.00049039883
0.0003288819
-0.00052775652
0.00029228861
-0.00056007524
0.00025284323
-0.00058703509
0.00021091305
-0.00060836691
0.00016689224
-0.00062385546
0.00012119817
-0.00063334207
7.4267309e-05
-0.00063672649
2.6550703e-05
-0.0006339681
-2.1490704e-05
-0.00062508643
-6.9390909e-05
-0.000610161
-0.00011668366
-0.00058933044
-0.00016290717
-0.00056279119
-0.00020760874
-0.00053079553
-0.00025034915
-0.00049364919
-0.00029070695
-0.00045170847
-0.00032828261
-0.00040537694
-0.00036270248
-0.00035510167
-0.00039362268
-0.00030136899
-0.00042073277
-0.0002446999
-0.00044375926
-0.00018564503
-0.00046246876
-0.00012477916
-0.00047667086
-6.2695579e-05
-0.00048622052
1.3279787e-14
-0.00049101995
6.2695579e-05
-0.00049101995
0.00012477916
-0.00048622052
0.00018564503
-0.00047667086
0.0002446999
-0.00046246876
0.00030136899
-0.00044375926
0.00035510167
-0.00042073277
0.00040537694
-0.00039362268
0.00045170847
-0.00036270248
0.00049364919
-0.00032828261
0.00053079553
-0.00029070695
0.00056279119
-0.00025034915
0.00058933044
-0.00020760874
0.000610161
-0.00016290717
0.00062508643
-0.00011668366
0.0006339681
-6.9390909e-05
0.00063672649
-2.1490704e-05
0.00063334207
2.6550703e-05
0.00062385546
7.4267309e-05
0.00060836691
0.00012119817
0.00058703509
0.00016689224
0.00056007524
0.00021091305
0.00052775652
0.00025284323
0.00049039883
0.00029228861
0.00044836911
0.0003288819
0.00040207721
0.00036228586
0.00035197141
0.00039219591
0.0002985338
0.00041834224
0.00024227546
0.00044049137
0.00018373164
0.00045844741
0.00012345686
0.00047205286
6.2020124e-05
0.00048118917
0.00048577715
-6.5886045e-05
0.00055166319
-0.0001311535
0.00054645662
-0.00019518874
0.00053608809
-0.00025738809
0.00052064676
-0.00031716286
0.00050026614
-0.00037394444
0.00047512382
-0.00042718945
0.00044544093
-0.00047638491
0.00041148132
-0.00052105339
0.00037355038
-0.00056075809
0.00033199331
-0.00059510771
0.00028719285
-0.000623761
0.00023956635
-0.0006464309
0.00018956214
-0.00066288801
0.00013765529
-0.00067296347
8.4342772e-05
-0.00067655099
3.0138224e-05
-0.00067360809
-2.4433604e-05
-0.00066415654
-7.8842462e-05
-0.00064828203
-0.00013255816
-0.00062613322
-0.00018505599
-0.00059792005
-0.00023582191
-0.0005639117
-0.00028435751
-0.00052443386
-0.00033018479
-0.00047986572
-0.00037285075
-0.00043063637
-0.00041193182
-0.00037722085
-0.00044703819
-0.0003201357
-0.00047781792
-0.00025993409
-0.00050396087
-0.0001972005
-0.00052520236
-0.000132545
-0.00054132635
-6.6597232e-05
-0.00055216829
1.2701158e-14
-0.00055761719
6.6597232e-05
-0.00055761719
0.000132545
-0.00055216829
0.0001972005
-0.00054132635
0.00025993409
-0.00052520236
0.0003201357
-0.00050396087
0.00037722085
-0.00047781792
0.00043063637
-0.00044703819
0.00047986572
-0.00041193182
0.00052443386
-0.00037285075
0.0005639117
-0.00033018479
0.00059792005
-0.00028435751
0.00062613322
-0.00023582191
0.00064828203
-0.00018505599
0.00066415654
-0.00013255816
0.00067360809
-7.8842462e-05
0.00067655099
-2.4433604e-05
0.00067296347
3.0138225e-05
0.00066288801
8.4342772e-05
0.0006464309
0.00013765529
0.000623761
0.00018956214
0.00059510771
0.00023956635
0.00056075809
0.00028719285
0.00052105339
0.00033199331
0.00047638491
0.00037355038
0.00042718945
0.00041148132
0.00037394444
0.00044544093
0.00031716286
0.00047512382
0.00025738809
0.00050026614
0.00019518874
0.00052064676
0.0001311535
0.00053608809
6.5886045e-05
0.00054645662
0.00055166319
-7.0669663e-05
0.00062233285
-0.00014067725
0.00061646421
-0.00020936583
0.00060477668
-0.00027608886
0.00058736979
-0.00034021542
0.0005643927
-0.0004011356
0.000536044
-0.00045826602
0.00050257134
-0.00051105536
0.00046427066
-0.00055899004
0.00042148505
-0.00060159975
0.00037460302
-0.00063846291
0.00032405601
-0.00066921175
0.00027031518
-0.00069353692
0.00021388731
-0.00071119146
0.00015530983
-0.00072199393
9.5145246e-05
-0.00072583065
3.3974939e-05
-0.00072265693
-2.7607317e-05
-0.00071249749
-8.9001904e-05
-0.00069544588
-0.00014960977
-0.00067166327
-0.0002088386
-0.00064137654
-0.00026610864
-0.00060487587
-0.00032085818
-0.00056251179
-0.00037254887
-0.00051469184
-0.0004206707
-0.00046187675
-0.00046474691
-0.00040457619
-0.00050433876
-0.00034334404
-0.00053905008
-0.00027877321
-0.00056853171
-0.00021149001
-0.00059248555
-0.00014214807
-0.00061066829
-7.1421872e-05
-0.00062289448
1.1630841e-14
-0.00062903906
7.1421872e-05
-0.00062903906
0.00014214807
-0.00062289448
0.00021149001
-0.00061066829
0.00027877321
-0.00059248555
0.00034334404
-0.00056853171
0.00040457619
-0.00053905008
0.00046187675
-0.00050433876
0.00051469184
-0.00046474691
0.00056251179
-0.0004206707
0.00060487587
-0.00037254887
0.00064137654
-0.00032085818
0.00067166327
-0.00026610864
0.00069544588
-0.0002088386
0.00071249749
-0.00014960977
0.00072265693
-8.9001904e-05
0.00072583065
-2.7607317e-05
0.00072199393
3.3974939e-05
0.00071119146
9.5145247e-05
0.00069353692
0.00015530983
0.00066921175
0.00021388731
0.00063846291
0.00027031518
0.00060159975
0.00032405601
0.00055899004
0.00037460302
0.00051105536
0.00042148505
0.00045826602
0.00046427066
0.0004011356
0.00050257134
0.00034021542
0.000536044
0.00027608886
0.0005643927
0.00020936583
0.00058736979
0.00014067725
0.00060477668
7.0669663e-05
0.00061646421
0.00062233285
-7.6550174e-05
0.00069888303
-0.00015238489
0.00069229893
-0.0002267941
0.00067918588
-0.00029907857
0.00065965426
-0.00036855551
0.00063386964
-0.00043456425
0.00060205274
-0.00049647217
0.00056447926
-0.00055368077
0.00052147926
-0.00060563185
0.00047343614
-0.00065181377
0.00042078494
-0.00069176755
0.00036400979
-0.00072509264
0.00030364027
-0.0007514522
0.00024024687
-0.00077057761
0.00017443523
-0.00078227198
0.00010683962
-0.00078641263
3.8115591e-05
-0.00078295237
-3.1067583e-05
-0.00077191968
-0.00010003459
-0.000753418
-0.00016811145
-0.0007276241
-0.00023463251
-0.00069478581
-0.00029894692
-0.0006552193
-0.0003604247
-0.00060930571
-0.00041846245
-0.00055748754
-0.00047248887
-0.00050026443
-0.00052197002
-0.00043818862
-0.00056641456
-0.00037185988
-0.00060537882
-0.00030191994
-0.00063847165
-0.00022904643
-0.00066535906
-0.0001539464
-0.00068576832
-7.7349368e-05
-0.00069949152
9.9740275e-15
-0.00070638843
7.7349368e-05
-0.00070638843
0.0001539464
-0.00069949152
0.00022904643
-0.00068576832
0.00030191994
-0.00066535906
0.00037185988
-0.00063847165
0.00043818862
-0.00060537882
0.00050026443
-0.00056641456
0.00055748754
-0.00052197002
0.00060930571
-0.00047248887
0.0006552193
-0.00041846245
0.00069478581
-0.0003604247
0.0007276241
-0.00029894692
0.000753418
-0.00023463251
0.00077191968
-0.00016811145
0.00078295237
-0.00010003459
0.00078641263
-3.1067583e-05
0.00078227198
3.8115591e-05
0.00077057761
0.00010683962
0.0007514522
0.00017443523
0.00072509264
0.00024024687
0.00069176755
0.00030364027
0.00065181377
0.00036400979
0.00060563185
0.00042078494
0.00055368077
0.00047343614
0.00049647217
0.00052147926
0.00043456425
0.00056447926
0.00036855551
0.00060205274
0.00029907857
0.00063386964
0.0002267941
0.00065965426
0.00015238489
0.00067918588
7.6550174e-05
0.00069229893
0.00069888303
-8.3709692e-05
0.00078259272
-0.00016663904
0.00077522828
-0.00024801338
0.00076056022
-0.00032706944
0.00073871032
-0.00040306129
0.00070986149
-0.00047526647
0.00067425792
-0.00054299236
0.00063220515
-0.0006055829
0.00058406979
-0.00066242544
0.00053027868
-0.00071295782
0.00047131732
-0.00075667529
0.00040772726
-0.00079313721
0.00034010219
-0.00082197314
0.00026908279
-0.00084288799
0.00019535009
-0.00085566613
0.00011961776
-0.00086017405
4.2623514e-05
-0.00085636169
-3.4879948e-05
-0.0008442624
-0.00011213387
-0.00082399188
-0.00018838198
-0.00079574607
-0.00026287831
-0.00075979854
-0.00033489445
-0.00071649717
-0.00040372606
-0.00066626052
-0.00046869911
-0.00060957367
-0.00052917572
-0.00054698371
-0.00058455998
-0.00047909474
-0.00063430354
-0.00040656235
-0.00067791121
-0.00033008765
-0.00071494635
-0.0002504107
-0.00074503601
-0.00016830347
-0.00076787554
-8.45623e-05
-0.00078323269
7.8909279e-15
-0.00079095073
8.45623e-05
-0.00079095073
0.00016830347
-0.00078323269
0.0002504107
-0.00076787554
0.00033008765
-0.00074503601
0.00040656235
-0.00071494635
0.00047909474
-0.00067791121
0.00054698371
-0.00063430354
0.00060957367
-0.00058455998
0.00066626052
-0.00052917572
0.00071649717
-0.00046869911
0.00075979854
-0.00040372606
0.00079574607
-0.00033489445
0.00082399188
-0.00026287831
0.0008442624
-0.00018838198
0.00085636169
-0.00011213387
0.00086017405
-3.4879948e-05
0.00085566613
4.2623514e-05
0.00084288799
0.00011961776
0.00082197314
0.00019535009
0.00079313721
0.00026908279
0.00075667529
0.00034010219
0.00071295782
0.00040772726
0.00066242544
0.00047131732
0.0006055829
0.00053027868
0.00054299236
0.00058406979
0.00047526647
0.00063220515
0.00040306129
0.00067425792
0.00032706944
0.00070986149
0.00024801338
0.00073871032
0.00016663904
0.00076056022
8.3709692e-05
0.00077522828
0.00078259272
-9.2312535e-05
0.00087490525
-0.00018376687
0.00086668261
-0.00027351079
0.00085030414
-0.00036070416
0.00082590369
-0.00044452524
0.00079368258
-0.00052417731
0.00075390999
-0.00059889562
0.00070692347
-0.00066795481
0.00065312898
-0.00073067664
0.00059300051
-0.00078643799
0.00052707867
-0.00083467886
0.00045596814
-0.00087491021
0.00038033354
-0.00090672099
0.00030089357
-0.00092978431
0.0002184134
-0.00094386204
0.00013369549
-0.00094880787
4.7569342e-05
-0.00094456856
-3.9119253e-05
-0.00093118366
-0.00012551878
-0.00090878383
-0.0002107818
-0.00087758835
-0.0002940738
-0.00083790178
-0.00037458102
-0.0007901103
-0.00045151755
-0.00073467744
-0.00052413196
-0.00067213956
-0.0005917136
-0.0006031008
-0.00065359874
-0.00052822757
-0.00070917677
-0.00044824257
-0.0007578962
-0.00036391822
-0.0007992707
-0.0002760695
-0.00083288473
-0.00018554623
-0.00085839881
-9.3224904e-05
-0.00087555402
5.6789345e-15
-0.00088417563
9.3224904e-05
-0.00088417563
0.00018554623
-0.00087555402
0.0002760695
-0.00085839881
0.00036391822
-0.00083288473
0.00044824257
-0.0007992707
0.00052822757
-0.0007578962
0.0006031008
-0.00070917677
0.00067213956
-0.00065359874
0.00073467744
-0.0005917136
0.0007901103
-0.00052413196
0.00083790178
-0.00045151755
0.00087758835
-0.00037458102
0.00090878383
-0.0002940738
0.00093118366
-0.0002107818
0.00094456856
-0.00012551878
0.00094880787
-3.9119253e-05
0.00094386204
4.7569342e-05
0.00092978431
0.00013369549
0.00090672099
0.0002184134
0.00087491021
0.00030089357
0.00083467886
0.00038033354
0.00078643799
0.00045596814
0.00073067664
0.00052707867
0.00066795481
0.00059300051
0.00059889562
0.00065312898
0.00052417731
0.00070692347
0.00044452524
0.00075390999
0.00036070416
0.00079368258
0.00027351079
0.00082590369
0.00018376687
0.00085030414
9.2312535e-05
0.00086668261
0.00087490525
-0.00010247465
0.00097737991
-0.00020399926
0.00096820721
-0.00030363011
0.00094993499
-0.00040043637
0.00092270995
-0.00049350681
0.00088675302
-0.00058195699
0.00084236017
-0.00066493691
0.00078990339
-0.00074163921
0.00072983129
-0.00081130794
0.00066266924
-0.00087324766
0.00058901839
-0.00092683282
0.00050955329
-0.00097151681
0.00042501753
-0.0010068405
0.00033621722
-0.0010324392
0.00024401211
-0.0010480484
0.00014930471
-0.001053507
5.3027937e-05
-0.0010487584
-4.3867822e-05
-0.0010338499
-0.00014042726
-0.0010089303
-0.00023570144
-0.00097424647
-0.00032875761
-0.00093013987
-0.00041868761
-0.00087704191
-0.00050461551
-0.00081546934
-0.00058570453
-0.00074601913
-0.00066116381
-0.00066936286
-0.00073025502
-0.00058624062
-0.00079229901
-0.00049745439
-0.00084668243
-0.0004038608
-0.00089286429
-0.00030636321
-0.00093038232
-0.0002059033
-0.00095885872
-0.00010345199
-0.00097800533
3.550101e-15
-0.00098762762
0.00010345199
-0.00098762762
0.0002059033
-0.00097800533
0.00030636321
-0.00095885872
0.0004038608
-0.00093038232
0.00049745439
-0.00089286429
0.00058624062
-0.00084668243
0.00066936286
-0.00079229901
0.00074601913
-0.00073025502
0.00081546934
-0.00066116381
0.00087704191
-0.00058570453
0.00093013987
-0.00050461551
0.00097424647
-0.00041868761
0.0010089303
-0.00032875761
0.0010338499
-0.00023570144
0.0010487584
-0.00014042726
0.001053507
-4.3867822e-05
0.0010480484
5.3027937e-05
0.0010324392
0.00014930471
0.0010068405
0.00024401211
0.00097151681
0.00033621722
0.00092683282
0.00042501753
0.00087324766
0.00050955329
0.00081130794
0.00058901839
0.00074163921
0.00066266924
0.00066493691
0.00072983129
0.00058195699
0.00078990339
0.00049350681
0.00084236017
0.00040043637
0.00088675302
0.00030363011
0.00092270995
0.00020399926
0.00094993499
0.00010247465
0.00096820721
0.00097737991
-0.00011422197
0.0010916019
-0.00022738785
0.0010813731
-0.00033844831
0.0010609955
-0.00044636777
0.0010306294
-0.00055013163
0.00099051687
-0.00064875407
0.00094098261
-0.00074128647
0.00088243578
-0.00082682651
0.00081537133
-0.0009045281
0.00074037082
-0.00097361182
0.00065810212
-0.0010333758
0.00056931731
-0.0010832066
0.00047484832
-0.001122589
0.00037559959
-0.0011511147
0.00027253782
-0.0011684889
0.00016667889
-0.0011745338
5.9072842e-05
-0.0011691897
-4.9211902e-05
-0.0011525135
-0.00015710351
-0.0011246752
-0.00026353976
-0.0010859541
-0.0003674787
-0.0010367342
-0.00046790753
-0.00097749916
-0.00056385051
-0.00090882737
-0.00065437632
-0.00083138587
-0.00073860531
-0.0007459243
-0.00081571659
-0.00065326804
-0.00088495527
-0.00055431077
-0.0009456397
-0.00045000644
-0.00099716863
-0.00034136051
-0.0010390282
-0.00022942062
-0.0010707986
-0.00011526659
-0.0010921594
1.5593379e-15
-0.0011028942
0.00011526659
-0.0011028942
0.00022942062
-0.0010921594
0.00034136051
-0.0010707986
0.00045000644
-0.0010390282
0.00055431077
-0.00099716863
0.00065326804
-0.0009456397
0.0007459243
-0.00088495527
0.00083138587
-0.00081571659
0.00090882737
-0.00073860531
0.00097749916
-0.00065437632
0.0010367342
-0.00056385051
0.0010859541
-0.00046790753
0.0011246752
-0.0003674787
0.0011525135
-0.00026353976
0.0011691897
-0.00015710351
0.0011745338
-4.9211902e-05
0.0011684889
5.9072842e-05
0.0011511147
0.00016667889
0.001122589
0.00027253782
0.0010832066
0.00037559959
0.0010333758
0.00047484832
0.00097361182
0.00056931731
0.0009045281
0.00065810212
0.00082682651
0.00074037082
0.00074128647
0.00081537133
0.00064875407
0.00088243578
0.00055013163
0.00094098261