/*--------------------------------*- C++ -*----------------------------------*\
| =========                 |                                                 |
| \\      /  F ield         | OpenFOAM: The Open Source CFD Toolbox           |
|  \\    /   O peration     | Version:  2106                                  |
|   \\  /    A nd           | Website:  www.openfoam.com                      |
|    \\/     M anipulation  |                                                 |
\*---------------------------------------------------------------------------*/
FoamFile
{
    version     2.0;
    format      ascii;
    arch        "LSB;label=32;scalar=64";
    class       surfaceScalarField;
    location    "3.7";
    object      phi;
}
// * * * * * * * * * * * * * * * * * * * * * * * * * * * * * * * * * * * * * //

dimensions      [0 3 -1 0 0 0 0];

oriented        oriented;

internalField   nonuniform List<scalar> 
179250
(
-1.20925e-06
1.20925e-06
-2.4156e-06
1.20635e-06
-3.61718e-06
1.20158e-06
-4.81207e-06
1.19489e-06
-5.9983e-06
1.18623e-06
-7.17389e-06
1.17559e-06
-8.33686e-06
1.16296e-06
-9.48521e-06
1.14835e-06
-1.0617e-05
1.13177e-06
-1.17302e-05
1.11324e-06
-1.2823e-05
1.09278e-06
-1.38934e-05
1.07043e-06
-1.49397e-05
1.04622e-06
-1.59598e-05
1.02019e-06
-1.69522e-05
9.92388e-07
-1.79151e-05
9.62851e-07
-1.88467e-05
9.31632e-07
-1.97455e-05
8.98785e-07
-2.06099e-05
8.64365e-07
-2.14383e-05
8.28429e-07
-2.22293e-05
7.91041e-07
-2.29816e-05
7.52262e-07
-2.36938e-05
7.12161e-07
-2.43646e-05
6.70806e-07
-2.49928e-05
6.28267e-07
-2.55775e-05
5.84618e-07
-2.61174e-05
5.39934e-07
-2.66117e-05
4.94292e-07
-2.70594e-05
4.47771e-07
-2.74599e-05
4.00452e-07
-2.78123e-05
3.52416e-07
-2.81161e-05
3.03747e-07
-2.83706e-05
2.5453e-07
-2.85754e-05
2.04849e-07
-2.87302e-05
1.54793e-07
-2.88347e-05
1.04447e-07
-2.88886e-05
5.39005e-08
-2.88918e-05
3.24122e-09
-2.88444e-05
-4.7442e-08
-2.87463e-05
-9.806e-08
-2.85978e-05
-1.48524e-07
-2.83991e-05
-1.98745e-07
-2.81504e-05
-2.48635e-07
-2.78523e-05
-2.98105e-07
-2.75052e-05
-3.47068e-07
-2.71098e-05
-3.95438e-07
-2.66667e-05
-4.43129e-07
-2.61766e-05
-4.90056e-07
-2.56405e-05
-5.36135e-07
-2.50592e-05
-5.81285e-07
-2.44338e-05
-6.25425e-07
-2.37653e-05
-6.68477e-07
-2.30549e-05
-7.10364e-07
-2.23039e-05
-7.5101e-07
-2.15136e-05
-7.90344e-07
-2.06853e-05
-8.28294e-07
-1.98205e-05
-8.64792e-07
-1.89207e-05
-8.99773e-07
-1.79875e-05
-9.33174e-07
-1.70226e-05
-9.64935e-07
-1.60276e-05
-9.94999e-07
-1.50043e-05
-1.02331e-06
-1.39545e-05
-1.04982e-06
-1.288e-05
-1.07448e-06
-1.17828e-05
-1.09724e-06
-1.06647e-05
-1.11807e-06
-9.52776e-06
-1.13693e-06
-8.37398e-06
-1.15377e-06
-7.2054e-06
-1.16858e-06
-6.02408e-06
-1.18132e-06
-4.8321e-06
-1.19198e-06
-3.63157e-06
-1.20053e-06
-2.42462e-06
-1.20695e-06
-1.21338e-06
-1.21124e-06
2.40242e-13
-1.21338e-06
1.21338e-06
-1.21338e-06
2.42462e-06
-1.21124e-06
3.63157e-06
-1.20695e-06
4.8321e-06
-1.20053e-06
6.02408e-06
-1.19198e-06
7.2054e-06
-1.18132e-06
8.37398e-06
-1.16858e-06
9.52776e-06
-1.15377e-06
1.06647e-05
-1.13693e-06
1.17828e-05
-1.11807e-06
1.288e-05
-1.09724e-06
1.39545e-05
-1.07448e-06
1.50043e-05
-1.04982e-06
1.60276e-05
-1.02331e-06
1.70226e-05
-9.94999e-07
1.79875e-05
-9.64935e-07
1.89207e-05
-9.33174e-07
1.98205e-05
-8.99773e-07
2.06853e-05
-8.64792e-07
2.15136e-05
-8.28294e-07
2.23039e-05
-7.90344e-07
2.30549e-05
-7.5101e-07
2.37653e-05
-7.10364e-07
2.44338e-05
-6.68477e-07
2.50592e-05
-6.25425e-07
2.56405e-05
-5.81285e-07
2.61766e-05
-5.36135e-07
2.66667e-05
-4.90056e-07
2.71098e-05
-4.43129e-07
2.75052e-05
-3.95438e-07
2.78523e-05
-3.47068e-07
2.81504e-05
-2.98105e-07
2.83991e-05
-2.48635e-07
2.85978e-05
-1.98745e-07
2.87463e-05
-1.48524e-07
2.88444e-05
-9.806e-08
2.88918e-05
-4.7442e-08
2.88886e-05
3.24121e-09
2.88347e-05
5.39005e-08
2.87302e-05
1.04447e-07
2.85754e-05
1.54793e-07
2.83706e-05
2.04849e-07
2.81161e-05
2.5453e-07
2.78123e-05
3.03747e-07
2.74599e-05
3.52416e-07
2.70594e-05
4.00452e-07
2.66117e-05
4.47771e-07
2.61174e-05
4.94292e-07
2.55775e-05
5.39934e-07
2.49928e-05
5.84618e-07
2.43646e-05
6.28267e-07
2.36938e-05
6.70806e-07
2.29816e-05
7.12161e-07
2.22293e-05
7.52262e-07
2.14383e-05
7.91041e-07
2.06099e-05
8.28429e-07
1.97455e-05
8.64365e-07
1.88467e-05
8.98785e-07
1.79151e-05
9.31632e-07
1.69522e-05
9.62851e-07
1.59598e-05
9.92388e-07
1.49397e-05
1.02019e-06
1.38934e-05
1.04622e-06
1.2823e-05
1.07043e-06
1.17302e-05
1.09278e-06
1.0617e-05
1.11324e-06
9.48521e-06
1.13177e-06
8.33686e-06
1.14835e-06
7.17389e-06
1.16296e-06
5.9983e-06
1.17559e-06
4.81207e-06
1.18623e-06
3.61718e-06
1.19489e-06
2.4156e-06
1.20158e-06
1.20925e-06
1.20635e-06
1.20925e-06
-1.21216e-06
2.42141e-06
-2.4214e-06
2.41559e-06
-3.62584e-06
2.40601e-06
-4.82355e-06
2.3926e-06
-6.01259e-06
2.37527e-06
-7.19096e-06
2.35396e-06
-8.35667e-06
2.32868e-06
-9.50774e-06
2.29942e-06
-1.06422e-05
2.26622e-06
-1.17581e-05
2.22912e-06
-1.28534e-05
2.18816e-06
-1.39264e-05
2.14341e-06
-1.49751e-05
2.09493e-06
-1.59977e-05
2.04281e-06
-1.69925e-05
1.98714e-06
-1.79576e-05
1.928e-06
-1.88915e-05
1.86549e-06
-1.97924e-05
1.79971e-06
-2.06588e-05
1.73079e-06
-2.14893e-05
1.65884e-06
-2.22822e-05
1.58397e-06
-2.30363e-05
1.50633e-06
-2.37501e-05
1.42603e-06
-2.44225e-05
1.34322e-06
-2.50523e-05
1.25804e-06
-2.56383e-05
1.17064e-06
-2.61796e-05
1.08117e-06
-2.66751e-05
9.89779e-07
-2.71239e-05
8.96628e-07
-2.75254e-05
8.01877e-07
-2.78786e-05
7.05692e-07
-2.81831e-05
6.08239e-07
-2.84383e-05
5.09688e-07
-2.86436e-05
4.10209e-07
-2.87988e-05
3.09977e-07
-2.89035e-05
2.09166e-07
-2.89576e-05
1.07952e-07
-2.89609e-05
6.51188e-09
-2.89133e-05
-9.49757e-08
-2.88151e-05
-1.96333e-07
-2.86662e-05
-2.97382e-07
-2.8467e-05
-3.97945e-07
-2.82178e-05
-4.97844e-07
-2.7919e-05
-5.96903e-07
-2.75711e-05
-6.94948e-07
-2.71747e-05
-7.91804e-07
-2.67306e-05
-8.87301e-07
-2.62394e-05
-9.81267e-07
-2.5702e-05
-1.07354e-06
-2.51193e-05
-1.16395e-06
-2.44924e-05
-1.25234e-06
-2.38223e-05
-1.33854e-06
-2.31103e-05
-1.42242e-06
-2.23575e-05
-1.50381e-06
-2.15652e-05
-1.58257e-06
-2.0735e-05
-1.65856e-06
-1.98681e-05
-1.73165e-06
-1.89662e-05
-1.8017e-06
-1.80308e-05
-1.86858e-06
-1.70635e-05
-1.93218e-06
-1.60661e-05
-1.99238e-06
-1.50404e-05
-2.04908e-06
-1.3988e-05
-2.10216e-06
-1.2911e-05
-2.15154e-06
-1.18111e-05
-2.19712e-06
-1.06903e-05
-2.23883e-06
-9.55068e-06
-2.27659e-06
-8.39413e-06
-2.31032e-06
-7.22274e-06
-2.33997e-06
-6.03857e-06
-2.36549e-06
-4.84373e-06
-2.38683e-06
-3.64031e-06
-2.40394e-06
-2.43046e-06
-2.4168e-06
-1.21631e-06
-2.42539e-06
2.03145e-13
-2.42969e-06
1.21631e-06
-2.42969e-06
2.43046e-06
-2.42539e-06
3.64031e-06
-2.4168e-06
4.84373e-06
-2.40394e-06
6.03857e-06
-2.38683e-06
7.22274e-06
-2.36549e-06
8.39413e-06
-2.33997e-06
9.55068e-06
-2.31032e-06
1.06903e-05
-2.27659e-06
1.18111e-05
-2.23883e-06
1.2911e-05
-2.19712e-06
1.3988e-05
-2.15154e-06
1.50404e-05
-2.10216e-06
1.60661e-05
-2.04908e-06
1.70635e-05
-1.99238e-06
1.80308e-05
-1.93218e-06
1.89662e-05
-1.86858e-06
1.98681e-05
-1.8017e-06
2.0735e-05
-1.73165e-06
2.15652e-05
-1.65856e-06
2.23575e-05
-1.58257e-06
2.31103e-05
-1.50381e-06
2.38223e-05
-1.42242e-06
2.44924e-05
-1.33854e-06
2.51193e-05
-1.25234e-06
2.5702e-05
-1.16395e-06
2.62394e-05
-1.07354e-06
2.67306e-05
-9.81267e-07
2.71747e-05
-8.87301e-07
2.75711e-05
-7.91804e-07
2.7919e-05
-6.94948e-07
2.82178e-05
-5.96903e-07
2.8467e-05
-4.97844e-07
2.86662e-05
-3.97945e-07
2.88151e-05
-2.97382e-07
2.89133e-05
-1.96333e-07
2.89609e-05
-9.49757e-08
2.89576e-05
6.5119e-09
2.89035e-05
1.07952e-07
2.87988e-05
2.09166e-07
2.86436e-05
3.09977e-07
2.84383e-05
4.10209e-07
2.81831e-05
5.09688e-07
2.78786e-05
6.08239e-07
2.75254e-05
7.05692e-07
2.71239e-05
8.01877e-07
2.66751e-05
8.96628e-07
2.61796e-05
9.89779e-07
2.56383e-05
1.08117e-06
2.50523e-05
1.17064e-06
2.44225e-05
1.25804e-06
2.37501e-05
1.34322e-06
2.30363e-05
1.42603e-06
2.22822e-05
1.50633e-06
2.14893e-05
1.58397e-06
2.06588e-05
1.65884e-06
1.97924e-05
1.73079e-06
1.88915e-05
1.79971e-06
1.79576e-05
1.86549e-06
1.69925e-05
1.928e-06
1.59977e-05
1.98714e-06
1.49751e-05
2.04281e-06
1.39264e-05
2.09493e-06
1.28534e-05
2.14341e-06
1.17581e-05
2.18816e-06
1.06422e-05
2.22912e-06
9.50774e-06
2.26622e-06
8.35667e-06
2.29942e-06
7.19096e-06
2.32868e-06
6.01259e-06
2.35396e-06
4.82355e-06
2.37527e-06
3.62584e-06
2.3926e-06
2.4214e-06
2.40601e-06
1.21216e-06
2.41559e-06
2.42141e-06
-1.21693e-06
3.63834e-06
-2.43096e-06
3.62962e-06
-3.64017e-06
3.61522e-06
-4.84262e-06
3.59506e-06
-6.03636e-06
3.569e-06
-7.21938e-06
3.53699e-06
-8.3897e-06
3.49899e-06
-9.54531e-06
3.45504e-06
-1.06842e-05
3.40515e-06
-1.18045e-05
3.3494e-06
-1.29042e-05
3.28786e-06
-1.39815e-05
3.22062e-06
-1.50343e-05
3.14779e-06
-1.6061e-05
3.06949e-06
-1.70597e-05
2.98583e-06
-1.80286e-05
2.89697e-06
-1.89662e-05
2.80305e-06
-1.98707e-05
2.70422e-06
-2.07406e-05
2.60067e-06
-2.15743e-05
2.49255e-06
-2.23704e-05
2.38007e-06
-2.31275e-05
2.2634e-06
-2.38442e-05
2.14275e-06
-2.45193e-05
2.01833e-06
-2.51516e-05
1.89034e-06
-2.574e-05
1.75902e-06
-2.62834e-05
1.62458e-06
-2.67809e-05
1.48726e-06
-2.72315e-05
1.3473e-06
-2.76346e-05
1.20493e-06
-2.79893e-05
1.06041e-06
-2.8295e-05
9.13976e-07
-2.85513e-05
7.65895e-07
-2.87575e-05
6.16421e-07
-2.89133e-05
4.65814e-07
-2.90185e-05
3.14337e-07
-2.90728e-05
1.62255e-07
-2.90761e-05
9.83272e-09
-2.90284e-05
-1.42662e-07
-2.89298e-05
-2.9496e-07
-2.87804e-05
-4.46796e-07
-2.85804e-05
-5.97902e-07
-2.83302e-05
-7.48011e-07
-2.80303e-05
-8.96858e-07
-2.76811e-05
-1.04418e-06
-2.72831e-05
-1.18972e-06
-2.68372e-05
-1.33321e-06
-2.63441e-05
-1.47441e-06
-2.58046e-05
-1.61306e-06
-2.52196e-05
-1.74891e-06
-2.45902e-05
-1.88172e-06
-2.39175e-05
-2.01126e-06
-2.32026e-05
-2.13729e-06
-2.24468e-05
-2.2596e-06
-2.16515e-05
-2.37795e-06
-2.08179e-05
-2.49214e-06
-1.99476e-05
-2.60196e-06
-1.90421e-05
-2.70722e-06
-1.81029e-05
-2.80772e-06
-1.71318e-05
-2.90329e-06
-1.61305e-05
-2.99375e-06
-1.51006e-05
-3.07894e-06
-1.40441e-05
-3.15871e-06
-1.29627e-05
-3.23291e-06
-1.18584e-05
-3.3014e-06
-1.07332e-05
-3.36408e-06
-9.58895e-06
-3.42081e-06
-8.42777e-06
-3.4715e-06
-7.25169e-06
-3.51606e-06
-6.06278e-06
-3.5544e-06
-4.86314e-06
-3.58646e-06
-3.6549e-06
-3.61218e-06
-2.4402e-06
-3.63151e-06
-1.22118e-06
-3.64441e-06
1.83116e-13
-3.65087e-06
1.22118e-06
-3.65087e-06
2.4402e-06
-3.64441e-06
3.6549e-06
-3.63151e-06
4.86314e-06
-3.61218e-06
6.06278e-06
-3.58646e-06
7.25169e-06
-3.5544e-06
8.42777e-06
-3.51606e-06
9.58895e-06
-3.4715e-06
1.07332e-05
-3.42081e-06
1.18584e-05
-3.36408e-06
1.29627e-05
-3.3014e-06
1.40441e-05
-3.23291e-06
1.51006e-05
-3.15871e-06
1.61305e-05
-3.07894e-06
1.71318e-05
-2.99375e-06
1.81029e-05
-2.90329e-06
1.90421e-05
-2.80772e-06
1.99476e-05
-2.70722e-06
2.08179e-05
-2.60196e-06
2.16515e-05
-2.49214e-06
2.24468e-05
-2.37795e-06
2.32026e-05
-2.2596e-06
2.39175e-05
-2.13729e-06
2.45902e-05
-2.01126e-06
2.52196e-05
-1.88172e-06
2.58046e-05
-1.74891e-06
2.63441e-05
-1.61306e-06
2.68372e-05
-1.47441e-06
2.72831e-05
-1.33321e-06
2.76811e-05
-1.18972e-06
2.80303e-05
-1.04418e-06
2.83302e-05
-8.96858e-07
2.85804e-05
-7.48011e-07
2.87804e-05
-5.97902e-07
2.89298e-05
-4.46796e-07
2.90284e-05
-2.9496e-07
2.90761e-05
-1.42662e-07
2.90728e-05
9.83273e-09
2.90185e-05
1.62255e-07
2.89133e-05
3.14337e-07
2.87575e-05
4.65814e-07
2.85513e-05
6.16421e-07
2.8295e-05
7.65895e-07
2.79893e-05
9.13976e-07
2.76346e-05
1.06041e-06
2.72315e-05
1.20493e-06
2.67809e-05
1.3473e-06
2.62834e-05
1.48726e-06
2.574e-05
1.62458e-06
2.51516e-05
1.75902e-06
2.45193e-05
1.89034e-06
2.38442e-05
2.01833e-06
2.31275e-05
2.14275e-06
2.23704e-05
2.2634e-06
2.15743e-05
2.38007e-06
2.07406e-05
2.49255e-06
1.98707e-05
2.60067e-06
1.89662e-05
2.70422e-06
1.80286e-05
2.80305e-06
1.70597e-05
2.89697e-06
1.6061e-05
2.98583e-06
1.50343e-05
3.06949e-06
1.39815e-05
3.14779e-06
1.29042e-05
3.22062e-06
1.18045e-05
3.28786e-06
1.06842e-05
3.3494e-06
9.54531e-06
3.40515e-06
8.3897e-06
3.45504e-06
7.21938e-06
3.49899e-06
6.03636e-06
3.53699e-06
4.84262e-06
3.569e-06
3.64017e-06
3.59506e-06
2.43096e-06
3.61522e-06
1.21693e-06
3.62962e-06
3.63834e-06
-1.22365e-06
4.86198e-06
-2.4444e-06
4.85037e-06
-3.66031e-06
4.83113e-06
-4.86942e-06
4.80418e-06
-6.06977e-06
4.76935e-06
-7.25935e-06
4.72656e-06
-8.43615e-06
4.67579e-06
-9.59816e-06
4.61705e-06
-1.07434e-05
4.55039e-06
-1.18699e-05
4.4759e-06
-1.29757e-05
4.39367e-06
-1.40589e-05
4.30382e-06
-1.51176e-05
4.2065e-06
-1.615e-05
4.10186e-06
-1.71542e-05
3.99007e-06
-1.81286e-05
3.87133e-06
-1.90714e-05
3.74583e-06
-1.99809e-05
3.61377e-06
-2.08556e-05
3.47539e-06
-2.1694e-05
3.33092e-06
-2.24945e-05
3.18061e-06
-2.32558e-05
3.02471e-06
-2.39766e-05
2.86349e-06
-2.46555e-05
2.69722e-06
-2.52913e-05
2.5262e-06
-2.5883e-05
2.35071e-06
-2.64295e-05
2.17106e-06
-2.69298e-05
1.98756e-06
-2.7383e-05
1.80052e-06
-2.77883e-05
1.61027e-06
-2.81451e-05
1.41714e-06
-2.84526e-05
1.22146e-06
-2.87103e-05
1.02358e-06
-2.89177e-05
8.23834e-07
-2.90744e-05
6.22573e-07
-2.91802e-05
4.20149e-07
-2.92349e-05
2.16914e-07
-2.92383e-05
1.32258e-08
-2.91904e-05
-1.9056e-07
-2.90913e-05
-3.94085e-07
-2.89411e-05
-5.96992e-07
-2.87401e-05
-7.98923e-07
-2.84885e-05
-9.99524e-07
-2.8187e-05
-1.19844e-06
-2.78358e-05
-1.39532e-06
-2.74357e-05
-1.58981e-06
-2.69874e-05
-1.78157e-06
-2.64915e-05
-1.97026e-06
-2.5949e-05
-2.15555e-06
-2.53608e-05
-2.3371e-06
-2.4728e-05
-2.51459e-06
-2.40515e-05
-2.68771e-06
-2.33327e-05
-2.85614e-06
-2.25727e-05
-3.01959e-06
-2.17729e-05
-3.17775e-06
-2.09347e-05
-3.33035e-06
-2.00595e-05
-3.47712e-06
-1.91489e-05
-3.61779e-06
-1.82045e-05
-3.7521e-06
-1.7228e-05
-3.87982e-06
-1.6221e-05
-4.00072e-06
-1.51854e-05
-4.11457e-06
-1.41229e-05
-4.22117e-06
-1.30355e-05
-4.32033e-06
-1.1925e-05
-4.41188e-06
-1.07935e-05
-4.49563e-06
-9.64283e-06
-4.57145e-06
-8.47513e-06
-4.6392e-06
-7.29244e-06
-4.69875e-06
-6.09685e-06
-4.74999e-06
-4.89048e-06
-4.79284e-06
-3.67545e-06
-4.82721e-06
-2.45392e-06
-4.85304e-06
-1.22805e-06
-4.87028e-06
1.702e-13
-4.87891e-06
1.22805e-06
-4.87891e-06
2.45392e-06
-4.87028e-06
3.67545e-06
-4.85304e-06
4.89048e-06
-4.82721e-06
6.09685e-06
-4.79284e-06
7.29244e-06
-4.74999e-06
8.47513e-06
-4.69875e-06
9.64283e-06
-4.6392e-06
1.07935e-05
-4.57145e-06
1.1925e-05
-4.49563e-06
1.30355e-05
-4.41188e-06
1.41229e-05
-4.32033e-06
1.51854e-05
-4.22117e-06
1.6221e-05
-4.11457e-06
1.7228e-05
-4.00072e-06
1.82045e-05
-3.87982e-06
1.91489e-05
-3.7521e-06
2.00595e-05
-3.61779e-06
2.09347e-05
-3.47712e-06
2.17729e-05
-3.33035e-06
2.25727e-05
-3.17775e-06
2.33327e-05
-3.01959e-06
2.40515e-05
-2.85614e-06
2.4728e-05
-2.68771e-06
2.53608e-05
-2.51459e-06
2.5949e-05
-2.3371e-06
2.64915e-05
-2.15555e-06
2.69874e-05
-1.97026e-06
2.74357e-05
-1.78157e-06
2.78358e-05
-1.58981e-06
2.8187e-05
-1.39532e-06
2.84885e-05
-1.19844e-06
2.87401e-05
-9.99524e-07
2.89411e-05
-7.98923e-07
2.90913e-05
-5.96992e-07
2.91904e-05
-3.94085e-07
2.92383e-05
-1.9056e-07
2.92349e-05
1.32258e-08
2.91802e-05
2.16914e-07
2.90744e-05
4.20149e-07
2.89177e-05
6.22573e-07
2.87103e-05
8.23834e-07
2.84526e-05
1.02358e-06
2.81451e-05
1.22146e-06
2.77883e-05
1.41714e-06
2.7383e-05
1.61027e-06
2.69298e-05
1.80052e-06
2.64295e-05
1.98756e-06
2.5883e-05
2.17106e-06
2.52913e-05
2.35071e-06
2.46555e-05
2.5262e-06
2.39766e-05
2.69722e-06
2.32558e-05
2.86349e-06
2.24945e-05
3.02471e-06
2.1694e-05
3.18061e-06
2.08556e-05
3.33092e-06
1.99809e-05
3.47539e-06
1.90714e-05
3.61377e-06
1.81286e-05
3.74583e-06
1.71542e-05
3.87133e-06
1.615e-05
3.99007e-06
1.51176e-05
4.10186e-06
1.40589e-05
4.2065e-06
1.29757e-05
4.30382e-06
1.18699e-05
4.39367e-06
1.07434e-05
4.4759e-06
9.59816e-06
4.5504e-06
8.43615e-06
4.61705e-06
7.25935e-06
4.67579e-06
6.06977e-06
4.72656e-06
4.86942e-06
4.76935e-06
3.66031e-06
4.80418e-06
2.4444e-06
4.83113e-06
1.22365e-06
4.85037e-06
4.86199e-06
-1.23238e-06
6.09436e-06
-2.46185e-06
6.07984e-06
-3.68644e-06
6.05573e-06
-4.90421e-06
6.02194e-06
-6.11314e-06
5.97828e-06
-7.31122e-06
5.92465e-06
-8.49644e-06
5.86101e-06
-9.66677e-06
5.78738e-06
-1.08202e-05
5.70383e-06
-1.19548e-05
5.61046e-06
-1.30685e-05
5.50739e-06
-1.41594e-05
5.39477e-06
-1.52257e-05
5.27279e-06
-1.62655e-05
5.14164e-06
-1.7277e-05
5.00153e-06
-1.82583e-05
4.85269e-06
-1.92079e-05
4.69538e-06
-2.0124e-05
4.52986e-06
-2.1005e-05
4.35641e-06
-2.18494e-05
4.17533e-06
-2.26557e-05
3.98692e-06
-2.34225e-05
3.79151e-06
-2.41485e-05
3.58943e-06
-2.48323e-05
3.38103e-06
-2.54727e-05
3.16666e-06
-2.60687e-05
2.9467e-06
-2.66192e-05
2.72151e-06
-2.71231e-05
2.4915e-06
-2.75797e-05
2.25706e-06
-2.7988e-05
2.01859e-06
-2.83474e-05
1.77651e-06
-2.86571e-05
1.53123e-06
-2.89167e-05
1.28319e-06
-2.91257e-05
1.03281e-06
-2.92837e-05
7.8053e-07
-2.93903e-05
5.26792e-07
-2.94454e-05
2.72039e-07
-2.94489e-05
1.67149e-08
-2.94007e-05
-2.38732e-07
-2.9301e-05
-4.93853e-07
-2.91498e-05
-7.482e-07
-2.89474e-05
-1.00133e-06
-2.86941e-05
-1.25278e-06
-2.83904e-05
-1.50213e-06
-2.80368e-05
-1.74892e-06
-2.76339e-05
-1.99273e-06
-2.71824e-05
-2.23311e-06
-2.6683e-05
-2.46964e-06
-2.61366e-05
-2.70191e-06
-2.55442e-05
-2.92949e-06
-2.49068e-05
-3.15199e-06
-2.42255e-05
-3.369e-06
-2.35015e-05
-3.58014e-06
-2.27361e-05
-3.78503e-06
-2.19305e-05
-3.9833e-06
-2.10863e-05
-4.1746e-06
-2.02048e-05
-4.35859e-06
-1.92877e-05
-4.53493e-06
-1.83365e-05
-4.7033e-06
-1.73529e-05
-4.86341e-06
-1.63387e-05
-5.01496e-06
-1.52955e-05
-5.15769e-06
-1.42254e-05
-5.29132e-06
-1.31301e-05
-5.41563e-06
-1.20116e-05
-5.53039e-06
-1.08718e-05
-5.63539e-06
-9.71282e-06
-5.73044e-06
-8.53665e-06
-5.81537e-06
-7.34538e-06
-5.89002e-06
-6.14112e-06
-5.95426e-06
-4.92599e-06
-6.00797e-06
-3.70214e-06
-6.05106e-06
-2.47174e-06
-6.08344e-06
-1.23696e-06
-6.10506e-06
1.60586e-13
-6.11588e-06
1.23696e-06
-6.11588e-06
2.47174e-06
-6.10506e-06
3.70214e-06
-6.08344e-06
4.92599e-06
-6.05106e-06
6.14112e-06
-6.00797e-06
7.34538e-06
-5.95426e-06
8.53665e-06
-5.89002e-06
9.71282e-06
-5.81537e-06
1.08718e-05
-5.73044e-06
1.20116e-05
-5.63539e-06
1.31301e-05
-5.53039e-06
1.42254e-05
-5.41563e-06
1.52955e-05
-5.29132e-06
1.63387e-05
-5.15769e-06
1.73529e-05
-5.01496e-06
1.83365e-05
-4.86341e-06
1.92877e-05
-4.7033e-06
2.02048e-05
-4.53493e-06
2.10863e-05
-4.35859e-06
2.19305e-05
-4.1746e-06
2.27361e-05
-3.9833e-06
2.35015e-05
-3.78503e-06
2.42255e-05
-3.58014e-06
2.49068e-05
-3.369e-06
2.55442e-05
-3.15199e-06
2.61366e-05
-2.92949e-06
2.6683e-05
-2.70191e-06
2.71824e-05
-2.46964e-06
2.76339e-05
-2.23311e-06
2.80368e-05
-1.99273e-06
2.83904e-05
-1.74892e-06
2.86941e-05
-1.50213e-06
2.89474e-05
-1.25278e-06
2.91498e-05
-1.00133e-06
2.9301e-05
-7.482e-07
2.94007e-05
-4.93853e-07
2.94489e-05
-2.38732e-07
2.94454e-05
1.67149e-08
2.93903e-05
2.72039e-07
2.92837e-05
5.26792e-07
2.91257e-05
7.8053e-07
2.89167e-05
1.03281e-06
2.86571e-05
1.28319e-06
2.83474e-05
1.53123e-06
2.7988e-05
1.77651e-06
2.75797e-05
2.01859e-06
2.71231e-05
2.25706e-06
2.66192e-05
2.4915e-06
2.60687e-05
2.72151e-06
2.54727e-05
2.9467e-06
2.48323e-05
3.16666e-06
2.41485e-05
3.38103e-06
2.34225e-05
3.58943e-06
2.26557e-05
3.79151e-06
2.18494e-05
3.98692e-06
2.1005e-05
4.17533e-06
2.0124e-05
4.35641e-06
1.92079e-05
4.52986e-06
1.82583e-05
4.69538e-06
1.7277e-05
4.85269e-06
1.62655e-05
5.00153e-06
1.52257e-05
5.14164e-06
1.41594e-05
5.27279e-06
1.30685e-05
5.39477e-06
1.19548e-05
5.50739e-06
1.08202e-05
5.61046e-06
9.66677e-06
5.70383e-06
8.49644e-06
5.78738e-06
7.31122e-06
5.86101e-06
6.11314e-06
5.92465e-06
4.90421e-06
5.97828e-06
3.68644e-06
6.02194e-06
2.46185e-06
6.05573e-06
1.23238e-06
6.07984e-06
6.09436e-06
-1.24317e-06
7.33754e-06
-2.48341e-06
7.32008e-06
-3.71874e-06
7.29105e-06
-4.94717e-06
7.25038e-06
-6.16671e-06
7.19781e-06
-7.3753e-06
7.13324e-06
-8.57091e-06
7.05662e-06
-9.75151e-06
6.96798e-06
-1.09151e-05
6.86739e-06
-1.20596e-05
6.75498e-06
-1.31831e-05
6.63089e-06
-1.42836e-05
6.49532e-06
-1.53593e-05
6.34846e-06
-1.64082e-05
6.19056e-06
-1.74286e-05
6.02188e-06
-1.84186e-05
5.8427e-06
-1.93765e-05
5.65331e-06
-2.03007e-05
5.45404e-06
-2.11895e-05
5.24522e-06
-2.20414e-05
5.02721e-06
-2.28548e-05
4.80038e-06
-2.36284e-05
4.56512e-06
-2.43608e-05
4.32182e-06
-2.50507e-05
4.07091e-06
-2.56969e-05
3.81282e-06
-2.62982e-05
3.548e-06
-2.68536e-05
3.27689e-06
-2.7362e-05
2.99996e-06
-2.78227e-05
2.7177e-06
-2.82346e-05
2.43058e-06
-2.85973e-05
2.13912e-06
-2.89098e-05
1.84381e-06
-2.91718e-05
1.54517e-06
-2.93827e-05
1.24371e-06
-2.95422e-05
9.3997e-07
-2.96498e-05
6.34467e-07
-2.97055e-05
3.2774e-07
-2.97092e-05
2.0325e-08
-2.96606e-05
-2.8724e-07
-2.95601e-05
-5.94414e-07
-2.94076e-05
-9.00657e-07
-2.92035e-05
-1.20543e-06
-2.89481e-05
-1.5082e-06
-2.86418e-05
-1.80842e-06
-2.82852e-05
-2.10558e-06
-2.78788e-05
-2.39913e-06
-2.74233e-05
-2.68857e-06
-2.69196e-05
-2.97337e-06
-2.63684e-05
-3.25304e-06
-2.57709e-05
-3.52707e-06
-2.51279e-05
-3.79498e-06
-2.44406e-05
-4.05628e-06
-2.37102e-05
-4.31051e-06
-2.2938e-05
-4.55722e-06
-2.21254e-05
-4.79596e-06
-2.12737e-05
-5.02631e-06
-2.03844e-05
-5.24785e-06
-1.94592e-05
-5.46018e-06
-1.84996e-05
-5.66292e-06
-1.75072e-05
-5.85571e-06
-1.6484e-05
-6.0382e-06
-1.54316e-05
-6.21006e-06
-1.4352e-05
-6.37098e-06
-1.3247e-05
-6.52066e-06
-1.21185e-05
-6.65885e-06
-1.09686e-05
-6.78528e-06
-9.79931e-06
-6.89974e-06
-8.61268e-06
-7.002e-06
-7.41081e-06
-7.09189e-06
-6.19582e-06
-7.16924e-06
-4.96987e-06
-7.23392e-06
-3.73512e-06
-7.2858e-06
-2.49376e-06
-7.3248e-06
-1.24798e-06
-7.35083e-06
1.49574e-13
-7.36386e-06
1.24798e-06
-7.36386e-06
2.49376e-06
-7.35083e-06
3.73512e-06
-7.3248e-06
4.96987e-06
-7.2858e-06
6.19582e-06
-7.23392e-06
7.41081e-06
-7.16924e-06
8.61268e-06
-7.09189e-06
9.79931e-06
-7.002e-06
1.09686e-05
-6.89974e-06
1.21185e-05
-6.78528e-06
1.3247e-05
-6.65885e-06
1.4352e-05
-6.52066e-06
1.54316e-05
-6.37098e-06
1.6484e-05
-6.21006e-06
1.75072e-05
-6.0382e-06
1.84996e-05
-5.85571e-06
1.94592e-05
-5.66292e-06
2.03844e-05
-5.46018e-06
2.12737e-05
-5.24785e-06
2.21254e-05
-5.02631e-06
2.2938e-05
-4.79596e-06
2.37102e-05
-4.55722e-06
2.44406e-05
-4.31051e-06
2.51279e-05
-4.05628e-06
2.57709e-05
-3.79498e-06
2.63684e-05
-3.52707e-06
2.69196e-05
-3.25304e-06
2.74233e-05
-2.97337e-06
2.78788e-05
-2.68857e-06
2.82852e-05
-2.39913e-06
2.86418e-05
-2.10558e-06
2.89481e-05
-1.80842e-06
2.92035e-05
-1.5082e-06
2.94076e-05
-1.20543e-06
2.95601e-05
-9.00657e-07
2.96607e-05
-5.94414e-07
2.97092e-05
-2.8724e-07
2.97055e-05
2.0325e-08
2.96498e-05
3.2774e-07
2.95422e-05
6.34467e-07
2.93827e-05
9.3997e-07
2.91718e-05
1.24371e-06
2.89098e-05
1.54517e-06
2.85973e-05
1.84381e-06
2.82346e-05
2.13912e-06
2.78227e-05
2.43058e-06
2.7362e-05
2.7177e-06
2.68536e-05
2.99996e-06
2.62982e-05
3.27689e-06
2.56969e-05
3.548e-06
2.50507e-05
3.81282e-06
2.43608e-05
4.07091e-06
2.36284e-05
4.32182e-06
2.28548e-05
4.56512e-06
2.20414e-05
4.80038e-06
2.11895e-05
5.02721e-06
2.03007e-05
5.24522e-06
1.93765e-05
5.45404e-06
1.84186e-05
5.65331e-06
1.74286e-05
5.8427e-06
1.64082e-05
6.02188e-06
1.53593e-05
6.19056e-06
1.42836e-05
6.34846e-06
1.31831e-05
6.49532e-06
1.20596e-05
6.63089e-06
1.09151e-05
6.75498e-06
9.75151e-06
6.86739e-06
8.57091e-06
6.96798e-06
7.3753e-06
7.05662e-06
6.16671e-06
7.13324e-06
4.94717e-06
7.19781e-06
3.71874e-06
7.25038e-06
2.48341e-06
7.29105e-06
1.24317e-06
7.32008e-06
7.33754e-06
-1.25607e-06
8.5936e-06
-2.50917e-06
8.57318e-06
-3.75731e-06
8.5392e-06
-4.9985e-06
8.49156e-06
-6.23069e-06
8.43e-06
-7.45183e-06
8.35438e-06
-8.65986e-06
8.26465e-06
-9.85273e-06
8.16085e-06
-1.10284e-05
8.04305e-06
-1.21848e-05
7.9114e-06
-1.332e-05
7.76608e-06
-1.4432e-05
7.60731e-06
-1.55189e-05
7.43533e-06
-1.65787e-05
7.25042e-06
-1.76097e-05
7.05288e-06
-1.86101e-05
6.84303e-06
-1.9578e-05
6.62124e-06
-2.05118e-05
6.38787e-06
-2.14099e-05
6.14332e-06
-2.22707e-05
5.88801e-06
-2.30927e-05
5.62236e-06
-2.38744e-05
5.34684e-06
-2.46145e-05
5.06191e-06
-2.53116e-05
4.76806e-06
-2.59646e-05
4.4658e-06
-2.65723e-05
4.15565e-06
-2.71335e-05
3.83813e-06
-2.76474e-05
3.51381e-06
-2.81129e-05
3.18323e-06
-2.85293e-05
2.84698e-06
-2.88958e-05
2.50562e-06
-2.92117e-05
2.15976e-06
-2.94766e-05
1.80999e-06
-2.96898e-05
1.45693e-06
-2.9851e-05
1.10118e-06
-2.99599e-05
7.43377e-07
-3.00163e-05
3.84133e-07
-3.00201e-05
2.40822e-08
-2.99712e-05
-3.36146e-07
-2.98696e-05
-6.95918e-07
-2.97157e-05
-1.0546e-06
-2.95096e-05
-1.41157e-06
-2.92516e-05
-1.76618e-06
-2.89422e-05
-2.11782e-06
-2.85819e-05
-2.46587e-06
-2.81713e-05
-2.8097e-06
-2.77112e-05
-3.14871e-06
-2.72022e-05
-3.4823e-06
-2.66454e-05
-3.80987e-06
-2.60416e-05
-4.13084e-06
-2.5392e-05
-4.44464e-06
-2.46975e-05
-4.7507e-06
-2.39596e-05
-5.04849e-06
-2.31793e-05
-5.33746e-06
-2.23582e-05
-5.6171e-06
-2.14976e-05
-5.88691e-06
-2.0599e-05
-6.14641e-06
-1.96641e-05
-6.39512e-06
-1.86944e-05
-6.6326e-06
-1.76917e-05
-6.85842e-06
-1.66577e-05
-7.07218e-06
-1.55943e-05
-7.27349e-06
-1.45033e-05
-7.46198e-06
-1.33866e-05
-7.63732e-06
-1.22463e-05
-7.79918e-06
-1.10843e-05
-7.94728e-06
-9.90266e-06
-8.08135e-06
-8.70352e-06
-8.20114e-06
-7.48898e-06
-8.30643e-06
-6.26118e-06
-8.39704e-06
-5.0223e-06
-8.4728e-06
-3.77453e-06
-8.53358e-06
-2.52007e-06
-8.57925e-06
-1.26115e-06
-8.60975e-06
1.35005e-13
-8.62501e-06
1.26115e-06
-8.62501e-06
2.52007e-06
-8.60975e-06
3.77453e-06
-8.57925e-06
5.0223e-06
-8.53358e-06
6.26118e-06
-8.4728e-06
7.48898e-06
-8.39704e-06
8.70352e-06
-8.30643e-06
9.90266e-06
-8.20114e-06
1.10843e-05
-8.08135e-06
1.22463e-05
-7.94728e-06
1.33866e-05
-7.79918e-06
1.45033e-05
-7.63732e-06
1.55943e-05
-7.46198e-06
1.66577e-05
-7.27349e-06
1.76917e-05
-7.07218e-06
1.86944e-05
-6.85842e-06
1.96641e-05
-6.6326e-06
2.0599e-05
-6.39512e-06
2.14976e-05
-6.14641e-06
2.23582e-05
-5.88691e-06
2.31793e-05
-5.6171e-06
2.39596e-05
-5.33746e-06
2.46975e-05
-5.04849e-06
2.5392e-05
-4.7507e-06
2.60416e-05
-4.44464e-06
2.66454e-05
-4.13084e-06
2.72022e-05
-3.80987e-06
2.77112e-05
-3.4823e-06
2.81713e-05
-3.14871e-06
2.85819e-05
-2.8097e-06
2.89422e-05
-2.46587e-06
2.92516e-05
-2.11782e-06
2.95096e-05
-1.76618e-06
2.97157e-05
-1.41157e-06
2.98696e-05
-1.0546e-06
2.99712e-05
-6.95918e-07
3.00201e-05
-3.36146e-07
3.00163e-05
2.40822e-08
2.99599e-05
3.84133e-07
2.9851e-05
7.43377e-07
2.96898e-05
1.10118e-06
2.94766e-05
1.45693e-06
2.92117e-05
1.80999e-06
2.88958e-05
2.15976e-06
2.85293e-05
2.50562e-06
2.81129e-05
2.84698e-06
2.76474e-05
3.18323e-06
2.71335e-05
3.51381e-06
2.65723e-05
3.83813e-06
2.59646e-05
4.15565e-06
2.53116e-05
4.4658e-06
2.46145e-05
4.76806e-06
2.38744e-05
5.06191e-06
2.30927e-05
5.34684e-06
2.22707e-05
5.62236e-06
2.14099e-05
5.88801e-06
2.05118e-05
6.14332e-06
1.9578e-05
6.38787e-06
1.86101e-05
6.62124e-06
1.76097e-05
6.84303e-06
1.65787e-05
7.05288e-06
1.55189e-05
7.25042e-06
1.4432e-05
7.43533e-06
1.332e-05
7.60731e-06
1.21848e-05
7.76609e-06
1.10284e-05
7.9114e-06
9.85273e-06
8.04305e-06
8.65986e-06
8.16085e-06
7.45183e-06
8.26465e-06
6.23069e-06
8.35438e-06
4.9985e-06
8.43e-06
3.75731e-06
8.49156e-06
2.50917e-06
8.5392e-06
1.25607e-06
8.57318e-06
8.5936e-06
-1.2711e-06
9.86471e-06
-2.5392e-06
9.84128e-06
-3.80228e-06
9.80228e-06
-5.05833e-06
9.74761e-06
-6.30528e-06
9.67695e-06
-7.54105e-06
9.59015e-06
-8.76356e-06
9.48716e-06
-9.97073e-06
9.36801e-06
-1.11605e-05
9.2328e-06
-1.23308e-05
9.0817e-06
-1.34796e-05
8.9149e-06
-1.46049e-05
8.73266e-06
-1.57049e-05
8.53526e-06
-1.67775e-05
8.32301e-06
-1.78209e-05
8.09627e-06
-1.88332e-05
7.85541e-06
-1.98128e-05
7.60083e-06
-2.07579e-05
7.33297e-06
-2.16669e-05
7.05226e-06
-2.25381e-05
6.7592e-06
-2.337e-05
6.45428e-06
-2.41612e-05
6.13802e-06
-2.49102e-05
5.81097e-06
-2.56159e-05
5.47367e-06
-2.62768e-05
5.12672e-06
-2.68918e-05
4.7707e-06
-2.74599e-05
4.40624e-06
-2.79801e-05
4.03395e-06
-2.84513e-05
3.65448e-06
-2.88728e-05
3.26849e-06
-2.92439e-05
2.87665e-06
-2.95637e-05
2.47963e-06
-2.98319e-05
2.07813e-06
-3.00478e-05
1.67284e-06
-3.02111e-05
1.26447e-06
-3.03214e-05
8.53728e-07
-3.03786e-05
4.41336e-07
-3.03826e-05
2.8014e-08
-3.03332e-05
-3.85514e-07
-3.02306e-05
-7.98521e-07
-3.00749e-05
-1.21028e-06
-2.98664e-05
-1.62007e-06
-2.96054e-05
-2.02717e-06
-2.92924e-05
-2.43085e-06
-2.89279e-05
-2.83041e-06
-2.85124e-05
-3.22513e-06
-2.80468e-05
-3.61432e-06
-2.75319e-05
-3.99729e-06
-2.69684e-05
-4.37335e-06
-2.63574e-05
-4.74183e-06
-2.56999e-05
-5.10208e-06
-2.49972e-05
-5.45346e-06
-2.42503e-05
-5.79534e-06
-2.34607e-05
-6.12709e-06
-2.26297e-05
-6.44814e-06
-2.17587e-05
-6.7579e-06
-2.08493e-05
-7.05582e-06
-1.9903e-05
-7.34136e-06
-1.89216e-05
-7.61401e-06
-1.79068e-05
-7.87328e-06
-1.68602e-05
-8.11869e-06
-1.57839e-05
-8.34981e-06
-1.46797e-05
-8.56622e-06
-1.35495e-05
-8.76753e-06
-1.23953e-05
-8.95337e-06
-1.12192e-05
-9.1234e-06
-1.00232e-05
-9.27733e-06
-8.80946e-06
-9.41486e-06
-7.58015e-06
-9.53575e-06
-6.33741e-06
-9.63978e-06
-5.08345e-06
-9.72676e-06
-3.82048e-06
-9.79654e-06
-2.55075e-06
-9.84898e-06
-1.27651e-06
-9.884e-06
1.17864e-13
-9.90152e-06
1.27651e-06
-9.90152e-06
2.55075e-06
-9.884e-06
3.82048e-06
-9.84898e-06
5.08345e-06
-9.79654e-06
6.33741e-06
-9.72676e-06
7.58015e-06
-9.63978e-06
8.80946e-06
-9.53575e-06
1.00232e-05
-9.41486e-06
1.12192e-05
-9.27733e-06
1.23953e-05
-9.1234e-06
1.35495e-05
-8.95337e-06
1.46797e-05
-8.76753e-06
1.57839e-05
-8.56622e-06
1.68602e-05
-8.34981e-06
1.79068e-05
-8.11869e-06
1.89216e-05
-7.87328e-06
1.9903e-05
-7.61401e-06
2.08493e-05
-7.34136e-06
2.17587e-05
-7.05582e-06
2.26297e-05
-6.7579e-06
2.34607e-05
-6.44814e-06
2.42503e-05
-6.12709e-06
2.49972e-05
-5.79534e-06
2.56999e-05
-5.45346e-06
2.63574e-05
-5.10208e-06
2.69684e-05
-4.74183e-06
2.75319e-05
-4.37335e-06
2.80468e-05
-3.99729e-06
2.85124e-05
-3.61432e-06
2.89279e-05
-3.22513e-06
2.92924e-05
-2.83041e-06
2.96054e-05
-2.43085e-06
2.98664e-05
-2.02717e-06
3.00749e-05
-1.62007e-06
3.02306e-05
-1.21028e-06
3.03332e-05
-7.98521e-07
3.03826e-05
-3.85514e-07
3.03786e-05
2.8014e-08
3.03214e-05
4.41336e-07
3.02111e-05
8.53728e-07
3.00478e-05
1.26447e-06
2.98319e-05
1.67284e-06
2.95637e-05
2.07813e-06
2.92439e-05
2.47963e-06
2.88728e-05
2.87665e-06
2.84513e-05
3.26849e-06
2.79801e-05
3.65448e-06
2.74599e-05
4.03395e-06
2.68918e-05
4.40624e-06
2.62768e-05
4.7707e-06
2.56159e-05
5.12672e-06