/*--------------------------------*- C++ -*----------------------------------*\
| =========                 |                                                 |
| \\      /  F ield         | OpenFOAM: The Open Source CFD Toolbox           |
|  \\    /   O peration     | Version:  2106                                  |
|   \\  /    A nd           | Website:  www.openfoam.com                      |
|    \\/     M anipulation  |                                                 |
\*---------------------------------------------------------------------------*/
FoamFile
{
    version     2.0;
    format      ascii;
    arch        "LSB;label=32;scalar=64";
    class       volVectorField;
    location    "3.7";
    object      U;
}
// * * * * * * * * * * * * * * * * * * * * * * * * * * * * * * * * * * * * * //

dimensions      [0 1 -1 0 0 0 0];

internalField   nonuniform List<vector> 
90000
(
(-9.07544e-05 9.06588e-05 0)
(-0.000272002 9.04372e-05 0)
(-0.000452667 9.00785e-05 0)
(-0.000632473 8.9577e-05 0)
(-0.000811128 8.89281e-05 0)
(-0.000988337 8.81304e-05 0)
(-0.0011638 8.71835e-05 0)
(-0.00133722 8.60879e-05 0)
(-0.0015083 8.48446e-05 0)
(-0.00167675 8.34551e-05 0)
(-0.00184227 8.19213e-05 0)
(-0.00200458 8.02455e-05 0)
(-0.00216339 7.84304e-05 0)
(-0.00231844 7.64789e-05 0)
(-0.00246945 7.43941e-05 0)
(-0.00261615 7.21796e-05 0)
(-0.0027583 6.9839e-05 0)
(-0.00289564 6.73764e-05 0)
(-0.00302793 6.47958e-05 0)
(-0.00315494 6.21017e-05 0)
(-0.00327646 5.92986e-05 0)
(-0.00339225 5.63914e-05 0)
(-0.00350213 5.3385e-05 0)
(-0.0036059 5.02846e-05 0)
(-0.00370337 4.70956e-05 0)
(-0.00379438 4.38233e-05 0)
(-0.00387875 4.04735e-05 0)
(-0.00395635 3.7052e-05 0)
(-0.00402704 3.35646e-05 0)
(-0.00409068 3.00173e-05 0)
(-0.00414717 2.64164e-05 0)
(-0.00419641 2.27681e-05 0)
(-0.00423829 1.90788e-05 0)
(-0.00427276 1.53547e-05 0)
(-0.00429975 1.16025e-05 0)
(-0.0043192 7.8287e-06 0)
(-0.00433108 4.03986e-06 0)
(-0.00433537 2.42614e-07 0)
(-0.00433205 -3.5564e-06 0)
(-0.00432114 -7.35057e-06 0)
(-0.00430264 -1.11332e-05 0)
(-0.00427658 -1.48977e-05 0)
(-0.00424301 -1.86374e-05 0)
(-0.00420199 -2.23457e-05 0)
(-0.00415358 -2.60161e-05 0)
(-0.00409787 -2.9642e-05 0)
(-0.00403495 -3.3217e-05 0)
(-0.00396493 -3.67348e-05 0)
(-0.00388794 -4.01891e-05 0)
(-0.0038041 -4.35738e-05 0)
(-0.00371355 -4.68828e-05 0)
(-0.00361647 -5.01103e-05 0)
(-0.00351301 -5.32504e-05 0)
(-0.00340336 -5.62976e-05 0)
(-0.00328771 -5.92463e-05 0)
(-0.00316626 -6.20914e-05 0)
(-0.00303923 -6.48277e-05 0)
(-0.00290683 -6.74502e-05 0)
(-0.0027693 -6.99544e-05 0)
(-0.00262688 -7.23355e-05 0)
(-0.00247982 -7.45895e-05 0)
(-0.00232839 -7.67121e-05 0)
(-0.00217284 -7.86996e-05 0)
(-0.00201345 -8.05484e-05 0)
(-0.0018505 -8.22552e-05 0)
(-0.00168428 -8.38168e-05 0)
(-0.00151508 -8.52304e-05 0)
(-0.0013432 -8.64934e-05 0)
(-0.00116895 -8.76036e-05 0)
(-0.000992634 -8.8559e-05 0)
(-0.000814561 -8.93579e-05 0)
(-0.000635046 -8.99987e-05 0)
(-0.000454408 -9.04803e-05 0)
(-0.000272968 -9.08018e-05 0)
(-9.10573e-05 -9.09627e-05 0)
(9.10574e-05 -9.09627e-05 0)
(0.000272968 -9.08018e-05 0)
(0.000454408 -9.04803e-05 0)
(0.000635046 -8.99987e-05 0)
(0.000814561 -8.93579e-05 0)
(0.000992635 -8.8559e-05 0)
(0.00116895 -8.76036e-05 0)
(0.0013432 -8.64934e-05 0)
(0.00151508 -8.52303e-05 0)
(0.00168428 -8.38167e-05 0)
(0.0018505 -8.22552e-05 0)
(0.00201345 -8.05484e-05 0)
(0.00217284 -7.86996e-05 0)
(0.00232839 -7.67121e-05 0)
(0.00247982 -7.45895e-05 0)
(0.00262688 -7.23355e-05 0)
(0.0027693 -6.99544e-05 0)
(0.00290683 -6.74502e-05 0)
(0.00303923 -6.48277e-05 0)
(0.00316626 -6.20914e-05 0)
(0.00328771 -5.92463e-05 0)
(0.00340336 -5.62976e-05 0)
(0.00351301 -5.32504e-05 0)
(0.00361647 -5.01103e-05 0)
(0.00371355 -4.68828e-05 0)
(0.0038041 -4.35738e-05 0)
(0.00388794 -4.01891e-05 0)
(0.00396493 -3.67348e-05 0)
(0.00403495 -3.3217e-05 0)
(0.00409787 -2.9642e-05 0)
(0.00415358 -2.60161e-05 0)
(0.00420199 -2.23457e-05 0)
(0.00424301 -1.86374e-05 0)
(0.00427658 -1.48977e-05 0)
(0.00430264 -1.11332e-05 0)
(0.00432114 -7.35057e-06 0)
(0.00433205 -3.5564e-06 0)
(0.00433537 2.42614e-07 0)
(0.00433108 4.03985e-06 0)
(0.0043192 7.8287e-06 0)
(0.00429975 1.16025e-05 0)
(0.00427276 1.53547e-05 0)
(0.00423829 1.90787e-05 0)
(0.00419641 2.27681e-05 0)
(0.00414717 2.64164e-05 0)
(0.00409068 3.00173e-05 0)
(0.00402704 3.35646e-05 0)
(0.00395635 3.7052e-05 0)
(0.00387875 4.04735e-05 0)
(0.00379438 4.38233e-05 0)
(0.00370337 4.70956e-05 0)
(0.0036059 5.02846e-05 0)
(0.00350213 5.3385e-05 0)
(0.00339225 5.63914e-05 0)
(0.00327646 5.92986e-05 0)
(0.00315494 6.21017e-05 0)
(0.00302793 6.47958e-05 0)
(0.00289564 6.73764e-05 0)
(0.0027583 6.9839e-05 0)
(0.00261615 7.21796e-05 0)
(0.00246945 7.43941e-05 0)
(0.00231844 7.64789e-05 0)
(0.00216339 7.84304e-05 0)
(0.00200458 8.02455e-05 0)
(0.00184227 8.19213e-05 0)
(0.00167675 8.34551e-05 0)
(0.0015083 8.48446e-05 0)
(0.00133722 8.60879e-05 0)
(0.0011638 8.71835e-05 0)
(0.000988337 8.81304e-05 0)
(0.000811128 8.89281e-05 0)
(0.000632473 8.95771e-05 0)
(0.000452666 9.00786e-05 0)
(0.000272001 9.04375e-05 0)
(9.07542e-05 9.06591e-05 0)
(-9.09759e-05 0.000272165 0)
(-0.000272658 0.000271507 0)
(-0.000453752 0.000270432 0)
(-0.000633985 0.000268926 0)
(-0.000813063 0.000266978 0)
(-0.000990691 0.000264583 0)
(-0.00116657 0.000261741 0)
(-0.0013404 0.000258453 0)
(-0.00151189 0.000254721 0)
(-0.00168073 0.00025055 0)
(-0.00184664 0.000245946 0)
(-0.00200934 0.000240916 0)
(-0.00216853 0.000235467 0)
(-0.00232395 0.000229609 0)
(-0.00247531 0.000223351 0)
(-0.00262237 0.000216704 0)
(-0.00276485 0.000209677 0)
(-0.00290252 0.000202285 0)
(-0.00303513 0.000194538 0)
(-0.00316245 0.00018645 0)
(-0.00328425 0.000178035 0)
(-0.00340032 0.000169308 0)
(-0.00351047 0.000160282 0)
(-0.00361448 0.000150975 0)
(-0.00371219 0.000141401 0)
(-0.00380341 0.000131577 0)
(-0.00388799 0.00012152 0)
(-0.00396578 0.000111248 0)
(-0.00403664 0.000100778 0)
(-0.00410044 9.01279e-05 0)
(-0.00415706 7.93168e-05 0)
(-0.00420642 6.83632e-05 0)
(-0.00424841 5.72862e-05 0)
(-0.00428296 4.61049e-05 0)
(-0.00431002 3.4839e-05 0)
(-0.00432952 2.3508e-05 0)
(-0.00434143 1.21318e-05 0)
(-0.00434573 7.30227e-07 0)
(-0.00434241 -1.06767e-05 0)
(-0.00433147 -2.2069e-05 0)
(-0.00431293 -3.34266e-05 0)
(-0.00428682 -4.47296e-05 0)
(-0.00425317 -5.5958e-05 0)
(-0.00421205 -6.7092e-05 0)
(-0.00416353 -7.81119e-05 0)
(-0.00410769 -8.89983e-05 0)
(-0.00404462 -9.97318e-05 0)
(-0.00397444 -0.000110293 0)
(-0.00389726 -0.000120664 0)
(-0.00381322 -0.000130826 0)
(-0.00372247 -0.00014076 0)
(-0.00362515 -0.00015045 0)
(-0.00352145 -0.000159877 0)
(-0.00341154 -0.000169025 0)
(-0.00329561 -0.000177878 0)
(-0.00317387 -0.000186419 0)
(-0.00304653 -0.000194634 0)
(-0.00291382 -0.000202507 0)
(-0.00277596 -0.000210024 0)
(-0.0026332 -0.000217173 0)
(-0.00248579 -0.000223939 0)
(-0.00233399 -0.000230311 0)
(-0.00217806 -0.000236278 0)
(-0.00201829 -0.000241828 0)
(-0.00185495 -0.000246951 0)
(-0.00168833 -0.000251639 0)
(-0.00151873 -0.000255883 0)
(-0.00134644 -0.000259674 0)
(-0.00117177 -0.000263007 0)
(-0.000995025 -0.000265875 0)
(-0.000816522 -0.000268273 0)
(-0.000636575 -0.000270196 0)
(-0.000455502 -0.000271642 0)
(-0.000273625 -0.000272607 0)
(-9.12765e-05 -0.00027309 0)
(9.12765e-05 -0.00027309 0)
(0.000273625 -0.000272607 0)
(0.000455502 -0.000271642 0)
(0.000636575 -0.000270196 0)
(0.000816522 -0.000268273 0)
(0.000995025 -0.000265875 0)
(0.00117177 -0.000263007 0)
(0.00134644 -0.000259674 0)
(0.00151873 -0.000255883 0)
(0.00168833 -0.000251639 0)
(0.00185495 -0.000246951 0)
(0.00201829 -0.000241828 0)
(0.00217806 -0.000236278 0)
(0.00233399 -0.000230311 0)
(0.00248579 -0.000223939 0)
(0.0026332 -0.000217173 0)
(0.00277596 -0.000210024 0)
(0.00291382 -0.000202507 0)
(0.00304653 -0.000194634 0)
(0.00317387 -0.000186419 0)
(0.00329561 -0.000177878 0)
(0.00341154 -0.000169025 0)
(0.00352145 -0.000159877 0)
(0.00362515 -0.00015045 0)
(0.00372247 -0.00014076 0)
(0.00381322 -0.000130826 0)
(0.00389726 -0.000120664 0)
(0.00397444 -0.000110293 0)
(0.00404462 -9.97318e-05 0)
(0.00410769 -8.89983e-05 0)
(0.00416353 -7.81119e-05 0)
(0.00421205 -6.7092e-05 0)
(0.00425317 -5.5958e-05 0)
(0.00428682 -4.47296e-05 0)
(0.00431293 -3.34266e-05 0)
(0.00433147 -2.2069e-05 0)
(0.00434241 -1.06767e-05 0)
(0.00434573 7.30228e-07 0)
(0.00434143 1.21318e-05 0)
(0.00432952 2.3508e-05 0)
(0.00431002 3.4839e-05 0)
(0.00428296 4.6105e-05 0)
(0.00424841 5.72862e-05 0)
(0.00420642 6.83632e-05 0)
(0.00415706 7.93168e-05 0)
(0.00410044 9.01279e-05 0)
(0.00403664 0.000100778 0)
(0.00396578 0.000111248 0)
(0.00388799 0.00012152 0)
(0.00380341 0.000131577 0)
(0.00371219 0.000141401 0)
(0.00361448 0.000150975 0)
(0.00351047 0.000160282 0)
(0.00340032 0.000169308 0)
(0.00328425 0.000178035 0)
(0.00316245 0.00018645 0)
(0.00303513 0.000194538 0)
(0.00290252 0.000202285 0)
(0.00276485 0.000209677 0)
(0.00262237 0.000216704 0)
(0.00247531 0.000223351 0)
(0.00232395 0.000229609 0)
(0.00216853 0.000235467 0)
(0.00200934 0.000240916 0)
(0.00184664 0.000245946 0)
(0.00168073 0.00025055 0)
(0.00151189 0.000254721 0)
(0.0013404 0.000258453 0)
(0.00116657 0.000261741 0)
(0.000990691 0.000264584 0)
(0.000813063 0.000266978 0)
(0.000633985 0.000268926 0)
(0.000453752 0.000270433 0)
(0.000272657 0.000271508 0)
(9.09756e-05 0.000272165 0)
(-9.13357e-05 0.000454271 0)
(-0.000273733 0.000453181 0)
(-0.000455545 0.000451384 0)
(-0.000636491 0.000448867 0)
(-0.000816277 0.000445614 0)
(-0.000994607 0.000441617 0)
(-0.00117118 0.000436873 0)
(-0.0013457 0.000431385 0)
(-0.00151786 0.000425156 0)
(-0.00168737 0.000418195 0)
(-0.00185394 0.000410511 0)
(-0.00201728 0.000402116 0)
(-0.0021771 0.000393022 0)
(-0.00233313 0.000383245 0)
(-0.0024851 0.0003728 0)
(-0.00263274 0.000361704 0)
(-0.00277579 0.000349977 0)
(-0.002914 0.000337639 0)
(-0.00304714 0.000324709 0)
(-0.00317496 0.00031121 0)
(-0.00329725 0.000297165 0)
(-0.00341379 0.000282598 0)
(-0.00352437 0.000267534 0)
(-0.0036288 0.000251999 0)
(-0.0037269 0.000236019 0)
(-0.00381849 0.000219622 0)
(-0.00390341 0.000202836 0)
(-0.00398151 0.000185691 0)
(-0.00405265 0.000168215 0)
(-0.00411671 0.00015044 0)
(-0.00417356 0.000132395 0)
(-0.00422312 0.000114112 0)
(-0.00426528 9.5623e-05 0)
(-0.00429998 7.69602e-05 0)
(-0.00432715 5.8156e-05 0)
(-0.00434673 3.92431e-05 0)
(-0.0043587 2.02547e-05 0)
(-0.00436302 1.22391e-06 0)
(-0.00435969 -1.78159e-05 0)
(-0.00434872 -3.68312e-05 0)
(-0.0043301 -5.57887e-05 0)
(-0.00430389 -7.4655e-05 0)
(-0.00427012 -9.33969e-05 0)
(-0.00422884 -0.000111981 0)
(-0.00418013 -0.000130375 0)
(-0.00412407 -0.000148546 0)
(-0.00406076 -0.000166462 0)
(-0.0039903 -0.000184091 0)
(-0.00391282 -0.000201402 0)
(-0.00382845 -0.000218363 0)
(-0.00373733 -0.000234945 0)
(-0.00363963 -0.000251119 0)
(-0.00353552 -0.000266854 0)
(-0.00342517 -0.000282124 0)
(-0.00330879 -0.000296901 0)
(-0.00318656 -0.000311158 0)
(-0.00305872 -0.000324869 0)
(-0.00292548 -0.000338011 0)
(-0.00278707 -0.000350559 0)
(-0.00264374 -0.000362491 0)
(-0.00249574 -0.000373785 0)
(-0.00234333 -0.000384421 0)
(-0.00218679 -0.00039438 0)
(-0.00202637 -0.000403644 0)
(-0.00186238 -0.000412196 0)
(-0.00169509 -0.000420021 0)
(-0.00152481 -0.000427104 0)
(-0.00135183 -0.000433433 0)
(-0.00117646 -0.000438996 0)
(-0.000999013 -0.000443783 0)
(-0.000819795 -0.000447786 0)
(-0.000639127 -0.000450997 0)
(-0.000457328 -0.00045341 0)
(-0.000274722 -0.000455021 0)
(-9.16424e-05 -0.000455827 0)
(9.16425e-05 -0.000455827 0)
(0.000274722 -0.000455021 0)
(0.000457328 -0.00045341 0)
(0.000639127 -0.000450997 0)
(0.000819795 -0.000447786 0)
(0.000999013 -0.000443783 0)
(0.00117646 -0.000438996 0)
(0.00135183 -0.000433433 0)
(0.00152481 -0.000427104 0)
(0.00169509 -0.000420021 0)
(0.00186238 -0.000412196 0)
(0.00202637 -0.000403644 0)
(0.00218679 -0.00039438 0)
(0.00234333 -0.000384421 0)
(0.00249574 -0.000373785 0)
(0.00264374 -0.000362491 0)
(0.00278707 -0.000350559 0)
(0.00292548 -0.000338011 0)
(0.00305872 -0.000324869 0)
(0.00318656 -0.000311158 0)
(0.00330879 -0.000296901 0)
(0.00342517 -0.000282124 0)
(0.00353552 -0.000266854 0)
(0.00363963 -0.000251119 0)
(0.00373733 -0.000234945 0)
(0.00382845 -0.000218363 0)
(0.00391282 -0.000201402 0)
(0.0039903 -0.000184091 0)
(0.00406076 -0.000166462 0)
(0.00412407 -0.000148546 0)
(0.00418013 -0.000130375 0)
(0.00422884 -0.000111981 0)
(0.00427012 -9.33969e-05 0)
(0.00430389 -7.4655e-05 0)
(0.0043301 -5.57887e-05 0)
(0.00434872 -3.68312e-05 0)
(0.00435969 -1.78159e-05 0)
(0.00436302 1.22391e-06 0)
(0.0043587 2.02547e-05 0)
(0.00434673 3.92431e-05 0)
(0.00432715 5.8156e-05 0)
(0.00429998 7.69602e-05 0)
(0.00426528 9.5623e-05 0)
(0.00422312 0.000114112 0)
(0.00417356 0.000132395 0)
(0.00411671 0.00015044 0)
(0.00405265 0.000168215 0)
(0.00398151 0.000185691 0)
(0.00390341 0.000202836 0)
(0.00381849 0.000219622 0)
(0.0037269 0.000236019 0)
(0.0036288 0.000251999 0)
(0.00352437 0.000267534 0)
(0.00341379 0.000282598 0)
(0.00329725 0.000297165 0)
(0.00317496 0.00031121 0)
(0.00304714 0.000324709 0)
(0.002914 0.000337639 0)
(0.00277579 0.000349977 0)
(0.00263274 0.000361704 0)
(0.0024851 0.0003728 0)
(0.00233313 0.000383245 0)
(0.0021771 0.000393022 0)
(0.00201728 0.000402116 0)
(0.00185394 0.000410511 0)
(0.00168737 0.000418195 0)
(0.00151786 0.000425156 0)
(0.0013457 0.000431385 0)
(0.00117118 0.000436873 0)
(0.000994607 0.000441617 0)
(0.000816277 0.000445614 0)
(0.000636491 0.000448867 0)
(0.000455545 0.000451384 0)
(0.000273733 0.000453181 0)
(9.13356e-05 0.000454271 0)
(-9.184e-05 0.000637243 0)
(-0.000275245 0.000635719 0)
(-0.000458064 0.000633196 0)
(-0.000640013 0.000629664 0)
(-0.000820796 0.0006251 0)
(-0.00100011 0.000619492 0)
(-0.00117766 0.000612838 0)
(-0.00135315 0.000605139 0)
(-0.00152626 0.000596402 0)
(-0.00169672 0.000586638 0)
(-0.00186421 0.00057586 0)
(-0.00202845 0.000564083 0)
(-0.00218916 0.000551327 0)
(-0.00234606 0.000537613 0)
(-0.00249887 0.000522961 0)
(-0.00264733 0.000507397 0)
(-0.00279118 0.000490947 0)
(-0.00293016 0.000473639 0)
(-0.00306404 0.000455502 0)
(-0.00319257 0.000436566 0)
(-0.00331554 0.000416865 0)
(-0.00343273 0.000396431 0)
(-0.00354393 0.0003753 0)
(-0.00364895 0.000353508 0)
(-0.0037476 0.000331092 0)
(-0.0038397 0.000308092 0)
(-0.0039251 0.000284545 0)
(-0.00400364 0.000260494 0)
(-0.00407519 0.00023598 0)
(-0.00413961 0.000211045 0)
(-0.00419679 0.000185732 0)
(-0.00424663 0.000160085 0)
(-0.00428903 0.000134149 0)
(-0.00432393 0.000107969 0)
(-0.00435126 8.15909e-05 0)
(-0.00437096 5.50601e-05 0)
(-0.004383 2.84231e-05 0)
(-0.00438736 1.72673e-06 0)
(-0.00438402 -2.49824e-05 0)
(-0.00437299 -5.16573e-05 0)
(-0.00435428 -7.82511e-05 0)
(-0.00432793 -0.000104717 0)
(-0.00429397 -0.000131008 0)
(-0.00425247 -0.000157079 0)
(-0.0042035 -0.000182882 0)
(-0.00414713 -0.000208373 0)
(-0.00408347 -0.000233506 0)
(-0.00401263 -0.000258237 0)
(-0.00393472 -0.000282521 0)
(-0.00384988 -0.000306315 0)
(-0.00375826 -0.000329578 0)
(-0.00366002 -0.000352266 0)
(-0.00355533 -0.000374341 0)
(-0.00344437 -0.000395762 0)
(-0.00332734 -0.000416492 0)
(-0.00320443 -0.000436492 0)
(-0.00307588 -0.000455728 0)
(-0.00294189 -0.000474163 0)
(-0.00280271 -0.000491767 0)
(-0.00265858 -0.000508506 0)
(-0.00250975 -0.00052435 0)
(-0.00235649 -0.000539271 0)
(-0.00219907 -0.000553243 0)
(-0.00203776 -0.000566239 0)
(-0.00187284 -0.000578237 0)
(-0.00170462 -0.000589214 0)
(-0.00153338 -0.000599151 0)
(-0.00135943 -0.000608029 0)
(-0.00118308 -0.000615834 0)
(-0.00100463 -0.00062255 0)
(-0.000824403 -0.000628165 0)
(-0.00064272 -0.00063267 0)
(-0.000459899 -0.000636055 0)
(-0.000276267 -0.000638315 0)
(-9.21577e-05 -0.000639446 0)
(9.21577e-05 -0.000639446 0)
(0.000276267 -0.000638315 0)
(0.000459899 -0.000636055 0)
(0.00064272 -0.00063267 0)
(0.000824403 -0.000628165 0)
(0.00100463 -0.00062255 0)
(0.00118308 -0.000615834 0)
(0.00135943 -0.000608029 0)
(0.00153338 -0.000599151 0)
(0.00170462 -0.000589214 0)
(0.00187284 -0.000578237 0)
(0.00203776 -0.000566239 0)
(0.00219907 -0.000553243 0)
(0.00235649 -0.000539271 0)
(0.00250975 -0.00052435 0)
(0.00265858 -0.000508506 0)
(0.00280271 -0.000491767 0)
(0.00294189 -0.000474163 0)
(0.00307588 -0.000455728 0)
(0.00320443 -0.000436492 0)
(0.00332734 -0.000416492 0)
(0.00344437 -0.000395762 0)
(0.00355533 -0.000374341 0)
(0.00366002 -0.000352266 0)
(0.00375826 -0.000329578 0)
(0.00384988 -0.000306315 0)
(0.00393472 -0.000282521 0)
(0.00401263 -0.000258237 0)
(0.00408347 -0.000233506 0)
(0.00414713 -0.000208373 0)
(0.0042035 -0.000182882 0)
(0.00425247 -0.000157079 0)
(0.00429397 -0.000131008 0)
(0.00432793 -0.000104717 0)
(0.00435428 -7.82511e-05 0)
(0.00437299 -5.16573e-05 0)
(0.00438402 -2.49824e-05 0)
(0.00438736 1.72673e-06 0)
(0.004383 2.84231e-05 0)
(0.00437096 5.50601e-05 0)
(0.00435126 8.15909e-05 0)
(0.00432393 0.000107969 0)
(0.00428903 0.000134149 0)
(0.00424663 0.000160085 0)
(0.00419679 0.000185732 0)
(0.00413961 0.000211045 0)
(0.00407519 0.00023598 0)
(0.00400364 0.000260494 0)
(0.0039251 0.000284545 0)
(0.0038397 0.000308092 0)
(0.0037476 0.000331092 0)
(0.00364895 0.000353508 0)
(0.00354393 0.0003753 0)
(0.00343273 0.000396431 0)
(0.00331554 0.000416865 0)
(0.00319257 0.000436566 0)
(0.00306404 0.000455502 0)
(0.00293016 0.000473639 0)
(0.00279118 0.000490947 0)
(0.00264733 0.000507397 0)
(0.00249887 0.000522961 0)
(0.00234606 0.000537613 0)
(0.00218916 0.000551327 0)
(0.00202845 0.000564083 0)
(0.00186421 0.00057586 0)
(0.00169672 0.000586638 0)
(0.00152626 0.000596402 0)
(0.00135315 0.000605139 0)
(0.00117766 0.000612838 0)
(0.00100011 0.000619492 0)
(0.000820796 0.0006251 0)
(0.000640013 0.000629664 0)
(0.000458064 0.000633196 0)
(0.000275245 0.000635719 0)
(9.18399e-05 0.000637243 0)
(-9.24954e-05 0.000821372 0)
(-0.000277209 0.000819412 0)
(-0.000461335 0.000816161 0)
(-0.000644584 0.000811608 0)
(-0.000826659 0.000805724 0)
(-0.00100726 0.000798495 0)
(-0.00118608 0.000789918 0)
(-0.00136282 0.000779995 0)
(-0.00153717 0.000768734 0)
(-0.00170885 0.000756149 0)
(-0.00187754 0.000742257 0)
(-0.00204296 0.000727079 0)
(-0.00220482 0.000710638 0)
(-0.00236284 0.000692961 0)
(-0.00251675 0.000674077 0)
(-0.00266627 0.000654018 0)
(-0.00281115 0.000632815 0)
(-0.00295114 0.000610507 0)
(-0.00308598 0.00058713 0)
(-0.00321544 0.000562724 0)
(-0.0033393 0.000537331 0)
(-0.00345733 0.000510993 0)
(-0.00356934 0.000483757 0)
(-0.00367511 0.000455669 0)
(-0.00377448 0.000426777 0)
(-0.00386725 0.000397131 0)
(-0.00395327 0.000366782 0)
(-0.00403238 0.000335781 0)
(-0.00410445 0.000304184 0)
(-0.00416934 0.000272044 0)
(-0.00422694 0.000239417 0)
(-0.00427715 0.00020636 0)
(-0.00431987 0.00017293 0)
(-0.00435503 0.000139185 0)
(-0.00438256 0.000105185 0)
(-0.00440242 7.09872e-05 0)
(-0.00441456 3.66531e-05 0)
(-0.00441895 2.24212e-06 0)
(-0.0044156 -3.21853e-05 0)
(-0.0044045 -6.65687e-05 0)
(-0.00438567 -0.000100848 0)
(-0.00435914 -0.000134962 0)
(-0.00432495 -0.000168852 0)
(-0.00428316 -0.000202456 0)
(-0.00423385 -0.000235717 0)
(-0.00417708 -0.000268575 0)
(-0.00411297 -0.000300972 0)
(-0.00404162 -0.000332849 0)
(-0.00396316 -0.000364152 0)
(-0.00387772 -0.000394824 0)
(-0.00378545 -0.000424809 0)
(-0.0036865 -0.000454056 0)
(-0.00358106 -0.000482511 0)
(-0.0034693 -0.000510124 0)
(-0.00335143 -0.000536845 0)
(-0.00322764 -0.000562626 0)
(-0.00309816 -0.000587422 0)
(-0.00296321 -0.000611186 0)
(-0.00282302 -0.000633878 0)
(-0.00267785 -0.000655455 0)
(-0.00252795 -0.00067588 0)
(-0.00237358 -0.000695114 0)
(-0.00221502 -0.000713124 0)
(-0.00205254 -0.000729877 0)
(-0.00188643 -0.000745343 0)
(-0.00171699 -0.000759493 0)
(-0.00154451 -0.000772303 0)
(-0.0013693 -0.000783748 0)
(-0.00119166 -0.000793808 0)
(-0.00101192 -0.000802466 0)
(-0.000830388 -0.000809704 0)
(-0.000647386 -0.000815511 0)
(-0.000463238 -0.000819875 0)
(-0.000278273 -0.000822789 0)
(-9.2827e-05 -0.000824247 0)
(9.2827e-05 -0.000824247 0)
(0.000278273 -0.000822789 0)
(0.000463238 -0.000819875 0)
(0.000647386 -0.000815511 0)
(0.000830388 -0.000809704 0)
(0.00101192 -0.000802466 0)
(0.00119166 -0.000793808 0)
(0.0013693 -0.000783748 0)
(0.00154451 -0.000772303 0)
(0.00171699 -0.000759493 0)
(0.00188643 -0.000745343 0)
(0.00205254 -0.000729877 0)
(0.00221502 -0.000713124 0)
(0.00237358 -0.000695114 0)
(0.00252795 -0.00067588 0)
(0.00267785 -0.000655455 0)
(0.00282302 -0.000633878 0)
(0.00296321 -0.000611186 0)
(0.00309816 -0.000587422 0)
(0.00322764 -0.000562626 0)
(0.00335143 -0.000536845 0)
(0.0034693 -0.000510124 0)
(0.00358106 -0.000482511 0)
(0.0036865 -0.000454056 0)
(0.00378545 -0.000424809 0)
(0.00387772 -0.000394824 0)
(0.00396316 -0.000364152 0)
(0.00404162 -0.000332849 0)
(0.00411297 -0.000300972 0)
(0.00417708 -0.000268575 0)
(0.00423385 -0.000235717 0)
(0.00428316 -0.000202456 0)
(0.00432495 -0.000168852 0)
(0.00435914 -0.000134962 0)
(0.00438567 -0.000100848 0)
(0.0044045 -6.65687e-05 0)
(0.0044156 -3.21853e-05 0)
(0.00441895 2.24212e-06 0)
(0.00441456 3.66531e-05 0)
(0.00440242 7.09872e-05 0)
(0.00438256 0.000105185 0)
(0.00435503 0.000139185 0)
(0.00431987 0.00017293 0)
(0.00427715 0.00020636 0)
(0.00422694 0.000239417 0)
(0.00416934 0.000272044 0)
(0.00410445 0.000304184 0)
(0.00403238 0.000335781 0)
(0.00395327 0.000366782 0)
(0.00386725 0.000397131 0)
(0.00377448 0.000426777 0)
(0.00367511 0.000455669 0)
(0.00356934 0.000483757 0)
(0.00345733 0.000510993 0)
(0.0033393 0.000537331 0)
(0.00321544 0.000562724 0)
(0.00308598 0.00058713 0)
(0.00295114 0.000610507 0)
(0.00281115 0.000632815 0)
(0.00266627 0.000654018 0)
(0.00251675 0.000674077 0)
(0.00236284 0.000692961 0)
(0.00220482 0.000710638 0)
(0.00204296 0.000727079 0)
(0.00187754 0.000742257 0)
(0.00170885 0.000756149 0)
(0.00153717 0.000768734 0)
(0.00136282 0.000779995 0)
(0.00118608 0.000789918 0)
(0.00100726 0.000798495 0)
(0.000826659 0.000805724 0)
(0.000644584 0.000811608 0)
(0.000461335 0.000816161 0)
(0.000277209 0.000819412 0)
(9.24953e-05 0.000821372 0)
(-9.33055e-05 0.00100696 0)
(-0.000279637 0.00100456 0)
(-0.000465375 0.00100058 0)
(-0.000650231 0.000994998 0)
(-0.000833903 0.000987784 0)
(-0.00101609 0.000978923 0)
(-0.00119648 0.000968408 0)
(-0.00137477 0.000956243 0)
(-0.00155065 0.000942438 0)
(-0.00172383 0.000927011 0)
(-0.001894 0.000909981 0)
(-0.00206088 0.000891375 0)
(-0.00222416 0.00087122 0)
(-0.00238357 0.00084955 0)
(-0.00253884 0.000826401 0)
(-0.00268968 0.00080181 0)
(-0.00283583 0.000775818 0)
(-0.00297705 0.00074847 0)
(-0.00311308 0.000719813 0)
(-0.00324369 0.000689893 0)
(-0.00336864 0.000658764 0)
(-0.00348772 0.000626477 0)
(-0.00360072 0.000593088 0)
(-0.00370744 0.000558654 0)
(-0.00380768 0.000523235 0)
(-0.00390128 0.00048689 0)
(-0.00398807 0.000449684 0)
(-0.00406789 0.00041168 0)
(-0.00414061 0.000372944 0)
(-0.00420608 0.000333542 0)
(-0.0042642 0.000293543 0)
(-0.00431486 0.000253016 0)
(-0.00435798 0.000212033 0)
(-0.00439346 0.000170663 0)
(-0.00442125 0.000128979 0)
(-0.00444129 8.7054e-05 0)
(-0.00445355 4.4961e-05 0)
(-0.004458 2.77374e-06 0)
(-0.00445463 -3.94339e-05 0)
(-0.00444345 -8.15878e-05 0)
(-0.00442446 -0.000123614 0)
(-0.00439771 -0.000165438 0)
(-0.00436323 -0.000206987 0)
(-0.00432109 -0.000248187 0)
(-0.00427134 -0.000288965 0)
(-0.00421409 -0.00032925 0)
(-0.00414942 -0.000368969 0)
(-0.00407745 -0.000408052 0)
(-0.00399831 -0.00044643 0)
(-0.00391212 -0.000484035 0)
(-0.00381904 -0.000520799 0)
(-0.00371922 -0.000556657 0)
(-0.00361286 -0.000591544 0)
(-0.00350012 -0.000625399 0)
(-0.0033812 -0.000658161 0)
(-0.00325632 -0.00068977 0)
(-0.00312569 -0.000720171 0)
(-0.00298955 -0.000749309 0)
(-0.00284812 -0.00077713 0)
(-0.00270167 -0.000803586 0)
(-0.00255044 -0.000828628 0)
(-0.0023947 -0.000852211 0)
(-0.00223473 -0.000874293 0)
(-0.00207081 -0.000894834 0)
(-0.00190322 -0.000913796 0)
(-0.00173227 -0.000931146 0)
(-0.00155826 -0.000946851 0)
(-0.00138149 -0.000960884 0)
(-0.00120228 -0.00097322 0)
(-0.00102093 -0.000983834 0)
(-0.000837785 -0.00099271 0)
(-0.000653154 -0.000999829 0)
(-0.000467365 -0.00100518 0)
(-0.000280752 -0.00100875 0)
(-9.36541e-05 -0.00101054 0)
(9.36541e-05 -0.00101054 0)
(0.000280752 -0.00100875 0)
(0.000467365 -0.00100518 0)
(0.000653154 -0.000999829 0)
(0.000837785 -0.00099271 0)
(0.00102093 -0.000983834 0)
(0.00120228 -0.00097322 0)
(0.00138149 -0.000960884 0)
(0.00155826 -0.000946851 0)
(0.00173227 -0.000931146 0)
(0.00190322 -0.000913796 0)
(0.00207081 -0.000894834 0)
(0.00223473 -0.000874293 0)
(0.0023947 -0.000852211 0)
(0.00255044 -0.000828628 0)
(0.00270167 -0.000803586 0)
(0.00284812 -0.00077713 0)
(0.00298955 -0.000749309 0)
(0.00312569 -0.000720171 0)
(0.00325632 -0.00068977 0)
(0.0033812 -0.000658161 0)
(0.00350012 -0.000625399 0)
(0.00361286 -0.000591544 0)
(0.00371922 -0.000556657 0)
(0.00381904 -0.000520799 0)
(0.00391212 -0.000484035 0)
(0.00399831 -0.00044643 0)
(0.00407745 -0.000408052 0)
(0.00414942 -0.000368969 0)
(0.00421409 -0.00032925 0)
(0.00427134 -0.000288965 0)
(0.00432109 -0.000248187 0)
(0.00436323 -0.000206987 0)
(0.00439771 -0.000165438 0)
(0.00442446 -0.000123614 0)
(0.00444345 -8.15878e-05 0)
(0.00445463 -3.94339e-05 0)
(0.004458 2.77374e-06 0)
(0.00445355 4.4961e-05 0)
(0.00444129 8.7054e-05 0)
(0.00442125 0.000128979 0)
(0.00439346 0.000170663 0)
(0.00435798 0.000212033 0)
(0.00431486 0.000253016 0)
(0.0042642 0.000293543 0)
(0.00420608 0.000333542 0)
(0.00414061 0.000372944 0)
(0.00406789 0.00041168 0)
(0.00398807 0.000449684 0)
(0.00390128 0.00048689 0)
(0.00380768 0.000523235 0)
(0.00370744 0.000558654 0)
(0.00360072 0.000593088 0)
(0.00348772 0.000626477 0)
(0.00336864 0.000658764 0)
(0.00324369 0.000689893 0)
(0.00311308 0.000719813 0)
(0.00297705 0.00074847 0)
(0.00283583 0.000775818 0)
(0.00268968 0.00080181 0)
(0.00253884 0.000826401 0)
(0.00238357 0.00084955 0)
(0.00222416 0.00087122 0)
(0.00206088 0.000891375 0)
(0.001894 0.000909981 0)
(0.00172383 0.000927011 0)
(0.00155065 0.000942439 0)
(0.00137477 0.000956243 0)
(0.00119648 0.000968408 0)
(0.00101609 0.000978923 0)
(0.000833903 0.000987784 0)
(0.000650231 0.000994998 0)
(0.000465375 0.00100058 0)
(0.000279637 0.00100456 0)
(9.33055e-05 0.00100696 0)
(-9.42735e-05 0.00119433 0)
(-0.000282537 0.00119149 0)
(-0.000470202 0.00118676 0)
(-0.000656976 0.00118014 0)
(-0.000842554 0.00117159 0)
(-0.00102663 0.00116108 0)
(-0.00120889 0.00114861 0)
(-0.00138903 0.00113418 0)
(-0.00156675 0.00111781 0)
(-0.00174173 0.00109951 0)
(-0.00191367 0.00107931 0)
(-0.00208228 0.00105725 0)
(-0.00224726 0.00103334 0)
(-0.00240834 0.00100764 0)
(-0.00256522 0.000980188 0)
(-0.00271763 0.000951024 0)
(-0.00286531 0.000920198 0)
(-0.00300801 0.000887763 0)
(-0.00314546 0.000853775 0)
(-0.00327743 0.00081829 0)
(-0.0034037 0.00078137 0)
(-0.00352402 0.000743077 0)
(-0.00363821 0.000703477 0)
(-0.00374605 0.000662638 0)
(-0.00384735 0.000620629 0)
(-0.00394194 0.000577524 0)
(-0.00402964 0.000533396 0)
(-0.00411031 0.000488321 0)
(-0.00418379 0.000442377 0)
(-0.00424997 0.000395645 0)
(-0.00430871 0.000348203 0)
(-0.00435992 0.000300136 0)
(-0.00440349 0.000251526 0)
(-0.00443936 0.000202458 0)
(-0.00446746 0.000153017 0)
(-0.00448773 0.00010329 0)
(-0.00450013 5.3364e-05 0)
(-0.00450464 3.32544e-06 0)
(-0.00450126 -4.67375e-05 0)
(-0.00448997 -9.6737e-05 0)
(-0.0044708 -0.000146585 0)
(-0.00444379 -0.000196194 0)
(-0.00440896 -0.000245477 0)
(-0.00436639 -0.000294345 0)
(-0.00431614 -0.000342714 0)
(-0.00425831 -0.000390498 0)
(-0.00419297 -0.000437611 0)
(-0.00412026 -0.00048397 0)
(-0.0040403 -0.000529493 0)
(-0.00395322 -0.000574099 0)
(-0.00385917 -0.000617708 0)
(-0.00375832 -0.000660242 0)
(-0.00365084 -0.000701625 0)
(-0.00353693 -0.000741783 0)
(-0.00341677 -0.000780645 0)
(-0.00329059 -0.00081814 0)
(-0.0031586 -0.000854202 0)
(-0.00302102 -0.000888765 0)
(-0.00287812 -0.000921767 0)
(-0.00273012 -0.00095315 0)
(-0.00257731 -0.000982855 0)
(-0.00241993 -0.00101083 0)
(-0.00225828 -0.00103702 0)
(-0.00209264 -0.00106139 0)
(-0.00192329 -0.00108388 0)
(-0.00175054 -0.00110447 0)
(-0.00157469 -0.0011231 0)
(-0.00139606 -0.00113974 0)
(-0.00121496 -0.00115437 0)
(-0.0010317 -0.00116697 0)
(-0.000846624 -0.00117749 0)
(-0.000660045 -0.00118594 0)
(-0.000472296 -0.00119229 0)
(-0.000283714 -0.00119653 0)
(-9.46424e-05 -0.00119865 0)
(9.46425e-05 -0.00119865 0)
(0.000283714 -0.00119653 0)
(0.000472296 -0.00119229 0)
(0.000660045 -0.00118594 0)
(0.000846624 -0.00117749 0)
(0.0010317 -0.00116697 0)
(0.00121496 -0.00115437 0)
(0.00139606 -0.00113974 0)
(0.00157469 -0.0011231 0)
(0.00175054 -0.00110447 0)
(0.00192329 -0.00108388 0)
(0.00209264 -0.00106139 0)
(0.00225828 -0.00103702 0)
(0.00241993 -0.00101083 0)
(0.00257731 -0.000982855 0)
(0.00273012 -0.00095315 0)
(0.00287812 -0.000921767 0)
(0.00302102 -0.000888765 0)
(0.0031586 -0.000854202 0)
(0.00329059 -0.00081814 0)
(0.00341677 -0.000780645 0)
(0.00353693 -0.000741783 0)
(0.00365084 -0.000701625 0)
(0.00375832 -0.000660242 0)
(0.00385917 -0.000617708 0)
(0.00395322 -0.000574099 0)
(0.0040403 -0.000529493 0)
(0.00412026 -0.00048397 0)
(0.00419297 -0.000437611 0)
(0.00425831 -0.000390498 0)
(0.00431614 -0.000342714 0)
(0.00436639 -0.000294345 0)
(0.00440896 -0.000245476 0)
(0.00444379 -0.000196194 0)
(0.0044708 -0.000146585 0)
(0.00448997 -9.6737e-05 0)
(0.00450126 -4.67375e-05 0)
(0.00450464 3.32544e-06 0)
(0.00450013 5.3364e-05 0)
(0.00448773 0.00010329 0)
(0.00446746 0.000153017 0)
(0.00443936 0.000202458 0)
(0.00440349 0.000251526 0)
(0.00435992 0.000300136 0)
(0.00430871 0.000348203 0)
(0.00424997 0.000395645 0)
(0.0041838 0.000442377 0)
(0.00411031 0.000488321 0)
(0.00402964 0.000533396 0)
(0.00394194 0.000577524 0)
(0.00384735 0.000620629 0)
(0.00374605 0.000662638 0)
(0.00363821 0.000703477 0)
(0.00352402 0.000743077 0)
(0.0034037 0.00078137 0)
(0.00327743 0.00081829 0)
(0.00314546 0.000853775 0)
(0.00300801 0.000887763 0)
(0.00286531 0.000920198 0)
(0.00271763 0.000951024 0)
(0.00256522 0.000980188 0)
(0.00240834 0.00100764 0)
(0.00224726 0.00103334 0)
(0.00208228 0.00105725 0)
(0.00191367 0.00107931 0)
(0.00174173 0.00109951 0)
(0.00156675 0.00111781 0)
(0.00138903 0.00113418 0)
(0.00120889 0.00114861 0)