/*--------------------------------*- C++ -*----------------------------------*\
| =========                 |                                                 |
| \\      /  F ield         | OpenFOAM: The Open Source CFD Toolbox           |
|  \\    /   O peration     | Version:  2106                                  |
|   \\  /    A nd           | Website:  www.openfoam.com                      |
|    \\/     M anipulation  |                                                 |
\*---------------------------------------------------------------------------*/
FoamFile
{
    version     2.0;
    format      ascii;
    arch        "LSB;label=32;scalar=64";
    class       volVectorField;
    location    "0.03";
    object      U;
}
// * * * * * * * * * * * * * * * * * * * * * * * * * * * * * * * * * * * * * //

dimensions      [0 1 -1 0 0 0 0];

internalField   nonuniform List<vector> 
1024
(
(0.0030835558 -0.0030279895 0)
(0.0091369736 -0.0029142884 0)
(0.014847267 -0.002690848 0)
(0.019998985 -0.0023655506 0)
(0.02439641 -0.0019499442 0)
(0.02787078 -0.0014589646 0)
(0.030286556 -0.00091047797 0)
(0.031547063 -0.00032476208 0)
(0.031598543 0.00027616579 0)
(0.030433339 0.00086923525 0)
(0.028090426 0.0014313908 0)
(0.024655632 0.0019401885 0)
(0.020258434 0.002375073 0)
(0.015067648 0.0027181772 0)
(0.0092849693 0.0029552487 0)
(0.003136868 0.0030763427 0)
(-0.0031348288 0.0030763615 0)
(-0.0092829983 0.0029553044 0)
(-0.015065827 0.0027182686 0)
(-0.020256833 0.0023751969 0)
(-0.024654309 0.0019403409 0)
(-0.028089436 0.0014315665 0)
(-0.030432723 0.00086942791 0)
(-0.031598326 0.00027636771 0)
(-0.031547256 -0.00032455911 0)
(-0.030287151 -0.0009102824 0)
(-0.027871755 -0.0014587846 0)
(-0.024397726 -0.0019497868 0)
(-0.020000591 -0.0023654218 0)
(-0.014849098 -0.0026907525 0)
(-0.0091389619 -0.0029142295 0)
(-0.0030856152 -0.0030279697 0)
(0.0032876553 -0.0092493617 0)
(0.0097417844 -0.0089021491 0)
(0.01583031 -0.0082198119 0)
(0.021323644 -0.0072263892 0)
(0.026013176 -0.0059571181 0)
(0.029718953 -0.0044575693 0)
(0.032296387 -0.0027822765 0)
(0.03364223 -0.00099314151 0)
(0.033699002 0.0008425739 0)
(0.032458073 0.0026545925 0)
(0.029960961 0.0043721758 0)
(0.026298757 0.0059269194 0)
(0.02160944 0.0072559089 0)
(0.016073028 0.0083044928 0)
(0.0099047273 0.0090290501 0)
(0.003346266 0.0093991618 0)
(-0.0033441516 0.0093992183 0)
(-0.0099026836 0.0090292197 0)
(-0.016071137 0.0083047703 0)
(-0.021607775 0.0072562855 0)
(-0.02629738 0.0059273825 0)
(-0.029959929 0.0043727097 0)
(-0.032457429 0.0026551781 0)
(-0.033698773 0.00084318777 0)
(-0.03364243 -0.00099252433 0)
(-0.032297006 -0.0027816817 0)
(-0.029719968 -0.0044570215 0)
(-0.026014544 -0.0059566392 0)
(-0.021325314 -0.0072259977 0)
(-0.015832213 -0.0082195212 0)
(-0.0097438492 -0.0089019706 0)
(-0.0032897943 -0.0092493017 0)
(0.0036779067 -0.016083443 0)
(0.010898072 -0.015479883 0)
(0.017709273 -0.014293758 0)
(0.023854713 -0.012566801 0)
(0.029101065 -0.010360219 0)
(0.033247052 -0.0077531569 0)
(0.036130984 -0.004840359 0)
(0.037637372 -0.0017293722 0)
(0.037701892 0.0014629536 0)
(0.036314718 0.0046144467 0)
(0.033522047 0.0076020739 0)
(0.029425538 0.010306826 0)
(0.024179396 0.012619086 0)
(0.017984963 0.014443635 0)
(0.011083085 0.015704451 0)
(0.0037443602 0.016348515 0)
(-0.0037421083 0.01634861 0)
(-0.011080907 0.015704739 0)
(-0.017982945 0.014444105 0)
(-0.024177616 0.012619725 0)
(-0.029424063 0.010307615 0)
(-0.033520939 0.0076029849 0)
(-0.036314024 0.0046154477 0)
(-0.037701643 0.0014640044 0)
(-0.037637582 -0.0017283155 0)
(-0.036131645 -0.0048393415 0)
(-0.033248138 -0.0077522207 0)
(-0.029102529 -0.010359401 0)
(-0.023856499 -0.012566134 0)
(-0.017711307 -0.014293263 0)
(-0.010900278 -0.015479579 0)
(-0.0036801916 -0.01608334 0)
(0.0042585902 -0.023880302 0)
(0.012618501 -0.022984209 0)
(0.020504663 -0.02122321 0)
(0.027619689 -0.018659262 0)
(0.033693457 -0.015383267 0)
(0.038493062 -0.01151273 0)
(0.041831562 -0.0071882944 0)
(0.043575517 -0.002569562 0)
(0.043650646 0.0021701406 0)
(0.0420455 0.0068496224 0)
(0.038813235 0.011286271 0)
(0.034071184 0.015303296 0)
(0.027997602 0.018737728 0)
(0.020825481 0.021447959 0)
(0.012833722 0.023320902 0)
(0.0043357879 0.024277686 0)
(-0.0043333308 0.024277823 0)
(-0.012831343 0.023321313 0)
(-0.020823273 0.021448632 0)
(-0.027995647 0.018738646 0)
(-0.034069557 0.015304432 0)
(-0.038812007 0.011287588 0)
(-0.042044727 0.006851074 0)
(-0.043650364 0.0021716667 0)
(-0.043575744 -0.0025680258 0)
(-0.041832288 -0.0071868156 0)
(-0.038494256 -0.01151137 0)
(-0.033695066 -0.015382082 0)
(-0.027621651 -0.018658297 0)
(-0.020506895 -0.021222496 0)
(-0.012620919 -0.022983771 0)
(-0.004261095 -0.023880155 0)
(0.0050164124 -0.033014964 0)
(0.014863655 -0.031775907 0)
(0.024152315 -0.029341003 0)
(0.032531932 -0.025796019 0)
(0.039684399 -0.02126682 0)
(0.045335737 -0.015916023 0)
(0.049266344 -0.0099381483 0)
(0.051319709 -0.0035537515 0)
(0.051408836 0.0029979042 0)
(0.049520153 0.0094668806 0)
(0.045715551 0.015600965 0)
(0.040132428 0.021155654 0)
(0.032980112 0.025905342 0)
(0.024532702 0.029653857 0)
(0.015118752 0.032244487 0)
(0.0051078008 0.033567948 0)
(-0.0051050603 0.03356813 0)
(-0.015116095 0.032245032 0)
(-0.024530231 0.029654748 0)
(-0.032977914 0.025906562 0)
(-0.04013059 0.021157169 0)
(-0.045714152 0.01560273 0)
(-0.049519264 0.0094688345 0)
(-0.051408506 0.0029999646 0)
(-0.051319958 -0.0035516753 0)
(-0.049267162 -0.0099361515 0)
(-0.045337085 -0.015914192 0)
(-0.039686216 -0.021265227 0)
(-0.032534141 -0.025794725 0)
(-0.024154824 -0.029340048 0)
(-0.014866368 -0.031775323 0)
(-0.0050192213 -0.033014767 0)
(0.0059484133 -0.043823482 0)
(0.01762469 -0.042178114 0)
(0.028637596 -0.038944981 0)
(0.038571265 -0.034238296 0)
(0.047048663 -0.028225657 0)
(0.05374566 -0.021123426 0)
(0.058403076 -0.013190066 0)
(0.060836696 -0.0047182017 0)
(0.060944399 0.0039753997 0)
(0.058709779 0.012560346 0)
(0.054204597 0.020702528 0)
(0.047589975 0.02807728 0)
(0.039112693 0.034384561 0)
(0.029097036 0.03936315 0)
(0.017932701 0.042804273 0)
(0.0060586278 0.04456233 0)
(-0.0060555156 0.04456256 0)
(-0.01792968 0.042804959 0)
(-0.029094214 0.039364276 0)
(-0.039110168 0.034386108 0)
(-0.047587846 0.028079212 0)
(-0.054202961 0.020704794 0)
(-0.058708727 0.012562872 0)
(-0.060943998 0.0039780768 0)
(-0.060836976 -0.0047155001 0)
(-0.058404023 -0.013187473 0)
(-0.053747222 -0.021121056 0)
(-0.047050762 -0.028223605 0)
(-0.038573808 -0.034236635 0)
(-0.028640474 -0.03894376 0)
(-0.017627795 -0.04217737 0)
(-0.0059516262 -0.04382323 0)
(0.0071084092 -0.056660869 0)
(0.021060869 -0.054532015 0)
(0.034218728 -0.0503493 0)
(0.046084483 -0.044261246 0)
(0.056207896 -0.036485712 0)
(0.06420308 -0.027303604 0)
(0.069762616 -0.017049702 0)
(0.072669055 -0.0061021274 0)
(0.072802523 0.0051313355 0)
(0.070142709 0.016226764 0)
(0.064771847 0.026753685 0)
(0.056878742 0.036292061 0)
(0.046755431 0.044452707 0)
(0.034787983 0.050896068 0)
(0.021442377 0.055350487 0)
(0.007244753 0.057626506 0)
(-0.0072411516 0.057626788 0)
(-0.021438877 0.055351326 0)
(-0.034784699 0.050897448 0)
(-0.046752469 0.04445461 0)
(-0.056876217 0.036294455 0)
(-0.064769876 0.026756521 0)
(-0.070141421 0.01622996 0)
(-0.072802017 0.0051347468 0)
(-0.072669376 -0.0060986777 0)
(-0.069763744 -0.017046401 0)
(-0.064204939 -0.027300604 0)
(-0.056210382 -0.036483131 0)
(-0.046087477 -0.04425917 0)
(-0.034222102 -0.050347783 0)
(-0.021064495 -0.054531094 0)
(-0.0071121566 -0.056660558 0)
(0.0086728709 -0.072079768 0)
(0.025694716 -0.069368498 0)
(0.041743779 -0.06404244 0)
(0.056212056 -0.056292254 0)
(0.068550675 -0.046397429 0)
(0.078291333 -0.034717776 0)
(0.085063024 -0.021680479 0)
(0.08860545 -0.0077663368 0)
(0.088776943 0.0065095156 0)
(0.085551447 0.020615131 0)
(0.079022293 0.034005983 0)
(0.06941292 0.046147028 0)
(0.057074471 0.056540547 0)
(0.042475419 0.064750747 0)
(0.026184906 0.070428452 0)
(0.0088478146 0.073330097 0)
(-0.0088435598 0.073330435 0)
(-0.026180765 0.070429455 0)
(-0.042471514 0.064752401 0)
(-0.057070915 0.056542838 0)
(-0.069409842 0.046149933 0)
(-0.079019839 0.034009473 0)
(-0.085549807 0.020619131 0)
(-0.088776278 0.0065138345 0)
(-0.088605832 -0.0077619587 0)
(-0.085064418 -0.021676314 0)
(-0.078293618 -0.034714024 0)
(-0.068553707 -0.046394233 0)
(-0.056215676 -0.056289708 0)
(-0.041747829 -0.064040595 0)
(-0.025699047 -0.069367384 0)
(-0.0086773382 -0.072079391 0)
(0.011013967 -0.091129709 0)
(0.032628228 -0.08769593 0)
(0.053001599 -0.080952412 0)
(0.071360197 -0.071143371 0)
(0.087007342 -0.058626613 0)
(0.09935212 -0.043861919 0)
(0.10792979 -0.027392062 0)
(0.11241842 -0.0098252125 0)
(0.11264768 0.0081940889 0)
(0.10858279 0.02600944 0)
(0.10032957 0.042938234 0)
(0.088160554 0.058302009 0)
(0.07251373 0.071466354 0)
(0.053980129 0.081872684 0)
(0.033283587 0.089072636 0)
(0.011247494 0.09275338 0)
(-0.011242336 0.092753779 0)
(-0.033278563 0.089073818 0)
(-0.053975367 0.081874634 0)
(-0.072509351 0.07146906 0)
(-0.088156691 0.058305469 0)
(-0.1003264 0.042942467 0)
(-0.1085806 0.026014423 0)
(-0.11264677 0.0081995761 0)
(-0.11241891 -0.0098196309 0)
(-0.10793159 -0.027386805 0)
(-0.099355036 -0.043857247 0)
(-0.087011162 -0.058622693 0)
(-0.071364704 -0.071140291 0)
(-0.053006594 -0.080950203 0)
(-0.032633533 -0.087694603 0)
(-0.011019426 -0.091129261 0)
(0.014730459 -0.11584906 0)
(0.04363437 -0.11147296 0)
(0.070870311 -0.10288221 0)
(0.095400265 -0.090392535 0)
(0.11629193 -0.074466493 0)
(0.13275976 -0.05569786 0)
(0.14419068 -0.034781888 0)
(0.15016734 -0.0124945 0)
(0.15048143 0.010355816 0)
(0.14508539 0.032968943 0)
(0.13409925 0.054486761 0)
(0.11787254 0.074041406 0)
(0.096981361 0.090817373 0)
(0.072211335 0.10409091 0)
(0.044532132 0.11328044 0)
(0.015049887 0.11798026 0)
(-0.015043478 0.11798072 0)
(-0.044525889 0.11328183 0)
(-0.072205399 0.10409319 0)
(-0.096975853 0.09082053 0)
(-0.11786758 0.07404546 0)
(-0.134095 0.054491831 0)
(-0.14508232 0.032975166 0)
(-0.15048009 0.010362906 0)
(-0.15016799 -0.012487264 0)
(-0.14419313 -0.034775194 0)
(-0.13276364 -0.055692042 0)
(-0.1162969 -0.074461721 0)
(-0.095406035 -0.090388859 0)
(-0.070876625 -0.10287961 0)
(-0.043641021 -0.11147141 0)
(-0.014737285 -0.11584854 0)
(0.020544177 -0.14964262 0)
(0.060850023 -0.14397111 0)
(0.098817939 -0.13284332 0)
(0.1329957 -0.11667471 0)
(0.16207977 -0.09607493 0)
(0.18497906 -0.071827671 0)
(0.20084676 -0.04484021 0)
(0.20911783 -0.016125237 0)
(0.20954097 0.013286288 0)
(0.20205227 0.042433397 0)
(0.18678417 0.070219928 0)
(0.16421 0.095511507 0)
(0.13512628 0.11724096 0)
(0.1006244 0.13445122 0)
(0.062058682 0.14637429 0)
(0.020973707 0.15247514 0)
(-0.02096561 0.1524757 0)
(-0.062050809 0.14637594 0)
(-0.10061692 0.13445389 0)
(-0.13511929 0.1172446 0)
(-0.16420355 0.095516143 0)
(-0.18677832 0.070225864 0)
(-0.20204774 0.04244117 0)
(-0.20953893 0.013295699 0)
(-0.2091188 -0.016115578 0)
(-0.20085027 -0.044831545 0)
(-0.18498439 -0.07182042 0)
(-0.1620864 -0.096069186 0)
(-0.13300321 -0.1166704 0)
(-0.098826015 -0.1328403 0)
(-0.060858451 -0.14396932 0)
(-0.020552799 -0.14964201 0)
(0.028901702 -0.1974449 0)
(0.085596064 -0.18993097 0)
(0.13898601 -0.17519869 0)
(0.18702236 -0.15380483 0)
(0.22786188 -0.12656975 0)
(0.25997252 -0.094556132 0)
(0.2821649 -0.058975554 0)
(0.29365934 -0.0211944 0)
(0.29418337 0.017430404 0)
(0.28365856 0.055784648 0)
(0.26221039 0.092425557 0)
(0.23050398 0.12582509 0)
(0.18966434 0.15456009 0)
(0.14122502 0.1773365 0)
(0.08709305 0.19312333 0)
(0.029433402 0.20120506 0)
(-0.029423241 0.20120575 0)
(-0.087083213 0.19312533 0)
(-0.14121572 0.17733964 0)
(-0.18965567 0.15456425 0)
(-0.23049574 0.12583017 0)
(-0.26220227 0.092432155 0)
(-0.28365156 0.055794228 0)
(-0.29418002 0.017443335 0)
(-0.29366091 -0.021180851 0)
(-0.28217022 -0.058964116 0)
(-0.25998005 -0.094547209 0)
(-0.22787078 -0.12656304 0)
(-0.18703204 -0.15379994 0)
(-0.13899621 -0.17519526 0)
(-0.085606597 -0.18992894 0)
(-0.028912441 -0.19744421 0)
(0.039130889 -0.26440494 0)
(0.11587935 -0.25429553 0)
(0.18813415 -0.23449349 0)
(0.25311499 -0.20575005 0)
(0.30830463 -0.16918183 0)
(0.3516303 -0.12625801 0)
(0.38145953 -0.078604391 0)
(0.39673111 -0.028135272 0)
(0.3972505 0.023278387 0)
(0.38294298 0.07448238 0)
(0.35385851 0.12350091 0)
(0.31094474 0.16821824 0)
(0.255757 0.20672752 0)
(0.19037282 0.23725574 0)
(0.11737479 0.25841632 0)
(0.039662648 0.26925342 0)
(-0.039650423 0.2692543 0)
(-0.11736306 0.25841887 0)
(-0.19036189 0.23725955 0)
(-0.25574694 0.20673227 0)
(-0.31093492 0.16822338 0)
(-0.35384744 0.12350731 0)
(-0.3829316 0.074493553 0)
(-0.3972444 0.023296502 0)
(-0.39673393 -0.028114295 0)
(-0.38146822 -0.078589104 0)
(-0.35164113 -0.12624764 0)
(-0.30831626 -0.1691746 0)
(-0.25312691 -0.20574485 0)
(-0.18814634 -0.23448971 0)
(-0.11589184 -0.25429324 0)
(-0.039143598 -0.26440414 0)
(0.048066385 -0.35275944 0)
(0.14232689 -0.33922128 0)
(0.23103952 -0.3127151 0)
(0.31078586 -0.27423783 0)
(0.37842201 -0.22528238 0)
(0.43138949 -0.16788677 0)
(0.46768212 -0.10420413 0)
(0.48590531 -0.036944283 0)
(0.48614743 0.031157958 0)
(0.46836729 0.099284557 0)
(0.43240529 0.16458373 0)
(0.37961052 0.22410483 0)
(0.31197577 0.27537709 0)
(0.23205077 0.31598977 0)
(0.1430022 0.34412538 0)
(0.048311378 0.35853972 0)
(-0.048298024 0.35854091 0)
(-0.14298966 0.34412885 0)
(-0.23203946 0.31599455 0)
(-0.31196584 0.27538258 0)
(-0.37960051 0.22410928 0)
(-0.43239073 0.16458794 0)
(-0.46834774 0.099296293 0)
(-0.4861343 0.03118262 0)
(-0.48591067 -0.036904873 0)
(-0.46769868 -0.10418456 0)
(-0.43140534 -0.16787697 0)
(-0.37843604 -0.22527607 0)
(-0.31079885 -0.27423293 0)
(-0.23105246 -0.31271097 0)
(-0.14234024 -0.33921867 0)
(-0.048080041 -0.35275852 0)
(0.048472152 -0.45373161 0)
(0.14356991 -0.43615576 0)
(0.23303601 -0.40190214 0)
(0.31339995 -0.35219561 0)
(0.38139776 -0.28892873 0)
(0.43448131 -0.21491314 0)
(0.47058498 -0.13279648 0)
(0.48797052 -0.046298464 0)
(0.48731533 0.040360305 0)
(0.46872229 0.12775088 0)
(0.43169966 0.21154493 0)
(0.37813615 0.28773679 0)
(0.31017996 0.35337014 0)
(0.23036093 0.40525439 0)
(0.14181486 0.44117824 0)
(0.047884294 0.45959955 0)
(-0.047872328 0.4596012 0)
(-0.14180433 0.44118315 0)
(-0.23035226 0.40526053 0)
(-0.3101731 0.35337702 0)
(-0.37812855 0.28774076 0)
(-0.43168141 0.21154384 0)
(-0.46869151 0.12775402 0)
(-0.48728136 0.040359307 0)
(-0.48797762 -0.046199279 0)
(-0.47062428 -0.13278403 0)
(-0.43450535 -0.2149121 0)
(-0.38141189 -0.2889265 0)
(-0.31341036 -0.3521918 0)
(-0.23304648 -0.40189746 0)
(-0.1435816 -0.43615269 0)
(-0.048484567 -0.45373048 0)
(0.028456222 -0.55010566 0)
(0.084192115 -0.52890818 0)
(0.13647395 -0.48736541 0)
(0.18319903 -0.42702569 0)
(0.22233786 -0.34990151 0)
(0.25244109 -0.25997522 0)
(0.27237544 -0.15962681 0)
(0.28067339 -0.053356305 0)
(0.27832218 0.050368447 0)
(0.26572747 0.15702263 0)
(0.2425208 0.25817658 0)
(0.21062027 0.34915743 0)
(0.17145142 0.4274528 0)
(0.12647906 0.48891501 0)
(0.077506614 0.531337 0)
(0.026100225 0.55309529 0)
(-0.026094608 0.55309798 0)
(-0.077502759 0.53134526 0)
(-0.1264763 0.48892211 0)
(-0.17144765 0.42745763 0)
(-0.21061583 0.34915451 0)
(-0.24251832 0.25816882 0)
(-0.26574586 0.15706635 0)
(-0.27820272 0.050234423 0)
(-0.28062833 -0.052983606 0)
(-0.27249261 -0.15970088 0)
(-0.25247195 -0.25999999 0)
(-0.22234633 -0.34990881 0)
(-0.18320112 -0.42702255 0)
(-0.13647693 -0.48735692 0)
(-0.084197764 -0.52890271 0)
(-0.028463442 -0.55010362 0)
(-0.025928978 -0.55323328 0)
(-0.077017428 -0.53148122 0)
(-0.1256915 -0.48904981 0)
(-0.1703954 -0.42757963 0)
(-0.20933823 -0.34927266 0)
(-0.24106418 -0.25827743 0)
(-0.26415711 -0.15710656 0)
(-0.27668796 -0.050394508 0)
(-0.27902403 0.053359556 0)
(-0.27078832 0.15962932 0)
(-0.2509879 0.26001491 0)
(-0.22106994 0.34997574 0)
(-0.18216283 0.42713027 0)
(-0.13570715 0.4874951 0)
(-0.083724469 0.52905175 0)
(-0.028305037 0.55026676 0)
(0.028298817 0.55026939 0)
(0.083720151 0.52905988 0)
(0.13570405 0.48750215 0)
(0.18215871 0.42713521 0)
(0.2210651 0.34997316 0)
(0.2509845 0.26000781 0)
(0.27080424 0.15967437 0)
(0.27890211 0.053229424 0)
(0.2766441 -0.05001863 0)
(0.26427621 -0.15717961 0)
(0.2410958 -0.25830176 0)
(0.20934704 -0.34927975 0)
(0.17039759 -0.42757629 0)
(0.12569428 -0.48904108 0)
(0.077022567 -0.5314756 0)
(0.025935549 -0.55323118 0)
(-0.047704427 -0.46008706 0)
(-0.14130911 -0.4416528 0)
(-0.22954961 -0.40569562 0)
(-0.30909478 -0.35376369 0)
(-0.37682117 -0.28806843 0)
(-0.43020714 -0.21180001 0)
(-0.46711432 -0.12791746 0)
(-0.48564992 -0.040422822 0)
(-0.48630375 0.0463344 0)
(-0.46898819 0.13292011 0)
(-0.43301927 0.2151283 0)
(-0.38012223 0.28922893 0)
(-0.31235849 0.35257104 0)
(-0.23226663 0.40233715 0)
(-0.14310224 0.4366309 0)
(-0.048323327 0.45423103 0)
(0.048311152 0.45423262 0)
(0.14309146 0.43663561 0)
(0.2322577 0.40234319 0)
(0.31235146 0.35257797 0)
(0.38011465 0.28923328 0)
(0.4330015 0.21512808 0)
(0.46895858 0.13292462 0)
(0.48627043 0.046336442 0)
(0.48565637 -0.040320788 0)
(0.46715283 -0.12790392 0)
(0.43023085 -0.2117983 0)
(0.37683504 -0.28806576 0)
(0.30910488 -0.35375948 0)
(0.22955977 -0.40569055 0)
(0.14132054 -0.44164949 0)
(0.047716595 -0.46008586 0)
(-0.048125333 -0.35931912 0)
(-0.14247913 -0.34487833 0)
(-0.23121128 -0.31668636 0)
(-0.31085253 -0.27599158 0)
(-0.37824854 -0.2246142 0)
(-0.43085885 -0.16496794 0)
(-0.46669766 -0.099528271 0)
(-0.48441759 -0.031248211 0)
(-0.48418037 0.037008029 0)
(-0.4660308 0.10441622 0)
(-0.42987599 0.16824236 0)
(-0.37710287 0.22576818 0)
(-0.3097096 0.27483541 0)
(-0.23024517 0.31340078 0)
(-0.14184415 0.33996767 0)
(-0.04791288 0.35353882 0)
(0.04789956 0.35353997 0)
(0.14183163 0.33997103 0)
(0.23023384 0.31340545 0)
(0.30969965 0.27484081 0)
(0.3770929 0.22577267 0)
(0.42986166 0.16824669 0)
(0.46601158 0.10442768 0)
(0.4841679 0.037031809 0)
(0.48442296 -0.03120943 0)
(0.46671348 -0.099508732 0)
(0.43087428 -0.16495791 0)
(0.37826227 -0.22460756 0)
(0.31086529 -0.27598636 0)
(0.23122404 -0.31668195 0)
(0.14249235 -0.34487555 0)
(0.048138877 -0.35931814 0)
(-0.039472634 -0.27047992 0)
(-0.11683758 -0.25959754 0)
(-0.18951011 -0.23834566 0)
(-0.25460336 -0.20768444 0)
(-0.30954676 -0.16900563 0)
(-0.35227227 -0.12408841 0)
(-0.38123102 -0.074847274 0)
(-0.39547855 -0.023406076 0)
(-0.39496703 0.028247596 0)
(-0.37977145 0.078951467 0)
(-0.3500825 0.12682711 0)
(-0.306955 0.16995151 0)
(-0.25201323 0.20669091 0)
(-0.18732057 0.23556917 0)
(-0.1153841 0.2554644 0)
(-0.038972202 0.26562259 0)
(0.038960132 0.26562344 0)
(0.11537251 0.25546688 0)
(0.18730974 0.23557289 0)
(0.25200324 0.20669558 0)
(0.30694523 0.1699566 0)
(0.35007152 0.12683348 0)
(0.37976025 0.078962496 0)
(0.3949611 0.028265545 0)
(0.39548128 -0.023385693 0)
(0.38123942 -0.074832094 0)
(0.35228283 -0.12407792 0)
(0.30955818 -0.16899817 0)
(0.25461512 -0.207679 0)
(0.1895222 -0.23834166 0)
(0.11685002 -0.25959511 0)
(0.039485307 -0.27047908 0)
(-0.029233267 -0.20258762 0)
(-0.086521585 -0.19445309 0)
(-0.14030505 -0.17856125 0)
(-0.18843249 -0.15563225 0)
(-0.22900942 -0.12670335 0)
(-0.26051247 -0.093076312 0)
(-0.28182399 -0.056183419 0)
(-0.29228359 -0.017562793 0)
(-0.29176747 0.021331373 0)
(-0.28035345 0.059375222 0)
(-0.2583106 0.095202162 0)
(-0.22641182 0.12743678 0)
(-0.18583787 0.15485939 0)
(-0.13811067 0.17640032 0)
(-0.085061981 0.19123396 0)
(-0.028728469 0.19880028 0)
(0.0287185 0.19880095 0)
(0.085052319 0.19123591 0)
(0.1381015 0.17640341 0)
(0.1858293 0.1548635 0)
(0.22640365 0.12744183 0)
(0.25830255 0.095208754 0)
(0.28034655 0.059384797 0)
(0.29176413 0.021344258 0)
(0.29228506 -0.017549327 0)
(0.28182913 -0.056171942 0)
(0.26051982 -0.093067253 0)
(0.22901816 -0.12669645 0)
(0.18844207 -0.15562717 0)
(0.14031517 -0.17855766 0)
(0.086532081 -0.19445095 0)
(0.029243985 -0.20258689 0)
(-0.020771258 -0.15459729 0)
(-0.061476333 -0.14841461 0)
(-0.099686039 -0.13632997 0)
(-0.13387017 -0.11888514 0)
(-0.16268706 -0.096857699 0)
(-0.18505559 -0.071216572 0)
(-0.20018649 -0.043043032 0)
(-0.20761099 -0.013486623 0)
(-0.20719798 0.016340286 0)
(-0.19901013 0.045460576 0)
(-0.18329497 0.072828138 0)
(-0.16061084 0.097416339 0)
(-0.13179595 0.1183052 0)
(-0.097931055 0.1347005 0)
(-0.060308157 0.14598441 0)
(-0.020366923 0.15173596 0)
(0.020359026 0.15173651 0)
(0.060300467 0.14598603 0)
(0.097923722 0.13470313 0)
(0.13178908 0.11830881 0)
(0.16060446 0.097420963 0)
(0.18328918 0.072834081 0)
(0.19900565 0.045468359 0)
(0.20719593 0.016349688 0)
(0.20761187 -0.013476956 0)
(0.20018986 -0.043034303 0)
(0.18506077 -0.071209207 0)
(0.16269357 -0.096851812 0)
(0.13387758 -0.11888068 0)
(0.099694045 -0.13632683 0)
(0.061484714 -0.14841274 0)
(0.020779846 -0.15459666 0)
(-0.014803223 -0.11948855 0)
(-0.04381507 -0.11472809 0)
(-0.071052356 -0.1054193 0)
(-0.095426504 -0.091973627 0)
(-0.1159834 -0.074980566 0)
(-0.13195043 -0.055173478 0)
(-0.14276102 -0.033378979 0)
(-0.14807203 -0.01047638 0)
(-0.14776615 0.01266413 0)
(-0.14188982 0.035231876 0)
(-0.13064666 0.056407917 0)
(-0.11444603 0.075407477 0)
(-0.093890431 0.091527593 0)
(-0.069752371 0.10416839 0)
(-0.042949478 0.11286271 0)
(-0.014503735 0.11729185 0)
(0.014497512 0.11729233 0)
(0.042943408 0.11286412 0)
(0.069746583 0.10417072 0)
(0.093885039 0.091530829 0)
(0.11444115 0.075411639 0)
(0.13064247 0.056413124 0)
(0.14188678 0.035238249 0)
(0.14776479 0.01267137 0)
(0.1480726 -0.010468976 0)
(0.14276337 -0.033372087 0)
(0.13195419 -0.055167441 0)
(0.11598826 -0.074975576 0)
(0.095432173 -0.091969754 0)
(0.071058585 -0.10541654 0)
(0.043821647 -0.11472644 0)
(0.014809983 -0.119488 0)
(-0.010986184 -0.097149865 0)
(-0.032520893 -0.093298505 0)
(-0.052747571 -0.08576336 0)
(-0.070861988 -0.074870812 0)
(-0.086156773 -0.061088773 0)
(-0.098054332 -0.045000496 0)
(-0.10612604 -0.027269335 0)
(-0.11010576 -0.0086052142 0)
(-0.10988915 0.010276113 0)
(-0.10550917 0.028684872 0)
(-0.097131541 0.045944582 0)
(-0.085069276 0.06141753 0)
(-0.06977595 0.074534682 0)
(-0.051828826 0.084814281 0)
(-0.031909369 0.091881483 0)
(-0.010774929 0.095480463 0)
(0.010770015 0.095480875 0)
(0.031904577 0.091882704 0)
(0.051824269 0.0848163 0)
(0.069771743 0.07453749 0)
(0.085065546 0.061421123 0)
(0.097128462 0.045948977 0)
(0.10550703 0.028690034 0)
(0.10988823 0.010281788 0)
(0.11010618 -0.0085994108 0)
(0.10612774 -0.027263848 0)
(0.098057112 -0.044995596 0)
(0.086160439 -0.061084643 0)
(0.070866333 -0.074867551 0)
(0.052752403 -0.085761013 0)
(0.032526035 -0.093297091 0)
(0.010991483 -0.097149388 0)
(-0.0083549811 -0.073235964 0)
(-0.024733924 -0.070332195 0)
(-0.040122372 -0.064650745 0)
(-0.053910399 -0.056437351 0)
(-0.065560172 -0.046043779 0)
(-0.074630061 -0.033908304 0)
(-0.080789328 -0.020530454 0)
(-0.083828542 -0.0064463041 0)
(-0.083661728 0.0077996448 0)
(-0.080314181 0.02167668 0)
(-0.073919292 0.034672072 0)
(-0.064722374 0.046308151 0)
(-0.053073411 0.05616166 0)
(-0.039414047 0.063876711 0)
(-0.024262328 0.069177375 0)
(-0.0081921467 0.071875591 0)
(0.0081881529 0.071875891 0)
(0.024258439 0.069178271 0)
(0.039410369 0.063878194 0)
(0.053070051 0.056163727 0)
(0.064719453 0.046310787 0)
(0.073916951 0.034675263 0)
(0.080312605 0.021680357 0)
(0.083661081 0.0078036289 0)
(0.083828883 -0.0064422522 0)
(0.080790616 -0.020526596 0)
(0.074632198 -0.033904822 0)
(0.065563027 -0.04604081 0)
(0.053913825 -0.056434983 0)
(0.040126219 -0.064649028 0)
(0.024738044 -0.070331156 0)
(0.0083592365 -0.073235614 0)
(-0.0067804948 -0.068120174 0)
(-0.020075358 -0.065437465 0)
(-0.032572812 -0.060185182 0)
(-0.043780439 -0.05258455 0)
(-0.05326204 -0.042953113 0)
(-0.060656419 -0.031688661 0)
(-0.065689962 -0.01924819 0)
(-0.068185965 -0.0061268019 0)
(-0.068065949 0.0071669383 0)
(-0.065348136 0.020129504 0)
(-0.060144948 0.032276642 0)
(-0.052658903 0.04315826 0)
(-0.04317772 0.052375989 0)
(-0.032062748 0.059595185 0)
(-0.019735926 0.064556212 0)
(-0.0066636676 0.067081847 0)
(0.0066602184 0.067082208 0)
(0.019732574 0.064557285 0)
(0.0320596 0.059596944 0)
(0.043174874 0.052378407 0)
(0.052656469 0.043161279 0)
(0.060143042 0.032280197 0)
(0.065346879 0.020133478 0)
(0.06806544 0.0071711608 0)
(0.068186249 -0.0061225598 0)
(0.065691027 -0.019244118 0)
(0.060658195 -0.031684937 0)
(0.053264428 -0.042949888 0)
(0.043783323 -0.052581938 0)
(0.032576071 -0.060183264 0)
(0.020078864 -0.065436293 0)
(0.0067841233 -0.06811978 0)
(-0.0048114634 -0.040515776 0)
(-0.014244538 -0.038906377 0)
(-0.023108908 -0.035757474 0)
(-0.031053692 -0.031205555 0)
(-0.037768528 -0.025445709 0)
(-0.042996973 -0.018721162 0)
(-0.046545567 -0.011309603 0)
(-0.048290015 -0.0035100747 0)
(-0.048178621 0.0043727297 0)
(-0.046228218 0.012039924 0)
(-0.042522303 0.019207107 0)
(-0.037209266 0.025612961 0)
(-0.03049519 0.031028504 0)
(-0.022636384 0.035262875 0)
(-0.01392992 0.038169142 0)
(-0.0047026896 0.039647566 0)
(0.004700231 0.039647798 0)
(0.013927526 0.038169843 0)
(0.022634143 0.035264025 0)
(0.030493169 0.031030085 0)
(0.037207548 0.025614932 0)
(0.042520972 0.01920942 0)
(0.046227347 0.0120425 0)
(0.048178261 0.0043754659 0)
(0.048290206 -0.003507283 0)
(0.046546316 -0.011306912 0)
(0.042998222 -0.018718698 0)
(0.037770212 -0.025443567 0)
(0.031055734 -0.031203818 0)
(0.023111225 -0.035756198 0)
(0.014247035 -0.038905594 0)
(0.0048140462 -0.040515516 0)
(-0.0043842058 -0.056597204 0)
(-0.012981606 -0.054383208 0)
(-0.021065709 -0.05004618 0)
(-0.02831886 -0.043764239 0)
(-0.034458727 -0.035793556 0)
(-0.039250137 -0.026456506 0)
(-0.042513564 -0.016126428 0)
(-0.044131977 -0.0052108077 0)
(-0.044051713 0.0058664042 0)
(-0.042284939 0.016682211 0)
(-0.038908289 0.026827866 0)
(-0.03405601 0.03592419 0)
(-0.02791676 0.04363456 0)
(-0.020725637 0.049676251 0)
(-0.012755404 0.053829631 0)
(-0.0043064775 0.055944479 0)
(0.0043039721 0.055944637 0)
(0.012752981 0.053830109 0)
(0.020723379 0.049677035 0)
(0.027914746 0.043635634 0)
(0.034054319 0.035925525 0)
(0.038906997 0.026829423 0)
(0.042284115 0.016683937 0)
(0.044051426 0.0058682253 0)
(0.044132221 -0.0052089794 0)
(0.042514303 -0.016124668 0)
(0.039251362 -0.026454898 0)
(0.034460384 -0.035792149 0)
(0.028320874 -0.043763102 0)
(0.021068009 -0.050045339 0)
(0.012984088 -0.054382687 0)
(0.0043867837 -0.056597037 0)
(-0.002033046 -0.01379785 0)
(-0.0060175854 -0.01323835 0)
(-0.0097556748 -0.012145114 0)
(-0.013096221 -0.010568788 0)
(-0.015906809 -0.0085810564 0)
(-0.018080049 -0.0062704117 0)
(-0.019536923 -0.0037365891 0)
(-0.020228888 -0.0010849461 0)
(-0.020139263 0.0015787244 0)
(-0.019281673 0.004154426 0)
(-0.017698286 0.0065479472 0)
(-0.015456788 0.0086754935 0)
(-0.01264657 0.01046523 0)
(-0.0093750735 0.01185892 0)
(-0.0057640289 0.012812619 0)
(-0.0019453138 0.013296944 0)
(0.0019433834 0.013297242 0)
(0.0057621569 0.012813521 0)
(0.0093733335 0.011860382 0)
(0.01264502 0.010467214 0)
(0.015455487 0.0086779317 0)
(0.017697297 0.0065507533 0)
(0.019281038 0.004157498 0)
(0.020138999 0.0015819466 0)
(0.020229031 -0.0010817264 0)
(0.019537486 -0.0037334749 0)
(0.018080997 -0.0062675507 0)
(0.015908093 -0.0085785319 0)
(0.013097784 -0.010566732 0)
(0.0097574772 -0.012143588 0)
(0.0060195185 -0.013237403 0)
(0.0020350548 -0.013797536 0)
(-0.0041583921 -0.059747456 0)
(-0.012312942 -0.057428849 0)
(-0.019982876 -0.052884092 0)
(-0.026867801 -0.046294478 0)
(-0.032700051 -0.037921572 0)
(-0.037255862 -0.028096487 0)
(-0.040363338 -0.017205497 0)
(-0.041909856 -0.0056738865 0)
(-0.041842049 0.0060507191 0)
(-0.040170278 0.017525156 0)
(-0.036967061 0.028310499 0)
(-0.032359627 0.03799773 0)
(-0.026527682 0.04622143 0)
(-0.019695002 0.05267339 0)
(-0.012121232 0.057112824 0)
(-0.0040921769 0.059374498 0)
(0.0040905326 0.059374519 0)
(0.012119648 0.057112949 0)
(0.019693529 0.052673571 0)
(0.026526384 0.046221694 0)
(0.032358545 0.037998061 0)
(0.036966246 0.02831088 0)
(0.040169773 0.017525576 0)
(0.041841877 0.0060511812 0)
(0.041910024 -0.005673393 0)
(0.040363816 -0.017204997 0)
(0.037256656 -0.028096065 0)
(0.03270112 -0.037921156 0)
(0.026869082 -0.046294184 0)
(0.01998437 -0.052883885 0)
(0.012314544 -0.057428699 0)
(0.0041600543 -0.059747417 0)
(-0.0020688895 0.015471878 0)
(-0.0061249127 0.014887076 0)
(-0.00993257 0.01373852 0)
(-0.013339102 0.012067435 0)
(-0.01621008 0.0099343536 0)
(-0.018436044 0.00741723 0)
(-0.019935457 0.0046091871 0)
(-0.020658096 0.0016159281 0)
(-0.020578001 -0.0014496047 0)
(-0.019707355 -0.0044686177 0)
(-0.018094855 -0.0073242982 0)
(-0.015807936 -0.009903611 0)
(-0.01293735 -0.012103985 0)
(-0.009592606 -0.013837142 0)
(-0.0058987019 -0.015033133 0)
(-0.0019911043 -0.015643489 0)
(0.0019886582 -0.015643371 0)
(0.0058963516 -0.015032781 0)
(0.0095904186 -0.013836578 0)
(0.012935436 -0.012103224 0)
(0.015806333 -0.0099026842 0)
(0.018093644 -0.0073232455 0)
(0.019706609 -0.0044674794 0)
(0.020577742 -0.0014484243 0)
(0.02065834 0.0016170938 0)
(0.019936139 0.004610304 0)
(0.018437219 0.0074182492 0)
(0.016211659 0.0099352577 0)
(0.013340977 0.012068165 0)
(0.0099348172 0.013739061 0)
(0.0061273201 0.01488742 0)
(0.0020713798 0.015471998 0)
(-0.010290839 -0.065599536 0)
(-0.030474998 -0.063070248 0)
(-0.049475524 -0.058109935 0)
(-0.066556002 -0.050911397 0)
(-0.081056561 -0.041754326 0)
(-0.092419926 -0.030993858 0)
(-0.10021197 -0.019046981 0)
(-0.1041421 -0.0063792213 0)
(-0.10407202 0.0065016247 0)
(-0.10001244 0.019150768 0)
(-0.0921214 0.031063211 0)
(-0.080704642 0.041778711 0)
(-0.066204436 0.050887176 0)
(-0.04917806 0.058040917 0)
(-0.03027714 0.062967128 0)
(-0.010222944 0.065478203 0)
(0.010220566 0.065478462 0)
(0.030274842 0.062967884 0)
(0.049175932 0.058042174 0)
(0.06620257 0.050888871 0)
(0.080703101 0.041780793 0)
(0.092120245 0.0310656 0)
(0.10001172 0.019153386 0)
(0.10407176 0.0065043785 0)
(0.10414232 -0.0063764259 0)
(0.10021266 -0.019044281 0)
(0.092421074 -0.030991335 0)
(0.081058111 -0.041752139 0)
(0.06655787 -0.050909598 0)
(0.049477675 -0.058108608 0)
(0.030477315 -0.063069437 0)
(0.010293236 -0.06559925 0)
)
;

boundaryField
{
    leftWall
    {