/*--------------------------------*- C++ -*----------------------------------*\
| =========                 |                                                 |
| \\      /  F ield         | OpenFOAM: The Open Source CFD Toolbox           |
|  \\    /   O peration     | Version:  2306                                  |
|   \\  /    A nd           | Website:  www.openfoam.com                      |
|    \\/     M anipulation  |                                                 |
\*---------------------------------------------------------------------------*/
FoamFile
{
    version     2.0;
    format      ascii;
    arch        "LSB;label=32;scalar=64";
    class       volVectorField;
    location    "0.51";
    object      U;
}
// * * * * * * * * * * * * * * * * * * * * * * * * * * * * * * * * * * * * * //

dimensions      [0 1 -1 0 0 0 0];

internalField   nonuniform List<vector> 
6400
(
(-0.0029452613 -0.099559734 8.2445013e-17)
(-0.0066910978 -0.099164603 1.1105126e-16)
(-0.010861078 -0.097988504 -9.1018419e-18)
(-0.014701476 -0.096284854 -3.3748736e-17)
(-0.018413083 -0.094131566 -1.3459003e-16)
(-0.021837305 -0.091614441 -2.2165025e-17)
(-0.024952988 -0.088806321 -3.3600257e-17)
(-0.027749848 -0.085767867 -2.4318746e-17)
(-0.03022459 -0.082555562 6.036318e-18)
(-0.032382535 -0.079221861 -3.3218633e-17)
(-0.034236191 -0.075814063 -1.4302032e-17)
(-0.035803452 -0.072373181 -8.7838223e-18)
(-0.037105595 -0.068933384 -1.231342e-17)
(-0.038165576 -0.065522099 1.9818604e-18)
(-0.039006607 -0.062160548 4.2132655e-18)
(-0.03965111 -0.058864468 1.149579e-17)
(-0.040120054 -0.055644947 -2.4691745e-18)
(-0.040432536 -0.052509335 6.6868169e-18)
(-0.040605566 -0.049462096 1.4580481e-17)
(-0.040654051 -0.046505587 1.3361129e-17)
(-0.040590939 -0.043640673 7.50059e-18)
(-0.040427392 -0.040867222 4.3655285e-18)
(-0.040173017 -0.038184518 1.5400156e-18)
(-0.039836113 -0.035591522 1.1835489e-17)
(-0.03942389 -0.033087074 1.874041e-17)
(-0.038942679 -0.030670024 3.5724384e-18)
(-0.038398117 -0.028339302 -3.1031896e-19)
(-0.037795295 -0.026093961 7.038242e-18)
(-0.037138898 -0.023933198 1.3959703e-17)
(-0.036433309 -0.021856339 1.5654454e-17)
(-0.035682691 -0.019862812 4.7374984e-18)
(-0.034891044 -0.017952118 8.2131081e-19)
(-0.034062258 -0.016123798 2.2923188e-18)
(-0.03320014 -0.014377399 6.7177825e-18)
(-0.03230844 -0.012712442 8.735714e-18)
(-0.031390855 -0.011128396 -1.015874e-18)
(-0.030451037 -0.0096246441 -1.0612744e-18)
(-0.029492591 -0.0082004678 1.9466792e-18)
(-0.028519066 -0.006855026 3.9591566e-18)
(-0.027533946 -0.0055873411 7.2277408e-18)
(-0.026540642 -0.0043962891 4.1936408e-18)
(-0.025542468 -0.0032806002 4.2856553e-19)
(-0.024542637 -0.0022388616 -4.5775364e-18)
(-0.023544263 -0.0012694854 -3.7731297e-18)
(-0.022550387 -0.00037071453 -5.132535e-19)
(-0.021563802 0.00045937368 -9.6879739e-19)
(-0.020587104 0.0012226791 -4.0803801e-18)
(-0.019622925 0.0019214078 -4.4143198e-18)
(-0.018673602 0.0025578077 -4.1403817e-18)
(-0.017741323 0.0031342427 -4.8937567e-19)
(-0.016828095 0.0036531669 1.8517482e-18)
(-0.015935741 0.0041171107 2.8764197e-19)
(-0.015065898 0.0045286666 -2.5366943e-20)
(-0.014220013 0.0048904751 -1.0850387e-18)
(-0.013399347 0.0052052093 -2.0347858e-19)
(-0.012604975 0.0054755607 1.9215825e-18)
(-0.011837787 0.0057042247 2.0806451e-18)
(-0.011098496 0.005893886 4.2123344e-19)
(-0.010387641 0.0060472059 -1.3287637e-18)
(-0.0097055933 0.0061668086 -2.783814e-19)
(-0.009052564 0.00625527 1.2496738e-18)
(-0.0084286129 0.0063151055 4.4722517e-19)
(-0.0078336569 0.0063487603 -1.5307832e-18)
(-0.0072674796 0.0063585999 -1.6202952e-18)
(-0.0067297413 0.0063469014 4.0490395e-20)
(-0.0062199898 0.0063158473 9.2987892e-19)
(-0.0057376713 0.0062675182 9.5615095e-19)
(-0.0052821408 0.006203889 2.5670733e-19)
(-0.0048526737 0.0061268242 -5.8638327e-19)
(-0.0044484765 0.0060380755 6.0937241e-19)
(-0.0040686974 0.0059392803 9.9159732e-19)
(-0.0037124373 0.0058319606 1.2092539e-19)
(-0.0033787598 0.0057175239 -4.6054098e-19)
(-0.0030667009 0.0055972643 -1.0049882e-18)
(-0.0027752784 0.0054723638 1.8999869e-20)
(-0.0025034998 0.0053438969 5.4362001e-20)
(-0.0022503729 0.0052128337 -7.2945896e-20)
(-0.002014908 0.0050800419 -4.6192594e-19)
(-0.0017961317 0.0049462933 -6.6455082e-19)
(-0.0015930883 0.0048122727 -3.9354086e-19)
(-0.0026105413 -0.091462388 2.1221216e-17)
(-0.0059330377 -0.09113769 -1.3104876e-16)
(-0.0096421848 -0.09015607 -1.8713108e-17)
(-0.013075309 -0.088724511 -1.4115673e-18)
(-0.016412595 -0.086902218 2.3660074e-17)
(-0.019513791 -0.084758006 2.305132e-17)
(-0.022360002 -0.082350653 -4.6927095e-18)
(-0.024940754 -0.079729439 2.0423697e-17)
(-0.027250916 -0.076940406 -4.3388127e-19)
(-0.029292039 -0.074026876 -1.003048e-17)
(-0.03107156 -0.071028572 8.0063982e-18)
(-0.032601508 -0.067980734 7.7529389e-18)
(-0.033897064 -0.064913583 5.0625856e-18)
(-0.034975299 -0.061852212 1.1245795e-17)
(-0.035854052 -0.058816836 3.9986118e-18)
(-0.036551044 -0.05582328 -1.5995202e-18)
(-0.037083288 -0.052883507 1.0892244e-17)
(-0.037466677 -0.050006254 1.3759938e-17)
(-0.037715733 -0.047197642 1.6272367e-17)
(-0.037843495 -0.044461784 1.4110921e-17)
(-0.037861557 -0.041801287 1.9229346e-17)
(-0.037780139 -0.039217661 1.2801763e-17)
(-0.037608232 -0.036711675 7.7673977e-18)
(-0.037353752 -0.034283607 1.7949861e-17)
(-0.037023699 -0.031933431 -1.0081151e-18)
(-0.036624311 -0.029660964 7.9984271e-19)
(-0.0361612 -0.02746594 1.0102087e-17)
(-0.035639478 -0.02534808 1.2992663e-17)
(-0.03506386 -0.02330712 1.8077686e-17)
(-0.034438763 -0.021342825 -2.0201477e-19)
(-0.033768367 -0.019454978 9.8311282e-19)
(-0.033056677 -0.017643368 6.5528322e-18)
(-0.03230756 -0.015907771 6.6853699e-18)
(-0.031524779 -0.014247933 1.0606185e-17)
(-0.030712014 -0.012663544 -4.3468114e-18)
(-0.029872873 -0.011154223 -3.7062681e-19)
(-0.0290109 -0.0097194925 3.8431027e-18)
(-0.028129576 -0.0083587703 4.4678819e-18)
(-0.027232314 -0.0070713497 6.375876e-18)
(-0.026322456 -0.0058563918 -2.812051e-18)
(-0.025403259 -0.0047129166 -3.696055e-18)
(-0.024477892 -0.0036398021 -2.762724e-18)
(-0.023549414 -0.0026357899 -5.7815142e-18)
(-0.022620778 -0.0016994775 -3.5908211e-18)
(-0.02169483 -0.00082929764 -1.5474243e-18)
(-0.020774391 -2.3495137e-05 -1.4861954e-18)
(-0.019861803 0.00071966349 -4.2626936e-18)
(-0.018959572 0.0014021324 -5.261052e-18)
(-0.018069971 0.0020259646 -3.9040061e-18)
(-0.017195083 0.0025933069 -7.0733928e-19)
(-0.016336833 0.0031063938 6.346055e-19)
(-0.015496979 0.0035675323 -7.1518881e-19)
(-0.014677105 0.0039790897 -7.0533086e-19)
(-0.01387862 0.0043434804 -1.7253157e-18)
(-0.01310276 0.004663153 -1.0767748e-18)
(-0.012350589 0.0049405762 5.2864752e-19)
(-0.011623002 0.0051782261 7.4686007e-19)
(-0.010920726 0.0053785725 5.9311142e-19)
(-0.01024433 0.0055440681 -1.5740783e-18)
(-0.0095942261 0.0056771346 -1.9057879e-18)
(-0.0089706769 0.0057801533 -4.2055535e-19)
(-0.0083738045 0.0058554539 -9.3269512e-19)
(-0.0078035971 0.0059053048 -1.8625719e-18)
(-0.0072599183 0.005931905 -1.7994295e-18)
(-0.0067425158 0.0059373753 -7.5954323e-19)
(-0.006251031 0.0059237533 6.3981148e-20)
(-0.0057850089 0.0058929858 7.4601607e-20)
(-0.0053439077 0.0058469253 -1.1458483e-19)
(-0.0049271092 0.0057873254 -7.2491418e-19)
(-0.0045339282 0.0057158387 -8.2952612e-20)
(-0.0041636227 0.0056340147 4.3602376e-19)
(-0.0038154034 0.005543299 -4.308711e-20)
(-0.003488443 0.0054450334 -7.0096668e-19)
(-0.0031818853 0.0053404563 -9.8105682e-19)
(-0.0028948533 0.0052307053 -3.2875374e-19)
(-0.0026264571 0.0051168188 -2.420797e-19)
(-0.0023758023 0.004999739 -4.6210527e-19)
(-0.0021419945 0.0048803166 -6.8528117e-19)
(-0.00192415 0.0047593114 -6.9394223e-19)
(-0.0017213981 0.0046374034 -5.6461593e-19)
(-0.0023251037 -0.084264899 1.2874466e-17)
(-0.0052860135 -0.08399583 -9.9660748e-17)
(-0.0085997398 -0.083170891 2.3232438e-17)
(-0.01168076 -0.081960172 9.1898589e-17)
(-0.014691458 -0.080408603 8.6620395e-17)
(-0.017507214 -0.078571485 2.6531576e-17)
(-0.020111081 -0.076496464 4.4631423e-17)
(-0.022492691 -0.074223753 4.5718745e-17)
(-0.024645786 -0.071791148 4.4516306e-17)
(-0.02656938 -0.069234628 2.3963371e-17)
(-0.028267339 -0.066587678 2.1239347e-17)
(-0.029747449 -0.063880588 -1.5888063e-18)
(-0.031020352 -0.061139951 2.5377128e-18)
(-0.032098611 -0.058388466 -3.4913319e-18)
(-0.032995836 -0.055645016 -4.261177e-18)
(-0.033725945 -0.05292496 7.4013862e-18)
(-0.034302646 -0.050240485 1.5219417e-18)
(-0.034739063 -0.04760104 -4.5256717e-20)
(-0.035047469 -0.045013756 -4.3522771e-18)
(-0.035239141 -0.042483921 -5.6280774e-18)
(-0.035324324 -0.040015368 -8.8391504e-18)
(-0.03531224 -0.037610817 -1.0191288e-17)
(-0.035211156 -0.03527217 4.4464294e-18)
(-0.035028483 -0.033000735 1.1992246e-18)
(-0.034770879 -0.030797404 7.6691528e-18)
(-0.034444357 -0.028662787 8.2483324e-18)
(-0.034054389 -0.026597303 -1.6947788e-18)
(-0.033605995 -0.024601245 3.2034701e-18)
(-0.033103834 -0.022674827 2.6583371e-18)
(-0.032552272 -0.02081821 7.5365513e-18)
(-0.031955447 -0.019031506 9.1380553e-18)
(-0.031317312 -0.017314774 -1.7503781e-18)
(-0.030641673 -0.01566802 2.8167783e-19)
(-0.029932219 -0.01409118 5.4264642e-20)
(-0.029192541 -0.012584114 4.4535482e-18)
(-0.028426144 -0.011146591 8.4999317e-18)
(-0.027636457 -0.0097782745 -1.5340904e-18)
(-0.026826834 -0.0084787145 4.7886866e-19)
(-0.026000556 -0.0072473375 -1.0102071e-18)
(-0.025160821 -0.0060834392 6.7903059e-19)
(-0.024310746 -0.0049861788 6.9610768e-18)
(-0.023453353 -0.0039545771 -9.965778e-20)
(-0.022591563 -0.0029875211 -4.2189095e-18)
(-0.021728185 -0.0020837682 -1.8176552e-18)
(-0.020865922 -0.0012419319 -1.2359904e-18)
(-0.020007369 -0.00046048503 -1.0463284e-18)
(-0.01915502 0.00026229342 -3.2494952e-18)
(-0.018311032 0.00092801297 -3.2308214e-18)
(-0.017477645 0.0015385819 -1.9326355e-18)
(-0.01665685 0.0020959487 4.087094e-19)
(-0.015850499 0.0026021433 7.4821565e-19)
(-0.015060283 0.0030592669 -2.9180705e-19)
(-0.014287735 0.0034694792 -7.6429038e-19)
(-0.013534225 0.0038349869 -8.6184762e-19)
(-0.012800964 0.0041580313 1.314182e-18)
(-0.012089001 0.0044408758 -2.8511878e-19)
(-0.011399231 0.0046857943 -1.0590444e-19)
(-0.010732392 0.0048950583 1.0467804e-18)
(-0.010089076 0.0050709273 -1.1325011e-19)
(-0.0094697282 0.0052156357 -1.2022654e-19)
(-0.0088746559 0.0053313843 -1.2413613e-18)
(-0.0083040344 0.0054203302 -1.3500507e-18)
(-0.0077579144 0.0054845777 -6.375923e-19)
(-0.0072362292 0.0055261699 -6.3503581e-19)
(-0.0067388036 0.005547082 4.7147323e-19)
(-0.0062653622 0.0055492154 -4.3914721e-19)
(-0.0058155377 0.0055343909 -1.9962242e-19)
(-0.0053888806 0.0055043455 6.8485666e-19)
(-0.004984868 0.0054607277 1.5774924e-19)
(-0.0046029122 0.0054050954 4.5821036e-19)
(-0.00424237 0.0053389138 -2.6102444e-19)
(-0.0039025515 0.0052635545 -4.085331e-19)
(-0.0035827281 0.0051802949 -2.5397516e-19)
(-0.0032821416 0.0050903186 -1.6991769e-19)
(-0.003000011 0.0049947181 2.4201673e-19)
(-0.0027355399 0.0048944947 -7.170323e-19)
(-0.0024879242 0.0047905618 -8.0804265e-19)
(-0.002256357 0.0046837494 -3.5310679e-19)
(-0.0020400371 0.0045748028 -2.2482382e-19)
(-0.0018381717 0.004464394 -3.8312572e-20)
(-0.0020803248 -0.077837317 8.3225729e-17)
(-0.0047307888 -0.07761263 1.1530523e-16)
(-0.0077035518 -0.076914692 3.9327698e-17)
(-0.010478692 -0.075884216 1.2474489e-17)
(-0.013203167 -0.074555252 1.8924909e-17)
(-0.015765797 -0.072972401 8.3755375e-18)
(-0.01815138 -0.071174467 5.353586e-18)
(-0.020349898 -0.069194417 3.7227509e-17)
(-0.022354481 -0.067063458 7.8024242e-18)
(-0.024162476 -0.064811608 -7.2342072e-18)
(-0.02577525 -0.06246719 -8.7943248e-18)
(-0.027197513 -0.060056257 -6.8492688e-18)
(-0.028436527 -0.057602136 2.3797865e-18)
(-0.029501405 -0.0551252 1.0904433e-18)
(-0.03040243 -0.05264285 1.3313639e-17)
(-0.031150453 -0.050169662 -2.1023597e-17)
(-0.031756452 -0.047717617 -1.1302018e-17)
(-0.032231184 -0.045296398 -5.8763413e-18)
(-0.032584937 -0.042913678 -1.9531158e-18)
(-0.032827372 -0.040575472 8.4765189e-18)
(-0.032967448 -0.038286435 -1.055875e-17)
(-0.033013382 -0.036050147 -4.2655742e-18)
(-0.032972677 -0.033869345 1.8967759e-18)
(-0.032852169 -0.031746127 7.5032074e-18)
(-0.032658089 -0.029682103 1.5098067e-17)
(-0.032396139 -0.027678523 -1.6708669e-18)
(-0.032071562 -0.025736369 -1.504986e-18)
(-0.031689209 -0.023856419 4.8813557e-18)
(-0.031253607 -0.022039299 6.2049766e-18)
(-0.030769014 -0.020285517 1.3526469e-17)
(-0.030239471 -0.01859548 1.2275254e-19)
(-0.029668836 -0.016969498 -4.2517553e-18)
(-0.029060822 -0.015407787 5.3018363e-19)
(-0.028419017 -0.013910469 1.4208914e-18)
(-0.027746905 -0.012477565 8.9231441e-18)
(-0.027047876 -0.011108989 -1.540599e-18)
(-0.026325237 -0.0098045416 -4.3045948e-18)
(-0.025582213 -0.0085639028 -8.6941704e-19)
(-0.024821949 -0.0073866276 7.5299364e-19)
(-0.024047508 -0.0062721409 5.1235258e-18)
(-0.023261866 -0.0052197344 1.1253226e-19)
(-0.022467908 -0.004228566 -2.4353783e-18)
(-0.021668417 -0.003297662 -9.7430737e-19)
(-0.020866071 -0.0024259244 -1.5076655e-18)
(-0.020063435 -0.0016121293 -2.9164373e-18)
(-0.019262961 -0.00085491545 -2.3355736e-18)
(-0.018467066 -0.00015277724 -1.0123089e-18)
(-0.017677849 0.00049586029 -3.3402294e-19)
(-0.016897354 0.0010925927 -1.050969e-18)
(-0.016127531 0.0016392372 -9.0252889e-19)
(-0.015370157 0.0021376302 -1.062705e-18)
(-0.01462686 0.0025896825 -3.8810969e-20)
(-0.01389912 0.0029973629 -1.5862349e-19)
(-0.013188269 0.0033626866 6.8809528e-19)
(-0.012495489 0.003687704 1.4236299e-18)
(-0.011821816 0.0039744893 -2.3414732e-18)
(-0.011168137 0.0042251296 -9.904815e-19)
(-0.010535201 0.0044417131 4.4867731e-19)
(-0.0099236136 0.0046263207 5.9289636e-19)
(-0.009333849 0.0047810133 4.503839e-19)
(-0.0087662514 0.0049078247 -2.2040552e-18)
(-0.0082210419 0.005008751 -1.9796333e-18)
(-0.007698325 0.0050857439 -7.9561418e-19)
(-0.0071980955 0.0051407014 -3.9583817e-20)
(-0.0067202458 0.0051754625 7.5766539e-19)
(-0.0062645738 0.0051918005 -1.0313779e-18)
(-0.0058307907 0.0051914181 -4.2265578e-19)
(-0.0054185291 0.0051759429 6.5387382e-19)
(-0.0050273511 0.005146924 1.779875e-19)
(-0.0046567569 0.0051058288 4.6825593e-19)
(-0.0043061922 0.0050540419 -6.0651537e-19)
(-0.0039750567 0.0049928631 -6.6839589e-19)
(-0.0036627117 0.0049235074 -4.0549274e-19)
(-0.0033684876 0.0048471046 -1.4351186e-19)
(-0.0030916907 0.0047647015 3.3387488e-19)
(-0.0028316103 0.0046772621 -8.9845192e-19)
(-0.0025875253 0.00458567 -1.0635874e-18)
(-0.0023587089 0.0044907313 -5.9642452e-19)
(-0.002144436 0.004393176 -3.7644624e-19)
(-0.0019439864 0.0042936648 1.9287941e-19)
(-0.0018691946 -0.072072222 8.6313162e-17)
(-0.0042516563 -0.071883278 9.8283297e-17)
(-0.0069289138 -0.071288971 4.4394464e-18)
(-0.009437095 -0.07040651 -7.3293639e-17)
(-0.011909708 -0.069261642 -2.0342962e-17)
(-0.014247187 -0.067890502 -6.84763e-17)
(-0.016435919 -0.066324854 -3.4267636e-17)
(-0.018466407 -0.064591854 -1.6475645e-17)
(-0.020331545 -0.062717401 -4.2438632e-17)
(-0.02202762 -0.060726648 -1.7299376e-17)
(-0.023554267 -0.058643626 5.8542717e-18)
(-0.02491398 -0.056490766 2.6897398e-17)
(-0.026111502 -0.054288489 7.9388798e-18)
(-0.027153311 -0.052054986 1.5759018e-17)
(-0.028047079 -0.049806133 1.6339142e-18)
(-0.028801194 -0.047555559 5.3806644e-18)
(-0.029424383 -0.04531477 1.5176075e-17)
(-0.029925408 -0.043093354 5.3150555e-18)
(-0.030312831 -0.040899186 9.1266903e-18)
(-0.030594864 -0.038738672 6.1305339e-19)
(-0.030779268 -0.036616983 3.6742004e-19)
(-0.030873296 -0.034538272 -2.9919095e-18)
(-0.030883681 -0.032505874 -4.2810186e-19)
(-0.030816654 -0.030522464 5.5569916e-18)
(-0.030677974 -0.028590203 -1.1174784e-18)
(-0.030472976 -0.026710844 -5.302025e-18)
(-0.030206616 -0.024885821 -1.9789304e-18)
(-0.029883518 -0.023116309 1.5640409e-18)
(-0.029508025 -0.021403283 5.384247e-18)
(-0.029084238 -0.01974755 1.1793782e-18)
(-0.02861606 -0.018149774 -5.2566853e-18)
(-0.028107225 -0.016610488 -4.4158182e-18)
(-0.027561322 -0.015130102 -1.0066929e-18)
(-0.026981816 -0.013708908 3.6387426e-18)
(-0.02637207 -0.012347079 2.3240138e-18)
(-0.025735347 -0.011044666 -6.7276537e-18)
(-0.025074826 -0.0098016014 -4.3396689e-18)
(-0.0243936 -0.0086176888 -1.4276997e-18)
(-0.023694679 -0.0074926056 5.2176317e-18)
(-0.022980991 -0.0064258996 9.6422108e-19)
(-0.022255376 -0.0054169881 -3.2676519e-18)
(-0.021520584 -0.0044651581 -2.8353492e-18)
(-0.020779269 -0.0035695685 -5.7394235e-18)
(-0.020033983 -0.0027292564 -4.1188237e-18)
(-0.019287168 -0.001943143 -2.7310815e-18)
(-0.018541157 -0.001210029 3.6678133e-19)
(-0.017798169 -0.00052859904 3.7628615e-19)
(-0.017060416 0.0001026391 -2.1386424e-18)
(-0.016329701 0.00068511728 -2.3847073e-18)
(-0.015607893 0.0012204219 -1.1204733e-18)
(-0.014896726 0.0017102367 1.4296214e-19)
(-0.014197764 0.0021563005 7.0793906e-19)
(-0.013512435 0.0025604069 -2.3912187e-20)
(-0.012842031 0.0029243953 4.5271998e-19)
(-0.012187705 0.00325014 -1.7357287e-19)
(-0.011550475 0.0035395403 -6.8610086e-19)
(-0.010931223 0.0037945111 3.3050771e-19)
(-0.010330697 0.0040169716 2.1560536e-19)
(-0.009749518 0.0042088365 4.9456837e-19)
(-0.0091881812 0.0043720069 5.5817805e-23)
(-0.0086470615 0.004508361 -9.9063522e-19)
(-0.0081264191 0.0046197458 -1.1524673e-18)
(-0.0076264049 0.0047079706 -1.4731782e-18)
(-0.007147067 0.0047747982 -2.1385397e-19)
(-0.0066883574 0.0048219399 3.669086e-19)
(-0.0062501386 0.0048510494 -2.9776545e-19)
(-0.0058321913 0.004863718 8.0786364e-20)
(-0.0054342213 0.0048614702 3.9496105e-19)
(-0.0050558669 0.0048457607 1.8196125e-19)
(-0.0046967069 0.004817971 5.6887575e-19)
(-0.004356267 0.0047794083 -4.13622e-21)
(-0.004034028 0.0047313034 -2.5601557e-19)
(-0.0037294323 0.0046748104 -5.3267024e-19)
(-0.0034418909 0.0046110068 -1.8694177e-19)
(-0.0031707897 0.0045408936 2.3045498e-19)
(-0.0029154961 0.0044653972 -6.074922e-19)
(-0.0026753648 0.0043853707 -7.8778651e-19)
(-0.0024497428 0.0043015949 -5.6335351e-19)
(-0.002237975 0.0042147824 -1.886465e-19)
(-0.0020394088 0.0041255802 2.797644e-19)
(-0.0016860489 -0.066880447 1.6783605e-17)
(-0.0038358701 -0.066720534 -1.056208e-16)
(-0.0062557149 -0.066211361 5.361981e-17)
(-0.0085298581 -0.065451223 -3.3861348e-17)
(-0.010780004 -0.064459515 -7.270729e-19)
(-0.012916668 -0.063265651 1.7745001e-17)
(-0.014927682 -0.061895786 -1.4499437e-17)
(-0.016804173 -0.060372394 -2.2014904e-17)
(-0.018539054 -0.058717071 -1.3907878e-17)
(-0.020127989 -0.056950984 -1.0884976e-17)
(-0.021569438 -0.055094584 -8.0836731e-18)
(-0.0228643 -0.053167204 -1.5464155e-17)
(-0.024015454 -0.051186706 -1.8611324e-17)
(-0.025027365 -0.049169274 -1.6273801e-17)
(-0.025905669 -0.047129295 -1.3580491e-17)
(-0.026656773 -0.04507937 -4.9301616e-19)
(-0.027287563 -0.043030375 -8.8185793e-18)
(-0.027805129 -0.040991592 -1.0917949e-17)
(-0.028216552 -0.038970852 -8.4682759e-18)
(-0.028528759 -0.036974709 -8.6761499e-18)
(-0.028748427 -0.035008609 -7.3415995e-18)
(-0.028881901 -0.033077062 -7.3605751e-18)
(-0.028935172 -0.031183798 -9.9617444e-18)
(-0.028913863 -0.029331906 -5.7521135e-18)
(-0.028823242 -0.027523948 -4.7655555e-18)
(-0.028668246 -0.025762061 -9.2512508e-18)
(-0.028453508 -0.024048029 -1.082083e-17)
(-0.028183387 -0.02238335 -6.4183411e-18)
(-0.027862004 -0.020769281 -5.3265629e-19)
(-0.027493273 -0.019206882 -5.2044809e-19)
(-0.027080926 -0.017697037 -8.1602896e-18)
(-0.026628544 -0.016240473 -8.0700946e-18)
(-0.026139573 -0.014837773 -2.1183018e-18)
(-0.025617341 -0.013489382 3.6497285e-18)
(-0.025065074 -0.012195612 7.897763e-19)
(-0.0244859 -0.010956644 -4.8772607e-18)
(-0.023882864 -0.009772529 -2.5223936e-18)
(-0.023258925 -0.00864319 1.30803e-19)
(-0.022616957 -0.0075684193 3.3318857e-18)
(-0.021959755 -0.0065478799 2.9163426e-18)
(-0.021290026 -0.0055811068 2.2693784e-18)
(-0.02061039 -0.0046675082 -3.4827337e-18)
(-0.019923376 -0.0038063675 -6.3940092e-18)
(-0.019231412 -0.002996849 -3.5852678e-18)
(-0.018536827 -0.0022380053 -1.4893434e-18)
(-0.017841839 -0.0015287788 1.5657382e-18)
(-0.017148567 -0.00086800084 -1.6811295e-18)
(-0.01645903 -0.00025439253 -3.384233e-18)
(-0.015775131 0.00031348713 -1.3116893e-18)
(-0.015098573 0.00083692861 -2.5394966e-20)
(-0.014430997 0.0013175031 1.1388002e-18)
(-0.013773916 0.0017567863 1.5122481e-19)
(-0.013128715 0.0021564084 -6.5355897e-19)
(-0.012496646 0.002518046 -1.0605321e-18)
(-0.011878832 0.0028434115 -3.2065847e-19)
(-0.011276273 0.0031342427 1.4776433e-18)
(-0.010689838 0.0033922953 5.8209303e-19)
(-0.010120277 0.003619332 -1.8999429e-19)
(-0.0095682182 0.0038171144 -1.0012543e-18)
(-0.0090341741 0.0039873948 -2.5323179e-19)
(-0.0085185448 0.0041319073 2.9962786e-19)
(-0.0080216232 0.0042523605 -1.1399401e-18)
(-0.0075436001 0.0043504309 -1.7941382e-18)
(-0.0070845698 0.0044277551 -1.1369367e-18)
(-0.0066445362 0.0044859252 1.0661677e-19)
(-0.0062234189 0.0045264826 1.5677385e-19)
(-0.0058210601 0.0045509139 -3.8458355e-19)
(-0.0054372304 0.0045606463 -1.0795716e-19)
(-0.0050716365 0.0045570451 -2.1149315e-19)
(-0.0047239273 0.0045414103 6.4833204e-19)
(-0.0043937008 0.0045149748 4.6948431e-19)
(-0.0040805106 0.0044789032 -2.2322362e-19)
(-0.0037838724 0.0044342906 -7.4217753e-19)
(-0.0035032707 0.0043821632 -5.8496922e-19)
(-0.0032381635 0.0043234772 1.8810129e-19)
(-0.0029879896 0.0042591211 -2.6758284e-19)
(-0.002752173 0.0041899166 -7.3446906e-19)
(-0.0025301284 0.0041166189 -6.5585677e-19)
(-0.0023212655 0.0040399208 -1.9127229e-19)
(-0.0021249938 0.0039604541 7.7546885e-20)
(-0.0015263146 -0.062187568 3.2860217e-17)
(-0.0034731191 -0.062051414 5.1524753e-18)
(-0.005667629 -0.061612653 3.8938159e-17)
(-0.0077357059 -0.060954251 6.2949682e-17)
(-0.0097886369 -0.060090724 4.1962249e-17)
(-0.011745723 -0.059046145 3.5220854e-17)
(-0.013596104 -0.05784217 2.3489466e-17)
(-0.015331579 -0.056497495 3.0184838e-17)
(-0.016945252 -0.055030214 2.0920672e-17)
(-0.018432468 -0.05345821 8.6956111e-18)
(-0.019790912 -0.051798939 9.9117221e-18)
(-0.021020355 -0.050069089 -1.0348843e-17)
(-0.022122301 -0.04828428 -1.129197e-18)
(-0.023099683 -0.046458879 -8.4516841e-18)
(-0.023956545 -0.044605857 2.8776344e-18)
(-0.02469772 -0.042736771 -1.9129553e-20)
(-0.025328587 -0.040861786 -6.5704021e-18)
(-0.025854843 -0.038989746 -1.4182032e-18)
(-0.026282306 -0.037128273 -1.3282859e-19)
(-0.026616786 -0.035283887 2.7231182e-18)
(-0.026863985 -0.033462134 1.1320043e-17)
(-0.027029419 -0.03166771 8.3150873e-18)
(-0.027118374 -0.029904587 -1.776884e-18)
(-0.027135886 -0.028176122 3.6395955e-18)
(-0.027086731 -0.026485163 -1.4710825e-18)
(-0.026975437 -0.024834121 -1.546059e-18)
(-0.026806295 -0.02322505 2.4103098e-18)
(-0.026583378 -0.021659695 1.8575032e-18)
(-0.02631056 -0.020139541 5.785223e-18)
(-0.025991543 -0.018665851 -8.7107635e-19)
(-0.025629869 -0.017239694 -3.7207787e-18)
(-0.025228948 -0.015861964 7.0484964e-19)
(-0.024792065 -0.014533393 1.8062458e-18)
(-0.024322397 -0.01325456 4.6327103e-18)
(-0.023823026 -0.012025904 -1.4861224e-18)
(-0.023296938 -0.010847722 -8.5144282e-19)
(-0.02274704 -0.0097201773 2.5279323e-18)
(-0.022176153 -0.0086433008 2.6384142e-18)
(-0.021587017 -0.0076169921 4.4437893e-18)
(-0.020982295 -0.0066410219 4.9027206e-18)
(-0.020364564 -0.0057150346 2.1766398e-18)
(-0.019736317 -0.0048385507 -4.6016846e-18)
(-0.019099959 -0.0040109699 -5.5780772e-18)
(-0.018457804 -0.0032315755 -2.279233e-18)
(-0.017812067 -0.0024995418 1.2422281e-18)
(-0.017164862 -0.0018139388 1.3161698e-18)
(-0.016518198 -0.0011737339 -3.1288667e-18)
(-0.01587397 -0.00057779184 -2.7350178e-18)
(-0.01523409 -2.4870242e-05 -4.8347169e-19)
(-0.014600131 0.0004863281 1.9090661e-18)
(-0.013973644 0.00095711568 1.9911976e-18)
(-0.013356112 0.0013889408 6.2654708e-19)
(-0.012748865 0.0017832878 2.6379426e-20)
(-0.012153115 0.0021416835 -8.4396597e-19)
(-0.011569956 0.0024656901 2.4484124e-18)
(-0.011000363 0.0027568973 2.2412029e-18)
(-0.010445196 0.003016913 5.7715564e-19)
(-0.0099052002 0.0032473555 1.053574e-18)
(-0.009381008 0.0034498448 -4.4807353e-19)
(-0.0088731447 0.0036259951 9.2589442e-19)
(-0.0083820308 0.0037774068 7.6332056e-19)
(-0.0079079865 0.0039056598 -9.0551968e-19)
(-0.0074512365 0.004012307 -6.826615e-19)
(-0.0070119149 0.0040988674 -4.8567698e-19)
(-0.0065900708 0.0041668213 1.3143179e-18)
(-0.0061856741 0.0042176052 6.8849356e-19)
(-0.0057986209 0.0042526068 -3.2799878e-19)
(-0.0054287398 0.0042731621 5.6998038e-19)
(-0.0050757981 0.0042805515 3.676817e-19)
(-0.0047395076 0.0042759973 1.2616773e-18)
(-0.0044195312 0.004260662 8.183071e-19)
(-0.0041154879 0.0042356462 9.016185e-20)
(-0.00382696 0.0042019884 1.5624563e-20)
(-0.0035534981 0.0041606643 -1.4890703e-19)
(-0.0032946263 0.0041125865 6.9855509e-19)
(-0.0030498481 0.0040586056 9.7619872e-20)
(-0.0028186513 0.0039995115 -5.7014037e-19)
(-0.0026005123 0.0039360332 -2.7046754e-19)
(-0.0023949007 0.0038688426 -1.0170855e-19)
(-0.0022012831 0.0037985549 7.162322e-20)
(-0.0013862787 -0.05793112 5.4092663e-17)
(-0.003155013 -0.05781455 4.2055261e-17)
(-0.0051513326 -0.057434402 2.859656e-17)
(-0.0070372209 -0.056861142 6.4847953e-17)
(-0.0089147215 -0.056105521 2.8032917e-17)
(-0.010710822 -0.055187349 -3.3759451e-17)
(-0.012415832 -0.054124666 5.4582644e-17)
(-0.014022235 -0.052933096 2.4850335e-17)
(-0.015523436 -0.05162788 1.8757693e-17)
(-0.01691467 -0.050224182 3.365176e-17)
(-0.018193139 -0.048736947 1.3923218e-17)
(-0.019357828 -0.047180605 1.1957524e-17)
(-0.020409232 -0.045568822 1.1200009e-17)
(-0.021349126 -0.043914329 9.0580327e-18)
(-0.022180318 -0.042228785 1.3626053e-17)
(-0.022906388 -0.040522724 -3.8780122e-18)
(-0.023531492 -0.038805568 1.4422671e-17)
(-0.024060168 -0.037085649 1.2155171e-17)
(-0.024497167 -0.035370268 1.0021114e-17)
(-0.024847333 -0.03366579 1.3087996e-17)
(-0.025115506 -0.031977726 5.0306235e-19)
(-0.025306452 -0.03031083 -6.4610506e-18)
(-0.025424805 -0.028669194 2.5480119e-18)
(-0.025475043 -0.027056334 2.9090433e-18)
(-0.025461465 -0.025475278 -1.8417607e-18)
(-0.025388194 -0.023928631 2.2228469e-18)
(-0.025259172 -0.022418636 -3.6245275e-18)
(-0.025078175 -0.020947224 7.0555428e-19)
(-0.02484882 -0.019516056 3.8536259e-18)
(-0.024574578 -0.018126557 -1.5869697e-18)
(-0.024258792 -0.016779946 5.0130256e-19)
(-0.023904683 -0.015477254 -3.7514492e-18)
(-0.02351537 -0.014219339 -4.6735062e-19)
(-0.023093868 -0.013006899 2.2635129e-18)
(-0.022643106 -0.011840482 -4.336518e-19)
(-0.022165926 -0.01072049 2.8382499e-18)
(-0.021665092 -0.0096471873 -1.5111567e-18)
(-0.021143287 -0.0086207032 2.954966e-20)
(-0.02060312 -0.0076410358 -2.4532016e-19)
(-0.020047118 -0.006708055 -3.8453704e-18)
(-0.019477735 -0.0058215063 -3.2079755e-18)
(-0.018897339 -0.0049810142 -6.5909194e-19)
(-0.018308216 -0.0041860855 6.4316951e-19)
(-0.017712567 -0.0034361144 -1.2710494e-18)
(-0.017112499 -0.0027303883 -1.5408802e-18)
(-0.016510025 -0.0020680945 -2.1059762e-18)
(-0.015907059 -0.001448324 2.6060719e-19)
(-0.01530542 -0.00087007764 1.6139324e-18)
(-0.014706824 -0.00033227137 -3.7290424e-19)
(-0.01411295 0.0001663532 3.6452169e-19)
(-0.013525224 0.00062690438 2.4497621e-20)
(-0.012945035 0.0010506944 1.1072238e-18)
(-0.012373675 0.0014390835 3.4864769e-19)
(-0.011812322 0.0017934582 6.1985655e-19)
(-0.011262038 0.0021152424 2.9184981e-18)
(-0.010723779 0.0024058881 1.2131222e-19)
(-0.010198387 0.0026668674 1.1469232e-18)
(-0.0096866015 0.0028996646 1.6863688e-18)
(-0.0091890574 0.0031057688 1.1032531e-18)
(-0.0087062882 0.003286666 1.1022341e-18)
(-0.0082387302 0.003443833 -7.391172e-19)
(-0.007786726 0.0035787295 -1.6144619e-19)
(-0.0073505288 0.0036927935 1.5950972e-19)
(-0.0069303069 0.0037874341 4.28581e-19)
(-0.0065261487 0.0038640275 1.1428704e-18)
(-0.0061380677 0.0039239113 -2.3870105e-19)
(-0.0057660079 0.0039683809 2.1407963e-19)
(-0.0054098491 0.0039986858 1.0000778e-18)
(-0.0050694125 0.0040160263 7.541228e-19)
(-0.0047444661 0.0040215511 9.9803683e-19)
(-0.0044347308 0.0040163551 6.1041552e-20)
(-0.004139885 0.0040014781 7.1661108e-20)
(-0.0038595706 0.0039779035 2.645913e-19)
(-0.0035933983 0.0039465583 2.9595e-19)
(-0.0033409522 0.0039083123 5.8286827e-19)
(-0.0031017947 0.0038639787 -3.5173791e-19)
(-0.0028754719 0.0038143153 -5.5109778e-19)
(-0.0026615167 0.0037600249 -2.060198e-19)
(-0.0024594536 0.0037017569 -4.0310838e-20)
(-0.0022688027 0.0036401092 1.7234741e-19)
(-0.0012629172 -0.054058354 4.8327545e-17)
(-0.002874713 -0.053958029 3.5731582e-17)
(-0.0046959362 -0.053626978 3.6162089e-18)
(-0.0064201147 -0.053125401 -4.5066713e-17)
(-0.0081410504 -0.052461141 -8.7212796e-18)
(-0.0097924818 -0.051650581 -3.8656846e-18)
(-0.011365757 -0.050708841 7.5316661e-18)
(-0.012854029 -0.049649046 -1.4752737e-17)
(-0.014251069 -0.048484092 1.5133011e-17)
(-0.015552147 -0.047226891 -7.115865e-18)
(-0.016754187 -0.045890274 -1.5464385e-17)
(-0.017855643 -0.044486746 2.0582664e-18)
(-0.018856278 -0.043028271 -6.9465962e-18)
(-0.019756998 -0.041526125 -4.9671545e-19)
(-0.020559653 -0.039990758 -4.5744996e-18)
(-0.021266831 -0.038431735 -1.9785848e-18)
(-0.021881698 -0.036857734 -4.4566539e-18)
(-0.022407834 -0.035276534 -6.3982416e-18)
(-0.022849091 -0.033695054 -6.5781268e-18)
(-0.023209485 -0.032119416 -9.0584179e-18)
(-0.023493103 -0.030555005 -1.0071005e-17)
(-0.023704036 -0.029006535 -1.190167e-17)
(-0.023846327 -0.027478122 -6.3699783e-18)
(-0.023923932 -0.025973356 -2.1108161e-18)
(-0.023940699 -0.024495363 4.9612235e-18)
(-0.023900354 -0.023046869 -1.9673299e-18)
(-0.0238065 -0.021630243 -5.9057197e-18)
(-0.023662612 -0.020247548 -1.0587399e-18)
(-0.023472042 -0.018900574 2.0205076e-19)
(-0.02323803 -0.01759087 5.1539589e-18)
(-0.022963705 -0.016319772 -8.9791422e-19)
(-0.0226521 -0.015088422 -4.9394503e-18)
(-0.022306154 -0.013897782 -1.1650604e-18)
(-0.021928718 -0.012748651 5.3849943e-19)
(-0.021522565 -0.011641671 5.9966089e-18)
(-0.021090388 -0.010577335 2.1660331e-19)
(-0.020634808 -0.0095559983 -4.1089205e-18)
(-0.02015837 -0.0085778781 -1.6549921e-18)
(-0.019663549 -0.0076430618 -4.0763475e-19)
(-0.019152746 -0.0067515099 4.043754e-18)
(-0.018628286 -0.0059030605 7.2456282e-18)
(-0.018092421 -0.0050974332 2.7205065e-18)