/*--------------------------------*- C++ -*----------------------------------*\
| =========                 |                                                 |
| \\      /  F ield         | OpenFOAM: The Open Source CFD Toolbox           |
|  \\    /   O peration     | Version:  2106                                  |
|   \\  /    A nd           | Website:  www.openfoam.com                      |
|    \\/     M anipulation  |                                                 |
\*---------------------------------------------------------------------------*/
FoamFile
{
    version     2.0;
    format      ascii;
    arch        "LSB;label=32;scalar=64";
    class       surfaceScalarField;
    location    "0.034";
    object      phi_0;
}
// * * * * * * * * * * * * * * * * * * * * * * * * * * * * * * * * * * * * * //

dimensions      [0 3 -1 0 0 0 0];

oriented        oriented;

internalField   nonuniform List<scalar> 
480
(
0.001298059
-0.0012970995
0.0023977106
-0.0010996516
0.0031331503
-0.00073543976
0.0033913037
-0.00025815338
0.003133986
0.00025731775
0.0023985283
0.00073545771
0.0012976475
0.0011008808
-8.894399e-07
0.0012985369
-0.0012993008
0.0012984114
-0.0023997946
0.0011004938
-0.0031347221
0.00073492754
-0.0033914031
0.00025668095
-0.0031324755
-0.00025892756
-0.0023964381
-0.00073603739
-0.0012963134
-0.0011001247
-0.0012972729
0.0015476725
-0.0028436303
0.0028585323
-0.0024105113
0.0037352978
-0.0016122053
0.0040428069
-0.0005656625
0.0037362369
0.00056388774
0.0028592624
0.0016124322
0.0015469092
0.002413234
-1.0341909e-06
0.0028464803
-0.0015488355
0.0028462126
-0.0028607235
0.0024123819
-0.0037370854
0.0016112894
-0.0040429686
0.00056256411
-0.0037345153
-0.00056738082
-0.0028570734
-0.0016134793
-0.0015456097
-0.0024115884
-0.0028440243
0.0020770575
-0.004919207
0.0038358529
-0.0041693067
0.0050123125
-0.0027886649
0.0054240801
-0.00097743011
0.0050129992
0.00097496864
0.0038359209
0.0027895105
0.0020752188
0.0041739361
-1.29697e-06
0.0049229961
-0.0020776437
0.0049225594
-0.0038377325
0.0041724706
-0.0050140558
0.0027876127
-0.0054243975
0.00097290585
-0.0050113059
-0.00098047245
-0.0038340557
-0.0027907295
-0.0020744039
-0.0041712402
-0.004919909
0.0029881933
-0.0079052856
0.0055168533
-0.0066979668
0.0072083801
-0.0044801916
0.0077986797
-0.0015677298
0.0072073392
0.0015663092
0.0055133337
0.004483516
0.0029823465
0.0067049232
-1.7447201e-06
0.0079070874
-0.0029856223
0.007906437
-0.0055156522
0.0067025005
-0.0072085548
0.0044805153
-0.0077993169
0.001563668
-0.0072071147
-0.0015726747
-0.0055146611
-0.0044831832
-0.0029845026
-0.0067013987
-0.0079065263
0.0045541915
-0.012456429
0.0084092074
-0.010552983
0.010991065
-0.0070620494
0.011889439
-0.0024661034
0.01098647
0.0024692779
0.008399861
0.0070701252
0.0045423554
0.010562429
-2.3358061e-06
0.012451779
-0.0045467863
0.012450888
-0.0084028386
0.010558553
-0.010987897
0.0070655733
-0.011890863
0.0024666345
-0.010989312
-0.0024742255
-0.0084064364
-0.007066059
-0.0045489703
-0.010558865
-0.012458545
0.0064382601
-0.018889683
0.011890261
-0.016004984
0.015552867
-0.010724655
0.016832021
-0.0037452579
0.015547482
0.0037538175
0.011872166
0.010745441
0.006415395
0.016019199
-3.4600745e-06
0.018870634
-0.0064220283
0.018869456
-0.011875806
0.016012331
-0.015547701
0.010737468
-0.016834305
0.0037532388
-0.015551728
-0.003756803
-0.011887656
-0.01073013
-0.0064302909
-0.01601623
-0.018893842
0.0071268623
-0.026007634
0.01320045
-0.022078572
0.017349114
-0.014873319
0.018836421
-0.0052325647
0.017381791
0.0052084476
0.013228301
0.014898931
0.0071343944
0.022113106
-5.3692474e-06
0.026010397
-0.0071450467
0.026009133
-0.013232585
0.022099869
-0.01737847
0.014883354
-0.018839905
0.0052146736
-0.017350986
-0.0052457228
-0.013198931
-0.014882185
-0.0071139051
-0.022101256
-0.026016658
0.0027645777
-0.028762833
0.005130954
-0.024444948
0.0068223927
-0.016564758
0.007477027
-0.005887199
0.0068746465
0.0058108282
0.0051723217
0.016601256
0.0027691398
0.024516288
-5.6570111e-06
0.028785194
-0.0027804494
0.028783926
-0.0051739958
0.024493415
-0.0068638141
0.016573172
-0.0074755081
0.0058263675
-0.0068312283
-0.0058900026
-0.0051361207
-0.016577292
-0.0027532696
-0.024484107
-0.028779307
-0.0027195798
-0.026052763
-0.005047533
-0.022116995
-0.0067043303
-0.014907961
-0.0073348542
-0.0052566751
-0.0067306092
0.0052065832
-0.0050551877
0.014925834
-0.0027057952
0.022166896
5.5805541e-06
0.026073818
0.0027169626
0.026072544
0.0050569084
0.022153469
0.0067199619
0.014910119
0.0073337196
0.0052126098
0.0067132411
-0.0052695241
0.0050527645
-0.014916815
0.002708178
-0.022139521
-0.026061619
-0.0071012957
-0.018960265
-0.013136105
-0.016082186
-0.01725258
-0.010791486
-0.0187258
-0.0037834548
-0.017273885
0.0037546678
-0.01313655
0.010788499
-0.0070757577
0.016106103
5.4039167e-06
0.018992657
0.0070864963
0.018991451
0.013140859
0.016099107
0.017270534
0.010780444
0.018729243
0.0037539007
0.017254598
-0.0037948796
0.013134691
-0.010796908
0.0070885167
-0.016093347
-0.018964304
-0.0063208522
-0.012644251
-0.011683855
-0.010719183
-0.015299396
-0.0071759447
-0.016574676
-0.002508174
-0.015325556
0.0025055473
-0.011715388
0.0071783315
-0.0063361629
0.010726878
3.4407212e-06
0.012653053
0.0063427744
0.012652117
0.011718989
0.010722892
0.015325804
0.0071736291
0.016576896
0.0025028081
0.015298289
-0.0025162721
0.011681362
-0.0071799813
0.0063131644
-0.010725149
-0.012646301
-0.0044763337
-0.0081709532
-0.0082714086
-0.0069241082
-0.010819323
-0.0046280301
-0.011713411
-0.0016140862
-0.010832502
0.0016246383
-0.0082873674
0.0046331967
-0.0044842899
0.006923801
2.3830399e-06
0.0081663802
0.0044888093
0.0081656912
0.0082903954
0.0069213061
0.010833939
0.0046300858
0.01171483
0.0016219164
0.010817577
-0.0016190187
0.0082686469
-0.0046310511
0.0044711008
-0.0069276032
-0.008172165
-0.0027640937
-0.0054086862
-0.0051063654
-0.0045818365
-0.0066758605
-0.003058535
-0.0072257236
-0.0010642231
-0.0066809061
0.0010798208
-0.0051134484
0.003065739
-0.002767834
0.0045781866
1.5117145e-06
0.0053970344
0.0027706679
0.0053965349
0.005115421
0.004576553
0.0066819116
0.0030635952
0.0072263103
0.0010775177
0.0066748047
-0.0010675131
0.0051045596
-0.003060806
0.0027609139
-0.0045839574
-0.0054094244
-0.0019311831
-0.0034791624
-0.0035667148
-0.0029463048
-0.0046605808
-0.001964669
-0.0050424809
-0.00068232305
-0.0046593358
0.00069667578
-0.0035645961
0.0019709993
-0.0019283686
0.0029419591
1.4837155e-06
0.0034671822
0.0019311361
0.0034668825
0.0035666678
0.0029410214
0.0046605319
0.0019697311
0.005042811
0.00069523857
0.00465945
-0.00068415211
0.0035646779
-0.0019660339
0.0019281922
-0.0029474718
-0.0034795729
-0.0016043479
-0.0018753539
-0.0029626631
-0.0015879897
-0.0038688399
-0.0010584921
-0.0041837954
-0.00036736756
-0.0038638034
0.00037668383
-0.0029555898
0.0010627857
-0.0015990008
0.0015853701
4.6782378e-07
0.0018677135
0.0015998807
0.0018674697
0.0029562504
0.0015846516
0.0038641908
0.0010617907
0.0041839214
0.00037550796
0.0038684819
-0.00036871261
0.0029620264
-0.0010595784
0.0016033785
-0.0015888239
-0.001875655
-0.0018884065
-0.0034859943
-0.0045508904
-0.0049205006
-0.0045415618
-0.0034723648
-0.0018773967
1.6379247e-06
0.0018804278
0.003474675
0.0045428727
0.0049206295
0.0045496681
0.0034836804
0.0018852554
)
;

boundaryField
{
    leftWall
    {
        type            cyclic;
        value           nonuniform List<scalar> 
16
(
-9.5953449e-07
-1.1416804e-06
-1.4807233e-06
-2.1147672e-06
-3.0479499e-06
-5.0063658e-06
-8.9112628e-06
-9.3790384e-06
9.5101725e-06
8.798065e-06
4.8380536e-06
3.0357325e-06
1.8266589e-06
1.6593139e-06
5.3943081e-07
1.7266364e-06
)
;
    }
    rightWall
    {
        type            cyclic;
        value           nonuniform List<scalar> 
16
(
9.5953449e-07
1.1416804e-06
1.4807233e-06
2.1147672e-06
3.0479499e-06
5.0063658e-06
8.9112628e-06
9.3790384e-06
-9.5101725e-06
-8.798065e-06
-4.8380536e-06
-3.0357325e-06
-1.8266589e-06
-1.6593139e-06
-5.3943081e-07
-1.7266364e-06
)
;
    }
    lowerWall
    {
        type            calculated;
        value           uniform 0;
    }
    atmosphere
    {
        type            calculated;
        value           nonuniform List<scalar> 
16
(
1.1326001e-05
9.5981101e-06
6.4039097e-06
2.2426489e-06
-2.2549539e-06
-6.4113141e-06
-9.5979984e-06
-1.1321094e-05
-1.1320189e-05
-9.5955737e-06
-6.4070046e-06
-2.2488007e-06
2.2487625e-06
6.4093185e-06
9.6011148e-06
1.1327064e-05
)
;
    }
    defaultFaces
    {
        type            empty;
        value           nonuniform List<scalar> 0();
    }
}


// ************************************************************************* //
