/*--------------------------------*- C++ -*----------------------------------*\
| =========                 |                                                 |
| \\      /  F ield         | OpenFOAM: The Open Source CFD Toolbox           |
|  \\    /   O peration     | Version:  2106                                  |
|   \\  /    A nd           | Website:  www.openfoam.com                      |
|    \\/     M anipulation  |                                                 |
\*---------------------------------------------------------------------------*/
FoamFile
{
    version     2.0;
    format      ascii;
    arch        "LSB;label=32;scalar=64";
    class       volVectorField;
    location    "0.034";
    object      U;
}
// * * * * * * * * * * * * * * * * * * * * * * * * * * * * * * * * * * * * * //

dimensions      [0 1 -1 0 0 0 0];

internalField   nonuniform List<vector> 
256
(
(0.010828971 -0.0097453678 0)
(0.030805523 -0.0082613205 0)
(0.046106177 -0.0055239694 0)
(0.054386726 -0.0019375023 0)
(0.054393527 0.0019368747 0)
(0.046126376 0.0055286324 0)
(0.03081208 0.0082751279 0)
(0.010810885 0.0097604327 0)
(-0.010839454 0.0097594281 0)
(-0.030836149 0.0082720639 0)
(-0.046143073 0.0055244158 0)
(-0.054401021 0.0019318462 0)
(-0.054381927 -0.0019434627 0)
(-0.046089756 -0.0055287023 0)
(-0.030780482 -0.0082650422 0)
(-0.010798312 -0.0097467411 0)
(0.012911898 -0.031837521 0)
(0.036725517 -0.026991825 0)
(0.054966678 -0.018053809 0)
(0.064832111 -0.0063391542 0)
(0.064841584 0.0063119725 0)
(0.054987054 0.018048892 0)
(0.036728813 0.02701692 0)
(0.012886939 0.031868289 0)
(-0.012920212 0.031865276 0)
(-0.036756656 0.027007548 0)
(-0.055006132 0.018036059 0)
(-0.064851007 0.0062966655 0)
(-0.064826891 -0.0063579988 0)
(-0.054947613 -0.018068194 0)
(-0.036696495 -0.027003336 0)
(-0.012875411 -0.031841717 0)
(0.017329005 -0.058786026 0)
(0.049279781 -0.049827795 0)
(0.073758452 -0.033326311 0)
(0.086980185 -0.011687557 0)
(0.08698732 0.01166113 0)
(0.073772119 0.033342492 0)
(0.049267768 0.049893333 0)
(0.017287174 0.058848954 0)
(-0.017328989 0.058843383 0)
(-0.049302414 0.049875207 0)
(-0.073795347 0.033318473 0)
(-0.087001116 0.011634662 0)
(-0.08697424 -0.011723076 0)
(-0.07373404 -0.033352377 0)
(-0.049243653 -0.049851057 0)
(-0.017281631 -0.058794538 0)
(0.024936006 -0.098520496 0)
(0.070879682 -0.083502167 0)
(0.10608236 -0.055864397 0)
(0.12506219 -0.019577133 0)
(0.12505391 0.019517671 0)
(0.10605114 0.055869771 0)
(0.070797118 0.083586195 0)
(0.024842566 0.098583995 0)
(-0.024898964 0.098575645 0)
(-0.070842888 0.083556968 0)
(-0.10607813 0.055832132 0)
(-0.12507463 0.019478844 0)
(-0.12505663 -0.019639257 0)
(-0.10605126 -0.055904714 0)
(-0.070833496 -0.083542033 0)
(-0.024868266 -0.098534722 0)
(0.037998058 -0.15352901 0)
(0.10799953 -0.13004554 0)
(0.16172468 -0.086976085 0)
(0.19065099 -0.030407986 0)
(0.19060586 0.030438767 0)
(0.16160864 0.087102295 0)
(0.10781225 0.13020232 0)
(0.037828704 0.15353437 0)
(-0.037904404 0.15352189 0)
(-0.10787286 0.13015284 0)
(-0.16163867 0.087041673 0)
(-0.19064289 0.030395362 0)
(-0.19064763 -0.030499965 0)
(-0.16168034 -0.087030864 0)
(-0.10794037 -0.1301173 0)
(-0.037900224 -0.15355515 0)
(0.053719879 -0.24438502 0)
(0.15262909 -0.20711661 0)
(0.22877265 -0.13874555 0)
(0.26986071 -0.048451604 0)
(0.26982426 0.048509737 0)
(0.2285726 0.13887627 0)
(0.1522589 0.20730454 0)
(0.053410575 0.24432024 0)
(-0.05352309 0.24430381 0)
(-0.15234736 0.20722171 0)
(-0.22858564 0.13877858 0)
(-0.26986941 0.048473721 0)
(-0.26987105 -0.048609482 0)
(-0.22873047 -0.1388251 0)
(-0.15255993 -0.20725023 0)
(-0.053559248 -0.24443323 0)
(0.059388583 -0.36032125 0)
(0.16902999 -0.30514458 0)
(0.25457638 -0.20427519 0)
(0.30179417 -0.071268456 0)
(0.30211655 0.071563871 0)
(0.25516798 0.20482109 0)
(0.16935448 0.30538638 0)
(0.059364017 0.35980016 0)
(-0.059539403 0.35978307 0)
(-0.16949753 0.30528232 0)
(-0.25512645 0.20469349 0)
(-0.30215771 0.071566828 0)
(-0.3018488 -0.071492201 0)
(-0.25456446 -0.20436196 0)
(-0.16894931 -0.30532085 0)
(-0.0591044 -0.36038174 0)
(0.023241857 -0.46518568 0)
(0.065458801 -0.39561103 0)
(0.099513632 -0.26803288 0)
(0.11977272 -0.095168157 0)
(0.12037829 0.093847645 0)
(0.10055453 0.26826932 0)
(0.065807885 0.39647649 0)
(0.023057905 0.46575844 0)
(-0.02324249 0.46573655 0)
(-0.065978534 0.39612719 0)
(-0.10040706 0.26784844 0)
(-0.12023208 0.094077347 0)
(-0.1198705 -0.095257914 0)
(-0.099680402 -0.26823312 0)
(-0.065435651 -0.39621203 0)
(-0.022938371 -0.46543787 0)
(-0.022856414 -0.46485632 0)
(-0.064418724 -0.39487589 0)
(-0.097917913 -0.26736547 0)
(-0.11761054 -0.094881308 0)
(-0.11798252 0.093894339 0)
(-0.098289425 0.26827015 0)
(-0.064271393 0.3962266 0)
(-0.022543469 0.46495119 0)
(0.022725546 0.46492942 0)
(0.064439528 0.39587451 0)
(0.098144879 0.26784636 0)
(0.11784164 0.094124816 0)
(0.11771267 -0.094975145 0)
(0.098085777 -0.26756573 0)
(0.064395947 -0.39547403 0)
(0.022548599 -0.46510629 0)
(-0.059276514 -0.36201703 0)
(-0.1683344 -0.30704656 0)
(-0.25321948 -0.20598977 0)
(-0.30006432 -0.0722174 0)
(-0.30028937 0.071546634 0)
(-0.25351214 0.20575822 0)
(-0.16804969 0.30743165 0)
(-0.058775144 0.36272406 0)
(0.058951723 0.36270632 0)
(0.16819263 0.30732299 0)
(0.25347155 0.20562594 0)
(0.30033022 0.071546745 0)
(0.30011972 -0.072446313 0)
(0.25321096 -0.20607667 0)
(0.16825482 -0.30722041 0)
(0.058995858 -0.36207435 0)
(-0.052718673 -0.24488595 0)
(-0.14989791 -0.20764554 0)
(-0.22489677 -0.13914803 0)
(-0.26560785 -0.048712333 0)
(-0.26582658 0.048510089 0)
(-0.22545997 0.13921213 0)
(-0.15032773 0.2078683 0)
(-0.052773477 0.24510016 0)
(0.052885377 0.24508383 0)
(0.15041485 0.20778569 0)
(0.22547329 0.13911572 0)
(0.26587121 0.048475151 0)
(0.26561717 -0.048866149 0)
(0.22485707 -0.1392247 0)
(0.14983078 -0.20777741 0)
(0.052563126 -0.2449324 0)
(-0.037329849 -0.15860996 0)
(-0.10617789 -0.13442314 0)
(-0.15912137 -0.089903698 0)
(-0.18774217 -0.031393622 0)
(-0.18785467 0.03147964 0)
(-0.15939757 0.089945655 0)
(-0.10640489 0.13446048 0)
(-0.037358865 0.15863831 0)
(0.037436105 0.15862375 0)
(0.10646626 0.13440624 0)
(0.15942858 0.089877863 0)
(0.18789179 0.031427235 0)
(0.18773837 -0.031493384 0)
(0.15907769 -0.089964598 0)
(0.10611825 -0.13449914 0)
(0.037232253 -0.15863643 0)
(-0.023054513 -0.10479656 0)
(-0.065576281 -0.088789268 0)
(-0.098216065 -0.059296266 0)
(-0.11584444 -0.020653021 0)
(-0.11588393 0.020886139 0)
(-0.098327301 0.05940179 0)
(-0.065684198 0.088730675 0)
(-0.023065088 0.10461632 0)
(0.023113986 0.10460898 0)
(0.0657233 0.088704978 0)
(0.098349804 0.059369562 0)
(0.11590242 0.020853443 0)
(0.11584001 -0.02070812 0)
(0.098190125 -0.059330699 0)
(0.06553737 -0.088825287 0)
(0.022995887 -0.10480893 0)
(-0.016118373 -0.064992424 0)
(-0.045836669 -0.055042234 0)
(-0.068612214 -0.03671665 0)
(-0.08090015 -0.012751402 0)
(-0.080886035 0.013013577 0)
(-0.06858141 0.036841329 0)
(-0.045795726 0.054986823 0)
(-0.01606855 0.064804615 0)
(0.016116358 0.064796196 0)
(0.04583536 0.054960832 0)
(0.068607892 0.036805792 0)
(0.080901113 0.012973824 0)
(0.080893241 -0.012800252 0)
(0.068584883 -0.036753851 0)
(0.045795732 -0.055073447 0)
(0.016065184 -0.065003425 0)
(-0.013353992 -0.049993909 0)
(-0.037998498 -0.042334552 0)
(-0.05684229 -0.028217922 0)
(-0.066985542 -0.0098043417 0)
(-0.066935452 0.010009126 0)
(-0.056724821 0.028298973 0)
(-0.037882353 0.042248021 0)
(-0.013295982 0.049791144 0)
(0.013310986 0.049789644 0)
(0.03789478 0.042243052 0)
(0.056733876 0.028292511 0)
(0.066940692 0.010001223 0)
(0.066983436 -0.009815776 0)
(0.056833511 -0.028225897 0)
(0.037985147 -0.042341776 0)
(0.013336798 -0.049996444 0)
(-0.01577187 -0.0063209592 0)
(-0.044840144 -0.0053496939 0)
(-0.067056737 -0.0035654315 0)
(-0.079009756 -0.0012229838 0)
(-0.078923933 0.0013055848 0)
(-0.066841755 0.0036166902 0)
(-0.044614631 0.0053551356 0)
(-0.015643667 0.0062875585 0)
(0.015696231 0.0062816536 0)
(0.044658821 0.0053382304 0)
(0.066871866 0.0035929998 0)
(0.078936571 0.0012780399 0)
(0.079000687 -0.001252282 0)
(0.0670271 -0.0035902642 0)
(0.044794732 -0.0053678694 0)
(0.015716609 -0.006327586 0)
)
;

boundaryField
{
    leftWall
    {
        type            cyclic;
    }
    rightWall
    {
        type            cyclic;
    }
    lowerWall
    {
        type            slip;
    }
    atmosphere
    {
        type            slip;
    }
    defaultFaces
    {
        type            empty;
    }
}


// ************************************************************************* //
