/*--------------------------------*- C++ -*----------------------------------*\
| =========                 |                                                 |
| \\      /  F ield         | OpenFOAM: The Open Source CFD Toolbox           |
|  \\    /   O peration     | Version:  2106                                  |
|   \\  /    A nd           | Website:  www.openfoam.com                      |
|    \\/     M anipulation  |                                                 |
\*---------------------------------------------------------------------------*/
FoamFile
{
    version     2.0;
    format      ascii;
    arch        "LSB;label=32;scalar=64";
    class       volVectorField;
    location    "0.013";
    object      U_0;
}
// * * * * * * * * * * * * * * * * * * * * * * * * * * * * * * * * * * * * * //

dimensions      [0 1 -1 0 0 0 0];

internalField   nonuniform List<vector> 
65536
(
(-0.0028539964 0.0028533491 0)
(-0.0085603789 0.002851739 0)
(-0.014261931 0.0028485195 0)
(-0.019955435 0.0028436921 0)
(-0.025637676 0.0028372589 0)
(-0.031305446 0.0028292229 0)
(-0.03695554 0.0028195875 0)
(-0.042584766 0.0028083572 0)
(-0.048189937 0.0027955369 0)
(-0.053767878 0.0027811325 0)
(-0.059315427 0.0027651504 0)
(-0.064829435 0.0027475978 0)
(-0.070306769 0.0027284827 0)
(-0.075744312 0.0027078137 0)
(-0.081138965 0.0026856003 0)
(-0.086487648 0.0026618525 0)
(-0.091787303 0.0026365811 0)
(-0.097034894 0.0026097979 0)
(-0.10222741 0.002581515 0)
(-0.10736186 0.0025517455 0)
(-0.11243529 0.0025205032 0)
(-0.11744476 0.0024878027 0)
(-0.12238738 0.002453659 0)
(-0.12726027 0.0024180884 0)
(-0.1320606 0.0023811073 0)
(-0.13678555 0.0023427334 0)
(-0.14143237 0.0023029847 0)
(-0.14599832 0.0022618803 0)
(-0.15048071 0.0022194398 0)
(-0.15487688 0.0021756836 0)
(-0.15918424 0.0021306328 0)
(-0.1634002 0.0020843094 0)
(-0.16752224 0.0020367359 0)
(-0.17154789 0.0019879356 0)
(-0.17547472 0.0019379328 0)
(-0.17930035 0.0018867521 0)
(-0.18302244 0.0018344191 0)
(-0.18663871 0.00178096 0)
(-0.19014695 0.0017264019 0)
(-0.19354498 0.0016707724 0)
(-0.19683069 0.0016140999 0)
(-0.20000201 0.0015564136 0)
(-0.20305695 0.0014977432 0)
(-0.20599357 0.0014381192 0)
(-0.20881 0.0013775729 0)
(-0.21150441 0.0013161361 0)
(-0.21407507 0.0012538413 0)
(-0.21652029 0.0011907217 0)
(-0.21883845 0.0011268112 0)
(-0.22102801 0.0010621443 0)
(-0.22308748 0.00099675612 0)
(-0.22501546 0.00093068237 0)
(-0.22681061 0.00086395943 0)
(-0.22847168 0.00079662425 0)
(-0.22999747 0.00072871433 0)
(-0.23138688 0.00066026779 0)
(-0.23263886 0.00059132325 0)
(-0.23375246 0.00052191988 0)
(-0.2347268 0.00045209738 0)
(-0.23556109 0.00038189593 0)
(-0.23625461 0.0003113562 0)
(-0.23680671 0.00024051927 0)
(-0.23721685 0.00016942606 0)
(-0.23748456 9.8115372e-05 0)
(-0.23760943 2.6644695e-05 0)
(-0.23759121 -4.4963093e-05 0)
(-0.23742965 -0.0001166549 0)
(-0.23712463 -0.00018838875 0)
(-0.2366761 -0.00026012096 0)
(-0.23608413 -0.00033180756 0)
(-0.23534883 -0.00040340438 0)
(-0.23447044 -0.00047486702 0)
(-0.23344926 -0.00054615086 0)
(-0.2322857 -0.00061721116 0)
(-0.23098026 -0.00068800304 0)
(-0.22953351 -0.00075848152 0)
(-0.22794612 -0.00082860156 0)
(-0.22621887 -0.00089831811 0)
(-0.22435259 -0.00096758609 0)
(-0.22234823 -0.0010363605 0)
(-0.22020682 -0.0011045964 0)
(-0.21792949 -0.0011722488 0)
(-0.21551745 -0.0012392732 0)
(-0.21297199 -0.001305625 0)
(-0.21029452 -0.0013712598 0)
(-0.20748649 -0.0014361337 0)
(-0.20454949 -0.0015002028 0)
(-0.20148517 -0.0015634236 0)
(-0.19829526 -0.0016257531 0)
(-0.19498159 -0.0016871487 0)
(-0.19154607 -0.001747568 0)
(-0.18799069 -0.0018069692 0)
(-0.18431754 -0.0018653112 0)
(-0.18052878 -0.0019225531 0)
(-0.17662663 -0.0019786549 0)
(-0.17261344 -0.0020335772 0)
(-0.16849158 -0.002087281 0)
(-0.16426354 -0.0021397282 0)
(-0.15993187 -0.0021908815 0)
(-0.1554992 -0.0022407043 0)
(-0.15096822 -0.0022891609 0)
(-0.14634169 -0.0023362161 0)
(-0.14162247 -0.0023818362 0)
(-0.13681344 -0.0024259878 0)
(-0.13191759 -0.0024686389 0)
(-0.12693794 -0.0025097584 0)
(-0.1218776 -0.002549316 0)
(-0.1167397 -0.0025872826 0)
(-0.11152747 -0.0026236304 0)
(-0.10624416 -0.0026583324 0)
(-0.1008931 -0.002691363 0)
(-0.095477662 -0.0027226974 0)
(-0.090001252 -0.0027523125 0)
(-0.084467336 -0.0027801862 0)
(-0.078879418 -0.0028062975 0)
(-0.073241044 -0.0028306268 0)
(-0.067555797 -0.002853156 0)
(-0.061827296 -0.0028738681 0)
(-0.05605919 -0.0028927475 0)
(-0.050255162 -0.0029097799 0)
(-0.044418919 -0.0029249524 0)
(-0.038554194 -0.0029382537 0)
(-0.03266474 -0.0029496735 0)
(-0.026754329 -0.0029592033 0)
(-0.020826751 -0.0029668359 0)
(-0.014885807 -0.0029725654 0)
(-0.0089353079 -0.0029763875 0)
(-0.0029790734 -0.0029782992 0)
(0.0029790734 -0.0029782992 0)
(0.0089353079 -0.0029763875 0)
(0.014885807 -0.0029725654 0)
(0.020826751 -0.0029668359 0)
(0.026754329 -0.0029592033 0)
(0.03266474 -0.0029496735 0)
(0.038554194 -0.0029382537 0)
(0.044418919 -0.0029249524 0)
(0.050255162 -0.0029097799 0)
(0.05605919 -0.0028927475 0)
(0.061827296 -0.0028738681 0)
(0.067555797 -0.002853156 0)
(0.073241044 -0.0028306268 0)
(0.078879418 -0.0028062975 0)
(0.084467336 -0.0027801862 0)
(0.090001252 -0.0027523125 0)
(0.095477662 -0.0027226974 0)
(0.1008931 -0.002691363 0)
(0.10624416 -0.0026583324 0)
(0.11152747 -0.0026236304 0)
(0.1167397 -0.0025872826 0)
(0.1218776 -0.002549316 0)
(0.12693794 -0.0025097584 0)
(0.13191759 -0.0024686389 0)
(0.13681344 -0.0024259878 0)
(0.14162247 -0.0023818362 0)
(0.14634169 -0.0023362161 0)
(0.15096822 -0.0022891609 0)
(0.1554992 -0.0022407043 0)
(0.15993187 -0.0021908815 0)
(0.16426354 -0.0021397282 0)
(0.16849158 -0.002087281 0)
(0.17261344 -0.0020335772 0)
(0.17662663 -0.0019786549 0)
(0.18052878 -0.0019225531 0)
(0.18431754 -0.0018653112 0)
(0.18799069 -0.0018069692 0)
(0.19154607 -0.001747568 0)
(0.19498159 -0.0016871487 0)
(0.19829526 -0.0016257531 0)
(0.20148517 -0.0015634236 0)
(0.20454949 -0.0015002028 0)
(0.20748649 -0.0014361337 0)
(0.21029452 -0.0013712598 0)
(0.21297199 -0.001305625 0)
(0.21551745 -0.0012392732 0)
(0.21792949 -0.0011722488 0)
(0.22020682 -0.0011045964 0)
(0.22234823 -0.0010363605 0)
(0.22435259 -0.00096758609 0)
(0.22621887 -0.00089831811 0)
(0.22794612 -0.00082860156 0)
(0.22953351 -0.00075848152 0)
(0.23098026 -0.00068800304 0)
(0.2322857 -0.00061721116 0)
(0.23344926 -0.00054615086 0)
(0.23447044 -0.00047486702 0)
(0.23534883 -0.00040340438 0)
(0.23608413 -0.00033180756 0)
(0.2366761 -0.00026012096 0)
(0.23712463 -0.00018838875 0)
(0.23742965 -0.0001166549 0)
(0.23759121 -4.4963093e-05 0)
(0.23760943 2.6644694e-05 0)
(0.23748456 9.8115372e-05 0)
(0.23721685 0.00016942606 0)
(0.23680671 0.00024051927 0)
(0.23625461 0.0003113562 0)
(0.23556109 0.00038189593 0)
(0.2347268 0.00045209738 0)
(0.23375246 0.00052191988 0)
(0.23263886 0.00059132324 0)
(0.23138688 0.00066026779 0)
(0.22999747 0.00072871433 0)
(0.22847168 0.00079662424 0)
(0.22681061 0.00086395943 0)
(0.22501546 0.00093068237 0)
(0.22308748 0.00099675611 0)
(0.22102801 0.0010621443 0)
(0.21883845 0.0011268112 0)
(0.21652029 0.0011907217 0)
(0.21407507 0.0012538413 0)
(0.21150441 0.0013161361 0)
(0.20881 0.0013775729 0)
(0.20599357 0.0014381192 0)
(0.20305695 0.0014977432 0)
(0.20000201 0.0015564136 0)
(0.19683069 0.0016140999 0)
(0.19354498 0.0016707724 0)
(0.19014695 0.0017264019 0)
(0.18663871 0.00178096 0)
(0.18302244 0.0018344191 0)
(0.17930035 0.0018867521 0)
(0.17547472 0.0019379328 0)
(0.17154789 0.0019879356 0)
(0.16752224 0.0020367359 0)
(0.1634002 0.0020843094 0)
(0.15918424 0.0021306328 0)
(0.15487688 0.0021756836 0)
(0.15048071 0.0022194398 0)
(0.14599832 0.0022618803 0)
(0.14143237 0.0023029847 0)
(0.13678555 0.0023427334 0)
(0.1320606 0.0023811073 0)
(0.12726027 0.0024180884 0)
(0.12238738 0.002453659 0)
(0.11744476 0.0024878027 0)
(0.11243529 0.0025205032 0)
(0.10736186 0.0025517455 0)
(0.10222741 0.002581515 0)
(0.097034894 0.0026097979 0)
(0.091787303 0.0026365811 0)
(0.086487648 0.0026618525 0)
(0.081138965 0.0026856003 0)
(0.075744312 0.0027078137 0)
(0.070306769 0.0027284827 0)
(0.064829435 0.0027475978 0)
(0.059315427 0.0027651504 0)
(0.053767878 0.0027811325 0)
(0.048189937 0.0027955369 0)
(0.042584766 0.0028083572 0)
(0.03695554 0.0028195875 0)
(0.031305446 0.0028292229 0)
(0.025637676 0.0028372589 0)
(0.019955435 0.0028436921 0)
(0.014261931 0.0028485195 0)
(0.0085603789 0.002851739 0)
(0.0028539964 0.0028533491 0)
(-0.0028556042 0.0085613538 0)
(-0.0085652016 0.008556523 0)
(-0.014269967 0.0085468635 0)
(-0.01996668 0.0085323796 0)
(-0.025652126 0.0085130779 0)
(-0.031323094 0.0084889669 0)
(-0.03697638 0.0084600574 0)
(-0.042608787 0.0084263625 0)
(-0.04821713 0.0083878972 0)
(-0.053798232 0.0083446789 0)
(-0.059348928 0.0082967269 0)
(-0.06486607 0.0082440629 0)
(-0.070346521 0.0081867108 0)
(-0.075787164 0.0081246966 0)
(-0.081184898 0.0080580483 0)
(-0.086536643 0.0079867963 0)
(-0.091839339 0.0079109733 0)
(-0.097089947 0.0078306139 0)
(-0.10228546 0.007745755 0)
(-0.10742288 0.0076564358 0)
(-0.11249925 0.0075626975 0)
(-0.11751163 0.0074645838 0)
(-0.12245713 0.0073621404 0)
(-0.12733287 0.0072554152 0)
(-0.13213602 0.0071444583 0)
(-0.13686376 0.0070293222 0)
(-0.14151333 0.0069100613 0)
(-0.14608199 0.0067867326 0)
(-0.15056705 0.0066593949 0)
(-0.15496586 0.0065281095 0)
(-0.1592758 0.0063929399 0)
(-0.16349431 0.0062539517 0)
(-0.16761886 0.0061112127 0)
(-0.17164697 0.0059647929 0)
(-0.17557621 0.0058147646 0)
(-0.1794042 0.0056612022 0)
(-0.18312861 0.0055041823 0)
(-0.18674715 0.0053437837 0)
(-0.19025759 0.0051800873 0)
(-0.19365777 0.0050131762 0)
(-0.19694558 0.0048431356 0)
(-0.20011894 0.0046700527 0)
(-0.20317586 0.0044940171 0)
(-0.2061144 0.0043151203 0)
(-0.20893268 0.0041334558 0)
(-0.2116289 0.0039491192 0)
(-0.21420129 0.0037622081 0)
(-0.21664817 0.0035728222 0)
(-0.21896793 0.003381063 0)
(-0.22115901 0.003187034 0)
(-0.22321994 0.0029908406 0)
(-0.22514931 0.00279259 0)
(-0.22694577 0.0025923913 0)
(-0.22860808 0.0023903554 0)
(-0.23013504 0.0021865949 0)
(-0.23152553 0.0019812239 0)
(-0.23277852 0.0017743585 0)
(-0.23389306 0.0015661162 0)
(-0.23486825 0.001356616 0)
(-0.23570331 0.0011459785 0)
(-0.23639751 0.00093432575 0)
(-0.23695022 0.00072178102 0)
(-0.23736088 0.00050846848 0)
(-0.23762903 0.000294512 0)
(-0.23775427 8.0044832e-05 0)
(-0.2377363 -0.0001348065 0)
(-0.23757492 -0.00034991641 0)
(-0.23726998 -0.00056515344 0)
(-0.23682146 -0.000780386 0)
(-0.23622939 -0.00099548208 0)
(-0.23549391 -0.0012103091 0)
(-0.23461525 -0.0014247337 0)
(-0.23359371 -0.0016386221 0)
(-0.23242971 -0.00185184 0)
(-0.23112372 -0.0020642527 0)
(-0.22967633 -0.0022757254 0)
(-0.22808821 -0.0024861227 0)
(-0.22636013 -0.0026953097 0)
(-0.22449294 -0.0029031509 0)
(-0.22248758 -0.0031095114 0)
(-0.22034507 -0.0033142562 0)
(-0.21806655 -0.0035172507 0)
(-0.21565323 -0.0037183609 0)
(-0.2131064 -0.0039174531 0)
(-0.21042745 -0.0041143943 0)
(-0.20761787 -0.0043090523 0)
(-0.20467923 -0.0045012958 0)
(-0.20161316 -0.0046909943 0)
(-0.19842143 -0.0048780185 0)
(-0.19510584 -0.0050622404 0)
(-0.19166832 -0.0052435332 0)
(-0.18811086 -0.0054217715 0)
(-0.18443554 -0.0055968314 0)
(-0.18064451 -0.0057685909 0)
(-0.17674003 -0.0059369295 0)
(-0.17272441 -0.0061017287 0)
(-0.16860005 -0.0062628721 0)
(-0.16436943 -0.0064202453 0)
(-0.1600351 -0.006573736 0)
(-0.15559969 -0.0067232345 0)
(-0.1510659 -0.0068686334 0)
(-0.1464365 -0.007009828 0)
(-0.14171432 -0.0071467159 0)
(-0.13690228 -0.007279198 0)
(-0.13200334 -0.0074071776 0)
(-0.12702054 -0.0075305613 0)
(-0.12195698 -0.0076492587 0)
(-0.11681581 -0.0077631824 0)
(-0.11160024 -0.0078722484 0)
(-0.10631355 -0.0079763762 0)
(-0.10095905 -0.0080754885 0)
(-0.095540119 -0.0081695117 0)
(-0.09006017 -0.0082583757 0)
(-0.08452267 -0.0083420142 0)
(-0.078931125 -0.0084203646 0)
(-0.073289084 -0.0084933682 0)
(-0.067600133 -0.0085609702 0)
(-0.061867893 -0.0086231197 0)
(-0.056096018 -0.0086797698 0)
(-0.050288191 -0.0087308779 0)
(-0.044448123 -0.0087764053 0)
(-0.03857955 -0.0088163176 0)
(-0.032686229 -0.0088505845 0)
(-0.026771934 -0.00887918 0)
(-0.020840458 -0.0089020826 0)
(-0.014895605 -0.0089192747 0)
(-0.00894119 -0.0089307434 0)
(-0.0029810346 -0.00893648 0)
(0.0029810346 -0.00893648 0)
(0.00894119 -0.0089307434 0)
(0.014895605 -0.0089192747 0)
(0.020840458 -0.0089020826 0)
(0.026771934 -0.00887918 0)
(0.032686229 -0.0088505845 0)
(0.03857955 -0.0088163176 0)
(0.044448123 -0.0087764053 0)
(0.050288191 -0.0087308779 0)
(0.056096018 -0.0086797699 0)
(0.061867893 -0.0086231197 0)
(0.067600133 -0.0085609702 0)
(0.073289084 -0.0084933682 0)
(0.078931125 -0.0084203646 0)
(0.08452267 -0.0083420142 0)
(0.09006017 -0.0082583757 0)
(0.095540119 -0.0081695117 0)
(0.10095905 -0.0080754885 0)
(0.10631355 -0.0079763762 0)
(0.11160024 -0.0078722484 0)
(0.11681581 -0.0077631824 0)
(0.12195698 -0.0076492587 0)
(0.12702054 -0.0075305613 0)
(0.13200334 -0.0074071776 0)
(0.13690228 -0.007279198 0)
(0.14171432 -0.0071467159 0)
(0.1464365 -0.007009828 0)
(0.1510659 -0.0068686334 0)
(0.15559969 -0.0067232345 0)
(0.1600351 -0.006573736 0)
(0.16436943 -0.0064202453 0)
(0.16860005 -0.0062628721 0)
(0.17272441 -0.0061017287 0)
(0.17674003 -0.0059369295 0)
(0.18064451 -0.0057685909 0)
(0.18443554 -0.0055968314 0)
(0.18811086 -0.0054217715 0)
(0.19166832 -0.0052435332 0)
(0.19510584 -0.0050622404 0)
(0.19842143 -0.0048780185 0)
(0.20161316 -0.0046909943 0)
(0.20467923 -0.0045012958 0)
(0.20761787 -0.0043090523 0)
(0.21042745 -0.0041143943 0)
(0.2131064 -0.0039174531 0)
(0.21565323 -0.0037183609 0)
(0.21806655 -0.0035172507 0)
(0.22034507 -0.0033142562 0)
(0.22248758 -0.0031095114 0)
(0.22449294 -0.0029031509 0)
(0.22636013 -0.0026953097 0)
(0.22808821 -0.0024861227 0)
(0.22967633 -0.0022757254 0)
(0.23112372 -0.0020642527 0)
(0.23242971 -0.00185184 0)
(0.23359371 -0.0016386221 0)
(0.23461525 -0.0014247337 0)
(0.23549391 -0.0012103091 0)
(0.23622939 -0.00099548208 0)
(0.23682146 -0.000780386 0)
(0.23726998 -0.00056515344 0)
(0.23757492 -0.00034991641 0)
(0.2377363 -0.00013480651 0)
(0.23775427 8.0044829e-05 0)
(0.23762903 0.000294512 0)
(0.23736088 0.00050846848 0)
(0.23695022 0.00072178102 0)
(0.23639751 0.00093432575 0)
(0.23570331 0.0011459785 0)
(0.23486825 0.001356616 0)
(0.23389306 0.0015661162 0)
(0.23277852 0.0017743585 0)
(0.23152553 0.0019812239 0)
(0.23013504 0.0021865949 0)
(0.22860808 0.0023903554 0)
(0.22694577 0.0025923913 0)
(0.22514931 0.00279259 0)
(0.22321994 0.0029908406 0)
(0.22115901 0.003187034 0)
(0.21896793 0.003381063 0)
(0.21664817 0.0035728222 0)
(0.21420129 0.0037622081 0)
(0.2116289 0.0039491192 0)
(0.20893268 0.0041334558 0)
(0.2061144 0.0043151203 0)
(0.20317586 0.0044940171 0)
(0.20011894 0.0046700527 0)
(0.19694558 0.0048431356 0)
(0.19365777 0.0050131762 0)
(0.19025759 0.0051800873 0)
(0.18674715 0.0053437837 0)
(0.18312861 0.0055041823 0)
(0.1794042 0.0056612022 0)
(0.17557621 0.0058147646 0)
(0.17164697 0.0059647929 0)
(0.16761886 0.0061112127 0)
(0.16349431 0.0062539517 0)
(0.1592758 0.0063929399 0)
(0.15496586 0.0065281095 0)
(0.15056705 0.0066593949 0)
(0.14608199 0.0067867326 0)
(0.14151333 0.0069100613 0)
(0.13686376 0.0070293222 0)
(0.13213602 0.0071444583 0)
(0.12733287 0.0072554152 0)
(0.12245713 0.0073621404 0)
(0.11751163 0.0074645838 0)
(0.11249925 0.0075626975 0)
(0.10742288 0.0076564358 0)
(0.10228546 0.007745755 0)
(0.097089947 0.0078306139 0)
(0.091839339 0.0079109733 0)
(0.086536643 0.0079867963 0)
(0.081184898 0.0080580483 0)
(0.075787164 0.0081246966 0)
(0.070346521 0.0081867108 0)
(0.06486607 0.0082440629 0)
(0.059348928 0.0082967269 0)
(0.053798232 0.0083446789 0)
(0.04821713 0.0083878972 0)
(0.042608787 0.0084263625 0)
(0.03697638 0.0084600574 0)
(0.031323094 0.0084889669 0)
(0.025652126 0.0085130779 0)
(0.01996668 0.0085323796 0)
(0.014269967 0.0085468635 0)
(0.0085652016 0.008556523 0)
(0.0028556042 0.0085613538 0)
(-0.0028580192 0.014273783 0)
(-0.0085724454 0.014265729 0)
(-0.014282036 0.014249626 0)
(-0.01998357 0.01422548 0)
(-0.02567383 0.014193302 0)
(-0.031349603 0.014153107 0)
(-0.037007683 0.014104912 0)
(-0.042644871 0.01404874 0)
(-0.048257979 0.013984615 0)
(-0.053843829 0.013912565 0)
(-0.059399255 0.013832625 0)
(-0.064921105 0.013744829 0)
(-0.070406241 0.013649218 0)
(-0.075851544 0.013545834 0)
(-0.081253911 0.013434724 0)
(-0.086610259 0.01331594 0)
(-0.091917526 0.013189535 0)
(-0.097172673 0.013055567 0)
(-0.10237268 0.012914098 0)
(-0.10751457 0.012765194 0)
(-0.11259536 0.012608922 0)
(-0.11761213 0.012445355 0)
(-0.12256197 0.01227457 0)
(-0.12744201 0.012096646 0)
(-0.13224939 0.011911668 0)
(-0.13698133 0.011719722 0)
(-0.14163504 0.011520899 0)
(-0.14620778 0.011315294 0)
(-0.15069687 0.011103005 0)
(-0.15509965 0.010884135 0)
(-0.15941351 0.010658789 0)
(-0.16363586 0.010427076 0)
(-0.16776419 0.01018911 0)
(-0.17179601 0.0099450065 0)
(-0.17572889 0.0096948869 0)
(-0.17956044 0.0094388749 0)
(-0.18328834 0.0091770982 0)
(-0.1869103 0.0089096881 0)
(-0.19042408 0.0086367794 0)
(-0.19382752 0.0083585107 0)
(-0.19711849 0.0080750239 0)
(-0.20029494 0.0077864646 0)
(-0.20335486 0.0074929818 0)
(-0.2062963 0.0071947281 0)
(-0.2091174 0.0068918595 0)
(-0.21181634 0.0065845353 0)
(-0.21439135 0.0062729181 0)
(-0.21684076 0.0059571742 0)
(-0.21916294 0.0056374727 0)
(-0.22135635 0.0053139862 0)
(-0.22341949 0.0049868903 0)
(-0.22535097 0.0046563638 0)
(-0.22714944 0.0043225886 0)
(-0.22881363 0.0039857493 0)
(-0.23034237 0.0036460338 0)
(-0.23173452 0.0033036325 0)
(-0.23298906 0.0029587386 0)
(-0.23410502 0.0026115481 0)
(-0.23508152 0.0022622595 0)
(-0.23591777 0.0019110737 0)
(-0.23661303 0.0015581941 0)
(-0.23716668 0.0012038262 0)
(-0.23757815 0.00084817763 0)
(-0.23784698 0.00049145763 0)
(-0.23797277 0.00013388151 0)
(-0.23795523 -0.00022433816 0)
(-0.23779413 -0.00058298782 0)
(-0.23748936 -0.00094184997 0)
(-0.23704086 -0.0013007057 0)
(-0.23644868 -0.001659335 0)
(-0.23571295 -0.0020175166 0)
(-0.2348339 -0.0023750284 0)
(-0.23381185 -0.0027316472 0)
(-0.23264718 -0.0030871491 0)
(-0.23134039 -0.0034413095 0)
(-0.22989206 -0.0037939034 0)
(-0.22830287 -0.0041447056 0)
(-0.22657357 -0.0044934905 0)
(-0.22470502 -0.0048400326 0)
(-0.22269815 -0.0051841067 0)
(-0.22055401 -0.0055254879 0)
(-0.21827371 -0.0058639517 0)
(-0.21585847 -0.0061992745 0)
(-0.21330958 -0.0065312335 0)
(-0.21062844 -0.0068596068 0)
(-0.20781652 -0.0071841742 0)
(-0.2048754 -0.0075047163 0)
(-0.20180673 -0.007821016 0)
(-0.19861225 -0.0081328574 0)
(-0.19529379 -0.008440027 0)
(-0.19185326 -0.0087423133 0)
(-0.18829266 -0.0090395073 0)
(-0.18461406 -0.0093314025 0)
(-0.18081963 -0.0096177952 0)
(-0.17691162 -0.0098984845 0)
(-0.17289235 -0.010173273 0)
(-0.16876422 -0.010441966 0)
(-0.1645297 -0.010704373 0)
(-0.16019136 -0.010960307 0)
(-0.15575182 -0.011209585 0)
(-0.15121379 -0.011452028 0)
(-0.14658003 -0.011687461 0)
(-0.1418534 -0.011915713 0)
(-0.13703679 -0.012136619 0)
(-0.13213318 -0.012350018 0)
(-0.12714562 -0.012555753 0)
(-0.1220772 -0.012753675 0)
(-0.11693107 -0.012943637 0)
(-0.11171047 -0.0131255 0)
(-0.10641865 -0.013299129 0)
(-0.10105895 -0.013464394 0)
(-0.095634731 -0.013621175 0)
(-0.090149425 -0.013769352 0)
(-0.084606498 -0.013908816 0)
(-0.079009462 -0.014039463 0)
(-0.073361868 -0.014161195 0)
(-0.067667307 -0.014273919 0)
(-0.061929405 -0.014377552 0)
(-0.056151818 -0.014472014 0)
(-0.050338237 -0.014557236 0)
(-0.044492375 -0.014633152 0)
(-0.038617973 -0.014699704 0)
(-0.032718792 -0.014756844 0)
(-0.026798612 -0.014804526 0)
(-0.020861229 -0.014842716 0)
(-0.014910454 -0.014871383 0)
(-0.0089501038 -0.014890507 0)
(-0.0029840067 -0.014900073 0)
(0.0029840067 -0.014900073 0)
(0.0089501038 -0.014890507 0)
(0.014910454 -0.014871383 0)
(0.020861229 -0.014842716 0)
(0.026798612 -0.014804526 0)
(0.032718792 -0.014756844 0)
(0.038617973 -0.014699704 0)
(0.044492375 -0.014633152 0)
(0.050338237 -0.014557236 0)
(0.056151818 -0.014472014 0)
(0.061929405 -0.014377552 0)
(0.067667307 -0.014273919 0)
(0.073361868 -0.014161195 0)
(0.079009462 -0.014039463 0)
(0.084606498 -0.013908816 0)
(0.090149425 -0.013769352 0)
(0.095634731 -0.013621175 0)
(0.10105895 -0.013464394 0)
(0.10641865 -0.013299129 0)
(0.11171047 -0.0131255 0)
(0.11693107 -0.012943637 0)
(0.1220772 -0.012753675 0)
(0.12714562 -0.012555753 0)
(0.13213318 -0.012350018 0)
(0.13703679 -0.012136619 0)
(0.1418534 -0.011915713 0)
(0.14658003 -0.011687461 0)
(0.15121379 -0.011452028 0)
(0.15575182 -0.011209585 0)
(0.16019136 -0.010960307 0)
(0.1645297 -0.010704373 0)
(0.16876422 -0.010441966 0)
(0.17289235 -0.010173273 0)
(0.17691162 -0.0098984845 0)
(0.18081963 -0.0096177952 0)
(0.18461406 -0.0093314025 0)
(0.18829266 -0.0090395073 0)
(0.19185326 -0.0087423133 0)
(0.19529379 -0.008440027 0)
(0.19861225 -0.0081328574 0)
(0.20180673 -0.007821016 0)
(0.2048754 -0.0075047163 0)
(0.20781652 -0.0071841742 0)
(0.21062844 -0.0068596068 0)
(0.21330958 -0.0065312335 0)
(0.21585847 -0.0061992745 0)
(0.21827371 -0.0058639517 0)
(0.22055401 -0.0055254879 0)
(0.22269815 -0.0051841067 0)
(0.22470502 -0.0048400326 0)
(0.22657357 -0.0044934905 0)
(0.22830287 -0.0041447056 0)
(0.22989206 -0.0037939034 0)
(0.23134039 -0.0034413095 0)
(0.23264718 -0.0030871491 0)
(0.23381185 -0.0027316472 0)
(0.2348339 -0.0023750284 0)
(0.23571295 -0.0020175166 0)
(0.23644868 -0.001659335 0)
(0.23704086 -0.0013007057 0)
(0.23748936 -0.00094184998 0)
(0.23779413 -0.00058298782 0)
(0.23795523 -0.00022433816 0)
(0.23797277 0.0001338815 0)
(0.23784698 0.00049145763 0)
(0.23757815 0.00084817763 0)
(0.23716668 0.0012038262 0)
(0.23661303 0.0015581941 0)
(0.23591777 0.0019110737 0)
(0.23508152 0.0022622595 0)
(0.23410502 0.0026115481 0)
(0.23298906 0.0029587386 0)
(0.23173452 0.0033036325 0)
(0.23034237 0.0036460338 0)
(0.22881363 0.0039857493 0)
(0.22714944 0.0043225886 0)
(0.22535097 0.0046563638 0)
(0.22341949 0.0049868903 0)
(0.22135635 0.0053139862 0)
(0.21916294 0.0056374727 0)
(0.21684076 0.0059571742 0)
(0.21439135 0.0062729181 0)
(0.21181634 0.0065845353 0)
(0.2091174 0.0068918595 0)
(0.2062963 0.0071947281 0)
(0.20335486 0.0074929818 0)
(0.20029494 0.0077864646 0)
(0.19711849 0.0080750239 0)
(0.19382752 0.0083585107 0)
(0.19042408 0.0086367794 0)
(0.1869103 0.0089096881 0)
(0.18328834 0.0091770982 0)
(0.17956044 0.0094388749 0)
(0.17572889 0.0096948869 0)
(0.17179601 0.0099450065 0)
(0.16776419 0.01018911 0)
(0.16363586 0.010427076 0)
(0.15941351 0.010658789 0)
(0.15509965 0.010884135 0)
(0.15069687 0.011103005 0)
(0.14620778 0.011315294 0)
(0.14163504 0.011520899 0)
(0.13698133 0.011719722 0)
(0.13224939 0.011911668 0)
(0.12744201 0.012096646 0)
(0.12256197 0.01227457 0)
(0.11761213 0.012445355 0)
(0.11259536 0.012608922 0)
(0.10751457 0.012765194 0)
(0.10237268 0.012914098 0)
(0.097172673 0.013055567 0)
(0.091917526 0.013189535 0)
(0.086610259 0.01331594 0)
(0.081253911 0.013434724 0)
(0.075851544 0.013545834 0)
(0.070406241 0.013649218 0)
(0.064921105 0.013744829 0)
(0.059399255 0.013832625 0)
(0.053843829 0.013912565 0)
(0.048257979 0.013984615 0)
(0.042644871 0.01404874 0)
(0.037007683 0.014104912 0)
(0.031349603 0.014153107 0)
(0.02567383 0.014193302 0)
(0.01998357 0.01422548 0)
(0.014282036 0.014249626 0)
(0.0085724454 0.014265729 0)
(0.0028580191 0.014273783 0)
(-0.0028612435 0.019991858 0)
(-0.0085821172 0.01998058 0)
(-0.014298151 0.019958028 0)
(-0.020006122 0.019924213 0)
(-0.02570281 0.01987915 0)
(-0.031384998 0.019822859 0)
(-0.037049479 0.019755365 0)
(-0.042693051 0.019676698 0)
(-0.048312523 0.019586894 0)
(-0.053904714 0.019485993 0)
(-0.059466456 0.019374041 0)
(-0.064994594 0.019251087 0)
(-0.070485988 0.019117188 0)
(-0.075937514 0.018972404 0)
(-0.081346069 0.0188168 0)
(-0.086708565 0.018650449 0)
(-0.092021939 0.018473424 0)
(-0.097283149 0.018285808 0)
(-0.10248918 0.018087686 0)
(-0.10763703 0.017879151 0)
(-0.11272373 0.017660297 0)
(-0.11774636 0.017431228 0)
(-0.122702 0.017192048 0)
(-0.12758777 0.016942871 0)
(-0.13240083 0.016683814 0)
(-0.13713837 0.016414998 0)
(-0.14179761 0.01613655 0)
(-0.14637583 0.015848604 0)
(-0.15087031 0.015551297 0)
(-0.15527839 0.015244771 0)
(-0.15959747 0.014929176 0)
(-0.16382497 0.014604663 0)
(-0.16795835 0.014271391 0)
(-0.17199514 0.013929524 0)
(-0.17593289 0.01357923 0)
(-0.17976922 0.013220682 0)
(-0.1835018 0.01285406 0)
(-0.18712833 0.012479548 0)
(-0.19064658 0.012097333 0)
(-0.19405438 0.01170761 0)
(-0.1973496 0.011310579 0)
(-0.20053018 0.010906441 0)
(-0.20359412 0.010495408 0)
(-0.20653946 0.010077691 0)
(-0.20936434 0.0096535088 0)
(-0.21206692 0.0092230854 0)
(-0.21464546 0.0087866482 0)
(-0.21709825 0.0083444297 0)
(-0.21942369 0.0078966669 0)
(-0.22162021 0.0074436015 0)
(-0.22368634 0.0069854793 0)
(-0.22562065 0.0065225508 0)
(-0.22742181 0.0060550705 0)
(-0.22908854 0.0055832972 0)
(-0.23061967 0.0051074937 0)
(-0.23201406 0.0046279268 0)
(-0.23327068 0.0041448671 0)
(-0.23438857 0.003658589 0)
(-0.23536683 0.0031693705 0)
(-0.23620468 0.002677493 0)
(-0.23690138 0.0021832413 0)
(-0.23745629 0.0016869034 0)
(-0.23786887 0.0011887703 0)
(-0.23813862 0.00068913585 0)
(-0.23826517 0.00018829845 0)
(-0.23824821 -0.00031344305 0)
(-0.23808752 -0.00081578776 0)
(-0.23778297 -0.0013184316 0)
(-0.23733452 -0.0018210682 0)
(-0.23674221 -0.0023233895 0)
(-0.23600617 -0.0028250858 0)
(-0.23512662 -0.0033258456 0)
(-0.23410388 -0.0038253565 0)
(-0.23293834 -0.0043233049 0)
(-0.2316305 -0.004819376 0)
(-0.23018093 -0.0053132549 0)
(-0.2285903 -0.0058046258 0)
(-0.22685939 -0.0062931728 0)
(-0.22498903 -0.0067785802 0)
(-0.22298017 -0.0072605323 0)
(-0.22083385 -0.0077387141 0)
(-0.21855118 -0.0082128112 0)
(-0.21613338 -0.0086825103 0)
(-0.21358175 -0.0091474991 0)
(-0.21089768 -0.009607467 0)
(-0.20808265 -0.010062105 0)
(-0.20513823 -0.010511107 0)
(-0.20206608 -0.010954167 0)
(-0.19886793 -0.011390984 0)
(-0.19554563 -0.011821258 0)
(-0.19210107 -0.012244693 0)
(-0.18853627 -0.012660996 0)
(-0.18485329 -0.013069879 0)
(-0.18105432 -0.013471054 0)
(-0.17714159 -0.013864242 0)
(-0.17311743 -0.014249164 0)
(-0.16898425 -0.01462555 0)
(-0.16474452 -0.014993132 0)
(-0.16040081 -0.015351646 0)
(-0.15595575 -0.015700838 0)
(-0.15141203 -0.016040456 0)
(-0.14677245 -0.016370255 0)
(-0.14203984 -0.016689996 0)
(-0.13721712 -0.016999447 0)
(-0.13230726 -0.017298383 0)
(-0.12731331 -0.017586584 0)
(-0.12223838 -0.017863841 0)
(-0.11708562 -0.018129947 0)
(-0.11185826 -0.018384709 0)
(-0.10655958 -0.018627936 0)
(-0.1011929 -0.018859448 0)
(-0.095761598 -0.019079073 0)
(-0.090269112 -0.019286648 0)
(-0.084718911 -0.019482018 0)
(-0.079114512 -0.019665036 0)
(-0.073459474 -0.019835564 0)
(-0.067757391 -0.019993475 0)
(-0.062011896 -0.020138651 0)
(-0.056226652 -0.02027098 0)
(-0.050405354 -0.020390364 0)
(-0.044551722 -0.020496712 0)
(-0.038669502 -0.020589944 0)
(-0.032762463 -0.020669989 0)
(-0.026834391 -0.020736786 0)
(-0.020889087 -0.020790284 0)
(-0.014930368 -0.020830444 0)
(-0.0089620586 -0.020857234 0)
(-0.0029879927 -0.020870634 0)
(0.0029879927 -0.020870634 0)
(0.0089620586 -0.020857234 0)
(0.014930368 -0.020830444 0)
(0.020889087 -0.020790284 0)
(0.026834391 -0.020736786 0)
(0.032762463 -0.020669989 0)
(0.038669502 -0.020589944 0)
(0.044551722 -0.020496712 0)
(0.050405354 -0.020390364 0)
(0.056226652 -0.02027098 0)
(0.062011896 -0.020138651 0)
(0.067757391 -0.019993475 0)
(0.073459474 -0.019835564 0)
(0.079114512 -0.019665036 0)
(0.084718911 -0.019482018 0)
(0.090269112 -0.019286648 0)
(0.095761598 -0.019079073 0)
(0.1011929 -0.018859448 0)
(0.10655958 -0.018627936 0)
(0.11185826 -0.018384709 0)
(0.11708562 -0.018129947 0)
(0.12223838 -0.017863841 0)
(0.12731331 -0.017586584 0)
(0.13230726 -0.017298383 0)
(0.13721712 -0.016999447 0)
(0.14203984 -0.016689996 0)
(0.14677245 -0.016370255 0)
(0.15141203 -0.016040456 0)
(0.15595575 -0.015700838 0)
(0.16040081 -0.015351646 0)
(0.16474452 -0.014993132 0)
(0.16898425 -0.01462555 0)
(0.17311743 -0.014249164 0)
(0.17714159 -0.013864242 0)
(0.18105432 -0.013471054 0)
(0.18485329 -0.013069879 0)
(0.18853627 -0.012660996 0)
(0.19210107 -0.012244693 0)
(0.19554563 -0.011821258 0)
(0.19886793 -0.011390984 0)
(0.20206608 -0.010954167 0)
(0.20513823 -0.010511107 0)
(0.20808265 -0.010062105 0)
(0.21089768 -0.009607467 0)
(0.21358175 -0.0091474991 0)
(0.21613338 -0.0086825103 0)
(0.21855118 -0.0082128112 0)
(0.22083385 -0.0077387141 0)
(0.22298017 -0.0072605323 0)
(0.22498903 -0.0067785802 0)
(0.22685939 -0.0062931728 0)
(0.2285903 -0.0058046258 0)
(0.23018093 -0.0053132549 0)
(0.2316305 -0.004819376 0)
(0.23293834 -0.0043233049 0)
(0.23410388 -0.0038253565 0)
(0.23512662 -0.0033258456 0)
(0.23600617 -0.0028250858 0)
(0.23674221 -0.0023233895 0)
(0.23733452 -0.0018210682 0)
(0.23778297 -0.0013184316 0)
(0.23808752 -0.00081578777 0)
(0.23824821 -0.00031344305 0)
(0.23826517 0.00018829845 0)
(0.23813862 0.00068913585 0)
(0.23786887 0.0011887702 0)
(0.23745629 0.0016869034 0)
(0.23690138 0.0021832413 0)
(0.23620468 0.002677493 0)
(0.23536683 0.0031693705 0)
(0.23438857 0.003658589 0)
(0.23327068 0.0041448671 0)
(0.23201406 0.0046279268 0)
(0.23061967 0.0051074937 0)
(0.22908854 0.0055832972 0)
(0.22742181 0.0060550705 0)
(0.22562065 0.0065225508 0)
(0.22368634 0.0069854793 0)
(0.22162021 0.0074436015 0)
(0.21942369 0.0078966669 0)
(0.21709825 0.0083444297 0)
(0.21464546 0.0087866482 0)
(0.21206692 0.0092230854 0)
(0.20936434 0.0096535088 0)
(0.20653946 0.010077691 0)
(0.20359412 0.010495408 0)
(0.20053018 0.010906441 0)
(0.1973496 0.011310579 0)
(0.19405438 0.01170761 0)
(0.19064658 0.012097333 0)
(0.18712833 0.012479548 0)
(0.1835018 0.01285406 0)
(0.17976922 0.013220682 0)
(0.17593289 0.01357923 0)
(0.17199514 0.013929524 0)
(0.16795835 0.014271391 0)
(0.16382497 0.014604663 0)
(0.15959747 0.014929176 0)
(0.15527839 0.015244771 0)
(0.15087031 0.015551297 0)
(0.14637583 0.015848604 0)
(0.14179761 0.01613655 0)
(0.13713837 0.016414998 0)
(0.13240083 0.016683814 0)
(0.12758777 0.016942871 0)
(0.122702 0.017192048 0)
(0.11774636 0.017431228 0)
(0.11272373 0.017660297 0)
(0.10763703 0.017879151 0)
(0.10248918 0.018087686 0)