/*--------------------------------*- C++ -*----------------------------------*\
| =========                 |                                                 |
| \\      /  F ield         | OpenFOAM: The Open Source CFD Toolbox           |
|  \\    /   O peration     | Version:  2306                                  |
|   \\  /    A nd           | Website:  www.openfoam.com                      |
|    \\/     M anipulation  |                                                 |
\*---------------------------------------------------------------------------*/
FoamFile
{
    version     2.0;
    format      ascii;
    arch        "LSB;label=32;scalar=64";
    class       volVectorField;
    location    "0.06";
    object      U;
}
// * * * * * * * * * * * * * * * * * * * * * * * * * * * * * * * * * * * * * //

dimensions      [0 1 -1 0 0 0 0];

internalField   nonuniform List<vector> 
51200
(
(-1.3218489e-05 1.1984906e-05 2.8486535e-20)
(-3.0701963e-05 1.3569818e-05 -7.495809e-22)
(-5.066359e-05 1.3512694e-05 -9.1372222e-21)
(-7.0198713e-05 1.3568967e-05 2.0082966e-23)
(-9.0156786e-05 1.3571786e-05 6.5293414e-21)
(-0.00010998256 1.3513335e-05 -5.4572591e-21)
(-0.0001296519 1.3433313e-05 -3.4065164e-21)
(-0.00014913483 1.333272e-05 6.1951703e-21)
(-0.0001684008 1.3214713e-05 6.1444933e-21)
(-0.00018742088 1.3081191e-05 -8.1022848e-21)
(-0.00020616826 1.2933307e-05 -1.0289716e-20)
(-0.00022461728 1.2771921e-05 9.5966535e-21)
(-0.00024274281 1.2597788e-05 -1.7207974e-21)
(-0.00026052079 1.2411585e-05 -7.0346123e-21)
(-0.00027792845 1.221394e-05 -3.9071837e-22)
(-0.00029494419 1.2005483e-05 7.7095203e-22)
(-0.00031154768 1.1786846e-05 2.7286904e-21)
(-0.00032771978 1.1558676e-05 -3.512699e-21)
(-0.00034344264 1.1321618e-05 -4.2461474e-21)
(-0.00035869972 1.1076326e-05 2.018688e-21)
(-0.00037347578 1.0823446e-05 -1.6459458e-21)
(-0.00038775695 1.0563627e-05 -2.9196946e-21)
(-0.0004015307 1.0297505e-05 4.2051551e-21)
(-0.00041478588 1.0025698e-05 1.508932e-20)
(-0.00042751269 9.748808e-06 2.6691681e-20)
(-0.0004397027 9.4674063e-06 -9.9666511e-21)
(-0.00045134882 9.1820271e-06 -4.93731e-20)
(-0.0004624453 8.8931587e-06 -4.1435246e-21)
(-0.00047298767 8.6012108e-06 2.996507e-20)
(-0.00048297274 8.3065126e-06 1.859934e-20)
(-0.00049239856 8.0092501e-06 7.8775277e-21)
(-0.00050126435 7.7094297e-06 -1.5933706e-21)
(-0.00050957061 7.4068241e-06 1.7654666e-20)
(-0.00051731943 7.1009937e-06 -2.1214203e-20)
(-0.00052451632 6.791854e-06 -4.3954269e-20)
(-0.00053116962 6.4830067e-06 3.5437169e-20)
(-0.00053728362 6.1820389e-06 2.1799845e-20)
(-0.0005428593 5.8918856e-06 -6.4909695e-20)
(-0.00054790081 5.6119915e-06 1.132099e-20)
(-0.00055241547 5.3410197e-06 9.045708e-20)
(-0.00055641217 5.0778414e-06 2.8954283e-20)
(-0.00055990065 4.8216993e-06 -3.9006526e-20)
(-0.00056289123 4.5721239e-06 -8.6719106e-20)
(-0.00056539471 4.3288554e-06 -8.8159479e-20)
(-0.00056742238 4.0917701e-06 2.5036596e-20)
(-0.00056898596 3.8608277e-06 1.8195394e-19)
(-0.00057009755 3.6360703e-06 4.0496285e-20)
(-0.00057076965 3.41759e-06 -5.8467051e-20)
(-0.00057101509 3.2055239e-06 -6.3622812e-20)
(-0.00057084699 2.999977e-06 -1.3409444e-19)
(-0.00057027875 2.800971e-06 8.8659834e-20)
(-0.00056932394 2.6085078e-06 7.862036e-20)
(-0.0005679963 2.422576e-06 -3.5198672e-20)
(-0.00056630963 2.2431572e-06 5.8777816e-20)
(-0.00056427783 2.070209e-06 -1.0491836e-19)
(-0.0005619148 1.9036954e-06 -8.2090385e-20)
(-0.00055923442 1.7435692e-06 1.1874102e-19)
(-0.00055625054 1.5897673e-06 1.9869434e-20)
(-0.00055297691 1.4422313e-06 -3.4489845e-20)
(-0.00054942717 1.3008963e-06 2.4709907e-20)
(-0.00054561482 1.1656933e-06 1.4079184e-21)
(-0.00054155319 1.036551e-06 -2.5105337e-20)
(-0.0005372554 9.1340059e-07 -1.5962701e-20)
(-0.00053273437 7.9618507e-07 1.7819318e-20)
(-0.00052800279 6.8485894e-07 -1.9869844e-20)
(-0.00052307308 5.7938239e-07 -3.3331553e-20)
(-0.00051795742 4.7976164e-07 8.0355856e-20)
(-0.0005126677 3.8602874e-07 -1.5423863e-20)
(-0.00050721556 2.9828254e-07 -3.9155424e-20)
(-0.00050161233 2.1670056e-07 1.4344379e-19)
(-0.00049586911 1.4151682e-07 -2.5440802e-20)
(-0.00048999665 7.2917049e-08 -1.1560877e-19)
(-0.00048400504 1.0897642e-08 2.3530391e-20)
(-0.00047790158 -4.5141333e-08 4.741013e-20)
(-0.00047168784 -1.0223067e-07 3.3034525e-20)
(-0.00046538012 -1.8285685e-07 -1.0304257e-19)
(-0.00045899977 -2.7372735e-07 -7.5833751e-20)
(-0.0004525515 -3.6139955e-07 9.4949421e-20)
(-0.00044603871 -4.4325197e-07 1.103347e-19)
(-0.00043946821 -5.1904487e-07 -2.7541092e-20)
(-0.00043284751 -5.8914985e-07 -1.2538135e-19)
(-0.00042618394 -6.5410821e-07 3.1555342e-20)
(-0.00041948448 -7.144255e-07 6.9210049e-20)
(-0.00041275579 -7.7051906e-07 -3.0965265e-21)
(-0.00040600416 -8.2273599e-07 3.6535976e-20)
(-0.00039923557 -8.7135701e-07 -3.4034255e-20)
(-0.00039245566 -9.1662332e-07 -2.3097566e-21)
(-0.00038566979 -9.5875018e-07 -2.1097326e-21)
(-0.00037888301 -9.9791946e-07 -4.5793952e-20)
(-0.00037210008 -1.0343032e-06 3.8719492e-20)
(-0.00036532551 -1.0680521e-06 -5.1958554e-20)
(-0.0003585635 -1.0993183e-06 -2.2592991e-20)
(-0.00035181804 -1.1282344e-06 6.3178141e-20)
(-0.00034509285 -1.1549216e-06 1.5705147e-20)
(-0.00033839138 -1.1795097e-06 -7.5196354e-21)
(-0.00033171689 -1.2021096e-06 -5.2006196e-20)
(-0.0003250724 -1.2228293e-06 -7.9788632e-21)
(-0.00031846069 -1.2417677e-06 2.3662591e-20)
(-0.00031188438 -1.259035e-06 5.0197446e-20)
(-0.00030534584 -1.2747166e-06 8.2969323e-21)
(-0.00029884726 -1.2889077e-06 -7.5511484e-20)
(-0.00029239068 -1.3016883e-06 1.2400792e-20)
(-0.00028597793 -1.3131447e-06 1.3547593e-20)
(-0.00027961067 -1.3233586e-06 2.4346786e-20)
(-0.00027329041 -1.3324006e-06 1.3587145e-20)
(-0.0002670185 -1.3403395e-06 -6.464754e-20)
(-0.00026079615 -1.3472513e-06 1.6586896e-20)
(-0.00025462442 -1.3531943e-06 3.2474948e-20)
(-0.00024850425 -1.3582346e-06 4.2893251e-21)
(-0.00024243644 -1.3624366e-06 -4.2901653e-21)
(-0.00023642168 -1.3658442e-06 -5.0210945e-20)
(-0.00023046053 -1.3685241e-06 2.8387199e-21)
(-0.00022455345 -1.3705207e-06 2.4298327e-20)
(-0.00021870082 -1.371883e-06 8.2119322e-22)
(-0.00021290288 -1.3726619e-06 1.3571367e-20)
(-0.00020715982 -1.3729048e-06 -1.4400451e-20)
(-0.00020147171 -1.3726467e-06 1.5447372e-21)
(-0.00019583857 -1.3719286e-06 3.6518621e-21)
(-0.00019026031 -1.3707921e-06 2.1822727e-21)
(-0.0001847368 -1.3692711e-06 1.8991894e-20)
(-0.00017926781 -1.367406e-06 -1.6646744e-20)
(-0.00017385308 -1.3652194e-06 -8.6399861e-21)
(-0.00016849228 -1.3627499e-06 1.1891002e-20)
(-0.00016318501 -1.3600248e-06 2.0554261e-20)
(-0.00015793083 -1.3570705e-06 3.611158e-21)
(-0.00015272926 -1.3539155e-06 -3.7945362e-20)
(-0.00014757977 -1.3505823e-06 -1.5258319e-20)
(-0.00014248177 -1.3470953e-06 1.7756056e-20)
(-0.00013743467 -1.3434752e-06 1.4294709e-20)
(-0.00013243782 -1.339743e-06 -6.5477562e-21)
(-0.00012749053 -1.3359236e-06 -1.2291108e-20)
(-0.00012259211 -1.3320266e-06 -4.6357925e-22)
(-0.00011774181 -1.3280773e-06 -6.1525132e-21)
(-0.00011293889 -1.324087e-06 -6.1395831e-21)
(-0.00010818257 -1.3200728e-06 -5.7644308e-21)
(-0.00010347204 -1.3160487e-06 7.1817121e-21)
(-9.8806491e-05 -1.3120277e-06 1.6329484e-20)
(-9.4185096e-05 -1.3080186e-06 1.1266747e-21)
(-8.9607008e-05 -1.3040433e-06 -2.3729083e-22)
(-8.5071369e-05 -1.3001042e-06 -1.4178544e-21)
(-8.0577321e-05 -1.2962077e-06 -4.5652942e-21)
(-7.612399e-05 -1.2923713e-06 3.1207563e-21)
(-7.1710496e-05 -1.2885989e-06 -2.2124294e-21)
(-6.7335956e-05 -1.2848982e-06 2.1584064e-21)
(-6.2999488e-05 -1.2812784e-06 8.8319456e-21)
(-5.87002e-05 -1.2777418e-06 -8.3447666e-21)
(-5.4437211e-05 -1.2742956e-06 -6.9746372e-21)
(-5.0209636e-05 -1.2709458e-06 5.4725585e-21)
(-4.6016598e-05 -1.2676917e-06 7.5553802e-21)
(-4.1857233e-05 -1.2645287e-06 -8.3471843e-22)
(-3.7730693e-05 -1.2614544e-06 -7.6764026e-21)
(-3.3636165e-05 -1.2584394e-06 -3.0559508e-21)
(-2.9572907e-05 -1.2554263e-06 3.9717664e-21)
(-2.5540331e-05 -1.2522568e-06 1.9191474e-21)
(-2.1538184e-05 -1.2485525e-06 -2.0625438e-21)
(-1.7567012e-05 -1.2434329e-06 -1.8162937e-21)
(-1.3629618e-05 -1.2353047e-06 1.6090318e-22)
(-9.7338611e-06 -1.2240139e-06 9.3704143e-22)
(-5.8767767e-06 -1.2410291e-06 2.06903e-22)
(-1.9528815e-06 -1.4559878e-06 -1.0411907e-21)
(-2.2122859e-05 6.6707893e-05 1.9381217e-20)
(-4.9426341e-05 6.7767582e-05 -4.6898516e-22)
(-8.0760388e-05 6.7798293e-05 1.1256416e-21)
(-0.00011137732 6.7863527e-05 1.1215562e-20)
(-0.00014261345 6.773711e-05 9.8333775e-21)
(-0.00017364977 6.746457e-05 -6.6001252e-21)
(-0.00020445486 6.7099376e-05 8.9400291e-21)
(-0.00023498206 6.6655321e-05 7.3152629e-22)
(-0.0002651809 6.6140279e-05 -4.0307434e-21)
(-0.00029500242 6.5559119e-05 -1.2663344e-21)
(-0.00032440145 6.4915253e-05 -2.0034866e-21)
(-0.00035333527 6.4211499e-05 3.4870158e-22)
(-0.00038176267 6.3450432e-05 -1.8066426e-21)
(-0.00040964452 6.26345e-05 2.2768045e-20)
(-0.00043694398 6.1766126e-05 6.4092637e-21)
(-0.00046362638 6.0847774e-05 7.1253638e-22)
(-0.00048965912 5.9881964e-05 1.8756333e-20)
(-0.00051501171 5.887129e-05 3.778921e-22)
(-0.00053965578 5.7818393e-05 -1.7321869e-20)
(-0.00056356513 5.6725986e-05 -1.2158378e-20)
(-0.00058671569 5.5596813e-05 -3.4182144e-21)
(-0.00060908561 5.4433654e-05 -4.4372245e-21)
(-0.00063065521 5.3239308e-05 1.4289333e-21)
(-0.00065140704 5.2016573e-05 1.7282565e-20)
(-0.00067132583 5.076825e-05 3.5247821e-20)
(-0.0006903985 4.9497095e-05 -7.8850931e-21)
(-0.00070861416 4.8205839e-05 -4.3204397e-20)
(-0.00072596405 4.6897136e-05 -1.9107688e-20)
(-0.00074244153 4.5573548e-05 -1.6131662e-20)
(-0.00075804207 4.4237523e-05 3.7184068e-20)
(-0.00077276318 4.289134e-05 6.5616687e-20)
(-0.00078660441 4.1537095e-05 -1.7384946e-20)
(-0.00079956731 4.0176664e-05 -3.7000989e-20)
(-0.00081165513 3.8811806e-05 -2.9375871e-20)
(-0.00082287124 3.7444682e-05 6.2888854e-21)
(-0.00083321892 3.6080203e-05 2.9496348e-20)
(-0.00084270641 3.4726183e-05 -4.6941478e-20)
(-0.00085134644 3.338712e-05 -8.4477189e-20)
(-0.00085915149 3.2064523e-05 9.030122e-20)
(-0.00086613397 3.0758967e-05 1.2066215e-19)
(-0.00087230717 2.9471028e-05 -1.4709715e-19)
(-0.00087768554 2.8201475e-05 -6.0521644e-20)
(-0.00088228469 2.6951214e-05 1.4539921e-19)
(-0.00088612126 2.5721219e-05 1.4804555e-19)
(-0.00088921279 2.4512473e-05 9.8256111e-21)
(-0.00089157763 2.3325878e-05 -2.7783757e-19)
(-0.00089323481 2.2162277e-05 -1.7195319e-19)
(-0.00089420401 2.1022387e-05 1.798635e-19)
(-0.00089450555 1.9906821e-05 1.5868947e-19)
(-0.00089416029 1.8816137e-05 -9.0281225e-20)
(-0.00089318949 1.7750914e-05 -1.5477722e-19)
(-0.00089161462 1.6711669e-05 1.176933e-19)
(-0.00088945734 1.5698857e-05 1.9031713e-19)
(-0.00088673944 1.4712866e-05 -1.6119889e-20)
(-0.00088348282 1.375398e-05 -1.1580833e-19)
(-0.00087970938 1.2822431e-05 -1.4189559e-19)
(-0.00087544098 1.1918369e-05 -1.4511203e-20)
(-0.00087069941 1.1041862e-05 1.8979593e-19)
(-0.00086550628 1.0192927e-05 6.783469e-20)
(-0.00085988304 9.3715063e-06 -2.0136792e-19)
(-0.00085385086 8.5774854e-06 -6.6656812e-20)
(-0.00084743066 7.8106896e-06 1.9654043e-19)
(-0.00084064303 7.0708909e-06 6.2069907e-20)
(-0.0008335082 6.3578251e-06 -1.9214002e-19)
(-0.000826046 5.671178e-06 -8.3547509e-20)
(-0.00081827586 5.0105858e-06 1.1234036e-19)
(-0.00081021674 4.3756689e-06 8.1026872e-20)
(-0.00080188713 3.7660167e-06 3.1239574e-20)
(-0.00079330505 3.1812048e-06 -4.2063487e-20)
(-0.00078448803 2.6208271e-06 -1.3499507e-19)
(-0.00077545315 2.0845109e-06 2.5668994e-20)
(-0.0007662172 1.5719238e-06 8.6747534e-20)
(-0.00075679747 1.0827936e-06 -3.3285904e-20)
(-0.00074721587 6.1693364e-07 1.4821842e-20)
(-0.00073750101 1.7153732e-07 8.2641223e-20)
(-0.00072765182 -2.6557829e-07 1.9408061e-20)
(-0.00071765711 -6.8584954e-07 -1.1906129e-19)
(-0.0007075365 -1.0852321e-06 -7.3056872e-20)
(-0.00069731303 -1.464108e-06 5.4766954e-20)
(-0.0006870018 -1.8233108e-06 3.2707412e-20)
(-0.00067661516 -2.1637266e-06 -1.0769154e-20)
(-0.00066616444 -2.4861793e-06 1.4262562e-20)
(-0.00065566031 -2.7914048e-06 4.2817956e-20)
(-0.00064511287 -3.0800867e-06 -4.9632348e-20)
(-0.00063453176 -3.3528839e-06 -4.6674026e-21)
(-0.00062392614 -3.6104148e-06 6.0898638e-20)
(-0.00061330471 -3.8532876e-06 -7.5251039e-20)
(-0.00060267571 -4.0820997e-06 1.1312666e-21)
(-0.00059204696 -4.2974214e-06 4.2014097e-20)
(-0.00058142581 -4.4998159e-06 -1.1253044e-20)
(-0.00057081923 -4.6898321e-06 -1.7625804e-20)
(-0.00056023374 -4.8680069e-06 -5.4872764e-20)
(-0.00054967548 -5.034863e-06 4.1577514e-20)
(-0.0005391502 -5.1909017e-06 3.9233516e-20)
(-0.00052866327 -5.3366253e-06 -2.057976e-20)
(-0.0005182197 -5.4725107e-06 -9.9829019e-21)
(-0.00050782416 -5.599023e-06 -1.1987785e-20)
(-0.00049748095 -5.7166077e-06 2.9140872e-20)
(-0.00048719409 -5.8257167e-06 9.210987e-21)
(-0.00047696726 -5.9267601e-06 -4.4074147e-20)
(-0.00046680384 -6.0201572e-06 -1.2357436e-20)
(-0.00045670695 -6.1062923e-06 2.9851714e-20)
(-0.00044667941 -6.1855526e-06 3.0234212e-20)
(-0.00043672378 -6.2583119e-06 7.7019619e-21)
(-0.00042684237 -6.3249222e-06 -3.3942538e-20)
(-0.00041703726 -6.3857194e-06 -3.479916e-20)
(-0.0004073103 -6.4410386e-06 1.6119791e-20)
(-0.00039766311 -6.4911926e-06 5.1249964e-20)
(-0.00038809712 -6.5364899e-06 4.1732078e-21)
(-0.00037861354 -6.5772246e-06 -5.0651363e-20)
(-0.00036921341 -6.6136647e-06 -1.0947284e-20)
(-0.0003598976 -6.6460929e-06 2.5013413e-21)
(-0.00035066679 -6.6747569e-06 3.5809709e-20)
(-0.00034152152 -6.6999047e-06 3.8231892e-20)
(-0.00033246217 -6.7217727e-06 -3.2866987e-20)
(-0.00032348899 -6.7405939e-06 -3.3521875e-20)
(-0.00031460207 -6.7565711e-06 -6.2913796e-21)
(-0.00030580141 -6.7699141e-06 2.8954924e-20)
(-0.00029708686 -6.7808188e-06 1.6730691e-20)
(-0.00028845817 -6.789484e-06 -3.3751956e-20)
(-0.000279915 -6.7960779e-06 -1.0823989e-20)
(-0.0002714569 -6.8007657e-06 2.4790286e-20)
(-0.00026308332 -6.8037195e-06 2.1523103e-20)
(-0.00025479364 -6.8050908e-06 -6.6161522e-21)
(-0.00024658716 -6.8050177e-06 -3.3086418e-20)
(-0.00023846309 -6.8036512e-06 -5.7606247e-21)
(-0.00023042059 -6.8011143e-06 1.8380624e-20)
(-0.00022245876 -6.7975325e-06 1.3892172e-20)
(-0.00021457662 -6.7930253e-06 -2.4307655e-21)
(-0.00020677315 -6.7877122e-06 -2.1948447e-20)
(-0.00019904728 -6.7816929e-06 -5.9453449e-21)
(-0.00019139789 -6.7750645e-06 2.2595191e-20)
(-0.00018382383 -6.7679302e-06 1.5723584e-20)
(-0.00017632391 -6.7603688e-06 -1.1545827e-20)
(-0.0001688969 -6.7524727e-06 -3.0238986e-20)
(-0.00016154154 -6.7443202e-06 -5.2445493e-22)
(-0.00015425655 -6.7359801e-06 2.6356324e-20)
(-0.00014704063 -6.7275209e-06 9.7471294e-21)
(-0.00013989244 -6.7190202e-06 -6.2796714e-21)
(-0.00013281065 -6.7105286e-06 -9.5119974e-21)
(-0.0001257939 -6.7021027e-06 -1.627746e-22)
(-0.00011884082 -6.6937987e-06 4.3292965e-21)
(-0.00011195002 -6.685666e-06 3.3844779e-21)
(-0.00010512013 -6.6777421e-06 -3.0989379e-21)
(-9.8349761e-05 -6.6700784e-06 -6.1644602e-21)
(-9.1637512e-05 -6.6627057e-06 3.6213925e-23)
(-8.4981995e-05 -6.6556571e-06 3.6700121e-21)
(-7.8381821e-05 -6.6489664e-06 5.5570085e-21)
(-7.1835614e-05 -6.6426453e-06 -1.1168872e-21)
(-6.5342002e-05 -6.6367077e-06 -7.4227153e-21)
(-5.8899623e-05 -6.631158e-06 -6.9307567e-22)
(-5.2507137e-05 -6.6259428e-06 3.7545446e-21)
(-4.6163212e-05 -6.6209721e-06 3.1589685e-21)
(-3.9866519e-05 -6.6159856e-06 -1.4721601e-21)
(-3.3615656e-05 -6.6104017e-06 -3.3921927e-21)
(-2.7408879e-05 -6.6029497e-06 1.1200152e-22)
(-2.1243207e-05 -6.5914642e-06 1.1947786e-21)
(-1.5112879e-05 -6.5740437e-06 2.067502e-22)
(-9.0112102e-06 -6.5566019e-06 -6.8632539e-22)
(-2.969466e-06 -6.5950603e-06 -9.6219321e-22)
(-2.4247272e-05 0.00013680364 -3.0476256e-20)
(-5.3860002e-05 0.00013737747 -9.7994803e-21)
(-8.7967993e-05 0.00013734896 4.5047828e-22)
(-0.00012117292 0.00013717751 8.0398276e-21)
(-0.00015505083 0.00013677403 -1.1568677e-21)
(-0.00018869798 0.00013617316 -1.4082059e-20)
(-0.0002220916 0.00013541124 1.155926e-20)
(-0.00025518489 0.00013450251 -3.6116505e-21)
(-0.00028792363 0.00013345624 5.4708846e-21)
(-0.00032025435 0.00013227928 3.0977051e-20)
(-0.00035212744 0.00013097723 4.71667e-21)
(-0.00038349592 0.00012955514 1.0279112e-20)
(-0.00041431453 0.00012801787 -1.61641e-20)
(-0.00044454042 0.00012637028 1.2272541e-20)
(-0.00047413323 0.00012461727 2.8679302e-20)
(-0.00050305501 0.00012276385 -9.5782239e-22)
(-0.00053127016 0.0001208152 1.4577833e-20)
(-0.00055874541 0.00011877662 -5.9417487e-21)
(-0.00058544982 0.00011665356 -1.7203976e-20)
(-0.00061135486 0.00011445158 1.2601956e-20)
(-0.00063643437 0.00011217634 5.2641774e-21)
(-0.0006606646 0.00010983358 -5.8922269e-22)
(-0.00068402421 0.00010742908 7.8325534e-21)
(-0.00070649428 0.00010496866 2.3159154e-20)
(-0.00072805831 0.00010245815 2.0157869e-20)
(-0.00074870219 9.9903358e-05 -7.7546391e-22)
(-0.00076841418 9.7310063e-05 -1.4816662e-20)
(-0.00078718491 9.4683976e-05 -2.9849837e-20)
(-0.00080500727 9.2030746e-05 -2.8849377e-20)
(-0.00082187647 8.9355926e-05 4.2907802e-22)
(-0.00083778988 8.6664986e-05 1.2351832e-20)
(-0.00085274704 8.3963323e-05 1.5048511e-20)
(-0.00086674949 8.1256297e-05 -1.0420799e-20)
(-0.00087980058 7.8549288e-05 -4.4053309e-20)
(-0.00089190508 7.5847605e-05 3.6501627e-22)
(-0.00090306939 7.3155155e-05 2.2556174e-20)
(-0.00091330272 7.0474083e-05 3.7377205e-22)
(-0.00092261669 6.7808091e-05 -1.4899679e-20)
(-0.00093102398 6.516171e-05 -3.120976e-23)
(-0.00093853817 6.253929e-05 7.8227056e-23)
(-0.00094517403 5.9944785e-05 -2.8415382e-20)
(-0.00095094756 5.7381785e-05 1.2263339e-20)
(-0.00095587601 5.4853559e-05 4.0849031e-20)
(-0.00095997769 5.2363068e-05 4.3076635e-20)
(-0.00096327193 4.9913012e-05 1.7632343e-20)
(-0.00096577894 4.7505783e-05 -8.1186562e-20)
(-0.00096751971 4.5143508e-05 -4.5614016e-20)
(-0.0009685159 4.2828032e-05 2.7887655e-20)
(-0.00096878965 4.056093e-05 3.302352e-20)
(-0.00096836349 3.8343599e-05 2.3260322e-20)
(-0.00096726038 3.6177382e-05 -5.6944973e-20)
(-0.00096550362 3.4063434e-05 2.4322776e-21)
(-0.00096311679 3.2002743e-05 5.9465798e-20)
(-0.00096012363 2.9996136e-05 -4.9772621e-22)
(-0.00095654796 2.804425e-05 -5.3467763e-21)
(-0.00095241362 2.6147561e-05 -2.3088237e-20)
(-0.0009477444 2.4306376e-05 -1.8935295e-20)
(-0.00094256398 2.2520864e-05 4.2612097e-20)
(-0.00093689588 2.0791024e-05 1.007301e-20)
(-0.0009307634 1.9116733e-05 -5.5849698e-20)
(-0.00092418957 1.7497735e-05 -1.5944396e-20)
(-0.00091719712 1.5933644e-05 4.2648957e-20)
(-0.00090980841 1.4423957e-05 2.0143843e-20)
(-0.00090204544 1.2968072e-05 -2.5358417e-20)
(-0.00089392977 1.1565271e-05 -9.3148678e-22)
(-0.00088548252 1.0214743e-05 8.9916736e-21)
(-0.00087672435 8.9155805e-06 -5.8403024e-21)
(-0.00086767541 7.6667869e-06 1.9240064e-20)
(-0.00085835535 6.467285e-06 -5.5614052e-21)
(-0.00084878328 5.3159335e-06 -3.3763572e-20)
(-0.00083897772 4.2115781e-06 7.2802111e-21)
(-0.00082895646 3.1531472e-06 1.5237426e-20)
(-0.00081873631 2.1396877e-06 -8.9168049e-21)
(-0.00080833313 1.170316e-06 1.0436072e-20)
(-0.00079776396 2.4900024e-07 1.5851468e-20)
(-0.00078704355 -6.0922771e-07 1.5118726e-21)
(-0.00077618781 -1.4159468e-06 -1.7607867e-20)
(-0.00076521372 -2.1826382e-06 -2.7234085e-20)
(-0.00075413399 -2.9121961e-06 -7.9740172e-21)
(-0.00074296103 -3.6061758e-06 2.025311e-20)
(-0.00073170727 -4.2658019e-06 2.0457947e-20)
(-0.00072038479 -4.8921109e-06 -2.1267568e-20)
(-0.00070900519 -5.4860808e-06 -7.5415618e-21)
(-0.00069757952 -6.048719e-06 -1.4824342e-20)
(-0.00068611828 -6.5810552e-06 -1.0025423e-20)
(-0.00067463146 -7.0841302e-06 2.0598232e-20)
(-0.0006631285 -7.5590029e-06 -1.6922189e-20)
(-0.00065161834 -8.0067342e-06 3.827572e-21)
(-0.00064010942 -8.4283655e-06 1.7682497e-20)
(-0.00062860972 -8.8249377e-06 -2.6749631e-21)
(-0.00061712673 -9.197484e-06 7.4880603e-22)
(-0.00060566749 -9.5470038e-06 -1.1758654e-20)
(-0.00059423863 -9.8744895e-06 9.9048575e-21)
(-0.00058284633 -1.0180917e-05 9.0497363e-22)
(-0.00057149637 -1.0467228e-05 -3.2274557e-21)
(-0.00056019415 -1.0734349e-05 1.7054389e-20)
(-0.00054894467 -1.0983176e-05 -8.6411268e-21)
(-0.00053775258 -1.1214577e-05 -4.6998934e-21)
(-0.00052662217 -1.1429408e-05 -1.0615528e-20)
(-0.00051555741 -1.1628484e-05 -6.6224866e-21)
(-0.00050456193 -1.1812606e-05 1.5297119e-20)
(-0.00049363906 -1.1982544e-05 1.6784269e-21)
(-0.00048279182 -1.2139035e-05 6.7469885e-21)
(-0.00047202295 -1.2282804e-05 -9.1020373e-21)
(-0.00046133493 -1.241455e-05 -5.1143316e-21)
(-0.00045072998 -1.2534924e-05 1.4772864e-20)
(-0.00044021006 -1.2644579e-05 -1.5823304e-21)
(-0.00042977691 -1.2744131e-05 4.5619678e-21)
(-0.00041943204 -1.2834177e-05 -7.4352092e-21)
(-0.00040917676 -1.2915287e-05 -1.7514201e-20)
(-0.00039901216 -1.2988007e-05 8.4407234e-21)
(-0.00038893913 -1.3052871e-05 4.4080921e-21)
(-0.00037895842 -1.3110373e-05 3.954589e-21)
(-0.00036907059 -1.3160999e-05 6.2002585e-21)
(-0.00035927601 -1.320521e-05 -7.8180073e-21)
(-0.00034957493 -1.3243452e-05 -3.8526865e-21)
(-0.00033996745 -1.3276139e-05 -3.5706649e-21)
(-0.00033045353 -1.3303678e-05 7.5549044e-21)
(-0.00032103301 -1.3326457e-05 2.3096329e-21)
(-0.00031170559 -1.334485e-05 -7.892329e-21)
(-0.0003024709 -1.3359194e-05 3.7703031e-21)
(-0.00029332841 -1.3369826e-05 3.2719929e-21)
(-0.00028427754 -1.3377067e-05 1.4079354e-21)
(-0.00027531759 -1.3381217e-05 -5.0722952e-21)
(-0.00026644779 -1.3382553e-05 -5.812353e-21)
(-0.00025766729 -1.3381368e-05 7.9713658e-21)
(-0.00024897515 -1.3377905e-05 4.4609068e-21)
(-0.00024037039 -1.3372409e-05 8.4517106e-23)
(-0.00023185194 -1.3365119e-05 -4.7667653e-21)
(-0.00022341868 -1.3356259e-05 -3.6941925e-21)
(-0.00021506947 -1.3346031e-05 5.4442219e-21)
(-0.00020680306 -1.3334633e-05 3.5223305e-21)
(-0.00019861821 -1.3322251e-05 5.1884183e-22)
(-0.00019051362 -1.3309055e-05 -3.9701137e-21)
(-0.00018248795 -1.329522e-05 -3.9900258e-21)
(-0.00017453984 -1.3280894e-05 1.1902417e-21)
(-0.00016666789 -1.3266224e-05 3.4970337e-21)
(-0.00015887069 -1.3251348e-05 2.0761658e-21)
(-0.00015114679 -1.3236396e-05 -3.4032599e-21)
(-0.00014349474 -1.3221481e-05 -2.3015596e-21)
(-0.00013591305 -1.3206723e-05 2.3747666e-21)
(-0.00012840025 -1.3192222e-05 -1.3117653e-21)
(-0.00012095484 -1.3178075e-05 7.8354595e-22)
(-0.00011357531 -1.3164364e-05 -1.3559908e-21)
(-0.00010626016 -1.3151178e-05 -1.2060841e-21)
(-9.9007873e-05 -1.3138589e-05 3.8949191e-21)
(-9.1816944e-05 -1.3126663e-05 -4.1662639e-22)
(-8.4685864e-05 -1.3115459e-05 -4.9221035e-22)
(-7.7613131e-05 -1.3105015e-05 -1.1966918e-21)
(-7.0597245e-05 -1.3095381e-05 -7.844395e-22)
(-6.363672e-05 -1.3086573e-05 3.5106468e-21)
(-5.6730071e-05 -1.3078582e-05 9.221186e-22)
(-4.9875801e-05 -1.3071379e-05 8.0448725e-23)
(-4.3072374e-05 -1.3064869e-05 -3.0910225e-21)
(-3.6318139e-05 -1.3058894e-05 -1.1009e-21)
(-2.9611163e-05 -1.3053275e-05 3.4980702e-21)
(-2.2948766e-05 -1.3048198e-05 5.6728746e-22)
(-1.6326061e-05 -1.3045927e-05 -6.2597651e-22)
(-9.7366372e-06 -1.3055212e-05 -4.1467719e-22)
(-3.2170723e-06 -1.3094315e-05 1.2579971e-21)
(-2.4509938e-05 0.00020668997 -1.1614682e-19)
(-5.4776009e-05 0.00020684329 -3.9853647e-20)
(-8.9601998e-05 0.00020660664 1.3563161e-20)
(-0.00012343224 0.00020616504 -2.4702366e-20)
(-0.00015795915 0.00020546129 1.3632899e-20)
(-0.00019223712 0.0002045123 -1.0283809e-20)
(-0.00022624915 0.000203339 -4.1886076e-21)
(-0.00025995043 0.00020195328 -1.1072694e-21)
(-0.00029328707 0.00020036459 7.6062663e-21)
(-0.00032620533 0.00019858095 1.8091542e-20)
(-0.00035865494 0.00019660968 9.7684796e-21)
(-0.0003905881 0.00019445784 1.7526835e-20)
(-0.00042195873 0.00019213251 -1.6788824e-20)
(-0.00045272306 0.00018964089 9.276059e-22)
(-0.00048283993 0.00018699034 1.4931013e-20)
(-0.00051227057 0.00018418847 -1.3657588e-20)
(-0.00054097864 0.00018124311 1.8428014e-20)
(-0.00056893017 0.00017816232 5.7913299e-21)
(-0.00059609361 0.00017495435 -1.1142273e-20)
(-0.00062243988 0.00017162766 8.0235898e-21)
(-0.00064794231 0.0001681908 1.0764972e-21)
(-0.00067257673 0.00016465246 3.1998755e-21)
(-0.00069632146 0.00016102141 2.103689e-20)
(-0.0007191573 0.00015730647 9.1933742e-21)
(-0.0007410675 0.00015351645 -1.4096611e-20)
(-0.0007620378 0.00014966012 -1.8126362e-20)
(-0.00078205636 0.00014574624 -1.5260105e-20)
(-0.00080111375 0.00014178345 2.435468e-21)
(-0.0008192029 0.00013778025 1.8316278e-21)
(-0.00083631904 0.00013374505 -6.5800015e-21)
(-0.00085245964 0.00012968608 -8.2856897e-21)
(-0.00086762435 0.00012561138 1.0561423e-21)
(-0.00088181486 0.00012152882 1.5800041e-20)
(-0.00089503483 0.00011744606 -1.2277242e-20)
(-0.00090728971 0.00011337038 -2.8664989e-20)
(-0.00091858685 0.00010930842 1.0903387e-20)
(-0.0009289357 0.00010526616 3.0765898e-20)
(-0.00093834769 0.00010124978 5.161044e-21)
(-0.00094683567 9.7265507e-05 -6.5986974e-22)
(-0.00095441375 9.3319293e-05 -1.8026385e-21)
(-0.00096109728 8.9416625e-05 -1.2298623e-21)
(-0.00096690289 8.5562561e-05 6.3045827e-21)
(-0.00097184835 8.1761765e-05 5.1961378e-21)
(-0.00097595252 7.8018528e-05 -1.6745464e-20)
(-0.00097923525 7.4336803e-05 7.8051527e-21)
(-0.00098171727 7.0720202e-05 -1.3065427e-21)
(-0.00098342008 6.7172042e-05 -1.3489486e-20)
(-0.00098436586 6.3695336e-05 3.9456533e-21)
(-0.00098457735 6.0292802e-05 -2.0814128e-20)
(-0.00098407774 5.6966798e-05 6.7993016e-21)
(-0.00098289059 5.3719352e-05 1.6852512e-20)
(-0.00098103982 5.0552148e-05 -6.209445e-21)
(-0.00097854955 4.7466586e-05 8.6700847e-21)
(-0.00097544406 4.4463813e-05 -2.8252699e-21)
(-0.00097174772 4.1544689e-05 -8.3260995e-22)
(-0.00096748488 3.8709847e-05 5.239663e-21)
(-0.00096267986 3.595966e-05 -6.3577783e-21)
(-0.00095735684 3.3294313e-05 4.6089946e-21)
(-0.00095153982 3.071373e-05 1.0162002e-21)
(-0.00094525258 2.8217679e-05 -1.6768683e-20)
(-0.00093851861 2.5805724e-05 -3.5118021e-22)
(-0.00093136107 2.347726e-05 1.2577624e-20)
(-0.00092380277 2.1231516e-05 2.8079022e-21)
(-0.00091586608 1.9067589e-05 -3.4494801e-21)
(-0.00090757298 1.6984427e-05 2.3167188e-21)
(-0.00089894492 1.4980874e-05 -3.6089138e-21)
(-0.00089000289 1.3055664e-05 -1.1648866e-20)
(-0.00088076735 1.1207434e-05 6.0258084e-21)
(-0.00087125821 9.4347486e-06 3.2651002e-21)
(-0.00086149479 7.7360999e-06 6.2628672e-21)
(-0.00085149583 6.1099136e-06 -1.2149585e-21)
(-0.00084127952 4.5545307e-06 -1.7160137e-21)
(-0.00083086348 3.0680927e-06 -4.5932861e-21)
(-0.00082026432 1.6481573e-06 -1.0607895e-20)
(-0.0008094969 2.9344715e-07 4.9841556e-21)
(-0.00079857915 -9.9221712e-07 -3.5749258e-21)
(-0.00078752916 -2.2167057e-06 -8.8837054e-22)
(-0.00077636001 -3.3828167e-06 -8.4817702e-21)
(-0.00076508439 -4.4916054e-06 -1.4703194e-20)
(-0.00075371567 -5.5447043e-06 6.9258148e-21)
(-0.00074226673 -6.5439276e-06 4.0782709e-21)
(-0.00073074987 -7.4911216e-06 -9.997171e-21)
(-0.0007191768 -8.3881334e-06 1.9969415e-21)
(-0.00070755866 -9.2367846e-06 -1.9005674e-21)
(-0.00069590605 -1.0038873e-05 9.6661673e-22)
(-0.00068422904 -1.0796161e-05 6.7752225e-21)
(-0.00067253716 -1.1510388e-05 -8.7879482e-21)
(-0.00066083944 -1.2183265e-05 -5.5417581e-22)
(-0.00064914439 -1.2816455e-05 -4.652797e-21)
(-0.00063746007 -1.3411602e-05 -2.4868981e-21)
(-0.00062579404 -1.3970309e-05 2.9617969e-21)
(-0.0006141534 -1.4494141e-05 -1.8810616e-21)
(-0.00060254483 -1.4984629e-05 1.0751938e-20)
(-0.00059097457 -1.5443271e-05 -3.081716e-21)
(-0.00057944843 -1.5871515e-05 -1.87591e-22)
(-0.00056797185 -1.6270778e-05 8.1257186e-21)
(-0.00055654987 -1.664243e-05 -8.1437305e-21)
(-0.00054518716 -1.6987794e-05 -1.6398889e-23)
(-0.00053388804 -1.730817e-05 -2.1951925e-21)
(-0.00052265648 -1.760481e-05 -3.0384141e-22)
(-0.00051149614 -1.7878911e-05 6.8179195e-21)
(-0.00050041034 -1.8131655e-05 -3.8622424e-21)
(-0.00048940212 -1.8364161e-05 3.3047128e-21)
(-0.00047847424 -1.8577522e-05 -4.4916422e-21)
(-0.00046762915 -1.8772788e-05 1.4215604e-21)
(-0.00045686908 -1.8950956e-05 7.6526981e-21)
(-0.00044619599 -1.9113012e-05 -5.898666e-21)
(-0.0004356116 -1.9259885e-05 1.4270688e-22)
(-0.00042511742 -1.9392474e-05 -6.0981714e-21)
(-0.00041471473 -1.951164e-05 -7.0829088e-21)
(-0.00040440461 -1.9618209e-05 1.0246862e-21)
(-0.00039418795 -1.9712984e-05 3.5102479e-21)
(-0.00038406546 -1.9796711e-05 5.6390707e-21)
(-0.00037403769 -1.9870123e-05 -2.6530526e-21)
(-0.00036410499 -1.9933918e-05 -5.5196311e-21)
(-0.00035426759 -1.9988764e-05 1.7832162e-21)
(-0.00034452556 -2.0035291e-05 -1.4694347e-21)
(-0.00033487884 -2.0074106e-05 3.6204228e-21)
(-0.00032532723 -2.0105796e-05 1.3020066e-21)
(-0.00031587043 -2.0130905e-05 3.9139497e-22)
(-0.00030650802 -2.0149969e-05 1.6560241e-21)
(-0.00029723946 -2.016348e-05 -3.7491947e-21)
(-0.00028806412 -2.0171919e-05 -5.2372562e-22)
(-0.0002789813 -2.0175738e-05 1.1467579e-21)
(-0.00026999018 -2.0175366e-05 4.042871e-21)
(-0.00026108987 -2.0171223e-05 4.7265497e-21)
(-0.00025227944 -2.016369e-05 -4.4797902e-23)
(-0.00024355784 -2.0153135e-05 8.5396169e-22)
(-0.00023492398 -2.0139907e-05 -5.2527833e-21)
(-0.00022637673 -2.0124339e-05 -3.1858198e-22)
(-0.00021791489 -2.0106748e-05 4.8214095e-21)
(-0.00020953721 -2.0087424e-05 1.3509493e-21)
(-0.00020124239 -2.0066643e-05 2.9238836e-21)
(-0.00019302912 -2.0044673e-05 -2.7299707e-21)
(-0.00018489603 -2.0021759e-05 -3.9102423e-21)
(-0.00017684171 -1.9998133e-05 -3.020118e-21)
(-0.00016886475 -1.9974014e-05 1.5566865e-21)
(-0.00016096369 -1.9949608e-05 4.4586539e-22)
(-0.00015313707 -1.9925111e-05 -2.1128509e-21)
(-0.0001453834 -1.9900692e-05 2.1116164e-22)
(-0.00013770117 -1.9876525e-05 1.7522656e-21)
(-0.00013008886 -1.9852768e-05 -3.1441652e-22)
(-0.00012254496 -1.9829559e-05 2.4406091e-21)
(-0.00011506793 -1.9807031e-05 9.3175343e-23)
(-0.00010765623 -1.9785309e-05 -1.7206587e-21)
(-0.00010030831 -1.9764503e-05 1.0960047e-21)
(-9.3022652e-05 -1.9744718e-05 -2.3854309e-21)
(-8.5797702e-05 -1.9726038e-05 8.6883464e-22)
(-7.8631932e-05 -1.9708532e-05 2.6588753e-21)
(-7.152381e-05 -1.9692281e-05 1.8708086e-21)
(-6.4471808e-05 -1.9677317e-05 1.5036649e-21)
(-5.7474402e-05 -1.9663682e-05 2.2473931e-22)
(-5.053005e-05 -1.9651383e-05 1.2221993e-21)
(-4.3637179e-05 -1.9640415e-05 -3.4151028e-21)
(-3.6794149e-05 -1.9630762e-05 -6.782369e-22)
(-2.9999249e-05 -1.9622483e-05 2.4273331e-21)