/*--------------------------------*- C++ -*----------------------------------*\
| =========                 |                                                 |
| \\      /  F ield         | OpenFOAM: The Open Source CFD Toolbox           |
|  \\    /   O peration     | Version:  2106                                  |
|   \\  /    A nd           | Website:  www.openfoam.com                      |
|    \\/     M anipulation  |                                                 |
\*---------------------------------------------------------------------------*/
FoamFile
{
    version     2.0;
    format      ascii;
    arch        "LSB;label=32;scalar=64";
    class       volScalarField;
    location    "0.005";
    object      p_rgh;
}
// * * * * * * * * * * * * * * * * * * * * * * * * * * * * * * * * * * * * * //

dimensions      [1 -1 -2 0 0 0 0];

internalField   nonuniform List<scalar> 
1024
(
34.750442
33.414118
30.793014
26.988175
22.146193
16.453528
10.12808
3.4137512
-3.4312
-10.145688
-16.471225
-22.164859
-27.007683
-30.813262
-33.43493
-34.771559
-34.771559
-33.43493
-30.813262
-27.007683
-22.164859
-16.471225
-10.145689
-3.4312004
3.4137507
10.12808
16.453527
22.146193
26.988175
30.793013
33.414117
34.750442
36.117839
34.729041
32.005009
28.050735
23.018491
17.101868
10.527837
3.5492661
-3.5664362
-10.546665
-17.123278
-23.043598
-28.079791
-32.037708
-34.764529
-36.154836
-36.154836
-34.764529
-32.037708
-28.079791
-23.043598
-17.123278
-10.546666
-3.5664367
3.5492656
10.527837
17.101868
23.018491
28.050735
32.005009
34.729041
36.117839
38.813471
37.321248
34.394339
30.145511
24.738275
18.380432
11.31584
3.8155036
-3.8333602
-11.337796
-18.409794
-24.777447
-30.195294
-34.453926
-37.388341
-38.884625
-38.884625
-37.388341
-34.453926
-30.195294
-24.777447
-18.409794
-11.337796
-3.8333606
3.8155032
11.31584
18.380431
24.738274
30.145511
34.394339
37.321248
38.813471
42.962459
41.311
38.071752
33.369484
27.385037
20.348144
12.528395
4.2250505
-4.2444676
-12.556187
-20.391355
-27.448451
-33.454773
-38.177263
-41.431994
-43.091832
-43.091832
-41.431994
-38.177264
-33.454773
-27.448451
-20.391355
-12.556187
-4.244468
4.2250501
12.528395
20.348143
27.385036
33.369483
38.071752
41.311
42.962459
48.720746
46.848167
43.175241
37.843465
31.057824
23.078537
14.21082
4.7931579
-4.8154033
-14.248138
-23.143689
-31.159368
-37.984429
-43.352657
-47.053499
-48.941185
-48.941185
-47.0535
-43.352657
-37.984429
-31.159368
-23.143689
-14.248139
-4.8154037
4.7931575
14.210819
23.078537
31.057824
37.843465
43.175241
46.848167
48.720746
56.300755
54.136846
49.892621
43.731767
35.891228
26.671468
16.424576
5.5405015
-5.5673974
-16.476633
-26.770014
-36.050533
-43.956909
-50.178672
-54.469553
-56.658708
-56.658708
-54.469554
-50.178672
-43.956909
-36.050533
-26.770015
-16.476633
-5.5673977
5.5405012
16.424576
26.671467
35.891228
43.731767
49.892621
54.136846
56.300755
65.982965
63.446425
58.471625
51.250903
42.062397
31.258208
19.250389
6.4943021
-6.5282092
-19.324409
-31.406372
-42.307443
-51.600979
-58.918933
-63.968241
-66.545082
-66.545082
-63.968241
-58.918933
-51.60098
-42.307443
-31.406372
-19.324409
-6.5282095
6.4943018
19.250389
31.258208
42.062397
51.250903
58.471625
63.446425
65.982965
78.125438
75.120661
69.228101
60.676581
49.796606
37.005473
22.790759
7.6894647
-7.7323558
-22.895773
-37.225477
-50.166783
-61.209653
-69.91212
-75.920405
-78.987738
-78.987738
-75.920405
-69.91212
-61.209653
-50.166783
-37.225477
-22.895773
-7.7323562
7.6894644
22.790759
37.005473
49.796605
60.676581
69.228101
75.120661
78.125438
93.177161
89.590402
82.557563
72.353592
59.375236
44.121292
27.173803
9.1709377
-9.2203782
-27.317968
-44.440928
-59.923768
-73.150622
-83.585208
-90.794969
-94.477258
-94.477258
-90.794969
-83.585208
-73.150622
-59.923768
-44.440929
-27.317968
-9.2203786
9.1709374
27.173803
44.121291
59.375236
72.353591
82.557563
89.590402
93.17716
111.69611
107.39091
98.951064
86.709575
71.147113
52.863558
32.559337
10.998104
-11.037099
-32.743578
-53.310963
-71.939728
-87.878092
-100.46943
-109.17798
-113.62798
-113.62798
-109.17798
-100.46944
-87.878092
-71.939728
-53.310964
-32.743578
-11.0371
10.998104
32.559337
52.863558
71.147113
86.709575
98.951064
107.39091
111.69611
134.37344
129.1852
119.01696
104.27412
85.544756
63.553935
39.153664
13.255592
-13.218246
-39.330605
-64.130365
-86.644657
-105.94314
-121.21756
-131.79456
-137.20176
-137.20176
-131.79456
-121.21756
-105.94314
-86.644657
-64.130365
-39.330606
-13.218246
13.255591
39.153663
63.553935
85.544756
104.27412
119.01696
129.1852
134.37344
162.0653
155.79485
143.51015
125.70517
103.11108
76.606087
47.220278
16.069909
-15.765638
-47.234684
-77.227951
-104.53646
-128.00106
-146.62171
-159.53385
-166.1359
-166.1359
-159.53385
-146.62171
-128.00106
-104.53646
-77.227951
-47.234685
-15.765638
16.069908
47.220277
76.606086
103.11108
125.70517
143.51015
155.79485
162.0653
195.84638
188.25163
173.38295
151.83647
124.54167
92.537982
57.089043
19.622808
-18.617177
-56.561365
-92.940126
-126.18353
-154.82737
-177.64486
-193.49524
-201.62572
-201.62572
-193.49524
-177.64486
-154.82737
-126.18353
-92.940126
-56.561366
-18.617178
19.622807
57.089042
92.537982
124.54167
151.83647
173.38295
188.25163
195.84638
237.12493
227.91339
209.90013
183.76974
150.7588
112.06597
69.23863
24.226268
-21.59146
-67.367695
-111.68398
-152.31654
-187.39377
-215.47072
-234.98834
-245.06926
-245.06926
-234.98834
-215.47072
-187.39377
-152.31654
-111.68398
-67.367696
-21.591461
24.226267
69.23863
112.06597
150.7588
183.76974
209.90013
227.91339
237.12493
287.45571
276.31954
254.48988
222.77376
182.81769
135.96049
84.057892
29.988996
-25.047151
-80.202091
-134.18917
-183.77756
-226.82001
-261.59224
-285.75447
-298.1884
-298.1884
-285.75447
-261.59224
-226.82001
-183.77756
-134.18917
-80.202091
-25.047151
29.988996
84.057892
135.96049
182.81769
222.77376
254.48987
276.31954
287.45571
345.68168
332.12699
305.63885
267.15833
218.95557
162.76412
100.90788
37.71383
-23.937513
-77.064733
-119.61204
-150.28074
-170.4184
-182.5954
-188.83879
-191.35018
-191.35018
-188.83879
-182.5954
-170.4184
-150.28074
-119.61204
-77.064733
-23.937514
37.713829
100.90788
162.76412
218.95557
267.15833
305.63885
332.12699
345.68168
-190.45276
-187.97825
-181.80851
-169.72684
-149.6982
-119.15484
-76.770176
-23.823607
37.651411
100.6787
162.37027
218.38404
266.42944
304.80332
331.22718
344.74955
344.74955
331.22718
304.80332
266.42944
218.38404
162.37027
100.6787
37.651411
-23.823607
-76.770177
-119.15484
-149.6982
-169.72684
-181.80851
-187.97825
-190.45276
-297.27063
-284.87495
-260.78641
-226.11149
-183.17623
-133.71954
-79.901421
-24.927918
29.921373
83.806776
135.53381
182.218
222.02254
253.63026
275.39001
286.49052
286.49052
275.39001
253.63026
222.02254
182.218
135.53381
83.806775
29.921372
-24.927918
-79.901422
-133.71954
-183.17623
-226.11149
-260.78641
-284.87495
-297.27063
-244.08261
-234.03872
-214.59626
-186.62378
-151.67441
-111.19515
-67.058691
-21.477128
24.140418
68.955317
111.59529
150.11206
182.96978
208.98438
226.91984
236.09128
236.09128
226.91984
208.98438
182.96978
150.11206
111.59529
68.955316
24.140417
-21.477129
-67.058691
-111.19515
-151.67441
-186.62378
-214.59626
-234.03872
-244.08261
-200.52754
-192.43891
-176.67096
-153.97101
-125.47504
-92.407601
-56.228383
-18.498607
19.520138
56.767543
92.008886
123.82261
150.9537
172.37274
187.15454
194.70486
194.70486
187.15454
172.37274
150.9537
123.82261
92.008886
56.767542
19.520138
-18.498607
-56.228383
-92.407601
-125.47504
-153.97101
-176.67096
-192.43891
-200.52754
-164.88511
-158.33066
-145.51218
-127.02677
-103.73385
-76.628514
-46.862957
-15.637508
15.947601
46.850471
76.001486
102.29329
124.70486
142.36669
154.55301
160.77321
160.77321
154.55301
142.36669
124.70486
102.29329
76.001485
46.850471
15.947601
-15.637508
-46.862957
-76.628514
-103.73385
-127.02677
-145.51218
-158.33066
-164.88511
-135.75285
-130.40106
-119.93287
-104.81618
-85.718428
-63.440936
-38.905511
-13.074987
13.110078
38.723281
62.853703
84.600422
103.1213
117.70002
127.75516
132.88564
132.88564
127.75516
117.70002
103.1213
84.600422
62.853703
38.723281
13.110078
-13.074987
-38.905511
-63.440936
-85.718428
-104.81618
-119.93287
-130.40106
-135.75285
-111.92607
-107.54145
-98.961196
-86.556
-70.854604
-52.504918
-32.248114
-10.872079
10.82495
32.053265
52.042784
70.042045
85.361835
97.412131
105.72006
109.95791
109.95791
105.72006
97.412131
85.361835
70.042046
52.042784
32.053265
10.82495
-10.872079
-32.248114
-52.504918
-70.854604
-86.556
-98.961196
-107.54145
-111.92607
-92.381848
-88.780422
-81.729246
-71.524751
-58.590594
-43.451887
-26.711287
-9.020138
8.9561556
26.55112
43.113355
58.019447
70.700779
80.670529
87.541613
91.045767
91.045767
87.541613
80.670529
70.700779
58.019447
43.113355
26.55112
8.9561556
-9.020138
-26.711287
-43.451887
-58.590594
-71.524751
-81.729246
-88.780422
-92.381847
-76.095983
-73.139812
-67.349621
-58.963873
-48.324296
-35.857487
-22.055332
-7.452158
7.3981207
21.938736
35.625547
47.942157
58.419008
66.653913
72.328472
75.222139
75.222139
72.328472
66.653914
58.419008
47.942157
35.625548
21.938736
7.3981208
-7.452158
-22.055332
-35.857487
-48.324296
-58.963873
-67.349621
-73.139812
-76.095983
-66.56606
-63.989895
-58.941625
-51.624533
-42.331071
-31.428723
-19.343858
-6.5438114
6.4826746
19.241986
31.251937
42.057594
51.247903
58.470783
63.447472
65.985098
65.985098
63.447472
58.470783
51.247903
42.057594
31.251937
19.241986
6.4826747
-6.5438113
-19.343858
-31.428723
-42.331071
-51.624533
-58.941625
-63.989895
-66.566059
-45.398848
-43.642631
-40.201123
-35.212718
-28.876398
-21.442175
-13.20039
-4.4686122
4.4202999
13.12945
21.32914
28.707828
34.983506
39.915409
43.313404
45.046002
45.046002
43.313404
39.915409
34.983506
28.707829
21.32914
13.12945
4.4203
-4.4686121
-13.20039
-21.442175
-28.876398
-35.212719
-40.201123
-43.642631
-45.398848
-61.485845
-59.116466
-54.470627
-47.730287
-39.158784
-29.089829
-17.913142
-6.0583831
6.0209843
17.864469
29.020042
39.060024
47.59933
54.30969
58.932564
61.289532
61.289532
58.932564
54.30969
47.599331
39.060024
29.020043
17.864469
6.0209844
-6.058383
-17.913142
-29.089829
-39.158784
-47.730287
-54.470627
-59.116466
-61.485845
-7.641469
-7.3479145
-6.7727054
-5.9389314
-4.8795313
-3.6355488
-2.2542458
-0.78798249
0.70641389
2.1702794
3.5478181
4.7873597
5.8422633
6.6719843
7.2441099
7.5359966
7.5359966
7.24411
6.6719844
5.8422634
4.7873599
3.5478183
2.1702796
0.70641403
-0.7879824
-2.2542458
-3.6355488
-4.8795313
-5.9389314
-6.7727054
-7.3479146
-7.6414694
-82.87689
-79.686999
-73.430923
-64.351149
-52.799304
-39.22224
-24.144318
-8.1470793
8.1554902
24.147476
39.21723
52.781671
64.320011
73.387331
79.633891
82.81864
82.81864
79.633891
73.387332
64.320011
52.781671
39.21723
24.147476
8.1554904
-8.1470791
-24.144318
-39.22224
-52.799304
-64.351149
-73.430923
-79.687
-82.87689
47.568248
45.731956
42.131138
36.90648
30.261993
22.456864
13.795375
4.614879
-4.7319221
-13.899884
-22.538157
-30.31291
-36.924429
-42.118632
-45.696154
-47.519843
-47.519843
-45.696154
-42.118632
-36.924429
-30.31291
-22.538157
-13.899884
-4.731922
4.6148791
13.795375
22.456864
30.261993
36.90648
42.131138
45.731956
47.568248
-133.06053
-127.9395
-117.89565
-103.3176
-84.768899
-62.966191
-38.750317
-13.05718
13.117593
38.800266
62.997032
84.77441
103.29578
117.8486
127.87316
132.98376
132.98376
127.87316
117.8486
103.29578
84.77441
62.997032
38.800266
13.117593
-13.05718
-38.750317
-62.966191
-84.768899
-103.3176
-117.89565
-127.9395
-133.06053
)
;

boundaryField
{
    leftWall
    {
        type            cyclic;
    }
    rightWall
    {
        type            cyclic;
    }
    lowerWall
    {
        type            fixedFluxPressure;
        gradient        uniform 0;
        value           nonuniform List<scalar> 
32
(
34.750442
33.414118
30.793014
26.988175
22.146193
16.453528
10.12808
3.4137512
-3.4312
-10.145688
-16.471225
-22.164859
-27.007683
-30.813262
-33.43493
-34.771559
-34.771559
-33.43493
-30.813262
-27.007683
-22.164859
-16.471225
-10.145689
-3.4312004
3.4137507
10.12808
16.453527
22.146193
26.988175
30.793013
33.414117
34.750442
)
;
    }
    atmosphere
    {
        type            totalPressure;
        rho             rho;
        psi             none;
        gamma           1;
        p0              uniform 0;
        value           nonuniform List<scalar> 
32
(
-0.00015614354
-0.0013697599
-0.0036135503
-0.0065486973
-0.0097326392
-0.012685564
-0.014962806
-0.01621364
0
0
0
0
0
0
0
0
0
0
0
0
0
0
0
0
-0.01621364
-0.014962806
-0.012685564
-0.0097326392
-0.0065486973
-0.0036135503
-0.0013697599
-0.00015614354
)
;
    }
    defaultFaces
    {
        type            empty;
    }
}


// ************************************************************************* //
