/*--------------------------------*- C++ -*----------------------------------*\
| =========                 |                                                 |
| \\      /  F ield         | OpenFOAM: The Open Source CFD Toolbox           |
|  \\    /   O peration     | Version:  2106                                  |
|   \\  /    A nd           | Website:  www.openfoam.com                      |
|    \\/     M anipulation  |                                                 |
\*---------------------------------------------------------------------------*/
FoamFile
{
    version     2.0;
    format      ascii;
    arch        "LSB;label=32;scalar=64";
    class       volVectorField;
    location    "0.009";
    object      U_0;
}
// * * * * * * * * * * * * * * * * * * * * * * * * * * * * * * * * * * * * * //

dimensions      [0 1 -1 0 0 0 0];

internalField   nonuniform List<vector> 
4096
(
(0.012782871 -0.012725044 0)
(0.038222508 -0.012599551 0)
(0.063285188 -0.012349912 0)
(0.087724109 -0.011978799 0)
(0.11129914 -0.011490163 0)
(0.13377931 -0.010889169 0)
(0.15494522 -0.010182114 0)
(0.17459117 -0.0093763395 0)
(0.19252716 -0.0084801312 0)
(0.20858073 -0.0075026153 0)
(0.22259847 -0.0064536574 0)
(0.23444745 -0.0053437593 0)
(0.24401635 -0.0041839569 0)
(0.25121648 -0.002985717 0)
(0.25598252 -0.0017608335 0)
(0.25827306 -0.00052132175 0)
(0.2580703 0.00072077244 0)
(0.2553836 0.0019528585 0)
(0.25024086 0.0031640669 0)
(0.24269937 0.0043418992 0)
(0.23283639 0.0054753035 0)
(0.22075203 0.0065536214 0)
(0.20656718 0.007566811 0)
(0.1904221 0.0085055785 0)
(0.17247491 0.0093614622 0)
(0.15289979 0.010126892 0)
(0.13188515 0.01079523 0)
(0.10963175 0.011360794 0)
(0.086350755 0.011818864 0)
(0.062261804 0.012165683 0)
(0.037591088 0.012398446 0)
(0.012569456 0.012515292 0)
(-0.012569456 0.012515292 0)
(-0.037591088 0.012398446 0)
(-0.062261804 0.012165683 0)
(-0.086350755 0.011818864 0)
(-0.10963175 0.011360794 0)
(-0.13188515 0.01079523 0)
(-0.15289979 0.010126892 0)
(-0.17247491 0.0093614622 0)
(-0.1904221 0.0085055785 0)
(-0.20656718 0.007566811 0)
(-0.22075203 0.0065536214 0)
(-0.23283639 0.0054753035 0)
(-0.24269937 0.0043418992 0)
(-0.25024086 0.0031640669 0)
(-0.2553836 0.0019528585 0)
(-0.2580703 0.00072077244 0)
(-0.25827306 -0.00052132175 0)
(-0.25598252 -0.0017608335 0)
(-0.25121648 -0.002985717 0)
(-0.24401635 -0.0041839569 0)
(-0.23444745 -0.0053437593 0)
(-0.22259847 -0.0064536574 0)
(-0.20858073 -0.0075026153 0)
(-0.19252716 -0.0084801312 0)
(-0.17459117 -0.0093763395 0)
(-0.15494522 -0.010182114 0)
(-0.13377931 -0.010889169 0)
(-0.11129914 -0.011490163 0)
(-0.087724109 -0.011978799 0)
(-0.063285188 -0.012349912 0)
(-0.038222508 -0.012599551 0)
(-0.012782871 -0.012725044 0)
(0.01295965 -0.038310736 0)
(0.038751 -0.03793284 0)
(0.064159885 -0.037181111 0)
(0.088935921 -0.036063608 0)
(0.11283553 -0.034592243 0)
(0.13562449 -0.032782583 0)
(0.15708032 -0.030653614 0)
(0.17699452 -0.028227452 0)
(0.19517454 -0.025529056 0)
(0.2114456 -0.02258591 0)
(0.22565229 -0.019427718 0)
(0.23765994 -0.016086095 0)
(0.24735578 -0.012594265 0)
(0.25464997 -0.00898675 0)
(0.25947634 -0.0052990626 0)
(0.26179296 -0.0015674021 0)
(0.26158234 0.0021716708 0)
(0.25885214 0.0058820252 0)
(0.25363374 0.0095278024 0)
(0.2459835 0.013073502 0)
(0.23598051 0.016485422 0)
(0.22372648 0.019731386 0)
(0.20934426 0.022781158 0)
(0.19297635 0.025606773 0)
(0.17478329 0.028182776 0)
(0.15494183 0.030486411 0)
(0.13364307 0.032497734 0)
(0.1110905 0.034199679 0)
(0.087498039 0.035578084 0)
(0.063088082 0.03662168 0)
(0.038089566 0.037322057 0)
(0.012736067 0.037673637 0)
(-0.012736067 0.037673637 0)
(-0.038089566 0.037322057 0)
(-0.063088082 0.03662168 0)
(-0.087498039 0.035578084 0)
(-0.1110905 0.034199679 0)
(-0.13364307 0.032497734 0)
(-0.15494183 0.030486411 0)
(-0.17478329 0.028182776 0)
(-0.19297635 0.025606773 0)
(-0.20934426 0.022781158 0)
(-0.22372648 0.019731386 0)
(-0.23598051 0.016485422 0)
(-0.2459835 0.013073502 0)
(-0.25363374 0.0095278024 0)
(-0.25885214 0.0058820252 0)
(-0.26158234 0.0021716708 0)
(-0.26179296 -0.0015674021 0)
(-0.25947634 -0.0052990626 0)
(-0.25464997 -0.00898675 0)
(-0.24735578 -0.012594265 0)
(-0.23765994 -0.016086095 0)
(-0.22565229 -0.019427718 0)
(-0.2114456 -0.02258591 0)
(-0.19517454 -0.025529056 0)
(-0.17699452 -0.028227452 0)
(-0.15708032 -0.030653614 0)
(-0.13562449 -0.032782583 0)
(-0.11283553 -0.034592243 0)
(-0.088935921 -0.036063608 0)
(-0.064159885 -0.037181111 0)
(-0.038751 -0.03793284 0)
(-0.01295965 -0.038310736 0)
(0.013257238 -0.064401834 0)
(0.039640668 -0.063766272 0)
(0.065632389 -0.06250201 0)
(0.090976016 -0.060622645 0)
(0.11542219 -0.058148273 0)
(0.13873119 -0.055105145 0)
(0.16067544 -0.051525252 0)
(0.18104166 -0.047445842 0)
(0.19963302 -0.042908916 0)
(0.21627088 -0.037960702 0)
(0.23079639 -0.032651138 0)
(0.24307195 -0.027033359 0)
(0.25298231 -0.021163195 0)
(0.26043564 -0.015098662 0)
(0.26536431 -0.0088994495 0)
(0.26772548 -0.0026263868 0)
(0.26750146 0.0036591537 0)
(0.26469993 0.0098960552 0)
(0.25935368 0.016023882 0)
(0.25152036 0.021983347 0)
(0.24128143 0.027717538 0)
(0.22874139 0.033172289 0)
(0.21402641 0.038296775 0)
(0.19728277 0.04304403 0)
(0.1786751 0.047371357 0)
(0.15838453 0.051240631 0)
(0.13660669 0.054618489 0)
(0.11354969 0.057476426 0)
(0.089432107 0.059790823 0)
(0.064480978 0.061542906 0)
(0.038929862 0.062718686 0)
(0.013016925 0.063308886 0)
(-0.013016925 0.063308886 0)
(-0.038929862 0.062718686 0)
(-0.064480978 0.061542906 0)
(-0.089432107 0.059790823 0)
(-0.11354969 0.057476426 0)
(-0.13660669 0.054618489 0)
(-0.15838453 0.051240631 0)
(-0.1786751 0.047371357 0)
(-0.19728277 0.04304403 0)
(-0.21402641 0.038296775 0)
(-0.22874139 0.033172289 0)
(-0.24128143 0.027717538 0)
(-0.25152036 0.021983347 0)
(-0.25935368 0.016023882 0)
(-0.26469993 0.0098960552 0)
(-0.26750146 0.0036591537 0)
(-0.26772548 -0.0026263868 0)
(-0.26536431 -0.0088994495 0)
(-0.26043564 -0.015098662 0)
(-0.25298231 -0.021163195 0)
(-0.24307195 -0.027033359 0)
(-0.23079639 -0.032651138 0)
(-0.21627088 -0.037960702 0)
(-0.19963302 -0.042908916 0)
(-0.18104166 -0.047445842 0)
(-0.16067544 -0.051525252 0)
(-0.13873119 -0.055105145 0)
(-0.11542219 -0.058148273 0)
(-0.090976016 -0.060622645 0)
(-0.065632389 -0.06250201 0)
(-0.039640668 -0.063766272 0)
(-0.013257238 -0.064401834 0)
(0.013685857 -0.09121229 0)
(0.040922071 -0.090311591 0)
(0.067753286 -0.088519966 0)
(0.093914481 -0.085856774 0)
(0.11914799 -0.082350611 0)
(0.14320621 -0.078038805 0)
(0.16585419 -0.072966807 0)
(0.18687188 -0.067187492 0)
(0.20605623 -0.060760427 0)
(0.22322303 -0.053751124 0)
(0.23820854 -0.046230305 0)
(0.25087085 -0.03827319 0)
(0.26109112 -0.029958798 0)
(0.26877463 -0.021369253 0)
(0.27385156 -0.012589075 0)
(0.27627773 -0.0037044181 0)
(0.27603495 0.0051977559 0)
(0.2731313 0.014030634 0)
(0.26760098 0.022708399 0)
(0.25950387 0.031147139 0)
(0.24892472 0.039266051 0)
(0.23597212 0.046988311 0)
(0.22077709 0.054241917 0)
(0.20349138 0.060960428 0)
(0.18428562 0.067083542 0)
(0.16334728 0.072557515 0)
(0.14087855 0.077335413 0)
(0.11709422 0.081377223 0)
(0.0922196 0.084649852 0)
(0.066488412 0.087127048 0)
(0.040140855 0.088789282 0)
(0.013421676 0.089623618 0)
(-0.013421676 0.089623618 0)
(-0.040140855 0.088789282 0)
(-0.066488412 0.087127048 0)
(-0.0922196 0.084649852 0)
(-0.11709422 0.081377223 0)
(-0.14087855 0.077335413 0)
(-0.16334728 0.072557515 0)
(-0.18428562 0.067083542 0)
(-0.20349138 0.060960428 0)
(-0.22077709 0.054241917 0)
(-0.23597212 0.046988311 0)
(-0.24892472 0.039266051 0)
(-0.25950387 0.031147139 0)
(-0.26760098 0.022708399 0)
(-0.2731313 0.014030634 0)
(-0.27603495 0.0051977559 0)
(-0.27627773 -0.0037044181 0)
(-0.27385156 -0.012589075 0)
(-0.26877463 -0.021369253 0)
(-0.26109112 -0.029958798 0)
(-0.25087085 -0.03827319 0)
(-0.23820854 -0.046230305 0)
(-0.22322303 -0.053751124 0)
(-0.20605623 -0.060760427 0)
(-0.18687188 -0.067187492 0)
(-0.16585419 -0.072966807 0)
(-0.14320621 -0.078038805 0)
(-0.11914799 -0.082350611 0)
(-0.093914481 -0.085856774 0)
(-0.067753286 -0.088519966 0)
(-0.040922071 -0.090311591 0)
(-0.013685857 -0.09121229 0)
(0.014259375 -0.11901268 0)
(0.042636673 -0.11783657 0)
(0.070591217 -0.11549721 0)
(0.097846453 -0.11202002 0)
(0.12413363 -0.10744252 0)
(0.14919464 -0.10181369 0)
(0.1727847 -0.095193042 0)
(0.19467469 -0.087649769 0)
(0.21465333 -0.079261714 0)
(0.23252897 -0.070114399 0)
(0.24813126 -0.060300071 0)
(0.26131255 -0.04991679 0)
(0.27194912 -0.039067547 0)
(0.27994224 -0.027859405 0)
(0.28521913 -0.016402601 0)
(0.28773366 -0.0048095835 0)
(0.28746688 0.0068060489 0)
(0.28442731 0.018330741 0)
(0.27865093 0.029652204 0)
(0.27020067 0.040660731 0)
(0.25916566 0.051250619 0)
(0.24566001 0.061321442 0)
(0.22982132 0.07077921 0)
(0.21180881 0.079537346 0)
(0.19180121 0.087517451 0)
(0.16999455 0.094649826 0)
(0.14659991 0.10087377 0)
(0.12184108 0.1061377 0)
(0.095952358 0.11039903 0)
(0.06917643 0.1136241 0)
(0.041762348 0.11578791 0)
(0.013963618 0.11687393 0)
(-0.013963618 0.11687393 0)
(-0.041762348 0.11578791 0)
(-0.06917643 0.1136241 0)
(-0.095952358 0.11039903 0)
(-0.12184108 0.1061377 0)
(-0.14659991 0.10087377 0)
(-0.16999455 0.094649826 0)
(-0.19180121 0.087517451 0)
(-0.21180881 0.079537346 0)
(-0.22982132 0.07077921 0)
(-0.24566001 0.061321442 0)
(-0.25916566 0.051250619 0)
(-0.27020067 0.040660731 0)
(-0.27865093 0.029652204 0)
(-0.28442731 0.018330741 0)
(-0.28746688 0.0068060489 0)
(-0.28773366 -0.0048095835 0)
(-0.28521913 -0.016402601 0)
(-0.27994224 -0.027859405 0)
(-0.27194912 -0.039067547 0)
(-0.26131255 -0.04991679 0)
(-0.24813126 -0.060300071 0)
(-0.23252897 -0.070114399 0)
(-0.21465333 -0.079261714 0)
(-0.19467469 -0.087649769 0)
(-0.1727847 -0.095193042 0)
(-0.14919464 -0.10181369 0)
(-0.12413363 -0.10744252 0)
(-0.097846453 -0.11202002 0)
(-0.070591217 -0.11549721 0)
(-0.042636673 -0.11783657 0)
(-0.014259375 -0.11901268 0)
(0.014995611 -0.14810924 0)
(0.044837759 -0.14664431 0)
(0.074234404 -0.14373058 0)
(0.10289423 -0.13939995 0)
(0.1305343 -0.13369949 0)
(0.15688308 -0.12669048 0)
(0.18168322 -0.11844736 0)
(0.20469405 -0.10905652 0)
(0.22569372 -0.098614989 0)
(0.24448108 -0.087229231 0)
(0.26087729 -0.075013958 0)
(0.27472725 -0.06209102 0)
(0.28590089 -0.048588378 0)
(0.29429422 -0.034639087 0)
(0.29983044 -0.020380249 0)
(0.30246073 -0.0059518693 0)
(0.30216498 0.0085044465 0)
(0.29895216 0.022846966 0)
(0.29286039 0.036935442 0)
(0.28395651 0.050632848 0)
(0.27233527 0.063807173 0)
(0.25811803 0.076333116 0)
(0.24145096 0.088093604 0)
(0.22250301 0.098981053 0)
(0.20146348 0.10889832 0)
(0.1785396 0.11775935 0)
(0.15395394 0.12548944 0)
(0.1279419 0.13202535 0)
(0.10074941 0.13731509 0)
(0.072630619 0.14131765 0)
(0.043845916 0.14400269 0)
(0.01465998 0.14535019 0)
(-0.01465998 0.14535019 0)
(-0.043845916 0.14400269 0)
(-0.072630619 0.14131765 0)
(-0.10074941 0.13731509 0)
(-0.1279419 0.13202535 0)
(-0.15395394 0.12548944 0)
(-0.1785396 0.11775935 0)
(-0.20146348 0.10889832 0)
(-0.22250301 0.098981053 0)
(-0.24145096 0.088093604 0)
(-0.25811803 0.076333116 0)
(-0.27233527 0.063807173 0)
(-0.28395651 0.050632848 0)
(-0.29286039 0.036935442 0)
(-0.29895216 0.022846966 0)
(-0.30216498 0.0085044465 0)
(-0.30246073 -0.0059518693 0)
(-0.29983044 -0.020380249 0)
(-0.29429422 -0.034639087 0)
(-0.28590089 -0.048588378 0)
(-0.27472725 -0.06209102 0)
(-0.26087729 -0.075013958 0)
(-0.24448108 -0.087229231 0)
(-0.22569372 -0.098614989 0)
(-0.20469405 -0.10905652 0)
(-0.18168322 -0.11844736 0)
(-0.15688308 -0.12669048 0)
(-0.1305343 -0.13369949 0)
(-0.10289423 -0.13939995 0)
(-0.074234404 -0.14373058 0)
(-0.044837759 -0.14664431 0)
(-0.014995611 -0.14810924 0)
(0.015916991 -0.17884681 0)
(0.04759238 -0.17707611 0)
(0.078793874 -0.17355438 0)
(0.10921174 -0.16832055 0)
(0.13854536 -0.16143192 0)
(0.16650646 -0.15296306 0)
(0.19282211 -0.14300437 0)
(0.21723724 -0.13166052 0)
(0.23951686 -0.11904887 0)
(0.25944795 -0.10529799 0)
(0.27684105 -0.090546181 0)
(0.29153169 -0.07494024 0)
(0.30338164 -0.058634291 0)
(0.31228014 -0.041788675 0)
(0.31814505 -0.024568786 0)
(0.32092392 -0.0071437693 0)
(0.32059486 0.010315004 0)
(0.31716717 0.02763574 0)
(0.3106815 0.044648265 0)
(0.30120955 0.061186249 0)
(0.28885319 0.077089501 0)
(0.27374292 0.09220616 0)
(0.25603591 0.10639464 0)
(0.23591353 0.11952524 0)
(0.2135786 0.13148127 0)
(0.18925257 0.1421598 0)
(0.16317257 0.15147191 0)
(0.1355887 0.15934267 0)
(0.10676144 0.16571077 0)
(0.076959327 0.17052805 0)
(0.046456848 0.17375902 0)
(0.015532569 0.17538029 0)
(-0.015532569 0.17538029 0)
(-0.046456848 0.17375902 0)
(-0.076959327 0.17052805 0)
(-0.10676144 0.16571077 0)
(-0.1355887 0.15934267 0)
(-0.16317257 0.15147191 0)
(-0.18925257 0.1421598 0)
(-0.2135786 0.13148127 0)
(-0.23591353 0.11952524 0)
(-0.25603591 0.10639464 0)
(-0.27374292 0.09220616 0)
(-0.28885319 0.077089501 0)
(-0.30120955 0.061186249 0)
(-0.3106815 0.044648265 0)
(-0.31716717 0.02763574 0)
(-0.32059486 0.010315004 0)
(-0.32092392 -0.0071437693 0)
(-0.31814505 -0.024568786 0)
(-0.31228014 -0.041788675 0)
(-0.30338164 -0.058634291 0)
(-0.29153169 -0.07494024 0)
(-0.27684105 -0.090546181 0)
(-0.25944795 -0.10529799 0)
(-0.23951686 -0.11904887 0)
(-0.21723724 -0.13166052 0)
(-0.19282211 -0.14300437 0)
(-0.16650646 -0.15296306 0)
(-0.13854536 -0.16143192 0)
(-0.10921174 -0.16832055 0)
(-0.078793874 -0.17355438 0)
(-0.04759238 -0.17707611 0)
(-0.015916991 -0.17884681 0)
(0.017051522 -0.21161956 0)
(0.050984288 -0.20952212 0)
(0.084408302 -0.20535081 0)
(0.11699124 -0.19915223 0)
(0.14841082 -0.1909949 0)
(0.1783583 -0.1809678 0)
(0.20654167 -0.16917858 0)
(0.23268827 -0.15575157 0)
(0.25654708 -0.14082587 0)
(0.27789053 -0.12455347 0)
(0.29651606 -0.10709763 0)
(0.31224752 -0.08863143 0)
(0.32493644 -0.069336556 0)
(0.33446339 -0.049402158 0)
(0.34073924 -0.029023638 0)
(0.34370661 -0.0084012484 0)
(0.34334098 0.012261663 0)
(0.33965168 0.032760818 0)
(0.33268228 0.052893553 0)
(0.32251037 0.072461658 0)
(0.30924664 0.091274313 0)
(0.29303314 0.10915091 0)
(0.27404087 0.12592352 0)
(0.25246689 0.14143889 0)
(0.22853105 0.15555982 0)
(0.20247264 0.16816594 0)
(0.174547 0.17915389 0)
(0.14502248 0.18843707 0)
(0.11417758 0.19594507 0)
(0.082298513 0.20162287 0)
(0.049677062 0.20543008 0)
(0.01660875 0.20734024 0)
(-0.01660875 0.20734024 0)
(-0.049677062 0.20543008 0)
(-0.082298513 0.20162287 0)
(-0.11417758 0.19594507 0)
(-0.14502248 0.18843707 0)
(-0.174547 0.17915389 0)
(-0.20247264 0.16816594 0)
(-0.22853105 0.15555982 0)
(-0.25246689 0.14143889 0)
(-0.27404087 0.12592352 0)
(-0.29303314 0.10915091 0)
(-0.30924664 0.091274313 0)
(-0.32251037 0.072461658 0)
(-0.33268228 0.052893553 0)
(-0.33965168 0.032760818 0)
(-0.34334098 0.012261663 0)
(-0.34370661 -0.0084012484 0)
(-0.34073924 -0.029023638 0)
(-0.33446339 -0.049402158 0)
(-0.32493644 -0.069336556 0)
(-0.31224752 -0.08863143 0)
(-0.29651606 -0.10709763 0)
(-0.27789053 -0.12455347 0)
(-0.25654708 -0.14082587 0)
(-0.23268827 -0.15575157 0)
(-0.20654167 -0.16917858 0)
(-0.1783583 -0.1809678 0)
(-0.14841082 -0.1909949 0)
(-0.11699124 -0.19915223 0)
(-0.084408302 -0.20535081 0)
(-0.050984288 -0.20952212 0)
(-0.017051522 -0.21161956 0)
(0.018434014 -0.24688368 0)
(0.055117569 -0.24443392 0)
(0.091250035 -0.2395623 0)
(0.12647168 -0.23232392 0)
(0.16043396 -0.22279972 0)
(0.19280338 -0.21109452 0)
(0.22326487 -0.19733479 0)
(0.25152455 -0.18166622 0)
(0.27731202 -0.16425126 0)
(0.30038208 -0.14526695 0)
(0.32051624 -0.12490302 0)
(0.33752397 -0.10336035 0)
(0.35124403 -0.080849789 0)
(0.36154589 -0.057591025 0)
(0.36833138 -0.033811504 0)
(0.37153639 -0.0097449687 0)
(0.37113261 0.014370491 0)
(0.36712887 0.038295015 0)
(0.35957193 0.061790148 0)
(0.34854647 0.084622454 0)
(0.33417406 0.10656731 0)
(0.31661112 0.12741252 0)
(0.29604601 0.14696148 0)
(0.27269547 0.16503565 0)
(0.24680064 0.18147613 0)
(0.21862299 0.19614448 0)
(0.18844045 0.20892273 0)
(0.15654381 0.21971276 0)
(0.12323366 0.22843542 0)
(0.088817708 0.23502928 0)
(0.0536087 0.2394495 0)
(0.017922638 0.24166683 0)
(-0.017922638 0.24166683 0)
(-0.0536087 0.2394495 0)
(-0.088817708 0.23502928 0)
(-0.12323366 0.22843542 0)
(-0.15654381 0.21971276 0)
(-0.18844045 0.20892273 0)
(-0.21862299 0.19614448 0)
(-0.24680064 0.18147613 0)
(-0.27269547 0.16503565 0)
(-0.29604601 0.14696148 0)
(-0.31661112 0.12741252 0)
(-0.33417406 0.10656731 0)
(-0.34854647 0.084622454 0)
(-0.35957193 0.061790148 0)
(-0.36712887 0.038295015 0)
(-0.37113261 0.014370491 0)
(-0.37153639 -0.0097449687 0)
(-0.36833138 -0.033811504 0)
(-0.36154589 -0.057591025 0)
(-0.35124403 -0.080849789 0)
(-0.33752397 -0.10336035 0)
(-0.32051624 -0.12490302 0)
(-0.30038208 -0.14526695 0)
(-0.27731202 -0.16425126 0)
(-0.25152455 -0.18166622 0)
(-0.22326487 -0.19733479 0)
(-0.19280338 -0.21109452 0)
(-0.16043396 -0.22279972 0)
(-0.12647168 -0.23232392 0)
(-0.091250035 -0.2395623 0)
(-0.055117569 -0.24443392 0)
(-0.018434014 -0.24688368 0)
(0.020107401 -0.28517229 0)
(0.060120603 -0.28233925 0)
(0.099531642 -0.27670595 0)
(0.13794776 -0.26833707 0)
(0.1749888 -0.25732736 0)
(0.21029154 -0.2437993 0)
(0.24351328 -0.22790016 0)
(0.27433475 -0.20979895 0)
(0.30246232 -0.18968345 0)
(0.32762967 -0.16775757 0)
(0.34959902 -0.14423924 0)
(0.36816228 -0.1193588 0)
(0.38314234 -0.093357952 0)
(0.39439465 -0.066488907 0)
(0.4018092 -0.039013494 0)
(0.40531288 -0.011201812 0)
(0.40487182 0.016669873 0)
(0.40049351 0.044322188 0)
(0.39222812 0.071476624 0)
(0.38016873 0.097860184 0)
(0.36445027 0.12321031 0)
(0.34524705 0.1472796 0)
(0.32276912 0.1698398 0)
(0.29725779 0.19068491 0)
(0.26898068 0.20963297 0)
(0.23822682 0.22652682 0)
(0.2053019 0.24123379 0)
(0.17052421 0.25364461 0)
(0.13422113 0.26367194 0)
(0.096726405 0.27124862 0)
(0.058377974 0.27632596 0)
(0.019516391 0.2788724 0)
(-0.019516391 0.2788724 0)
(-0.058377974 0.27632596 0)
(-0.096726405 0.27124862 0)
(-0.13422113 0.26367194 0)
(-0.17052421 0.25364461 0)
(-0.2053019 0.24123379 0)
(-0.23822682 0.22652682 0)
(-0.26898068 0.20963297 0)
(-0.29725779 0.19068491 0)
(-0.32276912 0.1698398 0)
(-0.34524705 0.1472796 0)
(-0.36445027 0.12321031 0)
(-0.38016873 0.097860184 0)
(-0.39222812 0.071476624 0)
(-0.40049351 0.044322188 0)
(-0.40487182 0.016669873 0)
(-0.40531288 -0.011201812 0)
(-0.4018092 -0.039013494 0)
(-0.39439465 -0.066488907 0)
(-0.38314234 -0.093357952 0)
(-0.36816228 -0.1193588 0)
(-0.34959902 -0.14423924 0)
(-0.32762967 -0.16775757 0)
(-0.30246232 -0.18968345 0)
(-0.27433475 -0.20979895 0)
(-0.24351328 -0.22790016 0)
(-0.21029154 -0.2437993 0)
(-0.1749888 -0.25732736 0)
(-0.13794776 -0.26833707 0)
(-0.099531642 -0.27670595 0)
(-0.060120603 -0.28233925 0)
(-0.020107401 -0.28517229 0)
(0.022123986 -0.32711295 0)
(0.066149774 -0.32385937 0)
(0.10951204 -0.31739056 0)
(0.15177837 -0.30778205 0)
(0.19253079 -0.2951443 0)
(0.23137052 -0.27961958 0)
(0.2679219 -0.26137836 0)
(0.30183548 -0.2406154 0)
(0.33279002 -0.21754611 0)
(0.36049401 -0.19240337 0)
(0.38468651 -0.16543517 0)
(0.40513813 -0.13690307 0)
(0.42165212 -0.10708143 0)
(0.43406619 -0.076257078 0)
(0.44225499 -0.044728891 0)
(0.44613326 -0.012806736 0)
(0.44565921 0.019190702 0)
(0.44083766 0.050939544 0)
(0.43172219 0.082115728 0)
(0.41841583 0.11240107 0)
(0.40106988 0.14148973 0)
(0.37988087 0.16909439 0)
(0.35508593 0.19495147 0)
(0.32695702 0.21882481 0)
(0.2957947 0.24050784 0)
(0.26192198 0.25982404 0)
(0.22567864 0.27662615 0)
(0.18741642 0.29079438 0)
(0.14749517 0.3022341 0)
(0.10627988 0.31087334 0)
(0.064138679 0.31666044 0)
(0.021441375 0.31956214 0)
(-0.021441375 0.31956214 0)
(-0.064138679 0.31666044 0)
(-0.10627988 0.31087334 0)
(-0.14749517 0.3022341 0)
(-0.18741642 0.29079438 0)
(-0.22567864 0.27662615 0)
(-0.26192198 0.25982404 0)
(-0.2957947 0.24050784 0)
(-0.32695702 0.21882481 0)
(-0.35508593 0.19495147 0)
(-0.37988087 0.16909439 0)
(-0.40106988 0.14148973 0)
(-0.41841583 0.11240107 0)
(-0.43172219 0.082115728 0)
(-0.44083766 0.050939544 0)
(-0.44565921 0.019190702 0)
(-0.44613326 -0.012806736 0)
(-0.44225499 -0.044728891 0)
(-0.43406619 -0.076257078 0)
(-0.42165212 -0.10708143 0)
(-0.40513813 -0.13690307 0)
(-0.38468651 -0.16543517 0)
(-0.36049401 -0.19240337 0)
(-0.33279002 -0.21754611 0)
(-0.30183548 -0.2406154 0)
(-0.2679219 -0.26137836 0)
(-0.23137052 -0.27961958 0)
(-0.19253079 -0.2951443 0)
(-0.15177837 -0.30778205 0)
(-0.10951204 -0.31739056 0)
(-0.066149774 -0.32385937 0)
(-0.022123986 -0.32711295 0)
(0.024546327 -0.37344744 0)
(0.07339212 -0.36972863 0)
(0.12150085 -0.36233576 0)
(0.16839268 -0.35135685 0)
(0.21360442 -0.33692032 0)
(0.25669494 -0.31919098 0)
(0.2972495 -0.29836542 0)
(0.33488284 -0.27466709 0)
(0.36924115 -0.24834173 0)
(0.40000303 -0.21965357 0)
(0.42688 -0.18888266 0)
(0.4496169 -0.15632354 0)
(0.46799285 -0.12228502 0)
(0.48182323 -0.087090714 0)
(0.49096278 -0.05107947 0)
(0.49530995 -0.014604943 0)
(0.49481175 0.021966533 0)
(0.48946835 0.058260225 0)
(0.47933653 0.093899418 0)
(0.46453101 0.12851341 0)
(0.44522315 0.16174613 0)
(0.42163714 0.19326438 0)
(0.39404387 0.22276448 0)
(0.36275354 0.24997697 0)
(0.32810753 0.27466886 0)
(0.29047073 0.29664377 0)
(0.25022456 0.31574028 0)
(0.20776138 0.33182906 0)
(0.16348008 0.3448095 0)
(0.11778312 0.35460616 0)
(0.071074546 0.36116556 0)
(0.02375896 0.36445355 0)
(-0.02375896 0.36445355 0)
(-0.071074546 0.36116556 0)
(-0.11778312 0.35460616 0)
(-0.16348008 0.3448095 0)
(-0.20776138 0.33182906 0)
(-0.25022456 0.31574028 0)
(-0.29047073 0.29664377 0)
(-0.32810753 0.27466886 0)
(-0.36275354 0.24997697 0)
(-0.39404387 0.22276448 0)
(-0.42163714 0.19326438 0)
(-0.44522315 0.16174613 0)
(-0.46453101 0.12851341 0)
(-0.47933653 0.093899418 0)
(-0.48946835 0.058260225 0)
(-0.49481175 0.021966533 0)
(-0.49530995 -0.014604943 0)
(-0.49096278 -0.05107947 0)
(-0.48182323 -0.087090714 0)
(-0.46799285 -0.12228502 0)
(-0.4496169 -0.15632354 0)
(-0.42688 -0.18888266 0)
(-0.40000303 -0.21965357 0)
(-0.36924115 -0.24834173 0)
(-0.33488284 -0.27466709 0)
(-0.2972495 -0.29836542 0)
(-0.25669494 -0.31919098 0)
(-0.21360442 -0.33692032 0)
(-0.16839268 -0.35135685 0)
(-0.12150085 -0.36233576 0)
(-0.07339212 -0.36972863 0)
(-0.024546327 -0.37344744 0)
(0.02744738 -0.42505293 0)
(0.082065759 -0.42081535 0)
(0.13585912 -0.41239243 0)
(0.18829097 -0.39988671 0)
(0.23884424 -0.38344739 0)
(0.28702751 -0.36326519 0)
(0.33237976 -0.33956646 0)
(0.37447355 -0.31260691 0)
(0.41291673 -0.28266583 0)
(0.44735282 -0.25004146 0)
(0.47746073 -0.21504802 0)
(0.50295445 -0.17801471 0)
(0.5235836 -0.13928641 0)
(0.53913554 -0.099225586 0)
(0.54943937 -0.058214186 0)
(0.5543718 -0.016654307 0)
(0.55386412 0.02503364 0)
(0.54790907 0.066416009 0)
(0.53656605 0.10705423 0)
(0.51996343 0.14651553 0)
(0.49829721 0.18438461 0)
(0.47182595 0.22027464 0)
(0.44086275 0.25383602 0)
(0.40576534 0.28476211 0)
(0.36692565 0.31279164 0)
(0.32475996 0.33770804 0)
(0.2797004 0.35933659 0)
(0.23218831 0.37754002 0)
(0.18266945 0.39221358 0)
(0.13159087 0.40328014 0)
(0.079399313 0.4106859 0)
(0.026540537 0.41439696 0)
(-0.026540537 0.41439696 0)
(-0.079399313 0.4106859 0)
(-0.13159087 0.40328014 0)
(-0.18266945 0.39221358 0)
(-0.23218831 0.37754002 0)
(-0.2797004 0.35933659 0)
(-0.32475996 0.33770804 0)
(-0.36692565 0.31279164 0)
(-0.40576534 0.28476211 0)
(-0.44086275 0.25383602 0)
(-0.47182595 0.22027464 0)
(-0.49829721 0.18438461 0)
(-0.51996343 0.14651553 0)
(-0.53656605 0.10705423 0)
(-0.54790907 0.066416009 0)
(-0.55386412 0.02503364 0)
(-0.5543718 -0.016654307 0)
(-0.54943937 -0.058214186 0)
(-0.53913554 -0.099225586 0)
(-0.5235836 -0.13928641 0)
(-0.50295445 -0.17801471 0)
(-0.47746073 -0.21504802 0)
(-0.44735282 -0.25004146 0)
(-0.41291673 -0.28266583 0)
(-0.37447355 -0.31260691 0)
(-0.33237976 -0.33956646 0)
(-0.28702751 -0.36326519 0)
(-0.23884424 -0.38344739 0)
(-0.18829097 -0.39988671 0)
(-0.13585912 -0.41239243 0)
(-0.082065759 -0.42081535 0)
(-0.02744738 -0.42505293 0)
(0.030909382 -0.48296228 0)
(0.092416525 -0.47814197 0)
(0.15299369 -0.46856239 0)
(0.21203685 -0.45434313 0)
(0.2689649 -0.43565769 0)
(0.32322681 -0.41272694 0)
(0.37430695 -0.3858115 0)
(0.42172842 -0.35520369 0)
(0.46505431 -0.32122024 0)
(0.50388719 -0.28419644 0)
(0.53786779 -0.24448285 0)
(0.56667349 -0.20244475 0)
(0.5900182 -0.15846431 0)
(0.60765443 -0.11294461 0)
(0.61937837 -0.066313866 0)
(0.62503794 -0.019027908 0)
(0.62454276 0.028430926 0)
(0.61787414 0.075559833 0)
(0.605093 0.12184647 0)
(0.58634366 0.16678354 0)
(0.56185232 0.20988481 0)
(0.53192037 0.25069997 0)
(0.49691348 0.2888262 0)
(0.45724844 0.32391518 0)
(0.41337945 0.3556754 0)
(0.36578557 0.38387025 0)
(0.3149603 0.40831322 0)
(0.26140377 0.42886139 0)
(0.20561754 0.4454084 0)
(0.14810158 0.45787783 0)
(0.089353045 0.46621747 0)
(0.029866294 0.47039501 0)
(-0.029866294 0.47039501 0)
(-0.089353045 0.46621747 0)
(-0.14810158 0.45787783 0)
(-0.20561754 0.4454084 0)
(-0.26140377 0.42886139 0)
(-0.3149603 0.40831322 0)
(-0.36578557 0.38387025 0)
(-0.41337945 0.3556754 0)
(-0.45724844 0.32391518 0)
(-0.49691348 0.2888262 0)
(-0.53192037 0.25069997 0)
(-0.56185232 0.20988481 0)
(-0.58634366 0.16678354 0)
(-0.605093 0.12184647 0)
(-0.61787414 0.075559833 0)
(-0.62454276 0.028430926 0)
(-0.62503794 -0.019027908 0)
(-0.61937837 -0.066313866 0)
(-0.60765443 -0.11294461 0)
(-0.5900182 -0.15846431 0)
(-0.56667349 -0.20244475 0)
(-0.53786779 -0.24448285 0)
(-0.50388719 -0.28419644 0)
(-0.46505431 -0.32122024 0)
(-0.42172842 -0.35520369 0)
(-0.37430695 -0.3858115 0)
(-0.32322681 -0.41272694 0)
(-0.2689649 -0.43565769 0)
(-0.21203685 -0.45434313 0)
(-0.15299369 -0.46856239 0)
(-0.092416525 -0.47814197 0)
(-0.030909382 -0.48296228 0)
(0.035020762 -0.54838072 0)
(0.10470874 -0.54290143 0)
(0.1733419 -0.5320143 0)
(0.24023601 -0.51585914 0)
(0.30473404 -0.49463814 0)
(0.36621455 -0.46860757 0)
(0.4240978 -0.43806791 0)
(0.47784913 -0.40335359 0)
(0.52697971 -0.36482343 0)
(0.57104488 -0.32285333 0)
(0.60964117 -0.27783236 0)
(0.64240312 -0.2301629 0)
(0.66900188 -0.18026496 0)
(0.68914706 -0.1285833 0)
(0.70259311 -0.075595313 0)
(0.70915016 -0.021816448 0)
(0.70869821 0.032199525 0)
(0.7012017 0.085867664 0)
(0.68672134 0.13858642 0)
(0.66541993 0.18975774 0)
(0.63756077 0.23880931 0)
(0.60349843 0.2852148 0)
(0.56366398 0.32850923 0)
(0.51854719 0.36829744 0)
(0.46867852 0.40425587 0)
(0.41461317 0.43612865 0)
(0.35691827 0.46371996 0)
(0.29616395 0.48688446 0)
(0.23291773 0.50551756 0)
(0.16774189 0.51954651 0)
(0.10119287 0.52892313 0)
(0.03382213 0.53361828 0)
(-0.03382213 0.53361828 0)
(-0.10119287 0.52892313 0)
(-0.16774189 0.51954651 0)
(-0.23291773 0.50551756 0)
(-0.29616395 0.48688446 0)
(-0.35691827 0.46371996 0)
(-0.41461317 0.43612865 0)
(-0.46867852 0.40425587 0)
(-0.51854719 0.36829744 0)
(-0.56366398 0.32850923 0)
(-0.60349843 0.2852148 0)
(-0.63756077 0.23880931 0)
(-0.66541993 0.18975774 0)
(-0.68672134 0.13858642 0)
(-0.7012017 0.085867664 0)
(-0.70869821 0.032199525 0)
(-0.70915016 -0.021816448 0)
(-0.70259311 -0.075595313 0)
(-0.68914706 -0.1285833 0)
(-0.66900188 -0.18026496 0)
(-0.64240312 -0.2301629 0)
(-0.60964117 -0.27783236 0)
(-0.57104488 -0.32285333 0)
(-0.52697971 -0.36482343 0)
(-0.47784913 -0.40335359 0)
(-0.4240978 -0.43806791 0)
(-0.36621455 -0.46860757 0)
(-0.30473404 -0.49463814 0)
(-0.24023601 -0.51585914 0)
(-0.1733419 -0.5320143 0)
(-0.10470874 -0.54290143 0)
(-0.035020762 -0.54838072 0)
(0.039870259 -0.62269389 0)
(0.11920763 -0.61646507 0)
(0.19734248 -0.60409133 0)
(0.2734958 -0.58573654 0)
(0.346921 -0.561637 0)
(0.41691388 -0.53209089 0)
(0.48281973 -0.49744564 0)
(0.54403689 -0.45808453 0)
(0.60001687 -0.41441432 0)
(0.65026117 -0.36685571 0)
(0.69431593 -0.31583846 0)
(0.73176641 -0.26180252 0)
(0.76223343 -0.20520514 0)
(0.7853746 -0.14653269 0)
(0.80089196 -0.086313924 0)
(0.80854667 -0.025130184 0)
(0.80817885 0.036381948 0)
(0.79972877 0.097539001 0)
(0.78325422 0.15763027 0)
(0.75893941 0.2159459 0)
(0.72709306 0.27180793 0)
(0.68813565 0.32459827 0)
(0.64257908 0.37377892 0)
(0.59100265 0.41890215 0)
(0.53402942 0.45961102 0)
(0.47230588 0.49563223 0)
(0.40648661 0.52676433 0)
(0.33722406 0.55286398 0)
(0.26516299 0.57383267 0)
(0.1909384 0.58960502 0)
(0.11517598 0.60013965 0)
(0.038493989 0.60541248 0)
(-0.038493989 0.60541248 0)
(-0.11517598 0.60013965 0)
(-0.1909384 0.58960502 0)
(-0.26516299 0.57383267 0)
(-0.33722406 0.55286398 0)
(-0.40648661 0.52676433 0)
(-0.47230588 0.49563223 0)
(-0.53402942 0.45961102 0)
(-0.59100265 0.41890215 0)
(-0.64257908 0.37377892 0)
(-0.68813565 0.32459827 0)
(-0.72709306 0.27180793 0)
(-0.75893941 0.2159459 0)
(-0.78325422 0.15763027 0)
(-0.79972877 0.097539001 0)
(-0.80817885 0.036381948 0)
(-0.80854667 -0.025130184 0)
(-0.80089196 -0.086313924 0)
(-0.7853746 -0.14653269 0)
(-0.76223343 -0.20520514 0)
(-0.73176641 -0.26180252 0)
(-0.69431593 -0.31583846 0)
(-0.65026117 -0.36685571 0)
(-0.60001687 -0.41441432 0)
(-0.54403689 -0.45808453 0)
(-0.48281973 -0.49744564 0)
(-0.41691388 -0.53209089 0)
(-0.346921 -0.561637 0)
(-0.2734958 -0.58573654 0)
(-0.19734248 -0.60409133 0)
(-0.11920763 -0.61646507 0)
(-0.039870259 -0.62269389 0)
(0.045537263 -0.70746097 0)
(0.13615043 -0.70037584 0)
(0.22538779 -0.68630431 0)
(0.31235915 -0.665439 0)
(0.39621304 -0.63805695 0)
(0.47614865 -0.60450631 0)
(0.55142413 -0.56519016 0)
(0.62136071 -0.5205492 0)
(0.68534203 -0.47104543 0)
(0.74280902 -0.41714947 0)
(0.7932516 -0.35933415 0)
(0.83619951 -0.29807659 0)
(0.87121569 -0.23386916 0)
(0.89789582 -0.16723785 0)
(0.91587731 -0.098763586 0)
(0.92485867 -0.029099864 0)
(0.92462721 0.041020518 0)
(0.9150894 0.11079502 0)
(0.89629626 0.17937813 0)
(0.86845668 0.24592093 0)
(0.83193477 0.30961487 0)
(0.78723221 0.36973045 0)
(0.73496 0.42564387 0)
(0.67580606 0.47684882 0)
(0.61050433 0.5229545 0)
(0.53980931 0.56367351 0)
(0.46447777 0.59880405 0)
(0.38525767 0.62821058 0)
(0.30288295 0.65180593 0)
(0.21807264 0.66953642 0)
(0.13153262 0.68137057 0)
(0.043958843 0.68729134 0)
(-0.043958843 0.68729134 0)
(-0.13153262 0.68137057 0)
(-0.21807264 0.66953642 0)