/*--------------------------------*- C++ -*----------------------------------*\
| =========                 |                                                 |
| \\      /  F ield         | OpenFOAM: The Open Source CFD Toolbox           |
|  \\    /   O peration     | Version:  2106                                  |
|   \\  /    A nd           | Website:  www.openfoam.com                      |
|    \\/     M anipulation  |                                                 |
\*---------------------------------------------------------------------------*/
FoamFile
{
    version     2.0;
    format      ascii;
    arch        "LSB;label=32;scalar=64";
    class       volScalarField;
    location    "0.185";
    object      p_rgh;
}
// * * * * * * * * * * * * * * * * * * * * * * * * * * * * * * * * * * * * * //

dimensions      [1 -1 -2 0 0 0 0];

internalField   nonuniform List<scalar> 
32768
(
280.26723
280.30309
280.31325
280.30067
280.25437
280.17195
280.05308
279.89766
279.70621
279.47929
279.21736
278.92075
278.58987
278.22517
277.82715
277.39619
276.93293
276.43713
275.90971
275.35052
274.75845
274.13974
273.47866
272.80721
272.07458
271.34237
270.56259
269.73763
268.92276
268.03427
267.12301
266.21485
265.23224
264.22209
263.21798
262.15195
261.04308
259.93169
258.7814
257.59411
256.37696
255.12486
253.8573
252.56688
251.22355
249.85623
248.48287
247.07551
245.63802
244.1874
242.69548
241.18861
239.68393
238.14428
236.58547
235.00497
233.41434
231.8202
230.20529
228.57606
226.94313
225.30577
223.6436
221.9753
220.31498
218.6567
216.98565
215.29212
213.62299
211.95934
210.25654
208.57292
206.9209
205.23708
203.5441
201.89108
200.2292
198.54221
196.89129
195.2413
193.55289
191.91394
190.30771
188.6388
186.99332
185.4047
183.76916
182.1315
180.556
178.94985
177.31779
175.76255
174.21911
172.61331
171.04173
169.52069
167.96289
166.39882
164.89472
163.38665
161.83774
160.32542
158.86287
157.37546
155.86505
154.40421
152.97914
151.50033
150.01906
148.62528
147.22919
145.76374
144.34071
142.99875
141.6214
140.21149
138.86764
137.56134
136.21254
134.84606
133.55108
132.30179
131.00417
129.6827
128.43053
127.2179
125.95097
124.67537
123.48902
122.31924
121.09231
119.88058
118.73824
117.59793
116.42545
115.28482
114.19198
113.09644
111.98567
110.88222
109.80001
108.74058
107.69285
106.64626
105.61764
104.62589
103.64451
102.66071
101.68819
100.72623
99.774781
98.838585
97.906653
96.973103
96.065159
95.190894
94.306406
93.425166
92.576424
91.746333
90.919081
90.087178
89.270535
88.473334
87.693085
86.935482
86.170698
85.416298
84.691112
83.957011
83.217828
82.480701
81.743196
81.028415
80.330638
79.647166
78.999996
78.356179
77.720368
77.130664
76.534691
75.934462
75.369075
74.805006
74.231911
73.661003
73.125854
72.633198
72.149406
71.675705
71.234175
70.842448
70.424596
70.034748
69.755512
69.443252
69.04953
68.634653
68.19555
67.722822
67.260071
66.89828
66.617676
66.303638
65.983493
65.669559
65.346735
65.07167
64.935742
64.966721
65.065468
65.157071
65.223256
65.297182
65.420331
65.453385
65.321873
65.095316
64.993332
65.037715
65.029986
64.826447
64.508671
64.225681
64.023846
63.794069
63.526354
63.285145
63.104459
63.037408
63.159327
63.500489
64.076132
65.049596
66.647987
69.150899
72.873403
78.250353
85.753895
95.529372
108.12411
124.80396
148.62001
179.63525
221.66946
272.81912
337.40308
413.4084
502.3284
599.22522
700.01513
795.12053
875.31605
929.81198
959.56414
987.10893
280.24074
280.27444
280.28521
280.27413
280.22728
280.14465
280.02569
279.87043
279.67911
279.45209
279.18977
278.8926
278.56112
278.19582
277.79733
277.36568
276.9018
276.4051
275.87729
275.31719
274.72509
274.10491
273.44522
272.76998
272.04087
271.30614
270.52323
269.70526
268.88309
267.99294
267.09326
266.17161
265.18764
264.1937
263.17422
262.10178
261.01098
259.89199
258.72911
257.55314
256.33465
255.07751
253.81279
252.51592
251.16967
249.81263
248.43498
247.01432
245.58192
244.13565
242.63877
241.13097
239.62425
238.08141
236.52217
234.94127
233.35672
231.75468
230.13005
228.51348
226.88017
225.2291
223.57208
221.91295
220.2451
218.58029
216.90837
215.22394
213.5603
211.87545
210.17544
208.51618
206.84713
205.14798
203.48031
201.82965
200.14205
198.46683
196.83286
195.15903
193.47574
191.86315
190.22479
188.545
186.94329
185.34027
183.67274
182.06717
180.49871
178.86676
177.25138
175.70842
174.13338
172.53227
170.99271
169.45537
167.87776
166.33674
164.83793
163.3085
161.76893
160.27789
158.79654
157.28981
155.80077
154.35762
152.90774
151.4154
149.96451
148.57702
147.1445
145.68196
144.29838
142.94641
141.53123
140.13156
138.81874
137.50553
136.13008
134.77178
133.50494
132.24301
130.91492
129.61111
128.39427
127.16623
125.86162
124.6058
123.44695
122.25373
121.00897
119.82877
118.70444
117.53977
116.35009
115.22148
114.13572
113.03258
111.91608
110.81749
109.74753
108.69172
107.63121
106.57206
105.55146
104.57274
103.5859
102.58781
101.61693
100.67089
99.722877
98.772399
97.837356
96.918026
96.012512
95.127355
94.249352
93.373949
92.513251
91.677779
90.863303
90.043213
89.21694
88.407742
87.630513
86.8711
86.102091
85.350068
84.625787
83.900283
83.168569
82.43526
81.70858
80.984659
80.266117
79.579605
78.928422
78.294046
77.67461
77.074721
76.473602
75.877484
75.292405
74.713805
74.13883
73.579553
73.062533
72.570566
72.099676
71.654807
71.221812
70.798302
70.381322
70.013421
69.670442
69.283393
68.874788
68.474719
68.067585
67.661328
67.284589
66.944021
66.608743
66.279166
65.991669
65.726883
65.473301
65.191553
65.037155
65.06031
65.123962
65.210864
65.29084
65.344524
65.405096
65.432651
65.35671
65.342509
65.153158
64.961636
64.866341
64.699149
64.406075
64.132766
63.896502
63.603936
63.297967
63.012059
62.709769
62.51935
62.607184
62.915928
63.400593
64.252984
65.646146
67.787593
70.874111
75.380557
81.654266
90.424245
101.70728
116.99845
138.59213
167.24548
206.14898
254.99652
315.84246
390.70163
476.67448
575.35887
676.56174
775.07661
866.92088
934.62085
979.21373
1009.8348
280.1828
280.21637
280.22738
280.21626
280.169
280.08592
279.96647
279.81067
279.61886
279.39151
279.12909
278.83204
278.5009
278.13596
277.73777
277.30623
276.84275
276.34573
275.81882
275.2573
274.66752
274.04416
273.38845
272.70818
271.98373
271.24553
270.46132
269.64993
268.81821
267.93352
267.03697
266.10317
265.12797
264.13679
263.10266
262.03972
260.9519
259.81723
258.66438
257.48986
256.25356
255.00819
253.7469
252.43125
251.08702
249.74199
248.34976
246.92328
245.50372
244.04342
242.53826
241.04509
239.53275
237.9786
236.41667
234.83985
233.25848
231.64037
230.02269
228.41489
226.76177
225.10707
223.46379
221.79941
220.12788
218.46488
216.78383
215.11196
213.44076
211.7349
210.0663
208.41273
206.70874
205.02241
203.37968
201.7031
200.00118
198.36122
196.72147
195.01331
193.36807
191.76865
190.07652
188.42244
186.85462
185.19662
183.53525
181.98101
180.37932
178.72517
177.15675
175.60771
173.99026
172.4197
170.90115
169.31881
167.74249
166.24716
164.73379
163.1723
161.66103
160.19381
158.67576
157.15308
155.70713
154.27615
152.7711
151.27568
149.89583
148.48784
146.98706
145.56812
144.23835
142.82571
141.38334
140.05044
138.74446
137.37717
135.99871
134.69045
133.42704
132.11663
130.77963
129.51917
128.31341
127.03797
125.73326
124.53686
123.36628
122.11474
120.88935
119.75486
118.61352
117.41902
116.24391
115.13224
114.0408
112.93241
111.81028
110.70817
109.64897
108.60183
107.53444
106.47165
105.46554
104.49736
103.50692
102.49798
101.50616
100.55744
99.631366
98.67821
97.726507
96.829189
95.937482
95.024198
94.144888
93.299699
92.44279
91.58423
90.749934
89.93868
89.132528
88.333799
87.545572
86.758512
85.99831
85.266452
84.521096
83.787407
83.078095
82.359283
81.630363
80.906185
80.207584
79.519259
78.833682
78.18982
77.586031
76.970623
76.350189
75.750403
75.161095
74.598373
74.04073
73.492698
72.99231
72.508708
72.017453
71.545423
71.110873
70.669218
70.242823
69.893857
69.556022
69.176693
68.79515
68.416144
68.01207
67.6082
67.23153
66.880178
66.520436
66.179052
65.894191
65.630861
65.420339
65.284971
65.192446
65.171147
65.242329
65.352696
65.425568
65.500473
65.570805
65.552943
65.420604
65.505453
65.396842
65.090747
64.932017
64.654129
64.261975
63.976098
63.732494
63.374096
62.938755
62.548528
62.210969
62.009252
62.033855
62.142711
62.312115
62.765992
63.68398
65.229722
67.571611
70.85475
75.314966
81.91069
90.223502
102.25109
118.70914
142.13149
174.08624
216.51747
270.73542
337.78737
419.41999
514.95589
619.00832
729.28245
834.59283
921.9263
997.21738
1046.1197
280.09537
280.12858
280.13951
280.1282
280.08048
279.99673
279.87653
279.71992
279.52724
279.29895
279.03552
278.73737
278.40498
278.03875
277.63926
277.20651
276.74173
276.24362
275.71545
275.15275
274.56245
273.9366
273.28286
272.59758
271.87672
271.13447
270.34841
269.54193
268.70166
267.81993
266.92567
265.9824
265.01077
264.0217
262.97915
261.91597
260.82998
259.69034
258.53584
257.35704
256.11688
254.8764
253.6078
252.28207
250.93987
249.59879
248.19367
246.76486
245.3473
243.87144
242.37152
240.88233
239.35429
237.79767
236.23189
234.65506
233.07685
231.44408
229.83106
228.22188
226.55378
224.90431
223.26631
221.59554
219.92273
218.25291
216.57084
214.91015
213.22009
211.51284
209.87107
208.20177
206.48079
204.81256
203.17604
201.4797
199.77975
198.16263
196.50563
194.78766
193.17739
191.56127
189.84119
188.22526
186.65821
184.96129
183.32385
181.79342
180.16482
178.50717
176.96475
175.40659
173.77429
172.22205
170.7032
169.10389
167.53888
166.05801
164.53154
162.96747
161.47924
160.00313
158.46623
156.95818
155.52178
154.07878
152.5626
151.08103
149.71912
148.28872
146.76972
145.38685
144.07332
142.62308
141.17836
139.88247
138.57645
137.17258
135.78928
134.52343
133.27283
131.92091
130.57052
129.35373
128.15165
126.81198
125.51513
124.38986
123.21244
121.91203
120.70346
119.5988
118.42946
117.20854
116.05971
114.96966
113.86384
112.75531
111.65592
110.56086
109.49174
108.44084
107.36449
106.29878
105.30575
104.32084
103.3102
102.33512
101.37941
100.40041
99.441406
98.50921
97.57755
96.659128
95.761305
94.869099
93.978206
93.112548
92.275731
91.451328
90.61698
89.762493
88.93758
88.179928
87.423607
86.61172
85.832236
85.123232
84.393119
83.626778
82.899197
82.204369
81.480543
80.755123
80.070825
79.386302
78.705137
78.048326
77.407566
76.784112
76.181366
75.583342
74.994948
74.427917
73.874123
73.348237
72.855301
72.374097
71.886968
71.416859
70.968147
70.51345
70.115985
69.772756
69.385686
68.998106
68.633454
68.232469
67.833294
67.482276
67.152533
66.788449
66.406683
66.086995
65.824227
65.564
65.362593
65.246837
65.160997
65.145997
65.238485
65.378468
65.45896
65.552982
65.653326
65.67554
65.523509
65.47082
65.505169
65.205979
64.903866
64.61423
64.233886
63.913703
63.623167
63.258206
62.655527
61.899026
61.217822
60.870176
60.979617
61.022469
61.017932
61.211162
61.528969
61.757425
62.679182
64.474585
67.375479
71.030025
75.912279
83.215316
94.739097
111.6379
134.53024
165.55608
208.28122
263.27717
335.80376
425.34231
528.53188
645.9844
769.95571
892.63767
987.07236
1041.8604
279.97821
280.01117
280.02183
280.01
279.96157
279.87692
279.75571
279.59798
279.40411
279.17457
278.90984
278.61039
278.27671
277.90921
277.5085
277.07462
276.60876
276.10964
275.58054
275.01679
274.42596
273.79868
273.14513
272.45788
271.73742
270.99379
270.20584
269.40168
268.55583
267.67633
266.78255
265.83103
264.86563
263.87312
262.82404
261.76313
260.67567
259.52953
258.3743
257.19186
255.94821
254.70625
253.43143
252.09851
250.75776
249.41255
247.99674
246.57007
245.14502
243.65795
242.16847
240.66729
239.12669
237.57724
235.99935
234.42033
232.84474
231.20147
229.5875
227.96968
226.2978
224.65574
223.01163
221.33605
219.66358
217.98387
216.30649
214.649
212.94578
211.24958
209.60693
207.92602
206.2129
204.54349
202.90539
201.21147
199.50927
197.90158
196.23802
194.51434
192.92372
191.29861
189.55856
187.96329
186.40817
184.69586
183.06048
181.54124
179.90352
178.23994
176.71127
175.15121
173.51073
171.96902
170.45597
168.84713
167.28601
165.82124
164.27923
162.70478
161.24439
159.77159
158.20826
156.7065
155.30034
153.83797
152.29126
150.85914
149.51699
148.01874
146.50921
145.18344
143.83176
142.35709
140.96896
139.66783
138.32487
136.94013
135.56551
134.2851
133.04389
131.69949
130.33963
129.13505
127.93333
126.56796
125.28074
124.16954
122.95895
121.65775
120.50296
119.41096
118.20141
116.97008
115.85038
114.7624
113.63003
112.50875
111.42318
110.36377
109.31757
108.24559
107.14533
106.09544
105.11699
104.11454
103.07383
102.07796
101.14724
100.22195
99.244437
98.267691
97.372533
96.481654
95.54808
94.654607
93.796458
92.915464
92.049992
91.221818
90.409104
89.589018
88.750059
87.948452
87.190461
86.432974
85.67249
84.903356
84.170334
83.47047
82.736346
81.997663
81.266095
80.552815
79.87717
79.185523
78.511665
77.889082
77.2539
76.582518
75.926894
75.333255
74.775694
74.210309
73.6592
73.153655
72.673604
72.191501
71.704411
71.245066
70.79338
70.33447
69.92797
69.561802
69.186177
68.808578
68.435376
68.071996
67.720834
67.371928
67.004489
66.60469
66.218722
65.902387
65.619227
65.360515
65.206952
65.139925
65.100731
65.13119
65.272067
65.500472
65.63823
65.704557
65.91543
66.004422
65.872678
65.732836
65.617215
65.321087
64.899216
64.428707
63.988857
63.653586
63.392456
62.984662
62.100943
61.37015
60.604332
59.822223
59.604705
59.468578
58.94901
58.588568
58.491772
58.370782
58.321534
58.303534
58.535228
57.224064
55.645145
55.085634
55.196444
60.385772
71.593243
90.962797
119.84073
158.78683
218.03978
306.50888
418.05813
544.82442
682.8033
824.07732
934.72587
990.0015
279.8315
279.86418
279.8744
279.86181
279.81244
279.72666
279.60416
279.44503
279.24968
279.0186
278.75228
278.45123
278.11596
277.74688
277.34458
276.90921
276.44175
275.94132
275.41057
274.84574
274.25332
273.62487
272.97038
272.28127
271.56049
270.81519
270.02549
269.22198
268.37157
267.49392
266.59756
265.64181
264.68004
263.67975
262.63019
261.56837
260.4749
259.32549
258.17137
256.97604
255.73514
254.48925
253.20331
251.86366
250.53044
249.1694
247.74401
246.32434
244.88371
243.38831
241.90902
240.38538
238.83768
237.29626
235.70329
234.12319
232.53858
230.89524
229.27583
227.64342
225.97907
224.33841
222.67777
221.0032
219.33285
217.63889
215.97307
214.31195
212.59683
210.91782
209.2598
207.56944
205.87367
204.20137
202.55648
200.86472
199.17261
197.56214
195.88136
194.17531
192.59746
190.94732
189.21126
187.63687
186.06618
184.34942
182.74101
181.2192
179.54736
177.89492
176.39962
174.82315
173.1665
171.64118
170.13421
168.51819
166.96719
165.50396
163.94513
162.38693
160.93215
159.44305
157.89419
156.39032
154.98256
153.53661
151.96802
150.54019
149.22885
147.70502
146.18277
144.89069
143.52478
142.03932
140.68117
139.37103
138.01082
136.64239
135.2758
133.98036
132.73644
131.39496
130.04293
128.85618
127.63421
126.26065
125.00872
123.88902
122.63427
121.33772
120.20065
119.09701
117.90257
116.70673
115.58925
114.48553
113.35768
112.2354
111.11224
110.02898
109.02204
107.99481
106.88526
105.82375
104.85409
103.85653
102.82161
101.80174
100.81469
99.899109
98.978738
97.994262
97.06565
96.199075
95.301473
94.395246
93.533123
92.685572
91.816488
90.951016
90.105909
89.289223
88.493376
87.711368
86.908451
86.112735
85.395064
84.689253
83.924052
83.164367
82.475824
81.804765
81.050752
80.302888
79.621886
78.946853
78.25765
77.580235
76.954511
76.348502
75.713393
75.058915
74.434126
73.897426
73.39682
72.883028
72.406009
71.940243
71.448111
70.977586
70.546063
70.129594
69.723729
69.344621
68.977901
68.606844
68.246674
67.883585
67.50186
67.137043
66.769567
66.355957
65.961209
65.662513
65.426805
65.197451
65.017802
64.917659
64.910684
64.992628
65.173106
65.427409
65.706436
65.851833
65.962603
66.122522
66.12674
65.91449
65.757234
65.505863
65.10055
64.594451
64.118941
63.624728
63.377059
62.968548
61.419562
60.204773
59.208003
58.406603
58.425561
58.065686
58.607289
57.910793
54.889807
51.849133
46.089355
39.446815
32.127857
25.093567
18.816278
13.348247
9.3323802
8.0074932
8.9279672
12.040297
16.567585
22.405158
28.789375
79.660612
220.86289
378.91191
543.04674
710.04946
848.28674
912.29499
279.65544
279.68782
279.69745
279.68386
279.6333
279.54612
279.42206
279.26125
279.06411
278.83118
278.56296
278.26
277.9228
277.55184
277.14766
276.71049
276.24118
275.73916
275.20651
274.64043
274.04604
273.41657
272.76044
272.06985
271.3485
270.60076
269.81069
269.0057
268.15184
267.27675
266.37458
265.41782
264.45741
263.44778
262.40007
261.33521
260.23579
259.08127
257.92891
256.71792
255.48393
254.22535
252.93049
251.58888
250.25822
248.87234
247.44699
246.02999
244.57034
243.07069
241.59211
240.04692
238.49508
236.95724
235.35399
233.76587
232.16441
230.53304
228.90232
227.25679
225.60424
223.95301
222.27797
220.6065
218.93277
217.23571
215.57714
213.89996
212.19438
210.51773
208.83226
207.16268
205.47269
203.78326
202.15344
200.45606
198.75846
197.16187
195.46094
193.76247
192.2182
190.53758
188.79087
187.25685
185.6719
183.92702
182.34812
180.83896
179.13904
177.49079
176.02274
174.4388
172.76128
171.25404
169.7598
168.12003
166.58977
165.13461
163.54091
162.00589
160.57907
159.06488
157.51764
156.03412
154.61171
153.14658
151.60123
150.19198
148.84107
147.31379
145.83934
144.53494
143.13825
141.69163
140.34323
138.99198
137.64591
136.30684
134.93507
133.64329
132.39416
131.02376
129.67901
128.51559
127.27321
125.90496
124.69669
123.55407
122.26195
121.01832
119.89662
118.7038
117.49996
116.40015
115.2852
114.11513
113.02426
111.96811
110.82409
109.68544
108.66288
107.6474
106.55024
105.49704
104.52474
103.52139
102.51534
101.54231
100.54793
99.558157
98.619492
97.687906
96.729098
95.801055
94.955655
94.103978
93.206957
92.364652
91.567152
90.701767
89.825911
88.991145
88.165299
87.381786
86.623992
85.848783
85.054633
84.303635
83.629302
82.888011
82.126097
81.467086
80.780459
80.079814
79.368486
78.673899
78.030968
77.349332
76.67869
76.013551
75.39384
74.808637
74.158199
73.54389
73.019834
72.510862
72.037893
71.593433
71.126219
70.689576
70.273869
69.849035
69.455639
69.115293
68.767174
68.409891
68.062304
67.724201
67.343422
66.937377
66.524889
66.066726
65.57955
65.209962
65.00524
64.870446
64.783356
64.702571
64.778764
64.980931
65.247116
65.571631
65.92247
66.19464
66.368939
66.482185
66.452873
66.25417
65.889071
65.300887
64.737622
64.247539
63.683881
63.152182
63.19086
62.720524
59.629366
52.341898
45.31177
38.456461
31.752435
27.374988
25.570369
20.836133
10.433653
1.0430784
-0.29612547
-0.34533123
-0.3735693
-0.42209411
-0.4540545
-0.45018179
-0.43581494
-0.42837232
-0.43518336
-0.44587531
-0.45965446
-0.46370758
-0.45822549
0.52959274
13.245847
96.352648
319.42748
549.2793
720.37315
812.08016
279.45026
279.4823
279.4912
279.47639
279.42439
279.33554
279.20962
279.04682
278.8476
278.61249
278.34205
278.03683
277.69739
277.3242
276.9178
276.47852
276.00705
275.50313
274.96834
274.40066
273.80413
273.17328
272.5154
271.82299
271.10101
270.35046
269.56044
268.75237
267.89694
267.02255
266.11365
265.15887
264.19558
263.17706
262.13411
261.06157
259.9561
258.79803
257.64445
256.41834
255.18826
253.91521
252.61387
251.26961
249.93279
248.52287
247.10952
245.67767
244.20274
242.70503
241.20916
239.65811
238.09722
236.55007
234.94817
233.34361
231.72732
230.11099
228.45927
226.80677
225.16777
223.48868
221.81611
220.1523
218.45728
216.77032
215.10984
213.40346
211.72692
210.05609
208.33012
206.68188
205.01023
203.29726
201.66653
199.9821
198.27997
196.67457
194.98537
193.29335
191.74279
190.05897
188.32803
186.79511
185.18454
183.4518
181.9005
180.3606
178.65977
177.05716
175.56693
173.96323
172.30534
170.79626
169.30124
167.67802
166.14808
164.67284
163.09986
161.57717
160.11654
158.61888
157.09448
155.60665
154.1992
152.69535
151.14066
149.78986
148.40276
146.84279
145.43962
144.12459
142.67917
141.28707
139.93772
138.53376
137.21227
135.89129
134.49568
133.24439
132.02094
130.59378
129.25143
128.10888
126.83186
125.46824
124.3031
123.15305
121.83831
120.63305
119.54142
118.30439
117.05283
115.97821
114.91452
113.71384
112.5734
111.57341
110.49352
109.33077
108.27569
107.2679
106.16114
105.08607
104.1202
103.1125
102.08629
101.12092
100.18651
99.234518
98.249735
97.299307
96.393399
95.432084
94.504372
93.688141
92.849037
91.96258
91.134923
90.307598
89.4869
88.668084
87.809512
87.023666
86.272835
85.495237
84.732821
84.005719
83.266332
82.503074
81.81302
81.107844
80.283983
79.601116
78.990789
78.333306
77.663663
76.927814
76.314384
75.749447
75.021245
74.293583
73.720479
73.196604
72.661289
72.129519
71.617317
71.112162
70.640633
70.182552
69.775227
68.05939
65.054854
62.222805
59.546574
56.950671
54.361423
51.654893
48.775967
45.827685
42.890204
40.017653
37.39737
35.243428
33.608246
32.446663
31.780718
31.669661
32.155014
33.238667
34.807226
36.645061
38.493839
40.065679
41.065993
41.369299
40.978707
39.691069
37.181007
33.692813
29.93793
25.850616
21.038633
15.981307
11.090034
5.3526841
0.11268114
-0.29428487
-0.29950272
-0.28895032
-0.28026515
-0.2655593
-0.24381975
-0.19755435
-0.17556637
-0.17721918
-0.21190871
-0.29249058
-0.3688714
-0.43520114
-0.47105383
-0.46738196
-0.45259977
-0.44902515
-0.45709208
-0.47690044
-0.50398845
-0.52852567
-0.56551692
-0.5319809
-0.7079111
1.5869766
68.713558
308.40104
521.63407
637.03793
279.21626
279.24788
279.25593
279.23967
279.18598
279.09518
278.96711
278.802
278.60035
278.36273
278.08972
277.78192
277.43987
277.06411
276.65518
276.21345
275.73954
275.2334
274.69623
274.12669
273.52779
272.8954
272.23548
271.54113
270.81853
270.0645
269.27533
268.46314
267.60676
266.73205
265.8165
264.86395
263.89645
262.86997
261.83123
260.74858
259.637
258.47875
257.31402
256.08309
254.84552
253.56384
252.25125
250.90541
249.55455
248.12674
246.72604
245.27047
243.78376
242.28764
240.76117
239.21974
237.64679
236.07883
234.4807
232.85899
231.23563
229.6228
227.94904
226.29428
224.66511
222.95061
221.28937
219.63541
217.91643
216.24284
214.56347
212.84837
211.18671
209.51044
207.78403
206.12601
204.45563
202.76064
201.11635
199.4163
197.74678
196.12982
194.4265
192.77481
191.19962
189.48303
187.8117
186.28819
184.61781
182.9051
181.39084
179.8244
178.11118
176.5385
175.0586
173.4263
171.77097
170.29629
168.77409
167.15722
165.66584
164.14296
162.5819
161.10979
159.6004
158.10084
156.61197
155.10164
153.7091
152.21136
150.63199
149.30453
147.90659
146.33052
144.97495
143.65016
142.16293
140.81717
139.4811
138.03934
136.7393
135.42354
133.98742
132.75002
131.56977
130.14625
128.80084
127.63909
126.34102
124.99414
123.83465
122.64592
121.34898
120.20498
119.09775
117.84835
116.64891
115.54231
114.41686
113.27921
112.15301
111.06716
110.01551
108.93751
107.86673
106.83611
105.76116
104.68317
103.68109
102.67177
101.6495
100.64777
99.655911
98.738014
97.876618
96.886994
95.911196
95.091616
94.226371
93.282543
92.39904
91.61027
90.755154
89.7703
88.938847
88.262335
87.384576
86.517671
85.833138
85.164175
84.332283
83.609485
83.035218
82.186084
81.425561
80.945646
79.984663
79.118316
77.801861
72.658767
67.057029
61.324051
55.873406
50.764367
45.517813
40.115147
34.958489
30.148271
25.567624
21.1838
16.96049
12.87222
8.9450413
5.1986769
1.6157253
-0.094542355
-0.10667446
-0.1096735
-0.11491368
-0.12117464
-0.12755213
-0.1344751
-0.14216763
-0.15027489
-0.15861167
-0.16644826
-0.17283078
-0.17603536
-0.17651425
-0.1753886
-0.17458096
-0.17411576
-0.17413377
-0.17551571
-0.17911449
-0.18453781
-0.18913558
-0.19142547
-0.19084931
-0.18842846
-0.18859573
-0.19615166
-0.21150445
-0.23284996
-0.2519107
-0.26190849
-0.26402541
-0.26494614
-0.25596779
-0.23582791
-0.20267241
-0.20099021
-0.22742543
-0.23901052
-0.24513662
-0.24908266
-0.24036721
-0.21162791
-0.17314714
-0.17631011
-0.24754623
-0.32298934
-0.38841593
-0.43552413
-0.46129298
-0.46374904
-0.46066169
-0.46294038
-0.47391643
-0.49399003
-0.52292342
-0.55508538
-0.59447969
-0.60993175
-0.73846945
-1.0375917
2.3666447
104.57306
337.44627
419.20172
278.95373
278.98488
278.99193
278.97401
278.91838
278.82534
278.69479
278.52705
278.32263
278.08214
277.8062
277.49544
277.15044
276.77176
276.35995
275.91544
275.43879
274.93012
274.39034
273.81861
273.21722
272.58296
271.92086
271.22453
270.50074
269.74377
268.95485
268.13852
267.28227
266.4043
265.48452
264.53362
263.55879
262.52884
261.48941
260.39803
259.27792
258.12309
256.9389
255.7098
254.45681
253.17164
251.84108
250.49823
249.12034
247.68907
246.28187
244.82236
243.31157
241.8079
240.26222
238.72112
237.13509
235.54939
233.95218
232.31195
230.68769
229.06373
227.36998
225.72746
224.08211
222.34634
220.70711
219.03602
217.2988
215.65709
213.94399
212.21978
210.5942
208.88673
207.15495
205.52114
203.82898
202.12634
200.50646
198.79987
197.12209
195.52284
193.81776
192.16118
190.57715
188.87031
187.22239
185.68627
184.00188
182.32604
180.78775
179.19525
177.53847
175.93706
174.44404
172.8585
171.17104
169.70232
168.21363
166.56838
165.08505
163.5812
162.00718
160.53437
159.02869
157.54994
156.07531
154.54749
153.13319
151.64895
150.0873
148.74581
147.34383
145.78471
144.41823
143.08181
141.61565
140.26271
138.92154
137.51619
136.23229
134.8762
133.44494
132.2182
130.9931
129.61753
128.34237
127.1255
125.78198
124.48025
123.32564
122.08497
120.78443
119.68677
118.57507
117.28896
116.15869
115.1154
113.89267
112.72089
111.70196
110.61387
109.44668
108.34667
107.3844
106.38609
105.25002
104.20622
103.27671
102.23025
101.1801
100.22114
99.150424
98.087104
97.269752
96.376778
95.37473
94.469723
93.723067
92.971503
92.021759
91.090951
90.451859
89.485074
88.294542
87.687232
82.876996
75.090338
67.713582
60.607543
53.554687
46.618214
39.866858
33.144335
26.448752
19.813182
13.085985
6.3972076
0.73298823
-0.037363665
-0.05869096
-0.080399218
-0.11169067
-0.14343231
-0.17188093
-0.19495081
-0.21271612
-0.22322122
-0.22099675
-0.20740051
-0.18686967
-0.16401889
-0.14348217
-0.12803398
-0.12009122
-0.11119247
-0.10971395
-0.11181452
-0.11591113
-0.1209484
-0.12649906
-0.13320712
-0.14119351
-0.15004412
-0.15937596
-0.16784608
-0.17349633
-0.17508256
-0.17322229
-0.17116892
-0.17146322
-0.17271357
-0.17352994
-0.17575866
-0.18083169
-0.18834097
-0.19672752
-0.20057825
-0.19759781
-0.19123451
-0.18715697
-0.18768635
-0.19511198
-0.2103902
-0.23026528
-0.24623529
-0.25814532
-0.26876988
-0.2607466
-0.22553653
-0.20685187
-0.23109002
-0.25570684
-0.26012142
-0.25037101
-0.24069534
-0.22968213
-0.21393374
-0.20051238
-0.20787327
-0.24184863
-0.29358769
-0.34409119
-0.39103283
-0.42310992
-0.43955491
-0.44908704
-0.46006539
-0.47670918
-0.50036862
-0.53189553
-0.56722341
-0.62529247
-0.66348832
-0.75707459
-0.72249196
-0.65389816
52.89133
220.02706
258.4104
278.66305
278.69365
278.69956
278.67976
278.62193
278.52634
278.393
278.22226
278.0147
277.77096
277.49172
277.17762
276.82929
276.44733
276.0323
275.58467
275.10497
274.59346
274.05083
273.47665
272.87255
272.23629
271.57172
270.8735
270.14814
269.38834
268.59958
267.77909
266.92309
266.04129
265.11799
264.16793
263.18375
262.15514
261.10729
260.01189
258.88177
257.7277
256.52437
255.29639
254.02575
252.73898
251.38552
250.04584
248.63553
247.20476
245.79298
244.31692
242.77816
241.27824
239.71416
238.15464
236.56191
234.96118
233.35873
231.70082
230.0837
228.43038
226.72386
225.10466
223.41964
221.68646
220.04825
218.36435
216.61881
214.97516
213.27773
211.52182
209.91071
208.21614
206.44103
204.83648
203.15961
201.41168
199.80556
198.14541
196.42896
194.81379
193.17226
191.47952
189.85041
188.22731
186.5772
184.97779
183.33557
181.68773
180.10767
178.506
176.89576
175.28208
173.76819
172.20693
170.51646
169.04371
167.57257
165.92651
164.42859
162.94777
161.40021
159.89087
158.38261
156.9412
155.45481
153.94079
152.52298
151.0075
149.49582
148.13911
146.68719
145.20569
143.83073
142.41202
141.0131
139.66923
138.25282
136.91295
135.68376
134.27034
132.84682
131.67623
130.35383
128.93918
127.80402
126.57857
125.18477
123.96325
122.77769
121.46029
120.21228
119.11517
117.92996
116.66823
115.61555
114.57481
113.35052
112.17476
111.12708
110.10729
109.00141
107.75726
106.68522
105.86997
104.70497
103.56196
102.70207
101.75485
100.62413
99.698699
98.762186
97.449072
96.746545
92.844386
83.287999
74.000492
65.035543
56.19514
47.289921
38.412431
29.663769
20.771622
11.96375
3.5890129
-0.0025413797
-0.0074621797
0.0015047339
0.0050044123
0.0065752494
0.0086969626
0.01207242
0.015381491
0.0157243
0.014078083
0.010149187
0.0023072032
-0.010461576
-0.026403068
-0.051058328
-0.08198415
-0.11606236
-0.14847002
-0.1781785
-0.20506466
-0.22313455
-0.22870195
-0.22335596
-0.20981056
-0.18863007
-0.16360584
-0.14085615
-0.12441999
-0.11478023
-0.10930967
-0.10878088
-0.11220124
-0.11716729
-0.12200314
-0.12708254
-0.13323533
-0.14096342
-0.15060043
-0.16168212
-0.17196424
-0.17825416
-0.18012333
-0.17708991
-0.17302856
-0.1711692
-0.17115133
-0.17157342
-0.17355604
-0.17798804
-0.18422728
-0.19114214
-0.19415114
-0.19150782
-0.18814626
-0.18809515
-0.19409147
-0.20544051
-0.22059061
-0.23503308
-0.24402336
-0.24917341
-0.25038171
-0.24393877
-0.22498196
-0.21298036
-0.21893659
-0.22827524
-0.23577685
-0.23740287
-0.23407567
-0.22828797
-0.22153738
-0.22020012
-0.23350656
-0.26261137
-0.29933571
-0.33603353
-0.36884766
-0.39559438
-0.41520277
-0.43132832
-0.44832247
-0.46914442
-0.49610935
-0.53078096
-0.57440168
-0.64174405
-0.67676036
-0.82450974
-0.71601634
-0.7133927
44.897198
160.80224
193.20544
278.34459
278.37457
278.37918
278.35729
278.29699
278.19854
278.06205
277.88794
277.67684
277.42946
277.14651
276.82869
276.47665
276.09104
275.67242
275.22133
274.73828
274.22361
273.67789
273.10098
272.49403
271.85552
271.18837
270.48825
269.7609
268.99893
268.20932
267.38549
266.52964
265.64353
264.71802
263.76682
262.77277
261.74809
260.68738
259.59042
258.4498
257.29315
256.07128
254.84375
253.55417
252.26183
250.8908
249.54198
248.11612
246.66617
245.2609
243.75547
242.1844
240.69575
239.10131
237.52855
235.93805
234.30425
232.70269
231.02801
229.40399
227.73355
226.01662
224.40175
222.69292
220.96991
219.30661
217.61722
215.88746
214.2088
212.53322
210.78266