/*--------------------------------*- C++ -*----------------------------------*\
| =========                 |                                                 |
| \\      /  F ield         | OpenFOAM: The Open Source CFD Toolbox           |
|  \\    /   O peration     | Version:  2106                                  |
|   \\  /    A nd           | Website:  www.openfoam.com                      |
|    \\/     M anipulation  |                                                 |
\*---------------------------------------------------------------------------*/
FoamFile
{
    version     2.0;
    format      ascii;
    arch        "LSB;label=32;scalar=64";
    class       surfaceScalarField;
    location    "0.021";
    object      phi;
}
// * * * * * * * * * * * * * * * * * * * * * * * * * * * * * * * * * * * * * //

dimensions      [0 3 -1 0 0 0 0];

oriented        oriented;

internalField   nonuniform List<scalar> 
130560
(
1.1304691e-05
-1.1304691e-05
2.2601958e-05
-1.1297268e-05
3.3884385e-05
-1.1282427e-05
4.5144566e-05
-1.1260181e-05
5.6375112e-05
-1.1230547e-05
6.7568661e-05
-1.1193549e-05
7.8717877e-05
-1.1149216e-05
8.9815462e-05
-1.1097585e-05
0.00010085416
-1.1038696e-05
0.00011182676
-1.0972596e-05
0.00012272609
-1.0899339e-05
0.00013354507
-1.0818981e-05
0.00014427666
-1.0731588e-05
0.00015491389
-1.0637228e-05
0.00016544987
-1.0535976e-05
0.00017587778
-1.0427913e-05
0.0001861909
-1.0313123e-05
0.0001963826
-1.0191697e-05
0.00020644633
-1.006373e-05
0.00021637565
-9.9293226e-06
0.00022616423
-9.7885801e-06
0.00023580584
-9.6416118e-06
0.00024529438
-9.4885322e-06
0.00025462384
-9.3294599e-06
0.00026378835
-9.1645178e-06
0.00027278219
-8.993833e-06
0.00028159972
-8.8175365e-06
0.00029023549
-8.6357632e-06
0.00029868414
-8.4486516e-06
0.00030694048
-8.2563439e-06
0.00031499947
-8.0589855e-06
0.00032285619
-7.8567252e-06
0.00033050591
-7.6497146e-06
0.00033794402
-7.4381085e-06
0.00034516608
-7.2220643e-06
0.00035216782
-7.0017419e-06
0.00035894513
-6.7773036e-06
0.00036549404
-6.5489141e-06
0.00037181078
-6.3167401e-06
0.00037789173
-6.08095e-06
0.00038373344
-5.8417142e-06
0.00038933265
-5.5992046e-06
0.00039468624
-5.3535944e-06
0.0003997913
-5.105058e-06
0.00040464507
-4.853771e-06
0.00040924498
-4.5999098e-06
0.00041358863
-4.3436515e-06
0.00041767381
-4.0851739e-06
0.00042149846
-3.824655e-06
0.00042506074
-3.5622731e-06
0.00042835894
-3.2982068e-06
0.00043139158
-3.0326344e-06
0.00043415731
-2.7657339e-06
0.00043665499
-2.4976832e-06
0.00043888365
-2.2286594e-06
0.00044084249
-1.9588393e-06
0.00044253089
-1.6883984e-06
0.0004439484
-1.4175117e-06
0.00044509476
-1.1463528e-06
0.00044596985
-8.7509439e-07
0.00044657376
-6.0390753e-07
0.00044690672
-3.3296209e-07
0.00044696915
-6.242588e-08
0.00044676161
2.075305e-07
0.00044628486
4.7675057e-07
0.00044553979
7.4506913e-07
0.00044452747
1.0123209e-06
0.00044324912
1.2783497e-06
0.00044170612
1.5429994e-06
0.00043990001
1.8061156e-06
0.00043783246
2.0675467e-06
0.00043550532
2.3271433e-06
0.00043292056
2.5847586e-06
0.00043008031
2.8402482e-06
0.00042698684
3.0934707e-06
0.00042364255
3.3442871e-06
0.00042004999
3.5925614e-06
0.00041621183
3.8381603e-06
0.00041213088
4.0809533e-06
0.00040781007
4.3208128e-06
0.00040325245
4.5576144e-06
0.00039846122
4.7912362e-06
0.00039343966
5.0215598e-06
0.00038819119
5.2484693e-06
0.00038271933
5.4718523e-06
0.00037702774
5.691599e-06
0.00037112013
5.907603e-06
0.00036500037
6.1197607e-06
0.0003586724
6.3279718e-06
0.00035214026
6.5321387e-06
0.00034540809
6.7321671e-06
0.00033848013
6.9279656e-06
0.00033136068
7.119446e-06
0.00032405416
7.3065227e-06
0.00031656505
7.4891135e-06
0.00030889791
7.6671389e-06
0.00030105739
7.8405224e-06
0.00029304819
8.0091903e-06
0.00028487512
8.1730718e-06
0.00027654302
8.332099e-06
0.00026805682
8.4862067e-06
0.00025942148
8.6353325e-06
0.00025064207
8.7794167e-06
0.00024172367
8.9184023e-06
0.00023267143
9.0522348e-06
0.00022349057
9.1808624e-06
0.00021418633
9.304236e-06
0.00020476402
9.4223088e-06
0.00019522899
9.5350364e-06
0.00018558661
9.6423771e-06
0.00017584232
9.7442915e-06
0.00016600158
9.8407424e-06
0.00015606988
9.9316949e-06
0.00014605276
1.0017117e-05
0.00013595579
1.0096977e-05
0.00012578454
1.0171249e-05
0.00011554463
1.0239905e-05
0.00010524171
1.0302923e-05
9.4881431e-05
1.0360279e-05
8.4469476e-05
1.0411956e-05
7.4011542e-05
1.0457934e-05
6.3513342e-05
1.0498199e-05
5.2980605e-05
1.0532737e-05
4.2419069e-05
1.0561536e-05
3.1834481e-05
1.0584587e-05
2.1232599e-05
1.0601882e-05
1.0619183e-05
1.0613416e-05
4.060165e-15
1.0619183e-05
-1.0619183e-05
1.0619183e-05
-2.1232599e-05
1.0613416e-05
-3.1834481e-05
1.0601882e-05
-4.2419069e-05
1.0584587e-05
-5.2980605e-05
1.0561536e-05
-6.3513342e-05
1.0532737e-05
-7.4011542e-05
1.0498199e-05
-8.4469476e-05
1.0457934e-05
-9.4881431e-05
1.0411956e-05
-0.00010524171
1.0360279e-05
-0.00011554463
1.0302923e-05
-0.00012578454
1.0239905e-05
-0.00013595579
1.0171249e-05
-0.00014605276
1.0096977e-05
-0.00015606988
1.0017117e-05
-0.00016600158
9.9316949e-06
-0.00017584232
9.8407424e-06
-0.00018558661
9.7442915e-06
-0.00019522899
9.6423771e-06
-0.00020476402
9.5350364e-06
-0.00021418633
9.4223088e-06
-0.00022349057
9.304236e-06
-0.00023267143
9.1808624e-06
-0.00024172367
9.0522348e-06
-0.00025064207
8.9184023e-06
-0.00025942148
8.7794167e-06
-0.00026805682
8.6353325e-06
-0.00027654302
8.4862067e-06
-0.00028487512
8.332099e-06
-0.00029304819
8.1730718e-06
-0.00030105739
8.0091903e-06
-0.00030889791
7.8405224e-06
-0.00031656505
7.6671389e-06
-0.00032405416
7.4891135e-06
-0.00033136068
7.3065227e-06
-0.00033848013
7.119446e-06
-0.00034540809
6.9279656e-06
-0.00035214026
6.7321671e-06
-0.0003586724
6.5321387e-06
-0.00036500037
6.3279718e-06
-0.00037112013
6.1197607e-06
-0.00037702774
5.907603e-06
-0.00038271933
5.691599e-06
-0.00038819119
5.4718523e-06
-0.00039343966
5.2484693e-06
-0.00039846122
5.0215598e-06
-0.00040325245
4.7912362e-06
-0.00040781007
4.5576144e-06
-0.00041213088
4.3208128e-06
-0.00041621183
4.0809533e-06
-0.00042004999
3.8381603e-06
-0.00042364255
3.5925614e-06
-0.00042698684
3.3442871e-06
-0.00043008031
3.0934707e-06
-0.00043292056
2.8402482e-06
-0.00043550532
2.5847586e-06
-0.00043783246
2.3271433e-06
-0.00043990001
2.0675467e-06
-0.00044170612
1.8061156e-06
-0.00044324912
1.5429994e-06
-0.00044452747
1.2783497e-06
-0.00044553979
1.0123209e-06
-0.00044628486
7.4506913e-07
-0.00044676161
4.7675057e-07
-0.00044696915
2.075305e-07
-0.00044690672
-6.242588e-08
-0.00044657376
-3.3296209e-07
-0.00044596985
-6.0390753e-07
-0.00044509476
-8.7509439e-07
-0.0004439484
-1.1463528e-06
-0.00044253089
-1.4175117e-06
-0.00044084249
-1.6883984e-06
-0.00043888365
-1.9588393e-06
-0.00043665499
-2.2286594e-06
-0.00043415731
-2.4976832e-06
-0.00043139158
-2.7657339e-06
-0.00042835894
-3.0326344e-06
-0.00042506074
-3.2982068e-06
-0.00042149846
-3.5622731e-06
-0.00041767381
-3.824655e-06
-0.00041358863
-4.0851739e-06
-0.00040924498
-4.3436515e-06
-0.00040464507
-4.5999098e-06
-0.0003997913
-4.853771e-06
-0.00039468624
-5.105058e-06
-0.00038933265
-5.3535944e-06
-0.00038373344
-5.5992046e-06
-0.00037789173
-5.8417142e-06
-0.00037181078
-6.08095e-06
-0.00036549404
-6.3167401e-06
-0.00035894513
-6.5489141e-06
-0.00035216782
-6.7773036e-06
-0.00034516608
-7.0017419e-06
-0.00033794402
-7.2220643e-06
-0.00033050591
-7.4381085e-06
-0.00032285619
-7.6497146e-06
-0.00031499947
-7.8567252e-06
-0.00030694048
-8.0589855e-06
-0.00029868414
-8.2563439e-06
-0.00029023549
-8.4486516e-06
-0.00028159972
-8.6357632e-06
-0.00027278219
-8.8175365e-06
-0.00026378835
-8.993833e-06
-0.00025462384
-9.1645178e-06
-0.00024529438
-9.3294599e-06
-0.00023580584
-9.4885322e-06
-0.00022616423
-9.6416118e-06
-0.00021637565
-9.7885801e-06
-0.00020644633
-9.9293226e-06
-0.0001963826
-1.006373e-05
-0.0001861909
-1.0191697e-05
-0.00017587778
-1.0313123e-05
-0.00016544987
-1.0427913e-05
-0.00015491389
-1.0535976e-05
-0.00014427666
-1.0637228e-05
-0.00013354507
-1.0731588e-05
-0.00012272609
-1.0818981e-05
-0.00011182676
-1.0899339e-05
-0.00010085416
-1.0972596e-05
-8.9815462e-05
-1.1038696e-05
-7.8717877e-05
-1.1097585e-05
-6.7568661e-05
-1.1149216e-05
-5.6375112e-05
-1.1193549e-05
-4.5144566e-05
-1.1230547e-05
-3.3884385e-05
-1.1260181e-05
-2.2601958e-05
-1.1282427e-05
-1.1304691e-05
-1.1297268e-05
-1.1304691e-05
1.1318461e-05
-2.2623152e-05
2.2629489e-05
-2.2608296e-05
3.3925657e-05
-2.2578595e-05
4.519955e-05
-2.2534074e-05
5.6443771e-05
-2.2474767e-05
6.7650946e-05
-2.2400724e-05
7.8813731e-05
-2.2312002e-05
8.9924819e-05
-2.2208672e-05
0.00010097694
-2.2090818e-05
0.00011196288
-2.1958534e-05
0.00012287546
-2.1811924e-05
0.00013370759
-2.1651105e-05
0.00014445221
-2.1476206e-05
0.00015510234
-2.1287364e-05
0.0001656511
-2.108473e-05
0.00017609165
-2.0868464e-05
0.00018641726
-2.0638737e-05
0.00019662129
-2.0395728e-05
0.00020669719
-2.0139631e-05
0.00021663851
-1.9870644e-05
0.00022643891
-1.9588978e-05
0.00023609215
-1.9294853e-05
0.00024559212
-1.8988498e-05
0.00025493281
-1.867015e-05
0.00026410835
-1.8340055e-05
0.00027311298
-1.7998468e-05
0.0002819411
-1.764565e-05
0.0002905872
-1.7281872e-05
0.00029904596
-1.6907411e-05
0.00030731217
-1.6522551e-05
0.00031538077
-1.6127584e-05
0.00032324685
-1.5722807e-05
0.00033090566
-1.5308524e-05
0.0003383526
-1.4885045e-05
0.00034558322
-1.4452684e-05
0.00035259324
-1.4011761e-05
0.00035937853
-1.3562602e-05
0.00036593516
-1.3105536e-05
0.00037225931
-1.2640897e-05
0.00037834738
-1.2169021e-05
0.00038419592
-1.1690251e-05
0.00038980165
-1.1204929e-05
0.00039516145
-1.0713402e-05
0.00040027241
-1.021602e-05
0.00040513178
-9.7131338e-06
0.00040973696
-9.2050965e-06
0.00041408558
-8.6922627e-06
0.00041817539
-8.1749879e-06
0.00042200436
-7.6536288e-06
0.00042557063
-7.128542e-06
0.00042887251
-6.6000848e-06
0.00043190849
-6.0686142e-06
0.00043467724
-5.5344865e-06
0.00043717762
-4.9980576e-06
0.00043940864
-4.4596821e-06
0.00044136951
-3.9197135e-06
0.00044305962
-3.3785034e-06
0.00044447851
-2.8364018e-06
0.00044562591
-2.2937563e-06
0.00044650173
-1.7509122e-06
0.00044710604
-1.2082123e-06
0.00044743907
-6.6599616e-07
0.00044750124
-1.2460071e-07
0.00044729313
4.1563986e-07
0.00044681549
9.5439994e-07
0.0004460692
1.4913528e-06
0.00044505535
2.026174e-06
0.00044377515
2.5585469e-06
0.00044222999
3.0881589e-06
0.00044042141
3.6147015e-06
0.00043835108
4.1378709e-06
0.00043602086
4.6573683e-06
0.00043343272
5.1728999e-06
0.00043058879
5.684177e-06
0.00042749134
6.1909163e-06
0.00042414279
6.69284e-06
0.00042054567
7.1896757e-06
0.00041670268
7.6811566e-06
0.00041261661
8.1670217e-06
0.00040829041
8.6470158e-06
0.00040372713
9.1208896e-06
0.00039892997
9.5883997e-06
0.00039390222
1.0049309e-05
0.0003886473
1.0503385e-05
0.00038316875
1.0950403e-05
0.00037747021
1.1390144e-05
0.00037155541
1.1822395e-05
0.00036542823
1.2246948e-05
0.0003590926
1.2663603e-05
0.00035255257
1.3072164e-05
0.00034581229
1.3472443e-05
0.000338876
1.3864257e-05
0.00033174802
1.4247429e-05
0.00032443275
1.4621789e-05
0.0003169347
1.4987171e-05
0.00030925842
1.5343416e-05
0.00030140857
1.5690373e-05
0.00029338987
1.6027892e-05
0.00028520711
1.6355833e-05
0.00027686515
1.667406e-05
0.00026836891
1.6982441e-05
0.00025972339
1.7280854e-05
0.00025093363
1.7569177e-05
0.00024200474
1.7847297e-05
0.00023294186
1.8115105e-05
0.00022375023
1.8372497e-05
0.00021443509
1.8619376e-05
0.00020500175
1.8855647e-05
0.00019545557
1.9081221e-05
0.00018580193
1.9296016e-05
0.00017604627
1.9499953e-05
0.00016619405
1.9692956e-05
0.00015625079
1.9874957e-05
0.00014622202
2.004589e-05
0.0001361133
2.0205695e-05
0.00012593023
2.0354315e-05
0.00011567844
2.04917e-05
0.00010536356
2.06178e-05
9.4991268e-05
2.0732573e-05
8.4567243e-05
2.083598e-05
7.4097193e-05
2.0927985e-05
6.3586835e-05
2.1008557e-05
5.3041904e-05
2.1077668e-05
4.2468143e-05
2.1135297e-05
3.1871308e-05
2.1181423e-05
2.125716e-05
2.1216031e-05
1.0631467e-05
2.1239109e-05
3.8299562e-15
2.125065e-05
-1.0631467e-05
2.125065e-05
-2.125716e-05
2.1239109e-05
-3.1871308e-05
2.1216031e-05
-4.2468143e-05
2.1181423e-05
-5.3041904e-05
2.1135297e-05
-6.3586835e-05
2.1077668e-05
-7.4097193e-05
2.1008557e-05
-8.4567243e-05
2.0927985e-05
-9.4991268e-05
2.083598e-05
-0.00010536356
2.0732573e-05
-0.00011567844
2.06178e-05
-0.00012593023
2.04917e-05
-0.0001361133
2.0354315e-05
-0.00014622202
2.0205695e-05
-0.00015625079
2.004589e-05
-0.00016619405
1.9874957e-05
-0.00017604627
1.9692956e-05
-0.00018580193
1.9499953e-05
-0.00019545557
1.9296016e-05
-0.00020500175
1.9081221e-05
-0.00021443509
1.8855647e-05
-0.00022375023
1.8619376e-05
-0.00023294186
1.8372497e-05
-0.00024200474
1.8115105e-05
-0.00025093363
1.7847297e-05
-0.00025972339
1.7569177e-05
-0.00026836891
1.7280854e-05
-0.00027686515
1.6982441e-05
-0.00028520711
1.667406e-05
-0.00029338987
1.6355833e-05
-0.00030140857
1.6027892e-05
-0.00030925842
1.5690373e-05
-0.0003169347
1.5343416e-05
-0.00032443275
1.4987171e-05
-0.00033174802
1.4621789e-05
-0.000338876
1.4247429e-05
-0.00034581229
1.3864257e-05
-0.00035255257
1.3472443e-05
-0.0003590926
1.3072164e-05
-0.00036542823
1.2663603e-05
-0.00037155541
1.2246948e-05
-0.00037747021
1.1822395e-05
-0.00038316875
1.1390144e-05
-0.0003886473
1.0950403e-05
-0.00039390222
1.0503385e-05
-0.00039892997
1.0049309e-05
-0.00040372713
9.5883997e-06
-0.00040829041
9.1208896e-06
-0.00041261661
8.6470158e-06
-0.00041670268
8.1670217e-06
-0.00042054567
7.6811566e-06
-0.00042414279
7.1896757e-06
-0.00042749134
6.69284e-06
-0.00043058879
6.1909163e-06
-0.00043343272
5.684177e-06
-0.00043602086
5.1728999e-06
-0.00043835108
4.6573683e-06
-0.00044042141
4.1378709e-06
-0.00044222999
3.6147015e-06
-0.00044377515
3.0881589e-06
-0.00044505535
2.5585469e-06
-0.0004460692
2.026174e-06
-0.00044681549
1.4913528e-06
-0.00044729313
9.5439994e-07
-0.00044750124
4.1563986e-07
-0.00044743907
-1.2460071e-07
-0.00044710604
-6.6599616e-07
-0.00044650173
-1.2082123e-06
-0.00044562591
-1.7509122e-06
-0.00044447851
-2.2937563e-06
-0.00044305962
-2.8364018e-06
-0.00044136951
-3.3785034e-06
-0.00043940864
-3.9197135e-06
-0.00043717762
-4.4596821e-06
-0.00043467724
-4.9980576e-06
-0.00043190849
-5.5344865e-06
-0.00042887251
-6.0686142e-06
-0.00042557063
-6.6000848e-06
-0.00042200436
-7.128542e-06
-0.00041817539
-7.6536288e-06
-0.00041408558
-8.1749879e-06
-0.00040973696
-8.6922627e-06
-0.00040513178
-9.2050965e-06
-0.00040027241
-9.7131338e-06
-0.00039516145
-1.021602e-05
-0.00038980165
-1.0713402e-05
-0.00038419592
-1.1204929e-05
-0.00037834738
-1.1690251e-05
-0.00037225931
-1.2169021e-05
-0.00036593516
-1.2640897e-05
-0.00035937853
-1.3105536e-05
-0.00035259324
-1.3562602e-05
-0.00034558322
-1.4011761e-05
-0.0003383526
-1.4452684e-05
-0.00033090566
-1.4885045e-05
-0.00032324685
-1.5308524e-05
-0.00031538077
-1.5722807e-05
-0.00030731217
-1.6127584e-05
-0.00029904596
-1.6522551e-05
-0.0002905872
-1.6907411e-05
-0.0002819411
-1.7281872e-05
-0.00027311298
-1.764565e-05
-0.00026410835
-1.7998468e-05
-0.00025493281
-1.8340055e-05
-0.00024559212
-1.867015e-05
-0.00023609215
-1.8988498e-05
-0.00022643891
-1.9294853e-05
-0.00021663851
-1.9588978e-05
-0.00020669719
-1.9870644e-05
-0.00019662129
-2.0139631e-05
-0.00018641726
-2.0395728e-05
-0.00017609165
-2.0638737e-05
-0.0001656511
-2.0868464e-05
-0.00015510234
-2.108473e-05
-0.00014445221
-2.1287364e-05
-0.00013370759
-2.1476206e-05
-0.00012287546
-2.1651105e-05
-0.00011196288
-2.1811924e-05
-0.00010097694
-2.1958534e-05
-8.9924819e-05
-2.2090818e-05
-7.8813731e-05
-2.2208672e-05
-6.7650946e-05
-2.2312002e-05
-5.6443771e-05
-2.2400724e-05
-4.519955e-05
-2.2474767e-05
-3.3925657e-05
-2.2534074e-05
-2.2629489e-05
-2.2578595e-05
-1.1318461e-05
-2.2608296e-05
-2.2623152e-05
1.1342287e-05
-3.3965439e-05
2.2677126e-05
-3.3943134e-05
3.3997071e-05
-3.3898541e-05
4.5294693e-05
-3.3831696e-05
5.6562578e-05
-3.3742652e-05
6.7793337e-05
-3.3631482e-05
7.8979609e-05
-3.3498274e-05
9.011407e-05
-3.3343134e-05
0.00010118944
-3.3166186e-05
0.00011219847
-3.2967572e-05
0.000123134
-3.2747449e-05
0.00013398889
-3.2505994e-05
0.00014475608
-3.2243398e-05
0.00015542859
-3.1959869e-05
0.00016599949
-3.1655632e-05
0.00017646195
-3.1330928e-05
0.00018680923
-3.0986013e-05
0.00019703466
-3.0621158e-05
0.00020713168
-3.023665e-05
0.00021709382
-2.9832791e-05
0.00022691474
-2.9409896e-05
0.00023658818
-2.8968296e-05
0.00024610802
-2.8508332e-05
0.00025546823
-2.8030363e-05
0.00026466293
-2.7534758e-05
0.00027368636
-2.7021898e-05
0.00028253289
-2.6492177e-05
0.00029119702
-2.5946e-05
0.00029967339
-2.5383785e-05
0.0003079568
-2.4805958e-05
0.00031604217
-2.4212955e-05
0.00032392459
-2.3605225e-05
0.00033159929
-2.2983223e-05
0.00033906166
-2.2347414e-05
0.00034630725
-2.1698271e-05
0.00035333176
-2.1036274e-05
0.00036013107
-2.0361912e-05
0.00036670121
-1.9675679e-05
0.00037303839
-1.8978076e-05
0.00037913898
-1.826961e-05
0.00038499952
-1.7550792e-05
0.00039061673
-1.6822138e-05
0.0003959875
-1.608417e-05
0.00040110889
-1.5337411e-05
0.00040597815
-1.458239e-05
0.00041059268
-1.3819635e-05
0.0004149501
-1.304968e-05
0.00041904817
-1.2273059e-05
0.00042288485
-1.1490306e-05
0.00042645826
-1.0701957e-05
0.00042976673
-9.9085493e-06
0.00043280873
-9.1106181e-06
0.00043558295
-8.3086986e-06
0.00043808821
-7.5033252e-06
0.00044032356
-6.6950303e-06
0.00044228819
-5.8843445e-06
0.00044398148
-5.0717959e-06
0.00044540299
-4.2579099e-06
0.00044655244
-3.4432084e-06
0.00044742974
-2.62821e-06
0.00044803496
-1.813429e-06
0.00044836834
-9.9937559e-07
0.00044843029
-1.8655515e-07
0.0004482214
6.245321e-07
0.00044774241
1.433393e-06
0.00044699422
2.2395382e-06
0.00044597791
3.0424833e-06
0.00044469471
3.8417519e-06
0.00044314599
4.6368741e-06
0.00044133331
5.4273869e-06
0.00043925834
6.2128342e-06
0.00043692295
6.9927673e-06
0.0004343291
7.7667452e-06
0.00043147894
8.5343345e-06
0.00042837475
9.2951099e-06
0.00042501893
1.0048654e-05
0.00042141405
1.0794559e-05
0.00041756279
1.1532423e-05
0.00041346795
1.2261854e-05
0.0004091325
1.298247e-05
0.00040455949
1.3693897e-05
0.00039975212
1.4395768e-05
0.0003947137
1.5087728e-05
0.00038944766
1.5769429e-05
0.00038395753
1.6440533e-05
0.00037824696
1.710071e-05
0.00037231972
1.7749641e-05
0.00036617965
1.8387015e-05
0.00035983072
1.901253e-05
0.00035327699
1.9625893e-05
0.00034652262
2.022682e-05
0.00033957183
2.0815039e-05
0.00033242898
2.1390283e-05
0.00032509847
2.1952296e-05
0.00031758481
2.250083e-05
0.00030989258
2.3035647e-05
0.00030202644
2.3556518e-05
0.00029399111
2.4063221e-05
0.0002857914
2.4555543e-05
0.00027743218
2.503328e-05
0.00026891838
2.5496238e-05
0.00026025501
2.5944228e-05
0.00025144712
2.6377071e-05
0.00024249982
2.6794596e-05
0.00023341828
2.7196639e-05
0.00022420773
2.7583046e-05
0.00021487344
2.7953668e-05
0.00020542072
2.8308366e-05
0.00019585494
2.8647005e-05
0.00018618149
2.8969462e-05
0.00017640583
2.9275616e-05
0.00016653343
2.9565357e-05
0.0001565698
2.9838581e-05
0.0001465205
3.0095189e-05
0.00013639111
3.0335092e-05
0.00012618722
3.0558204e-05
0.00011591447
3.0764448e-05
0.00010557852
3.0953752e-05
9.5185042e-05
3.1126051e-05
8.4739736e-05
3.1281286e-05
7.4248316e-05
3.1419405e-05
6.3716512e-05
3.1540361e-05
5.3150068e-05
3.1644112e-05
4.2554741e-05
3.1730624e-05
3.1936295e-05
3.1799869e-05
2.1300503e-05
3.1851823e-05
1.0653144e-05
3.1886468e-05
3.652224e-15
3.1903793e-05
-1.0653144e-05
3.1903793e-05
-2.1300503e-05
3.1886468e-05
-3.1936295e-05
3.1851823e-05
-4.2554741e-05
3.1799869e-05
-5.3150068e-05
3.1730624e-05
-6.3716512e-05
3.1644112e-05
-7.4248316e-05
3.1540361e-05
-8.4739736e-05
3.1419405e-05
-9.5185042e-05
3.1281286e-05
-0.00010557852
3.1126051e-05
-0.00011591447
3.0953752e-05
-0.00012618722
3.0764448e-05
-0.00013639111
3.0558204e-05
-0.0001465205
3.0335092e-05
-0.0001565698
3.0095189e-05
-0.00016653343
2.9838581e-05
-0.00017640583
2.9565357e-05
-0.00018618149
2.9275616e-05
-0.00019585494
2.8969462e-05
-0.00020542072
2.8647005e-05
-0.00021487344
2.8308366e-05
-0.00022420773
2.7953668e-05
-0.00023341828
2.7583046e-05
-0.00024249982
2.7196639e-05
-0.00025144712
2.6794596e-05
-0.00026025501
2.6377071e-05
-0.00026891838
2.5944228e-05
-0.00027743218
2.5496238e-05
-0.0002857914
2.503328e-05
-0.00029399111
2.4555543e-05
-0.00030202644
2.4063221e-05
-0.00030989258
2.3556518e-05
-0.00031758481
2.3035647e-05
-0.00032509847
2.250083e-05
-0.00033242898
2.1952296e-05
-0.00033957183
2.1390283e-05
-0.00034652262
2.0815039e-05
-0.00035327699
2.022682e-05
-0.00035983072
1.9625893e-05
-0.00036617965
1.901253e-05
-0.00037231972
1.8387015e-05
-0.00037824696
1.7749641e-05
-0.00038395753
1.710071e-05
-0.00038944766
1.6440533e-05
-0.0003947137
1.5769429e-05
-0.00039975212
1.5087728e-05
-0.00040455949
1.4395768e-05
-0.0004091325
1.3693897e-05
-0.00041346795
1.298247e-05
-0.00041756279
1.2261854e-05
-0.00042141405
1.1532423e-05
-0.00042501893
1.0794559e-05
-0.00042837475
1.0048654e-05
-0.00043147894
9.2951099e-06
-0.0004343291
8.5343345e-06
-0.00043692295
7.7667452e-06
-0.00043925834
6.9927673e-06
-0.00044133331
6.2128342e-06
-0.00044314599
5.4273869e-06
-0.00044469471
4.6368741e-06
-0.00044597791
3.8417519e-06
-0.00044699422
3.0424833e-06
-0.00044774241
2.2395382e-06
-0.0004482214
1.433393e-06
-0.00044843029
6.245321e-07
-0.00044836834
-1.8655515e-07
-0.00044803496
-9.9937559e-07
-0.00044742974
-1.813429e-06
-0.00044655244
-2.62821e-06
-0.00044540299
-3.4432084e-06
-0.00044398148
-4.2579099e-06
-0.00044228819
-5.0717959e-06
-0.00044032356
-5.8843445e-06
-0.00043808821
-6.6950303e-06
-0.00043558295
-7.5033252e-06
-0.00043280873
-8.3086986e-06
-0.00042976673
-9.1106181e-06
-0.00042645826
-9.9085493e-06
-0.00042288485
-1.0701957e-05
-0.00041904817
-1.1490306e-05
-0.0004149501
-1.2273059e-05
-0.00041059268
-1.304968e-05
-0.00040597815
-1.3819635e-05
-0.00040110889
-1.458239e-05
-0.0003959875
-1.5337411e-05
-0.00039061673
-1.608417e-05
-0.00038499952
-1.6822138e-05
-0.00037913898
-1.7550792e-05
-0.00037303839
-1.826961e-05
-0.00036670121
-1.8978076e-05
-0.00036013107
-1.9675679e-05
-0.00035333176
-2.0361912e-05
-0.00034630725
-2.1036274e-05
-0.00033906166
-2.1698271e-05
-0.00033159929
-2.2347414e-05
-0.00032392459
-2.2983223e-05
-0.00031604217
-2.3605225e-05
-0.0003079568
-2.4212955e-05
-0.00029967339
-2.4805958e-05
-0.00029119702
-2.5383785e-05
-0.00028253289
-2.5946e-05
-0.00027368636
-2.6492177e-05
-0.00026466293
-2.7021898e-05
-0.00025546823
-2.7534758e-05
-0.00024610802
-2.8030363e-05
-0.00023658818
-2.8508332e-05
-0.00022691474
-2.8968296e-05
-0.00021709382
-2.9409896e-05
-0.00020713168
-2.9832791e-05
-0.00019703466
-3.023665e-05
-0.00018680923
-3.0621158e-05
-0.00017646195
-3.0986013e-05
-0.00016599949
-3.1330928e-05
-0.00015542859
-3.1655632e-05
-0.00014475608
-3.1959869e-05
-0.00013398889
-3.2243398e-05
-0.000123134
-3.2505994e-05
-0.00011219847
-3.2747449e-05
-0.00010118944
-3.2967572e-05
-9.011407e-05
-3.3166186e-05
-7.8979609e-05
-3.3343134e-05
-6.7793337e-05
-3.3498274e-05
-5.6562578e-05
-3.3631482e-05
-4.5294693e-05
-3.3742652e-05
-3.3997071e-05
-3.3831696e-05
-2.2677126e-05
-3.3898541e-05
-1.1342287e-05
-3.3943134e-05
-3.3965439e-05
1.137617e-05
-4.534161e-05
2.2744869e-05
-4.5311832e-05
3.4098629e-05
-4.5252301e-05
4.5429997e-05
-4.5163064e-05
5.6731537e-05
-4.5044192e-05
6.7995836e-05
-4.4895781e-05
7.9215512e-05
-4.471795e-05
9.0383219e-05
-4.451084e-05
0.00010149165
-4.4274617e-05
0.00011253355
-4.400947e-05
0.00012350171
-4.371561e-05
0.00013438899
-4.3393271e-05
0.0001451883
-4.3042709e-05
0.00015589263
-4.2664203e-05
0.00016649505
-4.2258052e-05
0.0001769887
-4.1824577e-05
0.00018736681
-4.1364122e-05
0.0001976227
-4.0877047e-05
0.00020774978
-4.0363737e-05
0.00021774159
-3.9824593e-05
0.00022759173
-3.9260037e-05
0.00023729394
-3.867051e-05
0.00024684208
-3.805647e-05
0.00025623011
-3.7418393e-05
0.00026545212
-3.6756771e-05
0.00027450234
-3.6072116e-05
0.00028337512
-3.5364953e-05
0.00029206494
-3.4635822e-05
0.00030056643
-3.3885281e-05
0.00030887438
-3.3113898e-05
0.00031698368
-3.2322258e-05
0.00032488941
-3.1510958e-05
0.00033258679
-3.0680606e-05
0.0003400712
-2.9831822e-05
0.00034733817
-2.8965239e-05
0.00035438339
-2.8081497e-05
0.00036120273
-2.7181249e-05
0.00036779221
-2.6265155e-05
0.00037414801
-2.5333883e-05
0.00038026651
-2.438811e-05
0.00038614424
-2.3428519e-05
0.0003917779
-2.2455799e-05
0.00039716438
-2.1470645e-05
0.00040230072
-2.0473757e-05
0.00040718417
-1.946584e-05
0.00041181214
-1.8447601e-05
0.00041618221
-1.7419751e-05
0.00042029215
-1.6383002e-05
0.00042413992
-1.533807e-05
0.00042772363
-1.4285668e-05
0.00043104159
-1.3226515e-05
0.0004340923
-1.2161324e-05
0.00043687441
-1.109081e-05
0.00043938677
-1.0015687e-05
0.00044162841
-8.9366652e-06
0.00044359851
-7.8544531e-06
0.00044529647
-6.7697558e-06
0.00044672184
-5.6832746e-06
0.00044787434
-4.5957063e-06
0.00044875387
-3.507743e-06
0.00044936051
-2.4200716e-06
0.00044969451
-1.3333728e-06
0.00044975628
-2.4832126e-07
0.00044954639
8.3441547e-07
0.00044906561
1.9141776e-06
0.00044831483
2.9903122e-06
0.00044729514
4.0621738e-06
0.00044600777
5.1291262e-06
0.0004444541
6.1905418e-06
0.00044263569
7.2458025e-06
0.00044055422
8.2942996e-06
0.00043821155
9.335434e-06
0.00043560968
1.0368617e-05
0.00043275075
1.139327e-05
0.00042963703
1.2408826e-05
0.00042627096
1.3414727e-05
0.00042265509
1.4410427e-05
0.00041879212
1.5395393e-05
0.00041468487
1.6369101e-05
0.0004103363
1.7331039e-05
0.00040574949
1.8280709e-05
0.00040092764
1.9217622e-05
0.00039587407
2.0141302e-05
0.00039059221
2.1051286e-05
0.00038508562
2.1947123e-05
0.00037935796
2.2828372e-05
0.00037341299
2.3694607e-05
0.00036725459
2.4545414e-05
0.00036088673
2.5380388e-05
0.00035431349
2.619914e-05
0.00034753902
2.7001292e-05
0.00034056758
2.7786477e-05
0.00033340352
2.8554341e-05
0.00032605127
2.9304542e-05
0.00031851535
3.003675e-05
0.00031080035
3.0750647e-05
0.00030291095
3.1445926e-05
0.00029485188
3.2122291e-05
0.00028662796
3.277946e-05
0.00027824408
3.3417159e-05
0.00026970519
3.4035128e-05
0.0002610163
3.4633118e-05
0.00025218248
3.5210887e-05
0.00024320887
3.5768209e-05
0.00023410064
3.6304866e-05
0.00022486304
3.6820649e-05
0.00021550135
3.7315361e-05
0.0002060209
3.7788817e-05
0.00019642706
3.8240837e-05
0.00018672527
3.8671255e-05
0.00017692097
3.9079913e-05
0.00016701967
3.9466661e-05
0.00015702689
3.9831362e-05
0.0001469482
4.0173884e-05
0.00013678918
4.0494106e-05
0.00012655547
4.0791917e-05
0.00011625271
4.1067211e-05
0.00010588656
4.1319893e-05
9.5462736e-05
4.1549878e-05
8.4986937e-05
4.1757086e-05
7.4464896e-05
4.1941446e-05
6.3902359e-05
4.2102897e-05
5.3305088e-05
4.2241384e-05
4.2678852e-05
4.235686e-05
3.2029434e-05
4.2449287e-05
2.1362622e-05
4.2518634e-05
1.0684211e-05
4.2564879e-05
3.5514244e-15
4.2588005e-05
-1.0684211e-05
4.2588005e-05
-2.1362622e-05
4.2564879e-05
-3.2029434e-05
4.2518634e-05
-4.2678852e-05
4.2449287e-05
-5.3305088e-05
4.235686e-05
-6.3902359e-05
4.2241384e-05
-7.4464896e-05
4.2102897e-05
-8.4986937e-05
4.1941446e-05
-9.5462736e-05
4.1757086e-05
-0.00010588656
4.1549878e-05
-0.00011625271
4.1319893e-05
-0.00012655547
4.1067211e-05
-0.00013678918
4.0791917e-05
-0.0001469482
4.0494106e-05
-0.00015702689
4.0173884e-05
-0.00016701967
3.9831362e-05
-0.00017692097
3.9466661e-05
-0.00018672527
3.9079913e-05
-0.00019642706
3.8671255e-05
-0.0002060209
3.8240837e-05
-0.00021550135
3.7788817e-05
-0.00022486304
3.7315361e-05
-0.00023410064
3.6820649e-05
-0.00024320887
3.6304866e-05
-0.00025218248
3.5768209e-05
-0.0002610163
3.5210887e-05
-0.00026970519
3.4633118e-05
-0.00027824408
3.4035128e-05
-0.00028662796
3.3417159e-05
-0.00029485188
3.277946e-05
-0.00030291095
3.2122291e-05
-0.00031080035
3.1445926e-05
-0.00031851535
3.0750647e-05
-0.00032605127
3.003675e-05
-0.00033340352
2.9304542e-05
-0.00034056758
2.8554341e-05
-0.00034753902
2.7786477e-05
-0.00035431349
2.7001292e-05
-0.00036088673
2.619914e-05
-0.00036725459
2.5380388e-05
-0.00037341299
2.4545414e-05
-0.00037935796
2.3694607e-05
-0.00038508562
2.2828372e-05
-0.00039059221
2.1947123e-05
-0.00039587407
2.1051286e-05
-0.00040092764
2.0141302e-05
-0.00040574949
1.9217622e-05
-0.0004103363
1.8280709e-05
-0.00041468487
1.7331039e-05
-0.00041879212
1.6369101e-05
-0.00042265509
1.5395393e-05
-0.00042627096
1.4410427e-05
-0.00042963703
1.3414727e-05
-0.00043275075
1.2408826e-05
-0.00043560968
1.139327e-05
-0.00043821155
1.0368617e-05
-0.00044055422
9.335434e-06
-0.00044263569
8.2942996e-06
-0.0004444541
7.2458025e-06
-0.00044600777
6.1905418e-06
-0.00044729514
5.1291262e-06
-0.00044831483
4.0621738e-06
-0.00044906561
2.9903122e-06
-0.00044954639
1.9141776e-06
-0.00044975628
8.3441547e-07
-0.00044969451
-2.4832126e-07
-0.00044936051
-1.3333728e-06
-0.00044875387
-2.4200716e-06
-0.00044787434
-3.507743e-06
-0.00044672184
-4.5957063e-06
-0.00044529647
-5.6832746e-06
-0.00044359851
-6.7697558e-06
-0.00044162841
-7.8544531e-06
-0.00043938677
-8.9366652e-06
-0.00043687441
-1.0015687e-05
-0.0004340923
-1.109081e-05
-0.00043104159
-1.2161324e-05
-0.00042772363
-1.3226515e-05
-0.00042413992
-1.4285668e-05
-0.00042029215
-1.533807e-05
-0.00041618221
-1.6383002e-05
-0.00041181214
-1.7419751e-05
-0.00040718417
-1.8447601e-05
-0.00040230072
-1.946584e-05
-0.00039716438
-2.0473757e-05
-0.0003917779
-2.1470645e-05
-0.00038614424
-2.2455799e-05
-0.00038026651
-2.3428519e-05
-0.00037414801
-2.438811e-05
-0.00036779221
-2.5333883e-05
-0.00036120273
-2.6265155e-05
-0.00035438339
-2.7181249e-05
-0.00034733817
-2.8081497e-05
-0.0003400712
-2.8965239e-05
-0.00033258679
-2.9831822e-05
-0.00032488941
-3.0680606e-05
-0.00031698368
-3.1510958e-05
-0.00030887438
-3.2322258e-05
-0.00030056643
-3.3113898e-05
-0.00029206494
-3.3885281e-05
-0.00028337512
-3.4635822e-05
-0.00027450234
-3.5364953e-05
-0.00026545212
-3.6072116e-05
-0.00025623011
-3.6756771e-05
-0.00024684208
-3.7418393e-05
-0.00023729394
-3.805647e-05
-0.00022759173
-3.867051e-05
-0.00021774159
-3.9260037e-05
-0.00020774978
-3.9824593e-05
-0.0001976227
-4.0363737e-05
-0.00018736681
-4.0877047e-05
-0.0001769887
-4.1364121e-05
-0.00016649505
-4.1824577e-05
-0.00015589263
-4.2258052e-05
-0.0001451883
-4.2664203e-05
-0.00013438899
-4.3042709e-05