/*--------------------------------*- C++ -*----------------------------------*\
| =========                 |                                                 |
| \\      /  F ield         | OpenFOAM: The Open Source CFD Toolbox           |
|  \\    /   O peration     | Version:  2106                                  |
|   \\  /    A nd           | Website:  www.openfoam.com                      |
|    \\/     M anipulation  |                                                 |
\*---------------------------------------------------------------------------*/
FoamFile
{
    version     2.0;
    format      ascii;
    arch        "LSB;label=32;scalar=64";
    class       volVectorField;
    location    "0.021";
    object      U;
}
// * * * * * * * * * * * * * * * * * * * * * * * * * * * * * * * * * * * * * //

dimensions      [0 1 -1 0 0 0 0];

internalField   nonuniform List<vector> 
65536
(
(0.0014472383 -0.00144674 0)
(0.0043407646 -0.00144579 0)
(0.0072314405 -0.0014438907 0)
(0.010117368 -0.0014410437 0)
(0.012996654 -0.0014372513 0)
(0.015867409 -0.0014325165 0)
(0.018727752 -0.001426843 0)
(0.021575809 -0.0014202355 0)
(0.024409717 -0.0014126991 0)
(0.027227623 -0.00140424 0)
(0.030027687 -0.0013948647 0)
(0.032808085 -0.0013845809 0)
(0.035567007 -0.0013733967 0)
(0.03830266 -0.0013613209 0)
(0.041013269 -0.0013483631 0)
(0.04369708 -0.0013345336 0)
(0.046352361 -0.0013198433 0)
(0.0489774 -0.0013043037 0)
(0.051570511 -0.001287927 0)
(0.054130031 -0.0012707261 0)
(0.056654325 -0.0012527145 0)
(0.059141785 -0.0012339061 0)
(0.061590832 -0.0012143156 0)
(0.063999915 -0.0011939582 0)
(0.066367516 -0.0011728495 0)
(0.068692149 -0.001151006 0)
(0.070972359 -0.0011284442 0)
(0.073206728 -0.0011051816 0)
(0.075393871 -0.0010812358 0)
(0.077532439 -0.001056625 0)
(0.07962112 -0.0010313679 0)
(0.08165864 -0.0010054834 0)
(0.083643764 -0.00097899095 0)
(0.085575295 -0.00095191041 0)
(0.087452077 -0.00092426188 0)
(0.089272993 -0.00089606584 0)
(0.091036969 -0.00086734307 0)
(0.092742973 -0.00083811462 0)
(0.094390014 -0.00080840183 0)
(0.095977145 -0.00077822627 0)
(0.097503461 -0.00074760974 0)
(0.098968103 -0.00071657422 0)
(0.10037025 -0.00068514189 0)
(0.10170914 -0.00065333507 0)
(0.10298404 -0.00062117622 0)
(0.10419428 -0.00058868793 0)
(0.1053392 -0.00055589286 0)
(0.10641823 -0.00052281376 0)
(0.10743081 -0.00048947341 0)
(0.10837645 -0.00045589464 0)
(0.10925469 -0.00042210028 0)
(0.11006513 -0.00038811316 0)
(0.1108074 -0.00035395608 0)
(0.11148119 -0.00031965179 0)
(0.11208622 -0.00028522295 0)
(0.11262226 -0.00025069218 0)
(0.11308914 -0.00021608197 0)
(0.11348672 -0.00018141468 0)
(0.11381491 -0.00014671256 0)
(0.11407365 -0.00011199767 0)
(0.11426296 -7.7291923e-05 0)
(0.11438286 -4.2616988e-05 0)
(0.11443343 -7.9939696e-06 0)
(0.11441482 2.6553419e-05 0)
(0.11432718 6.1007338e-05 0)
(0.11417072 9.5346404e-05 0)
(0.1139457 0.00012954869 0)
(0.11365241 0.00016359441 0)
(0.11329119 0.00019746363 0)
(0.1128624 0.00023113662 0)
(0.11236646 0.00026459397 0)
(0.11180381 0.00029781655 0)
(0.11117496 0.00033078557 0)
(0.11048042 0.00036348258 0)
(0.10972075 0.00039588946 0)
(0.10889656 0.00042798843 0)
(0.10800848 0.00045976208 0)
(0.10705717 0.00049119334 0)
(0.10604334 0.00052226552 0)
(0.10496772 0.00055296231 0)
(0.10383108 0.00058326774 0)
(0.10263422 0.00061316626 0)
(0.10137797 0.00064264268 0)
(0.10006318 0.0006716822 0)
(0.09869075 0.0007002704 0)
(0.097261592 0.00072839326 0)
(0.095776651 0.00075603713 0)
(0.094236899 0.00078318878 0)
(0.092643333 0.00080983535 0)
(0.090996976 0.00083596437 0)
(0.089298877 0.00086156376 0)
(0.087550106 0.00088662182 0)
(0.085751758 0.00091112726 0)
(0.083904949 0.00093506915 0)
(0.082010818 0.00095843694 0)
(0.080070522 0.00098122046 0)
(0.078085242 0.0010034099 0)
(0.076056174 0.0010249959 0)
(0.073984535 0.0010459693 0)
(0.07187156 0.0010663215 0)
(0.0697185 0.0010860441 0)
(0.067526621 0.0011051291 0)
(0.065297208 0.0011235689 0)
(0.063031559 0.0011413562 0)
(0.060730986 0.001158484 0)
(0.058396814 0.0011749457 0)
(0.056030383 0.001190735 0)
(0.053633044 0.0012058459 0)
(0.05120616 0.0012202728 0)
(0.048751104 0.0012340102 0)
(0.046269262 0.0012470532 0)
(0.043762026 0.0012593969 0)
(0.0412308 0.001271037 0)
(0.038676997 0.0012819693 0)
(0.036102035 0.0012921899 0)
(0.033507343 0.0013016951 0)
(0.030894355 0.0013104817 0)
(0.028264511 0.0013185467 0)
(0.025619257 0.0013258872 0)
(0.022960047 0.0013325008 0)
(0.020288335 0.0013383851 0)
(0.017605583 0.0013435382 0)
(0.014913256 0.0013479584 0)
(0.01221282 0.0013516441 0)
(0.0095057477 0.0013545942 0)
(0.0067935103 0.0013568076 0)
(0.0040775827 0.0013582836 0)
(0.0013594403 0.0013590217 0)
(-0.0013594403 0.0013590217 0)
(-0.0040775827 0.0013582836 0)
(-0.0067935103 0.0013568076 0)
(-0.0095057477 0.0013545942 0)
(-0.01221282 0.0013516441 0)
(-0.014913256 0.0013479584 0)
(-0.017605583 0.0013435382 0)
(-0.020288335 0.0013383851 0)
(-0.022960047 0.0013325008 0)
(-0.025619257 0.0013258872 0)
(-0.028264511 0.0013185467 0)
(-0.030894355 0.0013104817 0)
(-0.033507343 0.0013016951 0)
(-0.036102035 0.0012921899 0)
(-0.038676997 0.0012819693 0)
(-0.0412308 0.001271037 0)
(-0.043762026 0.0012593969 0)
(-0.046269262 0.0012470532 0)
(-0.048751104 0.0012340102 0)
(-0.05120616 0.0012202728 0)
(-0.053633044 0.0012058459 0)
(-0.056030383 0.001190735 0)
(-0.058396814 0.0011749457 0)
(-0.060730986 0.001158484 0)
(-0.063031559 0.0011413562 0)
(-0.065297208 0.0011235689 0)
(-0.067526621 0.0011051291 0)
(-0.0697185 0.0010860441 0)
(-0.07187156 0.0010663215 0)
(-0.073984535 0.0010459693 0)
(-0.076056174 0.0010249959 0)
(-0.078085242 0.0010034099 0)
(-0.080070522 0.00098122046 0)
(-0.082010818 0.00095843694 0)
(-0.083904949 0.00093506915 0)
(-0.085751758 0.00091112726 0)
(-0.087550106 0.00088662182 0)
(-0.089298877 0.00086156376 0)
(-0.090996976 0.00083596437 0)
(-0.092643333 0.00080983535 0)
(-0.094236899 0.00078318878 0)
(-0.095776651 0.00075603713 0)
(-0.097261592 0.00072839326 0)
(-0.09869075 0.0007002704 0)
(-0.10006318 0.0006716822 0)
(-0.10137797 0.00064264268 0)
(-0.10263422 0.00061316626 0)
(-0.10383108 0.00058326774 0)
(-0.10496772 0.00055296231 0)
(-0.10604334 0.00052226552 0)
(-0.10705717 0.00049119334 0)
(-0.10800848 0.00045976208 0)
(-0.10889656 0.00042798843 0)
(-0.10972075 0.00039588946 0)
(-0.11048042 0.00036348258 0)
(-0.11117496 0.00033078557 0)
(-0.11180381 0.00029781655 0)
(-0.11236646 0.00026459397 0)
(-0.1128624 0.00023113662 0)
(-0.11329119 0.00019746363 0)
(-0.11365241 0.00016359441 0)
(-0.1139457 0.00012954869 0)
(-0.11417072 9.5346404e-05 0)
(-0.11432718 6.1007337e-05 0)
(-0.11441482 2.6553419e-05 0)
(-0.11443343 -7.9939697e-06 0)
(-0.11438286 -4.2616988e-05 0)
(-0.11426296 -7.7291923e-05 0)
(-0.11407365 -0.00011199767 0)
(-0.11381491 -0.00014671256 0)
(-0.11348672 -0.00018141468 0)
(-0.11308914 -0.00021608197 0)
(-0.11262226 -0.00025069218 0)
(-0.11208622 -0.00028522295 0)
(-0.11148119 -0.00031965178 0)
(-0.1108074 -0.00035395608 0)
(-0.11006513 -0.00038811316 0)
(-0.10925469 -0.00042210028 0)
(-0.10837645 -0.00045589464 0)
(-0.10743081 -0.00048947341 0)
(-0.10641823 -0.00052281376 0)
(-0.1053392 -0.00055589286 0)
(-0.10419428 -0.00058868793 0)
(-0.10298404 -0.00062117622 0)
(-0.10170914 -0.00065333507 0)
(-0.10037025 -0.00068514189 0)
(-0.098968103 -0.00071657422 0)
(-0.097503461 -0.00074760974 0)
(-0.095977145 -0.00077822627 0)
(-0.094390014 -0.00080840183 0)
(-0.092742973 -0.00083811462 0)
(-0.091036969 -0.00086734306 0)
(-0.089272993 -0.00089606584 0)
(-0.087452077 -0.00092426188 0)
(-0.085575295 -0.00095191041 0)
(-0.083643764 -0.00097899095 0)
(-0.08165864 -0.0010054834 0)
(-0.07962112 -0.0010313679 0)
(-0.077532439 -0.001056625 0)
(-0.075393871 -0.0010812358 0)
(-0.073206728 -0.0011051816 0)
(-0.070972359 -0.0011284442 0)
(-0.068692149 -0.001151006 0)
(-0.066367516 -0.0011728495 0)
(-0.063999915 -0.0011939582 0)
(-0.061590832 -0.0012143156 0)
(-0.059141785 -0.0012339061 0)
(-0.056654325 -0.0012527145 0)
(-0.054130031 -0.0012707261 0)
(-0.051570511 -0.001287927 0)
(-0.0489774 -0.0013043037 0)
(-0.046352361 -0.0013198433 0)
(-0.04369708 -0.0013345336 0)
(-0.041013269 -0.0013483631 0)
(-0.03830266 -0.0013613209 0)
(-0.035567007 -0.0013733967 0)
(-0.032808085 -0.0013845809 0)
(-0.030027687 -0.0013948647 0)
(-0.027227623 -0.00140424 0)
(-0.024409717 -0.0014126991 0)
(-0.021575809 -0.0014202355 0)
(-0.018727752 -0.001426843 0)
(-0.015867409 -0.0014325165 0)
(-0.012996654 -0.0014372513 0)
(-0.010117368 -0.0014410437 0)
(-0.0072314405 -0.0014438907 0)
(-0.0043407646 -0.00144579 0)
(-0.0014472383 -0.00144674 0)
(0.0014490012 -0.0043415399 0)
(0.0043460519 -0.004338689 0)
(0.0072402486 -0.0043329894 0)
(0.010129691 -0.0043244456 0)
(0.013012483 -0.0043130646 0)
(0.015886733 -0.0042988555 0)
(0.018750558 -0.0042818296 0)
(0.02160208 -0.0042620005 0)
(0.024439435 -0.004239384 0)
(0.027260768 -0.0042139983 0)
(0.030064236 -0.0041858635 0)
(0.032848013 -0.0041550021 0)
(0.035610285 -0.0041214385 0)
(0.038349258 -0.0040851993 0)
(0.041063156 -0.0040463134 0)
(0.043750221 -0.0040048114 0)
(0.046408719 -0.0039607261 0)
(0.049036937 -0.0039140922 0)
(0.051633184 -0.0038649464 0)
(0.054195799 -0.003813327 0)
(0.056723142 -0.0037592746 0)
(0.059213603 -0.0037028312 0)
(0.061665602 -0.0036440408 0)
(0.064077587 -0.0035829489 0)
(0.066448036 -0.0035196026 0)
(0.068775463 -0.0034540509 0)
(0.07105841 -0.003386344 0)
(0.073295458 -0.0033165338 0)
(0.075485219 -0.0032446734 0)
(0.077626343 -0.0031708175 0)
(0.079717518 -0.0030950219 0)
(0.081757467 -0.0030173436 0)
(0.083744953 -0.0029378411 0)
(0.085678778 -0.0028565737 0)
(0.087557785 -0.0027736018 0)
(0.089380856 -0.0026889869 0)
(0.091146915 -0.0026027914 0)
(0.092854929 -0.0025150784 0)
(0.094503906 -0.002425912 0)
(0.096092898 -0.0023353569 0)
(0.097621 -0.0022434785 0)
(0.09908735 -0.0021503428 0)
(0.10049113 -0.0020560163 0)
(0.10183157 -0.0019605661 0)
(0.10310794 -0.0018640596 0)
(0.10431957 -0.0017665644 0)
(0.1054658 -0.0016681487 0)
(0.10654606 -0.0015688807 0)
(0.10755979 -0.0014688288 0)
(0.10850649 -0.0013680615 0)
(0.10938572 -0.0012666472 0)
(0.11019705 -0.0011646546 0)
(0.11094014 -0.001062152 0)
(0.11161465 -0.00095920775 0)
(0.11222033 -0.00085588981 0)
(0.11275694 -0.00075226605 0)
(0.1132243 -0.00064840395 0)
(0.11362227 -0.00054437067 0)
(0.11395077 -0.00044023292 0)
(0.11420974 -0.00033605697 0)
(0.11439919 -0.00023190857 0)
(0.11451915 -0.00012785296 0)
(0.1145697 -2.3954822e-05 0)
(0.11455098 7.9721735e-05 0)
(0.11446315 0.00018311453 0)
(0.11430642 0.00028616067 0)
(0.11408105 0.00038879763 0)
(0.11378733 0.00049096483 0)
(0.11342559 0.0005926023 0)
(0.11299621 0.00069365083 0)
(0.1124996 0.00079405212 0)
(0.1119362 0.00089374883 0)
(0.11130652 0.00099268456 0)
(0.11061107 0.0010908039 0)
(0.10985043 0.0011880525 0)
(0.10902518 0.0012843771 0)
(0.10813597 0.0013797253 0)
(0.10718346 0.001474046 0)
(0.10616835 0.001567289 0)
(0.10509139 0.0016594055 0)
(0.10395334 0.0017503474 0)
(0.10275499 0.0018400682 0)
(0.10149719 0.0019285223 0)
(0.10018079 0.0020156652 0)
(0.098806673 0.0021014537 0)
(0.097375768 0.0021858457 0)
(0.095889017 0.0022688003 0)
(0.094347394 0.0023502777 0)
(0.092751896 0.0024302393 0)
(0.09110355 0.0025086479 0)
(0.089403403 0.002585467 0)
(0.087652528 0.0026606617 0)
(0.085852021 0.0027341979 0)
(0.084003 0.002806043 0)
(0.082106604 0.0028761652 0)
(0.080163994 0.0029445341 0)
(0.078176349 0.0030111203 0)
(0.07614487 0.0030758955 0)
(0.074070773 0.0031388325 0)
(0.071955295 0.0031999052 0)
(0.069799688 0.0032590887 0)
(0.067605222 0.0033163588 0)
(0.065373181 0.0033716928 0)
(0.063104864 0.0034250686 0)
(0.060801586 0.0034764655 0)
(0.058464673 0.0035258635 0)
(0.056095468 0.0035732436 0)
(0.053695321 0.0036185881 0)
(0.051265598 0.0036618798 0)
(0.048807673 0.0037031027 0)
(0.046322933 0.0037422417 0)
(0.043812774 0.0037792825 0)
(0.041278599 0.0038142117 0)
(0.038721823 0.0038470169 0)
(0.036143866 0.0038776864 0)
(0.033546158 0.0039062094 0)
(0.030930135 0.003932576 0)
(0.028297238 0.003956777 0)
(0.025648916 0.0039788041 0)
(0.022986623 0.0039986498 0)
(0.020311815 0.0040163072 0)
(0.017625956 0.0040317705 0)
(0.014930511 0.0040450344 0)
(0.01222695 0.0040560943 0)
(0.0095167443 0.0040649468 0)
(0.0068013689 0.0040715887 0)
(0.0040822993 0.0040760178 0)
(0.0013610128 0.0040782328 0)
(-0.0013610128 0.0040782328 0)
(-0.0040822993 0.0040760178 0)
(-0.0068013689 0.0040715887 0)
(-0.0095167443 0.0040649468 0)
(-0.01222695 0.0040560943 0)
(-0.014930511 0.0040450343 0)
(-0.017625956 0.0040317705 0)
(-0.020311815 0.0040163072 0)
(-0.022986623 0.0039986498 0)
(-0.025648916 0.0039788041 0)
(-0.028297238 0.003956777 0)
(-0.030930135 0.003932576 0)
(-0.033546158 0.0039062094 0)
(-0.036143866 0.0038776864 0)
(-0.038721823 0.0038470169 0)
(-0.041278599 0.0038142117 0)
(-0.043812774 0.0037792825 0)
(-0.046322933 0.0037422417 0)
(-0.048807673 0.0037031027 0)
(-0.051265598 0.0036618798 0)
(-0.053695321 0.0036185881 0)
(-0.056095468 0.0035732436 0)
(-0.058464673 0.0035258635 0)
(-0.060801586 0.0034764655 0)
(-0.063104864 0.0034250686 0)
(-0.065373181 0.0033716928 0)
(-0.067605222 0.0033163588 0)
(-0.069799688 0.0032590887 0)
(-0.071955295 0.0031999052 0)
(-0.074070773 0.0031388325 0)
(-0.07614487 0.0030758955 0)
(-0.078176349 0.0030111203 0)
(-0.080163994 0.0029445341 0)
(-0.082106604 0.0028761652 0)
(-0.084003 0.002806043 0)
(-0.085852021 0.0027341979 0)
(-0.087652528 0.0026606617 0)
(-0.089403403 0.002585467 0)
(-0.09110355 0.0025086479 0)
(-0.092751896 0.0024302393 0)
(-0.094347394 0.0023502777 0)
(-0.095889017 0.0022688003 0)
(-0.097375768 0.0021858457 0)
(-0.098806673 0.0021014537 0)
(-0.10018079 0.0020156652 0)
(-0.10149719 0.0019285223 0)
(-0.10275499 0.0018400682 0)
(-0.10395334 0.0017503474 0)
(-0.10509139 0.0016594055 0)
(-0.10616835 0.001567289 0)
(-0.10718346 0.001474046 0)
(-0.10813597 0.0013797253 0)
(-0.10902518 0.0012843771 0)
(-0.10985043 0.0011880525 0)
(-0.11061107 0.0010908039 0)
(-0.11130652 0.00099268456 0)
(-0.1119362 0.00089374883 0)
(-0.1124996 0.00079405212 0)
(-0.11299621 0.00069365083 0)
(-0.11342559 0.0005926023 0)
(-0.11378733 0.00049096483 0)
(-0.11408105 0.00038879763 0)
(-0.11430642 0.00028616067 0)
(-0.11446315 0.00018311453 0)
(-0.11455098 7.9721735e-05 0)
(-0.1145697 -2.3954822e-05 0)
(-0.11451915 -0.00012785296 0)
(-0.11439919 -0.00023190857 0)
(-0.11420974 -0.00033605697 0)
(-0.11395077 -0.00044023292 0)
(-0.11362227 -0.00054437067 0)
(-0.1132243 -0.00064840395 0)
(-0.11275694 -0.00075226605 0)
(-0.11222033 -0.00085588981 0)
(-0.11161465 -0.00095920775 0)
(-0.11094014 -0.001062152 0)
(-0.11019705 -0.0011646546 0)
(-0.10938572 -0.0012666472 0)
(-0.10850649 -0.0013680615 0)
(-0.10755979 -0.0014688288 0)
(-0.10654606 -0.0015688807 0)
(-0.1054658 -0.0016681487 0)
(-0.10431957 -0.0017665644 0)
(-0.10310794 -0.0018640596 0)
(-0.10183157 -0.0019605661 0)
(-0.10049113 -0.0020560163 0)
(-0.09908735 -0.0021503428 0)
(-0.097621 -0.0022434785 0)
(-0.096092898 -0.0023353569 0)
(-0.094503906 -0.002425912 0)
(-0.092854929 -0.0025150784 0)
(-0.091146915 -0.0026027914 0)
(-0.089380856 -0.0026889869 0)
(-0.087557785 -0.0027736018 0)
(-0.085678778 -0.0028565737 0)
(-0.083744953 -0.0029378411 0)
(-0.081757467 -0.0030173436 0)
(-0.079717518 -0.0030950219 0)
(-0.077626343 -0.0031708175 0)
(-0.075485219 -0.0032446734 0)
(-0.073295458 -0.0033165338 0)
(-0.07105841 -0.003386344 0)
(-0.068775463 -0.0034540509 0)
(-0.066448036 -0.0035196026 0)
(-0.064077587 -0.0035829489 0)
(-0.061665602 -0.0036440408 0)
(-0.059213603 -0.0037028312 0)
(-0.056723142 -0.0037592746 0)
(-0.054195799 -0.003813327 0)
(-0.051633184 -0.0038649464 0)
(-0.049036937 -0.0039140922 0)
(-0.046408719 -0.0039607261 0)
(-0.043750221 -0.0040048114 0)
(-0.041063156 -0.0040463134 0)
(-0.038349258 -0.0040851993 0)
(-0.035610285 -0.0041214385 0)
(-0.032848013 -0.0041550021 0)
(-0.030064236 -0.0041858635 0)
(-0.027260768 -0.0042139983 0)
(-0.024439435 -0.004239384 0)
(-0.02160208 -0.0042620005 0)
(-0.018750558 -0.0042818296 0)
(-0.015886733 -0.0042988555 0)
(-0.013012483 -0.0043130646 0)
(-0.010129691 -0.0043244456 0)
(-0.0072402486 -0.0043329894 0)
(-0.0043460519 -0.004338689 0)
(-0.0014490012 -0.0043415399 0)
(0.0014520515 -0.0072414731 0)
(0.0043552007 -0.0072367177 0)
(0.0072554897 -0.0072272106 0)
(0.010151014 -0.0072129595 0)
(0.013039873 -0.0071939758 0)
(0.015920172 -0.0071702747 0)
(0.018790023 -0.0071418752 0)
(0.021647545 -0.0071087999 0)
(0.024490868 -0.0070710754 0)
(0.027318134 -0.0070287316 0)
(0.030127496 -0.0069818023 0)
(0.032917124 -0.0069303249 0)
(0.0356852 -0.0068743403 0)
(0.038429927 -0.006813893 0)
(0.041149524 -0.0067490308 0)
(0.04384223 -0.006679805 0)
(0.046506306 -0.0066062702 0)
(0.049140036 -0.0065284843 0)
(0.051741727 -0.0064465085 0)
(0.054309711 -0.0063604071 0)
(0.056842348 -0.0062702472 0)
(0.059338022 -0.0061760993 0)
(0.061795151 -0.0060780365 0)
(0.064212178 -0.0059761349 0)
(0.066587581 -0.0058704731 0)
(0.068919867 -0.0057611327 0)
(0.071207578 -0.0056481976 0)
(0.07344929 -0.0055317542 0)
(0.075643613 -0.0054118912 0)
(0.077789194 -0.0052886997 0)
(0.079884718 -0.0051622729 0)
(0.081928905 -0.0050327061 0)
(0.083920516 -0.0049000965 0)
(0.085858352 -0.0047645432 0)
(0.08774125 -0.004626147 0)
(0.089568093 -0.0044850103 0)
(0.091337802 -0.0043412374 0)
(0.09304934 -0.0041949334 0)
(0.094701716 -0.0040462054 0)
(0.096293977 -0.0038951611 0)
(0.097825217 -0.0037419098 0)
(0.099294574 -0.0035865615 0)
(0.10070123 -0.0034292272 0)
(0.10204441 -0.0032700188 0)
(0.10332338 -0.0031090485 0)
(0.10453747 -0.0029464295 0)
(0.10568603 -0.0027822752 0)
(0.10676847 -0.0026166995 0)
(0.10778424 -0.0024498165 0)
(0.10873285 -0.0022817403 0)
(0.10961383 -0.0021125855 0)
(0.11042678 -0.001942466 0)
(0.11117133 -0.0017714962 0)
(0.11184718 -0.0015997899 0)
(0.11245403 -0.0014274605 0)
(0.11299167 -0.0012546213 0)
(0.11345992 -0.0010813848 0)
(0.11385864 -0.00090786306 0)
(0.11418774 -0.00073416729 0)
(0.11444716 -0.00056040805 0)
(0.11463691 -0.00038669502 0)
(0.11475703 -0.00021313698 0)
(0.1148076 -3.9841707e-05 0)
(0.11478875 0.0001330841 0)
(0.11470065 0.00030553561 0)
(0.11454351 0.00047740835 0)
(0.11431758 0.00064859887 0)
(0.11402316 0.00081900568 0)
(0.11366058 0.00098852862 0)
(0.11323022 0.001157069 0)
(0.11273248 0.0013245295 0)
(0.11216783 0.0014908146 0)
(0.11153676 0.0016558301 0)
(0.11083978 0.0018194838 0)
(0.11007748 0.0019816849 0)
(0.10925044 0.0021423444 0)
(0.1083593 0.0023013752 0)
(0.10740474 0.0024586919 0)
(0.10638745 0.002614211 0)
(0.10530818 0.0027678507 0)
(0.1041677 0.0029195313 0)
(0.1029668 0.0030691749 0)
(0.10170633 0.0032167054 0)
(0.10038713 0.0033620488 0)
(0.09901011 0.003505133 0)
(0.097576184 0.0036458878 0)
(0.0960863 0.0037842448 0)
(0.094541433 0.0039201379 0)
(0.092942585 0.0040535028 0)
(0.091290782 0.0041842769 0)
(0.089587075 0.0043124 0)
(0.08783254 0.0044378134 0)
(0.086028274 0.0045604607 0)
(0.084175398 0.0046802871 0)
(0.082275054 0.0047972399 0)
(0.080328404 0.0049112682 0)
(0.078336631 0.005022323 0)
(0.076300937 0.0051303572 0)
(0.074222542 0.0052353255 0)
(0.072102685 0.0053371843 0)
(0.06994262 0.0054358919 0)
(0.06774362 0.0055314083 0)
(0.065506972 0.0056236954 0)
(0.063233978 0.0057127166 0)
(0.060925954 0.005798437 0)
(0.058584231 0.0058808236 0)
(0.056210152 0.0059598448 0)
(0.053805072 0.0060354706 0)
(0.051370359 0.0061076728 0)
(0.04890739 0.0061764245 0)
(0.046417554 0.0062417006 0)
(0.043902249 0.0063034772 0)
(0.041362883 0.0063617321 0)
(0.038800873 0.0064164444 0)
(0.036217641 0.0064675949 0)
(0.03361462 0.0065151654 0)
(0.030993249 0.0065591394 0)
(0.028354972 0.0065995016 0)
(0.025701241 0.0066362382 0)
(0.023033511 0.0066693365 0)
(0.020353243 0.0066987854 0)
(0.017661902 0.0067245748 0)
(0.014960958 0.0067466961 0)
(0.012251882 0.0067651418 0)
(0.0095361495 0.0067799057 0)
(0.0068152367 0.006790983 0)
(0.0040906228 0.0067983698 0)
(0.0013637878 0.0068020639 0)
(-0.0013637878 0.0068020639 0)
(-0.0040906228 0.0067983698 0)
(-0.0068152367 0.006790983 0)
(-0.0095361495 0.0067799057 0)
(-0.012251882 0.0067651418 0)
(-0.014960958 0.0067466961 0)
(-0.017661902 0.0067245748 0)
(-0.020353243 0.0066987854 0)
(-0.023033511 0.0066693365 0)
(-0.025701241 0.0066362382 0)
(-0.028354972 0.0065995016 0)
(-0.030993249 0.0065591394 0)
(-0.03361462 0.0065151654 0)
(-0.036217641 0.0064675949 0)
(-0.038800873 0.0064164444 0)
(-0.041362883 0.0063617321 0)
(-0.043902249 0.0063034772 0)
(-0.046417554 0.0062417006 0)
(-0.04890739 0.0061764245 0)
(-0.051370359 0.0061076728 0)
(-0.053805072 0.0060354706 0)
(-0.056210152 0.0059598448 0)
(-0.058584231 0.0058808236 0)
(-0.060925954 0.005798437 0)
(-0.063233978 0.0057127166 0)
(-0.065506972 0.0056236954 0)
(-0.06774362 0.0055314083 0)
(-0.06994262 0.0054358919 0)
(-0.072102685 0.0053371843 0)
(-0.074222542 0.0052353255 0)
(-0.076300937 0.0051303572 0)
(-0.078336631 0.005022323 0)
(-0.080328404 0.0049112682 0)
(-0.082275054 0.0047972399 0)
(-0.084175398 0.0046802871 0)
(-0.086028274 0.0045604607 0)
(-0.08783254 0.0044378134 0)
(-0.089587075 0.0043124 0)
(-0.091290782 0.0041842769 0)
(-0.092942585 0.0040535028 0)
(-0.094541433 0.0039201379 0)
(-0.0960863 0.0037842448 0)
(-0.097576184 0.0036458878 0)
(-0.09901011 0.003505133 0)
(-0.10038713 0.0033620488 0)
(-0.10170633 0.0032167054 0)
(-0.1029668 0.0030691749 0)
(-0.1041677 0.0029195313 0)
(-0.10530818 0.0027678507 0)
(-0.10638745 0.002614211 0)
(-0.10740474 0.0024586919 0)
(-0.1083593 0.0023013752 0)
(-0.10925044 0.0021423444 0)
(-0.11007748 0.0019816849 0)
(-0.11083978 0.0018194838 0)
(-0.11153676 0.0016558301 0)
(-0.11216783 0.0014908146 0)
(-0.11273248 0.0013245295 0)
(-0.11323022 0.001157069 0)
(-0.11366058 0.00098852862 0)
(-0.11402316 0.00081900568 0)
(-0.11431758 0.00064859887 0)
(-0.11454351 0.00047740835 0)
(-0.11470065 0.00030553561 0)
(-0.11478875 0.00013308411 0)
(-0.1148076 -3.9841707e-05 0)
(-0.11475703 -0.00021313698 0)
(-0.11463691 -0.00038669502 0)
(-0.11444716 -0.00056040805 0)
(-0.11418774 -0.00073416729 0)
(-0.11385864 -0.00090786306 0)
(-0.11345992 -0.0010813848 0)
(-0.11299167 -0.0012546213 0)
(-0.11245403 -0.0014274605 0)
(-0.11184718 -0.0015997899 0)
(-0.11117133 -0.0017714962 0)
(-0.11042678 -0.001942466 0)
(-0.10961383 -0.0021125854 0)
(-0.10873285 -0.0022817403 0)
(-0.10778424 -0.0024498165 0)
(-0.10676847 -0.0026166995 0)
(-0.10568603 -0.0027822752 0)
(-0.10453747 -0.0029464295 0)
(-0.10332338 -0.0031090485 0)
(-0.10204441 -0.0032700188 0)
(-0.10070123 -0.0034292272 0)
(-0.099294574 -0.0035865615 0)
(-0.097825217 -0.0037419098 0)
(-0.096293977 -0.0038951611 0)
(-0.094701716 -0.0040462054 0)
(-0.09304934 -0.0041949334 0)
(-0.091337802 -0.0043412374 0)
(-0.089568093 -0.0044850103 0)
(-0.08774125 -0.004626147 0)
(-0.085858352 -0.0047645432 0)
(-0.083920516 -0.0049000965 0)
(-0.081928905 -0.0050327061 0)
(-0.079884718 -0.0051622729 0)
(-0.077789194 -0.0052886997 0)
(-0.075643613 -0.0054118912 0)
(-0.07344929 -0.0055317542 0)
(-0.071207578 -0.0056481976 0)
(-0.068919867 -0.0057611327 0)
(-0.066587581 -0.0058704731 0)
(-0.064212179 -0.0059761349 0)
(-0.061795151 -0.0060780365 0)
(-0.059338022 -0.0061760993 0)
(-0.056842348 -0.0062702472 0)
(-0.054309711 -0.0063604071 0)
(-0.051741727 -0.0064465085 0)
(-0.049140036 -0.0065284843 0)
(-0.046506306 -0.0066062702 0)
(-0.04384223 -0.006679805 0)
(-0.041149524 -0.0067490308 0)
(-0.038429927 -0.006813893 0)
(-0.0356852 -0.0068743403 0)
(-0.032917124 -0.0069303249 0)
(-0.030127496 -0.0069818023 0)
(-0.027318134 -0.0070287316 0)
(-0.024490868 -0.0070710754 0)
(-0.021647545 -0.0071087999 0)
(-0.018790023 -0.0071418752 0)
(-0.015920172 -0.0071702747 0)
(-0.013039873 -0.0071939758 0)
(-0.010151014 -0.0072129595 0)
(-0.0072554897 -0.0072272106 0)
(-0.0043552007 -0.0072367177 0)
(-0.0014520515 -0.0072414731 0)
(0.0014563892 -0.010148809 0)
(0.0043682111 -0.010142144 0)
(0.0072771639 -0.01012882 0)
(0.010181337 -0.010108846 0)
(0.013078825 -0.01008224 0)
(0.015967727 -0.010049022 0)
(0.018846148 -0.010009219 0)
(0.021712202 -0.0099628623 0)
(0.024564014 -0.0099099898 0)
(0.02739972 -0.0098506433 0)
(0.030217467 -0.0097848701 0)
(0.033015419 -0.0097127226 0)
(0.035791754 -0.0096342581 0)
(0.038544668 -0.0095495388 0)
(0.041272374 -0.009458632 0)
(0.043973108 -0.0093616095 0)
(0.046645124 -0.0092585479 0)
(0.0492867 -0.0091495283 0)
(0.05189614 -0.0090346365 0)
(0.05447177 -0.0089139624 0)
(0.057011944 -0.0087876004 0)
(0.059515043 -0.0086556491 0)
(0.061979479 -0.0085182111 0)
(0.06440369 -0.0083753929 0)
(0.06678615 -0.008227305 0)
(0.069125362 -0.0080740614 0)
(0.071419863 -0.0079157798 0)
(0.073668224 -0.0077525813 0)
(0.075869053 -0.0075845904 0)
(0.078020991 -0.0074119347 0)
(0.080122719 -0.0072347447 0)
(0.082172955 -0.0070531541 0)
(0.084170455 -0.0068672991 0)
(0.086114015 -0.0066773186 0)
(0.088002473 -0.006483354 0)
(0.089834704 -0.0062855488 0)
(0.091609628 -0.0060840488 0)
(0.093326205 -0.0058790019 0)
(0.09498344 -0.0056705578 0)
(0.096580379 -0.0054588677 0)
(0.098116113 -0.0052440846 0)
(0.099589776 -0.0050263629 0)
(0.10100055 -0.0048058579 0)
(0.10234765 -0.0045827265 0)
(0.10363036 -0.0043571263 0)
(0.10484798 -0.0041292155 0)
(0.10599988 -0.0038991533 0)
(0.10708546 -0.0036670993 0)
(0.10810417 -0.0034332133 0)
(0.10905551 -0.0031976555 0)
(0.10993903 -0.0029605861 0)
(0.11075431 -0.0027221652 0)
(0.11150099 -0.0024825528 0)
(0.11217875 -0.0022419085 0)
(0.11278732 -0.0020003914 0)
(0.11332647 -0.00175816 0)
(0.11379602 -0.0015153722 0)
(0.11419582 -0.0012721848 0)
(0.1145258 -0.001028754 0)
(0.1147859 -0.00078523456 0)
(0.11497612 -0.00054178024 0)
(0.1150965 -0.00029854345 0)
(0.11514713 -5.5675185e-05 0)
(0.11512813 0.00018667513 0)
(0.11503967 0.00042835993 0)
(0.11488197 0.00066923304 0)
(0.11465527 0.0009091499 0)
(0.11435988 0.0011479681 0)
(0.11399614 0.0013855472 0)
(0.11356441 0.0016217489 0)
(0.11306511 0.0018564369 0)
(0.1124987 0.0020894771 0)
(0.11186566 0.0023207377 0)
(0.11116654 0.0025500894 0)
(0.11040189 0.0027774049 0)
(0.10957232 0.0030025596 0)
(0.10867846 0.0032254313 0)
(0.10772099 0.0034459005 0)
(0.10670062 0.00366385 0)
(0.10561808 0.0038791653 0)
(0.10447415 0.0040917347 0)
(0.10326963 0.0043014489 0)
(0.10200536 0.0045082014 0)
(0.1006822 0.0047118885 0)
(0.09930105 0.0049124091 0)
(0.097862827 0.0051096647 0)
(0.096368486 0.0053035599 0)
(0.094819004 0.0054940017 0)
(0.093215385 0.0056809 0)
(0.09155866 0.0058641673 0)
(0.089849882 0.0060437191 0)
(0.08809013 0.0062194732 0)
(0.086280505 0.0063913505 0)
(0.084422131 0.0065592743 0)
(0.082516154 0.0067231708 0)
(0.08056374 0.0068829687 0)
(0.078566074 0.0070385992 0)
(0.076524362 0.0071899965 0)
(0.074439829 0.0073370969 0)
(0.072313716 0.0074798395 0)
(0.070147282 0.0076181658 0)
(0.067941803 0.0077520199 0)
(0.06569857 0.0078813483 0)
(0.063418888 0.0080060997 0)
(0.061104078 0.0081262254 0)
(0.058755475 0.0082416789 0)
(0.056374425 0.0083524161 0)
(0.053962287 0.0084583951 0)
(0.051520433 0.0085595762 0)
(0.049050245 0.0086559218 0)
(0.046553114 0.0087473967 0)
(0.044030444 0.0088339674 0)
(0.041483645 0.0089156029 0)
(0.038914139 0.008992274 0)
(0.036323353 0.0090639535 0)
(0.033712722 0.0091306162 0)
(0.031083691 0.0091922389 0)
(0.028437707 0.0092488003 0)
(0.025776225 0.0093002808 0)
(0.023100706 0.0093466629 0)
(0.020412615 0.0093879308 0)
(0.01771342 0.0094240705 0)
(0.015004595 0.0094550699 0)
(0.012287616 0.0094809185 0)
(0.0095639611 0.0095016078 0)
(0.0068351124 0.0095171307 0)
(0.0041025524 0.0095274822 0)
(0.001367765 0.0095326589 0)
(-0.001367765 0.0095326589 0)
(-0.0041025523 0.0095274822 0)
(-0.0068351124 0.0095171307 0)
(-0.0095639611 0.0095016078 0)
(-0.012287616 0.0094809185 0)
(-0.015004595 0.0094550699 0)
(-0.01771342 0.0094240705 0)
(-0.020412615 0.0093879308 0)
(-0.023100706 0.0093466629 0)
(-0.025776225 0.0093002808 0)
(-0.028437707 0.0092488003 0)
(-0.031083691 0.0091922389 0)
(-0.033712722 0.0091306162 0)
(-0.036323353 0.0090639535 0)
(-0.038914139 0.008992274 0)
(-0.041483645 0.0089156029 0)
(-0.044030444 0.0088339674 0)
(-0.046553114 0.0087473967 0)
(-0.049050245 0.0086559218 0)
(-0.051520433 0.0085595762 0)
(-0.053962287 0.0084583951 0)
(-0.056374425 0.0083524161 0)
(-0.058755475 0.0082416789 0)
(-0.061104078 0.0081262254 0)
(-0.063418888 0.0080060997 0)
(-0.06569857 0.0078813483 0)
(-0.067941803 0.0077520199 0)
(-0.070147282 0.0076181658 0)
(-0.072313716 0.0074798395 0)
(-0.074439829 0.0073370969 0)
(-0.076524362 0.0071899965 0)
(-0.078566074 0.0070385992 0)
(-0.08056374 0.0068829687 0)
(-0.082516154 0.0067231708 0)
(-0.084422131 0.0065592743 0)
(-0.086280505 0.0063913505 0)
(-0.08809013 0.0062194732 0)
(-0.089849882 0.0060437191 0)
(-0.09155866 0.0058641673 0)
(-0.093215385 0.0056809 0)
(-0.094819004 0.0054940017 0)
(-0.096368486 0.0053035599 0)
(-0.097862827 0.0051096647 0)
(-0.09930105 0.0049124091 0)
(-0.1006822 0.0047118885 0)
(-0.10200536 0.0045082014 0)
(-0.10326963 0.0043014489 0)
(-0.10447415 0.0040917347 0)
(-0.10561808 0.0038791653 0)
(-0.10670062 0.00366385 0)
(-0.10772099 0.0034459005 0)
(-0.10867846 0.0032254313 0)
(-0.10957232 0.0030025596 0)
(-0.11040189 0.0027774049 0)
(-0.11116654 0.0025500894 0)
(-0.11186566 0.0023207377 0)
(-0.1124987 0.0020894771 0)
(-0.11306511 0.0018564369 0)
(-0.11356441 0.0016217489 0)
(-0.11399614 0.0013855472 0)
(-0.11435988 0.0011479681 0)
(-0.11465527 0.0009091499 0)
(-0.11488197 0.00066923304 0)
(-0.11503967 0.00042835993 0)
(-0.11512813 0.00018667513 0)
(-0.11514713 -5.5675184e-05 0)
(-0.1150965 -0.00029854345 0)
(-0.11497612 -0.00054178024 0)
(-0.1147859 -0.00078523456 0)
(-0.1145258 -0.001028754 0)
(-0.11419582 -0.0012721848 0)
(-0.11379602 -0.0015153722 0)
(-0.11332647 -0.00175816 0)
(-0.11278732 -0.0020003914 0)
(-0.11217875 -0.0022419085 0)
(-0.11150099 -0.0024825528 0)
(-0.11075431 -0.0027221652 0)
(-0.10993903 -0.0029605861 0)
(-0.10905551 -0.0031976555 0)
(-0.10810417 -0.0034332133 0)
(-0.10708546 -0.0036670993 0)
(-0.10599988 -0.0038991533 0)
(-0.10484798 -0.0041292155 0)
(-0.10363036 -0.0043571263 0)
(-0.10234765 -0.0045827265 0)
(-0.10100055 -0.0048058579 0)