/*--------------------------------*- C++ -*----------------------------------*\
| =========                 |                                                 |
| \\      /  F ield         | OpenFOAM: The Open Source CFD Toolbox           |
|  \\    /   O peration     | Version:  2106                                  |
|   \\  /    A nd           | Website:  www.openfoam.com                      |
|    \\/     M anipulation  |                                                 |
\*---------------------------------------------------------------------------*/
FoamFile
{
    version     2.0;
    format      ascii;
    arch        "LSB;label=32;scalar=64";
    class       volVectorField;
    location    "0.021";
    object      U_0;
}
// * * * * * * * * * * * * * * * * * * * * * * * * * * * * * * * * * * * * * //

dimensions      [0 1 -1 0 0 0 0];

internalField   nonuniform List<vector> 
65536
(
(0.0014476944 -0.0014471959 0)
(0.0043421324 -0.0014462456 0)
(0.0072337192 -0.0014443458 0)
(0.010120557 -0.0014414979 0)
(0.01300075 -0.0014377044 0)
(0.01587241 -0.0014329681 0)
(0.018733655 -0.001427293 0)
(0.02158261 -0.0014206835 0)
(0.024417412 -0.0014131449 0)
(0.027236207 -0.0014046832 0)
(0.030037156 -0.0013953052 0)
(0.032818432 -0.0013850183 0)
(0.035578225 -0.0013738307 0)
(0.038314742 -0.0013617513 0)
(0.041026209 -0.0013487897 0)
(0.043710869 -0.0013349561 0)
(0.046366991 -0.0013202613 0)
(0.048992862 -0.0013047171 0)
(0.051586794 -0.0012883355 0)
(0.054147127 -0.0012711295 0)
(0.056672222 -0.0012531124 0)
(0.059160473 -0.0012342984 0)
(0.061610298 -0.001214702 0)
(0.064020148 -0.0011943385 0)
(0.066388504 -0.0011732235 0)
(0.068713878 -0.0011513733 0)
(0.070994817 -0.0011288048 0)
(0.0732299 -0.0011055352 0)
(0.075417743 -0.0010815822 0)
(0.077556996 -0.0010569639 0)
(0.079646348 -0.0010316991 0)
(0.081684523 -0.0010058068 0)
(0.083670286 -0.00097930637 0)
(0.08560244 -0.00095221761 0)
(0.087479827 -0.00092456069 0)
(0.089301333 -0.00089635607 0)
(0.091065881 -0.00086762455 0)
(0.092772439 -0.00083838719 0)
(0.094420016 -0.00080866533 0)
(0.096007665 -0.00077848055 0)
(0.097534481 -0.00074785464 0)
(0.098999603 -0.0007168096 0)
(0.10040222 -0.00068536762 0)
(0.10174155 -0.00065355102 0)
(0.10301687 -0.00062138226 0)
(0.1042275 -0.00058888395 0)
(0.10537281 -0.00055607874 0)
(0.1064522 -0.00052298939 0)
(0.10746512 -0.00048963869 0)
(0.10841108 -0.00045604949 0)
(0.10928962 -0.00042224461 0)
(0.11010034 -0.00038824689 0)
(0.11084287 -0.00035407913 0)
(0.11151689 -0.00031976408 0)
(0.11212213 -0.00028532444 0)
(0.11265837 -0.00025078281 0)
(0.11312542 -0.00021616169 0)
(0.11352315 -0.00018148345 0)
(0.11385146 -0.00014677034 0)
(0.11411031 -0.00011204444 0)
(0.1142997 -7.7327658e-05 0)
(0.11441966 -4.2641672e-05 0)
(0.11447027 -8.007593e-06 0)
(0.11445167 2.655086e-05 0)
(0.11436403 6.1015837e-05 0)
(0.11420754 9.5365953e-05 0)
(0.11398247 0.00012957928 0)
(0.11368911 0.000163636 0)
(0.11332779 0.0001975162 0)
(0.11289889 0.00023120014 0)
(0.11240281 0.00026466838 0)
(0.11184 0.00029790181 0)
(0.11121097 0.00033088164 0)
(0.11051622 0.00036358939 0)
(0.10975633 0.00039600693 0)
(0.1089319 0.0004281165 0)
(0.10804355 0.00045990066 0)
(0.10709195 0.00049134235 0)
(0.10607781 0.00052242488 0)
(0.10500186 0.0005531319 0)
(0.10386488 0.00058344748 0)
(0.10266765 0.00061335603 0)
(0.101411 0.00064284236 0)
(0.10009581 0.00067189167 0)
(0.098722948 0.00070048953 0)
(0.097293342 0.00072862192 0)
(0.095807934 0.0007562752 0)
(0.094267697 0.0007834361 0)
(0.092673627 0.00081009177 0)
(0.091026748 0.00083622974 0)
(0.089328109 0.00086183792 0)
(0.087578781 0.00088690462 0)
(0.085779859 0.00091141852 0)
(0.083932459 0.00093536869 0)
(0.08203772 0.00095874458 0)
(0.080096801 0.00098153603 0)
(0.078110882 0.0010037332 0)
(0.07608116 0.0010253267 0)
(0.074008852 0.0010463075 0)
(0.071895193 0.0010666668 0)
(0.069741435 0.0010863964 0)
(0.067548845 0.0011054881 0)
(0.065318707 0.0011239344 0)
(0.06305232 0.001141728 0)
(0.060750997 0.0011588619 0)
(0.058416063 0.0011753295 0)
(0.056048859 0.0011911244 0)
(0.053650736 0.0012062407 0)
(0.051223057 0.0012206727 0)
(0.048767196 0.001234415 0)
(0.046284539 0.0012474627 0)
(0.04377648 0.0012598109 0)
(0.041244422 0.0012714551 0)
(0.038689778 0.0012823913 0)
(0.036113969 0.0012926156 0)
(0.033518421 0.0013021243 0)
(0.030904571 0.0013109141 0)
(0.028273859 0.001318982 0)
(0.025627732 0.0013263251 0)
(0.022967643 0.0013329411 0)
(0.020295048 0.0013388275 0)
(0.017611409 0.0013439825 0)
(0.014918192 0.0013484043 0)
(0.012216863 0.0013520914 0)
(0.0095088944 0.0013550425 0)
(0.0067957593 0.0013572567 0)
(0.0040789326 0.0013587333 0)
(0.0013598904 0.0013594717 0)
(-0.0013598904 0.0013594717 0)
(-0.0040789326 0.0013587333 0)
(-0.0067957593 0.0013572567 0)
(-0.0095088944 0.0013550425 0)
(-0.012216863 0.0013520914 0)
(-0.014918192 0.0013484043 0)
(-0.017611409 0.0013439825 0)
(-0.020295048 0.0013388275 0)
(-0.022967643 0.0013329411 0)
(-0.025627732 0.0013263251 0)
(-0.028273859 0.001318982 0)
(-0.030904571 0.0013109141 0)
(-0.033518421 0.0013021243 0)
(-0.036113969 0.0012926156 0)
(-0.038689778 0.0012823913 0)
(-0.041244422 0.0012714551 0)
(-0.04377648 0.0012598109 0)
(-0.046284539 0.0012474627 0)
(-0.048767196 0.001234415 0)
(-0.051223057 0.0012206727 0)
(-0.053650736 0.0012062407 0)
(-0.056048859 0.0011911244 0)
(-0.058416063 0.0011753295 0)
(-0.060750997 0.0011588619 0)
(-0.06305232 0.001141728 0)
(-0.065318707 0.0011239344 0)
(-0.067548845 0.0011054881 0)
(-0.069741435 0.0010863964 0)
(-0.071895193 0.0010666668 0)
(-0.074008852 0.0010463075 0)
(-0.07608116 0.0010253267 0)
(-0.078110882 0.0010037332 0)
(-0.080096801 0.00098153603 0)
(-0.08203772 0.00095874458 0)
(-0.083932459 0.00093536869 0)
(-0.085779859 0.00091141852 0)
(-0.087578781 0.00088690462 0)
(-0.089328109 0.00086183792 0)
(-0.091026748 0.00083622974 0)
(-0.092673627 0.00081009177 0)
(-0.094267697 0.0007834361 0)
(-0.095807934 0.0007562752 0)
(-0.097293342 0.00072862192 0)
(-0.098722948 0.00070048953 0)
(-0.10009581 0.00067189167 0)
(-0.101411 0.00064284236 0)
(-0.10266765 0.00061335603 0)
(-0.10386488 0.00058344748 0)
(-0.10500186 0.0005531319 0)
(-0.10607781 0.00052242488 0)
(-0.10709195 0.00049134235 0)
(-0.10804355 0.00045990066 0)
(-0.1089319 0.0004281165 0)
(-0.10975633 0.00039600693 0)
(-0.11051622 0.00036358939 0)
(-0.11121097 0.00033088164 0)
(-0.11184 0.00029790181 0)
(-0.11240281 0.00026466838 0)
(-0.11289889 0.00023120014 0)
(-0.11332779 0.0001975162 0)
(-0.11368911 0.000163636 0)
(-0.11398247 0.00012957928 0)
(-0.11420754 9.5365953e-05 0)
(-0.11436403 6.1015837e-05 0)
(-0.11445167 2.655086e-05 0)
(-0.11447027 -8.007593e-06 0)
(-0.11441966 -4.2641672e-05 0)
(-0.1142997 -7.7327658e-05 0)
(-0.11411031 -0.00011204444 0)
(-0.11385146 -0.00014677034 0)
(-0.11352315 -0.00018148345 0)
(-0.11312542 -0.00021616169 0)
(-0.11265837 -0.00025078281 0)
(-0.11212213 -0.00028532444 0)
(-0.11151689 -0.00031976408 0)
(-0.11084287 -0.00035407913 0)
(-0.11010034 -0.00038824689 0)
(-0.10928962 -0.00042224461 0)
(-0.10841108 -0.00045604949 0)
(-0.10746512 -0.00048963869 0)
(-0.1064522 -0.00052298939 0)
(-0.10537281 -0.00055607874 0)
(-0.1042275 -0.00058888395 0)
(-0.10301687 -0.00062138226 0)
(-0.10174155 -0.00065355101 0)
(-0.10040222 -0.00068536762 0)
(-0.098999603 -0.0007168096 0)
(-0.097534481 -0.00074785464 0)
(-0.096007665 -0.00077848055 0)
(-0.094420016 -0.00080866533 0)
(-0.092772439 -0.00083838719 0)
(-0.091065881 -0.00086762455 0)
(-0.089301333 -0.00089635607 0)
(-0.087479827 -0.00092456069 0)
(-0.08560244 -0.00095221761 0)
(-0.083670286 -0.00097930637 0)
(-0.081684523 -0.0010058068 0)
(-0.079646348 -0.0010316991 0)
(-0.077556996 -0.0010569639 0)
(-0.075417743 -0.0010815822 0)
(-0.0732299 -0.0011055352 0)
(-0.070994817 -0.0011288048 0)
(-0.068713878 -0.0011513733 0)
(-0.066388504 -0.0011732235 0)
(-0.064020148 -0.0011943385 0)
(-0.061610298 -0.001214702 0)
(-0.059160473 -0.0012342984 0)
(-0.056672222 -0.0012531124 0)
(-0.054147127 -0.0012711295 0)
(-0.051586794 -0.0012883355 0)
(-0.048992862 -0.0013047171 0)
(-0.046366991 -0.0013202613 0)
(-0.043710869 -0.0013349561 0)
(-0.041026209 -0.0013487897 0)
(-0.038314742 -0.0013617513 0)
(-0.035578225 -0.0013738307 0)
(-0.032818432 -0.0013850183 0)
(-0.030037156 -0.0013953052 0)
(-0.027236207 -0.0014046832 0)
(-0.024417412 -0.0014131449 0)
(-0.02158261 -0.0014206835 0)
(-0.018733655 -0.001427293 0)
(-0.01587241 -0.0014329681 0)
(-0.01300075 -0.0014377044 0)
(-0.010120557 -0.0014414979 0)
(-0.0072337192 -0.0014443458 0)
(-0.0043421324 -0.0014462456 0)
(-0.0014476944 -0.0014471959 0)
(0.0014494576 -0.0043429079 0)
(0.004347421 -0.0043400561 0)
(0.0072425295 -0.0043343548 0)
(0.010132882 -0.0043258085 0)
(0.013016583 -0.0043144242 0)
(0.015891739 -0.0043002108 0)
(0.018756466 -0.0042831798 0)
(0.021608888 -0.0042633448 0)
(0.024447138 -0.0042407216 0)
(0.02726936 -0.0042153283 0)
(0.030073714 -0.0041871851 0)
(0.032858369 -0.0041563145 0)
(0.035621513 -0.0041227409 0)
(0.038361352 -0.0040864909 0)
(0.041076108 -0.0040475934 0)
(0.043764023 -0.004006079 0)
(0.046423363 -0.0039619805 0)
(0.049052413 -0.0039153327 0)
(0.051649483 -0.0038661721 0)
(0.05421291 -0.0038145373 0)
(0.056741056 -0.0037604687 0)
(0.059232309 -0.0037040084 0)
(0.061685087 -0.0036452003 0)
(0.064097839 -0.00358409 0)
(0.066469044 -0.0035207247 0)
(0.068797213 -0.0034551533 0)
(0.071080889 -0.003387426 0)
(0.073318652 -0.0033175948 0)
(0.075509114 -0.0032457127 0)
(0.077650924 -0.0031718345 0)
(0.07974277 -0.0030960159 0)
(0.081783374 -0.0030183142 0)
(0.0837715 -0.0029387876 0)
(0.085705948 -0.0028574955 0)
(0.087585562 -0.0027744985 0)
(0.089409223 -0.0026898579 0)
(0.091175855 -0.0026036361 0)
(0.092884423 -0.0025158963 0)
(0.094533937 -0.0024267027 0)
(0.096123447 -0.0023361199 0)
(0.097652049 -0.0022442134 0)
(0.099118879 -0.0021510491 0)
(0.10052312 -0.0020566937 0)
(0.10186401 -0.0019612141 0)
(0.1031408 -0.0018646778 0)
(0.10435282 -0.0017671526 0)
(0.10549944 -0.0016687065 0)
(0.10658006 -0.0015694077 0)
(0.10759413 -0.0014693248 0)
(0.10854116 -0.0013685261 0)
(0.10942068 -0.0012670803 0)
(0.11023229 -0.0011650559 0)
(0.11097564 -0.0010625213 0)
(0.11165039 -0.00095954472 0)
(0.11225628 -0.00085619436 0)
(0.11279308 -0.000752538 0)
(0.11326061 -0.00064864317 0)
(0.11365873 -0.00054457703 0)
(0.11398736 -0.00044040631 0)
(0.11424643 -0.00033619731 0)
(0.11443596 -0.0002320158 0)
(0.11455598 -0.00012792702 0)
(0.11460658 -2.3995695e-05 0)
(0.11458787 7.971406e-05 0)
(0.11450003 0.00018314004 0)
(0.11434328 0.00028621934 0)
(0.11411786 0.0003888894 0)
(0.11382406 0.00049108964 0)
(0.11346223 0.00059276005 0)
(0.11303273 0.00069384142 0)
(0.11253598 0.00079427542 0)
(0.11197243 0.00089400469 0)
(0.11134256 0.00099297283 0)
(0.11064691 0.0010911244 0)
(0.10988604 0.001188405 0)
(0.10906055 0.0012847614 0)
(0.10817107 0.0013801412 0)
(0.10721827 0.0014744931 0)
(0.10620286 0.0015677672 0)
(0.10512557 0.0016599144 0)
(0.10398717 0.0017508868 0)
(0.10278845 0.0018406377 0)
(0.10153026 0.0019291215 0)
(0.10021344 0.0020162938 0)
(0.098838901 0.0021021113 0)
(0.097407548 0.0021865319 0)
(0.09592033 0.0022695146 0)
(0.09437822 0.0023510198 0)
(0.092782219 0.0024310088 0)
(0.09113335 0.0025094442 0)
(0.089432662 0.0025862897 0)
(0.08768123 0.0026615103 0)
(0.085880148 0.0027350719 0)
(0.084030535 0.0028069418 0)
(0.082133532 0.0028770884 0)
(0.080190298 0.0029454811 0)
(0.078202013 0.0030120905 0)
(0.076169879 0.0030768883 0)
(0.074095112 0.0031398473 0)
(0.07197895 0.0032009415 0)
(0.069822645 0.0032601457 0)
(0.067627466 0.0033174361 0)
(0.0653947 0.0033727896 0)
(0.063125645 0.0034261843 0)
(0.060821616 0.0034775994 0)
(0.058483941 0.0035270149 0)
(0.056113961 0.003574412 0)
(0.053713029 0.0036197726 0)
(0.05128251 0.0036630798 0)
(0.04882378 0.0037043175 0)
(0.046338225 0.0037434705 0)
(0.043827241 0.0037805246 0)
(0.041292233 0.0038154664 0)
(0.038734616 0.0038482833 0)
(0.03615581 0.0038789639 0)
(0.033557247 0.0039074972 0)
(0.030940361 0.0039338733 0)
(0.028306595 0.0039580831 0)
(0.025657399 0.0039801182 0)
(0.022994226 0.003999971 0)
(0.020318535 0.0040176349 0)
(0.017631787 0.0040331037 0)
(0.014935451 0.0040463724 0)
(0.012230996 0.0040574364 0)
(0.0095198939 0.0040662921 0)
(0.00680362 0.0040729364 0)
(0.0040836505 0.0040773671 0)
(0.0013614633 0.0040795829 0)
(-0.0013614633 0.0040795829 0)
(-0.0040836505 0.0040773671 0)
(-0.00680362 0.0040729364 0)
(-0.0095198939 0.0040662921 0)
(-0.012230996 0.0040574364 0)
(-0.014935451 0.0040463724 0)
(-0.017631787 0.0040331037 0)
(-0.020318535 0.0040176349 0)
(-0.022994226 0.003999971 0)
(-0.025657399 0.0039801182 0)
(-0.028306595 0.0039580831 0)
(-0.030940361 0.0039338733 0)
(-0.033557246 0.0039074972 0)
(-0.03615581 0.0038789639 0)
(-0.038734616 0.0038482833 0)
(-0.041292233 0.0038154664 0)
(-0.043827241 0.0037805246 0)
(-0.046338225 0.0037434705 0)
(-0.04882378 0.0037043175 0)
(-0.05128251 0.0036630798 0)
(-0.053713029 0.0036197726 0)
(-0.056113961 0.003574412 0)
(-0.058483941 0.0035270149 0)
(-0.060821616 0.0034775994 0)
(-0.063125645 0.0034261843 0)
(-0.0653947 0.0033727896 0)
(-0.067627466 0.0033174361 0)
(-0.069822645 0.0032601457 0)
(-0.07197895 0.0032009415 0)
(-0.074095112 0.0031398473 0)
(-0.076169879 0.0030768883 0)
(-0.078202013 0.0030120905 0)
(-0.080190298 0.0029454811 0)
(-0.082133532 0.0028770884 0)
(-0.084030535 0.0028069418 0)
(-0.085880148 0.0027350719 0)
(-0.08768123 0.0026615103 0)
(-0.089432662 0.0025862897 0)
(-0.09113335 0.0025094442 0)
(-0.092782219 0.0024310088 0)
(-0.09437822 0.0023510198 0)
(-0.09592033 0.0022695146 0)
(-0.097407548 0.0021865319 0)
(-0.098838901 0.0021021113 0)
(-0.10021344 0.0020162938 0)
(-0.10153026 0.0019291215 0)
(-0.10278845 0.0018406377 0)
(-0.10398717 0.0017508868 0)
(-0.10512557 0.0016599144 0)
(-0.10620286 0.0015677672 0)
(-0.10721827 0.0014744931 0)
(-0.10817107 0.0013801412 0)
(-0.10906055 0.0012847614 0)
(-0.10988604 0.001188405 0)
(-0.11064691 0.0010911244 0)
(-0.11134256 0.00099297283 0)
(-0.11197243 0.00089400469 0)
(-0.11253598 0.00079427542 0)
(-0.11303273 0.00069384142 0)
(-0.11346223 0.00059276005 0)
(-0.11382406 0.00049108964 0)
(-0.11411786 0.0003888894 0)
(-0.11434328 0.00028621934 0)
(-0.11450003 0.00018314004 0)
(-0.11458787 7.971406e-05 0)
(-0.11460658 -2.3995695e-05 0)
(-0.11455598 -0.00012792702 0)
(-0.11443596 -0.0002320158 0)
(-0.11424643 -0.00033619731 0)
(-0.11398736 -0.00044040631 0)
(-0.11365873 -0.00054457703 0)
(-0.11326061 -0.00064864317 0)
(-0.11279308 -0.000752538 0)
(-0.11225628 -0.00085619436 0)
(-0.11165039 -0.00095954472 0)
(-0.11097564 -0.0010625213 0)
(-0.11023229 -0.0011650559 0)
(-0.10942068 -0.0012670803 0)
(-0.10854116 -0.0013685261 0)
(-0.10759413 -0.0014693248 0)
(-0.10658006 -0.0015694077 0)
(-0.10549944 -0.0016687065 0)
(-0.10435282 -0.0017671526 0)
(-0.1031408 -0.0018646778 0)
(-0.10186401 -0.0019612141 0)
(-0.10052312 -0.0020566937 0)
(-0.099118879 -0.0021510491 0)
(-0.097652049 -0.0022442134 0)
(-0.096123447 -0.0023361199 0)
(-0.094533937 -0.0024267027 0)
(-0.092884423 -0.0025158963 0)
(-0.091175855 -0.0026036361 0)
(-0.089409223 -0.0026898579 0)
(-0.087585562 -0.0027744985 0)
(-0.085705948 -0.0028574955 0)
(-0.0837715 -0.0029387876 0)
(-0.081783374 -0.0030183142 0)
(-0.07974277 -0.0030960159 0)
(-0.077650924 -0.0031718345 0)
(-0.075509114 -0.0032457127 0)
(-0.073318652 -0.0033175948 0)
(-0.071080889 -0.003387426 0)
(-0.068797213 -0.0034551533 0)
(-0.066469044 -0.0035207247 0)
(-0.064097839 -0.00358409 0)
(-0.061685087 -0.0036452003 0)
(-0.059232309 -0.0037040084 0)
(-0.056741056 -0.0037604687 0)
(-0.05421291 -0.0038145373 0)
(-0.051649483 -0.0038661721 0)
(-0.049052413 -0.0039153327 0)
(-0.046423363 -0.0039619805 0)
(-0.043764023 -0.004006079 0)
(-0.041076108 -0.0040475934 0)
(-0.038361352 -0.0040864909 0)
(-0.035621513 -0.0041227409 0)
(-0.032858369 -0.0041563145 0)
(-0.030073714 -0.0041871851 0)
(-0.02726936 -0.0042153283 0)
(-0.024447138 -0.0042407216 0)
(-0.021608888 -0.0042633448 0)
(-0.018756466 -0.0042831798 0)
(-0.015891739 -0.0043002108 0)
(-0.013016583 -0.0043144242 0)
(-0.010132882 -0.0043258085 0)
(-0.0072425295 -0.0043343548 0)
(-0.004347421 -0.0043400561 0)
(-0.0014494576 -0.0043429079 0)
(0.0014525087 -0.0072437545 0)
(0.0043565721 -0.0072389977 0)
(0.0072577743 -0.0072294878 0)
(0.010154211 -0.0072152324 0)
(0.01304398 -0.0071962431 0)
(0.015925186 -0.0071725349 0)
(0.018795941 -0.0071441269 0)
(0.021654363 -0.0071110418 0)
(0.024498583 -0.007073306 0)
(0.02732674 -0.0070309496 0)
(0.030136989 -0.0069840063 0)
(0.032927497 -0.0069325136 0)
(0.035696447 -0.0068765123 0)
(0.038442041 -0.0068160469 0)
(0.041162497 -0.0067511654 0)
(0.043856055 -0.0066819189 0)
(0.046520974 -0.0066083621 0)
(0.049155537 -0.006530553 0)
(0.051758052 -0.0064485527 0)
(0.054326851 -0.0063624254 0)
(0.056860291 -0.0062722385 0)
(0.059356758 -0.0061780624 0)
(0.061814667 -0.0060799702 0)
(0.064232464 -0.0059780379 0)
(0.066608623 -0.0058723444 0)
(0.068941652 -0.0057629712 0)
(0.071230093 -0.005650002 0)
(0.073472521 -0.0055335235 0)
(0.075667546 -0.0054136244 0)
(0.077813814 -0.0052903957 0)
(0.07991001 -0.0051639307 0)
(0.081954854 -0.0050343247 0)
(0.083947106 -0.0049016749 0)
(0.085885566 -0.0047660805 0)
(0.087769072 -0.0046276422 0)
(0.089596505 -0.0044864627 0)
(0.091366787 -0.0043426459 0)
(0.093078882 -0.0041962974 0)
(0.094731794 -0.0040475239 0)
(0.096324575 -0.0038964335 0)
(0.097856316 -0.0037431353 0)
(0.099326154 -0.0035877394 0)
(0.10073327 -0.0034303568 0)
(0.10207689 -0.0032710994 0)
(0.10335629 -0.0031100795 0)
(0.10457078 -0.0029474104 0)
(0.10571972 -0.0027832053 0)
(0.10680252 -0.0026175784 0)
(0.10781864 -0.0024506436 0)
(0.10876757 -0.0022825152 0)
(0.10964885 -0.0021133076 0)
(0.11046208 -0.0019431352 0)
(0.11120689 -0.0017721119 0)
(0.11188297 -0.0016003518 0)
(0.11249004 -0.0014279684 0)
(0.11302787 -0.0012550748 0)
(0.11349629 -0.0010817838 0)
(0.11389516 -0.00090820717 0)
(0.11422438 -0.00073445643 0)
(0.11448391 -0.00056064207 0)
(0.11467375 -0.00038687382 0)
(0.11479393 -0.00021326047 0)
(0.11484453 -3.9909849e-05 0)
(0.1148257 0.00013307132 0)
(0.11473759 0.00030557817 0)
(0.11458042 0.0004775062 0)
(0.11435444 0.00064875193 0)
(0.11405995 0.00081921383 0)
(0.11369727 0.00098879171 0)
(0.1132668 0.0011573868 0)
(0.11276892 0.0013249019 0)
(0.11220412 0.0014912413 0)
(0.11157286 0.0016563109 0)
(0.11087568 0.0018200183 0)
(0.11011315 0.0019822727 0)
(0.10928586 0.0021429853 0)
(0.10839446 0.0023020687 0)
(0.10743961 0.0024594376 0)
(0.10642201 0.0026150084 0)
(0.10534241 0.0027686994 0)
(0.10420158 0.0029204308 0)
(0.10300031 0.0030701245 0)
(0.10173944 0.0032177047 0)
(0.10041984 0.0033630971 0)
(0.099042389 0.0035062296 0)
(0.097608014 0.0036470321 0)
(0.096117661 0.0037854361 0)
(0.094572308 0.0039213756 0)
(0.092972955 0.004054786 0)
(0.091320629 0.0041856049 0)
(0.089616381 0.004313772 0)
(0.087861287 0.0044392286 0)
(0.086056446 0.0045619182 0)
(0.084202977 0.004681786 0)
(0.082302024 0.0047987794 0)
(0.080354749 0.0049128474 0)
(0.078362335 0.0050239409 0)
(0.076325985 0.0051320129 0)
(0.074246919 0.0052370179 0)
(0.072126377 0.0053389124 0)
(0.069965613 0.0054376547 0)
(0.067765899 0.0055332048 0)
(0.065528524 0.0056255245 0)
(0.063254791 0.0057145772 0)
(0.060946015 0.005800328 0)
(0.058603529 0.0058827439 0)
(0.056228674 0.0059617932 0)
(0.053822808 0.006037446 0)
(0.051387298 0.006109674 0)
(0.048923522 0.0061784503 0)
(0.04643287 0.0062437498 0)
(0.043916739 0.0063055486 0)
(0.041376539 0.0063638244 0)
(0.038813686 0.0064185564 0)
(0.036229604 0.0064697253 0)
(0.033625726 0.006517313 0)
(0.031003491 0.0065613028 0)
(0.028364344 0.0066016797 0)
(0.025709737 0.0066384295 0)
(0.023041126 0.0066715399 0)
(0.020359973 0.0067009994 0)
(0.017667744 0.0067267982 0)
(0.014965907 0.0067489275 0)
(0.012255935 0.0067673799 0)
(0.0095393041 0.0067821492 0)
(0.0068174914 0.0067932305 0)
(0.0040919762 0.00680062 0)
(0.001364239 0.0068043154 0)
(-0.001364239 0.0068043154 0)
(-0.0040919762 0.00680062 0)
(-0.0068174914 0.0067932305 0)
(-0.0095393041 0.0067821492 0)
(-0.012255935 0.0067673799 0)
(-0.014965907 0.0067489275 0)
(-0.017667744 0.0067267982 0)
(-0.020359973 0.0067009994 0)
(-0.023041126 0.0066715399 0)
(-0.025709737 0.0066384295 0)
(-0.028364344 0.0066016797 0)
(-0.031003491 0.0065613028 0)
(-0.033625726 0.006517313 0)
(-0.036229604 0.0064697253 0)
(-0.038813686 0.0064185564 0)
(-0.041376539 0.0063638244 0)
(-0.043916739 0.0063055486 0)
(-0.04643287 0.0062437498 0)
(-0.048923522 0.0061784503 0)
(-0.051387298 0.006109674 0)
(-0.053822808 0.006037446 0)
(-0.056228674 0.0059617932 0)
(-0.058603529 0.0058827439 0)
(-0.060946015 0.005800328 0)
(-0.063254791 0.0057145772 0)
(-0.065528524 0.0056255245 0)
(-0.067765899 0.0055332048 0)
(-0.069965613 0.0054376547 0)
(-0.072126377 0.0053389124 0)
(-0.074246919 0.0052370179 0)
(-0.076325985 0.0051320129 0)
(-0.078362335 0.0050239409 0)
(-0.080354749 0.0049128474 0)
(-0.082302024 0.0047987794 0)
(-0.084202977 0.004681786 0)
(-0.086056446 0.0045619182 0)
(-0.087861287 0.0044392286 0)
(-0.089616381 0.004313772 0)
(-0.091320629 0.0041856049 0)
(-0.092972955 0.004054786 0)
(-0.094572308 0.0039213756 0)
(-0.096117661 0.0037854361 0)
(-0.097608014 0.0036470321 0)
(-0.099042389 0.0035062296 0)
(-0.10041984 0.0033630971 0)
(-0.10173944 0.0032177047 0)
(-0.10300031 0.0030701245 0)
(-0.10420158 0.0029204308 0)
(-0.10534241 0.0027686994 0)
(-0.10642201 0.0026150084 0)
(-0.10743961 0.0024594376 0)
(-0.10839446 0.0023020687 0)
(-0.10928586 0.0021429853 0)
(-0.11011315 0.0019822727 0)
(-0.11087568 0.0018200183 0)
(-0.11157286 0.0016563109 0)
(-0.11220412 0.0014912413 0)
(-0.11276892 0.0013249019 0)
(-0.1132668 0.0011573868 0)
(-0.11369727 0.00098879172 0)
(-0.11405995 0.00081921383 0)
(-0.11435444 0.00064875193 0)
(-0.11458042 0.0004775062 0)
(-0.11473759 0.00030557817 0)
(-0.1148257 0.00013307132 0)
(-0.11484453 -3.9909849e-05 0)
(-0.11479393 -0.00021326047 0)
(-0.11467375 -0.00038687382 0)
(-0.11448391 -0.00056064207 0)
(-0.11422438 -0.00073445643 0)
(-0.11389516 -0.00090820717 0)
(-0.11349629 -0.0010817838 0)
(-0.11302787 -0.0012550748 0)
(-0.11249004 -0.0014279684 0)
(-0.11188297 -0.0016003518 0)
(-0.11120689 -0.0017721119 0)
(-0.11046208 -0.0019431352 0)
(-0.10964885 -0.0021133076 0)
(-0.10876757 -0.0022825152 0)
(-0.10781864 -0.0024506436 0)
(-0.10680252 -0.0026175784 0)
(-0.10571972 -0.0027832053 0)
(-0.10457078 -0.0029474104 0)
(-0.10335629 -0.0031100795 0)
(-0.10207689 -0.0032710994 0)
(-0.10073327 -0.0034303568 0)
(-0.099326154 -0.0035877394 0)
(-0.097856316 -0.0037431353 0)
(-0.096324575 -0.0038964335 0)
(-0.094731794 -0.0040475239 0)
(-0.093078882 -0.0041962974 0)
(-0.091366787 -0.0043426459 0)
(-0.089596505 -0.0044864627 0)
(-0.087769072 -0.0046276422 0)
(-0.085885566 -0.0047660805 0)
(-0.083947106 -0.0049016749 0)
(-0.081954854 -0.0050343247 0)
(-0.07991001 -0.0051639307 0)
(-0.077813814 -0.0052903957 0)
(-0.075667546 -0.0054136244 0)
(-0.073472521 -0.0055335235 0)
(-0.071230093 -0.005650002 0)
(-0.068941652 -0.0057629712 0)
(-0.066608623 -0.0058723444 0)
(-0.064232464 -0.0059780379 0)
(-0.061814667 -0.0060799702 0)
(-0.059356758 -0.0061780624 0)
(-0.056860291 -0.0062722385 0)
(-0.054326851 -0.0063624254 0)
(-0.051758052 -0.0064485527 0)
(-0.049155537 -0.006530553 0)
(-0.046520974 -0.0066083621 0)
(-0.043856055 -0.0066819189 0)
(-0.041162497 -0.0067511654 0)
(-0.038442041 -0.0068160469 0)
(-0.035696447 -0.0068765123 0)
(-0.032927497 -0.0069325136 0)
(-0.030136989 -0.0069840063 0)
(-0.02732674 -0.0070309496 0)
(-0.024498583 -0.007073306 0)
(-0.021654363 -0.0071110418 0)
(-0.018795941 -0.0071441269 0)
(-0.015925186 -0.0071725349 0)
(-0.01304398 -0.0071962431 0)
(-0.010154211 -0.0072152324 0)
(-0.0072577743 -0.0072294878 0)
(-0.0043565721 -0.0072389977 0)
(-0.0014525087 -0.0072437545 0)
(0.0014568475 -0.010152006 0)
(0.0043695856 -0.010145339 0)
(0.0072794537 -0.01013201 0)
(0.010184541 -0.010112031 0)
(0.013082941 -0.010085417 0)
(0.015972752 -0.010052189 0)
(0.018852079 -0.010012374 0)
(0.021719036 -0.0099660035 0)
(0.024571747 -0.0099131153 0)
(0.027408346 -0.0098537511 0)
(0.030226982 -0.0097879583 0)
(0.033025816 -0.0097157892 0)
(0.035803027 -0.0096373013 0)
(0.038556809 -0.0095525568 0)
(0.041285377 -0.0094616229 0)
(0.043986963 -0.0093645714 0)
(0.046659824 -0.009261479 0)
(0.049302237 -0.0091524268 0)
(0.051912502 -0.0090375005 0)
(0.054488948 -0.0089167903 0)
(0.057029927 -0.0087903905 0)
(0.059533821 -0.0086583997 0)
(0.061999039 -0.0085209204 0)
(0.064424021 -0.0083780594 0)
(0.066807239 -0.0082299269 0)
(0.069147196 -0.0080766372 0)
(0.071442429 -0.007918308 0)
(0.073691508 -0.0077550604 0)
(0.07589304 -0.0075870188 0)
(0.078045667 -0.0074143109 0)
(0.080148068 -0.0072370674 0)
(0.082198962 -0.0070554219 0)
(0.084197104 -0.0068695106 0)
(0.086141291 -0.0066794725 0)
(0.088030357 -0.006485449 0)
(0.08986318 -0.0062875836 0)
(0.091638678 -0.0060860224 0)
(0.093355813 -0.005880913 0)
(0.095013586 -0.0056724053 0)
(0.096611046 -0.0054606505 0)
(0.098147281 -0.0052458017 0)
(0.099621427 -0.0050280132 0)
(0.10103266 -0.0048074406 0)
(0.10238021 -0.0045842406 0)
(0.10366334 -0.0043585708 0)
(0.10488136 -0.0041305898 0)
(0.10603365 -0.0039004565 0)
(0.10711959 -0.0036683306 0)
(0.10813864 -0.0034343721 0)
(0.10909031 -0.0031987411 0)
(0.10997413 -0.0029615979 0)
(0.11078969 -0.0027231027 0)
(0.11153663 -0.0024834155 0)
(0.11221462 -0.0022426958 0)
(0.11282341 -0.0020011029 0)
(0.11336275 -0.0017587954 0)
(0.11383247 -0.001515931 0)
(0.11423242 -0.0012726669 0)
(0.11456253 -0.0010291591 0)
(0.11482273 -0.00078556241 0)
(0.11501304 -0.00054203072 0)
(0.11513348 -0.00029871644 0)
(0.11518414 -5.5770623e-05 0)
(0.11516516 0.00018665725 0)
(0.11507669 0.0004284196 0)
(0.11491896 0.00066937017 0)
(0.11469222 0.00090936439 0)
(0.11439676 0.0011482598 0)
(0.11403292 0.0013859159 0)
(0.11360107 0.0016221943 0)
(0.11310163 0.0018569587 0)
(0.11253506 0.002090075 0)
(0.11190184 0.0023214113 0)
(0.11120251 0.0025508382 0)
(0.11043764 0.0027782285 0)
(0.10960782 0.0030034575 0)
(0.10871369 0.003226403 0)
(0.10775594 0.0034469453 0)
(0.10673525 0.0036649673 0)
(0.10565239 0.0038803545 0)
(0.1045081 0.0040929949 0)
(0.10330322 0.0043027794 0)
(0.10203855 0.0045096015 0)
(0.10071498 0.0047133572 0)
(0.0993334 0.0049139455 0)
(0.097894727 0.005111268 0)
(0.096399917 0.0053052291 0)
(0.094849947 0.0054957358 0)
(0.093245822 0.0056826979 0)
(0.091588572 0.005866028 0)
(0.089879252 0.0060456413 0)
(0.08811894 0.006221456 0)
(0.086308739 0.0063933926 0)
(0.084449771 0.0065613745 0)
(0.082543184 0.0067253278 0)
(0.080590143 0.0068851813 0)
(0.078591835 0.0070408661 0)
(0.076549466 0.0071923162 0)
(0.07446426 0.0073394681 0)
(0.07233746 0.0074822607 0)
(0.070170325 0.0076206357 0)
(0.067964131 0.007754537 0)
(0.06572017 0.007883911 0)
(0.063439747 0.0080087066 0)
(0.061124184 0.0081288749 0)
(0.058774816 0.0082443694 0)
(0.056392988 0.0083551461 0)
(0.053980063 0.0084611629 0)
(0.05153741 0.0085623801 0)
(0.049066413 0.0086587602 0)
(0.046568464 0.0087502678 0)
(0.044044966 0.0088368696 0)
(0.041497331 0.0089185345 0)
(0.03892698 0.0089952331 0)
(0.036335342 0.0090669385 0)
(0.033723853 0.0091336252 0)
(0.031093955 0.0091952702 0)
(0.028447099 0.009251852 0)
(0.02578474 0.0093033511 0)
(0.023108338 0.00934975 0)
(0.02041936 0.0093910329 0)
(0.017719274 0.0094271857 0)
(0.015009554 0.0094581963 0)
(0.012291677 0.0094840544 0)
(0.0095671227 0.0095047511 0)
(0.006837372 0.0095202797 0)
(0.0041039087 0.009530635 0)
(0.0013682171 0.0095358135 0)
(-0.0013682171 0.0095358135 0)
(-0.0041039087 0.009530635 0)
(-0.006837372 0.0095202797 0)
(-0.0095671227 0.0095047511 0)
(-0.012291677 0.0094840544 0)
(-0.015009554 0.0094581963 0)
(-0.017719274 0.0094271857 0)
(-0.02041936 0.0093910329 0)
(-0.023108338 0.00934975 0)
(-0.02578474 0.0093033511 0)
(-0.028447099 0.009251852 0)
(-0.031093955 0.0091952702 0)
(-0.033723853 0.0091336252 0)
(-0.036335342 0.0090669385 0)
(-0.03892698 0.0089952331 0)
(-0.041497331 0.0089185345 0)
(-0.044044966 0.0088368696 0)
(-0.046568464 0.0087502678 0)
(-0.049066413 0.0086587602 0)
(-0.05153741 0.0085623801 0)
(-0.053980063 0.0084611629 0)
(-0.056392988 0.0083551461 0)
(-0.058774816 0.0082443694 0)
(-0.061124184 0.0081288749 0)
(-0.063439747 0.0080087066 0)
(-0.06572017 0.007883911 0)
(-0.067964131 0.007754537 0)
(-0.070170325 0.0076206357 0)
(-0.07233746 0.0074822607 0)
(-0.07446426 0.0073394681 0)
(-0.076549466 0.0071923162 0)
(-0.078591835 0.0070408661 0)
(-0.080590143 0.0068851813 0)
(-0.082543184 0.0067253278 0)
(-0.084449771 0.0065613745 0)
(-0.086308739 0.0063933926 0)
(-0.08811894 0.006221456 0)
(-0.089879252 0.0060456414 0)
(-0.091588572 0.005866028 0)
(-0.093245822 0.0056826979 0)
(-0.094849947 0.0054957358 0)
(-0.096399917 0.0053052291 0)
(-0.097894727 0.005111268 0)
(-0.0993334 0.0049139455 0)
(-0.10071498 0.0047133572 0)
(-0.10203855 0.0045096015 0)
(-0.10330322 0.0043027794 0)
(-0.1045081 0.0040929949 0)
(-0.10565239 0.0038803545 0)
(-0.10673525 0.0036649673 0)
(-0.10775594 0.0034469453 0)
(-0.10871369 0.003226403 0)
(-0.10960782 0.0030034575 0)
(-0.11043764 0.0027782285 0)
(-0.11120251 0.0025508382 0)
(-0.11190184 0.0023214113 0)
(-0.11253506 0.002090075 0)
(-0.11310163 0.0018569587 0)
(-0.11360107 0.0016221943 0)
(-0.11403292 0.0013859159 0)
(-0.11439676 0.0011482598 0)
(-0.11469222 0.00090936439 0)
(-0.11491896 0.00066937017 0)
(-0.11507669 0.0004284196 0)
(-0.11516516 0.00018665725 0)
(-0.11518414 -5.5770622e-05 0)
(-0.11513348 -0.00029871644 0)
(-0.11501304 -0.00054203072 0)
(-0.11482273 -0.00078556241 0)
(-0.11456253 -0.0010291591 0)
(-0.11423242 -0.0012726669 0)
(-0.11383247 -0.001515931 0)
(-0.11336275 -0.0017587954 0)
(-0.11282341 -0.0020011029 0)
(-0.11221462 -0.0022426958 0)
(-0.11153663 -0.0024834155 0)
(-0.11078969 -0.0027231027 0)
(-0.10997413 -0.0029615979 0)
(-0.10909031 -0.0031987411 0)
(-0.10813864 -0.0034343721 0)
(-0.10711959 -0.0036683306 0)
(-0.10603365 -0.0039004565 0)
(-0.10488136 -0.0041305898 0)
(-0.10366334 -0.0043585708 0)
(-0.10238021 -0.0045842406 0)