/*--------------------------------*- C++ -*----------------------------------*\
| =========                 |                                                 |
| \\      /  F ield         | OpenFOAM: The Open Source CFD Toolbox           |
|  \\    /   O peration     | Version:  2106                                  |
|   \\  /    A nd           | Website:  www.openfoam.com                      |
|    \\/     M anipulation  |                                                 |
\*---------------------------------------------------------------------------*/
FoamFile
{
    version     2.0;
    format      ascii;
    arch        "LSB;label=32;scalar=64";
    class       surfaceScalarField;
    location    "0.023";
    object      phi;
}
// * * * * * * * * * * * * * * * * * * * * * * * * * * * * * * * * * * * * * //

dimensions      [0 3 -1 0 0 0 0];

oriented        oriented;

internalField   nonuniform List<scalar> 
480
(
0.0014094761
-0.0014103115
0.0026039447
-0.0011944686
0.0034014908
-0.00079754605
0.0036830986
-0.00028160777
0.003403484
0.00027961454
0.0026066986
0.00079678541
0.0014116955
0.0011950031
7.5287319e-07
0.0014109426
-0.0014102552
0.0014110081
-0.0026056013
0.0011953461
-0.0034028294
0.0007972281
-0.0036829876
0.00028015815
-0.0034020312
-0.00028095638
-0.0026050897
-0.0007969415
-0.0014110123
-0.0011940774
-0.0014101769
0.0018174395
-0.0032287363
0.0033563474
-0.0027333765
0.0043825712
-0.0018237699
0.0047453586
-0.00064439512
0.0043846175
0.00064035557
0.0033587785
0.0018226245
0.0018193352
0.0027344464
8.7111988e-07
0.0032294067
-0.0018176616
0.0032295408
-0.0033575067
0.0027351912
-0.0043838582
0.0018235796
-0.004745172
0.00064147196
-0.0043831852
-0.00064294322
-0.0033576927
-0.0018224339
-0.0018192557
-0.0027325145
-0.0032284473
0.0026764624
-0.005906487
0.0049400722
-0.0049969864
0.0064467921
-0.0033304898
0.0069797705
-0.0011773735
0.0064473196
0.0011728064
0.0049399759
0.0033299682
0.0026763583
0.004998064
1.1035513e-06
0.0059046615
-0.0026742223
0.0059048666
-0.0049383685
0.0049993374
-0.0064463629
0.003331574
-0.0069793827
0.0011744918
-0.0064475377
-0.0011747882
-0.0049418288
-0.0033281429
-0.0026788517
-0.0049954915
-0.0059060106
0.0041609733
-0.010069236
0.0076757325
-0.0085117456
0.010010395
-0.0056651523
0.010835823
-0.0020028012
0.010004637
0.0020039925
0.0076656325
0.0056689722
0.004153052
0.0085106445
1.4810043e-06
0.010056233
-0.0041501728
0.01005652
-0.0076634813
0.0085126459
-0.010003393
0.005671486
-0.010835077
0.0020061755
-0.010011351
-0.0019985145
-0.0076781442
-0.0056613495
-0.00416429
-0.0085093458
-0.010068525
0.0063854043
-0.016457318
0.01177516
-0.013901501
0.015354844
-0.0092448366
0.016624982
-0.0032729392
0.015337236
0.003291739
0.011750685
0.0092555228
0.0063690303
0.013892299
2.0868026e-06
0.016423176
-0.0063648792
0.016423486
-0.011747817
0.013895583
-0.015335619
0.009259288
-0.016622989
0.0032935455
-0.015355902
-0.0032656009
-0.011778894
-0.0092383577
-0.0063904868
-0.013897753
-0.016456334
0.0083355747
-0.024796397
0.015406437
-0.020972363
0.020147455
-0.013985855
0.021869784
-0.0049952675
0.020176156
0.004985367
0.015447116
0.013984563
0.0083684611
0.020970954
2.7155916e-06
0.024788921
-0.0083630812
0.024789283
-0.015443454
0.020975957
-0.020174196
0.01399003
-0.021866509
0.0049858581
-0.020148684
-0.0049834263
-0.015411536
-0.013975505
-0.0083424139
-0.020966875
-0.024795243
0.0061093505
-0.030910002
0.011270778
-0.026133791
0.014794152
-0.017509229
0.016154771
-0.0063558864
0.014887068
0.0062530701
0.011428011
0.017443619
0.0062454355
0.026153529
2.466095e-06
0.031031891
-0.0062396993
0.031031449
-0.011426378
0.026162635
-0.014886249
0.017449901
-0.016146168
0.0062457778
-0.014792654
-0.006336941
-0.011277898
-0.017490261
-0.0061179376
-0.026126835
-0.030908926
-0.001511493
-0.029400228
-0.0029464683
-0.024698816
-0.0039903817
-0.016465315
-0.0043835256
-0.0059627425
-0.0041422698
0.0060118143
-0.0031531843
0.016454534
-0.0016577872
0.024658132
-2.3515993e-07
0.029374339
0.0016590641
0.029372149
0.0031516297
0.024670069
0.0041408561
0.016460675
0.0043900283
0.0059966056
0.0039936449
-0.0059405577
0.0029440688
-0.016440685
0.0015085004
-0.024691267
-0.029398708
0.0016889165
-0.031087311
0.0032071309
-0.02621703
0.0042187767
-0.017476961
0.0044904336
-0.0062343994
0.0041111445
0.0063911034
0.0030437925
0.017521886
0.0015628022
0.026139122
3.1563341e-07
0.030936825
-0.0015638085
0.030936273
-0.0030420955
0.026148356
-0.0041096636
0.017528243
-0.0044968351
0.0063837771
-0.0042218621
-0.0062155307
-0.0032044374
-0.01745811
-0.0016856244
-0.02621008
-0.031086165
-0.0061480527
-0.024934951
-0.011259621
-0.021105462
-0.014665656
-0.014070926
-0.015894213
-0.0050058425
-0.014535143
0.0050320339
-0.011074776
0.014061519
-0.0060118782
0.021076224
-2.3645815e-06
0.024927312
0.0060062439
0.024927665
0.011073226
0.021081375
0.01453439
0.014067079
0.015885584
0.0050325823
0.014664111
-0.004994057
0.011266722
-0.014060721
0.0061566992
-0.021100058
-0.024933774
-0.0083485181
-0.016583013
-0.015423805
-0.014030175
-0.02015373
-0.0093410016
-0.021846685
-0.0033128875
-0.020125897
0.003311246
-0.015392943
0.0093285657
-0.0083333009
0.014016582
-2.6623979e-06
0.016596673
0.0083280089
0.016596994
0.01538939
0.014019994
0.020124036
0.0093324331
0.021843513
0.0033131049
0.020154982
-0.0033055256
0.015428791
-0.0093345301
0.0083551886
-0.014026455
-0.016582004
-0.0060437043
-0.010536648
-0.011158497
-0.0089153818
-0.014570128
-0.0059293705
-0.015800267
-0.0020827492
-0.014598289
0.0021092678
-0.011202741
0.0059330185
-0.0060817659
0.0088956061
-2.0514761e-06
0.010516959
0.00607766
0.010517282
0.011199953
0.0088977002
0.014596733
0.0059356541
0.015798252
0.0021115851
0.014571143
-0.0020784167
0.011162195
-0.0059255814
0.0060487371
-0.0089129974
-0.010535928
-0.0042820957
-0.0062529029
-0.0079121766
-0.005285301
-0.010334258
-0.0035072892
-0.011198649
-0.0012183578
-0.010349986
0.0012606047
-0.0079379401
0.0035209725
-0.0043049777
0.0052626437
-1.4350048e-06
0.0062134163
0.0043022059
0.0062136413
0.0079358863
0.0052640198
0.010348847
0.0035226936
0.011198023
0.0012624092
0.010335235
-0.0012156286
0.0079144572
-0.003504804
0.004285188
-0.0052837283
-0.0062523894
-0.0019950354
-0.0042566809
-0.003682992
-0.0035973444
-0.0048050006
-0.0023852806
-0.0052021188
-0.00082123968
-0.0048045136
0.00086299952
-0.0036842641
0.002400723
-0.0019988048
0.0035771844
-9.7625952e-07
0.0042155878
0.0019968879
0.0042157771
0.003682842
0.0035780658
0.0048036411
0.0024018945
0.0052016875
0.00086436277
0.0048056262
-0.00081956727
0.0036845941
-0.0023837719
0.0019972297
-0.0035963638
-0.0042563463
-0.0033608837
-0.00089466427
-0.0062065412
-0.0007516869
-0.008100272
-0.00049154979
-0.0087588814
-0.00016263031
-0.0080855842
0.00018970239
-0.0061868157
0.00050195447
-0.0033486923
0.00073906102
-1.1011334e-06
0.00086799664
0.0033466421
0.00086803385
0.00618525
0.00073945784
0.0080847267
0.00050241778
0.0087587984
0.00019029108
0.0081010998
-0.00016186861
0.0062081368
-0.00049080901
0.0033629856
-0.00075121256
-0.00089449362
-0.00093435587
-0.0017205449
-0.0022351804
-0.0024059206
-0.0022081535
-0.0016831354
-0.00090956109
-8.4650313e-07
0.00090790788
0.0016818834
0.0022073725
0.0024057374
0.0022357676
0.0017218803
0.00093617059
)
;

boundaryField
{
    leftWall
    {
        type            cyclic;
        value           nonuniform List<scalar> 
16
(
8.3538351e-07
9.8528594e-07
1.2883625e-06
1.7757512e-06
2.6779477e-06
3.5041007e-06
4.2545962e-06
1.7183688e-06
-1.8329511e-06
-4.3076938e-06
-3.4194657e-06
-2.6608017e-06
-1.6493286e-06
-1.186561e-06
-1.1329009e-06
-9.9348185e-07
)
;
    }
    rightWall
    {
        type            cyclic;
        value           nonuniform List<scalar> 
16
(
-8.3538351e-07
-9.8528594e-07
-1.2883625e-06
-1.7757512e-06
-2.6779477e-06
-3.5041007e-06
-4.2545962e-06
-1.7183688e-06
1.8329511e-06
4.3076938e-06
3.4194657e-06
2.6608017e-06
1.6493286e-06
1.186561e-06
1.1329009e-06
9.9348185e-07
)
;
    }
    lowerWall
    {
        type            calculated;
        value           uniform 0;
    }
    atmosphere
    {
        type            calculated;
        value           nonuniform List<scalar> 
16
(
4.0685075e-05
3.4502181e-05
2.3085704e-05
8.1098953e-06
-8.064777e-06
-2.3063601e-05
-3.4513297e-05
-4.0717946e-05
-4.0720531e-05
-3.4517684e-05
-2.3071312e-05
-8.0738408e-06
8.1011698e-06
2.3078308e-05
3.4497177e-05
4.068348e-05
)
;
    }
    defaultFaces
    {
        type            empty;
        value           nonuniform List<scalar> 0();
    }
}


// ************************************************************************* //
