/*--------------------------------*- C++ -*----------------------------------*\
| =========                 |                                                 |
| \\      /  F ield         | OpenFOAM: The Open Source CFD Toolbox           |
|  \\    /   O peration     | Version:  2106                                  |
|   \\  /    A nd           | Website:  www.openfoam.com                      |
|    \\/     M anipulation  |                                                 |
\*---------------------------------------------------------------------------*/
FoamFile
{
    version     2.0;
    format      ascii;
    arch        "LSB;label=32;scalar=64";
    class       volVectorField;
    location    "0.024";
    object      U;
}
// * * * * * * * * * * * * * * * * * * * * * * * * * * * * * * * * * * * * * //

dimensions      [0 1 -1 0 0 0 0];

internalField   nonuniform List<vector> 
256
(
(-0.0022681241 -0.0035874587 0)
(-0.0063868232 -0.0030523794 0)
(-0.0096256102 -0.0020569971 0)
(-0.01131987 -0.00076496929 0)
(-0.011264337 0.00068055578 0)
(-0.0094923259 0.0020237794 0)
(-0.0062623297 0.0030877161 0)
(-0.002214435 0.003665377 0)
(0.0022210085 0.0036656809 0)
(0.0062698413 0.0030890296 0)
(0.0094953398 0.0020261174 0)
(0.011266321 0.00068260299 0)
(0.011318919 -0.00076202581 0)
(0.0096211977 -0.002054798 0)
(0.0063811259 -0.0030505666 0)
(0.0022600855 -0.003586972 0)
(7.9671633e-05 0.01290435 0)
(0.00030677201 0.010967292 0)
(0.00038647164 0.0073768825 0)
(0.00052348551 0.002523178 0)
(0.0006241026 -0.0026311354 0)
(0.00062085551 -0.0074163056 0)
(0.0005268743 -0.010924834 0)
(0.00017147702 -0.012820866 0)
(-0.00016258192 -0.012821532 0)
(-0.00051676231 -0.01092345 0)
(-0.00061669419 -0.0074123832 0)
(-0.00062134449 -0.0026303455 0)
(-0.00052442027 0.0025271598 0)
(-0.00039240994 0.0073783173 0)
(-0.00031479639 0.010969668 0)
(-9.0699372e-05 0.01290533 0)
(0.001005966 -0.005276309 0)
(0.0029268439 -0.0044639465 0)
(0.0041271204 -0.0030046004 0)
(0.0048225743 -0.0012520237 0)
(0.004906545 0.00086793628 0)
(0.0043131515 0.0028667534 0)
(0.0030892386 0.0046363558 0)
(0.001070271 0.0056285913 0)
(-0.0010614997 0.005628646 0)
(-0.003075897 0.0046418542 0)
(-0.0043099284 0.0028765969 0)
(-0.0049041415 0.00087488408 0)
(-0.0048230649 -0.0012401484 0)
(-0.0041339455 -0.0029957446 0)
(-0.0029342895 -0.0044566956 0)
(-0.0010188764 -0.0052732426 0)
(0.0092234402 0.010599159 0)
(0.026349798 0.0092433212 0)
(0.039225743 0.0064394231 0)
(0.046411177 0.002032341 0)
(0.04666631 -0.0024955811 0)
(0.039819063 -0.006593149 0)
(0.026906429 -0.0090483351 0)
(0.0094487973 -0.010245294 0)
(-0.0094326649 -0.01024978 0)
(-0.026885121 -0.009041166 0)
(-0.039812632 -0.006575767 0)
(-0.046661094 -0.0024908146 0)
(-0.046410242 0.0020479611 0)
(-0.039237132 0.0064484212 0)
(-0.026365057 0.0092537181 0)
(-0.0092465655 0.010605626 0)
(0.0081072255 -0.044010518 0)
(0.023103496 -0.037151978 0)
(0.033780577 -0.024832671 0)
(0.039684441 -0.0093659614 0)
(0.040045474 0.008111616 0)
(0.03461274 0.024392268 0)
(0.023898926 0.037716777 0)
(0.0084274759 0.045141728 0)
(-0.0084158189 0.045136766 0)
(-0.023863359 0.03773127 0)
(-0.034611971 0.024420897 0)
(-0.040044493 0.0081228888 0)
(-0.03967999 -0.0093345003 0)
(-0.033792571 -0.024808398 0)
(-0.023113754 -0.037130852 0)
(-0.0081376895 -0.043999479 0)
(0.0092172799 -0.012951837 0)
(0.026728488 -0.010023634 0)
(0.040286723 -0.0058599075 0)
(0.049051719 -0.0026662436 0)
(0.050486092 0.0011959146 0)
(0.043700257 0.0053277674 0)
(0.030184577 0.010629434 0)
(0.010673776 0.014178299 0)
(-0.010662051 0.014151769 0)
(-0.030140063 0.010642659 0)
(-0.043703706 0.0053754305 0)
(-0.050481236 0.0011921798 0)
(-0.049035931 -0.0026424745 0)
(-0.040300452 -0.0058448513 0)
(-0.026744232 -0.0099986779 0)
(-0.0092597898 -0.012927018 0)
(-0.043114394 -0.090412774 0)
(-0.12307793 -0.077031246 0)
(-0.18681669 -0.053063036 0)
(-0.22140017 -0.021836493 0)
(-0.22013892 0.015355067 0)
(-0.18370167 0.050463948 0)
(-0.11997233 0.0797367 0)
(-0.041837828 0.096786161 0)
(0.041773179 0.096744577 0)
(0.12003181 0.079769575 0)
(0.18366271 0.050542703 0)
(0.22009311 0.015348296 0)
(0.22141403 -0.021777449 0)
(0.18684402 -0.053002043 0)
(0.12314303 -0.076974577 0)
(0.043101265 -0.090368387 0)
(-0.066653225 0.1667722 0)
(-0.19181718 0.14513367 0)
(-0.29332863 0.10024021 0)
(-0.35285535 0.033442443 0)
(-0.35666666 -0.039551135 0)
(-0.30243757 -0.10272928 0)
(-0.2010045 -0.14254655 0)
(-0.070590828 -0.16084949 0)
(0.070485484 -0.16101118 0)
(0.20102993 -0.14256832 0)
(0.30239197 -0.10256645 0)
(0.35660207 -0.039605675 0)
(0.35285703 0.033386864 0)
(0.29338395 0.10018973 0)
(0.1919207 0.14520256 0)
(0.066686577 0.16688413 0)
(0.069791671 0.14780301 0)
(0.19911533 0.13197824 0)
(0.29987962 0.095972204 0)
(0.3538201 0.03755882 0)
(0.35016106 -0.030512043 0)
(0.29118519 -0.092952698 0)
(0.19056168 -0.13471055 0)
(0.066332367 -0.15505659 0)
(-0.066231176 -0.15522221 0)
(-0.19058112 -0.13473496 0)
(-0.29113439 -0.092787427 0)
(-0.35009171 -0.030563814 0)
(-0.35381594 0.037506844 0)
(-0.29993187 0.095928374 0)
(-0.19921978 0.13205013 0)
(-0.069822586 0.14791485 0)
(0.043014981 -0.082235911 0)
(0.1235731 -0.067296653 0)
(0.18933961 -0.041978246 0)
(0.22695208 -0.012142322 0)
(0.22840607 0.019138271 0)
(0.19288298 0.044698635 0)
(0.127275 0.064300618 0)
(0.044686209 0.075245914 0)
(-0.044615488 0.075197999 0)
(-0.12733375 0.064327191 0)
(-0.19284355 0.044775969 0)
(-0.22836042 0.019127652 0)
(-0.22696758 -0.012085928 0)
(-0.18936698 -0.041917088 0)
(-0.12363672 -0.067241425 0)
(-0.043001486 -0.08219374 0)
(-0.013336706 -0.033207957 0)
(-0.03778688 -0.026694989 0)
(-0.055112412 -0.015996445 0)
(-0.063949158 -0.0048098926 0)
(-0.062493709 0.0065710035 0)
(-0.051678698 0.016620803 0)
(-0.034351812 0.025933073 0)
(-0.011896928 0.031621031 0)
(0.011884885 0.031593585 0)
(0.034303947 0.02594855 0)
(0.051679389 0.016672654 0)
(0.062487731 0.00657216 0)
(0.06393275 -0.0047819466 0)
(0.055127957 -0.015977329 0)
(0.037807252 -0.026668562 0)
(0.013383225 -0.033183157 0)
(-0.003937837 -0.018708388 0)
(-0.011171156 -0.015240206 0)
(-0.015585621 -0.0092301621 0)
(-0.01764443 -0.0026265228 0)
(-0.017318067 0.004264135 0)
(-0.014846454 0.0098080381 0)
(-0.010485397 0.014464499 0)
(-0.0036761058 0.017139193 0)
(0.0036704736 0.017132324 0)
(0.010452918 0.014475385 0)
(0.014848914 0.0098323801 0)
(0.017318328 0.0042696298 0)
(0.017639006 -0.0026005217 0)
(0.015595464 -0.0092107435 0)
(0.01117712 -0.01522249 0)
(0.003963272 -0.018699077 0)
(-0.016368646 -0.028454388 0)
(-0.046655574 -0.023651042 0)
(-0.069457647 -0.015074442 0)
(-0.081700931 -0.0048895134 0)
(-0.081519352 0.005873228 0)
(-0.069041476 0.015428667 0)
(-0.046291908 0.023209044 0)
(-0.016254382 0.027548959 0)
(0.016230618 0.027545668 0)
(0.046264067 0.023220896 0)
(0.06903038 0.015453728 0)
(0.081512768 0.0058860803 0)
(0.081701561 -0.0048654728 0)
(0.069473514 -0.015058945 0)
(0.046677853 -0.0236362 0)
(0.016399412 -0.02844639 0)
(0.0069443837 0.052040214 0)
(0.019708943 0.044401559 0)
(0.02984883 0.030166517 0)
(0.035439635 0.011009107 0)
(0.035565227 -0.0099459828 0)
(0.030138304 -0.029752435 0)
(0.019964672 -0.044865584 0)
(0.0070376432 -0.053074325 0)
(-0.0070369304 -0.0530771 0)
(-0.019970243 -0.044867078 0)
(-0.030135869 -0.029752548 0)
(-0.035565773 -0.0099519151 0)
(-0.035441065 0.011009297 0)
(-0.029847013 0.030164477 0)
(-0.019709516 0.044402076 0)
(-0.0069412056 0.052040492 0)
(-0.021898167 -0.060894961 0)
(-0.062370774 -0.051447272 0)
(-0.093187903 -0.034067996 0)
(-0.10974701 -0.011698253 0)
(-0.1095816 0.012350404 0)
(-0.09279282 0.034322631 0)
(-0.061999075 0.051161945 0)
(-0.021771795 0.060255362 0)
(0.021739077 0.060258733 0)
(0.061969916 0.051173821 0)
(0.092774537 0.034343033 0)
(0.10957437 0.012370178 0)
(0.10975261 -0.011674221 0)
(0.093206735 -0.034049838 0)
(0.062399241 -0.051433434 0)
(0.021932684 -0.060890084 0)
(0.019764957 0.14731558 0)
(0.056246334 0.12494055 0)
(0.084454123 0.08364143 0)
(0.099867282 0.029445337 0)
(0.1001293 -0.029131069 0)
(0.08508903 -0.083502953 0)
(0.056870863 -0.12505055 0)
(0.020027181 -0.14759943 0)
(-0.02001515 -0.14760648 0)
(-0.056863124 -0.12506886 0)
(-0.085081042 -0.083529113 0)
(-0.10012747 -0.029165219 0)
(-0.099869778 0.029413526 0)
(-0.084460166 0.083612007 0)
(-0.056256405 0.12492248 0)
(-0.019775787 0.14730856 0)
)
;

boundaryField
{
    leftWall
    {
        type            cyclic;
    }
    rightWall
    {
        type            cyclic;
    }
    lowerWall
    {
        type            slip;
    }
    atmosphere
    {
        type            slip;
    }
    defaultFaces
    {
        type            empty;
    }
}


// ************************************************************************* //
