/*--------------------------------*- C++ -*----------------------------------*\
| =========                 |                                                 |
| \\      /  F ield         | OpenFOAM: The Open Source CFD Toolbox           |
|  \\    /   O peration     | Version:  2106                                  |
|   \\  /    A nd           | Website:  www.openfoam.com                      |
|    \\/     M anipulation  |                                                 |
\*---------------------------------------------------------------------------*/
FoamFile
{
    version     2.0;
    format      ascii;
    arch        "LSB;label=32;scalar=64";
    class       surfaceScalarField;
    location    "0.026";
    object      phi;
}
// * * * * * * * * * * * * * * * * * * * * * * * * * * * * * * * * * * * * * //

dimensions      [0 3 -1 0 0 0 0];

oriented        oriented;

internalField   nonuniform List<scalar> 
1984
(
-0.0007719892
0.00077202779
-0.0015141296
0.00074214042
-0.0021976765
0.00068354692
-0.002796239
0.00059856246
-0.0032867748
0.00049053584
-0.0036504803
0.00036370542
-0.0038734912
0.00022301089
-0.0039474529
7.3961728e-05
-0.0038697358
-7.7717078e-05
-0.0036435337
-0.00022620212
-0.0032777132
-0.00036582047
-0.002786446
-0.00049126724
-0.0021886468
-0.00059779917
-0.0015072427
-0.00068140405
-0.00076829951
-0.00073894322
-3.7763015e-08
-0.00076826175
0.00076822543
-0.00076826319
0.0015071729
-0.00073894749
0.0021885839
-0.00068141097
0.0027863923
-0.00059780845
0.0032776709
-0.00049127853
0.0036435042
-0.00036583334
0.0038697203
-0.00022621612
0.0039474521
-7.773172e-05
0.0038735051
7.3946956e-05
0.0036505086
0.00022299652
0.0032868166
0.00036369201
0.0027962927
0.00049052392
0.0021977401
0.00059855255
0.0015142006
0.00068353948
0.00077206483
0.0007421358
0.00077202623
-0.00079699708
0.0015690654
-0.0015631587
0.001508302
-0.0022687919
0.0013891801
-0.0028866417
0.0012164123
-0.00339292
0.00099681415
-0.0037682266
0.00073901201
-0.0039982953
0.00045307956
-0.0040744842
0.00015015059
-0.0039941157
-0.00015808549
-0.0037605138
-0.00045980409
-0.0033828469
-0.0007434874
-0.0028757499
-0.00099836416
-0.0022587468
-0.0012148023
-0.0015554959
-0.001384655
-0.00079288937
-0.0015015497
-3.9595194e-08
-0.0015611115
0.0007928117
-0.0015611145
0.0015554227
-0.0015015585
0.0022586809
-0.0013846692
0.0028756938
-0.0012148213
0.0033828025
-0.00099838726
0.0037604829
-0.00074351373
0.0039940995
-0.00045983272
0.0040744832
-0.00015811545
0.0039983098
0.00015012036
0.0037682562
0.00045305013
0.0033929637
0.00073898449
0.002886698
0.00099678966
0.0022688586
0.001216392
0.0015632333
0.0013891648
0.00079707656
0.0015082925
0.0015690622
-0.00083569089
0.0024048002
-0.0016390192
0.0023116303
-0.0023788242
0.0021289851
-0.0030265158
0.001864104
-0.0035571554
0.0015274537
-0.0039504231
0.0011322797
-0.0041913888
0.00069404529
-0.0042710382
0.00022979999
-0.0041865929
-0.00024253085
-0.0039415683
-0.00070482869
-0.0035455927
-0.001139463
-0.0030140135
-0.0015299433
-0.0023672935
-0.0018615223
-0.001630222
-0.0021217265
-0.00083097274
-0.002300799
-4.2659598e-08
-0.0023920416
0.00083088907
-0.0023920462
0.0016301432
-0.0023008127
0.0023672226
-0.0021217485
0.0030139531
-0.0018615518
0.0035455449
-0.0015299791
0.003941535
-0.0011395038
0.0041865753
-0.00070487301
0.004271037
-0.00024257721
0.0041914042
0.00022975315
0.0039504547
0.00069399962
0.0035572023
0.001132237
0.0030265763
0.0015274156
0.0023788961
0.0018640722
0.0016390997
0.0021289611
0.00083577683
0.0023116154
0.0024047952
-0.00089236361
0.0032972127
-0.0017501254
0.0031693921
-0.0025399737
0.0029188333
-0.0032313632
0.0025554935
-0.0037976732
0.0020937637
-0.0042172399
0.0015518464
-0.0044741705
0.00095097586
-0.0045589036
0.00031453317
-0.0044685219
-0.00033291255
-0.004206809
-0.00096654162
-0.0037840554
-0.0015622166
-0.0032166414
-0.0020973573
-0.0025263974
-0.0025517663
-0.0017397675
-0.0029083564
-0.00088680615
-0.0031537604
-4.7227611e-08
-0.0032788005
0.00088671355
-0.003278807
0.0017396803
-0.0031537794
0.002526319
-0.0029083872
0.0032165747
-0.0025518075
0.0037840027
-0.0020974071
0.0042067722
-0.0015622732
0.0044685023
-0.00096660314
0.004558902
-0.00033297691
0.0044741871
0.00031446807
0.0042172745
0.00095091224
0.0037977248
0.0015517866
0.0032314301
0.0020937103
0.0025400534
0.0025554488
0.0017502149
0.0029187996
0.00089245924
0.0031693711
0.0032972055
-0.00097330125
0.0042705698
-0.0019087972
0.0041048881
-0.0027701008
0.0037801369
-0.0035238754
0.0033092681
-0.0041411031
0.0027109914
-0.0045982105
0.0020089538
-0.0048779449
0.0012307103
-0.0049699681
0.00040655635
-0.0048711649
-0.0004317158
-0.0045856908
-0.0012520157
-0.0041247622
-0.0020231452
-0.0035062141
-0.0027159053
-0.0027538171
-0.0033041634
-0.0018963749
-0.0037657987
-0.00096663449
-0.0040835007
-5.3652059e-08
-0.0042453814
0.00096652933
-0.00424539
0.001896276
-0.0040835261
0.0027537284
-0.0037658395
0.0035061387
-0.0033042178
0.0041247026
-0.0027159711
0.0045856491
-0.0020232197
0.0048711424
-0.0012520965
0.0049699659
-0.00043180033
0.0048779632
0.0004064707
0.0045982492
0.0012306263
0.0041411612
0.0020088747
0.0035239511
0.0027109204
0.0027701915
0.0033092085
0.0019088994
0.0037800918
0.00097341059
0.0041048599
0.0042705602
-0.0010888096
0.005359445
-0.002135235
0.0051513135
-0.0030984967
0.0047433986
-0.0039412759
0.0041520474
-0.004631142
0.0034008575
-0.0051418114
0.0025196232
-0.0054541092
0.0015430081
-0.0055565998
0.00050904696
-0.0054458829
-0.00054243271
-0.0051266234
-0.0015712752
-0.0046113244
-0.0025384442
-0.0039198648
-0.003407365
-0.0030787621
-0.004145266
-0.0021201835
-0.0047243772
-0.0010807315
-0.0051229528
-6.2411406e-08
-0.0053260505
0.0010806093
-0.0053260617
0.0021200689
-0.0051229857
0.0030786593
-0.00472443
0.0039197776
-0.0041453361
0.0046112558
-0.0034074492
0.0051265752
-0.0025385392
0.0054458568
-0.001571378
0.0055565967
-0.00054254023
0.0054541296
0.00050893776
0.0051418553
0.0015429006
0.0046312086
0.0025195213
0.0039413634
0.0034007656
0.0030986021
0.0041519698
0.0021353543
0.0047433396
0.0010889377
0.0051512765
0.0053594324
-0.0012557712
0.0066152948
-0.0024625378
0.0063580801
-0.0035731731
0.005854034
-0.0045446072
0.0051234814
-0.0053394848
0.0041957351
-0.0059276196
0.003107758
-0.0062870762
0.0019024647
-0.0064048437
0.0006268144
-0.0062770995
-0.00067017684
-0.0059092038
-0.0019391709
-0.005315466
-0.003132182
-0.004518671
-0.00420416
-0.0035492804
-0.0051146566
-0.0024443231
-0.0058293346
-0.001245998
-0.0063212778
-7.4207597e-08
-0.0065719743
0.0012458529
-0.0065719887
0.0024441872
-0.0063213201
0.0035491592
-0.005829402
0.0045185687
-0.0051147456
0.0053153855
-0.004204266
0.0059091473
-0.003132301
0.0062770684
-0.0019392991
0.0064048391
-0.00067031086
0.006287099
0.00062667783
0.0059276701
0.0019023295
0.0053395625
0.003107629
0.0045447103
0.0041956178
0.0035732983
0.0051233817
0.0024626802
0.0058539577
0.0012559246
0.0063580321
0.0066152784
-0.0014992232
0.0081146143
-0.0029398077
0.0077986646
-0.0042653899
0.0071796162
-0.0054245247
0.0062826162
-0.0063726797
0.0051438901
-0.0070739773
0.0038090556
-0.0075024578
0.0023309452
-0.0076428089
0.00076716558
-0.0074905692
-0.00082241654
-0.0070520388
-0.0023777013
-0.0063440857
-0.003840135
-0.0053936746
-0.0051545712
-0.0042369941
-0.0062713371
-0.0029181772
-0.0071481515
-0.0014876267
-0.0077518283
-9.0074192e-08
-0.0080595109
0.0014874507
-0.0080595295
0.0029180132
-0.0077518825
0.0042368486
-0.0071482375
0.0053935525
-0.0062714494
0.0063439902
-0.0051547037
0.0070519717
-0.0038402825
0.0074905318
-0.0023778593
0.0076428022
-0.00082258129
0.0075024831
0.00076699692
0.0070740359
0.0023307767
0.0063727714
0.0038088934
0.0054246481
0.0051437412
0.0042655412
0.0062824885
0.0029399812
0.0071795178
0.0014994109
0.0077986023
0.008114593
-0.0018500549
0.0099647894
-0.0036276533
0.0095762631
-0.0052631734
0.0088151363
-0.0066931256
0.0077125685
-0.0078626191
0.0063133836
-0.0087275345
0.0046739709
-0.0092560653
0.002859476
-0.0094295367
0.00094063699
-0.0092425218
-0.0010094315
-0.0087025512
-0.0029176719
-0.007830091
-0.0047125952
-0.006658078
-0.0063265842
-0.0052309568
-0.0076984583
-0.0036031461
-0.0087759623
-0.0018369395
-0.0095180348
-1.1141334e-07
-0.009896339
0.0018367224
-0.0098963633
0.0036029448
-0.009518105
0.0052307797
-0.0087760724
0.0066579308
-0.0076986005
0.0078299767
-0.0063267496
0.008702471
-0.0047127769
0.0092424763
-0.0029178646
0.0094295267
-0.0010096316
0.009256093
0.00094043063
0.0087276024
0.0028592673
0.0078627284
0.0046737674
0.006693275
0.0063131945
0.0052633591
0.0077124045
0.0036278682
0.0088150087
0.0018502887
0.0095761818
0.0099647615
-0.0023343094
0.012299251
-0.0045772409
0.011819195
-0.0066409844
0.01087888
-0.0084454777
0.0095170618
-0.0099214812
0.007789387
-0.011013374
0.0057658639
-0.011681134
0.0035272357
-0.011901303
0.0011608065
-0.011667055
-0.0012436796
-0.01098741
-0.0035973171
-0.0098877276
-0.0058122777
-0.0084091854
-0.0078051263
-0.0066076929
-0.0094999509
-0.0045519772
-0.010831678
-0.0023208413
-0.011749171
-1.3977795e-07
-0.012217041
0.0023205697
-0.012217073
0.0045517274
-0.011749263
0.0066074756
-0.010831821
0.0084090075
-0.0095001324
0.0098875912
-0.0078053334
0.010987315
-0.0058125007
0.011667
-0.00359755
0.011901288
-0.0012439192
0.011681162
0.0011605565
0.011013452
0.0035269778
0.0099216107
0.0057656083
0.0084456596
0.0077891457
0.0066412147
0.0095168494
0.0045775105
0.010878713
0.002334605
0.011819087
0.012299214
-0.0029489294
0.015248375
-0.0057827582
0.014653023
-0.0083907996
0.013486921
-0.010672068
0.011798331
-0.01253901
0.0096563287
-0.013921132
0.0071479863
-0.014767644
0.0043737475
-0.015048677
0.001441839
-0.014755547
-0.0015368095
-0.013898787
-0.0044540771
-0.012510014
-0.0072010505
-0.010640986
-0.009674154
-0.0083623732
-0.011778564
-0.0057612873
-0.013432764
-0.0029375941
-0.014572864
-1.7608106e-07
-0.015154459
0.0029372536
-0.015154502
0.0057609776
-0.014572987
0.0083621082
-0.013432951
0.010640774
-0.011778798
0.012509855
-0.0096744142
0.013898677
-0.007201323
0.014755482
-0.0044543548
0.015048652
-0.001537089
0.014767668
0.0014415407
0.013921216
0.0043734302
0.012539159
0.0071476645
0.010672287
0.0096560181
0.0083910843
0.011798052
0.0057830975
0.0134867
0.0029493052
0.01465288
0.015248325
-0.0036215483
0.018870169
-0.0071025572
0.018134032
-0.01030765
0.016692014
-0.013113188
0.014603868
-0.015411416
0.011954557
-0.017115043
0.0088516135
-0.018160817
0.0054195213
-0.018511067
0.0017920891
-0.018155039
-0.0018928372
-0.017104114
-0.0055050027
-0.015397105
-0.008908059
-0.01309787
-0.011973389
-0.010293676
-0.014582759
-0.0070921664
-0.016634273
-0.0036163254
-0.018048705
-2.1873558e-07
-0.018770565
0.0036159055
-0.018770627
0.0070917914
-0.018048873
0.010293363
-0.016634523
0.01309763
-0.014583065
0.015396933
-0.011973717
0.017103998
-0.0089083885
0.01815497
-0.0055053264
0.018511027
-0.0018931457
0.018160824
0.0017917432
0.01711512
0.0054191339
0.015411576
0.0088512091
0.013113439
0.011954155
0.010307993
0.014603498
0.0071029766
0.016691716
0.0036220202
0.018133836
0.0188701
-0.0041618675
0.023032332
-0.008163705
0.02213587
-0.011850845
0.020379154
-0.015081967
0.017834991
-0.017732798
0.014605388
-0.019701727
0.010820542
-0.020914357
0.0066321522
-0.021324394
0.0022021252
-0.02091951
-0.002297721
-0.019711579
-0.0067129336
-0.017745662
-0.010873976
-0.015095488
-0.014623563
-0.011863023
-0.017815223
-0.0081732181
-0.020324078
-0.0041676094
-0.022054314
-2.5963428e-07
-0.022937915
0.0041671174
-0.022938004
0.0081727918
-0.022054547
0.011862683
-0.020324413
0.015095244
-0.017815627
0.017745502
-0.014623975
0.019711479
-0.010874366
0.020919451
-0.0067132984
0.021324325
-0.0022980193
0.020914326
0.0022017421
0.019701773
0.0066316865
0.017732941
0.010820041
0.015082229
0.014604867
0.01185123
0.017834497
0.0081641945
0.020378751
0.0041624317
0.022135599
0.023032235
-0.0042332523
0.027265898
-0.0083060552
0.026208673
-0.012062213
0.024135312
-0.015359196
0.021131974
-0.018069096
0.017315288
-0.020088127
0.012839573
-0.021339545
0.0078835708
-0.021768588
0.002631168
-0.021361546
-0.0027047633
-0.020128137
-0.0079463425
-0.018119558
-0.012882555
-0.015411587
-0.017331534
-0.012109462
-0.021117348
-0.0083420895
-0.024091451
-0.0042534664
-0.026142937
-2.7509981e-07
-0.027191106
0.0042529558
-0.027191235
0.0083416683
-0.026143259
0.012109146
-0.024091892
0.01541139
-0.021117871
0.018119455
-0.01733204
0.020128088
-0.012882999
0.021361535
-0.0079467455
0.021768471
-0.0027049554
0.021339445
0.0026307681
0.020088117
0.0078830154
0.018069187
0.01283897
0.015359427
0.017314627
0.012062591
0.021131333
0.0083065542
0.024134788
0.0042338441
0.026208309
0.027265765
-0.0034062727
0.030672401
-0.0066869529
0.029489353
-0.0097171761
0.027165535
-0.012385984
0.023800782
-0.014588665
0.019517968
-0.016237798
0.014488706
-0.017268777
0.0089145501
-0.017627722
0.0029901131
-0.017303856
-0.0030286297
-0.016301135
-0.0089490628
-0.014671443
-0.014512247
-0.012475198
-0.019527779
-0.0097989972
-0.023793549
-0.0067487456
-0.027141702
-0.0034385197
-0.029453163
-2.1200314e-07
-0.030629414
0.0034381373
-0.030629584
0.0067484471
-0.029453569
0.0097987795
-0.027142224
0.012475086
-0.023794177
0.014671416
-0.01952837
0.01630116
-0.014512742
0.01730398
-0.0089495654
0.017627532
-0.003028508
0.017268572
0.002989728
0.016237741
0.0089138467
0.014588704
0.014488007
0.012386163
0.019517168
0.0097174739
0.023800023
0.0066873185
0.027164944
0.003406702
0.029488926
0.030672238
-0.001392482
0.032064877
-0.0027398572
0.030836728
-0.0039867451
0.028412423
-0.005097959
0.024911996
-0.0060246952
0.020444705
-0.0067226868
0.015186697
-0.0071805598
0.0093724231
-0.0073445689
0.0031541222
-0.0072203199
-0.0031528786
-0.0067978184
-0.0093715644
-0.0061243662
-0.015185699
-0.005207986
-0.02044416
-0.0040901071
-0.024911428
-0.0028195319
-0.028412277
-0.0014358394
-0.030836855
-2.1280799e-08
-0.032065232
0.001435806
-0.032065411
0.0028194855
-0.030837249
0.0040900034
-0.028412742
0.0052078992
-0.024912073
0.0061243446
-0.020444815
0.0067978098
-0.015186208
0.0072208431
-0.0093725987
0.0073442226
-0.0031518875
0.0071801518
0.0031537988
0.006722658
0.0093713406
0.0060247397
0.015185925
0.0050981444
0.020443763
0.0039869201
0.024911247
0.0027399124
0.028411951
0.0013924802
0.030836358
0.032064724
0.0014230351
0.030641844
0.0027943514
0.029465412
0.004053526
0.027153248
0.0051615796
0.023803942
0.006069835
0.019536449
0.0067375669
0.014518965
0.0071565659
0.0089534241
0.0072798478
0.0030308403
0.0071173624
-0.0029903932
0.006663363
-0.008917565
0.0059716231
-0.014493959
0.0050528551
-0.019525391
0.0039514273
-0.02381
0.0027155045
-0.027176355
0.0013800331
-0.029501384
1.7827971e-08
-0.030685217
-0.0013800068
-0.030685387
-0.0027154656
-0.02950179
-0.0039513288
-0.027176879
-0.0050527727
-0.023810629
-0.0059716062
-0.019525982
-0.0066633535
-0.01449446
-0.0071178935
-0.0089180587
-0.007279501
-0.0029902801
-0.0071561587
0.0030304566
-0.006737538
0.0089527198
-0.0060698849
0.014518272
-0.0051617682
0.019535647
-0.0040537055
0.023803184
-0.0027944141
0.02715266
-0.0014230404
0.029464984
0.030641681
0.003425008
0.027216605
0.0067227273
0.026167692
0.0097615007
0.024114475
0.012427716
0.021137726
0.014615765
0.0173484
0.016239444
0.012895286
0.017238459
0.0079544098
0.017561276
0.0027080233
0.017203834
-0.0026329518
0.016176711
-0.007890442
0.014533838
-0.012851086
0.012339486
-0.01733104
0.0096808279
-0.021151342
0.006662106
-0.024157633
0.0033938446
-0.026233122
2.0974226e-07
-0.027291582
-0.0033934673
-0.027291709
-0.0066618119
-0.026233445
-0.0096806143
-0.024158076
-0.012339377
-0.021151866
-0.014533812
-0.017331547
-0.016176738
-0.012851534
-0.017203954
-0.0078908429
-0.017561087
-0.0026331467
-0.017238254
0.0027076236
-0.016239389
0.0079538547
-0.014615804
0.012894687
-0.012427898
0.017347741
-0.0097618019
0.021137088
-0.0067230959
0.024113954
-0.0034254407
0.026167329
0.027216471
0.0042392443
0.022977047
0.0083148081
0.022092129
0.012070173
0.02035911
0.015361788
0.017846112
0.018061099
0.01464909
0.020063225
0.01089316
0.02129262
0.0067250147
0.021698347
0.002302296
0.021270683
-0.0022052876
0.020023226
-0.0066429848
0.01801072
-0.010838581
0.015309645
-0.014629965
0.012023448
-0.017865145
0.0082795753
-0.02041376
0.0042200688
-0.022173616
2.7340543e-07
-0.023071787
-0.0042195612
-0.023071875
-0.0082791566
-0.02217385
-0.012023135
-0.020414097
-0.015309451
-0.017865551
-0.018010619
-0.014630379
-0.020023179
-0.010838973
-0.021270672
-0.0066433503
-0.021698231
-0.0022055872
-0.021292521
0.0023019129
-0.020063216
0.0067245501
-0.018061191
0.010892661
-0.01536202
0.01464857
-0.012070552
0.01784562
-0.008315307
0.020358709
-0.004239836
0.022091858
0.022976949
0.0041522146
0.018824537
0.0081435777
0.018100766
0.011820248
0.016682439
0.015041173
0.014625188
0.017681817
0.012008445
0.019640582
0.0089343952
0.020844029
0.0055215682
0.021247331
0.0018989942
0.020838672
-0.0017966293
0.019630329
-0.0054346416
0.017668496
-0.0088767473
0.015027296
-0.011988765
0.011807986
-0.014645835
0.0081343601
-0.016740134
0.004147193
-0.018186449
2.5850843e-07
-0.018924852
-0.0041467029
-0.018924914
-0.0081339355
-0.018186617
-0.011807647
-0.016740385
-0.015027054
-0.014646144
-0.017668338
-0.011989096
-0.019630231
-0.0088770795
-0.020838615
-0.0054349669
-0.021247263
-0.0017969388
-0.020843998
0.001898648
-0.01964063
0.0055211815
-0.017681961
0.0089339923
-0.015041434
0.012008043
-0.011820632
0.014624819
-0.0081440651
0.016682141
-0.0041527765
0.018100569
0.018824468
0.0035987826
0.015225511
0.0070582008
0.014641347
0.010244541
0.013496099
0.01303538
0.011834349
0.01532357
0.0097202544
0.017022281
0.007235684
0.018067982
0.0044758672
0.018422106
0.00154487
0.018073373
-0.0014478956
0.017032501
-0.0043937696
0.015337013
-0.0071812593
0.013049863
-0.0097016153
0.01025793
-0.011853902
0.0070684307
-0.013550634
0.0036043786
-0.014722396
2.1769667e-07
-0.015320691
-0.0036039606
-0.015320735
-0.0070680575
-0.01472252
-0.01025762
-0.013550823
-0.013049625
-0.011854139
-0.015336842
-0.0097018782
-0.017032388
-0.0071815343
-0.018073305
-0.0043940494
-0.018422067
-0.0014481766
-0.01806799
0.0015445708
-0.017022358
0.0044755497
-0.015323729
0.0072353626
-0.013035629
0.0097199441
-0.010244881
0.011834071
-0.0070586168
0.013495877
-0.0035992509
0.014641204
0.015225461
0.0029162103
0.012309108
0.0057196796
0.011837878
0.0083020736
0.010913705
0.01056422
0.0095722028
0.012419627
0.0078648467
0.013798161
0.0058571507
0.014648473
0.0036255546
0.014939234
0.001254109
0.014660039
-0.0011687006
0.013819535
-0.003553265
0.012447397
-0.0058091211
0.010594054
-0.007848273
0.0083294872
-0.0095893354
0.0057405976
-0.010961744
0.0029276089
-0.011909408
1.7470803e-07
-0.012393257
-0.002927271
-0.012393289
-0.0057402906
-0.011909501
-0.0083292249
-0.010961889
-0.010593845
-0.0095895193
-0.01244724
-0.0078484827
-0.013819428
-0.0058093468
-0.014659977
-0.0035535003
-0.014939211
-0.0011689422
-0.014648498
0.0012538572
-0.013798243
0.0036252956
-0.012419775
0.0058568942
-0.010564436
0.0078646047
-0.0083023549
0.0095719898
-0.0057200149
0.010913537
-0.0029165818
0.011837771
0.012309071
0.0022929274
0.010016031
0.0044974727
0.0096333329
0.0065286139
0.0088825634
0.0083084658
0.0077923509
0.0097691226
0.0064041899
0.010855371
0.004770902
0.011526574
0.002954352
0.011757739
0.0010229435
0.011539996
-0.00095095698
0.010880128
-0.0028933968
0.0098013286
-0.0047303221
0.0083431447
-0.006390089
0.0065605217
-0.0078067124
0.0045218492
-0.0089230719
0.0023061984
-0.009693757
1.3784277e-07
-0.010087196
-0.0023059306
-0.010087221
-0.0045216031
-0.0096938284
-0.0065603079
-0.008923184
-0.00834297
-0.0078068572
-0.0098011952
-0.0063902575
-0.010880035
-0.004730507
-0.011539943
-0.0028935926
-0.011757725
-0.00095116003
-0.011526602
0.0010227344
-0.010855448
0.002954141
-0.0097692498
0.0047706965
-0.0083086443
0.0064039991
-0.00652884
0.0077921855
-0.0044977376
0.0088824347
-0.0022932179
0.0096332509
0.010016003
0.001798753
0.0082171608
0.0035284252
0.0079036606
0.0051224883
0.0072885003
0.0065199174
0.0063949219
0.0076674243
0.005256683
0.0085215142
0.0039168121
0.0090499811
0.0024258851
0.0092328485
0.00084007612
0.0090627666
-0.00078087512
0.0085451021
-0.0023757323
0.0076981522
-0.0038833722
0.0065530638
-0.0052450006
0.0051530309
-0.0064066795
0.0035517853
-0.0073218263
0.0018114698
-0.0079534415
1.0879018e-07
-0.0082758354
-0.0018112578
-0.0082758545
-0.003551589
-0.0079534972
-0.0051528584
-0.0073219146
-0.0065529207
-0.0064067948
-0.0076980414
-0.0052451368
-0.0085450248
-0.0038835237
-0.009062723
-0.0023758943
-0.0092328391
-0.00078104391
-0.0090500082
0.00083990355
-0.0085215804
0.0024257131
-0.0076675305
0.0039166466
-0.0065200627
0.0052565313
-0.0051226691
0.0063947918
-0.0035286345
0.0072884001
-0.0017989808
0.0079035972
0.0082171391
0.0014350502
0.006782018
0.0028151839
0.0065235269
0.0040874591
0.0060162251
0.0052032342
0.0052791468
0.0061199368
0.0043399803
0.0068026796
0.0032340693
0.0072254882
0.0020030765
0.0073721238
0.00069344061
0.0072365694
-0.00064532072
0.0068231366
-0.0019622996
0.0061466131
-0.0032068488
0.0052320444
-0.0043304319
0.0041140339
-0.005288669
0.0028355261
-0.0060433185
0.0014461263
-0.0065640416
8.6677199e-08
-0.0068297958
-0.001445957
-0.0068298109
-0.0028353685
-0.0065640857
-0.0041138943
-0.0060433888
-0.0052319274
-0.0052887617
-0.0061465218
-0.0043305425
-0.0068230726
-0.0032069728
-0.0072365338
-0.0019624332
-0.0073721175
-0.00064546019
-0.0072255126
0.00069329865
-0.0068027357
0.0020029362
-0.0061200247
0.0032339356
-0.0052033524
0.004339859
-0.0040876044
0.0052790438
-0.0028153505
0.0060161463
-0.0014352306
0.0065234773
0.0067820011
0.0011764097
0.0056055341
0.0023079323
0.0053920043
0.0033512586
0.0049728988
0.0042665344
0.0043638711
0.0050187987
0.003587716
0.0055793025
0.0026735655
0.0059265505
0.0016558286
0.0060470507
0.00057294039
0.0059357596
-0.00053402969
0.0055963035
-0.0016228434
0.0050409794
-0.0026515247
0.0042905065
-0.0035799589
0.0033733859
-0.0043715485
0.0023248799
-0.0049948124
0.00118564
-0.0054248018
7.0020917e-08
-0.0056442258
-0.0011855031
-0.0056442378
-0.0023247518
-0.005424837
-0.0033732718
-0.0049948688
-0.0042904102
-0.0043716233
-0.0050409039
-0.0035800488
-0.0055962505
-0.0026516262
-0.0059357305
-0.0016229532
-0.0060470463
-0.00053414438
-0.0059265717
0.00057282406
-0.0055793498
0.0016557143
-0.0050188716
0.0026734574
-0.0042666313
0.0035876187
-0.0033513765
0.004363789
-0.0023080666
0.0049728364
-0.0011765546
0.0053919653
0.0056055208
0.00099631662
0.0046091568
0.0019547034
0.0044336176
0.0028385424
0.0040890597
0.0036140911
0.0035883224
0.0042516928
0.0029501143
0.0047268938
0.0021983645
0.0050213519
0.0013613705
0.0051235143
0.000470778
0.0050290647
-0.00043958011
0.0047411357
-0.0013349143
0.0042702838
-0.0021806729
0.0036341992
-0.0029438742
0.0028571175
-0.0035944667
0.0019689393
-0.0041066342
0.0010040725
-0.004459935
5.7667331e-08
-0.004640211
-0.0010039596
-0.0046402205
-0.0019688334
-0.0044599631
-0.0028570228
-0.0041066795
-0.003634119
-0.0035945271
-0.0042702207
-0.0029439471
-0.0047410914
-0.0021807555
-0.0050290406
-0.0013350039
-0.0051235113
-0.0004396737
-0.0050213705
0.00047068325
-0.004726934
0.0013612778
-0.004251754
0.0021982774
-0.0036141717
0.0029500363
-0.0028386397
0.0035882571
-0.0019548136
0.0040890103
-0.00099643511
0.0044335868
0.0046091463
0.0008848849
0.0037242209
0.0017361271
0.0035823754
0.0025212381
0.0033039487
0.0032102514
0.0028993091
0.0037767945
0.0023835711
0.0041990823
0.0017760767
0.0044607418
0.001099711
0.0045514392
0.00038008065
0.0044673053
-0.0003554462
0.0042112223
-0.0010788314
0.0037926728
-0.0017621234
0.0032274537
-0.0023786551
0.0025371482
-0.0029041612
0.0017483303
-0.0033178164
0.00089153597
-0.0036031406
4.8901197e-08
-0.0037487239
-0.00089144015
-0.0037487315
-0.0017482403
-0.0036031629
-0.0025370674
-0.0033178524
-0.0032273851
-0.0029042094
-0.0037926188
-0.0023787134
-0.0042111845
-0.0017621898
-0.0044672849
-0.0010789035
-0.004551437
-0.0003555216
-0.0044607583
0.00038000454
-0.0041991173
0.0010996368
-0.0037768472
0.0017760073
-0.0032103201
0.0023835093
-0.0025213206
0.0028992575
-0.0017362201
0.0033039099
-0.00088498463
0.0035823513
0.0037242127
0.00082918696
0.0028949869
0.001626892
0.0027846704
0.0023627051
0.0025681357
0.0030085583
0.0022534559
0.0035397263
0.0018524031
0.003935754
0.001380049
0.0041812263
0.00085423864
0.0042663751
0.00029493191
0.0041874835
-0.00027655457
0.0039473212
-0.00083866908
0.0035548526
-0.0013696548
0.0030249419
-0.0018487444
0.0023778547
-0.002257074
0.0016385101
-0.0025784718
0.0008355177
-0.0028001482
4.5541764e-08
-0.0029132518
-0.00083542841
-0.0029132575
-0.0016384261
-0.0028001652
-0.0023777792
-0.0025784993
-0.0030248777
-0.0022571109
-0.003554802
-0.0018487892
-0.0039472859
-0.0013697058
-0.0041874648
-0.00083872458
-0.0042663737
-0.00027661269
-0.0041812423
0.00029487315
-0.0039357872
0.00085418164
-0.0035397758
0.0013799959
-0.0030086225
0.001852356
-0.0023627817
0.0022534167
-0.0016269781
0.0025681063
-0.00082927899
0.0027846521
0.0028949807
0.00086812236
0.0020268181
0.001703252
0.0019495407
0.0024735262
0.0017978614
0.0031495377
0.0015774444
0.0037053902
0.0012965506
0.0041196788
0.00096576046
0.0043763173
0.00059760008
0.0044651779
0.00020607133
0.0043823752
-0.00019375183
0.0041308545
-0.0005871484
0.0037199731
-0.00095877348
0.0031653142
-0.0012940854
0.0024881075
-0.0015798674
0.0017144331
-0.0018047974
0.00087421591
-0.0019599311
4.5347554e-08
-0.0020390812
-0.00087412698
-0.0020390852
-0.0017143493
-0.0019599428
-0.0024880322
-0.0018048165
-0.0031652501
-0.001579893
-0.0037199227
-0.0012941166
-0.0041308195
-0.000958809
-0.0043823569
-0.00058718714
-0.0044651769
-0.00019379272
-0.0043763336
0.00020602989
-0.0041197122
0.00059756014
-0.0037054398
0.00096572354
-0.0031496017
0.0012965179
-0.0024736023
0.0015774174
-0.0017033372
0.0017978412
-0.00086821331
0.0019495282
0.0020268138
0.00093185802
0.0010949047
0.00182833
0.0010530688
0.002655229
0.00097096246
0.0033810061
0.00085166732
0.0039778834
0.00069967325
0.0044229174
0.00052072646
0.0046988668
0.00032165065
0.004794693
0.00011024509
0.0047053371
-0.00010439585
0.0044348686
-0.00031667992
0.0039934899
-0.00051739485
0.0033978935
-0.00069848895
0.0026708393
-0.00085281326
0.0018403036
-0.00097426169
0.00093838917
-0.0010580166
5.4444979e-08
-0.0011007465
-0.00093828238
-0.0011007484
-0.001840203
-0.0010580222
-0.0026707488
-0.00097427072
-0.0033978164
-0.00085282537
-0.0039934293
-0.00069850365
-0.0044348268
-0.00051741159
-0.0047053157
-0.00031669819
-0.0047946934
-0.00010441507
-0.0046988862
0.00011022277
-0.0044229574
0.00032163133
-0.0039779429
0.00052070903
-0.0033810829
0.00069965791
-0.0026553201
0.00085165458
-0.0018284318
0.00097095289
-0.00093196649
0.0010530628
0.0010949027
0.001094622
0.0021474727
0.0031182394
0.0039697425
0.0046692903
0.0051899346
0.0055115473
0.0056217891
0.0055174104
0.0052007862
0.004683486
0.0039851277
0.0031324761
0.0021584005
0.0011005869
5.2014012e-08
-0.0011004848
-0.0021583043
-0.0031323895
-0.003985054
-0.0046834279
-0.0052007461
-0.0055173902
-0.0056217894
-0.0055115649
-0.0051899729
-0.0046693475
-0.0039698162
-0.0031183267
-0.0021475701
-0.0010947258
)
;

boundaryField
{
    leftWall
    {
        type            cyclic;
        value           nonuniform List<scalar> 
32
(
-3.8598147e-08
-4.0568917e-08
-4.3884714e-08
-4.8859338e-08
-5.5900653e-08
-6.556093e-08
-7.8642153e-08
-9.6320554e-08
-1.2023284e-07
-1.5236972e-07
-1.9439663e-07
-2.4543584e-07
-2.9598762e-07
-3.1409185e-07
-2.2935281e-07
5.7913989e-09
-2.1423057e-09
2.3055393e-07
3.1420987e-07
2.9497607e-07
2.4369831e-07
1.9221828e-07
1.4979127e-07
1.1716099e-07
9.2623826e-08
7.4245809e-08
6.0658454e-08
5.1000006e-08
4.7024609e-08
4.6437837e-08
5.5354616e-08
5.2933487e-08
)
;
    }
    rightWall
    {
        type            cyclic;
        value           nonuniform List<scalar> 
32
(
3.8598147e-08
4.0568917e-08
4.3884714e-08
4.8859338e-08
5.5900653e-08
6.556093e-08
7.8642153e-08
9.6320554e-08
1.2023284e-07
1.5236972e-07
1.9439663e-07
2.4543584e-07
2.9598762e-07
3.1409185e-07
2.2935281e-07
-5.7913989e-09
2.1423057e-09
-2.3055393e-07
-3.1420987e-07
-2.9497607e-07
-2.4369831e-07
-1.9221828e-07
-1.4979127e-07
-1.1716099e-07
-9.2623826e-08
-7.4245809e-08
-6.0658454e-08
-5.1000006e-08
-4.7024609e-08
-4.6437837e-08
-5.5354616e-08
-5.2933487e-08
)
;
    }
    lowerWall
    {
        type            calculated;
        value           uniform 0;
    }
    atmosphere
    {
        type            calculated;
        value           nonuniform List<scalar> 
32
(
2.2975965e-07
2.1812323e-07
1.9576336e-07
1.6419253e-07
1.2547371e-07
8.2117315e-08
3.7957353e-08
3.3256331e-09
-1.7212215e-08
-5.5684574e-08
-9.4628985e-08
-1.3069165e-07
-1.6162333e-07
-1.8609855e-07
-2.0301483e-07
-2.1161246e-07
-2.1150594e-07
-2.026964e-07
-1.8556922e-07
-1.6087919e-07
-1.2971272e-07
-9.3363258e-08
-5.4087597e-08
-1.5872935e-08
-1.7279732e-09
3.9257214e-08
8.3642483e-08
1.266366e-07
1.6503935e-07
1.963486e-07
2.1846992e-07
2.2987486e-07
)
;
    }
    defaultFaces
    {
        type            empty;
        value           nonuniform List<scalar> 0();
    }
}


// ************************************************************************* //
