/*--------------------------------*- C++ -*----------------------------------*\
| =========                 |                                                 |
| \\      /  F ield         | OpenFOAM: The Open Source CFD Toolbox           |
|  \\    /   O peration     | Version:  2106                                  |
|   \\  /    A nd           | Website:  www.openfoam.com                      |
|    \\/     M anipulation  |                                                 |
\*---------------------------------------------------------------------------*/
FoamFile
{
    version     2.0;
    format      ascii;
    arch        "LSB;label=32;scalar=64";
    class       volScalarField;
    location    "0.026";
    object      reconstructedDistanceFunction;
}
// * * * * * * * * * * * * * * * * * * * * * * * * * * * * * * * * * * * * * //

dimensions      [0 1 0 0 0 0 0];

internalField   nonuniform List<scalar> 
1024
(
0
0
0
0
0
0
0
0
0
0
0
0
0
0
0
0
0
0
0
0
0
0
0
0
0
0
0
0
0
0
0
0
0
0
0
0
0
0
0
0
0
0
0
0
0
0
0
0
0
0
0
0
0
0
0
0
0
0
0
0
0
0
0
0
0
0
0
0
0
0
0
0
0
0
0
0
0
0
0
0
0
0
0
0
0
0
0
0
0
0
0
0
0
0
0
0
0
0
0
0
0
0
0
0
0
0
0
0
0
0
0
0
0
0
0
0
0
0
0
0
0
0
0
0
0
0
0
0
0
0
0
0
0
0
0
0
0
0
0
0
0
0
0
0
0
0
0
0
0
0
0
0
0
0
0
0
0
0
0
0
0
0
0
0
0
0
0
0
0
0
0
0
0
0
0
0
0
0
0
0
0
0
0
0
0
0
0
0
0
0
0
0
0
0
0
0
0
0
0
0
0
0
0
0
0
0
0
0
0
0
0
0
0
0
0
0
0
0
0
0
0
0
0
0
0
0
0
0
0
0
0
0
0
0
0
0
0
0
0
0
0
0
0
0
0
0
0
0
0
0
0
0
0
0
0
0
0
0
0
0
0
0
0
0
0
0
0
0
0
0
0
0
0
0
0
0
0
0
0
0
0
0
0
0
0
0
0
0
0
0
0
0
0
0
0
0
0
0
0
0
0
0
0
0
0
0
0
0
0
0
0
0
0
0
0
0
0
0
0
0
0
0
0
0
0
0
0
0
0
0
0
0
0
0
0
0
0
0
0
0
0
0
0
0
0
0
0
0
0
0
0
0
0
0
0
0
0
0
0
0
0
0
0
0
0
0
0
0
0
0
0
0
0
0
0
0
0
0
0
0
0
0
0
0
0
0
0
0
0
0.10940207
0.10939126
0.10938044
0.10936955
0.10935871
0.10934792
0.10933881
0.10933034
0.1093239
0.10931941
0.10931703
0.10931702
0.1093194
0.10932388
0.10933033
0.1093388
0.10934791
0.1093587
0.10936955
0.10938044
0.10939125
0.10940206
0
0
0
0
0
0.078182992
0.078180607
0.078176131
0.078169662
0.078161196
0.078152072
0.078141266
0.078130446
0.078119551
0.078108712
0.078097922
0.07808881
0.078080345
0.078073896
0.078069409
0.078067029
0.078067025
0.078069399
0.078073883
0.078080329
0.078088799
0.07809791
0.078108704
0.078119551
0.078130438
0.078141255
0.078152059
0.078161181
0.078169644
0.078176112
0.078180598
0.078182984
0.046932992
0.046930607
0.046926131
0.046919663
0.046911197
0.046902074
0.046891268
0.046880448
0.046869553
0.046858714
0.046847924
0.046838811
0.046830346
0.046823896
0.046819409
0.046817029
0.046817025
0.046819399
0.046823883
0.04683033
0.0468388
0.046847912
0.046858706
0.046869553
0.04688044
0.046891257
0.04690206
0.046911182
0.046919645
0.046926113
0.046930598
0.046932984
0.015682992
0.015680607
0.015676132
0.015669664
0.015661199
0.015652075
0.01564127
0.01563045
0.015619555
0.015608716
0.015597925
0.015588812
0.015580347
0.015573897
0.015569409
0.015567029
0.015567025
0.0155694
0.015573884
0.015580331
0.015588801
0.015597914
0.015608707
0.015619555
0.015630441
0.015641259
0.015652062
0.015661183
0.015669646
0.015676113
0.015680599
0.015682984
-0.015567008
-0.015569392
-0.015573868
-0.015580336
-0.0155888
-0.015597923
-0.015608729
-0.015619548
-0.015630443
-0.015641282
-0.015652073
-0.015661187
-0.015669652
-0.015676103
-0.015680591
-0.015682971
-0.015682975
-0.0156806
-0.015676116
-0.015669668
-0.015661197
-0.015652085
-0.015641291
-0.015630443
-0.015619557
-0.015608739
-0.015597937
-0.015588815
-0.015580353
-0.015573886
-0.015569401
-0.015567016
-0.046817008
-0.046819392
-0.046823867
-0.046830335
-0.046838799
-0.046847921
-0.046858727
-0.046869546
-0.046880441
-0.04689128
-0.046902072
-0.046911185
-0.046919651
-0.046926102
-0.04693059
-0.046932971
-0.046932975
-0.0469306
-0.046926115
-0.046919667
-0.046911196
-0.046902083
-0.046891289
-0.046880441
-0.046869555
-0.046858738
-0.046847935
-0.046838814
-0.046830352
-0.046823886
-0.046819401
-0.046817016
-0.078067008
-0.078069392
-0.078073866
-0.078080334
-0.078088798
-0.07809792
-0.078108725
-0.078119544
-0.078130439
-0.078141279
-0.07815207
-0.078161184
-0.078169651
-0.078176102
-0.07818059
-0.078182971
-0.078182975
-0.0781806
-0.078176115
-0.078169666
-0.078161195
-0.078152082
-0.078141287
-0.078130439
-0.078119553
-0.078108736
-0.078097933
-0.078088813
-0.078080352
-0.078073885
-0.078069401
-0.078067016
-0.10931701
-0.10931939
-0.10932387
-0.10933033
-0.1093388
-0.10934792
-0.10935872
-0.10936954
-0.10938044
-0.10939128
-0.10940207
0
0
0
0
0
0
0
0
0
0
-0.10940208
-0.10939129
-0.10938044
-0.10936955
-0.10935873
-0.10934793
-0.10933881
-0.10933035
-0.10932388
-0.1093194
-0.10931702
0
0
0
0
0
0
0
0
0
0
0
0
0
0
0
0
0
0
0
0
0
0
0
0
0
0
0
0
0
0
0
0
0
0
0
0
0
0
0
0
0
0
0
0
0
0
0
0
0
0
0
0
0
0
0
0
0
0
0
0
0
0
0
0
0
0
0
0
0
0
0
0
0
0
0
0
0
0
0
0
0
0
0
0
0
0
0
0
0
0
0
0
0
0
0
0
0
0
0
0
0
0
0
0
0
0
0
0
0
0
0
0
0
0
0
0
0
0
0
0
0
0
0
0
0
0
0
0
0
0
0
0
0
0
0
0
0
0
0
0
0
0
0
0
0
0
0
0
0
0
0
0
0
0
0
0
0
0
0
0
0
0
0
0
0
0
0
0
0
0
0
0
0
0
0
0
0
0
0
0
0
0
0
0
0
0
0
0
0
0
0
0
0
0
0
0
0
0
0
0
0
0
0
0
0
0
0
0
0
0
0
0
0
0
0
0
0
0
0
0
0
0
0
0
0
0
0
0
0
0
0
0
0
0
0
0
0
0
0
0
0
0
0
0
0
0
0
0
0
0
0
0
0
0
0
0
0
0
0
0
0
0
0
0
0
0
0
0
0
0
0
0
0
0
0
0
0
0
0
0
0
0
0
0
0
0
0
0
0
0
0
0
0
0
0
0
0
0
0
0
0
0
0
0
0
0
0
0
0
0
0
0
0
0
0
0
0
0
0
0
0
0
0
0
0
0
0
0
0
0
0
0
0
0
0
0
0
0
0
0
0
0
0
0
0
0
0
0
0
0
0
0
0
0
0
0
0
0
0
0
0
0
0
0
0
0
0
0
0
0
0
0
0
0
0
0
0
0
0
0
0
0
0
0
)
;

boundaryField
{
    leftWall
    {
        type            cyclic;
    }
    rightWall
    {
        type            cyclic;
    }
    lowerWall
    {
        type            calculated;
        value           uniform 0;
    }
    atmosphere
    {
        type            calculated;
        value           uniform 0;
    }
    defaultFaces
    {
        type            empty;
    }
}


// ************************************************************************* //
