/*--------------------------------*- C++ -*----------------------------------*\
| =========                 |                                                 |
| \\      /  F ield         | OpenFOAM: The Open Source CFD Toolbox           |
|  \\    /   O peration     | Version:  2106                                  |
|   \\  /    A nd           | Website:  www.openfoam.com                      |
|    \\/     M anipulation  |                                                 |
\*---------------------------------------------------------------------------*/
FoamFile
{
    version     2.0;
    format      ascii;
    arch        "LSB;label=32;scalar=64";
    class       surfaceScalarField;
    location    "0.004";
    object      phi_0;
}
// * * * * * * * * * * * * * * * * * * * * * * * * * * * * * * * * * * * * * //

dimensions      [0 3 -1 0 0 0 0];

oriented        oriented;

internalField   nonuniform List<scalar> 
480
(
-0.012858434
0.012858434
-0.023755822
0.010897388
-0.031035488
0.0072796661
-0.033587789
0.0025523016
-0.031059291
-0.0025284985
-0.023789196
-0.0072700949
-0.012888408
-0.010900788
-7.7317662e-14
-0.012888408
0.012888408
-0.012888408
0.023789196
-0.010900788
0.031059291
-0.0072700949
0.033587789
-0.0025284985
0.031035488
0.0025523016
0.023755822
0.0072796661
0.012858434
0.010897388
0.012858434
-0.014978661
0.027837094
-0.027667385
0.023586112
-0.036147098
0.01575938
-0.039113954
0.0055191575
-0.036177056
-0.0054653969
-0.02771852
-0.015728631
-0.015024937
-0.023594371
3.2940326e-14
-0.027913345
0.015024937
-0.027913345
0.02771852
-0.023594371
0.036177056
-0.015728631
0.039113954
-0.0054653969
0.036147098
0.0055191575
0.027667385
0.01575938
0.014978661
0.023586112
0.027837094
-0.01902257
0.046859665
-0.0351308
0.039694342
-0.045893068
0.026521648
-0.049653297
0.0092793858
-0.045941496
-0.0091771978
-0.035216081
-0.026454046
-0.019104065
-0.039706387
4.7397616e-14
-0.04701741
0.019104065
-0.04701741
0.035216081
-0.039706387
0.045941496
-0.026454046
0.049653297
-0.0091771978
0.045893068
0.0092793858
0.0351308
0.026521648
0.01902257
0.039694342
0.046859665
-0.02539709
0.072256754
-0.04689802
0.061195272
-0.061271896
0.040895524
-0.066281093
0.014288583
-0.061375574
-0.014082717
-0.047099002
-0.040730619
-0.025591901
-0.061213487
2.8557262e-14
-0.072609311
0.025591901
-0.072609311
0.047099002
-0.061213487
0.061375574
-0.040730619
0.066281093
-0.014082717
0.061271896
0.014288583
0.04689802
0.040895524
0.02539709
0.061195272
0.072256754
-0.034720173
0.10697693
-0.064124807
0.090599906
-0.083824153
0.060594871
-0.090701539
0.02116597
-0.083966944
-0.020817312
-0.064404348
-0.060293215
-0.035008472
-0.090609364
1.0909515e-14
-0.10761778
0.035008472
-0.10761778
0.064404348
-0.090609364
0.083966944
-0.060293215
0.090701539
-0.020817312
0.083824153
0.02116597
0.064124807
0.060594871
0.034720173
0.090599906
0.10697693
-0.044375688
0.15135262
-0.08202186
0.12824608
-0.1074523
0.086025311
-0.11630392
0.030017591
-0.10756795
-0.029553282
-0.082429871
-0.085431295
-0.044841148
-0.12819809
-8.4168757e-15
-0.15245893
0.044841148
-0.15245893
0.082429871
-0.12819809
0.10756795
-0.085431295
0.11630392
-0.029553282
0.1074523
0.030017591
0.08202186
0.086025311
0.044375688
0.12824608
0.15135262
-0.046659117
0.19801173
-0.086580435
0.1681674
-0.11424266
0.11368754
-0.12383456
0.039609488
-0.11303255
-0.040355296
-0.085160786
-0.11330306
-0.045675056
-0.16768382
-5.0258561e-14
-0.19813399
0.045675056
-0.19813399
0.085160786
-0.16768382
0.11303255
-0.11330306
0.12383456
-0.040355296
0.11424266
0.039609488
0.086580435
0.11368754
0.046659117
0.1681674
0.19801173
-0.019564564
0.2175763
-0.037247994
0.18585083
-0.050523073
0.12696262
-0.054930241
0.044016656
-0.04859471
-0.046690827
-0.035188032
-0.12670974
-0.018579301
-0.18429255
-5.2629462e-14
-0.21671329
0.018579301
-0.21671329
0.035188032
-0.18429255
0.04859471
-0.12670974
0.054930241
-0.046690827
0.050523073
0.044016656
0.037247994
0.12696262
0.019564564
0.18585083
0.2175763
0.018509803
0.19906649
0.035319997
0.16904063
0.048601543
0.11368107
0.053757981
0.038860219
0.048349755
-0.041282601
0.035442245
-0.11380223
0.018736763
-0.16758706
2.477055e-14
-0.19797653
-0.018736763
-0.19797653
-0.035442245
-0.16758706
-0.048349755
-0.11380223
-0.053757981
-0.041282601
-0.048601543
0.038860219
-0.035319997
0.11368107
-0.018509803
0.16904063
0.19906649
0.0455392
0.15352729
0.085245622
0.12933421
0.11304516
0.085881532
0.12283625
0.029069136
0.11241526
-0.030861615
0.08514365
-0.086530616
0.046083849
-0.12852726
2.6622474e-14
-0.15189268
-0.046083849
-0.15189268
-0.08514365
-0.12852726
-0.11241526
-0.086530616
-0.12283625
-0.030861615
-0.11304516
0.029069136
-0.085245622
0.085881532
-0.0455392
0.12933421
0.15352729
0.044187859
0.10933943
0.081347861
0.092174208
0.10602876
0.061200632
0.11423846
0.020859432
0.10516235
-0.021785496
0.080193845
-0.061562115
0.043447382
-0.091780802
2.6461609e-14
-0.10844529
-0.043447382
-0.10844529
-0.080193845
-0.091780802
-0.10516235
-0.061562115
-0.11423846
-0.021785496
-0.10602876
0.020859432
-0.081347861
0.061200632
-0.044187859
0.092174208
0.10933943
0.034573487
0.074765948
0.063666644
0.06308105
0.082950023
0.041917253
0.089392488
0.014416968
0.08241635
-0.014809359
0.062966194
-0.042111959
0.034106182
-0.06292079
6.4549762e-15
-0.074339112
-0.034106182
-0.074339112
-0.062966194
-0.06292079
-0.08241635
-0.042111959
-0.089392488
-0.014809359
-0.082950023
0.014416968
-0.063666644
0.041917253
-0.034573487
0.06308105
0.074765948
0.024119039
0.050646909
0.044385066
0.042815024
0.057772344
0.028529975
0.062283155
0.0099061568
0.057474654
-0.010000857
0.043941569
-0.028578874
0.023796451
-0.042775671
2.7175088e-14
-0.050542661
-0.023796451
-0.050542661
-0.043941569
-0.042775671
-0.057474654
-0.028578874
-0.062283155
-0.010000857
-0.057772344
0.0099061568
-0.044385066
0.028529975
-0.024119039
0.042815024
0.050646909
0.018818744
0.031828165
0.034697753
0.026936015
0.045247299
0.017980429
0.048856924
0.0062965314
0.045103164
-0.0062470979
0.034492243
-0.017967952
0.018673891
-0.026957319
3.1363444e-14
-0.031868771
-0.018673891
-0.031868771
-0.034492243
-0.026957319
-0.045103164
-0.017967952
-0.048856924
-0.0062470979
-0.045247299
0.0062965314
-0.034697753
0.017980429
-0.018818744
0.026936015
0.031828165
0.014530589
0.017297575
0.026814929
0.014651676
0.034997263
0.0097980943
0.037833462
0.0034603325
0.034980104
-0.0033937394
0.026786372
-0.00977422
0.014509329
-0.014680277
-1.3017078e-13
-0.017359442
-0.014509329
-0.017359442
-0.026786372
-0.014680277
-0.034980104
-0.00977422
-0.037833462
-0.0033937394
-0.034997263
0.0034603325
-0.026814929
0.0097980943
-0.014530589
0.014651676
0.017297575
0.017353624
0.032052843
0.04188272
0.045354293
0.04194991
0.032144168
0.017416084
1.2062972e-13
-0.017416084
-0.032144168
-0.04194991
-0.045354293
-0.04188272
-0.032052843
-0.017353624
)
;

boundaryField
{
    leftWall
    {
        type            cyclic;
        value           nonuniform List<scalar> 
16
(
-6.8682427e-14
6.9349126e-14
6.5760184e-14
5.3789948e-14
4.8719286e-14
1.4685393e-14
-7.0737197e-15
-6.8001771e-15
-3.8832988e-14
-3.3536267e-14
-6.6584028e-14
-6.1161737e-14
2.6470731e-14
2.4227787e-14
-1.5299007e-13
2.0966578e-13
)
;
    }
    rightWall
    {
        type            cyclic;
        value           nonuniform List<scalar> 
16
(
6.8682427e-14
-6.9349126e-14
-6.5760184e-14
-5.3789948e-14
-4.8719286e-14
-1.4685393e-14
7.0737197e-15
6.8001771e-15
3.8832988e-14
3.3536267e-14
6.6584028e-14
6.1161737e-14
-2.6470731e-14
-2.4227787e-14
1.5299007e-13
-2.0966578e-13
)
;
    }
    lowerWall
    {
        type            calculated;
        value           uniform 0;
    }
    atmosphere
    {
        type            calculated;
        value           nonuniform List<scalar> 
16
(
-5.6049042e-05
-4.7543003e-05
-3.1782245e-05
-1.1240561e-05
1.0642985e-05
3.1522408e-05
4.7806967e-05
5.6642493e-05
5.6642493e-05
4.7806967e-05
3.1522408e-05
1.0642985e-05
-1.1240561e-05
-3.1782245e-05
-4.7543003e-05
-5.6049042e-05
)
;
    }
    defaultFaces
    {
        type            empty;
        value           nonuniform List<scalar> 0();
    }
}


// ************************************************************************* //
