/*--------------------------------*- C++ -*----------------------------------*\
| =========                 |                                                 |
| \\      /  F ield         | OpenFOAM: The Open Source CFD Toolbox           |
|  \\    /   O peration     | Version:  2106                                  |
|   \\  /    A nd           | Website:  www.openfoam.com                      |
|    \\/     M anipulation  |                                                 |
\*---------------------------------------------------------------------------*/
FoamFile
{
    version     2.0;
    format      ascii;
    arch        "LSB;label=32;scalar=64";
    class       volVectorField;
    location    "0.004";
    object      U;
}
// * * * * * * * * * * * * * * * * * * * * * * * * * * * * * * * * * * * * * //

dimensions      [0 1 -1 0 0 0 0];

internalField   nonuniform List<vector> 
256
(
(-0.10717043 0.098647954 0)
(-0.30496715 0.083613201 0)
(-0.45657226 0.055826196 0)
(-0.53802598 0.01965829 0)
(-0.53836649 -0.019351456 0)
(-0.45686174 -0.055729041 0)
(-0.30550363 -0.083591056 0)
(-0.10742114 -0.098837513 0)
(0.10742114 -0.098837513 0)
(0.30550363 -0.083591056 0)
(0.45686174 -0.055729041 0)
(0.53836649 -0.019351456 0)
(0.53802598 0.01965829 0)
(0.45657226 0.055826196 0)
(0.30496715 0.083613201 0)
(0.10717043 0.098647954 0)
(-0.12485551 0.31366104 0)
(-0.35526679 0.26581001 0)
(-0.53170512 0.17760639 0)
(-0.62664328 0.062203641 0)
(-0.62691092 -0.06173089 0)
(-0.53228029 -0.17738579 0)
(-0.35607878 -0.26592612 0)
(-0.12529422 -0.3144054 0)
(0.12529422 -0.3144054 0)
(0.35607878 -0.26592612 0)
(0.53228029 -0.17738579 0)
(0.62691092 -0.06173089 0)
(0.62664328 0.062203641 0)
(0.53170512 0.17760639 0)
(0.35526679 0.26581001 0)
(0.12485551 0.31366104 0)
(-0.1585973 0.57456309 0)
(-0.45115763 0.48681751 0)
(-0.6751628 0.32537482 0)
(-0.79543099 0.11405774 0)
(-0.79583208 -0.11252167 0)
(-0.67618179 -0.32433381 0)
(-0.45259907 -0.48676055 0)
(-0.15943902 -0.57610856 0)
(0.15943902 -0.57610856 0)
(0.45259907 -0.48676055 0)
(0.67618179 -0.32433381 0)
(0.79583208 -0.11252167 0)
(0.79543099 0.11405774 0)
(0.6751628 0.32537482 0)
(0.45115763 0.48681751 0)
(0.1585973 0.57456309 0)
(-0.21180829 0.92513571 0)
(-0.60230934 0.7836207 0)
(-0.90155724 0.52358869 0)
(-1.0616685 0.18308431 0)
(-1.0625135 -0.18129946 0)
(-0.90401514 -0.52236708 0)
(-0.60588803 -0.78371767 0)
(-0.21387689 -0.92812939 0)
(0.21387689 -0.92812939 0)
(0.60588803 -0.78371767 0)
(0.90401514 -0.52236708 0)
(1.0625135 -0.18129946 0)
(1.0616685 0.18308431 0)
(0.90155724 0.52358869 0)
(0.60230934 0.7836207 0)
(0.21180829 0.92513571 0)
(-0.28961055 1.381089 0)
(-0.82335442 1.1696932 0)
(-1.2332542 0.78223982 0)
(-1.4523942 0.27412377 0)
(-1.4536253 -0.26762468 0)
(-1.2366715 -0.7770123 0)
(-0.82844797 -1.1694502 0)
(-0.29282247 -1.3888552 0)
(0.29282247 -1.3888552 0)
(0.82844797 -1.1694502 0)
(1.2366715 -0.7770123 0)
(1.4536253 -0.26762468 0)
(1.4523942 0.27412377 0)
(1.2332542 0.78223982 0)
(0.82335442 1.1696932 0)
(0.28961055 1.381089 0)
(-0.37020363 2.0426649 0)
(-1.0522625 1.7303979 0)
(-1.5793853 1.1576232 0)
(-1.8627285 0.40345008 0)
(-1.8633666 -0.39943401 0)
(-1.5835526 -1.1533506 0)
(-1.0601705 -1.729426 0)
(-0.37513804 -2.051725 0)
(0.37513804 -2.051725 0)
(1.0601705 -1.729426 0)
(1.5835526 -1.1533506 0)
(1.8633666 -0.39943401 0)
(1.8627285 0.40345008 0)
(1.5793853 1.1576232 0)
(1.0522625 1.7303979 0)
(0.37020363 2.0426649 0)
(-0.3886688 2.7909959 0)
(-1.1075502 2.3637477 0)
(-1.672116 1.5878416 0)
(-1.9876265 0.5549209 0)
(-1.9756744 -0.54399497 0)
(-1.6476202 -1.5742427 0)
(-1.0852333 -2.3641344 0)
(-0.37856486 -2.8175088 0)
(0.37856486 -2.8175088 0)
(1.0852333 -2.3641344 0)
(1.6476202 -1.5742427 0)
(1.9756744 -0.54399497 0)
(1.9876265 0.5549209 0)
(1.672116 1.5878416 0)
(1.1075502 2.3637477 0)
(0.3886688 2.7909959 0)
(-0.16149756 3.5114462 0)
(-0.46554019 2.9903547 0)
(-0.73328833 2.0372141 0)
(-0.88986624 0.70595679 0)
(-0.86935963 -0.75106374 0)
(-0.6911885 -2.0480358 0)
(-0.43970182 -2.9785364 0)
(-0.15563867 -3.4926283 0)
(0.15563867 -3.4926283 0)
(0.43970182 -2.9785364 0)
(0.6911885 -2.0480358 0)
(0.86935963 -0.75106374 0)
(0.88986624 0.70595679 0)
(0.73328833 2.0372141 0)
(0.46554019 2.9903547 0)
(0.16149756 3.5114462 0)
(0.1529017 3.5031345 0)
(0.43949439 3.0007733 0)
(0.69605102 2.0505191 0)
(0.86269717 0.71036678 0)
(0.858726 -0.74607192 0)
(0.69584011 -2.0313628 0)
(0.44444796 -2.9636148 0)
(0.15711733 -3.4961577 0)
(-0.15711733 -3.4961577 0)
(-0.44444796 -2.9636148 0)
(-0.69584011 -2.0313628 0)
(-0.858726 -0.74607192 0)
(-0.86269717 0.71036678 0)
(-0.69605102 2.0505191 0)
(-0.43949439 3.0007733 0)
(-0.1529017 3.5031345 0)
(0.37541536 2.8398908 0)
(1.0842403 2.3884524 0)
(1.651265 1.5845788 0)
(1.9688997 0.53528642 0)
(1.9623503 -0.57149083 0)
(1.6418096 -1.5980488 0)
(1.091592 -2.3708091 0)
(0.38615386 -2.8038275 0)
(-0.38615386 -2.8038275 0)
(-1.091592 -2.3708091 0)
(-1.6418096 -1.5980488 0)
(-1.9623503 -0.57149083 0)
(-1.9688997 0.53528642 0)
(-1.651265 1.5845788 0)
(-1.0842403 2.3884524 0)
(-0.37541536 2.8398908 0)
(0.36891261 2.0618552 0)
(1.045831 1.7398116 0)
(1.5630011 1.1566629 0)
(1.8335743 0.39303469 0)
(1.8262494 -0.41284972 0)
(1.5438578 -1.1630268 0)
(1.0292368 -1.7321209 0)
(0.36335591 -2.046381 0)
(-0.36335591 -2.046381 0)
(-1.0292368 -1.7321209 0)
(-1.5438578 -1.1630268 0)
(-1.8262494 -0.41284972 0)
(-1.8335743 0.39303469 0)
(-1.5630011 1.1566629 0)
(-1.045831 1.7398116 0)
(-0.36891261 2.0618552 0)
(0.28882231 1.4375618 0)
(0.81872985 1.211424 0)
(1.2225071 0.80361052 0)
(1.4342412 0.27509126 0)
(1.4297214 -0.28540608 0)
(1.2112283 -0.80883015 0)
(0.80831204 -1.2071689 0)
(0.28479106 -1.4261149 0)
(-0.28479106 -1.4261149 0)
(-0.80831204 -1.2071689 0)
(-1.2112283 -0.80883015 0)
(-1.4297214 -0.28540608 0)
(-1.4342412 0.27509126 0)
(-1.2225071 0.80361052 0)
(-0.81872985 1.211424 0)
(-0.28882231 1.4375618 0)
(0.2015109 0.95235051 0)
(0.5711801 0.80471979 0)
(0.85166705 0.53586696 0)
(0.99928495 0.18532097 0)
(0.99684231 -0.18868907 0)
(0.84504467 -0.53792038 0)
(0.5641768 -0.80452923 0)
(0.19857477 -0.95053127 0)
(-0.19857477 -0.95053127 0)
(-0.5641768 -0.80452923 0)
(-0.84504467 -0.53792038 0)
(-0.99684231 -0.18868907 0)
(-0.99928495 0.18532097 0)
(-0.85166705 0.53586696 0)
(-0.5711801 0.80471979 0)
(-0.2015109 0.95235051 0)
(0.15698296 0.65115471 0)
(0.44588504 0.55079324 0)
(0.6660934 0.36735914 0)
(0.78339078 0.12819853 0)
(0.7822207 -0.12810331 0)
(0.66306969 -0.36700326 0)
(0.44282106 -0.54974385 0)
(0.15572152 -0.64957445 0)
(-0.15572152 -0.64957445 0)
(-0.44282106 -0.54974385 0)
(-0.66306969 -0.36700326 0)
(-0.7822207 -0.12810331 0)
(-0.78339078 0.12819853 0)
(-0.6660934 0.36735914 0)
(-0.44588504 0.55079324 0)
(-0.15698296 0.65115471 0)
(0.12103146 0.38936318 0)
(0.34413967 0.32981528 0)
(0.51452838 0.22048612 0)
(0.60590588 0.077697886 0)
(0.60584859 -0.076092595 0)
(0.51426967 -0.22040735 0)
(0.34376861 -0.3316265 0)
(0.12087383 -0.3924006 0)
(-0.12087383 -0.3924006 0)
(-0.34376861 -0.3316265 0)
(-0.51426967 -0.22040735 0)
(-0.6058486 -0.076092595 0)
(-0.60590588 0.077697886 0)
(-0.51452838 0.22048612 0)
(-0.34413967 0.32981528 0)
(-0.12103146 0.38936318 0)
(0.14464171 0.1401205 0)
(0.41159326 0.11865888 0)
(0.61595109 0.079420816 0)
(0.72665716 0.028201058 0)
(0.72729157 -0.027855287 0)
(0.61773245 -0.078808869 0)
(0.41320184 -0.11768244 0)
(0.1452998 -0.1388834 0)
(-0.1452998 -0.1388834 0)
(-0.41320184 -0.11768244 0)
(-0.61773245 -0.078808869 0)
(-0.72729157 -0.027855287 0)
(-0.72665716 0.028201058 0)
(-0.61595109 0.079420816 0)
(-0.41159326 0.11865888 0)
(-0.14464171 0.1401205 0)
)
;

boundaryField
{
    leftWall
    {
        type            cyclic;
    }
    rightWall
    {
        type            cyclic;
    }
    lowerWall
    {
        type            slip;
    }
    atmosphere
    {
        type            slip;
    }
    defaultFaces
    {
        type            empty;
    }
}


// ************************************************************************* //
