/*--------------------------------*- C++ -*----------------------------------*\
| =========                 |                                                 |
| \\      /  F ield         | OpenFOAM: The Open Source CFD Toolbox           |
|  \\    /   O peration     | Version:  2106                                  |
|   \\  /    A nd           | Website:  www.openfoam.com                      |
|    \\/     M anipulation  |                                                 |
\*---------------------------------------------------------------------------*/
FoamFile
{
    version     2.0;
    format      ascii;
    arch        "LSB;label=32;scalar=64";
    class       volVectorField;
    location    "0.004";
    object      U_0;
}
// * * * * * * * * * * * * * * * * * * * * * * * * * * * * * * * * * * * * * //

dimensions      [0 1 -1 0 0 0 0];

internalField   nonuniform List<vector> 
256
(
(-0.10719434 0.09866996 0)
(-0.30503514 0.083631733 0)
(-0.45667342 0.055838348 0)
(-0.5381444 0.019662419 0)
(-0.53848458 -0.01935582 0)
(-0.4569619 -0.05574135 0)
(-0.30557052 -0.083609507 0)
(-0.1074446 -0.098859272 0)
(0.1074446 -0.098859272 0)
(0.30557052 -0.083609507 0)
(0.4569619 -0.05574135 0)
(0.53848458 -0.01935582 0)
(0.5381444 0.019662419 0)
(0.45667342 0.055838348 0)
(0.30503514 0.083631733 0)
(0.10719434 0.09866996 0)
(-0.12488256 0.31373223 0)
(-0.35534366 0.26587 0)
(-0.53181921 0.17764578 0)
(-0.62677647 0.062216966 0)
(-0.62704365 -0.061744927 0)
(-0.53239301 -0.17742558 0)
(-0.35615411 -0.26598572 0)
(-0.12532062 -0.31447564 0)
(0.12532062 -0.31447564 0)
(0.35615411 -0.26598572 0)
(0.53239301 -0.17742558 0)
(0.62704365 -0.061744927 0)
(0.62677647 0.062216966 0)
(0.53181921 0.17764578 0)
(0.35534366 0.26587 0)
(0.12488256 0.31373223 0)
(-0.15863203 0.57468936 0)
(-0.4512563 0.48692372 0)
(-0.67530885 0.32544411 0)
(-0.79560068 0.11408086 0)
(-0.79600108 -0.11254632 0)
(-0.6763257 -0.32440398 0)
(-0.45269525 -0.48686605 0)
(-0.15947272 -0.57623313 0)
(0.15947272 -0.57623313 0)
(0.45269525 -0.48686605 0)
(0.6763257 -0.32440398 0)
(0.79600108 -0.11254632 0)
(0.79560068 0.11408086 0)
(0.67530885 0.32544411 0)
(0.4512563 0.48692372 0)
(0.15863203 0.57468936 0)
(-0.21185663 0.92534505 0)
(-0.60244669 0.78379662 0)
(-0.90175961 0.52370282 0)
(-1.0619017 0.18312169 0)
(-1.0627457 -0.18134023 0)
(-0.90421436 -0.52248338 0)
(-0.60602185 -0.78389206 0)
(-0.2139239 -0.92833498 0)
(0.2139239 -0.92833498 0)
(0.60602185 -0.78389206 0)
(0.90421436 -0.52248338 0)
(1.0627457 -0.18134023 0)
(1.0619017 0.18312169 0)
(0.90175961 0.52370282 0)
(0.60244669 0.78379662 0)
(0.21185663 0.92534505 0)
(-0.28968605 1.3813975 0)
(-0.82356927 1.1699516 0)
(-1.2335704 0.78240561 0)
(-1.4527567 0.27417705 0)
(-1.4539872 -0.26768179 0)
(-1.2369847 -0.7771795 0)
(-0.8286585 -1.1697055 0)
(-0.29289655 -1.3891593 0)
(0.29289655 -1.3891593 0)
(0.8286585 -1.1697055 0)
(1.2369847 -0.7771795 0)
(1.4539872 -0.26768179 0)
(1.4527567 0.27417705 0)
(1.2335704 0.78240561 0)
(0.82356927 1.1699516 0)
(0.28968605 1.3813975 0)
(-0.37032683 2.0431807 0)
(-1.0526141 1.7308291 0)
(-1.5799032 1.157897 0)
(-1.8633209 0.4035363 0)
(-1.8639634 -0.39952928 0)
(-1.5840795 -1.153631 0)
(-1.0605308 -1.7298525 0)
(-0.37526637 -2.052233 0)
(0.37526637 -2.052233 0)
(1.0605308 -1.7298525 0)
(1.5840795 -1.153631 0)
(1.8639634 -0.39952928 0)
(1.8633209 0.4035363 0)
(1.5799032 1.157897 0)
(1.0526141 1.7308291 0)
(0.37032683 2.0431807 0)
(-0.38887641 2.7917308 0)
(-1.1081481 2.3643654 0)
(-1.6730059 1.5882421 0)
(-1.9886587 0.55504926 0)
(-1.976715 -0.54411354 0)
(-1.648528 -1.5746344 0)
(-1.085852 -2.3647545 0)
(-0.37878332 -2.8182654 0)
(0.37878332 -2.8182654 0)
(1.085852 -2.3647545 0)
(1.648528 -1.5746344 0)
(1.976715 -0.54411354 0)
(1.9886587 0.55504926 0)
(1.6730059 1.5882421 0)
(1.1081481 2.3643654 0)
(0.38887641 2.7917308 0)
(-0.16169426 3.5128522 0)
(-0.46612465 2.9915579 0)
(-0.73420368 2.0380093 0)
(-0.89096106 0.70621998 0)
(-0.87044878 -0.75132999 0)
(-0.69208994 -2.0488275 0)
(-0.44028577 -2.9797464 0)
(-0.15584134 -3.4940691 0)
(0.15584134 -3.4940691 0)
(0.44028577 -2.9797464 0)
(0.69208994 -2.0488275 0)
(0.87044878 -0.75132999 0)
(0.89096106 0.70621998 0)
(0.73420368 2.0380093 0)
(0.46612465 2.9915579 0)
(0.16169426 3.5128522 0)
(0.15309535 3.5045455 0)
(0.44007263 3.0019906 0)
(0.69695559 2.0513247 0)
(0.86378477 0.71063955 0)
(0.85980998 -0.74633011 0)
(0.69674057 -2.0321388 0)
(0.44503322 -2.964804 0)
(0.15732278 -3.4975864 0)
(-0.15732278 -3.4975864 0)
(-0.44503322 -2.964804 0)
(-0.69674057 -2.0321388 0)
(-0.85980998 -0.74633011 0)
(-0.86378477 0.71063955 0)
(-0.69695559 2.0513247 0)
(-0.44007263 3.0019906 0)
(-0.15309535 3.5045455 0)
(0.37562703 2.8406531 0)
(1.0848483 2.3890863 0)
(1.652163 1.5849801 0)
(1.9699318 0.53541742 0)
(1.963383 -0.57161427 0)
(1.6427041 -1.5984535 0)
(1.0921978 -2.3714346 0)
(0.3863677 -2.8045816 0)
(-0.3863677 -2.8045816 0)
(-1.0921978 -2.3714346 0)
(-1.6427041 -1.5984535 0)
(-1.963383 -0.57161427 0)
(-1.9699318 0.53541742 0)
(-1.652163 1.5849801 0)
(-1.0848483 2.3890863 0)
(-0.37562703 2.8406531 0)
(0.36903522 2.06235 0)
(1.046177 1.7402303 0)
(1.5635078 1.1569405 0)
(1.8341499 0.39313299 0)
(1.8268284 -0.41292932 0)
(1.5443665 -1.1632963 0)
(1.0295827 -1.7325474 0)
(0.3634782 -2.0468961 0)
(-0.3634782 -2.0468961 0)
(-1.0295827 -1.7325474 0)
(-1.5443665 -1.1632963 0)
(-1.8268284 -0.41292932 0)
(-1.8341499 0.39313299 0)
(-1.5635078 1.1569405 0)
(-1.046177 1.7402303 0)
(-0.36903522 2.06235 0)
(0.2888954 1.437898 0)
(0.8189384 1.2117079 0)
(1.2228178 0.80379809 0)
(1.4346021 0.27515921 0)
(1.4300866 -0.28546204 0)
(1.2115479 -0.80901398 0)
(0.80852919 -1.2074558 0)
(0.28486766 -1.4264591 0)
(-0.28486766 -1.4264591 0)
(-0.80852919 -1.2074558 0)
(-1.2115479 -0.80901398 0)
(-1.4300866 -0.28546204 0)
(-1.4346021 0.27515921 0)
(-1.2228178 0.80379809 0)
(-0.8189384 1.2117079 0)
(-0.2888954 1.437898 0)
(0.20154808 0.95249181 0)
(0.57128594 0.80484031 0)
(0.8518244 0.53594787 0)
(0.99946891 0.1853508 0)
(0.99702908 -0.18871231 0)
(0.84520811 -0.5379988 0)
(0.56428798 -0.80465249 0)
(0.19861398 -0.95067922 0)
(-0.19861398 -0.95067922 0)
(-0.56428798 -0.80465249 0)
(-0.84520811 -0.5379988 0)
(-0.99702908 -0.18871231 0)
(-0.99946891 0.1853508 0)
(-0.8518244 0.53594787 0)
(-0.57128594 0.80484031 0)
(-0.20154808 0.95249181 0)
(0.15702367 0.65143076 0)
(0.4460012 0.55102735 0)
(0.66626734 0.36751553 0)
(0.78359592 0.12825444 0)
(0.78242777 -0.12815532 0)
(0.66324817 -0.36715801 0)
(0.44294148 -0.54997876 0)
(0.15576395 -0.64985318 0)
(-0.15576395 -0.64985318 0)
(-0.44294148 -0.54997876 0)
(-0.66324817 -0.36715801 0)
(-0.78242777 -0.12815532 0)
(-0.78359592 0.12825444 0)
(-0.66626734 0.36751553 0)
(-0.4460012 0.55102735 0)
(-0.15702367 0.65143076 0)
(0.12102173 0.38928041 0)
(0.344112 0.32974515 0)
(0.5144871 0.22043932 0)
(0.60585741 0.077681658 0)
(0.6058002 -0.076075543 0)
(0.51422857 -0.22036056 0)
(0.34374113 -0.33155785 0)
(0.12086415 -0.39232014 0)
(-0.12086415 -0.39232014 0)
(-0.34374113 -0.33155785 0)
(-0.51422857 -0.22036056 0)
(-0.6058002 -0.076075543 0)
(-0.60585741 0.077681658 0)
(-0.5144871 0.22043932 0)
(-0.344112 0.32974515 0)
(-0.12102173 0.38928041 0)
(0.14470755 0.14047874 0)
(0.41178073 0.11896247 0)
(0.61623164 0.079623349 0)
(0.72698798 0.028272492 0)
(0.72762424 -0.027923085 0)
(0.61801676 -0.079009662 0)
(0.41339331 -0.11798643 0)
(0.14536715 -0.13924347 0)
(-0.14536715 -0.13924347 0)
(-0.41339331 -0.11798643 0)
(-0.61801676 -0.079009662 0)
(-0.72762424 -0.027923085 0)
(-0.72698798 0.028272492 0)
(-0.61623164 0.079623349 0)
(-0.41178073 0.11896247 0)
(-0.14470755 0.14047874 0)
)
;

boundaryField
{
    leftWall
    {
        type            cyclic;
    }
    rightWall
    {
        type            cyclic;
    }
    lowerWall
    {
        type            slip;
    }
    atmosphere
    {
        type            slip;
    }
    defaultFaces
    {
        type            empty;
    }
}


// ************************************************************************* //
