/*--------------------------------*- C++ -*----------------------------------*\
| =========                 |                                                 |
| \\      /  F ield         | OpenFOAM: The Open Source CFD Toolbox           |
|  \\    /   O peration     | Version:  2106                                  |
|   \\  /    A nd           | Website:  www.openfoam.com                      |
|    \\/     M anipulation  |                                                 |
\*---------------------------------------------------------------------------*/
FoamFile
{
    version     2.0;
    format      ascii;
    arch        "LSB;label=32;scalar=64";
    class       surfaceScalarField;
    location    "0.015";
    object      phi;
}
// * * * * * * * * * * * * * * * * * * * * * * * * * * * * * * * * * * * * * //

dimensions      [0 3 -1 0 0 0 0];

oriented        oriented;

internalField   nonuniform List<scalar> 
480
(
-0.0068140379
0.0068141025
-0.012584891
0.0057708533
-0.01643026
0.003845369
-0.017771432
0.001341172
-0.016420221
-0.0013512111
-0.01256933
-0.0038508906
-0.0068044662
-0.0057648643
-5.9886377e-08
-0.0068044063
0.0068043532
-0.0068044131
0.012569239
-0.0057648854
0.016420164
-0.0038509258
0.017771424
-0.0013512593
0.016430311
0.0013411127
0.012584985
0.0038453262
0.0068141582
0.0057708267
0.0068140935
-0.0074827846
0.014296961
-0.013814437
0.012102505
-0.018026565
0.0080574977
-0.019487747
0.0028023535
-0.018005569
-0.0028333888
-0.013784797
-0.0080716634
-0.0074640747
-0.012085586
-6.7405551e-08
-0.014268414
0.0074639467
-0.014268427
0.01378469
-0.012085629
0.018005501
-0.0080717367
0.019487733
-0.0028334911
0.018026627
0.0028022181
0.013814546
0.0080574073
0.0074829232
0.01210245
0.014296943
-0.0089074663
0.02320452
-0.016433083
0.019628122
-0.021419871
0.013044286
-0.023133924
0.0045164066
-0.021377607
-0.0045897064
-0.016371259
-0.013078011
-0.0088674104
-0.019589435
-8.1147644e-08
-0.023135743
0.0088672544
-0.023135763
0.016371125
-0.019589499
0.021377514
-0.013078125
0.023133893
-0.004589871
0.021419958
0.0045161535
0.016433224
0.013044141
0.0089076398
0.019628034
0.02320449
-0.011328597
0.034533242
-0.02087145
0.029170975
-0.027151247
0.019324082
-0.029276561
0.0066417211
-0.027067932
-0.0067983358
-0.02075681
-0.019389132
-0.011258757
-0.029087488
-1.0469532e-07
-0.034394395
0.011258551
-0.034394419
0.020756624
-0.029087572
0.027067792
-0.019389293
0.029276493
-0.0067985722
0.027151384
0.0066412622
0.02087165
0.019323876
0.011328833
0.02917085
0.034533199
-0.016605648
0.051139051
-0.03057668
0.043142008
-0.039722764
0.028470166
-0.042792367
0.0097113236
-0.03961488
-0.0099758229
-0.030404791
-0.028599221
-0.016493983
-0.042998296
-1.2649614e-07
-0.050888252
0.016493726
-0.050888271
0.030404535
-0.042998382
0.039614649
-0.028599407
0.042792194
-0.0099761175
0.039723011
0.0097104452
0.03057697
0.028469918
0.016605959
0.043141861
0.051138996
-0.024608715
0.075747995
-0.04532798
0.063861273
-0.058859555
0.042001741
-0.063391652
0.014243421
-0.058806932
-0.014560543
-0.045273799
-0.042132354
-0.024618889
-0.063653207
-1.7111194e-07
-0.075506969
0.024618528
-0.07550697
0.045273427
-0.063653281
0.058806584
-0.042132564
0.063391305
-0.014560839
0.058859961
0.01424179
0.045328395
0.042001483
0.024609156
0.0638611
0.075747923
-0.033545948
0.10929421
-0.062099279
0.092414604
-0.080983307
0.060885769
-0.087340395
0.02060051
-0.080934649
-0.020966289
-0.062030715
-0.061036288
-0.033478819
-0.092205102
-1.613105e-07
-0.10898563
0.033478421
-0.10898555
0.062030183
-0.092205042
0.080933922
-0.061036303
0.087339289
-0.020966206
0.080984164
0.020596914
0.062099889
0.060885759
0.033546482
0.092414507
0.10929413
-0.021711754
0.1310063
-0.040872225
0.11157507
-0.054112846
0.07412639
-0.058754065
0.025241728
-0.054340411
-0.025379943
-0.041341938
-0.074034761
-0.022155284
-0.11139176
-1.959608e-07
-0.13114072
0.022154787
-0.13114054
0.041341375
-0.11139163
0.054339897
-0.074034825
0.058753338
-0.025379647
0.054113511
0.025236741
0.040872671
0.074126599
0.021712322
0.11157486
0.13100612
0.021795527
0.10921043
0.040874879
0.092495722
0.053832132
0.061169138
0.058098419
0.020975441
0.053410295
-0.020691819
0.040415282
-0.061039749
0.021565932
-0.092542406
1.8856071e-07
-0.10957497
-0.021565459
-0.10957489
-0.040414741
-0.092542348
-0.053409819
-0.061039747
-0.058097728
-0.020691738
-0.053832817
0.020971831
-0.04087535
0.061169132
-0.02179611
0.092495616
0.10921035
0.033341529
0.075868625
0.061863835
0.063973416
0.080737996
0.042294977
0.087080298
0.014633139
0.080706675
-0.014318196
0.061913351
-0.042246424
0.033496108
-0.064125163
1.5808841e-07
-0.076079022
-0.033495711
-0.076079019
-0.061912819
-0.06412524
-0.080705944
-0.042246622
-0.087079193
-0.01431849
-0.080738864
0.014631502
-0.061864477
0.042294744
-0.03334208
0.063973219
0.075868553
0.024136409
0.051731992
0.044378912
0.043730912
0.057600154
0.029073735
0.062065833
0.010167461
0.057614198
-0.0098665614
0.044345352
-0.028977577
0.024081748
-0.043861559
1.6295774e-07
-0.051997437
-0.024081401
-0.051997455
-0.044344997
-0.043861644
-0.05761386
-0.028977759
-0.062065489
-0.0098668602
-0.057600554
0.010166567
-0.044379308
0.029073498
-0.024136839
0.04373075
0.051731938
0.016528361
0.035203464
0.030471091
0.029788183
0.039681039
0.019863787
0.042846082
0.0070024176
0.039749217
-0.0067696963
0.030568432
-0.019796792
0.016596904
-0.029890031
1.3011825e-07
-0.035400663
-0.016596638
-0.035400687
-0.030568166
-0.029890116
-0.039748974
-0.019796951
-0.042845904
-0.0067699306
-0.039681298
0.0070019619
-0.030471387
0.019863587
-0.016528686
0.029788049
0.035203419
0.0099379713
0.025265391
0.018309039
0.021417116
0.023848641
0.014324184
0.025777881
0.005073178
0.023902117
-0.0048939331
0.018366332
-0.014261007
0.0099687198
-0.021492419
8.3225408e-08
-0.025432027
-0.0099685548
-0.025432049
-0.01836618
-0.02149249
-0.023901999
-0.014261132
-0.025777817
-0.0048941127
-0.02384876
0.0050729047
-0.018309199
0.014324026
-0.009938164
0.021417014
0.025265357
0.0089347347
0.016330544
0.016498644
0.013853206
0.021542234
0.0092805945
0.023312373
0.0033030389
0.021582475
-0.0031640351
0.01655056
-0.0092290929
0.0089694524
-0.013911311
1.0033226e-07
-0.016462675
-0.0089692604
-0.016462688
-0.016550397
-0.013911354
-0.021582365
-0.0092291647
-0.023312342
-0.0031641356
-0.021542338
0.0033029016
-0.016498814
0.0092805014
-0.008934945
0.013853145
0.016330523
0.0050341852
0.01129635
0.0093029153
0.0095844761
0.01216436
0.0064191503
0.013188723
0.0022786759
0.012201268
-0.0021765809
0.0093511387
-0.0063789633
0.0050664657
-0.0096266379
4.1778066e-09
-0.011396213
-0.0050664556
-0.011396229
-0.009351125
-0.0096266841
-0.012201253
-0.006379037
-0.013188711
-0.0021766778
-0.012164371
0.0022785618
-0.0093029308
0.0064190614
-0.0050342032
0.0095844178
0.01129633
0.011290184
0.020869596
0.027285448
0.029563086
0.027387629
0.021011997
0.011390387
1.236598e-07
-0.011390155
-0.021011811
-0.027387517
-0.029563071
-0.027285547
-0.020869784
-0.01129043
)
;

boundaryField
{
    leftWall
    {
        type            cyclic;
        value           nonuniform List<scalar> 
16
(
-6.466421e-08
-7.4185103e-08
-9.2273362e-08
-1.2444416e-07
-1.6147398e-07
-2.2949645e-07
-2.7090627e-07
-3.3594695e-07
3.4456449e-07
2.7859529e-07
2.2385282e-07
1.6711062e-07
1.0157703e-07
1.1187182e-07
9.4369047e-09
1.3323489e-07
)
;
    }
    rightWall
    {
        type            cyclic;
        value           nonuniform List<scalar> 
16
(
6.466421e-08
7.4185103e-08
9.2273362e-08
1.2444416e-07
1.6147398e-07
2.2949645e-07
2.7090627e-07
3.3594695e-07
-3.4456449e-07
-2.7859529e-07
-2.2385282e-07
-1.6711062e-07
-1.0157703e-07
-1.1187182e-07
-9.4369047e-09
-1.3323489e-07
)
;
    }
    lowerWall
    {
        type            calculated;
        value           uniform 0;
    }
    atmosphere
    {
        type            calculated;
        value           nonuniform List<scalar> 
16
(
6.0329413e-06
5.0639711e-06
3.2977145e-06
1.0378336e-06
-1.1231514e-06
-3.3315665e-06
-5.0281645e-06
-5.9495376e-06
-5.9495418e-06
-5.0281766e-06
-3.3315786e-06
-1.1231575e-06
1.0378101e-06
3.2977074e-06
5.0639597e-06
6.0329368e-06
)
;
    }
    defaultFaces
    {
        type            empty;
        value           nonuniform List<scalar> 0();
    }
}


// ************************************************************************* //
