/*--------------------------------*- C++ -*----------------------------------*\
| =========                 |                                                 |
| \\      /  F ield         | OpenFOAM: The Open Source CFD Toolbox           |
|  \\    /   O peration     | Version:  2106                                  |
|   \\  /    A nd           | Website:  www.openfoam.com                      |
|    \\/     M anipulation  |                                                 |
\*---------------------------------------------------------------------------*/
FoamFile
{
    version     2.0;
    format      ascii;
    arch        "LSB;label=32;scalar=64";
    class       volScalarField;
    location    "0.085";
    object      p;
}
// * * * * * * * * * * * * * * * * * * * * * * * * * * * * * * * * * * * * * //

dimensions      [1 -1 -2 0 0 0 0];

internalField   nonuniform List<scalar> 
32768
(
448.73065
448.72987
448.70285
448.65065
448.57344
448.47059
448.34198
448.18755
448.00718
447.80068
447.56795
447.30891
447.02338
446.71111
446.37179
446.00511
445.61073
445.18825
444.73724
444.25724
443.74772
443.20812
442.63783
442.03618
441.40245
440.73585
440.03554
439.30062
438.53013
437.72297
436.87816
435.99421
435.0705
434.10445
433.0968
432.04298
430.94456
429.79927
428.59716
427.36179
426.04
424.70687
423.27593
421.79914
420.28221
418.65169
416.99275
415.26258
413.42591
411.54502
409.57897
407.51545
405.38817
403.15343
400.82403
398.42634
395.9174
393.27818
390.55224
387.74247
384.79849
381.71855
378.53542
375.23796
371.79819
368.23373
364.54512
360.70671
356.72901
352.61447
348.3535
343.94818
339.39357
334.69022
329.83342
324.80135
319.60434
314.27723
308.81866
303.20302
297.41441
291.45292
285.34546
279.12317
272.78777
266.32415
259.72191
252.98913
246.13357
239.17022
232.12934
225.00431
217.81201
210.58652
203.32719
196.06218
188.8288
181.57223
174.22408
166.84606
159.56073
152.42369
145.46041
138.74683
132.421
126.58353
121.05066
115.1844
109.46177
104.33302
98.995974
93.805066
89.301104
85.316228
81.397759
77.436445
73.686317
69.944297
66.034316
62.369533
58.754837
54.805132
50.53084
46.019704
41.17323
36.25628
32.278506
29.124583
24.237162
17.246258
22.716357
1.0998862
0.65590554
0.73342856
0.66761395
0.55716903
0.48312902
0.42965953
0.38853824
0.35558078
0.32832302
0.30523246
0.28530939
0.26786907
0.25242926
0.23863285
0.22620993
0.21495125
0.20469031
0.19529306
0.18665058
0.17867204
0.17128246
0.16441774
0.15802326
0.15205222
0.14646416
0.14122383
0.13630036
0.13166663
0.12729875
0.12317642
0.11927593
0.11558372
0.11208504
0.1087651
0.10561159
0.10261457
0.099759645
0.097039962
0.0944472
0.091973196
0.089610409
0.087352398
0.085192981
0.08312646
0.081147617
0.079251624
0.077433989
0.075690545
0.074017415
0.072410991
0.070867905
0.069385016
0.067959394
0.066588303
0.065269155
0.063999692
0.062777314
0.061600005
0.060465864
0.059373037
0.058319738
0.057304293
0.056325131
0.055380766
0.054469797
0.053590899
0.052742836
0.051924419
0.051134523
0.050372099
0.049636145
0.048925763
0.048239864
0.047577686
0.046938453
0.0463214
0.045725784
0.0451509
0.044596082
0.044060689
0.043544121
0.043045773
0.042565212
0.042101828
0.041655235
0.0412249
0.040810409
0.040411369
0.040026897
0.039657003
0.039301661
0.038960155
0.038632155
0.038317386
0.038015558
0.037726381
0.037449586
0.037184915
0.03693213
0.036690994
0.036461336
0.036242911
0.036035524
0.035838997
0.03565316
0.035477852
0.035312876
0.035158118
0.035013438
0.03487871
0.034753967
0.034638956
0.034533581
0.03443777
0.034351448
0.034274558
0.034206966
0.034148695
0.034099688
0.034059923
0.034029446
0.034008205
0.033996019
0.03399311
439.97745
439.97628
439.94965
439.89782
439.82043
439.71737
439.58857
439.43396
439.25343
439.04689
438.81418
438.55501
438.2692
437.95654
437.61678
437.2496
436.85468
436.43161
435.97998
435.49932
434.9891
434.44877
433.87771
433.27525
432.64067
431.97318
431.27195
430.53604
429.76453
428.95624
428.11037
427.22503
426.30033
425.33239
424.32405
423.26761
422.16914
421.02022
419.81941
418.57767
417.25884
415.91895
414.48486
413.01446
411.48341
409.85441
408.20545
406.44752
404.61855
402.74906
400.75796
398.69164
396.57345
394.32859
391.99211
389.59013
387.06944
384.43274
381.71136
378.87894
375.91588
372.84711
369.66554
366.34714
362.89362
359.32662
355.62829
351.77493
347.78816
343.67091
339.40528
334.98236
330.40695
325.69241
320.82472
315.78299
310.58278
305.24485
299.76301
294.12522
288.32108
282.34875
276.23223
269.99529
263.64315
257.16819
250.56268
243.82166
236.95558
229.98497
222.9256
215.79675
208.60828
201.37631
194.11545
186.8407
179.57818
172.31011
165.00515
157.6897
150.42769
143.29064
136.34765
129.67186
123.32229
117.31534
111.54642
105.74058
100.13969
94.867158
89.79375
85.015891
80.593404
76.556438
72.438128
68.518331
65.117378
61.53645
57.59986
53.724952
50.085251
46.264354
41.962922
37.505958
32.81898
27.930758
22.698546
17.390447
15.865499
24.310221
3.2126149
0.42141231
0.53380733
0.6179131
0.56531001
0.50155383
0.4490726
0.40568478
0.36965386
0.33950018
0.31388348
0.29182302
0.27258289
0.25561668
0.24052151
0.22697733
0.21474604
0.20363906
0.19349772
0.18419578
0.17563127
0.16771499
0.1603777
0.15355814
0.14720164
0.14126273
0.13570214
0.13048545
0.12558243
0.12096622
0.11661314
0.11250151
0.10861563
0.10493582
0.10144687
0.098135771
0.094989876
0.09199701
0.089149726
0.086436453
0.083848976
0.081380163
0.07902182
0.076767487
0.074611477
0.072548108
0.070572153
0.068678805
0.066863599
0.065122385
0.063451306
0.061846769
0.060305424
0.058824146
0.057400013
0.056030304
0.054712465
0.053444161
0.052222818
0.05104651
0.049913342
0.048821413
0.04776894
0.04675426
0.045775809
0.044832109
0.043921763
0.043043444
0.042195924
0.041378015
0.040588595
0.039826619
0.039091099
0.038381102
0.037695546
0.037033704
0.036394805
0.035778063
0.035182734
0.034608119
0.034053553
0.0335184
0.033002052
0.032503939
0.032023564
0.031560369
0.031113932
0.030683723
0.030269258
0.029870096
0.029486172
0.02911686
0.028761409
0.02841988
0.028091953
0.02777728
0.027475543
0.027186455
0.026909745
0.026645158
0.026392452
0.026151408
0.025921796
0.025703427
0.025496097
0.025299624
0.025113841
0.024938574
0.024773646
0.024618942
0.024474351
0.024339762
0.024214955
0.024099922
0.023994552
0.023898747
0.023812424
0.023735505
0.023667979
0.023609742
0.023560758
0.023521007
0.023490451
0.023469099
0.02345683
0.023453918
431.20905
431.20763
431.18095
431.12902
431.05137
430.94796
430.81877
430.66373
430.48273
430.27569
430.04248
429.7829
429.49666
429.18354
428.84326
428.47552
428.07998
427.65624
427.20387
426.72239
426.21129
425.67
425.0979
424.49431
423.85852
423.18973
422.48711
421.74971
420.97662
420.16663
419.31899
418.43165
417.50504
416.53459
415.52448
414.46453
413.36517
412.21103
411.01083
409.7621
408.44397
407.09744
405.65848
404.18818
402.6459
401.02047
399.36295
397.59257
395.77449
393.88727
391.88323
389.83087
387.69053
385.43052
383.10555
380.68557
378.14257
375.51185
372.78466
369.92191
366.95038
363.88355
360.68127
357.34261
353.87912
350.29723
346.5781
342.70743
338.70642
334.57304
330.28401
325.83373
321.24172
316.51
311.61486
306.55208
301.33622
295.97219
290.45566
284.78294
278.94678
272.95227
266.82167
260.56915
254.19884
247.70059
241.06215
234.2848
227.39041
220.40322
213.34247
206.22801
199.053
191.82451
184.55192
177.24614
169.95608
162.68969
155.41697
148.14486
140.91272
133.80047
126.88279
120.19484
113.78158
107.66705
101.79127
96.050106
90.516926
85.275187
80.317878
75.707047
71.408052
67.537682
63.661237
59.834726
56.184049
52.738696
49.18199
45.626318
41.913608
38.115863
33.963064
29.617327
25.206462
20.340874
11.901673
5.5130048
19.804357
2.2101576
0.073751938
0.34770688
0.45903008
0.48392974
0.46995798
0.43930451
0.40532879
0.37302544
0.34386585
0.31804888
0.29526134
0.2750958
0.25718177
0.24118243
0.22680221
0.21380452
0.20199515
0.19121775
0.18134107
0.17225573
0.16386861
0.15610424
0.1488927
0.14217668
0.13590927
0.13004764
0.12455411
0.11939582
0.11454393
0.10997273
0.10565978
0.10158376
0.097728342
0.094076641
0.09061308
0.08732437
0.084198778
0.081224921
0.078393964
0.075695768
0.073122115
0.070665124
0.068318338
0.066075214
0.063929093
0.061874635
0.059906903
0.058021156
0.056212968
0.054478244
0.052813178
0.05121422
0.049678054
0.048201587
0.046781926
0.045416352
0.044102301
0.04283732
0.041619548
0.040446646
0.039316537
0.038227424
0.037177584
0.036165374
0.035189249
0.034247733
0.033339436
0.032463022
0.031617338
0.030801157
0.030013355
0.029252877
0.028518719
0.027809915
0.027125766
0.02646526
0.025827554
0.025211914
0.024617623
0.024043991
0.023490359
0.022956106
0.022440657
0.021943469
0.021463816
0.02100134
0.020555489
0.020125851
0.019711979
0.019313438
0.018929921
0.018560935
0.018206139
0.017865161
0.017537702
0.017223455
0.01692212
0.016633414
0.016357065
0.016092823
0.015840459
0.015599734
0.015370397
0.015152267
0.014945178
0.014748935
0.014563352
0.014388266
0.014223555
0.014069056
0.013924637
0.013790176
0.013665546
0.013550653
0.013445407
0.013349715
0.013263489
0.013186664
0.013119193
0.013061011
0.013012076
0.012972347
0.012941794
0.012920407
0.012908146
0.012905298
422.42551
422.42383
422.39693
422.3447
422.26665
422.16273
422.03295
421.87722
421.69546
421.48757
421.25339
420.99273
420.70535
420.39099
420.04938
419.68019
419.28308
418.85767
418.40351
417.92013
417.40702
416.8636
416.28924
415.68329
415.04499
414.37356
413.66816
412.92783
412.15164
411.33838
410.48728
409.59629
408.66581
407.69128
406.67683
405.61222
404.50837
403.3483
402.14459
400.88731
399.56707
398.21041
396.76455
395.29067
393.73437
392.10452
390.4403
388.65448
386.83146
384.93504
382.91313
380.85432
378.70088
376.42435
374.08843
371.65307
369.09012
366.44667
363.70399
360.81506
357.82554
354.7443
351.51556
348.14936
344.66458
341.05821
337.31192
333.41427
329.3831
325.21349
320.88586
316.40509
311.78813
307.0226
302.09
296.99378
291.73856
286.32425
280.75527
275.03789
269.16731
263.14716
256.99143
250.70335
244.28029
237.72188
231.02846
224.20909
217.29121
210.29564
203.23648
196.12731
188.96713
181.75153
174.4688
167.13683
159.80771
152.50597
145.24432
138.0451
130.90623
123.85159
116.93981
110.22594
103.77343
97.594883
91.641299
85.910755
80.45252
75.324714
70.542566
66.03031
61.885058
58.282894
54.801479
51.178544
47.792044
44.487404
40.923128
37.384549
33.815821
29.950358
26.029959
21.898758
16.670154
7.1928036
8.7180511
22.546835
0.99176396
0.03905091
0.12030179
0.26394936
0.33986482
0.37871154
0.38614614
0.37535566
0.35647077
0.33480646
0.31299179
0.29223551
0.27299534
0.25536357
0.23929561
0.22466854
0.21132549
0.19913627
0.18796508
0.17768996
0.16822047
0.15947018
0.1513607
0.14382904
0.1368139
0.13026471
0.12414042
0.11840235
0.11301609
0.10795146
0.10318174
0.098683123
0.094434365
0.090416436
0.086611669
0.083004732
0.079581829
0.076329839
0.073237283
0.070294662
0.067490933
0.064817859
0.062266802
0.059829853
0.057501631
0.055276067
0.053146047
0.051106184
0.049152013
0.047278842
0.045482298
0.043758361
0.0421033
0.040513633
0.038986108
0.037517685
0.036105517
0.034746933
0.033439442
0.032180673
0.030968594
0.029800992
0.028675905
0.027591517
0.026546114
0.02553807
0.024565879
0.023628075
0.022723266
0.021850123
0.021007512
0.020194279
0.019409236
0.01865136
0.017919683
0.01721326
0.01653129
0.015872842
0.015237111
0.014623349
0.014030841
0.013458901
0.01290687
0.012374121
0.011860055
0.011364115
0.010885824
0.010424668
0.0099800203
0.009551516
0.0091387463
0.0087412875
0.008358638
0.0079904699
0.0076365197
0.0072963931
0.0069697274
0.0066562238
0.0063555922
0.006067549
0.005791825
0.0055281662
0.0052763334
0.0050361086
0.0048072874
0.0045896659
0.0043830328
0.0041872077
0.0040020199
0.0038273058
0.0036629334
0.0035087456
0.0033646136
0.0032304254
0.0031060551
0.0029914115
0.0028863863
0.0027908871
0.0027048459
0.002628185
0.002560836
0.0025027568
0.0024539048
0.002414237
0.0023837295
0.0023623813
0.00235019
0.0023474583
413.62693
413.62497
413.59772
413.54503
413.46639
413.36178
413.23118
413.07452
412.89173
412.68266
412.44718
412.18509
411.89617
411.58016
411.23677
410.86569
410.46655
410.03897
409.5825
409.09668
408.58098
408.03482
407.45757
406.84856
406.20705
405.53223
404.82324
404.07913
403.29895
402.48148
401.62591
400.73024
399.79471
398.81496
397.79484
396.72428
395.61431
394.44709
393.23741
391.97116
390.64512
389.27779
387.82439
386.34063
384.77165
383.13507
381.45568
379.65873
377.82679
375.91114
373.8727
371.80705
369.63369
367.33141
364.98361
362.53548
359.94223
357.27476
354.51311
351.60032
348.58654
345.47593
342.21442
338.81344
335.30277
331.66828
327.88493
323.94391
319.87237
315.66189
311.28357
306.76078
302.10836
297.29758
292.31347
287.16666
281.85743
276.3817
270.75493
264.98837
259.07029
253.00527
246.80193
240.45409
233.95639
227.32093
220.56762
213.71459
206.78439
199.78533
192.71598
185.57707
178.38389
171.15276
163.87754
156.55432
149.22042
141.93576
134.72027
127.57317
120.49157
113.50123
106.63049
99.887111
93.342885
87.074688
81.104791
75.448415
70.111496
65.127675
60.526659
56.300964
52.336746
48.725274
45.587857
42.340799
39.106958
35.934014
32.667077
29.284878
25.80156
22.121607
18.030115
11.410262
8.2989941
12.015625
3.4387931
0.017117799
-0.16165026
-0.0053276929
0.095573125
0.18456717
0.25551965
0.29793979
0.31408012
0.31517673
0.30715637
0.29425242
0.27916657
0.26344906
0.24797789
0.2332022
0.21929917
0.20632222
0.19426487
0.18308707
0.17272173
0.16310456
0.15417333
0.14586647
0.13812786
0.13090455
0.12415178
0.11783015
0.11190104
0.10633124
0.10109129
0.096154667
0.091497423
0.08709825
0.082937224
0.078998778
0.075264798
0.071719766
0.068352578
0.065152316
0.062106496
0.059204977
0.056438824
0.053799367
0.05127942
0.048872395
0.046571145
0.044369101
0.04226115
0.040242153
0.038307136
0.036451584
0.03467133
0.032962491
0.031321441
0.029744794
0.028229382
0.026772242
0.025370601
0.024021855
0.022723569
0.021473447
0.020269374
0.019109295
0.017991288
0.016913548
0.01587439
0.014872195
0.013905561
0.01297302
0.012073188
0.011204834
0.010366584
0.0095573462
0.008776154
0.0080219627
0.0072937848
0.0065906907
0.0059118196
0.0052563183
0.0046233942
0.0040123006
0.0034223245
0.0028527859
0.0023030227
0.0017724222
0.0012603962
0.00076639057
0.00028994985
-0.00016946008
-0.00061240834
-0.0010393369
-0.0014506372
-0.0018467286
-0.002227982
-0.0025947857
-0.0029474864
-0.0032864525
-0.0036120062
-0.0039244528
-0.0042240845
-0.0045111818
-0.0047860104
-0.0050488225
-0.0052998562
-0.0055393264
-0.0057674292
-0.0059843722
-0.0061903682
-0.0063855951
-0.0065702204
-0.0067444041
-0.0069082901
-0.0070620203
-0.0072057231
-0.0073395194
-0.0074635149
-0.0075778254
-0.0076825514
-0.0077777669
-0.0078635587
-0.0079399928
-0.0080071414
-0.008065062
-0.0081137845
-0.0081533436
-0.0081837674
-0.0082050395
-0.0082171608
-0.0082198205
404.81359
404.8113
404.78358
404.73028
404.6509
404.5454
404.41377
404.25594
404.07183
403.8613
403.6242
403.36034
403.06949
402.75141
402.40579
402.03232
401.63063
401.20034
400.74099
400.2521
399.73315
399.18355
398.60267
397.98982
397.34425
396.66514
395.95163
395.20275
394.41753
393.59475
392.73352
391.83197
390.89006
389.90382
388.8764
387.79866
386.68043
385.50491
384.28671
383.01002
381.67596
380.2957
378.83297
377.33637
375.75209
374.10643
372.40819
370.59821
368.7528
366.81197
364.76108
362.67767
360.47569
358.15659
355.78768
353.30904
350.69245
347.99966
345.20225
342.26056
339.22214
336.07178
332.76577
329.32879
325.78908
322.11016
318.27724
314.28631
310.16296
305.90348
301.47099
296.89533
292.18586
287.31152
282.2566
277.04254
271.67441
266.13775
260.44647
254.61454
248.62581
242.48401
236.2062
229.77549
223.18865
216.47643
209.66661
202.77733
195.83229
188.82182
181.71981
174.52374
167.25974
159.97589
152.69681
145.4165
138.13823
130.89179
123.72416
116.66559
109.67603
102.71198
95.80218
89.025744
82.464776
76.165106
70.152422
64.502819
59.240998
54.394206
49.924404
45.981068
42.557773
39.415603
36.441944
33.4089
30.4223
27.76743
24.733829
21.763532
17.39918
12.130473
8.3797322
9.3698523
9.8240291
0.28716803
-0.36313096
-0.28365401
-0.15410222
-0.041376683
0.048655644
0.12747126
0.19131327
0.23023642
0.25160603
0.26006411
0.25960027
0.25349348
0.24410338
0.23299555
0.22118513
0.20928983
0.19765533
0.18647804
0.17586059
0.16583647
0.1564109
0.14756944
0.13927908
0.13150553
0.12421469
0.11737143
0.11094383
0.10490044
0.099211584
0.093850566
0.088792969
0.084016367
0.079500199
0.075225842
0.071176019
0.06733568
0.063689386
0.06022451
0.056929528
0.053793116
0.05080515
0.047956537
0.045238685
0.042643999
0.040164858
0.037794625
0.035526913
0.03335548
0.03127594
0.029283694
0.027373187
0.025540181
0.023780786
0.022091285
0.020468191
0.018908239
0.017408371
0.01596572
0.014577596
0.01324148
0.011955007
0.010715951
0.0095222294
0.0083718599
0.0072629735
0.0061938018
0.0051626939
0.0041680385
0.0032085017
0.0022827401
0.0013892671
0.00052689795
-0.00030571138
-0.0011096219
-0.001885771
-0.0026351903
-0.0033588549
-0.0040576763
-0.0047325115
-0.0053841848
-0.0060134767
-0.0066211236
-0.0072078286
-0.007774252
-0.0083210787
-0.0088488809
-0.0093582235
-0.0098496698
-0.010323758
-0.010781013
-0.011221804
-0.011646614
-0.012055934
-0.012450156
-0.012829643
-0.013194759
-0.01354587
-0.013883323
-0.014207437
-0.014518517
-0.014816853
-0.015102722
-0.015376385
-0.015638088
-0.015888061
-0.016126534
-0.016353708
-0.016569798
-0.016774976
-0.016969428
-0.017153324
-0.017326823
-0.017490069
-0.0176432
-0.017786344
-0.01791962
-0.018043141
-0.018157013
-0.018261334
-0.018356195
-0.01844166
-0.018517814
-0.018584715
-0.018642411
-0.018690947
-0.01873036
-0.01876066
-0.018781844
-0.018793899
-0.018796522
395.98589
395.9832
395.95489
395.90085
395.82056
395.71399
395.58112
395.42188
395.23619
395.0239
394.78486
394.51888
394.22573
393.90516
393.55687
393.18055
392.77581
392.34227
391.87946
391.38691
390.86408
390.31036
389.72514
389.10769
388.45726
387.77304
387.05412
386.29954
385.50829
384.67917
383.81121
382.90263
381.95312
380.95914
379.92305
378.83674
377.70864
376.52329
375.29463
374.006
372.66148
371.26683
369.79232
368.2804
366.67919
365.02096
363.30125
361.47589
359.61278
357.64352
355.57772
353.47203
351.23736
348.89553
346.50393
343.9899
341.34211
338.61626
335.78179
332.81083
329.73094
326.52837
323.18141
319.70684
316.12298
312.38994
308.49207
304.44278
300.27061
295.94752
291.44754
286.81467
282.02456
277.06186
271.93015
266.6402
261.20026
255.5965
249.83306
243.90879
237.81774
231.56917
225.1879
218.66973
212.00108
205.22261
198.36939
191.42414
184.39964
177.30982
170.13522
162.87579
155.56756
148.27231
141.01477
133.79268
126.60852
119.45182
112.33037
105.29305
98.327626
91.408625
84.504207
77.64876
70.991785
64.666222
58.725235
53.249628
48.081141
43.193896
38.740403
35.027509
32.141983
29.267475
26.383305
24.965165
23.511871
19.680419
16.236223
12.899974
8.2869131
8.325302
9.0576185
3.991255
0.54114188
-0.77613255
-0.44138828
-0.25581683
-0.15314061
-0.063428844
0.015628858
0.084313887
0.13722536
0.17420691
0.19772955
0.21039632
0.21498005
0.21390682
0.2090857
0.20193107
0.19343779
0.18426237
0.17485845
0.16551394
0.15640009
0.14761168
0.13920952
0.1312203
0.12364343
0.11647132
0.10969082
0.10328382
0.097230391
0.091509859
0.086101464
0.080985203
0.076142131
0.07155436
0.067205143
0.063078786
0.059160978
0.055437341
0.051896376
0.04852723
0.045318215
0.0422592
0.039341649
0.036556898
0.033897304
0.031355812
0.028925238
0.026599129
0.024372024
0.022238556
0.020194061
0.018233254
0.016351992
0.014546201
0.012812061
0.011146006
0.0095447007
0.0080050209
0.0065240357
0.0050989934
0.0037273108
0.0024065618
0.0011344661
-9.112512e-05
-0.0012722317
-0.0024107661
-0.0035085358
-0.0045672444
-0.0055884999
-0.0065738245
-0.0075246369
-0.0084423117
-0.0093281451
-0.010183364
-0.011009085
-0.011806343
-0.012576276
-0.013319855
-0.014037999
-0.014731594
-0.015401482
-0.01604847
-0.016673322
-0.017276758
-0.017859458
-0.018422079
-0.018965276
-0.019489666
-0.019995763
-0.020484112
-0.020955285
-0.021409733
-0.02184787
-0.022270148
-0.022677038
-0.023068952
-0.023446262
-0.023809377
-0.024158544
-0.024494134
-0.024816481
-0.025125886
-0.025422632
-0.025706991
-0.025979224
-0.026239573
-0.026488268
-0.026725523
-0.026951563
-0.02716657
-0.027370732
-0.027564229
-0.027747228
-0.027919885
-0.028082343
-0.028234737
-0.028377194
-0.028509835
-0.02863277
-0.028746105
-0.028849935
-0.028944347
-0.029029425
-0.029105228
-0.029171816
-0.029229238
-0.029277544
-0.02931677
-0.029346922
-0.029367999
-0.029379986
-0.029382587
387.14428
387.14113
387.11214
387.05721
386.97586
386.86803
386.73371
386.57283
386.38529
386.17095
385.92966
385.66122
385.3654
385.04194
384.69055
384.3109
383.90261
383.46529
382.99846
382.50165
381.97429
381.4158
380.82551
380.20272
379.54665
378.85647
378.13127
377.37006
376.57181
375.73533
374.85955
373.94278
372.98448
371.98147
370.93534
369.83908
368.69944
367.50291
366.2616
364.95963
363.60236
362.19128
360.70328
359.17291
357.55318
355.87954
354.13419
352.29307
350.40653
348.40492
346.32573
344.18866
341.91473
339.55574
337.1316
334.57042
331.89278
329.13234
326.25335
323.2383
320.11292
316.8556
313.46483
309.94548
306.29285
302.49957
298.54069
294.42136
290.1859
285.79596
281.21287
276.49828
271.62126
266.55805
261.33645
255.9683
250.44216
244.74417
238.88358
232.84069
226.62524
220.26667
213.76904
207.14621
200.3952
193.53527
186.59585
179.56777
172.43179
165.20693
157.9302
150.61625
143.3062
136.04207
128.81896
121.64833
114.53005
107.44357
100.40907
93.460064
86.525083
79.615943
72.684733
65.783299
59.080899
52.597013
46.482188
40.960874
35.9717
31.353901
26.784588
23.439909
21.109831
18.894593
17.07852
15.635251
14.347125
11.071373
8.4319672
9.6895296
5.8990602
2.3331744
0.53548105
0.15075657
-0.22426362
-0.39274476
-0.33071195
-0.23153877
-0.14942312
-0.075131454
-0.0084060273
0.048125667
0.093527962
0.1276006
0.15122372
0.16600291
0.17377197
0.17626376
0.17495655
0.17103586
0.16539158
0.15868556
0.15138563
0.14380836
0.13618047
0.12864559
0.12130181
0.11420439
0.10738479
0.10085968
0.094633905
0.088704564
0.083064141
0.077702765
0.072607869
0.067766383
0.063165174
0.058791123
0.054631445
0.050673722
0.046906352
0.043317734
0.039898323
0.036638297
0.033527864
0.03055829
0.027721852
0.025011019
0.022418891
0.019938217
0.017563299
0.015289395
0.013110098
0.011020502
0.0090160248
0.0070923954
0.0052455197
0.0034715591
0.0017669346
0.00012828862
-0.0014475302
-0.0029634827
-0.0044223545
-0.0058267666
-0.0071791816
-0.0084819157
-0.0097371507
-0.010946947
-0.012113243
-0.013237874
-0.014322577
-0.015368983
-0.016378657
-0.017353017
-0.01829358
-0.019201726
-0.020078516
-0.02092517
-0.021742726
-0.022532324
-0.023295
-0.024031705
-0.024743342
-0.025430777
-0.026094834
-0.026736296
-0.027355907
-0.027954378
-0.028532384
-0.029090562
-0.029629515
-0.030149794
-0.030652027
-0.031136722
-0.03160438
-0.03205548
-0.032490469
-0.032909829
-0.033313934
-0.033703178
-0.034077946
-0.034438566
-0.034785411
-0.035118789
-0.035439046
-0.035746469
-0.036041334
-0.036323909
-0.036594451
-0.0368532
-0.037100382
-0.037336209
-0.037560889
-0.037774613
-0.03797757
-0.038169934
-0.03835187
-0.038523529
-0.038685052
-0.038836573
-0.038978218
-0.039110107
-0.039232349
-0.039345047
-0.039448295
-0.03954218
-0.039626785
-0.03970217
-0.039768385
-0.03982549
-0.039873529
-0.03991253
-0.039942515
-0.039963463
-0.039975377
-0.039977961
378.2893
378.28562
378.25585
378.19991
378.11734
378.00807
377.8721
377.70935
377.5197
377.30304
377.05918
376.78794
376.48908
376.16234
375.80742
375.42399
375.01166
374.57003
374.09864
373.59697
373.06447
372.50053
371.9045
371.27563
370.61316
369.91621
369.18387
368.41514
367.60895
366.76409
365.87944
364.95338
363.98512
362.97182
361.91439
360.80674
359.65421
358.44474
357.18929
355.87197
354.50021
353.07071
351.56674
350.01651
348.37494
346.68364
344.91048
343.04922
341.13674
339.10175
337.00238
334.83005
332.51714
330.13264
327.67103
325.0595
322.34723
319.54735
316.61418
313.55205
310.37598
307.05532
303.61188
300.04279
296.31333
292.44798
288.41327
284.22898
279.91741
275.4422
270.76937
265.95245
260.97347
255.80938
250.48915
245.02605
239.39398
233.57421
227.58604
221.40942
215.05496
208.57841
201.96894
195.23097
188.36317
181.38119
174.30427
167.12594
159.85298
152.51354
145.15752
137.80137
130.48755
123.23712
116.02002
108.88151
101.81559
94.786003
87.892445
81.11358
74.243523
67.405084
60.412584
53.341428
46.548547
39.908952
33.851131
28.241644
23.150792
18.172856
13.111862
10.507563
10.436593
8.7327286
7.6257841
7.1108067
9.2045774
7.9874169
3.3229623
0.37815749
-0.11980469
-0.013687361
-0.05399264
-0.068188964
-0.18303831
-0.25590588
-0.24506464
-0.19549666
-0.13824967
-0.080768002
-0.027801197
0.018782691
0.057664485
0.088245966
0.11085377
0.12638709
0.13600498
0.14090832
0.14220212
0.14083835
0.13757724
0.13301583
0.12760059
0.12166976
0.1154627
0.1091559
0.10286586
0.096668825
0.090625094
0.084771275
0.0791277
0.073702892
0.068502486
0.063527372
0.058771565
0.054228782
0.049891727
0.045752074
0.041801073
0.038029726
0.034429461
0.030990698
0.027705785
0.024567831
0.021567982
0.018698448
0.015952692
0.013324926
0.010808347
0.0083973062
0.0060867729
0.0038708235
0.001745
-0.00029540196
-0.0022544786
-0.0041357987
-0.0059435891
-0.0076813734
-0.0093524315
-0.010959888
-0.012506693
-0.013995622
-0.015429293
-0.016810177
-0.018140604
-0.019422773
-0.020658756
-0.021850514
-0.022999878
-0.024108601
-0.025178354
-0.026210695
-0.027207146
-0.028169049
-0.029097956
-0.029995019
-0.030861362
-0.03169815
-0.032506405
-0.0332872
-0.034041542
-0.034770361
-0.035474535
-0.036154901
-0.036812259
-0.037447368
-0.038060954
-0.038653708
-0.039226285
-0.039779317
-0.040313345
-0.040828971
-0.041326787
-0.041807279
-0.042270937
-0.042718211
-0.043149618
-0.043565543
-0.043966387
-0.044352526
-0.044724315
-0.045082095
-0.045426274
-0.045757151
-0.046075019
-0.046380162
-0.04667286
-0.046953379
-0.047221971
-0.047478874
-0.047724308
-0.047958482
-0.048181597
-0.048393846
-0.048595412
-0.048786469
-0.048967178
-0.049137685
-0.049298129
-0.049448643
-0.049589352
-0.049720375
-0.049841816
-0.049953778
-0.050056354
-0.050149636
-0.050233687
-0.050308583
-0.050374376
-0.050431112
-0.050478837
-0.050517588
-0.050547371
-0.050568185
-0.05058002
-0.050582586
369.42156
369.41729
369.38665
369.32958
369.24563
369.13475
368.99693
368.83208
368.64008
368.42081
368.17408
367.8997
367.59745
367.26703
366.90817
366.52051
366.10367
365.65722
365.18071
364.67362
364.13537
363.56536
362.96289
362.32724
361.65761
360.95311
360.2128
359.43566
358.62061
357.76641
356.87188
355.93543
354.95609
353.93127
352.86129
351.74088
350.57401
349.35021
348.0787
346.74473
345.35598
343.9067
342.38442
340.81164
339.14758
337.43347
335.63158
333.74758
331.8031
329.73569
327.61209
325.39474
323.04576
320.63194
318.11989
315.46085
312.70629
309.86242
306.86993
303.75005
300.51604
297.13568
293.63047
289.9948
286.17733
282.2339
278.12742
273.86461
269.46429
264.88083
260.10457
255.18232
250.09543
244.82199
239.38745
233.80352
228.03878
222.07093
215.93713
209.61869
203.13385
196.53001
189.76049
182.87062
175.85789
168.70494
161.44466
154.10099
146.69495
139.24773
131.81846
124.39128
117.02379
109.73982
102.4537
95.325801
88.34453
81.392244
74.654181
68.095181
61.434215
54.729866
47.65417
40.479514
33.648142
26.548558
20.660527
15.102818
10.388002
4.0752798
-0.16755062
-0.30002914
0.023452514
0.4473673
0.48718163
0.28041021
-0.25516924
-0.40219582
-0.30363663
-0.24428243
-0.18224852
-0.14217252
-0.12648881
-0.13487276
-0.17446262
-0.20332788
-0.19805966
-0.16897407
-0.12891183
-0.085876682
-0.043960825
-0.0056938693
0.027343534
0.05441033
0.075453872
0.090904457
0.10145007
0.10790117
0.11105905
0.11166044
0.11032885
0.10757496
0.1038148
0.099372407
0.094484513
0.089336554
0.084058143
0.078747063
0.073478458
0.068303233
0.063252587
0.058349256
0.053608749
0.049036162
0.044636252
0.040409521
0.0363536
0.032464604
0.028737668
0.025167205
0.021747285
0.018471262
0.015333901
0.012328518
0.0094486347
0.0066892232
0.0040443576
0.0015071891
-0.00092628083
-0.0032605956
-0.0055012919
-0.0076527788
-0.0097192326
-0.011704809
-0.013612871
-0.015447684
-0.017212279
-0.018909876
-0.020543581
-0.022116295
-0.023630747
-0.025089516
-0.026495046
-0.027849645
-0.029155496
-0.030414667
-0.031629102
-0.032800676
-0.03393108
-0.035021973
-0.036074975
-0.037091543
-0.038073179
-0.039021141
-0.039936829
-0.040821484
-0.041676097
-0.042501785
-0.043299616
-0.044070485
-0.044815452
-0.045535403
-0.046231178
-0.046903586
-0.047553395
-0.048181345
-0.04878814
-0.049374448
-0.049940904
-0.050488112
-0.051016625
-0.051527022
-0.052019832
-0.05249559
-0.052954748
-0.053397757
-0.053825059
-0.054237096
-0.054634227
-0.055016834
-0.055385247
-0.055739879
-0.056081056
-0.056409117
-0.056724284
-0.05702685
-0.057317098
-0.057595291
-0.057861679
-0.058116492
-0.058359949
-0.058592252
-0.058813599
-0.059024178
-0.059224172
-0.059413749
-0.059593068
-0.059762274
-0.059921496
-0.060070871
-0.060210522
-0.060340566
-0.0604611
-0.06057223
-0.06067405
-0.060766632
-0.060850072
-0.06092441
-0.060989718
-0.061046041
-0.061093416
-0.061131881
-0.061161447
-0.061182108
-0.061193856
-0.0611964
360.54174
360.53682
360.50522
360.44689
360.36143
360.24878
360.10891
359.94173
359.74714
359.52498
359.27509
358.99726
358.69125
358.35679
357.99356
357.60123
357.17941
356.72766
356.24551
355.73243
355.18785
354.61113
354.00158
353.35846
352.68093
351.96811
351.21904
350.43265
349.60784
348.74336
347.83796
346.89008
345.89857
344.86104
343.77733
342.64279
341.46031
340.22058
338.93159
337.5791
336.17175
334.70048
333.1582
331.56051
329.87182
328.13228
326.29898
324.38901
322.40982
320.30807
318.15373
315.89005
313.49999
311.05483
308.48295
305.77445
302.97887
300.07542
297.02009
293.83706
290.54275
287.09718
283.51609
279.79851
275.89956
271.86765
267.68327
263.32234
258.818
254.11815
249.23486
244.19559
238.98583
233.59338
228.02592
222.29201
216.36732