/*--------------------------------*- C++ -*----------------------------------*\
| =========                 |                                                 |
| \\      /  F ield         | OpenFOAM: The Open Source CFD Toolbox           |
|  \\    /   O peration     | Version:  2106                                  |
|   \\  /    A nd           | Website:  www.openfoam.com                      |
|    \\/     M anipulation  |                                                 |
\*---------------------------------------------------------------------------*/
FoamFile
{
    version     2.0;
    format      ascii;
    arch        "LSB;label=32;scalar=64";
    class       surfaceScalarField;
    location    "0.085";
    object      phi;
}
// * * * * * * * * * * * * * * * * * * * * * * * * * * * * * * * * * * * * * //

dimensions      [0 3 -1 0 0 0 0];

oriented        oriented;

internalField   nonuniform List<scalar> 
65152
(
3.0157248e-08
-3.0157248e-08
6.5655768e-08
-3.5498519e-08
1.0196545e-07
-3.6309685e-08
1.3856317e-07
-3.6597721e-08
1.7529774e-07
-3.6734567e-08
2.1215677e-07
-3.6859026e-08
2.491611e-07
-3.7004339e-08
2.8633671e-07
-3.7175608e-08
3.237118e-07
-3.7375083e-08
3.6131993e-07
-3.7608136e-08
3.9920337e-07
-3.7883441e-08
4.373951e-07
-3.8191724e-08
4.7591744e-07
-3.8522347e-08
5.1479302e-07
-3.8875571e-08
5.5404582e-07
-3.9252808e-08
5.9370137e-07
-3.9655551e-08
6.3378657e-07
-4.0085198e-08
6.7432954e-07
-4.0542968e-08
7.1535948e-07
-4.1029935e-08
7.5690654e-07
-4.1547066e-08
7.990018e-07
-4.2095254e-08
8.4167715e-07
-4.267535e-08
8.8496532e-07
-4.3288172e-08
9.2889983e-07
-4.3934515e-08
9.7351506e-07
-4.4615232e-08
1.018846e-06
-4.5330978e-08
1.0649289e-06
-4.6082879e-08
1.1117996e-06
-4.6870637e-08
1.1594974e-06
-4.7697891e-08
1.208055e-06
-4.8557523e-08
1.2575246e-06
-4.9469667e-08
1.3079137e-06
-5.0389026e-08
1.3593297e-06
-5.1416083e-08
1.4116799e-06
-5.2350103e-08
1.4652349e-06
-5.3555096e-08
1.5196949e-06
-5.4459947e-08
1.5754792e-06
-5.5784295e-08
1.6324937e-06
-5.7014537e-08
1.6900905e-06
-5.7596763e-08
1.7507751e-06
-6.0684652e-08
1.8094195e-06
-5.8644337e-08
1.8741456e-06
-6.4726086e-08
1.9352753e-06
-6.1129732e-08
2.0014398e-06
-6.6164542e-08
2.0683453e-06
-6.6905447e-08
2.1347545e-06
-6.6409202e-08
2.2057499e-06
-7.0995455e-08
2.2768646e-06
-7.111465e-08
2.3488065e-06
-7.1941907e-08
2.4243621e-06
-7.5555605e-08
2.5005726e-06
-7.6210513e-08
2.5781577e-06
-7.7585127e-08
2.6588688e-06
-8.0711011e-08
2.7404939e-06
-8.1625171e-08
2.823942e-06
-8.3448025e-08
2.9099117e-06
-8.5969756e-08
2.9978689e-06
-8.7957222e-08
3.087296e-06
-8.9427026e-08
3.17888e-06
-9.158401e-08
3.2727917e-06
-9.3911739e-08
3.3686792e-06
-9.5887452e-08
3.4667855e-06
-9.8106304e-08
3.5669679e-06
-1.0018241e-07
3.6689609e-06
-1.0199299e-07
3.773001e-06
-1.0404016e-07
3.8798603e-06
-1.0685927e-07
3.9889159e-06
-1.0905556e-07
4.099471e-06
-1.1055518e-07
4.2121688e-06
-1.1269777e-07
4.3271451e-06
-1.1497627e-07
4.4443028e-06
-1.1715774e-07
4.5635487e-06
-1.1924585e-07
4.6848214e-06
-1.2127272e-07
4.8084872e-06
-1.2366584e-07
4.9343661e-06
-1.2587885e-07
5.0615322e-06
-1.2716615e-07
5.1896665e-06
-1.2813427e-07
5.3193749e-06
-1.2970838e-07
5.4515013e-06
-1.3212644e-07
5.5865703e-06
-1.3506897e-07
5.7239395e-06
-1.3736918e-07
5.8619072e-06
-1.3796776e-07
5.9992109e-06
-1.3730364e-07
6.1358687e-06
-1.3665787e-07
6.2729857e-06
-1.3711695e-07
6.411793e-06
-1.3880726e-07
6.5524711e-06
-1.4067812e-07
6.6943624e-06
-1.4189136e-07
6.8359214e-06
-1.4155896e-07
6.9758639e-06
-1.3994246e-07
7.1135737e-06
-1.3770982e-07
7.2481303e-06
-1.3455663e-07
7.3797395e-06
-1.3160915e-07
7.5082313e-06
-1.2849188e-07
7.6332698e-06
-1.2503848e-07
7.7559798e-06
-1.2270993e-07
7.8779861e-06
-1.2200639e-07
7.9988659e-06
-1.2087972e-07
8.1156012e-06
-1.1673531e-07
8.223813e-06
-1.0821183e-07
8.3189166e-06
-9.5103605e-08
8.3984376e-06
-7.9521016e-08
8.464624e-06
-6.618641e-08
8.5238524e-06
-5.9228327e-08
8.5849253e-06
-6.107293e-08
8.6551705e-06
-7.0245226e-08
8.732754e-06
-7.7583499e-08
8.798739e-06
-6.598502e-08
8.8329476e-06
-3.4208533e-08
8.8378293e-06
-4.8817113e-09
8.8256101e-06
1.2219137e-08
8.8041212e-06
2.148889e-08
8.7782639e-06
2.5857371e-08
8.7527139e-06
2.5549966e-08
8.7324258e-06
2.0288075e-08
8.7209535e-06
1.1472292e-08
8.717294e-06
3.6595745e-09
8.7252371e-06
-7.9431314e-09
8.7439469e-06
-1.8709758e-08
8.7694743e-06
-2.5527409e-08
8.7968014e-06
-2.7327141e-08
8.8269296e-06
-3.0128151e-08
8.8639111e-06
-3.698159e-08
8.9081285e-06
-4.4217315e-08
8.9590694e-06
-5.0940911e-08
9.0269154e-06
-6.7846044e-08
9.1293559e-06
-1.0244047e-07
9.2650481e-06
-1.3569216e-07
9.4120718e-06
-1.4702378e-07
9.5234705e-06
-1.1139871e-07
9.5475136e-06
-2.4043008e-08
7.8152206e-06
1.7322929e-06
6.1585739e-06
1.6566468e-06
4.5463661e-06
1.6122078e-06
3.4470024e-06
1.0993637e-06
2.7865086e-06
6.6049381e-07
2.3592183e-06
4.272903e-07
2.06015e-06
2.9906826e-07
1.8366269e-06
2.235231e-07
1.6592262e-06
1.7740074e-07
1.5137289e-06
1.4549727e-07
1.3912239e-06
1.2250504e-07
1.2861418e-06
1.0508208e-07
1.1944776e-06
9.1664158e-08
1.1136553e-06
8.0822385e-08
1.0416377e-06
7.2017545e-08
9.7700055e-07
6.4637171e-08
9.1866187e-07
5.8338677e-08
8.6571865e-07
5.2943226e-08
8.1742896e-07
4.8289688e-08
7.7322478e-07
4.4204185e-08
7.3254041e-07
4.0684366e-08
6.9500784e-07
3.7532569e-08
6.6028705e-07
3.4720791e-08
6.2807312e-07
3.2213931e-08
5.9810715e-07
2.9965971e-08
5.7016673e-07
2.7940419e-08
5.4405787e-07
2.6108857e-08
5.1960993e-07
2.4447939e-08
4.9666758e-07
2.2942354e-08
4.7507637e-07
2.1591203e-08
4.5495311e-07
2.012326e-08
4.3583624e-07
1.9116874e-08
4.1777879e-07
1.8057451e-08
4.0074457e-07
1.7034223e-08
3.8460646e-07
1.6138107e-08
3.6927064e-07
1.533582e-08
3.5490921e-07
1.4361432e-08
3.4115536e-07
1.3753851e-08
3.2807629e-07
1.3079066e-08
3.1564156e-07
1.2434739e-08
3.0382475e-07
1.1816807e-08
2.9255853e-07
1.1266222e-08
2.8181425e-07
1.074428e-08
2.7155966e-07
1.0254589e-08
2.6176282e-07
9.7968369e-09
2.5239643e-07
9.3663933e-09
2.4343596e-07
8.9604676e-09
2.3485855e-07
8.5774084e-09
2.266427e-07
8.2158516e-09
2.1876821e-07
7.8744912e-09
2.1121616e-07
7.5520511e-09
2.0396886e-07
7.2472975e-09
1.9700977e-07
6.9590907e-09
1.9032328e-07
6.6864844e-09
1.8389429e-07
6.4289957e-09
1.7770582e-07
6.1884702e-09
1.7177445e-07
5.9313664e-09
1.6605653e-07
5.7179167e-09
1.6054094e-07
5.5155958e-09
1.5522359e-07
5.3173467e-09
1.5009668e-07
5.1269118e-09
1.451514e-07
4.9452815e-09
1.4037895e-07
4.7724457e-09
1.3577146e-07
4.6074873e-09
1.3132142e-07
4.450041e-09
1.2702111e-07
4.3003164e-09
1.2286231e-07
4.1588016e-09
1.1884016e-07
4.0221438e-09
1.1494887e-07
3.8912962e-09
1.1118198e-07
3.7668834e-09
1.0753324e-07
3.6487412e-09
1.0399725e-07
3.5359872e-09
1.005828e-07
3.4144504e-09
9.7265274e-08
3.317528e-09
9.4043137e-08
3.2221359e-09
9.0915543e-08
3.127593e-09
8.7879366e-08
3.0361767e-09
8.4930946e-08
2.9484202e-09
8.2066574e-08
2.8643712e-09
7.9282637e-08
2.7839368e-09
7.6575918e-08
2.7067187e-09
7.3943334e-08
2.6325846e-09
7.1374507e-08
2.5688277e-09
6.8877375e-08
2.4971325e-09
6.6437866e-08
2.43951e-09
6.4064414e-08
2.3734514e-09
6.1750189e-08
2.3142258e-09
5.949066e-08
2.2595281e-09
5.7308416e-08
2.1822449e-09
5.5158922e-08
2.149494e-09
5.3044004e-08
2.1149185e-09
5.0993393e-08
2.0506107e-09
4.8986176e-08
2.0072155e-09
4.7020597e-08
1.9655783e-09
4.5095756e-08
1.9248399e-09
4.3210196e-08
1.88556e-09
4.1362222e-08
1.847975e-09
3.9550105e-08
1.8121172e-09
3.7772179e-08
1.7779254e-09
3.6026542e-08
1.7456359e-09
3.4308546e-08
1.7179957e-09
3.262208e-08
1.6864665e-09
3.0963568e-08
1.6585118e-09
2.9330922e-08
1.6326457e-09
2.7722712e-08
1.6082102e-09
2.6138012e-08
1.5847001e-09
2.4577821e-08
1.5601912e-09
2.303607e-08
1.5417529e-09
2.1513389e-08
1.522682e-09
2.0009155e-08
1.5042351e-09
1.8514238e-08
1.4949173e-09
1.7041871e-08
1.472367e-09
1.5583129e-08
1.4587415e-09
1.4136595e-08
1.4465338e-09
1.2701635e-08
1.4349607e-09
1.1276173e-08
1.4254627e-09
9.8632792e-09
1.4128941e-09
8.4548568e-09
1.4084228e-09
7.0542341e-09
1.4006223e-09
5.659257e-09
1.3949761e-09
4.2710608e-09
1.388195e-09
2.9117587e-09
1.3593011e-09
1.6363362e-09
1.2754219e-09
5.8423858e-10
1.0520972e-09
5.84238e-10
3.2221676e-08
-6.2378925e-08
7.1951646e-08
-7.5228489e-08
1.1262798e-07
-7.6986021e-08
1.5342737e-07
-7.7397111e-08
1.9432624e-07
-7.7633437e-08
2.3534424e-07
-7.7877024e-08
2.7650491e-07
-7.8165012e-08
3.1783438e-07
-7.8505076e-08
3.5935847e-07
-7.8899174e-08
4.0109896e-07
-7.9348624e-08
4.4306739e-07
-7.9851872e-08
4.8527361e-07
-8.0397946e-08
5.2775029e-07
-8.0999022e-08
5.7053256e-07
-8.1657844e-08
6.1365448e-07
-8.2374723e-08
6.5714907e-07
-8.315014e-08
7.0104899e-07
-8.3985119e-08
7.4538691e-07
-8.4880891e-08
7.9019567e-07
-8.58387e-08
8.3550835e-07
-8.6859738e-08
8.8135827e-07
-8.7945184e-08
9.2777915e-07
-8.9096226e-08
9.7480507e-07
-9.0314094e-08
1.0224706e-06
-9.1600045e-08
1.0708108e-06
-9.295543e-08
1.1198613e-06
-9.4381432e-08
1.169658e-06
-9.5879653e-08
1.2202382e-06
-9.7450765e-08
1.2716383e-06
-9.9098056e-08
1.3238982e-06
-1.0081744e-07
1.3770522e-06
-1.0262362e-07
1.4311487e-06
-1.0448556e-07
1.4862072e-06
-1.0647453e-07
1.5423091e-06
-1.0845203e-07
1.5994135e-06
-1.1065951e-07
1.6577167e-06
-1.1276318e-07
1.716967e-06
-1.150345e-07
1.7777545e-06
-1.1780207e-07
1.8391011e-06
-1.1894342e-07
1.9029106e-06
-1.2449408e-07
1.9660418e-06
-1.2177557e-07
2.0335941e-06
-1.3227836e-07
2.0985505e-06
-1.2608613e-07
2.1692081e-06
-1.3682221e-07
2.2378566e-06
-1.3555392e-07
2.3096086e-06
-1.3816123e-07
2.3836799e-06
-1.4506668e-07
2.4571709e-06
-1.4460573e-07
2.5339103e-06
-1.4868123e-07
2.6128775e-06
-1.5452278e-07
2.69172e-06
-1.5505307e-07
2.7730984e-06
-1.5896352e-07
2.8575914e-06
-1.6520396e-07
2.9425656e-06
-1.6659938e-07
3.0292676e-06
-1.7015004e-07
3.1181235e-06
-1.7482573e-07
3.2100309e-06
-1.7986457e-07
3.3033828e-06
-1.8277897e-07
3.3976641e-06
-1.8586526e-07
3.494245e-06
-1.9049261e-07
3.59458e-06
-1.962225e-07
3.6963656e-06
-1.998919e-07
3.7988347e-06
-2.0265152e-07
3.904247e-06
-2.0740526e-07
4.0125592e-06
-2.1235237e-07
4.1231511e-06
-2.174512e-07
4.23504e-06
-2.2094441e-07
4.3485139e-06
-2.2402911e-07
4.4651732e-06
-2.2935704e-07
4.5845589e-06
-2.3436196e-07
4.7055161e-06
-2.3811498e-07
4.828225e-06
-2.4195473e-07
4.9533317e-06
-2.4637946e-07
5.0808144e-06
-2.5114855e-07
5.2102999e-06
-2.5536432e-07
5.3409125e-06
-2.5777876e-07
5.4723873e-06
-2.5960911e-07
5.6062256e-06
-2.635466e-07
5.744006e-06
-2.6990683e-07
5.8854957e-06
-2.7655868e-07
6.0283272e-06
-2.8020075e-07
6.1696545e-06
-2.7929504e-07
6.3087436e-06
-2.7639268e-07
6.4478532e-06
-2.7576754e-07
6.5902434e-06
-2.7950711e-07
6.7369072e-06
-2.8547105e-07
6.8866858e-06
-2.904567e-07
7.0372492e-06
-2.9245485e-07
7.1862644e-06
-2.9057416e-07
7.33257e-06
-2.8624803e-07
7.4759527e-06
-2.8109249e-07
7.6166986e-06
-2.753026e-07
7.7548963e-06
-2.6980677e-07
7.8898544e-06
-2.6345004e-07
8.0223377e-06
-2.5752177e-07
8.155676e-06
-2.5604823e-07
8.2929513e-06
-2.5928165e-07
8.433111e-06
-2.610395e-07
8.569518e-06
-2.5314228e-07
8.6920826e-06
-2.3077642e-07
8.7930002e-06
-1.9602119e-07
8.8732205e-06
-1.5974135e-07
8.942389e-06
-1.3535486e-07
9.0124149e-06
-1.2925422e-07
9.092388e-06
-1.4104612e-07
9.1855497e-06
-1.6340693e-07
9.2875026e-06
-1.7953639e-07
9.3884599e-06
-1.6694231e-07
9.4727224e-06
-1.1847103e-07
9.5224045e-06
-5.4563798e-08
9.5344175e-06
2.0620015e-10
9.5220596e-06
3.3846752e-08
9.5017789e-06
4.6138055e-08
9.484218e-06
4.3110899e-08
9.4797344e-06
2.47716e-08
9.4959833e-06
-4.7766052e-09
9.5302939e-06
-3.0650993e-08
9.572469e-06
-5.0118235e-08
9.6143263e-06
-6.0567089e-08
9.6469175e-06
-5.8118558e-08
9.6692483e-06
-4.9657903e-08
9.6818221e-06
-4.2702014e-08
9.6928997e-06
-4.8059136e-08
9.7105201e-06
-6.183774e-08
9.7443913e-06
-8.4812139e-08
9.8042322e-06
-1.2768696e-07
9.8832072e-06
-1.8141541e-07
9.925687e-06
-1.7817194e-07
9.842045e-06
-6.3381785e-08
9.559002e-06
1.7164421e-07
8.6347043e-06
9.0025477e-07
7.4058573e-06
2.9611399e-06
5.8816584e-06
3.1808456e-06
4.869139e-06
2.6247272e-06
4.2139748e-06
1.754528e-06
3.6956313e-06
1.1788373e-06
3.2822888e-06
8.4063283e-07
2.9500662e-06
6.3129086e-07
2.6778849e-06
4.9570437e-07
2.4519334e-06
4.0335224e-07
2.2600635e-06
3.3736717e-07
2.0950656e-06
2.8750299e-07
1.9510959e-06
2.4905176e-07
1.8238508e-06
2.1890924e-07
1.7107569e-06
1.9391631e-07
1.6089871e-06
1.7378734e-07
1.5168785e-06
1.5674582e-07
1.4332422e-06
1.4197496e-07
1.3568533e-06
1.2933213e-07
1.2867337e-06
1.1840929e-07
1.2222841e-06
1.0865374e-07
1.162546e-06
1.0042248e-07
1.1071357e-06
9.2942837e-08
1.055662e-06
8.6194508e-08
1.0076798e-06
8.0196188e-08
9.6284255e-07
7.4803178e-08
9.2085172e-07
6.9931249e-08
8.8144835e-07
6.5512219e-08
8.4440867e-07
6.1487617e-08
8.0953798e-07
5.7813048e-08
7.7670752e-07
5.4421666e-08
7.45505e-07
5.1325773e-08
7.1609812e-07
4.852376e-08
6.8826593e-07
4.5889637e-08
6.6185693e-07
4.3443223e-08
6.3679638e-07
4.1198665e-08
6.1304425e-07
3.9087946e-08
5.9028112e-07
3.7124571e-08
5.6870304e-07
3.5331926e-08
5.4811826e-07
3.3663852e-08
5.2844599e-07
3.2107005e-08
5.0975518e-07
3.0507618e-08
4.9185366e-07
2.9167739e-08
4.7472295e-07
2.7874996e-08
4.5832797e-07
2.6649566e-08
4.4262157e-07
2.5503238e-08
4.2756451e-07
2.4423456e-08
4.131216e-07
2.3403374e-08
3.9926003e-07
2.2438977e-08
3.8594892e-07
2.1526961e-08
3.7315908e-07
2.0664332e-08
3.6086296e-07
1.9848168e-08
3.4903465e-07
1.9075608e-08
3.3764969e-07
1.8344049e-08
3.2668471e-07
1.7651463e-08
3.1611672e-07
1.6996987e-08
3.0592659e-07
1.6378605e-08
2.9614391e-07
1.5714045e-08
2.8667554e-07
1.518628e-08
2.7752919e-07
1.4661954e-08
2.686957e-07
1.4150837e-08
2.6016105e-07
1.3661561e-08
2.5191158e-07
1.3194746e-08
2.4393383e-07
1.2750198e-08
2.3621632e-07
1.2324994e-08
2.2874808e-07
1.1918289e-08
2.2151731e-07
1.1531081e-08
2.1451043e-07
1.1165683e-08
2.0772131e-07
1.0811267e-08
2.0114091e-07
1.0471692e-08
1.9475905e-07
1.0148745e-08
1.8856576e-07
9.8420312e-09
1.8255441e-07
9.5473327e-09
1.7674209e-07
9.2267654e-09
1.7107718e-07
8.9824419e-09
1.6556892e-07
8.730394e-09
1.6021425e-07
8.4822593e-09
1.5500725e-07
8.2431779e-09
1.4994211e-07
8.0135596e-09
1.4501307e-07
7.7934132e-09
1.4021432e-07
7.582688e-09
1.3554057e-07
7.3804701e-09
1.3098561e-07
7.1875392e-09
1.2653981e-07
7.0146342e-09
1.2220748e-07
6.8294623e-09
1.1797272e-07
6.6742641e-09
1.1384562e-07
6.5005576e-09
1.0981805e-07
6.3417926e-09
1.0588375e-07
6.1938323e-09
1.020148e-07
6.0511882e-09
9.8247592e-08
5.9167073e-09
9.4594648e-08
5.7678614e-09
9.0988363e-08
5.6568936e-09
8.745406e-08
5.5415178e-09
8.3991613e-08
5.4280243e-09
8.0597779e-08
5.3186736e-09
7.7269399e-08
5.2139399e-09
7.400336e-08
5.1140137e-09
7.0796637e-08
5.0188401e-09
6.7646363e-08
4.9281986e-09
6.4548935e-08
4.8430637e-09
6.1500446e-08
4.7664847e-09
5.8501767e-08
4.6851461e-09
5.5549523e-08
4.6107549e-09
5.2640313e-08
4.5418557e-09
4.9771702e-08
4.4768215e-09
4.6942045e-08
4.414359e-09
4.4153536e-08
4.348702e-09
4.1394189e-08
4.3011024e-09
3.8665612e-08
4.2512598e-09
3.5966544e-08
4.2033032e-09
3.3302267e-08
4.1591943e-09
3.0656974e-08
4.1176596e-09
2.8035434e-08
4.080282e-09
2.5435984e-08
4.045984e-09
2.2856251e-08
4.0146951e-09
2.0294157e-08
3.9875573e-09
1.7743721e-08
3.9633301e-09
1.5210535e-08
3.9416085e-09
1.2690499e-08
3.9206565e-09
1.0180802e-08
3.9046719e-09
7.6911111e-09
3.8778841e-09
5.2520009e-09
3.7984102e-09
2.9645479e-09
3.562874e-09
1.0600507e-09
2.9565933e-09
1.6442881e-09
3.2167707e-08
-9.4546632e-08
7.1705899e-08
-1.1476668e-07
1.1217748e-07
-1.174576e-07
1.5280541e-07
-1.1802504e-07
1.9352916e-07
-1.1835719e-07
2.3436778e-07
-1.1871565e-07
2.7534539e-07
-1.1914262e-07
3.1648699e-07
-1.1964668e-07
3.5781792e-07
-1.202301e-07
3.9936316e-07
-1.2089386e-07
4.4114884e-07
-1.2163755e-07
4.8321016e-07
-1.2245927e-07
5.2557362e-07
-1.2336249e-07
5.6826571e-07
-1.2434994e-07
6.1131438e-07
-1.2542339e-07
6.5474858e-07
-1.2658434e-07
6.9859796e-07
-1.278345e-07
7.4289268e-07
-1.2917561e-07
7.876634e-07
-1.3060943e-07
8.329413e-07
-1.3213764e-07
8.7875801e-07
-1.3376189e-07
9.2514568e-07
-1.354839e-07
9.7213704e-07
-1.3730545e-07
1.0197655e-06
-1.3922848e-07
1.0680649e-06
-1.4125482e-07
1.11707e-06
-1.4338662e-07
1.1668162e-06
-1.4562578e-07
1.2173399e-06
-1.479745e-07
1.268676e-06
-1.5043419e-07
1.3208672e-06
-1.5300857e-07
1.373938e-06
-1.5569445e-07
1.4279604e-06
-1.5850798e-07
1.482898e-06
-1.6141208e-07
1.5389515e-06
-1.6450553e-07
1.5958533e-06
-1.6756139e-07
1.6541726e-06
-1.710824e-07
1.7131777e-06
-1.7403969e-07
1.773807e-06
-1.7843131e-07
1.8354518e-06
-1.8058823e-07
1.8979642e-06
-1.8700652e-07
1.9628032e-06
-1.8661451e-07
2.0279266e-06
-1.974018e-07
2.0941784e-06
-1.9233793e-07
2.164621e-06
-2.0726479e-07
2.2318693e-06
-2.0280228e-07
2.3043234e-06
-2.1061528e-07
2.3785255e-06
-2.1926877e-07
2.4509725e-06
-2.1705274e-07
2.5270225e-06
-2.2473119e-07
2.6066661e-06
-2.3416648e-07
2.6859753e-06
-2.3436222e-07
2.7652508e-06
-2.3823907e-07
2.8488049e-06
-2.4875802e-07
2.9356434e-06
-2.5343784e-07
3.0225805e-06
-2.5708722e-07
3.1090255e-06
-2.6127073e-07
3.1991056e-06
-2.6994459e-07
3.2939145e-06
-2.775879e-07
3.3902769e-06
-2.8222764e-07
3.4851581e-06
-2.8537383e-07
3.5824007e-06
-2.9346512e-07
3.6833746e-06
-3.0086579e-07
3.7878495e-06
-3.0712638e-07
3.8945532e-06
-3.1410904e-07
4.0013925e-06
-3.1919162e-07
4.1100716e-06
-3.2613035e-07
4.2212835e-06
-3.3215628e-07
4.3342254e-06
-3.36971e-07
4.4502172e-06
-3.4534882e-07
4.5704253e-06
-3.5457006e-07
4.6929531e-06
-3.6064281e-07
4.8158003e-06
-3.6480193e-07
4.9390265e-06
-3.6960569e-07
5.0634864e-06
-3.756084e-07
5.1908635e-06
-3.8274143e-07
5.3218467e-06
-3.8876196e-07
5.4558204e-06
-3.9358283e-07
5.5922738e-06
-4.0000001e-07
5.7311132e-06
-4.0874621e-07
5.8716521e-06
-4.1709758e-07
6.0119724e-06
-4.2052103e-07
6.1501769e-06
-4.1749957e-07
6.2867944e-06
-4.1301021e-07
6.4254841e-06
-4.1445724e-07
6.5703116e-06
-4.2433457e-07
6.7214222e-06
-4.3658162e-07
6.8754423e-06
-4.4447683e-07
7.0275509e-06
-4.445634e-07
7.1752415e-06
-4.3826477e-07
7.3185398e-06
-4.2954639e-07
7.4597033e-06
-4.2225596e-07
7.6015248e-06
-4.1712404e-07
7.7434908e-06
-4.1177281e-07
7.8832433e-06
-4.0320251e-07
8.018431e-06
-3.9270946e-07
8.1493051e-06
-3.8692232e-07
8.280051e-06
-3.9002762e-07
8.4159687e-06
-3.9695717e-07
8.5557079e-06
-3.9288152e-07
8.6879173e-06
-3.6298576e-07
8.8002059e-06
-3.0830978e-07
8.8909961e-06
-2.5053154e-07
8.9698625e-06
-2.142213e-07
9.048835e-06
-2.0822671e-07
9.1319134e-06
-2.241245e-07
9.2152215e-06
-2.4671508e-07
9.2948839e-06
-2.5919879e-07
9.3700227e-06
-2.4208106e-07
9.4366186e-06
-1.8506699e-07
9.4838526e-06
-1.0179776e-07
9.5055096e-06
-2.1450843e-08
9.5076718e-06
3.1684578e-08
9.5053546e-06
4.8455235e-08
9.5082726e-06
4.0192963e-08
9.5231397e-06
9.9044955e-09
9.5553655e-06
-3.7002438e-08
9.5952718e-06
-7.0557263e-08
9.6277358e-06
-8.2582258e-08
9.6487327e-06
-8.1564006e-08
9.6608786e-06
-7.0264467e-08
9.6715695e-06
-6.0348785e-08
9.6864105e-06
-5.7542975e-08
9.7078321e-06
-6.9480792e-08
9.751715e-06
-1.0572062e-07
9.8210702e-06
-1.5416736e-07
9.9048352e-06
-2.1145194e-07
9.9163171e-06
-1.9289731e-07
9.747594e-06
-9.4488909e-09
9.2952761e-06
3.8893618e-07
8.0310267e-06
1.4358936e-06
6.2745139e-06
2.6567676e-06
5.371392e-06
3.8642617e-06
4.8097977e-06
3.7424399e-06
4.5420759e-06
2.8924489e-06
4.2027776e-06
2.0938263e-06
3.8319232e-06
1.5496917e-06
3.4867756e-06
1.1857804e-06
3.182513e-06
9.3555345e-07
2.9186031e-06
7.5961431e-07
2.6910133e-06
6.3094203e-07
2.4937619e-06
5.3461855e-07
2.3207132e-06
4.605517e-07
2.1677312e-06
4.020338e-07
2.0316763e-06
3.5496412e-07
1.9097379e-06
3.1585471e-07
1.799763e-06
2.8376229e-07
1.6999682e-06
2.565406e-07
1.6089296e-06
2.3301357e-07
1.5255101e-06
2.1275161e-07
1.4488134e-06
1.9510602e-07
1.3778632e-06
1.7960389e-07
1.3123107e-06
1.6597505e-07
1.2514421e-06
1.5381139e-07
1.1946888e-06
1.4294784e-07
1.1416874e-06
1.3319753e-07
1.0920841e-06
1.2440648e-07
1.0455669e-06
1.1644845e-07
1.0018622e-06
1.092169e-07
9.6072935e-07
1.0262051e-07
9.2194704e-07
9.6595351e-08
8.854011e-07
9.0967609e-08
8.5068873e-07
8.6038145e-08
8.1785841e-07
8.1354081e-08
7.8677181e-07
7.6976237e-08
7.5727615e-07
7.2938885e-08
7.2923173e-07
6.9243087e-08
7.0258659e-07
6.5733085e-08
6.7711206e-07
6.2599095e-08
6.5290416e-07
5.9539828e-08
6.2977074e-07
5.6797269e-08
6.0774057e-07
5.4137174e-08
5.8659275e-07
5.165544e-08
5.6638642e-07
4.9374077e-08
5.4708891e-07
4.71725e-08
5.2860055e-07
4.5137931e-08
5.1086674e-07
4.3237042e-08
4.9384884e-07
4.1441365e-08
4.7750955e-07
3.9742659e-08
4.6181354e-07
3.8134992e-08
4.4672747e-07
3.6613023e-08
4.3221974e-07
3.5172063e-08
4.1826044e-07
3.380747e-08
4.048215e-07
3.251455e-08
3.9187677e-07
3.1288781e-08
3.7940222e-07
3.0126009e-08
3.6737741e-07
2.9021802e-08
3.5578651e-07
2.7969504e-08
3.4455687e-07
2.694368e-08
3.3374135e-07
2.6001805e-08
3.23298e-07
2.5105299e-08
3.132026e-07
2.4246236e-08
3.034394e-07
2.3424762e-08
2.9399318e-07
2.2640963e-08
2.8484866e-07
2.1894724e-08
2.7599482e-07
2.1178834e-08
2.6742095e-07
2.0492155e-08
2.5911448e-07
1.9837555e-08
2.5105386e-07
1.9226306e-08
2.4324175e-07
1.8623369e-08
2.3566544e-07
1.8048002e-08
2.2831321e-07
1.7500977e-08
2.2117651e-07
1.6978728e-08
2.1424763e-07
1.6476214e-08
2.0749103e-07
1.598337e-08
2.0094085e-07
1.5532622e-08
1.9457229e-07
1.5098946e-08
1.8837482e-07
1.4679726e-08
1.8234216e-07
1.4275842e-08
1.7646814e-07
1.3887581e-08
1.7074657e-07
1.3514986e-08
1.6517046e-07
1.3158789e-08
1.59732e-07
1.2818937e-08
1.5442504e-07
1.2494494e-08
1.4926384e-07
1.2175841e-08
1.4421196e-07
1.1881339e-08
1.3928691e-07
1.1599314e-08
1.3447e-07
1.1317462e-08
1.2976153e-07
1.1050265e-08
1.2515906e-07
1.0796306e-08
1.2064638e-07
1.0563873e-08
1.1624183e-07
1.032125e-08
1.1192628e-07
1.0083409e-08
1.077021e-07
9.881076e-09
1.0355939e-07
9.6842254e-09
9.9496457e-08
9.4909602e-09
9.5510211e-08
9.3049183e-09
9.1597355e-08
9.1267954e-09
8.7754535e-08
8.9568336e-09
8.3978315e-08
8.795061e-09
8.0264895e-08
8.6416186e-09
7.6612182e-08
8.4957763e-09
7.3022884e-08
8.3557826e-09
6.9483518e-08
8.2245113e-09
6.599488e-08
8.0993927e-09
6.2556398e-08
7.9803378e-09
5.9165139e-08
7.8680813e-09
5.5818043e-08
7.761456e-09
5.2507375e-08
7.6593718e-09
4.9239668e-08
7.5688117e-09
4.6007926e-08
7.4830021e-09
4.2810076e-08
7.4011525e-09
3.964563e-08
7.3236407e-09
3.6508095e-08
7.2551942e-09
3.3396402e-08
7.1919756e-09
3.0309425e-08
7.1329611e-09
2.7245382e-08
7.0787392e-09
2.4200724e-08
7.0322154e-09
2.117161e-08
6.9924447e-09
1.8160278e-08
6.9529393e-09
1.5161907e-08
6.9190266e-09
1.2179229e-08
6.8873488e-09
9.2209352e-09
6.8361766e-09
6.3196991e-09
6.6996454e-09
3.5875555e-09
6.2950163e-09
1.2902373e-09
5.2539103e-09
2.9345251e-09
3.2143757e-08
-1.2669039e-07
7.159885e-08
-1.5422177e-07
1.1199034e-07
-1.5784909e-07
1.5255481e-07
-1.5858951e-07
1.9321596e-07
-1.5901833e-07
2.3398857e-07
-1.5948826e-07
2.7489781e-07
-1.6005186e-07
3.1596969e-07
-1.6071856e-07
3.5723032e-07
-1.6149073e-07
3.9870592e-07
-1.6236947e-07
4.4042377e-07
-1.633554e-07
4.8241352e-07
-1.6444902e-07
5.2470331e-07
-1.6565228e-07
5.6732088e-07
-1.6696751e-07
6.102944e-07
-1.683969e-07
6.5365262e-07
-1.6994257e-07
6.9742477e-07
-1.7160665e-07
7.4164052e-07
-1.7339135e-07
7.8633015e-07
-1.7529906e-07
8.3152467e-07
-1.7733215e-07
8.7725557e-07
-1.7949279e-07
9.2355503e-07
-1.8178336e-07
9.7045582e-07
-1.8420625e-07
1.0179914e-06
-1.8676401e-07
1.0661958e-06
-1.8945931e-07
1.115104e-06
-1.9229479e-07
1.1647513e-06
-1.9527308e-07
1.2151743e-06
-1.9839747e-07
1.2664089e-06
-2.016688e-07
1.3184955e-06
-2.0509519e-07
1.3714652e-06
-2.0866414e-07
1.4253747e-06
-2.124175e-07
1.4802242e-06
-2.1626155e-07
1.5361376e-06
-2.2041897e-07
1.592995e-06
-2.2441875e-07
1.6511184e-06
-2.2920581e-07
1.7101214e-06
-2.3304271e-07
1.7705821e-06
-2.3889195e-07
1.8320664e-06
-2.4207257e-07
1.8946973e-06
-2.4963743e-07
1.9591628e-06
-2.5107993e-07
2.0241941e-06
-2.6243312e-07
2.0909683e-06
-2.5911211e-07
2.1599751e-06
-2.7627163e-07
2.2286156e-06
-2.7144274e-07
2.3003735e-06
-2.8237319e-07
2.3737984e-06
-2.9269368e-07
2.4471575e-06
-2.9041191e-07
2.5234162e-06
-3.0098988e-07
2.6017081e-06
-3.124583e-07
2.6812879e-06
-3.139421e-07
2.7618128e-06
-3.187639e-07
2.8444411e-06
-3.3138634e-07
2.9305286e-06
-3.3952533e-07
3.0178738e-06
-3.4443242e-07
3.1052936e-06
-3.4869053e-07
3.1947072e-06
-3.5935826e-07
3.2887257e-06
-3.7160631e-07
3.3859771e-06
-3.794791e-07
3.4810272e-06
-3.8042389e-07
3.5771382e-06
-3.8957609e-07
3.6785308e-06
-4.0225847e-07
3.7848229e-06
-4.1341848e-07
3.8913936e-06
-4.2067971e-07
3.9960784e-06
-4.2387637e-07
4.1036471e-06
-4.3369913e-07
4.2167129e-06
-4.4522201e-07
4.3322537e-06
-4.5251184e-07
4.4487841e-06
-4.6187924e-07
4.5678515e-06
-4.7363743e-07
4.6887648e-06
-4.8155611e-07
4.8106991e-06
-4.8673622e-07
4.9343813e-06
-4.9328788e-07
5.0603352e-06
-5.0156235e-07
5.1897235e-06
-5.121297e-07
5.3230563e-06
-5.2209482e-07
5.4589533e-06
-5.2947981e-07
5.5951142e-06
-5.3616085e-07
5.7306426e-06
-5.4427467e-07
5.8667874e-06
-5.5324233e-07
6.0052977e-06
-5.5903132e-07
6.1460033e-06
-5.5820526e-07
6.2883926e-06
-5.5539944e-07
6.4338246e-06
-5.5988924e-07
6.5836097e-06
-5.741197e-07
6.7362444e-06
-5.8921634e-07
6.8882141e-06
-5.9644655e-07
7.0360873e-06
-5.9243653e-07
7.1783387e-06
-5.805162e-07
7.3163656e-06
-5.675733e-07
7.454235e-06
-5.6012537e-07
7.5973172e-06
-5.6020621e-07
7.7486072e-06
-5.6306287e-07
7.9049416e-06
-5.595369e-07
8.0575872e-06
-5.4535502e-07
8.1985929e-06
-5.27928e-07
8.3271529e-06
-5.1858766e-07
8.4486713e-06
-5.1847556e-07
8.5685015e-06
-5.1271172e-07
8.6873733e-06
-4.8185752e-07
8.8007113e-06
-4.2164785e-07
8.9037505e-06
-3.535707e-07
8.9972972e-06
-3.0776802e-07
9.0877963e-06
-2.9872582e-07
9.179262e-06
-3.155902e-07
9.266695e-06
-3.3414804e-07
9.3405761e-06
-3.3307988e-07
9.3959827e-06
-2.9748769e-07
9.4347614e-06
-2.2384566e-07
9.4619854e-06
-1.2902174e-07
9.4834603e-06
-4.2925808e-08
9.5070065e-06
8.1384335e-09
9.5351742e-06
2.0287535e-08
9.5726109e-06
2.7562508e-09
9.6142955e-06
-3.1780095e-08
9.645291e-06
-6.7997956e-08
9.6593694e-06
-8.4635699e-08
9.6621366e-06
-8.5349399e-08
9.6574349e-06
-7.6862302e-08
9.654254e-06
-6.7083588e-08
9.6578517e-06
-6.3946449e-08
9.6765717e-06
-7.6263062e-08
9.7116485e-06
-1.0455753e-07
9.7692176e-06
-1.6328975e-07
9.8233125e-06
-2.0826229e-07
9.7806071e-06
-1.6874647e-07
9.4981336e-06
8.9576203e-08
8.7660482e-06
7.2263644e-07
7.4716338e-06
1.6833506e-06
5.8175879e-06
3.0899395e-06
4.4771378e-06
3.9972177e-06
4.1391705e-06
4.202229e-06
4.165516e-06
3.7160944e-06
4.1354476e-06
2.9225174e-06
3.9472907e-06
2.2819831e-06
3.6893276e-06
1.8076548e-06
3.4198575e-06
1.4552505e-06
3.1639552e-06
1.1914558e-06
2.9304039e-06
9.9316558e-07
2.7209256e-06
8.4042028e-07
2.5343304e-06
7.2121375e-07
2.3675334e-06
6.2734877e-07
2.2179021e-06
5.5166504e-07
2.0836376e-06
4.8922862e-07
1.9618508e-06
4.3764151e-07
1.851699e-06
3.9391411e-07
1.7514958e-06
3.5674375e-07
1.6595839e-06
3.2492556e-07
1.5750774e-06
2.9725806e-07
1.4971744e-06
2.7300906e-07
1.4249172e-06
2.5186104e-07
1.3580773e-06
2.3281495e-07
1.2959241e-06
2.1596462e-07
1.2378885e-06
2.0098338e-07
1.1836251e-06
1.8746097e-07
1.1327874e-06
1.7524412e-07
1.0850684e-06
1.6416747e-07
1.0401961e-06
1.5408925e-07
9.9792727e-07
1.4488932e-07
9.580452e-07
1.3647742e-07
9.2034707e-07
1.2866574e-07
8.8471676e-07
1.2166845e-07
8.5094847e-07
1.1512237e-07
8.1890361e-07
1.090211e-07
7.8849429e-07
1.0334821e-07
7.5954175e-07
9.819563e-08
7.3194171e-07
9.3333119e-08
7.0573962e-07
8.8801194e-08
6.8067024e-07
8.4609205e-08
6.5686393e-07
8.0603579e-08
6.3410394e-07
7.6897164e-08
6.1223401e-07
7.3525368e-08
5.9128538e-07
7.032271e-08
5.7131661e-07
6.7141268e-08
5.5217151e-07
6.4283036e-08
5.3379289e-07
6.1615665e-08
5.1615545e-07
5.9078802e-08
4.9921882e-07
5.6679289e-08
4.8294527e-07
5.440854e-08
4.6729972e-07
5.2258576e-08
4.5224923e-07
5.0222548e-08
4.3776302e-07
4.8293681e-08
4.2381235e-07
4.6465215e-08
4.1037051e-07
4.4730621e-08
3.9741278e-07
4.3083743e-08
3.8491604e-07
4.1518537e-08
3.72857e-07
4.0028551e-08
3.6119831e-07
3.860236e-08
3.4994547e-07
3.7254649e-08
3.3907613e-07
3.597464e-08
3.2856883e-07
3.4753535e-08
3.1840564e-07
3.3587951e-08
3.085696e-07
3.2477001e-08
2.9904167e-07
3.1422656e-08
2.8981361e-07
3.0406889e-08
2.8087591e-07
2.9429861e-08
2.722185e-07
2.8494965e-08
2.6381093e-07
2.7633881e-08
2.5566262e-07
2.6771674e-08
2.4775763e-07
2.5952997e-08
2.4008206e-07
2.5176546e-08
2.3262718e-07
2.4433606e-08
2.2538267e-07
2.3720724e-08
2.183318e-07
2.3034231e-08
2.1148111e-07
2.2383316e-08
2.0481912e-07
2.1760934e-08
1.9833586e-07
2.1162987e-08
1.920236e-07
2.0588105e-08
1.8587573e-07
2.0035448e-08
1.7988615e-07
1.9504561e-08
1.7404751e-07
1.899743e-08
1.6835355e-07
1.8512904e-08
1.627982e-07
1.804984e-08
1.5736702e-07
1.7607018e-08
1.5206962e-07
1.7178738e-08
1.4690702e-07
1.6761921e-08
1.4185404e-07
1.6370443e-08
1.3690945e-07
1.5994858e-08
1.3207104e-07
1.5634712e-08
1.2735394e-07
1.5280972e-08
1.2272237e-07
1.4952823e-08
1.1817762e-07
1.4628155e-08
1.1373039e-07
1.4328308e-08
1.0937336e-07
1.4041257e-08
1.0509955e-07
1.3764767e-08
1.0090514e-07
1.3499325e-08
9.6786565e-08
1.3245371e-08
9.2740424e-08
1.3002975e-08
8.876345e-08
1.2772035e-08
8.4852601e-08
1.2552468e-08
8.1004146e-08
1.2344232e-08
7.7213188e-08
1.214674e-08
7.3480304e-08
1.1957394e-08
6.9802226e-08
1.177747e-08
6.6175037e-08
1.1607527e-08
6.2595982e-08
1.1447137e-08
5.9061832e-08
1.1295608e-08
5.5568455e-08
1.115275e-08
5.2116797e-08
1.102047e-08
4.8703258e-08
1.0896541e-08
4.5324435e-08
1.0779975e-08
4.1977665e-08
1.0670411e-08
3.866099e-08
1.0571869e-08
3.5372138e-08
1.0480828e-08
3.2108327e-08
1.0396773e-08
2.886752e-08
1.0319547e-08
2.5647268e-08
1.0252467e-08
2.2447258e-08
1.0192454e-08
1.9261829e-08
1.0138368e-08
1.6090614e-08
1.0090241e-08
1.293505e-08
1.0042912e-08
9.802917e-09
9.9683084e-09
6.7293589e-09
9.773202e-09
3.826703e-09
9.1976708e-09
1.3768532e-09
7.7037592e-09
4.3113783e-09
3.2093856e-08
-1.5878424e-07
7.1450271e-08
-1.9357819e-07
1.1173548e-07
-1.981343e-07
1.5219607e-07
-1.990501e-07
1.9275398e-07
-1.9957625e-07
2.3342228e-07
-2.0015656e-07
2.7422593e-07