/*--------------------------------*- C++ -*----------------------------------*\
| =========                 |                                                 |
| \\      /  F ield         | OpenFOAM: The Open Source CFD Toolbox           |
|  \\    /   O peration     | Version:  2106                                  |
|   \\  /    A nd           | Website:  www.openfoam.com                      |
|    \\/     M anipulation  |                                                 |
\*---------------------------------------------------------------------------*/
FoamFile
{
    version     2.0;
    format      ascii;
    arch        "LSB;label=32;scalar=64";
    class       surfaceScalarField;
    location    "0.085";
    object      phi_0;
}
// * * * * * * * * * * * * * * * * * * * * * * * * * * * * * * * * * * * * * //

dimensions      [0 3 -1 0 0 0 0];

oriented        oriented;

internalField   nonuniform List<scalar> 
65152
(
3.0163303e-08
-3.0163303e-08
6.5662986e-08
-3.5499683e-08
1.019726e-07
-3.6309615e-08
1.3856991e-07
-3.659731e-08
1.7530406e-07
-3.6734152e-08
2.1216276e-07
-3.6858693e-08
2.4916686e-07
-3.7004099e-08
2.8634233e-07
-3.7175471e-08
3.2371737e-07
-3.7375045e-08
3.6132553e-07
-3.7608155e-08
3.9920903e-07
-3.7883507e-08
4.3740094e-07
-3.8191908e-08
4.7592364e-07
-3.8522701e-08
5.1479977e-07
-3.8876128e-08
5.5405336e-07
-3.9253587e-08
5.9370993e-07
-3.965657e-08
6.337964e-07
-4.0086475e-08
6.7434092e-07
-4.0544519e-08
7.153727e-07
-4.1031777e-08
7.5692192e-07
-4.1549218e-08
7.9901965e-07
-4.2097735e-08
8.4169783e-07
-4.267818e-08
8.849892e-07
-4.3291371e-08
9.2892731e-07
-4.3938104e-08
9.7354654e-07
-4.4619234e-08
1.018882e-06
-4.5335417e-08
1.0649697e-06
-4.6087778e-08
1.1118458e-06
-4.6876029e-08
1.1595495e-06
-4.7703782e-08
1.2081135e-06
-4.8563998e-08
1.2575902e-06
-4.9476629e-08
1.3079869e-06
-5.0396775e-08
1.3594111e-06
-5.1424148e-08
1.4117705e-06
-5.2359356e-08
1.4653349e-06
-5.3564471e-08
1.5198052e-06
-5.4470306e-08
1.5756019e-06
-5.5796632e-08
1.6326251e-06
-5.7023209e-08
1.6902412e-06
-5.7616123e-08
1.7509307e-06
-6.0689549e-08
1.8095983e-06
-5.8667532e-08
1.8743379e-06
-6.4739661e-08
1.935477e-06
-6.1139065e-08
2.0016762e-06
-6.6199246e-08
2.0685838e-06
-6.6907573e-08
2.1350197e-06
-6.6435834e-08
2.2060457e-06
-7.1026093e-08
2.2771703e-06
-7.1124544e-08
2.3491432e-06
-7.1972919e-08
2.4247294e-06
-7.5586211e-08
2.5009599e-06
-7.6230469e-08
2.5785805e-06
-7.7620655e-08
2.6593243e-06
-8.074371e-08
2.7409768e-06
-8.165259e-08
2.8244635e-06
-8.3486667e-08
2.9104757e-06
-8.6012186e-08
2.9984706e-06
-8.7994912e-08
3.0879348e-06
-8.9464191e-08
3.1795642e-06
-9.1629404e-08
3.2735274e-06
-9.3963161e-08
3.3694668e-06
-9.5939391e-08
3.4676233e-06
-9.8156574e-08
3.5678556e-06
-1.002323e-07
3.6699033e-06
-1.0204768e-07
3.774011e-06
-1.0410774e-07
3.8809413e-06
-1.0693022e-07
3.9900568e-06
-1.0911553e-07
4.100676e-06
-1.1061922e-07
4.2134487e-06
-1.127727e-07
4.3285012e-06
-1.1505253e-07
4.4457372e-06
-1.1723594e-07
4.5650657e-06
-1.1932849e-07
4.6864292e-06
-1.2136355e-07
4.8101917e-06
-1.2376251e-07
4.9361559e-06
-1.259642e-07
5.0633924e-06
-1.2723642e-07
5.191604e-06
-1.2821163e-07
5.3214182e-06
-1.2981419e-07
5.45368e-06
-1.3226182e-07
5.5888881e-06
-1.3520809e-07
5.7263606e-06
-1.3747247e-07
5.8643842e-06
-1.3802364e-07
6.0017274e-06
-1.3734323e-07
6.1384529e-06
-1.3672547e-07
6.2756866e-06
-1.3723366e-07
6.4146398e-06
-1.3895321e-07
6.5554558e-06
-1.4081604e-07
6.6974441e-06
-1.4198827e-07
6.8390466e-06
-1.4160248e-07
6.9789984e-06
-1.3995186e-07
7.1166895e-06
-1.3769108e-07
7.2512123e-06
-1.3452276e-07
7.3827875e-06
-1.315752e-07
7.5112354e-06
-1.284479e-07
7.6362539e-06
-1.250185e-07
7.7590171e-06
-1.2276326e-07
7.8811097e-06
-1.2209254e-07
8.0019843e-06
-1.2087468e-07
8.1185097e-06
-1.1652539e-07
8.2262628e-06
-1.0775303e-07
8.3207269e-06
-9.4464103e-08
8.3996201e-06
-7.8893265e-08
8.4654172e-06
-6.5797049e-08
8.5246672e-06
-5.9249975e-08
8.5862159e-06
-6.154875e-08
8.657132e-06
-7.0916118e-08
8.7349004e-06
-7.7768333e-08
8.7998197e-06
-6.4919348e-08
8.8324536e-06
-3.2633929e-08
8.8362955e-06
-3.8418874e-09
8.8234954e-06
1.2800113e-08
8.8017009e-06
2.1794524e-08
8.775777e-06
2.5923847e-08
8.7504318e-06
2.5345284e-08
8.7306098e-06
1.9821943e-08
8.7196391e-06
1.0970747e-08
8.7164827e-06
3.1563372e-09
8.7249981e-06
-8.5153385e-09
8.7441041e-06
-1.9106015e-08
8.7697111e-06
-2.5607021e-08
8.7970202e-06
-2.7309126e-08
8.8273199e-06
-3.0299664e-08
8.8646289e-06
-3.7308979e-08
8.9091159e-06
-4.4487065e-08
8.9605499e-06
-5.1433953e-08
9.0296956e-06
-6.9145748e-08
9.134231e-06
-1.0453534e-07
9.271561e-06
-1.3733001e-07
9.4167354e-06
-1.4517441e-07
9.5222557e-06
-1.0552033e-07
9.5464071e-06
-2.4151325e-08
7.6655662e-06
1.8808408e-06
6.0251912e-06
1.640375e-06
4.4502794e-06
1.5749118e-06
3.3911963e-06
1.059083e-06
2.7521641e-06
6.3903226e-07
2.3361091e-06
4.1605497e-07
2.0434888e-06
2.9262031e-07
1.8238977e-06
2.1959109e-07
1.6490876e-06
1.7481016e-07
1.5054085e-06
1.4367905e-07
1.3842399e-06
1.2116863e-07
1.2801755e-06
1.0406434e-07
1.1893098e-06
9.0865744e-08
1.1091282e-06
8.0181588e-08
1.0376347e-06
7.1493506e-08
9.7343311e-07
6.4201587e-08
9.1546099e-07
5.7972125e-08
8.6282961e-07
5.2631379e-08
8.1480788e-07
4.8021726e-08
7.7083578e-07
4.3972098e-08
7.3035412e-07
4.0481663e-08
6.9299971e-07
3.7354413e-08
6.5843638e-07
3.4563332e-08
6.2636238e-07
3.2073995e-08
5.9652139e-07
2.9840991e-08
5.6869309e-07
2.78283e-08
5.4268523e-07
2.6007863e-08
5.183286e-07
2.4356624e-08
4.9546912e-07
2.2859482e-08
4.7395353e-07
2.1515589e-08
4.5389855e-07
2.0054985e-08
4.3484465e-07
1.9053901e-08
4.1684509e-07
1.7999559e-08
3.9986401e-07
1.6981083e-08
3.8377492e-07
1.6089082e-08
3.6848464e-07
1.5290283e-08
3.5416474e-07
1.4319904e-08
3.4044975e-07
1.3714986e-08
3.2740683e-07
1.3042922e-08
3.1500572e-07
1.2401108e-08
3.0322021e-07
1.1785509e-08
2.9198324e-07
1.1236977e-08
2.8126631e-07
1.0716929e-08
2.7103732e-07
1.0228985e-08
2.6126449e-07
9.7728302e-09
2.5192064e-07
9.3438522e-09
2.4298136e-07
8.9392758e-09
2.344239e-07
8.5574613e-09
2.2622685e-07
8.1970545e-09
2.1837009e-07
7.8567578e-09
2.1083479e-07
7.5353029e-09
2.0360332e-07
7.2314633e-09
1.9665922e-07
6.9441051e-09
1.8998693e-07
6.672287e-09
1.8357141e-07
6.4155295e-09
1.7739574e-07
6.1756635e-09
1.7147648e-07
5.9192606e-09
1.6577009e-07
5.7063883e-09
1.6026549e-07
5.5046042e-09
1.5495861e-07
5.3068737e-09
1.4984169e-07
5.116928e-09
1.4490593e-07
4.9357557e-09
1.4014258e-07
4.7633488e-09
1.3554379e-07
4.5987926e-09
1.3110206e-07
4.4417248e-09
1.2680971e-07
4.2923563e-09
1.2265853e-07
4.1511746e-09
1.186437e-07
4.0148309e-09
1.1475942e-07
3.8842804e-09
1.1099927e-07
3.7601469e-09
1.0735701e-07
3.6422664e-09
1.0382725e-07
3.5297544e-09
1.0041877e-07
3.4084868e-09
9.7107001e-08
3.3117675e-09
9.3890424e-08
3.2165766e-09
9.0768191e-08
3.1222321e-09
8.7737187e-08
3.0310043e-09
8.4793762e-08
2.943426e-09
8.1934216e-08
2.8595457e-09
7.9154945e-08
2.7792713e-09
7.6452739e-08
2.7022058e-09
7.382452e-08
2.6282182e-09
7.1259943e-08
2.564577e-09
6.8766916e-08
2.4930264e-09
6.6331409e-08
2.4355069e-09
6.3961833e-08
2.369575e-09
6.1651374e-08
2.3104583e-09
5.9395516e-08
2.2558582e-09
5.7216772e-08
2.1787438e-09
5.5070743e-08
2.1460282e-09
5.2959248e-08
2.1114948e-09
5.0911927e-08
2.0473206e-09
4.8907922e-08
2.0040042e-09
4.6945483e-08
1.9624403e-09
4.5023712e-08
1.9217724e-09
4.3141152e-08
1.8825596e-09
4.1296114e-08
1.8450384e-09
3.9486872e-08
1.8092417e-09
3.7711764e-08
1.7751084e-09
3.5968891e-08
1.7428741e-09
3.4253616e-08
1.7152752e-09
3.2569814e-08
1.6838019e-09
3.0913921e-08
1.6558934e-09
2.9283852e-08
1.6300696e-09
2.7678178e-08
1.605674e-09
2.6095977e-08
1.5822017e-09
2.4538241e-08
1.5577353e-09
2.2998917e-08
1.5393235e-09
2.1478633e-08
1.5202837e-09
1.9976766e-08
1.5018676e-09
1.8484212e-08
1.4925543e-09
1.7014162e-08
1.470051e-09
1.5557714e-08
1.456447e-09
1.4113456e-08
1.4442574e-09
1.2680753e-08
1.4327022e-09
1.1257535e-08
1.4232183e-09
9.8468595e-09
1.4106754e-09
8.4406549e-09
1.406205e-09
7.0422368e-09
1.3984183e-09
5.6494554e-09
1.3927814e-09
4.2634473e-09
1.3860086e-09
2.9062939e-09
1.3571544e-09
1.6329573e-09
1.2733374e-09
5.8281406e-10
1.0501436e-09
5.8281388e-10
3.2227189e-08
-6.2390492e-08
7.1956296e-08
-7.522879e-08
1.1263037e-07
-7.6983688e-08
1.5342735e-07
-7.7394288e-08
1.9432382e-07
-7.7630626e-08
2.3533949e-07
-7.7874363e-08
2.7649794e-07
-7.8162548e-08
3.1782531e-07
-7.8502839e-08
3.5934745e-07
-7.8897186e-08
4.010862e-07
-7.9346911e-08
4.4305321e-07
-7.9850512e-08
4.852583e-07
-8.0396994e-08
5.2773407e-07
-8.0998472e-08
5.7051566e-07
-8.165772e-08
6.1363713e-07
-8.2375057e-08
6.5713152e-07
-8.3150966e-08
7.0103152e-07
-8.3986471e-08
7.453698e-07
-8.4882803e-08
7.9017924e-07
-8.5841209e-08
8.354929e-07
-8.6862881e-08
8.8134416e-07
-8.7949e-08
9.2776674e-07
-8.9100757e-08
9.7479475e-07
-9.0319383e-08
1.0224628e-06
-9.1606137e-08
1.0708059e-06
-9.296237e-08
1.1198598e-06
-9.438927e-08
1.1696604e-06
-9.5888439e-08
1.220245e-06
-9.7460558e-08
1.2716501e-06
-9.9108896e-08
1.3239155e-06
-1.0082942e-07
1.3770756e-06
-1.0263672e-07
1.4311789e-06
-1.0450004e-07
1.4862448e-06
-1.064901e-07
1.5423548e-06
-1.084693e-07
1.5994683e-06
-1.1067801e-07
1.6577808e-06
-1.1278279e-07
1.7170423e-06
-1.1505817e-07
1.7778397e-06
-1.178206e-07
1.8392015e-06
-1.1897788e-07
1.9030194e-06
-1.2450747e-07
1.9661713e-06
-1.2181943e-07
2.0337322e-06
-1.3230062e-07
2.0987093e-06
-1.2611614e-07
2.1693867e-06
-1.368766e-07
2.2380439e-06
-1.3556475e-07
2.3098325e-06
-1.3822449e-07
2.3839128e-06
-1.4510643e-07
2.4574243e-06
-1.4463596e-07
2.5342052e-06
-1.4875386e-07
2.6131862e-06
-1.5456719e-07
2.6920468e-06
-1.5509112e-07
2.7734749e-06
-1.5904868e-07
2.8579992e-06
-1.6526801e-07
2.9429895e-06
-1.6664291e-07
3.0297274e-06
-1.702246e-07
3.1186376e-06
-1.7492238e-07
3.21059e-06
-1.7994727e-07
3.3039636e-06
-1.8283787e-07
3.3982794e-06
-1.8594518e-07
3.494931e-06
-1.9061471e-07
3.5953279e-06
-1.9633631e-07
3.6971413e-06
-1.9996999e-07
3.7996563e-06
-2.0274733e-07
3.9051425e-06
-2.0753382e-07
4.013527e-06
-2.1249222e-07
4.1241745e-06
-2.1757779e-07
4.2361109e-06
-2.2105191e-07
4.3496604e-06
-2.2416875e-07
4.4664141e-06
-2.2952638e-07
4.5858741e-06
-2.345125e-07
4.7068956e-06
-2.382575e-07
4.8296864e-06
-2.4211927e-07
4.9548903e-06
-2.4656745e-07
5.0824699e-06
-2.5134207e-07
5.2120342e-06
-2.5552854e-07
5.3427073e-06
-2.5790948e-07
5.4742673e-06
-2.5977167e-07
5.6082507e-06
-2.6379756e-07
5.7462069e-06
-2.7021807e-07
5.8878315e-06
-2.7683268e-07
6.0307083e-06
-2.8034924e-07
6.1720212e-06
-2.7933657e-07
6.3111324e-06
-2.764544e-07
6.4503756e-06
-2.7596866e-07
6.5929838e-06
-2.7984187e-07
6.7398629e-06
-2.8583229e-07
6.8897892e-06
-2.9074235e-07
7.0404115e-06
-2.9261056e-07
7.1894203e-06
-2.9061131e-07
7.3356955e-06
-2.8622706e-07
7.4790493e-06
-2.8104488e-07
7.6197694e-06
-2.7524288e-07
7.7579219e-06
-2.6972768e-07
7.8928381e-06
-2.6336414e-07
8.0253917e-06
-2.5757203e-07
8.1589748e-06
-2.5634641e-07
8.296551e-06
-2.5966875e-07
8.4367997e-06
-2.6112333e-07
8.5728365e-06
-2.5256226e-07
8.6945484e-06
-2.2946487e-07
8.7944343e-06
-1.9435005e-07
8.8739227e-06
-1.5838163e-07
8.9429726e-06
-1.3484696e-07
9.0134874e-06
-1.2976477e-07
9.0943108e-06
-1.4237216e-07
9.188282e-06
-1.6488737e-07
9.2905529e-06
-1.8003915e-07
9.3911635e-06
-1.6553001e-07
9.4740805e-06
-1.1555092e-07
9.5217347e-06
-5.1496052e-08
9.5321034e-06
2.4314386e-09
9.5189937e-06
3.49042e-08
9.4987046e-06
4.6212947e-08
9.4816077e-06
4.2442206e-08
9.4781856e-06
2.3244019e-08
9.4956543e-06
-6.4979892e-09
9.5307239e-06
-3.1913211e-08
9.573145e-06
-5.0936466e-08
9.6146884e-06
-6.0649411e-08
9.646624e-06
-5.7542651e-08
9.6683015e-06
-4.8986592e-08
9.6803918e-06
-4.2390022e-08
9.6913966e-06
-4.8313738e-08
9.7094327e-06
-6.2523115e-08
9.7445424e-06
-8.6543686e-08
9.8052048e-06
-1.298082e-07
9.8838302e-06
-1.8316068e-07
9.9216343e-06
-1.7513413e-07
9.8294271e-06
-5.2967266e-08
9.5368315e-06
1.8707532e-07
8.4354818e-06
1.0771984e-06
7.3365917e-06
2.979731e-06
5.8129314e-06
3.1640353e-06
4.8231683e-06
2.5646749e-06
4.1765066e-06
1.7057447e-06
3.6658908e-06
1.1496481e-06
3.258906e-06
8.230398e-07
2.9313997e-06
6.2012666e-07
2.6627305e-06
4.8826022e-07
2.4393939e-06
3.9814674e-07
2.2495023e-06
3.3357073e-07
2.0860318e-06
2.8463908e-07
1.9432657e-06
2.4683045e-07
1.8169898e-06
2.1714164e-07
1.7046872e-06
1.9248425e-07
1.6035745e-06
1.7260614e-07
1.51202e-06
1.5575611e-07
1.4288546e-06
1.4113752e-07
1.35287e-06
1.2861596e-07
1.283101e-06
1.1779076e-07
1.2189567e-06
1.0811635e-07
1.1594873e-06
9.995106e-08
1.104315e-06
9.2526706e-08
1.0530527e-06
8.5825673e-08
1.0052593e-06
7.9867391e-08
9.6059162e-07
7.4508687e-08
9.1875357e-07
6.9666346e-08
8.7948844e-07
6.5272987e-08
8.4257427e-07
6.1270796e-08
8.0781789e-07
5.7615865e-08
7.7509156e-07
5.4241918e-08
7.43985e-07
5.116155e-08
7.1466602e-07
4.8372881e-08
6.8691468e-07
4.5750896e-08
6.6058035e-07
4.331542e-08
6.3558884e-07
4.1080595e-08
6.119004e-07
3.8978716e-08
5.8919683e-07
3.7023472e-08
5.6767392e-07
3.5237904e-08
5.4714055e-07
3.3576293e-08
5.2751636e-07
3.2025292e-08
5.0887046e-07
3.0431406e-08
4.9101082e-07
2.9096622e-08
4.7391941e-07
2.7808333e-08
4.5756133e-07
2.6587073e-08
4.4188959e-07
2.5444563e-08
4.2686515e-07
2.4368294e-08
4.1245297e-07
2.3351453e-08
3.9862038e-07
2.239005e-08
3.8533663e-07
2.1480805e-08
3.7257265e-07
2.0620743e-08
3.6030099e-07
1.9806962e-08
3.4849584e-07
1.9036614e-08
3.3713283e-07
1.8307112e-08
3.2618868e-07
1.7616441e-08
3.1564047e-07
1.6963744e-08
3.0546914e-07
1.6346992e-08
2.9570437e-07
1.5684031e-08
2.86253e-07
1.5157754e-08
2.7712286e-07
1.4634746e-08
2.6830484e-07
1.4124898e-08
2.5978495e-07
1.3636815e-08
2.5154958e-07
1.317112e-08
2.4358531e-07
1.2727624e-08
2.3588069e-07
1.2303409e-08
2.2842478e-07
1.1897635e-08
2.2120583e-07
1.1511304e-08
2.1421028e-07
1.1146726e-08
2.0743203e-07
1.0793086e-08
2.0086206e-07
1.0454247e-08
1.9449021e-07
1.0131993e-08
1.8830655e-07
9.8259294e-09
1.8230447e-07
9.5318403e-09
1.7650107e-07
9.2118799e-09
1.7084473e-07
8.9681109e-09
1.6534474e-07
8.7165654e-09
1.5999805e-07
8.4689235e-09
1.5479875e-07
8.2303093e-09
1.4974104e-07
8.0011337e-09
1.4481918e-07
7.7814071e-09
1.4002737e-07
7.5710801e-09
1.3536033e-07
7.3692415e-09
1.3081188e-07
7.1766731e-09
1.2637236e-07
7.0040899e-09
1.2204613e-07
6.8192548e-09
1.178173e-07
6.6643357e-09
1.1369594e-07
6.4909343e-09
1.0967395e-07
6.3324529e-09
1.0574505e-07
6.1847556e-09
1.0188142e-07
6.0423737e-09
9.8119344e-08
5.9081038e-09
9.4471354e-08
5.7594842e-09
9.0869938e-08
5.6487365e-09
8.7340385e-08
5.5335582e-09
8.388257e-08
5.420256e-09
8.0493257e-08
5.3110858e-09
7.7169293e-08
5.2065236e-09
7.3907572e-08
5.1067606e-09
7.0705073e-08
5.0117412e-09
6.7558937e-08
4.9212458e-09
6.4465565e-08
4.8362469e-09
6.1421039e-08
4.7598014e-09
5.8426261e-08
4.6785799e-09
5.5477847e-08
4.6043079e-09
5.25724e-08
4.5355176e-09
4.9707489e-08
4.4705855e-09
4.6881469e-08
4.4082208e-09
4.4096551e-08
4.342653e-09
4.1340734e-08
4.2951396e-09
3.8615646e-08
4.2453724e-09
3.5920026e-08
4.1974887e-09
3.3259139e-08
4.1534419e-09
3.0617213e-08
4.111976e-09
2.7999003e-08
4.0746562e-09
2.5402849e-08
4.04041e-09
2.2826382e-08
4.0091687e-09
2.0267529e-08
3.9820722e-09
1.772032e-08
3.9578844e-09
1.5190332e-08
3.9361933e-09
1.2673483e-08
3.9152678e-09
1.0166951e-08
3.8993139e-09
7.6803895e-09
3.8725718e-09
5.2443521e-09
3.7931932e-09
2.9598462e-09
3.557844e-09
1.0580846e-09
2.9519049e-09
1.6408982e-09
3.2173227e-08
-9.4563719e-08
7.1710698e-08
-1.1476626e-07
1.1218014e-07
-1.1745313e-07
1.5280573e-07
-1.1801988e-07
1.9352719e-07
-1.1835208e-07
2.3436359e-07
-1.1871077e-07
2.753391e-07
-1.1913805e-07
3.1647872e-07
-1.1964246e-07
3.5780782e-07
-1.2022628e-07
3.993514e-07
-1.2089049e-07
4.4113558e-07
-1.2163469e-07
4.8319555e-07
-1.2245697e-07
5.2555787e-07
-1.2336079e-07
5.6824903e-07
-1.2434889e-07
6.1129701e-07
-1.2542303e-07
6.5473077e-07
-1.2658473e-07
6.9857998e-07
-1.2783568e-07
7.4287481e-07
-1.2917763e-07
7.8764596e-07
-1.3061236e-07
8.3292462e-07
-1.3214153e-07
8.7874242e-07
-1.3376681e-07
9.2513156e-07
-1.3548989e-07
9.7212477e-07
-1.373126e-07
1.0197555e-06
-1.3923684e-07
1.0680576e-06
-1.4126446e-07
1.1170659e-06
-1.4339762e-07
1.1668157e-06
-1.4563822e-07
1.2173436e-06
-1.4798846e-07
1.2686845e-06
-1.5044975e-07
1.3208808e-06
-1.5302581e-07
1.3739576e-06
-1.557135e-07
1.4279864e-06
-1.5852883e-07
1.4829314e-06
-1.6143513e-07
1.5389923e-06
-1.6453018e-07
1.5959036e-06
-1.6758925e-07
1.6542314e-06
-1.7111065e-07
1.7132471e-06
-1.7407385e-07
1.7738886e-06
-1.784621e-07
1.8355423e-06
-1.8063161e-07
1.8980716e-06
-1.8703669e-07
1.9629242e-06
-1.8667203e-07
2.0280546e-06
-1.9743108e-07
2.0943384e-06
-1.9239992e-07
2.1647854e-06
-2.0732356e-07
2.2320465e-06
-2.0282588e-07
2.3045475e-06
-2.1072553e-07
2.3787478e-06
-2.1930669e-07
2.4512073e-06
-2.1709547e-07
2.5273115e-06
-2.2485805e-07
2.6069794e-06
-2.3423506e-07
2.6862846e-06
-2.3439633e-07
2.7655955e-06
-2.3835959e-07
2.8492142e-06
-2.4888668e-07
2.9360826e-06
-2.5351132e-07
3.0230159e-06
-2.5715791e-07
3.1094904e-06
-2.6139689e-07
3.1996545e-06
-2.7011135e-07
3.294528e-06
-2.7771137e-07
3.3908896e-06
-2.823068e-07
3.4857838e-06
-2.8550889e-07
3.583099e-06
-2.9365153e-07
3.6841579e-06
-3.0102892e-07
3.7887003e-06
-3.0728973e-07
3.8954371e-06
-3.1427056e-07
4.0023117e-06
-3.1936684e-07
4.1110561e-06
-3.2632222e-07
4.2223289e-06
-3.3232468e-07
4.3353429e-06
-3.3718273e-07
4.4514477e-06
-3.4563125e-07
4.5717628e-06
-3.5482754e-07
4.6943473e-06
-3.6084204e-07
4.8172267e-06
-3.6499867e-07
4.9405001e-06
-3.6984078e-07
5.0650485e-06
-3.7589051e-07
5.192554e-06
-3.8303403e-07
5.3236707e-06
-3.8902624e-07
5.4577672e-06
-3.9386812e-07
5.5943437e-06
-4.0037404e-07
5.7333015e-06
-4.0917592e-07
5.8739159e-06
-4.1744706e-07
6.0142407e-06
-4.2067407e-07
6.1524241e-06
-4.175199e-07
6.289105e-06
-4.131353e-07
6.4280158e-06
-4.148795e-07
6.573156e-06
-4.2498205e-07
6.7245224e-06
-4.371987e-07
6.8786379e-06
-4.4485784e-07
7.0306953e-06
-4.4466795e-07
7.1782885e-06
-4.382045e-07
7.3215446e-06
-4.2948325e-07
7.462778e-06
-4.2227827e-07
7.6047134e-06
-4.1717825e-07
7.7467103e-06
-4.1172453e-07
7.8863689e-06
-4.0302279e-07
8.0214172e-06
-3.9262027e-07
8.1522866e-06
-3.872158e-07
8.283294e-06
-3.9067624e-07
8.4195817e-06
-3.97411e-07
8.5593481e-06
-3.9232865e-07
8.6909383e-06
-3.6105501e-07
8.8022247e-06
-3.0563651e-07
8.8922384e-06
-2.4839532e-07
8.9709361e-06
-2.135447e-07
9.0501961e-06
-2.0902476e-07
9.1335658e-06
-2.2574182e-07
9.2169325e-06
-2.482541e-07
9.2965007e-06
-2.5960737e-07
9.3714301e-06
-2.4045937e-07
9.4373778e-06
-1.8149858e-07
9.4834134e-06
-9.7531745e-08
9.5039011e-06
-1.8056188e-08
9.5055365e-06
3.3268801e-08
9.5033812e-06
4.8368194e-08
9.5067918e-06
3.903167e-08
9.5227182e-06
7.317548e-09
9.5557487e-06
-3.9528497e-08
9.5956584e-06
-7.1822907e-08
9.6275082e-06
-8.2786223e-08
9.6478814e-06
-8.1022667e-08
9.6595817e-06
-6.9242859e-08
9.6702171e-06
-5.9622005e-08
9.6852749e-06
-5.7447878e-08
9.7074323e-06
-7.0471154e-08
9.7524995e-06
-1.0759032e-07
9.8226235e-06
-1.5666762e-07
9.9050058e-06
-2.1219055e-07
9.9081348e-06
-1.8628964e-07
9.729275e-06
3.7256599e-09
9.2540957e-06
4.2221206e-07
7.9001204e-06
1.5410506e-06
6.2139245e-06
2.7633943e-06
5.3205956e-06
3.8730599e-06
4.7917592e-06
3.6928716e-06
4.5241825e-06
2.8322517e-06
4.1800824e-06
2.0498448e-06
3.8096423e-06
1.5200882e-06
3.4669767e-06
1.1657053e-06
3.1654931e-06
9.2161031e-07
2.904094e-06
7.4965935e-07
2.6786054e-06
6.2363526e-07
2.4830708e-06
5.2910535e-07
2.3114211e-06
4.5628882e-07
2.1595859e-06
3.9866558e-07
2.0244782e-06
3.5224943e-07
1.9033297e-06
3.1363274e-07
1.7940194e-06
2.8191644e-07
1.6947905e-06
2.5498494e-07
1.6042375e-06
2.3169058e-07
1.5212381e-06
2.1161531e-07
1.4449071e-06
1.9412173e-07
1.3742784e-06
1.7874506e-07
1.3090093e-06
1.6522016e-07
1.2483919e-06
1.5314416e-07
1.1918627e-06
1.4235485e-07
1.1390622e-06
1.3266787e-07
1.0896396e-06
1.2393126e-07
1.0432857e-06
1.1602032e-07
9.9972895e-07
1.0882971e-07
9.587306e-07
1.0226915e-07
9.2007112e-07
9.6275352e-08
8.8363725e-07
9.0675786e-08
8.4902788e-07
8.5770917e-08
8.1629251e-07
8.1108262e-08
7.8529322e-07
7.6750183e-08
7.5587817e-07
7.2730471e-08
7.279084e-07
6.9050359e-08
7.0133244e-07
6.5554681e-08
6.7592234e-07
6.2433571e-08
6.5177443e-07
5.9385812e-08
6.2869678e-07
5.6653945e-08
6.0671874e-07
5.4003331e-08
5.8561961e-07
5.153053e-08
5.6545911e-07
4.9257128e-08
5.4620446e-07
4.7062981e-08
5.2775632e-07
4.5035218e-08
5.1006036e-07
4.314052e-08
4.9307809e-07
4.1350563e-08
4.767724e-07
3.9657142e-08
4.6110809e-07
3.805436e-08
4.4605198e-07
3.6536913e-08
4.3157258e-07
3.5100148e-08
4.1764009e-07
3.3739447e-08
4.0422656e-07
3.2450146e-08
3.9130593e-07
3.1227742e-08
3.7885427e-07
3.0068104e-08
3.668512e-07
2.8966815e-08
3.5528096e-07
2.7917234e-08
3.4407097e-07
2.6894019e-08
3.3327421e-07
2.5954514e-08
3.2284873e-07
2.5060223e-08
3.1277038e-07
2.420325e-08
3.0302345e-07
2.338374e-08
2.9359279e-07
2.2601787e-08
2.8446313e-07
2.1857278e-08
2.7562353e-07
2.1143016e-08
2.6706329e-07
2.0457873e-08
2.5876987e-07
1.9804725e-08
2.5072177e-07
1.9194815e-08
2.4292169e-07
1.8593167e-08
2.3535692e-07
1.8019022e-08
2.2801577e-07
1.7473142e-08
2.2088973e-07
1.695197e-08
2.1397109e-07
1.6450476e-08
2.0722435e-07
1.5958628e-08
2.0068368e-07
1.5508777e-08
1.9432429e-07
1.5075955e-08
1.8813566e-07
1.4657552e-08
1.8211153e-07
1.4254444e-08
1.7624574e-07
1.3866918e-08
1.7053213e-07
1.3495022e-08
1.6496372e-07
1.3139489e-08
1.595327e-07
1.2800263e-08
1.5423296e-07
1.2476412e-08
1.4907873e-07
1.2158317e-08
1.4403362e-07
1.1864364e-08
1.3911513e-07
1.1582826e-08
1.343046e-07
1.130147e-08
1.2960231e-07
1.1034738e-08
1.2500585e-07
1.0781213e-08
1.2049902e-07
1.0549206e-08
1.1610017e-07
1.0306959e-08
1.1179014e-07
1.0069509e-08
1.0757135e-07
9.8675294e-09
1.034339e-07
9.6710039e-09
9.9376098e-08
9.4780598e-09
9.5394862e-08
9.2923224e-09
9.1486899e-08
9.114488e-09
8.764886e-08
8.9447994e-09
8.3877317e-08
8.7832849e-09
8.0168478e-08
8.6300858e-09
7.652025e-08
8.4844745e-09
7.2935358e-08
8.3446948e-09
6.9400303e-08
8.2136353e-09
6.5915903e-08
8.0887089e-09
6.2481583e-08
7.9698378e-09
5.9094416e-08
7.857753e-09
5.5751346e-08
7.7512896e-09
5.2444637e-08
7.6493619e-09
4.9180839e-08
7.5589385e-09
4.5952953e-08
7.4732591e-09
4.2758907e-08
7.3915343e-09
3.9598217e-08
7.3141317e-09
3.6464397e-08
7.2457962e-09
3.3356381e-08
7.1826713e-09
3.0273045e-08
7.1237453e-09
2.7212609e-08
7.0696044e-09
2.4171532e-08
7.0231491e-09
2.1145973e-08
6.9834433e-09
1.8138176e-08
6.9439907e-09
1.5143314e-08
6.9101306e-09
1.2164123e-08
6.8785052e-09
9.2092824e-09
6.8274142e-09
6.3114151e-09
6.6910613e-09
3.5824925e-09
6.2867667e-09
1.288134e-09
5.2462629e-09
2.9290321e-09
3.2149169e-08
-1.2671289e-07
7.1603494e-08
-1.5422059e-07
1.119928e-07
-1.5784243e-07
1.5255487e-07
-1.5858194e-07
1.9321364e-07
-1.5901086e-07
2.3398397e-07
-1.594811e-07
2.7489105e-07
-1.6004512e-07
3.1596089e-07
-1.607123e-07
3.5721962e-07
-1.6148502e-07
3.9869349e-07
-1.6236436e-07
4.4040976e-07
-1.6335096e-07
4.8239812e-07
-1.6444532e-07
5.2468671e-07
-1.6564939e-07
5.6730331e-07
-1.6696548e-07
6.1027608e-07
-1.683958e-07
6.5363381e-07
-1.6994246e-07
6.9740573e-07
-1.7160761e-07
7.4162155e-07
-1.7339345e-07
7.8631155e-07
-1.7530237e-07
8.3150676e-07
-1.7733674e-07
8.7723871e-07
-1.7949875e-07
9.2353958e-07
-1.8179077e-07
9.7044218e-07
-1.8421519e-07
1.0179799e-06
-1.8677459e-07
1.0661871e-06
-1.894716e-07
1.1150983e-06
-1.923089e-07
1.1647492e-06
-1.9528911e-07
1.2151763e-06
-1.9841553e-07
1.2664156e-06
-2.01689e-07
1.3185074e-06
-2.0511762e-07
1.3714829e-06
-2.0868904e-07
1.4253988e-06
-2.124447e-07
1.4802555e-06
-2.1629185e-07
1.5361765e-06
-2.2045115e-07
1.5930427e-06
-2.2445554e-07
1.651175e-06
-2.2924292e-07
1.7101884e-06
-2.3308726e-07
1.7706605e-06
-2.3893417e-07
1.8321551e-06
-2.4212622e-07
1.8948015e-06
-2.4968309e-07
1.959279e-06
-2.511495e-07
2.0243233e-06
-2.6247546e-07
2.0911196e-06
-2.5919616e-07
2.1601376e-06
-2.7634153e-07
2.2287953e-06
-2.7148362e-07
2.3005832e-06
-2.8251345e-07
2.3740196e-06
-2.9274312e-07
2.4473982e-06
-2.9047401e-07
2.5236909e-06
-3.0115078e-07
2.6020096e-06
-3.1255372e-07
2.6816074e-06
-3.1399421e-07
2.7621549e-06
-3.1890699e-07
2.8448298e-06
-3.3156165e-07
2.9309599e-06
-3.3964143e-07
3.0183199e-06
-3.4451787e-07
3.1057565e-06
-3.4883346e-07
3.1952318e-06
-3.5958671e-07
3.2893325e-06
-3.718121e-07
3.3865993e-06
-3.7957358e-07
3.4816371e-06
-3.8054669e-07
3.5778175e-06
-3.8983196e-07
3.6793285e-06
-4.0253987e-07
3.7856856e-06
-4.1364685e-07
3.8922433e-06
-4.2082823e-07
3.996948e-06
-4.2407154e-07
4.1046322e-06
-4.3400641e-07
4.2178061e-06
-4.4549858e-07
4.3333979e-06
-4.5277451e-07
4.4499877e-06
-4.6222112e-07
4.5691346e-06
-4.7397438e-07
4.6901126e-06
-4.8182008e-07
4.8121091e-06
-4.8699514e-07
4.9358707e-06
-4.9360241e-07
5.0619338e-06
-5.0195359e-07
5.1914626e-06
-5.1256282e-07
5.3249278e-06
-5.2249148e-07
5.4609041e-06
-5.2984442e-07
5.5971001e-06
-5.3656999e-07
5.7326787e-06
-5.447545e-07
5.8689304e-06
-5.5369877e-07
6.0075729e-06
-5.5931654e-07
6.1483948e-06
-5.5834188e-07
6.2909194e-06
-5.5565987e-07
6.4365489e-06
-5.6050905e-07
6.5865441e-06
-5.7497719e-07
6.7393047e-06
-5.8995933e-07
6.8912687e-06
-5.9682177e-07
7.0390304e-06
-5.9242969e-07
7.1811582e-06
-5.8033232e-07
7.3191736e-06
-5.6749865e-07
7.4572483e-06
-5.6035294e-07
7.6007422e-06
-5.6067217e-07
7.7524468e-06
-5.6342915e-07
7.9089026e-06
-5.5947858e-07
8.0612506e-06
-5.4496824e-07
8.2017423e-06
-5.2770749e-07
8.3299237e-06
-5.1885764e-07
8.4513649e-06
-5.1885221e-07
8.5712839e-06
-5.1224768e-07
8.6901225e-06
-4.7989364e-07
8.8031513e-06
-4.1866525e-07
8.9057711e-06
-3.5101516e-07
8.9991184e-06
-3.0689194e-07
9.0897192e-06
-2.9962562e-07
9.1812487e-06
-3.1727129e-07
9.2683194e-06
-3.3532482e-07
9.3414303e-06
-3.3271821e-07
9.3959978e-06
-2.9502691e-07
9.4341424e-06
-2.1964315e-07
9.4610419e-06
-1.2443127e-07
9.4825552e-06
-3.9569531e-08
9.5064603e-06
9.3637704e-09
9.5351898e-06
1.9638627e-08
9.5732369e-06
9.8462692e-10
9.6148341e-06
-3.4279628e-08
9.644901e-06
-6.9595446e-08
9.6581736e-06
-8.5095522e-08
9.6603781e-06
-8.4990661e-08
9.6553821e-06
-7.6026713e-08
9.6523187e-06
-6.6179409e-08
9.6563474e-06
-6.365077e-08
9.6758925e-06
-7.6992949e-08
9.7117372e-06
-1.0631584e-07
9.7701965e-06
-1.6604961e-07
9.8210139e-06
-2.0748503e-07
9.7698895e-06
-1.6106614e-07
9.4726707e-06
1.1092914e-07
8.6795933e-06
7.9680302e-07
7.3256965e-06
1.7761089e-06
5.7187113e-06
3.1480357e-06
4.4494785e-06
4.0326271e-06
4.1430424e-06
4.179496e-06
4.1707397e-06
3.6651742e-06
4.1299222e-06
2.8730691e-06
3.9342407e-06
2.2455263e-06
3.6738715e-06
1.7804575e-06
3.4045447e-06
1.4350321e-06
3.1497961e-06
1.1763589e-06
2.917693e-06
9.8176243e-07
2.7096467e-06
8.3168158e-07
2.5243456e-06
7.1440641e-07
2.3586817e-06
6.2195271e-07
2.2100277e-06
5.4731963e-07
2.0765987e-06
4.8567846e-07
1.9555305e-06
4.3470093e-07
1.8459977e-06
3.9144919e-07
1.7463267e-06
3.5465596e-07
1.6548782e-06
3.231391e-07
1.570777e-06
2.9571647e-07
1.4932298e-06
2.7166896e-07
1.4212878e-06
2.5068701e-07
1.3547274e-06
2.3178056e-07
1.2928227e-06
2.1504886e-07
1.2350101e-06
2.0016751e-07
1.1809471e-06
1.8673088e-07
1.1302904e-06
1.7458799e-07
1.0827352e-06
1.635755e-07
1.0380117e-06
1.5355322e-07
9.9587849e-07
1.4440232e-07
9.5612039e-07
1.3603345e-07
9.185359e-07
1.2826028e-07
8.8300999e-07
1.2129682e-07
8.4933778e-07
1.1478047e-07
8.1738164e-07
1.0870632e-07
7.8705431e-07
1.030578e-07
7.5817757e-07
9.7927096e-08
7.3064828e-07
9.3083975e-08
7.0451189e-07
8.8569962e-08
6.7950365e-07
8.4394049e-08
6.5575463e-07
8.0402973e-08
6.3304769e-07
7.6710266e-08
6.112276e-07
7.3350622e-08
5.9032594e-07
7.0158782e-08
5.7040117e-07
6.6987755e-08
5.5129725e-07
6.4139135e-08
5.3295747e-07
6.1480299e-08
5.1535664e-07
5.89514e-08
4.9845452e-07
5.6559252e-08
4.8221357e-07
5.4295312e-08
4.6659883e-07
5.2151657e-08
4.515775e-07
5.012148e-08
4.371189e-07
4.8198049e-08
4.2319441e-07
4.6374636e-08
4.097774e-07
4.4644744e-08
3.9684326e-07
4.3002248e-08
3.8436894e-07
4.1441131e-08
3.7233121e-07
3.9954962e-08
3.6069288e-07
3.8532356e-08
3.4945941e-07
3.7187987e-08
3.3860853e-07
3.5911103e-08
3.2811885e-07
3.4692928e-08
3.1797249e-07
3.3530098e-08
3.0815254e-07
3.2421735e-08
2.9864001e-07
3.1369813e-08
2.8942669e-07
3.0356328e-08
2.8050311e-07
2.9381457e-08
2.7185923e-07
2.8448602e-08
2.6346462e-07
2.7589428e-08
2.553288e-07
2.6728993e-08
2.4743576e-07
2.5912052e-08
2.397717e-07
2.513721e-08
2.3232788e-07
2.4395789e-08
2.2509401e-07
2.3684345e-08
2.1805342e-07
2.299922e-08
2.1121261e-07
2.2349588e-08
2.0456014e-07
2.1728419e-08
1.9808607e-07
2.1131624e-08
1.9178268e-07
2.0557836e-08
1.8564338e-07
2.0006216e-08
1.7966209e-07
1.9476314e-08
1.7383146e-07
1.8970116e-08
1.6814525e-07
1.8486474e-08
1.6259741e-07
1.8024249e-08
1.5717351e-07
1.7582222e-08
1.5188317e-07
1.7154697e-08
1.4672739e-07
1.6738605e-08
1.4168105e-07
1.6347812e-08
1.3674291e-07
1.5972875e-08
1.3191078e-07
1.5613349e-08
1.271998e-07
1.5260182e-08
1.2257415e-07
1.493261e-08
1.1803518e-07
1.4608474e-08
1.1359359e-07
1.4309123e-08
1.0924205e-07
1.4022545e-08
1.049736e-07
1.3746509e-08
1.0078443e-07
1.3481497e-08
9.6670964e-08
1.3227951e-08
9.2629822e-08
1.2985942e-08
8.8657739e-08
1.2755368e-08
8.4751679e-08
1.2536146e-08
8.0907917e-08
1.2328237e-08
7.7121558e-08
1.2131055e-08
7.3393192e-08
1.1942001e-08
6.9719547e-08
1.1762354e-08
6.6096713e-08
1.1592672e-08
6.252194e-08
1.1432526e-08
5.8992003e-08
1.1281227e-08
5.550278e-08
1.1138585e-08
5.2055214e-08
1.1006505e-08
4.8645711e-08
1.0882762e-08
4.5270874e-08
1.0766371e-08
4.1928036e-08
1.0656971e-08
3.8615255e-08
1.0558577e-08
3.5330254e-08
1.0467672e-08
3.2070256e-08
1.0383743e-08
2.8833233e-08
1.0306627e-08
2.561673e-08
1.0239651e-08
2.2420445e-08
1.0179729e-08
1.9238716e-08
1.012572e-08
1.6071182e-08
1.0077667e-08
1.2919272e-08
1.0030416e-08
9.7907526e-09
9.9559346e-09
6.720727e-09
9.7610873e-09
3.8214451e-09
9.1860486e-09
1.3746809e-09
7.693027e-09
4.3037131e-09
3.2099144e-08
-1.5881203e-07
7.1454722e-08
-1.9357616e-07
1.1173769e-07
-1.981254e-07
1.5219582e-07
-1.9904007e-07
1.927513e-07
-1.9956635e-07