/*--------------------------------*- C++ -*----------------------------------*\
| =========                 |                                                 |
| \\      /  F ield         | OpenFOAM: The Open Source CFD Toolbox           |
|  \\    /   O peration     | Version:  2106                                  |
|   \\  /    A nd           | Website:  www.openfoam.com                      |
|    \\/     M anipulation  |                                                 |
\*---------------------------------------------------------------------------*/
FoamFile
{
    version     2.0;
    format      ascii;
    arch        "LSB;label=32;scalar=64";
    class       volScalarField;
    location    "0.008";
    object      p_rgh;
}
// * * * * * * * * * * * * * * * * * * * * * * * * * * * * * * * * * * * * * //

dimensions      [1 -1 -2 0 0 0 0];

internalField   nonuniform List<scalar> 
4096
(
16.286275
16.128483
15.814449
15.347258
14.731495
13.9732
13.079806
12.060058
10.923928
9.6825129
8.3479182
6.9331402
5.4519345
3.9186798
2.348236
0.75578917
-0.84332373
-2.4335906
-3.9997458
-5.5268249
-7.0001503
-8.405637
-9.7298814
-10.96028
-12.085145
-13.093816
-13.97675
-14.725608
-15.333331
-15.794194
-16.103864
-16.25943
-16.25943
-16.103864
-15.794194
-15.333331
-14.725608
-13.97675
-13.093816
-12.085145
-10.96028
-9.7298813
-8.405637
-7.0001503
-5.5268249
-3.9997458
-2.4335906
-0.84332374
0.75578917
2.348236
3.9186798
5.4519345
6.9331402
8.3479182
9.6825129
10.923928
12.060058
13.079806
13.9732
14.731495
15.347258
15.814449
16.128483
16.286275
16.433033
16.273815
15.956943
15.48553
14.8642
14.099049
13.197575
12.168603
11.022196
9.7695505
8.4228841
6.9953126
5.5007177
3.9536095
2.3689826
0.76216531
-0.85133676
-2.4559539
-4.0362374
-5.5770563
-7.063637
-8.4817686
-9.8179263
-11.059394
-12.194381
-13.21213
-14.103012
-14.858614
-15.47181
-15.936826
-16.249286
-16.406254
-16.406254
-16.249286
-15.936826
-15.47181
-14.858614
-14.103012
-13.21213
-12.194381
-11.059394
-9.8179263
-8.4817686
-7.063637
-5.5770563
-4.0362374
-2.4559539
-0.85133676
0.76216531
2.3689826
3.9536095
5.5007177
6.9953126
8.4228841
9.7695505
11.022196
12.168603
13.197575
14.099049
14.8642
15.48553
15.956943
16.273815
16.433033
16.739878
16.577668
16.254842
15.774571
15.141568
14.362045
13.44364
12.395349
11.227424
9.9512755
8.5793535
7.1250226
5.6024281
4.026355
2.412081
0.77522486
-0.86840794
-2.5029698
-4.1127324
-5.6822568
-7.1965074
-8.6410123
-10.001998
-11.266515
-12.422558
-13.459175
-14.366563
-15.136156
-15.760701
-16.234321
-16.552561
-16.712431
-16.712431
-16.552561
-16.234321
-15.760701
-15.136156
-14.366563
-13.459175
-12.422558
-11.266515
-10.001998
-8.6410123
-7.1965074
-5.6822568
-4.1127324
-2.5029698
-0.86840794
0.77522486
2.412081
4.026355
5.6024281
7.1250226
8.5793535
9.9512755
11.227424
12.395349
13.44364
14.362045
15.141568
15.774571
16.254842
16.577668
16.739878
17.207898
17.04112
16.709203
16.21541
15.564588
14.763125
13.818881
12.741105
11.540345
10.228335
8.8178807
7.3227259
5.7574182
4.137162
2.4776674
0.79499521
-0.89460157
-2.5748329
-4.2295347
-5.8428281
-7.3992628
-8.8839671
-10.282789
-11.582424
-12.770542
-13.835894
-14.768413
-15.559305
-16.201125
-16.687837
-17.014871
-17.179158
-17.179158
-17.014871
-16.687837
-16.201125
-15.559305
-14.768413
-13.835894
-12.770542
-11.582424
-10.282789
-8.8839671
-7.3992628
-5.8428281
-4.2295347
-2.5748329
-0.89460156
0.79499521
2.4776674
4.137162
5.7574182
7.3227259
8.8178807
10.228335
11.540345
12.741105
13.818881
14.763125
15.564588
16.21541
16.709203
17.04112
17.207898
17.840827
17.667868
17.32365
16.811558
16.136625
15.305478
14.326273
13.208608
11.963426
10.602903
9.1403236
7.589947
5.9668645
4.2868479
2.5661928
0.82155741
-0.93020157
-2.6721927
-4.3876565
-6.0601283
-7.673593
-9.2126384
-10.6626
-12.009697
-13.241157
-14.345332
-15.311803
-16.131466
-16.796617
-17.301012
-17.639922
-17.810174
-17.810174
-17.639922
-17.301012
-16.796617
-16.131466
-15.311802
-14.345332
-13.241157
-12.009697
-10.6626
-9.2126384
-7.673593
-6.0601283
-4.3876565
-2.6721927
-0.93020157
0.82155741
2.5661928
4.2868479
5.9668645
7.589947
9.1403236
10.602903
11.963426
13.208608
14.326273
15.305478
16.136625
16.811558
17.32365
17.667868
17.840827
18.644777
18.463961
18.104108
17.56876
16.863182
15.994309
14.970674
13.802317
12.500686
11.078518
9.5497066
7.9291664
6.2326798
4.4767398
2.6783864
0.85503713
-0.97568432
-2.7961208
-4.5887548
-6.3363792
-8.0222608
-9.6303005
-11.145184
-12.552525
-13.838993
-14.992436
-16.001986
-16.858151
-17.5529
-18.079725
-18.4337
-18.611517
-18.611517
-18.4337
-18.079725
-17.5529
-16.858151
-16.001986
-14.992436
-13.838993
-12.552525
-11.145184
-9.6303005
-8.0222608
-6.3363792
-4.5887548
-2.7961208
-0.97568432
0.85503713
2.6783864
4.4767398
6.2326798
7.9291664
9.5497066
11.078518
12.500686
13.802317
14.970674
15.994309
16.863182
17.56876
18.104108
18.463961
18.644777
19.627515
19.437088
19.058109
18.494313
17.751251
16.836233
15.758253
14.527897
13.157228
11.65967
10.049865
8.3435263
6.5572834
4.7085119
2.815162
0.89558048
-1.0316705
-2.9479961
-4.8349513
-6.6744209
-8.4487937
-10.141131
-11.735325
-13.216251
-14.569898
-15.783501
-16.845646
-17.746371
-18.477247
-19.031448
-19.403808
-19.590858
-19.590858
-19.403808
-19.031448
-18.477247
-17.746371
-16.845646
-15.783501
-14.569898
-13.216251
-11.735325
-10.141131
-8.4487937
-6.6744209
-4.8349513
-2.9479961
-1.0316705
0.89558048
2.815162
4.7085119
6.5572834
8.3435263
10.049865
11.65967
13.157228
14.527897
15.758253
16.836233
17.751251
18.494313
19.058109
19.437088
19.627515
20.798473
20.596583
20.194797
19.597076
18.809314
17.839271
16.696493
15.392214
13.939235
12.351799
10.645439
8.8368253
6.9435954
4.9841777
2.9776084
0.94334284
-1.0989374
-3.1295181
-5.1288475
-7.0777276
-8.9575001
-10.750226
-12.438854
-14.007379
-15.440987
-16.726182
-17.850908
-18.804644
-19.578494
-20.165257
-20.559482
-20.757512
-20.757512
-20.559482
-20.165257
-19.578494
-18.804644
-17.850908
-16.726182
-15.440987
-14.007379
-12.438854
-10.750226
-8.9575001
-7.0777276
-5.1288475
-3.1295181
-1.0989374
0.94334283
2.9776084
4.9841777
6.9435954
8.8368253
10.645439
12.351799
13.939235
15.392214
16.696493
17.839271
18.809314
19.597076
20.194797
20.596583
20.798473
22.168875
21.953558
21.525051
20.887588
20.047464
19.012966
17.79429
16.403428
14.85405
13.161358
11.341932
9.4135614
7.3950652
5.3061055
3.1669912
0.99847638
-1.178445
-3.3427464
-5.4735783
-7.5504733
-9.5535468
-11.463689
-13.262745
-14.933686
-16.460756
-17.829616
-19.02746
-20.043123
-20.867167
-21.491956
-21.911714
-22.122565
-22.122565
-21.911714
-21.491956
-20.867167
-20.043123
-19.02746
-17.829616
-16.460756
-14.933686
-13.262745
-11.463689
-9.5535468
-7.5504733
-5.4735783
-3.3427464
-1.178445
0.99847638
3.1669912
5.3061055
7.3950652
9.4135614
11.341932
13.161358
14.85405
16.403428
17.79429
19.012966
20.047464
20.887588
21.525051
21.953558
22.168875
23.75185
23.521003
23.061595
22.378173
21.477497
20.368467
19.062031
17.571064
15.910239
14.095871
12.14575
10.078961
7.9156893
5.6770245
3.3847461
1.0611112
-1.2713677
-3.5901446
-5.8728671
-8.0975984
-10.243035
-12.288714
-14.21521
-16.004312
-17.639186
-19.104524
-20.386664
-21.473705
-22.355592
-23.024196
-23.47337
-23.69899
-23.69899
-23.47337
-23.024196
-22.355592
-21.473705
-20.386664
-19.104524
-17.639186
-16.004312
-14.21521
-12.288714
-10.243035
-8.0975984
-5.8728671
-3.5901446
-1.2713677
1.0611112
3.3847461
5.6770245
7.9156893
10.078961
12.14575
14.095871
15.910239
17.571064
19.062031
20.368467
21.477497
22.378173
23.061595
23.521003
23.75185
25.562546
25.31391
24.819105
24.083039
23.113009
21.918619
20.51168
18.906082
17.117651
15.163977
13.064238
10.839003
8.5100243
6.1000236
3.6324653
1.1313277
-1.3791355
-3.874635
-6.3310937
-8.7248891
-11.033091
-13.233689
-15.305803
-17.229878
-18.987857
-20.56333
-21.941672
-23.11015
-24.058018
-24.776592
-25.259309
-25.501771
-25.501771
-25.259309
-24.776592
-24.058018
-23.11015
-21.941672
-20.56333
-18.987857
-17.229878
-15.305803
-13.233689
-11.033091
-8.7248891
-6.3310937
-3.874635
-1.3791355
1.1313277
3.6324653
6.1000236
8.5100243
10.839003
13.064238
15.163977
17.117651
18.906082
20.51168
21.918619
23.113009
24.083039
24.819105
25.31391
25.562546
27.61826
27.349393
26.814335
26.018405
24.969513
23.678067
22.156866
20.420958
18.487481
16.375482
14.105717
11.700444
9.183195
6.5785453
3.9118745
1.2091179
-1.5034888
-4.19967
-6.8533817
-9.4390789
-11.931979
-14.308312
-16.545551
-18.622622
-20.520088
-22.220308
-23.707576
-24.968233
-25.990764
-26.765871
-27.286532
-27.548042
-27.548042
-27.286532
-26.765871
-25.990764
-24.968233
-23.707576
-22.220308
-20.520088
-18.622622
-16.545551
-14.308312
-11.931979
-9.4390789
-6.8533817
-4.19967
-1.5034888
1.2091179
3.9118745
6.5785453
9.183195
11.700444
14.105717
16.375482
18.487481
20.420958
22.156866
23.678067
24.969513
26.018405
26.814335
27.349393
27.61826
29.938584
29.646836
29.066252
28.202622
27.064551
25.663364
24.01298
22.129763
20.032342
17.741413
15.279523
12.670836
9.9408944
7.1163681
4.2247978
1.2943308
-1.6465536
-4.5693266
-7.445711
-10.247979
-12.949247
-15.523755
-17.947121
-20.196568
-22.251115
-24.091753
-25.701578
-27.065912
-28.172392
-29.011046
-29.574349
-29.857264
-29.857264
-29.574349
-29.011046
-28.172392
-27.065912
-25.701578
-24.091753
-22.251115
-20.196568
-17.947121
-15.523755
-12.949247
-10.247979
-7.4457109
-4.5693266
-1.6465536
1.2943308
4.2247978
7.1163681
9.9408944
12.670836
15.279523
17.741413
20.032342
22.129763
24.01298
25.663364
27.064551
28.202622
29.066252
29.646836
29.938584
32.545557
32.228041
31.596187
30.656318
29.417829
27.893082
26.097271
24.048245
21.766323
19.274062
16.596027
13.75853
10.789372
7.7175741
4.5731043
1.3865967
-1.8109398
-4.988429
-8.1150636
-11.160642
-14.095906
-16.892854
-19.525022
-21.967733
-24.198298
-26.196194
-27.943206
-29.423538
-30.623908
-31.533613
-32.144584
-32.451423
-32.451423
-32.144584
-31.533613
-30.623908
-29.423538
-27.943206
-26.196194
-24.198298
-21.967733
-19.525022
-16.892853
-14.095906
-11.160642
-8.1150636
-4.988429
-1.8109398
1.3865967
4.5731043
7.7175741
10.789372
13.75853
16.596027
19.274062
21.766323
24.048245
26.097271
27.893082
29.417829
30.656318
31.596187
32.228041
32.545557
35.463833
35.117388
34.42798
33.402534
32.051339
30.387932
28.428943
26.193907
23.705045
20.987016
18.066649
14.972668
11.735402
8.3864965
4.9586317
1.4852251
-1.9998723
-5.4627088
-8.8696119
-12.187578
-15.384665
-18.430352
-21.295854
-23.954385
-26.381373
-28.554644
-30.454553
-32.064099
-33.369008
-34.357794
-35.021806
-35.35526
-35.35526
-35.021806
-34.357794
-33.369008
-32.064099
-30.454553
-28.554644
-26.381373
-23.954385
-21.295854
-18.430352
-15.384665
-12.187578
-8.8696119
-5.4627088
-1.9998723
1.4852251
4.9586317
8.3864965
11.735402
14.972668
18.066649
20.987016
23.705045
26.193907
28.428943
30.387932
32.051339
33.402534
34.42798
35.117388
35.463833
38.720838
38.341997
37.588138
36.466869
34.989489
33.170861
31.029241
28.586066
25.865702
22.895171
19.703849
16.323153
12.786229
9.1276415
5.3830822
1.5890694
-2.2173611
-5.9990124
-9.718961
-13.341022
-16.830221
-20.153212
-23.278626
-26.177353
-28.822769
-31.190906
-33.260584
-35.013512
-36.434361
-37.510814
-38.233608
-38.596554
-38.596554
-38.233608
-37.510814
-36.434361
-35.013512
-33.260584
-31.190906
-28.822769
-26.177353
-23.278626
-20.153212
-16.830221
-13.341022
-9.718961
-5.9990124
-2.2173611
1.5890694
5.3830822
9.1276415
12.786229
16.323153
19.703849
22.895171
25.865702
28.586066
31.029241
33.170861
34.989489
36.466869
37.588138
38.341997
38.720838
42.346932
41.931877
41.105978
39.87761
38.259214
36.267154
33.921522
31.245898
28.267074
25.01473
21.521093
17.820588
13.949486
9.9455808
5.8478864
1.6963556
-2.4684175
-6.6055663
-10.674461
-14.635288
-18.449637
-22.080997
-25.495141
-28.660419
-31.547983
-34.131944
-36.389491
-38.30097
-39.849947
-41.023237
-41.810939
-42.206443
-42.206443
-41.810939
-41.023237
-39.849947
-38.30097
-36.389491
-34.131944
-31.547983
-28.660419
-25.495141
-22.080997
-18.449637
-14.635288
-10.674461
-6.6055663
-2.4684175
1.6963556
5.8478864
9.9455808
13.949486
17.820588
21.521093
25.01473
28.267074
31.245898
33.921522
36.267154
38.259214
39.87761
41.105978
41.931877
42.346932
46.375548
45.920066
45.013751
43.665845
41.890077
39.704505
37.131298
34.196462
30.929523
27.363154
23.532783
19.476183
15.233083
10.844818
6.3540404
1.8044761
-2.7593174
-7.2923083
-11.749601
-16.087206
-20.262808
-24.236357
-27.970481
-31.430782
-34.586034
-37.40832
-39.873117
-41.959359
-43.649465
-44.929361
-45.78849
-46.219814
-46.219814
-45.78849
-44.929361
-43.649465
-41.959359
-39.873117
-37.40832
-34.586034
-31.430782
-27.970481
-24.236357
-20.262808
-16.087206
-11.749601
-7.2923083
-2.7593174
1.8044761
6.3540405
10.844818
15.233083
19.476183
23.532783
27.363154
30.929523
34.196462
37.131298
39.704505
41.890077
43.665845
45.013751
45.920066
46.375548
50.843312
50.342746
49.346754
47.865556
45.914337
43.513069
40.686268
37.462688
33.874948
29.959101
25.754166
21.301644
16.645073
11.829642
6.9019333
1.9097684
-3.0979027
-8.0712857
-12.960498
-17.716678
-22.293048
-26.645613
-30.733582
-34.51962
-37.970005
-41.054713
-43.747463
-46.025741
-47.870806
-49.267684
-50.205159
-50.675763
-50.675763
-50.205159
-49.267684
-47.870806
-46.025741
-43.747463
-41.054713
-37.970005
-34.51962
-30.733582
-26.645613
-22.293048
-17.716678
-12.960498
-8.0712857
-3.0979027
1.9097684
6.9019333
11.829642
16.645073
21.301644
25.754166
29.959101
33.874948
37.462688
40.686268
43.513069
45.914337
47.865556
49.346754
50.342746
50.843312
55.790138
55.23933
54.143408
52.513693
50.36701
47.725494
44.616322
41.071361
37.126741
32.822342
28.201227
23.309054
18.193534
12.904006
7.4912111
2.0073244
-3.4938817
-8.9571052
-14.326483
-19.547346
-24.567789
-29.339458
-33.817904
-37.96273
-41.737651
-45.110507
-48.053245
-50.541907
-52.556594
-54.081441
-55.10458
-55.618121
-55.618121
-55.10458
-54.081441
-52.556594
-50.541907
-48.053245
-45.110507
-41.737651
-37.96273
-33.817904
-29.339458
-24.567789
-19.547346
-14.326483
-8.9571052
-3.4938817
2.0073244
7.4912111
12.904006
18.193534
23.309054
28.201227
32.822342
37.126741
41.071361
44.616322
47.725494
50.36701
52.513693
54.143408
55.23933
55.790138
61.25931
60.652549
59.445341
57.650245
55.285931
52.376976
48.953567
45.051114
40.709747
35.973699
30.890614
25.510795
19.886516
14.071507
8.1207741
2.0909343
-3.9590451
-9.9673842
-15.870758
-21.607364
-27.119378
-32.353725
-37.262162
-41.80121
-45.932046
-49.620408
-52.83651
-55.554977
-57.754783
-59.419195
-60.535717
-61.096049
-61.096049
-60.535717
-59.419195
-57.754783
-55.554977
-52.83651
-49.620408
-45.932046
-41.80121
-37.262162
-32.353725
-27.119378
-21.607364
-15.870758
-9.9673842
-3.9590451
2.0909343
8.1207741
14.071507
19.886516
25.510795
30.890614
35.973699
40.709747
45.051114
48.953567
52.376976
55.285931
57.650245
59.445341
60.652549
61.25931
67.297603
66.628568
65.29751
63.318367
60.71188
57.50537
53.732438
49.432523
44.650331
39.435089
33.83967
27.919609
21.732164
15.335621
8.7890933
2.1533697
-4.5072222
-11.123101
-17.621086
-23.930232
-29.985916
-35.730155
-41.111013
-46.08209
-50.602176
-54.635027
-58.149204
-61.11798
-63.519245
-65.335438
-66.553467
-67.164647
-67.164648
-66.553467
-65.335438
-63.519245
-61.11798
-58.149204
-54.635027
-50.602176
-46.08209
-41.111013
-35.730155
-29.985916
-23.930232
-17.621086
-11.123101
-4.5072222
2.1533697
8.7890933
15.335621
21.732164
27.919609
33.83967
39.435089
44.650331
49.432523
53.732438
57.50537
60.71188
63.318367
65.29751
66.628568
67.297603
73.955533
73.217252
71.748476
69.564677
66.688895
63.151525
58.990021
54.248413
48.976669
43.229793
37.066707
30.548928
23.739209
16.700434
9.495196
2.1874087
-5.1536406
-12.448645
-19.610395
-26.55558
-33.211972
-39.516985
-45.415527
-50.858732
-55.803324
-60.211275
-64.049609
-67.290319
-69.910265
-71.89111
-73.219199
-73.885496
-73.885496
-73.219199
-71.89111
-69.910265
-67.290319
-64.049609
-60.211275
-55.803324
-50.858732
-45.415527
-39.516985
-33.211972
-26.55558
-19.610395
-12.448645
-5.1536406
2.1874087
9.495196
16.700434
23.739209
30.548928
37.066707
43.229793
48.976669
54.248413
58.990021
63.151525
66.688895
69.564677
71.748476
73.217252
73.955533
81.287924
80.472735
78.851015
76.439905
73.264975
69.360018
64.766817
59.534622
53.719478
47.383148
40.591691
33.413642
25.917978
18.172177
10.240828
2.1883171
-5.9130309
-13.971227
-21.877166
-29.529734
-36.848936
-43.769034
-50.233116
-56.190714
-61.596978
-66.412346
-70.602401
-74.137923
-76.994766
-79.153869
-80.601054
-81.326978
-81.326978
-80.601054
-79.153869
-76.994766
-74.137923
-70.602401
-66.412346
-61.596978
-56.190714
-50.233116
-43.769034
-36.848936
-29.529734
-21.877166
-13.971227
-5.9130309
2.1883171
10.240828
18.172177
25.917978
33.413642
40.591691
47.383148
53.719478
59.534622
64.766817
69.360018
73.264975
76.439905
78.851015
80.472735
81.287924
89.355027
88.45458
86.663327
84.000187
80.493454
76.180606
71.108241
65.331497
58.913472
51.92393
44.437548
36.531394
28.281886
19.761408
11.033974
2.1585281
-6.7954763
-15.719274
-24.465618
-32.90598
-40.954706
-48.546876
-55.62648
-62.142775
-68.04991
-73.306974
-77.878095
-81.732831
-84.846001
-87.197876
-88.773784
-89.56414
-89.56414
-88.773784
-87.197876
-84.846001
-81.732831
-77.878095
-73.306974
-68.04991
-62.142775
-55.62648
-48.546876
-40.954706
-32.90598
-24.465618
-15.719274
-6.7954763
2.1585281
11.033974
19.761408
28.281886
36.531394
44.437548
51.92393
58.913472
65.331497
71.108241
76.180606
80.493454
84.000187
86.663327
88.45458
89.355027
98.224567
97.229863
95.251235
92.309392
88.435485
83.670838
78.067318
71.686601
64.599964
56.886759
48.632385
39.924802
30.849599
21.485405
11.893326
2.114922
-7.7994115
-17.720085
-27.426553
-36.744813
-45.592447
-53.914585
-61.661042
-68.782383
-75.23205
-80.967655
-85.951545
-90.151946
-93.542468
-96.102822
-97.817836
-98.677811
-98.677811
-97.817836
-96.102822
-93.542468
-90.151946
-85.951545
-80.967655
-75.23205
-68.782383
-61.661042
-53.914585
-45.592447
-36.744813
-27.426553
-17.720085
-7.7994115
2.114922
11.893326
21.485405
30.849599
39.924802
48.632385
56.886759
64.599964
71.686601
78.067318
83.670838
88.435485
92.309392
95.251235
97.229863
98.224567
107.97534
106.8768
104.69196
101.44309
97.164242
91.900446
85.70923
78.659238
70.831191
62.316034
53.213157
43.626546
33.65585
23.386797
12.869108
2.1071138
-8.8988707
-19.996583
-30.819805
-41.113247
-50.826815
-59.934871
-68.400191
-76.175539
-83.212966
-89.467756
-94.89951
-99.474956
-103.16603
-105.95221
-107.8177
-108.753
-108.753
-107.8177
-105.95221
-103.16603
-99.474956
-94.89951
-89.467756
-83.212966
-76.175539
-68.400191
-59.934871
-50.826815
-41.113247
-30.819805
-19.996583
-8.8988707
2.1071138
12.869108
23.386797
33.65585
43.626546
53.213157
62.316034
70.831191
78.659238
85.70923
91.900446
97.164242
101.44309
104.69196
106.8768
107.97534
118.70262
117.48981
115.07923
111.49389
106.77068
100.95743
94.117706
86.326849
77.676269
68.270573
58.227037
47.672793
36.731307
25.511472
14.047307
2.2575297
-10.000605
-22.553635
-34.711945
-46.075242
-56.711219
-66.658251
-75.89671
-84.380053
-92.056562
-98.877291
-104.79711
-109.78134
-113.79918
-116.83087
-118.85951
-119.87662
-119.87662
-118.85951
-116.83087
-113.79918
-109.78134
-104.79711
-98.877291
-92.056562
-84.380053
-75.89671
-66.658251
-56.711219
-46.075242
-34.711945
-22.553635
-10.000605
2.2575297
14.047307
25.511472
36.731307
47.672793
58.227037
68.270573
77.676269
86.326849
94.117706
100.95743
106.77068
111.49389
115.07923
117.48981
118.70262
130.5204
129.18087
126.52487
122.57357
117.3664
110.95164
103.39947
94.790112
85.2266
74.828937
63.736747
52.11243
40.119478
27.92569
15.561561
2.7881458
-10.908959
-25.3744
-39.192552
-51.702857
-63.283986
-74.109204
-84.180167
-93.434828
-101.812
-109.25484
-115.7105
-121.14336
-125.51832
-128.81832
-131.02454
-132.13091
-132.13091
-131.02454
-128.81832
-125.51832
-121.14336
-115.7105
-109.25484
-101.812
-93.434828
-84.180167
-74.109204
-63.283986
-51.702857
-39.192552
-25.3744
-10.908959
2.7881458
15.561561
27.92569
40.119478
52.11243
63.736747
74.828937
85.2266
94.790112
103.39947
110.95164
117.3664
122.57357
126.52487
129.18087
130.5204
143.54973
142.07175
139.15397
134.80986
129.08129
122.01398
113.68449
104.1748
93.598731
82.092232
69.821015
57.000751
43.868103
30.725177
17.629541
4.1198847
-11.147592
-28.397281
-44.407861
-58.104713
-70.586325
-82.294078
-93.251675
-103.35114
-112.50401
-120.6371
-127.6852
-133.61337
-138.37983
-141.97401
-144.37349
-145.57728
-145.57728
-144.37349
-141.97401
-138.37983
-133.61337
-127.6852
-120.6371
-112.50401
-103.35114
-93.251675
-82.294078
-70.586325
-58.104713
-44.407861
-28.397281
-11.147592
4.1198847
17.629541
30.725177
43.868103
57.000751
69.821015
82.092232
93.598731
104.1748
113.68449
122.01398
129.08129
134.80986
139.15397
142.07175
143.54973
157.93106
156.33373
153.15135
148.39248
142.11005
134.34147
125.1712
114.67553
102.97528
90.217743
76.587925
62.380804
47.965025
33.977763
20.55026
6.6648789
-10.911123
-32.351108
-51.508866
-65.638513
-78.656009
-91.182058
-103.10017
-114.14376
-124.16573
-133.07799
-140.77656
-147.26074
-152.44658
-156.36903
-158.97107
-160.28319
-160.28319
-158.97107
-156.36903
-152.44658
-147.26074
-140.77656
-133.07799
-124.16573
-114.14376
-103.10017
-91.182058
-78.656009
-65.638513
-51.508866
-32.351108
-10.911123
6.6648789
20.55026
33.977763
47.965025
62.380804
76.587925
90.217743
102.97528
114.67553
125.1712
134.34147
142.11005
148.39248
153.15135
156.33373
157.93106
174.15135
172.41385
168.95585
163.73627
156.89183
148.35213
138.29525
126.70906
113.74861
99.552784
84.222718
68.254688
51.98255
37.283626
25.325649
17.392175
-17.89581
-51.790875
-55.856252
-59.081552
-65.529628
-72.302153
-78.351683
-83.596534
-87.681366
-91.063166
-93.457246
-95.38282
-96.603413
-97.533928
-98.019602
-98.289024
-98.289024
-98.019602
-97.533928
-96.603413
-95.38282
-93.457246
-91.063166
-87.681366
-83.596534
-78.351683
-72.302153
-65.529628
-59.081552
-55.856252
-51.790875
-17.89581
17.392175
25.325649
37.283626
51.98255
68.254688
84.222718
99.552784
113.74861
126.70906
138.29525
148.35213
156.89183
163.73627
168.95585
172.41385
174.15135
-98.210272
-97.942011
-97.457037
-96.528418
-95.310266
-93.387193
-90.996156
-87.617738
-83.536759
-78.296269
-72.251387
-65.484733
-59.042576
-55.821199
-51.760431
-17.865421
17.402225
25.329807
37.277843
51.966458
68.227733
84.185555
99.505236
113.69137
126.64236
138.22004
148.26911
156.80229
163.6416
168.85772
172.31217
174.04921
174.04921
172.31217
168.85772
163.6416
156.80229
148.26911
138.22004
126.64236
113.69137
99.505236
84.185555
68.227733
51.966458
37.277843
25.329807
17.402225
-17.865421
-51.760431
-55.821199
-59.042576
-65.484733
-72.251387
-78.296269
-83.536759
-87.617738
-90.996156
-93.387193
-95.310266
-96.528418
-97.457037
-97.942011
-98.210272
-160.21205
-158.90066
-156.2989
-152.37754
-147.19302
-140.71038
-133.01366
-124.10379
-114.08473
-103.04476
-91.130886
-78.609967
-65.598157
-51.474822
-32.321968
-10.889268
6.6754981
20.551103
33.968796
47.945959
62.351416
76.548404
90.168291
102.91632
114.60759
125.09502
134.25794
142.02025
148.29765
153.05273
156.23237
157.82861
157.82861
156.23237
153.05273
148.29765
142.02025
134.25794
125.09502
114.60759
102.91632
90.168291
76.548404
62.351416
47.945959
33.968796
20.551103
6.6754981
-10.889268
-32.321968
-51.474822
-65.598157
-78.609967
-91.130886
-103.04476
-114.08473
-124.10379
-133.01366
-140.71038
-147.19302
-152.37754
-156.2989
-158.90066
-160.21205
-145.50419
-144.30087
-141.90203
-138.30898
-133.54402
-127.6177
-120.57185
-112.44156
-103.29203
-93.19656
-82.243596
-70.541176
-58.065493
-44.37512
-28.371446
-11.130368
4.1278258
17.627907
30.713667
43.84653
56.968992
69.779215
82.040636
93.537768
104.10503
113.60666
121.92896
128.99014
134.71372
139.05405
141.96922
143.44603
143.44603
141.96922
139.05405
134.71372
128.99014
121.92896
113.60666
104.10503
93.537768
82.040636
69.779215
56.968992
43.84653
30.713667
17.627907
4.1278258
-11.130368
-28.371446
-44.37512
-58.065493
-70.541176
-82.243596
-93.19656
-103.29203
-112.44156
-120.57185
-127.6177
-133.54402
-138.30898
-141.90203
-144.30087
-145.50419
-132.0551
-130.9492
-128.74377
-125.44504
-121.07178
-115.64106
-109.18802
-101.74835
-93.37492
-84.124645
-74.058703
-63.239194
-51.6644
-39.160999
-25.350386
-10.893531
2.794129
15.557813
27.911937
40.095565
52.078304
63.692551
74.774947
85.163258
94.718002
103.31934
110.86437
117.27301
122.47519
126.42269
129.07611
130.41439
130.41439
129.07611
126.42269
122.47519
117.27301
110.86437
103.31934
94.718002
85.163258
74.774947
63.692551
52.078304
40.095565
27.911937
15.557813
2.794129
-10.893531
-25.350386
-39.160999
-51.6644
-63.239194
-74.058703
-84.124645
-93.37492
-101.74835
-109.18802
-115.64106
-121.07178
-125.44504
-128.74377
-130.9492
-132.0551
-119.79732
-118.7807
-116.75298
-113.72271
-109.70679
-104.72499
-98.80813
-91.990944
-84.318593
-75.840057
-66.60707
-56.666159
-46.036948
-34.681061
-22.530831
-9.9867143
2.2618625
14.041689
25.495639
36.705124
47.636242
58.18027
68.213893
77.610134
86.251866
94.034632
100.86715
106.67423
111.39238
114.97386
117.38184
118.59335
118.59335
117.38184
114.97386
111.39238
106.67423
100.86715
94.034632
86.251866
77.610134
68.213893
58.18027
47.636242
36.705124
25.495639
14.041689
2.2618625
-9.9867143
-22.530831
-34.681061
-46.036948
-56.666159
-66.60707
-75.840057
-84.318593
-91.990944
-98.80813
-104.72499
-109.70679
-113.72271
-116.75298
-118.7807
-119.79732
-108.66933
-107.73456
-105.87012
-103.08554
-99.396618
-94.82389
-89.395447
-83.144588
-76.111739
-68.34164
-59.882254
-50.780813
-41.074514
-30.789003
-19.974382
-8.8859689
2.1101393
12.861846
23.368988
33.627383
43.587445
53.163583
62.256313
70.761805
78.580815
85.622548
91.806417
97.063903
101.33758
104.5825
106.76467
107.86188
107.86188
106.76467
104.5825
101.33758
97.063903
91.806417
85.622548
78.580815
70.761805
62.256313
53.163583
43.587445
33.627383
23.368988
12.861846
2.1101393
-8.8859689
-19.974382
-30.789003
-41.074514
-50.780813
-59.882254
-68.34164
-76.111739
-83.144588
-89.395447
-94.82389
-99.396618
-103.08554
-105.87012
-107.73456
-108.66933
-98.588816
-97.729434
-96.015605
-93.457041
-90.068923
-85.871554
-80.891343
-75.160084
-68.715447
-61.599835
-53.859814
-45.544814
-36.705007
-27.39525
-17.697947
-7.7870726
2.1169288
11.884603
21.465687
30.818777
39.882944
48.579696
56.823586
64.526811
71.604127
77.976328
83.572275
88.330415
92.198988
95.136754
97.112627
98.105945
98.105945
97.112627
95.136754
92.198988
88.330415
83.572275
77.976328
71.604127
64.526811
56.823586
48.579696
39.882944
30.818777
21.465687
11.884603
2.1169288
-7.7870726
-17.697947
-27.39525
-36.705007
-45.544814
-53.859814
-61.599835
-68.715447
-75.160084
-80.891343
-85.871554
-90.068923
-93.457041
-96.015605
-97.729434
-98.588816
-89.468807
-88.679115
-87.104534
-84.75466
-81.644173
-77.792811
-73.22577
-67.973506
-62.0719
-55.561869
-48.489268
-40.904831
-32.864553
-24.433332
-15.69679
-6.783401
2.1596862
11.023836
19.739737
28.248595
36.486548
44.381383
51.856831
58.835979
65.244305
71.012195
76.076689
80.382774
83.883962
86.542863
88.331251
89.230254
89.230254
88.331251
86.542863
83.883962
80.382774
76.076689
71.012195
65.244305
58.835979
51.856831
44.381383
36.486548
28.248595
19.739737
11.023836
2.1596862
-6.783401
-15.69679
-24.433332
-32.864553
-40.904831
-48.489268
-55.561869
-62.0719
-67.973506
-73.22577
-77.792811
-81.644173
-84.75466
-87.104534
-88.679115
-89.468807
-81.224227
-80.499045
-79.053345
-76.896478
-74.042626
-70.510859
-66.325328
-61.515264
-56.115085
-50.164356
-43.707919
-36.79623
-29.486179
-21.843474
-13.948063
-5.9009892
2.1887434
10.229275
18.148428
25.881966
33.365462
40.531604
47.311575
53.637001
59.441982
64.664905
69.249868
73.147749
76.316879
78.723554
80.342278
81.155956
81.155956
80.342278
78.723554
76.316879
73.147749
69.249868
64.664905
59.441982
53.637001
47.311575
40.531604
33.365462
25.881966
18.148428
10.229275
2.1887434
-5.9009892
-13.948063
-21.843474
-29.486179
-36.79623
-43.707919
-50.164356
-56.115085
-61.515264
-66.325328
-70.510859
-74.042626
-76.896478
-79.053345
-80.499045
-81.224227
-73.774174
-73.108707
-71.782282
-69.803935
-67.187326
-63.950794
-60.117484
-55.715401
-50.777521
-45.341866
-39.451697
-33.15586
-26.509419
-19.574916
-12.424521
-5.1414633
2.1871569
9.4821649
16.674423
23.700178
30.497002
37.00218
43.153128
48.888496
54.149525
58.881366
63.034197
66.564122
69.433802
71.612937
73.078562
73.815256
73.815256
73.078562
71.612937
69.433802
66.564122
63.034197
58.881366
54.149525
48.888496
43.153128
37.00218
30.497002
23.700178
16.674423
9.4821649
2.1871569
-5.1414633
-12.424521
-19.574916
-26.509419
-33.15586
-39.451697
-45.341866
-50.777521
-55.715401
-60.117484
-63.950794
-67.187326
-69.803935
-71.782282
-73.108707
-73.774174
-67.043525
-66.433275
-65.217108
-63.403708
-61.006169
-58.042048
-54.533455
-50.50711
-45.994443
-41.031685
-35.660023
-29.92583
-23.881001
-17.583466
-11.097778
-4.4947892
2.1524377
8.7744595
15.307104
21.68975
27.863456
33.770114
39.35264
44.555673
49.32651
53.616084
57.379841
60.578479
63.178518
65.152733
66.480463
67.14782
67.14782
66.480463
65.152733
63.178518
60.578479
57.379841
53.616084
49.32651
44.555673
39.35264
33.770114
27.863456
21.68975
15.307104
8.7744595
2.1524377
-4.4947892
-11.097778
-17.583466
-23.881001
-29.92583
-35.660023
-41.031685
-45.994443
-50.50711
-54.533455
-58.042048
-61.006169
-63.403708
-65.217108
-66.433275
-67.043525
-60.963807
-60.404518
-59.290082
-57.628795
-55.433151
-52.719877
-49.509989
-45.828852
-41.706233
-37.176372
-32.278062
-27.054743
-21.554606
-15.830662
-9.940652
-3.9462735
2.0892752
8.1043613
14.040181
19.840292
25.44987
30.815368
35.884697
40.607736
44.937018
48.828475
52.242136
55.142733
57.500203
59.290072
60.49375
61.098732
61.098732
60.49375
59.290072
57.500203
55.142733
52.242136
48.828475
44.937018
40.607736
35.884697
30.815368
25.44987
19.840292