/*--------------------------------*- C++ -*----------------------------------*\
| =========                 |                                                 |
| \\      /  F ield         | OpenFOAM: The Open Source CFD Toolbox           |
|  \\    /   O peration     | Version:  2306                                  |
|   \\  /    A nd           | Website:  www.openfoam.com                      |
|    \\/     M anipulation  |                                                 |
\*---------------------------------------------------------------------------*/
FoamFile
{
    version     2.0;
    format      ascii;
    arch        "LSB;label=32;scalar=64";
    class       surfaceScalarField;
    location    "0.42";
    object      phi;
}
// * * * * * * * * * * * * * * * * * * * * * * * * * * * * * * * * * * * * * //

dimensions      [0 3 -1 0 0 0 0];

oriented        oriented;

internalField   nonuniform List<scalar> 
12640
(
-8.0680694e-07
1.6044949e-08
-8.2195301e-07
1.5146061e-08
-8.3618687e-07
1.4233865e-08
-8.4949829e-07
1.3311421e-08
-8.6187999e-07
1.2381695e-08
-8.7332751e-07
1.1447531e-08
-8.8383902e-07
1.0511504e-08
-8.934148e-07
9.5757736e-09
-9.0205679e-07
8.6419886e-09
-9.0976837e-07
7.7115715e-09
-9.1655124e-07
6.7828705e-09
-9.2240753e-07
5.8562971e-09
-9.2734269e-07
4.9351691e-09
-9.3136142e-07
4.0187182e-09
-9.3449082e-07
3.1294022e-09
-9.3674411e-07
2.2532933e-09
-9.381269e-07
1.3827936e-09
-9.3861928e-07
4.9237682e-10
-9.3827307e-07
-3.4621204e-10
-9.3716045e-07
-1.112606e-09
-9.3526426e-07
-1.8961945e-09
-9.3259283e-07
-2.6714273e-09
-9.2916198e-07
-3.4308484e-09
-9.249901e-07
-4.1718751e-09
-9.2009652e-07
-4.8935819e-09
-9.1450089e-07
-5.5956268e-09
-9.0822301e-07
-6.2778812e-09
-9.0128269e-07
-6.9403234e-09
-8.9369964e-07
-7.5830482e-09
-8.854935e-07
-8.2061348e-09
-8.7668373e-07
-8.8097706e-09
-8.6728954e-07
-9.3941927e-09
-8.573299e-07
-9.9596335e-09
-8.468235e-07
-1.0506395e-08
-8.3578867e-07
-1.1034837e-08
-8.2424335e-07
-1.1545326e-08
-8.1220508e-07
-1.2038259e-08
-7.9969104e-07
-1.2514049e-08
-7.8671786e-07
-1.2973179e-08
-7.7330177e-07
-1.3416093e-08
-7.5945852e-07
-1.3843259e-08
-7.4520331e-07
-1.4255199e-08
-7.3055091e-07
-1.4652402e-08
-7.155155e-07
-1.5035407e-08
-7.001108e-07
-1.5404695e-08
-6.8435e-07
-1.5760793e-08
-6.6824577e-07
-1.6104239e-08
-6.5181026e-07
-1.6435529e-08
-6.3505505e-07
-1.6755192e-08
-6.1799136e-07
-1.7063701e-08
-6.0062975e-07
-1.7361595e-08
-5.829804e-07
-1.7649369e-08
-5.6505291e-07
-1.7927479e-08
-5.4685651e-07
-1.8196408e-08
-5.283999e-07
-1.8456614e-08
-5.0969134e-07
-1.8708557e-08
-4.9073868e-07
-1.895267e-08
-4.7154933e-07
-1.9189359e-08
-4.521303e-07
-1.941903e-08
-4.3248821e-07
-1.9642079e-08
-4.1262936e-07
-1.9858851e-08
-3.9255966e-07
-2.0069699e-08
-3.7228471e-07
-2.027496e-08
-3.5180982e-07
-2.0474887e-08
-3.3114013e-07
-2.066969e-08
-3.1028061e-07
-2.0859517e-08
-2.8923626e-07
-2.1044357e-08
-2.6801229e-07
-2.1223976e-08
-2.4661447e-07
-2.1397821e-08
-2.2504975e-07
-2.1564717e-08
-2.033276e-07
-2.1722143e-08
-1.8146259e-07
-2.1865015e-08
-1.5947907e-07
-2.1983519e-08
-1.3741934e-07
-2.2059729e-08
-1.1535533e-07
-2.2064006e-08
-9.3396037e-08
-2.1959292e-08
-7.1649077e-08
-2.1746968e-08
-4.9996134e-08
-2.1652929e-08
-2.7274566e-08
-2.2721579e-08
-2.7274552e-08
-3.1323161e-06
4.4004936e-08
-3.1577221e-06
4.0552129e-08
-3.1805691e-06
3.7080787e-08
-3.2008574e-06
3.3599791e-08
-3.2185933e-06
3.0117602e-08
-3.233788e-06
2.6642214e-08
-3.2464574e-06
2.3180883e-08
-3.2566213e-06
1.9739686e-08
-3.2643023e-06
1.6322953e-08
-3.2695236e-06
1.2932918e-08
-3.2723015e-06
9.5607047e-09
-3.2726709e-06
6.2257517e-09
-3.2706472e-06
2.9114706e-09
-3.2662393e-06
-3.8919281e-10
-3.2596653e-06
-3.4446434e-09
-3.2508866e-06
-6.5253788e-09
-3.2399398e-06
-9.5640508e-09
-3.2268981e-06
-1.2549268e-08
-3.2117604e-06
-1.5483958e-08
-3.194538e-06
-1.8334946e-08
-3.1753194e-06
-2.1114874e-08
-3.1541653e-06
-2.3825499e-08
-3.1311299e-06
-2.6466247e-08
-3.1062654e-06
-2.9036352e-08
-3.0796236e-06
-3.1535382e-08
-3.0512561e-06
-3.3963133e-08
-3.0212142e-06
-3.6319773e-08
-2.9895489e-06
-3.8605645e-08
-2.9563106e-06
-4.0821366e-08
-2.921549e-06
-4.296773e-08
-2.8853131e-06
-4.5045666e-08
-2.847651e-06
-4.7056304e-08
-2.8086098e-06
-4.9000856e-08
-2.7682355e-06
-5.0880661e-08
-2.7265731e-06
-5.2697214e-08
-2.6836664e-06
-5.4452058e-08
-2.6395579e-06
-5.6146804e-08
-2.5942887e-06
-5.7783174e-08
-2.547899e-06
-5.9362923e-08
-2.5004273e-06
-6.0887825e-08
-2.4519108e-06
-6.235974e-08
-2.4023855e-06
-6.3780517e-08
-2.3518858e-06
-6.5152031e-08
-2.300445e-06
-6.6476199e-08
-2.2480948e-06
-6.7754912e-08
-2.1948656e-06
-6.8990039e-08
-2.1407863e-06
-7.0183486e-08
-2.0858848e-06
-7.1337108e-08
-2.0301872e-06
-7.2452751e-08
-1.9737186e-06
-7.3532243e-08
-1.9165029e-06
-7.4577371e-08
-1.8585623e-06
-7.5589904e-08
-1.7999183e-06
-7.6571557e-08
-1.7405907e-06
-7.752399e-08
-1.6805984e-06
-7.8448866e-08
-1.6199593e-06
-7.9347727e-08
-1.5586898e-06
-8.0222159e-08
-1.4968055e-06
-8.1073622e-08
-1.434321e-06
-8.1903559e-08
-1.3712497e-06
-8.2713353e-08
-1.3076043e-06
-8.3504277e-08
-1.2433964e-06
-8.4277581e-08
-1.1786369e-06
-8.5034448e-08
-1.1133359e-06
-8.5775852e-08
-1.047503e-06
-8.6502654e-08
-9.8114725e-07
-8.7215235e-08
-9.1427831e-07
-8.791331e-08
-8.4690565e-07
-8.8596628e-08
-7.7903922e-07
-8.926424e-08
-7.1069052e-07
-8.9913434e-08
-6.4187405e-07
-9.0538627e-08
-5.7260952e-07
-9.1129534e-08
-5.0292453e-07
-9.1668501e-08
-4.3285612e-07
-9.2128158e-08
-3.6244559e-07
-9.2474528e-08
-2.9171217e-07
-9.2692717e-08
-2.2057503e-07
-9.2884107e-08
-1.4868855e-07
-9.3539396e-08
-7.5354842e-08
-9.6055299e-08
-1.026294e-07
-5.1073792e-06
7.510969e-08
-5.1347154e-06
6.7888302e-08
-5.1582935e-06
6.0658899e-08
-5.1781311e-06
5.3437439e-08
-5.1942526e-06
4.6239113e-08
-5.2066887e-06
3.9078225e-08
-5.2154758e-06
3.1967975e-08
-5.2206557e-06
2.491964e-08
-5.2222743e-06
1.794155e-08
-5.2203938e-06
1.1052459e-08
-5.2150681e-06
4.2349711e-09
-5.2063264e-06
-2.5159987e-09
-5.1942484e-06
-9.166544e-09
-5.1789333e-06
-1.5704275e-08
-5.160312e-06
-2.206593e-08
-5.138545e-06
-2.8292332e-08
-5.113719e-06
-3.4390054e-08
-5.0859082e-06
-4.0360065e-08
-5.0551924e-06
-4.6199778e-08
-5.0216314e-06
-5.1895947e-08
-4.9852992e-06
-5.7447116e-08
-4.9462718e-06
-6.2852871e-08
-4.9046252e-06
-6.8112843e-08
-4.8604349e-06
-7.322669e-08
-4.8137758e-06
-7.8194451e-08
-4.7647223e-06
-8.3016675e-08
-4.7133478e-06
-8.7694288e-08
-4.6597248e-06
-9.2228612e-08
-4.6039248e-06
-9.6621364e-08
-4.5460179e-06
-1.0087458e-07
-4.486073e-06
-1.0499059e-07
-4.4241573e-06
-1.0897199e-07
-4.3603366e-06
-1.1282159e-07
-4.2946748e-06
-1.165424e-07
-4.2272344e-06
-1.201377e-07
-4.1580756e-06
-1.2361079e-07
-4.0872572e-06
-1.2696521e-07
-4.0148358e-06
-1.3020455e-07
-3.9408662e-06
-1.3333254e-07
-3.8654011e-06
-1.3635293e-07
-3.7884913e-06
-1.3926952e-07
-3.7101856e-06
-1.4208625e-07
-3.6305307e-06
-1.4480696e-07
-3.5495713e-06
-1.4743552e-07
-3.4673504e-06
-1.4997588e-07
-3.3839086e-06
-1.5243181e-07
-3.2992848e-06
-1.5480725e-07
-3.213516e-06
-1.5710591e-07
-3.1266372e-06
-1.5933159e-07
-3.0386815e-06
-1.6148797e-07
-2.9496802e-06
-1.6357864e-07
-2.8596629e-06
-1.656072e-07
-2.7686574e-06
-1.6757709e-07
-2.6766897e-06
-1.694917e-07
-2.5837842e-06
-1.7135429e-07
-2.4899639e-06
-1.7316808e-07
-2.3952499e-06
-1.7493616e-07
-2.2996621e-06
-1.7666145e-07
-2.2032187e-06
-1.7834691e-07
-2.1059369e-06
-1.799952e-07
-2.0078322e-06
-1.8160892e-07
-1.9089193e-06
-1.8319052e-07
-1.8092115e-06
-1.8474228e-07
-1.7087211e-06
-1.8626619e-07
-1.6074598e-06
-1.8776397e-07
-1.5054382e-06
-1.8923685e-07
-1.4026661e-06
-1.9068547e-07
-1.2991529e-06
-1.9210976e-07
-1.1949086e-06
-1.9350853e-07
-1.0899436e-06
-1.9487843e-07
-9.8426939e-07
-1.9621287e-07
-8.778986e-07
-1.9750033e-07
-7.7084427e-07
-1.9872281e-07
-6.6311516e-07
-1.9985726e-07
-5.5470364e-07
-2.0088606e-07
-4.4556075e-07
-2.0183561e-07
-3.3556345e-07
-2.0288139e-07
-2.245302e-07
-2.0457266e-07
-1.1243471e-07
-2.0815078e-07
-2.1506411e-07
-6.4700795e-06
1.0617797e-07
-6.4965984e-06
9.4407233e-08
-6.5185925e-06
8.2653013e-08
-6.5360941e-06
7.0939009e-08
-6.5491427e-06
5.928778e-08
-6.5577853e-06
4.7720754e-08
-6.5620753e-06
3.6258052e-08
-6.5620738e-06
2.491805e-08
-6.5578486e-06
1.3716439e-08
-6.5495045e-06
2.7083119e-09
-6.5369569e-06
-8.3126677e-09
-6.5203872e-06
-1.9085648e-08
-6.4998961e-06
-2.9657644e-08
-6.4755752e-06
-4.0025143e-08
-6.4474685e-06
-5.0172652e-08
-6.4156584e-06
-6.010247e-08
-6.3802365e-06
-6.9811917e-08
-6.3412985e-06
-7.9298063e-08
-6.2989411e-06
-8.8557167e-08
-6.253253e-06
-9.7584124e-08
-6.2043238e-06
-1.0637632e-07
-6.1522442e-06
-1.1493237e-07
-6.0971052e-06
-1.2325184e-07
-6.038997e-06
-1.3133491e-07
-5.9780091e-06
-1.391824e-07
-5.9142298e-06
-1.467959e-07
-5.8477466e-06
-1.541775e-07
-5.7786453e-06
-1.6132993e-07
-5.7070103e-06
-1.682564e-07
-5.6329242e-06
-1.7496066e-07
-5.556468e-06
-1.8144679e-07
-5.4777206e-06
-1.8771937e-07
-5.396759e-06
-1.9378319e-07
-5.3136581e-06
-1.9964339e-07
-5.2284903e-06
-2.0530541e-07
-5.1413263e-06
-2.1077483e-07
-5.052234e-06
-2.1605747e-07
-4.9612793e-06
-2.2115928e-07
-4.8685255e-06
-2.2608632e-07
-4.7740337e-06
-2.3084479e-07
-4.6778623e-06
-2.3544087e-07
-4.5800677e-06
-2.398809e-07
-4.4807035e-06
-2.4417109e-07
-4.3798213e-06
-2.4831778e-07
-4.27747e-06
-2.523272e-07
-4.1736962e-06
-2.5620558e-07
-4.0685443e-06
-2.599591e-07
-3.9620564e-06
-2.635938e-07
-3.8542723e-06
-2.6711572e-07
-3.7452295e-06
-2.7053076e-07
-3.6349635e-06
-2.7384468e-07
-3.5235075e-06
-2.7706315e-07
-3.4108929e-06
-2.8019174e-07
-3.2971487e-06
-2.8323581e-07
-3.1823025e-06
-2.8620058e-07
-3.0663794e-06
-2.8909115e-07
-2.9494031e-06
-2.9191245e-07
-2.8313954e-06
-2.9466917e-07
-2.7123764e-06
-2.9736591e-07
-2.5923646e-06
-3.00007e-07
-2.4713769e-06
-3.0259653e-07
-2.349429e-06
-3.0513844e-07
-2.2265349e-06
-3.0763635e-07
-2.1027076e-06
-3.1009356e-07
-1.9779586e-06
-3.125129e-07
-1.8522987e-06
-3.1489675e-07
-1.7257374e-06
-3.1724679e-07
-1.5982833e-06
-3.1956385e-07
-1.4699445e-06
-3.218474e-07
-1.3407279e-06
-3.2409498e-07
-1.2106395e-06
-3.2630131e-07
-1.0796823e-06
-3.2845753e-07
-9.4785361e-07
-3.3055148e-07
-8.1513927e-07
-3.3257161e-07
-6.8150422e-07
-3.3452111e-07
-5.4688439e-07
-3.3645545e-07
-4.1120041e-07
-3.3856537e-07
-2.7445533e-07
-3.4131773e-07
-1.3701521e-07
-3.455909e-07
-3.5207931e-07
-7.2968757e-06
1.3638931e-07
-7.3220785e-06
1.1961003e-07
-7.3423073e-06
1.0288184e-07
-7.3576048e-06
8.6236448e-08
-7.3680212e-06
6.9704192e-08
-7.3736147e-06
5.3314239e-08
-7.3744514e-06
3.7094715e-08
-7.3706067e-06
2.1073439e-08
-7.3622055e-06
5.3151968e-09
-7.3491059e-06
-1.0391265e-08
-7.3316082e-06
-2.58104e-08
-7.3097446e-06
-4.0949285e-08
-7.2836022e-06
-5.5799994e-08
-7.2532748e-06
-7.0352549e-08
-7.218851e-06
-8.4596466e-08
-7.1804265e-06
-9.852692e-08
-7.1380998e-06
-1.1213865e-07
-7.0919713e-06
-1.2542661e-07
-7.0421424e-06
-1.3838603e-07
-6.9887137e-06
-1.5101286e-07
-6.9317855e-06
-1.6330452e-07
-6.871458e-06
-1.7525979e-07
-6.8078312e-06
-1.8687867e-07
-6.7410041e-06
-1.9816207e-07
-6.6710745e-06
-2.0911197e-07
-6.5981393e-06
-2.197311e-07
-6.5222937e-06
-2.3002312e-07
-6.4436313e-06
-2.3999234e-07
-6.3622439e-06
-2.4964382e-07
-6.2782213e-06
-2.5898324e-07
-6.1916513e-06
-2.680168e-07
-6.1026194e-06
-2.7675124e-07
-6.0112089e-06
-2.8519371e-07
-5.9175006e-06
-2.9335169e-07
-5.8215729e-06
-3.0123308e-07
-5.7235017e-06
-3.0884601e-07
-5.6233604e-06
-3.1619883e-07
-5.5212195e-06
-3.2330013e-07
-5.4171472e-06
-3.301586e-07
-5.311209e-06
-3.3678304e-07
-5.2034675e-06
-3.4318235e-07
-5.0939829e-06
-3.4936545e-07
-4.9828128e-06
-3.5534127e-07
-4.8700119e-06
-3.611187e-07
-4.7556324e-06
-3.6670663e-07
-4.6397242e-06
-3.7211383e-07
-4.5223342e-06
-3.7734902e-07
-4.4035073e-06
-3.8242077e-07
-4.2832854e-06
-3.8733755e-07
-4.1617085e-06
-3.9210768e-07
-4.0388139e-06
-3.9673928e-07
-3.9146368e-06
-4.0124033e-07
-3.7892099e-06
-4.0561858e-07
-3.6625641e-06
-4.0988164e-07
-3.5347278e-06
-4.1403688e-07
-3.4057276e-06
-4.1809137e-07
-3.2755879e-06
-4.2205207e-07
-3.1443315e-06
-4.2592559e-07
-3.0119791e-06
-4.2971836e-07
-2.8785496e-06
-4.3343645e-07
-2.7440605e-06
-4.3708569e-07
-2.6085273e-06
-4.4067158e-07
-2.4719644e-06
-4.4419932e-07
-2.3343843e-06
-4.4767358e-07
-2.1957986e-06
-4.5109864e-07
-2.0562171e-06
-4.5447823e-07
-1.9156486e-06
-4.578153e-07
-1.7741004e-06
-4.6111205e-07
-1.6315783e-06
-4.6436949e-07
-1.4880862e-06
-4.6758706e-07
-1.3436251e-06
-4.7076243e-07
-1.1981912e-06
-4.7389145e-07
-1.0517729e-06
-4.7696971e-07
-9.0434706e-07
-4.7999748e-07
-7.5587539e-07
-4.8299279e-07
-6.0631089e-07
-4.8601994e-07
-4.5563436e-07
-4.8924189e-07
-3.0396476e-07
-4.9298734e-07
-1.5177513e-07
-4.9778052e-07
-5.0385445e-07
-7.7558574e-06
1.6571984e-07
-7.7799233e-06
1.4367589e-07
-7.7987659e-06
1.2172448e-07
-7.812435e-06
9.990555e-08
-7.820988e-06
7.8257175e-08
-7.8244904e-06
5.6816663e-08
-7.8230189e-06
3.5623194e-08
-7.8166807e-06
1.4735179e-08
-7.8054097e-06
-5.9557221e-09
-7.7894259e-06
-2.6375086e-08
-7.7688048e-06
-4.6431545e-08
-7.7436349e-06
-6.611918e-08
-7.7140087e-06
-8.542611e-08
-7.6800227e-06
-1.0433857e-07
-7.6417751e-06
-1.2284409e-07
-7.5993685e-06
-1.4093349e-07
-7.552908e-06
-1.5859922e-07
-7.5024996e-06
-1.7583497e-07
-7.4482501e-06
-1.9263549e-07
-7.390266e-06
-2.08997e-07
-7.3286534e-06
-2.2491715e-07
-7.263518e-06
-2.4039516e-07
-7.1949649e-06
-2.5543173e-07
-7.1230982e-06
-2.7002879e-07
-7.0480207e-06
-2.8418946e-07
-6.9698338e-06
-2.9791801e-07
-6.8886372e-06
-3.1121971e-07
-6.8045288e-06
-3.2410073e-07
-6.7176045e-06
-3.3656815e-07
-6.627958e-06
-3.4862976e-07
-6.5356807e-06
-3.6029409e-07
-6.4408617e-06
-3.715702e-07
-6.3435877e-06
-3.8246775e-07
-6.2439425e-06
-3.9299683e-07
-6.1420077e-06
-4.0316791e-07
-6.0378619e-06
-4.1299183e-07
-5.931581e-06
-4.2247972e-07
-5.8232383e-06
-4.3164287e-07
-5.7129041e-06
-4.4049278e-07
-5.6006461e-06
-4.4904106e-07
-5.486529e-06
-4.572994e-07
-5.370615e-06
-4.6527952e-07
-5.2529631e-06
-4.7299311e-07
-5.1336299e-06
-4.804519e-07
-5.0126692e-06
-4.8766739e-07
-4.8901319e-06
-4.9465114e-07
-4.7660664e-06
-5.0141448e-07
-4.6405185e-06
-5.0796865e-07
-4.5135314e-06
-5.1432467e-07
-4.3851458e-06
-5.2049335e-07
-4.2553998e-06
-5.2648527e-07
-4.1243293e-06
-5.3231082e-07
-3.9919677e-06
-5.3798018e-07
-3.8583462e-06
-5.4350312e-07
-3.7234938e-06
-5.4888926e-07
-3.5874374e-06
-5.5414783e-07
-3.4502016e-06
-5.5928784e-07
-3.3118093e-06
-5.6431793e-07
-3.1722812e-06
-5.6924641e-07
-3.0316364e-06
-5.7408124e-07
-2.8898921e-06
-5.7883002e-07
-2.7470638e-06
-5.8349994e-07
-2.6031653e-06
-5.8809778e-07
-2.458209e-06
-5.926299e-07
-2.3122056e-06
-5.9710201e-07
-2.1651645e-06
-6.0151937e-07
-2.0170932e-06
-6.0588656e-07
-1.8679979e-06
-6.1020733e-07
-1.7178828e-06
-6.1448463e-07
-1.5667494e-06
-6.1872041e-07
-1.4145963e-06
-6.2291561e-07
-1.2614167e-06
-6.2707097e-07
-1.1071977e-06
-6.3118877e-07
-9.5191779e-07
-6.3527734e-07
-7.9554958e-07
-6.39361e-07
-6.3807173e-07
-6.4349781e-07
-4.7950669e-07
-6.4780693e-07
-3.2000321e-07
-6.524908e-07
-1.5996063e-07
-6.5782311e-07
-6.6381507e-07
-7.9983e-06
1.9429819e-07
-8.0214698e-06
1.6684565e-07
-8.0392774e-06
1.3953209e-07
-8.0517774e-06
1.1240558e-07
-8.0590322e-06
8.5511946e-08
-8.0611112e-06
5.889567e-08
-8.0580906e-06
3.2602593e-08
-8.0500613e-06
6.7058831e-09
-8.0370294e-06
-1.8987614e-08
-8.0191837e-06
-4.4220847e-08
-7.996602e-06
-6.9013194e-08
-7.9693756e-06
-9.3345576e-08
-7.9376026e-06
-1.1719911e-07
-7.9013848e-06
-1.4055643e-07
-7.860826e-06
-1.6340281e-07
-7.8160332e-06
-1.8572633e-07
-7.7671148e-06
-2.0751755e-07
-7.7141808e-06
-2.2876898e-07
-7.6573414e-06
-2.4947495e-07
-7.5967066e-06
-2.6963178e-07
-7.5323862e-06
-2.8923751e-07
-7.4644894e-06
-3.0829195e-07
-7.3931244e-06
-3.2679671e-07
-7.3183984e-06
-3.4475483e-07
-7.240417e-06
-3.6217086e-07
-7.1592844e-06
-3.7905066e-07
-7.0751028e-06
-3.9540129e-07
-6.9879725e-06
-4.1123097e-07
-6.8979918e-06
-4.2654885e-07
-6.8052565e-06
-4.4136511e-07
-6.70986e-06
-4.5569058e-07
-6.6118932e-06
-4.6953695e-07
-6.5114446e-06
-4.8291639e-07
-6.4085997e-06
-4.9584177e-07
-6.3034413e-06
-5.0832628e-07
-6.1960496e-06
-5.2038355e-07
-6.0865017e-06
-5.320276e-07
-5.974872e-06
-5.4327255e-07
-5.861232e-06
-5.5413281e-07
-5.7456501e-06
-5.6462289e-07
-5.6281922e-06
-5.7475736e-07
-5.5089208e-06
-5.8455084e-07
-5.3878961e-06
-5.9401788e-07
-5.265175e-06
-6.03173e-07
-5.1408118e-06
-6.1203061e-07
-5.0148579e-06
-6.2060496e-07
-4.8873622e-06
-6.2891019e-07
-4.7583707e-06
-6.3696015e-07
-4.6279269e-06
-6.447685e-07
-4.4960716e-06
-6.5234867e-07
-4.3628431e-06
-6.5971373e-07
-4.2282774e-06
-6.6687657e-07
-4.0924078e-06
-6.7384968e-07
-3.9552657e-06
-6.8064525e-07
-3.8168799e-06
-6.8727512e-07
-3.677277e-06
-6.9375071e-07
-3.5364817e-06
-7.0008312e-07
-3.3945165e-06
-7.0628306e-07
-3.2514021e-06
-7.1236085e-07
-3.107157e-06
-7.183263e-07
-2.9617982e-06
-7.2418883e-07
-2.8153407e-06
-7.2995741e-07
-2.667798e-06
-7.3564052e-07
-2.5191817e-06
-7.4124615e-07
-2.3695021e-06
-7.4678163e-07
-2.2187676e-06
-7.5225384e-07
-2.0669851e-06
-7.5766906e-07
-1.9141597e-06
-7.6303273e-07
-1.7602945e-06
-7.6834985e-07
-1.6053901e-06
-7.7362483e-07
-1.4494441e-06
-7.7886163e-07
-1.2924501e-06
-7.8406491e-07
-1.1343975e-06
-7.8924141e-07
-9.7527132e-07
-7.9440353e-07
-8.1505696e-07
-7.9957534e-07
-6.5375239e-07
-8.0480236e-07
-4.9139686e-07
-8.1016248e-07
-3.2812029e-07
-8.1576736e-07
-1.6420218e-07
-8.2174123e-07
-8.2801725e-07
-8.1282071e-06
2.2220042e-07
-8.1506115e-06
1.892501e-07
-8.1675688e-06
1.5648942e-07
-8.1791379e-06
1.2397461e-07
-8.1853847e-06
9.1758791e-08
-8.1863845e-06
5.9895417e-08
-8.1822301e-06
2.8448282e-08
-8.1729152e-06
-2.609069e-09
-8.1586441e-06
-3.3258715e-08
-8.1394837e-06
-6.3381217e-08
-8.1155287e-06
-9.2968208e-08
-8.0868785e-06
-1.2199582e-07
-8.0536364e-06
-1.5044121e-07
-8.0159085e-06
-1.7828426e-07
-7.9738033e-06
-2.0550801e-07
-7.9274309e-06
-2.3209872e-07
-7.8769031e-06
-2.580454e-07
-7.8223323e-06
-2.8333974e-07
-7.7638315e-06
-3.0797575e-07
-7.7015135e-06
-3.3194986e-07
-7.6354904e-06
-3.5526057e-07
-7.5658739e-06
-3.7790848e-07
-7.4927744e-06
-3.998962e-07
-7.4163011e-06
-4.2122808e-07
-7.3365618e-06
-4.4191021e-07
-7.2536622e-06
-4.6195021e-07
-7.1677064e-06
-4.813571e-07
-7.0787962e-06
-5.0014119e-07
-6.9870311e-06
-5.1831395e-07
-6.8925083e-06
-5.3588789e-07
-6.7953224e-06
-5.5287649e-07
-6.6955654e-06
-5.6929397e-07
-6.5933265e-06
-5.8515533e-07
-6.4886921e-06
-6.0047612e-07
-6.3817459e-06
-6.1527247e-07
-6.2725686e-06
-6.295609e-07
-6.1612379e-06
-6.4335831e-07
-6.0478286e-06
-6.5668183e-07
-5.9324126e-06
-6.6954883e-07
-5.8150587e-06
-6.8197675e-07
-5.6958329e-06
-6.9398318e-07
-5.5747981e-06
-7.0558563e-07
-5.4520144e-06
-7.1680163e-07
-5.3275388e-06
-7.2764857e-07
-5.2014257e-06
-7.3814373e-07
-5.0737265e-06
-7.483042e-07
-4.9444898e-06
-7.5814682e-07
-4.8137617e-06
-7.6768826e-07
-4.6815854e-06
-7.7694483e-07
-4.5480015e-06
-7.8593253e-07
-4.4130483e-06
-7.9466702e-07
-4.2767611e-06
-8.0316369e-07
-4.1391734e-06
-8.1143742e-07
-4.0003159e-06
-8.195028e-07
-3.8602171e-06
-8.273739e-07
-3.7189034e-06
-8.3506441e-07
-3.576399e-06
-8.4258754e-07
-3.432726e-06
-8.4995607e-07
-3.2879045e-06
-8.5718232e-07
-3.1419528e-06
-8.6427803e-07
-2.9948871e-06
-8.7125452e-07
-2.846722e-06
-8.7812246e-07
-2.6974704e-06
-8.8489213e-07
-2.5471434e-06
-8.9157314e-07
-2.3957505e-06
-8.9817458e-07
-2.2432994e-06
-9.0470488e-07
-2.0897965e-06
-9.1117199e-07
-1.935246e-06
-9.1758321e-07
-1.7796504e-06
-9.2394542e-07
-1.6230101e-06
-9.3026511e-07
-1.465323e-06
-9.3654878e-07
-1.3065842e-06
-9.4280373e-07
-1.1467864e-06
-9.4903918e-07
-9.8592136e-07
-9.5526857e-07
-8.2398396e-07
-9.6151274e-07
-6.609822e-07
-9.6780412e-07
-4.9695523e-07
-9.7418945e-07
-3.3199855e-07
-9.8072404e-07
-1.6628584e-07
-9.8745393e-07
-9.9430308e-07
-8.2065597e-06
2.4942241e-07
-8.2282174e-06
2.1090778e-07
-8.2443655e-06
1.7263752e-07
-8.255067e-06
1.3467608e-07
-8.260393e-06
9.7084793e-08
-8.260417e-06
5.9919448e-08
-8.2552222e-06
2.3253495e-08
-8.2448659e-06
-1.2965364e-08
-8.2295055e-06
-4.8619135e-08
-8.2092193e-06
-8.3667417e-08
-8.1841062e-06
-1.1808133e-07
-8.1542703e-06
-1.5183172e-07
-8.1198191e-06
-1.8489236e-07
-8.0808627e-06
-2.1724072e-07
-8.0375128e-06
-2.4885789e-07
-7.989883e-06
-2.7972856e-07
-7.9380877e-06
-3.0984067e-07
-7.8822422e-06
-3.3918527e-07
-7.8224617e-06
-3.6775624e-07
-7.7588613e-06
-3.9555021e-07
-7.6915556e-06
-4.225663e-07
-7.620658e-06
-4.4880605e-07
-7.546281e-06
-4.7427321e-07
-7.4685354e-06
-4.9897365e-07
-7.3875306e-06
-5.2291508e-07
-7.3033737e-06
-5.4610705e-07
-7.2161702e-06
-5.6856065e-07
-7.1260229e-06
-5.9028847e-07
-7.0330325e-06
-6.1130439e-07
-6.9372969e-06
-6.3162342e-07
-6.8389117e-06
-6.5126174e-07
-6.7379693e-06
-6.702363e-07
-6.6345598e-06
-6.8856489e-07
-6.5287699e-06
-7.0626603e-07
-6.4206836e-06
-7.2335876e-07
-6.3103819e-06
-7.3986258e-07
-6.1979428e-06
-7.5579741e-07
-6.0834412e-06
-7.7118342e-07
-5.966949e-06
-7.8604102e-07
-5.8485351e-06
-8.0039066e-07
-5.7282652e-06
-8.1425299e-07
-5.6062024e-06
-8.2764852e-07
-5.4824063e-06
-8.4059772e-07
-5.3569339e-06
-8.5312095e-07
-5.2298393e-06
-8.6523839e-07
-5.1011734e-06
-8.7697001e-07
-4.9709848e-06
-8.8833545e-07
-4.8393189e-06
-8.9935411e-07
-4.7062187e-06
-9.1004503e-07
-4.5717244e-06
-9.2042688e-07
-4.4358736e-06
-9.3051786e-07
-4.2987014e-06
-9.4033585e-07
-4.1602406e-06
-9.4989822e-07
-4.0205215e-06
-9.5922188e-07
-3.8795721e-06
-9.6832327e-07
-3.7374183e-06
-9.7721827e-07
-3.5940836e-06
-9.8592226e-07
-3.4495895e-06
-9.9445009e-07
-3.3039558e-06
-1.0028161e-06
-3.1571998e-06
-1.011034e-06
-3.0093374e-06
-1.0191169e-06
-2.8603826e-06
-1.0270773e-06
-2.7103474e-06
-1.0349273e-06
-2.5592424e-06
-1.0426782e-06
-2.4070764e-06
-1.0503406e-06
-2.2538565e-06
-1.0579248e-06
-2.0995883e-06
-1.0654402e-06
-1.9442757e-06
-1.0728958e-06
-1.7879208e-06
-1.0803003e-06
-1.6305239e-06
-1.087662e-06
-1.4720836e-06
-1.0949891e-06
-1.3125967e-06
-1.1022907e-06
-1.1520589e-06
-1.109577e-06
-9.9046637e-07
-1.1168611e-06
-8.2781953e-07
-1.1241596e-06
-6.6412916e-07
-1.1314945e-06
-4.9942669e-07
-1.1388919e-06
-3.3377477e-07
-1.146376e-06
-1.6727168e-07
-1.153957e-06
-1.1615748e-06
-8.2651426e-06
2.7590005e-07
-8.2859957e-06
2.3176084e-07
-8.3012835e-06
1.8792534e-07
-8.311074e-06
1.4446656e-07
-8.3154392e-06
1.0145008e-07
-8.3144634e-06
5.8943567e-08
-8.3082167e-06
1.7006797e-08
-8.2968107e-06
-2.4371337e-08
-8.2803547e-06
-6.507511e-08
-8.2589451e-06
-1.05077e-07
-8.2326864e-06
-1.4434003e-07
-8.2016873e-06
-1.8283089e-07
-8.1660592e-06
-2.2052048e-07
-8.1259158e-06
-2.5738411e-07
-8.0813725e-06
-2.9340116e-07
-8.032546e-06
-3.2855507e-07
-7.9795538e-06
-3.6283291e-07
-7.9225136e-06
-3.9622538e-07
-7.8615435e-06
-4.2872637e-07
-7.7967608e-06
-4.6033295e-07
-7.7282821e-06
-4.9104498e-07
-7.656223e-06
-5.2086514e-07
-7.5806977e-06
-5.4979849e-07
-7.5018188e-06
-5.7785254e-07
-7.4196971e-06
-6.0503686e-07
-7.3344411e-06
-6.3136304e-07
-7.2461573e-06
-6.568444e-07
-7.1549498e-06
-6.8149596e-07
-7.0609201e-06
-7.0533415e-07
-6.9641669e-06
-7.2837663e-07
-6.8647863e-06
-7.5064235e-07
-6.7628714e-06
-7.7215114e-07
-6.6585125e-06
-7.9292378e-07
-6.5517968e-06
-8.1298173e-07
-6.4428085e-06
-8.3234708e-07
-6.3316287e-06
-8.5104244e-07
-6.2183353e-06
-8.6909079e-07
-6.1030033e-06
-8.8651545e-07
-5.9857044e-06
-9.0333991e-07
-5.8665073e-06
-9.1958778e-07
-5.7454776e-06
-9.3528268e-07
-5.6226778e-06
-9.5044826e-07
-5.4981675e-06
-9.6510802e-07
-5.3720032e-06
-9.792853e-07
-5.2442384e-06
-9.930032e-07
-5.1149238e-06
-1.0062846e-06
-4.9841072e-06
-1.019152e-06
-4.8518338e-06
-1.0316276e-06
-4.7181457e-06
-1.0437331e-06
-4.5830827e-06
-1.0554899e-06
-4.4466819e-06
-1.0669187e-06
-4.3089777e-06
-1.0780401e-06
-4.1700022e-06
-1.0888737e-06
-4.0297851e-06
-1.099439e-06
-3.8883537e-06
-1.1097546e-06
-3.7457333e-06
-1.1198387e-06
-3.6019467e-06
-1.1297088e-06
-3.4570149e-06
-1.1393819e-06
-3.3109567e-06
-1.1488743e-06
-3.1637889e-06
-1.1582017e-06
-3.0155267e-06
-1.1673791e-06
-2.8661832e-06
-1.1764208e-06
-2.71577e-06
-1.1853406e-06
-2.5642967e-06
-1.1941514e-06
-2.4117715e-06
-1.2028658e-06
-2.258201e-06
-1.2114953e-06
-2.10359e-06
-1.2200511e-06
-1.9479421e-06
-1.2285438e-06
-1.7912589e-06
-1.2369835e-06
-1.633541e-06
-1.2453799e-06
-1.4747872e-06
-1.2537428e-06
-1.3149957e-06
-1.2620822e-06
-1.154164e-06
-1.2704087e-06
-9.9229091e-07
-1.2787342e-06
-8.2937861e-07
-1.2870719e-06
-6.6543674e-07
-1.2954364e-06
-5.0048716e-07
-1.3038415e-06
-3.3456732e-07
-1.3122958e-06
-1.6772804e-07
-1.3207963e-06
-1.3293028e-06
-8.319008e-06
3.0153298e-07
-8.338955e-06
2.5170786e-07
-8.3532805e-06
2.0225085e-07
-8.3620567e-06
1.5324281e-07
-8.3653631e-06
1.0475644e-07
-8.3632832e-06
5.6863634e-08
-8.3559065e-06
9.6301418e-09
-8.3433413e-06
-3.6936513e-08
-8.3256937e-06
-8.272271e-08
-8.3030688e-06
-1.2770191e-07
-8.2755764e-06
-1.7183241e-07
-8.2433297e-06
-2.1507754e-07
-8.2064445e-06
-2.5740573e-07
-8.1650383e-06
-2.9879029e-07
-8.1192303e-06
-3.3920921e-07
-8.0691405e-06
-3.7864481e-07
-8.0148897e-06
-4.1708373e-07
-7.9565987e-06
-4.5451642e-07
-7.894388e-06
-4.9093706e-07
-7.8283776e-06
-5.2634336e-07
-7.7586864e-06
-5.6073616e-07
-7.6854321e-06
-5.9411938e-07
-7.608731e-06
-6.2649969e-07
-7.5286971e-06
-6.5788639e-07
-7.4454429e-06
-6.8829106e-07
-7.3590784e-06
-7.1772755e-07
-7.2697112e-06
-7.462116e-07
-7.1774464e-06
-7.7376077e-07
-7.0823864e-06
-8.0039417e-07
-6.9846306e-06
-8.2613237e-07
-6.8842758e-06
-8.5099714e-07
-6.7814156e-06
-8.7501138e-07
-6.6761405e-06
-8.9819886e-07
-6.568538e-06
-9.205842e-07
-6.4586924e-06
-9.4219267e-07
-6.3466849e-06
-9.6305001e-07
-6.2325932e-06
-9.8318242e-07
-6.1164923e-06
-1.0026164e-06
-5.9984536e-06
-1.0213786e-06
-5.8785456e-06
-1.0394958e-06
-5.7568334e-06
-1.0569949e-06
-5.6333792e-06
-1.0739024e-06
-5.508242e-06
-1.0902452e-06
-5.3814779e-06
-1.1060494e-06
-5.2531399e-06
-1.1213413e-06
-5.123278e-06
-1.1361465e-06
-4.9919394e-06
-1.1504906e-06
-4.8591686e-06
-1.1643984e-06
-4.7250072e-06
-1.1778945e-06
-4.5894941e-06
-1.1910029e-06
-4.4526658e-06
-1.2037471e-06
-4.3145559e-06
-1.2161499e-06
-4.1751959e-06
-1.2282338e-06
-4.0346146e-06
-1.2400203e-06
-3.8928387e-06
-1.2515305e-06
-3.7498925e-06
-1.2627849e-06
-3.6057983e-06
-1.2738031e-06
-3.460576e-06
-1.2846042e-06
-3.3142438e-06
-1.2952065e-06
-3.1668177e-06
-1.3056278e-06
-3.0183121e-06
-1.3158847e-06
-2.8687393e-06
-1.3259936e-06
-2.7181101e-06
-1.3359698e-06
-2.5664334e-06
-1.3458281e-06
-2.4137167e-06
-1.3555825e-06
-2.2599658e-06
-1.3652463e-06
-2.1051849e-06
-1.374832e-06
-1.9493769e-06
-1.3843517e-06
-1.7925435e-06
-1.3938169e-06
-1.6346847e-06
-1.4032387e-06
-1.4757999e-06
-1.4126277e-06
-1.3158875e-06
-1.4219946e-06
-1.1549461e-06
-1.4313502e-06
-9.9297501e-07
-1.4407052e-06
-8.2997643e-07
-1.4500705e-06
-6.6595694e-07
-1.4594558e-06
-5.0092988e-07
-1.4688686e-06
-3.3491533e-07
-1.4783104e-06
-1.6793659e-07
-1.487775e-06
-1.4972394e-06
-8.3747277e-06
3.2620027e-07
-8.3936435e-06
2.706237e-07
-8.4068778e-06
2.1548519e-07
-8.4145092e-06
1.6087417e-07
-8.4166221e-06
1.0686933e-07
-8.4133089e-06
5.3550412e-08
-8.4046603e-06
9.8150471e-10
-8.3907957e-06
-5.0801064e-08
-8.371819e-06
-1.0169939e-07
-8.3478422e-06
-1.5167873e-07
-8.3189806e-06
-2.0069399e-07
-8.2853524e-06
-2.4870577e-07
-8.2470778e-06
-2.9568035e-07
-8.2042787e-06
-3.4158932e-07
-8.1570785e-06
-3.8640945e-07
-8.1056009e-06
-4.3012243e-07
-8.0499701e-06
-4.727145e-07
-7.9903103e-06
-5.1417627e-07
-7.9267448e-06
-5.5450247e-07
-7.8593966e-06
-5.9369162e-07
-7.788387e-06
-6.317458e-07
-7.7138359e-06
-6.6867042e-07
-7.6358617e-06
-7.0447394e-07
-7.5545804e-06
-7.3916766e-07
-7.470106e-06
-7.7276545e-07
-7.38255e-06
-8.0528356e-07
-7.2920213e-06
-8.3674032e-07
-7.198626e-06
-8.6715607e-07
-7.1024674e-06
-8.9655277e-07
-7.0036458e-06
-9.2495395e-07
-6.9022584e-06
-9.5238451e-07
-6.7983994e-06
-9.7887043e-07
-6.6921595e-06
-1.0044387e-06
-6.5836264e-06
-1.0291173e-06
-6.4728846e-06
-1.0529345e-06
-6.360015e-06
-1.0759196e-06
-6.2450955e-06
-1.0981019e-06
-6.1282007e-06
-1.1195112e-06
-6.0094017e-06
-1.1401776e-06
-5.8887665e-06
-1.160131e-06
-5.76636e-06
-1.1794014e-06
-5.6422438e-06
-1.1980187e-06
-5.5164764e-06
-1.2160126e-06
-5.3891131e-06
-1.2334127e-06
-5.2602062e-06
-1.2502481e-06
-5.1298053e-06
-1.2665475e-06
-4.9979568e-06
-1.2823391e-06
-4.8647043e-06
-1.2976509e-06
-4.7300886e-06
-1.3125101e-06
-4.5941481e-06
-1.3269435e-06
-4.456918e-06
-1.3409771e-06
-4.3184315e-06
-1.3546364e-06
-4.1787191e-06
-1.3679462e-06
-4.0378087e-06
-1.3809307e-06
-3.8957261e-06
-1.3936131e-06
-3.7524948e-06
-1.4060161e-06
-3.6081362e-06
-1.4181617e-06
-3.4626694e-06
-1.430071e-06
-3.3161116e-06
-1.4417643e-06
-3.1684781e-06
-1.4532613e-06
-3.0197822e-06
-1.4645806e-06
-2.8700355e-06
-1.4757403e-06
-2.7192478e-06
-1.4867575e-06
-2.5674273e-06
-1.4976486e-06
-2.4145806e-06
-1.5084292e-06
-2.2607127e-06
-1.5191141e-06
-2.1058273e-06
-1.5297174e-06
-1.9499266e-06
-1.5402525e-06
-1.7930116e-06
-1.5507319e-06
-1.6350822e-06
-1.561168e-06
-1.4761374e-06
-1.5715724e-06
-1.3161758e-06
-1.5819562e-06
-1.1551958e-06
-1.5923302e-06
-9.9319645e-07
-1.6027045e-06
-8.3017859e-07
-1.6130883e-06
-6.661455e-07
-1.6234889e-06
-5.0110373e-07
-1.6339104e-06
-3.3506217e-07
-1.6443519e-06
-1.6802896e-07
-1.6548083e-06
-1.6652683e-06
-8.4349841e-06
3.4976814e-07
-8.4527293e-06
2.8836896e-07
-8.464729e-06
2.2748483e-07
-8.4710666e-06
1.6721179e-07
-8.4718347e-06
1.0763743e-07
-8.4671378e-06
4.8853579e-08
-8.4570576e-06
-9.0987304e-09
-8.4417347e-06
-6.612402e-08
-8.4212702e-06
-1.2216388e-07
-8.3957829e-06
-1.7716606e-07
-8.3653939e-06
-2.3108299e-07
-8.3302266e-06
-2.8387304e-07
-8.2904064e-06
-3.3550053e-07
-8.24606e-06
-3.8593576e-07
-8.1973149e-06
-4.3515456e-07
-8.1442991e-06
-4.8313816e-07
-8.0871408e-06
-5.2987283e-07
-8.0259674e-06
-5.753496e-07
-7.9609059e-06
-6.1956397e-07
-7.892082e-06
-6.6251558e-07
-7.8196197e-06
-7.0420803e-07
-7.7436417e-06
-7.4464845e-07
-7.6642683e-06
-7.8384738e-07
-7.5816176e-06
-8.2181832e-07
-7.4958054e-06
-8.5857767e-07
-7.4069447e-06