/*--------------------------------*- C++ -*----------------------------------*\
| =========                 |                                                 |
| \\      /  F ield         | OpenFOAM: The Open Source CFD Toolbox           |
|  \\    /   O peration     | Version:  2106                                  |
|   \\  /    A nd           | Website:  www.openfoam.com                      |
|    \\/     M anipulation  |                                                 |
\*---------------------------------------------------------------------------*/
FoamFile
{
    version     2.0;
    format      ascii;
    arch        "LSB;label=32;scalar=64";
    class       surfaceScalarField;
    location    "0.009";
    object      phi_0;
}
// * * * * * * * * * * * * * * * * * * * * * * * * * * * * * * * * * * * * * //

dimensions      [0 3 -1 0 0 0 0];

oriented        oriented;

internalField   nonuniform List<scalar> 
8064
(
0.00039824342
-0.00039823196
0.00079265112
-0.0003944077
0.0011794469
-0.00038679574
0.0015549156
-0.00037546874
0.0019154504
-0.00036053478
0.0022575868
-0.00034213642
0.0025780361
-0.00032044927
0.0028737165
-0.00029568044
0.003141783
-0.00026806649
0.0033796542
-0.00023787124
0.0035850375
-0.0002053833
0.0037559509
-0.00017091333
0.003890742
-0.00013479113
0.0039881045
-9.7362517e-05
0.0040470907
-5.8986158e-05
0.0040671213
-2.0030659e-05
0.0040479926
1.9128766e-05
0.003989876
5.8116552e-05
0.0038933104
9.6565621e-05
0.0037592174
0.00013409297
0.003588877
0.00017034043
0.0033839191
0.00020495791
0.0031463092
0.00023760988
0.0028783299
0.00026797932
0.0025825589
0.00029577094
0.0022618449
0.00032071406
0.0019192795
0.0003425654
0.0015581679
0.00036111154
0.0011819968
0.00037617115
0.00079439996
0.00038759684
0.00039912324
0.00039527671
-1.2261509e-08
0.0003991355
-0.00039914764
0.00039913538
-0.00079442399
0.00039527635
-0.0011820202
0.00038759623
-0.0015581905
0.0003761703
-0.001919301
0.00036111046
-0.0022618651
0.0003425641
-0.0025825777
0.00032071256
-0.0028783469
0.00029576926
-0.0031463244
0.00026797746
-0.0033839322
0.00023760786
-0.003588888
0.00020495576
-0.0037592262
0.00017033817
-0.0038933168
0.00013409063
-0.00398988
9.6563234e-05
-0.0040479942
5.8114139e-05
-0.0040671205
1.9126355e-05
-0.0040470875
-2.003304e-05
-0.003988099
-5.8988483e-05
-0.0038907343
-9.736476e-05
-0.003755941
-0.00013479327
-0.0035850256
-0.00017091534
-0.0033796405
-0.00020538517
-0.0031417675
-0.00023787296
-0.0028736995
-0.00026806804
-0.0025780177
-0.00029568182
-0.0022575672
-0.00032045047
-0.0019154298
-0.00034213743
-0.0015548941
-0.00036053561
-0.0011794248
-0.00037546938
-0.00079262856
-0.0003867962
-0.00039822059
-0.00039440797
-0.00039823205
0.00040371343
-0.00080193382
0.00080353906
-0.00079423333
0.0011956493
-0.000778906
0.0015762787
-0.00075609807
0.001941771
-0.00072602717
0.0022886149
-0.00068898026
0.0026134766
-0.00064531095
0.0029132323
-0.00059543615
0.0031849979
-0.00053983214
0.0034261567
-0.00047903006
0.0036343844
-0.00041361096
0.0038076713
-0.00034420026
0.0039443422
-0.00027146197
0.004043072
-0.00019609238
0.0041028995
-0.00011881366
0.0041232362
-4.0367347e-05
0.0041038723
3.8492741e-05
0.0040449782
0.00011701062
0.0039471103
0.00019443352
0.0038111942
0.00027000904
0.0036385262
0.00034300846
0.003430758
0.00041272612
0.0031898815
0.00047848636
0.0029182102
0.00053965065
0.002618357
0.00059562406
0.0022932099
0.00064586122
0.0019459034
0.00068987189
0.0015797889
0.00072722604
0.0011984018
0.00075755819
0.00080542737
0.00078057132
0.00040466422
0.00079603986
-1.2411103e-08
0.00080381213
-0.00040468892
0.00080381189
-0.00080545169
0.00079603912
-0.0011984256
0.00078057009
-0.0015798117
0.00075755649
-0.0019459252
0.00072722388
-0.0022932304
0.00068986929
-0.002618376
0.0006458582
-0.0029182274
0.00059562066
-0.0031898968
0.00053964691
-0.0034307713
0.0004784823
-0.0036385373
0.0004127218
-0.0038112031
0.00034300393
-0.0039471168
0.00027000434
-0.0040449823
0.00019442871
-0.0041038739
0.00011700576
-0.0041232354
3.8487886e-05
-0.0041028963
-4.0372141e-05
-0.0040430664
-0.00011881834
-0.0039443343
-0.00019609689
-0.0038076613
-0.00027146627
-0.0036343723
-0.00034420432
-0.0034261428
-0.00041361472
-0.0031849822
-0.00047903351
-0.002913215
-0.00053983525
-0.0026134579
-0.00059543891
-0.0022885951
-0.00064531335
-0.0019417502
-0.00068898229
-0.001576257
-0.00072602882
-0.001195627
-0.00075609936
-0.00080351628
-0.00077890692
-0.00040369037
-0.00079423388
-0.000801934
0.00041290828
-0.0012148303
0.00082184127
-0.0012031663
0.0012228851
-0.0011799498
0.0016121893
-0.0011454023
0.0019860154
-0.0010998533
0.0023407725
-0.0010437374
0.0026730516
-0.00097759008
0.0029796582
-0.00090204276
0.0032576427
-0.00081781666
0.0035043288
-0.00072571613
0.0037173389
-0.00062662104
0.0038946172
-0.00052147853
0.0040344493
-0.0004112941
0.0041354791
-0.00029712219
0.0041967218
-0.00018005638
0.0042175737
-6.1219214e-05
0.0041978179
5.8248501e-05
0.0041376284
0.00017720013
0.0040375704
0.00029449159
0.0038985899
0.00040898952
0.0037220102
0.00051958815
0.0035095188
0.00062521749
0.0032631516
0.00072485352
0.0029852739
0.0008175284
0.0026785578
0.0009023402
0.0023459569
0.00097846204
0.0019906782
0.0010451506
0.0016161507
0.0011017536
0.001225992
0.0011477168
0.0008239736
0.0011825898
0.00041398326
0.0012060302
-1.2663311e-08
0.0012178081
-0.00041400846
0.0012178077
-0.00082399842
0.0012060291
-0.0012260162
0.0011825879
-0.001616174
0.0011477143
-0.0019907005
0.0011017503
-0.0023459778
0.0010451466
-0.0026785771
0.00097845748
-0.0029852915
0.00090233505
-0.0032631673
0.00081752273
-0.0035095324
0.00072484738
-0.0037220215
0.00062521095
-0.0038985989
0.00051958128
-0.0040375769
0.0004089824
-0.0041376325
0.0002944843
-0.0041978195
0.00017719276
-0.0042175728
5.8241144e-05
-0.0041967185
-6.1226476e-05
-0.0041354733
-0.00018006346
-0.0040344412
-0.00029712902
-0.0038946069
-0.00041130061
-0.0037173265
-0.00052148465
-0.0035043145
-0.00062662672
-0.0032576267
-0.00072572133
-0.0029796406
-0.00081782135
-0.0026730326
-0.00090204692
-0.0023407523
-0.00097759369
-0.0019859941
-0.0010437404
-0.0016121672
-0.0010998557
-0.0012228624
-0.0011454042
-0.00082181812
-0.0011799512
-0.00041288486
-0.0012031671
-0.0012148306
0.00042611311
-0.0016409314
0.00084812525
-0.0016251785
0.0012619986
-0.0015938231
0.0016637607
-0.0015471644
0.0020495547
-0.0014856473
0.002415676
-0.0014098586
0.0027586072
-0.0013205213
0.0030750523
-0.0012184878
0.0033619676
-0.001104732
0.0036165914
-0.0009803399
0.0038364697
-0.00084649937
0.0040194804
-0.00070448916
0.0041638531
-0.0005556668
0.0042681867
-0.00040145586
0.0043314631
-0.00024333273
0.0043530567
-8.2812804e-05
0.0043327414
7.8563814e-05
0.0042706941
0.00023924743
0.0041674937
0.00039769197
0.0040241144
0.00055236877
0.003841919
0.00070178362
0.0036226461
0.00084449037
0.0033683947
0.00097910489
0.0030816043
0.0011043188
0.0027650319
0.0012189126
0.0024217258
0.0013217681
0.0020549965
0.0014118799
0.0016683845
0.0014883656
0.0012656259
0.0015504755
0.00085061583
0.0015975998
0.00042737042
0.0016292756
-1.303219e-08
0.0016451915
-0.00042739636
0.001645191
-0.00085064137
0.0016292741
-0.0012656508
0.0015975973
-0.0016684085
0.001550472
-0.0020550194
0.0014883612
-0.0024217473
0.0014118746
-0.0027650518
0.001321762
-0.0030816224
0.0012189057
-0.0033684108
0.0011043111
-0.0036226601
0.00097909659
-0.0038419306
0.00084448153
-0.0040241237
0.00070177434
-0.0041675004
0.00055235915
-0.0042706983
0.00039768212
-0.004332743
0.00023923748
-0.0043530557
7.8553872e-05
-0.0043314596
-8.2822615e-05
-0.0042681807
-0.0002433423
-0.0041638447
-0.00040146508
-0.0040194697
-0.00055567557
-0.0038364569
-0.00070449741
-0.0036165766
-0.00084650701
-0.0033619511
-0.00098034689
-0.0030750341
-0.0011047383
-0.0027585876
-0.0012184934
-0.0024156552
-0.0013205261
-0.002049533
-0.0014098627
-0.0016637381
-0.0014856506
-0.0012619753
-0.001547167
-0.00084810155
-0.0015938249
-0.00042608914
-0.0016251796
-0.0016409318
0.00044373944
-0.0020846585
0.00088321013
-0.0020646492
0.0013142087
-0.0020248217
0.0017326002
-0.0019655559
0.0021343695
-0.0018874166
0.00251566
-0.0017911491
0.00287281
-0.0016776713
0.003202388
-0.0015480658
0.0035012249
-0.001403569
0.0037664449
-0.0012455598
0.0039954922
-0.0010755467
0.004186156
-0.000895153
0.0043365916
-0.00070610238
0.0044453379
-0.00051020219
0.004511332
-0.00030932686
0.0045339196
-0.00010540036
0.0045128617
9.9621668e-05
0.0044483386
0.00030377054
0.0043409484
0.00050508222
0.0041917016
0.00070161557
0.0040020134
0.00089147186
0.0037736909
0.0010728129
0.0035089169
0.0012438788
0.00321023
0.0014030058
0.0028805001
0.0015486425
0.0025229019
0.0016793663
0.0021408842
0.0017938976
0.0017381364
0.0018911134
0.0013185528
0.0019700591
0.00088619423
0.0020299584
0.00044524794
0.0020702219
-1.3528401e-08
0.002090453
-0.00044527486
0.0020904523
-0.00088622075
0.00207022
-0.0013185787
0.0020299552
-0.0017381614
0.0019700547
-0.002140908
0.0018911078
-0.0025229243
0.0017938909
-0.0028805208
0.0016793585
-0.0032102488
0.0015486337
-0.0035089337
0.001402996
-0.0037737054
0.0012438683
-0.0040020255
0.0010728016
-0.0041917112
0.00089146005
-0.0043409554
0.00070160333
-0.0044483429
0.00050506969
-0.0045128633
0.00030375788
-0.0045339185
9.9609026e-05
-0.0045113283
-0.00010541284
-0.0044453316
-0.00030933901
-0.0043365827
-0.00051021389
-0.0041861448
-0.0007061135
-0.0039954788
-0.00089516344
-0.0037664295
-0.0010755563
-0.0035012077
-0.0012455687
-0.0032023691
-0.0014035769
-0.0028727897
-0.0015480728
-0.0025156385
-0.0016776774
-0.002134347
-0.0017911541
-0.0017325768
-0.0018874207
-0.0013141848
-0.0019655591
-0.00088318571
-0.002024824
-0.00044371475
-0.0020646505
-0.0020846589
0.00046633187
-0.0025509775
0.00092817999
-0.0025264973
0.0013811289
-0.0024777707
0.0018208351
-0.002405262
0.0022430809
-0.0023096624
0.0026438149
-0.0021918831
0.0030191906
-0.002053047
0.0033656027
-0.0018944779
0.0036797217
-0.001717688
0.0039585255
-0.0015243636
0.004199328
-0.0013163492
0.0043998051
-0.0010956301
0.0045580164
-0.00086431369
0.0046724243
-0.00062461003
0.0047419084
-0.00037881101
0.0047657773
-0.00012926926
0.0047437754
0.0001216236
0.0046760866
0.00037145933
0.0045633337
0.00061783514
0.0044065731
0.0008583761
0.0042072868
0.0010907582
0.0039673691
0.0013127306
0.0036891101
0.0015221378
0.0033751746
0.0017169412
0.0030285776
0.0018952395
0.0026526555
0.0020552884
0.0022510344
0.0021955187
0.001827595
0.0023145529
0.0013864343
0.0024112197
0.00093182594
0.0024845668
0.00046817726
0.0025338706
-1.4159031e-08
0.0025586444
-0.00046820544
0.0025586436
-0.0009318537
0.0025338682
-0.0013864614
0.0024845629
-0.0018276211
0.0024112144
-0.0022510593
0.0023145461
-0.0026526789
0.0021955105
-0.0030285993
0.0020552789
-0.0033751944
0.0018952288
-0.0036891277
0.0017169293
-0.0039673843
0.0015221249
-0.0042072995
0.0013127168
-0.0044065831
0.0010907437
-0.0045633409
0.00085836109
-0.004676091
0.00061781979
-0.0047437769
0.00037144382
-0.004765776
0.00012160811
-0.0047419043
-0.00012928453
-0.0046724175
-0.00037882589
-0.004558007
-0.00062462434
-0.0043997932
-0.00086432727
-0.0041993139
-0.0010956428
-0.0039585093
-0.0013163609
-0.0036797036
-0.0015243743
-0.003365583
-0.0017176976
-0.0030191694
-0.0018944864
-0.0026437925
-0.0020530543
-0.0022430574
-0.0021918892
-0.0018208108
-0.0023096673
-0.001381104
-0.0024052658
-0.00092815465
-0.0024777734
-0.00046630628
-0.0025264989
-0.002550978
0.00049458611
-0.0030455502
0.00098441968
-0.0030163309
0.0014648201
-0.0029581711
0.001931183
-0.0028716249
0.0023790377
-0.0027575171
0.0028040893
-0.0026169347
0.00320226
-0.0024512177
0.0035697276
-0.0022619455
0.0039029618
-0.0020509222
0.0041987579
-0.0018201597
0.0044542672
-0.0015718584
0.0046670236
-0.0013083865
0.0048349676
-0.0010322577
0.0049564654
-0.00074610787
0.0050303251
-0.00045267076
0.0050558084
-0.00015475251
0.0050326382
0.0001447938
0.0049610028
0.00044309473
0.0048415553
0.00073728268
0.0046754087
0.0010245226
0.0044641277
0.0013020392
0.004209715
0.0015671433
0.0039145941
0.0018172587
0.0035815878
0.0020499476
0.0032138917
0.0022629356
0.0028150447
0.0024541354
0.0023888947
0.0026216687
0.0019395617
0.0027638859
0.0014713972
0.0028793842
0.00098894127
0.0029670227
0.00049687728
0.0030259346
-1.4929519e-08
0.0030555366
-0.00049690699
0.0030555357
-0.00098897055
0.0030259318
-0.0014714257
0.0029670181
-0.0019395892
0.0028793779
-0.002388921
0.0027638778
-0.0028150694
0.0026216589
-0.0032139146
0.0024541241
-0.0035816086
0.0022629228
-0.0039146127
0.0020499334
-0.004209731
0.0018172433
-0.0044641411
0.0015671269
-0.0046754193
0.0013020219
-0.0048415629
0.0010245047
-0.0049610074
0.00073726431
-0.0050326397
0.00044307616
-0.0050558069
0.00014477528
-0.0050303207
-0.00015477076
-0.004956458
-0.00045268852
-0.0048349575
-0.00074612493
-0.0046670109
-0.0010322738
-0.0044542521
-0.0013084016
-0.0041987407
-0.0015718724
-0.0039029426
-0.0018201724
-0.0035697066
-0.0020509335
-0.0032022376
-0.0022619554
-0.0028040657
-0.0024512262
-0.0023790131
-0.0026169418
-0.0019311576
-0.0027575228
-0.0014647941
-0.0028716294
-0.00098439326
-0.0029581742
-0.00049455944
-0.0030163327
-0.0030455509
0.00052937801
-0.0035749142
0.0010536727
-0.0035406255
0.0015678769
-0.0034723753
0.0020670655
-0.0033708135
0.002546456
-0.0032369075
0.003001454
-0.0030719327
0.003427697
-0.0028774608
0.0038210959
-0.0026553444
0.0041778736
-0.0024076998
0.0044946006
-0.0021368867
0.0047682278
-0.0018454857
0.004996115
-0.0015362737
0.0051760558
-0.0012121984
0.0053062981
-0.00087635026
0.0053855617
-0.00053193432
0.00541305
-0.00018224079
0.0053884591
0.00016938473
0.0053119818
0.00051957203
0.0051843076
0.00086495682
0.0050066185
0.0012022118
0.0047805795
0.0015280781
0.0045083262
0.0018393967
0.0041924455
0.0021331393
0.003835954
0.0024064391
0.0034422695
0.0026566201
0.0030151798
0.0028812251
0.0025588066
0.0030780419
0.0020775649
0.0032451276
0.0015761201
0.003380829
0.0010593415
0.0034838013
0.00053225332
0.0035530228
-1.5845291e-08
0.0035878058
-0.00053228486
0.0035878047
-0.0010593726
0.0035530195
-0.0015761505
0.003483796
-0.0020775942
0.0033808216
-0.0025588345
0.0032451181
-0.0030152061
0.0030780305
-0.0034422938
0.0028812118
-0.0038359761
0.0026566051
-0.0041924653
0.0024064225
-0.0045083433
0.0021331212
-0.0047805938
0.0018393774
-0.0050066296
0.0015280578
-0.0051843156
0.0012021907
-0.0053119865
0.00086493521
-0.0053884606
0.00051955019
-0.0054130482
0.00016936294
-0.0053855568
-0.00018226225
-0.0053062901
-0.00053195518
-0.0051760448
-0.00087637026
-0.0049961013
-0.0012122173
-0.0047682115
-0.0015362914
-0.004494582
-0.0018455019
-0.004177853
-0.0021369014
-0.0038210737
-0.0024077129
-0.0034276733
-0.0026553558
-0.003001429
-0.0028774705
-0.00254643
-0.0030719408
-0.0020670388
-0.003236914
-0.0015678496
-0.0033708185
-0.001053645
-0.0034723788
-0.00052935009
-0.0035406276
-0.0035749149
0.00057180051
-0.0041467001
0.0011381146
-0.0041069396
0.0016935371
-0.0040277979
0.0022327518
-0.0039100283
0.0027505963
-0.003754752
0.0032421112
-0.0035634476
0.0037025871
-0.0033379367
0.0041276095
-0.0030803668
0.0045131006
-0.0027931909
0.0048553573
-0.0024791435
0.0051510866
-0.0021412149
0.0053974359
-0.001782623
0.0055920198
-0.0014067824
0.0057329425
-0.0010172729
0.0058188152
-0.00061780709
0.0058487704
-0.00021219594
0.0058224704
0.00019568475
0.0057401126
0.00060192978
0.00560243
0.0010026394
0.0054106867
0.0013939551
0.0051666695
0.0017720953
0.0048726738
0.0021333923
0.0045314854
0.0024743277
0.0041463559
0.0027915687
0.0037209738
0.0030820022
0.0032594306
0.0033427683
0.0027661814
0.0035712911
0.002246002
0.0037653069
0.0017039415
0.0039228895
0.0011452717
0.0040424712
0.00057543371
0.0041228607
-1.6912363e-08
0.0041632564
-0.00057546738
0.0041632552
-0.0011453049
0.004122857
-0.0017039739
0.0040424651
-0.0022460334
0.003922881
-0.0027662113
0.0037652961
-0.0032594587
0.003571278
-0.0037209999
0.003342753
-0.0041463796
0.0030819848
-0.0045315066
0.0027915494
-0.0048726921
0.0024743068
-0.0051666847
0.0021333699
-0.0054106987
0.0017720717
-0.0056024385
0.0013939306
-0.0057401176
0.0010026143
-0.0058224718
0.00060190438
-0.0058487683
0.00019565942
-0.0058188097
-0.00021222086
-0.0057329336
-0.00061783129
-0.0055920078
-0.0010172961
-0.0053974209
-0.0014068042
-0.0051510689
-0.0017826433
-0.0048553372
-0.0021412335
-0.0045130784
-0.0024791602
-0.0041275856
-0.0027932057
-0.0037025617
-0.0030803797
-0.0032420845
-0.0033379476
-0.0027505688
-0.0035634566
-0.0022327236
-0.0037547592
-0.0016935083
-0.0039100338
-0.0011380854
-0.0040278017
-0.00057177119
-0.0041069419
-0.0041467008
0.00062320377
-0.0047698884
0.0012404329
-0.0047241687
0.0018458001
-0.0046331651
0.0024335155
-0.0044977436
0.0029979564
-0.0043191929
0.0035337212
-0.0040992124
0.0040356806
-0.0038398961
0.0044990261
-0.0035437124
0.0049193156
-0.0032134804
0.0052925151
-0.0028523429
0.0056150361
-0.002463736
0.0058837693
-0.0020513563
0.006096113
-0.001619126
0.0062499967
-0.0011711566
0.0063439007
-0.00071171108
0.0063768704
-0.00024516568
0.0063485268
0.00022402838
0.0062590716
0.00069138492
0.0061092888
0.0011524222
0.0059005407
0.0016027032
0.0056347594
0.0020378766
0.0053144331
0.0024537186
0.0049425865
0.0028461744
0.0045227553
0.0032113999
0.0040589554
0.0035458021
0.0035556459
0.0038460778
0.0030176867
0.0041092503
0.0024502912
0.0043327024
0.0018589744
0.0045142062
0.0012494974
0.0046519481
0.00062780847
0.0047445497
-1.8137242e-08
0.004791083
-0.00062784458
0.0047910816
-0.0012495331
0.0047445455
-0.0018590092
0.0046519412
-0.0024503248
0.0045141966
-0.0030177188
0.0043326901
-0.0035556762
0.0041092353
-0.0040589835
0.0038460603
-0.0045227809
0.0035457822
-0.0049426094
0.0032113778
-0.0053144529
0.0028461503
-0.0056347758
0.0024536928
-0.0059005535
0.0020378494
-0.0061092979
0.001602675
-0.0062590769
0.0011523933
-0.0063485282
0.00069135564
-0.0063768679
0.00022399918
-0.0063438944
-0.00024519439
-0.0062499868
-0.00071173891
-0.0060960996
-0.0011711832
-0.0058837528
-0.001619151
-0.0056150167
-0.0020513794
-0.0052924932
-0.0024637571
-0.0049192916
-0.0028523618
-0.0044990003
-0.003213497
-0.0040356533
-0.0035437267
-0.0035336927
-0.0038399082
-0.002997927
-0.0040992223
-0.0024334855
-0.0043192007
-0.0018457697
-0.0044977495
-0.0012404022
-0.0046331693
-0.00062317291
-0.0047241711
-0.0047698892
0.00068523203
-0.0054551041
0.0013639005
-0.0054028371
0.0020295364
-0.005298801
0.002675778
-0.0051439853
0.0032964477
-0.0049398626
0.0038856104
-0.0046883751
0.0044376299
-0.0043919156
0.0049472226
-0.0040533051
0.0054095074
-0.0036757651
0.0058200509
-0.0032628864
0.0061749093
-0.0028185943
0.0064706639
-0.0023471108
0.0067044522
-0.0018529143
0.0068739938
-0.0013406983
0.0069776109
-0.00081532811
0.0070142437
-0.00028179852
0.0069834623
0.00025480979
0.0068854726
0.00078937467
0.0067211182
0.0013167766
0.0064918782
0.0018319433
0.006199858
0.0023298968
0.0058477764
0.0028058002
0.0054389448
0.003255006
0.0049772406
0.0036731041
0.004467074
0.0040559687
0.0039133476
0.0043998042
0.00332141
0.0047011879
0.0026970035
0.0049571089
0.0020462068
0.0051650029
0.0013753728
0.0053227822
0.0006910632
0.0054288593
-1.9526494e-08
0.0054821657
-0.00069110208
0.0054821642
-0.0013754112
0.0054288546
-0.0020462443
0.0053227744
-0.0026970398
0.005164992
-0.0033214447
0.004957095
-0.0039133804
0.004701171
-0.0044671045
0.0043997845
-0.0049772685
0.0040559462
-0.0054389696
0.003673079
-0.0058477979
0.0032549786
-0.0061998758
0.0028057708
-0.0064918921
0.0023298657
-0.0067211281
0.0018319109
-0.0068854781
0.0013167434
-0.0069834636
0.0007893411
-0.0070142408
0.00025477633
-0.0069776037
-0.0002818314
-0.0068739827
-0.00081535994
-0.0067044373
-0.0013407286
-0.0064706456
-0.0018529428
-0.0061748879
-0.0023471371
-0.0058200269
-0.0028186181
-0.0054094811
-0.0032629076
-0.0049471945
-0.0036757836
-0.0044376003
-0.0040533209
-0.0038855797
-0.0043919287
-0.0032964163
-0.0046883857
-0.0026757461
-0.004939871
-0.0020295041
-0.0051439915
-0.0013638681
-0.0052988053
-0.00068519951
-0.0054028397
-0.005455105
0.0007598477
-0.0062149347
0.0015124234
-0.0061554129
0.0022505581
-0.0060369357
0.0029672024
-0.0058606295
0.0036555105
-0.0056281707
0.0043089056
-0.0053417702
0.004921142
-0.005004152
0.0054863647
-0.0046185278
0.0059991646
-0.0041885649
0.0064546288
-0.0037183506
0.0068483864
-0.003212352
0.0071766477
-0.0026753721
0.0074362378
-0.0021125044
0.0076246244
-0.0015290848
0.0077399399
-0.00093064363
0.0077809985
-0.00032285711
0.0077473083
0.00028849996
0.0076390791
0.0008976039
0.0074572249
0.0014986307
0.0072033628
0.0020858055
0.0068798048
0.0026534547
0.0064895448
0.0031960601
0.0060362374
0.0037083134
0.0055241698
0.0041851717
0.0049582255
0.004621913
0.0043438405
0.0050141893
0.0036869516
0.0053580768
0.0029939383
0.0056501222
0.0022715582
0.005887383
0.0015268776
0.0060674628
0.00076719793
0.006188539
-2.1086119e-08
0.0062493848
-0.00076723993
0.006249383
-0.0015269191
0.0061885338
-0.0022715988
0.0060674541
-0.0029939777
0.0058873709
-0.0036869893
0.0056501066
-0.0043438762
0.0053580579
-0.0049582587
0.005014167
-0.0055242002
0.0046218876
-0.0060362645
0.0041851433
-0.0064895682
0.0037082823
-0.0068798242
0.0031960268
-0.0072033779
0.0026534194
-0.0074572356
0.0020857686
-0.007639085
0.0014985929
-0.0077473095
0.00089756559
-0.007780995
0.00028846176
-0.0077399317
-0.00032289462
-0.0076246118
-0.00093067989
-0.0074362211
-0.0015291193
-0.0071766272
-0.0021125367
-0.0068483626
-0.0026754017
-0.0064546021
-0.0032123786
-0.0059991356
-0.0037183741
-0.0054863339
-0.0041885852
-0.0049211099
-0.0046185449
-0.0043088725
-0.0050041661
-0.0036554768
-0.0053417814
-0.0029671684
-0.0056281794
-0.0022505239
-0.005860636
-0.0015123892
-0.0060369401
-0.00075981345
-0.0061554154
-0.0062149355
0.00084932963
-0.0070642464
0.0016905375
-0.0069966207
0.0025156143
-0.0068620125
0.0033166854
-0.0066617007
0.0040861038
-0.0063975891
0.0048165222
-0.0060721886
0.0055009639
-0.0056885937
0.0061328884
-0.0052504524
0.0067062539
-0.0047619304
0.0072155732
-0.0042276699
0.0076559642
-0.003652743
0.0080231937
-0.0030426016
0.0083137137
-0.0024030244
0.0085246917
-0.0017400628
0.0086540339
-0.0010599859
0.0087004041
-0.00036922727
0.0086632363
0.00032566773
0.0085427442
0.001018096
0.008339925
0.00170145
0.0080565593
0.0023691712
0.0076952048
0.0030148092
0.0072591833
0.0036320816
0.0067525593
0.0042149374
0.0061801098
0.0047576212
0.0055472854
0.0052547374
0.0048601614
0.0057013133
0.0041253801
0.006092858
0.0033500857
0.0064254166
0.0025418508
0.0066956179
0.0017085982
0.0069007153
0.00085851731
0.0070386199
-2.2820729e-08
0.0071079249
-0.00085856278
0.007107923
-0.0017086431
0.0070386141
-0.0025418948
0.0069007058
-0.0033501284
0.0066956045
-0.0041254212
0.0064253994
-0.0048602003
0.006092837
-0.0055473217
0.0057012885
-0.0061801431
0.0052547089
-0.006752589
0.0047575893
-0.0072592091
0.0042149024
-0.0076952262
0.0036320438
-0.0080565759
0.0030147691
-0.0083399366
0.0023691293
-0.0085427506
0.0017014069
-0.0086632374
0.0010180524
-0.0087003999
0.00032562423
-0.0086540246
-0.00036926996
-0.0085246773
-0.0010600271
-0.0083136948
-0.0017401019
-0.0080231706
-0.0024030608
-0.0076559375
-0.0030426348
-0.0072155434
-0.0036527727
-0.0067062218
-0.0042276958
-0.0061328545
-0.0047619525
-0.0055009287
-0.0052504707
-0.0048164863
-0.0056886085
-0.0040860675
-0.0060722002
-0.0033166491
-0.0063975979
-0.002515578
-0.0066617071
-0.0016905013
-0.0068620168
-0.00084929362
-0.0069966231
-0.0070642471
0.00095622793
-0.0080204555
0.0019033181
-0.0079437108
0.0028322562
-0.0077909506
0.0037341809
-0.0075636254
0.0046004864
-0.0072638946
0.0054229047
-0.006894607
0.0061935847
-0.0064592737
0.006905167
-0.0059620346
0.0075508536
-0.0054076171
0.0081244721
-0.0048012884
0.0086205313
-0.0041488022
0.0090342701
-0.0034563405
0.0093616976
-0.0027304519
0.0095996252
-0.0019779904
0.009745692
-0.0012060527
0.0097983836
-0.00042191886
0.0097570471
0.0003670042
0.0096219011
0.001153242
0.0093940414
0.0019293097
0.0090754428
0.0026877697
0.008668955
0.003421297
0.0081782896
0.004122747
0.0076079991
0.0047852279
0.006963445
0.0054021753
0.0062507542
0.0059674281
0.0054767656
0.0064753019
0.0046489644
0.0069206593
0.003775408
0.0072989731
0.0028646428
0.0076063831
0.0019256148
0.0078397434
0.00096757395
0.0079966607
-2.473243e-08
0.0080755236
-0.00096762324
0.0080755215
-0.0019256635
0.0079966544
-0.0028646907
0.0078397329
-0.0037754545
0.0076063684
-0.0046490093
0.0072989541
-0.0054768083
0.006920636
-0.0062507942
0.0064752744
-0.0069634816
0.0059673964
-0.007608032
0.0054021396
-0.0081783181
0.0047851885
-0.0086689786
0.0041227044
-0.0090754612
0.0034212516
-0.0093940541
0.0026877222
-0.009621908
0.0019292608
-0.009757048
0.0011531924
-0.0097983785
0.00036695474
-0.0097456811
-0.00042196737
-0.0095996088
-0.0012060994
-0.0093616761
-0.0019780346
-0.0090342439
-0.002730493
-0.0086205011
-0.0034563776
-0.0081244386
-0.0041488351
-0.0075508177
-0.0048013167
-0.0069051294
-0.0054076408
-0.0061935461
-0.0059620539
-0.0054228657
-0.0064592889
-0.0046004473
-0.0068946186
-0.0037341421
-0.0072639031
-0.0028322178
-0.0075636313
-0.0019032801
-0.0077909545
-0.00095619023
-0.007943713
-0.0080204562
0.001083253
-0.009103689
0.0021561594
-0.0090166172
0.0032085086
-0.0088432999
0.0042302647
-0.0085853816
0.0052116814
-0.0082453112
0.0061433945
-0.0078263201
0.0070165126
-0.0073323918
0.0078227021
-0.006768224
0.0085542667
-0.0061391816
0.00920422
-0.0054512417
0.009766349
-0.0047109313
0.010235268
-0.0039252599
0.010606465
-0.0031016481
0.01087633
-0.0022478562
0.011042192
-0.0013719138
0.011102326
-0.00048205371
0.011055982
0.00041334906
0.010903383
0.0013058403
0.010645745
0.0021869479
0.010285273
0.003048242
0.0098251618
0.003881408
0.0092695864
0.0046783224
0.0086236784
0.0054311359
0.0078934926
0.0061323611
0.0070859598
0.0067749609
0.0062088254
0.0073524363
0.0052705756
0.007858909
0.0042803523
0.0082891964
0.0032478577
0.0086388776
0.0021832519
0.0089043492
0.0010970428
0.0090828698
-2.6819315e-08
0.0091725932
-0.0010970963
0.0091725909
-0.0021833048
0.009082863
-0.0032479098
0.0089043379
-0.0042804031
0.0086388617
-0.0052706247
0.0082891757
-0.0062088723
0.0078588836
-0.0070860039
0.007352406
-0.0078935332
0.0067749257
-0.0086237148
0.0061323213
-0.0092696181
0.0054310918
-0.0098251881
0.0046782744
-0.010285293
0.0038813567
-0.010645759
0.0030481882
-0.010903391
0.0021868924
-0.011055982
0.001305784
-0.01110232
0.00041329285
-0.011042179
-0.00048210884
-0.010876311
-0.0013719669
-0.01060644
-0.0022479063
-0.010235238
-0.0031016943
-0.0097663147
-0.0039253014
-0.0092041821
-0.0047109677
-0.0085542263
-0.0054512726
-0.0078226601
-0.006139207
-0.0070164699
-0.0067682441
-0.0061433518
-0.0073324071
-0.0052116392
-0.0078263312
-0.0042302233
-0.0082453189
-0.003208468
-0.0085853866
-0.0021561196
-0.0088433029
-0.0010832138
-0.0090166188
-0.0091036895
0.0012330719
-0.010336741
0.0024543687
-0.010237914
0.0036522659
-0.010041197
0.0048153396
-0.0097484552
0.0059324948
-0.0093624665
0.0069930724
-0.0088868977
0.0079869515
-0.0083262709
0.0089046477
-0.0076859203
0.0097374045
-0.0069719384
0.010477276
-0.0061911133
0.0111172
-0.0053508553
0.011651059
-0.0044591185
0.012073727
-0.0035243166
0.012381111
-0.0025552402
0.012570174
-0.0015609764
0.012638955
-0.00055083506
0.012586589
0.00046571543
0.012413314
0.001479115
0.012120487
0.0024797753
0.011710586
0.0034581425
0.011187217
0.0044047772
0.0105551
0.0053104398
0.0098200494
0.0061661862
0.0089889396
0.0069634708
0.0080696489
0.0076942516
0.0070709916
0.0083510936
0.0060026333
0.0089272673
0.0048749929
0.0094168369
0.0036991325
0.009814738
0.0024866395
0.010116842
0.0012495005
0.010320009
-2.9073481e-08
0.010422123
-0.0012495585
0.01042212
-0.0024866971
0.010320002
-0.0036991893
0.01011683
-0.0048750484
0.0098147208
-0.0060026872
0.0094168145
-0.0070710433
0.0089272396
-0.0080696977
0.0083510604
-0.0089889848
0.0076942128
-0.0098200901
0.0069634266
-0.010555135
0.0061661368
-0.011187247
0.0053103858
-0.011710609
0.0044047193
-0.012120503
0.0034580816
-0.012413322
0.0024797123
-0.012586589
0.001479051
-0.012638948
0.00046565153
-0.012570159
-0.00055089775
-0.012381089
-0.0015610367
-0.012073699
-0.0025552969
-0.011651024
-0.0035243687
-0.011117161
-0.004459165
-0.010477233
-0.0053508955
-0.0097373587
-0.0061911467
-0.0089046006
-0.0069719651
-0.0079869041
-0.0076859406
-0.0069930256
-0.0083262855
-0.0059324492
-0.0088869076
-0.0048152955
-0.0093624727
-0.0036522234
-0.0097484588
-0.0024543274
-0.010041199
-0.0012330314
-0.010237915
-0.010336741
0.0014079821
-0.011744702
0.0028025177
-0.01163245
0.004170327
-0.011409006
0.0054983612
-0.011076489
0.0067739473
-0.010638053
0.00798491
-0.01009786
0.0091196896
-0.0094610505
0.010167456
-0.0087336862
0.011118212
-0.0079226946
0.011962892
-0.007035794
0.012693446
-0.0060814087
0.013302903
-0.005068576
0.013785434
-0.0040068471
0.014136383
-0.0029061894
0.014352301
-0.0017768937
0.014430958
-0.00062949255
0.014371366
0.00052530762
0.014173786
0.0016766946
0.013839746
0.0028138154
0.013372049
0.0039258392
0.012774782
0.0050020448
0.012053305
0.0060319169
0.011214234
0.007005257
0.0102654
0.0079123046
0.0092157895
0.0087438621
0.0080754642
0.0094914189
0.0068554647
0.010147267
0.0055676964
0.010704605
0.0042248033
0.011157631
0.0028400309
0.011501615
0.0014270824
0.011732957
-3.1478452e-08
0.011849237
-0.0014271452
0.011849234
-0.0028400933
0.01173295
-0.004224865
0.011501602
-0.0055677572
0.011157613
-0.006855524
0.010704581
-0.0080755214
0.010147237
-0.0092158438
0.0094913828
-0.010265451
0.0087438196
-0.01121428
0.0079122556
-0.012053345
0.0070052019
-0.012774815
0.0060318562
-0.013372075
0.0050019795
-0.013839764
0.0039257702
-0.014173795
0.0028137439
-0.014371366
0.0016766218
-0.01443095
0.00052523491
-0.014352284
-0.00062956392
-0.014136358
-0.0017769624
-0.013785401
-0.0029062539
-0.013302863
-0.0040069061
-0.0126934
-0.0050686282
-0.011962843
-0.0060814531
-0.011118159
-0.0070358301
-0.010167402
-0.0079227224
-0.0091196365
-0.0087337062
-0.0079848584