/*--------------------------------*- C++ -*----------------------------------*\
| =========                 |                                                 |
| \\      /  F ield         | OpenFOAM: The Open Source CFD Toolbox           |
|  \\    /   O peration     | Version:  2106                                  |
|   \\  /    A nd           | Website:  www.openfoam.com                      |
|    \\/     M anipulation  |                                                 |
\*---------------------------------------------------------------------------*/
FoamFile
{
    version     2.0;
    format      ascii;
    arch        "LSB;label=32;scalar=64";
    class       volVectorField;
    location    "0.009";
    object      U_0;
}
// * * * * * * * * * * * * * * * * * * * * * * * * * * * * * * * * * * * * * //

dimensions      [0 1 -1 0 0 0 0];

internalField   nonuniform List<vector> 
4096
(
(0.012774997 -0.012717014 0)
(0.038200851 -0.012594888 0)
(0.063259868 -0.012351804 0)
(0.087711386 -0.011990081 0)
(0.11132054 -0.011513173 0)
(0.13386049 -0.010925631 0)
(0.15511463 -0.010233065 0)
(0.17487861 -0.0094420871 0)
(0.19296232 -0.0085602537 0)
(0.20919168 -0.0075959902 0)
(0.22341035 -0.0065585135 0)
(0.23548121 -0.0054577448 0)
(0.24528768 -0.0043042167 0)
(0.25273484 -0.0031089727 0)
(0.25775042 -0.0018834661 0)
(0.26028542 -0.00063945522 0)
(0.260314 0.00061120079 0)
(0.25783751 0.0018558539 0)
(0.25287521 0.0030837973 0)
(0.24547659 0.0042821931 0)
(0.23571131 0.0054396813 0)
(0.22367277 0.0065451091 0)
(0.20947633 0.007587767 0)
(0.19325826 0.0085575334 0)
(0.17517445 0.0094449791 0)
(0.15539896 0.010241462 0)
(0.13412236 0.010939216 0)
(0.11154984 0.011531426 0)
(0.087899272 0.012012304 0)
(0.063399073 0.012377144 0)
(0.038285979 0.012622374 0)
(0.012802731 0.01274559 0)
(-0.012804301 0.012745586 0)
(-0.038287533 0.012622362 0)
(-0.063400595 0.012377124 0)
(-0.087900748 0.012012277 0)
(-0.11155125 0.011531392 0)
(-0.1341237 0.010939175 0)
(-0.15540021 0.010241415 0)
(-0.17517559 0.0094449252 0)
(-0.19325929 0.0085574739 0)
(-0.20947724 0.0075877027 0)
(-0.22367354 0.0065450406 0)
(-0.23571194 0.0054396094 0)
(-0.24547708 0.0042821186 0)
(-0.25287554 0.003083721 0)
(-0.25783769 0.0018557768 0)
(-0.26031402 0.00061112384 0)
(-0.26028529 -0.00063953125 0)
(-0.25775014 -0.0018835403 0)
(-0.25273442 -0.0031090443 0)
(-0.24528711 -0.004304285 0)
(-0.23548052 -0.0054578092 0)
(-0.22340953 -0.0065585734 0)
(-0.20919074 -0.0075960452 0)
(-0.19296127 -0.0085603034 0)
(-0.17487748 -0.0094421311 0)
(-0.15511341 -0.010233103 0)
(-0.1338592 -0.010925663 0)
(-0.11131919 -0.011513199 0)
(-0.087709989 -0.011990102 0)
(-0.063258437 -0.012351818 0)
(-0.038199396 -0.012594896 0)
(-0.01277353 -0.012717017 0)
(0.012950449 -0.038285388 0)
(0.038725526 -0.037917733 0)
(0.064128783 -0.03718594 0)
(0.088916286 -0.036096991 0)
(0.11284997 -0.034661279 0)
(0.13569993 -0.032892506 0)
(0.15724659 -0.030807559 0)
(0.17728281 -0.028426343 0)
(0.19561588 -0.025771603 0)
(0.21206934 -0.022868702 0)
(0.2264847 -0.019745383 0)
(0.23872293 -0.016431513 0)
(0.24866582 -0.012958797 0)
(0.25621714 -0.0093604841 0)
(0.26130354 -0.0056710587 0)
(0.26387531 -0.0019259463 0)
(0.26390669 0.0018387985 0)
(0.26139682 0.0055872687 0)
(0.25636842 0.0092834946 0)
(0.24886947 0.012891374 0)
(0.23897104 0.016376216 0)
(0.22676771 0.01970435 0)
(0.21237637 0.022843525 0)
(0.1959351 0.025763265 0)
(0.17760194 0.028435177 0)
(0.15755332 0.030833238 0)
(0.13598245 0.032934056 0)
(0.11309738 0.034717111 0)
(0.089119025 0.036164969 0)
(0.064279021 0.037263457 0)
(0.038817442 0.038001815 0)
(0.012980464 0.038372806 0)
(-0.012982053 0.038372795 0)
(-0.038819015 0.038001779 0)
(-0.064280562 0.037263398 0)
(-0.089120519 0.036164888 0)
(-0.11309881 0.034717008 0)
(-0.1359838 0.032933932 0)
(-0.15755459 0.030833094 0)
(-0.1776031 0.028435015 0)
(-0.19593615 0.025763086 0)
(-0.21237729 0.022843331 0)
(-0.2267685 0.019704144 0)
(-0.23897168 0.016376 0)
(-0.24886996 0.012891149 0)
(-0.25636876 0.0092832651 0)
(-0.261397 0.0055870367 0)
(-0.26390671 0.0018385667 0)
(-0.26387518 -0.0019261752 0)
(-0.26130326 -0.0056712822 0)
(-0.25621671 -0.0093606998 0)
(-0.24866525 -0.012959003 0)
(-0.23872222 -0.016431707 0)
(-0.22648386 -0.019745563 0)
(-0.21206839 -0.022868867 0)
(-0.19561482 -0.025771753 0)
(-0.17728166 -0.028426476 0)
(-0.15724536 -0.030807674 0)
(-0.13569863 -0.032892604 0)
(-0.11284861 -0.034661358 0)
(-0.088914875 -0.036097053 0)
(-0.064127337 -0.037185984 0)
(-0.038724056 -0.037917759 0)
(-0.012948968 -0.038285397 0)
(0.013245393 -0.064355658 0)
(0.039607535 -0.063737708 0)
(0.065589481 -0.062507718 0)
(0.0909418 -0.060677423 0)
(0.11542107 -0.058264284 0)
(0.13879217 -0.055291331 0)
(0.16083059 -0.051786937 0)
(0.1813245 -0.047784556 0)
(0.20007681 -0.043322406 0)
(0.21690705 -0.038443108 0)
(0.23165312 -0.033193286 0)
(0.2441728 -0.027623126 0)
(0.25434515 -0.021785909 0)
(0.26207167 -0.015737508 0)
(0.26727726 -0.0095358711 0)
(0.26991097 -0.0032404905 0)
(0.26994643 0.0030881677 0)
(0.26738232 0.0093894232 0)
(0.26224224 0.015602698 0)
(0.25457475 0.021667837 0)
(0.24445258 0.027526303 0)
(0.2319723 0.033121438 0)
(0.21725334 0.038399012 0)
(0.20043687 0.043307776 0)
(0.18168447 0.047799975 0)
(0.16117661 0.051831832 0)
(0.1391109 0.055363995 0)
(0.11570021 0.05836194 0)
(0.091170586 0.06079633 0)
(0.065759067 0.062643318 0)
(0.039711356 0.063884795 0)
(0.01327941 0.064508585 0)
(-0.01328103 0.064508565 0)
(-0.03971296 0.063884736 0)
(-0.06576064 0.062643219 0)
(-0.09117211 0.060796194 0)
(-0.11570167 0.058361767 0)
(-0.13911228 0.055363786 0)
(-0.1611779 0.05183159 0)
(-0.18168566 0.047799702 0)
(-0.20043793 0.043307476 0)
(-0.21725427 0.038398687 0)
(-0.2319731 0.033121091 0)
(-0.24445323 0.027525939 0)
(-0.25457525 0.02166746 0)
(-0.26224258 0.015602312 0)
(-0.2673825 0.0093890332 0)
(-0.26994646 0.0030877781 0)
(-0.26991084 -0.0032408752 0)
(-0.26727697 -0.0095362466 0)
(-0.26207123 -0.01573787 0)
(-0.25434456 -0.021786254 0)
(-0.24417208 -0.027623451 0)
(-0.23165227 -0.033193588 0)
(-0.21690608 -0.038443385 0)
(-0.20007573 -0.043322656 0)
(-0.18132332 -0.047784777 0)
(-0.16082933 -0.051787129 0)
(-0.13879084 -0.055291493 0)
(-0.11541968 -0.058264417 0)
(-0.090940365 -0.060677526 0)
(-0.065588011 -0.062507792 0)
(-0.039606041 -0.063737752 0)
(-0.013243888 -0.064355673 0)
(0.013668966 -0.091138188 0)
(0.040874196 -0.090263179 0)
(0.067687201 -0.088521527 0)
(0.093850654 -0.085929844 0)
(0.11911342 -0.08251285 0)
(0.14323294 -0.078303145 0)
(0.16597757 -0.073340896 0)
(0.18712875 -0.067673461 0)
(0.20648312 -0.061354941 0)
(0.22385447 -0.054445671 0)
(0.23907548 -0.04701165 0)
(0.25199937 -0.039123922 0)
(0.26250127 -0.030857907 0)
(0.27047944 -0.022292698 0)
(0.27585628 -0.013510321 0)
(0.27857906 -0.0045949712 0)
(0.27862042 0.0043677901 0)
(0.27597879 0.013291904 0)
(0.27067839 0.02209151 0)
(0.26276904 0.030681662 0)
(0.25232568 0.038979385 0)
(0.23944776 0.046904386 0)
(0.2242584 0.054379822 0)
(0.20690315 0.061333063 0)
(0.1875487 0.067696423 0)
(0.16638127 0.073407843 0)
(0.14360483 0.07841153 0)
(0.11943916 0.08265853 0)
(0.094117681 0.086107238 0)
(0.067885195 0.088723831 0)
(0.040995496 0.090482628 0)
(0.013708857 0.091366354 0)
(-0.013710525 0.091366326 0)
(-0.040997147 0.090482544 0)
(-0.067886814 0.088723692 0)
(-0.09411925 0.086107045 0)
(-0.11944067 0.082658285 0)
(-0.14360626 0.078411235 0)
(-0.1663826 0.073407501 0)
(-0.18754992 0.067696037 0)
(-0.20690425 0.061332638 0)
(-0.22425936 0.054379361 0)
(-0.23944859 0.046903895 0)
(-0.25232635 0.038978869 0)
(-0.26276956 0.030681128 0)
(-0.27067874 0.022090963 0)
(-0.27597897 0.013291351 0)
(-0.27862044 0.0043672382 0)
(-0.27857891 -0.004595516 0)
(-0.27585598 -0.013510853 0)
(-0.27047898 -0.022293211 0)
(-0.26250065 -0.030858395 0)
(-0.25199862 -0.039124381 0)
(-0.2390746 -0.047012076 0)
(-0.22385347 -0.054446061 0)
(-0.20648201 -0.061355292 0)
(-0.18712754 -0.067673772 0)
(-0.16597628 -0.073341166 0)
(-0.14323158 -0.078303373 0)
(-0.119112 -0.082513036 0)
(-0.093849184 -0.085929988 0)
(-0.067685696 -0.08852163 0)
(-0.040872668 -0.09026324 0)
(-0.013667426 -0.091138208 0)
(0.014234368 -0.1188979 0)
(0.042564986 -0.11775655 0)
(0.07048732 -0.11548476 0)
(0.097733504 -0.11210419 0)
(0.12404211 -0.10764708 0)
(0.14916065 -0.10215594 0)
(0.17284795 -0.095683135 0)
(0.19487648 -0.088290435 0)
(0.21503453 -0.08004838 0)
(0.23312819 -0.071035645 0)
(0.24898322 -0.061338286 0)
(0.26244674 -0.051048937 0)
(0.27338864 -0.040265936 0)
(0.28170288 -0.029092409 0)
(0.28730849 -0.017635305 0)
(0.29015038 -0.0060043996 0)
(0.29019987 0.0056887389 0)
(0.28745507 0.017331811 0)
(0.28194093 0.028812789 0)
(0.27370904 0.040020946 0)
(0.26283717 0.050848001 0)
(0.24942868 0.061189148 0)
(0.23361153 0.070944064 0)
(0.21553716 0.080017911 0)
(0.19537905 0.088322287 0)
(0.1733311 0.095776122 0)
(0.14960577 0.10230652 0)
(0.12443205 0.1078495 0)
(0.098053208 0.1123507 0)
(0.070724447 0.11576589 0)
(0.042710364 0.11806152 0)
(0.014282354 0.11921499 0)
(-0.014284085 0.11921495 0)
(-0.042712079 0.11806141 0)
(-0.070726127 0.11576571 0)
(-0.098054838 0.11235045 0)
(-0.12443361 0.10784918 0)
(-0.14960725 0.10230613 0)
(-0.17333248 0.095775676 0)
(-0.19538032 0.088321784 0)
(-0.2155383 0.080017356 0)
(-0.23361253 0.070943463 0)
(-0.24942953 0.061188507 0)
(-0.26283787 0.050847328 0)
(-0.27370957 0.040020248 0)
(-0.28194129 0.028812075 0)
(-0.28745526 0.017331089 0)
(-0.29019989 0.0056880183 0)
(-0.29015022 -0.0060051106 0)
(-0.28730817 -0.017635999 0)
(-0.28170239 -0.029093077 0)
(-0.27338799 -0.040266572 0)
(-0.26244595 -0.051049534 0)
(-0.2489823 -0.061338839 0)
(-0.23312714 -0.07103615 0)
(-0.21503338 -0.080048835 0)
(-0.19487523 -0.088290836 0)
(-0.17284661 -0.095683483 0)
(-0.14915924 -0.10215623 0)
(-0.12404064 -0.10764732 0)
(-0.097731986 -0.11210438 0)
(-0.070485768 -0.11548489 0)
(-0.042563412 -0.11775663 0)
(-0.014232782 -0.11889793 0)
(0.014959067 -0.14793446 0)
(0.044732145 -0.14651464 0)
(0.074076356 -0.14368857 0)
(0.10271033 -0.13948319 0)
(0.13035946 -0.13393858 0)
(0.15675849 -0.1271076 0)
(0.1816541 -0.11905541 0)
(0.20480724 -0.10985878 0)
(0.22599548 -0.099605448 0)
(0.24501508 -0.088393243 0)
(0.26168293 -0.076329171 0)
(0.27583832 -0.063528413 0)
(0.28734446 -0.050113239 0)
(0.29608978 -0.036211869 0)
(0.30198901 -0.021957279 0)
(0.30498402 -0.0074859622 0)
(0.30504442 0.0070633388 0)
(0.30216788 0.021550929 0)
(0.29638028 0.035837445 0)
(0.28773543 0.049785151 0)
(0.27631475 0.063259295 0)
(0.26222651 0.076129399 0)
(0.24560491 0.088270535 0)
(0.22660888 0.099564569 0)
(0.2054206 0.10990135 0)
(0.1822438 0.11917984 0)
(0.15730182 0.12730917 0)
(0.13083548 0.13420957 0)
(0.10310068 0.13981322 0)
(0.074365963 0.14406498 0)
(0.044909815 0.14692298 0)
(0.015017911 0.14835903 0)
(-0.015019723 0.14835899 0)
(-0.04491161 0.14692284 0)
(-0.074367722 0.14406476 0)
(-0.10310238 0.13981291 0)
(-0.13083711 0.13420917 0)
(-0.15730337 0.12730869 0)
(-0.18224525 0.11917929 0)
(-0.20542193 0.10990073 0)
(-0.22661008 0.099563879 0)
(-0.24560597 0.088269787 0)
(-0.26222741 0.076128601 0)
(-0.27631548 0.063258456 0)
(-0.28773599 0.049784282 0)
(-0.29638065 0.035836555 0)
(-0.30216808 0.02155003 0)
(-0.30504443 0.0070624412 0)
(-0.30498385 -0.0074868475 0)
(-0.30198866 -0.021958141 0)
(-0.29608926 -0.036212699 0)
(-0.28734378 -0.050114027 0)
(-0.27583748 -0.063529152 0)
(-0.26168195 -0.076329856 0)
(-0.24501398 -0.088393867 0)
(-0.22599427 -0.099606008 0)
(-0.20480593 -0.10985927 0)
(-0.1816527 -0.11905583 0)
(-0.15675702 -0.12710796 0)
(-0.13035793 -0.13393887 0)
(-0.10270875 -0.13948341 0)
(-0.074074746 -0.14368873 0)
(-0.044730512 -0.14651474 0)
(-0.014957424 -0.14793449 0)
(0.015865379 -0.17858571 0)
(0.047442407 -0.1768721 0)
(0.078564838 -0.17346122 0)
(0.10893441 -0.16838559 0)
(0.13826004 -0.16169358 0)
(0.16626054 -0.15344896 0)
(0.19266736 -0.14373033 0)
(0.21722709 -0.13263034 0)
(0.23970388 -0.12025481 0)
(0.2598817 -0.10672178 0)
(0.27756638 -0.092160327 0)
(0.29258743 -0.076709389 0)
(0.3047997 -0.060516449 0)
(0.3140847 -0.04373616 0)
(0.32035179 -0.026528912 0)
(0.32353904 -0.0090593468 0)
(0.32361386 0.0085051609 0)
(0.32057338 0.025996051 0)
(0.31444456 0.043245133 0)
(0.30528403 0.060086157 0)
(0.29317763 0.076356405 0)
(0.27823977 0.091898264 0)
(0.26061241 0.10656077 0)
(0.24046381 0.1202011 0)
(0.217987 0.13268606 0)
(0.19339801 0.14389342 0)
(0.16693379 0.15371321 0)
(0.13884993 0.16204888 0)
(0.10941821 0.16881834 0)
(0.078923872 0.1739548 0)
(0.047662801 0.17740756 0)
(0.015938594 0.17914248 0)
(-0.015940505 0.17914243 0)
(-0.047664694 0.17740739 0)
(-0.078925727 0.17395453 0)
(-0.10942002 0.16881796 0)
(-0.13885166 0.16204841 0)
(-0.16693542 0.15371264 0)
(-0.19339954 0.14389276 0)
(-0.21798841 0.13268531 0)
(-0.24046507 0.12020027 0)
(-0.26061352 0.10655986 0)
(-0.27824072 0.091897301 0)
(-0.2931784 0.076355392 0)
(-0.30528461 0.060085106 0)
(-0.31444495 0.043244057 0)
(-0.32057358 0.025994964 0)
(-0.32361386 0.0085040757 0)
(-0.32353885 -0.0090604166 0)
(-0.32035141 -0.026529953 0)
(-0.31408414 -0.043737161 0)
(-0.30479896 -0.060517398 0)
(-0.29258654 -0.076710278 0)
(-0.27756534 -0.092161148 0)
(-0.25988053 -0.10672253 0)
(-0.23970259 -0.12025548 0)
(-0.2172257 -0.13263092 0)
(-0.19266589 -0.14373084 0)
(-0.166259 -0.15344939 0)
(-0.13825844 -0.16169392 0)
(-0.10893277 -0.16838586 0)
(-0.078563158 -0.17346141 0)
(-0.047440706 -0.17687221 0)
(-0.015863667 -0.17858575 0)
(0.016981396 -0.21123881 0)
(0.05077979 -0.20921238 0)
(0.084091913 -0.20517888 0)
(0.11659873 -0.19917671 0)
(0.14798884 -0.19126306 0)
(0.17796148 -0.18151332 0)
(0.20622933 -0.17002039 0)
(0.23252132 -0.1568938 0)
(0.2565851 -0.14225864 0)
(0.27818952 -0.12625441 0)
(0.29712679 -0.10903367 0)
(0.3132144 -0.090760609 0)
(0.32629689 -0.071609506 0)
(0.33624728 -0.051763104 0)
(0.34296831 -0.031410917 0)
(0.34639334 -0.010747495 0)
(0.34648705 0.010029359 0)
(0.34324585 0.030720401 0)
(0.336698 0.051126773 0)
(0.3269035 0.07105185 0)
(0.31395362 0.090303106 0)
(0.29797023 0.10869397 0)
(0.27910478 0.12604564 0)
(0.25753699 0.14218892 0)
(0.23347322 0.1569659 0)
(0.20714463 0.17023163 0)
(0.17880491 0.18185566 0)
(0.14872792 0.19172341 0)
(0.11720496 0.19973744 0)
(0.084541905 0.20581846 0)
(0.051056162 0.20990626 0)
(0.017073449 0.21196032 0)
(-0.017075476 0.21196025 0)
(-0.05105817 0.20990607 0)
(-0.084543875 0.20581815 0)
(-0.11720687 0.199737 0)
(-0.14872975 0.19172285 0)
(-0.17880665 0.18185498 0)
(-0.20714625 0.17023084 0)
(-0.23347472 0.15696501 0)
(-0.25753833 0.14218794 0)
(-0.27910596 0.12604457 0)
(-0.29797123 0.10869283 0)
(-0.31395443 0.090301906 0)
(-0.32690411 0.071050604 0)
(-0.33669841 0.051125498 0)
(-0.34324605 0.030719113 0)
(-0.34648705 0.010028073 0)
(-0.34639313 -0.010748762 0)
(-0.3429679 -0.031412149 0)
(-0.33624667 -0.051764286 0)
(-0.32629609 -0.071610626 0)
(-0.31321343 -0.090761655 0)
(-0.29712567 -0.10903463 0)
(-0.27818827 -0.12625528 0)
(-0.25658372 -0.14225942 0)
(-0.23251984 -0.15689448 0)
(-0.20622777 -0.17002098 0)
(-0.17795984 -0.18151381 0)
(-0.14798715 -0.19126345 0)
(-0.11659699 -0.19917701 0)
(-0.084090151 -0.20517909 0)
(-0.050778008 -0.20921251 0)
(-0.016979605 -0.21123885 0)
(0.018342176 -0.24634329 0)
(0.054849132 -0.2439808 0)
(0.090831215 -0.23927836 0)
(0.12594405 -0.23228074 0)
(0.15985152 -0.22305458 0)
(0.19222896 -0.21168775 0)
(0.22276622 -0.19828851 0)
(0.25117065 -0.1829845 0)
(0.27716985 -0.16592149 0)
(0.30051422 -0.14726202 0)
(0.32097938 -0.12718385 0)
(0.3383682 -0.10587825 0)
(0.35251267 -0.083548223 0)
(0.36327546 -0.060406617 0)
(0.37055121 -0.03667416 0)
(0.37426753 -0.012577446 0)
(0.37438574 0.01165311 0)
(0.3709013 0.03578536 0)
(0.36384401 0.059587534 0)
(0.35327787 0.082830373 0)
(0.3393007 0.10528928 0)
(0.32204337 0.12674648 0)
(0.30166883 0.14699317 0)
(0.2783707 0.1658316 0)
(0.25237158 0.18307715 0)
(0.223921 0.19856027 0)
(0.19329314 0.21212828 0)
(0.16078411 0.22364704 0)
(0.12670909 0.23300243 0)
(0.091399194 0.24010158 0)
(0.055198122 0.24487393 0)
(0.018458675 0.247272 0)
(-0.018460839 0.24727193 0)
(-0.055200267 0.24487371 0)
(-0.091401298 0.24010121 0)
(-0.12671113 0.23300192 0)
(-0.16078607 0.2236464 0)
(-0.193295 0.2121275 0)
(-0.22392275 0.19855936 0)
(-0.25237318 0.18307612 0)
(-0.27837215 0.16583045 0)
(-0.3016701 0.14699192 0)
(-0.32204445 0.12674515 0)
(-0.33930157 0.10528788 0)
(-0.35327853 0.082828918 0)
(-0.36384445 0.059586043 0)
(-0.37090151 0.035783853 0)
(-0.37438572 0.011651607 0)
(-0.37426729 -0.012578925 0)
(-0.37055075 -0.036675597 0)
(-0.36327479 -0.060407995 0)
(-0.3525118 -0.083549524 0)
(-0.33836715 -0.10587946 0)
(-0.32097817 -0.12718496 0)
(-0.30051287 -0.14726303 0)
(-0.27716837 -0.16592238 0)
(-0.25116907 -0.18298528 0)
(-0.22276455 -0.19828918 0)
(-0.19222722 -0.2116883 0)
(-0.15984973 -0.22305503 0)
(-0.12594222 -0.23228108 0)
(-0.09082936 -0.2392786 0)
(-0.05484726 -0.24398094 0)
(-0.018340295 -0.24634334 0)
(0.019991025 -0.28442627 0)
(0.059779947 -0.28169947 0)
(0.098997237 -0.27627185 0)
(0.13726784 -0.2681951 0)
(0.17422568 -0.25754607 0)
(0.20951713 -0.24442616 0)
(0.24280442 -0.22896027 0)
(0.27376876 -0.21129567 0)
(0.30211345 -0.19160052 0)
(0.32756659 -0.17006234 0)
(0.3498837 -0.14688614 0)
(0.36884996 -0.1222925 0)
(0.38428218 -0.096515495 0)
(0.39603051 -0.069800522 0)
(0.40397978 -0.042402032 0)
(0.40805062 -0.014581248 0)
(0.40820022 0.013396171 0)
(0.40442284 0.041262499 0)
(0.39675004 0.068750343 0)
(0.3852506 0.09559507 0)
(0.37003011 0.12153727 0)
(0.3512303 0.14632524 0)
(0.32902791 0.16971748 0)
(0.30363334 0.1914851 0)
(0.2752888 0.21141429 0)
(0.24426611 0.22930854 0)
(0.2108642 0.24499084 0)
(0.17540624 0.25830557 0)
(0.1382364 0.26912032 0)
(0.09971643 0.27732729 0)
(0.060222012 0.28284456 0)
(0.020138868 0.28561702 0)
(-0.020141189 0.28561694 0)
(-0.060224312 0.28284431 0)
(-0.099718688 0.27732687 0)
(-0.13823859 0.26911974 0)
(-0.17540835 0.25830483 0)
(-0.21086621 0.24498994 0)
(-0.24426798 0.2293075 0)
(-0.27529052 0.2114131 0)
(-0.3036349 0.19148378 0)
(-0.32902928 0.16971604 0)
(-0.35123146 0.14632371 0)
(-0.37003105 0.12153565 0)
(-0.38525131 0.095593387 0)
(-0.39675051 0.068748618 0)
(-0.40442305 0.041260755 0)
(-0.40820018 0.013394432 0)
(-0.40805034 -0.014582959 0)
(-0.40397926 -0.042403692 0)
(-0.39602976 -0.06980211 0)
(-0.38428122 -0.096516992 0)
(-0.3688488 -0.12229389 0)
(-0.34988237 -0.1468874 0)
(-0.32756511 -0.17006348 0)
(-0.30211184 -0.19160153 0)
(-0.27376706 -0.21129654 0)
(-0.24280263 -0.22896101 0)
(-0.20951528 -0.24442677 0)
(-0.17422377 -0.25754655 0)
(-0.1372659 -0.26819546 0)
(-0.098995279 -0.27627211 0)
(-0.059777975 -0.28169962 0)
(-0.019989047 -0.28442632 0)
(0.021980684 -0.32611015 0)
(0.065729956 -0.32298489 0)
(0.10885118 -0.31676413 0)
(0.15093228 -0.30750708 0)
(0.19157104 -0.2953018 0)
(0.23037892 -0.28026445 0)
(0.26698476 -0.26253814 0)
(0.3010383 -0.24229158 0)
(0.33221349 -0.21971743 0)
(0.36021157 -0.19503047 0)
(0.38476385 -0.16846551 0)
(0.40563419 -0.14027513 0)
(0.42262112 -0.11072731 0)
(0.43555971 -0.080102902 0)
(0.44432299 -0.048693127 0)
(0.44882314 -0.016796928 0)
(0.44901235 0.015281635 0)
(0.44488336 0.04723605 0)
(0.43646978 0.078760044 0)
(0.42384599 0.10955032 0)
(0.40712689 0.13930933 0)
(0.38646711 0.16774816 0)
(0.36205998 0.19458932 0)
(0.33413604 0.21956964 0)
(0.30296108 0.24244306 0)
(0.2688338 0.26298329 0)
(0.23208304 0.28098635 0)
(0.1930646 0.29627286 0)
(0.15215772 0.30869009 0)
(0.10976124 0.31811368 0)
(0.066289512 0.32444913 0)
(0.022168107 0.3276328 0)
(-0.022170606 0.32763271 0)
(-0.06629199 0.32444885 0)
(-0.10976368 0.31811321 0)
(-0.15216009 0.30868943 0)
(-0.19306688 0.29627202 0)
(-0.23208521 0.28098534 0)
(-0.26883583 0.2629821 0)
(-0.30296295 0.24244171 0)
(-0.33413773 0.21956813 0)
(-0.36206147 0.19458767 0)
(-0.38646837 0.1677464 0)
(-0.40712791 0.13930748 0)
(-0.42384676 0.10954838 0)
(-0.43647027 0.078758062 0)
(-0.44488359 0.047234046 0)
(-0.4490123 0.015279637 0)
(-0.44882282 -0.016798892 0)
(-0.4443224 -0.048695029 0)
(-0.43555887 -0.080104718 0)
(-0.42262005 -0.11072901 0)
(-0.40563291 -0.14027671 0)
(-0.38476239 -0.16846695 0)
(-0.36020995 -0.19503175 0)
(-0.33221174 -0.21971855 0)
(-0.30103644 -0.24229254 0)
(-0.26698283 -0.26253895 0)
(-0.23037693 -0.28026511 0)
(-0.19156901 -0.29530233 0)
(-0.15093023 -0.30750747 0)
(-0.10884911 -0.31676441 0)
(-0.065727876 -0.32298505 0)
(-0.021978601 -0.3261102 0)
(0.024374099 -0.37213249 0)
(0.0728874 -0.36856763 0)
(0.12070478 -0.36147185 0)
(0.16736963 -0.35091264 0)
(0.21243623 -0.33699041 0)
(0.25547404 -0.31983761 0)
(0.29607176 -0.29961742 0)
(0.33384125 -0.27652221 0)
(0.36842119 -0.25077167 0)
(0.39948052 -0.22261065 0)
(0.42672147 -0.19230679 0)
(0.4498823 -0.16014792 0)
(0.46873967 -0.12643931 0)
(0.48311052 -0.091500832 0)
(0.49285376 -0.055664082 0)
(0.49787142 -0.019269428 0)
(0.49810967 0.017336905 0)
(0.49355937 0.053805784 0)
(0.48425648 0.089788162 0)
(0.47028205 0.12493813 0)
(0.45176197 0.15891603 0)
(0.42886632 0.19139171 0)
(0.40180821 0.2220478 0)
(0.37084232 0.25058295 0)
(0.33626273 0.27671519 0)
(0.29840046 0.30018497 0)
(0.2576203 0.32075817 0)
(0.21431739 0.3382288 0)
(0.16891319 0.35242141 0)
(0.12185122 0.36319308 0)
(0.073592467 0.37043519 0)
(0.024610556 0.37407458 0)
(-0.024613255 0.37407448 0)
(-0.073595143 0.37043487 0)
(-0.12185385 0.36319256 0)
(-0.16891575 0.35242067 0)
(-0.21431986 0.33822786 0)
(-0.25762266 0.32075702 0)
(-0.29840267 0.30018363 0)
(-0.33626477 0.27671366 0)
(-0.37084416 0.25058125 0)
(-0.40180984 0.22204593 0)
(-0.42886769 0.19138971 0)
(-0.45176309 0.15891391 0)
(-0.47028288 0.12493592 0)
(-0.48425701 0.089785897 0)
(-0.4935596 0.053803492 0)
(-0.49810959 0.01733462 0)
(-0.49787105 -0.019271672 0)
(-0.49285309 -0.055666253 0)
(-0.48310958 -0.091502899 0)
(-0.46873847 -0.12644124 0)
(-0.44988088 -0.1601497 0)
(-0.42671984 -0.1923084 0)
(-0.39947873 -0.22261208 0)
(-0.36841927 -0.25077291 0)
(-0.33383923 -0.27652327 0)
(-0.29606967 -0.29961829 0)
(-0.2554719 -0.31983831 0)
(-0.21243406 -0.33699096 0)
(-0.16736744 -0.35091305 0)
(-0.12070259 -0.36147214 0)
(-0.072885208 -0.36856779 0)
(-0.024371908 -0.37213254 0)
(0.02724437 -0.42336686 0)
(0.081470873 -0.41931298 0)
(0.13492002 -0.41124378 0)
(0.18708175 -0.39923595 0)
(0.23745818 -0.38340366 0)
(0.28556833 -0.36389744 0)
(0.33095276 -0.34090284 0)
(0.37317788 -0.31463853 0)
(0.41184009 -0.28535428 0)
(0.44656962 -0.2533284 0)
(0.47703389 -0.21886504 0)
(0.50294056 -0.18229118 0)
(0.5240401 -0.1439535 0)
(0.54012789 -0.10421512 0)
(0.55104596 -0.063452347 0)
(0.55668429 -0.022051375 0)
(0.55698182 0.019594912 0)
(0.55192717 0.061090206 0)
(0.54155903 0.10203805 0)
(0.52596635 0.14204519 0)
(0.50528809 0.1807251 0)
(0.47971267 0.21770162 0)
(0.44947684 0.25261267 0)
(0.4148641 0.28511413 0)
(0.37620242 0.31488359 0)
(0.3338615 0.34162408 0)
(0.28824929 0.3650675 0)
(0.23980809 0.38497781 0)
(0.18901004 0.40115388 0)
(0.13635234 0.41343185 0)
(0.08235194 0.42168713 0)
(0.027540148 0.42583581 0)
(-0.027543068 0.42583569 0)
(-0.082354838 0.42168678 0)
(-0.13635519 0.41343127 0)
(-0.18901283 0.40115306 0)
(-0.23981078 0.38497676 0)
(-0.28825186 0.36506622 0)
(-0.33386392 0.34162258 0)
(-0.37620466 0.31488188 0)
(-0.41486612 0.2851122 0)
(-0.44947863 0.25261056 0)
(-0.47971419 0.21769935 0)
(-0.50528931 0.1807227 0)
(-0.52596726 0.14204268 0)
(-0.54155961 0.10203547 0)
(-0.55192741 0.061087594 0)
(-0.55698172 0.019592309 0)
(-0.55668385 -0.022053931 0)
(-0.5510452 -0.063454816 0)
(-0.54012682 -0.10421747 0)
(-0.52403874 -0.14395569 0)
(-0.50293896 -0.18229318 0)
(-0.47703207 -0.21886683 0)
(-0.44656763 -0.25332998 0)
(-0.41183797 -0.28535564 0)
(-0.37317566 -0.31463967 0)
(-0.33095048 -0.34090376 0)
(-0.28556602 -0.36389818 0)
(-0.23745585 -0.38340422 0)
(-0.18707943 -0.39923636 0)
(-0.13491771 -0.41124406 0)
(-0.081468567 -0.41931314 0)
(-0.027242069 -0.42336692 0)
(0.030673297 -0.48084252 0)
(0.091724989 -0.47624038 0)
(0.15190194 -0.46707983 0)
(0.21063018 -0.45344789 0)
(0.26734941 -0.4354741 0)
(0.32151838 -0.41332932 0)
(0.37262005 -0.38722411 0)
(0.42016651 -0.35740672 0)
(0.46370364 -0.32416064 0)
(0.50281544 -0.28780173 0)
(0.53712782 -0.2486751 0)
(0.566312 -0.20715159 0)
(0.59008732 -0.16362423 0)
(0.60822358 -0.11850445 0)
(0.62054283 -0.072218434 0)
(0.6269208 -0.02520347 0)
(0.62728792 0.022095591 0)
(0.62163015 0.069229857 0)
(0.60998949 0.11574995 0)
(0.5924642 0.1612097 0)
(0.56920878 0.20516997 0)
(0.54043346 0.24720284 0)
(0.5064031 0.28689586 0)
(0.46743555 0.32385648 0)
(0.42389921 0.35771651 0)
(0.37620997 0.38813646 0)
(0.3248273 0.41480962 0)
(0.27024985 0.4374658 0)
(0.21301034 0.45587466 0)
(0.15367004 0.46984851 0)
(0.092812785 0.47924457 0)
(0.031038767 0.48396671 0)
(-0.031041933 0.48396659 0)
(-0.092815928 0.47924419 0)
(-0.15367314 0.46984787 0)
(-0.21301337 0.45587376 0)
(-0.27025278 0.43746464 0)
(-0.32483011 0.4148082 0)
(-0.37621262 0.38813479 0)
(-0.42390167 0.35771459 0)
(-0.46743778 0.32385432 0)
(-0.50640507 0.28689349 0)
(-0.54043514 0.24720028 0)
(-0.56921014 0.20516724 0)
(-0.5924652 0.16120685 0)
(-0.60999012 0.11574702 0)
(-0.62163041 0.069226887 0)
(-0.62728778 0.022092629 0)
(-0.62692028 -0.025206376 0)
(-0.62054195 -0.072221237 0)
(-0.60822235 -0.11850711 0)
(-0.59008578 -0.1636267 0)
(-0.56631018 -0.20715384 0)
(-0.53712577 -0.2486771 0)
(-0.50281321 -0.28780347 0)
(-0.46370128 -0.32416211 0)
(-0.42016406 -0.35740793 0)
(-0.37261756 -0.38722508 0)
(-0.32151588 -0.41333007 0)
(-0.26734691 -0.43547466 0)
(-0.21062771 -0.45344829 0)
(-0.1518995 -0.46708009 0)
(-0.09172257 -0.47624052 0)
(-0.03067089 -0.48084257 0)
(0.034747825 -0.54575945 0)
(0.10390973 -0.54053833 0)
(0.17208101 -0.53014567 0)
(0.2386116 -0.51468012 0)
(0.30286697 -0.49428857 0)
(0.3642341 -0.46916481 0)
(0.42212742 -0.43954769 0)
(0.47599438 -0.40571888 0)
(0.52532082 -0.36800001 0)
(0.56963578 -0.32674942 0)
(0.60851595 -0.28235851 0)
(0.64158938 -0.23524769 0)
(0.66853866 -0.18586222 0)
(0.68910345 -0.13466794 0)
(0.70308237 -0.082147075 0)
(0.71033446 -0.028794217 0)
(0.7107803 0.024887527 0)
(0.70440284 0.078390308 0)
(0.69124805 0.13120534 0)
(0.67142531 0.18282686 0)
(0.64510755 0.2327564 0)
(0.61253083 0.28050743 0)
(0.57399338 0.32561027 0)
(0.52985382 0.36761726 0)
(0.48052858 0.40610799 0)
(0.42648835 0.4406944 0)
(0.36825386 0.47102564 0)
(0.30639065 0.49679245 0)
(0.24150335 0.5177311 0)
(0.17422927 0.53362661 0)
(0.1052316 0.54431545 0)
(0.035192218 0.54968749 0)
(-0.03519565 0.54968736 0)
(-0.10523501 0.54431503 0)
(-0.17423264 0.53362591 0)
(-0.24150665 0.51773012 0)
(-0.30639386 0.49679118 0)
(-0.36825694 0.47102408 0)
(-0.42649127 0.44069255 0)
(-0.48053129 0.40610585 0)
(-0.5298563 0.36761485 0)
(-0.57399557 0.3256076 0)
(-0.61253269 0.28050453 0)
(-0.64510905 0.23275332 0)
(-0.67142643 0.18282363 0)
(-0.69124875 0.13120201 0)
(-0.70440311 0.078386933 0)
(-0.71078013 0.024884161 0)
(-0.71033386 -0.028797518 0)
(-0.70308136 -0.082150255 0)
(-0.68910205 -0.13467095 0)
(-0.6685369 -0.18586501 0)
(-0.6415873 -0.23525021 0)
(-0.60851362 -0.28236073 0)
(-0.56963326 -0.32675132 0)
(-0.52531817 -0.36800159 0)
(-0.47599166 -0.40572015 0)
(-0.42212468 -0.43954868 0)
(-0.36423138 -0.46916554 0)
(-0.30286429 -0.4942891 0)
(-0.23860898 -0.51468049 0)
(-0.17207844 -0.5301459 0)
(-0.10390721 -0.54053846 0)
(-0.034745325 -0.54575949 0)
(0.03955351 -0.61949383 0)
(0.11828092 -0.6135698 0)
(0.19588074 -0.60177794 0)
(0.27161301 -0.58423009 0)
(0.3447554 -0.56109284 0)
(0.41461012 -0.53258601 0)
(0.48051058 -0.49898064 0)
(0.54182789 -0.46059639 0)
(0.59797693 -0.41779834 0)
(0.64842199 -0.37099321 0)
(0.69268171 -0.3206251 0)
(0.73033345 -0.26717081 0)
(0.76101676 -0.21113493 0)
(0.78443611 -0.15304495 0)
(0.80036293 -0.093446443 0)
(0.80863703 -0.03289866 0)
(0.80916773 0.028029658 0)
(0.80193477 0.088764235 0)
(0.78698902 0.14872925 0)
(0.76445311 0.20735155 0)
(0.73452176 0.26406536 0)
(0.69746159 0.31831743 0)
(0.65361021 0.36957279 0)
(0.60337435 0.41732071 0)
(0.54722706 0.46108092 0)
(0.48570375 0.50040965 0)
(0.41939726 0.53490536 0)
(0.34895197 0.56421396 0)
(0.27505714 0.58803337 0)
(0.19843952 0.60611735 0)
(0.11985555 0.61827854 0)
(0.040083141 0.62439079 0)
(-0.040086862 0.62439064 0)
(-0.11985926 0.61827809 0)
(-0.19844318 0.6061166 0)
(-0.27506074 0.58803231 0)
(-0.34895548 0.56421258 0)
(-0.41940065 0.53490365 0)
(-0.48570697 0.50040761 0)
(-0.54723008 0.46107855 0)
(-0.60337711 0.41731802 0)
(-0.65361266 0.3695698 0)
(-0.69746369 0.31831418 0)
(-0.73452345 0.26406187 0)
(-0.76445435 0.20734789 0)
(-0.78698979 0.14872547 0)
(-0.80193506 0.088760402 0)
(-0.80916752 0.028025833 0)
(-0.80863633 -0.032902411 0)
(-0.80036175 -0.093450054 0)
(-0.78443449 -0.15304835 0)
(-0.76101473 -0.21113807 0)
(-0.73033107 -0.26717362 0)
(-0.69267904 -0.32062755 0)
(-0.64841912 -0.37099527 0)
(-0.59797394 -0.41780001 0)
(-0.54182484 -0.46059769 0)
(-0.48050755 -0.49898161 0)
(-0.41460716 -0.53258669 0)
(-0.34475253 -0.5610933 0)
(-0.27161024 -0.58423038 0)
(-0.19587806 -0.60177811 0)
(-0.11827831 -0.61356988 0)
(-0.039550938 -0.61949385 0)
(0.045164059 -0.70358701 0)
(0.13505894 -0.69686125 0)
(0.22366592 -0.68347345 0)
(0.31013983 -0.66355048 0)
(0.3936556 -0.63728138 0)
(0.47341616 -0.60491568 0)
(0.54866014 -0.56676116 0)
(0.61866928 -0.52318095 0)
(0.68277552 -0.47458985 0)
(0.74036741 -0.42144999 0)
(0.79089598 -0.36426583 0)
(0.83387956 -0.30357868 0)
(0.86890783 -0.23996094 0)
(0.89564471 -0.17401034 0)
(0.9138305 -0.10634444 0)
(0.92328319 -0.037595752 0)
(0.92389959 0.031592741 0)
(0.91565618 0.10057164 0)
(0.89860997 0.16868923 0)
(0.87289939 0.23529589 0)
(0.83874488 0.29974919 0)
(0.79644894 0.36141972 0)
(0.74639529 0.4196977 0)
(0.68904702 0.47400004 0)
(0.62494339 0.52377767 0)
(0.55469536 0.56852275 0)
(0.47897992 0.60777547 0)
(0.39853328 0.64113019 0)
(0.31414317 0.66824081 0)
(0.22664033 0.68882516 0)
(0.13688951 0.7026686 0)
(0.045780008 0.70962659 0)
(-0.045784037 0.70962643 0)
(-0.13689352 0.70266812 0)
(-0.22664431 0.68882436 0)