/*--------------------------------*- C++ -*----------------------------------*\
| =========                 |                                                 |
| \\      /  F ield         | OpenFOAM: The Open Source CFD Toolbox           |
|  \\    /   O peration     | Version:  2106                                  |
|   \\  /    A nd           | Website:  www.openfoam.com                      |
|    \\/     M anipulation  |                                                 |
\*---------------------------------------------------------------------------*/
FoamFile
{
    version     2.0;
    format      ascii;
    arch        "LSB;label=32;scalar=64";
    class       volScalarField;
    location    "0.002";
    object      p;
}
// * * * * * * * * * * * * * * * * * * * * * * * * * * * * * * * * * * * * * //

dimensions      [1 -1 -2 0 0 0 0];

internalField   nonuniform List<scalar> 
4096
(
-23.561093
-23.336754
-22.890167
-22.225497
-21.348946
-20.268696
-18.99484
-17.539292
-15.915681
-14.139236
-12.22665
-10.19593
-8.0662292
-5.8577163
-3.5916593
-1.2892312
1.0277529
3.3364463
5.6148274
7.840879
9.9929479
12.050013
13.991894
15.799458
17.454818
18.941523
20.244745
21.351436
22.250484
22.932834
23.391603
23.622154
23.622154
23.391603
22.932834
22.250484
21.351436
20.244745
18.941523
17.454818
15.799458
13.991894
12.050013
9.9929479
7.840879
5.6148274
3.3364463
1.0277529
-1.2892312
-3.5916593
-5.8577163
-8.0662293
-10.19593
-12.22665
-14.139236
-15.915681
-17.539292
-18.99484
-20.268696
-21.348946
-22.225497
-22.890167
-23.336754
-23.561093
-23.766998
-23.540687
-23.090178
-22.419677
-21.535448
-20.445754
-19.160784
-17.692565
-16.054853
-14.263017
-12.333896
-10.285659
-8.1376358
-5.9101724
-3.6245051
-1.3021713
1.0345393
3.3630832
5.6610899
7.9063331
10.076984
12.151846
14.110564
15.933837
17.603615
19.103301
20.417925
21.534318
22.44126
23.129612
23.592419
23.825001
23.825001
23.592419
23.129612
22.44126
21.534318
20.417925
19.103301
17.603615
15.933837
14.110564
12.151846
10.076984
7.9063331
5.6610899
3.3630832
1.0345393
-1.3021713
-3.6245051
-5.9101724
-8.1376358
-10.285659
-12.333896
-14.263017
-16.054854
-17.692565
-19.160784
-20.445754
-21.535448
-22.419677
-23.090178
-23.540687
-23.766998
-24.208843
-23.978317
-23.519419
-22.836444
-21.935782
-20.825861
-19.517075
-18.021686
-16.353717
-14.528828
-12.564177
-10.47827
-8.2907941
-6.0224561
-3.6948001
-1.3299105
1.049582
3.4208231
5.7609944
8.0474647
10.258017
12.37107
14.365898
16.22284
17.923507
19.450983
20.790009
21.927157
22.850984
23.552164
24.023604
24.260526
24.260526
24.023604
23.552164
22.850984
21.927157
20.790009
19.450983
17.923507
16.22284
14.365898
12.37107
10.258017
8.0474647
5.7609944
3.4208231
1.049582
-1.3299105
-3.6948001
-6.0224561
-8.2907941
-10.47827
-12.564177
-14.528828
-16.353717
-18.021686
-19.517075
-20.825861
-21.935782
-22.836444
-23.519419
-23.978317
-24.208843
-24.886604
-24.649614
-24.177857
-23.475755
-22.549895
-21.40896
-20.063653
-18.526596
-16.812222
-14.936639
-12.917491
-10.773798
-8.5257935
-6.1947438
-3.8027609
-1.3725762
1.0726033
3.5093322
5.9141674
8.2638675
10.535615
12.707242
14.757449
16.666026
18.414064
19.984161
21.360612
22.529592
23.479314
24.200171
24.684852
24.928431
24.928431
24.684852
24.200171
23.479314
22.529592
21.360612
19.984161
18.414064
16.666026
14.757449
12.707242
10.535615
8.2638675
5.9141674
3.5093322
1.0726033
-1.3725762
-3.8027609
-6.1947438
-8.5257936
-10.773798
-12.917491
-14.936639
-16.812222
-18.526596
-20.063653
-21.40896
-22.549895
-23.475755
-24.177857
-24.649614
-24.886604
-25.805184
-25.559433
-25.070244
-24.34222
-23.382211
-22.199246
-20.804448
-19.210933
-17.433684
-15.489419
-13.39644
-11.174467
-8.8444682
-6.4284735
-3.9493799
-1.4307396
1.1034288
3.6288632
6.1212912
8.5566485
10.911305
13.162297
15.287549
17.266109
19.07836
20.706238
22.133434
23.345581
24.330424
25.07797
25.580612
25.833222
25.833222
25.580612
25.07797
24.330424
23.345581
22.133434
20.706238
19.07836
17.266109
15.287549
13.162297
10.911305
8.5566485
6.1212912
3.6288632
1.1034288
-1.4307396
-3.9493799
-6.4284735
-8.8444682
-11.174467
-13.39644
-15.489419
-17.433684
-19.210933
-20.804448
-22.199246
-23.382211
-24.34222
-25.070244
-25.559433
-25.805184
-26.973785
-26.716885
-26.205516
-25.444509
-24.441052
-23.204618
-21.746869
-20.081546
-18.22434
-16.192744
-14.005897
-11.684409
-9.2501814
-6.726215
-4.1364053
-1.5053318
1.141952
3.7801426
6.3839207
8.9281794
11.388259
13.740184
15.960896
18.028495
19.922461
21.623888
23.11569
24.382807
25.412382
26.193926
26.71945
26.983568
26.983568
26.71945
26.193926
25.412382
24.382807
23.11569
21.623888
19.922461
18.028495
15.960896
13.740184
11.388259
8.9281794
6.3839207
3.7801426
1.141952
-1.5053318
-4.1364053
-6.7262151
-9.2501814
-11.684409
-14.005897
-16.192744
-18.22434
-20.081546
-21.746869
-23.204618
-24.441052
-25.444509
-26.205516
-26.716885
-26.973785
-28.40415
-28.133599
-27.595069
-26.793678
-25.737032
-24.43515
-22.900359
-21.147172
-19.192146
-17.053726
-14.752077
-12.308897
-9.7472283
-7.0912548
-4.3660911
-1.5975629
1.1880145
3.9640677
6.7040034
9.3814461
11.970481
14.445898
16.783437
18.960036
20.954069
22.74559
24.316556
25.651047
26.735462
27.558696
28.112283
28.390514
28.390514
28.112283
27.558696
26.735462
25.651047
24.316556
22.74559
20.954069
18.960036
16.783437
14.445898
11.970481
9.3814461
6.7040034
3.9640677
1.1880145
-1.5975629
-4.3660911
-7.0912548
-9.7472283
-12.308897
-14.752077
-17.053726
-19.192146
-21.147172
-22.900359
-24.43515
-25.737032
-26.793678
-27.595069
-28.133599
-28.40415
-30.110531
-29.823683
-29.252733
-28.403141
-27.283023
-25.903055
-24.276366
-22.418395
-20.346741
-18.080986
-15.642518
-13.054333
-10.340831
-7.5276011
-4.6412045
-1.7089432
1.2413727
4.1816642
7.0838292
9.9199895
12.662741
15.285408
17.762298
20.068961
22.182446
24.081557
25.747097
27.162107
28.312083
29.185169
29.772319
30.067432
30.067432
29.772319
29.185169
28.312083
27.162107
25.747097
24.081557
22.182446
20.068961
17.762298
15.285408
12.662741
9.9199895
7.0838292
4.1816642
1.2413727
-1.7089432
-4.6412045
-7.5276011
-10.340831
-13.054333
-15.642518
-18.080986
-20.346741
-22.418395
-24.276366
-25.903055
-27.283023
-28.403141
-29.252733
-29.823683
-30.110531
-32.109965
-31.804003
-31.195033
-30.288925
-29.094399
-27.622916
-25.888554
-23.90785
-21.699627
-19.284808
-16.686218
-13.928366
-11.037238
-8.040064
-4.9650871
-1.8413258
1.3016727
4.4340806
7.5260441
10.547939
13.47063
16.26573
18.905875
21.364987
23.618551
25.643895
27.420451
28.930022
30.157023
31.088696
31.715302
32.030263
32.030263
31.715302
31.088696
30.157023
28.930022
27.420451
25.643895
23.618551
21.364987
18.905875
16.26573
13.47063
10.547939
7.5260441
4.4340806
1.3016727
-1.8413258
-4.9650871
-8.040064
-11.037238
-13.928366
-16.686218
-19.284808
-21.699627
-23.90785
-25.888554
-27.622916
-29.094399
-30.288925
-31.195033
-31.804003
-32.109965
-34.422498
-34.0944
-33.441405
-32.469868
-31.189224
-29.611858
-27.752963
-25.630359
-23.2643
-20.677265
-17.893738
-14.939983
-11.843806
-8.6343239
-5.3417114
-1.9969533
1.3684145
4.7225629
8.0336354
11.27001
14.400566
17.394956
20.223881
22.859381
25.275123
27.446705
29.35195
30.971196
32.287576
33.287264
33.959687
34.297701
34.297701
33.959687
33.287264
32.287576
30.971196
29.35195
27.446705
25.275123
22.859381
20.223881
17.394956
14.400566
11.27001
8.0336354
4.7225629
1.3684145
-1.9969533
-5.3417114
-8.6343239
-11.843806
-14.939983
-17.893738
-20.677265
-23.2643
-25.630359
-27.752963
-29.611858
-31.189224
-32.469868
-33.441405
-34.0944
-34.422498
-37.071415
-36.717918
-36.014414
-34.967834
-33.58845
-31.889732
-29.888174
-27.603089
-25.056385
-22.272331
-19.277317
-16.099605
-12.769082
-9.3170067
-5.7757458
-2.178513
1.4409045
5.0484159
8.6099016
12.091483
15.459792
18.682252
21.727364
24.565004
27.166743
29.506171
31.559228
33.304535
34.723712
35.801662
36.526827
36.891382
36.891382
36.526827
35.801662
34.723712
33.304535
31.559228
29.506171
27.166743
24.565004
21.727364
18.682252
15.459792
12.091483
8.6099016
5.0484159
1.4409045
-2.178513
-5.7757458
-9.3170067
-12.769082
-16.099605
-19.277317
-22.272331
-25.056385
-27.603089
-29.888174
-31.889732
-33.58845
-34.967834
-36.014414
-36.717918
-37.071415
-40.083528
-39.701082
-38.940025
-37.807962
-36.316151
-34.47933
-32.315509
-29.845725
-27.093792
-24.086027
-20.850988
-17.419203
-13.822907
-10.095772
-6.2726324
-2.3892052
1.5181977
5.4129531
9.2584119
13.018172
16.656351
20.137866
23.428727
26.496352
29.309906
31.840658
34.062357
35.951613
37.488259
38.655698
39.441195
39.836123
39.836123
39.441195
38.655698
37.488259
35.951613
34.062357
31.840658
29.309906
26.496352
23.428727
20.137866
16.656351
13.018172
9.2584119
5.4129531
1.5181977
-2.3892052
-6.2726324
-10.095772
-13.822907
-17.419203
-20.850988
-24.086027
-27.093792
-29.845725
-32.315509
-34.47933
-36.316151
-37.807962
-38.940025
-39.701082
-40.083528
-43.489511
-43.074233
-42.247917
-41.018966
-39.399798
-37.406634
-35.059246
-32.38067
-29.396898
-26.136583
-22.630733
-18.912427
-15.016531
-10.979419
-6.8386795
-2.6328241
1.5990251
5.8174336
9.9829506
14.056382
17.999057
21.773103
25.341737
28.669594
31.723091
34.470823
36.883993
38.936851
40.607125
41.876438
42.730657
43.16019
43.16019
42.730657
41.876438
40.607125
38.936851
36.883993
34.470823
31.723091
28.669594
25.341737
21.773103
17.999057
14.056382
9.9829506
5.8174336
1.5990251
-2.6328241
-6.8386795
-10.979419
-15.016531
-18.912427
-22.630733
-26.136583
-29.396898
-32.38067
-35.059246
-37.406634
-39.399798
-41.018966
-42.247917
-43.074233
-43.489511
-47.324299
-46.871909
-45.971852
-44.633477
-42.87057
-40.701096
-38.146883
-35.233268
-31.988746
-28.444614
-24.634639
-20.594753
-16.36275
-11.978006
-7.4811712
-2.9138558
1.681706
6.2629803
10.787441
15.212837
19.497439
23.600293
27.48151
31.102591
34.426824
37.419726
40.049534
42.287728
44.109551
45.494501
46.426778
46.895636
46.895636
46.426778
45.494501
44.109551
42.287728
40.049534
37.419726
34.426824
31.102591
27.48151
23.600293
19.497439
15.212837
10.787441
6.2629803
1.681706
-2.9138558
-7.4811712
-11.978006
-16.36275
-20.594753
-24.634639
-28.444614
-31.988746
-35.233268
-38.146883
-40.701096
-42.87057
-44.633477
-45.971852
-46.871909
-47.324299
-51.627551
-51.133302
-50.150106
-48.688439
-46.763718
-44.395963
-41.609406
-38.432055
-34.895265
-31.033324
-26.883091
-22.483659
-17.876066
-13.103001
-8.208497
-3.2375941
1.7640411
6.7504782
11.675847
16.494586
21.161648
25.632718
29.864471
33.814899
37.443732
40.712937
43.587294
46.03502
48.0284
49.544398
50.565205
51.078684
51.078684
50.565205
49.544398
48.0284
46.03502
43.587294
40.712937
37.443732
33.814899
29.864471
25.632718
21.161647
16.494586
11.675847
6.7504782
1.7640411
-3.2375941
-8.208497
-13.103001
-17.876066
-22.483659
-26.883091
-31.033324
-34.895265
-38.432055
-41.609406
-44.395963
-46.763718
-48.688439
-50.150106
-51.133302
-51.627551
-56.444203
-55.902791
-54.825968
-53.225571
-51.118968
-48.528627
-45.481609
-42.009026
-38.145509
-33.928725
-29.398969
-24.598823
-19.572875
-14.367449
-9.0303065
-3.6102782
1.8431856
7.2804488
12.65204
17.908863
23.002328
27.884494
32.50827
36.827732
40.798566
44.378642
47.52869
50.213059
52.4005
54.064927
55.1861
55.750195
55.750195
55.1861
54.064927
52.4005
50.213059
47.52869
44.378642
40.798566
36.827732
32.50827
27.884494
23.002328
17.908863
12.65204
7.2804488
1.8431856
-3.6102782
-9.0303065
-14.367449
-19.572875
-24.598823
-29.398969
-33.928725
-38.145509
-42.009026
-45.481609
-48.528627
-51.118968
-53.225571
-54.825968
-55.902791
-56.444203
-61.825122
-61.230574
-60.048331
-58.291891
-55.980984
-53.141019
-49.802415
-45.999914
-41.771908
-37.159869
-32.207888
-26.962349
-21.471689
-15.786185
-9.9576943
-4.0392516
1.9155035
7.8529002
13.719636
19.462912
25.030428
30.370394
35.431634
40.163873
44.5182
48.447733
51.908432
54.860035
57.267036
59.09965
60.334679
60.956232
60.956232
60.334679
59.09965
57.267036
54.860035
51.908432
48.447733
44.5182
40.163873
35.431634
30.370394
25.030428
19.462912
13.719636
7.8529001
1.9155035
-4.0392515
-9.9576943
-15.786185
-21.471689
-26.962349
-32.207888
-37.159869
-41.771908
-45.999914
-49.802415
-53.141019
-55.980984
-58.291891
-60.048331
-61.230574
-61.825122
-67.827876
-67.173404
-65.872372
-63.94032
-61.399879
-58.280029
-54.615222
-50.444475
-45.810519
-40.759094
-35.33845
-29.599048
-23.593421
-17.376096
-11.003423
-4.5331424
1.9764089
8.4671586
14.881792
21.163739
27.256932
33.105584
38.654146
43.847522
48.63157
52.95387
56.764724
60.018329
62.67401
64.697459
66.061845
66.748731
66.748731
66.061845
64.697459
62.67401
60.018329
56.764724
52.95387
48.63157
43.847522
38.654146
33.105584
27.256932
21.163739
14.881792
8.4671586
1.9764089
-4.5331424
-11.003423
-17.376096
-23.593421
-29.599048
-35.33845
-40.759094
-45.810519
-50.444475
-54.615222
-58.280029
-61.399879
-63.94032
-65.872372
-67.173404
-67.827876
-74.517663
-73.795481
-72.360353
-70.230373
-67.431779
-63.997947
-59.968232
-55.386746
-50.301248
-44.762262
-38.822523
-32.536756
-25.961736
-19.156458
-12.182191
-5.1020541
2.020215
9.1216974
16.140972
23.017812
29.692504
36.105254
42.195902
47.904042
53.169554
57.933521
62.139481
65.734906
68.672794
70.913261
72.424974
73.186337
73.186337
72.424974
70.913261
68.672794
65.734906
62.139481
57.933521
53.169554
47.904042
42.195902
36.105254
29.692504
23.017812
16.140972
9.1216974
2.020215
-5.1020541
-12.182191
-19.156458
-25.961736
-32.536756
-38.822523
-44.762262
-50.301248
-55.386746
-59.968232
-63.997947
-67.431779
-70.230373
-72.360353
-73.795481
-74.517663
-81.968419
-81.169494
-79.58256
-77.228945
-74.139427
-70.35289
-65.914734
-60.875227
-55.288009
-49.208949
-42.695524
-35.806734
-28.603511
-21.149372
-13.510958
-5.7577352
2.0400422
9.8140085
17.498707
25.030685
32.347018
39.384107
46.077042
52.359585
58.164754
63.425952
68.078543
72.061766
75.320798
77.80882
79.488882
80.33544
80.33544
79.488882
77.80882
75.320798
72.061766
68.078543
63.425952
58.164754
52.359585
46.077042
39.384107
32.347018
25.030685
17.498707
9.8140085
2.0400422
-5.7577352
-13.510958
-21.149372
-28.603511
-35.806734
-42.695524
-49.208949
-55.288009
-60.875227
-65.914734
-70.35289
-74.139427
-77.228945
-79.58256
-81.169494
-81.968419
-90.264157
-89.377881
-87.618399
-85.011182
-81.592818
-77.409179
-72.513264
-66.962906
-60.818713
-54.142525
-46.99667
-39.444117
-31.549445
-23.380366
-15.009309
-6.5136514
2.0278979
10.540615
18.9554
27.206578
35.228961
42.955686
50.317096
57.240569
63.651191
69.473185
74.631938
79.056504
82.682301
85.453819
87.327047
88.271473
88.271473
87.327047
85.453819
82.682301
79.056504
74.631938
69.473185
63.651191
57.240569
50.317096
42.955686
35.228961
27.206578
18.9554
10.540615
2.0278979
-6.5136514
-15.009309
-23.380366
-31.549445
-39.444117
-46.99667
-54.142525
-60.818713
-66.962906
-72.513264
-77.409179
-81.592818
-85.011182
-87.618399
-89.377881
-90.264157
-99.500578
-98.514324
-96.557675
-93.661464
-89.869798
-85.237575
-79.827522
-73.706965
-66.944936
-59.609953
-51.769094
-43.488423
-34.834861
-25.879197
-16.699849
-7.3847837
1.9751766
11.297432
20.510306
29.547949
38.344712
46.831509
54.934138
62.572988
69.663878
76.119929
81.854208
86.783034
90.829539
93.927238
96.023194
97.080609
97.080609
96.023194
93.927238
90.829539
86.783034
81.854208
76.119929
69.663878
62.572988
54.934138
46.831509
38.344712
29.547949
20.510306
11.297432
1.9751766
-7.3847837
-16.699849
-25.879197
-34.834862
-43.488423
-51.769094
-59.609953
-66.944936
-73.706965
-79.827522
-85.237575
-89.869798
-93.661464
-96.557675
-98.514324
-99.500578
-109.78701
-108.68553
-106.50207
-103.27444
-99.056596
-93.915253
-87.925854
-81.167924
-73.720957
-65.66105
-57.059599
-47.983992
-38.500761
-28.680991
-18.608526
-8.3867628
1.87411
12.080895
22.161918
32.055178
41.697731
51.020021
59.943735
68.381559
76.238331
83.413563
89.804906
95.312604
99.84418
103.31921
105.6734
106.86201
106.86201
105.6734
103.31921
99.84418
95.312604
89.804906
83.413563
76.238331
68.381559
59.943735
51.020021
41.697731
32.055178
22.161918
12.080895
1.87411
-8.3867628
-18.608526
-28.680991
-38.500761
-47.983992
-57.059599
-65.66105
-73.720957
-81.167924
-87.925854
-93.915253
-99.056596
-103.27444
-106.50207
-108.68553
-109.78701
-121.24869
-120.01332
-117.56681
-113.9561
-109.24816
-103.52532
-96.879991
-89.407792
-81.2017
-72.346661
-62.917603
-52.980093
-42.595092
-31.827805
-20.764651
-9.5334647
1.721212
12.890603
23.909158
34.726489
45.28769
55.525359
65.357695
74.68875
83.410078
91.404272
98.54943
104.7253
109.81942
113.73357
116.38901
117.73087
117.73087
116.38901
113.73357
109.81942
104.7253
98.54943
91.404272
83.410078
74.68875
65.357695
55.525359
45.28769
34.726489
23.909158
12.890603
1.721212
-9.5334647
-20.764651
-31.827805
-42.595092
-52.980093
-62.917603
-72.346661
-81.2017
-89.407792
-96.879991
-103.52532
-109.24816
-113.95609
-117.56681
-120.01332
-121.24869
-134.02949
-132.63704
-129.88256
-125.82485
-120.54815
-114.15558
-106.76263
-98.486634
-89.438774
-79.714888
-69.392435
-58.530149
-47.17424
-35.371035
-23.200233
-10.831261
1.5245606
13.734615
25.753871
37.558296
49.109576
60.345943
71.182678
81.513786
91.214343
100.1456
108.16047
115.1124
120.86307
125.29156
128.30065
129.82272
129.82272
128.30065
125.29156
120.86307
115.1124
108.16047
100.1456
91.214343
81.513786
71.182678
60.345943
49.109576
37.558296
25.753871
13.734615
1.5245606
-10.831261
-23.200233
-35.371035
-47.17424
-58.530149
-69.392435
-79.714888
-89.438774
-98.486634
-106.76263
-114.15558
-120.54815
-125.82485
-129.88256
-132.63704
-134.02949
-148.29514
-146.71647
-143.59763
-139.01256
-133.06857
-125.89629
-117.64328
-108.45665
-98.4735
-87.804034
-76.527711
-64.689361
-52.305355
-39.376475
-25.948868
-12.267367
1.3175173
14.63898
27.705406
40.546024
53.152697
65.472905
77.418751
88.871848
99.686183
109.69577
118.72058
126.58005
133.10217
138.1371
141.56403
143.29935
143.29935
141.56403
138.1371
133.10217
126.58005
118.72058
109.69577
99.686183
88.871848
77.418751
65.472905
53.152697
40.546024
27.705406
14.63898
1.3175173
-12.267367
-25.948868
-39.376475
-52.305355
-64.689361
-76.527711
-87.804034
-98.4735
-108.45665
-117.64328
-125.89629
-133.06857
-139.01256
-143.59763
-146.71647
-148.29514
-164.23783
-162.4359
-158.88117
-153.66612
-146.92931
-138.83681
-129.58207
-119.35289
-108.32552
-96.630303
-84.350612
-71.509208
-58.070202
-43.935699
-29.044764
-13.785987
1.1918798
15.671821
29.789579
43.684817
57.399089
70.888285
84.058109
96.773827
108.86149
120.12041
130.32641
139.2552
146.69011
152.44494
156.36854
158.35789
158.35789
156.36854
152.44494
146.69011
139.2552
130.32641
120.12041
108.86149
96.773827
84.058109
70.888285
57.399089
43.684817
29.789579
15.671821
1.1918798
-13.785987
-29.044764
-43.935699
-58.070202
-71.509208
-84.350612
-96.630303
-108.32552
-119.35289
-129.58207
-138.83681
-146.92931
-153.66612
-158.88117
-162.4359
-164.23783
-182.08182
-180.00918
-175.92746
-169.95003
-162.25858
-153.0623
-142.62227
-131.1805
-118.97561
-106.16702
-92.850508
-79.020455
-64.55911
-49.17383
-32.507955
-15.223097
1.3626519
16.965573
32.048291
46.963759
61.818797
76.562141
91.083716
105.22672
118.77898
131.49689
143.09492
153.29393
161.81613
168.43135
172.94886
175.24348
175.24348
172.94886
168.43135
161.81613
153.29393
143.09492
131.49689
118.77898
105.22672
91.083716
76.562141
61.818797
46.963759
32.048291
16.965573
1.3626519
-15.223097
-32.507955
-49.17383
-64.55911
-79.020455
-92.850508
-106.16702
-118.97561
-131.1805
-142.62227
-153.0623
-162.25858
-169.95003
-175.92746
-180.00918
-182.08182
-202.08261
-199.67896
-194.95507
-188.04523
-179.19054
-168.6488
-156.78053
-143.89848
-130.34123
-116.31253
-101.94095
-87.195039
-71.850857
-55.265105
-36.326383
-16.214172
2.2856835
18.763034
34.539517
50.353077
66.360379
82.447155
98.467178
114.23421
129.48283
143.91895
157.16861
168.88713
178.71037
186.3589
191.58937
194.25557
194.25557
191.58937
186.3589
178.71037
168.88713
157.16861
143.91895
129.48283
114.23421
98.467178
82.447155
66.360379
50.353077
34.539517
18.763034
2.2856835
-16.214172
-36.326383
-55.265105
-71.850857
-87.195039
-101.94095
-116.31253
-130.34123
-143.89848
-156.78053
-168.6488
-179.19054
-188.04523
-194.95507
-199.67896
-202.08261
-224.52107
-221.71008
-216.20108
-208.13966
-197.8551
-185.64451
-172.02351
-157.38754
-142.23937
-126.85051
-111.42552
-95.943158
-80.063035
-62.523096
-40.390426
-15.622044
4.886041
21.451654
37.339205
53.793228
70.939574
88.471943
106.16761
123.79769
141.02716
157.50112
172.71986
186.26156
197.64139
206.52888
212.60984
215.72592
215.72592
212.60984
206.52888
197.64139
186.26156
172.71986
157.50112
141.02716
123.79769
106.16761
88.471943
70.939574
53.793228
37.339205
21.451654
4.886041
-15.622044
-40.390426
-62.523096
-80.063035
-95.943158
-111.42552
-126.85051
-142.23937
-157.38754
-172.02351
-185.64451
-197.8551
-208.13966
-216.20108
-221.71008
-224.52107
-249.82536
-246.49065
-240.03866
-230.48539
-218.45615
-204.05232
-188.26737
-171.36686
-154.33163
-137.37859
-120.96499
-105.18079
-89.831989
-73.08834
-46.158281
-14.636128
9.7065517
25.533025
40.486011
57.092945
75.387667
94.520866
114.11999
133.91326
153.47525
172.40857
189.99524
205.75738
219.00305
229.38468
236.46083
240.06783
240.06783
236.46083
229.38468
219.00305
205.75738
189.99524
172.40857
153.47525
133.91326
114.11999
94.520866
75.387667
57.092945
40.486011
25.533025
9.7065517
-14.636128
-46.158281
-73.08834
-89.831989
-105.18079
-120.96499
-137.37859
-154.33163
-171.36686
-188.26737
-204.05232
-218.45615
-230.48539
-240.03866
-246.49065
-249.82536
-97.226069
-97.092141
-96.921986
-96.137483
-95.157456
-92.932072
-90.452182
-86.483302
-82.64799
-77.748108
-73.604849
-69.696884
-68.955978
-75.707216
-82.691666
-29.056682
32.808896
33.96147
43.51365
59.285498
79.270432
100.36467
122.14224
144.56252
166.81977
188.99139
209.42003
228.16108
243.63157
255.99272
264.26691
268.5399
268.5399
264.26691
255.99272
243.63157
228.16108
209.42003
188.99139
166.81977
144.56252
122.14224
100.36467
79.270432
59.285498
43.51365
33.96147
32.808896
-29.056682
-82.691666
-75.707216
-68.955978
-69.696884
-73.604849
-77.748108
-82.64799
-86.483302
-90.452182
-92.932072
-95.157456
-96.137483
-96.921986
-97.092141
-97.226069
268.43227
264.16155
255.88559
243.52609
228.05821
209.31952
188.8956
166.72931
144.47912
122.06574
100.29516
79.208235
59.234418
43.476273
33.939503
32.795706
-29.082806
-82.672969
-75.673327
-68.926156
-69.653174
-73.548081
-77.679976
-82.570531
-86.397412
-90.359152
-92.832246
-95.051943
-96.027464
-96.808678
-96.975482
-97.10894
-97.10894
-96.975482
-96.808678
-96.027464
-95.051943
-92.832246
-90.359152
-86.397412
-82.570531
-77.679976
-73.548081
-69.653174
-68.926156
-75.673327
-82.672969
-29.082806
32.795706
33.939503
43.476273
59.234418
79.208235
100.29516
122.06574
144.47912
166.72931
188.8956
209.31952
228.05821
243.52609
255.88559
264.16155
268.43227
239.95285
236.34668
229.27122
218.89154
205.6489
189.89052
172.30894
153.3817
133.82685
114.04129
94.45038
75.326208
57.042194
40.447271
25.506973
9.6932597
-14.635363
-46.150107
-73.070415
-89.801577
-105.13832
-120.91049
-137.31291
-154.25594
-171.28231
-188.17474
-203.95217
-218.34913
-230.37278
-239.92168
-246.36897
-249.70305
-249.70305
-246.36897
-239.92168
-230.37278
-218.34913
-203.95217
-188.17474
-171.28231
-154.25594
-137.31291
-120.91049
-105.13832
-89.801577
-73.070415
-46.150107
-14.635363
9.6932597
25.506973
40.447271
57.042194
75.326208
94.45038
114.04129
133.82685
153.3817
172.30894
189.89052
205.6489
218.89154
229.27122
236.34668
239.95285
215.60305
212.48779
206.40824
197.52331
186.14708
172.60998
157.39696
140.92978
123.70806
106.08651
88.40009
70.877751
53.742471
37.300303
21.425124
4.8710915
-15.627498
-40.381943
-62.5024
-80.030743
-95.899551
-111.37083
-126.78533
-142.16455
-157.30402
-171.93212
-185.54599
-197.75032
-208.02968
-216.08697
-221.59271
-224.40245
-224.40245
-221.59271
-216.08697
-208.02968
-197.75032
-185.54599
-171.93212
-157.30402
-142.16455
-126.78533
-111.37083
-95.899551
-80.030743
-62.5024
-40.381943
-15.627498
4.8710915
21.425124
37.300303
53.742471
70.877751
88.40009
106.08651
123.70806
140.92978
157.39696
172.60998
186.14708
197.52331
206.40824
212.48779
215.60305
194.12427
191.45909
186.23055
178.58511
168.76609
157.05289
143.80967
129.38105
114.14094
98.383263
82.373375
66.297471
50.301802
34.500467
18.736588
2.2716917
-16.215803
-36.315974
-55.242803
-71.817155
-87.150234
-101.88538
-116.24681
-130.26615
-143.81488
-156.68925
-168.55069
-179.08651
-187.93631
-194.84233
-199.56345
-201.96586
-201.96586
-199.56345
-194.84233
-187.93631
-179.08651
-168.55069
-156.68925
-143.81488
-130.26615
-116.24681
-101.88538
-87.150234
-71.817155
-55.242803
-36.315974
-16.215803
2.2716917
18.736588
34.500467
50.301802
66.297471
82.373375
98.383263
114.14094
129.38105
143.80967
157.05289
168.76609
178.58511
186.23055
191.45909
194.12427
175.10331
172.80989
168.29473
161.68311
153.16572
142.97272
131.38187
118.67225
105.12929
90.996474
76.485879
61.754209
46.911461
32.008745
16.93902
1.3489592
-15.224182
-32.496338
-49.150048
-64.523739
-78.973915
-92.793276
-106.09978
-118.89913
-131.09561
-142.52982
-152.9632
-162.15377
-169.84054
-175.81436
-179.89357
-181.96499
-181.96499
-179.89357
-175.81436
-169.84054
-162.15377
-152.9632
-142.52982
-131.09561
-118.89913
-106.09978
-92.793276
-78.973915
-64.523739
-49.150048
-32.496338
-15.224182
1.3489592
16.93902
32.008745
46.911461
61.754209
76.485879
90.996474
105.12929
118.67225
131.38187
142.97272
153.16572
161.68311
168.29473
172.80989
175.10331
158.20828
156.2203
152.29942
146.54866
139.11916
130.19707
119.999
108.74917
96.671633
83.966964
70.80898
57.332292
43.631064
29.749244
15.645063
1.1786312
-13.785937
-29.03169
-43.910113
-58.032673
-71.460269
-84.290892
-96.560529
-108.24649
-119.26545
-129.48711
-138.73526
-146.82215
-153.55439
-158.76593
-162.31827
-164.11902
-164.11902
-162.31827
-158.76593
-153.55439
-146.82215
-138.73526
-129.48711
-119.26545
-108.24649
-96.560529
-84.290892
-71.460269
-58.032673
-43.910113
-29.03169
-13.785937
1.1786312
15.645063
29.749244
43.631064
57.332292
70.80898
83.966964
96.671633
108.74917
119.999
130.19707
139.11916
146.54866
152.29942
156.2203
158.20828
143.13962
141.40583
137.98195
132.95156
126.43542
118.58334
109.56722
99.567549
88.764209
77.323056
65.389957
53.083149
40.490371
27.663967
14.611897
1.3047287
-12.266194
-25.934116
-39.348683
-52.265145
-64.637385
-76.464686
-87.730742
-98.39078
-108.36539
-117.54441
-125.79078
-132.95744
-138.89686
-143.47847
-146.59496
-148.17246
-148.17246
-146.59496
-143.47847
-138.89686
-132.95744
-125.79078
-117.54441
-108.36539
-98.39078
-87.730742
-76.464686
-64.637385
-52.265145
-39.348683
-25.934116
-12.266194
1.3047287
14.611897
27.663967
40.490371
53.083149
65.389957
77.323056
88.764209
99.567549
109.56722
118.58334
126.43542
132.95156
137.98195
141.40583
143.13962
129.65203
128.13166
125.12592
120.70243
114.95834
108.01449
100.00909
91.088592
81.399935
71.081716
60.258694
49.036694
37.500258
25.71097
13.706947
1.5120072
-10.829026
-23.18367
-35.34074
-47.130902
-58.474511
-69.325294
-79.637092
-89.351222
-98.39027
-106.65844
-114.04458
-120.43142
-125.70347
-129.75766
-132.50978
-133.90105
-133.90105
-132.50978
-129.75766
-125.70347
-120.43142
-114.04458
-106.65844
-98.39027
-89.351222
-79.637092
-69.325294
-58.474511
-47.130902
-35.34074
-23.18367
-10.829026
1.5120072
13.706947
25.71097
37.500258
49.036694
60.258694
71.081716
81.399935
91.088592
100.00909
108.01449
114.95834
120.70243
125.12592
128.13166
129.65203
117.54826
116.20825
113.55648
109.64779
104.56083
98.393739
91.258862
83.276313
74.567839
65.250675
55.433089
45.210839
34.665532
23.864371
12.862052
1.7087488
-9.5301868
-20.746141
-31.794714
-42.548169
-52.920157
-62.845527
-72.263371
-81.108165
-89.305025
-96.769045
-103.40728
-109.12415
-113.82727
-117.43435
-119.87842
-121.11257
-121.11257
-119.87842
-117.43435
-113.82727
-109.12415
-103.40728
-96.769045
-89.305025
-81.108165
-72.263371
-62.845527
-52.920157
-42.548169
-31.794714
-20.746141
-9.5301868
1.7087488
12.862052
23.864371
34.665532
45.210839
55.433089
65.250675
74.567839
83.276313
91.258862
98.393739
104.56083
109.64779
113.55648
116.20825
117.54826
106.66633
105.47974
103.12954
99.660431
95.136624
89.638436
83.258213
76.095558
68.252652
59.829792
50.921948
41.616224
31.990726
22.114792
12.051147
1.8615725
-8.3824604
-18.587931
-28.644797
-38.449775
-47.919101
-56.981754
-65.571255
-73.620264
-81.057426
-87.806685
-93.78858
-98.923619
-103.13638
-106.36018
-108.54108
-109.64127
-109.64127
-108.54108
-106.36018
-103.13638
-98.923619
-93.78858
-87.806685
-81.057426
-73.620264
-65.571255
-56.981754
-47.919101
-38.449775
-28.644797
-18.587931
-8.3824604
1.8615725
12.051147
22.114792
31.990726
41.616224
50.921948
59.829792
68.252652
76.095558
83.258213
89.638436
95.136624
99.660431
103.12954
105.47974
106.66633
96.870589
95.81535
93.723715
90.63242
86.594313
81.67576
75.953486
69.511004
62.435059
54.812331
46.726785
38.257811
29.479384
20.460357
11.26615
1.9623839
-7.3794765
-16.677019
-25.839577
-34.77931
-43.417893
-51.684613
-59.51261
-66.835871
-73.587365
-79.698614
-85.100619
-89.726089
-93.512319
-96.404435
-98.358345
-99.343227
-99.343227
-98.358345
-96.404435
-93.512319
-89.726089
-85.100619
-79.698614
-73.587365
-66.835871
-59.51261
-51.684613
-43.417893
-34.77931
-25.839577
-16.677019
-7.3794765
1.9623839
11.26615
20.460357
29.479384
38.257811
46.726785
54.812331
62.435059
69.511004
75.953486
81.67576
86.594313
90.63242
93.723715
95.81535
96.870589
88.045647
87.103571
85.235007
82.470402
78.853667
74.440183
69.294375
63.48701
57.092498
50.186397
42.843394
35.135869
27.133237
18.902115
10.507443
2.0146614
-6.5073536
-14.984076
-23.336967
-31.488788
-39.36722
-46.904638
-54.036536
-60.700005
-66.832768
-72.37303
-77.260221
-81.436541
-84.849018
-87.451801
-89.208317
-90.093108
-90.093108
-89.208317
-87.451801
-84.849018
-81.436541
-77.260221
-72.37303
-66.832768
-60.700005
-54.036536
-46.904638