/*--------------------------------*- C++ -*----------------------------------*\
| =========                 |                                                 |
| \\      /  F ield         | OpenFOAM: The Open Source CFD Toolbox           |
|  \\    /   O peration     | Version:  2106                                  |
|   \\  /    A nd           | Website:  www.openfoam.com                      |
|    \\/     M anipulation  |                                                 |
\*---------------------------------------------------------------------------*/
FoamFile
{
    version     2.0;
    format      ascii;
    arch        "LSB;label=32;scalar=64";
    class       volVectorField;
    location    "0.002";
    object      U;
}
// * * * * * * * * * * * * * * * * * * * * * * * * * * * * * * * * * * * * * //

dimensions      [0 1 -1 0 0 0 0];

internalField   nonuniform List<vector> 
4096
(
(-0.024112346 0.024010488 0)
(-0.072106524 0.023780887 0)
(-0.11941122 0.023323739 0)
(-0.16557362 0.022643142 0)
(-0.21015116 0.021745235 0)
(-0.2527156 0.02063817 0)
(-0.29285701 0.019332085 0)
(-0.33018774 0.017839056 0)
(-0.36434623 0.01617303 0)
(-0.39500067 0.014349731 0)
(-0.42185251 0.012386548 0)
(-0.44463962 0.010302379 0)
(-0.46313906 0.0081174421 0)
(-0.47716946 0.0058529368 0)
(-0.48659623 0.0035303442 0)
(-0.4913187 0.0011759338 0)
(-0.49130383 -0.001191464 0)
(-0.48654427 -0.0035464048 0)
(-0.47709002 -0.0058660713 0)
(-0.46303472 -0.0081277942 0)
(-0.44451683 -0.010309606 0)
(-0.42171812 -0.01239045 0)
(-0.39486155 -0.014350378 0)
(-0.36420883 -0.016170726 0)
(-0.33005769 -0.017834276 0)
(-0.29273881 -0.01932539 0)
(-0.25261257 -0.020630129 0)
(-0.21006547 -0.021736358 0)
(-0.1655065 -0.02263383 0)
(-0.11936321 -0.02331426 0)
(-0.072077746 -0.023771383 0)
(-0.024102764 -0.024000999 0)
(0.024102764 -0.024000999 0)
(0.072077746 -0.023771383 0)
(0.11936321 -0.02331426 0)
(0.1655065 -0.02263383 0)
(0.21006547 -0.021736358 0)
(0.25261257 -0.020630129 0)
(0.29273881 -0.01932539 0)
(0.33005769 -0.017834276 0)
(0.36420883 -0.016170726 0)
(0.39486155 -0.014350378 0)
(0.42171812 -0.01239045 0)
(0.44451683 -0.010309606 0)
(0.46303472 -0.0081277942 0)
(0.47709002 -0.0058660713 0)
(0.48654427 -0.0035464048 0)
(0.49130383 -0.001191464 0)
(0.4913187 0.0011759338 0)
(0.48659623 0.0035303442 0)
(0.47716946 0.0058529368 0)
(0.46313906 0.0081174421 0)
(0.44463962 0.010302379 0)
(0.42185251 0.012386548 0)
(0.39500067 0.014349731 0)
(0.36434623 0.01617303 0)
(0.33018774 0.017839056 0)
(0.29285701 0.019332085 0)
(0.2527156 0.02063817 0)
(0.21015116 0.021745235 0)
(0.16557362 0.022643142 0)
(0.11941122 0.023323739 0)
(0.072106524 0.023780887 0)
(0.024112346 0.024010488 0)
(-0.024420386 0.072269756 0)
(-0.073027878 0.071578805 0)
(-0.12093759 0.070203069 0)
(-0.16769121 0.068154862 0)
(-0.21284072 0.06545262 0)
(-0.25595249 0.062120839 0)
(-0.29661133 0.058189989 0)
(-0.33442448 0.053696372 0)
(-0.36902548 0.048681927 0)
(-0.40007795 0.043193959 0)
(-0.42727907 0.037284782 0)
(-0.45036293 0.031011275 0)
(-0.46910335 0.024434322 0)
(-0.48331649 0.017618069 0)
(-0.49286388 0.010628924 0)
(-0.49765069 0.0035372331 0)
(-0.49763236 -0.003587456 0)
(-0.49280894 -0.010675948 0)
(-0.48322952 -0.017658313 0)
(-0.46898928 -0.024466194 0)
(-0.45022885 -0.031033428 0)
(-0.4271327 -0.037296624 0)
(-0.39992698 -0.043195746 0)
(-0.36887706 -0.04867464 0)
(-0.33428471 -0.053681505 0)
(-0.29648502 -0.058169302 0)
(-0.25584304 -0.06209611 0)
(-0.21275023 -0.065425427 0)
(-0.16762072 -0.068126439 0)
(-0.1208874 -0.07017423 0)
(-0.072997895 -0.071549959 0)
(-0.024410421 -0.072240993 0)
(0.024410421 -0.072240993 0)
(0.072997895 -0.071549959 0)
(0.1208874 -0.07017423 0)
(0.16762072 -0.068126439 0)
(0.21275023 -0.065425427 0)
(0.25584304 -0.06209611 0)
(0.29648502 -0.058169302 0)
(0.33428471 -0.053681505 0)
(0.36887706 -0.04867464 0)
(0.39992698 -0.043195746 0)
(0.4271327 -0.037296624 0)
(0.45022885 -0.031033428 0)
(0.46898928 -0.024466194 0)
(0.48322952 -0.017658313 0)
(0.49280894 -0.010675948 0)
(0.49763236 -0.003587456 0)
(0.49765069 0.0035372331 0)
(0.49286388 0.010628924 0)
(0.48331649 0.017618069 0)
(0.46910335 0.024434322 0)
(0.45036293 0.031011275 0)
(0.42727907 0.037284782 0)
(0.40007795 0.043193959 0)
(0.36902548 0.048681927 0)
(0.33442448 0.053696372 0)
(0.29661133 0.058189989 0)
(0.25595249 0.062120839 0)
(0.21284072 0.06545262 0)
(0.16769121 0.068154862 0)
(0.12093759 0.070203069 0)
(0.073027878 0.071578805 0)
(0.024420386 0.072269756 0)
(-0.02493401 0.12140691 0)
(-0.074564155 0.12024671 0)
(-0.12348275 0.11793662 0)
(-0.17122233 0.11449722 0)
(-0.21732581 0.10995932 0)
(-0.2613506 0.1043639 0)
(-0.30287273 0.097761945 0)
(-0.34149091 0.090214265 0)
(-0.37683051 0.08179115 0)
(-0.40854745 0.072571947 0)
(-0.4363318 0.062644475 0)
(-0.4599113 0.052104276 0)
(-0.47905432 0.041053688 0)
(-0.49357266 0.029600728 0)
(-0.50332399 0.017857868 0)
(-0.50821251 0.005941744 0)
(-0.50819107 -0.0060302638 0)
(-0.50326104 -0.017940595 0)
(-0.49347263 -0.029672082 0)
(-0.47892363 -0.041109921 0)
(-0.45975831 -0.052142926 0)
(-0.43616567 -0.062664607 0)
(-0.40837723 -0.072574154 0)
(-0.37666448 -0.081777324 0)
(-0.34133595 -0.090187206 0)
(-0.30273406 -0.097724905 0)
(-0.26123168 -0.10432012 0)
(-0.21722851 -0.10991165 0)
(-0.17114728 -0.11444784 0)
(-0.12342976 -0.11788691 0)
(-0.074532705 -0.12019729 0)
(-0.024923593 -0.12135779 0)
(0.024923593 -0.12135779 0)
(0.074532705 -0.12019729 0)
(0.12342976 -0.11788691 0)
(0.17114728 -0.11444784 0)
(0.21722851 -0.10991165 0)
(0.26123168 -0.10432012 0)
(0.30273406 -0.097724905 0)
(0.34133595 -0.090187206 0)
(0.37666448 -0.081777324 0)
(0.40837723 -0.072574154 0)
(0.43616567 -0.062664607 0)
(0.45975831 -0.052142926 0)
(0.47892363 -0.041109921 0)
(0.49347263 -0.029672082 0)
(0.50326104 -0.017940595 0)
(0.50819107 -0.0060302638 0)
(0.50821251 0.005941744 0)
(0.50332399 0.017857868 0)
(0.49357266 0.029600728 0)
(0.47905432 0.041053688 0)
(0.4599113 0.052104276 0)
(0.4363318 0.062644475 0)
(0.40854745 0.072571947 0)
(0.37683051 0.08179115 0)
(0.34149091 0.090214265 0)
(0.30287273 0.097761945 0)
(0.2613506 0.1043639 0)
(0.21732581 0.10995932 0)
(0.17122233 0.11449722 0)
(0.12348275 0.11793662 0)
(0.074564155 0.12024671 0)
(0.02493401 0.12140691 0)
(-0.025665513 0.17178202 0)
(-0.076752163 0.17014151 0)
(-0.12710777 0.16687496 0)
(-0.17625194 0.16201126 0)
(-0.22371471 0.15559373 0)
(-0.26904076 0.14767999 0)
(-0.31179362 0.1383418 0)
(-0.35155982 0.12766482 0)
(-0.38795303 0.11574819 0)
(-0.42061811 0.10270395 0)
(-0.44923493 0.088656225 0)
(-0.47352205 0.073740209 0)
(-0.49323997 0.058100859 0)
(-0.50819403 0.041891352 0)
(-0.51823687 0.025271393 0)
(-0.5232698 0.0084056106 0)
(-0.52324414 -0.0085392398 0)
(-0.51816178 -0.025395993 0)
(-0.50807496 -0.041998725 0)
(-0.49308522 -0.058184884 0)
(-0.47334206 -0.073797081 0)
(-0.44904101 -0.08868466 0)
(-0.42042135 -0.10270509 0)
(-0.38776331 -0.11572521 0)
(-0.35138509 -0.12762226 0)
(-0.31163956 -0.13828487 0)
(-0.26891075 -0.14761379 0)
(-0.22361009 -0.15552267 0)
(-0.17617253 -0.16193862 0)
(-0.12705251 -0.16680268 0)
(-0.076719705 -0.17007032 0)
(-0.025654823 -0.17171163 0)
(0.025654823 -0.17171163 0)
(0.076719705 -0.17007032 0)
(0.12705251 -0.16680268 0)
(0.17617253 -0.16193862 0)
(0.22361009 -0.15552267 0)
(0.26891075 -0.14761379 0)
(0.31163956 -0.13828487 0)
(0.35138509 -0.12762226 0)
(0.38776331 -0.11572521 0)
(0.42042135 -0.10270509 0)
(0.44904101 -0.08868466 0)
(0.47334206 -0.073797081 0)
(0.49308522 -0.058184884 0)
(0.50807496 -0.041998725 0)
(0.51816178 -0.025395993 0)
(0.52324414 -0.0085392397 0)
(0.5232698 0.0084056106 0)
(0.51823687 0.025271393 0)
(0.50819403 0.041891352 0)
(0.49323997 0.058100859 0)
(0.47352205 0.073740209 0)
(0.44923493 0.088656225 0)
(0.42061811 0.10270395 0)
(0.38795303 0.11574819 0)
(0.35155982 0.12766482 0)
(0.31179362 0.1383418 0)
(0.26904076 0.14767999 0)
(0.22371471 0.15559373 0)
(0.17625194 0.16201126 0)
(0.12710777 0.16687496 0)
(0.076752163 0.17014151 0)
(0.025665513 0.17178202 0)
(-0.026627484 0.22383759 0)
(-0.079629608 0.22170186 0)
(-0.13187529 0.21744905 0)
(-0.18286724 0.21111645 0)
(-0.23211867 0.20275997 0)
(-0.27915758 0.19245407 0)
(-0.32353103 0.18029159 0)
(-0.36480951 0.16638349 0)
(-0.40259118 0.1508584 0)
(-0.43650621 0.13386186 0)
(-0.46622085 0.11555542 0)
(-0.49144141 0.09611524 0)
(-0.51191779 0.075730454 0)
(-0.52744667 0.054601154 0)
(-0.5378741 0.032936086 0)
(-0.54309726 0.010950176 0)
(-0.54306573 -0.011138469 0)
(-0.53778201 -0.033111193 0)
(-0.5273012 -0.054751321 0)
(-0.5117299 -0.075846748 0)
(-0.49122463 -0.096192265 0)
(-0.46598967 -0.11559161 0)
(-0.43627458 -0.13385928 0)
(-0.4023712 -0.15082206 0)
(-0.36461051 -0.1663204 0)
(-0.32335917 -0.18020958 0)
(-0.27901586 -0.19236072 0)
(-0.23200743 -0.20266168 0)
(-0.1827849 -0.21101779 0)
(-0.13181929 -0.21735253 0)
(-0.0795973 -0.22160805 0)
(-0.026616949 -0.22374554 0)
(0.026616949 -0.22374554 0)
(0.0795973 -0.22160805 0)
(0.13181929 -0.21735253 0)
(0.1827849 -0.21101779 0)
(0.23200743 -0.20266168 0)
(0.27901586 -0.19236072 0)
(0.32335917 -0.18020958 0)
(0.36461051 -0.1663204 0)
(0.4023712 -0.15082206 0)
(0.43627458 -0.13385928 0)
(0.46598967 -0.11559161 0)
(0.49122463 -0.096192265 0)
(0.5117299 -0.075846748 0)
(0.5273012 -0.054751321 0)
(0.53778201 -0.033111193 0)
(0.54306573 -0.011138469 0)
(0.54309726 0.010950176 0)
(0.5378741 0.032936086 0)
(0.52744667 0.054601154 0)
(0.51191779 0.075730454 0)
(0.49144141 0.09611524 0)
(0.46622085 0.11555542 0)
(0.43650621 0.13386186 0)
(0.40259118 0.1508584 0)
(0.36480951 0.16638349 0)
(0.32353103 0.18029159 0)
(0.27915758 0.19245407 0)
(0.23211867 0.20275997 0)
(0.18286724 0.21111645 0)
(0.13187529 0.21744905 0)
(0.079629608 0.22170186 0)
(0.026627484 0.22383759 0)
(-0.027832944 0.27804896 0)
(-0.083235497 0.27539908 0)
(-0.13785014 0.27012216 0)
(-0.19115861 0.26226394 0)
(-0.24265318 0.25189301 0)
(-0.29184103 0.23910086 0)
(-0.33824861 0.22400173 0)
(-0.38142618 0.20673239 0)
(-0.42095232 0.18745168 0)
(-0.45643853 0.16633971 0)
(-0.48753369 0.14359677 0)
(-0.51392841 0.1194417 0)
(-0.535359 0.094109831 0)
(-0.55161098 0.067850477 0)
(-0.56252203 0.040923945 0)
(-0.56798404 0.013598264 0)
(-0.56794441 -0.013854426 0)
(-0.56240654 -0.041161383 0)
(-0.55142935 -0.068052634 0)
(-0.53512602 -0.094264195 0)
(-0.5136621 -0.11954096 0)
(-0.4872531 -0.14363926 0)
(-0.45616163 -0.16632898 0)
(-0.42069425 -0.18739551 0)
(-0.38119803 -0.20664129 0)
(-0.33805693 -0.22388722 0)
(-0.29168801 -0.23897387 0)
(-0.24253741 -0.25176252 0)
(-0.19107623 -0.2621361 0)
(-0.13779623 -0.26999998 0)
(-0.083205366 -0.27528258 0)
(-0.027823295 -0.27793593 0)
(0.027823295 -0.27793593 0)
(0.083205366 -0.27528258 0)
(0.13779623 -0.26999998 0)
(0.19107623 -0.2621361 0)
(0.24253741 -0.25176252 0)
(0.29168801 -0.23897387 0)
(0.33805693 -0.22388722 0)
(0.38119803 -0.20664129 0)
(0.42069425 -0.18739551 0)
(0.45616163 -0.16632898 0)
(0.4872531 -0.14363926 0)
(0.5136621 -0.11954096 0)
(0.53512602 -0.094264195 0)
(0.55142935 -0.068052634 0)
(0.56240654 -0.041161383 0)
(0.56794441 -0.013854426 0)
(0.56798404 0.013598264 0)
(0.56252203 0.040923945 0)
(0.55161098 0.067850477 0)
(0.535359 0.094109831 0)
(0.51392841 0.1194417 0)
(0.48753369 0.14359677 0)
(0.45643853 0.16633971 0)
(0.42095232 0.18745168 0)
(0.38142618 0.20673239 0)
(0.33824861 0.22400173 0)
(0.29184103 0.23910086 0)
(0.24265318 0.25189301 0)
(0.19115861 0.26226394 0)
(0.13785014 0.27012216 0)
(0.083235497 0.27539908 0)
(0.027832944 0.27804896 0)
(-0.029295579 0.33491606 0)
(-0.087610858 0.33172899 0)
(-0.14510058 0.3253819 0)
(-0.20122133 0.31592894 0)
(-0.25544024 0.30345148 0)
(-0.30723931 0.28805814 0)
(-0.35612002 0.26988486 0)
(-0.40160795 0.24909474 0)
(-0.44325765 0.22587764 0)
(-0.48065758 0.20044942 0)
(-0.51343507 0.17305074 0)
(-0.54126117 0.14394517 0)
(-0.56385517 0.11341681 0)
(-0.58098868 0.081767094 0)
(-0.59248894 0.049311161 0)
(-0.59824126 0.016373634 0)
(-0.59819046 -0.016715839 0)
(-0.59234123 -0.049627068 0)
(-0.5807575 -0.0820336 0)
(-0.56356083 -0.11361669 0)
(-0.54092816 -0.1440688 0)
(-0.51308895 -0.1730966 0)
(-0.48032196 -0.20042353 0)
(-0.44295178 -0.2257919 0)
(-0.40134514 -0.24896475 0)
(-0.35590706 -0.26972735 0)
(-0.30707684 -0.28788865 0)
(-0.25532401 -0.30328244 0)
(-0.20114392 -0.31576843 0)
(-0.14505342 -0.32523323 0)
(-0.087586167 -0.33159107 0)
(-0.029287987 -0.33478442 0)
(0.029287987 -0.33478442 0)
(0.087586167 -0.33159107 0)
(0.14505342 -0.32523323 0)
(0.20114392 -0.31576843 0)
(0.25532401 -0.30328244 0)
(0.30707684 -0.28788865 0)
(0.35590706 -0.26972735 0)
(0.40134514 -0.24896475 0)
(0.44295178 -0.2257919 0)
(0.48032196 -0.20042353 0)
(0.51308895 -0.1730966 0)
(0.54092816 -0.1440688 0)
(0.56356083 -0.11361669 0)
(0.5807575 -0.0820336 0)
(0.59234123 -0.049627068 0)
(0.59819046 -0.016715839 0)
(0.59824126 0.016373634 0)
(0.59248894 0.049311161 0)
(0.58098868 0.081767094 0)
(0.56385517 0.11341681 0)
(0.54126117 0.14394517 0)
(0.51343507 0.17305074 0)
(0.48065758 0.20044942 0)
(0.44325765 0.22587764 0)
(0.40160795 0.24909474 0)
(0.35612002 0.26988486 0)
(0.30723931 0.28805814 0)
(0.25544024 0.30345148 0)
(0.20122133 0.31592894 0)
(0.14510058 0.3253819 0)
(0.087610858 0.33172899 0)
(0.029295579 0.33491606 0)
(-0.031030054 0.39496623 0)
(-0.092799674 0.3912148 0)
(-0.15369987 0.38374315 0)
(-0.21315788 0.3726138 0)
(-0.2706113 0.35792079 0)
(-0.32551254 0.33978995 0)
(-0.37733342 0.31837911 0)
(-0.42557011 0.29387812 0)
(-0.46974826 0.26650871 0)
(-0.50942845 0.23652378 0)
(-0.54421175 0.2042062 0)
(-0.5737452 0.16986678 0)
(-0.59772719 0.13384142 0)
(-0.61591214 0.096487381 0)
(-0.6281145 0.058178698 0)
(-0.63421163 0.019300963 0)
(-0.63414534 -0.019754283 0)
(-0.62792225 -0.058595177 0)
(-0.61561276 -0.096834873 0)
(-0.597349 -0.13409637 0)
(-0.57332204 -0.17001667 0)
(-0.54377841 -0.20425025 0)
(-0.50901647 -0.23647187 0)
(-0.46938248 -0.26637895 0)
(-0.42526659 -0.2936935 0)
(-0.37709882 -0.3181638 0)
(-0.32534485 -0.33956592 0)
(-0.27050177 -0.35770508 0)
(-0.21309364 -0.37241685 0)
(-0.15366689 -0.38356831 0)
(-0.092785553 -0.39105887 0)
(-0.031026343 -0.39482108 0)
(0.031026343 -0.39482108 0)
(0.092785553 -0.39105887 0)
(0.15366689 -0.38356831 0)
(0.21309364 -0.37241685 0)
(0.27050177 -0.35770508 0)
(0.32534485 -0.33956592 0)
(0.37709882 -0.3181638 0)
(0.42526659 -0.2936935 0)
(0.46938248 -0.26637895 0)
(0.50901647 -0.23647187 0)
(0.54377841 -0.20425025 0)
(0.57332204 -0.17001667 0)
(0.597349 -0.13409637 0)
(0.61561276 -0.096834873 0)
(0.62792225 -0.058595177 0)
(0.63414534 -0.019754283 0)
(0.63421163 0.019300963 0)
(0.6281145 0.058178698 0)
(0.61591214 0.096487381 0)
(0.59772719 0.13384142 0)
(0.5737452 0.16986678 0)
(0.54421175 0.2042062 0)
(0.50942845 0.23652378 0)
(0.46974826 0.26650871 0)
(0.42557011 0.29387812 0)
(0.37733342 0.31837911 0)
(0.32551254 0.33978995 0)
(0.2706113 0.35792079 0)
(0.21315788 0.3726138 0)
(0.15369987 0.38374315 0)
(0.092799674 0.3912148 0)
(0.031030054 0.39496623 0)
(-0.033052319 0.45875738 0)
(-0.098849819 0.45441028 0)
(-0.16372787 0.44575134 0)
(-0.22708011 0.43285127 0)
(-0.28831025 0.41581659 0)
(-0.34683644 0.39479019 0)
(-0.40209601 0.36995174 0)
(-0.45355055 0.3415182 0)
(-0.5006915 0.30974386 0)
(-0.54304612 0.27491998 0)
(-0.58018376 0.2373737 0)
(-0.61172237 0.19746592 0)
(-0.63733477 0.15558809 0)
(-0.65675441 0.11215777 0)
(-0.66978017 0.067612994 0)
(-0.67627985 0.02240577 0)
(-0.67619199 -0.023004979 0)
(-0.66952599 -0.068160478 0)
(-0.65636065 -0.11260873 0)
(-0.63684142 -0.15591034 0)
(-0.61117673 -0.19764336 0)
(-0.57963386 -0.23740715 0)
(-0.54253457 -0.27482544 0)
(-0.50025073 -0.30954873 0)
(-0.4532 -0.34125628 0)
(-0.40184152 -0.36965784 0)
(-0.34667163 -0.39449523 0)
(-0.28821942 -0.41554386 0)
(-0.22704219 -0.43261412 0)
(-0.16372069 -0.44555259 0)
(-0.098854192 -0.4542432 0)
(-0.033055297 -0.45860806 0)
(0.033055297 -0.45860806 0)
(0.098854192 -0.4542432 0)
(0.16372069 -0.44555259 0)
(0.22704219 -0.43261412 0)
(0.28821942 -0.41554386 0)
(0.34667163 -0.39449523 0)
(0.40184152 -0.36965784 0)
(0.4532 -0.34125628 0)
(0.50025073 -0.30954873 0)
(0.54253457 -0.27482544 0)
(0.57963386 -0.23740715 0)
(0.61117673 -0.19764336 0)
(0.63684142 -0.15591034 0)
(0.65636065 -0.11260873 0)
(0.66952599 -0.068160478 0)
(0.67619199 -0.023004979 0)
(0.67627985 0.02240577 0)
(0.66978017 0.067612994 0)
(0.65675441 0.11215777 0)
(0.63733477 0.15558809 0)
(0.61172237 0.19746592 0)
(0.58018376 0.2373737 0)
(0.54304612 0.27491998 0)
(0.5006915 0.30974386 0)
(0.45355055 0.3415182 0)
(0.40209601 0.36995174 0)
(0.34683644 0.39479019 0)
(0.28831025 0.41581659 0)
(0.22708011 0.43285127 0)
(0.16372787 0.44575134 0)
(0.098849819 0.45441028 0)
(0.033052319 0.45875738 0)
(-0.035379847 0.52688082 0)
(-0.10581377 0.52190267 0)
(-0.17527223 0.51198549 0)
(-0.2431111 0.49720783 0)
(-0.30869579 0.47768829 0)
(-0.37140549 0.4535863 0)
(-0.43063791 0.42510314 0)
(-0.48581456 0.3924828 0)
(-0.53638673 0.35601266 0)
(-0.58184213 0.31602357 0)
(-0.62171216 0.27288909 0)
(-0.65557953 0.22702347 0)
(-0.68308595 0.17887812 0)
(-0.70393925 0.1289364 0)
(-0.71791942 0.077706679 0)
(-0.72488291 0.025714214 0)
(-0.72476478 -0.026507831 0)
(-0.71757857 -0.078427316 0)
(-0.70341407 -0.12952135 0)
(-0.68243348 -0.1792833 0)
(-0.65486662 -0.22722833 0)
(-0.62100576 -0.27289758 0)
(-0.58120039 -0.31586123 0)
(-0.53585232 -0.35572079 0)
(-0.485411 -0.39211097 0)
(-0.43036905 -0.42470138 0)
(-0.37125786 -0.45319811 0)
(-0.30864309 -0.47734538 0)
(-0.24312004 -0.4969271 0)
(-0.17530872 -0.51176834 0)
(-0.10584871 -0.52173666 0)
(-0.035393771 -0.52674315 0)
(0.035393771 -0.52674315 0)
(0.10584871 -0.52173666 0)
(0.17530872 -0.51176834 0)
(0.24312004 -0.4969271 0)
(0.30864309 -0.47734538 0)
(0.37125786 -0.45319811 0)
(0.43036905 -0.42470138 0)
(0.485411 -0.39211097 0)
(0.53585232 -0.35572079 0)
(0.58120039 -0.31586123 0)
(0.62100576 -0.27289758 0)
(0.65486662 -0.22722833 0)
(0.68243348 -0.1792833 0)
(0.70341407 -0.12952135 0)
(0.71757857 -0.078427316 0)
(0.72476478 -0.026507831 0)
(0.72488291 0.025714214 0)
(0.71791942 0.077706679 0)
(0.70393925 0.1289364 0)
(0.68308595 0.17887812 0)
(0.65557953 0.22702347 0)
(0.62171216 0.27288909 0)
(0.58184213 0.31602357 0)
(0.53638673 0.35601266 0)
(0.48581456 0.3924828 0)
(0.43063791 0.42510314 0)
(0.37140549 0.4535863 0)
(0.30869579 0.47768829 0)
(0.2431111 0.49720783 0)
(0.17527223 0.51198549 0)
(0.10581377 0.52190267 0)
(0.035379847 0.52688082 0)
(-0.038031772 0.59996446 0)
(-0.11374905 0.59431597 0)
(-0.18842916 0.58306167 0)
(-0.26138626 0.56628739 0)
(-0.3319431 0.544123 0)
(-0.39943516 0.51674367 0)
(-0.46321518 0.48437144 0)
(-0.52265865 0.44727685 0)
(-0.57717011 0.40578041 0)
(-0.62619061 0.36025349 0)
(-0.66920611 0.31111822 0)
(-0.7057567 0.25884582 0)
(-0.7354461 0.20395285 0)
(-0.75795078 0.14699516 0)
(-0.77302771 0.088559417 0)
(-0.78051993 0.029252724 0)
(-0.78035906 -0.030308902 0)
(-0.77256477 -0.089511954 0)
(-0.75724138 -0.14775576 0)
(-0.73457239 -0.20446088 0)
(-0.70481401 -0.2590753 0)
(-0.66828855 -0.31107874 0)
(-0.62537815 -0.35998537 0)
(-0.57651923 -0.40534572 0)
(-0.52219757 -0.44674824 0)
(-0.4629437 -0.48382072 0)
(-0.3993286 -0.51623191 0)
(-0.33195918 -0.54369329 0)
(-0.26147363 -0.56596085 0)
(-0.18853638 -0.58283687 0)
(-0.11383269 -0.59417151 0)
(-0.038063018 -0.59986412 0)
(0.038063018 -0.59986412 0)
(0.11383269 -0.59417151 0)
(0.18853638 -0.58283687 0)
(0.26147363 -0.56596085 0)
(0.33195918 -0.54369329 0)
(0.3993286 -0.51623191 0)
(0.4629437 -0.48382072 0)
(0.52219757 -0.44674824 0)
(0.57651923 -0.40534572 0)
(0.62537815 -0.35998537 0)
(0.66828855 -0.31107874 0)
(0.70481401 -0.2590753 0)
(0.73457239 -0.20446088 0)
(0.75724138 -0.14775576 0)
(0.77256477 -0.089511954 0)
(0.78035906 -0.030308902 0)
(0.78051993 0.029252724 0)
(0.77302771 0.088559417 0)
(0.75795078 0.14699516 0)
(0.7354461 0.20395285 0)
(0.7057567 0.25884582 0)
(0.66920611 0.31111822 0)
(0.62619061 0.36025349 0)
(0.57717011 0.40578041 0)
(0.52265865 0.44727685 0)
(0.46321518 0.48437144 0)
(0.39943516 0.51674367 0)
(0.3319431 0.544123 0)
(0.26138626 0.56628739 0)
(0.18842916 0.58306167 0)
(0.11374905 0.59431597 0)
(0.038031772 0.59996446 0)
(-0.04102892 0.67867628 0)
(-0.1227183 0.67231452 0)
(-0.20330368 0.65963681 0)
(-0.28205374 0.64073538 0)
(-0.35824453 0.61575017 0)
(-0.43116304 0.58487062 0)
(-0.5001116 0.54833806 0)
(-0.56441326 0.50644829 0)
(-0.62341846 0.45955428 0)
(-0.67651329 0.40806827 0)
(-0.72312932 0.35246286 0)
(-0.76275482 0.29327007 0)
(-0.79494687 0.23107767 0)
(-0.81934322 0.16652229 0)
(-0.83567261 0.10027887 0)
(-0.84376214 0.033047331 0)
(-0.84354045 -0.034462472 0)
(-0.8350364 -0.10154572 0)
(-0.81837382 -0.16751568 0)
(-0.79376358 -0.23171382 0)
(-0.76149464 -0.29351652 0)
(-0.72192545 -0.35233899 0)
(-0.67547636 -0.40763729 0)
(-0.62262345 -0.45890932 0)
(-0.56389345 -0.50569566 0)
(-0.49985931 -0.54758068 0)
(-0.4311361 -0.58419407 0)
(-0.35837673 -0.6152128 0)
(-0.28226731 -0.64036323 0)
(-0.20352204 -0.6594233 0)
(-0.12287757 -0.67222453 0)
(-0.041086913 -0.67865362 0)
(0.041086913 -0.67865362 0)
(0.12287757 -0.67222453 0)
(0.20352204 -0.6594233 0)
(0.28226731 -0.64036323 0)
(0.35837673 -0.6152128 0)
(0.4311361 -0.58419407 0)
(0.49985931 -0.54758068 0)
(0.56389345 -0.50569566 0)
(0.62262345 -0.45890932 0)
(0.67547636 -0.40763729 0)
(0.72192545 -0.35233899 0)
(0.76149464 -0.29351652 0)
(0.79376358 -0.23171382 0)
(0.81837382 -0.16751568 0)
(0.8350364 -0.10154572 0)
(0.84354045 -0.034462472 0)
(0.84376214 0.033047331 0)
(0.83567261 0.10027887 0)
(0.81934322 0.16652229 0)
(0.79494687 0.23107767 0)
(0.76275482 0.29327007 0)
(0.72312932 0.35246286 0)
(0.67651329 0.40806827 0)
(0.62341846 0.45955428 0)
(0.56441326 0.50644829 0)
(0.5001116 0.54833806 0)
(0.43116304 0.58487062 0)
(0.35824453 0.61575017 0)
(0.28205374 0.64073538 0)
(0.20330368 0.65963681 0)
(0.1227183 0.67231452 0)
(0.04102892 0.67867628 0)
(-0.044393706 0.76372771 0)
(-0.13278904 0.75660654 0)
(-0.22000914 0.74241251 0)
(-0.30527402 0.72124304 0)
(-0.38780923 0.69324636 0)
(-0.46684881 0.65862397 0)
(-0.54163918 0.61763398 0)
(-0.61144415 0.57059509 0)
(-0.67555183 0.51789084 0)
(-0.73328366 0.45997373 0)
(-0.78400585 0.39736808 0)
(-0.82714333 0.33067057 0)
(-0.86219527 0.26054723 0)
(-0.88875102 0.1877256 0)
(-0.90650425 0.1129817 0)
(-0.9152631 0.037122553 0)
(-0.91495424 -0.039034003 0)
(-0.90562042 -0.11467926 0)
(-0.88741216 -0.18903054 0)
(-0.86057602 -0.26134326 0)
(-0.82544197 -0.33091788 0)
(-0.78241198 -0.39710272 0)
(-0.73195092 -0.45929434 0)
(-0.67457978 -0.51693693 0)
(-0.61087082 -0.56952202 0)
(-0.54144373 -0.61658903 0)
(-0.46696207 -0.65772673 0)
(-0.38812943 -0.69257549 0)
(-0.30568497 -0.72082998 0)
(-0.22039828 -0.74224189 0)
(-0.13306337 -0.75662249 0)
(-0.044492224 -0.76384475 0)
(0.044492224 -0.76384475 0)
(0.13306337 -0.75662249 0)
(0.22039828 -0.74224189 0)
(0.30568497 -0.72082998 0)
(0.38812943 -0.69257549 0)
(0.46696207 -0.65772673 0)
(0.54144373 -0.61658903 0)
(0.61087082 -0.56952202 0)
(0.67457978 -0.51693693 0)
(0.73195092 -0.45929434 0)
(0.78241198 -0.39710272 0)
(0.82544197 -0.33091788 0)
(0.86057602 -0.26134326 0)
(0.88741216 -0.18903054 0)
(0.90562042 -0.11467926 0)
(0.91495424 -0.039034003 0)
(0.9152631 0.037122553 0)
(0.90650425 0.1129817 0)
(0.88875102 0.1877256 0)
(0.86219527 0.26054723 0)
(0.82714333 0.33067057 0)
(0.78400585 0.39736808 0)
(0.73328366 0.45997373 0)
(0.67555183 0.51789084 0)
(0.61144415 0.57059509 0)
(0.54163918 0.61763398 0)
(0.46684881 0.65862397 0)
(0.38780923 0.69324636 0)
(0.30527402 0.72124304 0)
(0.22000914 0.74241251 0)
(0.13278904 0.75660654 0)
(0.044393706 0.76372771 0)
(-0.048149898 0.85587669 0)
(-0.14403292 0.84794736 0)
(-0.23866616 0.83213868 0)
(-0.33121839 0.80855162 0)
(-0.42086153 0.77734024 0)
(-0.50677269 0.73871489 0)
(-0.58813701 0.69294669 0)
(-0.66415208 0.64037321 0)
(-0.73403456 0.581405 0)
(-0.79702981 0.51653245 0)
(-0.85242525 0.4463316 0)
(-0.89956756 0.37146738 0)
(-0.93788312 0.29269197 0)
(-0.96689978 0.21083649 0)
(-0.98626687 0.12679468 0)
(-0.99576967 0.041499546 0)
(-0.995335 -0.044104388 0)
(-0.98502671 -0.12908843 0)
(-0.96503254 -0.21256204 0)
(-0.93564638 -0.29368724 0)
(-0.89725005 -0.37168505 0)
(-0.8502981 -0.44583584 0)
(-0.79530686 -0.51547666 0)
(-0.73284749 -0.57999801 0)
(-0.66354201 -0.63884179 0)
(-0.58806067 -0.69150103 0)
(-0.50711951 -0.73752148 0)
(-0.42147734 -0.7765044 0)
(-0.33193157 -0.80811011 0)
(-0.23931299 -0.83206165 0)
(-0.14447947 -0.84814803 0)
(-0.048308848 -0.85622702 0)
(0.048308848 -0.85622702 0)
(0.14447947 -0.84814803 0)
(0.23931299 -0.83206165 0)
(0.33193157 -0.80811011 0)
(0.42147734 -0.7765044 0)
(0.50711951 -0.73752148 0)
(0.58806067 -0.69150103 0)
(0.66354201 -0.63884179 0)
(0.73284749 -0.57999801 0)
(0.79530686 -0.51547666 0)
(0.8502981 -0.44583584 0)
(0.89725005 -0.37168505 0)
(0.93564638 -0.29368724 0)
(0.96503254 -0.21256204 0)
(0.98502671 -0.12908843 0)
(0.995335 -0.044104388 0)
(0.99576967 0.041499546 0)
(0.98626687 0.12679468 0)
(0.96689978 0.21083649 0)
(0.93788312 0.29269197 0)
(0.89956756 0.37146738 0)
(0.85242525 0.4463316 0)
(0.79702981 0.51653245 0)
(0.73403456 0.581405 0)
(0.66415208 0.64037321 0)
(0.58813701 0.69294669 0)
(0.50677269 0.73871489 0)
(0.42086153 0.77734024 0)
(0.33121839 0.80855162 0)
(0.23866616 0.83213868 0)
(0.14403292 0.84794736 0)
(0.048149898 0.85587669 0)
(-0.052322173 0.95593011 0)
(-0.15652443 0.94714206 0)
(-0.25940042 0.92961658 0)
(-0.36006603 0.90345612 0)
(-0.45763741 0.86881731 0)
(-0.55123151 0.82591495 0)
(-0.63996749 0.7750277 0)
(-0.72296973 0.71650582 0)
(-0.79937355 0.65078066 0)
(-0.86833496 0.57837544 0)
(-0.92904581 0.49991575 0)
(-0.98075516 0.41613717 0)
(-1.0227964 0.32788683 0)
(-1.0546177 0.2361152 0)
(-1.0758109 0.14185578 0)
(-1.0861335 0.046193173 0)
(-1.0855161 -0.0497761 0)
(-1.0740549 -0.14498233 0)
(-1.0519905 -0.23841283 0)
(-1.0196808 -0.32912898 0)
(-0.97757386 -0.41627064 0)
(-0.92618779 -0.49905173 0)
(-0.86609784 -0.57675221 0)
(-0.79793013 -0.64871059 0)
(-0.7223597 -0.71431934 0)
(-0.64011024 -0.77302378 0)
(-0.55195359 -0.82432407 0)
(-0.4587079 -0.86777915 0)
(-0.36123404 -0.90301155 0)
(-0.2604302 -0.92971243 0)
(-0.15722509 -0.94764595 0)
(-0.052569991 -0.95665284 0)
(0.052569991 -0.95665284 0)
(0.15722509 -0.94764595 0)
(0.2604302 -0.92971243 0)
(0.36123404 -0.90301155 0)
(0.4587079 -0.86777915 0)
(0.55195359 -0.82432407 0)
(0.64011024 -0.77302378 0)
(0.7223597 -0.71431934 0)
(0.79793013 -0.64871059 0)
(0.86609784 -0.57675221 0)
(0.92618779 -0.49905173 0)
(0.97757386 -0.41627064 0)
(1.0196808 -0.32912898 0)
(1.0519905 -0.23841283 0)
(1.0740549 -0.14498233 0)
(1.0855161 -0.0497761 0)
(1.0861335 0.046193173 0)
(1.0758109 0.14185578 0)
(1.0546177 0.2361152 0)
(1.0227964 0.32788683 0)
(0.98075516 0.41613717 0)
(0.92904581 0.49991575 0)
(0.86833496 0.57837544 0)
(0.79937355 0.65078066 0)
(0.72296973 0.71650582 0)
(0.63996749 0.7750277 0)
(0.55123151 0.82591495 0)
(0.45763741 0.86881731 0)
(0.36006603 0.90345612 0)
(0.25940042 0.92961658 0)
(0.15652443 0.94714206 0)
(0.052322173 0.95593011 0)
(-0.056935368 1.0647451 0)
(-0.17033863 1.055047 0)
(-0.28233888 1.0357009 0)
(-0.39199879 1.0068081 0)
(-0.49837784 0.96852386 0)
(-0.60053104 0.92106171 0)
(-0.69750802 0.8647003 0)
(-0.78835364 0.79979341 0)
(-0.87211157 0.72678324 0)
(-0.94783312 0.64621667 0)
(-1.0145938 0.55876271 0)
(-1.0715194 0.46522771 0)
(-1.1178225 0.36656282 0)
(-1.1528457 0.26385769 0)
(-1.1761046 0.15831528 0)
(-1.1873215 0.051207465 0)
(-1.1864372 -0.056182115 0)
(-1.173598 -0.16261463 0)
(-1.1491212 -0.26693808 0)
(-1.1134521 -0.36810712 0)
(-1.0671248 -0.46518247 0)
(-1.0107341 -0.55731755 0)
(-0.94492159 -0.64374151 0)
(-0.87037179 -0.72374505 0)
(-0.78781419 -0.79667249 0)
(-0.69802717 -0.86192002 0)
(-0.60184048 -0.91893881 0)
(-0.50013528 -0.967241 0)
(-0.39384104 -1.0064067 0)
(-0.28392994 -1.0360911 0)
(-0.17140925 -1.0560298 0)
(-0.057312166 -1.0660442 0)
(0.057312166 -1.0660442 0)
(0.17140925 -1.0560298 0)
(0.28392994 -1.0360911 0)
(0.39384104 -1.0064067 0)
(0.50013528 -0.967241 0)
(0.60184048 -0.91893881 0)
(0.69802717 -0.86192002 0)
(0.78781419 -0.79667249 0)
(0.87037179 -0.72374505 0)
(0.94492159 -0.64374151 0)
(1.0107341 -0.55731755 0)
(1.0671248 -0.46518247 0)
(1.1134521 -0.36810712 0)
(1.1491212 -0.26693808 0)
(1.173598 -0.16261463 0)
(1.1864372 -0.056182115 0)
(1.1873215 0.051207465 0)
(1.1761046 0.15831528 0)
(1.1528457 0.26385769 0)
(1.1178225 0.36656282 0)
(1.0715194 0.46522771 0)
(1.0145938 0.55876271 0)
(0.94783312 0.64621667 0)
(0.87211157 0.72678324 0)
(0.78835364 0.79979341 0)
(0.69750802 0.8647003 0)
(0.60053104 0.92106171 0)
(0.49837784 0.96852386 0)
(0.39199879 1.0068081 0)
(0.28233888 1.0357009 0)
(0.17033863 1.055047 0)
(0.056935368 1.0647451 0)
(-0.062013159 1.1832287 0)
(-0.18554717 1.1725696 0)
(-0.30760313 1.1512996 0)
(-0.42719165 1.1195165 0)
(-0.54331659 1.0773693 0)
(-0.6549713 1.0250631 0)
(-0.76113448 0.96286671 0)
(-0.86076675 0.89112439 0)
(-0.95281022 0.81027404 0)
(-1.0361944 0.72087061 0)
(-1.1098526 0.62361411 0)
(-1.1727538 0.51937697 0)
(-1.2239506 0.40922273 0)
(-1.2626421 0.294405 0)
(-1.2882398 0.17633702 0)
(-1.3004204 0.056528771 0)
(-1.2991451 -0.063498758 0)
(-1.2846381 -0.18229916 0)
(-1.2573296 -0.29856074 0)
(-1.217787 -0.41112849 0)
(-1.1666564 -0.51899286 0)
(-1.1046249 -0.62126033 0)
(-1.0324069 -0.7171214 0)
(-0.95074581 -0.80582674 0)
(-0.86042401 -0.88667491 0)
(-0.76227311 -0.9590109 0)
(-0.65718132 -1.022232 0)
(-0.54609563 -1.0757971 0)
(-0.43001932 -1.1192378 0)
(-0.31000574 -1.1521671 0)
(-0.18714928 -1.174288 0)
(-0.062574691 -1.1853993 0)
(0.062574691 -1.1853993 0)
(0.18714928 -1.174288 0)
(0.31000574 -1.1521671 0)
(0.43001932 -1.1192378 0)
(0.54609563 -1.0757971 0)
(0.65718132 -1.022232 0)
(0.76227311 -0.9590109 0)
(0.86042401 -0.88667491 0)
(0.95074581 -0.80582674 0)
(1.0324069 -0.7171214 0)
(1.1046249 -0.62126033 0)
(1.1666564 -0.51899286 0)
(1.217787 -0.41112849 0)
(1.2573296 -0.29856074 0)
(1.2846381 -0.18229916 0)
(1.2991451 -0.063498758 0)
(1.3004204 0.056528771 0)