/*--------------------------------*- C++ -*----------------------------------*\
| =========                 |                                                 |
| \\      /  F ield         | OpenFOAM: The Open Source CFD Toolbox           |
|  \\    /   O peration     | Version:  2106                                  |
|   \\  /    A nd           | Website:  www.openfoam.com                      |
|    \\/     M anipulation  |                                                 |
\*---------------------------------------------------------------------------*/
FoamFile
{
    version     2.0;
    format      ascii;
    arch        "LSB;label=32;scalar=64";
    class       surfaceScalarField;
    location    "0.25";
    object      phi_0;
}
// * * * * * * * * * * * * * * * * * * * * * * * * * * * * * * * * * * * * * //

dimensions      [0 3 -1 0 0 0 0];

oriented        oriented;

internalField   nonuniform List<scalar> 
65152
(
-3.0049709e-09
3.0049709e-09
1.5505766e-08
-1.8510737e-08
4.6096967e-08
-3.0591201e-08
8.351252e-08
-3.7415553e-08
1.2427078e-07
-4.075826e-08
1.6673978e-07
-4.2469001e-08
2.0996976e-07
-4.3229977e-08
2.5347904e-07
-4.3509282e-08
2.9705146e-07
-4.3572418e-08
3.4049786e-07
-4.3446405e-08
3.8372191e-07
-4.3224044e-08
4.2661007e-07
-4.2888167e-08
4.6910402e-07
-4.2493945e-08
5.1149948e-07
-4.2395459e-08
5.5266823e-07
-4.1168749e-08
5.9546737e-07
-4.2799148e-08
6.3451009e-07
-3.9042714e-08
6.7807973e-07
-4.3569639e-08
7.1651946e-07
-3.8439736e-08
7.5778998e-07
-4.1270522e-08
7.9947146e-07
-4.1681478e-08
8.3737947e-07
-3.7908008e-08
8.7895121e-07
-4.157174e-08
9.1946455e-07
-4.051334e-08
9.5842401e-07
-3.8959461e-08
9.9888004e-07
-4.0456029e-08
1.0390738e-06
-4.0193741e-08
1.0794207e-06
-4.0346954e-08
1.1192014e-06
-3.9780702e-08
1.1594134e-06
-4.0211977e-08
1.1989213e-06
-3.9507926e-08
1.240428e-06
-4.150671e-08
1.2804866e-06
-4.0058545e-08
1.3198657e-06
-3.9379136e-08
1.3600415e-06
-4.0175803e-08
1.4007571e-06
-4.0715537e-08
1.4413938e-06
-4.0636739e-08
1.4815805e-06
-4.0186715e-08
1.5212856e-06
-3.9705123e-08
1.5599886e-06
-3.8702935e-08
1.6011164e-06
-4.1127827e-08
1.6418545e-06
-4.0738117e-08
1.6815412e-06
-3.968665e-08
1.720244e-06
-3.8702782e-08
1.7584869e-06
-3.824294e-08
1.7990392e-06
-4.0552301e-08
1.8383758e-06
-3.933656e-08
1.8771e-06
-3.8724215e-08
1.9164588e-06
-3.9358829e-08
1.9543586e-06
-3.7899838e-08
1.9920002e-06
-3.7641551e-08
2.0297924e-06
-3.7792218e-08
2.0675689e-06
-3.7776539e-08
2.1061723e-06
-3.8603327e-08
2.1445395e-06
-3.8367197e-08
2.1810746e-06
-3.65351e-08
2.2166595e-06
-3.5584946e-08
2.2529616e-06
-3.6302058e-08
2.2895496e-06
-3.6588067e-08
2.3257817e-06
-3.6232042e-08
2.3625014e-06
-3.6719766e-08
2.3988146e-06
-3.6313126e-08
2.4344715e-06
-3.5656891e-08
2.4692877e-06
-3.4816232e-08
2.502044e-06
-3.2756324e-08
2.5358121e-06
-3.3768113e-08
2.5722895e-06
-3.6477369e-08
2.608474e-06
-3.6184539e-08
2.6425798e-06
-3.4105756e-08
2.6753778e-06
-3.2798014e-08
2.7079329e-06
-3.255504e-08
2.7418442e-06
-3.3911389e-08
2.776435e-06
-3.4590783e-08
2.8089598e-06
-3.2524819e-08
2.8401681e-06
-3.1208246e-08
2.8729088e-06
-3.2740741e-08
2.9071994e-06
-3.429056e-08
2.9410305e-06
-3.3831119e-08
2.9737081e-06
-3.2677577e-08
3.0046117e-06
-3.0903625e-08
3.0347831e-06
-3.0171365e-08
3.0662274e-06
-3.1444282e-08
3.0984528e-06
-3.2225407e-08
3.1300638e-06
-3.1611071e-08
3.16186e-06
-3.179621e-08
3.1940212e-06
-3.2161171e-08
3.2247633e-06
-3.0742088e-08
3.2555934e-06
-3.083012e-08
3.287076e-06
-3.1482554e-08
3.317041e-06
-2.9965022e-08
3.3464907e-06
-2.9449724e-08
3.376499e-06
-3.0008279e-08
3.4067898e-06
-3.0290763e-08
3.4376629e-06
-3.0873167e-08
3.4692338e-06
-3.1570874e-08
3.5003793e-06
-3.1145462e-08
3.5301697e-06
-2.9790456e-08
3.5583377e-06
-2.8167979e-08
3.5866707e-06
-2.8332964e-08
3.6177391e-06
-3.1068433e-08
3.6492461e-06
-3.1506967e-08
3.6784936e-06
-2.9247552e-08
3.70723e-06
-2.8736388e-08
3.7359699e-06
-2.8739843e-08
3.7641055e-06
-2.8135626e-08
3.7933247e-06
-2.9219254e-08
3.8241691e-06
-3.0844378e-08
3.8544092e-06
-3.0240076e-08
3.8836894e-06
-2.9280185e-08
3.9121207e-06
-2.8431352e-08
3.9394955e-06
-2.7374786e-08
3.9674081e-06
-2.7912631e-08
3.9966546e-06
-2.9246466e-08
4.0262174e-06
-2.9562814e-08
4.0554026e-06
-2.9185147e-08
4.0838146e-06
-2.841206e-08
4.110847e-06
-2.7032405e-08
4.1372914e-06
-2.6444414e-08
4.1649203e-06
-2.7628837e-08
4.1939761e-06
-2.90558e-08
4.2230549e-06
-2.9078842e-08
4.2522709e-06
-2.9215993e-08
4.2814449e-06
-2.9174007e-08
4.3085809e-06
-2.7136017e-08
4.3341893e-06
-2.5608321e-08
4.3606714e-06
-2.6482115e-08
4.3876378e-06
-2.6966457e-08
4.4144233e-06
-2.6785475e-08
4.4424121e-06
-2.7988752e-08
4.4711583e-06
-2.8746271e-08
4.4989237e-06
-2.7765361e-08
4.5257017e-06
-2.6777964e-08
4.552055e-06
-2.6353373e-08
4.57819e-06
-2.6134957e-08
4.604229e-06
-2.6038964e-08
4.6311651e-06
-2.6936168e-08
4.658414e-06
-2.7248855e-08
4.6851939e-06
-2.6779903e-08
4.7115531e-06
-2.6359245e-08
4.7374708e-06
-2.5917666e-08
4.7627788e-06
-2.5307975e-08
4.7876071e-06
-2.4828334e-08
4.8131653e-06
-2.5558159e-08
4.8397429e-06
-2.6577636e-08
4.8658134e-06
-2.6070554e-08
4.8910182e-06
-2.5204728e-08
4.9157871e-06
-2.4768913e-08
4.9405078e-06
-2.4720688e-08
4.9650633e-06
-2.4555526e-08
4.9895892e-06
-2.4525946e-08
5.015496e-06
-2.5906702e-08
5.0421914e-06
-2.669548e-08
5.0675671e-06
-2.5375625e-08
5.0920363e-06
-2.4469278e-08
5.1166799e-06
-2.4643551e-08
5.1406035e-06
-2.3923599e-08
5.1635607e-06
-2.2957212e-08
5.1864621e-06
-2.2901383e-08
5.2095278e-06
-2.3065716e-08
5.2332243e-06
-2.3696532e-08
5.2575951e-06
-2.4370731e-08
5.2825966e-06
-2.5001508e-08
5.3077063e-06
-2.5109743e-08
5.3323042e-06
-2.4597911e-08
5.3558536e-06
-2.3549397e-08
5.3784437e-06
-2.2590046e-08
5.4004908e-06
-2.2047148e-08
5.4230784e-06
-2.2587578e-08
5.4463771e-06
-2.3298748e-08
5.4701509e-06
-2.3773784e-08
5.4946727e-06
-2.4521755e-08
5.5192664e-06
-2.4593752e-08
5.5427668e-06
-2.3500379e-08
5.5652323e-06
-2.24655e-08
5.5869873e-06
-2.175503e-08
5.6080437e-06
-2.1056369e-08
5.6286133e-06
-2.0569622e-08
5.6498374e-06
-2.1224065e-08
5.672699e-06
-2.2861628e-08
5.6969234e-06
-2.4224366e-08
5.7211361e-06
-2.4212699e-08
5.744797e-06
-2.3660944e-08
5.7675235e-06
-2.27265e-08
5.7893887e-06
-2.1865161e-08
5.8104563e-06
-2.1067615e-08
5.8308721e-06
-2.0415801e-08
5.8515578e-06
-2.0685713e-08
5.8728705e-06
-2.1312632e-08
5.8954459e-06
-2.2575421e-08
5.9180283e-06
-2.2582424e-08
5.9416238e-06
-2.3595548e-08
5.9639492e-06
-2.2325338e-08
5.9853297e-06
-2.138051e-08
6.0056511e-06
-2.0321426e-08
6.025997e-06
-2.0345908e-08
6.0466596e-06
-2.0662547e-08
6.0663518e-06
-1.9692238e-08
6.0866733e-06
-2.0321519e-08
6.1067374e-06
-2.0064098e-08
6.1272695e-06
-2.0532045e-08
6.1475507e-06
-2.0281234e-08
6.1671981e-06
-1.9647433e-08
6.1870844e-06
-1.9886242e-08
6.205836e-06
-1.8751641e-08
6.2256899e-06
-1.985392e-08
6.2439067e-06
-1.8216732e-08
6.2632697e-06
-1.9362976e-08
6.2806988e-06
-1.7429181e-08
6.2984982e-06
-1.779936e-08
6.3150598e-06
-1.6561642e-08
6.3314527e-06
-1.6392905e-08
6.3464082e-06
-1.4955426e-08
6.3604291e-06
-1.4020884e-08
6.3721435e-06
-1.171442e-08
6.3810072e-06
-8.8637683e-09
6.3886047e-06
-7.597435e-09
6.3926894e-06
-4.0846947e-09
6.395056e-06
-2.3665965e-09
6.3936314e-06
1.4245956e-09
6.3874725e-06
6.1588258e-09
6.3762419e-06
1.1230628e-08
6.3565814e-06
1.9660542e-08
6.3296157e-06
2.6965684e-08
6.2919215e-06
3.7694194e-08
6.2435783e-06
4.834323e-08
6.1846054e-06
5.8972825e-08
6.1063766e-06
7.8228825e-08
6.0119118e-06
9.4464803e-08
5.8968152e-06
1.1509661e-07
5.7503337e-06
1.464815e-07
5.5792935e-06
1.7104016e-07
5.3685137e-06
2.1077979e-07
5.1126337e-06
2.5588009e-07
4.8162265e-06
2.9640712e-07
4.4481335e-06
3.6809308e-07
4.0216073e-06
4.2652612e-07
3.5095903e-06
5.1201704e-07
2.9057196e-06
6.038707e-07
2.2118061e-06
6.9391347e-07
1.4250235e-06
7.8678262e-07
6.1043214e-07
8.1459136e-07
-1.3635718e-07
7.4678932e-07
-6.9732509e-07
5.6096791e-07
-1.033471e-06
3.3614595e-07
-1.1899304e-06
1.5645936e-07
-1.3537413e-06
1.638109e-07
-1.7508566e-06
3.971153e-07
-2.4064551e-06
6.5559852e-07
-3.1171402e-06
7.1068511e-07
-3.742309e-06
6.2516873e-07
-4.1843952e-06
4.4208627e-07
-4.1438093e-06
-4.0585901e-08
-3.5380783e-06
-6.05731e-07
-2.7213095e-06
-8.1676883e-07
-1.553769e-06
-1.1675405e-06
-1.553769e-06
-3.081481e-09
6.086452e-09
2.0586183e-08
-4.2178401e-08
5.8352148e-08
-6.8357167e-08
1.0273455e-07
-8.1797957e-08
1.5059249e-07
-8.8616201e-08
2.0006989e-07
-9.1946397e-08
2.5024128e-07
-9.3401372e-08
3.0057358e-07
-9.3841579e-08
3.5061879e-07
-9.3617627e-08
4.0019676e-07
-9.3024378e-08
4.4925017e-07
-9.2277449e-08
4.97956e-07
-9.1593995e-08
5.4594312e-07
-9.0481071e-08
5.940601e-07
-9.0512437e-08
6.4063311e-07
-8.7741756e-08
6.8906286e-07
-9.1228893e-08
7.335693e-07
-8.3549162e-08
7.8271187e-07
-9.2712203e-08
8.2661098e-07
-8.2338848e-08
8.7331919e-07
-8.7978732e-08
9.2069268e-07
-8.9054969e-08
9.6397895e-07
-8.1194272e-08
1.0108399e-06
-8.8432741e-08
1.057181e-06
-8.6854392e-08
1.1023018e-06
-8.408027e-08
1.1467258e-06
-8.4879982e-08
1.1928718e-06
-8.6339763e-08
1.2405952e-06
-8.8070324e-08
1.2840569e-06
-8.3242416e-08
1.3290944e-06
-8.5249504e-08
1.3751295e-06
-8.5543029e-08
1.423502e-06
-8.9879165e-08
1.4676037e-06
-8.4160322e-08
1.5118647e-06
-8.3640069e-08
1.5575934e-06
-8.590452e-08
1.6050905e-06
-8.8212626e-08
1.6519573e-06
-8.7503609e-08
1.6966311e-06
-8.4860477e-08
1.740316e-06
-8.3390061e-08
1.7848297e-06
-8.3216635e-08
1.8339985e-06
-9.0296573e-08
1.8805363e-06
-8.7275905e-08
1.9242794e-06
-8.3429815e-08
1.967124e-06
-8.1547321e-08
2.0117173e-06
-8.2836271e-08
2.0594693e-06
-8.8304316e-08
2.1051354e-06
-8.5002603e-08
2.1483201e-06
-8.1908969e-08
2.1923157e-06
-8.3354372e-08
2.2376152e-06
-8.3199376e-08
2.2807042e-06
-8.0730522e-08
2.3221879e-06
-7.9275928e-08
2.3673109e-06
-8.2899561e-08
2.4144216e-06
-8.5714022e-08
2.4575447e-06
-8.1490268e-08
2.4974969e-06
-7.6487335e-08
2.5389427e-06
-7.7030786e-08
2.58251e-06
-7.9869312e-08
2.6254886e-06
-7.9566652e-08
2.667083e-06
-7.7826462e-08
2.7097798e-06
-7.9416512e-08
2.7537072e-06
-8.0240562e-08
2.7960467e-06
-7.7996434e-08
2.8340219e-06
-7.2791364e-08
2.8703502e-06
-6.9084677e-08
2.9124532e-06
-7.5871116e-08
2.9586126e-06
-8.2636748e-08
3.0015176e-06
-7.9089568e-08
3.0390198e-06
-7.1607936e-08
3.0753627e-06
-6.9140933e-08
3.1151426e-06
-7.2334955e-08
3.1587854e-06
-7.7554177e-08
3.1996116e-06
-7.5416955e-08
3.2353123e-06
-6.8225517e-08
3.271158e-06
-6.7053924e-08
3.3118291e-06
-7.3411885e-08
3.3554041e-06
-7.7865565e-08
3.3962182e-06
-7.4645183e-08
3.4329013e-06
-6.9360683e-08
3.468193e-06
-6.619536e-08
3.5047349e-06
-6.6713234e-08
3.5433765e-06
-7.0085878e-08
3.5826031e-06
-7.1451998e-08
3.6207967e-06
-6.980469e-08
3.6585166e-06
-6.9516132e-08
3.6965167e-06
-7.0161226e-08
3.7341616e-06
-6.8386996e-08
3.771911e-06
-6.8579543e-08
3.8088496e-06
-6.8421097e-08
3.844702e-06
-6.581742e-08
3.880314e-06
-6.5061777e-08
3.915715e-06
-6.5409254e-08
3.9521285e-06
-6.670423e-08
3.991033e-06
-6.9777744e-08
4.0308782e-06
-7.1416093e-08
4.0676593e-06
-6.7926525e-08
4.1008262e-06
-6.2957305e-08
4.1338088e-06
-6.1150636e-08
4.1696345e-06
-6.4158678e-08
4.20879e-06
-7.0223934e-08
4.2474503e-06
-7.0167188e-08
4.282659e-06
-6.445626e-08
4.3156298e-06
-6.1707232e-08
4.3489358e-06
-6.2045872e-08
4.3840835e-06
-6.3283305e-08
4.4212312e-06
-6.6366942e-08
4.4589302e-06
-6.8543381e-08
4.4957796e-06
-6.7089434e-08
4.531016e-06
-6.4516581e-08
4.563892e-06
-6.1307344e-08
4.5960378e-06
-5.952061e-08
4.630605e-06
-6.247981e-08
4.6678013e-06
-6.6442773e-08
4.7055245e-06
-6.7286013e-08
4.7411732e-06
-6.4833898e-08
4.7741995e-06
-6.1438357e-08
4.8061074e-06
-5.8940266e-08
4.8382736e-06
-5.8610657e-08
4.8718727e-06
-6.1227883e-08
4.9081972e-06
-6.5380372e-08
4.9458773e-06
-6.67589e-08
4.9824142e-06
-6.5752862e-08
5.0168412e-06
-6.360103e-08
5.0493648e-06
-5.9659658e-08
5.0813845e-06
-5.7628039e-08
5.1132093e-06
-5.8306833e-08
5.1455386e-06
-5.9295792e-08
5.1796482e-06
-6.089509e-08
5.2156406e-06
-6.3981106e-08
5.2509911e-06
-6.4096856e-08
5.2846975e-06
-6.1471722e-08
5.317645e-06
-5.9725424e-08
5.3496387e-06
-5.8347096e-08
5.3811543e-06
-5.7650566e-08
5.4138642e-06
-5.8748914e-08
5.4476128e-06
-6.0684683e-08
5.4816503e-06
-6.1286398e-08
5.5154637e-06
-6.0593267e-08
5.548202e-06
-5.909755e-08
5.5796487e-06
-5.736442e-08
5.6106007e-06
-5.6259982e-08
5.6423063e-06
-5.6533864e-08
5.6754836e-06
-5.87355e-08
5.7087553e-06
-5.984935e-08
5.741506e-06
-5.8821196e-08
5.7735818e-06
-5.7280617e-08
5.8040939e-06
-5.5280943e-08
5.8336489e-06
-5.4275692e-08
5.8641071e-06
-5.5013781e-08
5.8962524e-06
-5.6671209e-08
5.929816e-06
-5.9470258e-08
5.9636556e-06
-6.0535161e-08
5.9965844e-06
-5.8304399e-08
6.0283184e-06
-5.6203252e-08
6.0596863e-06
-5.6011511e-08
6.0903578e-06
-5.4595032e-08
6.1192608e-06
-5.1860234e-08
6.1471998e-06
-5.0840395e-08
6.1761991e-06
-5.2065042e-08
6.2063318e-06
-5.38292e-08
6.2375506e-06
-5.5589533e-08
6.2700029e-06
-5.7453783e-08
6.3026848e-06
-5.7791704e-08
6.3343013e-06
-5.6214389e-08
6.3640068e-06
-5.325488e-08
6.391869e-06
-5.0452279e-08
6.4196368e-06
-4.9814958e-08
6.4487236e-06
-5.1674355e-08
6.4789323e-06
-5.3507439e-08
6.510132e-06
-5.4973481e-08
6.5424075e-06
-5.6797221e-08
6.5749296e-06
-5.7115921e-08
6.6061145e-06
-5.4685183e-08
6.6353657e-06
-5.1716783e-08
6.6627043e-06
-4.9093582e-08
6.6882199e-06
-4.6571996e-08
6.7133075e-06
-4.5657179e-08
6.7404158e-06
-4.8332357e-08
6.7701764e-06
-5.2622281e-08
6.8016071e-06
-5.5655019e-08
6.8334998e-06
-5.6105383e-08
6.8647926e-06
-5.4953793e-08
6.8944596e-06
-5.2393478e-08
6.9222765e-06
-4.9682129e-08
6.9490807e-06
-4.7871727e-08
6.9748072e-06
-4.6142348e-08
7.0011449e-06
-4.7023368e-08
7.0276547e-06
-4.7822519e-08
7.0576469e-06
-5.2567532e-08
7.0880402e-06
-5.2975769e-08
7.1195575e-06
-5.5112821e-08
7.1482105e-06
-5.0978374e-08
7.176496e-06
-4.9666043e-08
7.2045087e-06
-4.8334078e-08
7.2318074e-06
-4.7644563e-08
7.2593292e-06
-4.818444e-08
7.2849986e-06
-4.5361545e-08
7.3125953e-06
-4.7918296e-08
7.3394703e-06
-4.6939078e-08
7.3670733e-06
-4.8135028e-08
7.394002e-06
-4.7209912e-08
7.4202058e-06
-4.5851255e-08
7.4463712e-06
-4.6051623e-08
7.4725019e-06
-4.4882407e-08
7.498997e-06
-4.6349029e-08
7.5247947e-06
-4.4014338e-08
7.5506522e-06
-4.5220527e-08
7.5760035e-06
-4.2780466e-08
7.6012766e-06
-4.3072513e-08
7.6258032e-06
-4.1088229e-08
7.6501751e-06
-4.0764777e-08
7.6745725e-06
-3.9352843e-08
7.69944e-06
-3.8888373e-08
7.7215938e-06
-3.3868194e-08
7.741547e-06
-2.8816975e-08
7.7574406e-06
-2.3491063e-08
7.7712431e-06
-1.7887138e-08
7.7835962e-06
-1.471969e-08
7.7960072e-06
-1.098648e-08
7.8084179e-06
-6.2518948e-09
7.8177769e-06
1.8716984e-09
7.8206306e-06
1.6806799e-08
7.8181272e-06
2.9469103e-08
7.8034573e-06
5.2364069e-08
7.7819728e-06
6.9827807e-08
7.7498386e-06
9.1106942e-08
7.7009973e-06
1.270702e-07
7.6471143e-06
1.4834773e-07
7.5690233e-06
1.9318764e-07
7.4770186e-06
2.3848621e-07
7.3696729e-06
2.7838583e-07
7.2216763e-06
3.587764e-07
7.0623658e-06
4.1519062e-07
6.8475314e-06
5.1124148e-07
6.5950527e-06
6.2057186e-07
6.2953105e-06
7.2626829e-07
5.9279359e-06
8.7939167e-07
5.516188e-06
1.0156186e-06
5.0277919e-06
1.1823096e-06
4.4544464e-06
1.3601282e-06
3.756266e-06
1.5127717e-06
2.8508597e-06
1.6521956e-06
1.7808964e-06
1.6309312e-06
6.436199e-07
1.4734225e-06
-3.2955345e-07
1.1296327e-06
-9.7031871e-07
8.0457616e-07
-1.3242196e-06
7.5101622e-07
-1.7669366e-06
1.0983154e-06
-2.4635053e-06
1.4072538e-06
-3.1662627e-06
1.3279262e-06
-3.5078787e-06
7.8370228e-07
-3.3756337e-06
-1.7283095e-07
-2.9175784e-06
-1.0637863e-06
-2.0497478e-06
-1.6845994e-06
-9.8248078e-07
-2.2348075e-06
-2.5362498e-06
-3.2611467e-09
9.3475987e-09
2.0169798e-08
-6.5609345e-08
5.7457398e-08
-1.0564477e-07
1.014454e-07
-1.2578596e-07
1.4883297e-07
-1.3600377e-07
1.9784617e-07
-1.409596e-07
2.4753427e-07
-1.4308947e-07
2.9735686e-07
-1.4366417e-07
3.4707143e-07
-1.4333219e-07
3.9658548e-07
-1.4253843e-07
4.4569702e-07
-1.4138899e-07
4.9459704e-07
-1.4049401e-07
5.4281582e-07
-1.3869986e-07
5.9122744e-07
-1.3892405e-07
6.3865166e-07
-1.3516598e-07
6.8628215e-07
-1.3885938e-07
7.3350374e-07
-1.3077075e-07
7.8017356e-07
-1.3938202e-07
8.269169e-07
-1.2908218e-07
8.736694e-07
-1.3473123e-07
9.195302e-07
-1.3491577e-07
9.657418e-07
-1.2740587e-07
1.0127517e-06
-1.3544263e-07
1.0575472e-06
-1.3164994e-07
1.1044907e-06
-1.3102376e-07
1.1499884e-06
-1.3037768e-07
1.1960952e-06
-1.3244657e-07
1.2428891e-06
-1.3486422e-07
1.2875676e-06
-1.2792085e-07
1.334289e-06
-1.3197096e-07
1.3806e-06
-1.3185404e-07
1.427351e-06
-1.3663009e-07
1.4720174e-06
-1.2882672e-07
1.5186188e-06
-1.302415e-07
1.5651626e-06
-1.3244831e-07
1.6116438e-06
-1.3469383e-07
1.6576257e-06
-1.3348552e-07
1.7038228e-06
-1.3105763e-07
1.7484268e-06
-1.2799399e-07
1.794624e-06
-1.2941385e-07
1.8431615e-06
-1.3883413e-07
1.8884325e-06
-1.3254689e-07
1.9326642e-06
-1.2766143e-07
1.9766566e-06
-1.2553976e-07
2.0230576e-06
-1.2923725e-07
2.0708393e-06
-1.3608599e-07
2.1173307e-06
-1.314941e-07
2.1588693e-06
-1.2344747e-07
2.2010414e-06
-1.2552654e-07
2.2491935e-06
-1.313515e-07
2.2952342e-06
-1.2677113e-07
2.3368307e-06
-1.2087247e-07
2.3808104e-06
-1.2687928e-07
2.4271147e-06
-1.320183e-07
2.4699202e-06
-1.2429583e-07
2.5101404e-06
-1.1670752e-07
2.5532591e-06
-1.2014947e-07
2.5991539e-06
-1.2576412e-07
2.643348e-06
-1.2376071e-07
2.6836573e-06
-1.1813581e-07
2.7240158e-06
-1.1977497e-07
2.7677837e-06
-1.2400852e-07
2.8122132e-06
-1.2242589e-07
2.8512688e-06
-1.1184701e-07
2.8882768e-06
-1.0609268e-07
2.9312563e-06
-1.1885059e-07
2.9784131e-06
-1.2979353e-07
3.021621e-06
-1.2229745e-07
3.0577606e-06
-1.0774754e-07
3.0916271e-06
-1.0300748e-07
3.1316988e-06
-1.1240665e-07
3.1790836e-06
-1.2493891e-07
3.2227769e-06
-1.1911026e-07
3.258511e-06
-1.0395961e-07
3.2928843e-06
-1.0142726e-07
3.3328564e-06
-1.1338404e-07
3.3771849e-06
-1.22194e-07
3.4187513e-06
-1.1621165e-07
3.4550925e-06
-1.0570181e-07
3.4897157e-06
-1.0081856e-07
3.526711e-06
-1.0370855e-07
3.5676736e-06
-1.1104854e-07
3.6091391e-06
-1.1291745e-07
3.6479243e-06
-1.0858993e-07
3.6847247e-06
-1.0631648e-07
3.7211998e-06
-1.0663636e-07
3.7588707e-06
-1.0605788e-07
3.7972263e-06
-1.0693514e-07
3.8340227e-06
-1.052175e-07
3.8712323e-06
-1.0302705e-07
3.9083541e-06
-1.0218355e-07
3.9443182e-06
-1.0137338e-07
3.9808047e-06
-1.0319071e-07
4.0202281e-06
-1.0920118e-07
4.0607166e-06
-1.1190454e-07
4.0979024e-06
-1.0511231e-07
4.1305442e-06
-9.5599177e-08
4.162762e-06
-9.3368372e-08
4.1988663e-06
-1.00263e-07
4.238996e-06
-1.1035362e-07
4.2782415e-06
-1.0941274e-07
4.3141211e-06
-1.003358e-07
4.3473194e-06
-9.4905544e-08
4.3812053e-06
-9.5931741e-08
4.4178469e-06
-9.992489e-08
4.4561779e-06
-1.04698e-07
4.4934871e-06
-1.0585252e-07
4.5301237e-06
-1.0372606e-07
4.5651473e-06
-9.9540187e-08
4.597208e-06
-9.3368009e-08
4.6285882e-06
-9.0900857e-08
4.6636164e-06
-9.7508012e-08
4.7023189e-06
-1.0514521e-07
4.741817e-06
-1.067842e-07
4.7780563e-06
-1.0107319e-07
4.8110941e-06
-9.4476157e-08
4.8432168e-06
-9.1062901e-08
4.8760711e-06
-9.146502e-08
4.9098231e-06
-9.4979884e-08
4.9463423e-06
-1.018995e-07
4.9845634e-06
-1.0498007e-07
5.0211603e-06
-1.0234977e-07
5.054315e-06
-9.6755676e-08
5.0866613e-06
-9.2005973e-08
5.1196608e-06
-9.0627588e-08
5.1521282e-06
-9.0774171e-08
5.1844603e-06
-9.162786e-08
5.2198583e-06
-9.6293132e-08
5.2571783e-06
-1.0130113e-07
5.2930125e-06
-9.9931002e-08
5.3275566e-06
-9.6015855e-08
5.3617798e-06
-9.3948637e-08
5.3940243e-06
-9.0591548e-08
5.4248729e-06
-8.8499253e-08
5.4571516e-06
-9.1027559e-08
5.4898616e-06
-9.3394736e-08
5.5233363e-06
-9.4761014e-08
5.5580504e-06
-9.5307405e-08
5.5920958e-06
-9.3142914e-08
5.624496e-06
-8.9764616e-08
5.6562856e-06
-8.8049668e-08
5.6892659e-06
-8.9514076e-08
5.7234426e-06
-9.2912275e-08
5.7566599e-06
-9.3066575e-08
5.7891638e-06
-9.1325167e-08
5.8218936e-06
-9.0010344e-08
5.8528628e-06
-8.6250205e-08
5.8817586e-06
-8.3171475e-08
5.9121931e-06
-8.5448308e-08
5.9453292e-06
-8.980724e-08
5.9794228e-06
-9.356389e-08
6.0129803e-06
-9.4092625e-08
6.0457114e-06
-9.1035542e-08
6.0774207e-06
-8.7912519e-08
6.1089479e-06
-8.753879e-08
6.1400793e-06
-8.5726432e-08
6.1701643e-06
-8.1945188e-08
6.1993463e-06
-8.0022443e-08
6.2291165e-06
-8.1835211e-08
6.259226e-06
-8.3938724e-08
6.2902252e-06
-8.6588712e-08
6.322421e-06
-8.9649593e-08
6.3552882e-06
-9.0658917e-08
6.387555e-06
-8.8481173e-08
6.4178634e-06
-8.3563296e-08
6.4458138e-06
-7.8402628e-08
6.4739357e-06
-7.7936903e-08
6.5040401e-06
-8.177871e-08
6.5347567e-06
-8.4224014e-08
6.5654745e-06
-8.5691364e-08
6.5982334e-06
-8.9556075e-08
6.6322386e-06
-9.1121109e-08
6.6639543e-06
-8.6400894e-08
6.6930807e-06
-8.084322e-08
6.7209599e-06
-7.6972762e-08
6.746939e-06
-7.2551093e-08
6.7712417e-06
-6.9959899e-08
6.7969974e-06
-7.4088052e-08
6.8259148e-06
-8.1539629e-08
6.8575241e-06
-8.7264311e-08
6.8901307e-06
-8.8712012e-08
6.9223878e-06
-8.7210867e-08
6.9538322e-06
-8.3837943e-08
6.9843252e-06
-8.0175084e-08
7.0129875e-06
-7.653404e-08
7.0391724e-06
-7.2327214e-08
7.0651173e-06
-7.2968319e-08
7.092334e-06
-7.5039244e-08
7.1215239e-06
-8.175739e-08
7.1516229e-06
-8.3074738e-08
7.1827688e-06
-8.6258696e-08
7.2123898e-06
-8.0599433e-08
7.2402659e-06
-7.7542174e-08
7.2674985e-06
-7.5566637e-08
7.294561e-06
-7.4707016e-08
7.3224314e-06
-7.6054931e-08
7.3487573e-06
-7.1687359e-08
7.3770032e-06
-7.616426e-08
7.4057305e-06
-7.5666388e-08
7.4343112e-06
-7.6715695e-08
7.4626967e-06
-7.5595406e-08
7.4905717e-06
-7.3726244e-08
7.518024e-06
-7.3503925e-08
7.5462633e-06
-7.3121737e-08
7.5716139e-06
-7.1699625e-08
7.5970017e-06
-6.9402127e-08
7.6211732e-06
-6.9392036e-08
7.6463611e-06
-6.7968385e-08
7.6716467e-06
-6.8358127e-08
7.6962869e-06
-6.5728422e-08
7.7214243e-06
-6.5902141e-08
7.7473252e-06
-6.5253753e-08
7.7720853e-06
-6.3648435e-08
7.7982163e-06
-5.9999223e-08
7.8211737e-06
-5.1774355e-08
7.8402645e-06
-4.2581917e-08
7.8578169e-06
-3.5439462e-08
7.871665e-06
-2.8567866e-08
7.8844765e-06
-2.3797981e-08
7.8992383e-06
-2.1013656e-08
7.9089694e-06
-7.8594104e-09
7.9205822e-06
5.1939966e-09
7.9231575e-06
2.6893843e-08
7.9203856e-06
5.5135957e-08
7.9091799e-06
8.1033498e-08
7.8856999e-06
1.1458695e-07
7.8567563e-06
1.5601374e-07
7.8138469e-06
1.9125717e-07
7.7546748e-06
2.5235973e-07
7.6905298e-06
3.0263124e-07
7.5950632e-06
3.738524e-07
7.4958897e-06
4.579499e-07
7.3741813e-06
5.3689905e-07
7.2242848e-06
6.6113796e-07
7.0563718e-06
7.884849e-07
6.8433372e-06
9.3930282e-07
6.6057356e-06
1.1169933e-06
6.3285587e-06
1.2927954e-06
6.0071802e-06
1.5036881e-06
5.6664517e-06
1.7008566e-06
5.2658632e-06
1.9133602e-06
4.8004561e-06
2.1176027e-06
4.1869003e-06
2.2444871e-06
3.3082751e-06
2.3520476e-06
2.0763847e-06
2.3615231e-06
7.28255e-07
2.1527059e-06
-3.3929137e-07
1.8185626e-06
-9.3601846e-07
1.6950425e-06
-1.3622212e-06
1.8334565e-06
-1.7895842e-06
1.7552892e-06
-2.0374737e-06
1.0315918e-06
-2.0895845e-06
-1.2072015e-07
-1.9841586e-06
-1.1692123e-06
-1.5209714e-06
-2.1477866e-06
-7.6528888e-07
-2.99049e-06
-3.3015386e-06
-2.8878298e-09
1.2235429e-08
2.0691496e-08
-8.9188671e-08
5.820249e-08
-1.4315576e-07
1.0255706e-07
-1.7014053e-07
1.5027175e-07
-1.8371846e-07
1.9956734e-07
-1.9025519e-07
2.4948772e-07
-1.9300986e-07
2.9951216e-07
-1.9368861e-07
3.493826e-07
-1.9320263e-07
3.9896668e-07
-1.9212252e-07
4.4818641e-07
-1.9060872e-07
4.9697571e-07
-1.8928331e-07
5.4542078e-07
-1.8714493e-07
5.9331272e-07
-1.8681599e-07
6.4123967e-07
-1.8309292e-07
6.8795258e-07
-1.855723e-07
7.3585975e-07
-1.7867792e-07
7.815053e-07
-1.8502758e-07
8.2859941e-07
-1.7617629e-07
8.7526746e-07
-1.8139929e-07
9.2019608e-07
-1.7984439e-07
9.6695115e-07
-1.7416094e-07
1.0138979e-06
-1.8238936e-07
1.0576137e-06
-1.7536576e-07
1.10472e-06
-1.7813011e-07
1.1505782e-06
-1.7623589e-07
1.1973204e-06
-1.7918871e-07
1.2411292e-06
-1.7867302e-07
1.2875532e-06
-1.7434489e-07
1.334945e-06
-1.7936276e-07
1.3816914e-06
-1.7860036e-07
1.4246488e-06
-1.7958756e-07
1.4710441e-06
-1.7522196e-07
1.5194181e-06
-1.7861553e-07
1.5662559e-06
-1.7928613e-07
1.6102432e-06
-1.7868114e-07
1.6549559e-06
-1.7819816e-07
1.7032054e-06
-1.7930714e-07
1.748797e-06
-1.7358564e-07
1.7959441e-06
-1.7656087e-07
1.8420976e-06
-1.8498771e-07
1.8847996e-06
-1.7524883e-07
1.9304397e-06
-1.7330158e-07
1.9784682e-06
-1.7356823e-07
2.0242342e-06
-1.7500321e-07
2.0683159e-06
-1.8016772e-07
2.1158309e-06
-1.7900907e-07
2.1578339e-06
-1.6545052e-07
2.1985396e-06
-1.6623227e-07
2.2473034e-06
-1.801153e-07
2.2964029e-06
-1.7587063e-07
2.3384753e-06
-1.6294487e-07
2.3785845e-06
-1.6698846e-07
2.4223529e-06
-1.7578665e-07
2.4671578e-06
-1.6910079e-07
2.510155e-06
-1.5970466e-07
2.5531117e-06
-1.6310616e-07
2.5981955e-06
-1.7084796e-07
2.6421046e-06
-1.6766977e-07
2.6822484e-06
-1.5827962e-07
2.7219532e-06
-1.5947982e-07
2.763917e-06
-1.6597231e-07
2.8078069e-06
-1.6631581e-07
2.8494903e-06
-1.5353034e-07
2.8898277e-06
-1.4643011e-07
2.9323502e-06
-1.613731e-07
2.9759219e-06
-1.7336521e-07
3.016639e-06
-1.6301455e-07
3.0537165e-06
-1.4482503e-07
3.088902e-06
-1.3819306e-07
3.1287619e-06
-1.5226655e-07
3.1756769e-06
-1.7185385e-07
3.2217094e-06
-1.6514283e-07
3.2597895e-06
-1.4203963e-07
3.2927022e-06
-1.3434002e-07
3.328497e-06
-1.4917883e-07
3.3699001e-06
-1.6359704e-07
3.4121788e-06
-1.5849037e-07
3.452315e-06
-1.4583805e-07
3.4892433e-06
-1.3774685e-07
3.5255788e-06
-1.4004406e-07
3.5651104e-06
-1.5058012e-07
3.6064461e-06
-1.5425315e-07
3.6454265e-06
-1.4757027e-07
3.6812057e-06
-1.4209569e-07
3.7156372e-06
-1.4106786e-07
3.7535001e-06
-1.4392083e-07
3.7926401e-06
-1.4607513e-07
3.8301238e-06
-1.4270123e-07
3.8681045e-06
-1.4100774e-07
3.9064221e-06
-1.4050113e-07
3.9429207e-06
-1.3787198e-07
3.9786891e-06
-1.3895906e-07
4.0155945e-06
-1.4610662e-07
4.0543123e-06
-1.506223e-07
4.0917652e-06
-1.4256527e-07
4.1263936e-06
-1.3022755e-07
4.1600119e-06
-1.2698664e-07
4.1964545e-06
-1.3670569e-07
4.2350029e-06
-1.4890196e-07
4.2726767e-06
-1.4708654e-07
4.3083544e-06
-1.360135e-07
4.3433007e-06
-1.2985184e-07
4.3788288e-06
-1.3145985e-07
4.4162981e-06
-1.3739422e-07
4.4537129e-06
-1.4211276e-07
4.4886481e-06
-1.4078773e-07
4.5228417e-06
-1.3791967e-07
4.5577067e-06
-1.344052e-07
4.5912541e-06
-1.2691537e-07
4.6247887e-06
-1.2443545e-07
4.6612573e-06
-1.3397666e-07
4.7008357e-06
-1.4472359e-07
4.7389846e-06
-1.4493312e-07
4.7729659e-06
-1.3505443e-07
4.8056022e-06
-1.2711245e-07
4.8390157e-06
-1.2447642e-07
4.8721445e-06
-1.2459388e-07
4.9060364e-06
-1.2887174e-07
4.9423656e-06
-1.3822871e-07
4.9797824e-06
-1.423969e-07
5.0154434e-06
-1.3801073e-07
5.0480816e-06
-1.2939385e-07
5.0811082e-06
-1.2503264e-07
5.1155208e-06
-1.2504017e-07
5.1488431e-06
-1.2409642e-07
5.1812166e-06
-1.240014e-07
5.2158582e-06
-1.3093475e-07
5.2518111e-06
-1.3725403e-07
5.2866788e-06
-1.3479869e-07
5.3217181e-06
-1.3105511e-07
5.3575981e-06
-1.2982868e-07
5.391579e-06
-1.2457244e-07
5.4235666e-06
-1.2048687e-07
5.4543565e-06
-1.2181747e-07
5.4845052e-06
-1.2354343e-07
5.5162403e-06
-1.2649607e-07
5.5504176e-06
-1.294847e-07
5.5854499e-06
-1.281752e-07
5.6203761e-06
-1.2469088e-07
5.6543359e-06
-1.2200949e-07
5.6882825e-06
-1.2346059e-07
5.7217398e-06
-1.2636962e-07
5.7531822e-06
-1.2450897e-07
5.7835516e-06
-1.216946e-07
5.8158069e-06
-1.222656e-07
5.8481819e-06
-1.186252e-07
5.8778502e-06
-1.1283978e-07
5.9083428e-06
-1.1594095e-07
5.9426619e-06
-1.2412629e-07
5.9770753e-06
-1.2797737e-07
6.0095838e-06
-1.2660106e-07
6.0411765e-06
-1.2262828e-07
6.0720494e-06
-1.1878544e-07
6.1026015e-06
-1.1809084e-07
6.133751e-06
-1.1687591e-07
6.1647618e-06
-1.1295604e-07
6.196115e-06
-1.1137568e-07
6.2284485e-06
-1.1416866e-07
6.2595293e-06
-1.1501949e-07
6.2885109e-06
-1.155704e-07
6.3188052e-06
-1.1994382e-07
6.3509051e-06
-1.2275883e-07
6.3822825e-06
-1.1985857e-07
6.412106e-06
-1.1338681e-07
6.44176e-06
-1.0805661e-07
6.4722289e-06
-1.0840587e-07
6.5032442e-06
-1.12794e-07
6.5334775e-06
-1.1445729e-07
6.5632775e-06
-1.1549141e-07
6.5946887e-06
-1.2096723e-07
6.6271642e-06
-1.2359663e-07
6.6590147e-06
-1.1825139e-07
6.6896204e-06
-1.1144895e-07
6.7187616e-06
-1.061139e-07
6.7457401e-06
-9.952958e-08
6.7718437e-06
-9.6063537e-08
6.798254e-06
-1.0049832e-07
6.82497e-06
-1.0825565e-07
6.853093e-06
-1.1538733e-07
6.8845211e-06
-1.2014012e-07
6.9175083e-06
-1.2019801e-07
6.9499672e-06
-1.1629688e-07
6.9818373e-06
-1.1204521e-07
7.0120684e-06
-1.0676514e-07
7.0402187e-06
-1.0047751e-07
7.0666484e-06
-9.9398015e-08
7.0940021e-06
-1.0239295e-07
7.1216464e-06
-1.0940166e-07
7.1502425e-06
-1.1167085e-07
7.1797408e-06
-1.1575698e-07
7.2088439e-06
-1.0970254e-07
7.2380584e-06
-1.0675664e-07
7.2654783e-06
-1.0298663e-07
7.2928298e-06
-1.0205849e-07
7.3186657e-06
-1.0189079e-07
7.3468187e-06
-9.9840336e-08
7.3755313e-06
-1.048769e-07
7.4050548e-06
-1.0518987e-07
7.4326208e-06
-1.0428172e-07
7.4610318e-06
-1.0400637e-07
7.490063e-06
-1.0275752e-07
7.5188923e-06
-1.0233322e-07
7.5463579e-06
-1.0058732e-07
7.5744516e-06
-9.9793314e-08
7.6000731e-06
-9.5023609e-08
7.6223303e-06
-9.1649188e-08
7.6472415e-06
-9.2879612e-08
7.6706464e-06
-9.1763083e-08
7.6952357e-06
-9.0317691e-08
7.7196227e-06
-9.0289126e-08
7.7447638e-06
-9.0394818e-08
7.7710601e-06
-8.9944772e-08
7.7985844e-06
-8.7523504e-08
7.8228933e-06
-7.6083315e-08
7.847127e-06
-6.6815558e-08
7.8682378e-06
-5.6550289e-08
7.883229e-06
-4.3559036e-08
7.8998205e-06
-4.0389496e-08
7.9127219e-06
-3.3915067e-08
7.9245725e-06
-1.9710015e-08
7.9333139e-06
-3.5473701e-09
7.935479e-06
2.4728707e-08
7.9391282e-06
5.1486739e-08
7.93585e-06
8.4311705e-08
7.92034e-06
1.30097e-07
7.9072837e-06
1.6906996e-07
7.8702436e-06
2.2829732e-07
7.8284514e-06
2.9415188e-07
7.7747551e-06
3.5632759e-07
7.6942162e-06
4.5439125e-07
7.6102724e-06
5.4189378e-07
7.5064484e-06
6.4072306e-07
7.371206e-06
7.9638031e-07
7.2326419e-06
9.2704906e-07
7.0646832e-06
1.1072615e-06
6.873788e-06
1.3078885e-06
6.6569594e-06
1.5096241e-06
6.428874e-06
1.7317735e-06
6.1760354e-06
1.9536952e-06
5.8912995e-06
2.1980961e-06
5.5953662e-06
2.4135361e-06
5.2132556e-06
2.6265977e-06
4.7431594e-06
2.8221438e-06
4.1163124e-06
2.9883701e-06
3.2433027e-06
3.0257155e-06
2.1090727e-06
2.9527926e-06