/*--------------------------------*- C++ -*----------------------------------*\
| =========                 |                                                 |
| \\      /  F ield         | OpenFOAM: The Open Source CFD Toolbox           |
|  \\    /   O peration     | Version:  2306                                  |
|   \\  /    A nd           | Website:  www.openfoam.com                      |
|    \\/     M anipulation  |                                                 |
\*---------------------------------------------------------------------------*/
FoamFile
{
    version     2.0;
    format      ascii;
    arch        "LSB;label=32;scalar=64";
    class       surfaceScalarField;
    location    "0.26";
    object      phi;
}
// * * * * * * * * * * * * * * * * * * * * * * * * * * * * * * * * * * * * * //

dimensions      [0 3 -1 0 0 0 0];

oriented        oriented;

internalField   nonuniform List<scalar> 
101920
(
-7.4165085e-10
7.4165081e-10
-3.3134215e-09
2.5717708e-09
-7.7521764e-09
4.4387551e-09
-1.4209836e-08
6.45766e-09
-2.2683434e-08
8.4735971e-09
-3.3121133e-08
1.0437699e-08
-4.5488733e-08
1.2367601e-08
-5.9755715e-08
1.4266982e-08
-7.5892738e-08
1.6137022e-08
-9.3870731e-08
1.7977993e-08
-1.1365973e-07
1.9788997e-08
-1.3522789e-07
2.1568163e-08
-1.5854096e-07
2.3313073e-08
-1.8356197e-07
2.5021008e-08
-2.1025104e-07
2.6689071e-08
-2.3856528e-07
2.8314235e-08
-2.6845867e-07
2.9893393e-08
-2.9988202e-07
3.1423347e-08
-3.3278292e-07
3.2900901e-08
-3.671062e-07
3.4323279e-08
-4.0279626e-07
3.5690059e-08
-4.3980856e-07
3.7012307e-08
-4.780791e-07
3.8270536e-08
-5.1752569e-07
3.9446591e-08
-5.5807637e-07
4.0550679e-08
-5.9966114e-07
4.1584769e-08
-6.4220798e-07
4.2546832e-08
-6.8564241e-07
4.3434432e-08
-7.2988767e-07
4.424527e-08
-7.7486498e-07
4.497731e-08
-8.2049379e-07
4.5628804e-08
-8.6669203e-07
4.6198241e-08
-9.1337642e-07
4.6684383e-08
-9.6046267e-07
4.708626e-08
-1.0078658e-06
4.7403127e-08
-1.0555003e-06
4.7634523e-08
-1.1032806e-06
4.7780238e-08
-1.1511209e-06
4.784032e-08
-1.198936e-06
4.7815088e-08
-1.2466411e-06
4.7705104e-08
-1.2941523e-06
4.7511194e-08
-1.3413867e-06
4.7234427e-08
-1.3882628e-06
4.6876128e-08
-1.4347007e-06
4.643785e-08
-1.480622e-06
4.5921365e-08
-1.5259507e-06
4.5328685e-08
-1.5706127e-06
4.4662001e-08
-1.6145365e-06
4.3923728e-08
-1.6576529e-06
4.3116447e-08
-1.6998958e-06
4.2242901e-08
-1.7412018e-06
4.1306001e-08
-1.7815106e-06
4.0308763e-08
-1.8207649e-06
3.9254356e-08
-1.8589109e-06
3.8146038e-08
-1.8958981e-06
3.6987145e-08
-1.9316792e-06
3.5781093e-08
-1.9662105e-06
3.4531337e-08
-1.9994519e-06
3.3241397e-08
-2.0313667e-06
3.191477e-08
-2.0619217e-06
3.0554978e-08
-2.0910872e-06
2.9165526e-08
-2.1188371e-06
2.7749901e-08
-2.1451486e-06
2.6311527e-08
-2.1700024e-06
2.4853809e-08
-2.1933825e-06
2.3380048e-08
-2.215276e-06
2.1893479e-08
-2.2356732e-06
2.0397266e-08
-2.2545677e-06
1.8894482e-08
-2.2719558e-06
1.7388074e-08
-2.2878367e-06
1.5880933e-08
-2.3022126e-06
1.4375862e-08
-2.3150882e-06
1.2875597e-08
-2.326471e-06
1.1382812e-08
-2.3363711e-06
9.9000819e-09
-2.344801e-06
8.4299301e-09
-2.3517759e-06
6.974888e-09
-2.3573136e-06
5.5377235e-09
-2.3614343e-06
4.1207013e-09
-2.3641523e-06
2.7180094e-09
-2.3654438e-06
1.2914284e-09
-2.3652318e-06
-2.1196173e-10
-2.3638003e-06
-1.4315418e-09
-2.3610766e-06
-2.7236505e-09
-2.3570646e-06
-4.011985e-09
-2.3517843e-06
-5.2803656e-09
-2.3452611e-06
-6.5232011e-09
-2.3375225e-06
-7.7385214e-09
-2.3285969e-06
-8.9256214e-09
-2.3185128e-06
-1.0084108e-08
-2.307299e-06
-1.1213784e-08
-2.2949845e-06
-1.2314485e-08
-2.2815984e-06
-1.3386165e-08
-2.2671696e-06
-1.4428791e-08
-2.2517271e-06
-1.5442466e-08
-2.2352998e-06
-1.6427293e-08
-2.2179163e-06
-1.7383467e-08
-2.1996051e-06
-1.8311224e-08
-2.1803942e-06
-1.9210905e-08
-2.1603113e-06
-2.008286e-08
-2.1393838e-06
-2.0927487e-08
-2.1176386e-06
-2.1745237e-08
-2.095102e-06
-2.2536629e-08
-2.0717998e-06
-2.3302186e-08
-2.0477573e-06
-2.4042485e-08
-2.0229992e-06
-2.4758098e-08
-1.9975495e-06
-2.5449672e-08
-1.9714317e-06
-2.6117847e-08
-1.9446684e-06
-2.6763256e-08
-1.9172818e-06
-2.7386617e-08
-1.8892932e-06
-2.7988602e-08
-1.8607233e-06
-2.8569931e-08
-1.831592e-06
-2.9131279e-08
-1.8019186e-06
-2.9673432e-08
-1.7717215e-06
-3.0197046e-08
-1.7410186e-06
-3.0702891e-08
-1.709827e-06
-3.1191682e-08
-1.6781628e-06
-3.166409e-08
-1.646042e-06
-3.2120896e-08
-1.6134792e-06
-3.2562761e-08
-1.5804888e-06
-3.2990434e-08
-1.5470842e-06
-3.340459e-08
-1.5132783e-06
-3.3805884e-08
-1.4790832e-06
-3.4195057e-08
-1.4445105e-06
-3.4572723e-08
-1.409571e-06
-3.4939548e-08
-1.3742748e-06
-3.5296189e-08
-1.3386315e-06
-3.5643257e-08
-1.3026502e-06
-3.5981362e-08
-1.266339e-06
-3.6311152e-08
-1.2297059e-06
-3.6633143e-08
-1.192758e-06
-3.6947946e-08
-1.1555019e-06
-3.7256096e-08
-1.1179437e-06
-3.7558171e-08
-1.080089e-06
-3.785465e-08
-1.041943e-06
-3.814605e-08
-1.0035101e-06
-3.8432889e-08
-9.6479452e-07
-3.8715579e-08
-9.2579989e-07
-3.8994618e-08
-8.8652948e-07
-3.9270424e-08
-8.4698603e-07
-3.9543434e-08
-8.0717201e-07
-3.9814026e-08
-7.6708942e-07
-4.0082584e-08
-7.2673996e-07
-4.0349445e-08
-6.8612502e-07
-4.0614946e-08
-6.4524564e-07
-4.0879389e-08
-6.0410266e-07
-4.1142995e-08
-5.6269669e-07
-4.1405961e-08
-5.2102832e-07
-4.1668366e-08
-4.7909824e-07
-4.1930084e-08
-4.3690759e-07
-4.219065e-08
-3.9445874e-07
-4.244889e-08
-3.5175676e-07
-4.2701979e-08
-3.0881285e-07
-4.2943882e-08
-2.6565129e-07
-4.3161555e-08
-2.223224e-07
-4.3328892e-08
-1.7892079e-07
-4.3401618e-08
-1.3558161e-07
-4.3339161e-08
-9.2333521e-08
-4.3248084e-08
-4.8328848e-08
-4.400468e-08
-4.8328839e-08
-2.2696941e-09
3.0113448e-09
-9.1813851e-09
9.4834621e-09
-2.0842209e-08
1.6099578e-08
-3.7319418e-08
2.2934869e-08
-5.8614478e-08
2.9768658e-08
-8.4687645e-08
3.6510866e-08
-1.1547968e-07
4.3159635e-08
-1.5092356e-07
4.9710865e-08
-1.9094584e-07
5.6159298e-08
-2.3546652e-07
6.2498678e-08
-2.8439878e-07
6.8721257e-08
-3.3764855e-07
7.4817931e-08
-3.9511423e-07
8.0778747e-08
-4.5668652e-07
8.6593307e-08
-5.2224848e-07
9.225103e-08
-5.9167554e-07
9.7741297e-08
-6.6483575e-07
1.030536e-07
-7.4159003e-07
1.0817763e-07
-8.2179251e-07
1.1310338e-07
-9.0529058e-07
1.1782135e-07
-9.9192325e-07
1.2232273e-07
-1.0815098e-06
1.2659886e-07
-1.1738752e-06
1.3063593e-07
-1.268854e-06
1.3442542e-07
-1.3662663e-06
1.3796294e-07
-1.465924e-06
1.4124251e-07
-1.5676351e-06
1.4425788e-07
-1.6712038e-06
1.4700319e-07
-1.7764318e-06
1.4947323e-07
-1.883118e-06
1.516635e-07
-1.9910595e-06
1.5357028e-07
-2.1000518e-06
1.5519059e-07
-2.2098897e-06
1.565223e-07
-2.3203675e-06
1.5756407e-07
-2.4312798e-06
1.5831537e-07
-2.5424218e-06
1.5877655e-07
-2.6535903e-06
1.5894875e-07
-2.764584e-06
1.5883398e-07
-2.875204e-06
1.5843506e-07
-2.9852545e-06
1.5775561e-07
-3.0945433e-06
1.5680003e-07
-3.2028824e-06
1.5557351e-07
-3.3100882e-06
1.5408197e-07
-3.4159824e-06
1.5233199e-07
-3.5203919e-06
1.5033086e-07
-3.6231497e-06
1.4808647e-07
-3.7240949e-06
1.4560731e-07
-3.8230736e-06
1.4290239e-07
-3.9199384e-06
1.3998123e-07
-4.0145493e-06
1.3685376e-07
-4.1067736e-06
1.3353035e-07
-4.1964865e-06
1.3002166e-07
-4.2835708e-06
1.2633867e-07
-4.3679173e-06
1.2249255e-07
-4.4494249e-06
1.1849466e-07
-4.5280003e-06
1.1435655e-07
-4.6035587e-06
1.1008974e-07
-4.6760231e-06
1.0570583e-07
-4.7453248e-06
1.012164e-07
-4.8114027e-06
9.6632933e-08
-4.874204e-06
9.1966795e-08
-4.9336833e-06
8.7229217e-08
-4.989803e-06
8.2431176e-08
-5.0425326e-06
7.7583477e-08
-5.0918492e-06
7.2696596e-08
-5.1377364e-06
6.7780744e-08
-5.180185e-06
6.2845807e-08
-5.2191918e-06
5.7901292e-08
-5.2547601e-06
5.2956418e-08
-5.2868992e-06
4.8020032e-08
-5.315624e-06
4.3100667e-08
-5.340955e-06
3.8206545e-08
-5.3629177e-06
3.3345569e-08
-5.3815429e-06
2.8525306e-08
-5.3968659e-06
2.3752906e-08
-5.4089262e-06
1.903515e-08
-5.4177668e-06
1.4378385e-08
-5.4234332e-06
9.7870153e-09
-5.4259695e-06
5.2543216e-09
-5.4254081e-06
7.3012276e-10
-5.4219927e-06
-3.627419e-09
-5.4154838e-06
-7.9404374e-09
-5.4060295e-06
-1.2177919e-08
-5.3937129e-06
-1.6328638e-08
-5.3786042e-06
-2.0389042e-08
-5.3607694e-06
-2.4357955e-08
-5.3402735e-06
-2.823453e-08
-5.3171811e-06
-3.2017982e-08
-5.2915576e-06
-3.5707601e-08
-5.2634685e-06
-3.9302867e-08
-5.2329795e-06
-4.2803466e-08
-5.2001564e-06
-4.6209323e-08
-5.1650646e-06
-4.9520605e-08
-5.1277694e-06
-5.2737695e-08
-5.0883355e-06
-5.5861194e-08
-5.046827e-06
-5.8891913e-08
-5.0033074e-06
-6.1830858e-08
-4.9578391e-06
-6.4679183e-08
-4.9104837e-06
-6.743826e-08
-4.8613017e-06
-7.0109496e-08
-4.8103524e-06
-7.2694575e-08
-4.7576938e-06
-7.519519e-08
-4.7033828e-06
-7.7613188e-08
-4.6474748e-06
-7.9950526e-08
-4.5900238e-06
-8.2209151e-08
-4.5310822e-06
-8.4391186e-08
-4.4707013e-06
-8.6498789e-08
-4.4089304e-06
-8.8534118e-08
-4.3458176e-06
-9.0499452e-08
-4.2814091e-06
-9.2397109e-08
-4.2157497e-06
-9.4229367e-08
-4.1488824e-06
-9.5998546e-08
-4.0808488e-06
-9.7707008e-08
-4.0116888e-06
-9.9357112e-08
-3.9414405e-06
-1.0095116e-07
-3.8701406e-06
-1.0249155e-07
-3.7978242e-06
-1.0398053e-07
-3.7245247e-06
-1.0542043e-07
-3.6502739e-06
-1.0681359e-07
-3.5751021e-06
-1.0816222e-07
-3.4990381e-06
-1.0946858e-07
-3.4221091e-06
-1.1073485e-07
-3.344341e-06
-1.1196321e-07
-3.2657579e-06
-1.1315579e-07
-3.1863828e-06
-1.1431465e-07
-3.1062371e-06
-1.1544189e-07
-3.0253408e-06
-1.165395e-07
-2.9437128e-06
-1.1760941e-07
-2.8613703e-06
-1.1865359e-07
-2.7783297e-06
-1.1967381e-07
-2.6946056e-06
-1.2067197e-07
-2.6102119e-06
-1.216498e-07
-2.5251611e-06
-1.2260903e-07
-2.4394644e-06
-1.2355132e-07
-2.3531322e-06
-1.2447824e-07
-2.2661737e-06
-1.2539141e-07
-2.178597e-06
-1.2629225e-07
-2.0904093e-06
-1.2718226e-07
-2.0016169e-06
-1.2806282e-07
-1.9122251e-06
-1.2893525e-07
-1.8222383e-06
-1.2980081e-07
-1.7316603e-06
-1.3066068e-07
-1.6404937e-06
-1.3151602e-07
-1.5487408e-06
-1.3236788e-07
-1.456403e-06
-1.3321718e-07
-1.3634813e-06
-1.3406471e-07
-1.269976e-06
-1.3491122e-07
-1.1758873e-06
-1.3575705e-07
-1.0812153e-06
-1.3660214e-07
-9.859601e-07
-1.3744582e-07
-8.9012303e-07
-1.3828593e-07
-7.9370702e-07
-1.3911798e-07
-6.9671817e-07
-1.3993275e-07
-5.9916671e-07
-1.4071303e-07
-5.0106552e-07
-1.4143007e-07
-4.0241776e-07
-1.420494e-07
-3.0317189e-07
-1.4258504e-07
-2.031204e-07
-1.4329959e-07
-1.0194009e-07
-1.45185e-07
-1.5026894e-07
-3.2646224e-09
6.2759672e-09
-1.2954778e-08
1.9173617e-08
-2.9114589e-08
3.2259389e-08
-5.172147e-08
4.5541751e-08
-8.0763999e-08
5.8811188e-08
-1.1621007e-07
7.1956932e-08
-1.5799673e-07
8.4946301e-08
-2.060418e-07
9.7755935e-08
-2.6024831e-07
1.103658e-07
-3.2050604e-07
1.2275641e-07
-3.8669246e-07
1.3490768e-07
-4.5867319e-07
1.4679866e-07
-5.3630236e-07
1.5840792e-07
-6.1942287e-07
1.6971381e-07
-7.0786659e-07
1.8069475e-07
-8.0145474e-07
1.9132945e-07
-8.9999822e-07
2.0159708e-07
-1.0032979e-06
2.1147735e-07
-1.1111453e-06
2.2095073e-07
-1.2233224e-06
2.2999846e-07
-1.3396024e-06
2.3860269e-07
-1.4597497e-06
2.4674624e-07
-1.5835255e-06
2.5441169e-07
-1.7106834e-06
2.6158334e-07
-1.8409686e-06
2.6824806e-07
-1.9741202e-06
2.7439417e-07
-2.1098733e-06
2.8001093e-07
-2.2479588e-06
2.8508875e-07
-2.3881049e-06
2.8961931e-07
-2.5300371e-06
2.9359572e-07
-2.6734794e-06
2.9701255e-07
-2.8181547e-06
2.9986589e-07
-2.9637858e-06
3.021534e-07
-3.110096e-06
3.0387429e-07
-3.25681e-06
3.0502939e-07
-3.4036546e-06
3.0562111e-07
-3.5503593e-06
3.0565344e-07
-3.6966573e-06
3.0513197e-07
-3.842286e-06
3.0406379e-07
-3.9869879e-06
3.0245754e-07
-4.1305112e-06
3.0032327e-07
-4.2726101e-06
2.9767247e-07
-4.4130461e-06
2.9451795e-07
-4.5515879e-06
2.9087377e-07
-4.6880123e-06
2.867552e-07
-4.8221044e-06
2.821786e-07
-4.9536584e-06
2.7716135e-07
-5.0824778e-06
2.717218e-07
-5.2083757e-06
2.658791e-07
-5.3311751e-06
2.5965314e-07
-5.4507092e-06
2.5306448e-07
-5.5668218e-06
2.461342e-07
-5.6793669e-06
2.3888383e-07
-5.7882096e-06
2.3133521e-07
-5.8932254e-06
2.2351048e-07
-5.9943007e-06
2.1543187e-07
-6.0913327e-06
2.0712169e-07
-6.184229e-06
1.9860219e-07
-6.2729081e-06
1.8989548e-07
-6.3572987e-06
1.8102347e-07
-6.4373396e-06
1.7200775e-07
-6.5129799e-06
1.6286953e-07
-6.5841784e-06
1.5362961e-07
-6.6509031e-06
1.4430823e-07
-6.7131316e-06
1.349251e-07
-6.7708502e-06
1.254993e-07
-6.8240536e-06
1.1604924e-07
-6.872745e-06
1.0659263e-07
-6.9169351e-06
9.7146508e-08
-6.9566422e-06
8.772719e-08
-6.9918918e-06
7.8350271e-08
-7.022716e-06
6.9030678e-08
-7.0491531e-06
5.978266e-08
-7.0712475e-06
5.0619734e-08
-7.0890493e-06
4.1554751e-08
-7.1026142e-06
3.2599983e-08
-7.1120035e-06
2.376772e-08
-7.1172888e-06
1.5072264e-08
-7.1185731e-06
6.5386475e-09
-7.1159772e-06
-1.8657895e-09
-7.1093065e-06
-1.0298115e-08
-7.0987771e-06
-1.8469802e-08
-7.084495e-06
-2.6460035e-08
-7.0665448e-06
-3.4278795e-08
-7.0450083e-06
-4.1925634e-08
-7.0199677e-06
-4.9398486e-08
-6.9915071e-06
-5.6695107e-08
-6.9597115e-06
-6.381357e-08
-6.9246666e-06
-7.0752505e-08
-6.8864585e-06
-7.7511028e-08
-6.8451732e-06
-8.408873e-08
-6.8008968e-06
-9.0485736e-08
-6.7537148e-06
-9.6702601e-08
-6.7037123e-06
-1.0274024e-07
-6.6509734e-06
-1.0860009e-07
-6.5955814e-06
-1.1428385e-07
-6.5376187e-06
-1.1979363e-07
-6.4771661e-06
-1.251318e-07
-6.4143032e-06
-1.3030108e-07
-6.3491083e-06
-1.3530442e-07
-6.2816579e-06
-1.4014499e-07
-6.2120268e-06
-1.4482625e-07
-6.1402883e-06
-1.4935174e-07
-6.0665135e-06
-1.5372527e-07
-5.9907719e-06
-1.5795072e-07
-5.913131e-06
-1.6203214e-07
-5.8336561e-06
-1.6597365e-07
-5.7524107e-06
-1.6977952e-07
-5.6694562e-06
-1.7345402e-07
-5.5848517e-06
-1.7700156e-07
-5.4986545e-06
-1.8042655e-07
-5.4109196e-06
-1.8373341e-07
-5.3217001e-06
-1.8692659e-07
-5.2310466e-06
-1.9001058e-07
-5.1390079e-06
-1.9298979e-07
-5.0456308e-06
-1.9586868e-07
-4.9509597e-06
-1.9865165e-07
-4.855037e-06
-2.0134308e-07
-4.7579033e-06
-2.0394729e-07
-4.659597e-06
-2.0646852e-07
-4.5601546e-06
-2.0891106e-07
-4.4596104e-06
-2.11279e-07
-4.3579971e-06
-2.1357648e-07
-4.2553454e-06
-2.1580746e-07
-4.1516842e-06
-2.1797594e-07
-4.0470403e-06
-2.2008575e-07
-3.9414392e-06
-2.2214066e-07
-3.8349042e-06
-2.2414438e-07
-3.7274573e-06
-2.2610046e-07
-3.6191186e-06
-2.2801248e-07
-3.5099068e-06
-2.298838e-07
-3.3998389e-06
-2.3171775e-07
-3.2889304e-06
-2.3351756e-07
-3.1771954e-06
-2.3528634e-07
-3.0646465e-06
-2.370271e-07
-2.9512952e-06
-2.3874279e-07
-2.8371512e-06
-2.4043624e-07
-2.7222233e-06
-2.4211012e-07
-2.6065191e-06
-2.4376703e-07
-2.4900448e-06
-2.4540955e-07
-2.3728056e-06
-2.4703998e-07
-2.2548057e-06
-2.4866063e-07
-2.1360481e-06
-2.5027358e-07
-2.0165351e-06
-2.5188086e-07
-1.896268e-06
-2.5348427e-07
-1.7752473e-06
-2.5508547e-07
-1.6534727e-06
-2.5668581e-07
-1.5309435e-06
-2.5828624e-07
-1.4076584e-06
-2.598872e-07
-1.2836159e-06
-2.6148835e-07
-1.1588142e-06
-2.630877e-07
-1.0332511e-06
-2.6468101e-07
-9.0692366e-07
-2.6626023e-07
-7.7982425e-07
-2.6781245e-07
-6.5193397e-07
-2.6932037e-07
-5.2320762e-07
-2.707757e-07
-3.9355791e-07
-2.7223473e-07
-2.6289154e-07
-2.7396596e-07
-1.3135084e-07
-2.7672566e-07
-2.8161978e-07
-3.7623173e-09
1.0038285e-08
-1.4919499e-08
3.0330799e-08
-3.3435425e-08
5.0775316e-08
-5.9242068e-08
7.1348394e-08
-9.230741e-08
9.1876529e-08
-1.325939e-07
1.1224342e-07
-1.8003628e-07
1.3238868e-07
-2.3454632e-07
1.5226598e-07
-2.9601643e-07
1.7183591e-07
-3.6432176e-07
1.9106175e-07
-4.3932171e-07
2.0990763e-07
-5.2086099e-07
2.2833794e-07
-6.0877036e-07
2.4631729e-07
-7.0286721e-07
2.6381066e-07
-8.0295609e-07
2.8078363e-07
-9.0882918e-07
2.9720254e-07
-1.0202668e-06
3.1303469e-07
-1.1370379e-06
3.2824848e-07
-1.2589008e-06
3.4281359e-07
-1.3856034e-06
3.5670107e-07
-1.5168842e-06
3.6988347e-07
-1.6524728e-06
3.8233488e-07
-1.7920918e-06
3.9403066e-07
-1.9354564e-06
4.0494794e-07
-2.0822747e-06
4.150664e-07
-2.2322487e-06
4.2436817e-07
-2.3850753e-06
4.3283751e-07
-2.5404473e-06
4.4046077e-07
-2.6980545e-06
4.4722648e-07
-2.8575842e-06
4.5312544e-07
-3.0187225e-06
4.5815083e-07
-3.1811548e-06
4.6229819e-07
-3.3445669e-06
4.6556552e-07
-3.5086459e-06
4.6795324e-07
-3.6730807e-06
4.6946428e-07
-3.8375636e-06
4.7010393e-07
-4.0017901e-06
4.6987998e-07
-4.1654607e-06
4.6880258e-07
-4.3282811e-06
4.6688422e-07
-4.4899633e-06
4.6413965e-07
-4.6502258e-06
4.6058581e-07
-4.8087951e-06
4.5624173e-07
-4.9654055e-06
4.5112842e-07
-5.1198005e-06
4.4526877e-07
-5.2717327e-06
4.3868741e-07
-5.4209647e-06
4.3141059e-07
-5.5672694e-06
4.2346608e-07
-5.7104305e-06
4.1488293e-07
-5.8502429e-06
4.0569142e-07
-5.9865126e-06
3.9592286e-07
-6.1190576e-06
3.8560948e-07
-6.2477076e-06
3.7478421e-07
-6.3723044e-06
3.6348059e-07
-6.4927017e-06
3.5173254e-07
-6.6087655e-06
3.3957431e-07
-6.7203739e-06
3.2704029e-07
-6.827417e-06
3.1416478e-07
-6.9297969e-06
3.0098203e-07
-7.0274273e-06
2.8752592e-07
-7.1202338e-06
2.7383001e-07
-7.2081533e-06
2.5992724e-07
-7.2911337e-06
2.4584994e-07
-7.3691339e-06
2.3162974e-07
-7.4421231e-06
2.172974e-07
-7.5100807e-06
2.0288277e-07
-7.5729961e-06
1.8841469e-07
-7.6308678e-06
1.7392095e-07
-7.6837034e-06
1.5942827e-07
-7.7315192e-06
1.4496223e-07
-7.7743392e-06
1.3054722e-07
-7.8121954e-06
1.1620652e-07
-7.8451269e-06
1.019622e-07
-7.8731795e-06
8.7835218e-08
-7.8964052e-06
7.3845416e-08
-7.914862e-06
6.0011566e-08
-7.9286138e-06
4.6351836e-08
-7.9377311e-06
3.2885021e-08
-7.9422932e-06
1.9634283e-08
-7.9424049e-06
6.6504356e-09
-7.9380455e-06
-6.2252244e-09
-7.9293978e-06
-1.8945819e-08
-7.9165031e-06
-3.1364532e-08
-7.8994503e-06
-4.3512787e-08
-7.8783347e-06
-5.5394399e-08
-7.8532515e-06
-6.700883e-08
-7.8242962e-06
-7.8353853e-08
-7.7915644e-06
-8.9426864e-08
-7.7551524e-06
-1.0022564e-07
-7.7151564e-06
-1.1074845e-07
-7.6716731e-06
-1.2099436e-07
-7.6247987e-06
-1.309631e-07
-7.5746294e-06
-1.4065507e-07
-7.5212606e-06
-1.500714e-07
-7.464787e-06
-1.592138e-07
-7.4053025e-06
-1.6808463e-07
-7.3428996e-06
-1.7668674e-07
-7.2776697e-06
-1.8502352e-07
-7.2097027e-06
-1.9309881e-07
-7.1390869e-06
-2.0091692e-07
-7.0659088e-06
-2.0848247e-07
-6.9902533e-06
-2.1580052e-07
-6.9122031e-06
-2.2287637e-07
-6.8318393e-06
-2.2971559e-07
-6.7492405e-06
-2.3632407e-07
-6.6644834e-06
-2.4270786e-07
-6.5776423e-06
-2.4887317e-07
-6.4887896e-06
-2.5482639e-07
-6.397995e-06
-2.6057407e-07
-6.3053262e-06
-2.6612282e-07
-6.2108485e-06
-2.7147933e-07
-6.1146246e-06
-2.7665039e-07
-6.0167153e-06
-2.8164275e-07
-5.9171786e-06
-2.8646326e-07
-5.8160705e-06
-2.9111873e-07
-5.7134443e-06
-2.9561593e-07
-5.6093514e-06
-2.9996165e-07
-5.5038405e-06
-3.0416257e-07
-5.3969582e-06
-3.0822537e-07
-5.2887488e-06
-3.1215665e-07
-5.1792544e-06
-3.1596293e-07
-5.0685148e-06
-3.196506e-07
-4.9565679e-06
-3.2322599e-07
-4.843449e-06
-3.2669527e-07
-4.7291919e-06
-3.3006463e-07
-4.6138278e-06
-3.3333998e-07
-4.4973864e-06
-3.3652723e-07
-4.3798949e-06
-3.3963209e-07
-4.2613791e-06
-3.4266017e-07
-4.1418627e-06
-3.456169e-07
-4.0213676e-06
-3.4850763e-07
-3.8999139e-06
-3.5133749e-07
-3.77752e-06
-3.5411157e-07
-3.6542029e-06
-3.5683473e-07
-3.5299775e-06
-3.5951171e-07
-3.4048575e-06
-3.6214708e-07
-3.2788551e-06
-3.6474525e-07
-3.1519807e-06
-3.6731056e-07
-3.0242438e-06
-3.6984704e-07
-2.8956521e-06
-3.7235875e-07
-2.7662123e-06
-3.7484937e-07
-2.6359297e-06
-3.7732259e-07
-2.5048085e-06
-3.7978181e-07
-2.3728517e-06
-3.8223032e-07
-2.2400614e-06
-3.8467117e-07
-2.1064385e-06
-3.8710719e-07
-1.9719831e-06
-3.8954092e-07
-1.8366942e-06
-3.9197464e-07
-1.7005703e-06
-3.9441019e-07
-1.5636087e-06
-3.9684878e-07
-1.4258061e-06
-3.9929095e-07
-1.2871577e-06
-4.0173602e-07
-1.147657e-06
-4.0418172e-07
-1.0072935e-06
-4.0662372e-07
-8.6604988e-07
-4.0905608e-07
-7.2389576e-07
-4.1147447e-07
-5.8078139e-07
-4.1389007e-07
-4.3664626e-07
-4.1636988e-07
-2.9149239e-07
-4.1911983e-07
-1.4562e-07
-4.2259807e-07
-4.2723976e-07
-3.9739776e-09
1.4012262e-08
-1.5795193e-08
4.2152014e-08
-3.540128e-08
7.0381403e-08
-6.2711021e-08
9.8658136e-08
-9.7674489e-08
1.2684e-07
-1.4024163e-07
1.5481056e-07
-1.9034146e-07
1.8248851e-07
-2.4788146e-07
2.0980598e-07
-3.1274891e-07
2.3670336e-07
-3.8481242e-07
2.6312525e-07
-4.6392331e-07
2.8901852e-07
-5.4991679e-07
3.1433143e-07
-6.4261283e-07
3.3901333e-07
-7.4181689e-07
3.6301472e-07
-8.4732056e-07
3.8628731e-07
-9.5890221e-07
4.0878418e-07
-1.0763275e-06
4.3046001e-07
-1.1993502e-06
4.5127117e-07
-1.3277126e-06
4.7117595e-07
-1.4611462e-06
4.9013467e-07
-1.5993726e-06
5.0810989e-07
-1.7421042e-06
5.2506643e-07
-1.889045e-06
5.4097148e-07
-2.0398919e-06
5.557949e-07
-2.1943351e-06
5.6950956e-07
-2.3520584e-06
5.8209147e-07
-2.5127406e-06
5.9351968e-07
-2.6760562e-06
6.0377638e-07
-2.8416766e-06
6.128469e-07
-3.009271e-06
6.207198e-07
-3.1785071e-06
6.2738696e-07
-3.3490525e-06
6.3284361e-07
-3.5205753e-06
6.3708834e-07
-3.6927452e-06
6.4012314e-07
-3.8652343e-06
6.4195339e-07
-4.0377182e-06
6.4258778e-07
-4.2098766e-06
6.4203834e-07
-4.3813943e-06
6.4032035e-07
-4.5519623e-06
6.3745223e-07
-4.7212782e-06
6.3345548e-07
-4.8890469e-06
6.2835454e-07
-5.0549818e-06
6.2217663e-07
-5.2188051e-06
6.1495171e-07
-5.3802485e-06
6.0671214e-07
-5.5390537e-06
5.9749268e-07
-5.6949733e-06
5.8733018e-07
-5.8477707e-06
5.7626349e-07
-5.997221e-06
5.6433319e-07
-6.143111e-06
5.5158142e-07
-6.2852398e-06
5.3805166e-07
-6.4234188e-06
5.2378852e-07
-6.5574721e-06
5.0883753e-07
-6.6872365e-06
4.9324496e-07
-6.8125615e-06
4.7705753e-07
-6.9333095e-06
4.603223e-07
-7.0493556e-06
4.4308643e-07
-7.1605878e-06
4.2539698e-07
-7.2669065e-06
4.0730072e-07
-7.3682245e-06
3.8884398e-07
-7.464467e-06
3.7007247e-07
-7.5555709e-06
3.5103109e-07
-7.6414847e-06
3.3176383e-07
-7.7221686e-06
3.1231361e-07
-7.7975934e-06
2.9272217e-07
-7.8677406e-06
2.7302995e-07
-7.9326019e-06
2.5327597e-07
-7.9921787e-06
2.3349781e-07
-8.0464819e-06
2.1373148e-07
-8.0955311e-06
1.9401142e-07
-8.1393543e-06
1.743704e-07
-8.1779874e-06
1.5483959e-07
-8.2114736e-06
1.3544847e-07
-8.2398633e-06
1.1622486e-07
-8.2632128e-06
9.7194972e-08
-8.2815847e-06
7.8383426e-08
-8.2950466e-06
5.981375e-08
-8.3036709e-06
4.1509337e-08
-8.3075339e-06
2.3497295e-08
-8.306712e-06
5.8284828e-09
-8.3012693e-06
-1.1667843e-08
-8.2913589e-06
-2.8856226e-08
-8.2770456e-06
-4.5677845e-08
-8.2584178e-06
-6.2140567e-08
-8.2355693e-06
-7.8242957e-08
-8.2085971e-06
-9.3980981e-08
-8.1776006e-06
-1.093504e-07
-8.14268e-06
-1.2434746e-07
-8.1039363e-06
-1.3896926e-07
-8.061471e-06
-1.5321377e-07
-8.0153855e-06
-1.6707995e-07
-7.9657808e-06
-1.8056775e-07
-7.9127578e-06
-1.9367805e-07
-7.8564165e-06
-2.0641266e-07
-7.7968562e-06
-2.1877414e-07
-7.7341749e-06
-2.3076592e-07
-7.6684695e-06
-2.4239212e-07
-7.5998354e-06
-2.5365758e-07
-7.5283666e-06
-2.645677e-07
-7.454155e-06
-2.7512845e-07
-7.3772911e-06
-2.8534636e-07
-7.2978633e-06
-2.952284e-07
-7.2159577e-06
-3.0478192e-07
-7.1316587e-06
-3.140146e-07
-7.0450482e-06
-3.2293458e-07
-6.9562059e-06
-3.3155016e-07
-6.8652092e-06
-3.3986989e-07
-6.7721331e-06
-3.479025e-07
-6.6770502e-06
-3.5565697e-07
-6.5800307e-06
-3.6314232e-07
-6.4811423e-06
-3.7036774e-07
-6.3804503e-06
-3.7734244e-07
-6.2780173e-06
-3.8407571e-07
-6.1739038e-06
-3.9057676e-07
-6.0681676e-06
-3.9685497e-07
-5.960864e-06
-4.0291949e-07
-5.8520461e-06
-4.0877957e-07
-5.7417643e-06
-4.1444433e-07
-5.6300668e-06
-4.1992285e-07
-5.5169995e-06
-4.2522402e-07
-5.4026057e-06
-4.3035672e-07
-5.2869266e-06
-4.3532969e-07
-5.1700011e-06
-4.4015142e-07
-5.051866e-06
-4.4483039e-07
-4.9325557e-06
-4.4937491e-07
-4.8121027e-06
-4.5379301e-07
-4.6905372e-06
-4.5809268e-07
-4.5678876e-06
-4.6228173e-07
-4.4441801e-06
-4.6636769e-07
-4.3194391e-06
-4.7035794e-07
-4.1936869e-06
-4.7425971e-07
-4.0669444e-06
-4.7808001e-07
-3.9392304e-06
-4.8182562e-07
-3.8105619e-06
-4.8550321e-07
-3.6809545e-06
-4.8911913e-07
-3.5504219e-06
-4.9267966e-07
-3.4189764e-06
-4.9619073e-07
-3.2866289e-06
-4.9965813e-07
-3.1533885e-06
-5.0308745e-07
-3.0192632e-06
-5.0648406e-07
-2.8842595e-06
-5.0985305e-07
-2.7483827e-06
-5.1319938e-07
-2.6116367e-06
-5.1652777e-07
-2.4740245e-06
-5.1984253e-07
-2.3355478e-06
-5.2314796e-07
-2.1962071e-06
-5.2644791e-07
-2.0560019e-06
-5.2974601e-07
-1.9149311e-06
-5.3304551e-07
-1.772992e-06
-5.363493e-07
-1.6301811e-06
-5.3965965e-07
-1.4864937e-06
-5.4297839e-07
-1.3419232e-06
-5.4630652e-07
-1.1964606e-06
-5.496443e-07
-1.0500928e-06
-5.5299149e-07
-9.0280056e-07
-5.5634833e-07
-7.5455548e-07
-5.5971958e-07
-6.0532143e-07
-5.6312411e-07
-4.5507302e-07
-5.666183e-07
-3.0386264e-07
-5.7033021e-07
-1.5197143e-07
-5.7448929e-07
-5.7921121e-07
-4.0535796e-09
1.8065842e-08
-1.6154408e-08
5.4252843e-08
-3.6241867e-08
9.0468861e-08
-6.4240147e-08
1.2665642e-07
-1.0008913e-07
1.6268898e-07
-1.4372682e-07
1.9844825e-07
-1.9507499e-07
2.3383669e-07
-2.5403658e-07
2.6876756e-07
-3.2049524e-07
3.0316202e-07
-3.9431615e-07
3.3694615e-07
-4.7534685e-07
3.7004923e-07
-5.6341827e-07
4.0240285e-07
-6.5834549e-07
4.3394055e-07
-7.5992851e-07
4.6459774e-07
-8.6795296e-07
4.9431175e-07
-9.8219069e-07
5.2302192e-07
-1.1024005e-06
5.5066984e-07
-1.2283288e-06
5.7719947e-07
-1.3597102e-06
6.0255737e-07
-1.4962684e-06
6.2669286e-07
-1.6377168e-06
6.4955824e-07
-1.7837592e-06
6.7110889e-07
-1.9340912e-06
6.9130349e-07
-2.0884006e-06
7.1010426e-07
-2.2463682e-06
7.2747716e-07
-2.4076688e-06
7.433921e-07
-2.5719721e-06
7.5782298e-07
-2.7389435e-06
7.7074776e-07
-2.9082452e-06
7.8214859e-07
-3.0795372e-06
7.9201179e-07
-3.2524783e-06
8.0032802e-07
-3.4267269e-06
8.0709226e-07
-3.6019424e-06
8.1230386e-07
-3.7777858e-06
8.159665e-07
-3.9539206e-06
8.1808822e-07
-4.1300142e-06
8.1868135e-07
-4.3057382e-06
8.177624e-07
-4.48077e-06
8.1535208e-07
-4.6547928e-06
8.1147504e-07
-4.8274972e-06
8.0615987e-07
-4.9985815e-06
7.9943887e-07
-5.1677527e-06
7.9134787e-07
-5.3347271e-06
7.8192605e-07
-5.4992307e-06
7.7121575e-07
-5.6610002e-06
7.592622e-07
-5.8197834e-06
7.4611332e-07
-5.9753393e-06
7.3181945e-07
-6.1274393e-06
7.1643313e-07
-6.2758666e-06
7.0000876e-07
-6.4204174e-06
6.8260243e-07
-6.5609004e-06
6.6427156e-07
-6.6971376e-06
6.4507473e-07
-6.828964e-06
6.2507129e-07
-6.9562277e-06
6.0432121e-07
-7.0787901e-06
5.8288473e-07
-7.1965258e-06
5.6082218e-07
-7.3093225e-06
5.3819366e-07
-7.4170807e-06
5.1505891e-07
-7.5197137e-06
4.9147696e-07
-7.6171473e-06
4.6750603e-07
-7.7093194e-06
4.4320324e-07
-7.7961801e-06
4.1862451e-07
-7.8776908e-06
3.9382434e-07
-7.9538243e-06
3.6885565e-07
-8.024564e-06
3.4376968e-07
-8.0899039e-06
3.1861584e-07
-8.1498477e-06
2.9344162e-07
-8.2044088e-06
2.6829251e-07
-8.2536093e-06
2.4321189e-07
-8.2974799e-06
2.1824105e-07
-8.3360594e-06
1.9341905e-07
-8.3693937e-06
1.6878282e-07
-8.3975359e-06
1.4436703e-07
-8.4205451e-06
1.202042e-07
-8.4384865e-06
9.6324828e-08
-8.4514305e-06
7.2757693e-08
-8.4594523e-06
4.9531162e-08
-8.4626328e-06
2.6677836e-08
-8.46107e-06
4.2656839e-09
-8.4548127e-06
-1.7925152e-08
-8.4440033e-06
-3.9665651e-08
-8.4287248e-06
-6.0956342e-08
-8.4090692e-06
-8.1796179e-08
-8.3851331e-06
-1.0217904e-07
-8.3570161e-06
-1.22098e-07
-8.3248196e-06
-1.4154688e-07
-8.2886464e-06
-1.605207e-07
-8.2485998e-06
-1.7901584e-07
-8.2047837e-06
-1.9702989e-07
-8.1573018e-06
-2.1456184e-07
-8.1062577e-06
-2.3161188e-07
-8.0517543e-06
-2.4818142e-07
-7.993894e-06
-2.6427297e-07
-7.932778e-06
-2.7989011e-07
-7.8685065e-06
-2.9503741e-07
-7.8011783e-06
-3.0972036e-07
-7.7308906e-06
-3.2394526e-07
-7.6577391e-06
-3.3771922e-07
-7.5818175e-06
-3.5104998e-07
-7.5032179e-06
-3.63946e-07
-7.42203e-06
-3.7641628e-07
-7.3383417e-06
-3.8847026e-07
-7.2522384e-06
-4.0011786e-07
-7.1638035e-06
-4.1136951e-07
-7.0731178e-06
-4.2223585e-07
-6.9802599e-06
-4.3272781e-07
-6.8853058e-06
-4.4285661e-07
-6.7883291e-06
-4.5263364e-07
-6.6894009e-06
-4.6207049e-07
-6.5885898e-06
-4.7117881e-07
-6.4859619e-06
-4.7997034e-07
-6.3815807e-06
-4.8845691e-07
-6.2755072e-06
-4.9665032e-07
-6.1677998e-06
-5.0456232e-07
-6.0585146e-06
-5.1220474e-07
-5.9477049e-06
-5.1958919e-07
-5.8354219e-06
-5.2672734e-07
-5.7217142e-06
-5.336306e-07
-5.6066278e-06
-5.4031039e-07
-5.4902067e-06
-5.4677787e-07
-5.3724922e-06
-5.5304414e-07
-5.2535237e-06
-5.5912002e-07
-5.1333379e-06
-5.6501619e-07
-5.0119696e-06
-5.7074316e-07
-4.8894514e-06
-5.7631118e-07
-4.7658138e-06
-5.8173035e-07
-4.641085e-06
-5.8701049e-07
-4.5152915e-06
-5.9216118e-07
-4.3884576e-06
-5.9719178e-07
-4.260606e-06
-6.0211137e-07
-4.1317571e-06
-6.069289e-07
-4.0019297e-06
-6.1165296e-07
-3.8711411e-06
-6.1629188e-07
-3.7394064e-06
-6.208538e-07
-3.6067395e-06
-6.2534655e-07
-3.4731525e-06
-6.2977773e-07
-3.338656e-06
-6.3415464e-07
-3.2032591e-06
-6.3848432e-07
-3.0669696e-06
-6.427736e-07
-2.9297937e-06
-6.4702898e-07
-2.7917364e-06
-6.5125664e-07
-2.6528016e-06
-6.5546257e-07
-2.5129917e-06
-6.5965239e-07
-2.3723082e-06
-6.6383147e-07
-2.2307512e-06
-6.6800484e-07
-2.0883201e-06
-6.7217719e-07
-1.9450127e-06
-6.7635287e-07
-1.8008262e-06
-6.8053583e-07
-1.6557562e-06
-6.8472962e-07
-1.5097972e-06
-6.8893737e-07
-1.362942e-06
-6.9316176e-07
-1.215181e-06
-6.9740537e-07
-1.0665014e-06
-7.0167097e-07
-9.1688686e-07
-7.0596293e-07
-7.6631664e-07
-7.1028976e-07
-6.1477056e-07
-7.146702e-07
-4.6224547e-07
-7.191434e-07
-3.0879737e-07
-7.237783e-07
-1.5461317e-07
-7.2867348e-07
-7.3382436e-07
-4.0879199e-09
2.2153762e-08
-1.6320691e-08
6.6485614e-08
-3.6649424e-08
1.1079759e-07
-6.5009536e-08
1.5501653e-07
-1.013373e-07
1.9901674e-07
-1.4556249e-07
2.4267344e-07
-1.9760045e-07
2.8587465e-07
-2.5734956e-07
3.2851667e-07
-3.2469021e-07
3.7050268e-07
-3.9948491e-07
4.1174086e-07
-4.815788e-07
4.5214312e-07
-5.7080028e-07
4.9162433e-07
-6.6696173e-07
5.30102e-07
-7.6986016e-07
5.6749617e-07
-8.7927787e-07
6.0372946e-07
-9.9498316e-07
6.3872721e-07
-1.1167309e-06
6.724176e-07
-1.2442634e-06
7.0473195e-07
-1.3773108e-06
7.3560481e-07
-1.5155923e-06
7.649743e-07
-1.6588163e-06
7.9278224e-07
-1.8066818e-06
8.1897442e-07
-1.9588791e-06
8.4350078e-07
-2.1150905e-06
8.6631564e-07
-2.2749913e-06
8.8737795e-07
-2.4382506e-06
9.0665146e-07
-2.6045325e-06
9.2410487e-07
-2.7734967e-06
9.3971192e-07
-2.9447996e-06
9.534515e-07
-3.1180955e-06
9.6530772e-07
-3.2930375e-06
9.7527005e-07
-3.4692785e-06
9.8333323e-07
-3.6464721e-06
9.8949743e-07
-3.8242737e-06
9.9376813e-07
-4.0023416e-06
9.9615615e-07