/*--------------------------------*- C++ -*----------------------------------*\
| =========                 |                                                 |
| \\      /  F ield         | OpenFOAM: The Open Source CFD Toolbox           |
|  \\    /   O peration     | Version:  2306                                  |
|   \\  /    A nd           | Website:  www.openfoam.com                      |
|    \\/     M anipulation  |                                                 |
\*---------------------------------------------------------------------------*/
FoamFile
{
    version     2.0;
    format      ascii;
    arch        "LSB;label=32;scalar=64";
    class       volVectorField;
    location    "0.26";
    object      U;
}
// * * * * * * * * * * * * * * * * * * * * * * * * * * * * * * * * * * * * * //

dimensions      [0 1 -1 0 0 0 0];

internalField   nonuniform List<vector> 
51200
(
(-1.472519e-05 -7.3254241e-07 5.0938976e-20)
(-3.9466087e-05 5.005291e-06 -4.8252348e-21)
(-6.908665e-05 5.6815218e-06 -2.0355014e-20)
(-9.8632394e-05 6.7468233e-06 1.1668202e-20)
(-0.00012996364 7.3377789e-06 2.496145e-20)
(-0.00016142937 7.5446265e-06 -5.8534827e-21)
(-0.00019276852 7.6394793e-06 -4.3257343e-22)
(-0.00022390984 7.6772881e-06 1.9363533e-20)
(-0.00025481739 7.6834699e-06 1.4761666e-20)
(-0.00028546809 7.672025e-06 -2.9353201e-20)
(-0.000315846 7.6495087e-06 -2.7488227e-20)
(-0.00034593671 7.6185356e-06 4.6039471e-20)
(-0.00037572474 7.5800652e-06 1.9142458e-20)
(-0.00040519304 7.5342797e-06 -3.6724722e-20)
(-0.00043432296 7.4808866e-06 -2.2416379e-20)
(-0.00046309458 7.4191892e-06 1.9818399e-20)
(-0.00049148679 7.3480679e-06 4.9180306e-20)
(-0.00051947756 7.2657991e-06 -7.0253942e-21)
(-0.00054704402 7.1698444e-06 -4.4517077e-20)
(-0.0005741629 7.056663e-06 -3.8319323e-21)
(-0.00060081332 6.9219272e-06 2.4002829e-21)
(-0.00062698675 6.7646797e-06 1.4045743e-20)
(-0.0006526691 6.6065281e-06 6.7829167e-20)
(-0.00067782332 6.4661443e-06 1.1592517e-19)
(-0.00070241384 6.3418482e-06 1.4600238e-19)
(-0.00072641754 6.2283641e-06 -1.045674e-19)
(-0.00074981485 6.1214047e-06 -3.6001486e-19)
(-0.00077258671 6.0180419e-06 -9.2067454e-20)
(-0.00079471413 5.9163094e-06 1.4714664e-19)
(-0.00081617825 5.8148896e-06 1.8701341e-19)
(-0.00083696071 5.7128967e-06 1.4110454e-19)
(-0.0008570438 5.6097054e-06 -5.0036088e-20)
(-0.00087641062 5.5048835e-06 -2.2117786e-20)
(-0.00089504525 5.3981383e-06 -1.8008738e-19)
(-0.00091293282 5.2892531e-06 -1.824551e-19)
(-0.00093005958 5.1781035e-06 2.5070257e-19)
(-0.000946413 5.0646151e-06 -1.1478661e-21)
(-0.00096198184 4.9487646e-06 -5.0284688e-19)
(-0.00097675614 4.8305731e-06 1.6089504e-19)
(-0.00099072734 4.7100906e-06 6.9855475e-19)
(-0.0010038883 4.5874043e-06 1.2604349e-19)
(-0.0010162332 4.4626241e-06 -3.2976256e-19)
(-0.0010277577 4.3358906e-06 -3.4514758e-19)
(-0.0010384591 4.207361e-06 -2.2162695e-19)
(-0.0010483359 4.0772074e-06 2.4598055e-19)
(-0.0010573881 3.9456298e-06 7.9419563e-19)
(-0.0010656174 3.8128286e-06 -8.6520757e-20)
(-0.0010730265 3.6790255e-06 -3.2494838e-19)
(-0.0010796199 3.5444498e-06 -2.5890856e-19)
(-0.0010854032 3.4093349e-06 -8.8910166e-19)
(-0.0010903835 3.273922e-06 4.4549367e-19)
(-0.0010945691 3.1384483e-06 6.377003e-19)
(-0.0010979697 3.0031641e-06 3.1518556e-21)
(-0.001100596 2.8683141e-06 2.926838e-19)
(-0.00110246 2.7341383e-06 -7.4574093e-19)
(-0.0011035747 2.6008755e-06 -5.8060686e-19)
(-0.0011039542 2.4687611e-06 6.2659587e-19)
(-0.0011036135 2.3380292e-06 2.159424e-19)
(-0.0011025685 2.2089004e-06 -9.5357318e-20)
(-0.001100836 2.0815893e-06 1.0108712e-19)
(-0.0010984334 1.9563e-06 -4.738581e-20)
(-0.0010953788 1.8332381e-06 3.6004893e-20)
(-0.0010916912 1.7125905e-06 -3.21368e-20)
(-0.0010873898 1.5945441e-06 -3.2384185e-19)
(-0.0010824943 1.4792691e-06 -4.8050469e-19)
(-0.001077025 1.3669322e-06 2.3399905e-20)
(-0.0010710024 1.2576941e-06 8.5062169e-19)
(-0.0010644471 1.1517167e-06 -1.0870601e-20)
(-0.0010573802 1.0491416e-06 -3.4619252e-19)
(-0.0010498228 9.5013012e-07 6.0049823e-19)
(-0.001041796 8.5484317e-07 -9.3990316e-20)
(-0.0010333211 7.6346034e-07 -4.2325204e-19)
(-0.0010244193 6.7618867e-07 1.2280776e-19)
(-0.0010151119 5.9327276e-07 1.8745013e-19)
(-0.0010054201 5.1504142e-07 2.1742692e-19)
(-0.00099536514 4.4200886e-07 -4.1798457e-19)
(-0.00098496847 3.7504423e-07 -4.1050885e-19)
(-0.00097425118 3.1549604e-07 3.526178e-19)
(-0.00096323141 2.6412933e-07 4.5908769e-19)
(-0.00095191872 2.1796302e-07 -2.0442963e-19)
(-0.00094030569 1.7190926e-07 -7.3071798e-19)
(-0.00092844259 6.9705673e-08 2.9447494e-19)
(-0.00091637987 -4.2188572e-08 5.6364908e-19)
(-0.00090411249 -1.502958e-07 5.3903441e-21)
(-0.000891651 -2.5222073e-07 1.6399387e-19)
(-0.00087901098 -3.4761833e-07 -2.3413683e-19)
(-0.00086620854 -4.3689974e-07 1.2683431e-20)
(-0.00085325946 -5.206262e-07 -1.4119093e-21)
(-0.00084017899 -5.9928125e-07 -4.0256976e-19)
(-0.00082698181 -6.7326713e-07 1.3089018e-19)
(-0.00081368201 -7.4289768e-07 -2.6797086e-19)
(-0.00080029309 -8.0844069e-07 -1.790071e-19)
(-0.000786828 -8.7011204e-07 4.1794643e-19)
(-0.0007732991 -9.2811544e-07 2.2030082e-19)
(-0.00075971821 -9.8262045e-07 -6.2117989e-20)
(-0.0007460966 -1.0337891e-06 -4.1694967e-19)
(-0.000732445 -1.0817667e-06 3.4264951e-20)
(-0.0007187736 -1.1267027e-06 3.2552048e-19)
(-0.00070509208 -1.1687263e-06 2.0495512e-19)
(-0.00069140958 -1.2079665e-06 -9.7371847e-20)
(-0.00067773478 -1.2445425e-06 -4.7428717e-19)
(-0.00066407584 -1.2785812e-06 1.194136e-19)
(-0.00065044043 -1.3101944e-06 2.15327e-19)
(-0.00063683578 -1.3394929e-06 1.2787708e-19)
(-0.00062326865 -1.3665832e-06 -2.3815666e-20)
(-0.00060974536 -1.3915708e-06 -4.7326775e-19)
(-0.00059627181 -1.4145571e-06 1.0952303e-19)
(-0.00058285347 -1.4356396e-06 3.0729801e-19)
(-0.00056949543 -1.454926e-06 5.3762923e-20)
(-0.00055620238 -1.4725086e-06 2.8996506e-20)
(-0.00054297864 -1.4884856e-06 -3.4011613e-19)
(-0.00052982818 -1.5029387e-06 -1.329142e-19)
(-0.00051675461 -1.5159696e-06 2.1482038e-19)
(-0.00050376122 -1.5276468e-06 6.174342e-20)
(-0.00049085099 -1.5380594e-06 3.8173519e-20)
(-0.00047802657 -1.5472809e-06 -6.422519e-20)
(-0.00046529034 -1.555379e-06 1.0739607e-20)
(-0.00045264441 -1.5624329e-06 9.4271332e-20)
(-0.00044009063 -1.5685024e-06 -8.1977669e-21)
(-0.00042763056 -1.5736565e-06 2.4992164e-20)
(-0.00041526556 -1.5779563e-06 -8.4008339e-20)
(-0.00040299675 -1.5814531e-06 -2.0949534e-20)
(-0.00039082504 -1.5842137e-06 8.7403683e-20)
(-0.00037875113 -1.5862836e-06 5.6122641e-20)
(-0.00036677554 -1.5877148e-06 -1.1018868e-20)
(-0.00035489859 -1.5885577e-06 -1.7509396e-19)
(-0.00034312044 -1.5888554e-06 -3.8979465e-20)
(-0.00033144108 -1.5886506e-06 1.2670277e-19)
(-0.00031986038 -1.5879939e-06 5.6584775e-20)
(-0.00030837803 -1.5869114e-06 -3.874172e-20)
(-0.0002969936 -1.5854469e-06 -8.2218477e-20)
(-0.00028570655 -1.5836334e-06 1.2273219e-20)
(-0.0002745162 -1.5815099e-06 4.295614e-20)
(-0.00026342179 -1.5790994e-06 -2.8622411e-20)
(-0.00025242243 -1.5764358e-06 -7.2079952e-20)
(-0.00024151717 -1.5735494e-06 -9.2509198e-21)
(-0.00023070495 -1.5704569e-06 7.769272e-20)
(-0.00021998465 -1.5671907e-06 3.1096037e-20)
(-0.00020935508 -1.5637697e-06 2.6275827e-21)
(-0.00019881497 -1.5602179e-06 -5.4970832e-21)
(-0.000188363 -1.5565515e-06 -3.1686468e-20)
(-0.00017799782 -1.552791e-06 2.6758405e-20)
(-0.000167718 -1.5489501e-06 1.5496079e-20)
(-0.00015752211 -1.5450432e-06 -7.1498301e-21)
(-0.00014740867 -1.5410857e-06 1.5146516e-20)
(-0.00013737619 -1.5370849e-06 -5.2060794e-20)
(-0.00012742316 -1.5330453e-06 -2.0464019e-20)
(-0.0001175481 -1.5289672e-06 5.437122e-20)
(-0.00010774955 -1.5248349e-06 2.5506304e-20)
(-9.8026154e-05 -1.5206038e-06 -1.6482317e-20)
(-8.8376754e-05 -1.5161698e-06 -3.7618961e-20)
(-7.8800591e-05 -1.5112618e-06 -8.7673607e-21)
(-6.9297785e-05 -1.5052558e-06 2.6268356e-20)
(-5.9870366e-05 -1.4966582e-06 8.84528e-21)
(-5.0524367e-05 -1.482145e-06 -6.5023229e-21)
(-4.1273539e-05 -1.4552721e-06 -1.0404044e-20)
(-3.2144202e-05 -1.4081115e-06 -3.5485722e-21)
(-2.3172628e-05 -1.3540091e-06 4.481264e-21)
(-1.430308e-05 -1.4794107e-06 8.1184243e-22)
(-4.930093e-06 -2.4265725e-06 -4.409382e-21)
(-4.8480938e-05 9.7372522e-05 5.4772992e-20)
(-0.00011345024 0.00010670912 -9.8459965e-21)
(-0.00018821659 0.00010973197 -6.1910887e-22)
(-0.00026168426 0.00011299 5.1454878e-20)
(-0.0003380688 0.00011479814 4.1115683e-20)
(-0.0004145967 0.00011551305 -7.5467514e-21)
(-0.00049088276 0.00011570452 5.8532242e-20)
(-0.00056679452 0.00011559812 3.9715831e-20)
(-0.00064221945 0.00011530001 -2.6121173e-20)
(-0.00071705491 0.0001148665 -1.2278244e-20)
(-0.00079121557 0.0001143274 1.0653328e-20)
(-0.00086462629 0.00011369822 4.1831891e-20)
(-0.00093721689 0.00011298735 8.7123927e-20)
(-0.0010089198 0.00011219949 1.2431987e-19)
(-0.0010796689 0.00011133734 4.9848085e-20)
(-0.0011493996 0.00011040241 5.3748995e-20)
(-0.0012180481 0.0001093954 1.6140901e-19)
(-0.0012855521 0.00010831633 2.6307664e-20)
(-0.0013518505 0.00010716456 -1.8347828e-19)
(-0.0014168842 0.00010593879 -1.2672038e-19)
(-0.0014805933 0.00010463728 1.1324836e-21)
(-0.0015429075 0.0001032607 5.8938682e-20)
(-0.0016037603 0.00010182482 1.3533243e-19)
(-0.0016631066 0.00010034474 2.5865653e-19)
(-0.0017209045 9.8822021e-05 1.7297997e-19)
(-0.0017771052 9.7254611e-05 -3.6408177e-19)
(-0.0018316603 9.564092e-05 -4.8755859e-19)
(-0.0018845234 9.3980458e-05 -1.8510017e-19)
(-0.0019356514 9.227357e-05 -1.0153903e-19)
(-0.0019850039 9.0521229e-05 4.969002e-19)
(-0.0020325434 8.8724883e-05 6.4143548e-19)
(-0.0020782357 8.688629e-05 -2.8438768e-19)
(-0.0021220495 8.5007493e-05 -6.0943066e-19)
(-0.0021639566 8.3090757e-05 -2.5182684e-19)
(-0.0022039321 8.1138505e-05 3.9211173e-19)
(-0.0022419542 7.9153345e-05 3.5737244e-19)
(-0.0022780046 7.7138004e-05 -5.3102886e-19)
(-0.0023120684 7.5095332e-05 -8.1326579e-19)
(-0.0023441339 7.3028281e-05 6.5049854e-19)
(-0.002374193 7.093987e-05 8.9961889e-19)
(-0.0024022409 6.8833182e-05 -1.045372e-18)
(-0.0024282765 6.6711364e-05 -4.0578029e-19)
(-0.0024523018 6.4577583e-05 1.4391143e-18)
(-0.0024743223 6.2435018e-05 1.853842e-18)
(-0.0024943468 6.0286856e-05 5.3119724e-21)
(-0.0025123872 5.8136272e-05 -2.9216403e-18)
(-0.0025284587 5.5986411e-05 -1.7105494e-18)
(-0.0025425797 5.3840388e-05 1.3888257e-18)
(-0.0025547712 5.1701262e-05 1.3718787e-18)
(-0.0025650574 4.9572022e-05 -7.6501201e-19)
(-0.0025734651 4.7455599e-05 -1.2794007e-18)
(-0.0025800237 4.5354814e-05 1.3275137e-18)
(-0.002584765 4.327242e-05 1.7982644e-18)
(-0.0025877233 4.1211038e-05 -2.527728e-19)
(-0.002588935 3.9173192e-05 -1.1433841e-18)
(-0.0025884385 3.7161291e-05 -1.2747632e-18)
(-0.002586274 3.5177598e-05 -1.3311085e-19)
(-0.0025824837 3.3224265e-05 1.4275708e-18)
(-0.0025771109 3.1303293e-05 5.4439232e-19)
(-0.0025702007 2.9416548e-05 -1.3970208e-18)
(-0.0025617992 2.7565752e-05 -5.2039099e-19)
(-0.0025519535 2.5752495e-05 1.4835011e-18)
(-0.0025407119 2.3978204e-05 4.2798796e-19)
(-0.002528123 2.2244185e-05 -1.7199155e-18)
(-0.0025142365 2.0551584e-05 -9.5199717e-19)
(-0.002499102 1.8901416e-05 1.0033822e-18)
(-0.0024827699 1.7294571e-05 1.164669e-18)
(-0.0024652903 1.5731804e-05 3.2216546e-19)
(-0.0024467137 1.4213759e-05 -6.091192e-19)
(-0.0024270903 1.2740987e-05 -1.3108623e-18)
(-0.0024064701 1.1313958e-05 1.5151196e-19)
(-0.0023849029 9.9330923e-06 9.5849451e-19)
(-0.0023624381 8.5987688e-06 -3.0362076e-20)
(-0.0023391246 7.3113424e-06 1.7108373e-19)
(-0.0023150107 6.0711664e-06 4.9553123e-19)
(-0.0022901441 4.878676e-06 1.4061599e-19)
(-0.0022645716 3.7345551e-06 -7.5378175e-19)
(-0.0022383391 2.6394522e-06 -8.011715e-19)
(-0.0022114917 1.5906002e-06 1.8947518e-19)
(-0.0021840669 5.7410773e-07 3.4624504e-19)
(-0.0021561372 -4.4223205e-07 1.9978805e-20)
(-0.0021277258 -1.4525745e-06 2.0838135e-19)
(-0.0020988333 -2.4215239e-06 2.84081e-19)
(-0.0020695187 -3.3438247e-06 -5.2502485e-19)
(-0.0020398277 -4.220529e-06 -6.5252642e-20)
(-0.0020097989 -5.0535485e-06 5.2252876e-19)
(-0.001979468 -5.8448701e-06 -4.0977235e-19)
(-0.0019488691 -6.5963147e-06 1.65937e-19)
(-0.0019180347 -7.3094908e-06 2.5400228e-19)
(-0.0018869963 -7.9858785e-06 -4.5475635e-19)
(-0.0018557837 -8.6268443e-06 -3.4538404e-19)
(-0.0018244256 -9.2336991e-06 -2.0470252e-19)
(-0.0017929495 -9.8076944e-06 4.081955e-19)
(-0.0017613816 -1.0350059e-05 1.8752101e-19)
(-0.0017297467 -1.0861978e-05 -1.5358408e-19)
(-0.0016980686 -1.1344621e-05 -3.8318794e-20)
(-0.0016663697 -1.1799128e-05 6.6834552e-20)
(-0.0016346715 -1.222663e-05 3.3955867e-19)
(-0.0016029939 -1.2628227e-05 -1.3276538e-19)
(-0.0015713559 -1.300499e-05 -4.9022206e-19)
(-0.0015397756 -1.3357981e-05 -7.4554906e-20)
(-0.0015082697 -1.368824e-05 3.5661263e-19)
(-0.0014768539 -1.3996778e-05 3.3914197e-19)
(-0.001445543 -1.4284588e-05 -4.053991e-20)
(-0.0014143507 -1.4552626e-05 -3.5004699e-19)
(-0.0013832898 -1.480184e-05 -2.8947152e-19)
(-0.0013523722 -1.5033154e-05 1.9258214e-19)
(-0.0013216088 -1.5247443e-05 5.3472959e-19)
(-0.0012910098 -1.5445576e-05 5.2894376e-20)
(-0.0012605843 -1.5628384e-05 -3.9811418e-19)
(-0.001230341 -1.5796671e-05 -1.6232729e-19)
(-0.0012002874 -1.5951207e-05 -7.6993101e-20)
(-0.0011704306 -1.6092766e-05 3.2652719e-19)
(-0.0011407767 -1.6222064e-05 3.9974838e-19)
(-0.0011113315 -1.6339808e-05 -2.3948068e-19)
(-0.0010820999 -1.6446681e-05 -3.6444969e-19)
(-0.0010530861 -1.6543322e-05 -6.4862747e-20)
(-0.0010242941 -1.6630369e-05 3.3952814e-19)
(-0.00099572683 -1.670843e-05 1.2369008e-19)
(-0.00096738713 -1.6778078e-05 -4.03297e-19)
(-0.00093927714 -1.6839878e-05 -1.256399e-19)
(-0.00091139856 -1.6894349e-05 3.4665669e-19)
(-0.00088375265 -1.6942017e-05 2.8738351e-19)
(-0.00085634022 -1.6983361e-05 -1.6287158e-19)
(-0.00082916172 -1.7018847e-05 -4.2930399e-19)
(-0.0008022172 -1.704893e-05 -4.7800826e-20)
(-0.00077550635 -1.7074028e-05 2.9513566e-19)
(-0.00074902855 -1.7094545e-05 1.6973996e-19)
(-0.00072278286 -1.7110882e-05 -5.8903688e-20)
(-0.00069676803 -1.712338e-05 -2.1174487e-19)
(-0.00067098257 -1.7132406e-05 -7.7837067e-20)
(-0.00064542472 -1.7138285e-05 2.2990516e-19)
(-0.00062009247 -1.7141338e-05 2.097937e-19)
(-0.00059498363 -1.7141853e-05 -8.6669686e-20)
(-0.00057009578 -1.714011e-05 -2.8448974e-19)
(-0.00054542632 -1.7136385e-05 -4.2687458e-20)
(-0.00052097249 -1.7130907e-05 2.0044708e-19)
(-0.00049673136 -1.7123926e-05 8.5866856e-20)
(-0.00047269989 -1.7115657e-05 -2.788357e-20)
(-0.00044887488 -1.7106307e-05 -6.03452e-20)
(-0.00042525303 -1.7096062e-05 -2.1256599e-20)
(-0.00040183095 -1.7085103e-05 2.3529784e-20)
(-0.00037860517 -1.7073587e-05 4.2434742e-20)
(-0.00035557212 -1.7061664e-05 -2.6819511e-20)
(-0.00033272821 -1.7049461e-05 -8.0902875e-20)
(-0.00031006979 -1.703708e-05 -1.6933808e-20)
(-0.00028759321 -1.7024607e-05 6.1313225e-20)
(-0.00026529482 -1.7012075e-05 7.4124619e-20)
(-0.00024317101 -1.6999445e-05 -2.2827588e-20)
(-0.00022121831 -1.6986566e-05 -8.1870454e-20)
(-0.00019943343 -1.6973028e-05 -8.3644843e-21)
(-0.00017781344 -1.6957932e-05 4.7291452e-20)
(-0.000156356 -1.6939373e-05 3.0612456e-20)
(-0.00013505963 -1.6913468e-05 -1.2394842e-20)
(-0.00011392388 -1.6872934e-05 -2.6643447e-20)
(-9.2948028e-05 -1.6806616e-05 -3.3833164e-21)
(-7.2124949e-05 -1.6707737e-05 1.2056366e-20)
(-5.1424905e-05 -1.6612105e-05 7.3295485e-21)
(-3.0781994e-05 -1.6704944e-05 -1.6044369e-21)
(-1.0196398e-05 -1.7467903e-05 -2.9563098e-21)
(-7.085904e-05 0.00028735188 -8.651319e-20)
(-0.00016126972 0.00029634123 -3.2257559e-20)
(-0.00026410023 0.0003006755 -3.9618138e-20)
(-0.00036397715 0.00030457295 -5.7886694e-21)
(-0.00046700454 0.00030672131 -9.6301293e-21)
(-0.00056993641 0.00030746394 -5.5257376e-20)
(-0.00067248244 0.00030736471 4.3942432e-20)
(-0.00077453761 0.00030670867 -5.5154937e-21)
(-0.00087596246 0.00030565076 3.6351098e-20)
(-0.00097660861 0.00030427907 1.7115468e-19)
(-0.0010763436 0.00030264422 1.1430501e-19)
(-0.0011750479 0.00030077565 1.0470813e-19)
(-0.0012726104 0.00029869128 8.2171035e-21)
(-0.0013689256 0.00029640277 1.5210611e-19)
(-0.0014638927 0.00029391834 2.2553384e-19)
(-0.0015574145 0.00029124433 1.2472738e-20)
(-0.0016493967 0.00028838615 4.0608014e-20)
(-0.0017397482 0.00028534884 -4.1632292e-20)
(-0.0018283807 0.00028213753 -1.1256317e-19)
(-0.0019152087 0.00027875773 4.931133e-20)
(-0.002000149 0.0002752156 4.4833086e-20)
(-0.0020831208 0.00027151651 5.8585193e-20)
(-0.0021640485 0.00026765622 1.7726194e-19)
(-0.0022428623 0.00026363192 1.9910502e-19)
(-0.0023194939 0.00025945006 -3.811068e-20)
(-0.0023938766 0.00025511858 -1.3986522e-19)
(-0.0024659474 0.00025064502 -8.3137442e-20)
(-0.0025356475 0.00024603653 -1.9765056e-19)
(-0.0026029226 0.00024130011 -2.6490833e-19)
(-0.0026677228 0.00023644279 8.4698895e-20)
(-0.0027300026 0.00023147173 2.6227188e-19)
(-0.0027897209 0.00022639423 -5.160932e-20)
(-0.0028468412 0.00022121782 -3.3685788e-19)
(-0.0029013316 0.00021595022 -2.9298315e-19)
(-0.0029531645 0.0002105993 2.3253236e-19)
(-0.0030023172 0.00020517316 3.2787536e-19)
(-0.0030487715 0.00019968001 -1.1485289e-19)
(-0.003092514 0.00019412823 -1.6684837e-19)
(-0.0031335359 0.00018852625 1.7600674e-20)
(-0.0031718331 0.0001828826 -2.4047877e-19)
(-0.0032074061 0.00017720582 -4.580757e-19)
(-0.00324026 0.00017150445 3.4158791e-19)
(-0.0032704042 0.00016578703 9.0776067e-19)
(-0.0032978528 0.00016006197 8.0085631e-19)
(-0.0033226241 0.00015433762 -1.0873708e-19)
(-0.0033447405 0.0001486222 -1.7135204e-18)
(-0.0033642285 0.00014292376 -7.6254133e-19)
(-0.0033811186 0.00013725017 5.5669781e-19)
(-0.0033954449 0.00013160908 6.631756e-19)
(-0.0034072453 0.00012600792 5.2801116e-19)
(-0.0034165608 0.00012045384 -8.0393902e-19)
(-0.0034234358 0.00011495372 -1.1570487e-20)
(-0.0034279178 0.00010951416 8.8186635e-19)
(-0.0034300568 0.00010414138 -9.1496843e-20)
(-0.0034299058 9.8841323e-05 -1.4174412e-19)
(-0.0034275199 9.3619582e-05 -3.3998828e-19)
(-0.0034229565 8.8481371e-05 -3.1003363e-19)
(-0.0034162749 8.3431552e-05 5.3832746e-19)
(-0.0034075363 7.847461e-05 1.545985e-19)
(-0.0033968032 7.3614663e-05 -7.4167883e-19)
(-0.0033841396 6.8855448e-05 -2.0609025e-19)
(-0.0033696105 6.4200323e-05 5.6110817e-19)
(-0.0033532819 5.9652264e-05 8.6392095e-20)
(-0.0033352205 5.5213895e-05 -3.8037873e-19)
(-0.0033154934 5.0887454e-05 1.6691174e-19)
(-0.003294168 4.6674835e-05 3.0740443e-19)
(-0.003271312 4.257758e-05 -1.2330729e-19)
(-0.0032469929 3.859689e-05 1.588181e-20)
(-0.0032212781 3.4733673e-05 -8.5864138e-20)
(-0.0031942346 3.0988537e-05 -5.6095679e-19)
(-0.0031659288 2.7361826e-05 -1.9483038e-20)
(-0.0031364267 2.3853643e-05 3.2843813e-19)
(-0.0031057933 2.0463864e-05 -2.3483035e-20)
(-0.0030740928 1.7192123e-05 2.0659151e-19)
(-0.0030413884 1.4037799e-05 2.1652717e-19)
(-0.0030077422 1.1000004e-05 1.7458087e-19)
(-0.0029732158 8.0775736e-06 -1.6732734e-19)
(-0.0029378723 5.2688135e-06 -6.5485879e-19)
(-0.0029017786 2.5694726e-06 -1.7561648e-19)
(-0.0028650057 -2.9648139e-08 4.8831265e-19)
(-0.0028275655 -2.5248065e-06 3.5930575e-19)
(-0.0027894857 -4.8892286e-06 -3.7420776e-19)
(-0.0027508512 -7.1441844e-06 -2.9393746e-19)
(-0.0027117214 -9.2970075e-06 -1.9378059e-19)
(-0.0026721445 -1.1351092e-05 -1.2817554e-19)
(-0.0026321667 -1.3309383e-05 2.623291e-19)
(-0.0025918326 -1.517451e-05 -1.3659679e-19)
(-0.0025511854 -1.6949031e-05 1.18628e-19)
(-0.0025102665 -1.8635526e-05 4.2003268e-19)
(-0.0024691158 -2.0236615e-05 -1.7726436e-19)
(-0.0024277713 -2.1754943e-05 -2.3817552e-19)
(-0.0023862696 -2.3193187e-05 -4.3121586e-20)
(-0.0023446454 -2.4554038e-05 9.7246336e-20)
(-0.0023029319 -2.5840171e-05 -8.7865548e-20)
(-0.0022611606 -2.7054282e-05 -4.2122206e-21)
(-0.0022193612 -2.819903e-05 3.3008979e-19)
(-0.0021775623 -2.9277071e-05 -4.0958073e-20)
(-0.0021357905 -3.0291016e-05 -1.6631746e-19)
(-0.0020940711 -3.1243461e-05 -2.3345335e-19)
(-0.0020524278 -3.2136945e-05 -1.038942e-19)
(-0.0020108832 -3.297398e-05 2.9377225e-19)
(-0.001969458 -3.375703e-05 1.4368467e-19)
(-0.001928172 -3.4488498e-05 5.0201873e-20)
(-0.0018870433 -3.5170751e-05 -1.8738896e-19)
(-0.0018460892 -3.5806081e-05 -1.2156185e-19)
(-0.0018053252 -3.6396743e-05 2.3552069e-19)
(-0.0017647661 -3.6944927e-05 4.7769087e-20)
(-0.0017244252 -3.745275e-05 3.6543502e-20)
(-0.001684315 -3.7922266e-05 -7.5344969e-20)
(-0.0016444468 -3.8355473e-05 -2.521722e-19)
(-0.0016048308 -3.8754295e-05 7.5211567e-20)
(-0.0015654764 -3.9120596e-05 1.1234362e-19)
(-0.0015263919 -3.9456184e-05 7.9942012e-20)
(-0.0014875848 -3.976281e-05 1.5041985e-19)
(-0.0014490619 -4.0042145e-05 -1.1414577e-19)
(-0.0014108288 -4.0295822e-05 -2.1340245e-19)
(-0.0013728907 -4.0525392e-05 -8.4134379e-20)
(-0.0013352518 -4.0732357e-05 1.2344034e-19)
(-0.0012979159 -4.091817e-05 7.6002088e-20)
(-0.0012608858 -4.1084203e-05 -1.1210682e-19)
(-0.0012241638 -4.1231797e-05 2.0650265e-20)
(-0.0011877518 -4.1362213e-05 1.2702754e-19)
(-0.0011516508 -4.1476678e-05 5.3173817e-20)
(-0.0011158615 -4.1576349e-05 -1.2397829e-19)
(-0.0010803841 -4.1662346e-05 -1.6094081e-19)
(-0.0010452182 -4.1735734e-05 7.4986153e-20)
(-0.0010103629 -4.1797522e-05 1.4053624e-19)
(-0.00097581723 -4.1848678e-05 5.0921958e-20)
(-0.00094157948 -4.1890119e-05 -7.2245432e-20)
(-0.00090764773 -4.1922721e-05 -7.580806e-20)
(-0.00087401969 -4.1947317e-05 4.079356e-20)
(-0.00084069278 -4.1964691e-05 6.5460705e-20)
(-0.00080766411 -4.1975596e-05 6.088809e-20)
(-0.00077493052 -4.1980735e-05 -7.3805742e-22)
(-0.00074248861 -4.1980772e-05 -7.0091376e-20)
(-0.00071033474 -4.1976349e-05 -3.3871828e-20)
(-0.00067846508 -4.196805e-05 3.7924687e-20)
(-0.00064687558 -4.1956439e-05 3.6263266e-20)
(-0.00061556206 -4.1942038e-05 -2.1811604e-20)
(-0.00058452015 -4.1925345e-05 -2.4461403e-20)
(-0.00055374537 -4.1906809e-05 9.1162578e-21)
(-0.0005232331 -4.1886856e-05 -2.2900405e-20)
(-0.00049297863 -4.1865872e-05 9.0778579e-21)
(-0.00046297715 -4.1844217e-05 1.3304351e-21)
(-0.0004332238 -4.1822199e-05 -2.8438822e-20)
(-0.00040371366 -4.180009e-05 2.5294411e-20)
(-0.00037444176 -4.1778113e-05 1.4911287e-20)
(-0.00034540317 -4.1756393e-05 -2.9739611e-22)
(-0.00031659293 -4.1734951e-05 -7.3246569e-21)
(-0.00028800615 -4.1713645e-05 -1.1406987e-20)
(-0.00025963803 -4.1691986e-05 2.8310519e-20)
(-0.00023148386 -4.166898e-05 2.1257322e-20)
(-0.00020353896 -4.1642693e-05 1.3456873e-21)
(-0.0001757983 -4.1609821e-05 -2.3232493e-20)
(-0.00014825564 -4.1565717e-05 -1.0902633e-20)
(-0.00012090148 -4.1506999e-05 2.1432663e-20)
(-9.371834e-05 -4.1444152e-05 8.8441809e-21)
(-6.6671715e-05 -4.1438537e-05 3.0751891e-21)
(-3.972256e-05 -4.1675424e-05 6.4466237e-21)
(-1.3096087e-05 -4.244915e-05 1.5732317e-20)
(-8.1701477e-05 0.00051730794 -5.0110205e-19)
(-0.00018594594 0.0005233064 -1.3446923e-19)
(-0.00030376761 0.00052691076 -1.7445715e-20)
(-0.0004174249 0.0005299943 -1.415007e-19)
(-0.00053428745 0.00053152519 2.4325375e-20)
(-0.00065078693 0.00053168643 -1.4402709e-19)
(-0.00076673935 0.00053087719 -1.0030988e-19)
(-0.00088209234 0.00052933794 -2.2287245e-20)
(-0.00099671529 0.00052721687 9.9154319e-20)
(-0.0011104485 0.00052460529 1.9085299e-19)
(-0.0012231411 0.00052155994 1.3480742e-19)
(-0.0013346528 0.00051811678 1.4224523e-19)
(-0.0014448516 0.00051429966 -3.4061548e-20)
(-0.0015536122 0.00051012539 7.4979456e-20)
(-0.0016608147 0.00050560672 1.2981635e-19)
(-0.0017663443 0.00050075405 -6.456032e-20)
(-0.0018700905 0.00049557653 1.0502472e-19)
(-0.0019719465 0.0004900826 2.8430381e-20)
(-0.00207181 0.00048428048 -7.0580067e-20)
(-0.002169582 0.00047817834 4.8070202e-20)
(-0.0022651676 0.00047178447 3.901296e-20)
(-0.0023584757 0.00046510727 5.1399434e-20)
(-0.0024494203 0.00045815456 1.1857887e-19)
(-0.00253792 0.00045093576 6.3586213e-21)
(-0.0026238976 0.00044346223 -7.8908944e-20)
(-0.0027072795 0.00043574569 -8.1674367e-20)
(-0.0027879963 0.00042779773 -1.8247943e-19)
(-0.0028659836 0.00041962995 -4.2364599e-20)
(-0.0029411817 0.00041125417 3.2238419e-20)
(-0.0030135364 0.00040268259 -5.0968127e-20)
(-0.0030829984 0.00039392779 -1.1683478e-19)
(-0.0031495238 0.00038500274 -3.899503e-20)
(-0.003213074 0.00037592076 1.4318865e-19)
(-0.0032736157 0.00036669548 -2.6461029e-21)
(-0.0033311212 0.00035734086 -1.9030465e-19)
(-0.0033855678 0.00034787105 -4.385992e-20)
(-0.0034369386 0.00033830045 1.5380243e-19)
(-0.0034852218 0.00032864357 1.4673691e-19)
(-0.0035304111 0.00031891505 -4.3621803e-20)
(-0.0035725055 0.00030912955 -1.6025959e-19)
(-0.0036115093 0.00029930173 -7.0747813e-20)
(-0.0036474317 0.00028944618 1.3038977e-19)
(-0.0036802873 0.00027957735 1.9691207e-19)
(-0.0037100955 0.00026970953 -5.0717951e-20)
(-0.0037368803 0.00025985679 4.8439945e-21)
(-0.0037606707 0.0002500329 -2.3241743e-19)
(-0.0037815001 0.00024025133 -2.7364257e-19)
(-0.0037994059 0.00023052517 5.7667695e-20)
(-0.0038144301 0.00022086711 5.4732206e-20)
(-0.0038266182 0.00021128939 3.0364097e-19)
(-0.0038360197 0.00020180379 3.7123432e-20)
(-0.0038426874 0.00019242155 -2.8911699e-19)
(-0.0038466774 0.00018315338 1.1240735e-19)
(-0.0038480488 0.00017400942 1.3243224e-19)
(-0.0038468636 0.00016499922 -2.6831771e-20)
(-0.0038431861 0.00015613174 -1.1573688e-19)
(-0.003837083 0.00014741531 -1.2003621e-19)
(-0.0038286232 0.00013885763 1.450739e-19)
(-0.0038178771 0.00013046577 2.5422844e-20)
(-0.0038049168 0.00012224614 -3.0064918e-19)
(-0.0037898159 0.00011420454 -4.1622669e-20)
(-0.0037726488 0.00010634608 2.265396e-19)
(-0.0037534908 9.8675308e-05 5.4435399e-20)
(-0.003732418 9.1196096e-05 -6.7845718e-20)
(-0.0037095067 8.3911719e-05 7.5918862e-20)
(-0.0036848336 7.6824865e-05 4.9381597e-20)
(-0.0036584752 6.9937619e-05 -2.055352e-19)
(-0.003630508 6.3251526e-05 -6.9624328e-20)
(-0.003601008 5.6767599e-05 6.1841668e-21)
(-0.0035700507 5.0486332e-05 -1.8738926e-20)
(-0.003537711 4.4407747e-05 2.4061295e-20)
(-0.0035040627 3.8531392e-05 1.3202502e-20)
(-0.0034691788 3.285637e-05 -8.8224168e-20)
(-0.0034331309 2.7381328e-05 -5.8048453e-20)
(-0.0033959897 2.2104432e-05 1.729957e-19)
(-0.0033578243 1.7023391e-05 1.1003963e-19)
(-0.003318703 1.2135549e-05 -1.982305e-19)
(-0.0032786948 7.4382766e-06 -3.3162344e-19)
(-0.0032378703 2.9323277e-06 -8.4169584e-20)
(-0.0031962781 -1.3746036e-06 1.3018278e-19)
(-0.0031539773 -5.4591564e-06 9.3619882e-21)
(-0.0031110375 -9.3631657e-06 -1.6533303e-19)
(-0.0030675099 -1.3098854e-05 -1.9246584e-20)
(-0.0030234496 -1.6669184e-05 6.0313101e-20)
(-0.0029789117 -2.0077387e-05 -1.5902039e-22)
(-0.0029339486 -2.3326982e-05 -1.3514159e-20)
(-0.0028886105 -2.6421778e-05 -1.668277e-19)
(-0.0028429454 -2.9365819e-05 -6.2929239e-20)
(-0.0027969991 -3.2163312e-05 1.4418182e-19)
(-0.0027508156 -3.4818584e-05 1.3217921e-19)
(-0.0027044368 -3.733603e-05 -3.7324652e-20)
(-0.0026579028 -3.9720103e-05 -1.7785295e-19)
(-0.0026112517 -4.1975287e-05 8.1167214e-21)
(-0.00256452 -4.4106054e-05 8.5365657e-20)
(-0.002517742 -4.6116902e-05 7.7478792e-20)
(-0.0024709505 -4.8012275e-05 8.0751607e-20)
(-0.0024241764 -4.9796606e-05 -1.3554181e-19)
(-0.0023774489 -5.1474264e-05 -9.9521842e-20)
(-0.0023307955 -5.3049579e-05 -9.2493461e-21)
(-0.0022842421 -5.4526806e-05 5.7893623e-21)
(-0.002237813 -5.5910132e-05 1.2494458e-19)
(-0.002191531 -5.7203672e-05 2.8303005e-20)
(-0.0021454173 -5.8411434e-05 -2.2188046e-20)
(-0.0020994918 -5.9537368e-05 -1.5495159e-20)
(-0.0020537727 -6.0585306e-05 6.3967897e-20)
(-0.0020082772 -6.1558995e-05 9.3402933e-20)
(-0.001963021 -6.2462074e-05 -5.878633e-20)
(-0.0019180185 -6.3298097e-05 -4.7880706e-20)
(-0.001873283 -6.4070499e-05 -6.4801807e-20)
(-0.0018288267 -6.4782619e-05 -1.1609072e-19)
(-0.0017846603 -6.5437691e-05 4.7804303e-21)
(-0.001740794 -6.6038834e-05 9.4779827e-20)
(-0.0016972365 -6.6589072e-05 6.808609e-20)
(-0.0016539958 -6.7091322e-05 2.3583468e-20)
(-0.0016110789 -6.754839e-05 -4.9188183e-20)
(-0.0015684918 -6.7962987e-05 -6.6713703e-20)
(-0.0015262397 -6.8337711e-05 -6.8298729e-20)
(-0.0014843272 -6.8675072e-05 8.7592904e-21)
(-0.0014427579 -6.8977474e-05 4.4232546e-20)
(-0.0014015346 -6.9247224e-05 5.008431e-20)
(-0.0013606598 -6.9486536e-05 3.2187166e-20)
(-0.0013201349 -6.9697524e-05 -4.1516235e-20)
(-0.0012799611 -6.9882213e-05 -2.0924781e-20)
(-0.0012401387 -7.0042551e-05 2.7398072e-20)
(-0.0012006675 -7.0180382e-05 5.5530827e-20)
(-0.001161547 -7.0297482e-05 3.3776939e-20)
(-0.0011227761 -7.0395528e-05 -1.6957828e-20)
(-0.0010843531 -7.0476131e-05 4.9910075e-21)
(-0.0010462761 -7.0540808e-05 -2.6945349e-20)
(-0.0010085427 -7.0591024e-05 5.9288757e-21)
(-0.00097115016 -7.0628146e-05 5.8076107e-20)
(-0.00093409539 -7.0653491e-05 1.8718665e-20)
(-0.00089737499 -7.0668298e-05 1.8305542e-20)
(-0.00086098529 -7.0673737e-05 -7.0183736e-21)
(-0.00082492231 -7.0670917e-05 -3.2526456e-20)
(-0.00078918184 -7.0660886e-05 -3.4146206e-20)
(-0.00075375948 -7.0644637e-05 9.5305529e-21)
(-0.00071865058 -7.0623085e-05 7.1695167e-21)
(-0.00068385033 -7.0597111e-05 -2.0984311e-20)
(-0.00064935375 -7.0567525e-05 -9.8782064e-21)
(-0.00061515571 -7.0535086e-05 1.6164838e-20)
(-0.00058125097 -7.0500499e-05 3.7854187e-21)
(-0.00054763415 -7.0464413e-05 1.3196444e-20)
(-0.00051429979 -7.0427423e-05 2.6426894e-21)
(-0.00048124236 -7.039006e-05 -5.862254e-21)
(-0.00044845624 -7.0352795e-05 1.3798565e-20)
(-0.00041593581 -7.0316018e-05 -1.7643751e-20)
(-0.00038367537 -7.0280017e-05 -2.9605837e-21)
(-0.00035166922 -7.024495e-05 2.5083696e-20)
(-0.00031991162 -7.02108e-05 2.7421161e-20)
(-0.00028839679 -7.0177244e-05 1.9119303e-20)
(-0.00025711876 -7.0143547e-05 4.3011092e-21)
(-0.0002260712 -7.010835e-05 6.8910842e-21)
(-0.00019524685 -7.0069615e-05 -2.3747249e-20)
(-0.00016463669 -7.0025264e-05 -5.1538988e-21)
(-0.00013422889 -6.9976178e-05 2.0528506e-20)
(-0.00010400731 -6.9935994e-05 5.4789703e-21)
(-7.3947167e-05 -6.9953228e-05 1.2538353e-20)
(-4.403245e-05 -7.0145452e-05 1.5083478e-20)
(-1.4509912e-05 -7.0640854e-05 2.4175077e-20)
(-8.6189564e-05 0.00076777107 -6.1289483e-19)
(-0.00019670656 0.00077115796 -4.2535031e-19)
(-0.00032168236 0.00077347375 -9.3755187e-20)
(-0.00044193238 0.00077527223 9.1975392e-20)
(-0.00056547698 0.00077578306 -2.5000779e-19)
(-0.00068847328 0.00077504077 -3.9442413e-19)