/*--------------------------------*- C++ -*----------------------------------*\
| =========                 |                                                 |
| \\      /  F ield         | OpenFOAM: The Open Source CFD Toolbox           |
|  \\    /   O peration     | Version:  2306                                  |
|   \\  /    A nd           | Website:  www.openfoam.com                      |
|    \\/     M anipulation  |                                                 |
\*---------------------------------------------------------------------------*/
FoamFile
{
    version     2.0;
    format      ascii;
    arch        "LSB;label=32;scalar=64";
    class       volVectorField;
    location    "0.49";
    object      U;
}
// * * * * * * * * * * * * * * * * * * * * * * * * * * * * * * * * * * * * * //

dimensions      [0 1 -1 0 0 0 0];

internalField   nonuniform List<vector> 
6400
(
(0.010516564 -0.31381409 1.6461673e-16)
(0.024070979 -0.31373729 -1.1157507e-16)
(0.039196399 -0.31195474 1.2505493e-16)
(0.053381976 -0.30887023 3.3082549e-16)
(0.067590217 -0.30440066 9.2655266e-17)
(0.081401519 -0.29855297 -4.2751718e-19)
(0.094827949 -0.29132061 -4.6829046e-17)
(0.10782629 -0.28264802 -4.8635279e-18)
(0.12026349 -0.27249137 -4.2238135e-17)
(0.13195347 -0.26085393 -4.8459404e-17)
(0.14269257 -0.24780174 -3.3890785e-17)
(0.15228849 -0.23346395 -4.0899006e-17)
(0.1605812 -0.21802223 -2.9204905e-17)
(0.16745511 -0.20169492 3.2898344e-18)
(0.17284384 -0.18472009 8.6426182e-18)
(0.176729 -0.16733992 -7.6378973e-17)
(0.1791353 -0.14978783 -4.2369097e-17)
(0.1801233 -0.13227894 -3.0147123e-17)
(0.17978145 -0.11500357 -3.2366646e-18)
(0.17821789 -0.098123587 3.9067684e-17)
(0.17555295 -0.081771069 1.6280833e-17)
(0.17191237 -0.066048777 1.3664528e-18)
(0.16742171 -0.051032016 2.1562168e-18)
(0.16220172 -0.036771416 -2.4186848e-17)
(0.15636492 -0.023296412 -3.6579068e-17)
(0.15001347 -0.010618675 -5.1048983e-18)
(0.14324464 0.001265213 2.7145654e-17)
(0.13612708 0.012367011 5.3247278e-17)
(0.12873056 0.022708055 3.4990396e-17)
(0.12110893 0.032312213 5.0984681e-18)
(0.11330524 0.041204957 4.3531657e-18)
(0.10535334 0.04941124 7.0714052e-18)
(0.097279227 0.056953711 1.7490977e-17)
(0.089102695 0.063851427 8.1335044e-18)
(0.080839017 0.07011896 1.1439052e-19)
(0.072500645 0.075765893 1.0812607e-17)
(0.064098786 0.080796652 2.9892751e-17)
(0.055644904 0.085210579 4.733544e-17)
(0.047152305 0.089002415 3.9033074e-17)
(0.038637079 0.092162902 4.2210161e-17)
(0.030119834 0.094679574 3.5976395e-17)
(0.021626241 0.096537838 1.4312284e-17)
(0.013187648 0.097722677 4.9493349e-18)
(0.004836905 0.09821887 -2.2266753e-18)
(-0.0034009221 0.098011778 3.3787467e-17)
(-0.011459318 0.097088935 6.248668e-17)
(-0.019275665 0.095446276 3.8159181e-17)
(-0.026797025 0.09308505 4.4594225e-18)
(-0.033958869 0.09001447 -6.9461081e-18)
(-0.04069329 0.086253287 1.7569929e-17)
(-0.046930736 0.081831178 2.33573e-17)
(-0.052602044 0.076789781 2.0372585e-17)
(-0.057640772 0.071183337 9.8012209e-18)
(-0.061985765 0.065078841 -1.0229296e-18)
(-0.065583846 0.058555582 -1.2026188e-17)
(-0.06839248 0.051704035 -4.707446e-18)
(-0.0703822 0.044624066 -3.1334354e-19)
(-0.071538469 0.037422487 -1.7042298e-17)
(-0.071862994 0.030210124 -1.0338568e-17)
(-0.071374562 0.02309861 -1.3719584e-17)
(-0.070109222 0.016196878 -1.088279e-17)
(-0.068119683 0.0096075811 -5.6782461e-18)
(-0.06547408 0.0034246671 -1.9406143e-17)
(-0.062247776 -0.0022696714 -1.0140505e-17)
(-0.058529245 -0.0074095518 -1.3334005e-17)
(-0.054421937 -0.011943064 -1.1596318e-17)
(-0.050024593 -0.015836381 4.2195978e-18)
(-0.045438008 -0.019072537 -3.7571736e-18)
(-0.040760672 -0.021650726 -8.4956098e-18)
(-0.036086048 -0.023585375 -8.934747e-18)
(-0.031500286 -0.024904617 -1.2250842e-17)
(-0.027080437 -0.025648439 -5.8228076e-18)
(-0.022893101 -0.025866663 7.4623313e-19)
(-0.018993467 -0.025616804 5.8126952e-19)
(-0.01542476 -0.024961834 1.9166855e-18)
(-0.012218133 -0.023968054 -3.27275e-18)
(-0.0093928357 -0.022703127 -2.534083e-18)
(-0.0069569077 -0.021233989 1.908726e-18)
(-0.0049084412 -0.019625203 1.7804622e-18)
(-0.0032354296 -0.017938143 1.8740347e-18)
(0.012003412 -0.34673307 2.5207776e-16)
(0.027319603 -0.34633861 -1.6475446e-16)
(0.044140099 -0.34383448 8.8796619e-17)
(0.059649945 -0.33993366 -5.1122589e-17)
(0.075063908 -0.3347487 -1.1175375e-16)
(0.090065845 -0.32828065 1.1421874e-16)
(0.10475659 -0.32045301 -7.4576475e-17)
(0.1191214 -0.31109038 -4.6627954e-18)
(0.13298758 -0.30004869 6.4173239e-17)
(0.14609817 -0.28727076 -5.4611899e-18)
(0.15816981 -0.27280522 2.0309396e-17)
(0.16893915 -0.25680017 -8.1254266e-17)
(0.17819299 -0.23948111 -7.3448884e-17)
(0.18578337 -0.22112392 -5.8220621e-17)
(0.19163129 -0.20202852 -6.2781124e-17)
(0.1957223 -0.18249662 -3.5684698e-17)
(0.19809751 -0.16281466 -4.7715119e-17)
(0.19884254 -0.14324189 -6.2978496e-17)
(0.19807599 -0.124003 -5.3587596e-17)
(0.19593853 -0.10528454 -4.3754723e-17)
(0.19258304 -0.087234268 1.4681985e-17)
(0.18816623 -0.069962731 2.8504292e-18)
(0.18284177 -0.05354636 -3.5501886e-18)
(0.17675492 -0.038031616 -3.1245709e-17)
(0.17003875 -0.023439776 -2.9172556e-17)
(0.16281231 -0.0097714425 1.4287981e-17)
(0.15518606 0.0029898841 3.4773719e-17)
(0.1472351 0.014869761 4.7874794e-17)
(0.1390362 0.02590291 3.3724695e-17)
(0.13064477 0.036126366 2.358339e-18)
(0.12210352 0.045577598 1.8095211e-17)
(0.11344396 0.054292124 1.8687472e-17)
(0.10468819 0.062301485 1.1383787e-17)
(0.095850955 0.069631815 3.8888031e-18)
(0.086941794 0.076302903 5.9522788e-18)
(0.077967117 0.082327683 2.9530833e-18)
(0.068932108 0.087712112 1.3599121e-17)
(0.059842556 0.092455407 3.4555693e-17)
(0.050706702 0.096550603 4.0243687e-17)
(0.041536353 0.099985215 4.6649146e-17)
(0.032348811 0.10274249 3.3103983e-17)
(0.023167962 0.10480235 1.4771828e-17)
(0.014024983 0.10614324 7.7103395e-18)
(0.0049518352 0.10674479 -6.4299625e-18)
(-0.0040244685 0.10658327 1.5517359e-17)
(-0.012831916 0.10563912 4.7004554e-17)
(-0.021401441 0.1039018 4.9063114e-17)
(-0.029672854 0.10136627 1.0287654e-17)
(-0.037572264 0.098036551 -3.4868801e-18)
(-0.045020742 0.0939277 9.7668102e-18)
(-0.051936343 0.089067656 1.4460547e-17)
(-0.058236505 0.08349869 2.5507362e-17)
(-0.063840874 0.077278419 -1.4265623e-19)
(-0.068674464 0.070480207 -3.4443218e-18)
(-0.072671054 0.063192836 7.1711071e-18)
(-0.075776605 0.055519331 -2.1444996e-18)
(-0.077952447 0.047574883 -3.7057032e-18)
(-0.079177789 0.039483897 -1.9671408e-17)
(-0.079451472 0.031376377 -2.0699923e-17)
(-0.078793227 0.023383917 -7.7370117e-18)
(-0.077243933 0.015635138 -1.1489196e-17)
(-0.074864079 0.0082511754 -6.2518751e-18)
(-0.071734297 0.0013397348 -2.2986564e-17)
(-0.067941658 -0.0049913922 -2.2994582e-17)
(-0.063595606 -0.010674522 -1.2641983e-17)
(-0.058815667 -0.015649005 -1.2666079e-17)
(-0.053719292 -0.019876425 1.5366631e-20)
(-0.0484254 -0.02333908 -1.8613029e-18)
(-0.043049607 -0.026038816 -1.0126808e-17)
(-0.037701016 -0.02799559 -9.7282876e-18)
(-0.032479528 -0.029245455 -8.3380601e-18)
(-0.027473773 -0.0298382 -4.1075031e-18)
(-0.022759631 -0.029834855 3.1297877e-19)
(-0.018399197 -0.029305084 -7.3265988e-18)
(-0.014440228 -0.028324485 -3.2009502e-18)
(-0.010916129 -0.026972049 -1.8167197e-18)
(-0.0078463088 -0.025327886 -3.5223127e-18)
(-0.0052369422 -0.023470876 5.7729224e-19)
(-0.0030826994 -0.021476974 5.7273915e-19)
(-0.0013667968 -0.019416301 -1.5036884e-19)
(0.013771343 -0.38434841 6.003537e-16)
(0.0310422 -0.38315148 7.5289742e-16)
(0.049628527 -0.37936524 6.183723e-16)
(0.066426088 -0.37415132 3.4117757e-16)
(0.0829976 -0.36802016 1.1863291e-16)
(0.099225539 -0.36089495 1.0655302e-16)
(0.11531961 -0.35255726 7.3272892e-17)
(0.13129518 -0.34260425 8.5669184e-18)
(0.14689915 -0.33072117 1.3132827e-17)
(0.16175941 -0.31675466 6.7976447e-17)
(0.17547196 -0.30072899 7.007543e-17)
(0.18767222 -0.28282389 5.8483284e-17)
(0.19807633 -0.26333127 1.6690073e-17)
(0.20649793 -0.24260962 2.0035415e-17)
(0.21284797 -0.22104398 -8.999753e-18)
(0.21712404 -0.19901481 1.3345368e-17)
(0.21939466 -0.17687602 -1.0997568e-17)
(0.21978238 -0.15494103 -1.0916831e-17)
(0.2184476 -0.13347504 -2.0798419e-17)
(0.21557404 -0.11269217 -3.029906e-17)
(0.21135637 -0.092756216 3.3496492e-17)
(0.20598999 -0.073783939 7.3100777e-17)
(0.19966289 -0.055849982 8.3918748e-18)
(0.19254958 -0.038992787 -3.70606e-17)
(0.18480703 -0.023221104 -2.4403925e-17)
(0.1765739 -0.0085200121 1.8068504e-17)
(0.16797397 0.0051448923 6.116183e-17)
(0.15908958 0.017816853 2.9149111e-17)
(0.15000373 0.029548198 -1.3753883e-17)
(0.14077229 0.040392309 -5.4611402e-18)
(0.13143612 0.050401572 8.5729029e-18)
(0.12202254 0.059624462 2.6211711e-17)
(0.11254769 0.068103287 -2.611615e-19)
(0.10301918 0.07587264 -1.5137221e-17)
(0.093438721 0.082958424 -1.2753096e-17)
(0.083804616 0.089377402 -2.1169497e-17)
(0.074114105 0.095137178 -6.1140391e-18)
(0.064365497 0.10023659 -4.0424892e-18)
(0.054560255 0.10466642 -1.3191101e-17)
(0.044704496 0.10841015 2.8411152e-18)
(0.034811099 0.11144557 -1.6882143e-17)
(0.024900858 0.11374621 -2.0261096e-17)
(0.015004775 0.11528238 -2.1655922e-17)
(0.0051523347 0.11602481 -4.4880787e-17)
(-0.0046280557 0.11594414 -4.239904e-17)
(-0.014257592 0.11500602 -3.5091314e-18)
(-0.023660807 0.11319415 2.6591994e-17)
(-0.032769347 0.11049481 -9.1619184e-18)
(-0.041498657 0.10690467 -3.8773041e-17)
(-0.049756937 0.10243322 -3.5916984e-17)
(-0.057447508 0.097105092 -1.226876e-17)
(-0.064471629 0.090962037 7.7926797e-18)
(-0.070731873 0.084064482 -3.2735159e-18)
(-0.076136033 0.076492317 -1.5582473e-17)
(-0.080601389 0.068344791 8.9049388e-19)
(-0.084059115 0.059739327 1.298116e-17)
(-0.086458471 0.050809138 7.16538e-18)
(-0.087770221 0.041699667 2.6372034e-19)
(-0.087989013 0.032564111 -1.4793534e-17)
(-0.087135078 0.02355834 -3.2782646e-18)
(-0.085254983 0.014835259 2.6445569e-17)
(-0.082422384 0.0065396607 1.1698484e-17)
(-0.078720903 -0.0011993618 -1.0062849e-17)
(-0.07425961 -0.0082597668 -1.3564939e-17)
(-0.069180795 -0.014557444 -1.1449658e-18)
(-0.06361459 -0.020023557 1.6529996e-17)
(-0.057702898 -0.024615533 2.3245009e-17)
(-0.05158676 -0.028315553 1.1772723e-17)
(-0.045402311 -0.03112931 -7.5161791e-18)
(-0.039277146 -0.033084002 4.7654172e-19)
(-0.033327204 -0.034225705 5.8564542e-18)
(-0.027654434 -0.03461637 4.7919125e-18)
(-0.022345196 -0.034330715 5.9243217e-18)
(-0.017469202 -0.033453048 -5.3197214e-18)
(-0.013078977 -0.032074052 -2.6881284e-18)
(-0.0092099985 -0.030287812 -3.3997336e-18)
(-0.0058813665 -0.028188955 2.9204236e-18)
(-0.003097051 -0.025870138 2.5311761e-18)
(-0.00084586024 -0.023421263 4.2710552e-19)
(0.00089164112 -0.0209253 1.5647854e-18)
(0.015552195 -0.42723661 6.5156222e-16)
(0.034609373 -0.42444743 6.4342812e-16)
(0.054773139 -0.4186619 3.2218565e-16)
(0.072710446 -0.41151734 3.2150764e-16)
(0.090398681 -0.40426926 2.0209777e-16)
(0.10801692 -0.39656741 1.1850881e-17)
(0.12584016 -0.38796029 6.2766016e-17)
(0.14389743 -0.37764319 4.269413e-17)
(0.16177339 -0.36503763 2.9884449e-17)
(0.17891642 -0.34985344 3.8290556e-17)
(0.19474681 -0.33209085 4.7070178e-18)
(0.20876179 -0.3119879 6.759416e-18)
(0.22058845 -0.28994057 -1.5482131e-18)
(0.22999946 -0.26642824 -1.1655214e-17)
(0.23690492 -0.24195406 3.3689635e-17)
(0.24133065 -0.21700252 -1.0537197e-18)
(0.24339163 -0.19201267 -4.6063756e-17)
(0.2432662 -0.1673631 -4.5593289e-17)
(0.24117352 -0.14336529 -4.1898619e-17)
(0.23735488 -0.12026283 2.8697109e-18)
(0.23205861 -0.098234482 1.8273644e-17)
(0.2255282 -0.077400094 4.5168562e-17)
(0.21799322 -0.057827994 2.109014e-17)
(0.20966272 -0.039543283 2.3599927e-17)
(0.20072104 -0.022536392 3.46055e-17)
(0.19132957 -0.0067707636 4.835364e-17)
(0.1816239 0.0078117969 5.8166906e-17)
(0.17169555 0.021277404 5.5033295e-17)
(0.16163169 0.033700448 5.1611372e-17)
(0.15148701 0.045154731 5.0575029e-17)
(0.14129844 0.055711014 2.4572322e-17)
(0.13108667 0.065433492 2.6135816e-17)
(0.12085927 0.074377349 3.2396063e-17)
(0.1106141 0.082587139 3.0905854e-17)
(0.1003424 0.090095836 2.9453747e-17)
(0.090031914 0.096924487 2.3913856e-17)
(0.0796696 0.10308238 2.9262807e-17)
(0.069244126 0.10856761 3.4169194e-17)
(0.058748248 0.11336796 2.9837048e-17)
(0.048180658 0.11746214 2.5968632e-17)
(0.037548465 0.12082103 -1.4623045e-17)
(0.026867982 0.12341005 -3.7268083e-17)
(0.016167589 0.1251905 -3.8589266e-17)
(0.0054782685 0.12612119 -4.9840824e-17)
(-0.0051755721 0.12616359 -4.2966616e-17)
(-0.015708999 0.12527041 -6.3386596e-18)
(-0.026034908 0.12341427 2.317497e-17)
(-0.036078964 0.12057047 3.3762708e-18)
(-0.04574411 0.11672582 -2.0889997e-17)
(-0.054923515 0.11188182 -1.5911856e-17)
(-0.063503041 0.10605762 -1.8566251e-17)
(-0.071364433 0.099292805 -2.5178437e-17)
(-0.078389332 0.091649614 -8.7361659e-18)
(-0.084464055 0.083214345 -3.2471301e-20)
(-0.089484986 0.074097651 2.7451135e-17)
(-0.093364272 0.064433434 4.0326135e-17)
(-0.096035356 0.054376162 1.3299483e-17)
(-0.0974576 0.044096596 -1.1173745e-17)
(-0.097619566 0.033776117 -2.2720397e-19)
(-0.096541271 0.023600426 1.6874388e-17)
(-0.094274698 0.01375226 4.5758452e-17)
(-0.090904973 0.0044050471 2.0935652e-17)
(-0.08653451 -0.0042813666 -4.2578177e-18)
(-0.081295088 -0.012176897 -9.7114159e-18)
(-0.075350436 -0.019170576 -2.8589999e-18)
(-0.0688613 -0.025185432 2.9522941e-17)
(-0.061996104 -0.030174661 2.9639341e-17)
(-0.05492207 -0.034121212 1.1075772e-17)
(-0.047799757 -0.03703626 -1.4341632e-17)
(-0.040778567 -0.038956509 -1.2089499e-17)
(-0.033993103 -0.039940752 5.8600746e-18)
(-0.027560545 -0.040066046 7.0364703e-18)
(-0.021578977 -0.039423841 4.0049081e-18)
(-0.0161264 -0.03811607 -7.9610982e-18)
(-0.011260295 -0.036251401 -7.7027252e-18)
(-0.0070178146 -0.033941712 -7.2250338e-18)
(-0.0034169485 -0.031298812 2.4598541e-18)
(-0.00045927914 -0.028432574 4.2462435e-18)
(0.001869479 -0.025448928 1.3813461e-18)
(0.0036020207 -0.022444941 2.6530653e-19)
(0.0166281 -0.47468848 9.3901511e-16)
(0.036485124 -0.46938555 1.171147e-15)
(0.057554955 -0.4611045 2.9921494e-16)
(0.07633506 -0.45155579 3.8641823e-16)
(0.095204638 -0.44338688 3.3138177e-16)
(0.11470001 -0.43548501 1.5191116e-16)
(0.13495892 -0.42713807 9.1010588e-17)
(0.15598494 -0.41687576 9.1811845e-17)
(0.1770467 -0.40376236 2.8026912e-17)
(0.19733392 -0.38734007 7.1882993e-17)
(0.21602604 -0.3676035 1.0019347e-16)
(0.23244211 -0.34489879 6.85839e-17)
(0.24610252 -0.3197859 7.1276388e-17)
(0.25674087 -0.29292237 3.921556e-17)
(0.26428392 -0.2649762 8.2028524e-17)
(0.2688133 -0.23656948 8.7758033e-17)
(0.27052188 -0.20824735 2.7013698e-18)
(0.26967409 -0.1804645 -4.0047997e-18)
(0.26657387 -0.1535826 -1.3549981e-17)
(0.26154085 -0.12787384 6.6938074e-17)
(0.25489275 -0.10352823 6.5128068e-17)
(0.24693276 -0.080662992 2.9079297e-17)
(0.23794029 -0.059333316 6.8381693e-17)
(0.22816461 -0.039543591 3.2497156e-17)
(0.21782117 -0.021258409 5.3474879e-17)
(0.20709852 -0.0044128188 1.2860777e-16)
(0.19613768 0.011085383 9.669161e-17)
(0.18504392 0.025329299 8.6132406e-17)
(0.17390481 0.038420929 7.5468918e-17)
(0.16277183 0.050459611 8.5182883e-17)
(0.15167498 0.061538499 1.1107143e-16)
(0.14062508 0.071740634 6.8240022e-17)
(0.12961784 0.081136393 4.1428309e-17)
(0.11863802 0.089781882 4.780497e-17)
(0.10766329 0.097718103 8.2484383e-17)
(0.096667824 0.10497079 1.1317073e-16)
(0.085625534 0.11155081 9.4147912e-17)
(0.074512942 0.11745501 8.4030574e-17)
(0.063311899 0.12266735 9.9237644e-17)
(0.052011534 0.12716053 7.5605626e-17)
(0.04061125 0.13089734 3.5816253e-18)
(0.029121995 0.13383298 -5.408723e-17)
(0.017568304 0.13591764 -5.4123403e-17)
(0.005978586 0.13709731 -3.893195e-17)
(-0.005623173 0.137317 -3.1948659e-17)
(-0.017145313 0.13652097 3.2267923e-18)
(-0.028493979 0.13466348 1.8647458e-17)
(-0.039585001 0.1317061 -7.3069304e-19)
(-0.050307608 0.12762266 -1.5045724e-17)
(-0.060537722 0.12240348 -1.6759424e-17)
(-0.070140658 0.11605935 -1.6927486e-17)
(-0.078974712 0.10862524 -1.8992907e-17)
(-0.08689588 0.1001636 -5.189173e-18)
(-0.093763688 0.090766593 2.8634032e-19)
(-0.099447982 0.080557058 1.8440862e-17)
(-0.10383629 0.069687667 3.3026933e-17)
(-0.10684118 0.058337987 3.1809695e-17)
(-0.10840662 0.046709334 2.6662986e-18)
(-0.1085125 0.035017635 -1.0694324e-20)
(-0.10717779 0.023485238 8.8915608e-18)
(-0.10446128 0.012331416 4.1478382e-17)
(-0.10046266 0.0017610463 3.8681541e-17)
(-0.095299995 -0.0080198636 1.0355925e-18)
(-0.089141023 -0.016866648 -8.2188607e-18)
(-0.082176826 -0.024648955 -6.1262076e-18)
(-0.074602365 -0.031276565 1.8059489e-17)
(-0.06661944 -0.036697621 3.4533765e-17)
(-0.058427147 -0.040896957 2.033435e-17)
(-0.050215273 -0.043893479 -8.3926514e-18)
(-0.04215893 -0.045736393 -1.6022385e-17)
(-0.034414343 -0.046500672 -3.6386895e-18)
(-0.027116008 -0.046282146 8.9108874e-18)
(-0.020374965 -0.045192701 8.4624389e-18)
(-0.014278074 -0.043355511 -4.9273386e-18)
(-0.008887825 -0.040900896 -3.6182476e-18)
(-0.0042427021 -0.037961638 -5.9638019e-18)
(-0.00035968467 -0.034669783 -4.9160253e-19)
(0.002762559 -0.031157285 2.5339211e-18)
(0.0051502008 -0.027543802 2.8701142e-18)
(0.0068438216 -0.023941138 -1.7097546e-19)
(0.015874879 -0.52325979 9.7939905e-16)
(0.034284531 -0.51490544 1.1876043e-15)
(0.054949041 -0.50469362 6.4641273e-16)
(0.074059322 -0.49292087 3.6609469e-16)
(0.094343022 -0.4850181 3.7587679e-16)
(0.11671631 -0.47787467 1.4752529e-16)
(0.14065507 -0.47081076 5.3820148e-17)
(0.16611071 -0.46129274 -1.6567429e-16)
(0.19176195 -0.44799572 -7.2628357e-17)
(0.21647211 -0.43030378 -8.0455646e-17)
(0.23911694 -0.40825644 -1.9968823e-16)
(0.25880098 -0.38238827 -1.1327997e-16)
(0.27491923 -0.3535108 -1.5783953e-16)
(0.2871655 -0.32254174 -2.7325846e-17)
(0.2955023 -0.29038097 -3.4535685e-17)
(0.30010332 -0.25783497 -6.5511103e-17)
(0.30128546 -0.22558147 -7.4028598e-17)
(0.29944627 -0.19416156 -1.0040448e-16)
(0.29501562 -0.16398658 -1.8213876e-17)
(0.28842326 -0.13535104 8.7925829e-17)
(0.28007902 -0.1084471 1.2199233e-16)
(0.27036098 -0.083379385 3.6492207e-17)
(0.25960804 -0.060179681 5.2598042e-17)
(0.24811538 -0.038821627 4.724728e-17)
(0.2361316 -0.019233705 4.0973121e-17)
(0.22388294 -0.0013101886 1.0580358e-16)
(0.21149859 0.015076335 8.6910585e-17)
(0.19910663 0.030059535 7.1367395e-17)
(0.18679008 0.043774973 8.3607207e-17)
(0.1745938 0.056352898 6.6974074e-17)
(0.16253675 0.067913274 1.0114376e-16)
(0.15061565 0.078561411 6.5515942e-17)
(0.13881018 0.088385363 1.225978e-17)
(0.12708798 0.097454411 3.2547417e-17)
(0.11540929 0.10581847 6.0873246e-17)
(0.10373122 0.11350823 1.01527e-16)
(0.092011383 0.12053587 1.0044656e-16)
(0.080211256 0.12689628 7.4090898e-17)
(0.068299183 0.13256857 1.1086026e-16)
(0.056252512 0.13751791 7.8790123e-17)
(0.044060731 0.14169746 -6.6274951e-18)
(0.031727301 0.14505032 -4.3919448e-17)
(0.019271561 0.14751292 -4.7838599e-17)
(0.0067182681 0.14901596 -3.2144375e-17)
(-0.0059097337 0.14948671 -2.6618185e-17)
(-0.018513525 0.14885475 6.7926212e-19)
(-0.030995283 0.14705435 1.7025838e-17)
(-0.04325886 0.14402915 3.5457756e-18)
(-0.05517835 0.13973582 -2.0124871e-17)
(-0.066610028 0.13414935 -3.60308e-17)
(-0.077395185 0.12726819 -3.8622536e-17)
(-0.087364044 0.11911934 -2.9498921e-17)
(-0.096341224 0.10976286 -2.6934487e-17)
(-0.10415281 0.099295582 -6.4112113e-19)
(-0.11063488 0.087852984 3.7267593e-17)
(-0.11564306 0.075608957 1.2208074e-17)
(-0.11906236 0.062772681 -1.6499439e-17)
(-0.12081591 0.049582465 -3.70928e-17)
(-0.12087141 0.036296819 4.7806521e-18)
(-0.11924571 0.023184013 4.4492355e-17)
(-0.11600816 0.010510652 2.8136643e-17)
(-0.111262 -0.0014754689 1.0671896e-18)
(-0.10515688 -0.012531076 -2.559182e-17)
(-0.097912822 -0.022474744 5.5848601e-18)
(-0.089743635 -0.03115459 2.547336e-17)
(-0.080889015 -0.038467053 1.5427123e-17)
(-0.07159242 -0.044355794 2.4280832e-17)
(-0.062091851 -0.048809521 1.8505455e-17)
(-0.052612122 -0.051858062 1.7051171e-19)
(-0.043358564 -0.053567131 2.6934496e-18)
(-0.03451231 -0.054032349 1.5327281e-18)
(-0.026227351 -0.053372958 6.9492696e-18)
(-0.018628908 -0.051725892 2.0720696e-17)
(-0.011813306 -0.049239914 2.2619504e-18)
(-0.0058476037 -0.046071281 3.0515308e-18)
(-0.00077045781 -0.042375558 1.4711911e-19)
(0.003400256 -0.038313216 2.632109e-18)
(0.0066777886 -0.034033425 1.1298255e-17)
(0.0090949954 -0.029677585 3.5790982e-18)
(0.010703615 -0.025376493 -3.1059521e-18)
(0.012290513 -0.56589147 9.4707192e-16)
(0.025649548 -0.55505829 7.7294588e-16)
(0.044153074 -0.54559426 5.7550683e-16)
(0.062779328 -0.53308951 4.7171135e-17)
(0.084788121 -0.52847897 1.0219157e-16)
(0.11161315 -0.52397144 6.551017e-17)
(0.14092536 -0.51996474 2.7896683e-16)
(0.17278048 -0.51222038 2.3392375e-16)
(0.20480422 -0.49918037 2.0216388e-16)
(0.2355418 -0.4801647 2.5600599e-16)
(0.26352835 -0.45535104 1.8073655e-16)
(0.28763328 -0.42557019 1.9139115e-17)
(0.30710006 -0.39199466 -1.5267287e-17)
(0.32155882 -0.35591012 -3.0373166e-17)
(0.33100329 -0.31854406 2.6881988e-17)
(0.33572427 -0.28095895 -7.6456407e-17)
(0.33621443 -0.24400645 4.3009777e-17)
(0.33306966 -0.20832736 -7.0872767e-17)
(0.32690922 -0.17437656 -1.4112133e-16)
(0.31832462 -0.14245482 -1.004923e-16)
(0.30785392 -0.11273775 -1.6066447e-17)
(0.29597255 -0.085299468 3.0584815e-17)
(0.28309158 -0.060132448 -3.0197652e-18)
(0.26955878 -0.037165581 2.982814e-17)
(0.25566059 -0.016278286 1.2417414e-17)
(0.24165442 0.0026909432 2.465945e-17)
(0.22766211 0.019908882 8.4639965e-17)
(0.21383092 0.035563132 8.3734594e-17)
(0.20023256 0.049830591 9.3726731e-17)
(0.18690085 0.062878613 4.731355e-17)
(0.17383871 0.07485891 6.2096055e-17)
(0.16102353 0.085902802 8.3868094e-17)
(0.14841376 0.096118612 3.3427704e-17)
(0.135955 0.10559038 4.7677733e-17)
(0.12358554 0.11437764 5.9258732e-17)
(0.11124121 0.12251608 5.4121413e-17)
(0.098859683 0.13001864 8.8266066e-17)
(0.086384037 0.13687736 8.4437825e-17)
(0.073766108 0.14306518 1.1576438e-16)
(0.060968901 0.14853807 1.0609692e-16)
(0.047969655 0.15323755 3.694069e-17)
(0.034762304 0.15709248 1.6812333e-17)
(0.02135907 0.16002303 -7.641527e-18)
(0.0077789134 0.16194213 -2.118741e-17)
(-0.0059579204 0.16275792 -2.4074432e-17)
(-0.019743304 0.16237618 2.3338285e-17)
(-0.033479427 0.16071111 5.311431e-17)
(-0.047056527 0.15768306 9.7423527e-18)
(-0.060332347 0.15322631 -1.5044667e-17)
(-0.073141071 0.14729514 -1.7127699e-17)
(-0.085296124 0.13987044 -1.393889e-17)
(-0.096594313 0.13096633 4.9769081e-18)
(-0.10682197 0.12063674 -1.0969068e-17)
(-0.11576344 0.10898081 2.2940106e-18)
(-0.12321172 0.096146537 -7.6656681e-18)
(-0.12898091 0.082331496 -1.5712752e-17)
(-0.13291944 0.067779751 2.8654916e-18)
(-0.13492219 0.052774584 -2.9976603e-17)
(-0.13493918 0.037627337 2.258791e-18)
(-0.13298143 0.022663721 1.0665841e-17)
(-0.12912881 0.0082097959 -1.6820589e-17)
(-0.12350521 -0.0054273427 -1.072267e-17)
(-0.1162908 -0.01796946 -4.0267471e-17)
(-0.10774877 -0.029180446 -5.6608816e-18)
(-0.098147346 -0.038883933 2.3975727e-17)
(-0.087777067 -0.04696168 -9.6456274e-18)
(-0.07693207 -0.053353992 -7.8756286e-18)
(-0.065897581 -0.058056533 1.2697359e-18)
(-0.05494027 -0.061114571 6.2576943e-18)
(-0.044300854 -0.062615724 2.3317903e-17)
(-0.034188937 -0.062682035 8.7493303e-19)
(-0.02478019 -0.061462016 -1.3042293e-17)
(-0.016214977 -0.059123326 7.8074024e-18)
(-0.0085993423 -0.05584478 -4.8687227e-18)
(-0.0020021599 -0.051812746 1.4667173e-17)
(0.0035328276 -0.047212793 7.8224152e-18)
(0.0079967052 -0.042232207 -1.0273979e-17)
(0.011410608 -0.037045226 4.7155351e-18)
(0.013817104 -0.031817791 4.7861765e-18)
(0.015282776 -0.026701199 9.2465909e-18)
(0.0057504371 -0.59292102 1.2422159e-15)
(0.0096576052 -0.58192731 1.2432889e-15)
(0.024593489 -0.57859271 5.5281161e-16)
(0.041708757 -0.56868414 5.3354436e-17)
(0.065645354 -0.57280259 -1.0221641e-16)
(0.098902423 -0.57397834 -8.4579491e-17)
(0.1352314 -0.57571721 5.4978315e-18)
(0.1755132 -0.57110193 2.8169194e-16)
(0.21557857 -0.55886694 8.3673656e-17)
(0.25385292 -0.53847435 3.549785e-17)
(0.28855423 -0.51037298 2.8381235e-16)
(0.31833474 -0.47579873 8.5622534e-17)
(0.34225244 -0.43638566 1.4753919e-16)
(0.35980129 -0.3939039 7.5193267e-17)
(0.37093436 -0.35003646 3.7801036e-17)
(0.37602646 -0.30621737 9.6077099e-17)
(0.37576829 -0.26355131 1.9832138e-18)
(0.37102195 -0.22281192 -3.4953957e-19)
(0.3626839 -0.1844919 3.412118e-18)
(0.35158948 -0.14887007 5.3602983e-17)
(0.33846682 -0.11607033 1.1920675e-16)
(0.32392744 -0.086104048 7.6461144e-17)
(0.30847491 -0.058898261 3.4686695e-17)
(0.29251833 -0.034316352 3.0197319e-17)
(0.27638832 -0.012171813 -8.4075953e-18)
(0.26035855 0.0077650668 -4.0141893e-17)
(0.24455875 0.025721271 -4.4879074e-17)
(0.22913786 0.041942561 -2.7114986e-17)
(0.21415269 0.056656847 -4.3799663e-18)
(0.19961939 0.070076396 -3.084509e-18)
(0.18551812 0.08239033 -3.0047365e-17)
(0.1718002 0.093759982 -3.0756864e-17)
(0.15839642 0.10431653 -3.0017609e-17)
(0.1452244 0.11416017 -4.0062143e-18)
(0.13219505 0.12336049 -6.0468091e-18)
(0.1192182 0.13195782 -5.8054351e-17)
(0.10620731 0.13996504 -3.6511187e-17)
(0.093083406 0.14737 6.4545855e-18)
(0.079778499 0.15413788 1.1528192e-17)
(0.066238311 0.16021365 3.5412945e-17)
(0.052425179 0.16552496 2.1614102e-17)
(0.038320994 0.1699841 1.8391882e-17)
(0.023928952 0.17349213 1.3105102e-17)
(0.0092626322 0.17594148 -2.1841947e-17)
(-0.0056688915 0.17721516 -4.7430472e-17)
(-0.020744488 0.17719609 3.0606708e-18)
(-0.035866559 0.17576991 6.2576306e-17)
(-0.050914591 0.17282861 2.3360198e-17)
(-0.065728509 0.16827806 -1.5925429e-17)
(-0.080118048 0.16204508 -4.146778e-17)
(-0.093864715 0.15408593 -3.9408945e-17)
(-0.10672585 0.14439525 -2.8578732e-18)
(-0.11844126 0.13301504 6.8158377e-18)
(-0.12874322 0.12004288 6.2472768e-19)
(-0.13736971 0.10563804 1.0097396e-17)
(-0.1440806 0.090023986 1.589009e-17)
(-0.14867548 0.0734858 -1.5130389e-17)
(-0.15101054 0.056361635 -2.3870342e-17)
(-0.15101122 0.039028451 5.4222022e-18)
(-0.1486797 0.021883328 3.0773936e-17)
(-0.14410771 0.0053240568 1.5531044e-17)
(-0.13743693 -0.010255217 -3.8420314e-17)
(-0.12889707 -0.024526112 -5.5843899e-17)
(-0.11880602 -0.037203843 -4.0560797e-18)
(-0.10749683 -0.048076337 3.9541505e-17)
(-0.095325811 -0.057008007 -2.7433172e-18)
(-0.082650476 -0.063937655 -1.2356697e-17)
(-0.069813708 -0.068872562 -9.5712378e-18)
(-0.057132117 -0.071879814 -6.869508e-18)
(-0.044887584 -0.073076203 3.1158886e-17)
(-0.033321909 -0.072617662 -1.0164301e-17)
(-0.022634424 -0.070689422 -2.2726635e-17)
(-0.012980598 -0.067496863 5.2731732e-18)
(-0.0044753607 -0.06325327 -7.1304677e-18)
(0.002808752 -0.058176991 5.0586879e-18)
(0.0088283325 -0.052498347 -1.1700092e-17)
(0.013584259 -0.04642737 -8.6595323e-19)
(0.017105592 -0.040170619 8.526434e-18)
(0.019449509 -0.033920281 1.301454e-19)
(0.02069933 -0.02785189 -1.1679772e-18)
(-0.0028573007 -0.59528542 1.5306304e-15)
(-0.012249615 -0.58813749 1.6557368e-15)
(-0.00062819836 -0.59918239 2.3468099e-16)
(0.014339445 -0.59681198 -5.0720169e-16)
(0.040224932 -0.61717008 -3.7585939e-16)
(0.081932198 -0.62821295 -7.672837e-16)
(0.12606742 -0.63902521 -2.9953284e-16)
(0.17607153 -0.63901941 -2.7797927e-16)
(0.22492138 -0.62818277 -4.3687563e-16)
(0.27143343 -0.60641731 -1.9587857e-16)
(0.31361112 -0.57459401 -1.3793663e-16)
(0.34997864 -0.53441285 -9.9913706e-17)
(0.3793942 -0.48799845 -1.1874876e-16)
(0.40109809 -0.43767863 -4.2691663e-17)
(0.41483149 -0.38572989 -8.4312027e-17)
(0.42090053 -0.33413048 -2.9143616e-17)
(0.42011894 -0.28439189 -6.7539661e-17)
(0.41363551 -0.23751305 -8.1997206e-17)
(0.40271475 -0.19404522 -2.2025201e-17)
(0.38855198 -0.15421273 4.125144e-17)
(0.37216819 -0.11803137 1.7783318e-17)
(0.35438193 -0.085393071 2.0040889e-17)
(0.33582852 -0.056114602 1.4820209e-17)
(0.31699537 -0.029961176 -4.8662629e-17)
(0.29827117 -0.0066576508 -3.6609749e-17)
(0.27991628 0.014119851 -8.3150616e-17)
(0.26208901 0.032670398 -1.4682107e-16)
(0.24492035 0.049307583 -1.210211e-16)
(0.22844574 0.064321655 -1.1889183e-16)
(0.21265481 0.077978298 -9.5399354e-17)
(0.19749583 0.090510069 -1.5564916e-16)
(0.1828855 0.10211236 -1.8110625e-16)
(0.16871902 0.11294158 -1.4513415e-16)
(0.15487882 0.12311507 -1.4299634e-16)
(0.14124218 0.13271242 -1.3098363e-16)
(0.12768743 0.14177775 -1.7914629e-16)
(0.11409915 0.15032251 -1.6793914e-16)
(0.10037227 0.1583286 -1.004655e-16)
(0.086415456 0.16575148 -9.5358024e-17)
(0.072153969 0.17252305 -2.6775398e-17)
(0.057532357 0.17855471 1.234383e-17)
(0.042517781 0.18373981 1.199845e-17)
(0.027102336 0.18795715 1.7886757e-17)
(0.011288991 0.19107406 -2.5391147e-17)
(-0.004922917 0.19294876 -2.7412796e-17)
(-0.021398811 0.1934327 2.5832156e-17)
(-0.038051596 0.19237927 7.2977618e-17)
(-0.054745992 0.18964527 4.7946222e-17)
(-0.071304535 0.1851006 -1.245848e-18)
(-0.087510974 0.17863613 -2.3997564e-17)
(-0.10311099 0.17017433 -3.3602471e-17)
(-0.11781582 0.15968108 -3.8541451e-17)
(-0.1313091 0.14717815 6.6753146e-18)
(-0.14325828 0.13275522 -8.1387012e-18)
(-0.15333091 0.1165798 1.4807687e-17)
(-0.16121572 0.09890287 4.4115901e-17)
(-0.16664687 0.080057588 -8.4783917e-19)
(-0.16942785 0.060449458 -2.0842852e-17)
(-0.16944997 0.040537958 5.6937664e-18)
(-0.16670316 0.020811681 3.3151457e-17)
(-0.16127981 0.0017579679 5.0315376e-17)
(-0.1533485 -0.016123076 -8.2599056e-18)
(-0.14322168 -0.032429901 -2.4440076e-17)
(-0.13127111 -0.046814583 -1.6297923e-18)
(-0.1179156 -0.059024611 1.4370844e-17)
(-0.10359653 -0.068906478 2.0649765e-17)
(-0.088751002 -0.076401597 1.3627616e-17)
(-0.073792378 -0.081536174 1.8995268e-18)
(-0.059096542 -0.084408216 -1.7351362e-17)
(-0.044992767 -0.08517341 -3.5398565e-18)
(-0.031758786 -0.084031362 -4.5555427e-18)
(-0.019619338 -0.081213343 -1.0315769e-17)
(-0.0087430989 -0.076970136 -1.6682119e-18)
(0.00075375124 -0.071547549 -5.920716e-18)
(0.0087764385 -0.065223115 -1.311327e-18)
(0.015304142 -0.058255876 -1.9942236e-17)
(0.020342489 -0.050894212 -6.6046882e-19)
(0.023932074 -0.043377289 3.747835e-18)
(0.026146818 -0.035927974 1.1092725e-18)
(0.027089873 -0.028749575 -3.5845862e-18)
(-0.011679504 -0.56832774 1.0224518e-15)
(-0.036781652 -0.56990421 1.0287055e-15)