/*--------------------------------*- C++ -*----------------------------------*\
| =========                 |                                                 |
| \\      /  F ield         | OpenFOAM: The Open Source CFD Toolbox           |
|  \\    /   O peration     | Version:  2106                                  |
|   \\  /    A nd           | Website:  www.openfoam.com                      |
|    \\/     M anipulation  |                                                 |
\*---------------------------------------------------------------------------*/
FoamFile
{
    version     2.0;
    format      ascii;
    arch        "LSB;label=32;scalar=64";
    class       volVectorField;
    location    "0.037";
    object      U;
}
// * * * * * * * * * * * * * * * * * * * * * * * * * * * * * * * * * * * * * //

dimensions      [0 1 -1 0 0 0 0];

internalField   nonuniform List<vector> 
16384
(
(-0.0012670623 0.0012658648 0)
(-0.0037982279 0.0012629083 0)
(-0.0063205225 0.0012570015 0)
(-0.0088280526 0.0012481568 0)
(-0.011314956 0.0012363926 0)
(-0.013775413 0.0012217338 0)
(-0.01620366 0.001204211 0)
(-0.018594002 0.0011838614 0)
(-0.020940823 0.0011607279 0)
(-0.023238598 0.0011348595 0)
(-0.025481909 0.0011063115 0)
(-0.027665452 0.0010751446 0)
(-0.029784052 0.0010414259 0)
(-0.031832673 0.001005228 0)
(-0.03380643 0.00096662923 0)
(-0.035700602 0.00092571363 0)
(-0.037510639 0.00088257068 0)
(-0.039232177 0.00083729523 0)
(-0.040861048 0.00078998738 0)
(-0.042393288 0.0007407523 0)
(-0.043825149 0.00068970008 0)
(-0.045153107 0.00063694553 0)
(-0.046373873 0.00058260799 0)
(-0.047484403 0.0005268111 0)
(-0.048481902 0.00046968259 0)
(-0.049363836 0.00041135401 0)
(-0.050127936 0.00035196048 0)
(-0.05077221 0.00029164039 0)
(-0.051294943 0.00023053513 0)
(-0.051694706 0.0001687886 0)
(-0.051970365 0.00010654637 0)
(-0.052121069 4.3959936e-05 0)
(-0.052146287 -1.8822249e-05 0)
(-0.05204577 -8.1650831e-05 0)
(-0.051819583 -0.00014437118 0)
(-0.051468093 -0.00020683075 0)
(-0.050991976 -0.00026887643 0)
(-0.050392212 -0.0003303553 0)
(-0.049670088 -0.00039111504 0)
(-0.048827195 -0.00045100434 0)
(-0.047865425 -0.00050987333 0)
(-0.046786969 -0.00056757395 0)
(-0.045594311 -0.00062396041 0)
(-0.044290225 -0.00067888958 0)
(-0.042877768 -0.0007322214 0)
(-0.041360275 -0.00078381929 0)
(-0.039741349 -0.00083355055 0)
(-0.038024856 -0.00088128677 0)
(-0.036214914 -0.0009269042 0)
(-0.034315883 -0.00097028415 0)
(-0.032332355 -0.0010113133 0)
(-0.030269145 -0.0010498843 0)
(-0.028131276 -0.0010858956 0)
(-0.025923966 -0.0011192523 0)
(-0.023652619 -0.0011498663 0)
(-0.021322807 -0.0011776564 0)
(-0.018940257 -0.0012025487 0)
(-0.016510838 -0.0012244771 0)
(-0.014040541 -0.001243383 0)
(-0.01153547 -0.0012592159 0)
(-0.0090018174 -0.0012719334 0)
(-0.0064458561 -0.0012815015 0)
(-0.0038739169 -0.0012878946 0)
(-0.0012923737 -0.0012910954 0)
(0.0012923737 -0.0012910954 0)
(0.0038739169 -0.0012878946 0)
(0.0064458562 -0.0012815015 0)
(0.0090018174 -0.0012719334 0)
(0.01153547 -0.0012592159 0)
(0.014040541 -0.001243383 0)
(0.016510838 -0.0012244771 0)
(0.018940257 -0.0012025487 0)
(0.021322807 -0.0011776564 0)
(0.023652619 -0.0011498663 0)
(0.025923966 -0.0011192523 0)
(0.028131276 -0.0010858956 0)
(0.030269145 -0.0010498843 0)
(0.032332355 -0.0010113133 0)
(0.034315883 -0.00097028415 0)
(0.036214914 -0.0009269042 0)
(0.038024856 -0.00088128677 0)
(0.039741349 -0.00083355055 0)
(0.041360275 -0.00078381929 0)
(0.042877768 -0.0007322214 0)
(0.044290225 -0.00067888958 0)
(0.045594311 -0.00062396041 0)
(0.046786969 -0.00056757395 0)
(0.047865425 -0.00050987333 0)
(0.048827195 -0.00045100434 0)
(0.049670088 -0.00039111504 0)
(0.050392212 -0.0003303553 0)
(0.050991976 -0.00026887643 0)
(0.051468093 -0.00020683075 0)
(0.051819583 -0.00014437118 0)
(0.05204577 -8.165083e-05 0)
(0.052146287 -1.8822248e-05 0)
(0.052121069 4.3959937e-05 0)
(0.051970365 0.00010654637 0)
(0.051694706 0.0001687886 0)
(0.051294943 0.00023053513 0)
(0.05077221 0.00029164039 0)
(0.050127936 0.00035196048 0)
(0.049363836 0.00041135401 0)
(0.048481902 0.00046968259 0)
(0.047484403 0.0005268111 0)
(0.046373873 0.00058260799 0)
(0.045153107 0.00063694553 0)
(0.043825149 0.00068970008 0)
(0.042393288 0.0007407523 0)
(0.040861048 0.00078998738 0)
(0.039232177 0.00083729523 0)
(0.037510639 0.00088257068 0)
(0.035700602 0.00092571363 0)
(0.03380643 0.00096662923 0)
(0.031832673 0.001005228 0)
(0.029784052 0.0010414259 0)
(0.027665452 0.0010751446 0)
(0.025481909 0.0011063115 0)
(0.023238598 0.0011348595 0)
(0.020940823 0.0011607279 0)
(0.018594002 0.0011838614 0)
(0.01620366 0.001204211 0)
(0.013775413 0.0012217338 0)
(0.011314956 0.0012363926 0)
(0.0088280525 0.0012481568 0)
(0.0063205224 0.0012570015 0)
(0.0037982279 0.0012629083 0)
(0.0012670623 0.0012658648 0)
(-0.0012702404 0.0038001057 0)
(-0.003807755 0.0037912307 0)
(-0.0063363774 0.0037734991 0)
(-0.0088502 0.0037469482 0)
(-0.011343346 0.0037116336 0)
(-0.013809983 0.0036676294 0)
(-0.016244333 0.0036150281 0)
(-0.018640687 0.0035539407 0)
(-0.020993414 0.0034844963 0)
(-0.023296978 0.0034068422 0)
(-0.025545947 0.0033211437 0)
(-0.027735003 0.0032275838 0)
(-0.029858959 0.0031263632 0)
(-0.031912766 0.0030177002 0)
(-0.033891527 0.0029018299 0)
(-0.035790509 0.0027790044 0)
(-0.03760515 0.0026494923 0)
(-0.039331077 0.0025135784 0)
(-0.040964108 0.0023715631 0)
(-0.04250027 0.0022237621 0)
(-0.043935806 0.0020705059 0)
(-0.045267182 0.0019121391 0)
(-0.0464911 0.0017490199 0)
(-0.047604508 0.0015815195 0)
(-0.048604603 0.0014100213 0)
(-0.049488844 0.0012349201 0)
(-0.050254957 0.0010566217 0)
(-0.050900942 0.00087554147 0)
(-0.051425079 0.00069210381 0)
(-0.051825937 0.00050674107 0)
(-0.052102376 0.00031989222 0)
(-0.052253548 0.00013200451 0)
(-0.052278911 -5.6471242e-05 0)
(-0.052178219 -0.00024508197 0)
(-0.051951536 -0.00043336973 0)
(-0.051599229 -0.00062087516 0)
(-0.051121976 -0.00080713848 0)
(-0.050520759 -0.00099170053 0)
(-0.049796866 -0.001174104 0)
(-0.048951893 -0.0013538947 0)
(-0.047987735 -0.0015306227 0)
(-0.046906589 -0.0017038434 0)
(-0.045710944 -0.0018731192 0)
(-0.044403582 -0.0020380204 0)
(-0.042987566 -0.0021981264 0)
(-0.041466239 -0.0023530273 0)
(-0.039843214 -0.0025023247 0)
(-0.038122366 -0.002645633 0)
(-0.036307823 -0.0027825806 0)
(-0.034403957 -0.0029128114 0)
(-0.032415372 -0.0030359851 0)
(-0.030346893 -0.003151779 0)
(-0.028203558 -0.0032598888 0)
(-0.025990598 -0.0033600294 0)
(-0.023713431 -0.003451936 0)
(-0.021377644 -0.003535365 0)
(-0.018988979 -0.0036100948 0)
(-0.016553319 -0.0036759264 0)
(-0.014076674 -0.0037326842 0)
(-0.01156516 -0.0037802165 0)
(-0.0090249895 -0.0038183962 0)
(-0.0064624504 -0.0038471208 0)
(-0.0038838905 -0.0038663136 0)
(-0.0012957011 -0.0038759228 0)
(0.0012957011 -0.0038759228 0)
(0.0038838906 -0.0038663136 0)
(0.0064624504 -0.0038471208 0)
(0.0090249896 -0.0038183962 0)
(0.01156516 -0.0037802165 0)
(0.014076674 -0.0037326842 0)
(0.016553319 -0.0036759264 0)
(0.018988979 -0.0036100948 0)
(0.021377644 -0.003535365 0)
(0.023713431 -0.003451936 0)
(0.025990598 -0.0033600294 0)
(0.028203558 -0.0032598888 0)
(0.030346893 -0.003151779 0)
(0.032415372 -0.0030359851 0)
(0.034403957 -0.0029128114 0)
(0.036307823 -0.0027825806 0)
(0.038122366 -0.0026456329 0)
(0.039843214 -0.0025023247 0)
(0.041466239 -0.0023530273 0)
(0.042987566 -0.0021981264 0)
(0.044403582 -0.0020380204 0)
(0.045710944 -0.0018731192 0)
(0.046906589 -0.0017038434 0)
(0.047987735 -0.0015306227 0)
(0.048951893 -0.0013538947 0)
(0.049796866 -0.001174104 0)
(0.050520759 -0.00099170052 0)
(0.051121976 -0.00080713847 0)
(0.051599229 -0.00062087516 0)
(0.051951536 -0.00043336972 0)
(0.052178219 -0.00024508196 0)
(0.052278911 -5.6471239e-05 0)
(0.052253548 0.00013200451 0)
(0.052102376 0.00031989223 0)
(0.051825937 0.00050674108 0)
(0.051425079 0.00069210381 0)
(0.050900942 0.00087554147 0)
(0.050254957 0.0010566217 0)
(0.049488844 0.0012349201 0)
(0.048604603 0.0014100213 0)
(0.047604508 0.0015815195 0)
(0.0464911 0.0017490199 0)
(0.045267182 0.0019121391 0)
(0.043935806 0.0020705059 0)
(0.04250027 0.0022237621 0)
(0.040964108 0.0023715631 0)
(0.039331077 0.0025135784 0)
(0.03760515 0.0026494923 0)
(0.035790509 0.0027790044 0)
(0.033891527 0.0029018299 0)
(0.031912766 0.0030177002 0)
(0.029858959 0.0031263632 0)
(0.027735003 0.0032275838 0)
(0.025545947 0.0033211437 0)
(0.023296978 0.0034068422 0)
(0.020993414 0.0034844963 0)
(0.018640687 0.0035539407 0)
(0.016244333 0.0036150281 0)
(0.013809983 0.0036676294 0)
(0.011343346 0.0037116336 0)
(0.0088501999 0.0037469482 0)
(0.0063363773 0.0037734991 0)
(0.0038077549 0.0037912307 0)
(0.0012702403 0.0038001057 0)
(-0.0012751529 0.006343154 0)
(-0.0038224814 0.0063283406 0)
(-0.0063608844 0.0062987448 0)
(-0.008884432 0.0062544286 0)
(-0.011387226 0.0061954848 0)
(-0.013863411 0.006122037 0)
(-0.016307187 0.0060342398 0)
(-0.018712824 0.0059322781 0)
(-0.02107467 0.0058163674 0)
(-0.023387169 0.0056867535 0)
(-0.025644865 0.0055437121 0)
(-0.027842422 0.0053875488 0)
(-0.029974633 0.0052185985 0)
(-0.032036429 0.0050372251 0)
(-0.034022894 0.0048438212 0)
(-0.035929277 0.0046388075 0)
(-0.037750998 0.0044226323 0)
(-0.039483666 0.0041957707 0)
(-0.041123084 0.0039587242 0)
(-0.042665262 0.0037120197 0)
(-0.044106428 0.0034562086 0)
(-0.045443034 0.0031918662 0)
(-0.04667177 0.0029195903 0)
(-0.04778957 0.0026400004 0)
(-0.04879362 0.0023537365 0)
(-0.049681369 0.0020614578 0)
(-0.050450532 0.0017638411 0)
(-0.051099102 0.0014615799 0)
(-0.051625353 0.0011553828 0)
(-0.052027845 0.0008459715 0)
(-0.052305434 0.00053407952 0)
(-0.05245727 0.00022045171 0)
(-0.052482804 -9.4159614e-05 0)
(-0.052381792 -0.00040899641 0)
(-0.052154296 -0.00072329485 0)
(-0.051800686 -0.0010362883 0)
(-0.051321638 -0.0013472092 0)
(-0.050718141 -0.0016552911 0)
(-0.049991487 -0.0019597708 0)
(-0.049143275 -0.0022598898 0)
(-0.048175411 -0.0025548971 0)
(-0.047090096 -0.0028440506 0)
(-0.045889831 -0.0031266198 0)
(-0.044577406 -0.0034018873 0)
(-0.043155898 -0.003669151 0)
(-0.041628663 -0.0039277265 0)
(-0.039999325 -0.0041769487 0)
(-0.038271777 -0.004416174 0)
(-0.03645016 -0.004644782 0)
(-0.034538865 -0.004862178 0)
(-0.032542513 -0.005067794 0)
(-0.030465949 -0.0052610913 0)
(-0.028314229 -0.0054415616 0)
(-0.026092607 -0.0056087291 0)
(-0.02380652 -0.0057621518 0)
(-0.021461578 -0.0059014228 0)
(-0.019063546 -0.0060261721 0)
(-0.016618331 -0.0061360674 0)
(-0.014131965 -0.0062308156 0)
(-0.011610591 -0.0063101634 0)
(-0.0090604447 -0.0063738984 0)
(-0.00648784 -0.0064218498 0)
(-0.0038991502 -0.0064538892 0)
(-0.0013007919 -0.0064699303 0)
(0.001300792 -0.0064699303 0)
(0.0038991502 -0.0064538892 0)
(0.00648784 -0.0064218498 0)
(0.0090604447 -0.0063738984 0)
(0.011610591 -0.0063101634 0)
(0.014131965 -0.0062308156 0)
(0.016618331 -0.0061360674 0)
(0.019063546 -0.0060261721 0)
(0.021461578 -0.0059014228 0)
(0.02380652 -0.0057621518 0)
(0.026092607 -0.0056087291 0)
(0.028314229 -0.0054415616 0)
(0.030465949 -0.0052610913 0)
(0.032542513 -0.005067794 0)
(0.034538865 -0.004862178 0)
(0.036450161 -0.004644782 0)
(0.038271777 -0.004416174 0)
(0.039999325 -0.0041769487 0)
(0.041628663 -0.0039277265 0)
(0.043155898 -0.003669151 0)
(0.044577406 -0.0034018873 0)
(0.045889831 -0.0031266198 0)
(0.047090096 -0.0028440506 0)
(0.048175411 -0.0025548971 0)
(0.049143275 -0.0022598898 0)
(0.049991487 -0.0019597708 0)
(0.050718141 -0.0016552911 0)
(0.051321638 -0.0013472092 0)
(0.051800686 -0.0010362883 0)
(0.052154296 -0.00072329484 0)
(0.052381792 -0.0004089964 0)
(0.052482804 -9.4159608e-05 0)
(0.05245727 0.00022045171 0)
(0.052305434 0.00053407953 0)
(0.052027845 0.0008459715 0)
(0.051625353 0.0011553828 0)
(0.051099102 0.00146158 0)
(0.050450532 0.0017638411 0)
(0.049681369 0.0020614578 0)
(0.04879362 0.0023537365 0)
(0.04778957 0.0026400004 0)
(0.04667177 0.0029195903 0)
(0.045443034 0.0031918662 0)
(0.044106428 0.0034562086 0)
(0.042665262 0.0037120197 0)
(0.041123084 0.0039587243 0)
(0.039483666 0.0041957707 0)
(0.037750998 0.0044226323 0)
(0.035929277 0.0046388075 0)
(0.034022894 0.0048438212 0)
(0.032036429 0.0050372251 0)
(0.029974633 0.0052185985 0)
(0.027842422 0.0053875488 0)
(0.025644865 0.0055437121 0)
(0.023387169 0.0056867535 0)
(0.02107467 0.0058163674 0)
(0.018712824 0.0059322781 0)
(0.016307187 0.0060342398 0)
(0.013863411 0.0061220371 0)
(0.011387226 0.0061954848 0)
(0.008884432 0.0062544286 0)
(0.0063608843 0.0062987448 0)
(0.0038224814 0.0063283406 0)
(0.0012751529 0.006343154 0)
(-0.0012818313 0.0088978097 0)
(-0.0038425013 0.0088770316 0)
(-0.0063942 0.0088355189 0)
(-0.0089309673 0.0087733583 0)
(-0.011446874 0.0086906801 0)
(-0.013936036 0.0085876577 0)
(-0.016392623 0.0084645076 0)
(-0.018810874 0.0083214893 0)
(-0.021185111 0.0081589049 0)
(-0.023509745 0.0079770989 0)
(-0.025779295 0.0077764582 0)
(-0.027988396 0.007557411 0)
(-0.030131813 0.0073204271 0)
(-0.032204453 0.0070660168 0)
(-0.034201372 0.0067947308 0)
(-0.036117793 0.0065071589 0)
(-0.037949115 0.0062039298 0)
(-0.039690921 0.0058857099 0)
(-0.041338992 0.0055532026 0)
(-0.042889319 0.0052071466 0)
(-0.044338106 0.0048483157 0)
(-0.04568179 0.0044775165 0)
(-0.04691704 0.0040955877 0)
(-0.048040774 0.0037033981 0)
(-0.049050163 0.0033018455 0)
(-0.049942642 0.0028918543 0)
(-0.050715914 0.0024743742 0)
(-0.05136796 0.002050378 0)
(-0.051897044 0.0016208593 0)
(-0.05230172 0.0011868309 0)
(-0.052580836 0.00074932188 0)
(-0.052733536 0.00030937631 0)
(-0.052759269 -0.00013195053 0)
(-0.05265779 -0.00057359445 0)
(-0.052429159 -0.0010144841 0)
(-0.052073747 -0.0014535443 0)
(-0.051592237 -0.0018896982 0)
(-0.050985618 -0.0023218708 0)
(-0.05025519 -0.0027489912 0)
(-0.049402562 -0.0031699956 0)
(-0.048429647 -0.0035838304 0)
(-0.047338658 -0.0039894546 0)
(-0.046132109 -0.0043858432 0)
(-0.044812805 -0.00477199 0)
(-0.043383838 -0.0051469101 0)
(-0.04184858 -0.0055096432 0)
(-0.040210677 -0.0058592562 0)
(-0.038474038 -0.0061948461 0)
(-0.036642831 -0.0065155429 0)
(-0.034721465 -0.0068205118 0)
(-0.032714588 -0.0071089562 0)
(-0.03062707 -0.0073801201 0)
(-0.028463994 -0.0076332906 0)
(-0.02623064 -0.0078677998 0)
(-0.023932476 -0.0080830276 0)
(-0.021575141 -0.0082784033 0)
(-0.019164431 -0.0084534076 0)
(-0.016706284 -0.0086075742 0)
(-0.014206766 -0.0087404919 0)
(-0.01167205 -0.0088518052 0)
(-0.0091084081 -0.0089412162 0)
(-0.0065221863 -0.0090084852 0)
(-0.0039197926 -0.0090534317 0)
(-0.0013076786 -0.0090759352 0)
(0.0013076786 -0.0090759352 0)
(0.0039197927 -0.0090534317 0)
(0.0065221863 -0.0090084852 0)
(0.0091084081 -0.0089412162 0)
(0.01167205 -0.0088518052 0)
(0.014206766 -0.0087404919 0)
(0.016706285 -0.0086075742 0)
(0.019164431 -0.0084534076 0)
(0.021575141 -0.0082784033 0)
(0.023932476 -0.0080830276 0)
(0.02623064 -0.0078677998 0)
(0.028463994 -0.0076332906 0)
(0.03062707 -0.0073801201 0)
(0.032714588 -0.0071089562 0)
(0.034721465 -0.0068205118 0)
(0.036642831 -0.0065155429 0)
(0.038474038 -0.0061948461 0)
(0.040210677 -0.0058592562 0)
(0.04184858 -0.0055096431 0)
(0.043383838 -0.0051469101 0)
(0.044812805 -0.00477199 0)
(0.046132109 -0.0043858432 0)
(0.047338658 -0.0039894546 0)
(0.048429647 -0.0035838303 0)
(0.049402562 -0.0031699956 0)
(0.05025519 -0.0027489912 0)
(0.050985618 -0.0023218708 0)
(0.051592237 -0.0018896982 0)
(0.052073747 -0.0014535443 0)
(0.052429159 -0.0010144841 0)
(0.05265779 -0.00057359444 0)
(0.052759269 -0.00013195052 0)
(0.052733536 0.00030937632 0)
(0.052580836 0.00074932188 0)
(0.05230172 0.0011868309 0)
(0.051897044 0.0016208593 0)
(0.05136796 0.002050378 0)
(0.050715914 0.0024743742 0)
(0.049942642 0.0028918543 0)
(0.049050163 0.0033018455 0)
(0.048040774 0.0037033981 0)
(0.04691704 0.0040955877 0)
(0.04568179 0.0044775165 0)
(0.044338106 0.0048483157 0)
(0.042889319 0.0052071466 0)
(0.041338992 0.0055532026 0)
(0.039690921 0.0058857099 0)
(0.037949115 0.0062039298 0)
(0.036117793 0.0065071589 0)
(0.034201372 0.0067947308 0)
(0.032204452 0.0070660168 0)
(0.030131813 0.0073204271 0)
(0.027988396 0.007557411 0)
(0.025779295 0.0077764582 0)
(0.023509745 0.0079770989 0)
(0.021185111 0.0081589049 0)
(0.018810874 0.0083214893 0)
(0.016392623 0.0084645076 0)
(0.013936036 0.0085876577 0)
(0.011446874 0.0086906801 0)
(0.0089309672 0.0087733583 0)
(0.0063941999 0.0088355189 0)
(0.0038425012 0.0088770316 0)
(0.0012818312 0.0088978097 0)
(-0.0012903046 0.01146756 0)
(-0.0038679019 0.011440782 0)
(-0.0064364696 0.011387283 0)
(-0.0089900089 0.011307175 0)
(-0.011522552 0.011200625 0)
(-0.014028176 0.011067856 0)
(-0.016501014 0.010909148 0)
(-0.018935267 0.010724834 0)
(-0.021325217 0.010515305 0)
(-0.023665242 0.010281003 0)
(-0.025949824 0.010022428 0)
(-0.028173562 0.0097401301 0)
(-0.030331188 0.0094347156 0)
(-0.032417571 0.0091068418 0)
(-0.034427739 0.0087572181 0)
(-0.036356882 0.0083866047 0)
(-0.038200367 0.0079958116 0)
(-0.039953748 0.0075856975 0)
(-0.041612779 0.0071571687 0)
(-0.043173421 0.0067111773 0)
(-0.044631855 0.0062487203 0)
(-0.045984492 0.0057708372 0)
(-0.047227981 0.0052786089 0)
(-0.048359217 0.0047731551 0)
(-0.049375353 0.0042556327 0)
(-0.050273805 0.0037272333 0)
(-0.051052261 0.0031891807 0)
(-0.051708689 0.0026427285 0)
(-0.05224134 0.0020891577 0)
(-0.052648758 0.0015297733 0)
(-0.052929782 0.00096590198 0)
(-0.053083552 0.00039888879 0)
(-0.053109513 -0.00016990609 0)
(-0.053007415 -0.00073911075 0)
(-0.052777321 -0.0013073445 0)
(-0.052419604 -0.0018732214 0)
(-0.051934949 -0.0024353539 0)
(-0.051324352 -0.0029923563 0)
(-0.050589124 -0.0035428483 0)
(-0.04973088 -0.0040854591 0)
(-0.048751548 -0.0046188304 0)
(-0.047653355 -0.0051416207 0)
(-0.046438831 -0.005652509 0)
(-0.045110799 -0.0061501981 0)
(-0.043672372 -0.0066334187 0)
(-0.042126943 -0.007100933 0)
(-0.040478183 -0.0075515385 0)
(-0.038730027 -0.0079840712 0)
(-0.036886668 -0.0083974095 0)
(-0.034952547 -0.0087904774 0)
(-0.032932341 -0.0091622482 0)
(-0.030830953 -0.0095117473 0)
(-0.028653498 -0.0098380556 0)
(-0.026405294 -0.010140312 0)
(-0.024091845 -0.010417718 0)
(-0.021718825 -0.010669537 0)
(-0.019292071 -0.0108951 0)
(-0.016817561 -0.011093805 0)
(-0.0143014 -0.011265123 0)
(-0.011749804 -0.011408595 0)
(-0.0091690869 -0.011523837 0)
(-0.0065656375 -0.011610541 0)
(-0.0039459072 -0.011668473 0)
(-0.0013163907 -0.011697478 0)
(0.0013163907 -0.011697478 0)
(0.0039459072 -0.011668473 0)
(0.0065656376 -0.011610541 0)
(0.0091690869 -0.011523837 0)
(0.011749804 -0.011408595 0)
(0.0143014 -0.011265123 0)
(0.016817561 -0.011093805 0)
(0.019292071 -0.0108951 0)
(0.021718825 -0.010669537 0)
(0.024091845 -0.010417718 0)
(0.026405294 -0.010140312 0)
(0.028653498 -0.0098380556 0)
(0.030830953 -0.0095117473 0)
(0.032932341 -0.0091622482 0)
(0.034952547 -0.0087904774 0)
(0.036886668 -0.0083974094 0)
(0.038730027 -0.0079840712 0)
(0.040478183 -0.0075515385 0)
(0.042126943 -0.007100933 0)
(0.043672372 -0.0066334187 0)
(0.045110799 -0.006150198 0)
(0.046438831 -0.005652509 0)
(0.047653355 -0.0051416207 0)
(0.048751548 -0.0046188304 0)
(0.04973088 -0.0040854591 0)
(0.050589124 -0.0035428483 0)
(0.051324352 -0.0029923563 0)
(0.051934949 -0.0024353539 0)
(0.052419604 -0.0018732214 0)
(0.052777321 -0.0013073445 0)
(0.053007415 -0.00073911074 0)
(0.053109513 -0.00016990608 0)
(0.053083552 0.0003988888 0)
(0.052929782 0.00096590199 0)
(0.052648758 0.0015297733 0)
(0.05224134 0.0020891577 0)
(0.051708689 0.0026427285 0)
(0.051052261 0.0031891807 0)
(0.050273805 0.0037272333 0)
(0.049375353 0.0042556328 0)
(0.048359217 0.0047731551 0)
(0.047227981 0.0052786089 0)
(0.045984492 0.0057708372 0)
(0.044631855 0.0062487203 0)
(0.043173421 0.0067111773 0)
(0.041612779 0.0071571687 0)
(0.039953748 0.0075856975 0)
(0.038200367 0.0079958116 0)
(0.036356882 0.0083866047 0)
(0.034427739 0.0087572181 0)
(0.032417571 0.0091068418 0)
(0.030331188 0.0094347156 0)
(0.028173562 0.0097401301 0)
(0.025949824 0.010022428 0)
(0.023665242 0.010281003 0)
(0.021325217 0.010515305 0)
(0.018935267 0.010724834 0)
(0.016501014 0.010909148 0)
(0.014028176 0.011067856 0)
(0.011522552 0.011200625 0)
(0.0089900088 0.011307175 0)
(0.0064364695 0.011387283 0)
(0.0038679019 0.011440782 0)
(0.0012903046 0.01146756 0)
(-0.0013006001 0.014056048 0)
(-0.0038987647 0.014023228 0)
(-0.0064878287 0.013957657 0)
(-0.0090617461 0.013859472 0)
(-0.011614502 0.013728878 0)
(-0.014140128 0.01356615 0)
(-0.016632708 0.013371628 0)
(-0.019086399 0.013145722 0)
(-0.02149544 0.01288891 0)
(-0.02385416 0.012601734 0)
(-0.026157 0.012284806 0)
(-0.028398516 0.011938801 0)
(-0.030573395 0.011564462 0)
(-0.03267647 0.011162594 0)
(-0.034702725 0.010734066 0)
(-0.036647312 0.010279809 0)
(-0.038505561 0.0098008175 0)
(-0.040272992 0.0092981425 0)
(-0.041945321 0.0087728948 0)
(-0.04351848 0.0082262417 0)
(-0.044988617 0.0076594047 0)
(-0.046352114 0.0070736583 0)
(-0.047605592 0.0064703269 0)
(-0.048745922 0.0058507831 0)
(-0.049770233 0.005216445 0)
(-0.05067592 0.0045687729 0)
(-0.051460653 0.0039092671 0)
(-0.052122381 0.0032394643 0)
(-0.052659343 0.0025609344 0)
(-0.05307007 0.0018752772 0)
(-0.053353391 0.0011841188 0)
(-0.053508439 0.00048910797 0)
(-0.053534654 -0.00020808822 0)
(-0.053431785 -0.00090578793 0)
(-0.053199895 -0.0016022988 0)
(-0.052839358 -0.0022959219 0)
(-0.052350866 -0.0029849566 0)
(-0.051735423 -0.0036677043 0)
(-0.050994349 -0.0043424731 0)
(-0.050129273 -0.0050075827 0)
(-0.049142136 -0.0056613682 0)
(-0.048035185 -0.0063021854 0)
(-0.046810969 -0.0069284147 0)
(-0.045472333 -0.0075384663 0)
(-0.044022414 -0.0081307842 0)
(-0.042464634 -0.0087038512 0)
(-0.040802691 -0.009256193 0)
(-0.039040551 -0.0097863829 0)
(-0.037182443 -0.010293046 0)
(-0.03523284 -0.010774863 0)
(-0.033196459 -0.011230576 0)
(-0.03107824 -0.011658989 0)
(-0.028883341 -0.012058976 0)
(-0.026617121 -0.012429481 0)
(-0.024285127 -0.012769525 0)
(-0.021893082 -0.013078206 0)
(-0.019446868 -0.013354702 0)
(-0.01695251 -0.013598276 0)
(-0.014416164 -0.013808279 0)
(-0.011844097 -0.013984149 0)
(-0.0092426722 -0.014125414 0)
(-0.0066183306 -0.014231697 0)
(-0.0039775759 -0.014302711 0)
(-0.0013269558 -0.014338265 0)
(0.0013269558 -0.014338265 0)
(0.003977576 -0.014302711 0)
(0.0066183306 -0.014231697 0)
(0.0092426722 -0.014125414 0)
(0.011844097 -0.013984149 0)
(0.014416164 -0.013808279 0)
(0.01695251 -0.013598276 0)
(0.019446868 -0.013354702 0)
(0.021893082 -0.013078206 0)
(0.024285127 -0.012769525 0)
(0.026617121 -0.012429481 0)
(0.028883341 -0.012058976 0)
(0.03107824 -0.011658989 0)
(0.033196459 -0.011230576 0)
(0.03523284 -0.010774863 0)
(0.037182443 -0.010293046 0)
(0.039040552 -0.0097863829 0)
(0.040802691 -0.009256193 0)
(0.042464634 -0.0087038512 0)
(0.044022414 -0.0081307842 0)
(0.045472333 -0.0075384663 0)
(0.046810969 -0.0069284147 0)
(0.048035185 -0.0063021854 0)
(0.049142136 -0.0056613682 0)
(0.050129273 -0.0050075827 0)
(0.050994349 -0.0043424731 0)
(0.051735423 -0.0036677043 0)
(0.052350866 -0.0029849566 0)
(0.052839358 -0.0022959219 0)
(0.053199895 -0.0016022987 0)
(0.053431785 -0.00090578792 0)
(0.053534654 -0.00020808821 0)
(0.053508439 0.00048910798 0)
(0.053353391 0.0011841189 0)
(0.053070069 0.0018752772 0)
(0.052659343 0.0025609344 0)
(0.052122381 0.0032394643 0)
(0.051460653 0.0039092671 0)
(0.05067592 0.0045687729 0)
(0.049770233 0.005216445 0)
(0.048745922 0.0058507831 0)
(0.047605592 0.0064703269 0)
(0.046352114 0.0070736583 0)
(0.044988617 0.0076594047 0)
(0.04351848 0.0082262417 0)
(0.041945321 0.0087728948 0)
(0.040272992 0.0092981425 0)
(0.038505561 0.0098008175 0)
(0.036647312 0.010279809 0)
(0.034702725 0.010734066 0)
(0.03267647 0.011162594 0)
(0.030573395 0.011564462 0)
(0.028398516 0.011938801 0)
(0.026157 0.012284806 0)
(0.02385416 0.012601734 0)
(0.02149544 0.01288891 0)
(0.019086399 0.013145722 0)
(0.016632708 0.013371628 0)
(0.014140127 0.01356615 0)
(0.011614502 0.013728878 0)
(0.009061746 0.013859472 0)
(0.0064878287 0.013957657 0)
(0.0038987647 0.014023228 0)
(0.0013006001 0.014056048 0)
(-0.0013127433 0.016666951 0)
(-0.0039351664 0.016628038 0)
(-0.0065484049 0.016550291 0)
(-0.009146357 0.016433875 0)
(-0.011722953 0.016279033 0)
(-0.014272167 0.016086088 0)
(-0.016788032 0.015855445 0)
(-0.019264648 0.015587591 0)
(-0.021696201 0.015283091 0)
(-0.024076969 0.014942588 0)
(-0.026401338 0.014566806 0)
(-0.028663815 0.014156548 0)
(-0.030859039 0.013712692 0)
(-0.032981792 0.013236193 0)
(-0.035027012 0.012728081 0)
(-0.036989805 0.012189461 0)
(-0.038865458 0.01162151 0)
(-0.040649447 0.011025475 0)
(-0.042337449 0.010402674 0)
(-0.043925356 0.0097544888 0)
(-0.045409281 0.0090823692 0)
(-0.04678557 0.0083878258 0)
(-0.048050814 0.0076724293 0)
(-0.049201852 0.0069378071 0)
(-0.050235786 0.0061856405 0)
(-0.051149988 0.0054176615 0)
(-0.051942103 0.0046356488 0)
(-0.052610063 0.0038414246 0)
(-0.05315209 0.0030368508 0)
(-0.053566699 0.0022238243 0)
(-0.053852709 0.0014042733 0)
(-0.054009246 0.00058015278 0)
(-0.054035742 -0.00024656034 0)
(-0.053931947 -0.0010738717 0)
(-0.05369792 -0.0018997745 0)
(-0.053334043 -0.0027222544 0)
(-0.052841012 -0.0035392945 0)
(-0.052219841 -0.0043488809 0)
(-0.05147186 -0.0051490074 0)
(-0.050598717 -0.0059376814 0)
(-0.049602368 -0.0067129289 0)
(-0.048485082 -0.0074728001 0)
(-0.047249432 -0.0082153747 0)
(-0.045898288 -0.0089387674 0)
(-0.044434818 -0.0096411332 0)
(-0.042862474 -0.010320673 0)
(-0.041184989 -0.010975638 0)
(-0.039406367 -0.011604338 0)
(-0.037530874 -0.01220514 0)
(-0.035563026 -0.012776482 0)
(-0.033507583 -0.01331687 0)
(-0.031369532 -0.013824887 0)
(-0.029154079 -0.014299198 0)
(-0.026866633 -0.01473855 0)
(-0.024512792 -0.015141781 0)
(-0.022098335 -0.015507821 0)
(-0.019629196 -0.015835697 0)
(-0.017111459 -0.016124534 0)
(-0.014551338 -0.016373562 0)
(-0.011955158 -0.016582114 0)
(-0.0093293418 -0.016749631 0)
(-0.0066803928 -0.016875664 0)
(-0.0040148755 -0.016959875 0)
(-0.0013393993 -0.017002037 0)
(0.0013393994 -0.017002037 0)
(0.0040148755 -0.016959875 0)
(0.0066803928 -0.016875664 0)
(0.0093293419 -0.016749631 0)
(0.011955158 -0.016582114 0)
(0.014551338 -0.016373562 0)
(0.017111459 -0.016124534 0)
(0.019629196 -0.015835697 0)
(0.022098335 -0.015507821 0)
(0.024512792 -0.015141781 0)
(0.026866633 -0.01473855 0)
(0.029154079 -0.014299198 0)
(0.031369532 -0.013824887 0)
(0.033507583 -0.01331687 0)
(0.035563026 -0.012776482 0)
(0.037530874 -0.01220514 0)
(0.039406367 -0.011604338 0)
(0.041184989 -0.010975638 0)
(0.042862474 -0.010320673 0)
(0.044434818 -0.0096411332 0)
(0.045898288 -0.0089387674 0)
(0.047249432 -0.0082153747 0)
(0.048485082 -0.0074728001 0)
(0.049602368 -0.0067129289 0)
(0.050598717 -0.0059376814 0)
(0.05147186 -0.0051490074 0)
(0.052219841 -0.0043488809 0)
(0.052841012 -0.0035392945 0)
(0.053334043 -0.0027222544 0)
(0.053697921 -0.0018997745 0)
(0.053931947 -0.0010738717 0)
(0.054035742 -0.00024656032 0)
(0.054009246 0.00058015279 0)
(0.053852709 0.0014042733 0)
(0.053566699 0.0022238243 0)
(0.053152089 0.0030368508 0)
(0.052610063 0.0038414247 0)
(0.051942103 0.0046356488 0)
(0.051149988 0.0054176615 0)
(0.050235786 0.0061856406 0)
(0.049201852 0.0069378071 0)
(0.048050814 0.0076724293 0)
(0.04678557 0.0083878258 0)
(0.045409281 0.0090823692 0)
(0.043925356 0.0097544888 0)
(0.042337449 0.010402674 0)
(0.040649447 0.011025475 0)
(0.038865458 0.01162151 0)
(0.036989805 0.012189461 0)
(0.035027012 0.012728081 0)
(0.032981792 0.013236193 0)
(0.030859039 0.013712692 0)
(0.028663815 0.014156548 0)
(0.026401338 0.014566806 0)
(0.024076968 0.014942588 0)
(0.021696201 0.015283091 0)
(0.019264648 0.015587591 0)
(0.016788032 0.015855445 0)
(0.014272167 0.016086088 0)
(0.011722953 0.016279033 0)
(0.009146357 0.016433875 0)
(0.0065484048 0.016550291 0)
(0.0039351663 0.016628038 0)
(0.0013127433 0.016666951 0)
(-0.0013267591 0.019303987 0)
(-0.0039771813 0.019258919 0)
(-0.0066183221 0.019168877 0)
(-0.0092440151 0.01903405 0)
(-0.011848126 0.018854718 0)
(-0.014424566 0.018631257 0)
(-0.016967304 0.018364137 0)
(-0.019470379 0.018053919 0)
(-0.021927913 0.017701257 0)
(-0.024334124 0.017306898 0)
(-0.026683339 0.016871679 0)
(-0.028970006 0.016396528 0)
(-0.031188705 0.015882463 0)
(-0.033334164 0.01533059 0)
(-0.035401266 0.014742102 0)
(-0.037385065 0.014118277 0)
(-0.039280796 0.01346048 0)
(-0.041083886 0.012770153 0)
(-0.042789966 0.012048823 0)
(-0.044394884 0.011298091 0)
(-0.045894709 0.010519635 0)
(-0.04728575 0.009715206 0)
(-0.048564558 0.0088866219 0)
(-0.04972794 0.0080357681 0)
(-0.050772966 0.0071645919 0)
(-0.051696978 0.0062750994 0)
(-0.052497597 0.005369351 0)
(-0.053172733 0.0044494573 0)
(-0.053720586 0.0035175747 0)
(-0.054139658 0.0025759006 0)
(-0.054428755 0.0016266683 0)
(-0.054586992 0.00067214222 0)
(-0.054613797 -0.00028538782 0)
(-0.054508914 -0.0012436118 0)
(-0.054272408 -0.0022002054 0)
(-0.05390466 -0.0031528354 0)
(-0.053406376 -0.0040991658 0)
(-0.052778581 -0.005036864 0)
(-0.052022619 -0.0059636065 0)
(-0.051140155 -0.0068770854 0)
(-0.050133167 -0.0077750144 0)
(-0.049003948 -0.0086551351 0)
(-0.047755097 -0.0095152235 0)
(-0.046389517 -0.010353096 0)
(-0.044910407 -0.011166616 0)
(-0.043321257 -0.011953698 0)
(-0.041625839 -0.012712319 0)
(-0.039828201 -0.013440519 0)
(-0.037932652 -0.014136409 0)
(-0.035943759 -0.014798176 0)
(-0.033866329 -0.015424093 0)
(-0.031705405 -0.016012517 0)
(-0.029466248 -0.016561901 0)
(-0.027154322 -0.017070794 0)
(-0.02477529 -0.01753785 0)
(-0.022334987 -0.01796183 0)
(-0.019839415 -0.018341605 0)
(-0.017294722 -0.018676163 0)
(-0.014707187 -0.01896461 0)
(-0.012083204 -0.019206174 0)
(-0.0094292666 -0.019400209 0)
(-0.0067519465 -0.019546193 0)
(-0.0040578793 -0.019643734 0)
(-0.0013537459 -0.01969257 0)
(0.001353746 -0.01969257 0)
(0.0040578794 -0.019643734 0)
(0.0067519465 -0.019546193 0)
(0.0094292667 -0.019400209 0)
(0.012083204 -0.019206174 0)
(0.014707187 -0.01896461 0)
(0.017294722 -0.018676163 0)
(0.019839415 -0.018341605 0)
(0.022334987 -0.01796183 0)
(0.02477529 -0.01753785 0)
(0.027154322 -0.017070794 0)
(0.029466248 -0.016561901 0)
(0.031705405 -0.016012517 0)
(0.033866329 -0.015424093 0)
(0.035943759 -0.014798176 0)