/*--------------------------------*- C++ -*----------------------------------*\
| =========                 |                                                 |
| \\      /  F ield         | OpenFOAM: The Open Source CFD Toolbox           |
|  \\    /   O peration     | Version:  2306                                  |
|   \\  /    A nd           | Website:  www.openfoam.com                      |
|    \\/     M anipulation  |                                                 |
\*---------------------------------------------------------------------------*/
FoamFile
{
    version     2.0;
    format      ascii;
    arch        "LSB;label=32;scalar=64";
    class       surfaceScalarField;
    location    "0.16";
    object      phi;
}
// * * * * * * * * * * * * * * * * * * * * * * * * * * * * * * * * * * * * * //

dimensions      [0 3 -1 0 0 0 0];

oriented        oriented;

internalField   nonuniform List<scalar> 
12640
(
3.2165682e-06
2.1561848e-06
3.2524754e-06
2.0458346e-06
3.2833624e-06
1.9354533e-06
3.3094269e-06
1.8252287e-06
3.3308633e-06
1.7153342e-06
3.3478648e-06
1.6059284e-06
3.3606218e-06
1.4971559e-06
3.3693212e-06
1.3891484e-06
3.3741461e-06
1.2820248e-06
3.3752752e-06
1.1758929e-06
3.3728829e-06
1.0708487e-06
3.3671387e-06
9.669785e-07
3.3582071e-06
8.6435884e-07
3.3462477e-06
7.6305679e-07
3.3314142e-06
6.6313116e-07
3.3138555e-06
5.6463319e-07
3.2937149e-06
4.6760614e-07
3.2711298e-06
3.7208689e-07
3.2462326e-06
2.7810597e-07
3.2191494e-06
1.8568727e-07
3.1899988e-06
9.4849059e-08
3.158898e-06
5.5875619e-09
3.1259823e-06
-8.2023959e-08
3.0913288e-06
-1.6801405e-07
3.0550449e-06
-2.5240122e-07
3.0172278e-06
-3.3517437e-07
2.9779685e-06
-4.1633693e-07
2.937354e-06
-4.9589571e-07
2.895466e-06
-5.7385803e-07
2.8523832e-06
-6.5023633e-07
2.8081777e-06
-7.250424e-07
2.76292e-06
-7.9829299e-07
2.7166748e-06
-8.7000311e-07
2.6695038e-06
-9.4019095e-07
2.6214649e-06
-1.0088757e-06
2.5726126e-06
-1.0760761e-06
2.5229971e-06
-1.1418145e-06
2.4726669e-06
-1.2061104e-06
2.4216654e-06
-1.2689868e-06
2.3700346e-06
-1.3304651e-06
2.3178126e-06
-1.3905681e-06
2.2650357e-06
-1.4493179e-06
2.2117364e-06
-1.5067372e-06
2.1579448e-06
-1.562848e-06
2.1036898e-06
-1.6176732e-06
2.0489965e-06
-1.6712352e-06
1.9938882e-06
-1.7235547e-06
1.9383863e-06
-1.7746532e-06
1.8825097e-06
-1.8245527e-06
1.8262765e-06
-1.8732734e-06
1.7697016e-06
-1.9208344e-06
1.7127985e-06
-1.9672562e-06
1.6555795e-06
-2.0125567e-06
1.5980546e-06
-2.0567546e-06
1.5402325e-06
-2.0998668e-06
1.4821207e-06
-2.14191e-06
1.4237255e-06
-2.1828999e-06
1.3650507e-06
-2.2228513e-06
1.3061002e-06
-2.2617787e-06
1.2468761e-06
-2.2996953e-06
1.1873795e-06
-2.3366132e-06
1.1276098e-06
-2.3725436e-06
1.0675669e-06
-2.4074978e-06
1.0072476e-06
-2.4414841e-06
9.4664971e-07
-2.4745117e-06
8.8576972e-07
-2.5065875e-06
8.2460157e-07
-2.537718e-06
7.6314181e-07
-2.5679087e-06
7.0138277e-07
-2.5971631e-06
6.3931816e-07
-2.6254846e-06
5.7694076e-07
-2.6528752e-06
5.1424249e-07
-2.6793353e-06
4.512153e-07
-2.7048648e-06
3.878494e-07
-2.7294613e-06
3.2413604e-07
-2.7531218e-06
2.600651e-07
-2.7758444e-06
1.9562599e-07
-2.7976246e-06
1.308092e-07
-2.8184686e-06
6.5603378e-08
-2.8384026e-06
-2.8574754e-06
3.0802e-06
2.113598e-06
3.1177348e-06
2.0083001e-06
3.1503977e-06
1.9027902e-06
3.1783698e-06
1.7972566e-06
3.2018311e-06
1.6918731e-06
3.2209603e-06
1.5867991e-06
3.2359344e-06
1.4821818e-06
3.2469283e-06
1.3781546e-06
3.2541127e-06
1.2748404e-06
3.2576562e-06
1.1723493e-06
3.2577231e-06
1.0707817e-06
3.2544738e-06
9.7022791e-07
3.2480639e-06
8.7076866e-07
3.2386453e-06
7.7247545e-07
3.2263646e-06
6.7541196e-07
3.211364e-06
5.7963365e-07
3.1937809e-06
4.8518926e-07
3.1737472e-06
3.9212053e-07
3.1513903e-06
3.0046267e-07
3.1268325e-06
2.1024522e-07
3.1001908e-06
1.2149082e-07
3.0715659e-06
3.4212539e-08
3.0411059e-06
-5.1564099e-08
3.0088795e-06
-1.3578752e-07
2.9749903e-06
-2.1851197e-07
2.9395339e-06
-2.997178e-07
2.9025999e-06
-3.7940317e-07
2.864273e-06
-4.5756881e-07
2.8246348e-06
-5.3421969e-07
2.7837612e-06
-6.0936262e-07
2.7417254e-06
-6.8300667e-07
2.6985952e-06
-7.5516262e-07
2.6544363e-06
-8.2584407e-07
2.6093095e-06
-8.9506413e-07
2.5632725e-06
-9.6283857e-07
2.5163797e-06
-1.0291834e-06
2.4686818e-06
-1.0941167e-06
2.420227e-06
-1.1576557e-06
2.3710596e-06
-1.2198194e-06
2.3212218e-06
-1.2806272e-06
2.2707523e-06
-1.3400986e-06
2.2196873e-06
-1.3982531e-06
2.1680606e-06
-1.4551104e-06
2.1159035e-06
-1.5106908e-06
2.0632445e-06
-1.5650143e-06
2.0101105e-06
-1.6181009e-06
1.9565249e-06
-1.6699692e-06
1.902511e-06
-1.7206395e-06
1.8480887e-06
-1.7701304e-06
1.7932758e-06
-1.8184605e-06
1.7380894e-06
-1.8656479e-06
1.6825437e-06
-1.9117104e-06
1.626652e-06
-1.9566651e-06
1.5704253e-06
-2.000528e-06
1.5138742e-06
-2.0433157e-06
1.4570065e-06
-2.0850424e-06
1.3998298e-06
-2.1257231e-06
1.3423498e-06
-2.165371e-06
1.2845711e-06
-2.2040001e-06
1.2264966e-06
-2.2416209e-06
1.1681293e-06
-2.2782459e-06
1.10947e-06
-2.3138842e-06
1.0505182e-06
-2.348546e-06
9.912741e-07
-2.38224e-06
9.3173545e-07
-2.4149732e-06
8.7190036e-07
-2.4467525e-06
8.1176536e-07
-2.4775829e-06
7.513252e-07
-2.5074688e-06
6.9057644e-07
-2.5364141e-06
6.2951285e-07
-2.5644211e-06
5.6812867e-07
-2.591491e-06
5.0641756e-07
-2.6176239e-06
4.4437155e-07
-2.6428186e-06
3.8198339e-07
-2.6670731e-06
3.1924537e-07
-2.6903841e-06
2.561486e-07
-2.7127477e-06
1.9268472e-07
-2.7341607e-06
1.2884455e-07
-2.7546281e-06
6.4619168e-08
-2.7741776e-06
-2.7928561e-06
2.9493874e-06
2.0697982e-06
2.9883026e-06
1.9693848e-06
3.0224978e-06
1.8685951e-06
3.052138e-06
1.7676163e-06
3.0773895e-06
1.6666216e-06
3.098417e-06
1.5657717e-06
3.1153847e-06
1.465214e-06
3.1284547e-06
1.3650845e-06
3.1377877e-06
1.2655075e-06
3.1435409e-06
1.166596e-06
3.1458688e-06
1.0684539e-06
3.1449229e-06
9.7117383e-07
3.1408505e-06
8.7484111e-07
3.1337952e-06
7.795306e-07
3.1238969e-06
6.8531033e-07
3.1112911e-06
5.9223957e-07
3.0961086e-06
5.0037174e-07
3.0784764e-06
4.0975279e-07
3.0585166e-06
3.2042278e-07
3.0363464e-06
2.3241513e-07
3.0120786e-06
1.4575876e-07
2.9858166e-06
6.0474412e-08
2.9576884e-06
-2.3435817e-08
2.9277766e-06
-1.0587574e-07
2.8961751e-06
-1.8691063e-07
2.8629788e-06
-2.6652164e-07
2.8282747e-06
-3.4469891e-07
2.7921458e-06
-4.2144014e-07
2.7546719e-06
-4.967458e-07
2.7159278e-06
-5.706185e-07
2.6759853e-06
-6.4306405e-07
2.6349122e-06
-7.1408948e-07
2.5927728e-06
-7.8370438e-07
2.5496274e-06
-8.519188e-07
2.5055337e-06
-9.1874469e-07
2.460546e-06
-9.8419583e-07
2.4147147e-06
-1.0482853e-06
2.3680876e-06
-1.1110284e-06
2.32071e-06
-1.1724418e-06
2.2726242e-06
-1.2325413e-06
2.2238687e-06
-1.2913431e-06
2.1744808e-06
-1.3488655e-06
2.1244947e-06
-1.4051241e-06
2.0739422e-06
-1.4601383e-06
2.0228525e-06
-1.5139247e-06
1.9712527e-06
-1.566501e-06
1.9191683e-06
-1.6178846e-06
1.8666217e-06
-1.668093e-06
1.813635e-06
-1.7171436e-06
1.7602264e-06
-1.7650522e-06
1.7064142e-06
-1.8118356e-06
1.6522132e-06
-1.8575097e-06
1.597638e-06
-1.9020895e-06
1.5427006e-06
-1.9455907e-06
1.4874124e-06
-1.9880272e-06
1.4317825e-06
-2.0294125e-06
1.3758198e-06
-2.0697603e-06
1.3195308e-06
-2.1090821e-06
1.262921e-06
-2.1473903e-06
1.2059952e-06
-2.1846951e-06
1.1487567e-06
-2.2210072e-06
1.0912079e-06
-2.2563354e-06
1.0333501e-06
-2.2906882e-06
9.7518329e-07
-2.3240734e-06
9.1670782e-07
-2.3564978e-06
8.5792184e-07
-2.3879664e-06
7.9882312e-07
-2.4184843e-06
7.3940913e-07
-2.4480548e-06
6.7967634e-07
-2.4766813e-06
6.1962047e-07
-2.5043653e-06
5.5923648e-07
-2.5311072e-06
4.9851944e-07
-2.5569068e-06
4.3746315e-07
-2.5817624e-06
3.7606134e-07
-2.6056716e-06
3.1430753e-07
-2.6286303e-06
2.5219482e-07
-2.6506349e-06
1.8971511e-07
-2.671681e-06
1.2686087e-07
-2.6917742e-06
6.362505e-08
-2.7109414e-06
-2.7292313e-06
2.8239775e-06
2.0250164e-06
2.8640442e-06
1.929318e-06
2.8995446e-06
1.8330945e-06
2.9306299e-06
1.736531e-06
2.9574515e-06
1.6398001e-06
2.9801615e-06
1.5430616e-06
2.9989116e-06
1.4464638e-06
3.0138526e-06
1.3501435e-06
3.0251337e-06
1.2542264e-06
3.032902e-06
1.1588277e-06
3.0373025e-06
1.0640533e-06
3.0384773e-06
9.6999906e-07
3.0365658e-06
8.7675257e-07
3.0317038e-06
7.8439256e-07
3.0240239e-06
6.9299012e-07
3.0136547e-06
6.0260873e-07
3.0007217e-06
5.1330493e-07
2.9853453e-06
4.2512908e-07
2.9676436e-06
3.3812444e-07
2.9477287e-06
2.5233016e-07
2.9257099e-06
1.677779e-07
2.9016899e-06
8.4494261e-08
2.8757719e-06
2.4821868e-09
2.8480663e-06
-7.8169984e-08
2.81865e-06
-1.5749418e-07
2.7876146e-06
-2.3548653e-07
2.7550463e-06
-3.1213057e-07
2.7210263e-06
-3.8741997e-07
2.685632e-06
-4.6135147e-07
2.6489378e-06
-5.3392415e-07
2.6110137e-06
-6.0514002e-07
2.5719266e-06
-6.7500246e-07
2.5317396e-06
-7.4351749e-07
2.4905132e-06
-8.1069232e-07
2.448304e-06
-8.7653555e-07
2.4051659e-06
-9.4105758e-07
2.3611495e-06
-1.004269e-06
2.3163025e-06
-1.0661816e-06
2.2706698e-06
-1.126809e-06
2.2242936e-06
-1.1861652e-06
2.1772136e-06
-1.244263e-06
2.1294672e-06
-1.301119e-06
2.0810883e-06
-1.3567453e-06
2.0321095e-06
-1.4111598e-06
1.9825606e-06
-1.4643759e-06
1.9324697e-06
-1.5164101e-06
1.8818623e-06
-1.5672775e-06
1.8307622e-06
-1.6169929e-06
1.7791914e-06
-1.6655728e-06
1.7271701e-06
-1.7130306e-06
1.6747161e-06
-1.7593814e-06
1.6218461e-06
-1.8046397e-06
1.568575e-06
-1.8488187e-06
1.5149166e-06
-1.8919323e-06
1.4608823e-06
-1.9339928e-06
1.4064829e-06
-1.975013e-06
1.351727e-06
-2.0150044e-06
1.2966237e-06
-2.0539789e-06
1.241179e-06
-2.0919455e-06
1.1853991e-06
-2.1289152e-06
1.129288e-06
-2.1648961e-06
1.0728491e-06
-2.1998964e-06
1.0160848e-06
-2.2339237e-06
9.5899668e-07
-2.2669852e-06
9.0158549e-07
-2.2990866e-06
8.4385161e-07
-2.3302322e-06
7.8579311e-07
-2.3604256e-06
7.2740922e-07
-2.3896707e-06
6.686973e-07
-2.4179694e-06
6.0965411e-07
-2.4453221e-06
5.5027625e-07
-2.4717292e-06
4.9055971e-07
-2.4971902e-06
4.3049992e-07
-2.5217026e-06
3.7009166e-07
-2.5452632e-06
3.0932996e-07
-2.5678686e-06
2.4820807e-07
-2.5895127e-06
1.8672057e-07
-2.6101933e-06
1.2486041e-07
-2.6299142e-06
6.262247e-08
-2.6487035e-06
-2.6666087e-06
2.7038137e-06
1.9794651e-06
2.7448199e-06
1.888312e-06
2.7814153e-06
1.796499e-06
2.8137369e-06
1.7042095e-06
2.8419231e-06
1.6116138e-06
2.8661137e-06
1.518871e-06
2.886448e-06
1.4261294e-06
2.9030659e-06
1.3335257e-06
2.9161057e-06
1.2411867e-06
2.9257046e-06
1.1492288e-06
2.9319982e-06
1.0577597e-06
2.9351198e-06
9.6687744e-07
2.9352006e-06
8.7667183e-07
2.9323689e-06
7.872243e-07
2.92675e-06
6.9860912e-07
2.918466e-06
6.1089272e-07
2.9076361e-06
5.2413487e-07
2.8943758e-06
4.3838933e-07
2.8787969e-06
3.5370325e-07
2.8610082e-06
2.7011876e-07
2.8411142e-06
1.8767174e-07
2.8192164e-06
1.063921e-07
2.7953989e-06
2.6299773e-08
2.7697935e-06
-5.2564819e-08
2.7424592e-06
-1.3015997e-07
2.7134873e-06
-2.0651456e-07
2.6829617e-06
-2.816049e-07
2.6509622e-06
-3.554205e-07
2.6175645e-06
-4.2795368e-07
2.5828407e-06
-4.9920049e-07
2.5468604e-06
-5.6915971e-07
2.5096887e-06
-6.3783078e-07
2.4713881e-06
-7.0521705e-07
2.4320179e-06
-7.7132187e-07
2.3916341e-06
-8.3615199e-07
2.3502901e-06
-8.9971374e-07
2.3080368e-06
-9.6201545e-07
2.2649209e-06
-1.0230658e-06
2.2209879e-06
-1.082876e-06
2.1762791e-06
-1.1414565e-06
2.1308353e-06
-1.1988194e-06
2.0846926e-06
-1.2549763e-06
2.037887e-06
-1.3099399e-06
1.9904505e-06
-1.3637229e-06
1.9424131e-06
-1.4163386e-06
1.8938042e-06
-1.4678012e-06
1.8446494e-06
-1.5181227e-06
1.7949734e-06
-1.5673169e-06
1.7447981e-06
-1.6153975e-06
1.6941449e-06
-1.6623774e-06
1.6430327e-06
-1.7082693e-06
1.5914787e-06
-1.7530858e-06
1.5394988e-06
-1.7968388e-06
1.4871066e-06
-1.8395404e-06
1.4343156e-06
-1.881202e-06
1.3811373e-06
-1.9218348e-06
1.3275819e-06
-1.9614489e-06
1.2736579e-06
-2.0000551e-06
1.2193734e-06
-2.0376612e-06
1.1647351e-06
-2.0742767e-06
1.1097477e-06
-2.1099088e-06
1.0544164e-06
-2.144565e-06
9.98745e-07
-2.1782524e-06
9.427357e-07
-2.2109761e-06
8.863899e-07
-2.2427409e-06
8.2970893e-07
-2.2735512e-06
7.7269352e-07
-2.3034102e-06
7.1534214e-07
-2.3323196e-06
6.5765428e-07
-2.3602816e-06
5.9962805e-07
-2.3872957e-06
5.4126099e-07
-2.4133623e-06
4.8255002e-07
-2.4384792e-06
4.2349203e-07
-2.4626446e-06
3.6408297e-07
-2.4858541e-06
3.0431812e-07
-2.5081037e-06
2.4419396e-07
-2.5293888e-06
1.8370486e-07
-2.5497043e-06
1.2284623e-07
-2.5690557e-06
6.1613071e-08
-2.5874704e-06
-2.6049958e-06
2.5887357e-06
1.9333399e-06
2.6304857e-06
1.8465619e-06
2.6679812e-06
1.7590035e-06
2.7013455e-06
1.670845e-06
2.7307051e-06
1.5822543e-06
2.756187e-06
1.4933892e-06
2.7779197e-06
1.4043967e-06
2.7960317e-06
1.3154137e-06
2.8106516e-06
1.2265668e-06
2.8219065e-06
1.1379739e-06
2.8299231e-06
1.0497432e-06
2.834826e-06
9.6197459e-07
2.8367385e-06
8.7475941e-07
2.8357811e-06
7.8818168e-07
2.8320725e-06
7.0231772e-07
2.8257282e-06
6.1723691e-07
2.8168611e-06
5.3300201e-07
2.8055814e-06
4.4966899e-07
2.7919958e-06
3.672889e-07
2.7762082e-06
2.8590653e-07
2.7583182e-06
2.0556171e-07
2.7384226e-06
1.2628757e-07
2.7166094e-06
4.8112883e-08
2.6929928e-06
-2.8948178e-08
2.66764e-06
-1.0480722e-07
2.6406352e-06
-1.7950979e-07
2.6120616e-06
-2.5303114e-07
2.581996e-06
-3.2535494e-07
2.5505127e-06
-3.9647049e-07
2.5176822e-06
-4.6637008e-07
2.4835712e-06
-5.3504867e-07
2.4482453e-06
-6.0250484e-07
2.4117648e-06
-6.6873659e-07
2.3741884e-06
-7.337456e-07
2.3355714e-06
-7.9753498e-07
2.2959667e-06
-8.6010895e-07
2.2554234e-06
-9.2147227e-07
2.2139899e-06
-9.8163227e-07
2.1717097e-06
-1.0405959e-06
2.1286262e-06
-1.0983728e-06
2.084778e-06
-1.1549708e-06
2.0402025e-06
-1.2104008e-06
1.9949349e-06
-1.264672e-06
1.9490079e-06
-1.3177961e-06
1.9024527e-06
-1.3697834e-06
1.8552977e-06
-1.4206464e-06
1.8075699e-06
-1.470395e-06
1.7592941e-06
-1.5190411e-06
1.7104931e-06
-1.5665967e-06
1.6611886e-06
-1.613073e-06
1.6114002e-06
-1.6584807e-06
1.5611457e-06
-1.7028313e-06
1.5104419e-06
-1.7461348e-06
1.4593038e-06
-1.7884022e-06
1.407745e-06
-1.8296432e-06
1.3557777e-06
-1.8698676e-06
1.3034133e-06
-1.9090848e-06
1.2506615e-06
-1.947303e-06
1.1975305e-06
-1.9845303e-06
1.1440281e-06
-2.0207742e-06
1.090161e-06
-2.0560415e-06
1.0359343e-06
-2.0903386e-06
9.8135313e-07
-2.123671e-06
9.2642043e-07
-2.1560435e-06
8.7113974e-07
-2.1874602e-06
8.1551246e-07
-2.2179238e-06
7.5954035e-07
-2.2474379e-06
7.0322349e-07
-2.2760027e-06
6.4656197e-07
-2.3036199e-06
5.8955503e-07
-2.3302889e-06
5.322016e-07
-2.3560084e-06
4.7449995e-07
-2.3807777e-06
4.164473e-07
-2.404592e-06
3.5804141e-07
-2.427448e-06
2.9927946e-07
-2.4493417e-06
2.4015759e-07
-2.4702669e-06
1.8067313e-07
-2.4902197e-06
1.2082119e-07
-2.5092037e-06
6.0598083e-08
-2.5272473e-06
-2.5443978e-06
2.4785814e-06
1.8868196e-06
2.5208954e-06
1.8042479e-06
2.5591106e-06
1.7207884e-06
2.5933386e-06
1.6366172e-06
2.6236929e-06
1.5518999e-06
2.6502898e-06
1.4667923e-06
2.6732466e-06
1.38144e-06
2.6926815e-06
1.2959787e-06
2.7087129e-06
1.2105355e-06
2.7214589e-06
1.1252277e-06
2.7310375e-06
1.0401647e-06
2.7375649e-06
9.5544718e-07
2.7411563e-06
8.7116812e-07
2.7419249e-06
7.8741291e-07
2.7399826e-06
7.042601e-07
2.7354384e-06
6.2178103e-07
2.7283996e-06
5.4004076e-07
2.7189704e-06
4.5909813e-07
2.7072529e-06
3.790065e-07
2.6933451e-06
2.9981405e-07
2.6773441e-06
2.2156292e-07
2.6593412e-06
1.4429073e-07
2.6394227e-06
6.8031401e-08
2.6176927e-06
-7.2178574e-09
2.5942223e-06
-8.1336859e-08
2.5690923e-06
-1.5437972e-07
2.5423821e-06
-2.2632088e-07
2.514166e-06
-2.9713882e-07
2.4845159e-06
-3.6682045e-07
2.4535012e-06
-4.3535515e-07
2.4211876e-06
-5.0273515e-07
2.3876375e-06
-5.6895477e-07
2.3529117e-06
-6.3401072e-07
2.3170671e-06
-6.9790088e-07
2.2801583e-06
-7.6062615e-07
2.2422369e-06
-8.2218753e-07
2.2033528e-06
-8.8258824e-07
2.1635522e-06
-9.4183145e-07
2.1228798e-06
-9.9992339e-07
2.0813771e-06
-1.05687e-06
2.0390836e-06
-1.1126775e-06
1.9960368e-06
-1.167354e-06
1.952272e-06
-1.2209072e-06
1.9078217e-06
-1.273346e-06
1.8627177e-06
-1.3246794e-06
1.8169886e-06
-1.3749173e-06
1.7706614e-06
-1.4240678e-06
1.7237616e-06
-1.4721412e-06
1.6763127e-06
-1.5191478e-06
1.628336e-06
-1.5650965e-06
1.5798527e-06
-1.6099974e-06
1.5308807e-06
-1.6538593e-06
1.4814377e-06
-1.6966917e-06
1.431539e-06
-1.7385037e-06
1.3811998e-06
-1.779304e-06
1.3304328e-06
-1.8191005e-06
1.2792496e-06
-1.8579014e-06
1.2276603e-06
-1.8957139e-06
1.1756755e-06
-1.9325454e-06
1.1233033e-06
-1.9684018e-06
1.0705507e-06
-2.0032892e-06
1.0174245e-06
-2.0372123e-06
9.6393004e-07
-2.0701767e-06
9.1007209e-07
-2.1021856e-06
8.5585411e-07
-2.1332421e-06
8.012796e-07
-2.1633492e-06
7.4635034e-07
-2.1925086e-06
6.9106813e-07
-2.2207202e-06
6.354336e-07
-2.2479856e-06
5.7944779e-07
-2.2743031e-06
5.2311009e-07
-2.2996709e-06
4.6641974e-07
-2.3240874e-06
4.0937572e-07
-2.3475483e-06
3.5197684e-07
-2.3700491e-06
2.9422069e-07
-2.3915856e-06
2.3610569e-07
-2.4121518e-06
1.7762854e-07
-2.4317429e-06
1.1878737e-07
-2.4503626e-06
5.9578772e-08
-2.4680386e-06
-2.484819e-06
2.3731875e-06
1.8400676e-06
2.4159003e-06
1.761535e-06
2.4546696e-06
1.6820191e-06
2.4895951e-06
1.6016916e-06
2.5207788e-06
1.5207161e-06
2.5483262e-06
1.4392447e-06
2.5723443e-06
1.3574218e-06
2.5929414e-06
1.2753817e-06
2.6102264e-06
1.1932504e-06
2.6243085e-06
1.1111457e-06
2.6352968e-06
1.0291763e-06
2.6432996e-06
9.4744447e-07
2.6484244e-06
8.6604321e-07
2.6507777e-06
7.8505973e-07
2.6504644e-06
7.0457354e-07
2.647587e-06
6.2465833e-07
2.6422473e-06
5.4538053e-07
2.6345439e-06
4.6680157e-07
2.6245734e-06
3.88977e-07
2.6124299e-06
3.1195748e-07
2.5982057e-06
2.3578704e-07
2.5819891e-06
1.6050726e-07
2.5638687e-06
8.6151658e-08
2.5439077e-06
1.2743405e-08
2.5222323e-06
-5.9661667e-08
2.4988876e-06
-1.3103511e-07
2.4739539e-06
-2.0138722e-07
2.447504e-06
-2.7068892e-07
2.4196086e-06
-3.3892498e-07
2.3903344e-06
-4.0608093e-07
2.3597458e-06
-4.721464e-07
2.3279037e-06
-5.3711277e-07
2.2948673e-06
-6.0097443e-07
2.2606931e-06
-6.637264e-07
2.2254338e-06
-7.2536705e-07
2.1891411e-06
-7.8589485e-07
2.1518633e-06
-8.453105e-07
2.1136471e-06
-9.036153e-07
2.0745356e-06
-9.6081182e-07
2.0345705e-06
-1.0169046e-06
1.9937912e-06
-1.0718983e-06
1.9522352e-06
-1.1257977e-06
1.9099372e-06
-1.1786093e-06
1.8669309e-06
-1.2303395e-06
1.8232465e-06
-1.2809952e-06
1.7789134e-06
-1.3305844e-06
1.7339596e-06
-1.379114e-06
1.6884108e-06
-1.4265922e-06
1.6422901e-06
-1.4730273e-06
1.5956202e-06
-1.5184266e-06
1.548422e-06
-1.5627992e-06
1.5007147e-06
-1.6061521e-06
1.452516e-06
-1.6484928e-06
1.4038425e-06
-1.68983e-06
1.354709e-06
-1.7301705e-06
1.3051295e-06
-1.769521e-06
1.2551161e-06
-1.8078881e-06
1.2046807e-06
-1.8452787e-06
1.1538335e-06
-1.8816982e-06
1.1025833e-06
-1.9171518e-06
1.0509393e-06
-1.9516451e-06
9.9890762e-07
-1.985181e-06
9.4649563e-07
-2.0177647e-06
8.9370827e-07
-2.0493983e-06
8.4055072e-07
-2.0800846e-06
7.870262e-07
-2.1098248e-06
7.331384e-07
-2.1386209e-06
6.7888995e-07
-2.1664719e-06
6.2428249e-07
-2.1933781e-06
5.6931808e-07
-2.2193386e-06
5.1399679e-07
-2.2443498e-06
4.583194e-07
-2.2684099e-06
4.0228558e-07
-2.2915143e-06
3.4589539e-07
-2.313659e-06
2.8914786e-07
-2.3348379e-06
2.3204163e-07
-2.3550455e-06
1.7457501e-07
-2.3742764e-06
1.1674718e-07
-2.3925346e-06
5.8555966e-08
-2.4098474e-06
-2.426263e-06
2.2723896e-06
1.7932326e-06
2.3153504e-06
1.7185741e-06
2.3545215e-06
1.642848e-06
2.389991e-06
1.5662222e-06
2.4218512e-06
1.4888559e-06
2.4501965e-06
1.4108992e-06
2.4751246e-06
1.3324939e-06
2.4967337e-06
1.2537727e-06
2.5151238e-06
1.1748603e-06
2.5303958e-06
1.0958737e-06
2.5426502e-06
1.0169221e-06
2.5519879e-06
9.3810685e-07
2.5585089e-06
8.5952217e-07
2.5623125e-06
7.812561e-07
2.563497e-06
7.0338883e-07
2.5621597e-06
6.2599566e-07
2.5583955e-06
5.4914473e-07
2.552298e-06
4.7289903e-07
2.5439585e-06
3.9731641e-07
2.5334674e-06
3.2244862e-07
2.5209107e-06
2.4834378e-07
2.5063745e-06
1.7504341e-07
2.4899399e-06
1.0258649e-07
2.4716813e-06
3.100191e-08
2.4516967e-06
-3.9677262e-08
2.4300467e-06
-1.0938503e-07
2.4068034e-06
-1.7814387e-07
2.3820389e-06
-2.459245e-07
2.3558202e-06
-3.127063e-07
2.3282123e-06
-3.7847316e-07
2.2992777e-06
-4.4321206e-07
2.2690764e-06
-5.0691148e-07
2.2376659e-06
-5.695638e-07
2.205101e-06
-6.3116149e-07
2.171434e-06
-6.9170013e-07
2.1367152e-06
-7.5117596e-07
2.1009923e-06
-8.0958761e-07
2.064311e-06
-8.6693389e-07
2.0267143e-06
-9.2321535e-07
1.9882435e-06
-9.7843373e-07
1.9489374e-06
-1.0325921e-06
1.9088333e-06
-1.0856935e-06
1.8679658e-06
-1.137742e-06
1.8263684e-06
-1.188742e-06
1.7840719e-06
-1.2386986e-06
1.741106e-06
-1.2876183e-06
1.6974979e-06
-1.3355058e-06
1.653274e-06
-1.3823684e-06
1.6084578e-06
-1.428211e-06
1.5630726e-06
-1.4730417e-06
1.5171394e-06
-1.5168659e-06
1.4706776e-06
-1.5596903e-06
1.423706e-06
-1.6015212e-06
1.3762412e-06
-1.6423652e-06
1.3282989e-06
-1.6822283e-06
1.2798936e-06
-1.7211159e-06
1.2310385e-06
-1.7590331e-06
1.1817463e-06
-1.7959862e-06
1.1320269e-06
-1.8319788e-06
1.0818909e-06
-1.867016e-06
1.0313473e-06
-1.9011014e-06
9.8040434e-07
-1.9342381e-06
9.2906911e-07
-1.9664292e-06
8.7734781e-07
-1.997677e-06
8.2524622e-07
-2.027983e-06
7.7276872e-07
-2.0573473e-06
7.1991996e-07
-2.085772e-06
6.6670321e-07
-2.1132551e-06
6.1312174e-07
-2.1397967e-06
5.5917735e-07
-2.165394e-06
5.0487226e-07
-2.1900448e-06
4.5020775e-07
-2.2137455e-06
3.9518478e-07
-2.2364915e-06
3.3980389e-07
-2.2582779e-06
2.8406545e-07
-2.2790994e-06
2.2796959e-07
-2.2989494e-06
1.7151551e-07
-2.3178224e-06
1.1470322e-07
-2.335722e-06
5.7531291e-08
-2.3526756e-06
-2.3687317e-06
2.1760244e-06
1.7464498e-06
2.2190957e-06
1.6755029e-06
2.2585289e-06
1.6034147e-06
2.2944021e-06
1.530349e-06
2.326797e-06
1.4564609e-06
2.355799e-06
1.3818973e-06
2.3814956e-06
1.3067973e-06
2.4039764e-06
1.2312917e-06
2.4233331e-06
1.1555036e-06
2.4396577e-06
1.0795491e-06
2.4530433e-06
1.0035365e-06
2.463583e-06
9.2756694e-07
2.47137e-06
8.5173535e-07
2.4764968e-06
7.7612917e-07
2.4790553e-06
7.0083046e-07
2.4791364e-06
6.2591465e-07
2.4768297e-06
5.5145142e-07
2.4722235e-06
4.7750537e-07
2.4654041e-06
4.0413551e-07
2.4564571e-06
3.313959e-07
2.4454648e-06
2.5933594e-07
2.4325079e-06
1.8800039e-07
2.4176651e-06
1.1742927e-07
2.4010094e-06
4.7657551e-08
2.3826309e-06
-2.1298663e-08
2.3625887e-06
-8.9343047e-08
2.3409534e-06
-1.5650865e-07
2.317794e-06
-2.2276513e-07
2.293176e-06
-2.8808831e-07
2.267162e-06
-3.5245935e-07
2.2398123e-06
-4.1586228e-07
2.2111857e-06
-4.7828513e-07
2.1813379e-06
-5.3971584e-07
2.1503223e-06
-6.0014595e-07
2.1181905e-06
-6.5956821e-07
2.0849915e-06
-7.1797687e-07
2.0507719e-06
-7.7536805e-07
2.0155766e-06
-8.3173849e-07
1.9794488e-06
-8.8708758e-07
1.9424285e-06
-9.4141357e-07
1.9045548e-06
-9.9471845e-07
1.8658639e-06
-1.0470027e-06
1.8263907e-06
-1.098269e-06
1.7861681e-06
-1.1485193e-06
1.7452278e-06
-1.1977583e-06
1.7035981e-06
-1.2459886e-06
1.6613078e-06
-1.2932156e-06
1.618382e-06
-1.3394427e-06
1.5748462e-06
-1.3846751e-06
1.5307227e-06
-1.4289182e-06
1.486033e-06
-1.4721763e-06
1.4407973e-06
-1.5144547e-06
1.3950348e-06
-1.5557587e-06
1.3487621e-06
-1.5960924e-06
1.3019958e-06
-1.635462e-06
1.2547508e-06
-1.6738708e-06
1.2070418e-06
-1.711324e-06
1.1588802e-06
-1.7478247e-06
1.1102785e-06
-1.7833771e-06
1.0612468e-06
-1.8179844e-06
1.0117956e-06
-1.8516502e-06
9.6193351e-07
-1.884376e-06
9.1166808e-07
-1.9161638e-06
8.6100686e-07
-1.9470159e-06
8.0995582e-07
-1.9769321e-06
7.5852162e-07
-2.0059131e-06
7.0670834e-07
-2.0339587e-06
6.5452071e-07
-2.0610677e-06
6.0196228e-07
-2.0872384e-06
5.4903655e-07
-2.1124683e-06
4.9574619e-07
-2.1367545e-06
4.420941e-07
-2.1600931e-06
3.8808148e-07
-2.1824788e-06
3.3370972e-07
-2.2039062e-06
2.7898101e-07
-2.2243705e-06
2.238955e-07
-2.243864e-06
1.6845428e-07
-2.2623811e-06
1.126578e-07
-2.2799255e-06
5.6506054e-08
-2.296524e-06
-2.3122256e-06
2.0839297e-06
1.6998407e-06
2.1269864e-06
1.6324462e-06
2.1665543e-06
1.5638468e-06
2.2027018e-06
1.4942017e-06
2.2355012e-06
1.4236614e-06
2.2650288e-06
1.3523698e-06
2.2913631e-06
1.280463e-06
2.3145853e-06
1.2080692e-06
2.3347788e-06
1.1353101e-06
2.3520277e-06
1.0623002e-06
2.3664176e-06
9.8914655e-07
2.3780346e-06
9.1595005e-07
2.3869646e-06
8.4280526e-07
2.3932938e-06
7.6980004e-07
2.3971082e-06
6.9701615e-07
2.3984926e-06
6.2453032e-07
2.3975311e-06
5.5241292e-07
2.394307e-06
4.8072955e-07
2.3889017e-06
4.0954072e-07
2.3813956e-06
3.3890207e-07
2.3718673e-06
2.6886414e-07
2.3603941e-06
1.9947369e-07
2.34705e-06
1.307733e-07
2.3319064e-06
6.2801111e-08
2.3150445e-06
-4.4367657e-09
2.2965274e-06
-7.0826072e-08
2.2764201e-06
-1.3640121e-07
2.254789e-06
-2.011342e-07
2.2316975e-06
-2.6499671e-07
2.2072064e-06
-3.2796807e-07
2.1813739e-06
-3.9002995e-07
2.1542571e-06
-4.5116814e-07
2.1259101e-06
-5.1136869e-07
2.0963852e-06
-5.7062104e-07
2.0657321e-06
-6.2891512e-07
2.033999e-06
-6.862439e-07
2.0012319e-06
-7.4260075e-07
1.9674747e-06
-7.9798143e-07
1.9327696e-06
-8.5238221e-07
1.8971567e-06
-9.0580091e-07
1.8606739e-06
-9.5823571e-07
1.8233575e-06
-1.0096861e-06
1.7852417e-06
-1.0601531e-06
1.7463597e-06
-1.1096373e-06
1.7067423e-06
-1.1581411e-06
1.6664194e-06
-1.2056656e-06
1.6254179e-06
-1.2522141e-06
1.5837642e-06
-1.297789e-06
1.5414831e-06
-1.3423939e-06
1.4985977e-06
-1.3860329e-06
1.4551299e-06
-1.4287086e-06
1.4111001e-06
-1.4704251e-06
1.3665276e-06
-1.511186e-06
1.3214298e-06
-1.5509947e-06
1.2758237e-06
-1.5898559e-06
1.2297249e-06
-1.6277719e-06
1.1831468e-06
-1.6647461e-06
1.1361043e-06
-1.7007822e-06
1.0886087e-06
-1.7358817e-06
1.040672e-06
-1.7700475e-06
9.9230355e-07
-1.8032819e-06
9.435132e-07
-1.8355858e-06
8.9431081e-07
-1.8669613e-06
8.4470283e-07
-1.8974078e-06
7.9469746e-07
-1.9269268e-06
7.4430056e-07
-1.955516e-06
6.9351793e-07
-1.9831764e-06
6.4235527e-07
-2.0099049e-06
5.9081659e-07
-2.0356998e-06
5.3890664e-07
-2.0605585e-06
4.8662909e-07
-2.0844767e-06
4.3398652e-07
-2.1074509e-06
3.8098234e-07
-2.1294746e-06
3.2761909e-07
-2.1505429e-06
2.7389885e-07
-2.1706503e-06
2.1982298e-07
-2.1897882e-06
1.6539434e-07
-2.2079524e-06
1.1061317e-07
-2.2251443e-06
5.5481317e-08
-2.2413923e-06
-2.2567442e-06
1.9959444e-06
1.6535153e-06
2.0388735e-06
1.5895172e-06
2.07846e-06
1.5242602e-06
2.1147637e-06
1.4578979e-06
2.1478479e-06
1.3905771e-06
2.1777802e-06
1.3224375e-06
2.2046311e-06
1.2536121e-06
2.2284737e-06
1.1842266e-06
2.2493831e-06
1.1144007e-06
2.2674364e-06
1.0442469e-06
2.2827117e-06
9.7387112e-07
2.2952883e-06
9.0337348e-07
2.3052456e-06
8.3284788e-07
2.3126637e-06
7.6238194e-07
2.3176222e-06
6.9205771e-07
2.3202004e-06
6.2195221e-07
2.3204772e-06
5.5213629e-07
2.3185304e-06
4.8267608e-07
2.3144372e-06
4.1363402e-07
2.3082738e-06
3.4506563e-07
2.3001142e-06
2.7702386e-07
2.2900316e-06
2.0955629e-07
2.2780981e-06
1.4270697e-07
2.2643847e-06
7.6514428e-08
2.2489414e-06
1.100671e-08
2.2318721e-06
-5.3756896e-08
2.2132167e-06
-1.1774575e-07
2.1930398e-06
-1.8095722e-07
2.171403e-06
-2.4335993e-07
2.1483656e-06
-3.0493061e-07
2.1239841e-06
-3.6564849e-07
2.0983134e-06
-4.2549741e-07
2.0714062e-06
-4.8446141e-07
2.0433133e-06
-5.4252817e-07
2.0140839e-06
-5.996857e-07
1.9837638e-06
-6.5592386e-07
1.952399e-06
-7.1123601e-07
1.9200323e-06
-7.6561471e-07
1.886705e-06
-8.190549e-07
1.8524558e-06
-8.7155177e-07
1.8173229e-06
-9.2310269e-07
1.7813422e-06
-9.7370542e-07
1.7445474e-06
-1.0233584e-06
1.7069714e-06
-1.0720613e-06
1.668645e-06
-1.1198143e-06
1.629597e-06
-1.1666177e-06
1.5898557e-06
-1.2124728e-06
1.5494468e-06
-1.2573803e-06
1.5083951e-06
-1.3013424e-06
1.4667242e-06
-1.344362e-06
1.4244557e-06
-1.3864401e-06
1.381611e-06
-1.4275802e-06
1.338209e-06
-1.467784e-06
1.294268e-06
-1.5070538e-06
1.2498052e-06
-1.5453931e-06
1.2048365e-06
-1.5828033e-06
1.1593765e-06
-1.6192863e-06
1.1134396e-06
-1.6548451e-06
1.0670382e-06
-1.6894802e-06
1.0201841e-06
-1.7231934e-06
9.7288891e-07
-1.7559866e-06
9.2516218e-07
-1.7878593e-06
8.770136e-07
-1.8188127e-06
8.2845171e-07
-1.8488461e-06
7.7948387e-07
-1.8779591e-06
7.3011846e-07
-1.9061507e-06
6.8036155e-07
-1.9334193e-06
6.302183e-07
-1.9597617e-06
5.7969588e-07
-1.9851773e-06
5.2879778e-07
-2.0096603e-06
4.7752931e-07
-2.0332082e-06
4.2589368e-07
-2.0558149e-06
3.7389526e-07
-2.077476e-06
3.2153802e-07
-2.0981857e-06
2.6882361e-07
-2.1179358e-06
2.1575601e-07
-2.1367206e-06
1.6233729e-07
-2.1545334e-06
1.0857035e-07
-2.1713774e-06
5.4457406e-08
-2.1872793e-06
-2.2022866e-06
1.9119101e-06
1.6075717e-06
1.9546091e-06
1.5468182e-06
1.9941091e-06
1.4847601e-06
2.0304612e-06
1.4215456e-06
2.0637209e-06
1.3573176e-06
2.093947e-06
1.2922113e-06
2.1212026e-06
1.2263565e-06
2.145553e-06
1.1598763e-06
2.167066e-06
1.0928877e-06
2.1858116e-06
1.0255013e-06
2.2018613e-06
9.5782145e-07
2.2152873e-06
8.8994763e-07
2.2261629e-06
8.2197217e-07
2.2345622e-06
7.5398268e-07
2.2405591e-06
6.8606087e-07
2.2442276e-06
6.182838e-07
2.2456411e-06
5.5072269e-07
2.2448725e-06
4.8344455e-07
2.2419952e-06
4.1651118e-07
2.2370793e-06
3.4998143e-07
2.230196e-06
2.8390729e-07
2.2214147e-06
2.1833756e-07
2.2108027e-06
1.53319e-07
2.1984256e-06
8.8891482e-08
2.1843433e-06
2.508918e-08
2.1686377e-06
-3.8051165e-08
2.1513558e-06
-1.00464e-07
2.1325591e-06
-1.6216055e-07
2.1123066e-06
-2.231076e-07
2.0906553e-06
-2.8327903e-07
2.0676599e-06
-3.4265304e-07
2.0433732e-06
-4.0121082e-07
2.0178466e-06
-4.5893489e-07
1.9911289e-06
-5.1581065e-07
1.9632683e-06
-5.7182496e-07
1.93431e-06
-6.2696556e-07
1.9042974e-06
-6.8122357e-07
1.8732739e-06
-7.3459123e-07
1.8412789e-06
-7.870597e-07
1.8083506e-06
-8.386238e-07
1.7745274e-06
-8.8927949e-07
1.7398439e-06
-9.3902188e-07
1.7043337e-06
-9.8784828e-07
1.6680289e-06
-1.0357565e-06
1.6309602e-06
-1.0827457e-06
1.5931567e-06
-1.1288143e-06
1.5546459e-06
-1.1739619e-06
1.5154543e-06
-1.2181886e-06
1.4756064e-06
-1.2614944e-06
1.4351257e-06
-1.3038811e-06
1.3940344e-06
-1.3453488e-06
1.3523529e-06
-1.3858988e-06
1.3101017e-06
-1.4255328e-06
1.267299e-06
-1.4642513e-06
1.2239622e-06
-1.5020564e-06
1.1801077e-06
-1.5389485e-06
1.1357507e-06
-1.5749291e-06
1.0909052e-06
-1.6099998e-06
1.0455848e-06
-1.6441598e-06
9.9980206e-07
-1.6774108e-06
9.5356878e-07
-1.7097532e-06
9.0689525e-07
-1.7411859e-06
8.5979139e-07
-1.7717089e-06
8.1226682e-07
-1.8013215e-06
7.6433016e-07
-1.8300224e-06
7.1598888e-07
-1.8578094e-06
6.6725049e-07
-1.8846809e-06