/*--------------------------------*- C++ -*----------------------------------*\
| =========                 |                                                 |
| \\      /  F ield         | OpenFOAM: The Open Source CFD Toolbox           |
|  \\    /   O peration     | Version:  2106                                  |
|   \\  /    A nd           | Website:  www.openfoam.com                      |
|    \\/     M anipulation  |                                                 |
\*---------------------------------------------------------------------------*/
FoamFile
{
    version     2.0;
    format      ascii;
    arch        "LSB;label=32;scalar=64";
    class       volVectorField;
    location    "0.009";
    object      U_0;
}
// * * * * * * * * * * * * * * * * * * * * * * * * * * * * * * * * * * * * * //

dimensions      [0 1 -1 0 0 0 0];

internalField   nonuniform List<vector> 
1024
(
(0.02586562 -0.025408019 0)
(0.076604393 -0.024433022 0)
(0.124404 -0.022520562 0)
(0.16743088 -0.019744177 0)
(0.20403485 -0.01621044 0)
(0.23281209 -0.012054694 0)
(0.25265834 -0.0074357493 0)
(0.26281028 -0.0025298679 0)
(0.26286811 0.0024764441 0)
(0.25284188 0.0073872258 0)
(0.23307898 0.012024063 0)
(0.20434984 0.0162003 0)
(0.16774514 0.019755793 0)
(0.12466984 0.022552196 0)
(0.076781768 0.024479917 0)
(0.02592786 0.025463147 0)
(-0.02592786 0.025463147 0)
(-0.076781768 0.024479917 0)
(-0.12466984 0.022552196 0)
(-0.16774514 0.019755793 0)
(-0.20434984 0.0162003 0)
(-0.23307898 0.012024063 0)
(-0.25284188 0.0073872258 0)
(-0.26286811 0.0024764441 0)
(-0.26281028 -0.0025298679 0)
(-0.25265834 -0.0074357493 0)
(-0.23281209 -0.012054694 0)
(-0.20403485 -0.01621044 0)
(-0.16743088 -0.019744177 0)
(-0.124404 -0.022520562 0)
(-0.076604393 -0.024433022 0)
(-0.02586562 -0.025408019 0)
(0.027142615 -0.077224424 0)
(0.080386479 -0.074261092 0)
(0.13054646 -0.068448578 0)
(0.17569904 -0.060010499 0)
(0.21411343 -0.049270871 0)
(0.24431755 -0.036641108 0)
(0.26515336 -0.022603828 0)
(0.27581981 -0.0076946007 0)
(0.27590083 0.0075174342 0)
(0.26538708 0.022453954 0)
(0.24466577 0.036543323 0)
(0.21452424 0.049238655 0)
(0.17610931 0.060048635 0)
(0.13089375 0.068551381 0)
(0.080618251 0.074413155 0)
(0.02722395 0.077403053 0)
(-0.02722395 0.077403053 0)
(-0.080618251 0.074413155 0)
(-0.13089375 0.068551381 0)
(-0.17610931 0.060048635 0)
(-0.21452424 0.049238655 0)
(-0.24466577 0.036543324 0)
(-0.26538708 0.022453954 0)
(-0.27590083 0.0075174342 0)
(-0.27581981 -0.0076946007 0)
(-0.26515336 -0.022603828 0)
(-0.24431755 -0.036641108 0)
(-0.21411343 -0.049270871 0)
(-0.17569904 -0.060010499 0)
(-0.13054646 -0.068448578 0)
(-0.080386479 -0.074261092 0)
(-0.027142615 -0.077224424 0)
(0.029415672 -0.13271652 0)
(0.087118338 -0.12762404 0)
(0.14147884 -0.11763558 0)
(0.19041332 -0.10313594 0)
(0.23204772 -0.08468242 0)
(0.26478895 -0.062982169 0)
(0.28738426 -0.038863954 0)
(0.29896646 -0.013246338 0)
(0.29908393 0.012895917 0)
(0.28771916 0.03856775 0)
(0.2652898 0.062787219 0)
(0.23263821 0.084618277 0)
(0.19100307 0.10321232 0)
(0.14197809 0.11784096 0)
(0.087451535 0.12792762 0)
(0.029532596 0.13307303 0)
(-0.029532596 0.13307303 0)
(-0.087451535 0.12792762 0)
(-0.14197809 0.11784096 0)
(-0.19100307 0.10321232 0)
(-0.23263821 0.084618277 0)
(-0.2652898 0.062787219 0)
(-0.28771916 0.03856775 0)
(-0.29908393 0.012895917 0)
(-0.29896646 -0.013246338 0)
(-0.28738426 -0.038863954 0)
(-0.26478895 -0.062982169 0)
(-0.23204772 -0.08468242 0)
(-0.19041332 -0.10313594 0)
(-0.14147884 -0.11763558 0)
(-0.087118338 -0.12762404 0)
(-0.029415672 -0.13271652 0)
(0.033009554 -0.19380499 0)
(0.097761497 -0.18636828 0)
(0.15876174 -0.17178268 0)
(0.2136727 -0.15061154 0)
(0.26039404 -0.12367007 0)
(0.29714242 -0.091991505 0)
(0.32251677 -0.056784995 0)
(0.33554683 -0.019388537 0)
(0.33572487 0.018779565 0)
(0.32302395 0.056270522 0)
(0.29790125 0.091652164 0)
(0.26128827 0.12355828 0)
(0.21456557 0.1507444 0)
(0.15951748 0.17214007 0)
(0.098265799 0.18689652 0)
(0.033186505 0.19442531 0)
(-0.033186505 0.19442531 0)
(-0.098265799 0.18689652 0)
(-0.15951748 0.17214007 0)
(-0.21456557 0.1507444 0)
(-0.26128827 0.12355828 0)
(-0.29790125 0.091652164 0)
(-0.32302395 0.056270522 0)
(-0.33572487 0.018779565 0)
(-0.33554683 -0.019388537 0)
(-0.32251677 -0.056784995 0)
(-0.29714242 -0.091991505 0)
(-0.26039404 -0.12367007 0)
(-0.2136727 -0.15061154 0)
(-0.15876174 -0.17178268 0)
(-0.097761497 -0.18636828 0)
(-0.033009554 -0.19380499 0)
(0.038397302 -0.26349772 0)
(0.11371643 -0.25338505 0)
(0.18466809 -0.2335531 0)
(0.24853392 -0.20477109 0)
(0.302875 -0.16815083 0)
(0.34562446 -0.12509911 0)
(0.37516157 -0.077258367 0)
(0.39036406 -0.026441455 0)
(0.39064115 0.02543345 0)
(0.37595111 0.076406955 0)
(0.34680588 0.12453755 0)
(0.30426679 0.16796631 0)
(0.2499232 0.20499192 0)
(0.1858437 0.23414584 0)
(0.11450074 0.25426066 0)
(0.038672467 0.2645257 0)
(-0.038672467 0.2645257 0)
(-0.11450074 0.25426066 0)
(-0.1858437 0.23414584 0)
(-0.2499232 0.20499192 0)
(-0.30426679 0.16796631 0)
(-0.34680588 0.12453755 0)
(-0.37595111 0.076406955 0)
(-0.39064115 0.02543345 0)
(-0.39036406 -0.026441455 0)
(-0.37516157 -0.077258367 0)
(-0.34562446 -0.12509911 0)
(-0.302875 -0.16815083 0)
(-0.24853392 -0.20477109 0)
(-0.18466809 -0.2335531 0)
(-0.11371643 -0.25338505 0)
(-0.038397302 -0.26349772 0)
(0.046263782 -0.34591411 0)
(0.13701048 -0.33263333 0)
(0.2224875 -0.30659242 0)
(0.29941969 -0.26880794 0)
(0.36487446 -0.2207468 0)
(0.4163736 -0.16426087 0)
(0.45197995 -0.10150479 0)
(0.47035399 -0.0348474 0)
(0.47078635 0.033212556 0)
(0.45321216 0.10012451 0)
(0.41821732 0.16335154 0)
(0.36704576 0.22044984 0)
(0.30158623 0.26916891 0)
(0.22432019 0.30755668 0)
(0.1382328 0.33405618 0)
(0.04669253 0.34758381 0)
(-0.04669253 0.34758381 0)
(-0.1382328 0.33405618 0)
(-0.22432019 0.30755668 0)
(-0.30158623 0.26916891 0)
(-0.36704576 0.22044984 0)
(-0.41821732 0.16335154 0)
(-0.45321216 0.10012451 0)
(-0.47078635 0.033212556 0)
(-0.47035399 -0.0348474 0)
(-0.45197995 -0.10150479 0)
(-0.4163736 -0.16426087 0)
(-0.36487446 -0.2207468 0)
(-0.29941969 -0.26880794 0)
(-0.2224875 -0.30659242 0)
(-0.13701048 -0.33263333 0)
(-0.046263782 -0.34591411 0)
(0.05756928 -0.44676439 0)
(0.17048592 -0.42959954 0)
(0.27683062 -0.39595033 0)
(0.37252633 -0.34714226 0)
(0.45393107 -0.28508413 0)
(0.51797851 -0.2121789 0)
(0.56228319 -0.13120932 0)
(0.58520142 -0.045217028 0)
(0.58586001 0.042605738 0)
(0.56416022 0.12900633 0)
(0.52078647 0.21073049 0)
(0.45723628 0.28461564 0)
(0.37582251 0.34772527 0)
(0.27961752 0.39749668 0)
(0.17234382 0.43187754 0)
(0.05822077 0.44943575 0)
(-0.05822077 0.44943575 0)
(-0.17234382 0.43187754 0)
(-0.27961752 0.39749668 0)
(-0.37582251 0.34772527 0)
(-0.45723628 0.28461564 0)
(-0.52078647 0.21073049 0)
(-0.56416022 0.12900633 0)
(-0.58586001 0.042605738 0)
(-0.58520142 -0.045217028 0)
(-0.56228319 -0.13120932 0)
(-0.51797851 -0.2121789 0)
(-0.45393107 -0.28508413 0)
(-0.37252633 -0.34714226 0)
(-0.27683062 -0.39595033 0)
(-0.17048592 -0.42959954 0)
(-0.05756928 -0.44676439 0)
(0.073535882 -0.57395475 0)
(0.21775928 -0.55187774 0)
(0.35356259 -0.50861237 0)
(0.47573293 -0.44588294 0)
(0.57962461 -0.36616683 0)
(0.66134261 -0.27257368 0)
(0.71787603 -0.16868365 0)
(0.74716453 -0.058378385 0)
(0.74811726 0.054299754 0)
(0.72059113 0.16524673 0)
(0.66540245 0.27032056 0)
(0.58439981 0.36544769 0)
(0.48049146 0.44680666 0)
(0.35758322 0.51103942 0)
(0.2204379 0.55544516 0)
(0.074474694 0.5781341 0)
(-0.074474694 0.5781341 0)
(-0.2204379 0.55544516 0)
(-0.35758322 0.51103942 0)
(-0.48049146 0.44680666 0)
(-0.58439981 0.36544769 0)
(-0.66540245 0.27032056 0)
(-0.72059113 0.16524673 0)
(-0.74811726 0.054299754 0)
(-0.74716453 -0.058378385 0)
(-0.71787603 -0.16868365 0)
(-0.66134261 -0.27257368 0)
(-0.57962461 -0.36616683 0)
(-0.47573293 -0.44588294 0)
(-0.35356259 -0.50861237 0)
(-0.21775928 -0.55187774 0)
(-0.073535882 -0.57395475 0)
(0.095422587 -0.73803019 0)
(0.28255576 -0.70959367 0)
(0.45872372 -0.65388777 0)
(0.61715216 -0.57316265 0)
(0.75181336 -0.47064387 0)
(0.85767263 -0.35037154 0)
(0.93086711 -0.21696816 0)
(0.96878123 -0.07539267 0)
(0.97005093 0.069245927 0)
(0.93448501 0.21179626 0)
(0.86307899 0.34699403 0)
(0.75816581 0.46958374 0)
(0.62347643 0.57457778 0)
(0.46406282 0.65756479 0)
(0.28610929 0.7149837 0)
(0.096667005 0.74433663 0)
(-0.096667005 0.74433663 0)
(-0.28610929 0.7149837 0)
(-0.46406282 0.65756479 0)
(-0.62347643 0.57457778 0)
(-0.75816581 0.46958374 0)
(-0.86307899 0.34699403 0)
(-0.93448501 0.21179626 0)
(-0.97005093 0.069245927 0)
(-0.96878123 -0.07539267 0)
(-0.93086711 -0.21696816 0)
(-0.85767263 -0.35037154 0)
(-0.75181336 -0.47064387 0)
(-0.61715216 -0.57316265 0)
(-0.45872372 -0.65388777 0)
(-0.28255576 -0.70959367 0)
(-0.095422587 -0.73803019 0)
(0.12389405 -0.95188146 0)
(0.36684165 -0.9151226 0)
(0.59550428 -0.84315073 0)
(0.8010745 -0.73891091 0)
(0.97571321 -0.60661622 0)
(1.1128851 -0.45154535 0)
(1.2076121 -0.27970929 0)
(1.2565631 -0.097475367 0)
(1.2580585 0.088685623 0)
(1.2118751 0.27232742 0)
(1.1192541 0.44674728 0)
(0.9831887 0.60513769 0)
(0.80851056 0.74096684 0)
(0.60177712 0.84843365 0)
(0.37101056 0.92284485 0)
(0.12535175 0.96090153 0)
(-0.12535175 0.96090153 0)
(-0.37101056 0.92284485 0)
(-0.60177712 0.84843365 0)
(-0.80851056 0.74096684 0)
(-0.9831887 0.60513769 0)
(-1.1192541 0.44674728 0)
(-1.2118751 0.27232742 0)
(-1.2580585 0.088685623 0)
(-1.2565631 -0.097475367 0)
(-1.2076121 -0.27970929 0)
(-1.1128851 -0.45154535 0)
(-0.97571321 -0.60661622 0)
(-0.8010745 -0.73891091 0)
(-0.59550428 -0.84315073 0)
(-0.36684165 -0.9151226 0)
(-0.12389405 -0.95188146 0)
(0.15778263 -1.228704 0)
(0.46716216 -1.1811314 0)
(0.75831253 -1.0880513 0)
(1.0200193 -0.95330557 0)
(1.2422644 -0.78237874 0)
(1.4166788 -0.58217142 0)
(1.5369189 -0.36054345 0)
(1.5987509 -0.1257291 0)
(1.6001854 0.11404219 0)
(1.541024 0.35074236 0)
(1.4228387 0.57582188 0)
(1.2494983 0.78044312 0)
(1.027222 0.95606104 0)
(0.76439126 1.0950938 0)
(0.47119228 1.1914072 0)
(0.159187 1.2406805 0)
(-0.159187 1.2406805 0)
(-0.47119228 1.1914072 0)
(-0.76439126 1.0950938 0)
(-1.027222 0.95606104 0)
(-1.2494983 0.78044312 0)
(-1.4228387 0.57582188 0)
(-1.541024 0.35074236 0)
(-1.6001854 0.11404219 0)
(-1.5987509 -0.1257291 0)
(-1.5369189 -0.36054345 0)
(-1.4166788 -0.58217142 0)
(-1.2422644 -0.78237874 0)
(-1.0200193 -0.95330557 0)
(-0.75831253 -1.0880513 0)
(-0.46716216 -1.1811314 0)
(-0.15778263 -1.228704 0)
(0.19221808 -1.5768096 0)
(0.56910755 -1.5156122 0)
(0.9238032 -1.395989 0)
(1.2427013 -1.2228763 0)
(1.5135449 -1.0033176 0)
(1.7260226 -0.74627015 0)
(1.8722786 -0.46186838 0)
(1.9468696 -0.16068879 0)
(1.9476835 0.14648592 0)
(1.8746947 0.44978612 0)
(1.7298621 0.73837238 0)
(1.5181599 1.0008297 0)
(1.2473675 1.2260968 0)
(0.92777302 1.4044328 0)
(0.57172106 1.5279804 0)
(0.19311774 1.5911911 0)
(-0.19311774 1.5911911 0)
(-0.57172106 1.5279804 0)
(-0.92777302 1.4044328 0)
(-1.2473675 1.2260968 0)
(-1.5181599 1.0008297 0)
(-1.7298621 0.73837238 0)
(-1.8746947 0.44978612 0)
(-1.9476835 0.14648592 0)
(-1.9468696 -0.16068879 0)
(-1.8722786 -0.46186838 0)
(-1.7260226 -0.74627015 0)
(-1.5135449 -1.0033176 0)
(-1.2427013 -1.2228763 0)
(-0.9238032 -1.395989 0)
(-0.56910755 -1.5156122 0)
(-0.19221808 -1.5768096 0)
(0.21662134 -1.990064 0)
(0.64139679 -1.9127518 0)
(1.0412759 -1.7617787 0)
(1.4010874 -1.5432681 0)
(1.7069354 -1.2659669 0)
(1.9468563 -0.94110585 0)
(2.1115792 -0.58170686 0)
(2.195284 -0.20151833 0)
(2.1951889 0.18591381 0)
(2.1111754 0.56837795 0)
(1.9460974 0.93209805 0)
(1.706201 1.2626691 0)
(1.4005851 1.5461706 0)
(1.0409413 1.7704413 0)
(0.64112241 1.9257392 0)
(0.2165015 2.0051725 0)
(-0.2165015 2.0051725 0)
(-0.64112241 1.9257392 0)
(-1.0409413 1.7704413 0)
(-1.4005851 1.5461706 0)
(-1.706201 1.2626691 0)
(-1.9460974 0.93209805 0)
(-2.1111754 0.56837795 0)
(-2.1951889 0.18591381 0)
(-2.195284 -0.20151833 0)
(-2.1115792 -0.58170686 0)
(-1.9468563 -0.94110585 0)
(-1.7069354 -1.2659669 0)
(-1.4010874 -1.5432681 0)
(-1.0412759 -1.7617787 0)
(-0.64139679 -1.9127518 0)
(-0.21662134 -1.990064 0)
(0.21407693 -2.4347655 0)
(0.63418899 -2.3403793 0)
(1.0300105 -2.1560851 0)
(1.3868 -1.8891041 0)
(1.6907282 -1.5497627 0)
(1.929645 -1.1516679 0)
(2.0939828 -0.71094729 0)
(2.1769294 -0.24449361 0)
(2.1750256 0.23044698 0)
(2.0886526 0.69884182 0)
(1.922124 1.1430904 0)
(1.6827714 1.5458426 0)
(1.3796027 1.8905825 0)
(1.0240835 2.1631083 0)
(0.63019071 2.3516483 0)
(0.21270899 2.4480197 0)
(-0.21270899 2.4480197 0)
(-0.63019071 2.3516483 0)
(-1.0240835 2.1631083 0)
(-1.3796027 1.8905825 0)
(-1.6827714 1.5458426 0)
(-1.922124 1.1430904 0)
(-2.0886526 0.69884182 0)
(-2.1750256 0.23044698 0)
(-2.1769294 -0.24449361 0)
(-2.0939828 -0.71094729 0)
(-1.929645 -1.1516679 0)
(-1.6907282 -1.5497627 0)
(-1.3868 -1.8891041 0)
(-1.0300105 -2.1560851 0)
(-0.63418899 -2.3403793 0)
(-0.21407693 -2.4347655 0)
(0.16512336 -2.8402262 0)
(0.4909793 -2.7296402 0)
(0.79864539 -2.5154218 0)
(1.0768022 -2.2051369 0)
(1.3147535 -1.8100135 0)
(1.5027475 -1.3454416 0)
(1.6329503 -0.8302368 0)
(1.6987005 -0.2833576 0)
(1.6962538 0.27321189 0)
(1.6260858 0.82065495 0)
(1.4923316 1.3374295 0)
(1.3021788 1.8051203 0)
(1.0640072 2.2046421 0)
(0.78788442 2.5191307 0)
(0.48399777 2.7363691 0)
(0.16319308 2.847305 0)
(-0.16319308 2.847305 0)
(-0.48399777 2.7363691 0)
(-0.78788442 2.5191307 0)
(-1.0640072 2.2046421 0)
(-1.3021788 1.8051203 0)
(-1.4923316 1.3374295 0)
(-1.6260858 0.82065495 0)
(-1.6962538 0.27321189 0)
(-1.6987005 -0.2833576 0)
(-1.6329503 -0.8302368 0)
(-1.5027475 -1.3454416 0)
(-1.3147535 -1.8100135 0)
(-1.0768022 -2.2051369 0)
(-0.79864539 -2.5154218 0)
(-0.4909793 -2.7296402 0)
(-0.16512336 -2.8402262 0)
(0.064462395 -3.0909759 0)
(0.19015445 -2.9742083 0)
(0.30986367 -2.7424785 0)
(0.41859007 -2.4061282 0)
(0.51227307 -1.9768061 0)
(0.58675389 -1.4705253 0)
(0.63890162 -0.90844762 0)
(0.66527322 -0.30842755 0)
(0.66244338 0.30405306 0)
(0.63075888 0.90459347 0)
(0.57401779 1.4672315 0)
(0.49639002 1.9745056 0)
(0.40192996 2.4054056 0)
(0.29538899 2.7433667 0)
(0.18047411 2.9766021 0)
(0.060577892 3.0956193 0)
(-0.060577892 3.0956193 0)
(-0.18047411 2.9766021 0)
(-0.29538899 2.7433667 0)
(-0.40192996 2.4054056 0)
(-0.49639002 1.9745056 0)
(-0.57401779 1.4672315 0)
(-0.63075888 0.90459347 0)
(-0.66244338 0.30405306 0)
(-0.66527322 -0.30842755 0)
(-0.63890162 -0.90844762 0)
(-0.58675389 -1.4705253 0)
(-0.51227307 -1.9768061 0)
(-0.41859007 -2.4061282 0)
(-0.30986367 -2.7424785 0)
(-0.19015445 -2.9742083 0)
(-0.064462395 -3.0909759 0)
(-0.0599565 -3.0963668 0)
(-0.17864263 -2.9773207 0)
(-0.29240648 -2.7439646 0)
(-0.39787126 -2.4058649 0)
(-0.49140901 -1.9748638 0)
(-0.56826722 -1.4673491 0)
(-0.62438447 -0.90461451 0)
(-0.65578675 -0.30429203 0)
(-0.65871031 0.30831628 0)
(-0.63257028 0.90879879 0)
(-0.58080363 1.4710105 0)
(-0.5070024 1.9772585 0)
(-0.4142351 2.406656 0)
(-0.30659877 2.7430065 0)
(-0.18813833 2.9747102 0)
(-0.06378766 3.0914898 0)
(0.06378766 3.0914898 0)
(0.18813833 2.9747102 0)
(0.30659877 2.7430065 0)
(0.4142351 2.406656 0)
(0.5070024 1.9772585 0)
(0.58080363 1.4710105 0)
(0.63257028 0.90879879 0)
(0.65871031 0.30831628 0)
(0.65578675 -0.30429203 0)
(0.62438447 -0.90461451 0)
(0.56826722 -1.4673491 0)
(0.49140901 -1.9748638 0)
(0.39787126 -2.4058649 0)
(0.29240648 -2.7439646 0)
(0.17864263 -2.9773207 0)
(0.0599565 -3.0963668 0)
(-0.1625395 -2.8492768 0)
(-0.48206652 -2.7382633 0)
(-0.78473283 -2.520845 0)
(-1.0597248 -2.2061212 0)
(-1.2969184 -1.8063235 0)
(-1.4862512 -1.3382793 0)
(-1.6193919 -0.82119713 0)
(-1.6892748 -0.27350173 0)
(-1.6917747 0.28345368 0)
(-1.6262739 0.83083304 0)
(-1.4965004 1.3464344 0)
(-1.309213 1.8112836 0)
(-1.0722212 2.206673 0)
(-0.79521253 2.5171468 0)
(-0.48885545 2.7314769 0)
(-0.16440376 2.8421363 0)
(0.16440376 2.8421363 0)
(0.48885545 2.7314769 0)
(0.79521253 2.5171468 0)
(1.0722212 2.206673 0)
(1.309213 1.8112836 0)
(1.4965004 1.3464344 0)
(1.6262739 0.83083304 0)
(1.6917747 0.28345368 0)
(1.6892748 -0.27350173 0)
(1.6193919 -0.82119713 0)
(1.4862512 -1.3382793 0)
(1.2969184 -1.8063235 0)
(1.0597248 -2.2061212 0)
(0.78473283 -2.520845 0)
(0.48206652 -2.7382633 0)
(0.1625395 -2.8492768 0)
(-0.21196375 -2.4513491 0)
(-0.62798456 -2.3548504 0)
(-1.020491 -2.166052 0)
(-1.374747 -1.8931638 0)
(-1.6768245 -1.5479738 0)
(-1.915308 -1.1446736 0)
(-2.0812294 -0.69984692 0)
(-2.1673167 -0.23085008 0)
(-2.1692553 0.24475161 0)
(-2.0866091 0.71190128 0)
(-1.9228173 1.1532669 0)
(-1.6847152 1.5519116 0)
(-1.3818491 1.8917274 0)
(-1.026317 2.1590746 0)
(-0.63190923 2.3436113 0)
(-0.21330725 2.4381261 0)
(0.21330725 2.4381261 0)
(0.63190923 2.3436113 0)
(1.026317 2.1590746 0)
(1.3818491 1.8917274 0)
(1.6847152 1.5519116 0)
(1.9228173 1.1532669 0)
(2.0866091 0.71190128 0)
(2.1692553 0.24475161 0)
(2.1673167 -0.23085008 0)
(2.0812294 -0.69984692 0)
(1.915308 -1.1446736 0)
(1.6768245 -1.5479738 0)
(1.374747 -1.8931638 0)
(1.020491 -2.166052 0)
(0.62798456 -2.3548504 0)
(0.21196375 -2.4513491 0)
(-0.2156123 -2.0100908 0)
(-0.63849021 -1.9304704 0)
(-1.0366662 -1.7748025 0)
(-1.3948314 -1.5499989 0)
(-1.6991945 -1.2658188 0)
(-1.9381107 -0.93444392 0)
(-2.102523 -0.56984174 0)
(-2.1862225 -0.18644125 0)
(-2.1863578 0.20196479 0)
(-2.1030251 0.58313127 0)
(-1.9389819 0.94344723 0)
(-1.7000394 1.2691245 0)
(-1.3954306 1.5471204 0)
(-1.0370714 1.7661751 0)
(-0.63880734 1.917519 0)
(-0.2157475 1.9950223 0)
(0.2157475 1.9950223 0)
(0.63880734 1.917519 0)
(1.0370714 1.7661751 0)
(1.3954306 1.5471204 0)
(1.7000394 1.2691245 0)
(1.9389819 0.94344723 0)
(2.1030251 0.58313127 0)
(2.1863578 0.20196479 0)
(2.1862225 -0.18644125 0)
(2.102523 -0.56984174 0)
(1.9381107 -0.93444392 0)
(1.6991945 -1.2658188 0)
(1.3948314 -1.5499989 0)
(1.0366662 -1.7748025 0)
(0.63849021 -1.9304704 0)
(0.2156123 -2.0100908 0)
(-0.19201603 -1.5980369 0)
(-0.56846088 -1.5345623 0)
(-0.92248565 -1.4104961 0)
(-1.2402661 -1.2314091 0)
(-1.5095314 -1.0051861 0)
(-1.7200509 -0.74160372 0)
(-1.864091 -0.45177382 0)
(-1.9367084 -0.14715598 0)
(-1.9359509 0.16136544 0)
(-1.8618302 0.46387107 0)
(-1.7164312 0.74952289 0)
(-1.5051611 1.0076838 0)
(-1.2358383 1.2281896 0)
(-0.91871243 1.402045 0)
(-0.56597635 1.5221776 0)
(-0.19116167 1.5836352 0)
(0.19116167 1.5836352 0)
(0.56597635 1.5221776 0)
(0.91871243 1.402045 0)
(1.2358383 1.2281896 0)
(1.5051611 1.0076838 0)
(1.7164312 0.74952289 0)
(1.8618302 0.46387107 0)
(1.9359509 0.16136544 0)
(1.9367084 -0.14715598 0)
(1.864091 -0.45177382 0)
(1.7200509 -0.74160372 0)
(1.5095314 -1.0051861 0)
(1.2402661 -1.2314091 0)
(0.92248565 -1.4104961 0)
(0.56846088 -1.5345623 0)
(0.19201603 -1.5980369 0)
(-0.15777236 -1.2499609 0)
(-0.46700673 -1.200324 0)
(-0.75760657 -1.1032978 0)
(-1.0181156 -0.96323305 0)
(-1.2384407 -0.78630526 0)
(-1.4102745 -0.58014931 0)
(-1.5274536 -0.35337477 0)
(-1.5861432 -0.11488546 0)
(-1.5847809 0.12670055 0)
(-1.523552 0.36328665 0)
(-1.4044142 0.58657496 0)
(-1.2315553 0.78826718 0)
(-1.0112594 0.96045181 0)
(-0.75181946 1.0961819 0)
(-0.46317049 1.1899375 0)
(-0.15643604 1.237854 0)
(0.15643604 1.237854 0)
(0.46317049 1.1899375 0)
(0.75181946 1.0961819 0)
(1.0112594 0.96045181 0)
(1.2315553 0.78826718 0)
(1.4044142 0.58657496 0)
(1.523552 0.36328665 0)
(1.5847809 0.12670055 0)
(1.5861432 -0.11488546 0)
(1.5274536 -0.35337477 0)
(1.4102745 -0.58014931 0)
(1.2384407 -0.78630526 0)
(1.0181156 -0.96323305 0)
(0.75760657 -1.1032978 0)
(0.46700673 -1.200324 0)
(0.15777236 -1.2499609 0)
(-0.12348599 -0.97336021 0)
(-0.36549026 -0.9348091 0)
(-0.5928292 -0.85943004 0)
(-0.79650094 -0.75056353 0)
(-0.96860489 -0.61296205 0)
(-1.102682 -0.45250125 0)
(-1.193973 -0.27579983 0)
(-1.2395291 -0.089757634 0)
(-1.2381217 0.098827807 0)
(-1.18996 0.28341921 0)
(-1.0966849 0.45745793 0)
(-0.96156676 0.61449502 0)
(-0.78950188 0.74845067 0)
(-0.58692641 0.8539881 0)
(-0.36156844 0.92684971 0)
(-0.12211508 0.96406101 0)
(0.12211508 0.96406101 0)
(0.36156844 0.92684971 0)
(0.58692641 0.8539881 0)
(0.78950188 0.74845067 0)
(0.96156676 0.61449502 0)
(1.0966849 0.45745793 0)
(1.18996 0.28341921 0)
(1.2381217 0.098827807 0)
(1.2395291 -0.089757634 0)
(1.193973 -0.27579983 0)
(1.102682 -0.45250125 0)
(0.96860489 -0.61296205 0)
(0.79650094 -0.75056353 0)
(0.5928292 -0.85943004 0)
(0.36549026 -0.9348091 0)
(0.12348599 -0.97336021 0)
(-0.094185764 -0.76096163 0)
(-0.27876735 -0.73094322 0)
(-0.45216039 -0.67222296 0)
(-0.60749755 -0.58735639 0)
(-0.73875538 -0.47998666 0)
(-0.84101292 -0.35462721 0)
(-0.91063627 -0.21638205 0)
(-0.94535239 -0.07063004 0)
(-0.94418469 0.077238393 0)
(-0.90730781 0.22194507 0)
(-0.83603846 0.35826667 0)
(-0.73291229 0.48113984 0)
(-0.60168326 0.58585204 0)
(-0.44725412 0.66828863 0)
(-0.27550329 0.72516718 0)
(-0.093043072 0.75419961 0)
(0.093043072 0.75419961 0)
(0.27550329 0.72516718 0)
(0.44725412 0.66828863 0)
(0.60168326 0.58585204 0)
(0.73291229 0.48113984 0)
(0.83603846 0.35826667 0)
(0.90730781 0.22194507 0)
(0.94418469 0.077238393 0)
(0.94535239 -0.07063004 0)
(0.91063627 -0.21638205 0)
(0.84101292 -0.35462721 0)
(0.73875538 -0.47998666 0)
(0.60749755 -0.58735639 0)
(0.45216039 -0.67222296 0)
(0.27876735 -0.73094322 0)
(0.094185764 -0.76096163 0)
(-0.071236259 -0.60027974 0)
(-0.21085459 -0.5766986 0)
(-0.34204445 -0.5305495 0)
(-0.45962505 -0.46380149 0)
(-0.55904216 -0.37926777 0)
(-0.63656019 -0.28044504 0)
(-0.68939707 -0.17131146 0)
(-0.7157843 -0.056106041 0)
(-0.71494037 0.060861857 0)
(-0.68699066 0.17532516 0)
(-0.6329618 0.28308661 0)
(-0.5548129 0.38012736 0)
(-0.45541478 0.46274871 0)
(-0.33849045 0.52774367 0)
(-0.20848868 0.57256073 0)
(-0.070407434 0.59542603 0)
(0.070407434 0.59542603 0)
(0.20848868 0.57256073 0)
(0.33849045 0.52774367 0)
(0.45541478 0.46274871 0)
(0.5548129 0.38012736 0)
(0.6329618 0.28308661 0)
(0.68699066 0.17532516 0)
(0.71494037 0.060861857 0)
(0.7157843 -0.056106041 0)
(0.68939707 -0.17131146 0)
(0.63656019 -0.28044504 0)
(0.55904216 -0.37926777 0)
(0.45962505 -0.46380149 0)
(0.34204445 -0.5305495 0)
(0.21085459 -0.5766986 0)
(0.071236259 -0.60027974 0)
(-0.054211989 -0.47946306 0)
(-0.16047958 -0.46069479 0)
(-0.26037616 -0.42394981 0)
(-0.34997571 -0.37076825 0)
(-0.42581312 -0.30335523 0)
(-0.48502729 -0.22446145 0)
(-0.52546352 -0.13723528 0)
(-0.54572563 -0.04506339 0)
(-0.5451701 0.048574591 0)
(-0.52388191 0.14020903 0)
(-0.48266498 0.22643812 0)
(-0.42303734 0.30403174 0)
(-0.3472125 0.37004379 0)
(-0.25804365 0.42193707 0)
(-0.15892654 0.45770049 0)
(-0.05366779 0.47593974 0)
(0.05366779 0.47593974 0)
(0.15892654 0.45770049 0)
(0.25804365 0.42193707 0)
(0.3472125 0.37004379 0)
(0.42303734 0.30403174 0)
(0.48266498 0.22643812 0)
(0.52388191 0.14020903 0)
(0.5451701 0.048574591 0)
(0.54572563 -0.04506339 0)
(0.52546352 -0.13723528 0)
(0.48502729 -0.22446145 0)
(0.42581312 -0.30335523 0)
(0.34997571 -0.37076825 0)
(0.26037616 -0.42394981 0)
(0.16047958 -0.46069479 0)
(0.054211989 -0.47946306 0)
(-0.042200483 -0.38415218 0)
(-0.12493509 -0.36914775 0)
(-0.20274445 -0.33976424 0)
(-0.27258656 -0.29721895 0)
(-0.33176579 -0.24325691 0)
(-0.37804048 -0.18006013 0)
(-0.40970249 -0.11013714 0)
(-0.42562358 -0.036204185 0)
(-0.42526907 0.038927465 0)
(-0.40869321 0.11244137 0)
(-0.37653245 0.18158939 0)
(-0.32999164 0.24377408 0)
(-0.27081751 0.29664175 0)
(-0.20124855 0.33817711 0)
(-0.12393758 0.36678867 0)
(-0.041850621 0.38137591 0)
(0.041850621 0.38137591 0)
(0.12393758 0.36678867 0)
(0.20124855 0.33817711 0)
(0.27081751 0.29664175 0)
(0.32999164 0.24377408 0)
(0.37653245 0.18158939 0)
(0.40869321 0.11244137 0)
(0.42526907 0.038927465 0)
(0.42562358 -0.036204185 0)
(0.40970249 -0.11013714 0)
(0.37804048 -0.18006013 0)
(0.33176579 -0.24325691 0)
(0.27258656 -0.29721895 0)
(0.20274445 -0.33976424 0)
(0.12493509 -0.36914775 0)
(0.042200483 -0.38415218 0)
(-0.034697065 -0.31484906 0)
(-0.10272986 -0.30257153 0)
(-0.16673727 -0.27852202 0)
(-0.22422747 -0.24368601 0)
(-0.27298386 -0.19948018 0)
(-0.31115446 -0.14768519 0)
(-0.33731762 -0.09035477 0)
(-0.3505169 -0.02971627 0)
(-0.35028002 0.031916431 0)
(-0.33664206 0.092224211 0)
(-0.31013896 0.14894162 0)
(-0.27177939 0.19993189 0)
(-0.22301839 0.2432659 0)
(-0.16571022 0.27729859 0)
(-0.10204294 0.3007348 0)
(-0.034455764 0.312681 0)
(0.034455764 0.312681 0)
(0.10204294 0.3007348 0)
(0.16571022 0.27729859 0)
(0.22301839 0.2432659 0)
(0.27177939 0.19993189 0)
(0.31013896 0.14894162 0)
(0.33664206 0.092224211 0)
(0.35028002 0.031916431 0)
(0.3505169 -0.02971627 0)
(0.33731762 -0.09035477 0)
(0.31115446 -0.14768519 0)
(0.27298386 -0.19948018 0)
(0.22422747 -0.24368601 0)
(0.16673727 -0.27852202 0)
(0.10272986 -0.30257153 0)
(0.034697065 -0.31484906 0)
(-0.031134547 -0.24337236 0)
(-0.092186903 -0.23388242 0)
(-0.14964016 -0.2152922 0)
(-0.20126247 -0.18836198 0)
(-0.2450638 -0.15418463 0)
(-0.2793721 -0.11413058 0)
(-0.30289304 -0.069789044 0)
(-0.31475446 -0.022898255 0)
(-0.314528 0.024741337 0)
(-0.30224684 0.071341391 0)
(-0.27840211 0.11515256 0)
(-0.2439187 0.15452236 0)
(-0.20011722 0.18796487 0)
(-0.14866924 0.21421797 0)
(-0.09153827 0.23229072 0)
(-0.030906819 0.24150096 0)
(0.030906819 0.24150096 0)
(0.09153827 0.23229072 0)
(0.14866924 0.21421797 0)
(0.20011722 0.18796487 0)
(0.2439187 0.15452236 0)
(0.27840211 0.11515256 0)
(0.30224684 0.071341391 0)
(0.314528 0.024741337 0)
(0.31475446 -0.022898255 0)
(0.30289304 -0.069789044 0)
(0.2793721 -0.11413058 0)
(0.2450638 -0.15418463 0)
(0.20126247 -0.18836198 0)
(0.14964016 -0.2152922 0)
(0.092186903 -0.23388242 0)
(0.031134547 -0.24337236 0)
(-0.032387882 -0.1951449 0)
(-0.095899986 -0.18754388 0)
(-0.15567332 -0.17265135 0)
(-0.20938677 -0.15107196 0)
(-0.25496717 -0.12367764 0)
(-0.29066987 -0.091568557 0)
(-0.31514391 -0.056023191 0)
(-0.32748042 -0.018435704 0)
(-0.32723051 0.019760435 0)
(-0.31443203 0.057144492 0)
(-0.28960805 0.092317755 0)
(-0.25371862 0.12394663 0)
(-0.20814096 0.15082588 0)
(-0.15461881 0.17193176 0)
(-0.095196134 0.18646288 0)
(-0.032140861 0.19386861 0)
(0.032140861 0.19386861 0)
(0.095196134 0.18646288 0)
(0.15461881 0.17193176 0)
(0.20814096 0.15082588 0)
(0.25371862 0.12394663 0)
(0.28960805 0.092317755 0)
(0.31443203 0.057144492 0)
(0.32723051 0.019760435 0)
(0.32748042 -0.018435704 0)
(0.31514391 -0.056023191 0)
(0.29066987 -0.091568557 0)
(0.25496717 -0.12367764 0)
(0.20938677 -0.15107196 0)
(0.15567332 -0.17265135 0)
(0.095899986 -0.18754388 0)
(0.032387882 -0.1951449 0)
(-0.036041168 -0.11577148 0)
(-0.10671708 -0.11123738 0)
(-0.17323163 -0.10235725 0)
(-0.2330009 -0.089498313 0)
(-0.28371742 -0.073189682 0)
(-0.32343906 -0.054098703 0)
(-0.35065593 -0.032996454 0)
(-0.36435064 -0.010724769 0)
(-0.3640348 0.011834105 0)
(-0.34974715 0.033939169 0)
(-0.32207145 0.05473161 0)
(-0.28210424 0.073409037 0)
(-0.23138881 0.089265971 0)
(-0.17186574 0.10170612 0)
(-0.10580482 0.1102652 0)
(-0.035720903 0.11462542 0)
(0.035720903 0.11462542 0)
(0.10580482 0.1102652 0)
(0.17186574 0.10170612 0)
(0.23138881 0.089265971 0)
(0.28210424 0.073409037 0)
(0.32207145 0.05473161 0)
(0.34974715 0.033939169 0)
(0.3640348 0.011834105 0)
(0.36435064 -0.010724769 0)
(0.35065593 -0.032996454 0)
(0.32343906 -0.054098703 0)
(0.28371742 -0.073189682 0)
(0.2330009 -0.089498313 0)
(0.17323163 -0.10235725 0)
(0.10671708 -0.11123738 0)
(0.036041168 -0.11577148 0)
(-0.04203168 -0.043168029 0)
(-0.12445627 -0.041518884 0)
(-0.20203127 -0.038282017 0)
(-0.27174293 -0.033578224 0)
(-0.33089432 -0.027583911 0)
(-0.37721046 -0.02052872 0)
(-0.40895378 -0.012692148 0)
(-0.42498237 -0.0044082033 0)
(-0.42471519 0.0041960176 0)
(-0.40817342 0.012480858 0)
(-0.37605838 0.02038187 0)
(-0.32953844 0.027532806 0)
(-0.27038886 0.033633641 0)
(-0.20088455 0.038436864 0)
(-0.1236905 0.04175068 0)
(-0.041762854 0.043441572 0)
(0.041762854 0.043441572 0)
(0.1236905 0.04175068 0)
(0.20088455 0.038436864 0)
(0.27038886 0.033633641 0)
(0.32953844 0.027532806 0)
(0.37605838 0.02038187 0)
(0.40817342 0.012480858 0)
(0.42471519 0.0041960176 0)
(0.42498237 -0.0044082033 0)
(0.40895378 -0.012692148 0)
(0.37721046 -0.02052872 0)
(0.33089432 -0.027583911 0)
(0.27174293 -0.033578224 0)
(0.20203127 -0.038282017 0)
(0.12445627 -0.041518884 0)
(0.04203168 -0.043168029 0)
)
;

boundaryField
{
    leftWall
    {
        type            cyclic;
    }
    rightWall
    {
        type            cyclic;
    }
    lowerWall
    {
        type            slip;
    }
    atmosphere
    {
        type            slip;
    }
    defaultFaces
    {
        type            empty;
    }
}


// ************************************************************************* //
