/*--------------------------------*- C++ -*----------------------------------*\
| =========                 |                                                 |
| \\      /  F ield         | OpenFOAM: The Open Source CFD Toolbox           |
|  \\    /   O peration     | Version:  2306                                  |
|   \\  /    A nd           | Website:  www.openfoam.com                      |
|    \\/     M anipulation  |                                                 |
\*---------------------------------------------------------------------------*/
FoamFile
{
    version     2.0;
    format      ascii;
    arch        "LSB;label=32;scalar=64";
    class       surfaceScalarField;
    location    "0.17";
    object      phi_0;
}
// * * * * * * * * * * * * * * * * * * * * * * * * * * * * * * * * * * * * * //

dimensions      [0 3 -1 0 0 0 0];

oriented        oriented;

internalField   nonuniform List<scalar> 
12640
(
-2.3448684e-06
-4.3856703e-09
-2.3392881e-06
-5.5802699e-09
-2.3325411e-06
-6.7470563e-09
-2.324656e-06
-7.8851212e-09
-2.3156617e-06
-8.9942585e-09
-2.3055873e-06
-1.0074446e-08
-2.2944615e-06
-1.1125736e-08
-2.2823133e-06
-1.2148193e-08
-2.2691714e-06
-1.3141944e-08
-2.2550642e-06
-1.4107167e-08
-2.2400201e-06
-1.5044076e-08
-2.2240672e-06
-1.5952945e-08
-2.2072331e-06
-1.6834097e-08
-2.1895452e-06
-1.7687888e-08
-2.1710305e-06
-1.8514732e-08
-2.1517154e-06
-1.931508e-08
-2.131626e-06
-2.0089417e-08
-2.1107877e-06
-2.0838233e-08
-2.0892256e-06
-2.1562113e-08
-2.066964e-06
-2.2261621e-08
-2.0440267e-06
-2.2937324e-08
-2.0204368e-06
-2.3589863e-08
-1.9962169e-06
-2.4219878e-08
-1.9713889e-06
-2.4827996e-08
-1.9459741e-06
-2.5414885e-08
-1.9199929e-06
-2.5981204e-08
-1.8934652e-06
-2.6527633e-08
-1.8664104e-06
-2.7054853e-08
-1.8388468e-06
-2.7563555e-08
-1.8107924e-06
-2.8054432e-08
-1.7822642e-06
-2.8528145e-08
-1.7532789e-06
-2.8985388e-08
-1.723852e-06
-2.942685e-08
-1.6939988e-06
-2.9853192e-08
-1.6637337e-06
-3.0265099e-08
-1.6330705e-06
-3.0663231e-08
-1.6020222e-06
-3.1048217e-08
-1.5706015e-06
-3.1420764e-08
-1.53882e-06
-3.1781464e-08
-1.5066891e-06
-3.2130953e-08
-1.4742192e-06
-3.2469847e-08
-1.4414205e-06
-3.2798737e-08
-1.4083023e-06
-3.3118246e-08
-1.3748733e-06
-3.3428958e-08
-1.3411419e-06
-3.3731423e-08
-1.3071157e-06
-3.4026198e-08
-1.2728019e-06
-3.4313821e-08
-1.238207e-06
-3.4594841e-08
-1.2033372e-06
-3.4869772e-08
-1.1681982e-06
-3.5139069e-08
-1.1327949e-06
-3.5403276e-08
-1.0971321e-06
-3.566283e-08
-1.0612139e-06
-3.5918218e-08
-1.025044e-06
-3.6169877e-08
-9.8862576e-07
-3.6418213e-08
-9.5196209e-07
-3.6663664e-08
-9.1505548e-07
-3.690662e-08
-8.77908e-07
-3.7147473e-08
-8.4052141e-07
-3.7386594e-08
-8.0289705e-07
-3.7624352e-08
-7.6503598e-07
-3.7861063e-08
-7.2693895e-07
-3.8097044e-08
-6.8860631e-07
-3.8332637e-08
-6.5003822e-07
-3.856809e-08
-6.112345e-07
-3.8803703e-08
-5.7219478e-07
-3.9039718e-08
-5.3291849e-07
-3.9276295e-08
-4.9340485e-07
-3.951362e-08
-4.5365313e-07
-3.9751747e-08
-4.1366261e-07
-3.9990519e-08
-3.734331e-07
-4.0229489e-08
-3.3296572e-07
-4.0467381e-08
-2.9226454e-07
-4.0701191e-08
-2.513405e-07
-4.0924022e-08
-2.1021981e-07
-4.1120683e-08
-1.6895782e-07
-4.1262017e-08
-1.2764772e-07
-4.1310097e-08
-8.635538e-08
-4.1292353e-08
-4.4629339e-08
-4.1726031e-08
-4.4629338e-08
-4.6467119e-06
-1.4111702e-08
-4.6346546e-06
-1.7637627e-08
-4.6203242e-06
-2.1077404e-08
-4.6037778e-06
-2.4431543e-08
-4.585072e-06
-2.7700057e-08
-4.5642636e-06
-3.0882859e-08
-4.5414094e-06
-3.3979955e-08
-4.5165661e-06
-3.6991429e-08
-4.4897904e-06
-3.9917647e-08
-4.4611385e-06
-4.2759081e-08
-4.4306662e-06
-4.5516411e-08
-4.3984286e-06
-4.8190487e-08
-4.3644804e-06
-5.0782274e-08
-4.3288754e-06
-5.3292915e-08
-4.2916665e-06
-5.5723658e-08
-4.2529057e-06
-5.8075912e-08
-4.2126439e-06
-6.0351167e-08
-4.1709312e-06
-6.2550935e-08
-4.1278164e-06
-6.4676915e-08
-4.0833472e-06
-6.6730836e-08
-4.03757e-06
-6.8714538e-08
-3.99053e-06
-7.0629819e-08
-3.9422713e-06
-7.2478622e-08
-3.8928364e-06
-7.4262867e-08
-3.8422668e-06
-7.5984522e-08
-3.7906023e-06
-7.7645621e-08
-3.7378818e-06
-7.9248174e-08
-3.6841424e-06
-8.0794201e-08
-3.6294203e-06
-8.2285735e-08
-3.5737499e-06
-8.3724832e-08
-3.5171645e-06
-8.5113548e-08
-3.459696e-06
-8.6453868e-08
-3.401375e-06
-8.7747845e-08
-3.3422307e-06
-8.8997496e-08
-3.282291e-06
-9.0204751e-08
-3.2215825e-06
-9.1371691e-08
-3.1601306e-06
-9.2500145e-08
-3.0979593e-06
-9.359208e-08
-3.0350914e-06
-9.4649377e-08
-2.9715485e-06
-9.5673908e-08
-2.9073508e-06
-9.6667462e-08
-2.8425177e-06
-9.7631835e-08
-2.7770672e-06
-9.8568812e-08
-2.711016e-06
-9.9480086e-08
-2.6443801e-06
-1.0036737e-07
-2.5771741e-06
-1.0123224e-07
-2.5094115e-06
-1.0207632e-07
-2.4411051e-06
-1.0290126e-07
-2.3722665e-06
-1.0370844e-07
-2.3029062e-06
-1.044994e-07
-2.2330339e-06
-1.0527557e-07
-2.1626583e-06
-1.0603834e-07
-2.0917875e-06
-1.067891e-07
-2.0204282e-06
-1.0752912e-07
-1.9485867e-06
-1.0825968e-07
-1.8762684e-06
-1.08982e-07
-1.8034777e-06
-1.0969726e-07
-1.7302186e-06
-1.104066e-07
-1.6564941e-06
-1.1111111e-07
-1.5823066e-06
-1.1181185e-07
-1.5076578e-06
-1.1250982e-07
-1.4325489e-06
-1.1320594e-07
-1.3569804e-06
-1.1390117e-07
-1.2809522e-06
-1.1459635e-07
-1.2044636e-06
-1.1529224e-07
-1.1275137e-06
-1.1598963e-07
-1.050101e-06
-1.1668906e-07
-9.7222343e-07
-1.1739116e-07
-8.9387904e-07
-1.1809615e-07
-8.150655e-07
-1.1880405e-07
-7.3578063e-07
-1.1951435e-07
-6.560226e-07
-1.2022541e-07
-5.7579029e-07
-1.2093352e-07
-4.9508324e-07
-1.2163107e-07
-4.1390046e-07
-1.2230346e-07
-3.3223383e-07
-1.2292865e-07
-2.5004555e-07
-1.2349835e-07
-1.6721847e-07
-1.2411941e-07
-8.3644736e-08
-1.2529977e-07
-1.2827407e-07
-5.6115251e-06
-2.641038e-08
-5.5964301e-06
-3.2732662e-08
-5.5786063e-06
-3.890121e-08
-5.5581223e-06
-4.4915531e-08
-5.5350472e-06
-5.0775125e-08
-5.5094504e-06
-5.6479756e-08
-5.4814009e-06
-6.202943e-08
-5.4509678e-06
-6.7424485e-08
-5.4182198e-06
-7.266565e-08
-5.383225e-06
-7.7753898e-08
-5.3460509e-06
-8.2690549e-08
-5.3067641e-06
-8.7477225e-08
-5.2654306e-06
-9.2115765e-08
-5.2221153e-06
-9.6608286e-08
-5.1768818e-06
-1.0095714e-07
-5.1297928e-06
-1.0516485e-07
-5.0809098e-06
-1.0923416e-07
-5.0302928e-06
-1.1316793e-07
-4.9780006e-06
-1.1696919e-07
-4.9240903e-06
-1.2064114e-07
-4.8686178e-06
-1.2418701e-07
-4.8116374e-06
-1.2761023e-07
-4.7532018e-06
-1.3091421e-07
-4.6933622e-06
-1.3410247e-07
-4.6321681e-06
-1.3717859e-07
-4.5696675e-06
-1.4014619e-07
-4.5059068e-06
-1.4300893e-07
-4.4409305e-06
-1.4577048e-07
-4.3747817e-06
-1.484345e-07
-4.3075019e-06
-1.5100468e-07
-4.2391307e-06
-1.5348472e-07
-4.1697063e-06
-1.5587823e-07
-4.0992653e-06
-1.581889e-07
-4.0278425e-06
-1.6042029e-07
-3.9554712e-06
-1.6257602e-07
-3.8821833e-06
-1.6465961e-07
-3.8080089e-06
-1.6667453e-07
-3.7329767e-06
-1.6862427e-07
-3.6571139e-06
-1.7051219e-07
-3.5804462e-06
-1.7234164e-07
-3.5029978e-06
-1.7411585e-07
-3.4247915e-06
-1.758381e-07
-3.3458489e-06
-1.7751147e-07
-3.2661899e-06
-1.7913907e-07
-3.1858333e-06
-1.8072393e-07
-3.1047966e-06
-1.8226897e-07
-3.0230959e-06
-1.8377707e-07
-2.9407461e-06
-1.8525103e-07
-2.857761e-06
-1.8669355e-07
-2.7741531e-06
-1.8810728e-07
-2.6899339e-06
-1.894948e-07
-2.6051136e-06
-1.9085861e-07
-2.5197015e-06
-1.9220116e-07
-2.4337059e-06
-1.9352476e-07
-2.3471339e-06
-1.948317e-07
-2.2599917e-06
-1.9612417e-07
-2.1722847e-06
-1.9740427e-07
-2.0840173e-06
-1.9867402e-07
-1.995193e-06
-1.9993546e-07
-1.9058144e-06
-2.0119039e-07
-1.8158836e-06
-2.0244065e-07
-1.7254016e-06
-2.0368794e-07
-1.6343689e-06
-2.0493388e-07
-1.5427852e-06
-2.0618005e-07
-1.4506496e-06
-2.0742787e-07
-1.3579605e-06
-2.0867866e-07
-1.264716e-06
-2.0993362e-07
-1.1709134e-06
-2.1119378e-07
-1.0765496e-06
-2.1245988e-07
-9.8162128e-07
-2.1373236e-07
-8.8612452e-07
-2.1501111e-07
-7.9005491e-07
-2.1629503e-07
-6.9340685e-07
-2.1758161e-07
-5.9617199e-07
-2.1886592e-07
-4.9833531e-07
-2.2014016e-07
-3.9986697e-07
-2.2139699e-07
-3.0071438e-07
-2.2265095e-07
-2.0082925e-07
-2.2400457e-07
-1.0033281e-07
-2.257962e-07
-2.2860688e-07
-5.9686409e-06
-3.988504e-08
-5.9522008e-06
-4.91727e-08
-5.932869e-06
-5.823299e-08
-5.9107193e-06
-6.7065272e-08
-5.8858255e-06
-7.56689e-08
-5.8582617e-06
-8.4043583e-08
-5.8281016e-06
-9.2189466e-08
-5.795419e-06
-1.0010715e-07
-5.7602869e-06
-1.0779774e-07
-5.7227779e-06
-1.1526285e-07
-5.682964e-06
-1.225045e-07
-5.6409161e-06
-1.2952511e-07
-5.5967044e-06
-1.3632752e-07
-5.5503978e-06
-1.4291491e-07
-5.5020641e-06
-1.4929082e-07
-5.4517699e-06
-1.5545904e-07
-5.3995804e-06
-1.6142364e-07
-5.3455594e-06
-1.6718891e-07
-5.2897692e-06
-1.7275936e-07
-5.2322707e-06
-1.7813973e-07
-5.1731229e-06
-1.8333483e-07
-5.1123834e-06
-1.883497e-07
-5.0501082e-06
-1.9318944e-07
-4.9863514e-06
-1.9785926e-07
-4.9211655e-06
-2.0236444e-07
-4.8546014e-06
-2.0671036e-07
-4.786708e-06
-2.1090233e-07
-4.7175326e-06
-2.1494589e-07
-4.6471207e-06
-2.1884636e-07
-4.5755162e-06
-2.2260923e-07
-4.502761e-06
-2.2623989e-07
-4.4288955e-06
-2.2974374e-07
-4.3539582e-06
-2.3312614e-07
-4.2779861e-06
-2.3639241e-07
-4.2010143e-06
-2.3954783e-07
-4.1230764e-06
-2.4259756e-07
-4.0442041e-06
-2.4554678e-07
-3.9644278e-06
-2.4840056e-07
-3.8837762e-06
-2.5116384e-07
-3.8022762e-06
-2.5384156e-07
-3.7199536e-06
-2.5643853e-07
-3.6368322e-06
-2.5895944e-07
-3.5529347e-06
-2.6140893e-07
-3.4682823e-06
-2.6379157e-07
-3.3828945e-06
-2.661117e-07
-3.2967898e-06
-2.683737e-07
-3.2099851e-06
-2.7058176e-07
-3.1224961e-06
-2.7274005e-07
-3.0343371e-06
-2.7485247e-07
-2.9455214e-06
-2.7692295e-07
-2.8560609e-06
-2.789553e-07
-2.7659664e-06
-2.8095311e-07
-2.6752476e-06
-2.8292003e-07
-2.5839129e-06
-2.8485944e-07
-2.4919699e-06
-2.8677471e-07
-2.3994251e-06
-2.8866903e-07
-2.3062838e-06
-2.9054552e-07
-2.2125507e-06
-2.9240715e-07
-2.1182293e-06
-2.9425683e-07
-2.0233224e-06
-2.960973e-07
-1.9278318e-06
-2.9793123e-07
-1.8317586e-06
-2.9976111e-07
-1.7351031e-06
-3.0158938e-07
-1.6378648e-06
-3.0341831e-07
-1.5400427e-06
-3.0525003e-07
-1.4416348e-06
-3.0708655e-07
-1.3426388e-06
-3.0892965e-07
-1.2430516e-06
-3.1078097e-07
-1.1428696e-06
-3.1264191e-07
-1.0420884e-06
-3.1451349e-07
-9.4070326e-07
-3.1639629e-07
-8.3870788e-07
-3.182904e-07
-7.3609446e-07
-3.2019504e-07
-6.3285167e-07
-3.221087e-07
-5.2896192e-07
-3.240299e-07
-4.2439751e-07
-3.2596141e-07
-3.1912372e-07
-3.2792474e-07
-2.1313462e-07
-3.2999366e-07
-1.0658021e-07
-3.3235061e-07
-3.3518709e-07
-6.0910794e-06
-5.4013602e-08
-6.0739349e-06
-6.6317141e-08
-6.0538492e-06
-7.8318798e-08
-6.0308974e-06
-9.0017002e-08
-6.0051556e-06
-1.0141076e-07
-5.9766995e-06
-1.1249967e-07
-5.9456049e-06
-1.2328402e-07
-5.9119473e-06
-1.3376475e-07
-5.8758016e-06
-1.4394345e-07
-5.8372421e-06
-1.5382235e-07
-5.7963424e-06
-1.6340425e-07
-5.7531749e-06
-1.7269251e-07
-5.7078115e-06
-1.8169096e-07
-5.6603225e-06
-1.9040393e-07
-5.6107772e-06
-1.9883617e-07
-5.5592434e-06
-2.0699278e-07
-5.5057878e-06
-2.1487927e-07
-5.4504753e-06
-2.2250137e-07
-5.3933695e-06
-2.2986516e-07
-5.3345322e-06
-2.3697696e-07
-5.2740239e-06
-2.4384319e-07
-5.211903e-06
-2.5047057e-07
-5.1482265e-06
-2.5686593e-07
-5.0830495e-06
-2.6303623e-07
-5.0164255e-06
-2.689885e-07
-4.948406e-06
-2.7472986e-07
-4.8790408e-06
-2.8026747e-07
-4.8083781e-06
-2.856086e-07
-4.7364641e-06
-2.9076041e-07
-4.6633432e-06
-2.9573012e-07
-4.5890581e-06
-3.0052497e-07
-4.5136497e-06
-3.0515211e-07
-4.4371572e-06
-3.0961866e-07
-4.359618e-06
-3.1393167e-07
-4.2810677e-06
-3.1809815e-07
-4.2015402e-06
-3.2212496e-07
-4.121068e-06
-3.2601901e-07
-4.0396817e-06
-3.2978692e-07
-3.9574101e-06
-3.3343536e-07
-3.8742809e-06
-3.3697077e-07
-3.7903198e-06
-3.4039963e-07
-3.7055512e-06
-3.4372811e-07
-3.6199977e-06
-3.4696236e-07
-3.5336808e-06
-3.5010842e-07
-3.4466205e-06
-3.531721e-07
-3.358835e-06
-3.5615913e-07
-3.2703417e-06
-3.5907514e-07
-3.1811562e-06
-3.6192553e-07
-3.0912931e-06
-3.6471559e-07
-3.0007655e-06
-3.674505e-07
-2.9095856e-06
-3.7013523e-07
-2.8177641e-06
-3.7277464e-07
-2.7253106e-06
-3.753735e-07
-2.6322338e-06
-3.7793628e-07
-2.538541e-06
-3.8046745e-07
-2.4442388e-06
-3.8297125e-07
-2.3493325e-06
-3.8545183e-07
-2.2538266e-06
-3.8791308e-07
-2.1577245e-06
-3.9035888e-07
-2.061029e-06
-3.9279283e-07
-1.9637417e-06
-3.952185e-07
-1.8658637e-06
-3.9763919e-07
-1.7673949e-06
-4.0005815e-07
-1.6683348e-06
-4.024784e-07
-1.5686821e-06
-4.0490277e-07
-1.4684346e-06
-4.0733397e-07
-1.3675898e-06
-4.0977446e-07
-1.2661442e-06
-4.1222661e-07
-1.1640937e-06
-4.1469235e-07
-1.0614337e-06
-4.1717357e-07
-9.5815829e-07
-4.1967168e-07
-8.542608e-07
-4.2218789e-07
-7.4973256e-07
-4.2472328e-07
-6.4456232e-07
-4.2727893e-07
-5.3873488e-07
-4.2985736e-07
-4.3223105e-07
-4.3246525e-07
-3.2503446e-07
-4.351213e-07
-2.1716003e-07
-4.378681e-07
-1.0872509e-07
-4.4078554e-07
-4.4391217e-07
-6.1356023e-06
-6.8683749e-08
-6.1179053e-06
-8.4014174e-08
-6.0972568e-06
-9.8967273e-08
-6.0737332e-06
-1.1354063e-07
-6.0474111e-06
-1.2773288e-07
-6.0183672e-06
-1.4154348e-07
-5.9866784e-06
-1.549729e-07
-5.9524207e-06
-1.6802241e-07
-5.91567e-06
-1.8069411e-07
-5.8765014e-06
-1.9299095e-07
-5.8349892e-06
-2.049165e-07
-5.7912066e-06
-2.1647511e-07
-5.7452259e-06
-2.2767165e-07
-5.6971182e-06
-2.3851165e-07
-5.6469532e-06
-2.4900112e-07
-5.5947995e-06
-2.5914655e-07
-5.5407239e-06
-2.6895485e-07
-5.484792e-06
-2.7843329e-07
-5.4270676e-06
-2.8758952e-07
-5.3676131e-06
-2.9643146e-07
-5.3064891e-06
-3.0496724e-07
-5.2437543e-06
-3.132053e-07
-5.1794661e-06
-3.2115416e-07
-5.1136797e-06
-3.2882259e-07
-5.0464489e-06
-3.3621936e-07
-4.9778253e-06
-3.4335346e-07
-4.9078589e-06
-3.5023383e-07
-4.836598e-06
-3.5686954e-07
-4.7640888e-06
-3.6326957e-07
-4.6903759e-06
-3.6944298e-07
-4.6155021e-06
-3.7539876e-07
-4.5395083e-06
-3.8114591e-07
-4.4624337e-06
-3.8669328e-07
-4.3843157e-06
-3.920497e-07
-4.3051899e-06
-3.9722393e-07
-4.2250903e-06
-4.0222455e-07
-4.1440492e-06
-4.0706011e-07
-4.0620972e-06
-4.1173895e-07
-3.9792632e-06
-4.1626934e-07
-3.8955745e-06
-4.2065939e-07
-3.8110571e-06
-4.2491709e-07
-3.725735e-06
-4.2905018e-07
-3.639631e-06
-4.3306635e-07
-3.5527664e-06
-4.3697306e-07
-3.4651609e-06
-4.4077761e-07
-3.3768329e-06
-4.4448715e-07
-3.2877993e-06
-4.4810866e-07
-3.198076e-06
-4.5164886e-07
-3.1076772e-06
-4.5511439e-07
-3.016616e-06
-4.5851169e-07
-2.9249043e-06
-4.6184691e-07
-2.8325528e-06
-4.6512615e-07
-2.739571e-06
-4.6835533e-07
-2.6459672e-06
-4.7154002e-07
-2.5517489e-06
-4.7468581e-07
-2.4569222e-06
-4.7779792e-07
-2.3614925e-06
-4.8088159e-07
-2.2654639e-06
-4.8394163e-07
-2.1688399e-06
-4.8698286e-07
-2.0716229e-06
-4.9000986e-07
-1.9738144e-06
-4.9302694e-07
-1.8754153e-06
-4.9603832e-07
-1.7764254e-06
-4.9904805e-07
-1.676844e-06
-5.0205983e-07
-1.5766694e-06
-5.0507732e-07
-1.4758995e-06
-5.0810393e-07
-1.3745311e-06
-5.1114278e-07
-1.2725608e-06
-5.1419689e-07
-1.1699842e-06
-5.1726897e-07
-1.0667961e-06
-5.2036164e-07
-9.6299069e-07
-5.2347712e-07
-8.585609e-07
-5.2661771e-07
-7.5349847e-07
-5.2978566e-07
-6.4779366e-07
-5.3298376e-07
-5.4143499e-07
-5.3621603e-07
-4.3441075e-07
-5.3948948e-07
-3.2671498e-07
-5.4281711e-07
-2.183629e-07
-5.4622018e-07
-1.0942041e-07
-5.4972802e-07
-5.5333257e-07
-6.1586161e-06
-8.3935411e-08
-6.1403385e-06
-1.0229181e-07
-6.1191115e-06
-1.2019424e-07
-6.0950124e-06
-1.3763972e-07
-6.0681187e-06
-1.5462653e-07
-6.038508e-06
-1.7115419e-07
-6.0062576e-06
-1.872233e-07
-5.9714445e-06
-2.0283554e-07
-5.934145e-06
-2.1799362e-07
-5.8944348e-06
-2.3270116e-07
-5.8523886e-06
-2.4696266e-07
-5.8080803e-06
-2.6078342e-07
-5.7615825e-06
-2.7416946e-07
-5.7129666e-06
-2.8712752e-07
-5.6623028e-06
-2.9966494e-07
-5.6096597e-06
-3.1178961e-07
-5.5551046e-06
-3.2350993e-07
-5.4987032e-06
-3.3483473e-07
-5.4405195e-06
-3.4577326e-07
-5.3806158e-06
-3.5633509e-07
-5.319053e-06
-3.6653008e-07
-5.2558899e-06
-3.763684e-07
-5.1911837e-06
-3.8586034e-07
-5.1249899e-06
-3.9501642e-07
-5.0573619e-06
-4.0384735e-07
-4.9883516e-06
-4.1236382e-07
-4.9180087e-06
-4.2057665e-07
-4.8463815e-06
-4.2849675e-07
-4.7735162e-06
-4.3613491e-07
-4.6994571e-06
-4.4350205e-07
-4.6242469e-06
-4.5060897e-07
-4.5479264e-06
-4.5746644e-07
-4.4705345e-06
-4.6408514e-07
-4.3921086e-06
-4.7047566e-07
-4.3126841e-06
-4.7664845e-07
-4.2322947e-06
-4.826139e-07
-4.1509726e-06
-4.8838222e-07
-4.0687481e-06
-4.9396345e-07
-3.98565e-06
-4.9936745e-07
-3.9017054e-06
-5.0460399e-07
-3.8169399e-06
-5.0968261e-07
-3.7313774e-06
-5.1461266e-07
-3.6450405e-06
-5.1940327e-07
-3.5579501e-06
-5.2406341e-07
-3.4701259e-06
-5.2860185e-07
-3.3815859e-06
-5.3302711e-07
-3.2923471e-06
-5.3734756e-07
-3.2024246e-06
-5.4157128e-07
-3.1118328e-06
-5.4570619e-07
-3.0205845e-06
-5.4975998e-07
-2.9286913e-06
-5.537401e-07
-2.8361637e-06
-5.5765377e-07
-2.743011e-06
-5.6150807e-07
-2.6492413e-06
-5.6530976e-07
-2.5548617e-06
-5.6906538e-07
-2.4598782e-06
-5.7278136e-07
-2.3642961e-06
-5.764638e-07
-2.2681191e-06
-5.8011857e-07
-2.1713506e-06
-5.8375143e-07
-2.0739926e-06
-5.873678e-07
-1.9760466e-06
-5.9097292e-07
-1.8775131e-06
-5.9457183e-07
-1.7783918e-06
-5.9816931e-07
-1.6786818e-06
-6.0176994e-07
-1.578381e-06
-6.0537805e-07
-1.4774872e-06
-6.0899776e-07
-1.375997e-06
-6.1263294e-07
-1.2739067e-06
-6.1628725e-07
-1.1712115e-06
-6.1996415e-07
-1.0679063e-06
-6.2366684e-07
-9.6398498e-07
-6.2739843e-07
-8.5944072e-07
-6.3116195e-07
-7.5426584e-07
-6.3496053e-07
-6.4845192e-07
-6.3879771e-07
-5.4199012e-07
-6.4267782e-07
-4.3487277e-07
-6.4660682e-07
-3.2709694e-07
-6.5059293e-07
-2.1867142e-07
-6.546457e-07
-1.0962649e-07
-6.5877294e-07
-6.6295907e-07
-6.1778899e-06
-9.9861944e-08
-6.1589429e-06
-1.2123878e-07
-6.1370532e-06
-1.4208396e-07
-6.112299e-06
-1.6239399e-07
-6.0847585e-06
-1.8216696e-07
-6.0545103e-06
-2.0140239e-07
-6.0216325e-06
-2.201012e-07
-5.9862025e-06
-2.3826549e-07
-5.9482975e-06
-2.5589863e-07
-5.9079937e-06
-2.73005e-07
-5.8653663e-06
-2.8959002e-07
-5.8204896e-06
-3.056601e-07
-5.7734366e-06
-3.2122241e-07
-5.7242792e-06
-3.3628498e-07
-5.6730876e-06
-3.5085651e-07
-5.6199309e-06
-3.6494634e-07
-5.5648764e-06
-3.7856441e-07
-5.50799e-06
-3.9172119e-07
-5.4493357e-06
-4.0442751e-07
-5.3889761e-06
-4.1669469e-07
-5.3269719e-06
-4.2853431e-07
-5.263382e-06
-4.3995832e-07
-5.1982635e-06
-4.509788e-07
-5.1316717e-06
-4.6160817e-07
-5.0636602e-06
-4.718589e-07
-4.9942805e-06
-4.8174353e-07
-4.9235823e-06
-4.912748e-07
-4.8516137e-06
-5.0046539e-07
-4.7784205e-06
-5.0932804e-07
-4.7040472e-06
-5.1787544e-07
-4.6285358e-06
-5.2612024e-07
-4.5519273e-06
-5.3407504e-07
-4.4742601e-06
-5.4175229e-07
-4.3955714e-06
-5.4916439e-07
-4.3158963e-06
-5.5632355e-07
-4.2352683e-06
-5.6324188e-07
-4.1537193e-06
-5.6993128e-07
-4.0712792e-06
-5.7640349e-07
-3.9879766e-06
-5.8267003e-07
-3.9038384e-06
-5.8874224e-07
-3.8188897e-06
-5.946313e-07
-3.7331543e-06
-6.0034807e-07
-3.6466544e-06
-6.0590319e-07
-3.5594106e-06
-6.1130718e-07
-3.4714423e-06
-6.1657017e-07
-3.3827672e-06
-6.2170216e-07
-3.293402e-06
-6.2671281e-07
-3.2033616e-06
-6.3161163e-07
-3.11266e-06
-6.3640779e-07
-3.0213097e-06
-6.4111025e-07
-2.9293222e-06
-6.4572768e-07
-2.8367074e-06
-6.502685e-07
-2.7434745e-06
-6.5474095e-07
-2.6496314e-06
-6.5915288e-07
-2.5551848e-06
-6.6351198e-07
-2.4601406e-06
-6.6782561e-07
-2.3645034e-06
-6.7210094e-07
-2.2682772e-06
-6.7634482e-07
-2.1714646e-06
-6.8056396e-07
-2.0740679e-06
-6.8476458e-07
-1.9760879e-06
-6.889529e-07
-1.8775249e-06
-6.9313474e-07
-1.7783786e-06
-6.9731568e-07
-1.6786474e-06
-7.0150109e-07
-1.5783294e-06
-7.05696e-07
-1.4774219e-06
-7.0990529e-07
-1.3759213e-06
-7.141335e-07
-1.2738237e-06
-7.1838494e-07
-1.1711241e-06
-7.2266375e-07
-1.0678171e-06
-7.2697382e-07
-9.6389665e-07
-7.3131886e-07
-8.5935607e-07
-7.3570251e-07
-7.5418811e-07
-7.4012853e-07
-6.4838512e-07
-7.4460068e-07
-5.4193965e-07
-7.4912331e-07
-4.3484533e-07
-7.5370114e-07
-3.2709896e-07
-7.5833932e-07
-2.1870284e-07
-7.630418e-07
-1.0966737e-07
-7.6780842e-07
-7.7262644e-07
-6.1983776e-06
-1.1657101e-07
-6.1786553e-06
-1.4096102e-07
-6.1559989e-06
-1.6474037e-07
-6.1304877e-06
-1.8790521e-07
-6.1022011e-06
-2.1045352e-07
-6.0712185e-06
-2.3238501e-07
-6.0376188e-06
-2.5370087e-07
-6.0014805e-06
-2.7440382e-07
-5.9628812e-06
-2.9449788e-07
-5.9218979e-06
-3.1398833e-07
-5.8786063e-06
-3.3288159e-07
-5.8330813e-06
-3.5118518e-07
-5.7853961e-06
-3.6890753e-07
-5.7356231e-06
-3.8605801e-07
-5.6838329e-06
-4.0264675e-07
-5.6300946e-06
-4.1868463e-07
-5.5744758e-06
-4.3418316e-07
-5.5170426e-06
-4.4915442e-07
-5.4578591e-06
-4.6361101e-07
-5.3969878e-06
-4.7756598e-07
-5.3344894e-06
-4.9103267e-07
-5.2704229e-06
-5.0402486e-07
-5.2048452e-06
-5.1655651e-07
-5.1378115e-06
-5.2864182e-07
-5.0693753e-06
-5.4029514e-07
-4.9995879e-06
-5.5153095e-07
-4.9284988e-06
-5.6236387e-07
-4.8561558e-06
-5.7280838e-07
-4.7826047e-06
-5.8287914e-07
-4.7078894e-06
-5.9259074e-07
-4.632052e-06
-6.0195763e-07
-4.5551328e-06
-6.1099424e-07
-4.4771702e-06
-6.1971485e-07
-4.3982009e-06
-6.2813365e-07
-4.3182599e-06
-6.3626464e-07
-4.2373801e-06
-6.441216e-07
-4.1555932e-06
-6.517182e-07
-4.0729288e-06
-6.5906786e-07
-3.9894151e-06
-6.6618377e-07
-3.9050785e-06
-6.7307882e-07
-3.819944e-06
-6.7976584e-07
-3.7340349e-06
-6.8625717e-07
-3.647373e-06
-6.9256508e-07
-3.5599787e-06
-6.9870147e-07
-3.4718709e-06
-7.0467797e-07
-3.383067e-06
-7.1050598e-07
-3.2935833e-06
-7.161965e-07
-3.2034346e-06
-7.2176042e-07
-3.1126342e-06
-7.2720816e-07
-3.0211945e-06
-7.3254997e-07
-2.9291264e-06
-7.3779572e-07
-2.8364399e-06
-7.429551e-07
-2.7431435e-06
-7.4803736e-07
-2.6492448e-06
-7.5305153e-07
-2.5547504e-06
-7.5800639e-07
-2.4596656e-06
-7.6291037e-07
-2.3639951e-06
-7.6777155e-07
-2.267742e-06
-7.7259785e-07
-2.1709092e-06
-7.7739679e-07
-2.0734982e-06
-7.8217561e-07
-1.9755098e-06
-7.8694131e-07
-1.876944e-06
-7.9170056e-07
-1.7777999e-06
-7.9645975e-07
-1.678076e-06
-8.0122498e-07
-1.5777699e-06
-8.0600207e-07
-1.4768787e-06
-8.1079657e-07
-1.3753985e-06
-8.1561371e-07
-1.273325e-06
-8.2045842e-07
-1.1706532e-06
-8.2533557e-07
-1.0673774e-06
-8.3024952e-07
-9.6349166e-07
-8.3520465e-07
-8.589891e-07
-8.402051e-07
-7.5386269e-07
-8.4525493e-07
-6.4810516e-07
-8.5035819e-07
-5.4170946e-07
-8.5551899e-07
-4.3466924e-07
-8.6074137e-07
-3.2697985e-07
-8.660287e-07
-2.1863908e-07
-8.7138257e-07
-1.09647e-07
-8.768005e-07
-8.8227345e-07
-6.2213063e-06
-1.341754e-07
-6.2006973e-06
-1.6156999e-07
-6.1771643e-06
-1.8827336e-07
-6.1507881e-06
-2.1428151e-07
-6.1216491e-06
-2.3959245e-07
-6.089828e-06
-2.6420613e-07
-6.0554047e-06
-2.8812425e-07
-6.0184584e-06
-3.1135012e-07
-5.9790677e-06
-3.3388858e-07
-5.9373101e-06
-3.5574585e-07
-5.8932622e-06
-3.769295e-07
-5.8469992e-06
-3.9744817e-07
-5.7985951e-06
-4.1731169e-07
-5.7481223e-06
-4.365308e-07
-5.6956519e-06
-4.5511718e-07
-5.6412533e-06
-4.7308324e-07
-5.5849942e-06
-4.9044218e-07
-5.5269409e-06
-5.0720776e-07
-5.4671575e-06
-5.2339436e-07
-5.4057067e-06
-5.3901682e-07
-5.3426491e-06
-5.5409031e-07
-5.2780434e-06
-5.6863046e-07
-5.2119468e-06
-5.8265318e-07
-5.1444141e-06
-5.9617446e-07
-5.0754986e-06
-6.0921065e-07
-5.0052515e-06
-6.2177809e-07
-4.9337221e-06
-6.3389329e-07
-4.8609578e-06
-6.4557268e-07
-4.7870042e-06
-6.5683279e-07
-4.7119048e-06
-6.676901e-07
-4.6357015e-06
-6.7816093e-07
-4.5584342e-06
-6.8826156e-07
-4.4801409e-06
-6.980081e-07
-4.4008581e-06
-7.0741654e-07
-4.3206201e-06
-7.1650262e-07
-4.2394597e-06
-7.2528192e-07
-4.1574081e-06
-7.3376984e-07
-4.0744945e-06
-7.4198142e-07
-3.9907467e-06
-7.4993158e-07
-3.9061907e-06
-7.576348e-07
-3.8208512e-06
-7.6510544e-07
-3.7347508e-06
-7.7235752e-07
-3.6479112e-06
-7.794047e-07
-3.5603522e-06
-7.8626045e-07
-3.4720924e-06
-7.9293781e-07
-3.3831488e-06
-7.9944956e-07
-3.2935372e-06
-8.0580813e-07
-3.2032719e-06
-8.1202568e-07
-3.1123661e-06
-8.1811395e-07
-3.0208317e-06
-8.2408444e-07
-2.9286791e-06
-8.2994825e-07
-2.835918e-06
-8.3571626e-07
-2.7425565e-06
-8.4139884e-07
-2.6486019e-06
-8.4700614e-07
-2.5540603e-06
-8.5254799e-07
-2.4589368e-06
-8.5803387e-07
-2.3632354e-06
-8.6347289e-07
-2.2669594e-06
-8.6887384e-07
-2.1701109e-06
-8.7424529e-07
-2.0726912e-06
-8.7959528e-07
-1.9747008e-06
-8.849317e-07
-1.8761393e-06
-8.9026205e-07
-1.7770056e-06
-8.9559349e-07
-1.6772977e-06
-9.0093288e-07
-1.577013e-06
-9.0628678e-07
-1.4761481e-06
-9.1166147e-07
-1.374699e-06
-9.1706278e-07
-1.2726611e-06
-9.2249633e-07
-1.1700291e-06
-9.2796754e-07
-1.0667972e-06
-9.3348144e-07
-9.62959e-07
-9.3904283e-07
-8.5850778e-07
-9.4465631e-07
-7.5343643e-07
-9.5032629e-07
-6.4773761e-07
-9.5605701e-07
-5.4140413e-07
-9.6185248e-07
-4.3442915e-07
-9.6771633e-07
-3.2680662e-07
-9.7365123e-07
-2.1853124e-07
-9.7965795e-07
-1.0959821e-07
-9.8573353e-07
-9.9187165e-07
-6.2469378e-06
-1.527904e-07
-6.2253283e-06
-1.8317946e-07
-6.2008066e-06
-2.1279507e-07
-6.1734549e-06
-2.416332e-07
-6.1433553e-06
-2.6969209e-07
-6.1105893e-06
-2.9697208e-07
-6.0752382e-06
-3.2347541e-07
-6.0373821e-06
-3.4920617e-07
-5.9971006e-06
-3.7417012e-07
-5.9544719e-06
-3.9837453e-07
-5.9095733e-06
-4.2182813e-07
-5.8624805e-06
-4.4454092e-07
-5.8132681e-06
-4.6652409e-07
-5.762009e-06
-4.8778992e-07
-5.7087746e-06
-5.0835162e-07
-5.6536345e-06
-5.2822332e-07
-5.5966567e-06
-5.474199e-07
-5.5379076e-06
-5.6595695e-07
-5.4774514e-06
-5.8385058e-07
-5.4153506e-06
-6.0111754e-07
-5.3516661e-06
-6.1777488e-07
-5.2864563e-06
-6.3384018e-07
-5.2197784e-06
-6.4933116e-07
-5.1516869e-06
-6.6426592e-07
-5.0822349e-06
-6.7866261e-07
-5.0114734e-06
-6.9253958e-07
-4.9394515e-06
-7.0591525e-07
-4.8662161e-06
-7.1880802e-07
-4.7918126e-06
-7.312363e-07
-4.7162842e-06
-7.4321851e-07
-4.6396723e-06
-7.5477284e-07
-4.5620164e-06
-7.6591743e-07
-4.4833543e-06
-7.7667027e-07
-4.4037217e-06
-7.8704909e-07
-4.3231528e-06
-7.9707151e-07
-4.2416799e-06
-8.0675482e-07
-4.1593336e-06
-8.1611613e-07
-4.0761428e-06
-8.2517223e-07
-3.9921348e-06
-8.3393959e-07
-3.9073352e-06
-8.4243445e-07
-3.8217679e-06
-8.506727e-07
-3.7354555e-06
-8.5866987e-07
-3.648419e-06
-8.6644125e-07
-3.5606778e-06
-8.7400166e-07
-3.47225e-06
-8.8136565e-07
-3.3831521e-06
-8.8854741e-07
-3.2933995e-06
-8.9556071e-07
-3.2030062e-06
-9.0241903e-07
-3.1119847e-06
-9.0913544e-07
-3.0203465e-06
-9.1572266e-07
-2.9281017e-06
-9.2219301e-07
-2.8352595e-06
-9.285585e-07
-2.7418275e-06
-9.3483075e-07
-2.6478128e-06
-9.4102091e-07
-2.5532208e-06
-9.4713993e-07
-2.4580564e-06
-9.5319827e-07
-2.3623232e-06
-9.5920607e-07
-2.266024e-06
-9.6517311e-07
-2.1691605e-06
-9.7110875e-07
-2.0717337e-06
-9.770221e-07
-1.9737437e-06
-9.8292172e-07
-1.8751897e-06
-9.8881607e-07
-1.7760702e-06
-9.9471301e-07
-1.6763828e-06
-1.0006202e-06
-1.5761247e-06
-1.0065449e-06
-1.4752921e-06
-1.012494e-06
-1.3738807e-06
-1.0184742e-06
-1.2718854e-06
-1.0244916e-06
-1.1693009e-06
-1.0305521e-06
-1.0661208e-06
-1.0366615e-06
-9.6233872e-07
-1.0428249e-06
-8.5794761e-07
-1.0490474e-06
-7.5294011e-07
-1.0553338e-06
-6.4730874e-07
-1.0616884e-06
-5.4104584e-07
-1.0681154e-06
-4.3414393e-07
-1.0746182e-06
-3.2659574e-07
-1.0811994e-06
-2.183941e-07
-1.0878596e-06
-1.095318e-07
-1.0945958e-06
-1.1014034e-06
-6.2753074e-06
-1.7253305e-07
-6.2525821e-06
-2.059048e-07
-6.2269581e-06
-2.3841906e-07
-6.1985193e-06
-2.7007196e-07
-6.1673494e-06
-3.0086206e-07
-6.1335312e-06
-3.3079023e-07
-6.0971471e-06
-3.5985946e-07
-6.0582786e-06
-3.880747e-07
-6.017006e-06
-4.1544274e-07
-5.9734085e-06
-4.4197206e-07
-5.927564e-06
-4.6767262e-07
-5.879549e-06
-4.9255587e-07
-5.8294386e-06
-5.1663449e-07
-5.7773062e-06
-5.3992236e-07
-5.7232234e-06
-5.6243439e-07
-5.6672603e-06
-5.8418643e-07
-5.6094851e-06
-6.0519516e-07
-5.549964e-06
-6.2547798e-07
-5.4887616e-06
-6.4505297e-07
-5.4259404e-06
-6.6393871e-07
-5.361561e-06
-6.821543e-07
-5.295682e-06
-6.9971916e-07
-5.2283601e-06
-7.1665309e-07
-5.15965e-06
-7.3297609e-07
-5.0896042e-06
-7.487084e-07
-5.0182735e-06
-7.6387025e-07
-4.9457067e-06
-7.7848208e-07
-4.8719504e-06
-7.9256427e-07
-4.7970496e-06
-8.0613717e-07
-4.721047e-06
-8.1922107e-07
-4.6439837e-06
-8.3183614e-07
-4.5658988e-06
-8.4400241e-07
-4.4868293e-06
-8.5573967e-07
-4.4068109e-06
-8.6706755e-07
-4.325877e-06
-8.7800542e-07
-4.2440594e-06
-8.8857233e-07
-4.1613884e-06
-8.9878716e-07
-4.0778923e-06
-9.0866836e-07
-3.9935977e-06
-9.1823413e-07
-3.9085299e-06
-9.2750225e-07
-3.8227123e-06
-9.3649032e-07
-3.7361668e-06
-9.4521532e-07
-3.6489141e-06
-9.5369406e-07
-3.5609728e-06
-9.6194287e-07
-3.4723607e-06
-9.6997774e-07
-3.3830939e-06
-9.7781425e-07
-3.293187e-06
-9.8546754e-07
-3.2026537e-06
-9.929524e-07
-3.1115059e-06
-1.0002832e-06
-3.0197547e-06
-1.0074739e-06
-2.9274097e-06
-1.014538e-06
-2.8344794e-06
-1.0214888e-06
-2.7409714e-06
-1.0283388e-06
-2.6468918e-06
-1.0351005e-06
-2.552246e-06
-1.0417857e-06
-2.4570382e-06
-1.0484061e-06
-2.3612716e-06
-1.0549727e-06
-2.2649485e-06
-1.0614962e-06
-2.1680702e-06
-1.067987e-06
-2.0706374e-06
-1.0744549e-06
-1.9726497e-06
-1.0809095e-06
-1.8741058e-06
-1.0873599e-06
-1.7750038e-06
-1.093815e-06
-1.6753412e-06
-1.1002828e-06
-1.5751144e-06
-1.1067717e-06
-1.4743194e-06
-1.113289e-06
-1.3729516e-06
-1.1198421e-06
-1.2710055e-06
-1.1264377e-06
-1.1684752e-06
-1.1330824e-06
-1.0653544e-06
-1.1397823e-06
-9.6163621e-07
-1.1465431e-06
-8.5731319e-07
-1.1533704e-06
-7.5237774e-07
-1.1602692e-06
-6.4682195e-07
-1.1672442e-06
-5.4063773e-07
-1.1742996e-06
-4.338169e-07
-1.1814391e-06
-3.2635121e-07
-1.1886651e-06
-2.182323e-07
-1.1959785e-06
-1.0945165e-07
-1.2033765e-06
-1.2108551e-06
-6.3064005e-06
-1.9352207e-07
-6.2824424e-06
-2.2986292e-07
-6.2556012e-06
-2.652603e-07
-6.2259625e-06
-2.9971063e-07
-6.1936116e-06
-3.3321299e-07
-6.1586329e-06
-3.6576895e-07
-6.12111e-06
-3.9738232e-07
-6.0811256e-06
-4.2805912e-07
-6.0387611e-06
-4.5780728e-07
-5.9940966e-06
-4.8663656e-07
-5.9472108e-06
-5.1455839e-07
-5.8981809e-06
-5.415857e-07
-5.8470826e-06
-5.6773281e-07
-5.7939897e-06
-5.9301529e-07
-5.7389743e-06
-6.1744981e-07
-5.6821066e-06
-6.4105405e-07
-5.6234552e-06
-6.6384659e-07
-5.5630864e-06
-6.8584677e-07
-5.5010648e-06
-7.070746e-07
-5.4374528e-06
-7.2755067e-07
-5.372311e-06
-7.4729604e-07
-5.305698e-06
-7.6633224e-07