/*--------------------------------*- C++ -*----------------------------------*\
| =========                 |                                                 |
| \\      /  F ield         | OpenFOAM: The Open Source CFD Toolbox           |
|  \\    /   O peration     | Version:  2306                                  |
|   \\  /    A nd           | Website:  www.openfoam.com                      |
|    \\/     M anipulation  |                                                 |
\*---------------------------------------------------------------------------*/
FoamFile
{
    version     2.0;
    format      ascii;
    arch        "LSB;label=32;scalar=64";
    class       volVectorField;
    location    "0.46";
    object      U_0;
}
// * * * * * * * * * * * * * * * * * * * * * * * * * * * * * * * * * * * * * //

dimensions      [0 1 -1 0 0 0 0];

internalField   nonuniform List<vector> 
6400
(
(-0.00054895179 -3.5257616e-05 -9.4304147e-21)
(-0.00053873284 -2.2513437e-05 2.0945361e-20)
(-0.00052846754 -1.0190154e-05 -2.3961667e-20)
(-0.00051816961 1.717275e-06 -1.5138864e-20)
(-0.00050784947 1.3214176e-05 1.2089123e-20)
(-0.00049751811 2.4305831e-05 4.2485653e-21)
(-0.00048718757 3.4998663e-05 1.4482675e-20)
(-0.00047686827 4.5299146e-05 5.5342561e-21)
(-0.00046657041 5.5214087e-05 2.985806e-21)
(-0.00045630357 6.4750463e-05 1.6539036e-20)
(-0.00044607685 7.3915604e-05 1.1504047e-20)
(-0.0004358991 8.2717085e-05 7.0211841e-21)
(-0.00042577856 9.1162535e-05 -2.0771302e-20)
(-0.000415723 9.9259836e-05 -1.5253742e-21)
(-0.00040573974 0.00010701695 1.7167428e-20)
(-0.00039583569 0.0001144422 1.2665786e-20)
(-0.00038601734 0.00012154372 8.2949055e-21)
(-0.00037629074 0.00012832982 -1.504653e-20)
(-0.00036666147 0.00013480901 -4.3843227e-21)
(-0.0003571347 0.00014098982 1.2575649e-20)
(-0.00034771527 0.00014688051 9.905508e-21)
(-0.00033840751 0.00015248975 7.0745619e-21)
(-0.00032921539 0.00015782627 -1.7078411e-20)
(-0.00032014261 0.00016289815 -6.1645938e-21)
(-0.0003111925 0.00016771395 1.1284619e-20)
(-0.00030236792 0.00017228221 5.9095345e-21)
(-0.0002936715 0.00017661127 3.8099419e-21)
(-0.00028510551 0.00018070958 -1.3040661e-20)
(-0.00027667184 0.00018458507 -4.7459883e-21)
(-0.00026837218 0.00018824614 1.6604629e-20)
(-0.00026020783 0.00019170071 1.8216285e-21)
(-0.00025217977 0.00019495678 -5.2923763e-21)
(-0.00024428885 0.000198022 -7.8830552e-21)
(-0.00023653555 0.00020090426 1.1867379e-21)
(-0.00022892015 0.00020361098 1.2403693e-20)
(-0.00022144271 0.00020614952 5.2152511e-21)
(-0.00021410295 0.00020852749 -2.6096541e-21)
(-0.00020690048 0.00021075183 -9.2102472e-21)
(-0.00019983462 0.00021282951 1.6812386e-21)
(-0.0001929045 0.00021476741 1.3999489e-20)
(-0.00018610918 0.00021657227 3.867346e-22)
(-0.00017944738 0.00021825049 -5.7337743e-21)
(-0.00017291768 0.00021980849 -4.1748704e-21)
(-0.00016651857 0.00022125242 5.5681018e-22)
(-0.00016024831 0.0002225884 7.3980082e-21)
(-0.00015410509 0.00022382201 1.9697905e-21)
(-0.00014808696 0.00022495919 -2.0796021e-21)
(-0.00014219175 0.00022600534 -5.2306011e-21)
(-0.00013641722 0.00022696585 6.5398327e-22)
(-0.00013076105 0.00022784568 1.9878922e-21)
(-0.00012522073 0.00022864984 -5.4285993e-22)
(-0.00011979376 0.00022938335 -1.4457817e-21)
(-0.00011447758 0.00023005053 -5.8374762e-21)
(-0.00010926942 0.00023065583 7.0310179e-22)
(-0.00010416642 0.00023120381 5.155407e-21)
(-9.9165756e-05 0.00023169824 7.8781933e-23)
(-9.4264547e-05 0.00023214317 -1.0553425e-21)
(-8.945979e-05 0.00023254227 -4.1543164e-21)
(-8.4748419e-05 0.00023289929 1.8138426e-21)
(-8.0127354e-05 0.00023321731 3.059566e-21)
(-7.5593503e-05 0.00023349995 -7.5705566e-22)
(-7.1143662e-05 0.00023374992 -9.5469981e-22)
(-6.6774654e-05 0.00023397027 -3.7108783e-21)
(-6.2483332e-05 0.00023416361 -7.1975619e-22)
(-5.8266388e-05 0.00023433266 1.7097695e-21)
(-5.4120589e-05 0.00023447973 1.5220789e-22)
(-5.0042714e-05 0.00023460706 1.814443e-22)
(-4.6029477e-05 0.00023471677 -2.4327322e-21)
(-4.2077552e-05 0.00023481069 -3.2029887e-22)
(-3.8183714e-05 0.00023489067 3.2232706e-21)
(-3.4344703e-05 0.00023495831 7.3635753e-24)
(-3.0557216e-05 0.00023501496 3.8877854e-22)
(-2.681809e-05 0.00023506193 -2.0878855e-21)
(-2.3124075e-05 0.00023510015 3.3178991e-23)
(-1.9471895e-05 0.00023513034 1.8086273e-21)
(-1.5858435e-05 0.00023515255 -4.4583662e-22)
(-1.2280697e-05 0.00023516634 -7.8402019e-22)
(-8.7347682e-06 0.00023517078 -2.2564409e-21)
(-5.2156999e-06 0.00023516549 -1.4015741e-21)
(-1.7270715e-06 0.00023515576 -1.5912336e-21)
(-0.00053612924 -3.8495327e-05 2.4404921e-20)
(-0.00052632617 -2.6011427e-05 5.0736182e-21)
(-0.00051647153 -1.3932408e-05 -2.6351925e-20)
(-0.00050657822 -2.2527608e-06 -1.1874097e-20)
(-0.0004966583 9.0330076e-06 -2.8897386e-21)
(-0.00048672202 1.992882e-05 -7.6022521e-21)
(-0.00047678007 3.0440654e-05 -1.1232001e-20)
(-0.0004668429 4.0574776e-05 -1.0417535e-20)
(-0.00045692038 5.0337228e-05 3.5634514e-21)
(-0.00044702199 5.9734666e-05 2.9835232e-21)
(-0.00043715667 6.8773966e-05 7.1921776e-21)
(-0.00042733286 7.7462078e-05 -3.2895143e-22)
(-0.00041755865 8.5806168e-05 -1.2691161e-20)
(-0.00040784172 9.3813667e-05 -2.1489462e-21)
(-0.00039818925 0.00010149203 -5.1558261e-21)
(-0.00038860798 0.00010884909 1.2562366e-21)
(-0.00037910433 0.00011589256 -1.3235677e-21)
(-0.00036968426 0.00012263014 -9.9726347e-21)
(-0.0003603533 0.00012907004 -1.0567637e-23)
(-0.00035111655 0.00013522015 -5.5342761e-21)
(-0.00034197882 0.00014108838 1.2917036e-21)
(-0.00033294453 0.0001466829 -8.2716324e-22)
(-0.0003240176 0.0001520121 -1.2123504e-20)
(-0.0003152017 0.00015708349 -6.2141584e-21)
(-0.00030650016 0.00016190542 -1.3230919e-21)
(-0.00029791598 0.00016648587 1.9421802e-21)
(-0.0002894519 0.00017083288 1.2592761e-22)
(-0.00028111011 0.00017495429 -4.4513377e-21)
(-0.00027289259 0.00017885793 -3.6933951e-21)
(-0.00026480115 0.00018255167 -3.9800069e-21)
(-0.00025683722 0.00018604308 -9.7888676e-21)
(-0.00024900192 0.00018933987 -8.6517801e-21)
(-0.00024129616 0.00019244939 -4.8685905e-21)
(-0.00023372056 0.00019537903 -7.9461715e-22)
(-0.00022627548 0.00019813611 -2.4312874e-21)
(-0.00021896114 0.00020072765 -2.6658988e-21)
(-0.0002117774 0.00020316083 -3.2950862e-21)
(-0.00020472398 0.00020544244 -4.1320011e-21)
(-0.00019780049 0.00020757911 -1.0213224e-21)
(-0.00019100613 0.00020957745 2.0646176e-21)
(-0.00018433996 0.00021144401 -5.0093629e-22)
(-0.00017780101 0.00021318493 -4.7428783e-21)
(-0.00017138806 0.00021480638 -4.5772354e-21)
(-0.00016509969 0.0002163143 -4.3214453e-21)
(-0.0001589343 0.00021771454 -1.9235921e-21)
(-0.00015289034 0.00021901266 -1.8541693e-21)
(-0.00014696598 0.00022021418 -5.6889898e-21)
(-0.00014115922 0.00022132451 -4.7013794e-21)
(-0.00013546798 0.00022234868 -1.0936039e-21)
(-0.00012989008 0.00022329157 -3.5764382e-21)
(-0.00012442334 0.00022415809 -1.7696963e-21)
(-0.00011906534 0.00022495305 -4.812648e-22)
(-0.00011381357 0.00022568068 -3.2219493e-21)
(-0.00010866554 0.00022634523 -2.8688917e-21)
(-0.00010361862 0.00022695113 -9.2905221e-23)
(-9.8670081e-05 0.00022750205 -3.7435029e-22)
(-9.381718e-05 0.00022800196 -9.1951826e-22)
(-8.9057131e-05 0.00022845442 -3.2139329e-21)
(-8.4387075e-05 0.00022886309 -1.2529082e-21)
(-7.9804124e-05 0.00022923086 -1.1230203e-21)
(-7.5305224e-05 0.0002295613 -9.8019134e-22)
(-7.0887377e-05 0.00022985716 -1.1059847e-21)
(-6.6547639e-05 0.00023012131 -1.8382683e-21)
(-6.2282955e-05 0.00023035638 -2.8084366e-21)
(-5.8090222e-05 0.00023056485 -2.6349651e-21)
(-5.3966321e-05 0.00023074918 -5.4804854e-22)
(-4.9908216e-05 0.00023091139 -1.0663852e-22)
(-4.5912788e-05 0.00023105369 -1.0939198e-21)
(-4.1976868e-05 0.00023117773 -9.2574564e-22)
(-3.8097336e-05 0.00023128549 4.5312576e-22)
(-3.427111e-05 0.00023137839 -7.011416e-22)
(-3.0495101e-05 0.00023145789 -7.8491296e-22)
(-2.6766164e-05 0.00023152518 -2.0560173e-21)
(-2.3081222e-05 0.00023158121 -1.236128e-21)
(-1.943726e-05 0.00023162661 -7.4934476e-22)
(-1.5831195e-05 0.00023166158 4.1892848e-22)
(-1.2260186e-05 0.0002316858 -1.370402e-21)
(-8.7205373e-06 0.00023169808 -2.7039522e-21)
(-5.2073546e-06 0.00023169849 -2.2202306e-21)
(-1.7243207e-06 0.00023169217 -1.9366851e-21)
(-0.00052357422 -4.1481697e-05 -2.4344266e-20)
(-0.00051416973 -2.9255723e-05 2.7302791e-21)
(-0.00050470981 -1.7417871e-05 1.0093824e-21)
(-0.00049520621 -5.9640335e-06 -2.2700248e-20)
(-0.00048567095 5.1108708e-06 -3.3939588e-20)
(-0.00047611441 1.5810737e-05 -7.7571279e-21)
(-0.00046654644 2.6141421e-05 1.5573577e-20)
(-0.00045697731 3.6108422e-05 2.0437902e-20)
(-0.00044741663 4.5717342e-05 9.2716978e-21)
(-0.00043787363 5.4974309e-05 -1.5193713e-20)
(-0.00042835699 6.3885787e-05 5.074712e-21)
(-0.00041887501 7.2458196e-05 2.020518e-20)
(-0.00040943556 8.0698201e-05 1.6637607e-20)
(-0.00040004616 8.8612842e-05 3.9400563e-21)
(-0.00039071377 9.6209115e-05 -1.661115e-20)
(-0.00038144506 0.00010349438 -3.7327393e-21)
(-0.00037224643 0.00011047581 1.132813e-20)
(-0.0003631237 0.00011716081 8.513049e-21)
(-0.00035408226 0.00012355707 8.262855e-21)
(-0.00034512715 0.00012967185 -1.0244978e-20)
(-0.00033626323 0.00013551298 3.5553755e-21)
(-0.00032749493 0.00014108799 1.2065364e-20)
(-0.00031882611 0.00014640477 9.0982764e-21)
(-0.00031026041 0.00015147059 5.2827445e-21)
(-0.00030180124 0.00015629343 -6.5650145e-21)
(-0.00029345164 0.00016088075 3.7361251e-21)
(-0.00028521429 0.00016524034 1.0536225e-20)
(-0.00027709153 0.00016937938 7.6885399e-21)
(-0.00026908547 0.00017330571 6.0147874e-21)
(-0.00026119794 0.00017702668 -1.5954823e-21)
(-0.00025343052 0.0001805495 -1.1514884e-21)
(-0.00024578434 0.00018388146 4.0523985e-21)
(-0.00023826031 0.00018702977 5.9229035e-21)
(-0.00023085928 0.00019000136 3.9370087e-21)
(-0.0002235818 0.00019280335 -5.2476754e-22)
(-0.00021642814 0.00019544247 3.8289851e-21)
(-0.00020939825 0.00019792551 6.8150022e-21)
(-0.000202492 0.00020025907 4.5615463e-21)
(-0.00019570909 0.00020244957 6.1764955e-21)
(-0.00018904895 0.00020450317 2.6633681e-21)
(-0.00018251087 0.00020642636 6.8202875e-22)
(-0.00017609392 0.00020822497 4.8111165e-21)
(-0.00016979698 0.00020990496 5.5027614e-21)
(-0.00016361883 0.00021147207 1.5921315e-21)
(-0.00015755812 0.00021293185 3.6918594e-22)
(-0.00015161335 0.00021428985 2.7583345e-21)
(-0.00014578283 0.00021555128 2.7812236e-21)
(-0.00014006475 0.00021672137 2.220953e-21)
(-0.00013445724 0.00021780494 5.7766757e-21)
(-0.00012895837 0.00021880685 4.6182152e-22)
(-0.00012356597 0.00021973177 -8.3304661e-23)
(-0.00011827779 0.00022058417 4.6012219e-21)
(-0.00011309152 0.00022136844 3.1150651e-21)
(-0.00010800484 0.00022208867 1.5110857e-21)
(-0.00010301527 0.00022274889 9.5806083e-22)
(-9.8120216e-05 0.00022335297 2.1857815e-21)
(-9.3317188e-05 0.00022390465 3.5844963e-21)
(-8.860358e-05 0.00022440738 2.9294543e-21)
(-8.3976564e-05 0.00022486466 2.287483e-21)
(-7.9433379e-05 0.00022527941 9.1788388e-22)
(-7.4971316e-05 0.00022565491 1.0463638e-21)
(-7.0587514e-05 0.00022599411 4.5648658e-21)
(-6.6279051e-05 0.00022629963 1.2713521e-21)
(-6.2043051e-05 0.00022657409 1.1161168e-21)
(-5.7876646e-05 0.00022681988 3.3173133e-22)
(-5.37769e-05 0.00022703942 -1.4440971e-23)
(-4.9740841e-05 0.00022723467 3.5257293e-21)
(-4.576551e-05 0.00022740779 7.4396192e-22)
(-4.1847924e-05 0.00022756043 1.3809895e-21)
(-3.7985093e-05 0.00022769441 6.6297818e-23)
(-3.4174056e-05 0.0002278113 5.2877599e-23)
(-3.0411855e-05 0.00022791243 1.2505491e-21)
(-2.669555e-05 0.00022799891 9.9465985e-22)
(-2.302222e-05 0.00022807186 1.0258031e-21)
(-1.938893e-05 0.00022813173 4.2060613e-22)
(-1.5792828e-05 0.00022817878 4.4762905e-22)
(-1.2231112e-05 0.00022821283 4.7772115e-22)
(-8.7001484e-06 0.00022823262 -1.119947e-21)
(-5.1952924e-06 0.0002282384 -1.1675765e-21)
(-1.7203437e-06 0.00022823534 -1.7188614e-21)
(-0.0005112841 -4.4230479e-05 -3.9073081e-20)
(-0.00050226198 -3.2259592e-05 -2.9760139e-20)
(-0.0004931806 -2.0661139e-05 -4.9952269e-21)
(-0.00048405131 -9.4314654e-06 -1.2745331e-20)
(-0.0004748863 1.4337892e-06 -3.2937208e-20)
(-0.00046569511 1.1939035e-05 -3.0662214e-20)
(-0.0004564869 2.2088879e-05 -3.0354432e-20)
(-0.00044727222 3.1888413e-05 1.3052908e-20)
(-0.00043806029 4.1342985e-05 1.7100893e-21)
(-0.00042886001 5.0458259e-05 -2.7057454e-20)
(-0.0004196799 5.924025e-05 -2.6073521e-20)
(-0.00041052801 6.7694908e-05 -2.0410114e-20)
(-0.00040141203 7.5828504e-05 1.237334e-20)
(-0.00039233932 8.3647558e-05 1.406916e-21)
(-0.0003833167 9.1158756e-05 -2.6471185e-20)
(-0.00037435068 9.8368896e-05 -2.8774532e-20)
(-0.00036544754 0.00010528475 -1.9059441e-20)
(-0.00035661303 0.0001119134 9.2138538e-21)
(-0.00034785239 0.00011826191 2.8825554e-21)
(-0.00033917083 0.00012433727 -2.1701761e-20)
(-0.00033057303 0.0001301469 -1.6601198e-20)
(-0.00032206328 0.0001356979 -1.3520027e-20)
(-0.00031364551 0.00014099756 6.1792531e-21)
(-0.00030532347 0.00014605309 -1.3521989e-21)
(-0.00029710059 0.00015087192 -1.8418906e-20)
(-0.00028897979 0.00015546111 -1.5548742e-20)
(-0.00028096385 0.00015982819 -8.6093469e-21)
(-0.0002730552 0.00016397989 5.2452175e-21)
(-0.00026525594 0.0001679237 -1.9001827e-21)
(-0.00025756799 0.00017166672 -1.2434293e-20)
(-0.00024999294 0.00017521578 -1.3273844e-20)
(-0.00024253206 0.0001785777 -5.5312891e-21)
(-0.0002351865 0.00018175955 8.7759719e-21)
(-0.00022795707 0.00018476795 -3.0294444e-21)
(-0.00022084434 0.00018760967 -1.3823691e-20)
(-0.00021384878 0.00019029124 -8.393392e-21)
(-0.00020697052 0.000192819 9.9586893e-22)
(-0.00020020949 0.00019519949 6.1562711e-21)
(-0.00019356554 0.00019743878 -1.8526912e-21)
(-0.00018703827 0.00019954281 -8.2195468e-21)
(-0.000180627 0.00020151775 -6.9248466e-21)
(-0.00017433094 0.00020336924 -1.1503017e-21)
(-0.00016814922 0.00020510309 5.682333e-21)
(-0.00016208073 0.0002067248 -1.8209545e-21)
(-0.00015612427 0.0002082397 -6.8186935e-21)
(-0.00015027849 0.00020965314 -2.5769678e-21)
(-0.00014454185 0.00021097021 -1.3555306e-21)
(-0.00013891274 0.00021219581 3.6974537e-21)
(-0.00013338939 0.0002133347 1.948957e-21)
(-0.00012796993 0.00021439164 -5.6479523e-21)
(-0.00012265241 0.00021537102 -2.6824217e-21)
(-0.00011743478 0.0002162772 8.6063023e-22)
(-0.00011231493 0.00021711452 3.8005075e-21)
(-0.00010729065 0.00021788686 3.7241415e-22)
(-0.0001023596 0.00021859806 -4.400916e-21)
(-9.751943e-05 0.00021925203 -1.247786e-21)
(-9.2767711e-05 0.00021985238 3.2107538e-22)
(-8.8101907e-05 0.00022040233 2.0593254e-21)
(-8.351946e-05 0.00022090537 2.2681014e-22)
(-7.9017836e-05 0.00022136433 -2.852044e-21)
(-7.4594427e-05 0.00022178241 -2.4716922e-21)
(-7.0246434e-05 0.00022216239 2.4794148e-21)
(-6.5971156e-05 0.00022250692 2.409169e-21)
(-6.1765923e-05 0.00022281855 -8.6207214e-22)
(-5.7627911e-05 0.00022309961 -2.4973769e-21)
(-5.3554332e-05 0.00022335238 -1.2955408e-21)
(-4.9542414e-05 0.00022357889 1.5401543e-21)
(-4.5589318e-05 0.00022378112 1.1235769e-21)
(-4.169223e-05 0.00022396082 -7.0040259e-22)
(-3.7848342e-05 0.00022411964 -1.5020264e-21)
(-3.4054772e-05 0.00022425915 -1.1365997e-21)
(-3.0308723e-05 0.00022438076 -1.9324552e-22)
(-2.6607445e-05 0.00022448548 1.6074684e-21)
(-2.2948063e-05 0.0002245744 -1.0634484e-21)
(-1.9327762e-05 0.000224648 -1.3111909e-21)
(-1.5743919e-05 0.00022470659 -5.88501e-22)
(-1.2193826e-05 0.00022474984 -1.2497753e-21)
(-8.6739351e-06 0.00022477673 -1.356119e-21)
(-5.1797441e-06 0.00022478762 -2.2801347e-21)
(-1.7151992e-06 0.00022478767 -2.7455727e-21)
(-0.00049925526 -4.6754376e-05 -3.5144598e-20)
(-0.00049059992 -3.5035293e-05 -1.8113012e-20)
(-0.00048188218 -2.3673691e-05 1.4662779e-20)
(-0.00047311282 -1.2666346e-05 -3.2534389e-20)
(-0.00046430291 -2.0094948e-06 -5.7928967e-20)
(-0.00045546266 8.3021944e-06 -2.7959227e-20)
(-0.00044660121 1.8271555e-05 -4.4729629e-21)
(-0.00043772803 2.7903536e-05 2.5691647e-20)
(-0.00042885222 3.7203179e-05 -2.9444752e-20)
(-0.00041998251 4.6175829e-05 -4.6227365e-20)
(-0.0004111271 5.4826957e-05 -2.2823829e-20)
(-0.00040229388 6.3162101e-05 -1.4361662e-20)
(-0.00039349044 7.1187271e-05 7.573387e-21)
(-0.00038472391 7.8908375e-05 -1.4156199e-20)
(-0.00037600095 8.6331782e-05 -3.2473895e-20)
(-0.00036732798 9.3463785e-05 -2.6649466e-20)
(-0.00035871113 0.00010031088 -1.6164712e-20)
(-0.00035015599 0.00010687964 9.0327109e-21)
(-0.00034166787 0.00011317676 -8.6951885e-21)
(-0.00033325181 0.00011920891 -2.4735919e-20)
(-0.0003249125 0.00012498292 -1.640453e-20)
(-0.00031665416 0.00013050568 -1.0623133e-20)
(-0.00030848076 0.00013578395 5.0311809e-21)
(-0.000300396 0.00014082474 -9.3304039e-21)
(-0.00029240326 0.00014563496 -2.420631e-20)
(-0.00028450564 0.00015022147 -1.8359466e-20)
(-0.0002767058 0.00015459125 -1.013853e-20)
(-0.00026900617 0.00015875081 5.257185e-21)
(-0.00026140902 0.00016270723 -5.1758749e-21)
(-0.00025391627 0.00016646736 -1.6446639e-20)
(-0.00024652955 0.00017003768 -1.3150994e-20)
(-0.00023925034 0.00017342473 -3.5553559e-21)
(-0.00023207976 0.00017663521 2.3336577e-21)
(-0.00022501875 0.00017967548 -8.2774396e-21)
(-0.00021806807 0.00018255205 -1.7175114e-20)
(-0.00021122813 0.00018527109 -1.216798e-20)
(-0.00020449918 0.00018783888 -2.7464598e-21)
(-0.00019788138 0.00019026143 1.8094431e-21)
(-0.00019137464 0.00019254476 -6.4244205e-21)
(-0.00018497865 0.00019469455 -1.3395871e-20)
(-0.00017869285 0.00019671655 -1.1129641e-20)
(-0.0001725167 0.00019861645 -8.4302899e-22)
(-0.00016644945 0.00020039967 4.7378499e-21)
(-0.00016049004 0.00020207156 -3.677306e-21)
(-0.00015463742 0.0002036373 -8.9146335e-21)
(-0.00014889037 0.00020510198 -4.5812503e-21)
(-0.00014324746 0.00020647045 -1.3694908e-21)
(-0.00013770722 0.00020774756 -1.5174813e-23)
(-0.00013226812 0.00020893792 -1.5978984e-21)
(-0.00012692847 0.000210046 -8.0606684e-21)
(-0.00012168645 0.0002110761 -4.4994998e-21)
(-0.00011654013 0.00021203252 -1.4523727e-22)
(-0.00011148752 0.00021291941 1.3886581e-21)
(-0.00010652656 0.00021374044 4.2081262e-22)
(-0.00010165512 0.00021449952 -5.4229924e-21)
(-9.6870974e-05 0.00021520018 -4.1787769e-21)
(-9.2171733e-05 0.00021584608 -3.5513715e-22)
(-8.7555122e-05 0.00021644043 4.7016041e-22)
(-8.3018785e-05 0.00021698643 6.9787047e-22)
(-7.8560233e-05 0.00021748698 -3.3273654e-21)
(-7.4176973e-05 0.00021794515 -5.9542363e-21)
(-6.9866493e-05 0.00021836354 -4.9823538e-22)
(-6.5626213e-05 0.00021874481 7.8671627e-22)
(-6.1453489e-05 0.00021909146 1.5172021e-22)
(-5.7345783e-05 0.00021940579 -2.0827814e-21)
(-5.3300392e-05 0.00021968985 -2.8922776e-21)
(-4.9314592e-05 0.00021994587 -6.151603e-22)
(-4.5385813e-05 0.00022017562 1.5565888e-22)
(-4.1511359e-05 0.00022038081 -8.3550361e-22)
(-3.7688515e-05 0.00022056319 -9.461072e-22)
(-3.3914635e-05 0.00022072409 -1.6997004e-21)
(-3.0186967e-05 0.00022086499 -2.7222045e-22)
(-2.650277e-05 0.00022098697 1.5495681e-21)
(-2.2859468e-05 0.000221091 -2.8882349e-22)
(-1.9254445e-05 0.0002211776 -2.6143806e-21)
(-1.5685045e-05 0.00022124709 -2.820177e-21)
(-1.2148719e-05 0.00022129905 -9.9227061e-22)
(-8.6421653e-06 0.0002213327 -1.3198733e-21)
(-5.160926e-06 0.00022134844 -1.2785865e-21)
(-1.7089913e-06 0.00022135139 -2.3547589e-21)
(-0.00048748386 -4.9065409e-05 -3.1770481e-20)
(-0.0004791806 -3.7594963e-05 2.0639244e-21)
(-0.00047081195 -2.6467456e-05 -8.6259847e-21)
(-0.00046238835 -1.5679916e-05 -3.6965554e-21)
(-0.00045391996 -5.2291138e-06 -1.321509e-20)
(-0.00044541716 4.8892849e-06 -3.2776049e-20)
(-0.00043688935 1.4678465e-05 4.9624152e-21)
(-0.00042834497 2.4142934e-05 1.3662798e-20)
(-0.00041979301 3.328741e-05 4.4291492e-21)
(-0.00041124201 4.2116717e-05 -3.9868256e-21)
(-0.00040269995 5.0635882e-05 -1.8699664e-20)
(-0.00039417447 5.885011e-05 8.2080954e-21)
(-0.00038567296 6.6765024e-05 -2.0899164e-21)
(-0.00037720235 7.4386085e-05 3.0102318e-22)
(-0.00036876926 8.1719298e-05 -1.4452893e-21)
(-0.00036037995 8.8770567e-05 -9.6570969e-21)
(-0.00035204033 9.5545947e-05 6.8458105e-21)
(-0.00034375601 0.00010205166 -8.4160689e-22)
(-0.00033553226 0.00010829408 4.5043313e-22)
(-0.00032737393 0.00011427938 1.3159231e-21)
(-0.00031928567 0.00012001409 -6.5982081e-21)
(-0.00031127172 0.0001255047 6.3874461e-21)
(-0.00030333599 0.00013075762 -2.1218627e-21)
(-0.00029548216 0.00013577944 1.3708264e-21)
(-0.00028771366 0.00014057685 1.0032956e-21)
(-0.00028003347 0.00014515622 -8.5654792e-21)
(-0.00027244436 0.00014952429 4.0897724e-21)
(-0.00026494884 0.00015368717 1.8198174e-22)
(-0.00025754925 0.00015765172 -1.3108466e-22)
(-0.00025024747 0.00016142428 6.3566175e-21)
(-0.00024304521 0.00016501123 -3.6707301e-21)
(-0.00023594397 0.00016841871 5.7023677e-21)
(-0.00022894497 0.00017165318 6.9025266e-21)
(-0.00022204925 0.00017472072 4.4488069e-21)
(-0.00021525768 0.00017762748 6.2610195e-21)
(-0.00020857086 0.00018037938 -9.4125312e-23)
(-0.00020198903 0.00018298256 3.610693e-21)
(-0.00019551238 0.00018544267 3.3087194e-21)
(-0.00018914101 0.00018776546 5.0798975e-21)
(-0.00018287469 0.00018995647 6.6848046e-21)
(-0.00017671307 0.00019202122 -2.7643333e-21)
(-0.00017065566 0.00019396519 2.9395303e-21)
(-0.00016470183 0.00019579351 5.7598768e-21)
(-0.00015885073 0.0001975114 4.3163317e-21)
(-0.00015310135 0.00019912381 4.0370431e-21)
(-0.00014745258 0.00020063556 1.1243807e-21)
(-0.00014190325 0.00020205156 5.9059012e-21)
(-0.00013645201 0.00020337632 3.2024425e-21)
(-0.0001310973 0.00020461432 4.1571865e-21)
(-0.00012583773 0.00020576995 3.5625417e-21)
(-0.00012067167 0.00020684729 -8.2659615e-22)
(-0.00011559725 0.00020785047 3.4539399e-21)
(-0.00011061257 0.00020878353 1.0650072e-21)
(-0.00010571571 0.00020965005 2.0637063e-21)
(-0.00010090475 0.00021045383 4.0013298e-21)
(-9.6177578e-05 0.00021119823 -2.5940289e-22)
(-9.1532058e-05 0.00021188676 2.2281557e-21)
(-8.6965955e-05 0.00021252271 2.9813415e-21)
(-8.2476991e-05 0.00021310901 4.5445688e-21)
(-7.8062929e-05 0.0002136486 3.3454831e-21)
(-7.3721422e-05 0.00021414439 -9.58911e-22)
(-6.945004e-05 0.00021459898 1.873566e-21)
(-6.5246373e-05 0.00021501479 9.3159106e-22)
(-6.1107946e-05 0.00021539437 2.1582944e-21)
(-5.7032245e-05 0.00021574 3.5003758e-21)
(-5.3016821e-05 0.00021605361 3.1050744e-22)
(-4.9059112e-05 0.00021633738 3.3173596e-21)
(-4.5156548e-05 0.00021659307 9.1981832e-22)
(-4.1306676e-05 0.0002168224 1.7553241e-21)
(-3.7506877e-05 0.00021702689 3.1215074e-21)
(-3.3754592e-05 0.00021720807 9.8066775e-23)
(-3.0047273e-05 0.00021736717 2.8102826e-21)
(-2.6382304e-05 0.00021750541 3.1116733e-21)
(-2.2757205e-05 0.00021762372 2.2025684e-21)
(-1.9169499e-05 0.00021772263 1.9466482e-21)
(-1.5616666e-05 0.00021780231 -8.5917087e-23)
(-1.2096258e-05 0.00021786257 1.126193e-21)
(-8.6051352e-06 0.00021790265 3.0785379e-22)
(-5.1389306e-06 0.00021792297 -7.786064e-22)
(-1.7017101e-06 0.00021792869 -1.3576437e-21)
(-0.00047596697 -5.1175124e-05 -3.6864038e-20)
(-0.00046800117 -3.9949926e-05 -7.6740665e-21)
(-0.00045996735 -2.9053746e-05 -2.7655801e-20)
(-0.00045187563 -1.8483959e-05 -1.4387739e-20)
(-0.00044373575 -8.2373703e-06 6.6433699e-21)
(-0.00043555796 1.6891951e-06 -7.3178936e-21)
(-0.00042735108 1.1298879e-05 -1.4600674e-20)
(-0.00041912319 2.0596242e-05 -1.280935e-20)
(-0.00041088324 2.9585506e-05 -5.099972e-21)
(-0.00040263948 3.8271017e-05 3.3508471e-21)
(-0.00039439964 4.6657392e-05 6.9148325e-21)
(-0.00038617119 5.4749533e-05 -1.213623e-21)
(-0.00037796129 6.2552633e-05 -1.2155102e-20)
(-0.00036977672 7.0071839e-05 -6.7954486e-21)
(-0.00036162398 7.7312798e-05 -3.2188687e-21)
(-0.00035350922 8.4280953e-05 4.2928656e-21)
(-0.00034543821 9.0981967e-05 -2.0405906e-21)
(-0.00033741641 9.7421823e-05 -1.0613111e-20)
(-0.00032944895 0.00010360643 -3.1420825e-21)
(-0.00032154068 0.00010954161 -1.9895072e-21)
(-0.00031369614 0.00011523356 5.4969716e-21)
(-0.00030591968 0.00012068849 -1.5852922e-21)
(-0.0002982151 0.00012591227 -1.2172812e-20)
(-0.00029058599 0.00013091129 -6.5212515e-21)
(-0.00028303584 0.00013569186 1.2081884e-21)
(-0.00027556764 0.00014026002 6.716654e-21)
(-0.00026818411 0.0001446222 -1.688957e-21)
(-0.00026088789 0.00014878424 -6.8496314e-21)
(-0.00025368129 0.00015275259 -7.4945027e-21)
(-0.0002465662 0.00015653328 -6.1330763e-21)
(-0.00023954439 0.00016013249 -1.6314042e-21)
(-0.00023261747 0.000163556 9.2432792e-22)
(-0.00022578674 0.00016681002 -4.4777645e-21)
(-0.00021905329 0.00016990039 -4.593597e-21)
(-0.00021241799 0.00017283296 -3.0097794e-21)
(-0.00020588154 0.00017561341 3.294738e-21)
(-0.0001994444 0.00017824754 1.2798181e-21)
(-0.00019310684 0.00018074086 -6.5841826e-21)
(-0.00018686895 0.00018309881 -3.0648019e-21)
(-0.00018073069 0.00018532679 4.7498527e-22)
(-0.00017469185 0.00018743013 1.9150171e-21)
(-0.000168752 0.00018941397 -2.0344964e-21)
(-0.00016291061 0.00019128331 -5.0634556e-21)
(-0.00015716693 0.00019304315 -4.9719665e-21)
(-0.0001515201 0.00019469829 -3.6349572e-21)
(-0.00014596924 0.00019625332 1.2638742e-21)
(-0.00014051323 0.00019771305 -9.8495408e-22)
(-0.00013515083 0.00019908181 -2.8499456e-21)
(-0.00012988074 0.00020036377 -2.37364e-21)
(-0.0001247015 0.00020156345 -3.6954e-21)
(-0.0001196116 0.00020268459 1.8899146e-21)
(-0.00011460944 0.00020373126 1.3702864e-21)
(-0.00010969325 0.00020470727 -4.0528821e-21)
(-0.00010486125 0.00020561616 -3.511336e-21)
(-0.00010011161 0.00020646158 -1.7991053e-21)
(-9.5442398e-05 0.00020724687 2.2779648e-21)
(-9.0851637e-05 0.00020797537 -4.8330628e-22)
(-8.6337164e-05 0.0002086501 -3.247602e-21)
(-8.1896843e-05 0.00020927418 -1.7300169e-21)
(-7.7528574e-05 0.00020985035 -1.216037e-21)
(-7.3230168e-05 0.00021038143 2.4817455e-22)
(-6.8999316e-05 0.00021086992 4.5512068e-22)
(-6.4833741e-05 0.00021131819 -2.2042102e-21)
(-6.0731175e-05 0.00021172882 -2.5121187e-21)
(-5.6689222e-05 0.00021210382 -2.0908672e-21)
(-5.2705466e-05 0.00021244523 4.5374365e-22)
(-4.8777528e-05 0.00021275513 3.5432515e-23)
(-4.4903026e-05 0.00021303522 -2.447317e-21)
(-4.107952e-05 0.00021328726 -2.0682661e-21)
(-3.7304575e-05 0.00021351259 -1.0896909e-21)
(-3.357578e-05 0.00021371287 6.3727183e-22)
(-2.9890754e-05 0.00021388918 -8.5228368e-22)
(-2.6247023e-05 0.00021404278 -2.1132354e-21)
(-2.2642093e-05 0.00021417449 -1.7426643e-21)
(-1.9073642e-05 0.00021428496 -6.5748965e-22)
(-1.5539338e-05 0.00021437436 8.0440709e-22)
(-1.2036864e-05 0.00021444243 -1.3006284e-21)
(-8.5631295e-06 0.00021448858 -2.0933573e-21)
(-5.1139203e-06 0.00021451324 -1.7600393e-21)
(-1.6934404e-06 0.00021452162 -1.7422767e-21)
(-0.00046470032 -5.3094758e-05 8.1570198e-21)
(-0.00045705835 -4.2111193e-05 -2.1912802e-20)
(-0.00044934605 -3.144344e-05 -2.287434e-20)
(-0.00044157304 -2.1089135e-05 -1.2127358e-20)
(-0.00043374862 -1.104537e-05 2.5703959e-20)
(-0.00042588345 -1.3098674e-06 2.2085189e-21)
(-0.00041798551 8.1223284e-06 -1.6676872e-20)
(-0.00041006219 1.7253476e-05 -8.5871782e-21)
(-0.00040212286 2.6087718e-05 3.7069206e-22)
(-0.00039417528 3.4629175e-05 2.0363011e-20)
(-0.00038622694 4.2882163e-05 1.0055766e-20)
(-0.00037828518 5.0851321e-05 -9.993414e-21)
(-0.00037035701 5.8541371e-05 -1.1400709e-20)
(-0.00036244897 6.5957171e-05 3.1286926e-21)
(-0.00035456732 7.3103986e-05 1.6498827e-20)
(-0.00034671816 7.9986922e-05 2.5841376e-21)
(-0.00033890715 8.6611261e-05 -8.8494919e-21)
(-0.00033113965 9.29827e-05 -1.4078716e-20)
(-0.00032342076 9.910662e-05 4.4625023e-21)
(-0.00031575518 0.00010498874 1.4154861e-20)
(-0.00030814745 0.00011063477 7.1876045e-21)
(-0.00030060172 0.00011605066 -2.8749939e-21)
(-0.00029312179 0.00012124182 -1.0317291e-20)
(-0.00028571134 0.00012621448 2.4251959e-21)
(-0.0002783738 0.00013097449 1.2469807e-20)
(-0.00027111214 0.00013552774 8.7463395e-21)
(-0.00026392913 0.00013988005 5.2795066e-22)
(-0.00025682739 0.0001440373 -7.8743724e-21)
(-0.00024980925 0.00014800542 1.7997963e-21)
(-0.00024287661 0.00015179016 9.7490296e-21)
(-0.00023603126 0.00015539745 4.7296038e-21)
(-0.00022927502 0.00015883295 -3.0820511e-21)
(-0.00022260919 0.00016210235 -8.8598119e-21)
(-0.00021603485 0.00016521133 1.9091437e-22)
(-0.00020955305 0.00016816554 8.9634147e-21)
(-0.00020316445 0.00017097034 6.9085543e-21)
(-0.00019686968 0.00017363129 1.6409336e-21)
(-0.00019066906 0.00017615364 -9.1789629e-21)
(-0.00018456277 0.00017854272 9.7144087e-23)
(-0.0001785509 0.00018080368 9.4506614e-21)
(-0.00017263333 0.00018294155 5.6975023e-21)
(-0.00016680973 0.00018496134 -9.2960703e-22)
(-0.00016107968 0.00018686776 -7.108748e-21)
(-0.00015544259 0.00018866572 -9.5434109e-22)
(-0.00014989772 0.00019035985 5.8632117e-21)
(-0.00014444421 0.0001919545 3.3765128e-21)
(-0.00013908114 0.0001934543 -1.6057748e-21)
(-0.00013380736 0.0001948635 -6.1164232e-21)
(-0.0001286217 0.0001961861 2.1850428e-21)
(-0.00012352286 0.00019742635 3.3583101e-21)
(-0.00011850937 0.00019858801 2.8561061e-21)
(-0.00011357987 0.00019967501 2.3983567e-21)
(-0.00010873271 0.00020069086 -3.7988046e-21)
(-0.00010396616 0.00020163916 9.5652576e-22)
(-9.927859e-05 0.00020252334 3.7528874e-21)
(-9.4668188e-05 0.00020334674 2.9771708e-21)
(-9.0133042e-05 0.00020411251 2.7374089e-21)
(-8.5671218e-05 0.0002048235 -3.8923654e-21)
(-8.1280703e-05 0.00020548284 -2.0181218e-22)
(-7.6959475e-05 0.00020609322 2.0844975e-21)
(-7.2705439e-05 0.00020665734 1.5397971e-21)
(-6.8516469e-05 0.00020717758 2.9457622e-21)
(-6.4390503e-05 0.00020765636 -2.7534424e-21)
(-6.0325244e-05 0.00020809606 5.7438508e-22)
(-5.6318411e-05 0.00020849864 2.1172341e-21)
(-5.2367865e-05 0.00020886618 2.9850176e-23)
(-4.8471354e-05 0.00020920066 1.3541499e-21)
(-4.4626541e-05 0.00020950373 -3.1133491e-21)
(-4.0831161e-05 0.00020977705 3.8619248e-22)
(-3.7082927e-05 0.00021002203 1.8644502e-21)
(-3.3379434e-05 0.00021024019 2.1752637e-22)
(-2.9718405e-05 0.00021043276 3.5006843e-22)
(-2.6097635e-05 0.00021060079 -2.609113e-21)
(-2.2514741e-05 0.00021074514 -1.0277463e-21)
(-1.8967471e-05 0.00021086655 1.2351906e-21)
(-1.5453642e-05 0.0002109651 2.7697632e-22)
(-1.1971026e-05 0.00021104057 -5.9913162e-22)
(-8.5166071e-06 0.00021109239 -3.1499301e-21)
(-5.0862505e-06 0.00021112115 -1.3656503e-21)
(-1.6842849e-06 0.00021113202 -8.2620527e-22)
(-0.00045368024 -5.483497e-05 -2.9098643e-20)
(-0.00044634881 -4.4089629e-05 -4.2053088e-20)