/*--------------------------------*- C++ -*----------------------------------*\
| =========                 |                                                 |
| \\      /  F ield         | OpenFOAM: The Open Source CFD Toolbox           |
|  \\    /   O peration     | Version:  2106                                  |
|   \\  /    A nd           | Website:  www.openfoam.com                      |
|    \\/     M anipulation  |                                                 |
\*---------------------------------------------------------------------------*/
FoamFile
{
    version     2.0;
    format      ascii;
    arch        "LSB;label=32;scalar=64";
    class       volScalarField;
    location    "0.01";
    object      p;
}
// * * * * * * * * * * * * * * * * * * * * * * * * * * * * * * * * * * * * * //

dimensions      [1 -1 -2 0 0 0 0];

internalField   nonuniform List<scalar> 
256
(
-12.497923
-10.607592
-7.0919118
-2.5075344
2.5015574
7.1479034
10.755262
12.704278
12.704278
10.755262
7.1479035
2.5015574
-2.5075343
-7.0919117
-10.607592
-12.497923
-14.534147
-12.340983
-8.2553349
-2.9406441
2.8774688
8.2737854
12.477879
14.747814
14.747814
12.477879
8.2737854
2.8774689
-2.940644
-8.2553348
-12.340983
-14.534147
-18.402532
-15.630785
-10.454689
-3.7537813
3.5930443
10.419421
15.76438
18.643534
18.643534
15.76438
10.419421
3.5930444
-3.7537811
-10.454689
-15.630785
-18.402532
-25.228863
-21.45726
-14.372775
-5.2508613
4.779671
14.133285
21.51749
25.479867
25.479867
21.51749
14.133285
4.7796712
-5.2508611
-14.372775
-21.45726
-25.228863
-35.315511
-30.059671
-20.10675
-7.4503058
6.4637827
19.574403
29.982846
35.543711
35.543711
29.982846
19.574404
6.463783
-7.4503054
-20.10675
-30.05967
-35.31551
-51.297831
-43.810073
-29.464518
-11.228676
8.7290044
27.793818
43.044982
51.146208
51.146208
43.044982
27.793818
8.7290048
-11.228676
-29.464518
-43.810073
-51.297831
-74.854899
-63.73907
-42.826431
-16.860865
11.450815
39.297147
61.671117
73.496081
73.496081
61.671118
39.297147
11.450815
-16.860864
-42.82643
-63.739069
-74.854899
-95.800305
-83.650554
-58.643941
-24.271232
15.601715
55.173363
85.87068
101.95503
101.95503
85.87068
55.173364
15.601716
-24.271231
-58.64394
-83.650553
-95.800305
100.63628
85.15785
54.844693
16.699628
-22.865365
-58.24561
-83.308726
-95.695135
-95.695135
-83.308727
-58.245611
-22.865366
16.699628
54.844693
85.15785
100.63628
71.965656
60.355233
38.559554
12.135763
-15.813187
-42.421818
-63.433345
-74.449011
-74.44901
-63.433345
-42.421817
-15.813186
12.135767
38.559558
60.355236
71.965657
49.70839
41.840901
27.10828
8.9007228
-10.642762
-28.946872
-43.212564
-50.590587
-50.590587
-43.212566
-28.946876
-10.64277
8.9007271
27.108284
41.840903
49.708391
33.726337
28.446593
18.632046
6.3180947
-6.9942824
-19.285783
-28.941067
-33.993283
-33.993282
-28.941065
-19.28578
-6.9942867
6.3181224
18.632059
28.446599
33.726339
22.475481
18.978424
12.491713
4.2708619
-4.6164443
-12.800443
-19.183958
-22.555273
-22.555284
-19.183991
-12.800482
-4.6165075
4.2707964
12.491659
18.978396
22.475471
22.089116
18.674456
12.366448
4.2748792
-4.4917775
-12.54899
-18.789483
-22.122962
-22.122939
-18.789429
-12.54888
-4.4916228
4.2749619
12.366496
18.674494
22.089126
-0.8106297
-0.70002958
-0.50132636
-0.21383342
0.092508486
0.40402383
0.64097137
0.78190045
0.78188255
0.64092031
0.40393999
0.092374588
-0.21389544
-0.50138226
-0.700066
-0.8106429
30.498293
25.808678
17.160129
5.9644992
-6.116493
-17.253061
-25.808156
-30.418737
-30.418714
-25.808146
-17.253031
-6.1160859
5.9644162
17.160151
25.808714
30.498295
)
;

boundaryField
{
    leftWall
    {
        type            cyclic;
    }
    rightWall
    {
        type            cyclic;
    }
    lowerWall
    {
        type            calculated;
        value           nonuniform List<scalar> 
16
(
-12.497923
-10.607592
-7.0919118
-2.5075344
2.5015574
7.1479034
10.755262
12.704278
12.704278
10.755262
7.1479035
2.5015574
-2.5075343
-7.0919117
-10.607592
-12.497923
)
;
    }
    atmosphere
    {
        type            calculated;
        value           nonuniform List<scalar> 
16
(
0
0
0
0
-0.079324956
-0.056862741
-0.025323509
-0.0031292928
-0.0031291862
-0.02532312
-0.05686211
-0.079325153
0
0
0
0
)
;
    }
    defaultFaces
    {
        type            empty;
    }
}


// ************************************************************************* //
