/*--------------------------------*- C++ -*----------------------------------*\
| =========                 |                                                 |
| \\      /  F ield         | OpenFOAM: The Open Source CFD Toolbox           |
|  \\    /   O peration     | Version:  2106                                  |
|   \\  /    A nd           | Website:  www.openfoam.com                      |
|    \\/     M anipulation  |                                                 |
\*---------------------------------------------------------------------------*/
FoamFile
{
    version     2.0;
    format      ascii;
    arch        "LSB;label=32;scalar=64";
    class       volScalarField;
    location    "3.6";
    object      p;
}
// * * * * * * * * * * * * * * * * * * * * * * * * * * * * * * * * * * * * * //

dimensions      [1 -1 -2 0 0 0 0];

internalField   nonuniform List<scalar> 
90000
(
0
3.1642e-06
8.59095e-06
1.63885e-05
2.65757e-05
3.91516e-05
5.41072e-05
7.14254e-05
9.10836e-05
0.000113053
0.000137303
0.00016379
0.000192475
0.000223309
0.000256241
0.000291219
0.000328181
0.000367066
0.00040781
0.000450342
0.000494591
0.000540482
0.000587934
0.000636869
0.000687203
0.000738847
0.000791714
0.000845714
0.000900752
0.000956733
0.00101356
0.00107114
0.00112936
0.00118814
0.00124735
0.00130691
0.00136671
0.00142664
0.00148661
0.00154649
0.00160619
0.0016656
0.00172463
0.00178315
0.00184108
0.0018983
0.00195472
0.00201024
0.00206476
0.00211817
0.0021704
0.00222133
0.00227089
0.00231898
0.00236552
0.00241042
0.0024536
0.00249499
0.00253451
0.00257209
0.00260766
0.00264116
0.00267253
0.0027017
0.00272864
0.00275328
0.00277559
0.00279552
0.00281304
0.00282812
0.00284073
0.00285084
0.00285844
0.00286352
0.00286606
0.00286608
0.00286356
0.00285852
0.00285094
0.00284086
0.00282828
0.00281323
0.00279573
0.00277583
0.00275355
0.00272894
0.00270203
0.00267288
0.00264155
0.00260808
0.00257254
0.00253499
0.0024955
0.00245414
0.00241099
0.00236612
0.00231962
0.00227156
0.00222203
0.00217113
0.00211894
0.00206556
0.00201107
0.00195559
0.0018992
0.00184201
0.00178412
0.00172563
0.00166664
0.00160727
0.0015476
0.00148776
0.00142784
0.00136795
0.00130819
0.00124867
0.0011895
0.00113077
0.00107259
0.00101506
0.000958277
0.000902345
0.000847358
0.000793412
0.000740599
0.000689012
0.000638738
0.000589865
0.000542476
0.000496652
0.000452473
0.000410013
0.000369344
0.000330537
0.000293658
0.000258769
0.000225931
0.000195199
0.000166626
0.00014026
0.000116145
9.4323e-05
7.48308e-05
5.77012e-05
4.29631e-05
3.06411e-05
2.0756e-05
1.33237e-05
8.35584e-06
5.86281e-06
-0.00666848
-0.0066657
-0.00666039
-0.00665264
-0.00664247
-0.00662989
-0.00661493
-0.00659759
-0.0065779
-0.00655589
-0.00653161
-0.00650508
-0.00647634
-0.00644546
-0.00641247
-0.00637743
-0.00634041
-0.00630146
-0.00626064
-0.00621804
-0.00617371
-0.00612775
-0.00608021
-0.00603119
-0.00598077
-0.00592904
-0.00587608
-0.00582199
-0.00576685
-0.00571078
-0.00565385
-0.00559617
-0.00553785
-0.00547897
-0.00541965
-0.00535999
-0.00530009
-0.00524005
-0.00517998
-0.00512
-0.00506019
-0.00500068
-0.00494155
-0.00488292
-0.0048249
-0.00476757
-0.00471105
-0.00465544
-0.00460083
-0.00454732
-0.00449501
-0.00444398
-0.00439434
-0.00434617
-0.00429955
-0.00425457
-0.00421131
-0.00416985
-0.00413026
-0.00409262
-0.00405698
-0.00402343
-0.00399201
-0.00396278
-0.0039358
-0.00391111
-0.00388876
-0.0038688
-0.00385125
-0.00383614
-0.00382351
-0.00381338
-0.00380577
-0.00380068
-0.00379813
-0.00379812
-0.00380064
-0.00380569
-0.00381328
-0.00382339
-0.00383599
-0.00385106
-0.00386859
-0.00388852
-0.00391084
-0.0039355
-0.00396245
-0.00399165
-0.00402304
-0.00405657
-0.00409217
-0.00412978
-0.00416934
-0.00421077
-0.00425399
-0.00429894
-0.00434553
-0.00439367
-0.00444328
-0.00449427
-0.00454655
-0.00460003
-0.00465461
-0.00471019
-0.00476667
-0.00482396
-0.00488196
-0.00494055
-0.00499964
-0.00505912
-0.00511888
-0.00517883
-0.00523886
-0.00529885
-0.00535871
-0.00541833
-0.00547761
-0.00553644
-0.00559472
-0.00565235
-0.00570923
-0.00576526
-0.00582034
-0.00587438
-0.00592729
-0.00597896
-0.00602932
-0.00607828
-0.00612575
-0.00617166
-0.00621591
-0.00625844
-0.00629918
-0.00633806
-0.006375
-0.00640995
-0.00644284
-0.00647363
-0.00650225
-0.00652866
-0.00655282
-0.00657468
-0.0065942
-0.00661136
-0.00662613
-0.00663847
-0.00664837
-0.00665581
-0.00666079
-0.00666328
-0.0133397
-0.013337
-0.0133318
-0.0133241
-0.013314
-0.0133014
-0.0132864
-0.013269
-0.0132492
-0.0132272
-0.0132028
-0.0131762
-0.0131473
-0.0131164
-0.0130833
-0.0130481
-0.0130109
-0.0129719
-0.0129309
-0.0128882
-0.0128437
-0.0127976
-0.0127499
-0.0127007
-0.0126501
-0.0125982
-0.012545
-0.0124907
-0.0124354
-0.0123791
-0.012322
-0.0122641
-0.0122056
-0.0121465
-0.012087
-0.0120271
-0.011967
-0.0119068
-0.0118465
-0.0117863
-0.0117263
-0.0116666
-0.0116072
-0.0115484
-0.0114902
-0.0114326
-0.0113759
-0.0113201
-0.0112653
-0.0112116
-0.0111591
-0.0111079
-0.0110581
-0.0110098
-0.010963
-0.0109179
-0.0108744
-0.0108328
-0.0107931
-0.0107553
-0.0107196
-0.0106859
-0.0106544
-0.010625
-0.010598
-0.0105732
-0.0105508
-0.0105307
-0.0105131
-0.010498
-0.0104853
-0.0104751
-0.0104675
-0.0104624
-0.0104598
-0.0104598
-0.0104623
-0.0104674
-0.010475
-0.0104852
-0.0104978
-0.0105129
-0.0105305
-0.0105505
-0.0105729
-0.0105977
-0.0106247
-0.010654
-0.0106855
-0.0107192
-0.0107549
-0.0107926
-0.0108323
-0.0108739
-0.0109173
-0.0109624
-0.0110091
-0.0110574
-0.0111072
-0.0111584
-0.0112109
-0.0112645
-0.0113193
-0.0113751
-0.0114318
-0.0114892
-0.0115474
-0.0116062
-0.0116655
-0.0117252
-0.0117852
-0.0118453
-0.0119056
-0.0119658
-0.0120259
-0.0120857
-0.0121452
-0.0122042
-0.0122627
-0.0123205
-0.0123776
-0.0124338
-0.0124891
-0.0125433
-0.0125964
-0.0126483
-0.0126988
-0.0127479
-0.0127956
-0.0128416
-0.012886
-0.0129287
-0.0129696
-0.0130086
-0.0130457
-0.0130807
-0.0131138
-0.0131446
-0.0131734
-0.0131999
-0.0132241
-0.013246
-0.0132656
-0.0132829
-0.0132977
-0.0133101
-0.01332
-0.0133275
-0.0133324
-0.0133349
-0.0200135
-0.0200109
-0.0200057
-0.0199981
-0.0199879
-0.0199753
-0.0199602
-0.0199428
-0.0199229
-0.0199007
-0.0198763
-0.0198495
-0.0198205
-0.0197894
-0.0197561
-0.0197208
-0.0196834
-0.0196442
-0.019603
-0.01956
-0.0195153
-0.0194689
-0.019421
-0.0193716
-0.0193207
-0.0192685
-0.0192151
-0.0191605
-0.0191049
-0.0190484
-0.0189909
-0.0189328
-0.0188739
-0.0188145
-0.0187547
-0.0186945
-0.0186341
-0.0185735
-0.0185129
-0.0184524
-0.0183921
-0.0183321
-0.0182724
-0.0182133
-0.0181547
-0.0180969
-0.0180399
-0.0179838
-0.0179287
-0.0178747
-0.017822
-0.0177705
-0.0177204
-0.0176718
-0.0176248
-0.0175794
-0.0175358
-0.017494
-0.017454
-0.0174161
-0.0173801
-0.0173463
-0.0173146
-0.0172851
-0.0172579
-0.017233
-0.0172104
-0.0171903
-0.0171726
-0.0171574
-0.0171446
-0.0171344
-0.0171267
-0.0171216
-0.017119
-0.017119
-0.0171215
-0.0171266
-0.0171343
-0.0171445
-0.0171572
-0.0171724
-0.0171901
-0.0172102
-0.0172327
-0.0172576
-0.0172848
-0.0173142
-0.0173459
-0.0173797
-0.0174156
-0.0174536
-0.0174935
-0.0175353
-0.0175789
-0.0176242
-0.0176712
-0.0177198
-0.0177698
-0.0178212
-0.017874
-0.0179279
-0.017983
-0.018039
-0.018096
-0.0181538
-0.0182123
-0.0182714
-0.018331
-0.018391
-0.0184513
-0.0185118
-0.0185723
-0.0186329
-0.0186932
-0.0187534
-0.0188132
-0.0188725
-0.0189313
-0.0189894
-0.0190468
-0.0191033
-0.0191589
-0.0192134
-0.0192668
-0.0193189
-0.0193697
-0.0194191
-0.019467
-0.0195133
-0.0195579
-0.0196008
-0.0196419
-0.0196811
-0.0197184
-0.0197536
-0.0197868
-0.0198179
-0.0198467
-0.0198734
-0.0198977
-0.0199198
-0.0199395
-0.0199568
-0.0199717
-0.0199841
-0.0199941
-0.0200016
-0.0200066
-0.0200091
-0.02669
-0.0266874
-0.0266822
-0.0266745
-0.0266643
-0.0266516
-0.0266365
-0.0266189
-0.026599
-0.0265767
-0.026552
-0.0265251
-0.0264959
-0.0264646
-0.0264311
-0.0263955
-0.0263579
-0.0263183
-0.0262769
-0.0262336
-0.0261886
-0.0261419
-0.0260936
-0.0260439
-0.0259927
-0.0259401
-0.0258863
-0.0258314
-0.0257754
-0.0257184
-0.0256606
-0.025602
-0.0255428
-0.025483
-0.0254227
-0.0253621
-0.0253013
-0.0252403
-0.0251793
-0.0251184
-0.0250576
-0.0249972
-0.0249371
-0.0248776
-0.0248186
-0.0247604
-0.024703
-0.0246465
-0.024591
-0.0245367
-0.0244835
-0.0244317
-0.0243813
-0.0243323
-0.024285
-0.0242393
-0.0241954
-0.0241532
-0.024113
-0.0240748
-0.0240386
-0.0240045
-0.0239726
-0.0239429
-0.0239155
-0.0238904
-0.0238677
-0.0238474
-0.0238296
-0.0238143
-0.0238014
-0.0237912
-0.0237834
-0.0237783
-0.0237757
-0.0237757
-0.0237782
-0.0237833
-0.0237911
-0.0238013
-0.0238141
-0.0238294
-0.0238472
-0.0238675
-0.0238902
-0.0239152
-0.0239426
-0.0239722
-0.0240041
-0.0240382
-0.0240743
-0.0241126
-0.0241527
-0.0241948
-0.0242387
-0.0242844
-0.0243317
-0.0243806
-0.024431
-0.0244828
-0.0245359
-0.0245902
-0.0246457
-0.0247021
-0.0247595
-0.0248177
-0.0248766
-0.0249361
-0.0249961
-0.0250565
-0.0251173
-0.0251782
-0.0252391
-0.0253001
-0.0253609
-0.0254214
-0.0254816
-0.0255414
-0.0256006
-0.0256591
-0.0257169
-0.0257738
-0.0258298
-0.0258846
-0.0259384
-0.0259909
-0.026042
-0.0260917
-0.02614
-0.0261866
-0.0262315
-0.0262747
-0.0263161
-0.0263556
-0.0263931
-0.0264286
-0.026462
-0.0264933
-0.0265223
-0.0265492
-0.0265737
-0.0265959
-0.0266157
-0.0266332
-0.0266482
-0.0266607
-0.0266707
-0.0266783
-0.0266834
-0.0266859
-0.033369
-0.0333664
-0.0333612
-0.0333535
-0.0333433
-0.0333305
-0.0333152
-0.0332976
-0.0332774
-0.0332549
-0.0332301
-0.0332029
-0.0331735
-0.0331419
-0.0331081
-0.0330723
-0.0330343
-0.0329944
-0.0329526
-0.032909
-0.0328636
-0.0328165
-0.0327678
-0.0327176
-0.032666
-0.032613
-0.0325587
-0.0325033
-0.0324468
-0.0323894
-0.0323311
-0.032272
-0.0322122
-0.0321519
-0.0320911
-0.03203
-0.0319686
-0.0319071
-0.0318456
-0.0317841
-0.0317229
-0.0316619
-0.0316013
-0.0315412
-0.0314818
-0.0314231
-0.0313651
-0.0313082
-0.0312522
-0.0311974
-0.0311438
-0.0310915
-0.0310406
-0.0309913
-0.0309435
-0.0308974
-0.0308531
-0.0308106
-0.0307701
-0.0307315
-0.030695
-0.0306606
-0.0306284
-0.0305985
-0.0305708
-0.0305455
-0.0305226
-0.0305022
-0.0304842
-0.0304687
-0.0304558
-0.0304454
-0.0304376
-0.0304324
-0.0304298
-0.0304298
-0.0304323
-0.0304375
-0.0304453
-0.0304557
-0.0304686
-0.030484
-0.030502
-0.0305224
-0.0305453
-0.0305705
-0.0305981
-0.0306281
-0.0306602
-0.0306946
-0.0307311
-0.0307696
-0.0308101
-0.0308526
-0.0308969
-0.0309429
-0.0309907
-0.03104
-0.0310908
-0.0311431
-0.0311966
-0.0312514
-0.0313073
-0.0313643
-0.0314222
-0.0314809
-0.0315403
-0.0316003
-0.0316608
-0.0317218
-0.031783
-0.0318444
-0.0319059
-0.0319674
-0.0320287
-0.0320898
-0.0321506
-0.0322108
-0.0322705
-0.0323296
-0.0323878
-0.0324452
-0.0325017
-0.032557
-0.0326112
-0.0326642
-0.0327158
-0.0327659
-0.0328146
-0.0328616
-0.0329069
-0.0329505
-0.0329922
-0.033032
-0.0330699
-0.0331057
-0.0331394
-0.0331709
-0.0332002
-0.0332273
-0.033252
-0.0332744
-0.0332944
-0.033312
-0.0333271
-0.0333398
-0.0333499
-0.0333575
-0.0333626
-0.0333652
-0.0400507
-0.0400481
-0.0400429
-0.0400351
-0.0400247
-0.0400119
-0.0399965
-0.0399786
-0.0399583
-0.0399356
-0.0399105
-0.0398831
-0.0398534
-0.0398214
-0.0397873
-0.0397511
-0.0397128
-0.0396725
-0.0396302
-0.0395862
-0.0395403
-0.0394927
-0.0394435
-0.0393928
-0.0393406
-0.0392871
-0.0392323
-0.0391763
-0.0391192
-0.0390612
-0.0390023
-0.0389426
-0.0388822
-0.0388213
-0.0387599
-0.0386981
-0.0386361
-0.038574
-0.0385118
-0.0384497
-0.0383878
-0.0383262
-0.038265
-0.0382043
-0.0381442
-0.0380849
-0.0380264
-0.0379688
-0.0379123
-0.0378569
-0.0378027
-0.0377499
-0.0376985
-0.0376487
-0.0376004
-0.0375538
-0.0375091
-0.0374661
-0.0374252
-0.0373862
-0.0373493
-0.0373146
-0.037282
-0.0372518
-0.0372238
-0.0371983
-0.0371752
-0.0371545
-0.0371363
-0.0371207
-0.0371076
-0.0370971
-0.0370892
-0.037084
-0.0370813
-0.0370813
-0.0370839
-0.0370892
-0.037097
-0.0371075
-0.0371205
-0.0371361
-0.0371543
-0.0371749
-0.037198
-0.0372235
-0.0372515
-0.0372817
-0.0373142
-0.0373489
-0.0373857
-0.0374247
-0.0374656
-0.0375085
-0.0375533
-0.0375998
-0.037648
-0.0376979
-0.0377492
-0.037802
-0.0378561
-0.0379115
-0.037968
-0.0380255
-0.038084
-0.0381433
-0.0382033
-0.038264
-0.0383252
-0.0383867
-0.0384486
-0.0385107
-0.0385728
-0.0386349
-0.0386969
-0.0387586
-0.0388199
-0.0388808
-0.0389411
-0.0390008
-0.0390597
-0.0391177
-0.0391747
-0.0392306
-0.0392854
-0.0393389
-0.039391
-0.0394416
-0.0394908
-0.0395383
-0.0395841
-0.0396281
-0.0396703
-0.0397105
-0.0397487
-0.0397849
-0.0398189
-0.0398508
-0.0398804
-0.0399078
-0.0399328
-0.0399554
-0.0399756
-0.0399933
-0.0400086
-0.0400214
-0.0400316
-0.0400393
-0.0400445
-0.0400471
-0.046735
-0.0467323
-0.0467271
-0.0467192
-0.0467088
-0.0466958
-0.0466802
-0.0466622
-0.0466416
-0.0466187
-0.0465933
-0.0465655
-0.0465355
-0.0465032
-0.0464686
-0.046432
-0.0463932
-0.0463524
-0.0463097
-0.0462651
-0.0462187
-0.0461706
-0.0461208
-0.0460695
-0.0460167
-0.0459625
-0.045907
-0.0458504
-0.0457926
-0.0457339
-0.0456743
-0.0456139
-0.0455528
-0.0454911
-0.045429
-0.0453665
-0.0453037
-0.0452408
-0.0451779
-0.0451151
-0.0450524
-0.0449901
-0.0449282
-0.0448667
-0.044806
-0.0447459
-0.0446867
-0.0446284
-0.0445712
-0.0445152
-0.0444604
-0.0444069
-0.0443549
-0.0443044
-0.0442556
-0.0442085
-0.0441632
-0.0441197
-0.0440782
-0.0440388
-0.0440015
-0.0439663
-0.0439334
-0.0439028
-0.0438745
-0.0438487
-0.0438252
-0.0438043
-0.0437859
-0.0437701
-0.0437569
-0.0437463
-0.0437383
-0.043733
-0.0437303
-0.0437303
-0.0437329
-0.0437382
-0.0437462
-0.0437568
-0.04377
-0.0437858
-0.0438041
-0.043825
-0.0438484
-0.0438742
-0.0439025
-0.0439331
-0.0439659
-0.0440011
-0.0440384
-0.0440778
-0.0441192
-0.0441626
-0.0442079
-0.044255
-0.0443038
-0.0443542
-0.0444062
-0.0444596
-0.0445144
-0.0445704
-0.0446276
-0.0446858
-0.044745
-0.044805
-0.0448658
-0.0449272
-0.0449891
-0.0450514
-0.045114
-0.0451768
-0.0452397
-0.0453025
-0.0453652
-0.0454277
-0.0454898
-0.0455514
-0.0456124
-0.0456728
-0.0457324
-0.0457911
-0.0458488
-0.0459054
-0.0459608
-0.0460149
-0.0460676
-0.0461189
-0.0461686
-0.0462167
-0.0462631
-0.0463076
-0.0463503
-0.046391
-0.0464297
-0.0464663
-0.0465007
-0.046533
-0.0465629
-0.0465906
-0.0466159
-0.0466388
-0.0466592
-0.0466772
-0.0466927
-0.0467056
-0.0467159
-0.0467237
-0.0467289
-0.0467316
-0.0534219
-0.0534193
-0.053414
-0.053406
-0.0533954
-0.0533823
-0.0533665
-0.0533482
-0.0533274
-0.0533042
-0.0532785
-0.0532503
-0.0532199
-0.0531871
-0.0531522
-0.053115
-0.0530757
-0.0530344
-0.0529911
-0.0529459
-0.0528988
-0.0528501
-0.0527996
-0.0527476
-0.0526941
-0.0526392
-0.052583
-0.0525255
-0.052467
-0.0524075
-0.0523471
-0.0522858
-0.0522239
-0.0521614
-0.0520984
-0.0520351
-0.0519715
-0.0519077
-0.051844
-0.0517803
-0.0517168
-0.0516536
-0.0515908
-0.0515286
-0.051467
-0.0514061
-0.0513461
-0.051287
-0.051229
-0.0511722
-0.0511167
-0.0510625
-0.0510098
-0.0509586
-0.0509091
-0.0508613
-0.0508154
-0.0507714
-0.0507293
-0.0506894
-0.0506515
-0.0506159
-0.0505825
-0.0505515
-0.0505228
-0.0504966
-0.0504729
-0.0504517
-0.050433
-0.050417
-0.0504036
-0.0503928
-0.0503847
-0.0503793
-0.0503766
-0.0503766
-0.0503793
-0.0503847
-0.0503927
-0.0504035
-0.0504168
-0.0504329
-0.0504515
-0.0504726
-0.0504963
-0.0505225
-0.0505512
-0.0505822
-0.0506155
-0.0506511
-0.0506889
-0.0507289
-0.0507709
-0.0508149
-0.0508608
-0.0509085
-0.050958
-0.0510091
-0.0510618
-0.0511159
-0.0511715
-0.0512282
-0.0512862
-0.0513452
-0.0514052
-0.051466
-0.0515276
-0.0515898
-0.0516526
-0.0517157
-0.0517792
-0.0518429
-0.0519066
-0.0519703
-0.0520338
-0.0520972
-0.0521601
-0.0522225
-0.0522844
-0.0523456
-0.052406
-0.0524655
-0.052524
-0.0525813
-0.0526375
-0.0526923
-0.0527458
-0.0527978
-0.0528482
-0.0528969
-0.0529439
-0.052989
-0.0530323
-0.0530735
-0.0531127
-0.0531498
-0.0531847
-0.0532174
-0.0532478
-0.0532758
-0.0533015
-0.0533247
-0.0533454
-0.0533636
-0.0533793
-0.0533924
-0.0534029
-0.0534108
-0.053416
-0.0534187
-0.0601116
-0.0601089
-0.0601035
-0.0600955
-0.0600847
-0.0600714
-0.0600554
-0.0600369
-0.0600158
-0.0599921
-0.059966
-0.0599375
-0.0599066
-0.0598734
-0.0598379
-0.0598002
-0.0597603
-0.0597183
-0.0596744
-0.0596285
-0.0595808
-0.0595312
-0.05948
-0.0594272
-0.0593729
-0.0593172
-0.0592601
-0.0592018
-0.0591424
-0.059082
-0.0590207
-0.0589585
-0.0588956
-0.0588322
-0.0587683
-0.058704
-0.0586394
-0.0585747
-0.05851
-0.0584453
-0.0583808
-0.0583167
-0.058253
-0.0581898
-0.0581272
-0.0580654
-0.0580045
-0.0579446
-0.0578857
-0.057828
-0.0577716
-0.0577166
-0.0576631
-0.0576111
-0.0575609
-0.0575124
-0.0574658
-0.0574211
-0.0573784
-0.0573378
-0.0572994
-0.0572632
-0.0572293
-0.0571978
-0.0571687
-0.0571421
-0.057118
-0.0570965
-0.0570776
-0.0570613
-0.0570477
-0.0570368
-0.0570285
-0.0570231
-0.0570203
-0.0570203
-0.057023
-0.0570285
-0.0570367
-0.0570476
-0.0570611
-0.0570774
-0.0570963
-0.0571178
-0.0571419
-0.0571684
-0.0571975
-0.057229
-0.0572628
-0.057299
-0.0573374
-0.0573779
-0.0574206
-0.0574652
-0.0575118
-0.0575603
-0.0576105
-0.0576624
-0.0577159
-0.0577709
-0.0578272
-0.0578849
-0.0579437
-0.0580037
-0.0580645
-0.0581263
-0.0581888
-0.058252
-0.0583157
-0.0583798
-0.0584442
-0.0585088
-0.0585735
-0.0586382
-0.0587027
-0.058767
-0.0588309
-0.0588943
-0.0589571
-0.0590192
-0.0590805
-0.0591409
-0.0592003
-0.0592585
-0.0593155
-0.0593712
-0.0594255
-0.0594782
-0.0595294
-0.0595788
-0.0596265
-0.0596723
-0.0597162
-0.0597581
-0.0597979
-0.0598356
-0.059871
-0.0599042
-0.059935
-0.0599635
-0.0599895
-0.060013
-0.0600341
-0.0600526
-0.0600685
-0.0600818
-0.0600924
-0.0601004
-0.0601058
-0.0601085
-0.066804
-0.0668012
-0.0667958
-0.0667876
-0.0667767
-0.0667631
-0.0667469
-0.0667281
-0.0667066
-0.0666826
-0.0666561
-0.0666271
-0.0665957
-0.0665619
-0.0665258
-0.0664875
-0.066447
-0.0664043
-0.0663597
-0.066313
-0.0662645
-0.0662141
-0.0661621
-0.0661084
-0.0660532
-0.0659965
-0.0659385
-0.0658793
-0.0658189
-0.0657574
-0.0656951
-0.0656319
-0.065568
-0.0655035
-0.0654385
-0.0653731
-0.0653075
-0.0652417
-0.0651759
-0.0651101
-0.0650446
-0.0649794
-0.0649146
-0.0648503
-0.0647867
-0.0647239
-0.064662
-0.064601
-0.0645412
-0.0644825
-0.0644252
-0.0643692
-0.0643148
-0.064262
-0.0642109
-0.0641616
-0.0641142
-0.0640688
-0.0640254
-0.0639841
-0.0639451
-0.0639083
-0.0638738
-0.0638418
-0.0638122
-0.0637852
-0.0637607
-0.0637388
-0.0637195
-0.063703
-0.0636891
-0.063678
-0.0636697
-0.0636641
-0.0636613
-0.0636613
-0.0636641
-0.0636696
-0.0636779
-0.063689
-0.0637028
-0.0637193
-0.0637386
-0.0637604
-0.0637849
-0.0638119
-0.0638415
-0.0638735
-0.0639079
-0.0639446
-0.0639837
-0.0640249
-0.0640683
-0.0641137
-0.0641611
-0.0642103
-0.0642614
-0.0643142
-0.0643686
-0.0644245
-0.0644818
-0.0645404
-0.0646002
-0.0646611
-0.064723
-0.0647858
-0.0648494
-0.0649136
-0.0649784
-0.0650436
-0.0651091
-0.0651748
-0.0652405
-0.0653063
-0.0653719
-0.0654372
-0.0655022
-0.0655666
-0.0656305
-0.0656936
-0.065756
-0.0658174
-0.0658777
-0.0659369
-0.0659949
-0.0660515
-0.0661066
-0.0661603
-0.0662123
-0.0662626
-0.066311
-0.0663576
-0.0664023
-0.0664448
-0.0664853
-0.0665236
-0.0665596
-0.0665933
-0.0666247
-0.0666536
-0.06668
-0.066704
-0.0667254
-0.0667442
-0.0667603
-0.0667738
-0.0667847
-0.0667928
-0.0667983
-0.066801
-0.0734991
-0.0734964
-0.0734908
-0.0734825
-0.0734714
-0.0734576
-0.0734411
-0.0734219
-0.0734001
-0.0733757
-0.0733487
-0.0733192
-0.0732872
-0.0732528
-0.0732161
-0.073177
-0.0731358
-0.0730924
-0.0730469
-0.0729994
-0.07295
-0.0728988
-0.0728458
-0.0727911
-0.0727349
-0.0726772
-0.0726182
-0.0725578
-0.0724964
-0.0724338
-0.0723703
-0.072306
-0.0722409
-0.0721753
-0.0721091
-0.0720425
-0.0719757
-0.0719087
-0.0718417
-0.0717748
-0.071708
-0.0716416
-0.0715757
-0.0715102
-0.0714455
-0.0713815
-0.0713185
-0.0712564
-0.0711954
-0.0711357
-0.0710774
-0.0710204
-0.070965
-0.0709112
-0.0708592
-0.070809
-0.0707607
-0.0707145
-0.0706703
-0.0706282
-0.0705885
-0.070551
-0.070516
-0.0704833
-0.0704532
-0.0704257
-0.0704007
-0.0703784
-0.0703588
-0.070342
-0.0703279
-0.0703166
-0.0703081
-0.0703024
-0.0702996
-0.0702996
-0.0703024
-0.070308
-0.0703165
-0.0703278
-0.0703418
-0.0703587
-0.0703782
-0.0704005
-0.0704254
-0.0704529
-0.070483
-0.0705156
-0.0705506
-0.0705881
-0.0706278
-0.0706698
-0.070714
-0.0707602
-0.0708085
-0.0708586
-0.0709106
-0.0709644
-0.0710197
-0.0710766
-0.071135
-0.0711947
-0.0712556
-0.0713176
-0.0713807
-0.0714446
-0.0715093
-0.0715747
-0.0716406
-0.071707
-0.0717737
-0.0718406
-0.0719076
-0.0719745
-0.0720413
-0.0721078
-0.072174
-0.0722396
-0.0723046
-0.0723689
-0.0724324
-0.0724949
-0.0725563
-0.0726166
-0.0726756
-0.0727332
-0.0727894
-0.072844
-0.0728969
-0.0729481
-0.0729975
-0.0730449
-0.0730903
-0.0731337
-0.0731749
-0.0732139
-0.0732505
-0.0732849
-0.0733168
-0.0733462
-0.0733732
-0.0733975
-0.0734193
-0.0734384
-0.0734549
-0.0734686
-0.0734797
-0.073488
-0.0734935
-0.0734963
-0.0801971
-0.0801943
-0.0801886
-0.0801801
-0.0801689
-0.0801548
-0.080138
-0.0801184
-0.0800962
-0.0800713
-0.0800438
-0.0800137
-0.0799811
-0.0799461
-0.0799086
-0.0798688
-0.0798268
-0.0797826
-0.0797362
-0.0796878
-0.0796374
-0.0795852
-0.0795311
-0.0794754
-0.0794181
-0.0793593
-0.0792991
-0.0792376
-0.0791749
-0.0791112
-0.0790464
-0.0789808
-0.0789145
-0.0788475
-0.0787801
-0.0787122
-0.0786441
-0.0785758
-0.0785075
-0.0784392
-0.0783712
-0.0783035
-0.0782362
-0.0781695
-0.0781035
-0.0780383
-0.077974
-0.0779107
-0.0778485
-0.0777876
-0.0777281
-0.07767
-0.0776136
-0.0775587
-0.0775057
-0.0774545
-0.0774053
-0.0773581
-0.077313
-0.0772702
-0.0772296
-0.0771914
-0.0771557
-0.0771224
-0.0770917
-0.0770636
-0.0770382
-0.0770154
-0.0769955
-0.0769783
-0.0769639
-0.0769524
-0.0769437
-0.0769379
-0.076935
-0.076935
-0.0769379
-0.0769436
-0.0769523
-0.0769638
-0.0769781
-0.0769953
-0.0770152
-0.0770379
-0.0770633
-0.0770914
-0.0771221
-0.0771553
-0.0771911
-0.0772292
-0.0772697
-0.0773126
-0.0773576
-0.0774047
-0.0774539
-0.0775051
-0.0775581
-0.0776129
-0.0776694
-0.0777274
-0.0777869
-0.0778478
-0.0779099
-0.0779731
-0.0780374
-0.0781026
-0.0781686
-0.0782352
-0.0783025
-0.0783702
-0.0784382
-0.0785064
-0.0785746
-0.0786429
-0.078711
-0.0787788
-0.0788463
-0.0789132
-0.0789795
-0.079045
-0.0791097
-0.0791734
-0.0792361
-0.0792975
-0.0793577
-0.0794165
-0.0794737
-0.0795294
-0.0795834
-0.0796356
-0.0796859
-0.0797342
-0.0797805
-0.0798247
-0.0798667
-0.0799065
-0.0799439
-0.0799788
-0.0800114
-0.0800414
-0.0800689
-0.0800937
-0.0801159
-0.0801354
-0.0801522
-0.0801662
-0.0801775
-0.0801859
-0.0801916
-0.0801944
-0.086898
-0.0868951
-0.0868893
-0.0868807
-0.0868692
-0.0868548
-0.0868376
-0.0868177
-0.086795
-0.0867696
-0.0867415
-0.0867108
-0.0866776
-0.0866418
-0.0866036
-0.086563
-0.08652
-0.0864749
-0.0864275
-0.0863781
-0.0863267
-0.0862734
-0.0862182
-0.0861614
-0.0861028
-0.0860428
-0.0859813
-0.0859186
-0.0858546
-0.0857895
-0.0857234
-0.0856564
-0.0855887
-0.0855203
-0.0854515
-0.0853822
-0.0853126
-0.0852429
-0.0851731
-0.0851035
-0.085034
-0.0849649
-0.0848962
-0.0848281
-0.0847607
-0.0846941
-0.0846284
-0.0845638
-0.0845004
-0.0844382
-0.0843774
-0.0843181
-0.0842605
-0.0842045
-0.0841503
-0.0840981
-0.0840478
-0.0839996
-0.0839536
-0.0839099
-0.0838685
-0.0838295
-0.0837929
-0.083759
-0.0837276
-0.0836989
-0.083673
-0.0836498
-0.0836294
-0.0836118
-0.0835971
-0.0835854
-0.0835765
-0.0835706
-0.0835676
-0.0835676
-0.0835706
-0.0835764
-0.0835853
-0.083597
-0.0836117
-0.0836292
-0.0836496
-0.0836727
-0.0836987
-0.0837273
-0.0837587
-0.0837926
-0.0838291
-0.0838681
-0.0839094
-0.0839531
-0.0839991
-0.0840473
-0.0840975
-0.0841497
-0.0842039
-0.0842598
-0.0843175
-0.0843767
-0.0844375
-0.0844996
-0.084563
-0.0846276
-0.0846932
-0.0847598
-0.0848272
-0.0848952
-0.0849639
-0.085033
-0.0851024
-0.0851721
-0.0852418
-0.0853115
-0.085381
-0.0854502
-0.0855191
-0.0855874
-0.0856551
-0.085722
-0.085788
-0.0858531
-0.0859171
-0.0859798
-0.0860412
-0.0861012
-0.0861597
-0.0862165
-0.0862716
-0.0863249
-0.0863762
-0.0864256
-0.0864729
-0.086518
-0.0865609
-0.0866014
-0.0866396
-0.0866753
-0.0867085
-0.0867392
-0.0867672
-0.0867926
-0.0868152
-0.0868351
-0.0868523
-0.0868666
-0.0868781
-0.0868867
-0.0868925
-0.0868954
-0.0936018
-0.0935988
-0.0935929
-0.0935841
-0.0935723
-0.0935577
-0.0935401
-0.0935197
-0.0934966
-0.0934706
-0.0934419
-0.0934105
-0.0933765
-0.09334
-0.0933009
-0.0932594
-0.0932155
-0.0931694
-0.093121
-0.0930705
-0.0930179
-0.0929634
-0.0929071
-0.0928489
-0.0927891
-0.0927278
-0.0926649
-0.0926008
-0.0925353
-0.0924688
-0.0924012
-0.0923328
-0.0922636
-0.0921937
-0.0921233
-0.0920525
-0.0919813
-0.0919101
-0.0918388
-0.0917675
-0.0916965
-0.0916258
-0.0915556
-0.091486
-0.0914171
-0.091349
-0.0912819
-0.0912158
-0.091151
-0.0910874
-0.0910253
-0.0909647
-0.0909057
-0.0908485
-0.0907931
-0.0907396
-0.0906883
-0.090639
-0.090592
-0.0905472
-0.0905049
-0.090465
-0.0904277
-0.090393
-0.0903609
-0.0903316
-0.090305
-0.0902813
-0.0902605
-0.0902425
-0.0902275
-0.0902155
-0.0902064
-0.0902004
-0.0901974
-0.0901974
-0.0902003
-0.0902064
-0.0902154
-0.0902274
-0.0902424
-0.0902603
-0.0902811
-0.0903048
-0.0903313
-0.0903606
-0.0903927
-0.0904274
-0.0904647
-0.0905045
-0.0905468
-0.0905915
-0.0906385
-0.0906877
-0.0907391
-0.0907925
-0.0908479
-0.0909051
-0.090964
-0.0910246
-0.0910867
-0.0911502
-0.091215
-0.0912811
-0.0913482
-0.0914162
-0.0914851
-0.0915547
-0.0916249
-0.0916955
-0.0917665
-0.0918377
-0.091909
-0.0919802
-0.0920513
-0.0921221
-0.0921924
-0.0922623
-0.0923315
-0.0923999
-0.0924674
-0.0925339
-0.0925993
-0.0926634
-0.0927262
-0.0927875
-0.0928473
-0.0929054
-0.0929617
-0.0930161
-0.0930687
-0.0931191
-0.0931674
-0.0932136
-0.0932574
-0.0932988
-0.0933378
-0.0933744
-0.0934083
-0.0934396
-0.0934683
-0.0934942
-0.0935174
-0.0935377
-0.0935552
-0.0935698
-0.0935816
-0.0935904
-0.0935963
-0.0935993
-0.100309
-0.100306
-0.1003
-0.10029
-0.100278
-0.100263
-0.100246
-0.100225
-0.100201
-0.100174
-0.100145
-0.100113
-0.100078
-0.100041
-0.100001
-0.0999583
-0.0999134
-0.0998661
-0.0998166
-0.0997649
-0.0997112
-0.0996554
-0.0995977
-0.0995382
-0.099477
-0.0994142
-0.0993499
-0.0992842
-0.0992173
-0.0991492
-0.09908
-0.09901
-0.0989391
-0.0988676
-0.0987955
-0.098723
-0.0986502
-0.0985773
-0.0985043
-0.0984314
-0.0983587
-0.0982864
-0.0982145
-0.0981432
-0.0980727
-0.098003
-0.0979343
-0.0978667
-0.0978003
-0.0977352
-0.0976716
-0.0976096
-0.0975492
-0.0974906
-0.0974339
-0.0973792
-0.0973266
-0.0972762
-0.0972281
-0.0971823
-0.0971389
-0.0970981
-0.0970599
-0.0970244
-0.0969915
-0.0969615
-0.0969343
-0.0969101
-0.0968887
-0.0968703
-0.096855
-0.0968427
-0.0968334
-0.0968272
-0.0968241
-0.0968241
-0.0968272
-0.0968333
-0.0968426
-0.0968549
-0.0968702
-0.0968885
-0.0969099
-0.0969341
-0.0969613
-0.0969913
-0.0970241
-0.0970596
-0.0970978
-0.0971385
-0.0971819
-0.0972276
-0.0972757
-0.0973261
-0.0973787
-0.0974334
-0.09749
-0.0975486
-0.0976089
-0.0976709
-0.0977345
-0.0977995
-0.0978659
-0.0979335
-0.0980022
-0.0980718
-0.0981423
-0.0982136
-0.0982854
-0.0983577
-0.0984304
-0.0985032
-0.0985762
-0.0986491
-0.0987219
-0.0987943
-0.0988663
-0.0989378
-0.0990086
-0.0990787
-0.0991478
-0.0992158
-0.0992827
-0.0993484
-0.0994126
-0.0994754
-0.0995366
-0.099596
-0.0996537
-0.0997094
-0.0997631
-0.0998148
-0.0998642
-0.0999114
-0.0999563
-0.0999987
-0.100039
-0.100076
-0.100111
-0.100143
-0.100172
-0.100199
-0.100222
-0.100243
-0.100261
-0.100276
-0.100288
-0.100297
-0.100303
-0.100306
-0.107018
-0.107015
-0.107009
-0.107
-0.106988
-0.106972
-0.106954
-0.106932
-0.106908
-0.106881
-0.106851
-0.106818
-0.106782
-0.106744
-0.106703
-0.10666
-0.106614
-0.106565
-0.106514
-0.106462
-0.106406
-0.106349
-0.10629
-0.106229
-0.106166
-0.106102
-0.106036
-0.105969
-0.1059
-0.105831
-0.10576
-0.105688
-0.105615
-0.105542
-0.105468
-0.105394
-0.105319
-0.105245
-0.10517
-0.105095
-0.105021
-0.104946
-0.104873
-0.1048
-0.104727
-0.104656
-0.104586
-0.104516
-0.104448
-0.104382
-0.104316
-0.104253
-0.104191
-0.104131
-0.104073
-0.104017
-0.103963
-0.103911
-0.103862
-0.103815
-0.103771
-0.103729
-0.10369
-0.103653
-0.103619
-0.103589
-0.103561
-0.103536
-0.103514
-0.103495
-0.103479
-0.103467
-0.103457
-0.103451
-0.103448
-0.103448
-0.103451
-0.103457
-0.103467
-0.103479
-0.103495
-0.103514
-0.103536
-0.103561
-0.103588
-0.103619
-0.103653
-0.103689
-0.103728
-0.10377
-0.103814
-0.103861
-0.103911
-0.103962
-0.104016
-0.104072
-0.10413
-0.10419
-0.104252
-0.104316
-0.104381
-0.104448
-0.104516
-0.104585
-0.104655
-0.104727
-0.104799
-0.104872
-0.104945
-0.10502
-0.105094
-0.105169
-0.105243
-0.105318
-0.105393
-0.105467
-0.105541
-0.105614
-0.105687
-0.105758
-0.105829
-0.105899
-0.105967
-0.106035
-0.106101
-0.106165
-0.106228
-0.106288
-0.106348
-0.106405
-0.10646
-0.106513
-0.106563
-0.106612
-0.106658
-0.106701
-0.106742
-0.10678
-0.106816
-0.106849
-0.106879
-0.106906
-0.10693
-0.106952
-0.10697
-0.106985
-0.106998
-0.107007
-0.107013
-0.107016
-0.113732
-0.113728
-0.113722
-0.113712
-0.1137
-0.113684
-0.113665
-0.113643
-0.113618
-0.11359
-0.11356
-0.113526
-0.113489
-0.11345
-0.113408
-0.113363
-0.113316
-0.113267
-0.113215
-0.11316
-0.113104
-0.113045
-0.112985
-0.112922
-0.112858
-0.112792
-0.112724
-0.112655
-0.112585
-0.112513
-0.11244
-0.112367
-0.112292
-0.112217
-0.112141
-0.112065
-0.111989
-0.111912
-0.111835
-0.111759
-0.111682
-0.111606
-0.11153
-0.111456
-0.111381
-0.111308
-0.111236
-0.111165
-0.111095
-0.111027
-0.11096
-0.110894
-0.110831
-0.110769
-0.11071
-0.110652
-0.110597
-0.110544
-0.110493
-0.110445
-0.1104
-0.110357
-0.110316
-0.110279
-0.110245
-0.110213
-0.110184
-0.110159
-0.110136
-0.110117
-0.110101
-0.110088
-0.110078
-0.110072
-0.110068
-0.110068
-0.110072
-0.110078
-0.110088
-0.110101
-0.110117
-0.110136
-0.110159
-0.110184
-0.110213
-0.110244
-0.110279
-0.110316
-0.110356
-0.110399
-0.110445
-0.110493
-0.110543
-0.110596
-0.110652
-0.110709
-0.110769
-0.11083
-0.110894
-0.110959
-0.111026
-0.111094
-0.111164
-0.111235
-0.111307
-0.111381
-0.111455
-0.11153
-0.111605
-0.111681
-0.111757
-0.111834
-0.111911
-0.111987
-0.112064
-0.11214
-0.112216
-0.112291
-0.112365
-0.112439
-0.112512
-0.112583
-0.112654
-0.112723
-0.11279
-0.112856
-0.11292
-0.112983
-0.113043
-0.113102