/*--------------------------------*- C++ -*----------------------------------*\
| =========                 |                                                 |
| \\      /  F ield         | OpenFOAM: The Open Source CFD Toolbox           |
|  \\    /   O peration     | Version:  2106                                  |
|   \\  /    A nd           | Website:  www.openfoam.com                      |
|    \\/     M anipulation  |                                                 |
\*---------------------------------------------------------------------------*/
FoamFile
{
    version     2.0;
    format      ascii;
    arch        "LSB;label=32;scalar=64";
    class       volScalarField;
    location    "3.6";
    object      p_rgh;
}
// * * * * * * * * * * * * * * * * * * * * * * * * * * * * * * * * * * * * * //

dimensions      [1 -1 -2 0 0 0 0];

internalField   nonuniform List<scalar> 
90000
(
0.00333333
0.0033365
0.00334192
0.00334972
0.00335991
0.00337248
0.00338744
0.00340476
0.00342442
0.00344639
0.00347064
0.00349712
0.00352581
0.00355664
0.00358957
0.00362455
0.00366151
0.0037004
0.00374114
0.00378368
0.00382792
0.00387381
0.00392127
0.0039702
0.00402054
0.00407218
0.00412505
0.00417905
0.00423409
0.00429007
0.00434689
0.00440447
0.0044627
0.00452147
0.00458069
0.00464025
0.00470005
0.00475998
0.00481994
0.00487982
0.00493952
0.00499894
0.00505796
0.00511649
0.00517441
0.00523164
0.00528806
0.00534358
0.00539809
0.00545151
0.00550373
0.00555467
0.00560422
0.00565231
0.00569885
0.00574375
0.00578694
0.00582832
0.00586784
0.00590542
0.005941
0.00597449
0.00600586
0.00603504
0.00606197
0.00608661
0.00610892
0.00612886
0.00614638
0.00616145
0.00617406
0.00618418
0.00619178
0.00619686
0.0061994
0.00619941
0.0061969
0.00619185
0.00618428
0.00617419
0.00616161
0.00614656
0.00612907
0.00610916
0.00608688
0.00606227
0.00603536
0.00600622
0.00597488
0.00594141
0.00590587
0.00586832
0.00582883
0.00578748
0.00574433
0.00569946
0.00565295
0.00560489
0.00555537
0.00550446
0.00545227
0.00539889
0.00534441
0.00528892
0.00523253
0.00517535
0.00511745
0.00505896
0.00499998
0.0049406
0.00488094
0.00482109
0.00476117
0.00470128
0.00464152
0.00458201
0.00452283
0.0044641
0.00440592
0.00434839
0.00429161
0.00423568
0.00418069
0.00412675
0.00407393
0.00402235
0.00397207
0.0039232
0.00387581
0.00382999
0.00378581
0.00374335
0.00370268
0.00366387
0.00362699
0.0035921
0.00355926
0.00352853
0.00349996
0.00347359
0.00344948
0.00342766
0.00340816
0.00339103
0.0033763
0.00336397
0.00335409
0.00334666
0.00334169
0.0033392
0.00333152
0.0033343
0.00333961
0.00334736
0.00335753
0.00337011
0.00338507
0.00340241
0.0034221
0.00344411
0.00346839
0.00349492
0.00352366
0.00355454
0.00358753
0.00362257
0.00365959
0.00369854
0.00373936
0.00378196
0.00382629
0.00387225
0.00391979
0.00396881
0.00401923
0.00407096
0.00412392
0.00417801
0.00423315
0.00428922
0.00434615
0.00440383
0.00446215
0.00452103
0.00458035
0.00464001
0.00469991
0.00475995
0.00482002
0.00488
0.00493981
0.00499932
0.00505845
0.00511708
0.0051751
0.00523243
0.00528895
0.00534456
0.00539917
0.00545268
0.00550499
0.00555602
0.00560566
0.00565383
0.00570045
0.00574543
0.00578869
0.00583015
0.00586974
0.00590738
0.00594302
0.00597657
0.00600799
0.00603722
0.0060642
0.00608889
0.00611124
0.0061312
0.00614875
0.00616386
0.00617649
0.00618662
0.00619423
0.00619932
0.00620187
0.00620188
0.00619936
0.00619431
0.00618672
0.00617661
0.00616401
0.00614894
0.00613141
0.00611148
0.00608916
0.0060645
0.00603755
0.00600835
0.00597696
0.00594343
0.00590783
0.00587022
0.00583066
0.00578923
0.00574601
0.00570106
0.00565447
0.00560633
0.00555672
0.00550573
0.00545345
0.00539997
0.00534539
0.00528981
0.00523333
0.00517604
0.00511804
0.00505945
0.00500036
0.00494088
0.00488112
0.00482117
0.00476114
0.00470115
0.00464129
0.00458167
0.00452239
0.00446356
0.00440528
0.00434765
0.00429077
0.00423474
0.00417966
0.00412562
0.00407271
0.00402104
0.00397067
0.00392172
0.00387425
0.00382834
0.00378409
0.00374156
0.00370082
0.00366194
0.003625
0.00359005
0.00355716
0.00352637
0.00349775
0.00347134
0.00344718
0.00342532
0.0034058
0.00338864
0.00337387
0.00336153
0.00335163
0.00334419
0.00333921
0.00333672
0.00332698
0.00332964
0.00333485
0.00334256
0.00335272
0.00336531
0.00338031
0.00339769
0.00341744
0.00343951
0.00346388
0.0034905
0.00351932
0.00355031
0.00358341
0.00361857
0.00365572
0.00369481
0.00373576
0.00377851
0.00382299
0.00386912
0.00391682
0.003966
0.0040166
0.00406851
0.00412165
0.00417593
0.00423126
0.00428753
0.00434465
0.00440253
0.00446106
0.00452014
0.00457967
0.00463954
0.00469965
0.00475989
0.00482017
0.00488036
0.00494038
0.0050001
0.00505943
0.00511826
0.00517649
0.00523402
0.00529073
0.00534654
0.00540134
0.00545504
0.00550754
0.00555874
0.00560855
0.0056569
0.00570368
0.00574881
0.00579222
0.00583383
0.00587355
0.00591133
0.00594709
0.00598076
0.00601229
0.00604162
0.00606869
0.00609347
0.00611589
0.00613593
0.00615354
0.0061687
0.00618137
0.00619154
0.00619918
0.00620428
0.00620684
0.00620685
0.00620433
0.00619925
0.00619164
0.0061815
0.00616885
0.00615372
0.00613614
0.00611613
0.00609374
0.00606899
0.00604195
0.00601265
0.00598115
0.0059475
0.00591178
0.00587403
0.00583434
0.00579276
0.00574938
0.00570428
0.00565753
0.00560922
0.00555944
0.00550827
0.0054558
0.00540214
0.00534737
0.0052916
0.00523491
0.00517743
0.00511923
0.00506044
0.00500114
0.00494145
0.00488148
0.00482132
0.00476109
0.00470088
0.00464081
0.00458098
0.0045215
0.00446246
0.00440398
0.00434615
0.00428907
0.00423285
0.00417757
0.00412335
0.00407026
0.0040184
0.00396787
0.00391874
0.0038711
0.00382504
0.00378063
0.00373795
0.00369707
0.00365806
0.00362099
0.00358592
0.00355291
0.00352202
0.0034933
0.0034668
0.00344256
0.00342062
0.00340103
0.00338381
0.003369
0.00335661
0.00334668
0.00333921
0.00333422
0.00333172
0.00331982
0.00332242
0.00332759
0.00333528
0.00334544
0.00335807
0.00337312
0.00339058
0.00341042
0.00343259
0.00345708
0.00348383
0.0035128
0.00354395
0.00357722
0.00361255
0.0036499
0.00368918
0.00373035
0.00377332
0.00381803
0.00386439
0.00391234
0.00396178
0.00401264
0.00406482
0.00411824
0.0041728
0.00422841
0.00428498
0.0043424
0.00440058
0.00445941
0.0045188
0.00457864
0.00463882
0.00469925
0.00475981
0.0048204
0.00488091
0.00494123
0.00500127
0.00506091
0.00512005
0.00517858
0.00523641
0.00529342
0.00534952
0.00540461
0.00545859
0.00551136
0.00556283
0.00561291
0.0056615
0.00570853
0.0057539
0.00579753
0.00583936
0.00587929
0.00591727
0.00595321
0.00598706
0.00601876
0.00604824
0.00607546
0.00610036
0.0061229
0.00614304
0.00616075
0.00617598
0.00618872
0.00619894
0.00620663
0.00621176
0.00621432
0.00621434
0.0062118
0.0062067
0.00619904
0.00618885
0.00617614
0.00616093
0.00614325
0.00612314
0.00610063
0.00607575
0.00604856
0.00601911
0.00598745
0.00595363
0.00591771
0.00587977
0.00583987
0.00579808
0.00575447
0.00570913
0.00566214
0.00561357
0.00556353
0.00551209
0.00545935
0.00540541
0.00535035
0.00529429
0.00523731
0.00517952
0.00512102
0.00506191
0.00500231
0.00494231
0.00488202
0.00482155
0.004761
0.00470048
0.00464009
0.00457995
0.00452016
0.00446081
0.00440202
0.00434389
0.00428652
0.00423
0.00417444
0.00411993
0.00406656
0.00401444
0.00396364
0.00391426
0.00386637
0.00382007
0.00377543
0.00373253
0.00369143
0.00365222
0.00361496
0.00357971
0.00354653
0.00351548
0.00348661
0.00345997
0.0034356
0.00341355
0.00339386
0.00337655
0.00336166
0.00334921
0.00333922
0.00333172
0.0033267
0.00332419
0.00331005
0.00331264
0.00331779
0.00332549
0.00333569
0.00334836
0.0033635
0.00338106
0.00340102
0.00342334
0.00344798
0.00347491
0.00350408
0.00353544
0.00356893
0.00360451
0.0036421
0.00368166
0.00372311
0.00376638
0.00381139
0.00385808
0.00390635
0.00395614
0.00400735
0.00405989
0.00411368
0.00416862
0.00422461
0.00428157
0.00433939
0.00439797
0.00445721
0.00451701
0.00457727
0.00463787
0.00469871
0.00475969
0.0048207
0.00488163
0.00494238
0.00500283
0.00506289
0.00512244
0.00518138
0.00523961
0.00529702
0.00535351
0.00540898
0.00546333
0.00551647
0.0055683
0.00561873
0.00566766
0.00571501
0.0057607
0.00580464
0.00584675
0.00588697
0.00592521
0.0059614
0.00599549
0.0060274
0.00605709
0.0060845
0.00610957
0.00613227
0.00615256
0.00617038
0.00618573
0.00619855
0.00620885
0.00621658
0.00622175
0.00622433
0.00622435
0.00622179
0.00621665
0.00620894
0.00619868
0.00618588
0.00617057
0.00615277
0.00613251
0.00610984
0.00608479
0.00605742
0.00602776
0.00599587
0.00596182
0.00592565
0.00588745
0.00584726
0.00580518
0.00576127
0.00571561
0.00566829
0.00561939
0.005569
0.0055172
0.00546409
0.00540977
0.00535434
0.00529788
0.0052405
0.00518231
0.0051234
0.00506389
0.00500387
0.00494345
0.00488274
0.00482185
0.00476088
0.00469994
0.00463913
0.00457857
0.00451836
0.00445861
0.00439941
0.00434087
0.0042831
0.00422619
0.00417025
0.00411536
0.00406162
0.00400914
0.00395799
0.00390826
0.00386004
0.00381342
0.00376847
0.00372527
0.0036839
0.00364441
0.00360689
0.0035714
0.00353799
0.00350672
0.00347765
0.00345083
0.0034263
0.0034041
0.00338427
0.00336684
0.00335184
0.00333931
0.00332925
0.00332169
0.00331664
0.00331411
0.00329767
0.00330026
0.00330543
0.00331316
0.00332341
0.00333617
0.00335142
0.00336911
0.00338923
0.00341172
0.00343657
0.00346372
0.00349314
0.00352476
0.00355854
0.00359442
0.00363233
0.00367223
0.00371403
0.00375767
0.00380307
0.00385016
0.00389885
0.00394906
0.00400071
0.0040537
0.00410795
0.00416337
0.00421985
0.00427729
0.00433561
0.0043947
0.00445445
0.00451477
0.00457554
0.00463667
0.00469804
0.00475955
0.00482108
0.00488254
0.00494381
0.00500479
0.00506537
0.00512543
0.00518488
0.00524362
0.00530152
0.0053585
0.00541446
0.00546928
0.00552288
0.00557516
0.00562602
0.00567538
0.00572314
0.00576923
0.00581355
0.00585603
0.00589659
0.00593516
0.00597167
0.00600605
0.00603825
0.00606819
0.00609584
0.00612113
0.00614403
0.00616449
0.00618247
0.00619794
0.00621088
0.00622126
0.00622907
0.00623428
0.00623689
0.0062369
0.00623432
0.00622914
0.00622136
0.00621101
0.0061981
0.00618265
0.0061647
0.00614427
0.0061214
0.00609613
0.00606852
0.0060386
0.00600644
0.00597209
0.00593561
0.00589707
0.00585654
0.00581409
0.0057698
0.00572374
0.00567601
0.00562669
0.00557585
0.00552361
0.00547004
0.00541525
0.00535933
0.00530238
0.00524451
0.00518581
0.0051264
0.00506636
0.00500582
0.00494488
0.00488365
0.00482223
0.00476073
0.00469926
0.00463793
0.00457685
0.00451611
0.00445584
0.00439613
0.00433709
0.00427882
0.00422142
0.00416499
0.00410963
0.00405543
0.00400249
0.0039509
0.00390074
0.00385211
0.00380508
0.00375975
0.00371618
0.00367444
0.00363462
0.00359678
0.00356098
0.00352728
0.00349575
0.00346643
0.00343937
0.00341463
0.00339224
0.00337224
0.00335466
0.00333954
0.00332689
0.00331675
0.00330913
0.00330403
0.00330148
0.00328267
0.00328528
0.00329048
0.00329826
0.0033086
0.00332147
0.00333685
0.00335471
0.00337501
0.00339773
0.00342283
0.00345025
0.00347996
0.0035119
0.00354602
0.00358226
0.00362057
0.00366087
0.0037031
0.00374718
0.00379305
0.00384062
0.00388981
0.00394053
0.00399271
0.00404625
0.00410106
0.00415704
0.0042141
0.00427214
0.00433106
0.00439076
0.00445113
0.00451207
0.00457347
0.00463522
0.00469723
0.00475937
0.00482154
0.00488364
0.00494554
0.00500715
0.00506835
0.00512904
0.0051891
0.00524844
0.00530695
0.00536452
0.00542105
0.00547644
0.0055306
0.00558342
0.00563481
0.00568468
0.00573293
0.0057795
0.00582428
0.0058672
0.00590818
0.00594715
0.00598404
0.00601878
0.0060513
0.00608156
0.00610949
0.00613505
0.00615818
0.00617885
0.00619702
0.00621266
0.00622573
0.00623622
0.0062441
0.00624937
0.006252
0.00625201
0.00624941
0.00624417
0.00623632
0.00622586
0.00621281
0.0061972
0.00617906
0.00615842
0.00613531
0.00610979
0.00608188
0.00605166
0.00601916
0.00598445
0.00594759
0.00590865
0.0058677
0.00582481
0.00578006
0.00573353
0.00568531
0.00563547
0.00558411
0.00553132
0.0054772
0.00542184
0.00536534
0.00530781
0.00524933
0.00519003
0.00513
0.00506934
0.00500818
0.00494661
0.00488474
0.00482268
0.00476055
0.00469844
0.00463648
0.00457476
0.0045134
0.00445251
0.00439218
0.00433253
0.00427366
0.00421567
0.00415866
0.00410272
0.00404797
0.00399448
0.00394236
0.00389168
0.00384255
0.00379504
0.00374924
0.00370522
0.00366306
0.00362283
0.00358459
0.00354843
0.00351438
0.00348253
0.00345291
0.00342557
0.00340057
0.00337795
0.00335775
0.00333999
0.00332471
0.00331194
0.00330169
0.00329399
0.00328885
0.00328627
0.00326503
0.00326766
0.00327291
0.00328077
0.00329121
0.00330422
0.00331977
0.00333782
0.00335836
0.00338134
0.00340672
0.00343446
0.00346451
0.00349683
0.00353135
0.00356802
0.00360678
0.00364756
0.00369029
0.00373489
0.0037813
0.00382944
0.00387921
0.00393054
0.00398334
0.00403752
0.00409298
0.00414963
0.00420737
0.00426611
0.00432573
0.00438614
0.00444723
0.0045089
0.00457103
0.00463353
0.00469627
0.00475916
0.00482208
0.00488491
0.00494756
0.00500991
0.00507184
0.00513325
0.00519404
0.00525409
0.0053133
0.00537156
0.00542877
0.00548483
0.00553963
0.00559309
0.0056451
0.00569556
0.0057444
0.00579152
0.00583684
0.00588028
0.00592175
0.00596119
0.00599852
0.00603368
0.0060666
0.00609722
0.00612548
0.00615135
0.00617476
0.00619568
0.00621406
0.00622989
0.00624312
0.00625373
0.00626171
0.00626704
0.00626971
0.00626972
0.00626708
0.00626178
0.00625383
0.00624324
0.00623004
0.00621425
0.00619589
0.00617499
0.00615161
0.00612578
0.00609754
0.00606695
0.00603406
0.00599893
0.00596163
0.00592223
0.00588078
0.00583738
0.00579209
0.005745
0.00569619
0.00564576
0.00559378
0.00554036
0.00548559
0.00542956
0.00537239
0.00531416
0.00525498
0.00519496
0.00513421
0.00507283
0.00501093
0.00494862
0.00488601
0.00482321
0.00476033
0.00469748
0.00463478
0.00457232
0.00451023
0.0044486
0.00438756
0.00432719
0.00426761
0.00420893
0.00415124
0.00409463
0.00403922
0.0039851
0.00393235
0.00388108
0.00383136
0.00378328
0.00373693
0.00369239
0.00364972
0.00360901
0.00357032
0.00353372
0.00349928
0.00346704
0.00343706
0.00340941
0.00338411
0.00336122
0.00334077
0.00332281
0.00330735
0.00329442
0.00328406
0.00327626
0.00327106
0.00326845
0.00324473
0.0032474
0.00325271
0.00326066
0.00327122
0.00328439
0.00330013
0.00331842
0.00333922
0.0033625
0.00338822
0.00341632
0.00344678
0.00347952
0.00351451
0.00355167
0.00359095
0.00363227
0.00367558
0.00372078
0.00376782
0.0038166
0.00386705
0.00391907
0.00397259
0.0040275
0.00408371
0.00414112
0.00419965
0.00425917
0.0043196
0.00438083
0.00444275
0.00450526
0.00456823
0.00463158
0.00469518
0.00475892
0.00482269
0.00488638
0.00494988
0.00501307
0.00507584
0.00513809
0.00519971
0.00526058
0.00532059
0.00537964
0.00543763
0.00549446
0.00555001
0.00560419
0.0056569
0.00570806
0.00575757
0.00580533
0.00585127
0.00589529
0.00593733
0.00597731
0.00601515
0.00605078
0.00608415
0.00611519
0.00614384
0.00617006
0.00619379
0.00621499
0.00623363
0.00624967
0.00626308
0.00627384
0.00628193
0.00628733
0.00629003
0.00629004
0.00628737
0.006282
0.00627394
0.00626321
0.00624982
0.00623381
0.0062152
0.00619402
0.00617032
0.00614413
0.00611551
0.0060845
0.00605116
0.00601556
0.00597775
0.0059378
0.00589579
0.0058518
0.00580589
0.00575816
0.00570869
0.00565756
0.00560488
0.00555073
0.00549521
0.00543842
0.00538047
0.00532144
0.00526146
0.00520063
0.00513905
0.00507683
0.00501409
0.00495093
0.00488747
0.00482381
0.00476008
0.00469638
0.00463282
0.00456951
0.00450658
0.00444412
0.00438224
0.00432106
0.00426067
0.00420119
0.00414271
0.00408535
0.00402918
0.00397432
0.00392086
0.00386889
0.0038185
0.00376977
0.0037228
0.00367765
0.00363441
0.00359315
0.00355394
0.00351684
0.00348193
0.00344926
0.00341888
0.00339085
0.00336521
0.00334201
0.00332129
0.00330308
0.00328741
0.00327431
0.0032638
0.0032559
0.00325063
0.00324798
0.00322174
0.00322444
0.00322982
0.00323788
0.0032486
0.00326195
0.00327792
0.00329647
0.00331758
0.0033412
0.00336729
0.00339581
0.00342672
0.00345995
0.00349546
0.00353318
0.00357304
0.00361499
0.00365894
0.00370483
0.00375257
0.00380209
0.00385329
0.0039061
0.00396042
0.00401616
0.00407321
0.0041315
0.0041909
0.00425133
0.00431267
0.00437483
0.00443769
0.00450113
0.00456507
0.00462937
0.00469393
0.00475864
0.00482337
0.00488803
0.00495249
0.00501664
0.00508037
0.00514356
0.00520611
0.0052679
0.00532883
0.00538878
0.00544765
0.00550534
0.00556173
0.00561674
0.00567025
0.00572219
0.00577245
0.00582093
0.00586757
0.00591227
0.00595495
0.00599553
0.00603395
0.00607012
0.006104
0.00613551
0.0061646
0.00619121
0.00621531
0.00623683
0.00625576
0.00627204
0.00628565
0.00629658
0.00630479
0.00631027
0.00631301
0.00631303
0.00631031
0.00630486
0.00629667
0.00628578
0.00627219
0.00625593
0.00623704
0.00621554
0.00619148
0.00616489
0.00613583
0.00610435
0.0060705
0.00603436
0.00599597
0.00595542
0.00591277
0.0058681
0.0058215
0.00577304
0.00572281
0.00567091
0.00561742
0.00556245
0.00550609
0.00544844
0.0053896
0.00532968
0.00526879
0.00520703
0.00514451
0.00508135
0.00501765
0.00495354
0.00488911
0.00482449
0.00475979
0.00469512
0.0046306
0.00456634
0.00450245
0.00443904
0.00437623
0.00431412
0.00425282
0.00419243
0.00413307
0.00407484
0.00401783
0.00396214
0.00390787
0.00385512
0.00380396
0.0037545
0.00370681
0.00366098
0.00361709
0.00357521
0.00353541
0.00349775
0.00346231
0.00342915
0.00339831
0.00336986
0.00334384
0.00332029
0.00329925
0.00328077
0.00326486
0.00325157
0.0032409
0.00323289
0.00322753
0.00322485
0.00319602
0.00319876
0.00320423
0.00321241
0.00322329
0.00323686
0.00325308
0.00327193
0.00329338
0.00331738
0.0033439
0.00337289
0.0034043
0.00343808
0.00347417
0.00351251
0.00355303
0.00359567
0.00364035
0.00368699
0.00373552
0.00378586
0.00383791
0.0038916
0.00394682
0.00400348
0.00406149
0.00412074
0.00418113
0.00424256
0.00430493
0.00436812
0.00443202
0.00449652
0.00456152
0.00462689
0.00469253
0.00475832
0.00482413
0.00488987
0.0049554
0.00502063
0.00508542
0.00514967
0.00521326
0.00527609
0.00533803
0.00539898
0.00545884
0.00551749
0.00557483
0.00563075
0.00568517
0.00573797
0.00578907
0.00583837
0.00588579
0.00593123
0.00597463
0.00601589
0.00605495
0.00609173
0.00612617
0.00615821
0.00618779
0.00621485
0.00623934
0.00626123
0.00628047
0.00629703
0.00631087
0.00632198
0.00633032
0.0063359
0.00633869
0.0063387
0.00633594
0.00633039
0.00632207
0.006311
0.00629718
0.00628065
0.00626144
0.00623958
0.00621511
0.00618808
0.00615853
0.00612652
0.00609211
0.00605536
0.00601633
0.00597509
0.00593173
0.00588631
0.00583893
0.00578966
0.00573859
0.00568582
0.00563144
0.00557554
0.00551824
0.00545962
0.0053998
0.00533888
0.00527696
0.00521417
0.00515061
0.00508639
0.00502163
0.00495645
0.00489094
0.00482525
0.00475946
0.00469372
0.00462812
0.00456278
0.00449783
0.00443336
0.0043695
0.00430636
0.00424404
0.00418265
0.0041223
0.00406309
0.00400514
0.00394852
0.00389335
0.00383972
0.00378771
0.00373743
0.00368895
0.00364236
0.00359774
0.00355516
0.0035147
0.00347642
0.00344039
0.00340668
0.00337533
0.00334641
0.00331995
0.00329601
0.00327463
0.00325584
0.00323967
0.00322616
0.00321531
0.00320716
0.00320172
0.00319899
0.00316752
0.00317031
0.00317587
0.00318419
0.00319527
0.00320907
0.00322558
0.00324476
0.00326658
0.00329101
0.003318
0.0033475
0.00337948
0.00341386
0.0034506
0.00348962
0.00353087
0.00357428
0.00361976
0.00366725
0.00371665
0.0037679
0.00382089
0.00387554
0.00393176
0.00398944
0.0040485
0.00410882
0.00417031
0.00423285
0.00429635
0.00436068
0.00442574
0.00449141
0.00455759
0.00462415
0.00469098
0.00475795
0.00482497
0.0048919
0.00495862
0.00502503
0.005091
0.00515642
0.00522117
0.00528514
0.00534821
0.00541027
0.00547122
0.00553093
0.00558932
0.00564626
0.00570167
0.00575543
0.00580746
0.00585766
0.00590594
0.00595222
0.0059964
0.00603842
0.00607819
0.00611564
0.00615071
0.00618334
0.00621345
0.00624101
0.00626595
0.00628824
0.00630783
0.00632469
0.00633878
0.00635009
0.00635859
0.00636426
0.0063671
0.00636712
0.0063643
0.00635866
0.00635018
0.0063389
0.00632483
0.006308
0.00628844
0.00626618
0.00624127
0.00621374
0.00618365
0.00615106
0.00611602
0.00607859
0.00603885
0.00599687
0.00595271
0.00590647
0.00585822
0.00580805
0.00575605
0.00570231
0.00564694
0.00559003
0.00553168
0.00547199
0.00541108
0.00534905
0.00528601
0.00522208
0.00515736
0.00509197
0.00502603
0.00495966
0.00489297
0.00482607
0.0047591
0.00469215
0.00462536
0.00455884
0.00449271
0.00442707
0.00436205
0.00429776
0.00423431
0.00417181
0.00411037
0.00405009
0.00399108
0.00393344
0.00387727
0.00382267
0.00376973
0.00371853
0.00366918
0.00362175
0.00357632
0.00353297
0.00349178
0.00345281
0.00341613
0.00338181
0.00334989
0.00332045
0.00329351
0.00326914
0.00324737
0.00322825
0.00321179
0.00319803
0.00318699
0.00317869
0.00317315
0.00317037
0.0031362
0.00313904
0.0031447
0.00315319
0.00316447
0.00317853
0.00319535
0.0032149
0.00323714
0.00326204
0.00328955
0.00331962
0.00335221
0.00338726
0.0034247
0.00346449
0.00350653
0.00355078
0.00359715
0.00364555
0.00369592
0.00374816
0.00380219
0.0038579
0.00391521
0.00397402
0.00403423
0.00409573
0.00415842
0.00422218
0.00428691
0.0043525
0.00441883
0.00448579
0.00455326
0.00462113
0.00468926
0.00475755
0.00482588
0.00489412
0.00496215
0.00502986
0.00509713
0.00516383
0.00522985
0.00529507
0.00535938
0.00542266
0.0054848
0.00554569
0.00560522
0.00566329
0.00571978
0.0057746
0.00582765
0.00587884
0.00592807
0.00597526
0.00602031
0.00606315
0.00610371
0.0061419
0.00617766
0.00621092
0.00624163
0.00626973
0.00629516
0.00631789
0.00633787
0.00635506
0.00636943
0.00638096
0.00638963
0.00639541
0.00639831
0.00639832
0.00639545
0.00638969
0.00638105
0.00636955
0.0063552
0.00633804
0.00631809
0.0062954
0.00626999
0.00624192
0.00621124
0.006178
0.00614227
0.00610411
0.00606359
0.00602077
0.00597575
0.00592859
0.00587939
0.00582824
0.00577522
0.00572042
0.00566396
0.00560593
0.00554643
0.00548557
0.00542346
0.00536021
0.00529594
0.00523075
0.00516476
0.00509809
0.00503086
0.00496318
0.00489518
0.00482697
0.00475868
0.00469043
0.00462233
0.00455451
0.00448707
0.00442016
0.00435386
0.00428832
0.00422363
0.0041599
0.00409726
0.00403581
0.00397564
0.00391688
0.00385961
0.00380394
0.00374997
0.00369778
0.00364746
0.0035991
0.00355279
0.00350859
0.0034666
0.00342687
0.00338948
0.00335449
0.00332195
0.00329193
0.00326448
0.00323963
0.00321744
0.00319794
0.00318116
0.00316713
0.00315588
0.00314742
0.00314177
0.00313894
0.003102
0.0031049
0.00311068
0.00311933
0.00313084
0.0031452
0.00316236
0.00318231
0.003205
0.00323041
0.00325849
0.00328918
0.00332245
0.00335822
0.00339644
0.00343705
0.00347997
0.00352513
0.00357246
0.00362188
0.00367329
0.00372662
0.00378177
0.00383865
0.00389715
0.00395719
0.00401865
0.00408143
0.00414543
0.00421053
0.00427661
0.00434357
0.00441129
0.00447965
0.00454853
0.00461782
0.00468738
0.0047571
0.00482686
0.00489653
0.00496599
0.00503512
0.0051038
0.0051719
0.00523931
0.0053059
0.00537156
0.00543617
0.00549962
0.00556179
0.00562257
0.00568186
0.00573954
0.00579551
0.00584968
0.00590195
0.00595221
0.00600039
0.0060464
0.00609014
0.00613155
0.00617054
0.00620706
0.00624102
0.00627238
0.00630107
0.00632704
0.00635024
0.00637064
0.00638819
0.00640287
0.00641464
0.00642349
0.0064294
0.00643235
0.00643236
0.00642944
0.00642356
0.00641473
0.00640299
0.00638834
0.00637081
0.00635045
0.00632727
0.00630133
0.00627266
0.00624134
0.0062074
0.00617092
0.00613195
0.00609057
0.00604685
0.00600088
0.00595273
0.0059025
0.00585026
0.00579612
0.00574018
0.00568253
0.00562327
0.00556252
0.00550039
0.00543697
0.00537239
0.00530676
0.0052402
0.00517283
0.00510476
0.00503611
0.00496701
0.00489758
0.00482795
0.00475822
0.00468854
0.00461901
0.00454976
0.00448092
0.0044126
0.00434492
0.004278
0.00421196
0.0041469
0.00408295
0.00402021
0.00395879
0.0038988
0.00384034
0.0037835
0.0037284
0.00367512
0.00362375
0.00357439
0.00352711
0.00348199
0.00343912
0.00339856
0.00336039
0.00332467
0.00329146
0.00326081
0.00323279
0.00320743
0.00318477
0.00316486
0.00314774
0.00313342
0.00312193
0.0031133
0.00310753
0.00310464
0.00306486
0.00306782
0.00307373
0.00308257
0.00309433
0.003109
0.00312654
0.00314692
0.00317011
0.00319608
0.00322477
0.00325614
0.00329013
0.00332669
0.00336576
0.00340726
0.00345113
0.00349729
0.00354566
0.00359617
0.00364872
0.00370323
0.0037596
0.00381774
0.00387754
0.00393891
0.00400173
0.00406591
0.00413133
0.00419787
0.00426542
0.00433387
0.0044031
0.00447298
0.00454339
0.00461421
0.00468533
0.0047566
0.00482791
0.00489914
0.00497015
0.00504082
0.00511103
0.00518065
0.00524956
0.00531764
0.00538477
0.00545083
0.00551569
0.00557925
0.00564139
0.005702
0.00576097
0.0058182
0.00587358
0.00592702
0.00597841
0.00602767
0.0060747
0.00611942
0.00616176
0.00620163
0.00623896
0.00627369
0.00630574
0.00633508
0.00636163
0.00638535
0.00640621
0.00642415
0.00643916
0.00645119
0.00646024
0.00646628
0.0064693
0.00646931
0.00646632
0.00646031
0.00645129
0.00643928
0.0064243
0.00640638
0.00638555
0.00636186
0.00633533
0.00630603
0.006274
0.0062393
0.006202
0.00616216
0.00611985
0.00607515
0.00602815
0.00597892
0.00592756
0.00587416
0.00581881
0.00576161
0.00570267
0.00564209
0.00557998
0.00551645
0.00545162
0.00538559
0.0053185
0.00525045
0.00518157
0.00511198
0.0050418
0.00497116
0.00490018
0.00482899
0.00475772
0.00468647
0.0046154
0.00454461
0.00447423
0.00440439
0.00433521
0.0042668
0.00419928
0.00413278
0.00406741
0.00400327
0.00394049
0.00387916
0.0038194
0.00376131
0.00370498
0.00365052
0.00359802
0.00354755
0.00349923
0.00345311
0.00340929
0.00336784
0.00332882
0.00329231
0.00325836
0.00322704
0.00319839
0.00317247
0.00314931
0.00312896
0.00311146
0.00309682
0.00308508
0.00307626
0.00307036
0.00306741
0.00302473
0.00302775
0.00303379
0.00304284
0.00305487
0.00306988
0.00308782
0.00310868
0.00313241
0.00315897
0.00318833
0.00322043
0.00325521
0.00329262
0.0033326
0.00337507
0.00341996
0.0034672
0.0035167
0.00356839
0.00362217
0.00367795
0.00373564
0.00379514
0.00385634
0.00391915
0.00398344
0.00404913
0.00411608
0.00418418
0.00425332
0.00432338
0.00439423
0.00446575
0.00453782
0.00461031
0.0046831
0.00475605
0.00482904
0.00490194
0.00497463
0.00504697
0.00511883
0.00519009
0.00526063
0.00533032
0.00539903
0.00546665
0.00553304
0.0055981
0.00566171
0.00572376
0.00578412
0.0058427
0.0058994
0.00595409
0.0060067
0.00605712
0.00610527
0.00615105
0.00619439
0.0062352
0.00627342
0.00630897
0.00634179
0.00637181
0.00639899
0.00642328
0.00644463
0.006463
0.00647836
0.00649068
0.00649994
0.00650612
0.00650921
0.00650923
0.00650616
0.0065
0.00649077
0.00647848
0.00646314
0.0064448
0.00642348
0.00639922
0.00637207
0.00634207
0.00630928
0.00627376
0.00623557
0.00619479
0.00615148
0.00610572
0.00605761
0.00600721
0.00595463
0.00589997
0.0058433
0.00578475
0.00572442
0.00566241
0.00559883
0.0055338
0.00546743
0.00539985
0.00533117
0.00526151
0.005191
0.00511977
0.00504794
0.00497563
0.00490298
0.00483011
0.00475715
0.00468423
0.00461148
0.00453903
0.00446699
0.00439551
0.0043247
0.00425468
0.00418558
0.00411751
0.0040506
0.00398496
0.0039207
0.00385794
0.00379678
0.00373732
0.00367968
0.00362394
0.0035702
0.00351856
0.0034691
0.0034219
0.00337706
0.00333463
0.0032947
0.00325734
0.0032226
0.00319054
0.00316122
0.0031347
0.003111
0.00309018
0.00307226
0.00305728
0.00304527
0.00303624
0.00303021
0.00302718
0.00298151
0.00298461
0.0029908
0.00300007
0.00301239
0.00302776
0.00304614
0.00306751
0.00309182
0.00311903
0.00314911
0.00318199
0.00321762
0.00325595
0.0032969
0.00334041
0.0033864
0.0034348
0.00348552
0.00353848
0.00359358
0.00365073
0.00370984
0.0037708
0.00383351
0.00389787
0.00396375
0.00403105
0.00409965
0.00416943
0.00424028
0.00431207
0.00438467
0.00445796
0.00453181
0.00460609
0.00468068
0.00475544
0.00483024
0.00490495
0.00497943
0.00505356
0.00512721
0.00520024
0.00527253
0.00534395
0.00541436
0.00548366
0.0055517
0.00561838
0.00568357
0.00574716
0.00580902
0.00586906
0.00592716
0.00598322
0.00603714
0.00608881
0.00613816
0.00618508
0.0062295
0.00627133
0.0063105
0.00634693
0.00638057
0.00641134
0.0064392
0.00646409
0.00648597
0.0065048
0.00652054
0.00653317
0.00654266
0.00654899
0.00655216
0.00655217
0.00654903
0.00654272
0.00653326
0.00652066
0.00650494
0.00648614
0.00646429
0.00643942
0.00641159
0.00638084
0.00634724
0.00631083
0.00627169
0.00622989
0.0061855
0.00613861
0.00608929
0.00603764
0.00598376
0.00592773
0.00586966
0.00580965
0.00574781
0.00568426
0.0056191
0.00555245
0.00548444
0.00541517
0.00534479
0.0052734
0.00520114
0.00512814
0.00505453
0.00498043
0.00490597
0.0048313
0.00475653
0.00468181
0.00460725
0.00453301
0.00445919
0.00438594
0.00431337
0.00424162
0.00417081
0.00410107
0.00403251
0.00396525
0.0038994
0.00383509
0.00377242
0.0037115
0.00365243
0.00359532
0.00354026
0.00348735
0.00343667
0.00338831
0.00334236
0.00329889
0.00325798
0.0032197
0.0031841
0.00315126
0.00312122
0.00309404
0.00306976
0.00304843
0.00303007
0.00301473
0.00300242
0.00299317
0.00298699
0.00298389
0.00293515
0.00293833
0.00294468
0.00295418
0.00296682
0.00298258
0.00300143
0.00302334
0.00304827
0.00307618
0.00310702
0.00314075
0.0031773
0.0032166
0.00325861
0.00330323
0.0033504
0.00340004
0.00345207
0.00350638
0.0035629
0.00362153
0.00368216
0.00374469
0.00380902
0.00387503
0.00394261
0.00401165
0.00408202
0.0041536
0.00422628
0.00429992
0.0043744
0.00444959
0.00452535
0.00460155
0.00467807
0.00475477
0.0048315
0.00490815
0.00498457
0.00506062
0.00513618
0.00521111
0.00528527
0.00535854
0.00543079
0.00550189
0.0055717
0.00564011
0.005707
0.00577224
0.00583572
0.00589732
0.00595693
0.00601445
0.00606977
0.00612279
0.00617342
0.00622157
0.00626714
0.00631006
0.00635025
0.00638764
0.00642215
0.00645373
0.00648231
0.00650785
0.0065303
0.00654962
0.00656577
0.00657873
0.00658847
0.00659497
0.00659822
0.00659823
0.006595
0.00658853
0.00657882
0.00656589
0.00654976
0.00653047
0.00650805
0.00648253
0.00645398
0.00642243
0.00638794
0.00635059
0.00631042
0.00626753
0.00622199
0.00617387
0.00612327
0.00607027
0.00601498
0.00595749
0.00589791
0.00583634
0.00577289
0.00570768
0.00564082
0.00557244
0.00550266
0.00543159
0.00535938
0.00528614
0.005212
0.0051371
0.00506158
0.00498555
0.00490917
0.00483256
0.00475585
0.00467919
0.0046027
0.00452653
0.0044508
0.00437565
0.00430121
0.00422761
0.00415497
0.00408342
0.00401308