/*--------------------------------*- C++ -*----------------------------------*\
| =========                 |                                                 |
| \\      /  F ield         | OpenFOAM: The Open Source CFD Toolbox           |
|  \\    /   O peration     | Version:  2106                                  |
|   \\  /    A nd           | Website:  www.openfoam.com                      |
|    \\/     M anipulation  |                                                 |
\*---------------------------------------------------------------------------*/
FoamFile
{
    version     2.0;
    format      ascii;
    arch        "LSB;label=32;scalar=64";
    class       surfaceScalarField;
    location    "3.6";
    object      phi_0;
}
// * * * * * * * * * * * * * * * * * * * * * * * * * * * * * * * * * * * * * //

dimensions      [0 3 -1 0 0 0 0];

oriented        oriented;

internalField   nonuniform List<scalar> 
179250
(
-9.16349e-07
9.16357e-07
-1.83049e-06
9.14144e-07
-2.74101e-06
9.10518e-07
-3.64644e-06
9.05432e-07
-4.5453e-06
8.98855e-07
-5.43607e-06
8.90772e-07
-6.31725e-06
8.81181e-07
-7.18734e-06
8.70084e-07
-8.04483e-06
8.57492e-07
-8.88825e-06
8.43422e-07
-9.71614e-06
8.27891e-07
-1.05271e-05
8.10924e-07
-1.13196e-05
7.92548e-07
-1.20924e-05
7.72791e-07
-1.28441e-05
7.51688e-07
-1.35734e-05
7.29272e-07
-1.42789e-05
7.05581e-07
-1.49596e-05
6.80657e-07
-1.56141e-05
6.54541e-07
-1.62414e-05
6.27278e-07
-1.68403e-05
5.98914e-07
-1.74098e-05
5.69499e-07
-1.79489e-05
5.39084e-07
-1.84566e-05
5.07719e-07
-1.89321e-05
4.7546e-07
-1.93745e-05
4.42363e-07
-1.97829e-05
4.08484e-07
-2.01568e-05
3.73883e-07
-2.04954e-05
3.38619e-07
-2.07982e-05
3.02753e-07
-2.10645e-05
2.66348e-07
-2.1294e-05
2.29467e-07
-2.14862e-05
1.92175e-07
-2.16407e-05
1.54536e-07
-2.17573e-05
1.16616e-07
-2.18358e-05
7.84812e-08
-2.1876e-05
4.01986e-08
-2.18779e-05
1.83505e-09
-2.18413e-05
-3.65423e-08
-2.17664e-05
-7.48661e-08
-2.16534e-05
-1.13069e-07
-2.15023e-05
-1.51083e-07
-2.13135e-05
-1.88843e-07
-2.10872e-05
-2.26281e-07
-2.08238e-05
-2.63332e-07
-2.05239e-05
-2.99929e-07
-2.01879e-05
-3.36009e-07
-1.98164e-05
-3.71507e-07
-1.941e-05
-4.0636e-07
-1.89695e-05
-4.40507e-07
-1.84956e-05
-4.73887e-07
-1.79892e-05
-5.06441e-07
-1.74511e-05
-5.38111e-07
-1.68822e-05
-5.6884e-07
-1.62837e-05
-5.98574e-07
-1.56564e-05
-6.2726e-07
-1.50016e-05
-6.54846e-07
-1.43203e-05
-6.81284e-07
-1.36138e-05
-7.06525e-07
-1.28832e-05
-7.30525e-07
-1.213e-05
-7.53242e-07
-1.13554e-05
-7.74633e-07
-1.05607e-05
-7.94661e-07
-9.74741e-06
-8.1329e-07
-8.91692e-06
-8.30487e-07
-8.0707e-06
-8.4622e-07
-7.21024e-06
-8.60462e-07
-6.33705e-06
-8.73187e-07
-5.45268e-06
-8.84371e-07
-4.55868e-06
-8.93996e-07
-3.65664e-06
-9.02042e-07
-2.74814e-06
-9.08497e-07
-1.83479e-06
-9.13349e-07
-9.18207e-07
-9.16588e-07
1.97794e-13
-9.18207e-07
9.18208e-07
-9.18207e-07
1.8348e-06
-9.16588e-07
2.74814e-06
-9.13349e-07
3.65664e-06
-9.08497e-07
4.55868e-06
-9.02042e-07
5.45268e-06
-8.93996e-07
6.33705e-06
-8.84371e-07
7.21024e-06
-8.73187e-07
8.0707e-06
-8.60462e-07
8.91692e-06
-8.4622e-07
9.74741e-06
-8.30487e-07
1.05607e-05
-8.1329e-07
1.13554e-05
-7.94661e-07
1.213e-05
-7.74633e-07
1.28832e-05
-7.53242e-07
1.36138e-05
-7.30525e-07
1.43203e-05
-7.06525e-07
1.50016e-05
-6.81284e-07
1.56564e-05
-6.54846e-07
1.62837e-05
-6.2726e-07
1.68822e-05
-5.98574e-07
1.74511e-05
-5.6884e-07
1.79892e-05
-5.38111e-07
1.84956e-05
-5.06441e-07
1.89695e-05
-4.73887e-07
1.941e-05
-4.40507e-07
1.98164e-05
-4.0636e-07
2.01879e-05
-3.71507e-07
2.05239e-05
-3.36009e-07
2.08238e-05
-2.99929e-07
2.10872e-05
-2.63332e-07
2.13135e-05
-2.26281e-07
2.15023e-05
-1.88843e-07
2.16534e-05
-1.51084e-07
2.17664e-05
-1.13069e-07
2.18413e-05
-7.48661e-08
2.18779e-05
-3.65423e-08
2.1876e-05
1.83503e-09
2.18358e-05
4.01986e-08
2.17573e-05
7.84812e-08
2.16407e-05
1.16616e-07
2.14862e-05
1.54536e-07
2.1294e-05
1.92175e-07
2.10645e-05
2.29467e-07
2.07982e-05
2.66348e-07
2.04954e-05
3.02753e-07
2.01568e-05
3.38619e-07
1.97829e-05
3.73883e-07
1.93745e-05
4.08484e-07
1.89321e-05
4.42363e-07
1.84566e-05
4.7546e-07
1.79489e-05
5.07719e-07
1.74098e-05
5.39084e-07
1.68403e-05
5.69499e-07
1.62414e-05
5.98914e-07
1.56141e-05
6.27278e-07
1.49596e-05
6.54541e-07
1.42789e-05
6.80657e-07
1.35734e-05
7.05581e-07
1.28441e-05
7.29272e-07
1.20924e-05
7.51688e-07
1.13196e-05
7.72791e-07
1.05271e-05
7.92548e-07
9.71614e-06
8.10924e-07
8.88825e-06
8.27891e-07
8.04483e-06
8.43422e-07
7.18734e-06
8.57492e-07
6.31725e-06
8.70084e-07
5.43607e-06
8.81181e-07
4.5453e-06
8.90773e-07
3.64644e-06
8.98855e-07
2.74101e-06
9.05432e-07
1.8305e-06
9.10517e-07
9.16353e-07
9.14143e-07
9.16353e-07
-9.1856e-07
1.83492e-06
-1.83491e-06
1.83049e-06
-2.7476e-06
1.82321e-06
-3.65518e-06
1.81301e-06
-4.55616e-06
1.79984e-06
-5.44905e-06
1.78366e-06
-6.33232e-06
1.76445e-06
-7.20446e-06
1.74223e-06
-8.06399e-06
1.71702e-06
-8.90942e-06
1.68885e-06
-9.73928e-06
1.65775e-06
-1.05521e-05
1.62378e-06
-1.13466e-05
1.58698e-06
-1.21212e-05
1.54743e-06
-1.28747e-05
1.50517e-06
-1.36057e-05
1.46028e-06
-1.4313e-05
1.41285e-06
-1.49952e-05
1.36294e-06
-1.56514e-05
1.31065e-06
-1.62801e-05
1.25606e-06
-1.68805e-05
1.19926e-06
-1.74513e-05
1.14036e-06
-1.79917e-05
1.07946e-06
-1.85007e-05
1.01666e-06
-1.89773e-05
9.52064e-07
-1.94207e-05
8.85791e-07
-1.98302e-05
8.17954e-07
-2.0205e-05
7.48669e-07
-2.05444e-05
6.78057e-07
-2.08479e-05
6.0624e-07
-2.11149e-05
5.33344e-07
-2.13449e-05
4.59495e-07
-2.15375e-05
3.84821e-07
-2.16925e-05
3.09453e-07
-2.18094e-05
2.33523e-07
-2.18881e-05
1.57163e-07
-2.19284e-05
8.05061e-08
-2.19302e-05
3.68708e-09
-2.18936e-05
-7.31596e-08
-2.18186e-05
-1.49899e-07
-2.17052e-05
-2.26396e-07
-2.15538e-05
-3.02517e-07
-2.13645e-05
-3.78127e-07
-2.11377e-05
-4.53093e-07
-2.08738e-05
-5.27283e-07
-2.05731e-05
-6.00566e-07
-2.02363e-05
-6.72812e-07
-1.98639e-05
-7.43894e-07
-1.94566e-05
-8.13685e-07
-1.9015e-05
-8.82062e-07
-1.854e-05
-9.48903e-07
-1.80324e-05
-1.01409e-06
-1.7493e-05
-1.07751e-06
-1.69228e-05
-1.13904e-06
-1.63228e-05
-1.19858e-06
-1.5694e-05
-1.25602e-06
-1.50376e-05
-1.31126e-06
-1.43547e-05
-1.3642e-06
-1.36465e-05
-1.41474e-06
-1.29142e-05
-1.4628e-06
-1.21592e-05
-1.50829e-06
-1.13827e-05
-1.55112e-06
-1.05861e-05
-1.59123e-06
-9.77085e-06
-1.62853e-06
-8.93837e-06
-1.66297e-06
-8.09011e-06
-1.69447e-06
-7.22758e-06
-1.72299e-06
-6.3523e-06
-1.74847e-06
-5.4658e-06
-1.77087e-06
-4.56965e-06
-1.79014e-06
-3.66544e-06
-1.80625e-06
-2.75476e-06
-1.81918e-06
-1.83921e-06
-1.82889e-06
-9.20418e-07
-1.83538e-06
1.64626e-13
-1.83863e-06
9.20418e-07
-1.83863e-06
1.83921e-06
-1.83538e-06
2.75476e-06
-1.82889e-06
3.66544e-06
-1.81918e-06
4.56965e-06
-1.80625e-06
5.4658e-06
-1.79014e-06
6.3523e-06
-1.77087e-06
7.22758e-06
-1.74847e-06
8.09011e-06
-1.72299e-06
8.93837e-06
-1.69447e-06
9.77085e-06
-1.66297e-06
1.05861e-05
-1.62853e-06
1.13827e-05
-1.59123e-06
1.21592e-05
-1.55112e-06
1.29142e-05
-1.50829e-06
1.36465e-05
-1.4628e-06
1.43547e-05
-1.41474e-06
1.50376e-05
-1.3642e-06
1.5694e-05
-1.31126e-06
1.63228e-05
-1.25602e-06
1.69228e-05
-1.19858e-06
1.7493e-05
-1.13904e-06
1.80324e-05
-1.07751e-06
1.854e-05
-1.01409e-06
1.9015e-05
-9.48903e-07
1.94566e-05
-8.82062e-07
1.98639e-05
-8.13685e-07
2.02363e-05
-7.43894e-07
2.05731e-05
-6.72812e-07
2.08738e-05
-6.00566e-07
2.11377e-05
-5.27283e-07
2.13645e-05
-4.53093e-07
2.15538e-05
-3.78127e-07
2.17052e-05
-3.02517e-07
2.18186e-05
-2.26396e-07
2.18936e-05
-1.49899e-07
2.19302e-05
-7.31596e-08
2.19284e-05
3.68704e-09
2.18881e-05
8.0506e-08
2.18094e-05
1.57163e-07
2.16925e-05
2.33523e-07
2.15375e-05
3.09453e-07
2.13449e-05
3.84821e-07
2.11149e-05
4.59495e-07
2.08479e-05
5.33344e-07
2.05444e-05
6.0624e-07
2.0205e-05
6.78057e-07
1.98302e-05
7.48669e-07
1.94207e-05
8.17954e-07
1.89773e-05
8.85791e-07
1.85007e-05
9.52064e-07
1.79917e-05
1.01666e-06
1.74513e-05
1.07946e-06
1.68805e-05
1.14036e-06
1.62801e-05
1.19926e-06
1.56514e-05
1.25606e-06
1.49952e-05
1.31065e-06
1.4313e-05
1.36294e-06
1.36057e-05
1.41285e-06
1.28747e-05
1.46028e-06
1.21212e-05
1.50517e-06
1.13466e-05
1.54742e-06
1.05521e-05
1.58698e-06
9.73928e-06
1.62378e-06
8.90942e-06
1.65775e-06
8.06399e-06
1.68885e-06
7.20447e-06
1.71702e-06
6.33232e-06
1.74223e-06
5.44905e-06
1.76445e-06
4.55616e-06
1.78366e-06
3.65518e-06
1.79984e-06
2.7476e-06
1.81301e-06
1.83491e-06
1.82321e-06
9.18562e-07
1.83049e-06
1.83491e-06
-9.22189e-07
2.75711e-06
-1.84217e-06
2.75048e-06
-2.75849e-06
2.73952e-06
-3.66968e-06
2.7242e-06
-4.57423e-06
2.7044e-06
-5.47065e-06
2.68008e-06
-6.35742e-06
2.65122e-06
-7.23302e-06
2.61783e-06
-8.09595e-06
2.57995e-06
-8.94473e-06
2.53762e-06
-9.77788e-06
2.4909e-06
-1.0594e-05
2.43986e-06
-1.13915e-05
2.38457e-06
-1.21693e-05
2.32513e-06
-1.29257e-05
2.26164e-06
-1.36596e-05
2.1942e-06
-1.43697e-05
2.12293e-06
-1.50547e-05
2.04794e-06
-1.57134e-05
1.96937e-06
-1.63447e-05
1.88734e-06
-1.69475e-05
1.80201e-06
-1.75206e-05
1.71351e-06
-1.80632e-05
1.622e-06
-1.85741e-05
1.52763e-06
-1.90526e-05
1.43058e-06
-1.94978e-05
1.331e-06
-1.9909e-05
1.22907e-06
-2.02853e-05
1.12496e-06
-2.06261e-05
1.01886e-06
-2.09308e-05
9.10953e-07
-2.11989e-05
8.01421e-07
-2.14298e-05
6.90457e-07
-2.16232e-05
5.78255e-07
-2.17788e-05
4.65009e-07
-2.18962e-05
3.50917e-07
-2.19752e-05
2.36179e-07
-2.20157e-05
1.20996e-07
-2.20176e-05
5.56799e-09
-2.19808e-05
-1.09901e-07
-2.19055e-05
-2.2521e-07
-2.17918e-05
-3.40154e-07
-2.16398e-05
-4.54533e-07
-2.14497e-05
-5.68145e-07
-2.1222e-05
-6.8079e-07
-2.09571e-05
-7.92268e-07
-2.06552e-05
-9.02384e-07
-2.03171e-05
-1.01094e-06
-1.99433e-05
-1.11775e-06
-1.95343e-05
-1.22262e-06
-1.9091e-05
-1.32536e-06
-1.86141e-05
-1.4258e-06
-1.81045e-05
-1.52375e-06
-1.75629e-05
-1.61904e-06
-1.69905e-05
-1.7115e-06
-1.63881e-05
-1.80097e-06
-1.57568e-05
-1.88728e-06
-1.50978e-05
-1.97029e-06
-1.44121e-05
-2.04984e-06
-1.37011e-05
-2.12579e-06
-1.29659e-05
-2.198e-06
-1.22078e-05
-2.26635e-06
-1.14282e-05
-2.33072e-06
-1.06285e-05
-2.39098e-06
-9.80998e-06
-2.44704e-06
-8.97416e-06
-2.49878e-06
-8.12252e-06
-2.54612e-06
-7.25653e-06
-2.58898e-06
-6.37774e-06
-2.62726e-06
-5.4877e-06
-2.66092e-06
-4.58796e-06
-2.68988e-06
-3.68013e-06
-2.71409e-06
-2.76579e-06
-2.73351e-06
-1.84658e-06
-2.74811e-06
-9.24106e-07
-2.75785e-06
1.43115e-13
-2.76273e-06
9.24106e-07
-2.76273e-06
1.84658e-06
-2.75785e-06
2.7658e-06
-2.74811e-06
3.68013e-06
-2.73351e-06
4.58796e-06
-2.71409e-06
5.4877e-06
-2.68988e-06
6.37774e-06
-2.66092e-06
7.25653e-06
-2.62726e-06
8.12252e-06
-2.58898e-06
8.97417e-06
-2.54612e-06
9.80998e-06
-2.49878e-06
1.06285e-05
-2.44704e-06
1.14282e-05
-2.39098e-06
1.22078e-05
-2.33072e-06
1.29659e-05
-2.26635e-06
1.37011e-05
-2.198e-06
1.44121e-05
-2.12579e-06
1.50978e-05
-2.04984e-06
1.57568e-05
-1.97029e-06
1.63881e-05
-1.88728e-06
1.69905e-05
-1.80097e-06
1.75629e-05
-1.7115e-06
1.81045e-05
-1.61904e-06
1.86141e-05
-1.52375e-06
1.9091e-05
-1.4258e-06
1.95343e-05
-1.32536e-06
1.99433e-05
-1.22262e-06
2.03171e-05
-1.11775e-06
2.06552e-05
-1.01094e-06
2.09571e-05
-9.02384e-07
2.1222e-05
-7.92268e-07
2.14497e-05
-6.8079e-07
2.16398e-05
-5.68145e-07
2.17918e-05
-4.54533e-07
2.19055e-05
-3.40154e-07
2.19808e-05
-2.2521e-07
2.20176e-05
-1.09901e-07
2.20157e-05
5.56796e-09
2.19752e-05
1.20995e-07
2.18962e-05
2.36179e-07
2.17788e-05
3.50917e-07
2.16232e-05
4.65009e-07
2.14298e-05
5.78255e-07
2.11989e-05
6.90457e-07
2.09308e-05
8.01421e-07
2.06261e-05
9.10953e-07
2.02853e-05
1.01886e-06
1.9909e-05
1.12496e-06
1.94978e-05
1.22907e-06
1.90526e-05
1.331e-06
1.85741e-05
1.43058e-06
1.80632e-05
1.52763e-06
1.75206e-05
1.622e-06
1.69475e-05
1.71351e-06
1.63447e-05
1.80201e-06
1.57134e-05
1.88734e-06
1.50547e-05
1.96937e-06
1.43697e-05
2.04794e-06
1.36596e-05
2.12293e-06
1.29257e-05
2.1942e-06
1.21693e-05
2.26164e-06
1.13915e-05
2.32513e-06
1.0594e-05
2.38457e-06
9.77788e-06
2.43986e-06
8.94473e-06
2.4909e-06
8.09595e-06
2.53762e-06
7.23302e-06
2.57995e-06
6.35742e-06
2.61783e-06
5.47065e-06
2.65122e-06
4.57423e-06
2.68008e-06
3.66968e-06
2.7044e-06
2.75849e-06
2.7242e-06
1.84218e-06
2.73952e-06
9.2219e-07
2.75047e-06
2.7571e-06
-9.27295e-07
3.6844e-06
-1.85239e-06
3.67557e-06
-2.7738e-06
3.66093e-06
-3.69004e-06
3.64044e-06
-4.59962e-06
3.61398e-06
-5.50102e-06
3.58147e-06
-6.39272e-06
3.54291e-06
-7.27318e-06
3.4983e-06
-8.14091e-06
3.44768e-06
-8.9944e-06
3.39112e-06
-9.83218e-06
3.32868e-06
-1.06528e-05
3.26047e-06
-1.14548e-05
3.1866e-06
-1.22369e-05
3.10717e-06
-1.29975e-05
3.02233e-06
-1.37355e-05
2.93221e-06
-1.44496e-05
2.83696e-06
-1.51384e-05
2.73676e-06
-1.58008e-05
2.63176e-06
-1.64356e-05
2.52215e-06
-1.70417e-05
2.40812e-06
-1.76181e-05
2.28986e-06
-1.81636e-05
2.16757e-06
-1.86775e-05
2.04147e-06
-1.91587e-05
1.91178e-06
-1.96064e-05
1.77871e-06
-2.00198e-05
1.64249e-06
-2.03982e-05
1.50338e-06
-2.0741e-05
1.36159e-06
-2.10474e-05
1.21739e-06
-2.1317e-05
1.07102e-06
-2.15493e-05
9.22737e-07
-2.17438e-05
7.72797e-07
-2.19003e-05
6.21462e-07
-2.20184e-05
4.68997e-07
-2.20979e-05
3.15667e-07
-2.21386e-05
1.61742e-07
-2.21405e-05
7.49054e-09
-2.21036e-05
-1.46817e-07
-2.20279e-05
-3.0091e-07
-2.19135e-05
-4.54517e-07
-2.17607e-05
-6.07369e-07
-2.15697e-05
-7.59196e-07
-2.13407e-05
-9.0973e-07
-2.10743e-05
-1.05871e-06
-2.07708e-05
-1.20586e-06
-2.04308e-05
-1.35094e-06
-2.00549e-05
-1.49367e-06
-1.96437e-05
-1.63382e-06
-1.91979e-05
-1.77112e-06
-1.87184e-05
-1.90535e-06
-1.82059e-05
-2.03625e-06
-1.76613e-05
-2.16359e-06
-1.70857e-05
-2.28716e-06
-1.64799e-05
-2.40672e-06
-1.58451e-05
-2.52207e-06
-1.51824e-05
-2.633e-06
-1.4493e-05
-2.73931e-06
-1.37779e-05
-2.8408e-06
-1.30386e-05
-2.93731e-06
-1.22763e-05
-3.02866e-06
-1.14924e-05
-3.11468e-06
-1.06881e-05
-3.19522e-06
-9.86504e-06
-3.27013e-06
-9.02454e-06
-3.33928e-06
-8.16812e-06
-3.40255e-06
-7.29728e-06
-3.45982e-06
-6.41356e-06
-3.51099e-06
-5.51851e-06
-3.55596e-06
-4.61373e-06
-3.59466e-06
-3.70079e-06
-3.62702e-06
-2.78133e-06
-3.65298e-06
-1.85695e-06
-3.67249e-06
-9.29296e-07
-3.68551e-06
1.3043e-13
-3.69203e-06
9.29297e-07
-3.69203e-06
1.85695e-06
-3.68551e-06
2.78133e-06
-3.67249e-06
3.7008e-06
-3.65298e-06
4.61373e-06
-3.62702e-06
5.51851e-06
-3.59466e-06
6.41356e-06
-3.55596e-06
7.29728e-06
-3.51099e-06
8.16812e-06
-3.45982e-06
9.02454e-06
-3.40255e-06
9.86504e-06
-3.33928e-06
1.06881e-05
-3.27013e-06
1.14924e-05
-3.19522e-06
1.22763e-05
-3.11468e-06
1.30386e-05
-3.02866e-06
1.37779e-05
-2.93731e-06
1.4493e-05
-2.8408e-06
1.51824e-05
-2.73931e-06
1.58451e-05
-2.633e-06
1.64799e-05
-2.52207e-06
1.70857e-05
-2.40672e-06
1.76613e-05
-2.28716e-06
1.82059e-05
-2.16359e-06
1.87184e-05
-2.03625e-06
1.91979e-05
-1.90535e-06
1.96437e-05
-1.77112e-06
2.00549e-05
-1.63382e-06
2.04308e-05
-1.49367e-06
2.07708e-05
-1.35094e-06
2.10743e-05
-1.20586e-06
2.13407e-05
-1.05871e-06
2.15697e-05
-9.0973e-07
2.17607e-05
-7.59195e-07
2.19135e-05
-6.07369e-07
2.20279e-05
-4.54517e-07
2.21036e-05
-3.0091e-07
2.21405e-05
-1.46817e-07
2.21386e-05
7.49051e-09
2.20979e-05
1.61742e-07
2.20184e-05
3.15667e-07
2.19003e-05
4.68997e-07
2.17438e-05
6.21462e-07
2.15493e-05
7.72797e-07
2.1317e-05
9.22737e-07
2.10474e-05
1.07102e-06
2.0741e-05
1.21739e-06
2.03982e-05
1.36159e-06
2.00198e-05
1.50338e-06
1.96064e-05
1.64249e-06
1.91587e-05
1.77871e-06
1.86775e-05
1.91178e-06
1.81636e-05
2.04147e-06
1.76181e-05
2.16757e-06
1.70417e-05
2.28986e-06
1.64356e-05
2.40812e-06
1.58008e-05
2.52215e-06
1.51384e-05
2.63176e-06
1.44496e-05
2.73676e-06
1.37355e-05
2.83696e-06
1.29975e-05
2.93221e-06
1.22369e-05
3.02233e-06
1.14548e-05
3.10717e-06
1.06528e-05
3.1866e-06
9.83218e-06
3.26047e-06
8.9944e-06
3.32868e-06
8.14091e-06
3.39112e-06
7.27318e-06
3.44768e-06
6.39272e-06
3.4983e-06
5.50102e-06
3.54291e-06
4.59963e-06
3.58147e-06
3.69004e-06
3.61398e-06
2.7738e-06
3.64044e-06
1.85239e-06
3.66093e-06
9.27295e-07
3.67557e-06
3.6844e-06
-9.3393e-07
4.61833e-06
-1.86564e-06
4.60728e-06
-2.79366e-06
4.58894e-06
-3.71647e-06
4.56326e-06
-4.63257e-06
4.53008e-06
-5.54043e-06
4.48934e-06
-6.43852e-06
4.441e-06
-7.3253e-06
4.38508e-06
-8.19925e-06
4.32163e-06
-9.05886e-06
4.25073e-06
-9.90266e-06
4.17247e-06
-1.07292e-05
4.08698e-06
-1.15369e-05
3.99438e-06
-1.23246e-05
3.89483e-06
-1.30908e-05
3.78848e-06
-1.38341e-05
3.67552e-06
-1.45532e-05
3.55614e-06
-1.5247e-05
3.43054e-06
-1.59142e-05
3.29893e-06
-1.65536e-05
3.16154e-06
-1.71641e-05
3.01861e-06
-1.77446e-05
2.87037e-06
-1.82941e-05
2.71709e-06
-1.88117e-05
2.55903e-06
-1.92963e-05
2.39646e-06
-1.97473e-05
2.22966e-06
-2.01637e-05
2.05893e-06
-2.05449e-05
1.88455e-06
-2.08901e-05
1.70683e-06
-2.11988e-05
1.52607e-06
-2.14704e-05
1.3426e-06
-2.17044e-05
1.15673e-06
-2.19004e-05
9.68779e-07
-2.2058e-05
7.79082e-07
-2.2177e-05
5.87967e-07
-2.22571e-05
3.95769e-07
-2.22981e-05
2.02824e-07
-2.23001e-05
9.46839e-09
-2.2263e-05
-1.83958e-07
-2.21868e-05
-3.77115e-07
-2.20716e-05
-5.69664e-07
-2.19177e-05
-7.61267e-07
-2.17253e-05
-9.51585e-07
-2.14948e-05
-1.14028e-06
-2.12265e-05
-1.32703e-06
-2.09208e-05
-1.5115e-06
-2.05784e-05
-1.69335e-06
-2.01998e-05
-1.87228e-06
-1.97857e-05
-2.04796e-06
-1.93367e-05
-2.22007e-06
-1.88537e-05
-2.38833e-06
-1.83376e-05
-2.55242e-06
-1.77891e-05
-2.71206e-06
-1.72093e-05
-2.86695e-06
-1.65992e-05
-3.01683e-06
-1.59598e-05
-3.16143e-06
-1.52924e-05
-3.30048e-06
-1.45979e-05
-3.43375e-06
-1.38777e-05
-3.56098e-06
-1.31331e-05
-3.68197e-06
-1.23653e-05
-3.79647e-06
-1.15756e-05
-3.90431e-06
-1.07656e-05
-4.00527e-06
-9.93654e-06
-4.09917e-06
-9.08996e-06
-4.18586e-06
-8.22733e-06
-4.26517e-06
-7.35018e-06
-4.33697e-06
-6.46006e-06
-4.40111e-06
-5.55853e-06
-4.45749e-06
-4.64718e-06
-4.50601e-06
-3.72763e-06
-4.54657e-06
-2.8015e-06
-4.57911e-06
-1.87042e-06
-4.60357e-06
-9.36036e-07
-4.61989e-06
1.19238e-13
-4.62806e-06
9.36036e-07
-4.62806e-06
1.87042e-06
-4.61989e-06
2.8015e-06
-4.60357e-06
3.72763e-06
-4.57911e-06
4.64718e-06
-4.54657e-06
5.55853e-06
-4.50601e-06
6.46006e-06
-4.45749e-06
7.35018e-06
-4.40111e-06
8.22733e-06
-4.33697e-06
9.08996e-06
-4.26517e-06
9.93654e-06
-4.18586e-06
1.07656e-05
-4.09917e-06
1.15756e-05
-4.00527e-06
1.23653e-05
-3.90431e-06
1.31331e-05
-3.79647e-06
1.38777e-05
-3.68197e-06
1.45979e-05
-3.56098e-06
1.52924e-05
-3.43375e-06
1.59598e-05
-3.30048e-06
1.65992e-05
-3.16143e-06
1.72093e-05
-3.01683e-06
1.77891e-05
-2.86695e-06
1.83376e-05
-2.71206e-06
1.88537e-05
-2.55242e-06
1.93367e-05
-2.38833e-06
1.97857e-05
-2.22007e-06
2.01998e-05
-2.04796e-06
2.05784e-05
-1.87228e-06
2.09208e-05
-1.69335e-06
2.12265e-05
-1.5115e-06
2.14948e-05
-1.32703e-06
2.17253e-05
-1.14028e-06
2.19177e-05
-9.51585e-07
2.20716e-05
-7.61267e-07
2.21868e-05
-5.69664e-07
2.2263e-05
-3.77115e-07
2.23001e-05
-1.83958e-07
2.22981e-05
9.46835e-09
2.22571e-05
2.02824e-07
2.2177e-05
3.95769e-07
2.2058e-05
5.87967e-07
2.19004e-05
7.79082e-07
2.17044e-05
9.68779e-07
2.14704e-05
1.15673e-06
2.11988e-05
1.3426e-06
2.08901e-05
1.52607e-06
2.05449e-05
1.70683e-06
2.01637e-05
1.88455e-06
1.97473e-05
2.05893e-06
1.92963e-05
2.22966e-06
1.88117e-05
2.39646e-06
1.82941e-05
2.55903e-06
1.77446e-05
2.71709e-06
1.71641e-05
2.87037e-06
1.65536e-05
3.01861e-06
1.59142e-05
3.16154e-06
1.5247e-05
3.29893e-06
1.45532e-05
3.43054e-06
1.38341e-05
3.55614e-06
1.30908e-05
3.67552e-06
1.23246e-05
3.78848e-06
1.15369e-05
3.89483e-06
1.07292e-05
3.99438e-06
9.90266e-06
4.08698e-06
9.05886e-06
4.17247e-06
8.19925e-06
4.25073e-06
7.3253e-06
4.32163e-06
6.43852e-06
4.38508e-06
5.54044e-06
4.441e-06
4.63257e-06
4.48934e-06
3.71647e-06
4.53008e-06
2.79366e-06
4.56326e-06
1.86565e-06
4.58894e-06
9.3393e-07
4.60728e-06
4.61833e-06
-9.42129e-07
5.56046e-06
-1.88202e-06
5.54718e-06
-2.81819e-06
5.52511e-06
-3.74911e-06
5.49418e-06
-4.67327e-06
5.45424e-06
-5.58911e-06
5.40518e-06
-6.49509e-06
5.34698e-06
-7.38967e-06
5.27965e-06
-8.2713e-06
5.20327e-06
-9.13848e-06
5.11791e-06
-9.9897e-06
5.02369e-06
-1.08235e-05
4.92076e-06
-1.16384e-05
4.80928e-06
-1.2433e-05
4.68942e-06
-1.32059e-05
4.56139e-06
-1.39558e-05
4.42539e-06
-1.46813e-05
4.28166e-06
-1.53812e-05
4.13045e-06
-1.60543e-05
3.972e-06
-1.66993e-05
3.80659e-06
-1.73152e-05
3.6345e-06
-1.79008e-05
3.45603e-06
-1.84552e-05
3.27149e-06
-1.89774e-05
3.08118e-06
-1.94664e-05
2.88546e-06
-1.99214e-05
2.68464e-06
-2.03415e-05
2.47907e-06
-2.07261e-05
2.26912e-06
-2.10744e-05
2.05515e-06
-2.13858e-05
1.83752e-06
-2.16599e-05
1.61662e-06
-2.1896e-05
1.39283e-06
-2.20937e-05
1.16654e-06
-2.22528e-05
9.38144e-07
-2.23729e-05
7.0804e-07
-2.24537e-05
4.76631e-07
-2.24952e-05
2.4432e-07
-2.24973e-05
1.15159e-08
-2.24599e-05
-2.21375e-07
-2.2383e-05
-4.53942e-07
-2.22669e-05
-6.85779e-07
-2.21117e-05
-9.16476e-07
-2.19177e-05
-1.14563e-06
-2.16851e-05
-1.37283e-06
-2.14145e-05
-1.59768e-06
-2.11062e-05
-1.81979e-06
-2.07608e-05
-2.03876e-06
-2.03789e-05
-2.25419e-06
-1.99611e-05
-2.46572e-06
-1.95082e-05
-2.67297e-06
-1.9021e-05
-2.87556e-06
-1.85003e-05
-3.07314e-06
-1.7947e-05
-3.26535e-06
-1.73621e-05
-3.45186e-06
-1.67466e-05
-3.63233e-06
-1.61016e-05
-3.80643e-06
-1.54282e-05
-3.97387e-06
-1.47276e-05
-4.13433e-06
-1.4001e-05
-4.28754e-06
-1.32498e-05
-4.43321e-06
-1.24752e-05
-4.5711e-06
-1.16785e-05
-4.70094e-06
-1.08613e-05
-4.8225e-06
-1.00249e-05
-4.93558e-06
-9.17078e-06
-5.03996e-06
-8.30049e-06
-5.13546e-06
-7.41555e-06
-5.22191e-06
-6.51751e-06
-5.29915e-06
-5.60797e-06
-5.36704e-06
-4.68852e-06
-5.42546e-06
-3.76079e-06
-5.4743e-06
-2.82642e-06
-5.51348e-06
-1.88706e-06
-5.54293e-06
-9.44363e-07
-5.56259e-06
1.09246e-13
-5.57243e-06
9.44363e-07
-5.57243e-06
1.88706e-06
-5.56259e-06
2.82642e-06
-5.54293e-06
3.76079e-06
-5.51348e-06
4.68852e-06
-5.4743e-06
5.60797e-06
-5.42546e-06
6.51751e-06
-5.36704e-06
7.41555e-06
-5.29915e-06
8.30049e-06
-5.22191e-06
9.17078e-06
-5.13546e-06
1.00249e-05
-5.03996e-06
1.08613e-05
-4.93558e-06
1.16785e-05
-4.8225e-06
1.24752e-05
-4.70094e-06
1.32498e-05
-4.5711e-06
1.4001e-05
-4.43321e-06
1.47276e-05
-4.28754e-06
1.54282e-05
-4.13433e-06
1.61016e-05
-3.97387e-06
1.67466e-05
-3.80643e-06
1.73621e-05
-3.63233e-06
1.7947e-05
-3.45186e-06
1.85003e-05
-3.26535e-06
1.9021e-05
-3.07314e-06
1.95082e-05
-2.87556e-06
1.99611e-05
-2.67297e-06
2.03789e-05
-2.46572e-06
2.07608e-05
-2.25419e-06
2.11062e-05
-2.03876e-06
2.14145e-05
-1.81979e-06
2.16851e-05
-1.59768e-06
2.19177e-05
-1.37283e-06
2.21117e-05
-1.14563e-06
2.22669e-05
-9.16476e-07
2.2383e-05
-6.85779e-07
2.24599e-05
-4.53942e-07
2.24973e-05
-2.21375e-07
2.24952e-05
1.15159e-08
2.24537e-05
2.4432e-07
2.23729e-05
4.76631e-07
2.22528e-05
7.0804e-07
2.20937e-05
9.38144e-07
2.1896e-05
1.16654e-06
2.16599e-05
1.39283e-06
2.13858e-05
1.61662e-06
2.10744e-05
1.83752e-06
2.07261e-05
2.05515e-06
2.03415e-05
2.26912e-06
1.99214e-05
2.47907e-06
1.94664e-05
2.68464e-06
1.89774e-05
2.88546e-06
1.84552e-05
3.08118e-06
1.79008e-05
3.27149e-06
1.73152e-05
3.45603e-06
1.66993e-05
3.6345e-06
1.60543e-05
3.80659e-06
1.53812e-05
3.972e-06
1.46813e-05
4.13045e-06
1.39558e-05
4.28166e-06
1.32059e-05
4.42539e-06
1.2433e-05
4.56139e-06
1.16384e-05
4.68942e-06
1.08235e-05
4.80928e-06
9.9897e-06
4.92076e-06
9.13848e-06
5.02369e-06
8.27131e-06
5.11791e-06
7.38967e-06
5.20327e-06
6.49509e-06
5.27965e-06
5.58911e-06
5.34698e-06
4.67327e-06
5.40518e-06
3.74911e-06
5.45424e-06
2.81819e-06
5.49418e-06
1.88202e-06
5.52511e-06
9.42129e-07
5.54718e-06
5.56046e-06
-9.51924e-07
6.51238e-06
-1.90159e-06
6.49685e-06
-2.84749e-06
6.471e-06
-3.7881e-06
6.43479e-06
-4.72187e-06
6.38801e-06
-5.64724e-06
6.33055e-06
-6.56265e-06
6.26239e-06
-7.46654e-06
6.18354e-06
-8.35736e-06
6.09409e-06
-9.23357e-06
5.99412e-06
-1.00937e-05
5.88378e-06
-1.09361e-05
5.76324e-06
-1.17595e-05
5.63268e-06
-1.25624e-05
5.49231e-06
-1.33434e-05
5.34236e-06
-1.41011e-05
5.18309e-06
-1.48342e-05
5.01477e-06
-1.55414e-05
4.83767e-06
-1.62215e-05
4.65211e-06
-1.68733e-05
4.45839e-06
-1.74957e-05
4.25685e-06
-1.80875e-05
4.04783e-06
-1.86477e-05
3.8317e-06
-1.91753e-05
3.60883e-06
-1.96695e-05
3.3796e-06
-2.01292e-05
3.1444e-06
-2.05538e-05
2.90365e-06
-2.09425e-05
2.65776e-06
-2.12945e-05
2.40716e-06
-2.16092e-05
2.15228e-06
-2.18862e-05
1.89356e-06
-2.21248e-05
1.63146e-06
-2.23247e-05
1.36643e-06
-2.24855e-05
1.09893e-06
-2.26069e-05
8.29431e-07
-2.26887e-05
5.58401e-07
-2.27306e-05
2.86314e-07
-2.27328e-05
1.36482e-08
-2.2695e-05
-2.5912e-07
-2.26175e-05
-5.31511e-07
-2.25002e-05
-8.03047e-07
-2.23434e-05
-1.07325e-06
-2.21474e-05
-1.34164e-06
-2.19125e-05
-1.60776e-06
-2.16391e-05
-1.87112e-06
-2.13276e-05
-2.13126e-06
-2.09786e-05
-2.38773e-06
-2.05927e-05
-2.64006e-06
-2.01706e-05
-2.88782e-06
-1.9713e-05
-3.13056e-06
-1.92207e-05
-3.36786e-06
-1.86946e-05
-3.59928e-06
-1.81355e-05
-3.82442e-06
-1.75445e-05
-4.04287e-06
-1.69226e-05
-4.25425e-06
-1.62708e-05
-4.45819e-06
-1.55904e-05
-4.65431e-06
-1.48825e-05
-4.84226e-06
-1.41483e-05
-5.02171e-06
-1.33892e-05
-5.19234e-06
-1.26064e-05
-5.35385e-06
-1.18014e-05
-5.50593e-06
-1.09756e-05
-5.64833e-06
-1.01304e-05
-5.78078e-06
-9.26733e-06
-5.90304e-06
-8.38789e-06
-6.0149e-06
-7.49364e-06
-6.11616e-06
-6.58615e-06
-6.20663e-06
-5.66703e-06
-6.28615e-06
-4.7379e-06
-6.35458e-06
-3.8004e-06
-6.4118e-06
-2.85619e-06
-6.45769e-06
-1.90694e-06
-6.49219e-06
-9.54311e-07
-6.51521e-06
9.6908e-14
-6.52674e-06
9.54311e-07
-6.52674e-06
1.90694e-06
-6.51521e-06
2.85619e-06
-6.49219e-06
3.8004e-06
-6.45769e-06
4.7379e-06
-6.4118e-06
5.66703e-06
-6.35458e-06
6.58615e-06
-6.28615e-06
7.49364e-06
-6.20663e-06
8.38789e-06
-6.11616e-06
9.26733e-06
-6.0149e-06
1.01304e-05
-5.90304e-06
1.09756e-05
-5.78078e-06
1.18014e-05
-5.64833e-06
1.26064e-05
-5.50593e-06
1.33892e-05
-5.35385e-06
1.41483e-05
-5.19234e-06
1.48825e-05
-5.02171e-06
1.55904e-05
-4.84226e-06
1.62708e-05
-4.65431e-06
1.69226e-05
-4.45819e-06
1.75445e-05
-4.25425e-06
1.81355e-05
-4.04287e-06
1.86946e-05
-3.82442e-06
1.92207e-05
-3.59928e-06
1.9713e-05
-3.36786e-06
2.01706e-05
-3.13056e-06
2.05927e-05
-2.88782e-06
2.09786e-05
-2.64006e-06
2.13276e-05
-2.38773e-06
2.16391e-05
-2.13126e-06
2.19125e-05
-1.87112e-06
2.21474e-05
-1.60776e-06
2.23434e-05
-1.34164e-06
2.25002e-05
-1.07325e-06
2.26175e-05
-8.03047e-07
2.2695e-05
-5.31511e-07
2.27328e-05
-2.5912e-07
2.27306e-05
1.36482e-08
2.26887e-05
2.86314e-07
2.26069e-05
5.58401e-07
2.24855e-05
8.29431e-07
2.23247e-05
1.09893e-06
2.21248e-05
1.36643e-06
2.18862e-05
1.63146e-06
2.16092e-05
1.89356e-06
2.12945e-05
2.15228e-06
2.09425e-05
2.40716e-06
2.05538e-05
2.65776e-06
2.01292e-05
2.90365e-06
1.96695e-05
3.1444e-06
1.91753e-05
3.3796e-06
1.86477e-05
3.60883e-06
1.80875e-05
3.8317e-06
1.74957e-05
4.04783e-06
1.68733e-05
4.25685e-06
1.62215e-05
4.45839e-06
1.55414e-05
4.6521e-06
1.48342e-05
4.83767e-06
1.41011e-05
5.01477e-06
1.33434e-05
5.18309e-06
1.25624e-05
5.34236e-06
1.17595e-05
5.49231e-06
1.09361e-05
5.63268e-06
1.00937e-05
5.76324e-06
9.23357e-06
5.88378e-06
8.35736e-06
5.99412e-06
7.46654e-06
6.09409e-06
6.56265e-06
6.18354e-06
5.64724e-06
6.26239e-06
4.72187e-06
6.33055e-06
3.7881e-06
6.38801e-06
2.84749e-06
6.43479e-06
1.90159e-06
6.471e-06
9.51924e-07
6.49684e-06
6.51238e-06
-9.63344e-07
7.47573e-06
-1.9244e-06
7.4579e-06
-2.88165e-06
7.42825e-06
-3.83354e-06
7.38668e-06
-4.77852e-06
7.33299e-06
-5.715e-06
7.26703e-06
-6.64141e-06
7.18879e-06
-7.55615e-06
7.09829e-06
-8.45767e-06
6.99561e-06
-9.34441e-06
6.88086e-06
-1.02148e-05
6.75421e-06
-1.10674e-05
6.61584e-06
-1.19008e-05
6.46598e-06
-1.27133e-05
6.30486e-06
-1.35037e-05
6.13274e-06
-1.42705e-05
5.94993e-06
-1.50125e-05
5.75671e-06
-1.57282e-05
5.55343e-06
-1.64165e-05
5.34043e-06
-1.70762e-05
5.11806e-06
-1.77061e-05
4.88672e-06
-1.83051e-05
4.6468e-06
-1.88721e-05
4.3987e-06
-1.94061e-05
4.14287e-06
-1.99062e-05
3.87974e-06
-2.03716e-05
3.60976e-06
-2.08014e-05
3.33341e-06
-2.11947e-05
3.05115e-06
-2.15511e-05
2.76348e-06
-2.18697e-05
2.4709e-06
-2.215e-05
2.17391e-06
-2.23916e-05
1.87304e-06
-2.2594e-05
1.5688e-06
-2.27568e-05
1.26173e-06
-2.28797e-05
9.5236e-07
-2.29625e-05
6.41232e-07
-2.30051e-05
3.2889e-07
-2.30073e-05
1.58811e-08
-2.29692e-05
-2.97247e-07
-2.28908e-05
-6.09943e-07
-2.27722e-05
-9.21659e-07
-2.26136e-05
-1.23185e-06
-2.24153e-05
-1.53996e-06
-2.21776e-05
-1.84545e-06
-2.19009e-05
-2.14779e-06
-2.15857e-05
-2.44643e-06
-2.12326e-05
-2.74086e-06
-2.08421e-05
-3.03054e-06
-2.0415e-05
-3.31497e-06
-1.99519e-05
-3.59365e-06
-1.94537e-05
-3.86606e-06
-1.89212e-05
-4.13174e-06
-1.83554e-05
-4.39021e-06
-1.77573e-05
-4.64101e-06
-1.71278e-05
-4.88368e-06
-1.64682e-05
-5.11781e-06
-1.57796e-05
-5.34296e-06
-1.50631e-05
-5.55874e-06
-1.432e-05
-5.76476e-06
-1.35517e-05
-5.96066e-06
-1.27595e-05
-6.14608e-06
-1.19447e-05
-6.32068e-06
-1.11089e-05
-6.48416e-06
-1.02535e-05
-6.63622e-06
-9.37991e-06
-6.77659e-06
-8.4898e-06
-6.90502e-06
-7.58469e-06
-7.02127e-06
-6.66618e-06
-7.12514e-06
-5.7359e-06
-7.21644e-06
-4.79548e-06
-7.295e-06
-3.84659e-06
-7.36069e-06
-2.89091e-06
-7.41338e-06
-1.93012e-06
-7.45298e-06
-9.65911e-07
-7.47942e-06
8.32382e-14
-7.49265e-06
9.65911e-07
-7.49265e-06
1.93012e-06
-7.47942e-06
2.89091e-06
-7.45298e-06
3.84659e-06
-7.41338e-06
4.79548e-06
-7.36069e-06
5.7359e-06
-7.295e-06
6.66618e-06
-7.21644e-06
7.58469e-06
-7.12514e-06
8.4898e-06
-7.02127e-06
9.37991e-06
-6.90502e-06
1.02535e-05
-6.77659e-06
1.11089e-05
-6.63622e-06
1.19447e-05
-6.48416e-06
1.27595e-05
-6.32068e-06
1.35517e-05
-6.14608e-06
1.432e-05
-5.96066e-06
1.50631e-05
-5.76476e-06
1.57796e-05
-5.55874e-06
1.64682e-05
-5.34296e-06
1.71278e-05
-5.11781e-06
1.77573e-05
-4.88368e-06
1.83554e-05
-4.64101e-06
1.89212e-05
-4.39021e-06
1.94537e-05
-4.13174e-06
1.99519e-05
-3.86606e-06
2.0415e-05
-3.59365e-06
2.08421e-05
-3.31497e-06
2.12326e-05
-3.03054e-06
2.15857e-05
-2.74086e-06
2.19009e-05
-2.44643e-06
2.21776e-05
-2.14779e-06
2.24153e-05
-1.84545e-06
2.26136e-05
-1.53996e-06
2.27722e-05
-1.23185e-06
2.28908e-05
-9.21659e-07
2.29692e-05
-6.09943e-07
2.30073e-05
-2.97247e-07
2.30051e-05
1.58811e-08
2.29625e-05
3.2889e-07
2.28797e-05
6.41232e-07
2.27568e-05
9.5236e-07
2.2594e-05
1.26173e-06
2.23916e-05
1.5688e-06
2.215e-05
1.87304e-06
2.18697e-05
2.17391e-06
2.15511e-05
2.4709e-06
2.11947e-05
2.76348e-06
2.08014e-05
3.05115e-06
2.03716e-05
3.33341e-06
1.99062e-05
3.60976e-06