/*--------------------------------*- C++ -*----------------------------------*\
| =========                 |                                                 |
| \\      /  F ield         | OpenFOAM: The Open Source CFD Toolbox           |
|  \\    /   O peration     | Version:  2306                                  |
|   \\  /    A nd           | Website:  www.openfoam.com                      |
|    \\/     M anipulation  |                                                 |
\*---------------------------------------------------------------------------*/
FoamFile
{
    version     2.0;
    format      ascii;
    arch        "LSB;label=32;scalar=64";
    class       surfaceScalarField;
    location    "0.36";
    object      phi_0;
}
// * * * * * * * * * * * * * * * * * * * * * * * * * * * * * * * * * * * * * //

dimensions      [0 3 -1 0 0 0 0];

oriented        oriented;

internalField   nonuniform List<scalar> 
101920
(
-4.6027787e-12
4.6028563e-12
-3.332573e-10
3.2865449e-10
-1.0943387e-09
7.6108159e-10
-2.4586224e-09
1.364283e-09
-4.4580465e-09
1.9994252e-09
-7.0712565e-09
2.6132102e-09
-1.0290911e-08
3.2196532e-09
-1.4117964e-08
3.8270546e-09
-1.8560869e-08
4.4429049e-09
-2.3634209e-08
5.073339e-09
-2.9356894e-08
5.7226866e-09
-3.5750742e-08
6.3938463e-09
-4.2839511e-08
7.088771e-09
-5.0648204e-08
7.8086922e-09
-5.9202483e-08
8.5542807e-09
-6.8528205e-08
9.3257224e-09
-7.8650971e-08
1.0122765e-08
-8.9595725e-08
1.0944756e-08
-1.0138638e-07
1.1790657e-08
-1.1404545e-07
1.2659064e-08
-1.2759369e-07
1.3548235e-08
-1.420498e-07
1.4456114e-08
-1.5743013e-07
1.5380331e-08
-1.7374833e-07
1.6318207e-08
-1.9101511e-07
1.7266778e-08
-2.0923793e-07
1.8222825e-08
-2.2842084e-07
1.9182898e-08
-2.4856419e-07
2.0143354e-08
-2.6966459e-07
2.1100396e-08
-2.9171465e-07
2.2050065e-08
-3.1470297e-07
2.2988319e-08
-3.3861403e-07
2.3911055e-08
-3.6342814e-07
2.4814121e-08
-3.8912152e-07
2.569337e-08
-4.1566619e-07
2.6544672e-08
-4.4303016e-07
2.7363971e-08
-4.7117746e-07
2.8147299e-08
-5.0006828e-07
2.8890811e-08
-5.2965909e-07
2.9590827e-08
-5.5990291e-07
3.0243811e-08
-5.9074939e-07
3.0846484e-08
-6.2214514e-07
3.1395749e-08
-6.5403392e-07
3.188878e-08
-6.8635693e-07
3.2323002e-08
-7.1905307e-07
3.2696141e-08
-7.5205927e-07
3.3006195e-08
-7.8531075e-07
3.3251482e-08
-8.1874138e-07
3.3430623e-08
-8.5228393e-07
3.3542565e-08
-8.858705e-07
3.3586559e-08
-9.194327e-07
3.3562204e-08
-9.5290208e-07
3.3469385e-08
-9.8621041e-07
3.3308319e-08
-1.0192899e-06
3.307952e-08
-1.0520737e-06
3.2783763e-08
-1.0844959e-06
3.242218e-08
-1.116492e-06
3.1996102e-08
-1.1479991e-06
3.1507153e-08
-1.1789563e-06
3.0957164e-08
-1.2093045e-06
3.0348208e-08
-1.238987e-06
2.968255e-08
-1.2679497e-06
2.8962635e-08
-1.2961407e-06
2.8191057e-08
-1.3235113e-06
2.7370588e-08
-1.3500154e-06
2.6504071e-08
-1.3756099e-06
2.5594472e-08
-1.4002547e-06
2.4644833e-08
-1.423913e-06
2.3658271e-08
-1.4465509e-06
2.2637907e-08
-1.4681378e-06
2.1586939e-08
-1.4886463e-06
2.0508514e-08
-1.5080522e-06
1.9405829e-08
-1.5263342e-06
1.8282008e-08
-1.5434743e-06
1.7140145e-08
-1.5594576e-06
1.5983255e-08
-1.5742719e-06
1.4814288e-08
-1.587908e-06
1.3636144e-08
-1.6003597e-06
1.2451708e-08
-1.6116236e-06
1.1263897e-08
-1.6216994e-06
1.0075718e-08
-1.6305896e-06
8.890307e-09
-1.6383004e-06
7.7107566e-09
-1.6448402e-06
6.5397454e-09
-1.6502188e-06
5.3786619e-09
-1.6544438e-06
4.2249858e-09
-1.6575093e-06
3.0655451e-09
-1.6594107e-06
1.9013382e-09
-1.6601229e-06
7.1225834e-10
-1.6597e-06
-4.2291503e-10
-1.6582611e-06
-1.4389074e-09
-1.6557718e-06
-2.4893104e-09
-1.6522364e-06
-3.5353734e-09
-1.6476707e-06
-4.5657397e-09
-1.6420945e-06
-5.5761486e-09
-1.6355297e-06
-6.564843e-09
-1.6279987e-06
-7.5309937e-09
-1.6195246e-06
-8.4741019e-09
-1.6101307e-06
-9.3938538e-09
-1.5998407e-06
-1.0290036e-08
-1.5886782e-06
-1.1162478e-08
-1.5766671e-06
-1.2011136e-08
-1.5638311e-06
-1.2836009e-08
-1.5501939e-06
-1.3637163e-08
-1.5357792e-06
-1.4414752e-08
-1.5206102e-06
-1.5168963e-08
-1.5047102e-06
-1.5900044e-08
-1.4881019e-06
-1.6608318e-08
-1.4708078e-06
-1.7294102e-08
-1.4528499e-06
-1.7957861e-08
-1.43425e-06
-1.8599954e-08
-1.4150291e-06
-1.922087e-08
-1.395208e-06
-1.9821109e-08
-1.3748067e-06
-2.0401222e-08
-1.353845e-06
-2.0961728e-08
-1.3323418e-06
-2.1503182e-08
-1.3103157e-06
-2.2026185e-08
-1.2877843e-06
-2.2531356e-08
-1.264765e-06
-2.3019261e-08
-1.2412745e-06
-2.3490527e-08
-1.2173287e-06
-2.3945789e-08
-1.192943e-06
-2.4385688e-08
-1.1681322e-06
-2.4810805e-08
-1.1429105e-06
-2.5221764e-08
-1.1172912e-06
-2.5619224e-08
-1.0912875e-06
-2.6003775e-08
-1.0649114e-06
-2.6376043e-08
-1.0381748e-06
-2.6736612e-08
-1.0110887e-06
-2.708611e-08
-9.8366362e-07
-2.7425079e-08
-9.5590947e-07
-2.7754133e-08
-9.2783564e-07
-2.8073833e-08
-8.9945093e-07
-2.8384706e-08
-8.7076363e-07
-2.8687317e-08
-8.4178145e-07
-2.8982168e-08
-8.1251168e-07
-2.9269786e-08
-7.8296104e-07
-2.9550641e-08
-7.5313582e-07
-2.9825215e-08
-7.2304184e-07
-3.0093961e-08
-6.9268458e-07
-3.0357278e-08
-6.6206905e-07
-3.0615531e-08
-6.311998e-07
-3.0869239e-08
-6.0008115e-07
-3.1118663e-08
-5.6871693e-07
-3.1364202e-08
-5.3711078e-07
-3.1606174e-08
-5.0526597e-07
-3.1844804e-08
-4.7318563e-07
-3.2080324e-08
-4.4087283e-07
-3.2312811e-08
-4.0833058e-07
-3.2542231e-08
-3.7556237e-07
-3.2768201e-08
-3.425726e-07
-3.2989783e-08
-3.0936768e-07
-3.3204886e-08
-2.7595854e-07
-3.3409159e-08
-2.4236495e-07
-3.3593582e-08
-2.0862415e-07
-3.374079e-08
-1.7480469e-07
-3.3819479e-08
-1.410199e-07
-3.3784778e-08
-1.0740247e-07
-3.3617422e-08
-7.3893921e-08
-3.3508581e-08
-3.9373221e-08
-3.4520691e-08
-3.9373228e-08
-1.0085771e-09
1.01318e-09
-4.2241805e-09
3.5442579e-09
-9.8042339e-09
6.3411348e-09
-1.791368e-08
9.4737292e-09
-2.8610913e-08
1.2696658e-08
-4.1903477e-08
1.5905773e-08
-5.7784479e-08
1.9100657e-08
-7.6246947e-08
2.2289521e-08
-9.7287251e-08
2.5483207e-08
-1.2090549e-07
2.8691583e-08
-1.4710462e-07
3.1921811e-08
-1.7588908e-07
3.5178313e-08
-2.0726362e-07
3.8463304e-08
-2.4123219e-07
4.177726e-08
-2.7779713e-07
4.5119229e-08
-3.1695846e-07
4.848704e-08
-3.5871312e-07
5.1877427e-08
-4.0305447e-07
5.5286112e-08
-4.4997169e-07
5.8707877e-08
-4.9944927e-07
6.2136643e-08
-5.5146655e-07
6.5565515e-08
-6.059973e-07
6.898687e-08
-6.6300936e-07
7.2392387e-08
-7.2246424e-07
7.5773087e-08
-7.8431685e-07
7.9119378e-08
-8.4851517e-07
8.242115e-08
-9.1500012e-07
8.5667846e-08
-9.8370532e-07
8.8848559e-08
-1.054557e-06
9.1952115e-08
-1.1274741e-06
9.4967156e-08
-1.2023681e-06
9.7882263e-08
-1.279143e-06
1.0068599e-07
-1.3576959e-06
1.0336703e-07
-1.4379168e-06
1.0591422e-07
-1.5196888e-06
1.0831671e-07
-1.6028888e-06
1.1056398e-07
-1.6873875e-06
1.1264597e-07
-1.7730498e-06
1.1455317e-07
-1.8597357e-06
1.1627664e-07
-1.9473e-06
1.1780812e-07
-2.0355935e-06
1.1914006e-07
-2.1244635e-06
1.2026571e-07
-2.2137539e-06
1.2117914e-07
-2.3033061e-06
1.218753e-07
-2.39296e-06
1.2235002e-07
-2.4825539e-06
1.2260005e-07
-2.5719255e-06
1.2262311e-07
-2.6609127e-06
1.2241784e-07
-2.749354e-06
1.2198384e-07
-2.8370891e-06
1.2132168e-07
-2.9239597e-06
1.2043283e-07
-3.00981e-06
1.1931966e-07
-3.0944872e-06
1.1798546e-07
-3.177842e-06
1.1643435e-07
-3.2597295e-06
1.1467124e-07
-3.3400091e-06
1.1270186e-07
-3.4185457e-06
1.1053262e-07
-3.4952091e-06
1.081706e-07
-3.5698755e-06
1.0562349e-07
-3.6424268e-06
1.0289956e-07
-3.7127518e-06
1.0000753e-07
-3.7807457e-06
9.6956558e-08
-3.8463108e-06
9.3756185e-08
-3.9093565e-06
9.0416279e-08
-3.9697993e-06
8.6946901e-08
-4.0275632e-06
8.3358337e-08
-4.0825793e-06
7.9660935e-08
-4.1347863e-06
7.5865213e-08
-4.18413e-06
7.198162e-08
-4.2305636e-06
6.8020603e-08
-4.2740477e-06
6.3992536e-08
-4.3145495e-06
5.9907673e-08
-4.3520435e-06
5.5776059e-08
-4.3865109e-06
5.1607532e-08
-4.4179393e-06
4.7411626e-08
-4.4463226e-06
4.3197604e-08
-4.4716609e-06
3.8974464e-08
-4.4939601e-06
3.4750931e-08
-4.5132318e-06
3.0535572e-08
-4.5294928e-06
2.6336737e-08
-4.5427651e-06
2.2162517e-08
-4.5530747e-06
1.8020388e-08
-4.5604508e-06
1.3915849e-08
-4.5649196e-06
9.8474415e-09
-4.5664922e-06
5.7975531e-09
-4.5651707e-06
1.7440458e-09
-4.5611143e-06
-2.1549995e-09
-4.5544378e-06
-5.9642664e-09
-4.5450974e-06
-9.7633225e-09
-4.5330443e-06
-1.3492028e-08
-4.5183869e-06
-1.7146628e-08
-4.5011966e-06
-2.0725698e-08
-4.4815348e-06
-2.4227552e-08
-4.4594603e-06
-2.765062e-08
-4.4350317e-06
-3.0993433e-08
-4.4083079e-06
-3.4254796e-08
-4.3793483e-06
-3.7433795e-08
-4.3482123e-06
-4.0529821e-08
-4.3149598e-06
-4.3542539e-08
-4.2796503e-06
-4.6471905e-08
-4.2423434e-06
-4.9318096e-08
-4.2030979e-06
-5.2081513e-08
-4.1619723e-06
-5.4762786e-08
-4.1190243e-06
-5.7362769e-08
-4.0743108e-06
-5.988245e-08
-4.0278878e-06
-6.2323017e-08
-3.9798103e-06
-6.4685787e-08
-3.9301322e-06
-6.6972234e-08
-3.8789061e-06
-6.9183944e-08
-3.8261834e-06
-7.132258e-08
-3.7720143e-06
-7.3389985e-08
-3.7164475e-06
-7.5387979e-08
-3.6595301e-06
-7.7318551e-08
-3.6013082e-06
-7.9183686e-08
-3.5418259e-06
-8.098544e-08
-3.4811262e-06
-8.2725921e-08
-3.4192503e-06
-8.4407248e-08
-3.356238e-06
-8.6031586e-08
-3.2921274e-06
-8.760111e-08
-3.2269552e-06
-8.9117964e-08
-3.1607565e-06
-9.0584382e-08
-3.0935648e-06
-9.2002486e-08
-3.0254122e-06
-9.3374434e-08
-2.956329e-06
-9.470241e-08
-2.8863442e-06
-9.5988508e-08
-2.8154854e-06
-9.7234863e-08
-2.7437785e-06
-9.8443516e-08
-2.6712481e-06
-9.9616491e-08
-2.5979174e-06
-1.0075579e-07
-2.5238082e-06
-1.0186342e-07
-2.4489407e-06
-1.0294125e-07
-2.3733342e-06
-1.0399121e-07
-2.2970065e-06
-1.0501508e-07
-2.219974e-06
-1.0601466e-07
-2.1422521e-06
-1.0699162e-07
-2.0638551e-06
-1.0794773e-07
-1.9847958e-06
-1.0888445e-07
-1.9050866e-06
-1.0980318e-07
-1.8247385e-06
-1.1070535e-07
-1.7437616e-06
-1.115925e-07
-1.6621648e-06
-1.1246597e-07
-1.5799565e-06
-1.13327e-07
-1.4971438e-06
-1.1417686e-07
-1.4137334e-06
-1.1501659e-07
-1.3297311e-06
-1.1584706e-07
-1.2451424e-06
-1.1666907e-07
-1.1599721e-06
-1.1748304e-07
-1.0742253e-06
-1.1828904e-07
-9.879072e-07
-1.1908631e-07
-9.010241e-07
-1.1987291e-07
-8.1358445e-07
-1.2064453e-07
-7.2560082e-07
-1.2139277e-07
-6.3709212e-07
-1.2210231e-07
-5.4808541e-07
-1.2274749e-07
-4.586127e-07
-1.2329221e-07
-3.6868939e-07
-1.2370806e-07
-2.7824532e-07
-1.240615e-07
-1.8697455e-07
-1.2477935e-07
-9.4293679e-08
-1.2720155e-07
-1.3366689e-07
-2.0171063e-09
3.0302863e-09
-8.0434507e-09
9.5706021e-09
-1.8170674e-08
1.6468359e-08
-3.245788e-08
2.3760935e-08
-5.0955524e-08
3.1194302e-08
-7.3688303e-08
3.8638553e-08
-1.0065721e-07
4.6069567e-08
-1.3185217e-07
5.3484482e-08
-1.672578e-07
6.0888832e-08
-2.0685557e-07
6.8289353e-08
-2.5062448e-07
7.5690719e-08
-2.9854084e-07
8.3094671e-08
-3.5057772e-07
9.0500186e-08
-4.0670429e-07
9.790384e-08
-4.6688521e-07
1.0530014e-07
-5.3107993e-07
1.1268176e-07
-5.9924219e-07
1.2003969e-07
-6.7131946e-07
1.2736338e-07
-7.4725246e-07
1.3464088e-07
-8.2697473e-07
1.418589e-07
-9.1041218e-07
1.4900297e-07
-9.9748283e-07
1.5605752e-07
-1.0880964e-06
1.63006e-07
-1.1821543e-06
1.6983097e-07
-1.2795491e-06
1.7651419e-07
-1.3801647e-06
1.8303676e-07
-1.4838762e-06
1.8937928e-07
-1.5905496e-06
1.9552198e-07
-1.7000424e-06
2.0144487e-07
-1.8122031e-06
2.0712794e-07
-1.9268721e-06
2.1255123e-07
-2.0438812e-06
2.1769509e-07
-2.1630544e-06
2.2254026e-07
-2.2842083e-06
2.2706806e-07
-2.4071521e-06
2.3126052e-07
-2.5316887e-06
2.3510054e-07
-2.6576147e-06
2.3857204e-07
-2.7847216e-06
2.4166006e-07
-2.9127958e-06
2.4435087e-07
-3.0416199e-06
2.4663215e-07
-3.1709728e-06
2.4849298e-07
-3.3006311e-06
2.4992401e-07
-3.4303694e-06
2.5091745e-07
-3.5599613e-06
2.5146723e-07
-3.6891803e-06
2.5156894e-07
-3.8178001e-06
2.5121987e-07
-3.9455961e-06
2.5041911e-07
-4.0723457e-06
2.4916744e-07
-4.1978293e-06
2.474674e-07
-4.3218308e-06
2.4532321e-07
-4.4441388e-06
2.4274077e-07
-4.5645467e-06
2.3972757e-07
-4.6828539e-06
2.3629267e-07
-4.7988661e-06
2.3244657e-07
-4.912396e-06
2.282012e-07
-5.023264e-06
2.2356977e-07
-5.1312981e-06
2.1856673e-07
-5.2363351e-06
2.1320761e-07
-5.3382205e-06
2.0750892e-07
-5.436809e-06
2.0148812e-07
-5.5319649e-06
1.9516333e-07
-5.6235618e-06
1.8855346e-07
-5.7114834e-06
1.8167785e-07
-5.7956235e-06
1.745563e-07
-5.8758855e-06
1.6720896e-07
-5.9521833e-06
1.5965611e-07
-6.0244405e-06
1.5191818e-07
-6.0925909e-06
1.4401558e-07
-6.1565779e-06
1.3596858e-07
-6.2163546e-06
1.2779734e-07
-6.2718838e-06
1.195217e-07
-6.3231372e-06
1.1116115e-07
-6.3700959e-06
1.0273474e-07
-6.4127494e-06
9.4260982e-08
-6.4510955e-06
8.5757756e-08
-6.4851403e-06
7.7242375e-08
-6.5148973e-06
6.8731446e-08
-6.5403874e-06
6.0241029e-08
-6.5616384e-06
5.1786653e-08
-6.578685e-06
4.3383336e-08
-6.5915681e-06
3.5045598e-08
-6.6003349e-06
2.678721e-08
-6.6050392e-06
1.8620153e-08
-6.60575e-06
1.0558211e-08
-6.6025827e-06
2.6302912e-09
-6.5955264e-06
-5.3123017e-09
-6.5845558e-06
-1.3125635e-08
-6.5697636e-06
-2.0756438e-08
-6.5513025e-06
-2.8224449e-08
-6.5292507e-06
-3.5543782e-08
-6.5036814e-06
-4.271591e-08
-6.4746716e-06
-4.9735527e-08
-6.442301e-06
-5.6598146e-08
-6.4066514e-06
-6.3300233e-08
-6.3678055e-06
-6.9839275e-08
-6.3258469e-06
-7.6213369e-08
-6.2808594e-06
-8.2421321e-08
-6.2329268e-06
-8.8462451e-08
-6.1821327e-06
-9.4336668e-08
-6.1285602e-06
-1.0004441e-07
-6.0722918e-06
-1.0558643e-07
-6.0134093e-06
-1.1096405e-07
-5.9519932e-06
-1.1617889e-07
-5.888123e-06
-1.21233e-07
-5.8218767e-06
-1.2612867e-07
-5.7533312e-06
-1.3086859e-07
-5.6825613e-06
-1.3545565e-07
-5.6096406e-06
-1.3989298e-07
-5.5346405e-06
-1.44184e-07
-5.4576309e-06
-1.4833221e-07
-5.3786795e-06
-1.5234139e-07
-5.2978521e-06
-1.5621534e-07
-5.2152126e-06
-1.599581e-07
-5.1308225e-06
-1.6357375e-07
-5.0447415e-06
-1.6706647e-07
-4.9570269e-06
-1.7044044e-07
-4.8677342e-06
-1.7370004e-07
-4.7769162e-06
-1.7684953e-07
-4.6846241e-06
-1.7989326e-07
-4.5909065e-06
-1.8283557e-07
-4.4958101e-06
-1.8568079e-07
-4.3993793e-06
-1.8843322e-07
-4.3016566e-06
-1.9109717e-07
-4.2026821e-06
-1.9367686e-07
-4.1024942e-06
-1.9617652e-07
-4.0011288e-06
-1.9860024e-07
-3.8986202e-06
-2.009521e-07
-3.7950005e-06
-2.0323615e-07
-3.6903001e-06
-2.0545624e-07
-3.5845472e-06
-2.0761628e-07
-3.4777685e-06
-2.0971999e-07
-3.3699885e-06
-2.1177111e-07
-3.2612305e-06
-2.1377312e-07
-3.1515156e-06
-2.1572953e-07
-3.0408636e-06
-2.1764364e-07
-2.9292925e-06
-2.195188e-07
-2.816819e-06
-2.21358e-07
-2.7034579e-06
-2.2316424e-07
-2.5892229e-06
-2.2494043e-07
-2.4741261e-06
-2.2668924e-07
-2.3581787e-06
-2.2841343e-07
-2.2413902e-06
-2.3011547e-07
-2.1237695e-06
-2.3179764e-07
-2.0053239e-06
-2.3346209e-07
-1.8860603e-06
-2.3511073e-07
-1.7659843e-06
-2.3674507e-07
-1.645101e-06
-2.3836632e-07
-1.5234151e-06
-2.3997493e-07
-1.400931e-06
-2.4157038e-07
-1.2776533e-06
-2.4315061e-07
-1.153587e-06
-2.4471083e-07
-1.0287377e-06
-2.4624209e-07
-9.0311057e-07
-2.4772946e-07
-7.7670647e-07
-2.491516e-07
-6.4951141e-07
-2.5048726e-07
-5.214746e-07
-2.5174489e-07
-3.9248152e-07
-2.5305457e-07
-2.6238121e-07
-2.5487967e-07
-1.3123319e-07
-2.5834955e-07
-2.6490011e-07
-2.7050998e-09
5.7353861e-09
-1.0701792e-08
1.7567294e-08
-2.3982454e-08
2.9749021e-08
-4.2523527e-08
4.2302008e-08
-6.6347615e-08
5.501839e-08
-9.5479111e-08
6.7770049e-08
-1.2992247e-07
8.0512923e-08
-1.6966668e-07
9.3228698e-08
-2.1468938e-07
1.0591153e-07
-2.6495938e-07
1.1855936e-07
-3.2043826e-07
1.311696e-07
-3.8108102e-07
1.4373743e-07
-4.4683628e-07
1.5625544e-07
-5.1764604e-07
1.687136e-07
-5.9344541e-07
1.8109952e-07
-6.7416222e-07
1.9339857e-07
-7.5971656e-07
2.0559403e-07
-8.5002048e-07
2.1766729e-07
-9.4497752e-07
2.2959793e-07
-1.0444825e-06
2.4136386e-07
-1.148421e-06
2.5294152e-07
-1.2566695e-06
2.64306e-07
-1.3690947e-06
2.7543122e-07
-1.4855538e-06
2.8629006e-07
-1.6058942e-06
2.9685456e-07
-1.7299535e-06
3.070961e-07
-1.8575599e-06
3.1698561e-07
-1.9885317e-06
3.2649377e-07
-2.122678e-06
3.3559125e-07
-2.259799e-06
3.4424892e-07
-2.3996859e-06
3.5243807e-07
-2.5421214e-06
3.6013063e-07
-2.6868806e-06
3.6729945e-07
-2.8337309e-06
3.739184e-07
-2.9824331e-06
3.799627e-07
-3.1327416e-06
3.8540905e-07
-3.2844054e-06
3.9023585e-07
-3.4371687e-06
3.9442338e-07
-3.5907718e-06
3.9795392e-07
-3.7449516e-06
4.0081193e-07
-3.8994428e-06
4.0298418e-07
-4.0539786e-06
4.0445982e-07
-4.2082916e-06
4.0523047e-07
-4.3621147e-06
4.0529034e-07
-4.515182e-06
4.0463621e-07
-4.6672296e-06
4.0326744e-07
-4.8179965e-06
4.0118608e-07
-4.9672258e-06
3.983967e-07
-5.1146649e-06
3.949065e-07
-5.2600668e-06
3.9072518e-07
-5.4031909e-06
3.8586484e-07
-5.5438033e-06
3.8033998e-07
-5.6816779e-06
3.7416729e-07
-5.816597e-06
3.6736561e-07
-5.9483516e-06
3.5995579e-07
-6.0767423e-06
3.5196047e-07
-6.2015796e-06
3.4340403e-07
-6.3226843e-06
3.3431236e-07
-6.4398881e-06
3.2471275e-07
-6.5530336e-06
3.146336e-07
-6.6619747e-06
3.0410441e-07
-6.7665768e-06
2.9315551e-07
-6.8667168e-06
2.8181783e-07
-6.9622833e-06
2.7012287e-07
-7.0531768e-06
2.581024e-07
-7.139309e-06
2.4578841e-07
-7.2206037e-06
2.3321281e-07
-7.2969955e-06
2.2040742e-07
-7.3684307e-06
2.0740378e-07
-7.4348663e-06
1.9423296e-07
-7.4962702e-06
1.8092556e-07
-7.5526205e-06
1.6751146e-07
-7.6039055e-06
1.5401974e-07
-7.6501232e-06
1.4047862e-07
-7.6912807e-06
1.2691526e-07
-7.7273941e-06
1.1335582e-07
-7.758488e-06
9.9825387e-08
-7.784595e-06
8.6347984e-08
-7.8057551e-06
7.2946739e-08
-7.8220157e-06
5.9643922e-08
-7.8334314e-06
4.6461314e-08
-7.8400656e-06
3.3421428e-08
-7.8419944e-06
2.0548981e-08
-7.8393112e-06
7.8750187e-09
-7.8319815e-06
-4.6994296e-09
-7.820134e-06
-1.7159841e-08
-7.8039078e-06
-2.9351818e-08
-7.7833575e-06
-4.1306663e-08
-7.7585579e-06
-5.3024143e-08
-7.7296021e-06
-6.4499524e-08
-7.6965887e-06
-7.5729361e-08
-7.6596152e-06
-8.6709039e-08
-7.6187792e-06
-9.7434087e-08
-7.5741788e-06
-1.0790068e-07
-7.5259122e-06
-1.1810584e-07
-7.474078e-06
-1.2804754e-07
-7.4187748e-06
-1.3772457e-07
-7.3601008e-06
-1.471365e-07
-7.2981536e-06
-1.5628378e-07
-7.2330305e-06
-1.6516759e-07
-7.1648272e-06
-1.7378968e-07
-7.0936388e-06
-1.8215249e-07
-7.0195586e-06
-1.9025908e-07
-6.9426786e-06
-1.9811296e-07
-6.8630891e-06
-2.0571818e-07
-6.7808785e-06
-2.130792e-07
-6.6961332e-06
-2.2020091e-07
-6.6089377e-06
-2.2708847e-07
-6.5193743e-06
-2.3374744e-07
-6.4275228e-06
-2.4018364e-07
-6.3334611e-06
-2.4640309e-07
-6.2372644e-06
-2.5241203e-07
-6.1390057e-06
-2.5821691e-07
-6.0387552e-06
-2.6382421e-07
-5.936581e-06
-2.6924066e-07
-5.8325485e-06
-2.7447298e-07
-5.7267205e-06
-2.79528e-07
-5.6191574e-06
-2.8441259e-07
-5.5099171e-06
-2.8913359e-07
-5.3990548e-06
-2.9369786e-07
-5.2866233e-06
-2.9811225e-07
-5.172673e-06
-3.0238354e-07
-5.0572517e-06
-3.0651848e-07
-4.9404049e-06
-3.1052372e-07
-4.8221755e-06
-3.1440591e-07
-4.7026042e-06
-3.1817149e-07
-4.5817295e-06
-3.2182684e-07
-4.4595874e-06
-3.2537823e-07
-4.3362118e-06
-3.2883186e-07
-4.2116344e-06
-3.3219369e-07
-4.0858848e-06
-3.3546961e-07
-3.9589905e-06
-3.3866535e-07
-3.8309772e-06
-3.4178648e-07
-3.7018683e-06
-3.4483842e-07
-3.5716855e-06
-3.4782642e-07
-3.4404488e-06
-3.507555e-07
-3.3081762e-06
-3.536306e-07
-3.1748842e-06
-3.5645635e-07
-3.0405872e-06
-3.5923728e-07
-2.9052987e-06
-3.6197777e-07
-2.7690303e-06
-3.6468188e-07
-2.6317922e-06
-3.673536e-07
-2.4935933e-06
-3.6999655e-07
-2.3544413e-06
-3.7261408e-07
-2.2143427e-06
-3.752093e-07
-2.073303e-06
-3.7778483e-07
-1.9313265e-06
-3.8034281e-07
-1.7884167e-06
-3.8288468e-07
-1.6445763e-06
-3.8541076e-07
-1.4998071e-06
-3.8791994e-07
-1.3541091e-06
-3.9040882e-07
-1.20748e-06
-3.928711e-07
-1.0599123e-06
-3.9529713e-07
-9.1138791e-07
-3.9767603e-07
-7.618697e-07
-4.0000544e-07
-6.1129427e-07
-4.0232036e-07
-4.5958463e-07
-4.0476418e-07
-3.0674765e-07
-4.0771665e-07
-1.5316207e-07
-4.1193514e-07
-4.1806217e-07
-3.0823482e-09
8.8177344e-09
-1.2203454e-08
2.66884e-08
-2.7302986e-08
4.4848552e-08
-4.831584e-08
6.3314862e-08
-7.5236879e-08
8.1939428e-08
-1.0807793e-07
1.006111e-07
-1.4683947e-07
1.1927446e-07
-1.9150805e-07
1.3789727e-07
-2.4205717e-07
1.5646065e-07
-2.9844891e-07
1.749511e-07
-3.6063539e-07
1.9335607e-07
-4.2855971e-07
2.1166176e-07
-5.0215647e-07
2.298522e-07
-5.8135187e-07
2.47909e-07
-6.6606362e-07
2.6581127e-07
-7.5620074e-07
2.8353568e-07
-8.5166329e-07
3.0105658e-07
-9.5234211e-07
3.1834611e-07
-1.0581185e-06
3.3537436e-07
-1.1688642e-06
3.521095e-07
-1.2844407e-06
3.68518e-07
-1.4046995e-06
3.845648e-07
-1.5294818e-06
4.0021355e-07
-1.6586186e-06
4.1542682e-07
-1.7919303e-06
4.3016633e-07
-1.9292274e-06
4.443932e-07
-2.0703101e-06
4.5806828e-07
-2.2149687e-06
4.7115232e-07
-2.3629838e-06
4.8360641e-07
-2.514127e-06
4.9539209e-07
-2.6681607e-06
5.0647179e-07
-2.8248391e-06
5.1680907e-07
-2.9839086e-06
5.2636889e-07
-3.1451081e-06
5.3511787e-07
-3.30817e-06
5.4302465e-07
-3.472821e-06
5.5006006e-07
-3.6387825e-06
5.5619738e-07
-3.8057717e-06
5.6141258e-07
-3.9735023e-06
5.656845e-07
-4.1416854e-06
5.6899504e-07
-4.3100306e-06
5.713293e-07
-4.4782465e-06
5.7267572e-07
-4.6460421e-06
5.7302613e-07
-4.8131277e-06
5.7237588e-07
-4.9792153e-06
5.7072385e-07
-5.1440203e-06
5.6807249e-07
-5.307262e-06
5.6442775e-07
-5.4686644e-06
5.5979911e-07
-5.6279574e-06
5.5419948e-07
-5.7848774e-06
5.4764512e-07
-5.939168e-06
5.4015553e-07
-6.0905814e-06
5.317533e-07
-6.238878e-06
5.2246397e-07
-6.3838283e-06
5.1231585e-07
-6.5252124e-06
5.0133985e-07
-6.6628212e-06
4.8956927e-07
-6.7964566e-06
4.7703951e-07
-6.9259323e-06
4.6378802e-07
-7.0510734e-06
4.4985388e-07
-7.1717175e-06
4.3527768e-07
-7.2877143e-06
4.2010124e-07
-7.3989262e-06
4.043674e-07
-7.5052281e-06
3.8811971e-07
-7.6065075e-06
3.7140228e-07
-7.7026646e-06
3.5425953e-07
-7.7936122e-06
3.3673593e-07
-7.8792752e-06
3.1887582e-07
-7.959591e-06
3.0072321e-07
-8.0345088e-06
2.823216e-07
-8.1039896e-06
2.6371375e-07
-8.1680056e-06
2.4494161e-07
-8.2265402e-06
2.2604604e-07
-8.2795872e-06
2.0706676e-07
-8.3271507e-06
1.8804213e-07
-8.3692445e-06
1.6900907e-07
-8.4058917e-06
1.5000303e-07
-8.4371242e-06
1.3105789e-07
-8.4629823e-06
1.1220605e-07
-8.483514e-06
9.3478462e-08
-8.4987749e-06
7.4904777e-08
-8.5088272e-06
5.6513643e-08
-8.5137392e-06
3.833342e-08
-8.5135861e-06
2.0395858e-08
-8.5085048e-06
2.7937377e-09
-8.4984093e-06
-1.4795007e-08
-8.4835397e-06
-3.2029372e-08
-8.4639542e-06
-4.8937358e-08
-8.4397444e-06
-6.551648e-08
-8.4110065e-06
-8.1762e-08
-8.3778394e-06
-9.7666622e-08
-8.3403455e-06
-1.1322322e-07
-8.2986294e-06
-1.284252e-07
-8.2527966e-06
-1.4326688e-07
-8.2029535e-06
-1.5774376e-07
-8.1492069e-06
-1.7185246e-07
-8.0916636e-06
-1.8559081e-07
-8.0304304e-06
-1.9895782e-07
-7.9656133e-06
-2.1195354e-07
-7.8973179e-06
-2.2457916e-07
-7.8256488e-06
-2.3683673e-07
-7.7507092e-06
-2.4872923e-07
-7.6726012e-06
-2.6026057e-07
-7.591425e-06
-2.7143528e-07
-7.5072792e-06
-2.8225871e-07
-7.4202606e-06
-2.9273679e-07
-7.3304638e-06
-3.0287605e-07
-7.2379812e-06
-3.1268353e-07
-7.1429029e-06
-3.2216673e-07
-7.0453167e-06
-3.3133359e-07
-6.945308e-06
-3.4019236e-07
-6.8429595e-06
-3.4875162e-07
-6.7383513e-06
-3.5702023e-07
-6.631561e-06
-3.6500725e-07
-6.5226633e-06
-3.727219e-07
-6.4117304e-06
-3.8017355e-07
-6.2988317e-06
-3.8737167e-07
-6.1840338e-06
-3.9432588e-07
-6.0674008e-06
-4.0104571e-07
-5.9489936e-06
-4.075407e-07
-5.828871e-06
-4.1382053e-07
-5.7070885e-06
-4.1989468e-07
-5.5836994e-06
-4.2577262e-07
-5.4587542e-06
-4.3146372e-07
-5.3323006e-06
-4.3697729e-07
-5.2043841e-06
-4.4232245e-07
-5.0750473e-06
-4.4750826e-07
-4.9443306e-06
-4.5254351e-07
-4.8122719e-06
-4.5743693e-07
-4.6789067e-06
-4.6219707e-07
-4.5442681e-06
-4.6683224e-07
-4.4083872e-06
-4.7135058e-07
-4.2712925e-06
-4.7575999e-07
-4.1330108e-06
-4.8006821e-07
-3.9935665e-06
-4.8428274e-07
-3.8529821e-06
-4.8841082e-07
-3.7112781e-06
-4.9245948e-07
-3.5684732e-06
-4.9643543e-07
-3.4245843e-06
-5.003453e-07
-3.2796263e-06
-5.0419527e-07
-3.1336127e-06
-5.0799137e-07
-2.9865552e-06
-5.1173932e-07
-2.8384642e-06
-5.1544462e-07
-2.6893484e-06
-5.1911236e-07
-2.5392152e-06
-5.2274731e-07
-2.3880706e-06
-5.2635382e-07
-2.2359196e-06
-5.2993585e-07
-2.0827656e-06
-5.3349679e-07
-1.9286109e-06
-5.3703931e-07
-1.7734565e-06
-5.4056518e-07
-1.6173014e-06
-5.4407502e-07
-1.4601422e-06
-5.4756806e-07
-1.3019713e-06
-5.5104197e-07
-1.1427747e-06
-5.5449375e-07
-9.8252791e-07
-5.5792283e-07
-8.2119299e-07
-5.6134037e-07
-6.5872266e-07
-5.6479067e-07
-4.9509223e-07
-5.6839464e-07
-3.3040071e-07
-5.7240815e-07
-1.6507902e-07
-5.7725686e-07
-5.8314118e-07
-3.2532097e-09
1.2070944e-08
-1.2919726e-08
3.6354916e-08
-2.8928564e-08
6.085739e-08
-5.120713e-08
8.5593428e-08
-7.9732177e-08
1.1046448e-07
-1.1450034e-07
1.3537927e-07
-1.555039e-07
1.6027801e-07
-2.0272494e-07
1.8511831e-07
-2.5613375e-07
2.0986946e-07
-3.1568908e-07
2.3450643e-07
-3.8133893e-07
2.5900592e-07
-4.5302128e-07
2.833441e-07
-5.3066451e-07
3.0749543e-07
-6.1418763e-07
3.3143212e-07
-7.0350024e-07
3.5512389e-07
-7.9850244e-07
3.7853788e-07
-8.990846e-07
4.0163874e-07
-1.0051272e-06
4.243887e-07
-1.1165005e-06
4.4674771e-07
-1.2330646e-06
4.686736e-07
-1.354669e-06
4.9012235e-07
-1.4811524e-06
5.1104825e-07
-1.6123431e-06
5.3140422e-07
-1.7480584e-06
5.5114209e-07
-1.8881049e-06
5.7021287e-07
-2.0322788e-06
5.8856709e-07
-2.1803657e-06
6.0615517e-07
-2.3321411e-06
6.229277e-07
-2.4873706e-06
6.3883589e-07
-2.6458103e-06
6.5383181e-07
-2.8072074e-06
6.678689e-07
-2.9713005e-06
6.809022e-07
-3.1378204e-06
6.9288878e-07
-3.3064906e-06
7.0378804e-07
-3.477028e-06
7.1356206e-07
-3.6491438e-06
7.2217592e-07
-3.8225444e-06
7.2959792e-07
-3.9969318e-06
7.358e-07
-4.1720051e-06
7.4075777e-07
-4.3474609e-06
7.4445087e-07
-4.5229947e-06
7.4686311e-07
-4.6983016e-06
7.4798257e-07
-4.8730772e-06
7.4780175e-07
-5.0470189e-06
7.4631764e-07
-5.2198268e-06
7.4353173e-07
-5.3912044e-06
7.3945003e-07
-5.5608597e-06
7.3408308e-07
-5.7285064e-06
7.2744582e-07
-5.8938644e-06
7.195575e-07
-6.0566609e-06
7.1044163e-07
-6.2166311e-06
7.0012572e-07
-6.373519e-06
6.886412e-07
-6.5270782e-06
6.7602313e-07
-6.6770723e-06
6.6231e-07
-6.823276e-06
6.4754348e-07
-6.9654749e-06
6.3176821e-07
-7.1034668e-06
6.1503138e-07
-7.2370614e-06
5.9738261e-07
-7.366081e-06
5.7887354e-07
-7.4903609e-06
5.5955753e-07
-7.609749e-06
5.3948941e-07
-7.7241068e-06
5.1872519e-07
-7.8333087e-06
4.9732162e-07
-7.9372425e-06
4.7533603e-07
-8.035809e-06
4.5282601e-07
-8.1289221e-06
4.2984905e-07
-8.2165087e-06
4.0646245e-07
-8.2985084e-06
3.8272285e-07
-8.3748729e-06
3.5868614e-07
-8.4455663e-06
3.344072e-07
-8.5105644e-06
3.0993967e-07
-8.5698541e-06
2.8533576e-07
-8.6234334e-06
2.6064605e-07
-8.6713107e-06
2.3591938e-07
-8.7135043e-06
2.1120269e-07
-8.7500422e-06
1.8654089e-07
-8.7809612e-06
1.6197693e-07
-8.8063068e-06
1.3755166e-07
-8.8261325e-06
1.1330411e-07
-8.8404993e-06
8.9271637e-08
-8.8494765e-06
6.5490783e-08
-8.8531422e-06
4.1999177e-08
-8.8515917e-06
1.8845381e-08
-8.8448083e-06
-3.9897145e-09
-8.8329973e-06
-2.6606012e-08
-8.8162302e-06
-4.8796431e-08
-8.7945973e-06
-7.0570315e-08
-8.7681947e-06
-9.1919022e-08
-8.7371248e-06
-1.1283192e-07
-8.701493e-06
-1.3329845e-07
-8.6614071e-06
-1.5330916e-07
-8.6169764e-06
-1.728558e-07
-8.5683117e-06
-1.9193168e-07
-8.5155238e-06
-2.1053158e-07
-8.4587245e-06
-2.2865181e-07
-8.398025e-06
-2.4629026e-07
-8.3335366e-06
-2.6344624e-07
-8.2653697e-06
-2.8012042e-07
-8.1936341e-06
-2.9631481e-07
-8.1184382e-06
-3.1203258e-07
-8.0398893e-06
-3.2727811e-07
-7.9580931e-06
-3.4205677e-07
-7.8731535e-06
-3.5637489e-07
-7.7851725e-06
-3.7023974e-07
-7.69425e-06
-3.8365927e-07
-7.6004838e-06
-3.9664222e-07
-7.5039694e-06
-4.0919798e-07
-7.4047996e-06
-4.2133649e-07
-7.303065e-06
-4.3306817e-07
-7.1988534e-06
-4.4440393e-07
-7.09225e-06
-4.5535503e-07
-6.9833372e-06
-4.6593302e-07
-6.8721947e-06
-4.7614976e-07
-6.7588994e-06
-4.8601727e-07
-6.6435252e-06
-4.9554776e-07
-6.5261433e-06
-5.0475356e-07
-6.4068221e-06
-5.1364707e-07
-6.2856271e-06
-5.2224073e-07
-6.1626208e-06
-5.3054693e-07
-6.0378632e-06
-5.3857814e-07
-5.9114113e-06
-5.463466e-07
-5.7833193e-06
-5.5386463e-07
-5.6536388e-06
-5.611443e-07
-5.5224185e-06
-5.6819756e-07
-5.3897047e-06
-5.7503625e-07
-5.2555409e-06
-5.8167203e-07
-5.1199681e-06
-5.8811626e-07
-4.9830249e-06
-5.9438017e-07
-4.8447473e-06
-6.004747e-07
-4.7051689e-06
-6.0641063e-07
-4.5643211e-06
-6.1219839e-07
-4.4222329e-06
-6.1784815e-07
-4.2789313e-06
-6.2336989e-07
-4.1344408e-06
-6.2877321e-07
-3.9887841e-06
-6.3406745e-07
-3.8419819e-06
-6.3926166e-07
-3.6940529e-06
-6.4436452e-07
-3.5450137e-06
-6.4938444e-07
-3.3948795e-06
-6.5432953e-07
-3.2436633e-06
-6.5920751e-07
-3.0913769e-06
-6.6402575e-07
-2.9380302e-06
-6.6879133e-07
-2.7836317e-06
-6.7351089e-07
-2.6281883e-06
-6.7819069e-07
-2.4717056e-06
-6.828365e-07
-2.3141878e-06
-6.8745367e-07
-2.1556376e-06
-6.92047e-07
-1.9960563e-06
-6.9662066e-07
-1.8354434e-06
-7.0117807e-07
-1.6737964e-06
-7.0572199e-07
-1.5111101e-06
-7.1025433e-07
-1.3473753e-06
-7.1477681e-07
-1.1825772e-06
-7.1929187e-07
-1.0166941e-06
-7.2380591e-07
-8.4969854e-07
-7.2833595e-07
-6.8156627e-07
-7.3292291e-07
-5.1230771e-07
-7.3765323e-07
-3.4203881e-07
-7.4267706e-07
-1.710933e-07
-7.4820232e-07
-7.5423449e-07
-3.3166492e-09
1.5387593e-08
-1.3209852e-08
4.624812e-08
-2.9620311e-08
7.7267848e-08
-5.2485947e-08
1.0845907e-07
-8.1776021e-08
1.3975455e-07
-1.1747547e-07
1.7107872e-07
-1.5956828e-07
2.0237082e-07
-2.0803152e-07
2.3358156e-07
-2.6283263e-07
2.6467057e-07
-3.239286e-07
2.9560241e-07
-3.9126611e-07
3.2634343e-07
-4.647817e-07
3.568597e-07
-5.4440207e-07
3.871158e-07
-6.3004408e-07
4.1707413e-07
-7.2161477e-07
4.4669457e-07
-8.1901119e-07
4.759343e-07
-9.2212028e-07
5.0474783e-07
-1.0308186e-06
5.3308704e-07
-1.1449722e-06
5.6090132e-07
-1.2644364e-06
5.8813779e-07
-1.3890556e-06
6.147415e-07
-1.5186631e-06
6.4065576e-07
-1.6530813e-06
6.658224e-07
-1.7921213e-06
6.9018214e-07
-1.9355834e-06
7.1367495e-07
-2.0832567e-06
7.3624043e-07
-2.2349198e-06
7.5781826e-07
-2.3903407e-06
7.7834858e-07
-2.5492772e-06
7.9777241e-07
-2.7114775e-06
8.1603215e-07
-2.8766806e-06
8.3307196e-07
-3.0446166e-06
8.4883821e-07
-3.2150077e-06
8.6327988e-07
-3.3875686e-06
8.7634898e-07
-3.5620076e-06
8.8800099e-07
-3.7380268e-06
8.9819512e-07
-3.9153236e-06
9.0689474e-07
-4.0935912e-06