/*--------------------------------*- C++ -*----------------------------------*\
| =========                 |                                                 |
| \\      /  F ield         | OpenFOAM: The Open Source CFD Toolbox           |
|  \\    /   O peration     | Version:  2306                                  |
|   \\  /    A nd           | Website:  www.openfoam.com                      |
|    \\/     M anipulation  |                                                 |
\*---------------------------------------------------------------------------*/
FoamFile
{
    version     2.0;
    format      ascii;
    arch        "LSB;label=32;scalar=64";
    class       surfaceScalarField;
    location    "0.17";
    object      phi;
}
// * * * * * * * * * * * * * * * * * * * * * * * * * * * * * * * * * * * * * //

dimensions      [0 3 -1 0 0 0 0];

oriented        oriented;

internalField   nonuniform List<scalar> 
12640
(
2.1445023e-07
1.7058678e-07
2.2006503e-07
1.6725614e-07
2.2557607e-07
1.636617e-07
2.3097403e-07
1.598059e-07
2.3624987e-07
1.5569197e-07
2.4139469e-07
1.5132254e-07
2.4639959e-07
1.4670222e-07
2.5125579e-07
1.4183418e-07
2.5595561e-07
1.3672351e-07
2.6049069e-07
1.313751e-07
2.6485322e-07
1.2579341e-07
2.6903589e-07
1.1998494e-07
2.7303105e-07
1.1395478e-07
2.7683208e-07
1.077093e-07
2.8043248e-07
1.0125469e-07
2.8382522e-07
9.4597509e-08
2.8700447e-07
8.7744674e-08
2.8996504e-07
8.0703589e-08
2.9270051e-07
7.348172e-08
2.9520675e-07
6.6086407e-08
2.9747705e-07
5.8525692e-08
2.9950904e-07
5.0806604e-08
3.0129772e-07
4.2937932e-08
3.0283934e-07
3.4927561e-08
3.0412933e-07
2.6784161e-08
3.0516538e-07
1.8516452e-08
3.0594423e-07
1.013312e-08
3.0646298e-07
1.6422134e-09
3.0671927e-07
-6.9471249e-09
3.0671135e-07
-1.562578e-08
3.0643787e-07
-2.4384593e-08
3.0589578e-07
-3.3214925e-08
3.0508644e-07
-4.2108364e-08
3.0400651e-07
-5.1054716e-08
3.0265626e-07
-6.0045383e-08
3.0103582e-07
-6.9071357e-08
2.9914493e-07
-7.8123508e-08
2.9698367e-07
-8.7192099e-08
2.9455339e-07
-9.6269364e-08
2.9185319e-07
-1.053448e-07
2.8888518e-07
-1.1441015e-07
2.8565158e-07
-1.2345685e-07
2.8215223e-07
-1.3247547e-07
2.7838952e-07
-1.4145661e-07
2.7436572e-07
-1.5039158e-07
2.7008301e-07
-1.5927279e-07
2.655444e-07
-1.6809025e-07
2.6075217e-07
-1.7683654e-07
2.5570888e-07
-1.855018e-07
2.5041821e-07
-1.9407849e-07
2.4488369e-07
-2.0255786e-07
2.3910896e-07
-2.1093252e-07
2.330968e-07
-2.1919399e-07
2.2685226e-07
-2.2733351e-07
2.2037971e-07
-2.3534375e-07
2.1368241e-07
-2.4321742e-07
2.067657e-07
-2.5094566e-07
1.9963425e-07
-2.5852217e-07
1.9229274e-07
-2.6593921e-07
1.8474701e-07
-2.7318989e-07
1.7700123e-07
-2.8026543e-07
1.6906138e-07
-2.871608e-07
1.6093294e-07
-2.9386822e-07
1.5262181e-07
-3.0038127e-07
1.4413384e-07
-3.066934e-07
1.3547439e-07
-3.1279849e-07
1.2665065e-07
-3.186891e-07
1.1766868e-07
-3.2436086e-07
1.0853484e-07
-3.2980639e-07
9.9255013e-08
-3.3502165e-07
8.9836371e-08
-3.399991e-07
8.0286271e-08
-3.447342e-07
7.0611377e-08
-3.4922215e-07
6.0819019e-08
-3.5345742e-07
5.0915898e-08
-3.5743578e-07
4.0909581e-08
-3.6115131e-07
3.0807881e-08
-3.6460157e-07
2.0617191e-08
-3.67785e-07
1.034553e-08
-3.7070898e-07
-3.7338483e-07
2.090323e-07
1.6507783e-07
2.1445089e-07
1.6183762e-07
2.1976984e-07
1.5834267e-07
2.2497999e-07
1.5459571e-07
2.3007284e-07
1.5059906e-07
2.3503951e-07
1.4635594e-07
2.3987162e-07
1.4186994e-07
2.4456101e-07
1.37145e-07
2.4909929e-07
1.3218521e-07
2.534789e-07
1.2699533e-07
2.5769224e-07
1.2158035e-07
2.6173245e-07
1.1594479e-07
2.6559193e-07
1.1009536e-07
2.6926411e-07
1.0403697e-07
2.7274258e-07
9.7775893e-08
2.7602107e-07
9.1318996e-08
2.7909364e-07
8.4672251e-08
2.8195441e-07
7.7842797e-08
2.8459843e-07
7.0837931e-08
2.8702021e-07
6.3664531e-08
2.8921563e-07
5.6330274e-08
2.9117951e-07
4.8842573e-08
2.9290831e-07
4.1209024e-08
2.9439797e-07
3.3437806e-08
2.9564478e-07
2.5537494e-08
2.966457e-07
1.7515595e-08
2.973972e-07
9.3811918e-09
2.9789713e-07
1.1420407e-09
2.9814336e-07
-7.1931433e-09
2.981333e-07
-1.5615343e-08
2.9786559e-07
-2.411697e-08
2.9733852e-07
-3.268784e-08
2.9655059e-07
-4.1320451e-08
2.9550151e-07
-5.0005481e-08
2.9419072e-07
-5.8734571e-08
2.9261725e-07
-6.7497748e-08
2.9078161e-07
-7.6287594e-08
2.8868358e-07
-8.5094135e-08
2.8632328e-07
-9.390934e-08
2.8370256e-07
-1.0272365e-07
2.8082152e-07
-1.1152915e-07
2.7768113e-07
-1.2031688e-07
2.742832e-07
-1.2907732e-07
2.7062987e-07
-1.3780285e-07
2.6672257e-07
-1.4648439e-07
2.6256385e-07
-1.5511385e-07
2.5815585e-07
-1.6368231e-07
2.535011e-07
-1.7218194e-07
2.4860261e-07
-1.8060308e-07
2.4346323e-07
-1.8893945e-07
2.3808667e-07
-1.971815e-07
2.3247633e-07
-2.0532201e-07
2.2663553e-07
-2.1335294e-07
2.2056808e-07
-2.2126606e-07
2.1427815e-07
-2.2905383e-07
2.0776991e-07
-2.3670902e-07
2.0104847e-07
-2.4422419e-07
1.9411751e-07
-2.5159119e-07
1.8698208e-07
-2.5880421e-07
1.7964667e-07
-2.6585453e-07
1.7211776e-07
-2.7273632e-07
1.6439919e-07
-2.794427e-07
1.5649739e-07
-2.8596662e-07
1.4841748e-07
-2.9230145e-07
1.4016502e-07
-2.9844091e-07
1.3174581e-07
-3.0437925e-07
1.2316634e-07
-3.1010981e-07
1.1443226e-07
-3.1562692e-07
1.0555055e-07
-3.2092504e-07
9.6527108e-08
-3.2599787e-07
8.7368018e-08
-3.3084e-07
7.8080884e-08
-3.3544693e-07
6.867231e-08
-3.398136e-07
5.9149143e-08
-3.4393424e-07
4.9518376e-08
-3.4780495e-07
3.9786572e-08
-3.5141983e-07
2.9962031e-08
-3.5477713e-07
2.0051347e-08
-3.578746e-07
1.0061793e-08
-3.607197e-07
-3.6332264e-07
2.0377217e-07
1.5976107e-07
2.0900194e-07
1.566079e-07
2.1413561e-07
1.5320903e-07
2.1916495e-07
1.4956638e-07
2.2408111e-07
1.4568287e-07
2.2887593e-07
1.4156118e-07
2.3354123e-07
1.3720487e-07
2.380691e-07
1.3261717e-07
2.4245127e-07
1.27803e-07
2.4668116e-07
1.2276573e-07
2.5075037e-07
1.175107e-07
2.5465242e-07
1.1204294e-07
2.5838068e-07
1.0636733e-07
2.6192771e-07
1.0048949e-07
2.6528838e-07
9.4415605e-08
2.68456e-07
8.8151385e-08
2.7142442e-07
8.1703606e-08
2.7418904e-07
7.5078443e-08
2.7674358e-07
6.8283174e-08
2.7908431e-07
6.1323875e-08
2.812058e-07
5.4209128e-08
2.8310378e-07
4.6944594e-08
2.8477388e-07
3.9538778e-08
2.8621286e-07
3.1999023e-08
2.8741692e-07
2.4333291e-08
2.8838276e-07
1.6549932e-08
2.8910763e-07
8.6565671e-09
2.8958871e-07
6.6079423e-10
2.8982403e-07
-7.4286472e-09
2.8981158e-07
-1.5602756e-08
2.8954851e-07
-2.3854076e-08
2.8903453e-07
-3.2174353e-08
2.8826891e-07
-4.0554302e-08
2.872489e-07
-4.8985868e-08
2.8597498e-07
-5.746036e-08
2.8444674e-07
-6.5969313e-08
2.8266327e-07
-7.4504485e-08
2.8062567e-07
-8.3056407e-08
2.7833404e-07
-9.1617352e-08
2.7578863e-07
-1.0017855e-07
2.7299067e-07
-1.0873106e-07
2.6994135e-07
-1.1726728e-07
2.6664181e-07
-1.2577798e-07
2.630935e-07
-1.3425524e-07
2.5929894e-07
-1.4268965e-07
2.5525961e-07
-1.5107459e-07
2.50978e-07
-1.5940094e-07
2.464566e-07
-1.6766012e-07
2.4169836e-07
-1.7584489e-07
2.367056e-07
-1.8394712e-07
2.3148214e-07
-1.919579e-07
2.26031e-07
-1.9987094e-07
2.2035542e-07
-2.0767751e-07
2.1445967e-07
-2.1537038e-07
2.0834741e-07
-2.2294137e-07
2.0202231e-07
-2.3038459e-07
1.9548989e-07
-2.3769142e-07
1.8875313e-07
-2.4485486e-07
1.8181809e-07
-2.5186885e-07
1.7468848e-07
-2.5872478e-07
1.6736938e-07
-2.6541715e-07
1.5986645e-07
-2.7193963e-07
1.5218423e-07
-2.7828451e-07
1.4432851e-07
-2.8444552e-07
1.3630525e-07
-2.9041738e-07
1.2811926e-07
-2.9619327e-07
1.1977713e-07
-3.0176796e-07
1.1128496e-07
-3.0713465e-07
1.0264807e-07
-3.1228828e-07
9.3873431e-08
-3.1722331e-07
8.4967098e-08
-3.2193384e-07
7.5936019e-08
-3.2641552e-07
6.67863e-08
-3.3066414e-07
5.7525629e-08
-3.3467275e-07
4.8158799e-08
-3.3843834e-07
3.8694646e-08
-3.4195548e-07
2.9139585e-08
-3.45222e-07
1.9501342e-08
-3.4823609e-07
9.7857831e-09
-3.5100402e-07
-3.535369e-07
1.9866459e-07
1.5462987e-07
2.0371208e-07
1.5156048e-07
2.0866729e-07
1.4825362e-07
2.13522e-07
1.4471174e-07
2.1826784e-07
1.4093697e-07
2.2289698e-07
1.3693201e-07
2.2740117e-07
1.3270039e-07
2.3177296e-07
1.2824543e-07
2.3600476e-07
1.2357106e-07
2.4008913e-07
1.1868128e-07
2.4401921e-07
1.1358067e-07
2.4778777e-07
1.0827404e-07
2.5138878e-07
1.0276629e-07
2.5481545e-07
9.7062846e-08
2.5806183e-07
9.1169183e-08
2.611217e-07
8.5091506e-08
2.6398958e-07
7.8835828e-08
2.6666036e-07
7.2407842e-08
2.6912853e-07
6.5814702e-08
2.713897e-07
5.9063e-08
2.7343921e-07
5.2159509e-08
2.7527254e-07
4.5111281e-08
2.7688572e-07
3.7925655e-08
2.7827518e-07
3.0609451e-08
2.7943685e-07
2.3171516e-08
2.8036865e-07
1.561803e-08
2.810674e-07
7.9578764e-09
2.8152965e-07
1.9846165e-10
2.8175419e-07
-7.6526437e-09
2.8173807e-07
-1.5586904e-08
2.8147998e-07
-2.359628e-08
2.8097864e-07
-3.1672657e-08
2.8023212e-07
-3.9807987e-08
2.7924016e-07
-4.7993886e-08
2.7800172e-07
-5.6222192e-08
2.7651623e-07
-6.4484066e-08
2.7478365e-07
-7.277202e-08
2.7280433e-07
-8.1076852e-08
2.7057762e-07
-8.9391e-08
2.6810531e-07
-9.770622e-08
2.6538749e-07
-1.0601342e-07
2.6242569e-07
-1.1430516e-07
2.5922066e-07
-1.2257304e-07
2.5577435e-07
-1.3080894e-07
2.5208847e-07
-1.3900375e-07
2.4816482e-07
-1.471507e-07
2.4400528e-07
-1.5524155e-07
2.3961294e-07
-1.6326782e-07
2.3499009e-07
-1.7122186e-07
2.3013947e-07
-1.7909638e-07
2.2506438e-07
-1.8688276e-07
2.1976738e-07
-1.9457412e-07
2.1425246e-07
-2.0216273e-07
2.0852316e-07
-2.0964058e-07
2.0258301e-07
-2.1700149e-07
1.9643642e-07
-2.2423758e-07
1.9008699e-07
-2.3134216e-07
1.8353945e-07
-2.3830735e-07
1.7679795e-07
-2.4512718e-07
1.6986735e-07
-2.5179452e-07
1.6275267e-07
-2.5830247e-07
1.5545871e-07
-2.6464549e-07
1.4799026e-07
-2.7081607e-07
1.403528e-07
-2.7680823e-07
1.3255177e-07
-2.8261638e-07
1.2459262e-07
-2.8823448e-07
1.1648141e-07
-2.9365652e-07
1.0822331e-07
-2.9887645e-07
9.9825305e-08
-3.0388982e-07
9.1292496e-08
-3.0869055e-07
8.2631955e-08
-3.1327302e-07
7.3849308e-08
-3.1763353e-07
6.495159e-08
-3.2176619e-07
5.5944947e-08
-3.2566618e-07
4.6836297e-08
-3.2932944e-07
3.7632039e-08
-3.3275154e-07
2.833951e-08
-3.3592954e-07
1.8965864e-08
-3.3886242e-07
9.5169338e-09
-3.4155577e-07
-3.4402004e-07
1.9370322e-07
1.4967706e-07
1.9857516e-07
1.4668855e-07
2.0335839e-07
1.4347028e-07
2.0804493e-07
1.4002517e-07
2.1262656e-07
1.3635539e-07
2.1709581e-07
1.3246314e-07
2.2144456e-07
1.2835149e-07
2.2566567e-07
1.240243e-07
2.297522e-07
1.194848e-07
2.3369625e-07
1.1473691e-07
2.3749166e-07
1.0978538e-07
2.4113139e-07
1.0463415e-07
2.4460942e-07
9.9288539e-08
2.4791925e-07
9.3753183e-08
2.5105463e-07
8.8033736e-08
2.5401045e-07
8.2135863e-08
2.567808e-07
7.6065202e-08
2.5936027e-07
6.9828371e-08
2.6174465e-07
6.3430664e-08
2.6392806e-07
5.6879245e-08
2.6590748e-07
5.0180072e-08
2.6767812e-07
4.3340599e-08
2.6923562e-07
3.6368027e-08
2.7057661e-07
2.9268779e-08
2.7169757e-07
2.2050415e-08
2.7259551e-07
1.472012e-08
2.7326775e-07
7.2855175e-09
2.7371208e-07
-2.4581325e-10
2.7392522e-07
-7.8656198e-09
2.7390547e-07
-1.5567274e-08
2.7365164e-07
-2.3342166e-08
2.7316125e-07
-3.1182355e-08
2.7243381e-07
-3.9080259e-08
2.7146817e-07
-4.7028409e-08
2.7026311e-07
-5.5017058e-08
2.6881885e-07
-6.3039636e-08
2.671347e-07
-7.1087924e-08
2.6521125e-07
-7.9152914e-08
2.6304825e-07
-8.7228047e-08
2.6064605e-07
-9.5303917e-08
2.5800599e-07
-1.0337336e-07
2.551283e-07
-1.1142753e-07
2.5201501e-07
-1.1945943e-07
2.4866674e-07
-1.2746041e-07
2.4508561e-07
-1.3542279e-07
2.4127353e-07
-1.4333863e-07
2.3723249e-07
-1.5120048e-07
2.3296506e-07
-1.5900002e-07
2.2847342e-07
-1.6673041e-07
2.2376021e-07
-1.7438278e-07
2.1882808e-07
-1.8195083e-07
2.1368082e-07
-1.8942699e-07
2.0832181e-07
-1.9680344e-07
2.0275376e-07
-2.0407261e-07
1.9698077e-07
-2.1122866e-07
1.9100663e-07
-2.1826357e-07
1.8483516e-07
-2.2517076e-07
1.7847092e-07
-2.3194287e-07
1.7191794e-07
-2.3857451e-07
1.6518079e-07
-2.4505747e-07
1.5826417e-07
-2.513857e-07
1.5117275e-07
-2.5755407e-07
1.4391216e-07
-2.6355503e-07
1.3648681e-07
-2.6938273e-07
1.2890201e-07
-2.7503166e-07
1.2116331e-07
-2.8049594e-07
1.1327648e-07
-2.8576914e-07
1.0524684e-07
-2.9084702e-07
9.7080415e-08
-2.9572369e-07
8.8782975e-08
-3.0039313e-07
8.0361099e-08
-3.048513e-07
7.1820262e-08
-3.0909283e-07
6.3167133e-08
-3.1311276e-07
5.4408129e-08
-3.1690727e-07
4.5549705e-08
-3.2047121e-07
3.6598586e-08
-3.2380046e-07
2.7561386e-08
-3.2689214e-07
1.8445014e-08
-3.2974573e-07
9.2556102e-09
-3.323662e-07
-3.3476428e-07
1.8888297e-07
1.4489628e-07
1.9358589e-07
1.4198546e-07
1.9820363e-07
1.3885277e-07
2.0272773e-07
1.3550101e-07
2.071513e-07
1.3193187e-07
2.1146606e-07
1.2814828e-07
2.1566519e-07
1.2415284e-07
2.1974094e-07
1.199482e-07
2.2368685e-07
1.1553923e-07
2.2749538e-07
1.1092825e-07
2.3116086e-07
1.0612007e-07
2.3467588e-07
1.0111898e-07
2.3803474e-07
9.5929726e-08
2.4123119e-07
9.0556559e-08
2.4425966e-07
8.500557e-08
2.4711421e-07
7.9281162e-08
2.4978994e-07
7.3389771e-08
2.5228168e-07
6.7336628e-08
2.545842e-07
6.1127843e-08
2.5669324e-07
5.4770239e-08
2.586043e-07
4.8269159e-08
2.6031299e-07
4.1631863e-08
2.6181619e-07
3.4864828e-08
2.6311009e-07
2.7974985e-08
2.6419104e-07
2.0969593e-08
2.6505603e-07
1.3854932e-08
2.6570295e-07
6.6389853e-09
2.6612824e-07
-6.7117543e-10
2.6633025e-07
-8.0675474e-09
2.6630661e-07
-1.5543639e-08
2.6605518e-07
-2.3090997e-08
2.6557574e-07
-3.0702615e-08
2.6486622e-07
-3.8370451e-08
2.639251e-07
-4.6087563e-08
2.6275263e-07
-5.3844518e-08
2.6134784e-07
-6.1634964e-08
2.5971012e-07
-6.9450301e-08
2.5784039e-07
-7.7283404e-08
2.5573828e-07
-8.5125681e-08
2.5340359e-07
-9.296989e-08
2.5083819e-07
-1.0080757e-07
2.4804226e-07
-1.086318e-07
2.4501694e-07
-1.16434e-07
2.4176396e-07
-1.2420762e-07
2.3828407e-07
-1.3194278e-07
2.3458024e-07
-1.3963485e-07
2.3065355e-07
-1.4727386e-07
2.2650699e-07
-1.5485339e-07
2.2214222e-07
-1.6236543e-07
2.1756219e-07
-1.6980298e-07
2.1276942e-07
-1.7715789e-07
2.0776758e-07
-1.844246e-07
2.0255852e-07
-1.9159498e-07
1.9714719e-07
-1.9866123e-07
1.9153643e-07
-2.0561773e-07
1.857295e-07
-2.1245665e-07
1.7973074e-07
-2.1917198e-07
1.7354437e-07
-2.2575658e-07
1.6717442e-07
-2.3220438e-07
1.60625e-07
-2.3850764e-07
1.5390081e-07
-2.4466149e-07
1.4700653e-07
-2.5065993e-07
1.3994703e-07
-2.5649562e-07
1.3272749e-07
-2.6216322e-07
1.2535313e-07
-2.6765722e-07
1.1782889e-07
-2.7297135e-07
1.1015998e-07
-2.7810037e-07
1.0235201e-07
-2.8303898e-07
9.4410583e-08
-2.8778214e-07
8.6342484e-08
-2.9232454e-07
7.8152499e-08
-2.9666139e-07
6.9846854e-08
-3.00787e-07
6.1431621e-08
-3.04698e-07
5.2913453e-08
-3.0838919e-07
4.4298835e-08
-3.1185607e-07
3.5593562e-08
-3.1509533e-07
2.6804448e-08
-3.1810358e-07
1.7938766e-08
-3.2087944e-07
9.0016389e-09
-3.2342947e-07
-3.2576243e-07
1.8419882e-07
1.4028131e-07
1.8873913e-07
1.3744491e-07
1.9319703e-07
1.3439487e-07
1.9756518e-07
1.3113303e-07
2.0183577e-07
1.2766117e-07
2.0600174e-07
1.2398192e-07
2.1005616e-07
1.2009825e-07
2.1399175e-07
1.1601285e-07
2.1780185e-07
1.11729e-07
2.2147982e-07
1.0725026e-07
2.2501925e-07
1.0258065e-07
2.2841381e-07
9.7724266e-08
2.3165783e-07
9.2685903e-08
2.3474467e-07
8.7469735e-08
2.3766923e-07
8.2080892e-08
2.4042609e-07
7.6524237e-08
2.4300984e-07
7.0805831e-08
2.4541574e-07
6.4930486e-08
2.4763935e-07
5.8904638e-08
2.4967557e-07
5.2733884e-08
2.5152001e-07
4.6424266e-08
2.5317016e-07
3.9982007e-08
2.5462038e-07
3.3414273e-08
2.5586808e-07
2.6727231e-08
2.5690984e-07
1.9927719e-08
2.5774265e-07
1.3022017e-08
2.5836356e-07
6.0179331e-09
2.5877049e-07
-1.0780989e-09
2.5896117e-07
-8.2580742e-09
2.5893301e-07
-1.5515693e-08
2.5868518e-07
-2.2843155e-08
2.5821491e-07
-3.0232853e-08
2.5752222e-07
-3.7677622e-08
2.5660504e-07
-4.517027e-08
2.5546367e-07
-5.2703266e-08
2.5409649e-07
-6.0267849e-08
2.5250389e-07
-6.7857717e-08
2.5068551e-07
-7.5464945e-08
2.4864132e-07
-8.3081746e-08
2.463725e-07
-9.0701166e-08
2.4387887e-07
-9.8313977e-08
2.4116144e-07
-1.0591423e-07
2.3822145e-07
-1.134944e-07
2.3506002e-07
-1.2104613e-07
2.3167884e-07
-1.2856166e-07
2.2807901e-07
-1.360351e-07
2.2426358e-07
-1.4345816e-07
2.2023323e-07
-1.5082303e-07
2.1599154e-07
-1.5812356e-07
2.115406e-07
-1.6535187e-07
2.0688281e-07
-1.7250042e-07
2.0202119e-07
-1.7956303e-07
1.9695871e-07
-1.8653223e-07
1.9169907e-07
-1.9340152e-07
1.8624486e-07
-2.0016408e-07
1.8060061e-07
-2.0681257e-07
1.7476983e-07
-2.1334092e-07
1.6875611e-07
-2.1974248e-07
1.6256318e-07
-2.2601153e-07
1.561962e-07
-2.3214056e-07
1.4965905e-07
-2.3812437e-07
1.4295631e-07
-2.4395689e-07
1.3609263e-07
-2.4963235e-07
1.2907327e-07
-2.5514397e-07
1.219032e-07
-2.604866e-07
1.1458673e-07
-2.6565542e-07
1.0712927e-07
-2.7064338e-07
9.9537266e-08
-2.7544701e-07
9.181513e-08
-2.8006034e-07
8.3968757e-08
-2.8447843e-07
7.6004295e-08
-2.8869669e-07
6.7927734e-08
-2.9271022e-07
5.9744167e-08
-2.9651437e-07
5.146031e-08
-3.0010518e-07
4.3081687e-08
-3.0347793e-07
3.461619e-08
-3.0662981e-07
2.6068617e-08
-3.0955598e-07
1.7446265e-08
-3.122571e-07
8.7545205e-09
-3.1473782e-07
-3.1700824e-07
1.7964622e-07
1.3582558e-07
1.8402991e-07
1.3306127e-07
1.8833392e-07
1.3009064e-07
1.9255114e-07
1.2691568e-07
1.9667468e-07
1.2353785e-07
2.0069718e-07
1.1995958e-07
2.0461206e-07
1.1618354e-07
2.0841225e-07
1.1221241e-07
2.1209145e-07
1.0804975e-07
2.1564303e-07
1.0369848e-07
2.1906101e-07
9.9163098e-08
2.2233886e-07
9.4446348e-08
2.2547132e-07
8.9553576e-08
2.2845236e-07
8.4488512e-08
2.3127632e-07
7.9256652e-08
2.3393874e-07
7.3862087e-08
2.3643367e-07
6.8310601e-08
2.3875701e-07
6.2607513e-08
2.4090344e-07
5.6758023e-08
2.4286916e-07
5.0767965e-08
2.4464989e-07
4.4643702e-08
2.4624116e-07
3.8390439e-08
2.4764004e-07
3.2015659e-08
2.4884295e-07
2.5524552e-08
2.4984617e-07
1.8924202e-08
2.5064747e-07
1.2220907e-08
2.512436e-07
5.4219848e-09
2.5163228e-07
-1.466847e-09
2.518119e-07
-8.4375205e-09
2.5177913e-07
-1.5482701e-08
2.5153337e-07
-2.2596986e-08
2.5107243e-07
-2.9771953e-08
2.5039516e-07
-3.7000606e-08
2.4950155e-07
-4.4276252e-08
2.4838881e-07
-5.1590869e-08
2.4705829e-07
-5.8937182e-08
2.4550843e-07
-6.6307759e-08
2.437395e-07
-7.3696228e-08
2.4175191e-07
-8.1094243e-08
2.395456e-07
-8.8494486e-08
2.371213e-07
-9.5889433e-08
2.3447973e-07
-1.0327276e-07
2.31622e-07
-1.1063635e-07
2.2854905e-07
-1.1797313e-07
2.2526286e-07
-1.2527534e-07
2.2176478e-07
-1.3253685e-07
2.1805618e-07
-1.3974972e-07
2.1413963e-07
-1.4690663e-07
2.10017e-07
-1.5400097e-07
2.0569079e-07
-1.6102569e-07
2.0116363e-07
-1.6797343e-07
1.9643816e-07
-1.7483759e-07
1.9151748e-07
-1.8161188e-07
1.8640525e-07
-1.8828931e-07
1.8110337e-07
-1.948624e-07
1.756167e-07
-2.0132593e-07
1.6994804e-07
-2.0767216e-07
1.6410171e-07
-2.1389646e-07
1.5808147e-07
-2.1999105e-07
1.5189148e-07
-2.259505e-07
1.4553576e-07
-2.3176869e-07
1.3901937e-07
-2.3744073e-07
1.3234605e-07
-2.4295881e-07
1.2552074e-07
-2.483189e-07
1.1854875e-07
-2.5351443e-07
1.1143467e-07
-2.5854101e-07
1.0418355e-07
-2.6339229e-07
9.6800578e-08
-2.6806379e-07
8.9291638e-08
-2.7255135e-07
8.1662017e-08
-2.7684883e-07
7.3916467e-08
-2.8095162e-07
6.6061879e-08
-2.8485542e-07
5.8103362e-08
-2.8855611e-07
5.0046891e-08
-2.9204908e-07
4.189938e-08
-2.9533013e-07
3.3665714e-08
-2.9839589e-07
2.5353259e-08
-3.0124297e-07
1.6966855e-08
-3.0387135e-07
8.5140585e-09
-3.0628475e-07
-3.0849396e-07
1.7522046e-07
1.3152339e-07
1.7945299e-07
1.2882859e-07
1.8360898e-07
1.2593486e-07
1.8768093e-07
1.2284359e-07
1.9166245e-07
1.1955628e-07
1.9554676e-07
1.1607551e-07
1.9932655e-07
1.1240339e-07
2.0299629e-07
1.0854297e-07
2.065488e-07
1.0449708e-07
2.0997854e-07
1.0026901e-07
2.1327892e-07
9.5862318e-08
2.1644429e-07
9.1281122e-08
2.1946917e-07
8.6528899e-08
2.2234769e-07
8.1609905e-08
2.2507469e-07
7.652958e-08
2.2764526e-07
7.1291789e-08
2.3005428e-07
6.5901717e-08
2.3229704e-07
6.0364466e-08
2.3436912e-07
5.4686029e-08
2.3626617e-07
4.8871009e-08
2.3798431e-07
4.292548e-08
2.3951937e-07
3.6855283e-08
2.4086813e-07
3.0666903e-08
2.4202725e-07
2.4365355e-08
2.4299348e-07
1.7957953e-08
2.4376403e-07
1.145059e-08
2.4433555e-07
4.8501979e-09
2.447065e-07
-1.8375291e-09
2.4487383e-07
-8.6051783e-09
2.4483697e-07
-1.5445743e-08
2.4459281e-07
-2.2353032e-08
2.4414048e-07
-2.9319583e-08
2.4347864e-07
-3.6339036e-08
2.4260624e-07
-4.3403668e-08
2.4152215e-07
-5.0506841e-08
2.4022613e-07
-5.7641096e-08
2.3871781e-07
-6.4799522e-08
2.3699672e-07
-7.1974911e-08
2.3506343e-07
-7.9160862e-08
2.3291759e-07
-8.6348727e-08
2.3056036e-07
-9.3532327e-08
2.2799244e-07
-1.0070484e-07
2.252142e-07
-1.0785821e-07
2.2222724e-07
-1.1498603e-07
2.1903247e-07
-1.2208063e-07
2.1563235e-07
-1.2913666e-07
2.120275e-07
-1.3614484e-07
2.0822019e-07
-1.4309948e-07
2.0421316e-07
-1.4999383e-07
2.0000769e-07
-1.5682023e-07
1.9560707e-07
-1.6357272e-07
1.9101405e-07
-1.7024446e-07
1.8623064e-07
-1.7682836e-07
1.8126058e-07
-1.8331879e-07
1.7610706e-07
-1.8970882e-07
1.707731e-07
-1.9599179e-07
1.6526243e-07
-2.0216197e-07
1.595788e-07
-2.0821254e-07
1.5372583e-07
-2.1413817e-07
1.4770759e-07
-2.1993247e-07
1.4152857e-07
-2.2559001e-07
1.3519248e-07
-2.3110407e-07
1.2870387e-07
-2.364702e-07
1.2206751e-07
-2.416827e-07
1.1528828e-07
-2.4673495e-07
1.0837081e-07
-2.5162337e-07
1.0131955e-07
-2.5634104e-07
9.414039e-08
-2.6088476e-07
8.6837985e-08
-2.6524912e-07
7.9417681e-08
-2.6942866e-07
7.1886077e-08
-2.7341959e-07
6.4247166e-08
-2.7721695e-07
5.6507605e-08
-2.8081631e-07
4.8672904e-08
-2.8421444e-07
4.0748855e-08
-2.8740601e-07
3.2741408e-08
-2.9038848e-07
2.465677e-08
-2.9315909e-07
1.6501503e-08
-2.9571565e-07
8.280459e-09
-2.9806371e-07
-3.0021367e-07
1.7091694e-07
1.273688e-07
1.7500419e-07
1.2474157e-07
1.7901694e-07
1.2192194e-07
1.8294921e-07
1.1891143e-07
1.8679403e-07
1.1571175e-07
1.9054456e-07
1.1232474e-07
1.9419473e-07
1.0875316e-07
1.9773824e-07
1.0499945e-07
2.0116882e-07
1.0106649e-07
2.0448062e-07
9.6957209e-08
2.0766743e-07
9.2675458e-08
2.1072429e-07
8.8224295e-08
2.1364507e-07
8.3607815e-08
2.1642453e-07
7.8830625e-08
2.1905756e-07
7.3896544e-08
2.2153922e-07
6.8810103e-08
2.2386467e-07
6.3576201e-08
2.2602959e-07
5.8199786e-08
2.2802941e-07
5.2686271e-08
2.2986004e-07
4.7040174e-08
2.3151742e-07
4.1268132e-08
2.329979e-07
3.5374799e-08
2.3429809e-07
2.93667e-08
2.3541476e-07
2.3248981e-08
2.363445e-07
1.7028396e-08
2.3708439e-07
1.0710462e-08
2.3763247e-07
4.3021593e-09
2.3798602e-07
-2.1911973e-09
2.3814262e-07
-8.7618329e-09
2.3810076e-07
-1.54037e-08
2.378582e-07
-2.2110313e-08
2.3741358e-07
-2.8875217e-08
2.3676588e-07
-3.5691243e-08
2.3591419e-07
-4.2551904e-08
2.3485716e-07
-4.9449411e-08
2.3359463e-07
-5.6378408e-08
2.3212585e-07
-6.3330716e-08
2.3045109e-07
-7.0300286e-08
2.2856962e-07
-7.7279386e-08
2.2648275e-07
-8.4261878e-08
2.2419006e-07
-9.1239624e-08
2.2169269e-07
-9.8207154e-08
2.1899134e-07
-1.0515722e-07
2.1608754e-07
-1.1208193e-07
2.1298184e-07
-1.1897511e-07
2.0967564e-07
-1.258305e-07
2.0617137e-07
-1.3264036e-07
2.0247025e-07
-1.3939879e-07
1.9857472e-07
-1.4609778e-07
1.9448686e-07
-1.5273206e-07
1.9020884e-07
-1.5929473e-07
1.8574358e-07
-1.6577931e-07
1.8109424e-07
-1.7217882e-07
1.7626258e-07
-1.7848721e-07
1.712521e-07
-1.8469825e-07
1.6606659e-07
-1.9080632e-07
1.6070901e-07
-1.9680427e-07
1.5518308e-07
-2.0268655e-07
1.4949241e-07
-2.0844761e-07
1.436413e-07
-2.1408125e-07
1.3763323e-07
-2.1958181e-07
1.3147218e-07
-2.2494337e-07
1.2516329e-07
-2.301612e-07
1.1871048e-07
-2.3522986e-07
1.1211831e-07
-2.4014269e-07
1.053915e-07
-2.4489668e-07
9.8534573e-08
-2.4948457e-07
9.1553416e-08
-2.5390367e-07
8.4452533e-08
-2.5814774e-07
7.7236742e-08
-2.6221305e-07
6.9911784e-08
-2.6609484e-07
6.2483149e-08
-2.6978797e-07
5.4956316e-08
-2.7328934e-07
4.7337026e-08
-2.7659503e-07
3.9630283e-08
-2.7969976e-07
3.1843078e-08
-2.8260151e-07
2.3980416e-08
-2.852961e-07
1.6048317e-08
-2.8778385e-07
8.0534474e-09
-2.9006889e-07
-2.9216046e-07
1.6673164e-07
1.2335683e-07
1.7067865e-07
1.2079449e-07
1.7455395e-07
1.1804662e-07
1.7835127e-07
1.1511418e-07
1.8206394e-07
1.1199889e-07
1.8568581e-07
1.0870296e-07
1.8921074e-07
1.0522823e-07
1.9263279e-07
1.0157775e-07
1.959454e-07
9.7753613e-08
1.9914362e-07
9.3759172e-08
2.0222104e-07
8.9597724e-08
2.051727e-07
8.5272831e-08
2.0799265e-07
8.0787917e-08
2.106765e-07
7.6146866e-08
2.1321855e-07
7.1354291e-08
2.1561466e-07
6.6414273e-08
2.1785923e-07
6.1331349e-08
2.1994857e-07
5.6110605e-08
2.2187841e-07
5.0756275e-08
2.2364462e-07
4.5273924e-08
2.2524324e-07
3.9669317e-08
2.2667125e-07
3.3947262e-08
2.2792422e-07
2.8113689e-08
2.2899929e-07
2.2173777e-08
2.2989367e-07
1.6133954e-08
2.3060438e-07
9.9997372e-09
2.311289e-07
3.7775472e-09
2.314652e-07
-2.5271756e-09
2.3161057e-07
-8.9072223e-09
2.3156348e-07
-1.5356749e-08
2.3132244e-07
-2.186928e-08
2.3088523e-07
-2.8437965e-08
2.3025145e-07
-3.5057225e-08
2.29419e-07
-4.1719672e-08
2.2838793e-07
-4.8418904e-08
2.2715742e-07
-5.5147752e-08
2.257269e-07
-6.1900314e-08
2.2409622e-07
-6.8669404e-08
2.2226575e-07
-7.5449114e-08
2.2023498e-07
-8.2231221e-08
2.1800536e-07
-8.9009889e-08
2.1557618e-07
-9.5778174e-08
2.1294886e-07
-1.0253002e-07
2.1012501e-07
-1.0925751e-07
2.0710535e-07
-1.1595564e-07
2.0389096e-07
-1.2261625e-07
2.0048396e-07
-1.2923288e-07
1.9688514e-07
-1.3580029e-07
1.9309801e-07
-1.4231095e-07
1.8912391e-07
-1.4875807e-07
1.8496526e-07
-1.5513594e-07
1.8062406e-07
-1.6143812e-07
1.7610345e-07
-1.6765828e-07
1.7140635e-07
-1.7378993e-07
1.6653499e-07
-1.7982748e-07
1.6149358e-07
-1.8576485e-07
1.5628448e-07
-1.9159525e-07
1.5091187e-07
-1.97314e-07
1.453789e-07
-2.0291463e-07
1.3968962e-07
-2.0839188e-07
1.3384754e-07
-2.1374009e-07
1.2785706e-07
-2.1895282e-07
1.2172233e-07
-2.2402639e-07
1.1544758e-07
-2.2895474e-07
1.0903713e-07
-2.3373248e-07
1.0249585e-07
-2.3835498e-07
9.5827989e-08
-2.4281698e-07
8.9039074e-08
-2.471144e-07
8.2133564e-08
-2.5124224e-07
7.5116388e-08
-2.5519587e-07
6.7992773e-08
-2.5897102e-07
6.0768232e-08
-2.6256344e-07
5.3448116e-08
-2.6596917e-07
4.6037805e-08
-2.6918446e-07
3.8543285e-08
-2.7220481e-07
3.0969596e-08
-2.7502764e-07
2.3322318e-08
-2.7764912e-07
1.5608312e-08
-2.8006919e-07
7.8320826e-09
-2.8229261e-07
-2.8432793e-07
1.6266044e-07
1.1948205e-07
1.6647227e-07
1.1698271e-07
1.7021526e-07
1.1430403e-07
1.7388238e-07
1.1144685e-07
1.7746797e-07
1.0841336e-07
1.8096575e-07
1.0520507e-07
1.8436994e-07
1.0182432e-07
1.8767436e-07
9.8273145e-08
1.9087344e-07
9.4554454e-08
1.9396177e-07
9.0670998e-08
1.9693357e-07
8.6626087e-08
1.9978358e-07
8.2422847e-08
2.0250674e-07
7.8064812e-08
2.0509765e-07
7.3555809e-08
2.0755223e-07
6.8899874e-08
2.0986506e-07
6.4101474e-08
2.1203168e-07
5.9164706e-08
2.1404799e-07
5.409413e-08
2.1591022e-07
4.8894207e-08
2.1761421e-07
4.3570375e-08
2.1915571e-07
3.8127659e-08
2.2053162e-07
3.257106e-08
2.2173871e-07
2.6906421e-08
2.2277425e-07
2.1138249e-08
2.2363379e-07
1.5274052e-08
2.2431598e-07
9.317542e-09
2.2481785e-07
3.27573e-09
2.251369e-07
-2.8463315e-09
2.2527129e-07
-9.041633e-09
2.2521925e-07
-1.5304547e-08
2.249789e-07
-2.1629052e-08
2.2454901e-07
-2.8008153e-08
2.2392778e-07
-3.4436294e-08
2.2311474e-07
-4.0906615e-08
2.2210852e-07
-4.7412291e-08
2.2090905e-07
-5.3948309e-08
2.1951548e-07
-6.0506701e-08
2.1792748e-07
-6.7081493e-08
2.1614523e-07
-7.3666491e-08
2.141693e-07
-8.0255262e-08
2.1199911e-07
-8.683984e-08
2.0963673e-07
-9.3415369e-08
2.0708146e-07
-9.9974951e-08
2.0433495e-07
-1.0651129e-07
2.0139834e-07
-1.1301892e-07
1.9827281e-07
-1.19491e-07
1.9496017e-07
-1.2592079e-07
1.9146124e-07
-1.3230132e-07
1.8777862e-07
-1.3862838e-07
1.8391468e-07
-1.4489382e-07
1.7987083e-07
-1.5109214e-07
1.7564986e-07
-1.5721717e-07
1.7125476e-07
-1.6326286e-07
1.6668762e-07
-1.6922283e-07
1.6195169e-07
-1.750914e-07
1.5704983e-07
-1.808629e-07
1.5198471e-07
-1.8653061e-07
1.467611e-07
-1.9209011e-07
1.4138144e-07
-1.9753482e-07
1.3584917e-07
-2.0285963e-07
1.3016829e-07
-2.0805911e-07
1.2434332e-07
-2.1312782e-07
1.1837763e-07
-2.1806118e-07
1.1227577e-07
-2.2285299e-07
1.0604217e-07
-2.2749879e-07
9.9680461e-08
-2.3199338e-07
9.319698e-08
-2.3633342e-07
8.6594669e-08
-2.4051233e-07
7.9879114e-08
-2.4452637e-07
7.3054712e-08
-2.4837196e-07
6.6127218e-08
-2.5204362e-07
5.9101028e-08
-2.5553742e-07
5.1981982e-08
-2.5885036e-07
4.4774982e-08
-2.6197756e-07
3.7485867e-08
-2.6491595e-07
3.0119771e-08
-2.6766165e-07
2.2682732e-08
-2.7021226e-07
1.5180519e-08
-2.7256697e-07
7.6173235e-09
-2.7473037e-07
-2.7671071e-07
1.5869964e-07
1.1573946e-07
1.6238146e-07
1.1330092e-07
1.659965e-07
1.1068885e-07
1.6953846e-07
1.07905e-07
1.7300149e-07
1.0495049e-07
1.7637961e-07
1.018269e-07
1.7966719e-07
9.853665e-08
1.8285859e-07
9.5081753e-08
1.8594813e-07
9.1465072e-08
1.8893012e-07
8.7688732e-08
1.9179981e-07
8.3756437e-08
1.9455169e-07
7.9670755e-08
1.9718102e-07
7.5435635e-08
1.9968269e-07
7.1054035e-08
2.0205197e-07
6.653043e-08
2.0428468e-07
6.1868948e-08
2.0637583e-07
5.7073204e-08
2.0832214e-07
5.2147834e-08
2.101185e-07
4.709763e-08
2.1176166e-07
4.1927005e-08
2.1324793e-07
3.6641336e-08
2.1457431e-07
3.1244927e-08
2.1573694e-07
2.574422e-08
2.1673261e-07
2.0142362e-08
2.1755923e-07
1.4447362e-08
2.1821339e-07
8.6634387e-09
2.186933e-07
2.7960411e-09
2.1899573e-07
-3.1490218e-09
2.1911934e-07
-9.1651876e-09
2.1906228e-07
-1.5247331e-08
2.1882262e-07
-2.1389337e-08
2.1839891e-07
-2.7584371e-08
2.1779004e-07
-3.3827275e-08
2.1699501e-07
-4.0111278e-08
2.1601304e-07
-4.6430222e-08
2.1484319e-07
-5.2778295e-08
2.1348486e-07
-5.9148171e-08
2.1193789e-07
-6.5535114e-08
2.1020311e-07
-7.1931567e-08
2.0827933e-07
-7.8331608e-08
2.0616813e-07
-8.4728564e-08
2.0386933e-07
-9.1116473e-08
2.0138353e-07
-9.7489161e-08
1.9871232e-07
-1.038399e-07
1.9585591e-07
-1.1016288e-07
1.9281647e-07
-1.1645141e-07
1.8959474e-07
-1.2269865e-07
1.861927e-07
-1.2889926e-07
1.8261155e-07
-1.3504732e-07
1.7885401e-07
-1.4113617e-07
1.7492215e-07
-1.4716044e-07
1.7081845e-07
-1.531131e-07
1.6654443e-07
-1.5898901e-07
1.6210333e-07
-1.6478213e-07
1.5749842e-07
-1.7048646e-07
1.5273194e-07
-1.760965e-07
1.47807e-07
-1.8160603e-07
1.4272763e-07
-1.8701045e-07
1.3749616e-07
-1.923033e-07
1.3211686e-07
-1.9748054e-07
1.2659339e-07
-2.0253555e-07
1.2092846e-07
-2.0746323e-07
1.1512735e-07
-2.1225979e-07
1.0919407e-07
-2.169195e-07
1.0313176e-07
-2.2143652e-07
9.6945585e-08
-2.2580723e-07
9.0639514e-08
-2.3002717e-07
8.421884e-08