/*--------------------------------*- C++ -*----------------------------------*\
| =========                 |                                                 |
| \\      /  F ield         | OpenFOAM: The Open Source CFD Toolbox           |
|  \\    /   O peration     | Version:  2106                                  |
|   \\  /    A nd           | Website:  www.openfoam.com                      |
|    \\/     M anipulation  |                                                 |
\*---------------------------------------------------------------------------*/
FoamFile
{
    version     2.0;
    format      ascii;
    arch        "LSB;label=32;scalar=64";
    class       volScalarField;
    location    "2";
    object      p_rgh;
}
// * * * * * * * * * * * * * * * * * * * * * * * * * * * * * * * * * * * * * //

dimensions      [1 -1 -2 0 0 0 0];

internalField   nonuniform List<scalar> 
90000
(
0.00333333
0.00333339
0.00333351
0.00333369
0.00333392
0.00333422
0.00333457
0.00333498
0.00333544
0.00333597
0.00333654
0.00333717
0.00333785
0.00333859
0.00333937
0.0033402
0.00334108
0.00334201
0.00334298
0.00334399
0.00334504
0.00334613
0.00334725
0.00334842
0.00334961
0.00335084
0.00335209
0.00335337
0.00335468
0.003356
0.00335735
0.00335871
0.00336009
0.00336148
0.00336288
0.00336429
0.0033657
0.00336711
0.00336853
0.00336994
0.00337135
0.00337275
0.00337414
0.00337552
0.00337688
0.00337823
0.00337955
0.00338086
0.00338214
0.00338339
0.00338462
0.00338581
0.00338698
0.0033881
0.00338919
0.00339025
0.00339126
0.00339223
0.00339315
0.00339403
0.00339487
0.00339565
0.00339638
0.00339707
0.0033977
0.00339827
0.00339879
0.00339926
0.00339967
0.00340002
0.00340031
0.00340055
0.00340073
0.00340085
0.0034009
0.0034009
0.00340085
0.00340073
0.00340055
0.00340031
0.00340002
0.00339967
0.00339926
0.00339879
0.00339827
0.00339769
0.00339706
0.00339638
0.00339565
0.00339486
0.00339403
0.00339315
0.00339223
0.00339126
0.00339024
0.00338919
0.0033881
0.00338697
0.00338581
0.00338462
0.00338339
0.00338213
0.00338085
0.00337955
0.00337822
0.00337687
0.00337551
0.00337413
0.00337274
0.00337134
0.00336993
0.00336852
0.00336711
0.00336569
0.00336428
0.00336287
0.00336147
0.00336008
0.0033587
0.00335734
0.00335599
0.00335467
0.00335336
0.00335208
0.00335083
0.0033496
0.00334841
0.00334724
0.00334612
0.00334503
0.00334397
0.00334296
0.00334199
0.00334107
0.00334019
0.00333936
0.00333857
0.00333784
0.00333716
0.00333653
0.00333595
0.00333543
0.00333496
0.00333455
0.0033342
0.00333391
0.00333367
0.00333349
0.00333337
0.00333331
0.00333327
0.00333333
0.00333345
0.00333363
0.00333386
0.00333416
0.00333451
0.00333492
0.00333539
0.00333591
0.00333649
0.00333712
0.0033378
0.00333854
0.00333932
0.00334016
0.00334104
0.00334196
0.00334293
0.00334395
0.003345
0.00334609
0.00334722
0.00334838
0.00334958
0.00335081
0.00335207
0.00335335
0.00335465
0.00335598
0.00335733
0.0033587
0.00336008
0.00336147
0.00336287
0.00336428
0.0033657
0.00336711
0.00336853
0.00336995
0.00337136
0.00337276
0.00337415
0.00337553
0.0033769
0.00337824
0.00337957
0.00338088
0.00338216
0.00338342
0.00338465
0.00338585
0.00338701
0.00338814
0.00338923
0.00339029
0.0033913
0.00339227
0.0033932
0.00339408
0.00339491
0.0033957
0.00339643
0.00339712
0.00339775
0.00339833
0.00339885
0.00339931
0.00339972
0.00340008
0.00340037
0.00340061
0.00340078
0.0034009
0.00340096
0.00340096
0.0034009
0.00340079
0.00340061
0.00340037
0.00340008
0.00339972
0.00339931
0.00339885
0.00339832
0.00339775
0.00339712
0.00339643
0.0033957
0.00339491
0.00339408
0.0033932
0.00339227
0.0033913
0.00339028
0.00338923
0.00338814
0.00338701
0.00338584
0.00338465
0.00338342
0.00338216
0.00338088
0.00337957
0.00337824
0.00337689
0.00337553
0.00337415
0.00337275
0.00337135
0.00336994
0.00336852
0.00336711
0.00336569
0.00336427
0.00336286
0.00336146
0.00336007
0.00335869
0.00335732
0.00335597
0.00335464
0.00335334
0.00335205
0.0033508
0.00334957
0.00334837
0.00334721
0.00334608
0.00334499
0.00334393
0.00334292
0.00334195
0.00334102
0.00334014
0.00333931
0.00333852
0.00333779
0.0033371
0.00333647
0.0033359
0.00333537
0.00333491
0.0033345
0.00333414
0.00333385
0.00333361
0.00333343
0.00333331
0.00333326
0.00333315
0.00333321
0.00333333
0.00333351
0.00333375
0.00333404
0.0033344
0.00333481
0.00333528
0.0033358
0.00333638
0.00333701
0.0033377
0.00333844
0.00333922
0.00334006
0.00334095
0.00334188
0.00334285
0.00334386
0.00334492
0.00334602
0.00334715
0.00334832
0.00334952
0.00335075
0.00335201
0.0033533
0.00335461
0.00335594
0.0033573
0.00335867
0.00336005
0.00336145
0.00336286
0.00336427
0.00336569
0.00336711
0.00336854
0.00336996
0.00337137
0.00337278
0.00337418
0.00337556
0.00337693
0.00337828
0.00337962
0.00338093
0.00338222
0.00338348
0.00338471
0.00338591
0.00338708
0.00338821
0.00338931
0.00339037
0.00339139
0.00339236
0.00339329
0.00339417
0.00339501
0.0033958
0.00339654
0.00339722
0.00339786
0.00339843
0.00339896
0.00339943
0.00339984
0.00340019
0.00340049
0.00340072
0.0034009
0.00340102
0.00340108
0.00340108
0.00340102
0.0034009
0.00340072
0.00340049
0.00340019
0.00339984
0.00339943
0.00339896
0.00339843
0.00339785
0.00339722
0.00339654
0.0033958
0.00339501
0.00339417
0.00339329
0.00339236
0.00339138
0.00339037
0.00338931
0.00338821
0.00338708
0.00338591
0.00338471
0.00338347
0.00338221
0.00338092
0.00337961
0.00337828
0.00337693
0.00337556
0.00337417
0.00337277
0.00337136
0.00336995
0.00336853
0.00336711
0.00336568
0.00336426
0.00336285
0.00336144
0.00336004
0.00335866
0.00335729
0.00335593
0.0033546
0.00335329
0.003352
0.00335074
0.00334951
0.00334831
0.00334714
0.00334601
0.00334491
0.00334385
0.00334284
0.00334186
0.00334093
0.00334005
0.00333921
0.00333842
0.00333769
0.003337
0.00333637
0.00333579
0.00333526
0.0033348
0.00333438
0.00333403
0.00333373
0.0033335
0.00333332
0.0033332
0.00333314
0.00333298
0.00333304
0.00333316
0.00333334
0.00333357
0.00333387
0.00333423
0.00333464
0.00333511
0.00333564
0.00333622
0.00333686
0.00333755
0.00333829
0.00333908
0.00333992
0.00334081
0.00334174
0.00334272
0.00334374
0.00334481
0.00334591
0.00334705
0.00334822
0.00334943
0.00335067
0.00335193
0.00335323
0.00335455
0.00335589
0.00335725
0.00335862
0.00336001
0.00336142
0.00336283
0.00336426
0.00336568
0.00336711
0.00336854
0.00336997
0.00337139
0.00337281
0.00337421
0.0033756
0.00337698
0.00337834
0.00337968
0.003381
0.0033823
0.00338356
0.0033848
0.00338601
0.00338718
0.00338832
0.00338943
0.00339049
0.00339151
0.00339249
0.00339343
0.00339432
0.00339516
0.00339595
0.00339669
0.00339738
0.00339802
0.0033986
0.00339912
0.0033996
0.00340001
0.00340036
0.00340066
0.0034009
0.00340108
0.0034012
0.00340126
0.00340126
0.0034012
0.00340108
0.0034009
0.00340066
0.00340036
0.00340001
0.00339959
0.00339912
0.0033986
0.00339802
0.00339738
0.00339669
0.00339595
0.00339516
0.00339431
0.00339342
0.00339249
0.00339151
0.00339049
0.00338942
0.00338832
0.00338718
0.00338601
0.0033848
0.00338356
0.00338229
0.003381
0.00337968
0.00337834
0.00337698
0.0033756
0.00337421
0.0033728
0.00337139
0.00336996
0.00336854
0.00336711
0.00336568
0.00336425
0.00336283
0.00336141
0.00336001
0.00335861
0.00335724
0.00335588
0.00335454
0.00335322
0.00335192
0.00335066
0.00334942
0.00334821
0.00334703
0.0033459
0.00334479
0.00334373
0.00334271
0.00334173
0.0033408
0.00333991
0.00333907
0.00333827
0.00333753
0.00333684
0.00333621
0.00333562
0.0033351
0.00333463
0.00333421
0.00333386
0.00333356
0.00333332
0.00333314
0.00333302
0.00333296
0.00333274
0.0033328
0.00333292
0.0033331
0.00333334
0.00333364
0.003334
0.00333442
0.00333489
0.00333542
0.00333601
0.00333665
0.00333734
0.00333809
0.00333888
0.00333973
0.00334063
0.00334157
0.00334255
0.00334358
0.00334465
0.00334576
0.00334691
0.00334809
0.00334931
0.00335055
0.00335183
0.00335313
0.00335446
0.00335581
0.00335718
0.00335856
0.00335996
0.00336138
0.0033628
0.00336424
0.00336567
0.00336711
0.00336855
0.00336999
0.00337142
0.00337285
0.00337426
0.00337566
0.00337705
0.00337842
0.00337977
0.0033811
0.0033824
0.00338368
0.00338492
0.00338614
0.00338732
0.00338847
0.00338958
0.00339065
0.00339168
0.00339267
0.00339361
0.00339451
0.00339535
0.00339615
0.0033969
0.00339759
0.00339823
0.00339882
0.00339935
0.00339982
0.00340024
0.0034006
0.00340089
0.00340114
0.00340132
0.00340144
0.0034015
0.0034015
0.00340144
0.00340132
0.00340113
0.00340089
0.0034006
0.00340024
0.00339982
0.00339935
0.00339882
0.00339823
0.00339759
0.00339689
0.00339615
0.00339535
0.0033945
0.00339361
0.00339267
0.00339168
0.00339065
0.00338958
0.00338847
0.00338732
0.00338614
0.00338492
0.00338367
0.0033824
0.00338109
0.00337977
0.00337842
0.00337705
0.00337566
0.00337426
0.00337284
0.00337142
0.00336998
0.00336855
0.00336711
0.00336567
0.00336423
0.0033628
0.00336137
0.00335996
0.00335855
0.00335717
0.0033558
0.00335445
0.00335312
0.00335182
0.00335054
0.00334929
0.00334808
0.0033469
0.00334575
0.00334464
0.00334357
0.00334254
0.00334155
0.00334061
0.00333972
0.00333887
0.00333807
0.00333733
0.00333663
0.00333599
0.00333541
0.00333487
0.0033344
0.00333398
0.00333363
0.00333333
0.00333309
0.0033329
0.00333278
0.00333272
0.00333244
0.0033325
0.00333262
0.00333281
0.00333305
0.00333335
0.00333371
0.00333413
0.00333461
0.00333515
0.00333574
0.00333638
0.00333708
0.00333784
0.00333864
0.00333949
0.0033404
0.00334135
0.00334234
0.00334338
0.00334446
0.00334558
0.00334673
0.00334792
0.00334915
0.00335041
0.0033517
0.00335301
0.00335435
0.00335571
0.00335709
0.00335849
0.0033599
0.00336133
0.00336277
0.00336421
0.00336566
0.00336711
0.00336856
0.00337001
0.00337146
0.0033729
0.00337432
0.00337574
0.00337714
0.00337852
0.00337988
0.00338122
0.00338253
0.00338382
0.00338508
0.00338631
0.0033875
0.00338866
0.00338978
0.00339086
0.0033919
0.00339289
0.00339384
0.00339474
0.0033956
0.0033964
0.00339715
0.00339785
0.0033985
0.00339909
0.00339963
0.0034001
0.00340052
0.00340089
0.00340119
0.00340143
0.00340161
0.00340173
0.00340179
0.00340179
0.00340173
0.00340161
0.00340143
0.00340119
0.00340089
0.00340052
0.0034001
0.00339963
0.00339909
0.0033985
0.00339785
0.00339715
0.0033964
0.0033956
0.00339474
0.00339384
0.00339289
0.00339189
0.00339085
0.00338977
0.00338865
0.0033875
0.0033863
0.00338508
0.00338382
0.00338253
0.00338122
0.00337988
0.00337851
0.00337713
0.00337573
0.00337432
0.00337289
0.00337145
0.00337001
0.00336856
0.00336711
0.00336565
0.0033642
0.00336276
0.00336132
0.0033599
0.00335848
0.00335708
0.0033557
0.00335434
0.003353
0.00335168
0.0033504
0.00334914
0.00334791
0.00334672
0.00334556
0.00334444
0.00334336
0.00334233
0.00334133
0.00334038
0.00333948
0.00333863
0.00333782
0.00333707
0.00333637
0.00333572
0.00333513
0.0033346
0.00333412
0.0033337
0.00333334
0.00333303
0.00333279
0.00333261
0.00333249
0.00333242
0.00333208
0.00333214
0.00333227
0.00333245
0.0033327
0.003333
0.00333337
0.00333379
0.00333427
0.00333481
0.00333541
0.00333606
0.00333677
0.00333753
0.00333835
0.00333921
0.00334012
0.00334108
0.00334208
0.00334313
0.00334422
0.00334535
0.00334652
0.00334773
0.00334896
0.00335024
0.00335154
0.00335286
0.00335422
0.00335559
0.00335699
0.0033584
0.00335983
0.00336127
0.00336272
0.00336418
0.00336565
0.00336711
0.00336858
0.00337004
0.0033715
0.00337296
0.0033744
0.00337583
0.00337724
0.00337864
0.00338001
0.00338136
0.00338269
0.00338399
0.00338526
0.0033865
0.00338771
0.00338888
0.00339001
0.0033911
0.00339215
0.00339316
0.00339412
0.00339503
0.00339589
0.0033967
0.00339746
0.00339817
0.00339882
0.00339942
0.00339996
0.00340045
0.00340087
0.00340123
0.00340154
0.00340178
0.00340197
0.00340209
0.00340215
0.00340215
0.00340209
0.00340197
0.00340178
0.00340154
0.00340123
0.00340087
0.00340044
0.00339996
0.00339942
0.00339882
0.00339817
0.00339746
0.0033967
0.00339589
0.00339503
0.00339411
0.00339315
0.00339215
0.0033911
0.00339001
0.00338888
0.00338771
0.0033865
0.00338526
0.00338399
0.00338269
0.00338136
0.00338001
0.00337863
0.00337724
0.00337582
0.00337439
0.00337295
0.0033715
0.00337004
0.00336857
0.00336711
0.00336564
0.00336417
0.00336271
0.00336126
0.00335982
0.00335839
0.00335698
0.00335558
0.00335421
0.00335285
0.00335153
0.00335022
0.00334895
0.00334771
0.00334651
0.00334534
0.00334421
0.00334312
0.00334207
0.00334107
0.00334011
0.00333919
0.00333833
0.00333752
0.00333676
0.00333605
0.0033354
0.0033348
0.00333426
0.00333378
0.00333335
0.00333299
0.00333268
0.00333244
0.00333225
0.00333213
0.00333207
0.00333166
0.00333172
0.00333185
0.00333204
0.00333228
0.00333259
0.00333296
0.00333339
0.00333388
0.00333443
0.00333503
0.00333569
0.00333641
0.00333718
0.003338
0.00333887
0.0033398
0.00334077
0.00334178
0.00334284
0.00334395
0.00334509
0.00334627
0.00334749
0.00334875
0.00335003
0.00335135
0.00335269
0.00335406
0.00335545
0.00335687
0.0033583
0.00335974
0.0033612
0.00336267
0.00336415
0.00336563
0.00336711
0.0033686
0.00337008
0.00337156
0.00337303
0.00337449
0.00337593
0.00337736
0.00337877
0.00338017
0.00338154
0.00338288
0.0033842
0.00338548
0.00338674
0.00338796
0.00338914
0.00339029
0.00339139
0.00339245
0.00339347
0.00339444
0.00339536
0.00339624
0.00339706
0.00339783
0.00339854
0.0033992
0.00339981
0.00340036
0.00340084
0.00340127
0.00340164
0.00340195
0.0034022
0.00340239
0.00340251
0.00340257
0.00340257
0.00340251
0.00340239
0.0034022
0.00340195
0.00340164
0.00340127
0.00340084
0.00340036
0.00339981
0.0033992
0.00339854
0.00339783
0.00339706
0.00339623
0.00339536
0.00339444
0.00339347
0.00339245
0.00339139
0.00339028
0.00338914
0.00338795
0.00338673
0.00338548
0.00338419
0.00338288
0.00338153
0.00338016
0.00337877
0.00337736
0.00337593
0.00337448
0.00337302
0.00337155
0.00337007
0.00336859
0.00336711
0.00336562
0.00336414
0.00336266
0.00336119
0.00335973
0.00335829
0.00335686
0.00335544
0.00335405
0.00335268
0.00335134
0.00335002
0.00334874
0.00334748
0.00334626
0.00334508
0.00334393
0.00334283
0.00334177
0.00334075
0.00333978
0.00333886
0.00333799
0.00333716
0.00333639
0.00333568
0.00333502
0.00333441
0.00333387
0.00333338
0.00333295
0.00333258
0.00333227
0.00333202
0.00333183
0.00333171
0.00333165
0.00333118
0.00333124
0.00333137
0.00333156
0.00333181
0.00333212
0.0033325
0.00333293
0.00333343
0.00333398
0.0033346
0.00333527
0.00333599
0.00333677
0.0033376
0.00333849
0.00333942
0.00334041
0.00334144
0.00334251
0.00334363
0.00334479
0.00334599
0.00334723
0.0033485
0.0033498
0.00335113
0.0033525
0.00335388
0.00335529
0.00335673
0.00335818
0.00335964
0.00336112
0.00336261
0.00336411
0.00336561
0.00336711
0.00336862
0.00337012
0.00337162
0.00337311
0.00337459
0.00337605
0.0033775
0.00337893
0.00338034
0.00338173
0.00338309
0.00338443
0.00338573
0.003387
0.00338824
0.00338944
0.0033906
0.00339172
0.0033928
0.00339383
0.00339481
0.00339575
0.00339663
0.00339747
0.00339825
0.00339897
0.00339964
0.00340025
0.00340081
0.0034013
0.00340174
0.00340211
0.00340243
0.00340268
0.00340287
0.00340299
0.00340306
0.00340306
0.00340299
0.00340287
0.00340268
0.00340243
0.00340211
0.00340174
0.0034013
0.00340081
0.00340025
0.00339964
0.00339897
0.00339824
0.00339746
0.00339663
0.00339574
0.00339481
0.00339382
0.00339279
0.00339172
0.0033906
0.00338944
0.00338824
0.003387
0.00338573
0.00338443
0.00338309
0.00338173
0.00338034
0.00337893
0.0033775
0.00337605
0.00337458
0.0033731
0.00337161
0.00337011
0.00336861
0.00336711
0.0033656
0.0033641
0.0033626
0.00336111
0.00335963
0.00335817
0.00335672
0.00335529
0.00335387
0.00335249
0.00335112
0.00334979
0.00334849
0.00334721
0.00334598
0.00334478
0.00334362
0.0033425
0.00334142
0.00334039
0.00333941
0.00333848
0.00333759
0.00333676
0.00333598
0.00333525
0.00333458
0.00333397
0.00333341
0.00333292
0.00333248
0.00333211
0.00333179
0.00333154
0.00333135
0.00333123
0.00333116
0.00333063
0.0033307
0.00333083
0.00333102
0.00333127
0.00333159
0.00333197
0.00333241
0.00333292
0.00333348
0.0033341
0.00333478
0.00333552
0.00333631
0.00333716
0.00333805
0.003339
0.00334
0.00334105
0.00334214
0.00334328
0.00334445
0.00334567
0.00334692
0.00334821
0.00334954
0.00335089
0.00335227
0.00335368
0.00335512
0.00335657
0.00335804
0.00335953
0.00336103
0.00336254
0.00336406
0.00336558
0.00336711
0.00336864
0.00337017
0.00337169
0.0033732
0.0033747
0.00337619
0.00337766
0.00337911
0.00338054
0.00338195
0.00338334
0.00338469
0.00338602
0.00338731
0.00338856
0.00338978
0.00339096
0.00339209
0.00339319
0.00339423
0.00339523
0.00339618
0.00339708
0.00339793
0.00339872
0.00339945
0.00340013
0.00340076
0.00340132
0.00340182
0.00340226
0.00340264
0.00340296
0.00340322
0.00340341
0.00340354
0.0034036
0.0034036
0.00340354
0.00340341
0.00340322
0.00340296
0.00340264
0.00340226
0.00340182
0.00340132
0.00340076
0.00340013
0.00339945
0.00339872
0.00339792
0.00339708
0.00339618
0.00339523
0.00339423
0.00339318
0.00339209
0.00339095
0.00338978
0.00338856
0.0033873
0.00338601
0.00338469
0.00338333
0.00338195
0.00338054
0.00337911
0.00337765
0.00337618
0.00337469
0.00337319
0.00337168
0.00337016
0.00336863
0.00336711
0.00336558
0.00336405
0.00336253
0.00336102
0.00335952
0.00335803
0.00335656
0.00335511
0.00335367
0.00335226
0.00335088
0.00334953
0.0033482
0.00334691
0.00334566
0.00334444
0.00334326
0.00334213
0.00334104
0.00333999
0.00333899
0.00333804
0.00333714
0.0033363
0.0033355
0.00333477
0.00333409
0.00333347
0.0033329
0.0033324
0.00333196
0.00333158
0.00333126
0.003331
0.00333081
0.00333068
0.00333062
0.00333002
0.00333009
0.00333022
0.00333042
0.00333068
0.003331
0.00333139
0.00333183
0.00333235
0.00333292
0.00333355
0.00333424
0.00333499
0.0033358
0.00333666
0.00333757
0.00333853
0.00333955
0.00334061
0.00334172
0.00334288
0.00334407
0.00334531
0.00334659
0.0033479
0.00334924
0.00335062
0.00335203
0.00335346
0.00335491
0.00335639
0.00335789
0.0033594
0.00336093
0.00336246
0.00336401
0.00336556
0.00336711
0.00336867
0.00337022
0.00337176
0.0033733
0.00337483
0.00337634
0.00337783
0.00337931
0.00338077
0.0033822
0.00338361
0.00338498
0.00338633
0.00338764
0.00338892
0.00339016
0.00339136
0.00339251
0.00339362
0.00339469
0.0033957
0.00339667
0.00339758
0.00339844
0.00339925
0.00339999
0.00340069
0.00340132
0.00340189
0.0034024
0.00340285
0.00340324
0.00340356
0.00340382
0.00340401
0.00340414
0.00340421
0.00340421
0.00340414
0.00340401
0.00340382
0.00340356
0.00340324
0.00340285
0.0034024
0.00340189
0.00340132
0.00340068
0.00339999
0.00339924
0.00339844
0.00339758
0.00339666
0.0033957
0.00339468
0.00339362
0.00339251
0.00339135
0.00339015
0.00338892
0.00338764
0.00338633
0.00338498
0.0033836
0.0033822
0.00338077
0.00337931
0.00337783
0.00337633
0.00337482
0.00337329
0.00337176
0.00337021
0.00336866
0.00336711
0.00336555
0.003364
0.00336246
0.00336092
0.00335939
0.00335788
0.00335638
0.00335491
0.00335345
0.00335202
0.00335061
0.00334923
0.00334789
0.00334658
0.0033453
0.00334406
0.00334286
0.00334171
0.0033406
0.00333954
0.00333852
0.00333756
0.00333664
0.00333578
0.00333498
0.00333423
0.00333354
0.0033329
0.00333233
0.00333182
0.00333137
0.00333098
0.00333066
0.0033304
0.00333021
0.00333007
0.00333001
0.00332935
0.00332942
0.00332955
0.00332975
0.00333001
0.00333034
0.00333074
0.00333119
0.00333171
0.0033323
0.00333294
0.00333364
0.00333441
0.00333523
0.0033361
0.00333703
0.00333801
0.00333905
0.00334013
0.00334126
0.00334244
0.00334365
0.00334491
0.00334621
0.00334755
0.00334892
0.00335032
0.00335175
0.00335321
0.00335469
0.0033562
0.00335772
0.00335926
0.00336081
0.00336238
0.00336395
0.00336553
0.00336711
0.00336869
0.00337027
0.00337185
0.00337341
0.00337497
0.00337651
0.00337803
0.00337953
0.00338102
0.00338248
0.00338391
0.00338531
0.00338668
0.00338802
0.00338932
0.00339058
0.0033918
0.00339297
0.0033941
0.00339519
0.00339622
0.0033972
0.00339813
0.00339901
0.00339983
0.00340059
0.0034013
0.00340194
0.00340252
0.00340304
0.0034035
0.00340389
0.00340422
0.00340449
0.00340469
0.00340482
0.00340488
0.00340488
0.00340482
0.00340469
0.00340449
0.00340422
0.00340389
0.0034035
0.00340304
0.00340252
0.00340194
0.00340129
0.00340059
0.00339983
0.00339901
0.00339813
0.0033972
0.00339622
0.00339518
0.0033941
0.00339297
0.00339179
0.00339057
0.00338931
0.00338801
0.00338668
0.00338531
0.0033839
0.00338247
0.00338101
0.00337953
0.00337803
0.0033765
0.00337496
0.00337341
0.00337184
0.00337027
0.00336869
0.00336711
0.00336552
0.00336395
0.00336237
0.00336081
0.00335925
0.00335771
0.00335619
0.00335468
0.0033532
0.00335174
0.00335031
0.00334891
0.00334754
0.0033462
0.0033449
0.00334364
0.00334242
0.00334125
0.00334012
0.00333903
0.003338
0.00333702
0.00333609
0.00333521
0.00333439
0.00333363
0.00333293
0.00333228
0.0033317
0.00333118
0.00333072
0.00333033
0.00333
0.00332973
0.00332953
0.0033294
0.00332933
0.00332861
0.00332868
0.00332881
0.00332902
0.00332929
0.00332962
0.00333002
0.00333049
0.00333102
0.00333161
0.00333227
0.00333299
0.00333376
0.0033346
0.00333549
0.00333644
0.00333744
0.0033385
0.0033396
0.00334075
0.00334195
0.00334319
0.00334448
0.0033458
0.00334717
0.00334856
0.00334999
0.00335145
0.00335294
0.00335445
0.00335598
0.00335754
0.00335911
0.00336069
0.00336229
0.00336389
0.0033655
0.00336711
0.00336873
0.00337034
0.00337194
0.00337354
0.00337512
0.00337669
0.00337824
0.00337978
0.00338129
0.00338278
0.00338424
0.00338567
0.00338706
0.00338843
0.00338975
0.00339104
0.00339228
0.00339348
0.00339463
0.00339574
0.00339679
0.00339779
0.00339874
0.00339964
0.00340047
0.00340125
0.00340197
0.00340262
0.00340322
0.00340375
0.00340421
0.00340462
0.00340495
0.00340522
0.00340542
0.00340556
0.00340562
0.00340562
0.00340556
0.00340542
0.00340522
0.00340495
0.00340461
0.00340421
0.00340375
0.00340322
0.00340262
0.00340196
0.00340125
0.00340047
0.00339963
0.00339874
0.00339779
0.00339679
0.00339573
0.00339463
0.00339348
0.00339228
0.00339103
0.00338975
0.00338842
0.00338706
0.00338566
0.00338423
0.00338277
0.00338129
0.00337977
0.00337824
0.00337669
0.00337511
0.00337353
0.00337193
0.00337033
0.00336872
0.00336711
0.00336549
0.00336388
0.00336228
0.00336068
0.0033591
0.00335753
0.00335597
0.00335444
0.00335293
0.00335144
0.00334998
0.00334855
0.00334716
0.00334579
0.00334447
0.00334318
0.00334194
0.00334074
0.00333959
0.00333848
0.00333743
0.00333643
0.00333548
0.00333459
0.00333375
0.00333297
0.00333226
0.0033316
0.00333101
0.00333047
0.00333001
0.00332961
0.00332927
0.003329
0.0033288
0.00332866
0.00332859
0.0033278
0.00332787
0.00332801
0.00332822
0.00332849
0.00332883
0.00332924
0.00332972
0.00333026
0.00333087
0.00333154
0.00333227
0.00333306
0.00333392
0.00333483
0.0033358
0.00333682
0.0033379
0.00333902
0.0033402
0.00334142
0.00334269
0.003344
0.00334536
0.00334675
0.00334817
0.00334963
0.00335112
0.00335264
0.00335418
0.00335575
0.00335734
0.00335894
0.00336056
0.00336219
0.00336382
0.00336547
0.00336711
0.00336876
0.0033704
0.00337204
0.00337367
0.00337529
0.00337689
0.00337848
0.00338004
0.00338159
0.00338311
0.0033846
0.00338606
0.00338748
0.00338887
0.00339023
0.00339154
0.00339281
0.00339403
0.00339521
0.00339634
0.00339741
0.00339844
0.00339941
0.00340032
0.00340117
0.00340196
0.0034027
0.00340337
0.00340397
0.00340452
0.00340499
0.0034054
0.00340574
0.00340602
0.00340623
0.00340636
0.00340643
0.00340643
0.00340636
0.00340623
0.00340602
0.00340574
0.0034054
0.00340499
0.00340451
0.00340397
0.00340337
0.0034027
0.00340196
0.00340117
0.00340031
0.0033994
0.00339843
0.00339741
0.00339633
0.00339521
0.00339403
0.0033928
0.00339154
0.00339022
0.00338887
0.00338748
0.00338605
0.00338459
0.0033831
0.00338158
0.00338004
0.00337847
0.00337689
0.00337528
0.00337367
0.00337204
0.0033704
0.00336875
0.00336711
0.00336546
0.00336382
0.00336218
0.00336055
0.00335893
0.00335733
0.00335574
0.00335417
0.00335263
0.00335111
0.00334962
0.00334816
0.00334674
0.00334535
0.00334399
0.00334268
0.00334141
0.00334019
0.00333901
0.00333788
0.00333681
0.00333578
0.00333482
0.0033339
0.00333305
0.00333226
0.00333153
0.00333085
0.00333025
0.00332971
0.00332923
0.00332882
0.00332848
0.0033282
0.00332799
0.00332786
0.00332779
0.00332692
0.003327
0.00332714
0.00332735
0.00332763
0.00332798
0.0033284
0.00332889
0.00332944
0.00333006
0.00333075
0.00333149
0.0033323
0.00333318
0.00333411
0.0033351
0.00333614
0.00333724
0.0033384
0.0033396
0.00334085
0.00334215
0.00334349
0.00334487
0.00334629
0.00334775
0.00334924
0.00335077
0.00335232
0.00335389
0.0033555
0.00335712
0.00335876
0.00336041
0.00336208
0.00336375
0.00336543
0.00336711
0.0033688
0.00337048
0.00337215
0.00337382
0.00337547
0.00337711
0.00337873
0.00338033
0.00338191
0.00338346
0.00338499
0.00338648
0.00338794
0.00338936
0.00339074
0.00339208
0.00339338
0.00339463
0.00339584
0.00339699
0.00339809
0.00339914
0.00340013
0.00340106
0.00340193
0.00340274
0.00340349
0.00340418
0.0034048
0.00340535
0.00340584
0.00340626
0.00340661
0.00340689
0.0034071
0.00340724
0.00340731
0.00340731
0.00340724
0.0034071
0.00340689
0.00340661
0.00340626
0.00340584
0.00340535
0.00340479
0.00340417
0.00340349
0.00340274
0.00340193
0.00340106
0.00340012
0.00339913
0.00339809
0.00339699
0.00339583
0.00339463
0.00339338
0.00339208
0.00339074
0.00338936
0.00338793
0.00338648
0.00338498
0.00338346
0.00338191
0.00338033
0.00337873
0.0033771
0.00337547
0.00337381
0.00337215
0.00337047
0.00336879
0.00336711
0.00336542
0.00336374
0.00336207
0.0033604
0.00335875
0.00335711
0.00335549
0.00335389
0.00335231
0.00335076
0.00334923
0.00334774
0.00334628
0.00334486
0.00334348
0.00334214
0.00334084
0.00333959
0.00333838
0.00333723
0.00333613
0.00333509
0.0033341
0.00333316
0.00333229
0.00333148
0.00333073
0.00333005
0.00332943
0.00332887
0.00332838
0.00332797
0.00332761
0.00332733
0.00332712
0.00332698
0.00332691
0.00332598
0.00332605
0.00332619
0.00332641
0.0033267
0.00332706
0.00332749
0.00332799
0.00332855
0.00332919
0.00332989
0.00333065
0.00333148
0.00333238
0.00333333
0.00333434
0.00333541
0.00333654
0.00333772
0.00333895
0.00334023
0.00334156
0.00334293
0.00334435
0.0033458
0.00334729
0.00334882
0.00335038
0.00335197
0.00335358
0.00335522
0.00335688
0.00335856
0.00336025
0.00336196
0.00336367
0.00336539
0.00336711
0.00336884
0.00337056
0.00337227
0.00337397
0.00337567
0.00337735
0.003379
0.00338064
0.00338226
0.00338385
0.00338541
0.00338694
0.00338843
0.00338988
0.0033913
0.00339267
0.003394
0.00339528
0.00339651
0.00339769
0.00339882
0.00339989
0.0034009
0.00340186
0.00340275
0.00340358
0.00340435
0.00340505
0.00340568
0.00340625
0.00340675
0.00340718
0.00340754
0.00340782
0.00340804
0.00340818
0.00340826
0.00340826
0.00340818
0.00340804
0.00340782
0.00340754
0.00340718
0.00340675
0.00340625
0.00340568
0.00340505
0.00340435
0.00340358
0.00340275
0.00340186
0.0034009
0.00339989
0.00339882
0.00339769
0.00339651
0.00339528
0.003394
0.00339267
0.0033913
0.00338988
0.00338842
0.00338693
0.0033854
0.00338384
0.00338226
0.00338064
0.003379
0.00337734
0.00337566
0.00337397
0.00337226
0.00337055
0.00336883
0.00336711
0.00336538
0.00336366
0.00336195
0.00336024
0.00335855
0.00335687
0.00335521
0.00335357
0.00335196
0.00335037
0.00334881
0.00334728
0.00334579
0.00334434
0.00334292
0.00334155
0.00334022
0.00333894
0.00333771
0.00333653
0.0033354
0.00333433
0.00333332
0.00333236
0.00333147
0.00333064
0.00332987
0.00332917
0.00332854
0.00332797
0.00332747
0.00332704
0.00332668
0.0033264
0.00332618
0.00332603
0.00332596
0.00332496
0.00332503
0.00332518
0.0033254
0.0033257
0.00332607
0.00332651
0.00332702
0.0033276
0.00332825
0.00332896
0.00332975
0.0033306
0.00333152
0.00333249
0.00333353
0.00333463
0.00333578
0.00333699
0.00333825
0.00333957
0.00334093
0.00334233
0.00334378
0.00334527
0.0033468
0.00334837
0.00334996
0.00335159
0.00335325
0.00335493
0.00335663
0.00335835
0.00336008
0.00336183
0.00336359
0.00336535
0.00336711
0.00336888
0.00337064
0.0033724
0.00337414
0.00337588
0.0033776
0.0033793
0.00338098
0.00338263
0.00338426
0.00338586
0.00338743
0.00338896
0.00339045
0.0033919
0.00339331
0.00339467
0.00339598
0.00339724
0.00339845
0.0033996
0.0034007
0.00340174
0.00340272
0.00340363
0.00340448
0.00340527
0.00340599
0.00340664
0.00340722
0.00340773
0.00340817
0.00340854
0.00340883
0.00340905
0.0034092
0.00340928
0.00340928
0.0034092
0.00340905
0.00340883
0.00340854
0.00340817
0.00340773
0.00340722
0.00340664
0.00340599
0.00340527
0.00340448
0.00340363
0.00340272
0.00340174
0.0034007
0.0033996
0.00339845
0.00339724
0.00339598
0.00339466
0.0033933
0.0033919
0.00339044
0.00338895
0.00338742
0.00338586
0.00338426
0.00338263
0.00338098
0.0033793
0.00337759
0.00337587
0.00337414
0.00337239
0.00337064
0.00336887
0.00336711
0.00336534
0.00336358
0.00336182
0.00336007
0.00335834
0.00335662
0.00335492
0.00335324
0.00335158
0.00334996
0.00334836
0.00334679
0.00334526
0.00334377
0.00334232
0.00334091
0.00333955
0.00333824
0.00333698
0.00333577
0.00333462
0.00333352
0.00333248
0.0033315
0.00333059
0.00332974
0.00332895
0.00332823
0.00332758
0.003327
0.00332649
0.00332605
0.00332568
0.00332539
0.00332517
0.00332502
0.00332494
0.00332386
0.00332394
0.00332409
0.00332432
0.00332462
0.003325
0.00332545
0.00332598
0.00332657
0.00332724
0.00332798
0.00332878
0.00332965
0.00333059
0.0033316
0.00333266
0.00333379
0.00333497
0.00333621
0.0033375
0.00333885
0.00334025
0.00334169
0.00334318
0.00334471
0.00334628
0.00334788
0.00334952
0.00335119
0.00335289
0.00335461
0.00335636
0.00335812
0.0033599
0.00336169
0.00336349
0.0033653
0.00336711
0.00336892
0.00337073
0.00337253
0.00337433
0.00337611
0.00337787
0.00337962
0.00338134
0.00338304
0.00338471
0.00338635
0.00338795
0.00338952
0.00339105
0.00339254
0.00339398
0.00339538
0.00339673
0.00339802
0.00339926
0.00340045
0.00340157
0.00340264
0.00340364
0.00340458
0.00340545
0.00340626
0.003407
0.00340766
0.00340826
0.00340878
0.00340924
0.00340961
0.00340991
0.00341014
0.00341029
0.00341037
0.00341037
0.00341029
0.00341014
0.00340991
0.00340961
0.00340923
0.00340878
0.00340826
0.00340766
0.00340699
0.00340626
0.00340545
0.00340458
0.00340364
0.00340264
0.00340157
0.00340044
0.00339926
0.00339802
0.00339672
0.00339538
0.00339398
0.00339254
0.00339105
0.00338952
0.00338795
0.00338634
0.0033847
0.00338303
0.00338134
0.00337961
0.00337787
0.0033761
0.00337432
0.00337253
0.00337073
0.00336892
0.00336711
0.0033653
0.00336349
0.00336168
0.00335989
0.00335811
0.00335635
0.0033546
0.00335288
0.00335118
0.00334951