/*--------------------------------*- C++ -*----------------------------------*\
| =========                 |                                                 |
| \\      /  F ield         | OpenFOAM: The Open Source CFD Toolbox           |
|  \\    /   O peration     | Version:  2106                                  |
|   \\  /    A nd           | Website:  www.openfoam.com                      |
|    \\/     M anipulation  |                                                 |
\*---------------------------------------------------------------------------*/
FoamFile
{
    version     2.0;
    format      ascii;
    arch        "LSB;label=32;scalar=64";
    class       surfaceScalarField;
    location    "2";
    object      phi;
}
// * * * * * * * * * * * * * * * * * * * * * * * * * * * * * * * * * * * * * //

dimensions      [0 3 -1 0 0 0 0];

oriented        oriented;

internalField   nonuniform List<scalar> 
179250
(
-2.38209e-08
2.38213e-08
-4.75843e-08
2.37633e-08
-7.12528e-08
2.36685e-08
-9.47885e-08
2.35357e-08
-1.18152e-07
2.33638e-08
-1.41305e-07
2.31527e-08
-1.64207e-07
2.2902e-08
-1.86819e-07
2.2612e-08
-2.09102e-07
2.2283e-08
-2.31017e-07
2.19153e-08
-2.52527e-07
2.15094e-08
-2.73593e-07
2.1066e-08
-2.94179e-07
2.05859e-08
-3.14248e-07
2.00697e-08
-3.33767e-07
1.95184e-08
-3.527e-07
1.8933e-08
-3.71014e-07
1.83143e-08
-3.88678e-07
1.76636e-08
-4.0566e-07
1.69819e-08
-4.2193e-07
1.62705e-08
-4.37461e-07
1.55305e-08
-4.52224e-07
1.47633e-08
-4.66194e-07
1.39701e-08
-4.79346e-07
1.31525e-08
-4.91658e-07
1.23118e-08
-5.03108e-07
1.14495e-08
-5.13675e-07
1.05672e-08
-5.23341e-07
9.66628e-09
-5.3209e-07
8.74842e-09
-5.39905e-07
7.8152e-09
-5.46773e-07
6.86827e-09
-5.52683e-07
5.90929e-09
-5.57622e-07
4.93994e-09
-5.61584e-07
3.96192e-09
-5.64561e-07
2.97694e-09
-5.66548e-07
1.98673e-09
-5.67541e-07
9.93027e-10
-5.67539e-07
-2.42313e-12
-5.66541e-07
-9.97877e-10
-5.64549e-07
-1.99159e-09
-5.61567e-07
-2.98181e-09
-5.57601e-07
-3.96682e-09
-5.52656e-07
-4.94487e-09
-5.46741e-07
-5.91425e-09
-5.39868e-07
-6.87327e-09
-5.32048e-07
-7.82024e-09
-5.23294e-07
-8.7535e-09
-5.13623e-07
-9.67141e-09
-5.03051e-07
-1.05724e-08
-4.91596e-07
-1.14548e-08
-4.79279e-07
-1.23171e-08
-4.66121e-07
-1.31578e-08
-4.52146e-07
-1.39755e-08
-4.37377e-07
-1.47686e-08
-4.21841e-07
-1.55359e-08
-4.05565e-07
-1.62758e-08
-3.88578e-07
-1.69873e-08
-3.70909e-07
-1.76689e-08
-3.52589e-07
-1.83196e-08
-3.33651e-07
-1.89381e-08
-3.14128e-07
-1.95234e-08
-2.94053e-07
-2.00745e-08
-2.73463e-07
-2.05903e-08
-2.52393e-07
-2.107e-08
-2.3088e-07
-2.15128e-08
-2.08962e-07
-2.19178e-08
-1.86678e-07
-2.22844e-08
-1.64066e-07
-2.26119e-08
-1.41166e-07
-2.28997e-08
-1.18019e-07
-2.31474e-08
-9.46646e-08
-2.33544e-08
-7.11442e-08
-2.35205e-08
-4.74989e-08
-2.36453e-08
-2.37703e-08
-2.37286e-08
-2.92999e-14
-2.37703e-08
2.37703e-08
-2.37703e-08
4.74989e-08
-2.37286e-08
7.11441e-08
-2.36453e-08
9.46646e-08
-2.35205e-08
1.18019e-07
-2.33544e-08
1.41166e-07
-2.31474e-08
1.64066e-07
-2.28997e-08
1.86678e-07
-2.26119e-08
2.08962e-07
-2.22844e-08
2.3088e-07
-2.19178e-08
2.52393e-07
-2.15128e-08
2.73463e-07
-2.107e-08
2.94053e-07
-2.05903e-08
3.14128e-07
-2.00745e-08
3.33651e-07
-1.95234e-08
3.52589e-07
-1.89381e-08
3.70909e-07
-1.83196e-08
3.88578e-07
-1.76689e-08
4.05565e-07
-1.69873e-08
4.21841e-07
-1.62758e-08
4.37377e-07
-1.55359e-08
4.52145e-07
-1.47686e-08
4.66121e-07
-1.39755e-08
4.79279e-07
-1.31578e-08
4.91596e-07
-1.23171e-08
5.03051e-07
-1.14548e-08
5.13623e-07
-1.05724e-08
5.23294e-07
-9.67141e-09
5.32048e-07
-8.7535e-09
5.39868e-07
-7.82024e-09
5.46741e-07
-6.87327e-09
5.52656e-07
-5.91425e-09
5.57601e-07
-4.94487e-09
5.61567e-07
-3.96681e-09
5.64549e-07
-2.98181e-09
5.66541e-07
-1.99159e-09
5.67539e-07
-9.97877e-10
5.67541e-07
-2.4234e-12
5.66548e-07
9.93027e-10
5.64561e-07
1.98673e-09
5.61584e-07
2.97694e-09
5.57622e-07
3.96192e-09
5.52683e-07
4.93994e-09
5.46773e-07
5.90929e-09
5.39905e-07
6.86827e-09
5.3209e-07
7.8152e-09
5.23341e-07
8.74841e-09
5.13675e-07
9.66628e-09
5.03108e-07
1.05672e-08
4.91658e-07
1.14496e-08
4.79346e-07
1.23118e-08
4.66194e-07
1.31525e-08
4.52224e-07
1.39701e-08
4.37461e-07
1.47633e-08
4.2193e-07
1.55305e-08
4.0566e-07
1.62705e-08
3.88678e-07
1.69819e-08
3.71014e-07
1.76636e-08
3.527e-07
1.83143e-08
3.33767e-07
1.8933e-08
3.14248e-07
1.95184e-08
2.94179e-07
2.00697e-08
2.73593e-07
2.05859e-08
2.52527e-07
2.10661e-08
2.31017e-07
2.15094e-08
2.09102e-07
2.19153e-08
1.86819e-07
2.2283e-08
1.64207e-07
2.2612e-08
1.41305e-07
2.2902e-08
1.18152e-07
2.31526e-08
9.47885e-08
2.33638e-08
7.12528e-08
2.35357e-08
4.75844e-08
2.36685e-08
2.38211e-08
2.37633e-08
2.38211e-08
-2.38788e-08
4.76999e-08
-4.76996e-08
4.75842e-08
-7.14249e-08
4.73938e-08
-9.50167e-08
4.71275e-08
-1.18436e-07
4.67833e-08
-1.41644e-07
4.63604e-08
-1.64601e-07
4.58586e-08
-1.87267e-07
4.5278e-08
-2.09603e-07
4.46192e-08
-2.3157e-07
4.38829e-08
-2.53131e-07
4.30702e-08
-2.74247e-07
4.21824e-08
-2.94883e-07
4.1221e-08
-3.15e-07
4.01874e-08
-3.34565e-07
3.90836e-08
-3.53544e-07
3.79112e-08
-3.71902e-07
3.66725e-08
-3.89608e-07
3.53695e-08
-4.0663e-07
3.40045e-08
-4.2294e-07
3.25799e-08
-4.38507e-07
3.10981e-08
-4.53306e-07
2.95618e-08
-4.67309e-07
2.79737e-08
-4.80493e-07
2.63365e-08
-4.92835e-07
2.46531e-08
-5.04312e-07
2.29265e-08
-5.14904e-07
2.11597e-08
-5.24593e-07
1.93557e-08
-5.33363e-07
1.75178e-08
-5.41197e-07
1.56491e-08
-5.48081e-07
1.3753e-08
-5.54005e-07
1.18327e-08
-5.58957e-07
9.8917e-09
-5.62928e-07
7.93332e-09
-5.65912e-07
5.961e-09
-5.67904e-07
3.97822e-09
-5.68899e-07
1.98844e-09
-5.68897e-07
-4.84646e-12
-5.67896e-07
-1.99814e-09
-5.659e-07
-3.98794e-09
-5.62911e-07
-5.97076e-09
-5.58935e-07
-7.94312e-09
-5.53978e-07
-9.90156e-09
-5.4805e-07
-1.18427e-08
-5.4116e-07
-1.3763e-08
-5.33321e-07
-1.56592e-08
-5.24547e-07
-1.75279e-08
-5.14852e-07
-1.9366e-08
-5.04254e-07
-2.117e-08
-4.92772e-07
-2.2937e-08
-4.80426e-07
-2.46637e-08
-4.67236e-07
-2.63471e-08
-4.53227e-07
-2.79844e-08
-4.38424e-07
-2.95726e-08
-4.22851e-07
-3.11089e-08
-4.06536e-07
-3.25906e-08
-3.89508e-07
-3.40152e-08
-3.71797e-07
-3.53802e-08
-3.53433e-07
-3.6683e-08
-3.3445e-07
-3.79215e-08
-3.1488e-07
-3.90936e-08
-2.94757e-07
-4.0197e-08
-2.74117e-07
-4.12299e-08
-2.52997e-07
-4.21905e-08
-2.31433e-07
-4.30771e-08
-2.09462e-07
-4.38881e-08
-1.87125e-07
-4.46221e-08
-1.64459e-07
-4.52779e-08
-1.41504e-07
-4.58542e-08
-1.18301e-07
-4.63501e-08
-9.48912e-08
-4.67647e-08
-7.13144e-08
-4.70972e-08
-4.76126e-08
-4.73471e-08
-2.38272e-08
-4.7514e-08
-3.90272e-14
-4.75975e-08
2.38271e-08
-4.75975e-08
4.76125e-08
-4.7514e-08
7.13144e-08
-4.73471e-08
9.48911e-08
-4.70972e-08
1.18301e-07
-4.67647e-08
1.41504e-07
-4.63501e-08
1.64459e-07
-4.58542e-08
1.87125e-07
-4.52779e-08
2.09462e-07
-4.46221e-08
2.31433e-07
-4.38881e-08
2.52997e-07
-4.30771e-08
2.74117e-07
-4.21905e-08
2.94757e-07
-4.12299e-08
3.1488e-07
-4.0197e-08
3.3445e-07
-3.90935e-08
3.53433e-07
-3.79215e-08
3.71797e-07
-3.6683e-08
3.89508e-07
-3.53801e-08
4.06536e-07
-3.40152e-08
4.2285e-07
-3.25906e-08
4.38423e-07
-3.11089e-08
4.53227e-07
-2.95726e-08
4.67236e-07
-2.79844e-08
4.80426e-07
-2.63471e-08
4.92772e-07
-2.46637e-08
5.04254e-07
-2.2937e-08
5.14852e-07
-2.117e-08
5.24547e-07
-1.9366e-08
5.33321e-07
-1.75279e-08
5.4116e-07
-1.56592e-08
5.4805e-07
-1.3763e-08
5.53978e-07
-1.18426e-08
5.58935e-07
-9.90156e-09
5.62911e-07
-7.94311e-09
5.659e-07
-5.97075e-09
5.67896e-07
-3.98793e-09
5.68897e-07
-1.99813e-09
5.68899e-07
-4.84225e-12
5.67904e-07
1.98844e-09
5.65912e-07
3.97822e-09
5.62928e-07
5.961e-09
5.58957e-07
7.93332e-09
5.54005e-07
9.8917e-09
5.48081e-07
1.18327e-08
5.41197e-07
1.3753e-08
5.33363e-07
1.56491e-08
5.24593e-07
1.75178e-08
5.14904e-07
1.93557e-08
5.04312e-07
2.11597e-08
4.92835e-07
2.29265e-08
4.80493e-07
2.46531e-08
4.67309e-07
2.63365e-08
4.53306e-07
2.79737e-08
4.38507e-07
2.95618e-08
4.2294e-07
3.10981e-08
4.0663e-07
3.25799e-08
3.89608e-07
3.40045e-08
3.71902e-07
3.53695e-08
3.53544e-07
3.66725e-08
3.34565e-07
3.79112e-08
3.15e-07
3.90835e-08
2.94883e-07
4.01874e-08
2.74247e-07
4.1221e-08
2.53131e-07
4.21824e-08
2.3157e-07
4.30702e-08
2.09603e-07
4.38829e-08
1.87267e-07
4.46191e-08
1.64601e-07
4.5278e-08
1.41644e-07
4.58586e-08
1.18436e-07
4.63604e-08
9.50167e-08
4.67833e-08
7.14249e-08
4.71275e-08
4.76996e-08
4.73938e-08
2.38788e-08
4.75841e-08
4.76999e-08
-2.39735e-08
7.16735e-08
-4.78895e-08
7.15e-08
-7.17095e-08
7.12138e-08
-9.53953e-08
7.08134e-08
-1.18908e-07
7.0296e-08
-1.42208e-07
6.96605e-08
-1.65256e-07
6.89065e-08
-1.88012e-07
6.80341e-08
-2.10437e-07
6.70441e-08
-2.32492e-07
6.59378e-08
-2.54139e-07
6.47168e-08
-2.75339e-07
6.33828e-08
-2.96056e-07
6.19382e-08
-3.16254e-07
6.03852e-08
-3.35897e-07
5.87265e-08
-3.54951e-07
5.6965e-08
-3.73382e-07
5.51037e-08
-3.91158e-07
5.31458e-08
-4.08248e-07
5.10948e-08
-4.24623e-07
4.89542e-08
-4.40252e-07
4.67277e-08
-4.5511e-07
4.44193e-08
-4.69169e-07
4.2033e-08
-4.82406e-07
3.9573e-08
-4.94796e-07
3.70436e-08
-5.06319e-07
3.44491e-08
-5.16953e-07
3.17943e-08
-5.26681e-07
2.90837e-08
-5.35485e-07
2.6322e-08
-5.43351e-07
2.35142e-08
-5.50263e-07
2.06651e-08
-5.5621e-07
1.77798e-08
-5.61181e-07
1.48632e-08
-5.65168e-07
1.19205e-08
-5.68164e-07
8.95696e-09
-5.70164e-07
5.97765e-09
-5.71163e-07
2.98782e-09
-5.71161e-07
-7.26207e-12
-5.70157e-07
-3.00236e-09
-5.68152e-07
-5.99221e-09
-5.65152e-07
-8.97158e-09
-5.61159e-07
-1.19352e-08
-5.56183e-07
-1.4878e-08
-5.50231e-07
-1.77946e-08
-5.43314e-07
-2.06801e-08
-5.35444e-07
-2.35293e-08
-5.26634e-07
-2.63373e-08
-5.16901e-07
-2.90991e-08
-5.06262e-07
-3.18098e-08
-4.94734e-07
-3.44648e-08
-4.82338e-07
-3.70594e-08
-4.69096e-07
-3.95889e-08
-4.55032e-07
-4.20491e-08
-4.40169e-07
-4.44354e-08
-4.24534e-07
-4.67439e-08
-4.08154e-07
-4.89704e-08
-3.91058e-07
-5.11109e-08
-3.73277e-07
-5.31619e-08
-3.5484e-07
-5.51195e-08
-3.35781e-07
-5.69805e-08
-3.16133e-07
-5.87416e-08
-2.9593e-07
-6.03996e-08
-2.75209e-07
-6.19516e-08
-2.54004e-07
-6.3395e-08
-2.32354e-07
-6.47272e-08
-2.10296e-07
-6.59458e-08
-1.8787e-07
-6.70488e-08
-1.65113e-07
-6.80341e-08
-1.42068e-07
-6.89001e-08
-1.18772e-07
-6.96452e-08
-9.52689e-08
-7.02682e-08
-7.15983e-08
-7.07678e-08
-4.78021e-08
-7.11433e-08
-2.39221e-08
-7.13941e-08
-4.23548e-14
-7.15195e-08
2.3922e-08
-7.15195e-08
4.78021e-08
-7.1394e-08
7.15983e-08
-7.11433e-08
9.52689e-08
-7.07678e-08
1.18772e-07
-7.02681e-08
1.42067e-07
-6.96452e-08
1.65113e-07
-6.89001e-08
1.8787e-07
-6.80341e-08
2.10296e-07
-6.70488e-08
2.32354e-07
-6.59458e-08
2.54004e-07
-6.47272e-08
2.75209e-07
-6.3395e-08
2.9593e-07
-6.19516e-08
3.16133e-07
-6.03996e-08
3.35781e-07
-5.87416e-08
3.5484e-07
-5.69805e-08
3.73276e-07
-5.51195e-08
3.91058e-07
-5.31619e-08
4.08154e-07
-5.11109e-08
4.24534e-07
-4.89704e-08
4.40169e-07
-4.67439e-08
4.55031e-07
-4.44354e-08
4.69096e-07
-4.20491e-08
4.82338e-07
-3.95889e-08
4.94734e-07
-3.70594e-08
5.06261e-07
-3.44648e-08
5.16901e-07
-3.18098e-08
5.26634e-07
-2.90991e-08
5.35444e-07
-2.63373e-08
5.43314e-07
-2.35293e-08
5.50231e-07
-2.06801e-08
5.56183e-07
-1.77946e-08
5.61159e-07
-1.4878e-08
5.65152e-07
-1.19352e-08
5.68152e-07
-8.97157e-09
5.70157e-07
-5.99221e-09
5.71161e-07
-3.00235e-09
5.71163e-07
-7.25569e-12
5.70164e-07
2.98783e-09
5.68164e-07
5.97765e-09
5.65168e-07
8.95696e-09
5.61181e-07
1.19205e-08
5.5621e-07
1.48632e-08
5.50263e-07
1.77798e-08
5.43351e-07
2.06651e-08
5.35485e-07
2.35142e-08
5.26681e-07
2.6322e-08
5.16953e-07
2.90837e-08
5.06319e-07
3.17943e-08
4.94796e-07
3.44491e-08
4.82406e-07
3.70436e-08
4.69169e-07
3.9573e-08
4.5511e-07
4.2033e-08
4.40252e-07
4.44193e-08
4.24623e-07
4.67277e-08
4.08248e-07
4.89542e-08
3.91158e-07
5.10948e-08
3.73382e-07
5.31458e-08
3.54951e-07
5.51037e-08
3.35897e-07
5.6965e-08
3.16254e-07
5.87265e-08
2.96056e-07
6.03852e-08
2.75339e-07
6.19382e-08
2.54139e-07
6.33828e-08
2.32492e-07
6.47168e-08
2.10437e-07
6.59378e-08
1.88012e-07
6.70441e-08
1.65256e-07
6.80341e-08
1.42208e-07
6.89065e-08
1.18908e-07
6.96605e-08
9.53954e-08
7.0296e-08
7.17095e-08
7.08133e-08
4.78895e-08
7.12138e-08
2.39736e-08
7.15e-08
7.16734e-08
-2.41069e-08
9.57804e-08
-4.81562e-08
9.55493e-08
-7.21091e-08
9.51668e-08
-9.59272e-08
9.46314e-08
-1.19571e-07
9.39399e-08
-1.43001e-07
9.30906e-08
-1.66178e-07
9.20829e-08
-1.8906e-07
9.0917e-08
-2.1161e-07
8.95941e-08
-2.33788e-07
8.81157e-08
-2.55556e-07
8.6484e-08
-2.76874e-07
8.47014e-08
-2.97707e-07
8.27708e-08
-3.18017e-07
8.06955e-08
-3.3777e-07
7.8479e-08
-3.5693e-07
7.6125e-08
-3.75463e-07
7.36376e-08
-3.93339e-07
7.10212e-08
-4.10524e-07
6.82804e-08
-4.2699e-07
6.54197e-08
-4.42707e-07
6.24444e-08
-4.57647e-07
5.93596e-08
-4.71785e-07
5.61707e-08
-4.85095e-07
5.28833e-08
-4.97555e-07
4.95031e-08
-5.09142e-07
4.6036e-08
-5.19835e-07
4.24883e-08
-5.29618e-07
3.88659e-08
-5.38471e-07
3.51754e-08
-5.4638e-07
3.14232e-08
-5.53331e-07
2.76158e-08
-5.59311e-07
2.376e-08
-5.6431e-07
1.98624e-08
-5.6832e-07
1.593e-08
-5.71332e-07
1.19696e-08
-5.73343e-07
7.98825e-09
-5.74348e-07
3.99281e-09
-5.74346e-07
-9.66779e-12
-5.73336e-07
-4.01216e-09
-5.7132e-07
-8.00764e-09
-5.68303e-07
-1.19891e-08
-5.64289e-07
-1.59496e-08
-5.59284e-07
-1.98821e-08
-5.53299e-07
-2.37798e-08
-5.46344e-07
-2.76358e-08
-5.3843e-07
-3.14433e-08
-5.29571e-07
-3.51957e-08
-5.19784e-07
-3.88864e-08
-5.09085e-07
-4.2509e-08
-4.97492e-07
-4.6057e-08
-4.85028e-07
-4.95242e-08
-4.71712e-07
-5.29046e-08
-4.57569e-07
-5.61921e-08
-4.42623e-07
-5.93812e-08
-4.26901e-07
-6.24661e-08
-4.1043e-07
-6.54414e-08
-3.93239e-07
-6.8302e-08
-3.75358e-07
-7.10427e-08
-3.56819e-07
-7.36589e-08
-3.37654e-07
-7.61458e-08
-3.17896e-07
-7.84992e-08
-2.97581e-07
-8.07148e-08
-2.76743e-07
-8.27889e-08
-2.55421e-07
-8.47178e-08
-2.3365e-07
-8.64981e-08
-2.11469e-07
-8.81266e-08
-1.88917e-07
-8.96005e-08
-1.66034e-07
-9.09172e-08
-1.4286e-07
-9.20745e-08
-1.19435e-07
-9.30702e-08
-9.58002e-08
-9.39027e-08
-7.19976e-08
-9.45704e-08
-4.80687e-08
-9.50723e-08
-2.40555e-08
-9.54073e-08
-4.25212e-14
-9.5575e-08
2.40554e-08
-9.5575e-08
4.80686e-08
-9.54073e-08
7.19976e-08
-9.50722e-08
9.58002e-08
-9.45704e-08
1.19435e-07
-9.39027e-08
1.4286e-07
-9.30702e-08
1.66034e-07
-9.20745e-08
1.88917e-07
-9.09172e-08
2.11469e-07
-8.96005e-08
2.3365e-07
-8.81266e-08
2.55421e-07
-8.6498e-08
2.76743e-07
-8.47178e-08
2.97581e-07
-8.27889e-08
3.17896e-07
-8.07148e-08
3.37653e-07
-7.84992e-08
3.56819e-07
-7.61458e-08
3.75358e-07
-7.36589e-08
3.93239e-07
-7.10427e-08
4.1043e-07
-6.8302e-08
4.26901e-07
-6.54414e-08
4.42623e-07
-6.24661e-08
4.57569e-07
-5.93812e-08
4.71712e-07
-5.61921e-08
4.85028e-07
-5.29046e-08
4.97492e-07
-4.95242e-08
5.09085e-07
-4.6057e-08
5.19784e-07
-4.2509e-08
5.29571e-07
-3.88865e-08
5.3843e-07
-3.51957e-08
5.46344e-07
-3.14433e-08
5.53299e-07
-2.76358e-08
5.59284e-07
-2.37798e-08
5.64288e-07
-1.98821e-08
5.68303e-07
-1.59496e-08
5.7132e-07
-1.19891e-08
5.73336e-07
-8.00763e-09
5.74346e-07
-4.01215e-09
5.74348e-07
-9.66114e-12
5.73343e-07
3.99281e-09
5.71332e-07
7.98825e-09
5.6832e-07
1.19696e-08
5.6431e-07
1.593e-08
5.59311e-07
1.98624e-08
5.53331e-07
2.376e-08
5.4638e-07
2.76158e-08
5.38471e-07
3.14232e-08
5.29618e-07
3.51754e-08
5.19835e-07
3.88659e-08
5.09142e-07
4.24882e-08
4.97555e-07
4.6036e-08
4.85095e-07
4.95031e-08
4.71785e-07
5.28833e-08
4.57647e-07
5.61707e-08
4.42707e-07
5.93596e-08
4.2699e-07
6.24444e-08
4.10524e-07
6.54198e-08
3.93339e-07
6.82804e-08
3.75463e-07
7.10212e-08
3.5693e-07
7.36376e-08
3.3777e-07
7.6125e-08
3.18017e-07
7.8479e-08
2.97707e-07
8.06955e-08
2.76874e-07
8.27708e-08
2.55556e-07
8.47014e-08
2.33788e-07
8.6484e-08
2.1161e-07
8.81157e-08
1.8906e-07
8.95941e-08
1.66178e-07
9.0917e-08
1.43001e-07
9.20828e-08
1.19571e-07
9.30906e-08
9.59272e-08
9.39399e-08
7.21092e-08
9.46314e-08
4.81562e-08
9.51668e-08
2.41069e-08
9.55493e-08
9.57804e-08
-2.42802e-08
1.20061e-07
-4.85025e-08
1.19772e-07
-7.26279e-08
1.19292e-07
-9.66175e-08
1.18621e-07
-1.20432e-07
1.17754e-07
-1.4403e-07
1.16689e-07
-1.67374e-07
1.15426e-07
-1.90421e-07
1.13965e-07
-2.13134e-07
1.12306e-07
-2.35471e-07
1.10453e-07
-2.57395e-07
1.08408e-07
-2.78867e-07
1.06173e-07
-2.99849e-07
1.03753e-07
-3.20306e-07
1.01152e-07
-3.40201e-07
9.83736e-08
-3.59498e-07
9.54229e-08
-3.78166e-07
9.2305e-08
-3.9617e-07
8.90253e-08
-4.13479e-07
8.55896e-08
-4.30063e-07
8.20039e-08
-4.45893e-07
7.82743e-08
-4.60941e-07
7.44075e-08
-4.7518e-07
7.04102e-08
-4.88587e-07
6.62894e-08
-5.01136e-07
6.20523e-08
-5.12806e-07
5.77064e-08
-5.23577e-07
5.32592e-08
-5.3343e-07
4.87186e-08
-5.42347e-07
4.40925e-08
-5.50313e-07
3.93891e-08
-5.57314e-07
3.46165e-08
-5.63337e-07
2.97832e-08
-5.68372e-07
2.48977e-08
-5.7241e-07
1.99684e-08
-5.75445e-07
1.5004e-08
-5.7747e-07
1.00134e-08
-5.78482e-07
5.00506e-09
-5.7848e-07
-1.20603e-11
-5.77463e-07
-5.02919e-09
-5.75433e-07
-1.00375e-08
-5.72394e-07
-1.50283e-08
-5.6835e-07
-1.99928e-08
-5.6331e-07
-2.49222e-08
-5.57282e-07
-2.9808e-08
-5.50276e-07
-3.46415e-08
-5.42305e-07
-3.94142e-08
-5.33383e-07
-4.41179e-08
-5.23526e-07
-4.87442e-08
-5.12749e-07
-5.32851e-08
-5.01074e-07
-5.77325e-08
-4.88519e-07
-6.20787e-08
-4.75108e-07
-6.6316e-08
-4.60863e-07
-7.0437e-08
-4.4581e-07
-7.44345e-08
-4.29974e-07
-7.83014e-08
-4.13385e-07
-8.2031e-08
-3.9607e-07
-8.56167e-08
-3.7806e-07
-8.90523e-08
-3.59388e-07
-9.23316e-08
-3.40084e-07
-9.5449e-08
-3.20185e-07
-9.8399e-08
-2.99723e-07
-1.01176e-07
-2.78736e-07
-1.03776e-07
-2.57259e-07
-1.06194e-07
-2.35332e-07
-1.08426e-07
-2.12991e-07
-1.10467e-07
-1.90277e-07
-1.12315e-07
-1.6723e-07
-1.13965e-07
-1.43888e-07
-1.15416e-07
-1.20295e-07
-1.16664e-07
-9.64899e-08
-1.17707e-07
-7.2516e-08
-1.18544e-07
-4.84148e-08
-1.19173e-07
-2.42287e-08
-1.19593e-07
-4.1194e-14
-1.19804e-07
2.42286e-08
-1.19804e-07
4.84147e-08
-1.19593e-07
7.25159e-08
-1.19173e-07
9.64899e-08
-1.18544e-07
1.20295e-07
-1.17707e-07
1.43888e-07
-1.16664e-07
1.67229e-07
-1.15416e-07
1.90277e-07
-1.13965e-07
2.12991e-07
-1.12315e-07
2.35332e-07
-1.10467e-07
2.57259e-07
-1.08426e-07
2.78736e-07
-1.06194e-07
2.99723e-07
-1.03776e-07
3.20184e-07
-1.01176e-07
3.40084e-07
-9.8399e-08
3.59388e-07
-9.5449e-08
3.7806e-07
-9.23316e-08
3.9607e-07
-8.90523e-08
4.13385e-07
-8.56167e-08
4.29974e-07
-8.2031e-08
4.4581e-07
-7.83014e-08
4.60863e-07
-7.44345e-08
4.75108e-07
-7.0437e-08
4.88519e-07
-6.6316e-08
5.01074e-07
-6.20787e-08
5.12749e-07
-5.77325e-08
5.23525e-07
-5.32851e-08
5.33383e-07
-4.87443e-08
5.42305e-07
-4.41179e-08
5.50276e-07
-3.94143e-08
5.57282e-07
-3.46415e-08
5.6331e-07
-2.9808e-08
5.6835e-07
-2.49222e-08
5.72394e-07
-1.99928e-08
5.75433e-07
-1.50283e-08
5.77463e-07
-1.00375e-08
5.7848e-07
-5.02919e-09
5.78482e-07
-1.20551e-11
5.7747e-07
5.00506e-09
5.75445e-07
1.00134e-08
5.7241e-07
1.5004e-08
5.68372e-07
1.99684e-08
5.63337e-07
2.48977e-08
5.57314e-07
2.97832e-08
5.50313e-07
3.46165e-08
5.42347e-07
3.93891e-08
5.3343e-07
4.40925e-08
5.23577e-07
4.87186e-08
5.12806e-07
5.32592e-08
5.01136e-07
5.77064e-08
4.88587e-07
6.20523e-08
4.7518e-07
6.62894e-08
4.60941e-07
7.04102e-08
4.45893e-07
7.44075e-08
4.30063e-07
7.82743e-08
4.13479e-07
8.20039e-08
3.9617e-07
8.55896e-08
3.78166e-07
8.90253e-08
3.59498e-07
9.2305e-08
3.40201e-07
9.54229e-08
3.20306e-07
9.83736e-08
2.99849e-07
1.01152e-07
2.78867e-07
1.03753e-07
2.57395e-07
1.06173e-07
2.35471e-07
1.08408e-07
2.13133e-07
1.10453e-07
1.90421e-07
1.12306e-07
1.67374e-07
1.13965e-07
1.4403e-07
1.15426e-07
1.20432e-07
1.16689e-07
9.66175e-08
1.17754e-07
7.26279e-08
1.18621e-07
4.85025e-08
1.19292e-07
2.42802e-08
1.19772e-07
1.20061e-07
-2.44944e-08
1.44555e-07
-4.89305e-08
1.44208e-07
-7.32688e-08
1.43631e-07
-9.74702e-08
1.42822e-07
-1.21495e-07
1.41779e-07
-1.45302e-07
1.40497e-07
-1.68851e-07
1.38975e-07
-1.92102e-07
1.37216e-07
-2.15015e-07
1.35219e-07
-2.3755e-07
1.32988e-07
-2.59667e-07
1.30525e-07
-2.81329e-07
1.27835e-07
-3.02497e-07
1.24921e-07
-3.23134e-07
1.21789e-07
-3.43204e-07
1.18444e-07
-3.62672e-07
1.14891e-07
-3.81504e-07
1.11137e-07
-3.99667e-07
1.07188e-07
-4.1713e-07
1.03052e-07
-4.3386e-07
9.87344e-08
-4.4983e-07
9.4244e-08
-4.6501e-07
8.95882e-08
-4.79376e-07
8.47754e-08
-4.929e-07
7.98139e-08
-5.0556e-07
7.47123e-08
-5.17334e-07
6.94797e-08
-5.282e-07
6.41253e-08
-5.38139e-07
5.86583e-08
-5.47135e-07
5.30884e-08
-5.55172e-07
4.74254e-08
-5.62234e-07
4.16791e-08
-5.68311e-07
3.58597e-08
-5.7339e-07
2.99774e-08
-5.77464e-07
2.40424e-08
-5.80526e-07
1.80653e-08
-5.82569e-07
1.20564e-08
-5.8359e-07
6.02628e-09
-5.83588e-07
-1.44358e-11
-5.82562e-07
-6.05517e-09
-5.80514e-07
-1.20853e-08
-5.77448e-07
-1.80943e-08
-5.73369e-07
-2.40717e-08
-5.68284e-07
-3.00068e-08
-5.62203e-07
-3.58894e-08
-5.55135e-07
-4.1709e-08
-5.47094e-07
-4.74555e-08
-5.38093e-07
-5.31189e-08
-5.28148e-07
-5.86891e-08
-5.17277e-07
-6.41564e-08
-5.05498e-07
-6.95111e-08
-4.92833e-07
-7.4744e-08
-4.79303e-07
-7.98459e-08
-4.64933e-07
-8.48077e-08
-4.49746e-07
-8.96207e-08
-4.33771e-07
-9.42766e-08
-4.17035e-07
-9.87671e-08
-3.99568e-07
-1.03084e-07
-3.81399e-07
-1.07221e-07
-3.62561e-07
-1.11169e-07
-3.43088e-07
-1.14923e-07
-3.23012e-07
-1.18475e-07
-3.0237e-07
-1.21819e-07
-2.81197e-07
-1.24949e-07
-2.59531e-07
-1.2786e-07
-2.3741e-07
-1.30547e-07
-2.14872e-07
-1.33005e-07
-1.91958e-07
-1.35229e-07
-1.68706e-07
-1.37217e-07
-1.45159e-07
-1.38963e-07
-1.21357e-07
-1.40466e-07
-9.7342e-08
-1.41722e-07
-7.31564e-08
-1.4273e-07
-4.88423e-08
-1.43487e-07
-2.44426e-08
-1.43993e-07
-3.96883e-14
-1.44246e-07
2.44425e-08
-1.44246e-07
4.88423e-08
-1.43993e-07
7.31563e-08
-1.43487e-07
9.7342e-08
-1.4273e-07
1.21357e-07
-1.41722e-07
1.45159e-07
-1.40466e-07
1.68706e-07
-1.38963e-07
1.91958e-07
-1.37217e-07
2.14872e-07
-1.35229e-07
2.3741e-07
-1.33005e-07
2.59531e-07
-1.30547e-07
2.81197e-07
-1.2786e-07
3.0237e-07
-1.24949e-07
3.23012e-07
-1.21819e-07
3.43088e-07
-1.18475e-07
3.62561e-07
-1.14923e-07
3.81399e-07
-1.11169e-07
3.99567e-07
-1.07221e-07
4.17035e-07
-1.03084e-07
4.33771e-07
-9.87671e-08
4.49746e-07
-9.42766e-08
4.64933e-07
-8.96207e-08
4.79303e-07
-8.48077e-08
4.92833e-07
-7.98459e-08
5.05498e-07
-7.47441e-08
5.17277e-07
-6.95112e-08
5.28148e-07
-6.41564e-08
5.38093e-07
-5.86891e-08
5.47094e-07
-5.31189e-08
5.55135e-07
-4.74555e-08
5.62203e-07
-4.1709e-08
5.68284e-07
-3.58894e-08
5.73369e-07
-3.00068e-08
5.77448e-07
-2.40717e-08
5.80514e-07
-1.80943e-08
5.82562e-07
-1.20853e-08
5.83587e-07
-6.05517e-09
5.8359e-07
-1.4433e-11
5.82569e-07
6.02628e-09
5.80526e-07
1.20564e-08
5.77464e-07
1.80653e-08
5.7339e-07
2.40424e-08
5.68311e-07
2.99774e-08
5.62234e-07
3.58597e-08
5.55171e-07
4.16791e-08
5.47135e-07
4.74254e-08
5.38139e-07
5.30884e-08
5.282e-07
5.86583e-08
5.17334e-07
6.41253e-08
5.0556e-07
6.94797e-08
4.929e-07
7.47123e-08
4.79376e-07
7.98139e-08
4.6501e-07
8.47754e-08
4.4983e-07
8.95882e-08
4.3386e-07
9.4244e-08
4.1713e-07
9.87344e-08
3.99667e-07
1.03052e-07
3.81504e-07
1.07188e-07
3.62672e-07
1.11137e-07
3.43204e-07
1.14891e-07
3.23134e-07
1.18444e-07
3.02497e-07
1.21789e-07
2.81329e-07
1.24921e-07
2.59667e-07
1.27835e-07
2.3755e-07
1.30525e-07
2.15015e-07
1.32988e-07
1.92102e-07
1.35219e-07
1.68851e-07
1.37216e-07
1.45302e-07
1.38975e-07
1.21495e-07
1.40496e-07
9.74702e-08
1.41779e-07
7.32688e-08
1.42822e-07
4.89305e-08
1.43631e-07
2.44945e-08
1.44208e-07
1.44555e-07
-2.47505e-08
1.69306e-07
-4.94419e-08
1.68899e-07
-7.40346e-08
1.68223e-07
-9.8489e-08
1.67277e-07
-1.22765e-07
1.66054e-07
-1.46821e-07
1.64553e-07
-1.70616e-07
1.62771e-07
-1.94111e-07
1.6071e-07
-2.17263e-07
1.58372e-07
-2.40033e-07
1.55758e-07
-2.62382e-07
1.52874e-07
-2.8427e-07
1.49723e-07
-3.05659e-07
1.4631e-07
-3.26512e-07
1.42642e-07
-3.46792e-07
1.38724e-07
-3.66464e-07
1.34563e-07
-3.85493e-07
1.30166e-07
-4.03846e-07
1.25541e-07
-4.21491e-07
1.20696e-07
-4.38396e-07
1.1564e-07
-4.54533e-07
1.10381e-07
-4.69872e-07
1.04928e-07
-4.84388e-07
9.92908e-08
-4.98053e-07
9.34798e-08
-5.10846e-07
8.75048e-08
-5.22742e-07
8.13763e-08
-5.33722e-07
7.5105e-08
-5.43766e-07
6.8702e-08
-5.52856e-07
6.21784e-08
-5.60976e-07
5.55457e-08
-5.68113e-07
4.88156e-08
-5.74253e-07
4.19998e-08
-5.79386e-07
3.51103e-08
-5.83502e-07
2.81591e-08
-5.86596e-07
2.11586e-08
-5.8866e-07
1.41208e-08
-5.89692e-07
7.05822e-09
-5.8969e-07
-1.67898e-11
-5.88653e-07
-7.09183e-09
-5.86584e-07
-1.41545e-08
-5.83486e-07
-2.11924e-08
-5.79364e-07
-2.81931e-08
-5.74227e-07
-3.51445e-08
-5.68082e-07
-4.20343e-08
-5.6094e-07
-4.88504e-08
-5.52815e-07
-5.55809e-08
-5.4372e-07
-6.22139e-08
-5.33671e-07
-6.87378e-08
-5.22686e-07
-7.51413e-08
-5.10784e-07
-8.14129e-08
-4.97987e-07
-8.75418e-08
-4.84315e-07
-9.35172e-08
-4.69795e-07
-9.93285e-08
-4.5445e-07
-1.04966e-07
-4.38307e-07
-1.10419e-07
-4.21396e-07
-1.15678e-07
-4.03746e-07
-1.20735e-07
-3.85387e-07
-1.25579e-07
-3.66353e-07
-1.30204e-07
-3.46675e-07
-1.346e-07
-3.2639e-07
-1.3876e-07
-3.05532e-07
-1.42677e-07
-2.84138e-07
-1.46343e-07
-2.62245e-07
-1.49752e-07
-2.39893e-07
-1.52899e-07
-2.17119e-07
-1.55778e-07
-1.93965e-07
-1.58384e-07
-1.70471e-07
-1.60711e-07
-1.46677e-07
-1.62757e-07
-1.22626e-07
-1.64517e-07
-9.836e-08
-1.65988e-07
-7.39214e-08
-1.67169e-07
-4.93531e-08
-1.68056e-07
-2.46982e-08
-1.68648e-07
-3.83057e-14
-1.68944e-07
2.46982e-08
-1.68944e-07
4.9353e-08
-1.68648e-07
7.39213e-08
-1.68056e-07
9.836e-08
-1.67169e-07
1.22626e-07
-1.65988e-07
1.46677e-07
-1.64517e-07
1.70471e-07
-1.62757e-07
1.93965e-07
-1.60711e-07
2.17119e-07
-1.58384e-07
2.39893e-07
-1.55778e-07
2.62245e-07
-1.52899e-07
2.84138e-07
-1.49752e-07
3.05532e-07
-1.46343e-07
3.2639e-07
-1.42677e-07
3.46675e-07
-1.3876e-07
3.66353e-07
-1.346e-07
3.85387e-07
-1.30204e-07
4.03746e-07
-1.25579e-07
4.21396e-07
-1.20735e-07
4.38307e-07
-1.15678e-07
4.54449e-07
-1.10419e-07
4.69794e-07
-1.04966e-07
4.84315e-07
-9.93285e-08
4.97987e-07
-9.35172e-08
5.10784e-07
-8.75418e-08
5.22686e-07
-8.14129e-08
5.33671e-07
-7.51413e-08
5.4372e-07
-6.87378e-08
5.52815e-07
-6.22139e-08
5.6094e-07
-5.55809e-08
5.68082e-07
-4.88504e-08
5.74227e-07
-4.20343e-08
5.79364e-07
-3.51445e-08
5.83486e-07
-2.81931e-08
5.86584e-07
-2.11924e-08
5.88653e-07
-1.41545e-08
5.8969e-07
-7.09183e-09
5.89692e-07
-1.67892e-11
5.8866e-07
7.05822e-09
5.86596e-07
1.41208e-08
5.83502e-07
2.11586e-08
5.79386e-07
2.81591e-08
5.74253e-07
3.51103e-08
5.68113e-07
4.19998e-08
5.60976e-07
4.88156e-08
5.52856e-07
5.55457e-08
5.43766e-07
6.21784e-08
5.33722e-07
6.8702e-08
5.22742e-07
7.5105e-08
5.10846e-07
8.13763e-08
4.98053e-07
8.75048e-08
4.84388e-07
9.34798e-08
4.69872e-07
9.92908e-08
4.54533e-07
1.04928e-07
4.38396e-07
1.10381e-07
4.21491e-07
1.1564e-07
4.03846e-07
1.20696e-07
3.85493e-07
1.25541e-07
3.66464e-07
1.30166e-07
3.46792e-07
1.34563e-07
3.26512e-07
1.38724e-07
3.05659e-07
1.42642e-07
2.8427e-07
1.4631e-07
2.62382e-07
1.49723e-07
2.40033e-07
1.52874e-07
2.17263e-07
1.55758e-07
1.94111e-07
1.58372e-07
1.70616e-07
1.6071e-07
1.46821e-07
1.62771e-07
1.22765e-07
1.64553e-07
9.8489e-08
1.66054e-07
7.40346e-08
1.67277e-07
4.94419e-08
1.68223e-07
2.47505e-08
1.68899e-07
1.69306e-07
-2.50491e-08
1.94355e-07
-5.00383e-08
1.93888e-07
-7.49277e-08
1.93113e-07
-9.96771e-08
1.92026e-07
-1.24246e-07
1.90623e-07
-1.48592e-07
1.88899e-07
-1.72675e-07
1.86854e-07
-1.96452e-07
1.84488e-07
-2.19884e-07
1.81803e-07
-2.42929e-07
1.78803e-07
-2.65547e-07
1.75492e-07
-2.87699e-07
1.71875e-07
-3.09347e-07
1.67958e-07
-3.30451e-07
1.63746e-07
-3.50976e-07
1.59249e-07
-3.70885e-07
1.54472e-07
-3.90144e-07
1.49425e-07
-4.08718e-07
1.44116e-07
-4.26576e-07
1.38554e-07
-4.43685e-07
1.32749e-07
-4.60017e-07
1.26712e-07
-4.75541e-07
1.20452e-07
-4.90232e-07
1.13981e-07
-5.04063e-07
1.07311e-07
-5.17009e-07
1.00452e-07
-5.2905e-07
9.34163e-08
-5.40162e-07
8.62172e-08
-5.50327e-07
7.88668e-08
-5.59526e-07
7.13781e-08
-5.67745e-07
6.37641e-08
-5.74967e-07
5.60382e-08
-5.81182e-07
4.8214e-08
-5.86377e-07
4.03052e-08
-5.90543e-07
3.23256e-08
-5.93674e-07
2.42892e-08
-5.95763e-07
1.62102e-08
-5.96808e-07
8.10268e-09
-5.96805e-07
-1.91173e-11
-5.95756e-07
-8.14094e-09
-5.93662e-07
-1.62486e-08
-5.90527e-07
-2.43277e-08
-5.86355e-07
-3.23643e-08
-5.81156e-07
-4.03442e-08
-5.74937e-07
-4.82533e-08
-5.67709e-07
-5.60779e-08
-5.59486e-07
-6.38042e-08
-5.50281e-07
-7.14186e-08
-5.40111e-07
-7.89078e-08
-5.28994e-07
-8.62587e-08
-5.16948e-07
-9.34583e-08
-5.03996e-07
-1.00494e-07
-4.9016e-07
-1.07353e-07
-4.75464e-07
-1.14025e-07
-4.59934e-07
-1.20496e-07
-4.43597e-07
-1.26756e-07
-4.26482e-07
-1.32793e-07
-4.08618e-07
-1.38598e-07
-3.90038e-07
-1.4416e-07
-3.70774e-07
-1.49468e-07
-3.50859e-07
-1.54515e-07
-3.30329e-07
-1.5929e-07
-3.09219e-07
-1.63786e-07
-2.87567e-07
-1.67995e-07
-2.6541e-07
-1.71909e-07
-2.42788e-07
-1.75522e-07
-2.1974e-07
-1.78826e-07
-1.96306e-07
-1.81817e-07
-1.72528e-07
-1.84489e-07
-1.48447e-07
-1.86838e-07
-1.24106e-07
-1.88858e-07
-9.95471e-08
-1.90547e-07
-7.48136e-08
-1.91902e-07
-4.99488e-08
-1.92921e-07
-2.49963e-08
-1.936e-07
-3.73694e-14
-1.93941e-07
2.49962e-08
-1.93941e-07
4.99487e-08
-1.936e-07
7.48135e-08
-1.92921e-07
9.9547e-08
-1.91902e-07
1.24106e-07
-1.90547e-07
1.48447e-07
-1.88858e-07
1.72528e-07
-1.86838e-07
1.96306e-07
-1.84489e-07
2.1974e-07
-1.81817e-07
2.42788e-07
-1.78826e-07
2.6541e-07
-1.75522e-07
2.87567e-07
-1.71909e-07
3.09219e-07
-1.67995e-07
3.30329e-07
-1.63786e-07
3.50859e-07
-1.5929e-07
3.70774e-07
-1.54515e-07
3.90038e-07
-1.49468e-07
4.08618e-07
-1.4416e-07
4.26482e-07
-1.38598e-07
4.43597e-07
-1.32793e-07
4.59934e-07
-1.26756e-07
4.75464e-07
-1.20496e-07
4.9016e-07
-1.14025e-07
5.03996e-07
-1.07353e-07
5.16948e-07
-1.00494e-07
5.28994e-07
-9.34583e-08
5.40111e-07
-8.62587e-08
5.50281e-07
-7.89078e-08
5.59486e-07
-7.14186e-08
5.67709e-07
-6.38042e-08
5.74937e-07
-5.60779e-08
5.81156e-07
-4.82533e-08
5.86355e-07
-4.03442e-08
5.90527e-07
-3.23643e-08
5.93662e-07
-2.43277e-08
5.95756e-07
-1.62486e-08
5.96805e-07
-8.14094e-09
5.96807e-07
-1.91179e-11
5.95763e-07
8.10268e-09
5.93674e-07
1.62102e-08
5.90543e-07
2.42892e-08
5.86377e-07
3.23256e-08
5.81182e-07
4.03052e-08
5.74967e-07
4.8214e-08
5.67745e-07
5.60382e-08
5.59526e-07
6.37641e-08
5.50327e-07
7.13781e-08
5.40162e-07
7.88668e-08
5.2905e-07
8.62172e-08
5.17009e-07
9.34163e-08
5.04063e-07
1.00452e-07
4.90232e-07
1.07311e-07