/*--------------------------------*- C++ -*----------------------------------*\
| =========                 |                                                 |
| \\      /  F ield         | OpenFOAM: The Open Source CFD Toolbox           |
|  \\    /   O peration     | Version:  2106                                  |
|   \\  /    A nd           | Website:  www.openfoam.com                      |
|    \\/     M anipulation  |                                                 |
\*---------------------------------------------------------------------------*/
FoamFile
{
    version     2.0;
    format      ascii;
    arch        "LSB;label=32;scalar=64";
    class       surfaceScalarField;
    location    "0.049";
    object      phi_0;
}
// * * * * * * * * * * * * * * * * * * * * * * * * * * * * * * * * * * * * * //

dimensions      [0 3 -1 0 0 0 0];

oriented        oriented;

internalField   nonuniform List<scalar> 
1984
(
-0.00015191403
0.00015180032
-0.00029786122
0.00014594719
-0.00043233323
0.00013447201
-0.00055015336
0.00011782013
-0.00064679068
9.6637315e-05
-0.00071853456
7.1743887e-05
-0.00076263637
4.4101804e-05
-0.00077741582
1.4779454e-05
-0.00076232055
-1.5095268e-05
-0.00071794598
-4.4374573e-05
-0.00064601017
-7.1935814e-05
-0.00054928581
-9.6724357e-05
-0.00043149247
-0.00011779334
-0.00029715336
-0.00013433911
-0.00015142217
-0.00014573119
1.1364638e-07
-0.00015153581
0.0001516456
-0.00015153196
0.0002973652
-0.0001457196
0.00043168498
-0.00013431979
0.00054945146
-0.00011776648
0.00064614192
-9.669046e-05
0.00071803778
-7.1895854e-05
0.00076236786
-4.4330085e-05
0.00077741618
-1.5048315e-05
0.00076258971
1.4826464e-05
0.00071844327
4.4146446e-05
0.00064665923
7.178404e-05
0.00054998784
9.667139e-05
0.00043214071
0.00011784712
0.00029764931
0.00013449141
0.00015169048
0.00014595883
0.00015180419
-0.00015777815
0.00030946075
-0.00030935898
0.00029752802
-0.00044902054
0.00027413357
-0.00057138594
0.00024018553
-0.00067174926
0.00019700064
-0.00074625704
0.00014625167
-0.00079205621
8.9900968e-05
-0.00080740088
3.0124129e-05
-0.00079171874
-3.0777413e-05
-0.00074562907
-9.0464241e-05
-0.0006709167
-0.00014664818
-0.00057046139
-0.00019717967
-0.00044812603
-0.00024012871
-0.00030860797
-0.00027385717
-0.00015725923
-0.00029707993
1.1767005e-07
-0.00030891272
0.0001574907
-0.00030890499
0.00030882776
-0.00029705665
0.00044832625
-0.00027381828
0.00057063418
-0.00024007441
0.00067105455
-0.00019711083
0.00074572536
-0.00014656667
0.00079176846
-9.0373182e-05
0.00080740126
-3.0681117e-05
0.00079200717
3.0220555e-05
0.00074616125
8.9992368e-05
0.0006716117
0.00014633359
0.00057121324
0.00019706985
0.00044882028
0.00024024008
0.0003091391
0.00027417259
0.00015754658
0.00029755134
0.00030946849
-0.00016730577
0.00047664115
-0.00032803912
0.00045826137
-0.00047613259
0.00042222704
-0.00060588428
0.00036993722
-0.00071230413
0.00030342049
-0.00079130645
0.00022525398
-0.00083986641
0.00013846093
-0.00085613392
4.6391629e-05
-0.00083950261
-4.7408721e-05
-0.00079062967
-0.00013933718
-0.00071140767
-0.00022587018
-0.00060488982
-0.00030369752
-0.00047517164
-0.00036984689
-0.00032723355
-0.00042179526
-0.00016675034
-0.00045756314
1.25301e-07
-0.00047578835
0.0001669971
-0.00047577678
0.00032746861
-0.00045752816
0.0004753868
-0.00042173647
0.00060507657
-0.00036976418
0.00071155755
-0.0003035918
0.00079073495
-0.00022574407
0.00083955721
-0.00013919545
0.00085613441
-4.7258316e-05
0.00083981267
4.6542299e-05
0.00079120173
0.0001386033
0.00071215448
0.00022538084
0.0006056975
0.00030352683
0.00047591728
0.00037002031
0.00032780388
0.00042228598
0.00016705886
0.00045829637
0.00047665272
-0.00018135749
0.00065786163
-0.00035558922
0.0006324931
-0.00051611857
0.0005827564
-0.00065676439
0.00051058304
-0.00077211764
0.00041877373
-0.00085775009
0.00031088644
-0.00091038382
0.00019109466
-0.0009280147
6.4022516e-05
-0.00090998641
-6.5437011e-05
-0.00085701135
-0.00019231224
-0.00077114031
-0.00031174122
-0.00065568168
-0.00041915614
-0.00051507364
-0.00051045493
-0.00035471399
-0.00058215491
-0.00018075386
-0.00063152327
1.3691175e-07
-0.00065667912
0.00018102398
-0.00065666385
0.00035497263
-0.00063147681
0.00051531222
-0.00058207606
0.00065589067
-0.00051034264
0.00077130964
-0.00041901077
0.00085713133
-0.00031156577
0.00091004911
-0.00019211322
0.00092801541
-6.5224622e-05
0.00091032232
6.4235389e-05
0.00085763079
0.00019129483
0.00077194844
0.00031106319
0.00065655515
0.00041892012
0.0005158796
0.00051069587
0.00035533022
0.00058283536
0.00018108712
0.00063253946
0.00065787685
-0.00020119671
0.00085890584
-0.0003944873
0.00082578369
-0.00057257516
0.00076084425
-0.00072860239
0.00066661027
-0.00085656849
0.00054673984
-0.00095156198
0.00040587992
-0.001009948
0.00024948069
-0.0010295052
8.3579717e-05
-0.001009507
-8.5435204e-05
-0.00095074337
-0.00025107589
-0.00085548769
-0.0004069969
-0.00072740761
-0.00054723622
-0.00057142424
-0.0006664383
-0.00039352436
-0.00076005479
-0.0002005319
-0.00082451573
1.5239329e-07
-0.00085736342
0.0002008334
-0.00085734485
0.00039381527
-0.00082445868
0.00057169564
-0.00075995644
0.00072764856
-0.00066629556
0.0008556856
-0.00054704781
0.00095088539
-0.00040676555
0.001009582
-0.00025080987
0.0010295063
-8.5148911e-05
0.0010098748
8.3866905e-05
0.00095142081
0.00024974883
0.00085637048
0.00040611353
0.00072836075
0.00054692984
0.00057230292
0.00066675369
0.00039419576
0.00076094252
0.00020089486
0.00082584036
0.00085892422
-0.00022891015
0.0010876446
-0.00044882664
0.0010457002
-0.0006514438
0.00096346142
-0.00082895821
0.00084412468
-0.00097454325
0.00069232488
-0.001082613
0.00051394963
-0.0011490346
0.00031590235
-0.0011712838
0.00010582895
-0.0011485369
-0.00010818218
-0.0010816914
-0.00031792138
-0.0009733307
-0.00051535758
-0.00082762263
-0.00069294428
-0.00065016152
-0.00084389941
-0.00044775631
-0.00096246
-0.00022817107
-0.001044101
1.7135709e-07
-0.0010857058
0.00022851145
-0.0010856849
0.00044808843
-0.0010440357
0.00065047644
-0.00096234445
0.00082790749
-0.0008437266
0.00097356909
-0.00069270941
0.0010818654
-0.00051506186
0.0011486302
-0.00031757468
0.0011712857
-0.0001078044
0.0011489442
0.00010620842
0.00108244
0.00031625299
0.00097430428
0.00051424927
0.00082867184
0.00069256229
0.00065112729
0.00084429824
0.00044849347
0.00096357635
0.00022856936
0.0010457645
0.001087665
-0.00026793923
0.0013553911
-0.00052535847
0.0013031194
-0.00076252509
0.001200628
-0.00097030362
0.0010519032
-0.0011407041
0.00086272538
-0.0012671913
0.00064043682
-0.001344932
0.00039364302
-0.0013709751
0.00013187207
-0.0013443618
-0.00013479548
-0.0012661405
-0.00039614267
-0.0011393296
-0.00064216845
-0.00096879885
-0.00086347507
-0.00076108851
-0.0010516098
-0.00052416479
-0.0011993837
-0.0002671163
-0.0013011495
1.9290189e-07
-0.001353015
0.00026750178
-0.0013529938
0.00052454706
-0.0013010809
0.0007614594
-0.0011992568
0.00096914298
-0.0010514102
0.0011396248
-0.00086319121
0.0012663608
-0.00064179788
0.0013444825
-0.00039569636
0.0013709783
-0.00013430027
0.0013448162
0.00013237058
0.0012669723
0.00039409683
0.0011404074
0.00064081426
0.00096995642
0.00086301322
0.00076215127
0.0010521034
0.00052497455
0.0012007531
0.00026755349
0.0013031855
0.0013554112
-0.00032339657
0.0016785734
-0.000634114
0.0016138368
-0.00092038299
0.001486897
-0.0011711751
0.0013026953
-0.0013768467
0.001068397
-0.0015295141
0.00079310416
-0.0016233482
0.00048747715
-0.0016547893
0.00016331323
-0.0016226906
-0.00016689424
-0.0015283124
-0.00049052083
-0.0013752906
-0.00079519033
-0.0011694883
-0.0010692774
-0.00091878745
-0.0013023106
-0.00063279829
-0.0014853729
-0.00032249256
-0.0016114552
2.1508994e-07
-0.0016757227
0.00032292641
-0.0016757051
0.00063323896
-0.0016113935
0.0009192291
-0.0014852469
0.0011699123
-0.0013020934
0.0013756657
-0.0010689446
0.0015286002
-0.00079473237
0.0016228528
-0.00048994895
0.0016547952
-0.00016624273
0.0016231944
0.00016397138
0.0015292277
0.00048806356
0.0013764678
0.00079357414
0.001170745
0.001068736
0.00091993598
0.0013029124
0.00063367082
0.0014870182
0.00032296312
0.0016138932
0.0016785886
-0.00040154596
0.0020798873
-0.00078738616
0.001999677
-0.0011428696
0.0018423805
-0.0014543005
0.0016141262
-0.0017097023
0.0013237988
-0.0018992905
0.00098269237
-0.0020158304
0.00060401708
-0.002054894
0.00020237677
-0.0020150781
-0.00020671015
-0.0018979379
-0.00060766102
-0.001707981
-0.00098514724
-0.0014524654
-0.001324793
-0.0011411606
-0.0016136154
-0.00078599407
-0.0018405394
-0.00040059302
-0.0019968562
2.3437425e-07
-0.0020765501
0.00040107277
-0.0020765435
0.00078649941
-0.0019968201
0.0011416911
-0.0018404386
0.0014529986
-0.001613401
0.0017084707
-0.0013244166
0.0018983254
-0.00098458703
0.0020153048
-0.00060692834
0.0020549051
-0.0002058431
0.0020156186
0.00020325787
0.0018989038
0.00060477839
0.0017092046
0.00098327336
0.0014537556
0.001324185
0.0011423293
0.0016143387
0.00078687715
0.0018424704
0.00040106846
0.0019997019
0.0020798891
-0.00050748794
0.0025871368
-0.00099519296
0.0024873821
-0.0014445438
0.0022917313
-0.0018382296
0.0020078119
-0.0021611046
0.0016466739
-0.0024008056
0.0012223933
-0.0025481875
0.00075139905
-0.002597611
0.00025180025
-0.0025473487
-0.00025697245
-0.0023993475
-0.00075566225
-0.0021593095
-0.0012251852
-0.0018363738
-0.0016477287
-0.0014428651
-0.0020071241
-0.0009938559
-0.0022895485
-0.00050657404
-0.0024841381
2.4431684e-07
-0.0025833684
0.00050708675
-0.002583386
0.00099442793
-0.0024841613
0.0014435076
-0.0022895183
0.0018370601
-0.0020069535
0.0021599675
-0.001647324
0.0023998844
-0.0012245039
0.002547678
-0.00075472201
0.0025976329
-0.00025579798
0.0025478846
0.00025300619
0.0024002666
0.00075239634
0.0021604304
0.0012231096
0.0018375211
0.0016470943
0.0014438832
0.0020079767
0.00099461576
0.0022917378
0.00050698191
0.0024873358
0.0025871095
-0.00063997262
0.0032268886
-0.0012551067
0.0031025161
-0.0018219106
0.0028585353
-0.0023185584
0.0025044597
-0.0027259206
0.0020540361
-0.0030284074
0.0015248802
-0.0032144878
0.00093747943
-0.0032769037
0.00031421618
-0.0032135835
-0.00032029272
-0.0030269516
-0.00094229409
-0.0027242516
-0.0015278852
-0.0023169473
-0.002055033
-0.0018205546
-0.0025035168
-0.0012540875
-0.0028560156
-0.00063927262
-0.0030989529
2.3391948e-07
-0.003222875
0.00063978721
-0.0032229392
0.0012547203
-0.0030990944
0.0018213405
-0.0028561385
0.0023178578
-0.0025034708
0.0027251664
-0.0020546326
0.0030277144
-0.0015270518
0.0032140791
-0.00094108676
0.0032769486
-0.00031866749
0.0032140388
0.00031591599
0.0030276338
0.00093880143
0.0027249745
0.0015257688
0.0023176054
0.0020544634
0.0018210903
0.0025044918
0.001254467
0.0028583611
0.0006394746
0.0031023282
0.0032268049
-0.00078288173
0.004009613
-0.0015355489
0.0038551833
-0.0022291712
0.0035521576
-0.0028370745
0.003112363
-0.0033357712
0.0025527328
-0.0037061921
0.0018953011
-0.0039342955
0.0011655828
-0.0040107658
0.00039068654
-0.0039333164
-0.00039774218
-0.0037048832
-0.0011707273
-0.0033345173
-0.0018982511
-0.0028361034
-0.0025534469
-0.0022285915
-0.0031110287
-0.0015352655
-0.0035493416
-0.00078268017
-0.0038515383
1.8519251e-07
-0.0040057403
0.00078313511
-0.0040058892
0.001535939
-0.0038518983
0.0022295668
-0.0035497664
0.0028373647
-0.0031112687
0.0033358483
-0.0025531163
0.0037059883
-0.0018971918
0.0039340818
-0.0011691803
0.0040108635
-0.00039544918
0.003933612
0.0003931675
0.0037050518
0.0011673617
0.0033343831
0.0018964375
0.0028357293
0.0025531172
0.0022281277
0.0031120934
0.0015348673
0.0035516215
0.00078246414
0.0038547313
0.0040094263
-0.00089507663
0.0049046751
-0.0017558792
0.0047159858
-0.0025493068
0.0043455853
-0.00324496
0.0038080162
-0.0038157324
0.0031235052
-0.0042398312
0.0023193998
-0.0045015844
0.001427336
-0.0045891069
0.00047820905
-0.004500288
-0.00048656101
-0.0042386493
-0.001432366
-0.0038150788
-0.0023218216
-0.0032449916
-0.0031235342
-0.0025500279
-0.0038059924
-0.0017568664
-0.004342503
-0.00089576352
-0.0047126412
7.0089409e-08
-0.004901574
0.00089604693
-0.004901866
0.0017575367
-0.004713388
0.0025512675
-0.0043434972
0.0032468517
-0.0038068528
0.0038171399
-0.0031234045
0.00424026
-0.0023203118
0.0045014501
-0.0014303704
0.004589336
-0.00048333517
0.0045005606
0.00048194292
0.0042381309
0.0014297914
0.003813575
0.0023209934
0.0032429252
0.003123767
0.0025479233
0.0038070952
0.0017552001
0.0043443447
0.00089487144
0.00471506
0.0049043124
-0.00090484181
0.0058097853
-0.0017754954
0.0055866394
-0.0025782329
0.0051483228
-0.0032826267
0.00451241
-0.0038604993
0.0037013779
-0.004289844
0.0027487445
-0.0045564293
0.0016939212
-0.0046452225
0.00056700222
-0.0045544052
-0.00057737829
-0.0042884924
-0.0016982789
-0.0038600806
-0.0027502334
-0.0032835193
-0.0037000955
-0.002580568
-0.0045089437
-0.0017782578
-0.0051448132
-0.00090684932
-0.0055840497
-1.5966259e-07
-0.0058082636
0.00090677095
-0.0058087966
0.001778852
-0.0055854691
0.0025822164
-0.0051468616
0.0032864943
-0.0045111308
0.00386349
-0.0037004002
0.0042906606
-0.0027474824
0.0045557898
-0.0016954996
0.0046457443
-0.0005732896
0.0045552393
0.00057244788
0.0042875165
0.0016975142
0.0038569717
0.0027515382
0.0032792762
0.0037014625
0.0025762655
0.004510106
0.0017748851
0.0051457251
0.00090506959
0.0055848756
0.0058091135
-0.00072234313
0.0065328463
-0.0014182465
0.0062825427
-0.0020600799
0.0057901562
-0.0026248066
0.0050771368
-0.0030877227
0.0041642939
-0.0034298544
0.0030908762
-0.0036464211
0.0019104879
-0.0037190524
0.00063963352
-0.0036438876
-0.00065254312
-0.0034279349
-0.0019142315
-0.0030856382
-0.0030925301
-0.0026250237
-0.00416071
-0.0020636728
-0.0050702946
-0.0014229589
-0.0057855271
-0.00072587643
-0.0062811321
-5.4602243e-07
-0.006533594
0.00072518961
-0.0065345322
0.0014234308
-0.0062837103
0.002065961
-0.0057893917
0.0026299815
-0.0050751514
0.0030914495
-0.0041618681
0.0034294792
-0.0030855121
0.0036432743
-0.0019092947
0.0037199233
-0.00064993861
0.0036471451
0.00064522605
0.0034283032
0.001916356
0.0030820504
0.003097791
0.0026190575
0.0041644554
0.0020571088
0.0050720547
0.0014177307
0.0057851031
0.00072324461
0.0062793616
0.0065316402
-0.00029163521
0.0068255078
-0.0005745911
0.0065654986
-0.00083406725
0.0060496323
-0.0010667634
0.0053098329
-0.0012574486
0.0043549791
-0.0013885193
0.0032219469
-0.00148123
0.0020031987
-0.0015193073
0.00067771088
-0.0014854553
-0.00068639521
-0.0013904197
-0.0020092671
-0.0012526097
-0.0032303401
-0.0010643497
-0.00434897
-0.00083807275
-0.0052965716
-0.000580227
-0.0060433729
-0.00029608536
-0.0065652738
-8.7097578e-07
-0.0068288084
0.00029489523
-0.0068302985
0.00058084531
-0.0065696604
0.00084046507
-0.0060490115
0.0010704696
-0.0053051559
0.0012604807
-0.0043518792
0.0013875899
-0.0032126213
0.0014762316
-0.0019979365
0.0015190172
-0.00069272413
0.0014902864
0.00067395678
0.001392414
0.0020142285
0.0012505039
0.0032397011
0.0010590496
0.0043559097
0.00083061169
0.0053004926
0.00057394044
0.0060417744
0.00029285677
0.0065604453
0.0068234707
0.00029099155
0.0065334888
0.00057310316
0.006283387
0.00083140092
0.0057913346
0.0010624805
0.0050787534
0.0012511721
0.0041662875
0.0013801183
0.0030930007
0.001470649
0.001912668
0.0015067787
0.00064158115
0.0014714661
-0.0006510826
0.001375675
-0.001913476
0.0012380569
-0.003092722
0.0010509161
-0.0041618292
0.00082682486
-0.0050724803
0.0005721372
-0.0057886852
0.00029184655
-0.0062849831
8.7239985e-07
-0.0065378343
-0.0002906552
-0.0065387709
-0.00057275745
-0.0062875581
-0.00082922431
-0.0057925446
-0.0010570456
-0.0050773346
-0.0012459432
-0.0041629816
-0.0013728772
-0.0030856873
-0.0014622465
-0.0019085672
-0.0015065813
-0.00064838926
-0.0014796475
0.00064702294
-0.0013840012
0.0019185821
-0.0012442477
0.0030999476
-0.0010547881
0.0041664502
-0.00082795754
0.0050736621
-0.00057245715
0.005786274
-0.00029221687
0.006280205
0.0065322813
0.00072120778
0.0058115591
0.0014159865
0.0055886083
0.0020564594
0.0051508616
0.0026195367
0.0045156761
0.0030805453
0.0037052789
0.0034205755
0.0027529705
0.0036351154
0.0016981281
0.0037059724
0.0005707241
0.0036295385
-0.00057464864
0.003413048
-0.0016969855
0.0030710675
-0.0027507414
0.0026117987
-0.0037025605
0.0020527615
-0.0045134432
0.0014152055
-0.0051511292
0.00072190471
-0.0055916823
5.4573014e-07
-0.0058164753
-0.00072121805
-0.0058170071
-0.0014156765
-0.0055930996
-0.0020550469
-0.0051531743
-0.0026167581
-0.0045156235
-0.0030768792
-0.0037028604
-0.0034145847
-0.0027479818
-0.0036289323
-0.0016942196
-0.0037067998
-0.00057052173
-0.0036358792
0.00057610233
-0.0034190335
0.0017017365
-0.0030748706
0.0027557847
-0.0026137891
0.0037053687
-0.0020534928
0.0045133657
-0.001415478
0.0051482592
-0.00072211693
0.005586844
0.0058108863
0.00090306577
0.0049082207
0.0017718644
0.0047198097
0.002572716
0.00435001
0.0032752165
0.0038131755
0.0038512137
0.0031292817
0.0042786944
0.0023254897
0.0045435595
0.0014332631
0.0046309708
0.00048331282
0.0045393087
-0.00048298659
0.0042732999
-0.0014309768
0.0038456566
-0.0023230981
0.0032707684
-0.0031276723
0.0025702413
-0.0038129161
0.0017709729
-0.0043518608
0.00090305914
-0.0047237686
1.5990147e-07
-0.004913576
-0.00090297987
-0.0049138673
-0.0017715662
-0.0047245133
-0.0025718889
-0.0043528515
-0.0032737414
-0.0038137711
-0.0038490636
-0.0031275381
-0.0042754592
-0.0023215863
-0.0045406961
-0.0014289827
-0.0046314637
-0.00047975414
-0.0045423935
0.00048703216
-0.0042763783
0.0014357213
-0.0038476872
0.0023270936
-0.0032718665
0.003129548
-0.0025707536
0.0038122528
-0.0017712617
0.0043487673
-0.00090330112
0.0047188834
0.0049078578
0.00089232372
0.0040159079
0.0017504072
0.0038617262
0.0025412538
0.0035591634
0.0032345475
0.0031198819
0.0038032356
0.0025605936
0.0042255961
0.0019031292
0.0044860701
0.0011727891
0.004572882
0.00039650086
0.0044839794
-0.00039408395
0.0042229071
-0.0011699044
0.0038005969
-0.0019007879
0.0032324598
-0.0025595352
0.0025400512
-0.0031205075
0.0017499173
-0.003561727
0.00089218288
-0.0038660341
-6.908683e-08
-0.0040213241
-0.00089246416
-0.0040214722
-0.0017505853
-0.0038663922
-0.0025412882
-0.0035621486
-0.003234316
-0.0031207432
-0.0038026533
-0.0025592008
-0.0042245134
-0.0018997262
-0.0044851404
-0.0011683558
-0.0045731068
-0.00039178771
-0.0044850534
0.00039897872
-0.0042239026
0.0011745705
-0.0038010805
0.0019042715
-0.0032325146
0.002560982
-0.002539875
0.0031196132
-0.0017497349
0.0035586271
-0.00089212573
0.0038612743
0.0040157211
0.00077902271
0.0032370388
0.001527976
0.0031127729
0.0022181904
0.002868949
0.0028231353
0.0025149371
0.0033194351
0.0020642938
0.0036881202
0.0015344441
0.0039152104
0.00094569898
0.0039913976
0.00032031363
0.0039144126
-0.00031709895
0.0036871698
-0.00094266158
0.0033186474
-0.0015322655
0.0028226531
-0.0020635409
0.0022180511
-0.0025159055
0.001528013
-0.0028716889
0.0007789802
-0.0031170013
-1.8344033e-07
-0.0032421604
-0.00077943161
-0.0032422241
-0.0015286829
-0.0031171409
-0.0022190227
-0.0028718088
-0.0028239102
-0.0025158557
-0.0033199744
-0.0020631366
-0.0036882722
-0.0015314284
-0.0039151773
-0.00094145079
-0.0039914964
-0.00031546858
-0.0039145306
0.0003220129
-0.0036869846
0.00094702463
-0.0033180506
0.0015353375
-0.0028217937
0.0020647251
-0.002217152
0.0025149714
-0.0015273009
0.002868776
-0.00077861222
0.0031125857
0.0032369553
0.00063483291
0.0026024229
0.0012450625
0.0025025434
0.0018074225
0.002306589
0.002300287
0.0020220726
0.0027046841
0.0016598966
0.0030051376
0.0012339905
0.0031901754
0.00076066122
0.0032525316
0.00025795741
0.003190087
-0.00025465439
0.0030051865
-0.000757761
0.0027049574
-0.0012320365
0.0023007498
-0.0016593332
0.0018079599
-0.0020231156
0.0012454759
-0.0023092049
0.00063490092
-0.0025064263
-2.3146711e-07
-0.0026070281
-0.00063541062
-0.0026070449
-0.0012461039
-0.0025064475
-0.0018087412
-0.0023091716
-0.002301656
-0.0020229409
-0.0027058685
-0.001658924
-0.0030059466
-0.0012313503
-0.0031905817
-0.00075681571
-0.0032525766
-0.00025347373
-0.0031897295
0.00025916586
-0.0030043681
0.00076166321
-0.0027037425
0.0012347119
-0.0022993388
0.0016603215
-0.001806608
0.0020222406
-0.0012444296
0.0023065977
-0.0006343423
0.0025024983
0.002602396
0.0005006779
0.0021019793
0.00098189163
0.0020213296
0.0014253657
0.0018631149
0.0018140515
0.0016333868
0.0021330113
0.0013409369
0.0023700266
0.00099697515
0.0025160256
0.00061466231
0.0025653672
0.00020861571
0.0025162606
-0.00020554773
0.0023705456
-0.00061204605
0.0021337812
-0.00099527201
0.0018149499
-0.001340502
0.0014262133
-0.001634379
0.00098247664
-0.0018654683
0.00050080143
-0.0020247511
-2.4116466e-07
-0.0021059855
-0.00050130792
-0.0021059782
-0.0009830427
-0.0020247128
-0.0014268503
-0.001865364
-0.0018156313
-0.0016341599
-0.0021344352
-0.0013401201
-0.0023710798
-0.00099470569
-0.0025165887
-0.00061130684
-0.002565389
-0.00020467344
-0.0025157252
0.00020950208
-0.0023694917
0.00061542973
-0.002132342
0.00099756215
-0.0018133489
0.0013413283
-0.0014247119
0.0016336036
-0.000981322
0.0018632078
-0.00050017998
0.0020213563
0.0021019817
0.00039241481
0.0017097919
0.00076953727
0.0016442072
0.0011170987
0.0015155535
0.0014217442
0.0013287413
0.0016717735
0.0010909076
0.0018576
0.00081114864
0.0019721004
0.00050016194
0.002010871
0.0001698451
0.0019724521
-0.00016712882
0.0018582819
-0.00049787591
0.0016726989
-0.00080968903
0.00142276
-0.001090563
0.001118012
-0.001329631
0.00077014597
-0.0015176023
0.00039254508
-0.0016471502
-2.3052292e-07
-0.0017132099
-0.00039301724
-0.0017131914
-0.00077064406
-0.0016470859
-0.0011185359
-0.0015174722
-0.0014232874
-0.0013294083
-0.0016731841
-0.0010902235
-0.0018586662
-0.00080922351
-0.0019726772
-0.00049729585
-0.0020108819
-0.00016646879
-0.001971891
0.00017051122
-0.0018572175
0.00050075618
-0.0016712813
0.000811626
-0.0014212061
0.0010912531
-0.0011165661
0.0013289637
-0.0007690368
0.0015156785
-0.00039194635
0.0016442659
0.0017098079
0.00031118549
0.0013988154
0.00061022219
0.0013451705
0.00088583297
0.0012399427
0.0011274327
0.0010871416
0.0013257445
0.00089259577
0.0014731581
0.00066373506
0.0015640145
0.0004093056
0.0015948176
0.00013904193
0.0015643851
-0.0001366963
0.0014738531
-0.00040734386
0.0013266595
-0.00066249548
0.0011284125
-0.00089231596
0.00088669467
-0.0010879132
0.00061078472
-0.0012416923
0.00031130071
-0.0013476662
-2.1032106e-07
-0.0014016988
-0.00031172515
-0.0014016766
-0.0006112164
-0.0013475947
-0.00088712804
-0.0012415605
-0.0011288293
-0.0010877071
-0.0013270288
-0.00089202402
-0.0014741367
-0.00066211562
-0.0015645452
-0.00040688737
-0.0015948237
-0.00013619025
-0.0015638633
0.00013955083
-0.0014728766
0.00040976943
-0.0013253722
0.00066412168
-0.0011270107
0.00089289156
-0.00088539517
0.0010873481
-0.00060978904
0.0012400724
-0.00031076257
0.0013452394
0.0013988364
0.00025220757
0.0011467937
0.00049455769
0.0011028203
0.00071793407
0.0010165663
0.00091376141
0.00089131423
0.0010745205
0.00073183671
0.0011940371
0.0005442184
0.0012677165
0.00033562621
0.0012927183
0.00011404011
0.0012680696
-0.00011204757
0.0011946905
-0.00033396474
0.001075369
-0.000543174
0.00091465876
-0.00073160573
0.00071871426
-0.00089196869
0.00049506125
-0.0010180393
0.00025230829
-0.0011049132
-1.8654489e-07
-0.001149204
-0.00025268129
-0.0011491819
-0.00049543171
-0.0011048443
-0.00071907444
-0.0010179178
-0.00091499374
-0.00089178777
-0.0010756569
-0.00073136083
-0.0011949059
-0.0005428667
-0.0012681879
-0.00033360534
-0.0012927217
-0.00011165644
-0.0012676036
0.00011443272
-0.0011938236
0.00033598943
-0.0010742315
0.00054452955
-0.00091342397
0.00073208407
-0.00071757165
0.00089149581
-0.00049418637
0.0010166871
-0.00025183517
0.0011028882
0.0011468153
0.00021029091
0.00093666543
0.00041235942
0.00090075184
0.00059861708
0.00083030864
0.00076191633
0.00072801498
0.00089598682
0.00059776622
0.00099567591
0.0004445293
0.0010571457
0.00027415647
0.00107802
9.3165722e-05
0.0010574812
-9.1508733e-05
0.00099629328
-0.00027277681
0.00089678362
-0.00044366434
0.00076275461
-0.00059757672
0.00059934369
-0.00072855776
0.00041282994
-0.00083152555
0.00021039341
-0.00090247666
-1.628915e-07
-0.00093864769
-0.00021071718
-0.00093862758
-0.00041314641
-0.00090241503
-0.00059964454
-0.00083141968
-0.00076302752
-0.00072840479
-0.00089701264
-0.0005973757
-0.0009964609
-0.00044341844
-0.0010575714
-0.00027249487
-0.0010780223
-9.1205546e-05
-0.0010570587
9.3469135e-05
-0.00099550968
0.00027444043
-0.00089575756
0.00044477742
-0.00076164234
0.00059796885
-0.00059831515
0.00072816862
-0.00041204249
0.00083041441
-0.00020996738
0.00090081308
0.00093668534
0.0001834768
0.00075333899
0.00035977401
0.00072445462
0.00052228295
0.0006677997
0.00066476935
0.00058552858
0.00078176197
0.0004807736
0.00086876219
0.00035752908
0.0009224169
0.00022050176
0.00094064887
7.4933748e-05
0.0009227346
-7.3594461e-05
0.00086934565
-0.00021938787
0.00078251315
-0.00035683183
0.00066555734
-0.00048062091
0.00052296377
-0.0005859642
0.00036021356
-0.00066877533
0.00018357271
-0.00072583582
-1.5043804e-07
-0.00075492454
-0.0001838704
-0.00075490762
-0.0003605009
-0.00072578453
-0.000523232
-0.00066868857
-0.00066579562
-0.00058584116
-0.00078270902
-0.0004804623
-0.00086948632
-0.00035664114
-0.00092280898
-0.00021917222
-0.00094064961
-7.3364909e-05
-0.00092234474
7.5164261e-05
-0.00086862288
0.00022071857
-0.00078156649
0.00035772104
-0.00066453083
0.00048093319
-0.00052201431
0.0005856521
-0.00035948643
0.00066788653
-0.00018317914
0.00072450579
0.00075335584
0.00016956254
0.00058387508
0.00033253287
0.00056148429
0.00048276448
0.0005175681
0.00061449606
0.000453797
0.00072266984
0.00037259983
0.00080312505
0.00027707387
0.00085275749
0.00017086931
0.00086963966
5.8051584e-05
0.00085310233
-5.7057131e-05
0.00080375941
-0.00017004495
0.00072349069
-0.00027656311
0.00061536722
-0.00037249744
0.0004835376
-0.00045413458
0.00033307058
-0.00051830831
0.00016976016
-0.0005625254
-9.8780989e-08
-0.0005850656
-0.00016995547
-0.00058505094
-0.00033325867
-0.00056248133
-0.00048371255
-0.00051823469
-0.00061552196
-0.00045403175
-0.00072361729
-0.00037236697
-0.00080384994
-0.0002764085
-0.0008531501
-0.00016987205
-0.00086964106
-5.6873946e-05
-0.00085271097
5.823417e-05
-0.0008030351
0.00017104269
-0.00072254331
0.00027722925
-0.00061434114
0.00037273102
-0.00048258937
0.00045390033
-0.00033234481
0.00051764197
-0.00016936746
0.00056152845
0.00058388975
0.00017563685
0.00040838536
0.00034439891
0.00039272223
0.00049996562
0.00036200139
0.00063637061
0.000317392
0.00074837644
0.000260594
0.00083167509
0.00019377522
0.00088305415
0.00011949025
0.00090052276
4.0582978e-05
0.00088338123
-3.99156e-05
0.00083227282
-0.00011893654
0.00074914165
-0.00019343194
0.0006371691
-0.00026052489
0.00050065259
-0.00031761807
0.00034484161
-0.00036249733
0.00017573587
-0.00039341966
-1.4707669e-07
-0.00040918265
-0.00017602549
-0.00040917253
-0.00034511715
-0.00039338967
-0.00050090426
-0.00036244757
-0.00063738699
-0.00031754902
-0.00074931609
-0.00026043787
-0.0008323951
-0.00019332949
-0.00088344456
-0.0001188226
-0.00090052276
-3.979574e-05
-0.00088299207
4.0703476e-05
-0.00083155384
0.00011960446
-0.00074820264
0.00019387805
-0.000636153
0.00026068138
-0.00049971398
0.00031746131
-0.00034412329
0.00036205129
-0.00017534713
0.00039275228
0.0004083955
0.00018898067
0.00021941325
0.00037071397
0.00021098892
0.00053824413
0.00019447123
0.00068514657
0.00017048956
0.00080578178
0.00013995879
0.00089551146
0.00010404555
0.00095087645
6.4125254e-05
0.0009697226
2.1736833e-05
0.00095127946
-2.1472457e-05
0.00089625621
-6.3913296e-05
0.00080675423
-0.00010392995
0.00068619781
-0.00013996847
0.00053921293
-0.00017063319
0.0003714511
-0.00019473551
0.00018937152
-0.00021134008
-9.285301e-09
-0.00021980184
-0.00018938992
-0.00021979189
-0.00037146957
-0.00021131002
-0.00053923127
-0.00019468588
-0.00068621524
-0.00017056506
-0.00080676948
-0.00013988363
-0.0008962676
-0.00010383137
-0.00095128573
-6.3804465e-05
-0.00096972361
-2.1357868e-05
-0.00095086952
2.1849393e-05
-0.00089549931
6.4234248e-05
-0.00080576613
0.00010414487
-0.00068512915
0.00014004441
-0.00053822631
0.00017055846
-0.0003706965
0.00019452148
-0.0001889636
0.00021101938
0.00021942334
0.00021986169
0.0004310115
0.00062563108
0.00079625076
0.00093631643
0.0010404415
0.0011046159
0.0011263694
0.0011048816
0.0010409205
0.00093691203
0.00079683738
0.0006260744
0.0004311905
0.00021968917
-2.8052054e-07
-0.00022024033
-0.00043171181
-0.00062654641
-0.00079724171
-0.00093723207
-0.0010411426
-0.0011049956
-0.0011263695
-0.001104504
-0.0010402214
-0.00093599763
-0.00079584692
-0.00062515882
-0.00043048934
-0.0002193093
)
;

boundaryField
{
    leftWall
    {
        type            cyclic;
        value           nonuniform List<scalar> 
32
(
1.1370728e-07
1.1772091e-07
1.2536931e-07
1.3701066e-07
1.5250604e-07
1.7141494e-07
1.9272793e-07
2.1427285e-07
2.3200326e-07
2.3849822e-07
2.2080315e-07
1.5727191e-07
1.4614202e-08
-2.6845149e-07
-7.1785584e-07
-1.0263157e-06
1.0274835e-06
7.219413e-07
2.7262288e-07
-1.0969802e-08
-1.5359052e-07
-2.169918e-07
-2.3434924e-07
-2.274002e-07
-2.0893242e-07
-1.8593165e-07
-1.6261158e-07
-1.5035668e-07
-9.8628219e-08
-1.4713262e-07
-8.5551872e-09
-2.8119831e-07
)
;
    }
    rightWall
    {
        type            cyclic;
        value           nonuniform List<scalar> 
32
(
-1.1370728e-07
-1.1772091e-07
-1.2536931e-07
-1.3701066e-07
-1.5250604e-07
-1.7141494e-07
-1.9272793e-07
-2.1427285e-07
-2.3200326e-07
-2.3849822e-07
-2.2080315e-07
-1.5727191e-07
-1.4614202e-08
2.6845149e-07
7.1785584e-07
1.0263157e-06
-1.0274835e-06
-7.219413e-07
-2.7262288e-07
1.0969802e-08
1.5359052e-07
2.169918e-07
2.3434924e-07
2.274002e-07
2.0893242e-07
1.8593165e-07
1.6261158e-07
1.5035668e-07
9.8628219e-08
1.4713262e-07
8.5551872e-09
2.8119831e-07
)
;
    }
    lowerWall
    {
        type            calculated;
        value           uniform 0;
    }
    atmosphere
    {
        type            calculated;
        value           nonuniform List<scalar> 
32
(
-1.6723925e-07
-1.6088837e-07
-1.4835413e-07
-1.3011636e-07
-1.0687515e-07
-7.9524516e-08
-4.9103613e-08