/*--------------------------------*- C++ -*----------------------------------*\
| =========                 |                                                 |
| \\      /  F ield         | OpenFOAM: The Open Source CFD Toolbox           |
|  \\    /   O peration     | Version:  2306                                  |
|   \\  /    A nd           | Website:  www.openfoam.com                      |
|    \\/     M anipulation  |                                                 |
\*---------------------------------------------------------------------------*/
FoamFile
{
    version     2.0;
    format      ascii;
    arch        "LSB;label=32;scalar=64";
    class       volVectorField;
    location    "0.15";
    object      U_0;
}
// * * * * * * * * * * * * * * * * * * * * * * * * * * * * * * * * * * * * * //

dimensions      [0 1 -1 0 0 0 0];

internalField   nonuniform List<vector> 
6400
(
(6.769206e-05 6.0570787e-05 5.2410601e-21)
(6.8867895e-05 5.8790331e-05 2.1959398e-21)
(6.9984004e-05 5.6959581e-05 -4.5543889e-21)
(7.1039191e-05 5.5081088e-05 -8.6398981e-22)
(7.2032462e-05 5.3157575e-05 2.2467411e-21)
(7.2962895e-05 5.1191699e-05 -9.4495816e-22)
(7.3829625e-05 4.9186109e-05 -1.4766405e-21)
(7.4631914e-05 4.71434e-05 -1.8715012e-21)
(7.5369233e-05 4.5066407e-05 1.1146797e-21)
(7.6041076e-05 4.2957812e-05 1.3305813e-21)
(7.6647031e-05 4.0820196e-05 -7.1382124e-22)
(7.718684e-05 3.865638e-05 1.0384312e-22)
(7.7660243e-05 3.6468956e-05 -2.638786e-21)
(7.8067187e-05 3.4260467e-05 -9.2466715e-22)
(7.8407689e-05 3.2033631e-05 1.0102578e-21)
(7.8681787e-05 2.9790991e-05 -1.2281451e-21)
(7.8889627e-05 2.7535088e-05 -7.0210237e-22)
(7.9031529e-05 2.5268485e-05 -1.2804836e-21)
(7.910778e-05 2.2993625e-05 9.9548998e-22)
(7.9118718e-05 2.071314e-05 -2.1105166e-22)
(7.9064857e-05 1.8429357e-05 -7.8497235e-22)
(7.8946845e-05 1.6144421e-05 -6.4619334e-22)
(7.8765322e-05 1.3860805e-05 -7.1838571e-22)
(7.8520924e-05 1.1580834e-05 -1.8607785e-23)
(7.8214392e-05 9.30665e-06 -5.652377e-22)
(7.7846536e-05 7.0405194e-06 -1.1322359e-21)
(7.7418178e-05 4.7845167e-06 -9.3841822e-22)
(7.6930186e-05 2.5406318e-06 5.2687319e-23)
(7.6383617e-05 3.1113232e-07 1.0593452e-21)
(7.5779447e-05 -1.9022583e-06 -1.6263177e-21)
(7.5118712e-05 -4.0975216e-06 -1.6203974e-21)
(7.4402501e-05 -6.2727366e-06 3.8704916e-22)
(7.3631975e-05 -8.4263111e-06 2.5450511e-21)
(7.2808307e-05 -1.0556357e-05 -1.1615149e-22)
(7.1932641e-05 -1.2661265e-05 -2.3153642e-21)
(7.1006187e-05 -1.4739251e-05 -1.3056459e-21)
(7.0030252e-05 -1.6788822e-05 9.6160815e-22)
(6.9006128e-05 -1.8808579e-05 1.57364e-21)
(6.7935084e-05 -2.0796994e-05 -2.2794587e-22)
(6.6818443e-05 -2.2752467e-05 -3.2350989e-21)
(6.5657478e-05 -2.4673935e-05 -6.3234481e-22)
(6.4453661e-05 -2.6559962e-05 1.5155015e-21)
(6.3208359e-05 -2.8409341e-05 9.5752255e-22)
(6.1922938e-05 -3.0220751e-05 -3.4596952e-22)
(6.0598763e-05 -3.199324e-05 -1.9949443e-21)
(5.9237191e-05 -3.3725633e-05 -1.6282059e-21)
(5.7839789e-05 -3.5416937e-05 6.8228288e-22)
(5.6407981e-05 -3.70662e-05 1.7976436e-21)
(5.4943149e-05 -3.8672465e-05 -1.3249291e-22)
(5.3446644e-05 -4.0234739e-05 -6.2481192e-22)
(5.1919951e-05 -4.1752324e-05 -1.1869647e-21)
(5.0364594e-05 -4.3224435e-05 -2.30703e-23)
(4.8781976e-05 -4.4650251e-05 2.0835205e-21)
(4.7173519e-05 -4.6029173e-05 -5.0909034e-23)
(4.5540619e-05 -4.7360573e-05 -1.8472345e-21)
(4.3884824e-05 -4.8643765e-05 -9.3502795e-22)
(4.2207556e-05 -4.987827e-05 4.5583956e-22)
(4.0510094e-05 -5.1063522e-05 1.9469022e-21)
(3.8793949e-05 -5.2199097e-05 -8.4293947e-22)
(3.706063e-05 -5.3284517e-05 -2.3698527e-21)
(3.5311486e-05 -5.4319455e-05 -1.0134235e-21)
(3.3547901e-05 -5.530363e-05 1.7727232e-22)
(3.1771323e-05 -5.6236526e-05 2.3469486e-21)
(2.9983084e-05 -5.7118044e-05 3.9564408e-22)
(2.8184553e-05 -5.7947866e-05 -1.826975e-21)
(2.6377233e-05 -5.8725873e-05 -1.1360469e-21)
(2.4562446e-05 -5.9451886e-05 -4.4172241e-22)
(2.2741488e-05 -6.0125661e-05 1.7359661e-21)
(2.0915734e-05 -6.0747326e-05 2.0279601e-22)
(1.9086532e-05 -6.1316699e-05 -1.8261273e-21)
(1.7255139e-05 -6.183378e-05 -1.8530867e-22)
(1.5422889e-05 -6.2298479e-05 6.3365934e-23)
(1.3591179e-05 -6.2711045e-05 1.2538565e-21)
(1.1761323e-05 -6.3071403e-05 -7.4961087e-23)
(9.9345451e-06 -6.3379834e-05 -1.4363621e-21)
(8.1121314e-06 -6.3636274e-05 -1.2467652e-22)
(6.2953741e-06 -6.3841094e-05 3.3808389e-22)
(4.4849695e-06 -6.399513e-05 5.6177971e-22)
(2.6809511e-06 -6.4100214e-05 -8.6617727e-22)
(8.8807879e-07 -6.4159671e-05 -1.371297e-21)
(6.5963725e-05 5.8562124e-05 -2.3075731e-21)
(6.7088972e-05 5.6835481e-05 -1.2773322e-22)
(6.8157077e-05 5.506065e-05 3.1016421e-22)
(6.9166803e-05 5.3239911e-05 -4.024735e-21)
(7.0117187e-05 5.1375904e-05 -9.7799511e-22)
(7.1007357e-05 4.9471151e-05 -1.0923741e-21)
(7.1836472e-05 4.7528203e-05 -1.8873673e-21)
(7.2603822e-05 4.5549554e-05 2.8733507e-21)
(7.3308778e-05 4.3537856e-05 -1.7347435e-21)
(7.3950858e-05 4.1495613e-05 2.1647067e-22)
(7.4529684e-05 3.942543e-05 7.9178069e-22)
(7.5044913e-05 3.732996e-05 7.2511179e-22)
(7.549636e-05 3.52116e-05 6.7173607e-22)
(7.5883962e-05 3.3072889e-05 -3.0577857e-21)
(7.6207626e-05 3.0916373e-05 4.5144208e-22)
(7.6467429e-05 2.8744542e-05 -4.5094052e-22)
(7.6663488e-05 2.6559827e-05 3.198341e-22)
(7.6795984e-05 2.4364665e-05 1.890281e-21)
(7.6865254e-05 2.2161492e-05 -2.791609e-21)
(7.6871639e-05 1.995271e-05 -1.087948e-23)
(7.6815705e-05 1.774048e-05 2.5285522e-22)
(7.6697902e-05 1.5527079e-05 -7.0809356e-22)
(7.6518746e-05 1.3314791e-05 1.7838899e-21)
(7.6278942e-05 1.1105824e-05 -1.600762e-21)
(7.5979159e-05 8.9023243e-06 2.6379281e-22)
(7.5620164e-05 6.706449e-06 -1.8142203e-22)
(7.5202711e-05 4.5203183e-06 5.9089131e-22)
(7.4727669e-05 2.3457248e-06 1.4952081e-21)
(7.419598e-05 1.8475812e-07 -1.1695396e-21)
(7.3608569e-05 -1.9606715e-06 9.7097985e-22)
(7.2966489e-05 -4.0888017e-06 2.2098853e-21)
(7.2270782e-05 -6.1976944e-06 7.9695095e-22)
(7.1522437e-05 -8.2857983e-06 -2.2348478e-22)
(7.0722594e-05 -1.0351233e-05 -2.4260047e-21)
(6.9872465e-05 -1.2392573e-05 1.4513712e-21)
(6.897315e-05 -1.4407912e-05 2.0933071e-21)
(6.8025864e-05 -1.6396019e-05 4.3622191e-22)
(6.7031837e-05 -1.8355265e-05 -5.2776692e-22)
(6.5992218e-05 -2.028435e-05 -1.0089419e-21)
(6.490844e-05 -2.2181598e-05 3.2847929e-22)
(6.3781788e-05 -2.4046065e-05 6.2591865e-22)
(6.2613396e-05 -2.5876324e-05 1.0968286e-21)
(6.1404657e-05 -2.767124e-05 1.6505495e-22)
(6.0157021e-05 -2.942947e-05 -6.9653032e-22)
(5.8871738e-05 -3.114993e-05 5.7416235e-22)
(5.7550155e-05 -3.2831737e-05 1.8383109e-21)
(5.6193702e-05 -3.4473834e-05 2.539097e-21)
(5.480376e-05 -3.6075221e-05 1.9658675e-22)
(5.3381643e-05 -3.7634967e-05 -1.2738103e-21)
(5.1928724e-05 -3.9152077e-05 1.9199049e-21)
(5.0446476e-05 -4.0626004e-05 1.6410056e-21)
(4.8936289e-05 -4.2055878e-05 6.8360669e-22)
(4.7399556e-05 -4.344089e-05 8.5059974e-22)
(4.5837682e-05 -4.4780415e-05 1.3337436e-22)
(4.4251994e-05 -4.607385e-05 2.098889e-22)
(4.264388e-05 -4.7320618e-05 9.1746884e-22)
(4.1014766e-05 -4.8520086e-05 1.0988799e-21)
(3.9366072e-05 -4.9671811e-05 1.3724375e-21)
(3.769917e-05 -5.0775376e-05 -2.1382201e-22)
(3.6015384e-05 -5.1830268e-05 6.577167e-23)
(3.4316138e-05 -5.2836087e-05 8.5163211e-22)
(3.260285e-05 -5.3792617e-05 3.2530852e-22)
(3.0876838e-05 -5.4699481e-05 8.8166407e-22)
(2.9139379e-05 -5.5556295e-05 1.0256459e-21)
(2.7391909e-05 -5.6363007e-05 9.9160074e-22)
(2.5635778e-05 -5.7119372e-05 6.4380029e-22)
(2.3872282e-05 -5.7825161e-05 1.8400454e-22)
(2.2102712e-05 -5.8480247e-05 5.5830202e-22)
(2.0328452e-05 -5.9084682e-05 1.1608959e-22)
(1.8550804e-05 -5.9638234e-05 5.5583245e-23)
(1.6770971e-05 -6.0140931e-05 1.0956287e-21)
(1.4990291e-05 -6.0592834e-05 1.0871147e-21)
(1.3210115e-05 -6.0994013e-05 1.2619728e-21)
(1.1431663e-05 -6.1344504e-05 7.6290325e-22)
(9.6561295e-06 -6.1644417e-05 3.5132404e-22)
(7.8848176e-06 -6.1893746e-05 1.1383733e-23)
(6.1189865e-06 -6.2092946e-05 8.1972986e-22)
(4.359336e-06 -6.2242718e-05 9.261201e-22)
(2.6058768e-06 -6.2344941e-05 -8.809086e-23)
(8.632235e-07 -6.2402752e-05 -7.5657066e-22)
(6.428721e-05 5.662533e-05 2.4205573e-21)
(6.5363917e-05 5.4950442e-05 3.2499227e-21)
(6.6385827e-05 5.3229287e-05 3.7807849e-21)
(6.7351887e-05 5.146409e-05 4.6985411e-21)
(6.8261085e-05 4.9657319e-05 3.8420195e-21)
(6.9112509e-05 4.7811325e-05 6.0728756e-22)
(6.9905402e-05 4.5928577e-05 -1.2933748e-22)
(7.0639051e-05 4.4011551e-05 3.6177718e-21)
(7.1312847e-05 4.2062671e-05 2.7041095e-21)
(7.192625e-05 4.0084329e-05 3.1390663e-21)
(7.247887e-05 3.8079065e-05 2.7764291e-21)
(7.2970451e-05 3.6049408e-05 1.3987067e-21)
(7.3400713e-05 3.3997603e-05 1.853165e-21)
(7.3769532e-05 3.1926073e-05 3.0063641e-21)
(7.4076871e-05 2.9837385e-05 4.3787802e-21)
(7.4322728e-05 2.7733805e-05 1.0086286e-21)
(7.4507297e-05 2.561772e-05 -2.3894426e-22)
(7.4630721e-05 2.349147e-05 1.6981145e-21)
(7.469319e-05 2.1357413e-05 1.4641746e-21)
(7.4695162e-05 1.9217704e-05 3.6481188e-21)
(7.4637018e-05 1.7074628e-05 8.3787843e-23)
(7.4519192e-05 1.493034e-05 -8.3661663e-22)
(7.4342226e-05 1.2786925e-05 3.5879265e-22)
(7.4106667e-05 1.0646609e-05 1.0682258e-21)
(7.3813291e-05 8.5114694e-06 3.1203756e-21)
(7.3462684e-05 6.3836027e-06 2.0179524e-22)
(7.3055531e-05 4.2650002e-06 -7.8215345e-22)
(7.2592839e-05 2.1573718e-06 1.8701174e-22)
(7.207545e-05 6.2735506e-08 -6.265605e-23)
(7.1504211e-05 -2.0169672e-06 8.2279847e-22)
(7.0879997e-05 -4.0800738e-06 -1.6188279e-21)
(7.0203859e-05 -6.1247554e-06 -7.546629e-22)
(6.9476897e-05 -8.1494064e-06 5.4088988e-22)
(6.8700111e-05 -1.0152275e-05 9.4722589e-22)
(6.7874545e-05 -1.2131998e-05 1.6379415e-21)
(6.7001278e-05 -1.4086606e-05 -8.9947262e-22)
(6.6081549e-05 -1.6015067e-05 -1.4650263e-21)
(6.5116502e-05 -1.791561e-05 3.8816971e-22)
(6.4107311e-05 -1.97871e-05 -1.4781474e-23)
(6.3055241e-05 -2.1628002e-05 1.0886098e-21)
(6.1961526e-05 -2.343714e-05 -6.2201998e-22)
(6.0827414e-05 -2.5213226e-05 -1.0926919e-21)
(5.9654147e-05 -2.6955178e-05 -3.9807427e-23)
(5.8443002e-05 -2.8661757e-05 6.3372426e-22)
(5.7195299e-05 -3.0331744e-05 7.7162472e-22)
(5.5912367e-05 -3.1964399e-05 -6.061555e-22)
(5.4595524e-05 -3.3558677e-05 -5.3176727e-22)
(5.3246097e-05 -3.5113447e-05 2.3975618e-23)
(5.1865371e-05 -3.662798e-05 -4.5931748e-22)
(5.0454726e-05 -3.8101226e-05 8.7546316e-22)
(4.9015526e-05 -3.9532643e-05 -3.3855479e-23)
(4.7549118e-05 -4.0921435e-05 -1.3721041e-21)
(4.6056817e-05 -4.2266746e-05 -4.0352597e-22)
(4.453997e-05 -4.356794e-05 1.6531361e-22)
(4.2999956e-05 -4.4824381e-05 5.5502637e-22)
(4.1438087e-05 -4.6035644e-05 -2.7754115e-22)
(3.9855769e-05 -4.7201025e-05 -1.1120439e-21)
(3.8254364e-05 -4.8320177e-05 -4.0065286e-22)
(3.6635176e-05 -4.9392515e-05 -3.3141827e-22)
(3.4999543e-05 -5.0417572e-05 3.1613892e-22)
(3.3348789e-05 -5.1395086e-05 -1.5145282e-22)
(3.1684276e-05 -5.2324738e-05 -2.0827361e-21)
(3.0007342e-05 -5.3206139e-05 -3.0425137e-22)
(2.8319266e-05 -5.4038917e-05 -8.8338364e-23)
(2.662136e-05 -5.4823067e-05 4.6518068e-22)
(2.4914919e-05 -5.5558339e-05 1.1036702e-22)
(2.3201282e-05 -5.6244413e-05 -1.7113002e-21)
(2.1481728e-05 -5.6881278e-05 -4.2951445e-22)
(1.9757515e-05 -5.746891e-05 -4.7179101e-22)
(1.8029961e-05 -5.8007113e-05 1.6773359e-22)
(1.6300309e-05 -5.8495812e-05 3.8205327e-22)
(1.4569791e-05 -5.8935201e-05 -4.4832111e-22)
(1.283967e-05 -5.9325316e-05 -3.5336991e-22)
(1.1111153e-05 -5.9666078e-05 -2.3457112e-22)
(9.3854789e-06 -5.9957679e-05 1.3777888e-22)
(7.6638528e-06 -6.0200075e-05 -2.5686607e-22)
(5.9475018e-06 -6.0393837e-05 -8.2608116e-22)
(4.2371864e-06 -6.0539453e-05 -4.0439609e-22)
(2.5328738e-06 -6.0638865e-05 -8.3032152e-22)
(8.3903739e-07 -6.0695018e-05 -8.6491068e-22)
(6.2660367e-05 5.4757717e-05 -4.1826255e-21)
(6.3690511e-05 5.313266e-05 -6.1002656e-22)
(6.4668156e-05 5.1463071e-05 5.1778344e-22)
(6.5592253e-05 4.975129e-05 -6.3762068e-21)
(6.6461834e-05 4.7999518e-05 -7.5727003e-21)
(6.7276072e-05 4.6210035e-05 -5.5330869e-21)
(6.8034145e-05 4.4385259e-05 -5.7314453e-22)
(6.8735291e-05 4.2527497e-05 8.859214e-23)
(6.9379019e-05 4.063902e-05 -4.7745456e-21)
(6.9964794e-05 3.8722226e-05 -5.2412599e-21)
(7.0492184e-05 3.6779483e-05 -2.4365672e-21)
(7.0960881e-05 3.4813204e-05 1.5997407e-22)
(7.1370655e-05 3.2825512e-05 -8.2417174e-22)
(7.1721372e-05 3.0818779e-05 -3.1276275e-21)
(7.2012934e-05 2.8795428e-05 -2.9832592e-21)
(7.2245378e-05 2.6757674e-05 -2.0726582e-21)
(7.2418758e-05 2.4707796e-05 1.807868e-22)
(7.2533246e-05 2.2647967e-05 -6.3833486e-22)
(7.2589129e-05 2.0580564e-05 -2.9469206e-21)
(7.2586649e-05 1.8507556e-05 -1.8243785e-21)
(7.2526215e-05 1.643127e-05 -1.2933224e-21)
(7.2408285e-05 1.4353695e-05 9.005232e-22)
(7.2233271e-05 1.2276879e-05 -1.3018678e-21)
(7.2001715e-05 1.0202941e-05 -2.2960064e-21)
(7.1714232e-05 8.1338877e-06 -5.0510352e-22)
(7.1371566e-05 6.07175e-06 5.278732e-25)
(7.0974508e-05 4.0183688e-06 1.0513169e-21)
(7.0523726e-05 1.9755168e-06 -3.3373849e-22)
(7.0019952e-05 -5.4847518e-08 -2.1682495e-21)
(6.9464098e-05 -2.0710054e-06 -6.6406968e-23)
(6.8857065e-05 -4.0711227e-06 1.924247e-21)
(6.8199859e-05 -6.0536975e-06 2.3631955e-21)
(6.7493391e-05 -8.016825e-06 -2.6483067e-21)
(6.6738624e-05 -9.9591485e-06 -1.8079428e-21)
(6.5936703e-05 -1.1879042e-05 1.5442637e-21)
(6.5088643e-05 -1.377489e-05 1.8364802e-21)
(6.4195555e-05 -1.5645446e-05 4.8207433e-22)
(6.3258525e-05 -1.7489044e-05 -1.4154484e-21)
(6.227862e-05 -1.9304712e-05 -1.2147989e-21)
(6.1257136e-05 -2.1090896e-05 1.3783381e-21)
(6.0195285e-05 -2.2846354e-05 2.136596e-21)
(5.9094203e-05 -2.4569874e-05 7.7142465e-22)
(5.7955125e-05 -2.6260375e-05 -1.3911342e-21)
(5.6779275e-05 -2.7916791e-05 -7.4650978e-22)
(5.5567927e-05 -2.95378e-05 1.5707597e-21)
(5.4322385e-05 -3.1122685e-05 1.7146107e-21)
(5.3043884e-05 -3.2670429e-05 7.6571746e-22)
(5.1733662e-05 -3.4179942e-05 -1.09878e-21)
(5.0392991e-05 -3.5650486e-05 -8.7035988e-22)
(4.9023255e-05 -3.708116e-05 1.0512506e-21)
(4.7625731e-05 -3.8471192e-05 1.6119369e-21)
(4.6201668e-05 -3.9819975e-05 5.614557e-22)
(4.4752452e-05 -4.1126665e-05 -1.5553223e-21)
(4.3279351e-05 -4.2390543e-05 -3.0409489e-22)
(4.1783671e-05 -4.3611053e-05 2.2352097e-21)
(4.026668e-05 -4.4787741e-05 1.9618452e-21)
(3.8729737e-05 -4.5919947e-05 8.7159547e-22)
(3.7174168e-05 -4.7007309e-05 -1.0324546e-21)
(3.5601262e-05 -4.8049272e-05 -5.732799e-22)
(3.4012339e-05 -4.9045329e-05 2.1135479e-21)
(3.2408704e-05 -4.9995231e-05 2.3696695e-21)
(3.0791629e-05 -5.0898691e-05 -5.5286677e-22)
(2.9162332e-05 -5.1755245e-05 -1.5265616e-21)
(2.7522155e-05 -5.2564649e-05 5.9176443e-23)
(2.587235e-05 -5.3326821e-05 1.7925156e-21)
(2.4214241e-05 -5.404148e-05 1.5146622e-21)
(2.2549115e-05 -5.4708383e-05 -3.3436126e-22)
(2.0878132e-05 -5.5327428e-05 -7.8675378e-22)
(1.9202534e-05 -5.5898672e-05 4.1062439e-22)
(1.7523609e-05 -5.642195e-05 1.335966e-21)
(1.5842655e-05 -5.6897066e-05 1.5045019e-21)
(1.4160901e-05 -5.7324247e-05 4.9067203e-22)
(1.2479435e-05 -5.7703523e-05 -8.115864e-22)
(1.079945e-05 -5.8034764e-05 6.7421396e-22)
(9.1221862e-06 -5.8318274e-05 1.2094683e-21)
(7.4488668e-06 -5.8553936e-05 6.1752293e-22)
(5.780731e-06 -5.8742351e-05 2.2986937e-22)
(4.1183877e-06 -5.8883945e-05 -3.828226e-22)
(2.4618376e-06 -5.8980604e-05 -1.1984911e-22)
(8.1550232e-07 -5.9035171e-05 -2.0166708e-24)
(6.1081446e-05 5.295678e-05 -7.2702845e-21)
(6.2066839e-05 5.1379594e-05 -7.1450597e-21)
(6.3001933e-05 4.975962e-05 -4.8345937e-21)
(6.3885802e-05 4.8099163e-05 -3.4446197e-21)
(6.4717418e-05 4.6400304e-05 -5.6870421e-21)
(6.5495854e-05 4.4665219e-05 -6.7272784e-21)
(6.6220388e-05 4.2896233e-05 -6.1983126e-21)
(6.6890347e-05 4.1095529e-05 -1.9874788e-21)
(6.7505134e-05 3.9265235e-05 2.3734378e-21)
(6.8064248e-05 3.740768e-05 -4.4335537e-21)
(6.8567279e-05 3.5525149e-05 -6.8426468e-21)
(6.901393e-05 3.3619875e-05 -5.3881687e-21)
(6.9403968e-05 3.1693989e-05 -3.0821176e-21)
(6.9737176e-05 2.9749717e-05 4.1586939e-22)
(7.0013497e-05 2.7789326e-05 -2.9848645e-21)
(7.0232916e-05 2.5815062e-05 -3.8619481e-21)
(7.0395478e-05 2.3829045e-05 -3.3710077e-21)
(7.050127e-05 2.1833372e-05 -2.7736136e-21)
(7.0550567e-05 1.9830267e-05 1.5704223e-21)
(7.0543718e-05 1.7821677e-05 -1.7515994e-21)
(7.0480999e-05 1.5809833e-05 -2.7725126e-21)
(7.0362772e-05 1.3796709e-05 -2.4552885e-21)
(7.0189527e-05 1.1784201e-05 -2.0236196e-21)
(6.99618e-05 9.7744273e-06 2.0359605e-21)
(6.9680109e-05 7.7692628e-06 1.6884824e-22)
(6.9345087e-05 5.7705932e-06 -9.6728733e-22)
(6.8957425e-05 3.7803048e-06 -1.4520889e-21)
(6.851792e-05 1.8000923e-06 -1.957781e-21)
(6.8027282e-05 -1.6802412e-07 1.3966495e-21)
(6.7486282e-05 -2.1226716e-06 4.0091254e-22)
(6.6895831e-05 -4.061872e-06 -1.1905113e-21)
(6.6256698e-05 -5.9841523e-06 -2.1891284e-21)
(6.5569881e-05 -7.887769e-06 -5.6948018e-22)
(6.4836463e-05 -9.7714035e-06 3.3313894e-21)
(6.4057302e-05 -1.1633362e-05 1.6179081e-21)
(6.3233436e-05 -1.3472253e-05 -8.1562732e-23)
(6.2365927e-05 -1.5286684e-05 -1.1226502e-21)
(6.145589e-05 -1.7075136e-05 -5.7331376e-22)
(6.050441e-05 -1.8836614e-05 2.3451707e-21)
(5.9512531e-05 -2.0569651e-05 2.296812e-21)
(5.8481457e-05 -2.227301e-05 1.1451418e-21)
(5.7412307e-05 -2.3945491e-05 -1.8916416e-21)
(5.6306307e-05 -2.5586118e-05 -1.0336475e-21)
(5.5164627e-05 -2.7193768e-05 2.5842685e-21)
(5.3988438e-05 -2.876718e-05 2.3013442e-21)
(5.2778959e-05 -3.0305664e-05 -2.7338992e-22)
(5.1537444e-05 -3.1808225e-05 -1.0049208e-21)
(5.0265196e-05 -3.32738e-05 6.1769168e-22)
(4.8963367e-05 -3.4701585e-05 1.8293538e-21)
(4.7633231e-05 -3.6090816e-05 2.2975054e-21)
(4.6276055e-05 -3.7440594e-05 7.2664555e-22)
(4.4893063e-05 -3.8750475e-05 -6.0711958e-22)
(4.3485578e-05 -4.0019601e-05 -9.6789195e-24)
(4.2054836e-05 -4.1247154e-05 1.5596532e-21)
(4.0602079e-05 -4.2432713e-05 2.7952923e-21)
(3.9128657e-05 -4.3575763e-05 1.5552254e-21)
(3.7635825e-05 -4.4675713e-05 1.9609855e-23)
(3.6124757e-05 -4.5732101e-05 1.3972724e-22)
(3.4596765e-05 -4.674448e-05 1.0060666e-21)
(3.3053145e-05 -4.7712293e-05 2.2976929e-21)
(3.1495117e-05 -4.8635312e-05 2.2741815e-21)
(2.9924003e-05 -4.9513238e-05 2.9027438e-22)
(2.8341038e-05 -5.0345633e-05 -1.7642147e-22)
(2.6747444e-05 -5.113225e-05 5.9728107e-22)
(2.5144429e-05 -5.1872997e-05 1.7249988e-21)
(2.3533194e-05 -5.2567545e-05 1.5718867e-21)
(2.191511e-05 -5.3215794e-05 1.0769734e-22)
(2.0291359e-05 -5.3817497e-05 3.7801603e-22)
(1.8663049e-05 -5.4372774e-05 1.321187e-21)
(1.7031469e-05 -5.4881406e-05 1.6140361e-21)
(1.5397915e-05 -5.5343326e-05 1.4372498e-21)
(1.3763454e-05 -5.5758602e-05 2.7935973e-22)
(1.2129189e-05 -5.6127273e-05 -4.2770092e-22)
(1.0496393e-05 -5.6449296e-05 7.1686539e-22)
(8.8662413e-06 -5.672488e-05 2.0366546e-21)
(7.2399216e-06 -5.6954011e-05 1.6153687e-21)
(5.6185908e-06 -5.7137181e-05 2.759654e-22)
(4.0029011e-06 -5.7274875e-05 -1.9351138e-22)
(2.3928399e-06 -5.7368828e-05 -3.9716732e-22)
(7.9265277e-07 -5.7421893e-05 -6.8046078e-23)
(5.9548465e-05 5.1219985e-05 -3.1766435e-21)
(6.0491036e-05 4.9688879e-05 -1.7880054e-21)
(6.1385369e-05 4.811662e-05 -8.5572983e-22)
(6.2230506e-05 4.6505538e-05 -7.9418219e-22)
(6.3025549e-05 4.4857578e-05 -1.6420615e-22)
(6.376961e-05 4.3174889e-05 -7.3630425e-22)
(6.4461935e-05 4.1459564e-05 -1.0108522e-21)
(6.5101929e-05 3.9713772e-05 1.9916798e-21)
(6.568892e-05 3.7939569e-05 1.2497063e-21)
(6.6222401e-05 3.6139078e-05 -5.3398918e-22)
(6.6702004e-05 3.4314504e-05 -1.0319264e-22)
(6.7127409e-05 3.2468014e-05 -1.1354744e-21)
(6.749835e-05 3.0601697e-05 -6.2882923e-22)
(6.7814644e-05 2.8717625e-05 -3.6506492e-22)
(6.8076189e-05 2.6818014e-05 -9.4484034e-23)
(6.8282946e-05 2.4904914e-05 -2.9025585e-22)
(6.8434998e-05 2.2980489e-05 -1.0943931e-21)
(6.8532453e-05 2.1046763e-05 4.4976341e-22)
(6.8575476e-05 1.9105718e-05 7.2034688e-22)
(6.8564258e-05 1.7159362e-05 -1.1780883e-21)
(6.8499198e-05 1.5209724e-05 5.5486642e-22)
(6.8380679e-05 1.3258858e-05 -8.6408348e-22)
(6.8209053e-05 1.1308452e-05 3.4164207e-22)
(6.7984862e-05 9.3606879e-06 1.3216603e-22)
(6.7708585e-05 7.4172356e-06 -3.0463132e-22)
(6.7380853e-05 5.4799522e-06 8.2941628e-22)
(6.7002322e-05 3.550712e-06 -1.4460991e-21)
(6.6573623e-05 1.6311114e-06 -3.7769468e-22)
(6.6095544e-05 -2.7687663e-07 9.8816683e-22)
(6.5568768e-05 -2.1719109e-06 -1.8877464e-22)
(6.4994047e-05 -4.0521209e-06 8.7067259e-22)
(6.4372354e-05 -5.9159711e-06 -1.3505486e-21)
(6.3704593e-05 -7.7620413e-06 8.1502034e-22)
(6.299166e-05 -9.5887765e-06 -1.3613663e-23)
(6.2234495e-05 -1.1394626e-05 -9.9699704e-22)
(6.1434009e-05 -1.3178219e-05 1.1289888e-21)
(6.0591202e-05 -1.4938279e-05 -1.6846019e-22)
(5.9707196e-05 -1.6673303e-05 -2.6227675e-22)
(5.8783021e-05 -1.8382225e-05 -6.6151527e-22)
(5.7819718e-05 -2.0063686e-05 -1.3945435e-21)
(5.6818341e-05 -2.1716447e-05 1.4742929e-21)
(5.5780061e-05 -2.3339447e-05 -4.63503e-22)
(5.4706034e-05 -2.4931668e-05 -1.0402983e-21)
(5.3597366e-05 -2.6491909e-05 -5.9243716e-22)
(5.2455177e-05 -2.8019118e-05 -8.2288719e-22)
(5.1280669e-05 -2.9512518e-05 -2.3338254e-22)
(5.0075059e-05 -3.0971206e-05 -1.6578053e-21)
(4.8839482e-05 -3.2394021e-05 -2.7971873e-22)
(4.757524e-05 -3.3780343e-05 -2.7086408e-22)
(4.6283476e-05 -3.512923e-05 -1.0149033e-22)
(4.4965369e-05 -3.6439918e-05 1.7413561e-22)
(4.3622216e-05 -3.7711979e-05 -1.6899927e-21)
(4.2255189e-05 -3.8944519e-05 -1.3861212e-22)
(4.0865508e-05 -4.0136768e-05 -9.5711289e-23)
(3.9454478e-05 -4.1288372e-05 -5.6713388e-22)
(3.8023259e-05 -4.2398653e-05 4.8865656e-22)
(3.6573066e-05 -4.346714e-05 -8.8396527e-22)
(3.5105177e-05 -4.4493431e-05 -4.9391444e-22)
(3.3620802e-05 -4.5476998e-05 -1.1114897e-21)
(3.2121171e-05 -4.641728e-05 -1.3302361e-21)
(3.0607442e-05 -4.7314077e-05 1.0686427e-22)
(2.9080931e-05 -4.8167211e-05 -1.1497078e-21)
(2.7542887e-05 -4.8976091e-05 2.3627926e-23)
(2.5994466e-05 -4.9740528e-05 -3.1350615e-22)
(2.4436873e-05 -5.0460331e-05 -1.2475315e-21)
(2.28713e-05 -5.1135314e-05 -1.0108649e-22)
(2.1298953e-05 -5.1765382e-05 -1.7166619e-21)
(1.9721027e-05 -5.2350237e-05 -2.635369e-22)
(1.813869e-05 -5.2889939e-05 -4.2074628e-22)
(1.6553138e-05 -5.3384286e-05 -1.0506503e-21)
(1.4965516e-05 -5.38333e-05 2.254359e-22)
(1.3376961e-05 -5.4236945e-05 -1.2679821e-21)
(1.1788704e-05 -5.4595305e-05 -1.1341249e-21)
(1.020184e-05 -5.4908408e-05 -7.1652814e-22)
(8.6174815e-06 -5.5176247e-05 -7.3648171e-22)
(7.0368596e-06 -5.5399038e-05 1.3685416e-22)
(5.4610538e-06 -5.5577041e-05 -7.4150889e-22)
(3.8906602e-06 -5.5710933e-05 -8.7425902e-22)
(2.3257431e-06 -5.5802248e-05 -8.9093598e-22)
(7.7043122e-07 -5.585384e-05 -7.725528e-22)
(5.8059732e-05 4.9544937e-05 4.0731321e-21)
(5.8961142e-05 4.8058128e-05 -2.0352419e-21)
(5.9816396e-05 4.6531839e-05 -1.7808364e-21)
(6.0624491e-05 4.4968254e-05 -1.3068911e-21)
(6.1384444e-05 4.3369342e-05 -1.9391526e-21)
(6.209548e-05 4.1737033e-05 1.7887582e-21)
(6.275691e-05 4.0073416e-05 -3.5749666e-21)
(6.3367992e-05 3.8380513e-05 -5.4304388e-23)
(6.3928196e-05 3.6660252e-05 -4.9622741e-23)
(6.4437046e-05 3.4914773e-05 -1.2559406e-22)
(6.4894052e-05 3.3146074e-05 2.4707219e-21)
(6.5298961e-05 3.1356247e-05 -1.9082039e-21)
(6.5651525e-05 2.9547348e-05 -7.1029501e-22)
(6.5951502e-05 2.7721351e-05 -2.177058e-22)
(6.6198758e-05 2.5880344e-05 3.1166993e-24)
(6.6393276e-05 2.4026286e-05 1.2790855e-21)
(6.6535109e-05 2.2161279e-05 -1.7918942e-21)
(6.6624378e-05 2.0287262e-05 -1.1205507e-22)
(6.6661276e-05 1.8406114e-05 -6.2890059e-22)
(6.6645981e-05 1.6519886e-05 -6.6711802e-22)
(6.6578686e-05 1.4630329e-05 1.6519119e-21)
(6.6459789e-05 1.2739562e-05 -1.6451001e-21)
(6.6289679e-05 1.0849235e-05 5.7856595e-22)
(6.6068834e-05 8.9613544e-06 6.6048244e-22)
(6.5797769e-05 7.0776078e-06 -2.5159833e-22)
(6.5476938e-05 5.1996398e-06 3.2804807e-22)
(6.5107011e-05 3.3294952e-06 -1.267096e-21)
(6.4688662e-05 1.4685204e-06 2.7611752e-22)
(6.4222603e-05 -3.8132941e-07 1.411308e-21)
(6.3709492e-05 -2.2186243e-06 8.516872e-22)
(6.3150111e-05 -4.0417033e-06 1.5623706e-21)
(6.2545276e-05 -5.84912e-06 -1.2849395e-21)
(6.189578e-05 -7.6393491e-06 -2.7529328e-22)
(6.1202527e-05 -9.4109323e-06 3.552802e-23)
(6.046646e-05 -1.1162504e-05 8.9580164e-22)
(5.9688541e-05 -1.2892467e-05 1.0213418e-21)
(5.8869643e-05 -1.4599784e-05 -1.1590319e-21)
(5.8010773e-05 -1.6282998e-05 -1.4073815e-22)
(5.7112947e-05 -1.7940957e-05 9.4930595e-22)
(5.61772e-05 -1.9572418e-05 4.827587e-22)
(5.5204592e-05 -2.117609e-05 3.2473774e-22)
(5.4196174e-05 -2.2751087e-05 -1.7948722e-22)
(5.3153013e-05 -2.4296237e-05 3.2575793e-22)
(5.2076182e-05 -2.5810507e-05 8.2711927e-22)
(5.0966872e-05 -2.7292872e-05 6.6768393e-22)
(4.9826229e-05 -2.8742493e-05 9.2549263e-22)
(4.8655345e-05 -3.0158491e-05 3.8345094e-22)
(4.745536e-05 -3.1539736e-05 2.6204452e-22)
(4.6227441e-05 -3.2885781e-05 6.2807982e-22)
(4.4972785e-05 -3.4195468e-05 1.5265135e-21)
(4.369262e-05 -3.5468218e-05 2.0170194e-22)
(4.2388054e-05 -3.670346e-05 -8.0897519e-22)
(4.1060203e-05 -3.7900369e-05 8.8814094e-22)
(3.9710332e-05 -3.9058324e-05 1.3623926e-21)
(3.8339667e-05 -4.01769e-05 8.4833406e-22)
(3.6949363e-05 -4.1255328e-05 -4.2949514e-24)
(3.5540646e-05 -4.2293231e-05 3.3797755e-22)
(3.4114674e-05 -4.3290143e-05 1.4465452e-21)
(3.2672566e-05 -4.4245662e-05 7.6442149e-22)
(3.1215579e-05 -4.5159174e-05 1.7136927e-22)
(2.9744941e-05 -4.6030496e-05 1.0418141e-22)
(2.8261829e-05 -4.6859442e-05 -6.3167935e-22)
(2.6767375e-05 -4.7645383e-05 9.5744434e-22)
(2.5262823e-05 -4.8388254e-05 1.5153213e-21)
(2.3749372e-05 -4.9087692e-05 9.3014495e-22)
(2.2228102e-05 -4.9743679e-05 -5.7878805e-23)
(2.0700162e-05 -5.035594e-05 -3.1801317e-22)
(1.9166747e-05 -5.0924383e-05 1.0548107e-21)
(1.7629011e-05 -5.1448876e-05 9.4872531e-22)
(1.6088076e-05 -5.1929328e-05 4.3756998e-22)
(1.4545118e-05 -5.2365775e-05 5.4222118e-23)
(1.300133e-05 -5.2758117e-05 5.0820555e-22)
(1.1457742e-05 -5.3106419e-05 1.2778148e-21)
(9.915465e-06 -5.3410813e-05 1.1279849e-21)
(8.3756675e-06 -5.3671103e-05 4.6192309e-22)
(6.8393938e-06 -5.388773e-05 -4.6711074e-22)
(5.3077809e-06 -5.4060689e-05 4.0379553e-22)
(3.7814751e-06 -5.4190852e-05 7.6283741e-22)
(2.2604685e-06 -5.4279581e-05 -1.6360473e-22)
(7.4880297e-07 -5.4329772e-05 -7.1655387e-22)
(5.6613523e-05 4.792929e-05 2.7115669e-21)
(5.7475655e-05 4.6485087e-05 6.3749188e-21)
(5.8293455e-05 4.5003073e-05 -1.9550122e-21)
(5.9065912e-05 4.3485254e-05 2.6132255e-21)
(5.9792217e-05 4.193361e-05 8.2310349e-22)
(6.0471524e-05 4.0349829e-05 3.0787101e-21)
(6.1103151e-05 3.8735977e-05 3.0353563e-21)
(6.1686525e-05 3.7094005e-05 -1.2832763e-21)
(6.2221028e-05 3.5425727e-05 2.3388901e-21)
(6.2706151e-05 3.3733225e-05 3.2598648e-22)
(6.3141436e-05 3.2018427e-05 3.3783465e-21)
(6.3526585e-05 3.0283241e-05 4.3582803e-21)
(6.3861383e-05 2.8529688e-05 -1.1387676e-21)
(6.4145582e-05 2.6759678e-05 1.6308906e-21)
(6.4379086e-05 2.4975234e-05 -2.5618639e-22)
(6.4561855e-05 2.3178147e-05 1.7846882e-21)
(6.4693903e-05 2.1370483e-05 3.0338462e-21)
(6.4775311e-05 1.9554056e-05 -4.2071922e-22)
(6.4806164e-05 1.7730772e-05 7.4221147e-22)
(6.4786744e-05 1.5902497e-05 -3.1852188e-22)
(6.4717258e-05 1.4071071e-05 1.4955709e-21)
(6.4597959e-05 1.2238337e-05 3.0030587e-21)
(6.4429248e-05 1.0406135e-05 -2.8579136e-22)
(6.4211581e-05 8.5760534e-06 8.6814594e-22)
(6.3945407e-05 6.7500593e-06 -9.9990626e-22)
(6.363123e-05 4.9295125e-06 3.244305e-22)
(6.3269657e-05 3.1164992e-06 1.9520781e-21)
(6.2861257e-05 1.3122234e-06 2.0899583e-22)
(6.2406741e-05 -4.8136509e-07 6.4577707e-22)
(6.190673e-05 -2.2627662e-06 -2.3014271e-21)
(6.1361989e-05 -4.0306258e-06 -2.0973416e-21)
(6.0773348e-05 -5.7833439e-06 2.0753574e-21)
(6.0141541e-05 -7.5195163e-06 1.9796976e-21)
(5.9467413e-05 -9.2376937e-06 1.1435351e-21)
(5.8751759e-05 -1.0936605e-05 -2.0030756e-21)
(5.7995488e-05 -1.2614638e-05 -2.0427561e-21)
(5.7199572e-05 -1.4270837e-05 9.0785796e-22)
(5.6364937e-05 -1.5903784e-05 2.6614985e-21)
(5.5492572e-05 -1.7512305e-05 1.335808e-21)
(5.4583403e-05 -1.9095224e-05 -2.144525e-21)
(5.3638505e-05 -2.0651357e-05 -2.0534421e-21)
(5.2658919e-05 -2.2179724e-05 1.9662078e-21)
(5.1645622e-05 -2.3679197e-05 2.8090293e-21)
(5.0599711e-05 -2.5148852e-05 1.0403625e-21)
(4.9522251e-05 -2.6587641e-05 -2.0700117e-21)
(4.8414358e-05 -2.7994774e-05 -1.0304382e-21)
(4.7277083e-05 -2.9369314e-05 1.905844e-21)
(4.6111573e-05 -3.071025e-05 2.339327e-21)
(4.4918921e-05 -3.2016985e-05 2.2582553e-22)
(4.3700211e-05 -3.3288648e-05 -1.4789258e-21)
(4.2456702e-05 -3.4524514e-05 -1.2928232e-21)
(4.1189515e-05 -3.5723915e-05 2.1776674e-22)
(3.9899706e-05 -3.6886249e-05 1.9535374e-21)
(3.8588487e-05 -3.8010872e-05 6.1285813e-22)
(3.725703e-05 -3.9097234e-05 -1.4362279e-21)
(3.5906391e-05 -4.0144697e-05 -9.8931926e-22)
(3.4537763e-05 -4.115286e-05 4.9591086e-22)
(3.3152368e-05 -4.2121229e-05 2.4124484e-21)
(3.1751326e-05 -4.3049436e-05 4.8365044e-22)
(3.0335826e-05 -4.3936897e-05 -1.213029e-21)
(2.8906977e-05 -4.4783451e-05 -6.8480585e-22)
(2.7465914e-05 -4.55888e-05 -4.2848247e-22)
(2.6013844e-05 -4.6352425e-05 1.9154045e-21)
(2.4551915e-05 -4.7074265e-05 3.3684328e-22)
(2.3081241e-05 -4.775393e-05 -9.8299184e-22)
(2.160296e-05 -4.8391417e-05 -2.7234805e-22)
(2.0118204e-05 -4.8986286e-05 -1.0815222e-22)
(1.8628017e-05 -4.9538725e-05 1.8326846e-21)
(1.7133608e-05 -5.0048403e-05 1.8849312e-22)
(1.5636144e-05 -5.0515397e-05 -9.6265931e-22)
(1.4136691e-05 -5.0939573e-05 -7.9819623e-23)
(1.263631e-05 -5.1320886e-05 5.0844603e-22)
(1.1136109e-05 -5.1659396e-05 1.8035533e-21)
(9.6371601e-06 -5.1955205e-05 6.7214162e-22)
(8.1405616e-06 -5.2208268e-05 -4.9131616e-22)
(6.6474377e-06 -5.2418837e-05 -3.1929834e-22)
(5.1588477e-06 -5.2586933e-05 1.256208e-22)
(3.6753861e-06 -5.2713451e-05 1.2446774e-21)
(2.1970705e-06 -5.2799669e-05 -3.7147947e-22)
(7.2781754e-07 -5.2848447e-05 -1.1749273e-21)
(5.5208495e-05 4.6370825e-05 -2.4508629e-21)
(5.6032814e-05 4.4967607e-05 7.7730862e-21)
(5.6814659e-05 4.3528271e-05 1.4193801e-22)
(5.7552971e-05 4.2054605e-05 -4.592369e-21)
(5.8246964e-05 4.0548396e-05 3.3686955e-22)
(5.8895903e-05 3.901143e-05 1.2385374e-21)
(5.9499004e-05 3.7445541e-05 6.4990587e-21)
(6.0055681e-05 3.5852647e-05 3.1794324e-22)
(6.0565369e-05 3.4234506e-05 -4.3051821e-21)