/*--------------------------------*- C++ -*----------------------------------*\
| =========                 |                                                 |
| \\      /  F ield         | OpenFOAM: The Open Source CFD Toolbox           |
|  \\    /   O peration     | Version:  2106                                  |
|   \\  /    A nd           | Website:  www.openfoam.com                      |
|    \\/     M anipulation  |                                                 |
\*---------------------------------------------------------------------------*/
FoamFile
{
    version     2.0;
    format      ascii;
    arch        "LSB;label=32;scalar=64";
    class       surfaceScalarField;
    location    "0.175";
    object      phi_0;
}
// * * * * * * * * * * * * * * * * * * * * * * * * * * * * * * * * * * * * * //

dimensions      [0 3 -1 0 0 0 0];

oriented        oriented;

internalField   nonuniform List<scalar> 
65152
(
1.9915731e-08
-1.9915731e-08
5.6180011e-08
-3.626428e-08
9.8099258e-08
-4.1919247e-08
1.4247957e-07
-4.4380311e-08
1.8763353e-07
-4.5153963e-08
2.3301621e-07
-4.5382676e-08
2.7847767e-07
-4.5461461e-08
3.2396582e-07
-4.5488152e-08
3.6956066e-07
-4.559484e-08
4.1525332e-07
-4.5692657e-08
4.6101588e-07
-4.5762558e-08
5.0682366e-07
-4.5807788e-08
5.5266239e-07
-4.5838729e-08
5.9852433e-07
-4.5861934e-08
6.4440058e-07
-4.587625e-08
6.9030655e-07
-4.5905974e-08
7.3627749e-07
-4.5970934e-08
7.8227266e-07
-4.5995176e-08
8.2839151e-07
-4.6118848e-08
8.7451317e-07
-4.6121663e-08
9.2077269e-07
-4.6259522e-08
9.6726247e-07
-4.648978e-08
1.0132629e-06
-4.6000457e-08
1.0609414e-06
-4.767843e-08
1.1057847e-06
-4.4843351e-08
1.1553015e-06
-4.9516808e-08
1.1995974e-06
-4.4295873e-08
1.2486828e-06
-4.9085387e-08
1.2961499e-06
-4.7467163e-08
1.3417776e-06
-4.5627642e-08
1.392042e-06
-5.0264448e-08
1.4390817e-06
-4.7039622e-08
1.4862786e-06
-4.719691e-08
1.5363332e-06
-5.0054618e-08
1.5847032e-06
-4.8370021e-08
1.6326819e-06
-4.7978668e-08
1.6826098e-06
-4.9927976e-08
1.7318307e-06
-4.9220877e-08
1.7813482e-06
-4.95175e-08
1.8315256e-06
-5.017741e-08
1.880561e-06
-4.9035322e-08
1.9310063e-06
-5.044536e-08
1.9823958e-06
-5.1389475e-08
2.032402e-06
-5.0006239e-08
2.0822221e-06
-4.9820101e-08
2.1334497e-06
-5.1227587e-08
2.1847866e-06
-5.1336838e-08
2.2360879e-06
-5.1301335e-08
2.2872457e-06
-5.1157831e-08
2.3376338e-06
-5.038809e-08
2.3884898e-06
-5.0855971e-08
2.4409364e-06
-5.2446571e-08
2.4927005e-06
-5.1764109e-08
2.5439206e-06
-5.1220161e-08
2.5943726e-06
-5.0451949e-08
2.6452551e-06
-5.0882516e-08
2.6972425e-06
-5.1987422e-08
2.7484973e-06
-5.1254764e-08
2.8000977e-06
-5.1600384e-08
2.851372e-06
-5.1274372e-08
2.9017261e-06
-5.0354053e-08
2.9515173e-06
-4.9791185e-08
3.002211e-06
-5.069377e-08
3.0536234e-06
-5.1412357e-08
3.1046503e-06
-5.1026918e-08
3.1549627e-06
-5.0312365e-08
3.2042191e-06
-4.9256383e-08
3.2542173e-06
-4.999822e-08
3.3034797e-06
-4.9262399e-08
3.3522112e-06
-4.8731567e-08
3.4026149e-06
-5.0403662e-08
3.4522507e-06
-4.96358e-08
3.5007275e-06
-4.8476833e-08
3.5499894e-06
-4.9261899e-08
3.5989344e-06
-4.8944965e-08
3.6464535e-06
-4.7519123e-08
3.6941368e-06
-4.7683266e-08
3.7421135e-06
-4.7976724e-08
3.7893346e-06
-4.7221129e-08
3.8375698e-06
-4.8235199e-08
3.8869252e-06
-4.9355346e-08
3.9340281e-06
-4.710288e-08
3.9802229e-06
-4.6194824e-08
4.0277409e-06
-4.7518005e-08
4.0738316e-06
-4.6090682e-08
4.119019e-06
-4.5187426e-08
4.1656211e-06
-4.6602064e-08
4.2116057e-06
-4.5984607e-08
4.2575659e-06
-4.5960213e-08
4.3051955e-06
-4.7629632e-08
4.3517187e-06
-4.6523135e-08
4.3959349e-06
-4.4216248e-08
4.4407157e-06
-4.4780772e-08
4.4861206e-06
-4.5404937e-08
4.5302614e-06
-4.4140781e-08
4.5744161e-06
-4.4154704e-08
4.6193145e-06
-4.4898415e-08
4.6634072e-06
-4.4092681e-08
4.707315e-06
-4.3907755e-08
4.7524256e-06
-4.5110675e-08
4.7975422e-06
-4.5116555e-08
4.8410043e-06
-4.3462068e-08
4.8839825e-06
-4.2978263e-08
4.9276309e-06
-4.3648407e-08
4.971062e-06
-4.3431064e-08
5.0133946e-06
-4.2332647e-08
5.0559415e-06
-4.2546826e-08
5.0990783e-06
-4.3136869e-08
5.1412737e-06
-4.2195377e-08
5.1829251e-06
-4.1651378e-08
5.2260389e-06
-4.3113849e-08
5.2693882e-06
-4.334926e-08
5.3110846e-06
-4.1696402e-08
5.3516433e-06
-4.0558708e-08
5.3929159e-06
-4.127263e-08
5.4344207e-06
-4.1504744e-08
5.4756091e-06
-4.1188389e-08
5.5168499e-06
-4.1240819e-08
5.5585096e-06
-4.1659754e-08
5.5994773e-06
-4.0967701e-08
5.6388373e-06
-3.9359986e-08
5.6780103e-06
-3.9172954e-08
5.7180362e-06
-4.0025961e-08
5.7580965e-06
-4.0060282e-08
5.7976278e-06
-3.9531257e-08
5.8372244e-06
-3.959662e-08
5.877278e-06
-4.0053568e-08
5.9167989e-06
-3.9520973e-08
5.9560381e-06
-3.9239188e-08
5.9960636e-06
-4.0025518e-08
6.0366244e-06
-4.0560729e-08
6.0767599e-06
-4.0135524e-08
6.1156536e-06
-3.889366e-08
6.153223e-06
-3.7569475e-08
6.1900724e-06
-3.6849371e-08
6.227222e-06
-3.714959e-08
6.2649298e-06
-3.7707757e-08
6.3032183e-06
-3.8288531e-08
6.342335e-06
-3.9116743e-08
6.3819511e-06
-3.9616073e-08
6.4211068e-06
-3.9155663e-08
6.4593684e-06
-3.8261656e-08
6.4970367e-06
-3.7668268e-08
6.5346184e-06
-3.7581677e-08
6.5717427e-06
-3.7124325e-08
6.6079334e-06
-3.6190669e-08
6.6436328e-06
-3.5699461e-08
6.6794498e-06
-3.5817001e-08
6.7155107e-06
-3.6060846e-08
6.7519164e-06
-3.6405701e-08
6.7887497e-06
-3.6833375e-08
6.8258681e-06
-3.7118402e-08
6.8627413e-06
-3.6873179e-08
6.8992113e-06
-3.6469947e-08
6.935353e-06
-3.6141772e-08
6.9713025e-06
-3.59495e-08
7.0069158e-06
-3.5613259e-08
7.0429186e-06
-3.6002821e-08
7.079395e-06
-3.6476379e-08
7.1155287e-06
-3.6133728e-08
7.1509257e-06
-3.5396989e-08
7.1852149e-06
-3.4289221e-08
7.2178458e-06
-3.2630865e-08
7.2483418e-06
-3.0495994e-08
7.2772409e-06
-2.8899119e-08
7.3065433e-06
-2.9302378e-08
7.3370137e-06
-3.0470435e-08
7.3697447e-06
-3.2730974e-08
7.405054e-06
-3.5309315e-08
7.4416908e-06
-3.6636822e-08
7.4779605e-06
-3.6269642e-08
7.5122045e-06
-3.4244014e-08
7.5439337e-06
-3.1729189e-08
7.5730742e-06
-2.9140516e-08
7.599876e-06
-2.6801789e-08
7.625782e-06
-2.5905988e-08
7.6509862e-06
-2.5204264e-08
7.6759585e-06
-2.4972212e-08
7.7021963e-06
-2.6237803e-08
7.7290291e-06
-2.6832851e-08
7.7556998e-06
-2.6670708e-08
7.7823375e-06
-2.6637675e-08
7.8079828e-06
-2.5645298e-08
7.8322014e-06
-2.4218595e-08
7.8548245e-06
-2.2623155e-08
7.8740239e-06
-1.9199331e-08
7.889363e-06
-1.5339094e-08
7.9017765e-06
-1.2413548e-08
7.911472e-06
-9.695472e-09
7.919489e-06
-8.017052e-09
7.9278957e-06
-8.4066692e-09
7.9380882e-06
-1.01925e-08
7.9482941e-06
-1.0205862e-08
7.9567552e-06
-8.4611061e-09
7.9635436e-06
-6.7884248e-09
7.9678865e-06
-4.3428826e-09
7.9696742e-06
-1.7877465e-09
7.9712091e-06
-1.5348404e-09
7.9776782e-06
-6.4691062e-09
7.9914936e-06
-1.3815407e-08
8.0102736e-06
-1.8780012e-08
8.0320677e-06
-2.1794074e-08
8.057476e-06
-2.5408369e-08
8.0880407e-06
-3.0564702e-08
8.1238587e-06
-3.5818001e-08
8.1632723e-06
-3.9413612e-08
8.2060408e-06
-4.2768483e-08
8.2556524e-06
-4.9611529e-08
8.3142913e-06
-5.8638948e-08
8.3825537e-06
-6.8262381e-08
8.4570025e-06
-7.4448782e-08
8.5332335e-06
-7.6231041e-08
8.6085897e-06
-7.5356205e-08
8.6816491e-06
-7.3059422e-08
8.7546043e-06
-7.2955139e-08
8.8319541e-06
-7.7349837e-08
8.914354e-06
-8.2399925e-08
8.9977422e-06
-8.3388157e-08
9.0759238e-06
-7.8181634e-08
9.1451148e-06
-6.9190943e-08
9.2059935e-06
-6.0878749e-08
9.2628635e-06
-5.6870014e-08
9.323071e-06
-6.0207488e-08
9.3938708e-06
-7.0799735e-08
9.4772885e-06
-8.3417763e-08
9.5685725e-06
-9.1283933e-08
9.660109e-06
-9.1536554e-08
9.7446812e-06
-8.4572147e-08
9.8181711e-06
-7.3489932e-08
9.8808486e-06
-6.2677556e-08
9.9376897e-06
-5.6841027e-08
9.9953707e-06
-5.7681067e-08
1.0058681e-05
-6.3310431e-08
1.0128947e-05
-7.0265727e-08
1.0204691e-05
-7.5744136e-08
1.0283714e-05
-7.9022773e-08
1.0361838e-05
-7.8124532e-08
1.0435225e-05
-7.338656e-08
1.0511801e-05
-7.6575889e-08
1.0605425e-05
-9.3624011e-08
1.0722162e-05
-1.167375e-07
1.0846943e-05
-1.2478053e-07
1.0956259e-05
-1.093166e-07
1.1046037e-05
-8.9777631e-08
1.1124809e-05
-7.8771712e-08
1.119218e-05
-6.737094e-08
1.1240381e-05
-4.8200823e-08
1.127135e-05
-3.0969748e-08
1.1315119e-05
-4.3768847e-08
1.1370112e-05
-5.4992511e-08
1.1434994e-05
-6.4882111e-08
1.150511e-05
-7.0115817e-08
1.1516977e-05
-1.1867178e-08
1.1235783e-05
2.8119409e-07
1.010676e-05
1.1290228e-06
1.010676e-05
2.1401971e-08
-4.1317702e-08
6.3893306e-08
-7.8755616e-08
1.1291836e-07
-9.0944304e-08
1.6377931e-07
-9.5241259e-08
2.1536536e-07
-9.6740007e-08
2.671931e-07
-9.7210416e-08
3.1905794e-07
-9.7326304e-08
3.7087647e-07
-9.7306686e-08
4.2258175e-07
-9.7300119e-08
4.7406615e-07
-9.7177056e-08
5.2538459e-07
-9.7080995e-08
5.7659966e-07
-9.7022861e-08
6.2773089e-07
-9.6969954e-08
6.7881262e-07
-9.6943664e-08
7.2988612e-07
-9.6949758e-08
7.8096358e-07
-9.6983433e-08
8.3205173e-07
-9.7059081e-08
8.831949e-07
-9.7138349e-08
9.3434616e-07
-9.7270105e-08
9.8566043e-07
-9.7435938e-08
1.0368445e-06
-9.7443564e-08
1.0885574e-06
-9.8202715e-08
1.139499e-06
-9.6942067e-08
1.1922537e-06
-1.0043309e-07
1.2421631e-06
-9.4752771e-08
1.2968243e-06
-1.0417803e-07
1.3457412e-06
-9.3212787e-08
1.4004605e-06
-1.0380467e-07
1.4524262e-06
-9.943282e-08
1.5030888e-06
-9.629027e-08
1.5585818e-06
-1.0575741e-07
1.6108024e-06
-9.9260242e-08
1.6622273e-06
-9.8621795e-08
1.7171869e-06
-1.0501424e-07
1.7720997e-06
-1.0328287e-07
1.8235338e-06
-9.9412714e-08
1.877338e-06
-1.0373219e-07
1.9337022e-06
-1.0558508e-07
1.9884e-06
-1.0421529e-07
2.0409981e-06
-1.0277546e-07
2.0952812e-06
-1.0331849e-07
2.1526836e-06
-1.0784777e-07
2.2084556e-06
-1.0716149e-07
2.2623285e-06
-1.0387908e-07
2.3164681e-06
-1.0395969e-07
2.3731331e-06
-1.0789263e-07
2.4306461e-06
-1.0884981e-07
2.4872707e-06
-1.0792597e-07
2.5412286e-06
-1.0511567e-07
2.5954111e-06
-1.045706e-07
2.6532037e-06
-1.0864862e-07
2.7121313e-06
-1.1137412e-07
2.7673592e-06
-1.0699205e-07
2.8228133e-06
-1.0667425e-07
2.8779559e-06
-1.0559458e-07
2.9338069e-06
-1.0673346e-07
2.9916673e-06
-1.0984781e-07
3.0487893e-06
-1.0837677e-07
3.1049612e-06
-1.0777228e-07
3.160247e-06
-1.0656025e-07
3.2157797e-06
-1.0588673e-07
3.269794e-06
-1.0380545e-07
3.3260434e-06
-1.0694314e-07
3.3844985e-06
-1.0986753e-07
3.4405782e-06
-1.0710657e-07
3.494471e-06
-1.0420515e-07
3.5486477e-06
-1.034331e-07
3.6041726e-06
-1.055231e-07
3.6583665e-06
-1.0345634e-07
3.7128893e-06
-1.0325434e-07
3.768793e-06
-1.0630741e-07
3.8237154e-06
-1.0455814e-07
3.8775515e-06
-1.0231301e-07
3.9317826e-06
-1.0349299e-07
3.9862044e-06
-1.0336675e-07
4.0391259e-06
-1.0044064e-07
4.0910492e-06
-9.9606525e-08
4.143757e-06
-1.0068452e-07
4.1975396e-06
-1.0100373e-07
4.2523757e-06
-1.0307133e-07
4.3066709e-06
-1.0365057e-07
4.3587162e-06
-9.9148116e-08
4.410022e-06
-9.7500624e-08
4.4624114e-06
-9.9907468e-08
4.5143819e-06
-9.8061134e-08
4.5650927e-06
-9.5898199e-08
4.6153273e-06
-9.6836723e-08
4.6671861e-06
-9.7843341e-08
4.721292e-06
-1.0006618e-07
4.7744368e-06
-1.0077442e-07
4.8248049e-06
-9.6891193e-08
4.8742782e-06
-9.3689632e-08
4.9246142e-06
-9.5116717e-08
4.9753329e-06
-9.6123594e-08
5.025401e-06
-9.4208938e-08
5.0752091e-06
-9.3962762e-08
5.124415e-06
-9.4104315e-08
5.1739117e-06
-9.358943e-08
5.2245341e-06
-9.4530143e-08
5.2757084e-06
-9.6284928e-08
5.325914e-06
-9.5322173e-08
5.3747461e-06
-9.2294184e-08
5.4232586e-06
-9.149079e-08
5.4720358e-06
-9.2425593e-08
5.5210383e-06
-9.2433609e-08
5.5697802e-06
-9.1074465e-08
5.6177739e-06
-9.0540601e-08
5.6652657e-06
-9.0628667e-08
5.7127648e-06
-8.9694454e-08
5.7615991e-06
-9.0485625e-08
5.8114362e-06
-9.2950938e-08
5.8601143e-06
-9.2027358e-08
5.9067982e-06
-8.83803e-08
5.9527981e-06
-8.655869e-08
5.9994716e-06
-8.7946108e-08
6.0469666e-06
-8.8999744e-08
6.0954477e-06
-8.9669474e-08
6.1438723e-06
-8.966547e-08
6.1913391e-06
-8.9126493e-08
6.2376788e-06
-8.7307414e-08
6.2830007e-06
-8.4681852e-08
6.3284401e-06
-8.4612436e-08
6.374763e-06
-8.6348795e-08
6.421258e-06
-8.6555274e-08
6.4673835e-06
-8.5656818e-08
6.5132814e-06
-8.5494495e-08
6.5588252e-06
-8.5597312e-08
6.6036245e-06
-8.4320337e-08
6.6493914e-06
-8.5006082e-08
6.697124e-06
-8.775811e-08
6.7455632e-06
-8.8999883e-08
6.7922126e-06
-8.678496e-08
6.8363822e-06
-8.3063291e-08
6.879119e-06
-8.03063e-08
6.921189e-06
-7.8919318e-08
6.9636357e-06
-7.9596316e-08
7.0075263e-06
-8.1598292e-08
7.0526804e-06
-8.344272e-08
7.0990579e-06
-8.5494157e-08
7.1454525e-06
-8.6010681e-08
7.1908323e-06
-8.4535517e-08
7.2357041e-06
-8.3133396e-08
7.2810716e-06
-8.3035781e-08
7.3262246e-06
-8.2734714e-08
7.3705829e-06
-8.1482638e-08
7.4139824e-06
-7.9590096e-08
7.4564761e-06
-7.8193214e-08
7.4990302e-06
-7.8371096e-08
7.5424635e-06
-7.9494131e-08
7.5862174e-06
-8.0159609e-08
7.630476e-06
-8.1091982e-08
7.6751811e-06
-8.1823536e-08
7.7193842e-06
-8.1076207e-08
7.7630095e-06
-8.0095263e-08
7.8062871e-06
-7.9419416e-08
7.8494666e-06
-7.9128944e-08
7.8931124e-06
-7.9259077e-08
7.9382598e-06
-8.1150203e-08
7.9846143e-06
-8.2830938e-08
8.0309878e-06
-8.2507184e-08
8.0769867e-06
-8.1395911e-08
8.1212055e-06
-7.8508035e-08
8.1619776e-06
-7.3402964e-08
8.198906e-06
-6.7424335e-08
8.2331359e-06
-6.3129061e-08
8.2679825e-06
-6.4148975e-08
8.3059822e-06
-6.8470112e-08
8.3483592e-06
-7.5107965e-08
8.3949334e-06
-8.1883573e-08
8.4436636e-06
-8.5366997e-08
8.4916577e-06
-8.4263749e-08
8.5370205e-06
-7.9606769e-08
8.5796851e-06
-7.4393799e-08
8.6197143e-06
-6.9169778e-08
8.6567952e-06
-6.3882682e-08
8.6916683e-06
-6.0779058e-08
8.7253449e-06
-5.8880859e-08
8.7599938e-06
-5.9621148e-08
8.7969267e-06
-6.3170714e-08
8.8342956e-06
-6.4201752e-08
8.8707395e-06
-6.3114527e-08
8.9082202e-06
-6.4118386e-08
8.9495354e-06
-6.6960489e-08
8.9956161e-06
-7.0299294e-08
9.0450293e-06
-7.2036348e-08
9.0924576e-06
-6.6627647e-08
9.1320422e-06
-5.4923758e-08
9.1605039e-06
-4.087517e-08
9.1795225e-06
-2.8714122e-08
9.1942998e-06
-2.2794326e-08
9.2103867e-06
-2.4493639e-08
9.2320115e-06
-3.1817232e-08
9.2606878e-06
-3.8882139e-08
9.2976288e-06
-4.5402132e-08
9.3409718e-06
-5.0131394e-08
9.388193e-06
-5.1564105e-08
9.4379139e-06
-5.1508637e-08
9.4873204e-06
-5.0941364e-08
9.530722e-06
-4.9870759e-08
9.5638236e-06
-4.6917002e-08
9.587653e-06
-4.2609399e-08
9.6050799e-06
-3.9220942e-08
9.6165507e-06
-3.6879164e-08
9.6224309e-06
-3.6444925e-08
9.6240173e-06
-3.7404404e-08
9.623455e-06
-3.8851254e-08
9.6257124e-06
-4.5025955e-08
9.6397226e-06
-6.3621703e-08
9.6729908e-06
-9.1907138e-08
9.7211853e-06
-1.1645689e-07
9.7744072e-06
-1.2767065e-07
9.8268964e-06
-1.2872027e-07
9.8770776e-06
-1.2553737e-07
9.9257807e-06
-1.2176252e-07
9.9813771e-06
-1.2855162e-07
1.0052688e-05
-1.4866072e-07
1.0136041e-05
-1.6575338e-07
1.0218613e-05
-1.6595976e-07
1.0290409e-05
-1.4997722e-07
1.0349146e-05
-1.279283e-07
1.039676e-05
-1.0849261e-07
1.043989e-05
-9.9999897e-08
1.0491145e-05
-1.114624e-07
1.0560805e-05
-1.4045995e-07
1.0649853e-05
-1.7246605e-07
1.0750312e-05
-1.917428e-07
1.0849458e-05
-1.9068277e-07
1.0936572e-05
-1.7168594e-07
1.1007615e-05
-1.4453296e-07
1.1067545e-05
-1.2260736e-07
1.1127813e-05
-1.1710956e-07
1.1197222e-05
-1.2709009e-07
1.1277125e-05
-1.4321296e-07
1.1363315e-05
-1.5645583e-07
1.1451568e-05
-1.6399716e-07
1.1537538e-05
-1.6499259e-07
1.161343e-05
-1.5401661e-07
1.1676793e-05
-1.3674955e-07
1.1745214e-05
-1.4499656e-07
1.183897e-05
-1.8738025e-07
1.1960077e-05
-2.3784423e-07
1.2086974e-05
-2.5167795e-07
1.2193925e-05
-2.1626765e-07
1.2284286e-05
-1.8013835e-07
1.2374188e-05
-1.6867417e-07
1.2465287e-05
-1.5846929e-07
1.2508837e-05
-9.1750872e-08
1.2483113e-05
-5.2458509e-09
1.2460905e-05
-2.15609e-08
1.2475467e-05
-6.9554668e-08
1.2549591e-05
-1.3900586e-07
1.2653195e-05
-1.7372052e-07
1.2650455e-05
-9.1265173e-09
1.2208316e-05
7.233325e-07
1.0529211e-05
2.8081283e-06
2.0635971e-05
2.1431025e-08
-6.2748727e-08
6.3464739e-08
-1.2078933e-07
1.1193876e-07
-1.3941832e-07
1.6244573e-07
-1.4574823e-07
2.1362784e-07
-1.4792212e-07
2.6502225e-07
-1.4860483e-07
3.1644785e-07
-1.487519e-07
3.6785517e-07
-1.48714e-07
4.191826e-07
-1.4862755e-07
4.7051474e-07
-1.485092e-07
5.2183437e-07
-1.4840062e-07
5.7313586e-07
-1.4832435e-07
6.2444594e-07
-1.4828003e-07
6.7577601e-07
-1.4827373e-07
7.2712636e-07
-1.4830011e-07
7.7851555e-07
-1.4837262e-07
8.2991076e-07
-1.484543e-07
8.8142058e-07
-1.4864816e-07
9.3283978e-07
-1.4868931e-07
9.8460545e-07
-1.4920161e-07
1.0359846e-06
-1.4882267e-07
1.0881067e-06
-1.5032487e-07
1.1395874e-06
-1.4842275e-07
1.191786e-06
-1.5263169e-07
1.2438295e-06
-1.4679623e-07
1.2960458e-06
-1.5639442e-07
1.3481999e-06
-1.4536687e-07
1.4013411e-06
-1.5694586e-07
1.4533483e-06
-1.5144005e-07
1.5064212e-06
-1.4936312e-07
1.5599962e-06
-1.593324e-07
1.6127839e-06
-1.5204799e-07
1.6658728e-06
-1.5171071e-07
1.7200951e-06
-1.5923645e-07
1.7746159e-06
-1.5780367e-07
1.8273301e-06
-1.5212696e-07
1.8814821e-06
-1.5788417e-07
1.9377194e-06
-1.618224e-07
1.9921417e-06
-1.5863756e-07
2.0451817e-06
-1.558155e-07
2.1008025e-06
-1.5893932e-07
2.1581544e-06
-1.6519957e-07
2.2126385e-06
-1.6164562e-07
2.2672583e-06
-1.5849891e-07
2.3229417e-06
-1.5964303e-07
2.3799439e-06
-1.6489486e-07
2.4360273e-06
-1.6493318e-07
2.4931538e-06
-1.6505252e-07
2.5476606e-06
-1.5962249e-07
2.6025231e-06
-1.5943303e-07
2.6610284e-06
-1.6715397e-07
2.7195093e-06
-1.6985498e-07
2.7741611e-06
-1.6164387e-07
2.8299475e-06
-1.6246065e-07
2.885642e-06
-1.6128905e-07
2.9423163e-06
-1.6340784e-07
3.0009056e-06
-1.6843703e-07
3.0582003e-06
-1.6567147e-07
3.1125613e-06
-1.6213334e-07
3.1673839e-06
-1.6138283e-07
3.224943e-06
-1.6344579e-07
3.2800047e-06
-1.5886722e-07
3.33662e-06
-1.6355846e-07
3.3952359e-06
-1.6848336e-07
3.4504475e-06
-1.6231814e-07
3.5024532e-06
-1.5621087e-07
3.5575703e-06
-1.5855021e-07
3.615324e-06
-1.6327684e-07
3.6702908e-06
-1.584231e-07
3.7247092e-06
-1.576728e-07
3.7805936e-06
-1.6219172e-07
3.835781e-06
-1.5974563e-07
3.8883565e-06
-1.5488844e-07
3.9415015e-06
-1.5663798e-07
3.9972703e-06
-1.5913559e-07
4.0517626e-06
-1.5493294e-07
4.1042779e-06
-1.5212185e-07
4.157439e-06
-1.5384561e-07
4.2119067e-06
-1.5547135e-07
4.2665145e-06
-1.5767914e-07
4.3190842e-06
-1.562203e-07
4.3701278e-06
-1.5019176e-07
4.4216976e-06
-1.4907044e-07
4.4749541e-06
-1.5316396e-07
4.5292989e-06
-1.5240587e-07
4.5815394e-06
-1.4813868e-07
4.6307093e-06
-1.4600668e-07
4.6820505e-06
-1.491845e-07
4.7368911e-06
-1.5490676e-07
4.7898359e-06
-1.537193e-07
4.838921e-06
-1.4597628e-07
4.8876192e-06
-1.423878e-07
4.9386208e-06
-1.4611828e-07
4.9907872e-06
-1.4829003e-07
5.0423992e-06
-1.4582094e-07
5.0929377e-06
-1.4450129e-07
5.1414768e-06
-1.4264335e-07
5.1903702e-06
-1.4248287e-07
5.2412115e-06
-1.4537145e-07
5.2935281e-06
-1.4860151e-07
5.3438701e-06
-1.4566413e-07
5.3919743e-06
-1.4039848e-07
5.4401998e-06
-1.3971621e-07
5.489624e-06
-1.418498e-07
5.5388575e-06
-1.4166718e-07
5.5880129e-06
-1.4022985e-07
5.6365001e-06
-1.3902779e-07
5.6838055e-06
-1.3793403e-07
5.7304483e-06
-1.3633733e-07
5.7801367e-06
-1.4017401e-07
5.8312333e-06
-1.4404752e-07
5.8806768e-06
-1.4147085e-07
5.9277426e-06
-1.3544614e-07
5.9739925e-06
-1.3280858e-07
6.0196923e-06
-1.3364592e-07
6.0667258e-06
-1.3603323e-07
6.115552e-06
-1.3849563e-07
6.1640246e-06
-1.3813815e-07
6.2103566e-06
-1.3545849e-07
6.2557142e-06
-1.3266497e-07
6.3011063e-06
-1.3007398e-07
6.3474246e-06
-1.3093072e-07
6.3949904e-06
-1.3391463e-07
6.4438226e-06
-1.3538739e-07
6.4922722e-06
-1.3410646e-07
6.5395706e-06
-1.3279292e-07
6.5839132e-06
-1.2993985e-07
6.626729e-06
-1.2713616e-07
6.670999e-06
-1.2927607e-07
6.718096e-06
-1.3485516e-07
6.7669506e-06
-1.378545e-07
6.8149692e-06
-1.348035e-07
6.8602391e-06
-1.283332e-07
6.9034766e-06
-1.2354384e-07
6.9458897e-06
-1.2133236e-07
6.989522e-06
-1.2322869e-07
7.0353569e-06
-1.2743318e-07
7.0820428e-06
-1.3012857e-07
7.1284766e-06
-1.3192798e-07
7.1740396e-06
-1.3157368e-07
7.2179787e-06
-1.2847458e-07
7.2612434e-06
-1.2639816e-07
7.3060433e-06
-1.2783569e-07
7.3522228e-06
-1.289142e-07
7.3984155e-06
-1.2767538e-07
7.443889e-06
-1.2506356e-07
7.4878986e-06
-1.2220279e-07
7.5313544e-06
-1.2182688e-07
7.5752615e-06
-1.2340127e-07
7.6193322e-06
-1.2423034e-07
7.6643054e-06
-1.2606513e-07
7.709904e-06
-1.2742214e-07
7.7546407e-06
-1.2581289e-07
7.7983914e-06
-1.2384595e-07
7.8412602e-06
-1.2228827e-07
7.8821131e-06
-1.1998185e-07
7.9220989e-06
-1.1924481e-07
7.9632201e-06
-1.2227144e-07
8.0061753e-06
-1.2578617e-07
8.0510731e-06
-1.2740498e-07
8.0990999e-06
-1.2942266e-07
8.1485e-06
-1.2790817e-07
8.1953005e-06
-1.202035e-07
8.2375141e-06
-1.0963787e-07
8.2758238e-06
-1.0143878e-07
8.3126665e-06
-1.0099167e-07
8.3501479e-06
-1.0595152e-07
8.3894247e-06
-1.1438478e-07
8.4329318e-06
-1.2539068e-07
8.4803701e-06
-1.3280531e-07
8.5273406e-06
-1.312342e-07
8.5718194e-06
-1.2408561e-07
8.6132673e-06
-1.1584161e-07
8.6526576e-06
-1.0856013e-07
8.6917318e-06
-1.0295684e-07
8.7290101e-06
-9.8057417e-08
8.7644283e-06
-9.4299022e-08
8.8022791e-06
-9.7471991e-08
8.8423596e-06
-1.0325118e-07
8.8816002e-06
-1.0344238e-07
8.9191874e-06
-1.0070174e-07
8.9553954e-06
-1.0032637e-07
8.9916042e-06
-1.0316924e-07
9.0294106e-06
-1.0810575e-07
9.0696576e-06
-1.1228337e-07
9.1121687e-06
-1.0913868e-07
9.1548633e-06
-9.7618368e-08
9.193089e-06
-7.910089e-08
9.2272487e-06
-6.2873768e-08
9.258244e-06
-5.3789621e-08
9.2856192e-06
-5.1868895e-08
9.312183e-06
-5.8381012e-08
9.3417724e-06
-6.8471571e-08
9.3784592e-06
-8.2088962e-08
9.4214702e-06
-9.3142336e-08
9.4655545e-06
-9.5648416e-08
9.5083003e-06
-9.4254392e-08
9.5489887e-06
-9.1629847e-08
9.5837507e-06
-8.4632689e-08
9.6113846e-06
-7.4550943e-08
9.6341344e-06
-6.5359219e-08
9.6508963e-06
-5.5982859e-08
9.6626393e-06
-4.8622133e-08
9.6735263e-06
-4.733187e-08
9.6836814e-06
-4.755958e-08
9.6913033e-06
-4.6473093e-08
9.7002609e-06
-5.3983545e-08
9.7194002e-06
-8.2761028e-08
9.7569125e-06
-1.294195e-07
9.8091574e-06
-1.6870169e-07
9.8626798e-06
-1.8119313e-07
9.9095219e-06
-1.7556233e-07
9.9495916e-06
-1.6560703e-07
9.9839465e-06
-1.5611742e-07
1.0021021e-05
-1.6562644e-07
1.0072872e-05
-2.0051097e-07
1.0138342e-05
-2.3122379e-07
1.0206918e-05
-2.3453535e-07
1.0277467e-05
-2.2052663e-07
1.0357046e-05
-2.0750725e-07
1.0444842e-05
-1.9628856e-07
1.0530605e-05
-1.8576327e-07
1.0603588e-05
-1.8444533e-07
1.0660501e-05
-1.9737287e-07
1.0712538e-05
-2.2450348e-07
1.0775442e-05
-2.5464599e-07
1.0850689e-05
-2.659305e-07
1.0928925e-05
-2.4992103e-07
1.1003974e-05
-2.195824e-07
1.1082297e-05
-2.0092993e-07
1.117557e-05
-2.1038346e-07
1.1285696e-05
-2.3721581e-07
1.140092e-05
-2.5843708e-07
1.15063e-05
-2.6183572e-07
1.1598814e-05
-2.5651075e-07
1.1688641e-05
-2.5481939e-07
1.1781275e-05
-2.4665087e-07
1.186588e-05
-2.2135497e-07
1.1943748e-05
-2.2286451e-07
1.2029946e-05
-2.7357819e-07
1.2142701e-05
-3.5059913e-07
1.2243003e-05
-3.5197979e-07
1.227781e-05
-2.5107444e-07
1.2296931e-05
-1.9925957e-07
1.2356978e-05
-2.2872114e-07
1.243721e-05
-2.3870138e-07
1.238235e-05
-3.6891254e-08
1.212882e-05
2.4828453e-07
1.1691468e-05
4.1579137e-07
1.1315151e-05
3.0676216e-07
1.1234219e-05
-5.8073828e-08
1.1082149e-05
-2.1651096e-08
1.021927e-05
8.5375258e-07
8.7031063e-06
2.2394964e-06
4.9644388e-06
6.5467959e-06
2.5600409e-05
2.1640715e-08
-8.4389442e-08
6.371572e-08
-1.6286433e-07
1.122312e-07
-1.879338e-07
1.6282822e-07
-1.9634525e-07
2.1408977e-07
-1.9918367e-07
2.6554163e-07
-2.0005669e-07
3.1701836e-07
-2.0022863e-07
3.6846183e-07
-2.0015747e-07
4.1985335e-07
-2.0001907e-07
4.7121519e-07
-1.9987104e-07
5.2255282e-07
-1.9973826e-07
5.7386865e-07
-1.9964017e-07
6.2517244e-07
-1.9958382e-07
6.7647316e-07
-1.9957446e-07
7.2778027e-07
-1.9960722e-07
7.7910769e-07
-1.9970004e-07
8.304542e-07
-1.9980081e-07
8.8185767e-07
-2.0005163e-07
9.3327313e-07
-2.0010477e-07
9.848218e-07
-2.0075028e-07
1.0363373e-06
-2.0033812e-07
1.0880639e-06
-2.0205148e-07
1.1398427e-06
-2.0020156e-07
1.1915186e-06
-2.0430758e-07
1.2440408e-06
-1.993185e-07
1.295351e-06
-2.0770455e-07
1.3484814e-06
-1.9849732e-07
1.4005566e-06
-2.0902102e-07
1.4527746e-06
-2.0365812e-07
1.5064646e-06
-2.0305307e-07
1.5589659e-06
-2.1183376e-07
1.611702e-06
-2.0478406e-07
1.6658673e-06
-2.0587602e-07
1.7194698e-06
-2.1283895e-07
1.7727779e-06
-2.1111176e-07
1.8266421e-06
-2.059911e-07
1.8815632e-06
-2.1280534e-07
1.9366083e-06
-2.1686748e-07
1.989902e-06
-2.1193121e-07
2.0443614e-06
-2.1027498e-07
2.1010933e-06
-2.1567116e-07
2.1574933e-06
-2.215996e-07
2.2099524e-06
-2.1410471e-07
2.265383e-06
-2.1392956e-07
2.3233345e-06
-2.1759447e-07
2.3807851e-06
-2.2234547e-07
2.4335679e-06
-2.1771598e-07
2.4903627e-06
-2.2184737e-07
2.5464439e-06
-2.1570367e-07
2.6035083e-06
-2.164974e-07
2.6615695e-06
-2.2521515e-07
2.7174084e-06
-2.2569384e-07
2.7714938e-06
-2.1572934e-07
2.8285228e-06
-2.1948968e-07
2.8858152e-06
-2.1858141e-07
2.9427117e-06
-2.203043e-07
3.0006054e-06
-2.2633077e-07
3.0574429e-06
-2.22509e-07
3.1097242e-06
-2.1441461e-07
3.1650728e-06
-2.1673139e-07
3.2251951e-06
-2.2356811e-07
3.2806598e-06
-2.1433193e-07
3.3368828e-06
-2.1978149e-07
3.3946333e-06
-2.2623384e-07
3.4488867e-06
-2.1657159e-07
3.4994177e-06
-2.0674181e-07
3.5556842e-06
-2.1481676e-07
3.6159314e-06
-2.2352401e-07
3.6710429e-06
-2.1353459e-07
3.7236433e-06
-2.1027321e-07
3.7797617e-06
-2.1831014e-07
3.8362575e-06
-2.1624141e-07
3.8867875e-06
-2.0541846e-07
3.9380276e-06
-2.0787806e-07
3.9952366e-06
-2.1634461e-07
4.0510628e-06
-2.1075912e-07
4.1038312e-06
-2.0489023e-07
4.1577173e-06
-2.0773178e-07
4.2135001e-06
-2.1125416e-07
4.2669481e-06
-2.1112708e-07
4.31667e-06
-2.0594217e-07
4.366393e-06
-1.9991483e-07
4.4181352e-06
-2.0081261e-07
4.4722867e-06
-2.0731546e-07
4.5291358e-06
-2.0925499e-07
4.5828379e-06
-2.0184073e-07
4.6318373e-06
-1.9500608e-07
4.6825969e-06
-1.9994407e-07
4.7368983e-06
-2.0920817e-07
4.788414e-06
-2.05235e-07
4.8357148e-06
-1.9327711e-07
4.8829148e-06
-1.8958785e-07
4.9347835e-06
-1.9798694e-07
4.9889602e-06
-2.0246669e-07
5.0431829e-06
-2.0004367e-07
5.0945425e-06
-1.9586088e-07
5.1425518e-06
-1.9065264e-07
5.1902162e-06
-1.901473e-07
5.2405823e-06
-1.9573757e-07
5.2920406e-06
-2.0005979e-07
5.3412472e-06
-1.9487077e-07
5.3886564e-06
-1.8780759e-07
5.4372133e-06
-1.8827313e-07
5.4869339e-06
-1.9157037e-07
5.5371293e-06
-1.9186267e-07
5.5870331e-06
-1.9013358e-07
5.6363709e-06
-1.8836558e-07
5.6833566e-06
-1.8491975e-07
5.729246e-06
-1.822267e-07
5.7782831e-06
-1.8921113e-07
5.8296662e-06
-1.9543066e-07
5.8796265e-06
-1.914311e-07
5.9272914e-06
-1.8311109e-07
5.9731014e-06
-1.786185e-07
6.0182852e-06
-1.7882974e-07
6.0649898e-06
-1.8273789e-07
6.1139125e-06
-1.8741827e-07
6.1618574e-06
-1.8608304e-07
6.2076464e-06
-1.8124753e-07
6.252277e-06
-1.7729555e-07
6.2974606e-06
-1.7525756e-07
6.3438853e-06
-1.7735545e-07
6.3921022e-06
-1.8213158e-07
6.4417972e-06
-1.8508233e-07
6.4920337e-06
-1.8434294e-07
6.5411543e-06
-1.8191352e-07
6.5857317e-06
-1.7451729e-07
6.6264016e-06
-1.6780608e-07
6.6675079e-06
-1.7038235e-07
6.712277e-06
-1.7962423e-07
6.760552e-06
-1.8612956e-07
6.8090734e-06
-1.8332486e-07
6.8556755e-06
-1.7493535e-07
6.9002406e-06
-1.6810892e-07
6.9433513e-06
-1.6444302e-07
6.9877054e-06
-1.6758283e-07
7.0345441e-06
-1.7427183e-07
7.0822345e-06
-1.7781899e-07
7.1292082e-06
-1.7890169e-07
7.1746872e-06
-1.7705269e-07
7.2170457e-06
-1.7083307e-07
7.2577948e-06
-1.6714724e-07
7.3006359e-06
-1.7067681e-07
7.3462716e-06
-1.745499e-07
7.3935954e-06
-1.749991e-07
7.4418671e-06
-1.7333525e-07
7.4883484e-06
-1.6868419e-07
7.5324859e-06
-1.6596433e-07
7.5753342e-06
-1.6624957e-07
7.6175939e-06
-1.6649009e-07
7.6603477e-06
-1.6881887e-07
7.7040926e-06
-1.7116705e-07
7.7484211e-06
-1.7014141e-07
7.793111e-06
-1.6853586e-07
7.837072e-06
-1.6624923e-07
7.8794365e-06
-1.6234635e-07
7.9211099e-06
-1.6091823e-07
7.9615032e-06
-1.6266475e-07
8.000706e-06
-1.6498898e-07
8.0423537e-06
-1.6905262e-07
8.0887847e-06
-1.7585373e-07
8.1383533e-06
-1.7747675e-07
8.1889445e-06
-1.7079469e-07
8.2379301e-06
-1.5862345e-07
8.2831754e-06
-1.4668414e-07
8.3252043e-06
-1.4302049e-07
8.3644701e-06
-1.4521735e-07
8.4037573e-06
-1.5367197e-07
8.4435987e-06
-1.652321e-07
8.4821663e-06
-1.7137292e-07
8.5214673e-06
-1.7053514e-07
8.5609959e-06
-1.6361427e-07
8.5984697e-06
-1.5331544e-07
8.6367247e-06
-1.4681507e-07
8.6778928e-06
-1.4412496e-07
8.7199765e-06
-1.4014113e-07
8.7630819e-06
-1.3740446e-07
8.8071964e-06
-1.415864e-07
8.8494882e-06
-1.4554306e-07
8.8900349e-06
-1.4398907e-07
8.9296259e-06
-1.4029272e-07
8.9670891e-06
-1.3778958e-07
9.0020588e-06
-1.3813891e-07
9.0364526e-06
-1.4249959e-07
9.0714615e-06
-1.4729224e-07
9.1066363e-06
-1.4431348e-07
9.14043e-06
-1.3141212e-07
9.173636e-06
-1.1230684e-07
9.2100235e-06
-9.9261303e-08
9.2502504e-06
-9.4016455e-08
9.2917434e-06
-9.33619e-08
9.3334719e-06
-1.0010954e-07
9.3758583e-06
-1.1085802e-07
9.4192297e-06
-1.2546033e-07
9.4622526e-06
-1.3616521e-07
9.5012163e-06
-1.3461212e-07
9.5330491e-06
-1.2608723e-07
9.5557824e-06
-1.1436312e-07
9.5671699e-06
-9.602016e-08
9.5711454e-06
-7.8526424e-08
9.57581e-06
-7.002391e-08
9.5859075e-06
-6.6080308e-08
9.604052e-06
-6.6766677e-08
9.6295049e-06
-7.2784732e-08
9.6581481e-06
-7.6202796e-08
9.6873851e-06
-7.5710126e-08
9.7183854e-06
-8.4983793e-08
9.7522531e-06
-1.1662874e-07
9.7880703e-06
-1.6523668e-07
9.8269312e-06
-2.075626e-07
9.8666203e-06
-2.2088226e-07
9.9008655e-06
-2.0980746e-07
9.928572e-06
-1.9331355e-07
9.9633949e-06
-1.9094034e-07
1.0014512e-05
-2.1674388e-07
1.0075079e-05
-2.6107732e-07
1.0132941e-05
-2.8908559e-07
1.0183611e-05
-2.8520547e-07
1.0240217e-05
-2.7713285e-07
1.0317554e-05
-2.8484421e-07
1.0407138e-05
-2.8587252e-07
1.0493171e-05
-2.7179686e-07
1.0570087e-05
-2.6136118e-07
1.0634672e-05
-2.6195771e-07
1.0689254e-05
-2.7908558e-07
1.0749169e-05
-3.1456054e-07
1.083084e-05
-3.4760218e-07
1.0933535e-05
-3.5261604e-07
1.1045636e-05
-3.3168254e-07
1.1161537e-05
-3.1683141e-07
1.1278758e-05
-3.2760459e-07
1.1386425e-05
-3.4488313e-07
1.1477128e-05
-3.491392e-07
1.1557654e-05
-3.4236236e-07
1.1647741e-05
-3.4659702e-07
1.175793e-05
-3.6500859e-07
1.1843988e-05
-3.3270908e-07
1.1871689e-05
-2.4905615e-07
1.1872103e-05
-2.2327829e-07
1.1872272e-05
-2.7374753e-07
1.1855083e-05
-3.3340982e-07
1.171075e-05
-2.0764639e-07
1.141727e-05
4.2404681e-08
1.1141522e-05
7.6488887e-08