/*--------------------------------*- C++ -*----------------------------------*\
| =========                 |                                                 |
| \\      /  F ield         | OpenFOAM: The Open Source CFD Toolbox           |
|  \\    /   O peration     | Version:  2306                                  |
|   \\  /    A nd           | Website:  www.openfoam.com                      |
|    \\/     M anipulation  |                                                 |
\*---------------------------------------------------------------------------*/
FoamFile
{
    version     2.0;
    format      ascii;
    arch        "LSB;label=32;scalar=64";
    class       surfaceScalarField;
    location    "0.41";
    object      phi;
}
// * * * * * * * * * * * * * * * * * * * * * * * * * * * * * * * * * * * * * //

dimensions      [0 3 -1 0 0 0 0];

oriented        oriented;

internalField   nonuniform List<scalar> 
101920
(
4.6381512e-10
-4.6381513e-10
1.6382896e-09
-1.1744746e-09
3.383461e-09
-1.745171e-09
5.5373898e-09
-2.1539294e-09
8.0560626e-09
-2.5186722e-09
1.0932015e-08
-2.8759528e-09
1.4151455e-08
-3.2194399e-09
1.7693342e-08
-3.5418885e-09
2.1526278e-08
-3.8329356e-09
2.5609663e-08
-4.0833842e-09
2.989543e-08
-4.2857691e-09
3.4329894e-08
-4.4344616e-09
3.8854881e-08
-4.5249878e-09
4.3408365e-08
-4.5534846e-09
4.7925054e-08
-4.5166881e-09
5.2338807e-08
-4.4137526e-09
5.6579022e-08
-4.240212e-09
6.0576445e-08
-3.9974243e-09
6.4260292e-08
-3.6838487e-09
6.7559475e-08
-3.2991814e-09
7.0405235e-08
-2.8457593e-09
7.2728018e-08
-2.3227845e-09
7.4462832e-08
-1.7348137e-09
7.5550236e-08
-1.0874036e-09
7.5943383e-08
-3.9314546e-10
7.5552686e-08
3.906945e-10
7.4310557e-08
1.2421289e-09
7.2176504e-08
2.1340542e-09
6.9108337e-08
3.0681645e-09
6.5071931e-08
4.0364086e-09
6.0027698e-08
5.0442307e-09
5.3932679e-08
6.0950215e-09
4.6768302e-08
7.1643749e-09
3.8501803e-08
8.2665017e-09
2.9133799e-08
9.3680016e-09
1.8652598e-08
1.0481198e-08
7.0622632e-09
1.159034e-08
-5.6169695e-09
1.267923e-08
-1.9428093e-08
1.3811124e-08
-3.4348168e-08
1.4920076e-08
-5.0354067e-08
1.6005899e-08
-6.7419268e-08
1.7065197e-08
-8.5512944e-08
1.8093675e-08
-1.0459967e-07
1.9086726e-08
-1.2463943e-07
2.003976e-08
-1.4558776e-07
2.0948328e-08
-1.6739602e-07
2.180826e-08
-1.9001169e-07
2.2615671e-08
-2.1337871e-07
2.3367017e-08
-2.3743781e-07
2.4059099e-08
-2.6212688e-07
2.4689071e-08
-2.8738137e-07
2.5254496e-08
-3.1313467e-07
2.5753303e-08
-3.3931848e-07
2.6183807e-08
-3.6586321e-07
2.6544729e-08
-3.9269837e-07
2.6835156e-08
-4.1975294e-07
2.7054572e-08
-4.4695576e-07
2.7202814e-08
-4.7423585e-07
2.7280094e-08
-5.0152281e-07
2.728696e-08
-5.2874709e-07
2.7224281e-08
-5.5584036e-07
2.7093261e-08
-5.8273571e-07
2.6895363e-08
-6.0936806e-07
2.6632352e-08
-6.356743e-07
2.630623e-08
-6.6159352e-07
2.5919227e-08
-6.8706728e-07
2.5473776e-08
-7.1203976e-07
2.4972463e-08
-7.3645787e-07
2.4418117e-08
-7.6027149e-07
2.3813616e-08
-7.8343347e-07
2.3161971e-08
-8.0589979e-07
2.2466326e-08
-8.2762961e-07
2.1729823e-08
-8.4858527e-07
2.0955664e-08
-8.6873237e-07
2.0147087e-08
-8.8803966e-07
1.9307308e-08
-9.0647917e-07
1.8439498e-08
-9.2402604e-07
1.7546868e-08
-9.4065858e-07
1.6632545e-08
-9.5635824e-07
1.5699657e-08
-9.7110953e-07
1.4751301e-08
-9.8490008e-07
1.3790541e-08
-9.9772053e-07
1.2820446e-08
-1.0095645e-06
1.1844031e-08
-1.0204287e-06
1.0864191e-08
-1.0303124e-06
9.8836435e-09
-1.039217e-06
8.9046281e-09
-1.0471457e-06
7.9287324e-09
-1.0541028e-06
6.9570382e-09
-1.0600898e-06
5.9869598e-09
-1.0651067e-06
5.0169089e-09
-1.0691631e-06
4.0564084e-09
-1.072268e-06
3.1049422e-09
-1.0744415e-06
2.1734561e-09
-1.075688e-06
1.2465541e-09
-1.075967e-06
2.7896733e-10
-1.0754003e-06
-5.6670894e-10
-1.0740046e-06
-1.3956655e-09
-1.0717707e-06
-2.2338992e-09
-1.0687089e-06
-3.061755e-09
-1.064836e-06
-3.8729262e-09
-1.0601709e-06
-4.6651242e-09
-1.0547334e-06
-5.4374557e-09
-1.0485439e-06
-6.189547e-09
-1.0416227e-06
-6.9212043e-09
-1.0339903e-06
-7.6323936e-09
-1.0256672e-06
-8.3230705e-09
-1.0166739e-06
-8.9933441e-09
-1.0070306e-06
-9.6433134e-09
-9.9675738e-07
-1.0273171e-08
-9.8587424e-07
-1.0883141e-08
-9.7440074e-07
-1.147349e-08
-9.6235619e-07
-1.2044532e-08
-9.4975958e-07
-1.2596635e-08
-9.3662944e-07
-1.3130147e-08
-9.2298393e-07
-1.3645507e-08
-9.0884073e-07
-1.4143166e-08
-8.9421716e-07
-1.462359e-08
-8.7912991e-07
-1.5087261e-08
-8.6359526e-07
-1.5534659e-08
-8.4762894e-07
-1.5966306e-08
-8.3124619e-07
-1.6382743e-08
-8.144617e-07
-1.6784487e-08
-7.972896e-07
-1.7172103e-08
-7.7974351e-07
-1.7546083e-08
-7.6183657e-07
-1.7906968e-08
-7.435812e-07
-1.8255339e-08
-7.249895e-07
-1.859171e-08
-7.060729e-07
-1.8916616e-08
-6.8684236e-07
-1.9230537e-08
-6.673083e-07
-1.9534043e-08
-6.4748066e-07
-1.9827642e-08
-6.2736888e-07
-2.0111791e-08
-6.0698186e-07
-2.0387005e-08
-5.8632814e-07
-2.0653729e-08
-5.6541567e-07
-2.0912453e-08
-5.4425206e-07
-2.1163615e-08
-5.2284444e-07
-2.140762e-08
-5.0119953e-07
-2.1644903e-08
-4.7932366e-07
-2.1875869e-08
-4.5722279e-07
-2.2100868e-08
-4.3490251e-07
-2.2320248e-08
-4.1236814e-07
-2.2534375e-08
-3.8962464e-07
-2.2743499e-08
-3.6667684e-07
-2.2947815e-08
-3.4352939e-07
-2.314743e-08
-3.2018701e-07
-2.3342367e-08
-2.9665454e-07
-2.3532479e-08
-2.7293725e-07
-2.3717286e-08
-2.4904165e-07
-2.3895613e-08
-2.249767e-07
-2.406497e-08
-2.0075629e-07
-2.4220388e-08
-1.7640412e-07
-2.4352165e-08
-1.5196183e-07
-2.4442298e-08
-1.2750122e-07
-2.4460614e-08
-1.0313287e-07
-2.4368339e-08
-7.8969778e-08
-2.4163104e-08
-5.4903664e-08
-2.4066129e-08
-2.9771491e-08
-2.5132153e-08
-2.9771507e-08
-1.5505253e-11
-4.4830994e-10
-2.8946598e-10
-9.0051406e-10
-9.9202649e-10
-1.0426106e-09
-2.3163229e-09
-8.2963263e-10
-4.3612143e-09
-4.7378177e-10
-7.1611463e-09
-7.6020372e-11
-1.0749837e-08
3.6925013e-10
-1.5159791e-08
8.680673e-10
-2.043514e-08
1.4424117e-09
-2.6630159e-08
2.1116343e-09
-3.3807982e-08
2.8920551e-09
-4.2038893e-08
3.7964468e-09
-5.1398841e-08
4.8349615e-09
-6.1967999e-08
6.015674e-09
-7.3829426e-08
7.3447377e-09
-8.7068357e-08
8.8251761e-09
-1.0177006e-07
1.0461493e-08
-1.1802014e-07
1.2252652e-08
-1.3590264e-07
1.4198655e-08
-1.5549929e-07
1.6297468e-08
-1.7688907e-07
1.8544017e-08
-2.0014633e-07
2.0934474e-08
-2.253414e-07
2.3460252e-08
-2.5254092e-07
2.6112115e-08
-2.8181463e-07
2.8880568e-08
-3.131878e-07
3.1763855e-08
-3.4669748e-07
3.4751814e-08
-3.8238996e-07
3.7826532e-08
-4.2029275e-07
4.0970959e-08
-4.6042466e-07
4.4168318e-08
-5.0279063e-07
4.7410204e-08
-5.4738151e-07
5.0685904e-08
-5.9418664e-07
5.3969506e-08
-6.4317441e-07
5.7254265e-08
-6.9431747e-07
6.0511067e-08
-7.4756777e-07
6.3731501e-08
-8.0287382e-07
6.689638e-08
-8.6018654e-07
6.9991956e-08
-9.1939239e-07
7.3016977e-08
-9.8041573e-07
7.5943409e-08
-1.0431647e-06
7.8754824e-08
-1.1075364e-06
8.1436974e-08
-1.1734193e-06
8.3976516e-08
-1.2406934e-06
8.6360909e-08
-1.3092321e-06
8.8578411e-08
-1.3789019e-06
9.061813e-08
-1.4495638e-06
9.2470139e-08
-1.5210737e-06
9.4125556e-08
-1.5932832e-06
9.5576529e-08
-1.6660404e-06
9.6816342e-08
-1.7391908e-06
9.7839407e-08
-1.8125776e-06
9.8641281e-08
-1.8860429e-06
9.921867e-08
-1.9594285e-06
9.9569411e-08
-2.0325763e-06
9.9692493e-08
-2.1053291e-06
9.9588004e-08
-2.1775317e-06
9.9257142e-08
-2.249031e-06
9.870209e-08
-2.3196769e-06
9.792606e-08
-2.3893232e-06
9.6933239e-08
-2.4578276e-06
9.5728631e-08
-2.5250524e-06
9.4318146e-08
-2.5908655e-06
9.2708399e-08
-2.6551399e-06
9.0906786e-08
-2.7177549e-06
8.8921236e-08
-2.778596e-06
8.6760302e-08
-2.8375553e-06
8.4433036e-08
-2.8945317e-06
8.194887e-08
-2.9494312e-06
7.9317612e-08
-3.0021669e-06
7.6549351e-08
-3.0526593e-06
7.3654395e-08
-3.1008362e-06
7.0643191e-08
-3.1466327e-06
6.7526241e-08
-3.1899911e-06
6.4314083e-08
-3.2308611e-06
6.1017152e-08
-3.2691996e-06
5.7645797e-08
-3.3049703e-06
5.4210188e-08
-3.3381438e-06
5.0720377e-08
-3.3686974e-06
4.7186182e-08
-3.396615e-06
4.3617233e-08
-3.4218866e-06
4.0022888e-08
-3.4445084e-06
3.641233e-08
-3.4644823e-06
3.2794399e-08
-3.481816e-06
2.9177653e-08
-3.4965219e-06
2.557014e-08
-3.5086176e-06
2.1979305e-08
-3.5181245e-06
1.8411526e-08
-3.5250667e-06
1.4870958e-08
-3.5294681e-06
1.1358457e-08
-3.5313406e-06
7.8594017e-09
-3.5307147e-06
4.3910906e-09
-3.5275645e-06
9.0613119e-10
-3.5221018e-06
-2.3577317e-09
-3.5143408e-06
-5.587527e-09
-3.5043021e-06
-8.7921736e-09
-3.4920735e-06
-1.1949585e-08
-3.4775887e-06
-1.5051572e-08
-3.4609113e-06
-1.8073087e-08
-3.4421219e-06
-2.1023261e-08
-3.4212808e-06
-2.390289e-08
-3.3984426e-06
-2.6711079e-08
-3.3736608e-06
-2.9446902e-08
-3.3469887e-06
-3.2109639e-08
-3.3184793e-06
-3.4698895e-08
-3.2881859e-06
-3.7214646e-08
-3.2561612e-06
-3.9657078e-08
-3.2224577e-06
-4.2026585e-08
-3.1871272e-06
-4.4323795e-08
-3.150221e-06
-4.6549541e-08
-3.1117894e-06
-4.8704804e-08
-3.0718818e-06
-5.0790681e-08
-3.0305469e-06
-5.2808474e-08
-2.9878319e-06
-5.4759555e-08
-2.9437831e-06
-5.6645386e-08
-2.8984456e-06
-5.8467632e-08
-2.8518632e-06
-6.0227902e-08
-2.8040784e-06
-6.1927961e-08
-2.7551324e-06
-6.3569593e-08
-2.705065e-06
-6.5154663e-08
-2.6539146e-06
-6.6685045e-08
-2.6017183e-06
-6.8162658e-08
-2.5485116e-06
-6.9589456e-08
-2.4943287e-06
-7.0967323e-08
-2.4392026e-06
-7.2298303e-08
-2.3831644e-06
-7.3584269e-08
-2.3262441e-06
-7.48272e-08
-2.2684704e-06
-7.6029019e-08
-2.2098705e-06
-7.7191647e-08
-2.1504701e-06
-7.8316971e-08
-2.0902939e-06
-7.9406812e-08
-2.0293649e-06
-8.046303e-08
-1.9677052e-06
-8.1487389e-08
-1.9053352e-06
-8.2481667e-08
-1.8422747e-06
-8.3447574e-08
-1.7785417e-06
-8.4386729e-08
-1.7141533e-06
-8.5300775e-08
-1.6491257e-06
-8.6191284e-08
-1.5834736e-06
-8.7059702e-08
-1.517211e-06
-8.7907567e-08
-1.4503506e-06
-8.8736259e-08
-1.3829044e-06
-8.9547083e-08
-1.3148833e-06
-9.0341304e-08
-1.2462976e-06
-9.112011e-08
-1.1771566e-06
-9.1884429e-08
-1.1074696e-06
-9.2634877e-08
-1.0372454e-06
-9.3371616e-08
-9.664926e-07
-9.4095172e-08
-8.9521971e-07
-9.4805438e-08
-8.2343565e-07
-9.5501318e-08
-7.5115103e-07
-9.6180224e-08
-6.7837925e-07
-9.6836755e-08
-6.0513874e-07
-9.746088e-08
-5.3145569e-07
-9.8035238e-08
-4.5736547e-07
-9.8532482e-08
-3.8290807e-07
-9.8918019e-08
-3.0810223e-07
-9.9174187e-08
-2.3286867e-07
-9.9396659e-08
-1.5686678e-07
-1.00068e-07
-7.9414448e-08
-1.025845e-07
-1.0918596e-07
-8.5159618e-10
4.0328616e-10
-3.4516334e-09
1.6995228e-09
-7.9046225e-09
3.4103793e-09
-1.4323831e-08
5.5895754e-09
-2.2796555e-08
7.9989429e-09
-3.3384814e-08
1.051224e-08
-4.6130503e-08
1.311494e-08
-6.1077627e-08
1.581519e-08
-7.8269791e-08
1.8634577e-08
-9.775497e-08
2.1596812e-08
-1.1958595e-07
2.4723034e-08
-1.4381993e-07
2.8030427e-08
-1.7051739e-07
3.1532428e-08
-1.9974082e-07
3.5239104e-08
-2.3155341e-07
3.9157323e-08
-2.6601882e-07
4.3290584e-08
-3.0319798e-07
4.7640665e-08
-3.431506e-07
5.2205265e-08
-3.8593228e-07
5.6980339e-08
-4.3159393e-07
6.1959114e-08
-4.8018175e-07
6.7131841e-08
-5.3173452e-07
7.2487247e-08
-5.8628495e-07
7.8010685e-08
-6.4385867e-07
8.3685833e-08
-7.044735e-07
8.9495396e-08
-7.6813162e-07
9.5421982e-08
-8.3482455e-07
1.0144474e-07
-9.045372e-07
1.0753919e-07
-9.7724491e-07
1.1367866e-07
-1.0529131e-06
1.1983649e-07
-1.1314913e-06
1.2598842e-07
-1.212914e-06
1.3210856e-07
-1.2971107e-06
1.3816623e-07
-1.3839914e-06
1.4413501e-07
-1.4734637e-06
1.4998331e-07
-1.565417e-06
1.5568484e-07
-1.6597325e-06
1.6121191e-07
-1.7562797e-06
1.665391e-07
-1.8549062e-06
1.7164355e-07
-1.9554597e-06
1.764969e-07
-2.0577783e-06
1.8107339e-07
-2.1616907e-06
1.8534938e-07
-2.2670172e-06
1.8930303e-07
-2.3735705e-06
1.9291416e-07
-2.4811564e-06
1.9616435e-07
-2.5895752e-06
1.9903692e-07
-2.6986222e-06
2.015171e-07
-2.8080887e-06
2.0359209e-07
-2.9177632e-06
2.0525106e-07
-3.0274322e-06
2.0648527e-07
-3.1368808e-06
2.0728807e-07
-3.2458944e-06
2.0765487e-07
-3.3542589e-06
2.0758319e-07
-3.4617621e-06
2.0707259e-07
-3.5681943e-06
2.0612464e-07
-3.6733492e-06
2.0474289e-07
-3.7770248e-06
2.0293277e-07
-3.8790242e-06
2.0070151e-07
-3.9791562e-06
1.9805807e-07
-4.077236e-06
1.9501305e-07
-4.1730859e-06
1.9157849e-07
-4.2665357e-06
1.877679e-07
-4.3574232e-06
1.8359599e-07
-4.4455951e-06
1.7907868e-07
-4.5309067e-06
1.7423284e-07
-4.6132227e-06
1.6907626e-07
-4.6924171e-06
1.6362745e-07
-4.7683738e-06
1.5790555e-07
-4.8409864e-06
1.5193021e-07
-4.9101585e-06
1.4572143e-07
-4.9758035e-06
1.3929947e-07
-5.0378451e-06
1.3268471e-07
-5.0962163e-06
1.2589747e-07
-5.1508602e-06
1.1895799e-07
-5.2017293e-06
1.1188627e-07
-5.2487855e-06
1.0470195e-07
-5.2919996e-06
9.7424303e-08
-5.3313514e-06
9.0072144e-08
-5.366829e-06
8.2663827e-08
-5.3984289e-06
7.5217145e-08
-5.4261554e-06
6.7749324e-08
-5.45002e-06
6.0276989e-08
-5.4700417e-06
5.2816099e-08
-5.486246e-06
4.5381936e-08
-5.4986648e-06
3.7988954e-08
-5.507336e-06
3.0650545e-08
-5.512303e-06
2.3378449e-08
-5.513613e-06
1.618102e-08
-5.5113357e-06
9.0810837e-09
-5.5055328e-06
2.05653e-09
-5.4962055e-06
-4.9362097e-09
-5.483501e-06
-1.1798375e-08
-5.4673444e-06
-1.8514346e-08
-5.4478569e-06
-2.5075008e-08
-5.4251481e-06
-3.1500951e-08
-5.3993011e-06
-3.7796623e-08
-5.3703925e-06
-4.3960145e-08
-5.3384846e-06
-4.998099e-08
-5.3036517e-06
-5.5856116e-08
-5.2659709e-06
-6.1583747e-08
-5.2255193e-06
-6.7162624e-08
-5.1823744e-06
-7.2591823e-08
-5.1366131e-06
-7.7870896e-08
-5.0883121e-06
-8.2999952e-08
-5.0375473e-06
-8.7979468e-08
-4.9843939e-06
-9.2810438e-08
-4.9289262e-06
-9.7494262e-08
-4.8712173e-06
-1.0203264e-07
-4.8113392e-06
-1.0642765e-07
-4.7493624e-06
-1.1068165e-07
-4.6853557e-06
-1.147973e-07
-4.6193868e-06
-1.1877743e-07
-4.5515212e-06
-1.2262515e-07
-4.4818229e-06
-1.2634371e-07
-4.410354e-06
-1.2993653e-07
-4.3371747e-06
-1.3340715e-07
-4.2623434e-06
-1.3675936e-07
-4.1859162e-06
-1.3999675e-07
-4.1079475e-06
-1.4312339e-07
-4.0284895e-06
-1.4614304e-07
-3.9475924e-06
-1.4905969e-07
-3.8653045e-06
-1.5187734e-07
-3.7816719e-06
-1.5459995e-07
-3.6967387e-06
-1.5723152e-07
-3.6105469e-06
-1.59776e-07
-3.5231368e-06
-1.6223733e-07
-3.4345464e-06
-1.6461947e-07
-3.3448118e-06
-1.6692619e-07
-3.2539674e-06
-1.6916134e-07
-3.1620456e-06
-1.7132868e-07
-3.0690768e-06
-1.7343182e-07
-2.9750898e-06
-1.7547441e-07
-2.8801115e-06
-1.7745991e-07
-2.7841673e-06
-1.7939178e-07
-2.6872808e-06
-1.8127328e-07
-2.5894738e-06
-1.8310769e-07
-2.490767e-06
-1.8489808e-07
-2.3911792e-06
-1.8664749e-07
-2.290728e-06
-1.8835882e-07
-2.1894295e-06
-1.9003477e-07
-2.0872985e-06
-1.9167801e-07
-1.9843489e-06
-1.9329096e-07
-1.8805931e-06
-1.9487594e-07
-1.7760426e-06
-1.9643489e-07
-1.670708e-06
-1.9796948e-07
-1.5645987e-06
-1.9948093e-07
-1.4577236e-06
-2.009702e-07
-1.3500917e-06
-2.0243735e-07
-1.2417116e-06
-2.0388134e-07
-1.1325929e-06
-2.0529899e-07
-1.0227457e-06
-2.0668397e-07
-9.1218139e-07
-2.0802516e-07
-8.0091161e-07
-2.0930501e-07
-6.8894367e-07
-2.1050047e-07
-5.7626868e-07
-2.11593e-07
-4.6283711e-07
-2.1260578e-07
-3.4852674e-07
-2.1370701e-07
-2.3316052e-07
-2.1543422e-07
-1.1672766e-07
-2.1901736e-07
-2.2591364e-07
-1.5445672e-09
1.9478533e-09
-6.0942408e-09
6.2491965e-09
-1.3666512e-08
1.0982651e-08
-2.4278012e-08
1.6201076e-08
-3.798789e-08
2.170882e-08
-5.4861305e-08
2.7385653e-08
-7.4950509e-08
3.3204144e-08
-9.8301503e-08
3.9166183e-08
-1.2495619e-07
4.5289269e-08
-1.5495508e-07
5.1595695e-08
-1.8833872e-07
5.8106671e-08
-2.2514823e-07
6.483994e-08
-2.6542497e-07
7.1809167e-08
-3.0920977e-07
7.9023901e-08
-3.5654206e-07
8.6489619e-08
-4.0745927e-07
9.4207787e-08
-4.6199499e-07
1.0217639e-07
-5.2017903e-07
1.103893e-07
-5.8203574e-07
1.1883705e-07
-6.4758325e-07
1.2750663e-07
-7.168329e-07
1.3638149e-07
-7.8978778e-07
1.4544211e-07
-8.6644271e-07
1.5466562e-07
-9.4678339e-07
1.6402651e-07
-1.0307851e-06
1.7349707e-07
-1.1184106e-06
1.8304751e-07
-1.209611e-06
1.9264512e-07
-1.3043264e-06
2.0225457e-07
-1.402486e-06
2.1183834e-07
-1.5040075e-06
2.2135798e-07
-1.6087941e-06
2.3077504e-07
-1.7167355e-06
2.4004996e-07
-1.8277108e-06
2.4914151e-07
-1.941585e-06
2.5800918e-07
-2.0582133e-06
2.6661157e-07
-2.1774375e-06
2.7490909e-07
-2.2990884e-06
2.8286284e-07
-2.4229848e-06
2.9043549e-07
-2.5489324e-06
2.9759117e-07
-2.6767294e-06
3.0429387e-07
-2.8061654e-06
3.1050942e-07
-2.937022e-06
3.1620596e-07
-3.0690731e-06
3.2135416e-07
-3.2020862e-06
3.2592725e-07
-3.335823e-06
3.2990113e-07
-3.4700406e-06
3.3325455e-07
-3.6044927e-06
3.3596914e-07
-3.7389301e-06
3.3802952e-07
-3.8731024e-06
3.3942337e-07
-4.0067586e-06
3.4014148e-07
-4.1396483e-06
3.4017777e-07
-4.2715227e-06
3.3952924e-07
-4.4021355e-06
3.38196e-07
-4.5312441e-06
3.3618115e-07
-4.6586102e-06
3.3349078e-07
-4.7840011e-06
3.301338e-07
-4.9071902e-06
3.2612188e-07
-5.027958e-06
3.2146926e-07
-5.1460925e-06
3.1619265e-07
-5.2613906e-06
3.1031106e-07
-5.3736577e-06
3.0384563e-07
-5.4827092e-06
2.9681938e-07
-5.5883703e-06
2.8925715e-07
-5.6904769e-06
2.8118529e-07
-5.7888756e-06
2.7263153e-07
-5.8834241e-06
2.6362471e-07
-5.9739913e-06
2.5419469e-07
-6.0604579e-06
2.4437206e-07
-6.1427156e-06
2.3418799e-07
-6.2206682e-06
2.2367403e-07
-6.2942307e-06
2.1286193e-07
-6.3633294e-06
2.0178347e-07
-6.4279022e-06
1.9047028e-07
-6.4878978e-06
1.7895358e-07
-6.5432757e-06
1.6726417e-07
-6.594006e-06
1.5543223e-07
-6.6400689e-06
1.4348718e-07
-6.6814544e-06
1.3145767e-07
-6.718162e-06
1.1937146e-07
-6.7502003e-06
1.0725543e-07
-6.7775864e-06
9.5135389e-08
-6.8003456e-06
8.3036149e-08
-6.8185109e-06
7.0981474e-08
-6.832123e-06
5.8994027e-08
-6.8412294e-06
4.7095358e-08
-6.8458848e-06
3.5305955e-08
-6.8461513e-06
2.3644958e-08
-6.8420966e-06
1.2126272e-08
-6.8338547e-06
8.3917099e-10
-6.8212598e-06
-1.053833e-08
-6.8045863e-06
-2.1609754e-08
-6.7839061e-06
-3.2478574e-08
-6.7592884e-06
-4.3132024e-08
-6.7307954e-06
-5.356804e-08
-6.6985133e-06
-6.3783011e-08
-6.6625371e-06
-7.3772835e-08
-6.622964e-06
-8.3533206e-08
-6.5798856e-06
-9.3059438e-08
-6.5333936e-06
-1.0234807e-07
-6.4835807e-06
-1.1139672e-07
-6.4305394e-06
-1.2020392e-07
-6.3743622e-06
-1.2876899e-07
-6.3151411e-06
-1.3709201e-07
-6.2529672e-06
-1.4517385e-07
-6.1879307e-06
-1.5301592e-07
-6.1201207e-06
-1.6062048e-07
-6.0496248e-06
-1.6799017e-07
-5.9765292e-06
-1.7512827e-07
-5.9009183e-06
-1.8203852e-07
-5.8228749e-06
-1.8872506e-07
-5.7424797e-06
-1.9519247e-07
-5.6598115e-06
-2.0144566e-07
-5.5749469e-06
-2.0748977e-07
-5.4879603e-06
-2.1333033e-07
-5.3989238e-06
-2.1897299e-07
-5.3079073e-06
-2.2442367e-07
-5.2149782e-06
-2.2968836e-07
-5.1202017e-06
-2.3477331e-07
-5.0236403e-06
-2.3968471e-07
-4.9253544e-06
-2.4442897e-07
-4.8254016e-06
-2.4901244e-07
-4.7238374e-06
-2.5344156e-07
-4.6207147e-06
-2.5772273e-07
-4.5160838e-06
-2.6186236e-07
-4.409993e-06
-2.658668e-07
-4.302488e-06
-2.6974236e-07
-4.1936122e-06
-2.734953e-07
-4.0834066e-06
-2.7713176e-07
-3.9719102e-06
-2.8065779e-07
-3.8591594e-06
-2.8407938e-07
-3.7451889e-06
-2.8740235e-07
-3.6300309e-06
-2.9063239e-07
-3.5137158e-06
-2.9377511e-07
-3.3962716e-06
-2.9683591e-07
-3.2777249e-06
-2.9982003e-07
-3.1581e-06
-3.0273264e-07
-3.0374195e-06
-3.0557861e-07
-2.9157042e-06
-3.0836275e-07
-2.7929733e-06
-3.1108964e-07
-2.6692445e-06
-3.1376362e-07
-2.5445337e-06
-3.1638884e-07
-2.4188554e-06
-3.1896923e-07
-2.2922229e-06
-3.215084e-07
-2.1646482e-06
-3.2400968e-07
-2.0361417e-06
-3.2647592e-07
-1.9067132e-06
-3.2890951e-07
-1.776371e-06
-3.3131231e-07
-1.6451231e-06
-3.3368531e-07
-1.5129764e-06
-3.360281e-07
-1.3799368e-06
-3.3833851e-07
-1.2460093e-06
-3.4061152e-07
-1.1111957e-06
-3.4283874e-07
-9.7549245e-07
-3.4500828e-07
-8.3888434e-07
-3.4710855e-07
-7.0133571e-07
-3.4914165e-07
-5.627821e-07
-3.5115938e-07
-4.2314413e-07
-3.53345e-07
-2.8242576e-07
-3.5615259e-07
-1.4099835e-07
-3.6044477e-07
-3.6691196e-07
-1.9746457e-09
3.922499e-09
-7.7807268e-09
1.2055278e-08
-1.7373984e-08
2.0575907e-08
-3.0715342e-08
2.9542434e-08
-4.7832819e-08
3.8826298e-08
-6.8780823e-08
4.8333656e-08
-9.3610745e-08
5.8034068e-08
-1.2236832e-07
6.7923758e-08
-1.5509364e-07
7.8014585e-08
-1.9182247e-07
8.8324529e-08
-2.3258762e-07
9.8871815e-08
-2.7741965e-07
1.0967197e-07
-3.2634703e-07
1.2073655e-07
-3.7939577e-07
1.3207264e-07
-4.3658881e-07
1.4368266e-07
-4.9794539e-07
1.5556436e-07
-5.6347994e-07
1.6771094e-07
-6.3320152e-07
1.8011087e-07
-7.0711272e-07
1.9274826e-07
-7.8520888e-07
2.0560278e-07
-8.6747729e-07
2.186499e-07
-9.5389629e-07
2.3186111e-07
-1.0444347e-06
2.4520403e-07
-1.139051e-06
2.5864284e-07
-1.2376926e-06
2.7213862e-07
-1.3402946e-06
2.8564949e-07
-1.4467801e-06
2.9913064e-07
-1.5570601e-06
3.1253462e-07
-1.6710335e-06
3.2581177e-07
-1.7885866e-06
3.3891102e-07
-1.909592e-06
3.5178049e-07
-2.0339094e-06
3.6436737e-07
-2.1613861e-06
3.7661817e-07
-2.2918565e-06
3.8847955e-07
-2.4251434e-06
3.9989845e-07
-2.5610574e-06
4.1082311e-07
-2.6993976e-06
4.2120311e-07
-2.839952e-06
4.3098986e-07
-2.9824975e-06
4.4013663e-07
-3.1268021e-06
4.4859852e-07
-3.2726259e-06
4.5633315e-07
-3.419721e-06
4.6330111e-07
-3.5678332e-06
4.6946631e-07
-3.7167021e-06
4.7479618e-07
-3.8660629e-06
4.7926187e-07
-4.0156467e-06
4.8283837e-07
-4.1651822e-06
4.8550469e-07
-4.3143966e-06
4.872439e-07
-4.4630165e-06
4.8804323e-07
-4.6107691e-06
4.8789415e-07
-4.7573836e-06
4.8679225e-07
-4.9025918e-06
4.8473737e-07
-5.0461292e-06
4.8173342e-07
-5.1877363e-06
4.7778832e-07
-5.3271595e-06
4.7291392e-07
-5.4641515e-06
4.671258e-07
-5.5984728e-06
4.6044317e-07
-5.7298921e-06
4.5288857e-07
-5.8581872e-06
4.4448778e-07
-5.9831457e-06
4.3526954e-07
-6.1045654e-06
4.2526529e-07
-6.2222549e-06
4.1450892e-07
-6.3360343e-06
4.0303655e-07
-6.4457353e-06
3.9088622e-07
-6.5512014e-06
3.7809766e-07
-6.6522886e-06
3.6471195e-07
-6.7488653e-06
3.5077136e-07
-6.8408122e-06
3.3631897e-07
-6.9280227e-06
3.2139849e-07
-7.0104026e-06
3.0605396e-07
-7.0878702e-06
2.9032956e-07
-7.1603561e-06
2.7426932e-07
-7.2278026e-06
2.5791685e-07
-7.2901643e-06
2.4131522e-07
-7.3474069e-06
2.2450672e-07
-7.3995072e-06
2.0753262e-07
-7.4464532e-06
1.9043313e-07
-7.4882428e-06
1.7324728e-07
-7.5248841e-06
1.5601275e-07
-7.5563945e-06
1.3876584e-07
-7.5828005e-06
1.2154136e-07
-7.604137e-06
1.0437263e-07
-7.620447e-06
8.7291515e-08
-7.6317814e-06
7.0328444e-08
-7.6381988e-06
5.3512711e-08
-7.6397657e-06
3.6872826e-08
-7.6365579e-06
2.0437182e-08
-7.6287135e-06
4.2818212e-09
-7.616042e-06
-1.1832304e-08
-7.5989211e-06
-2.7659262e-08
-7.5773376e-06
-4.3193191e-08
-7.5513862e-06
-5.8429951e-08
-7.5211581e-06
-7.3360199e-08
-7.486748e-06
-8.7978115e-08
-7.4482535e-06
-1.0227748e-07
-7.4057744e-06
-1.1625193e-07
-7.3594122e-06
-1.298955e-07
-7.3092684e-06
-1.4320318e-07
-7.2554453e-06
-1.561712e-07
-7.1980449e-06
-1.6879711e-07
-7.1371691e-06
-1.8107969e-07
-7.0729194e-06
-1.930187e-07
-7.0053963e-06
-2.0461504e-07
-6.9346996e-06
-2.1587055e-07
-6.8609276e-06
-2.2678798e-07
-6.7841772e-06
-2.3737088e-07
-6.7045438e-06
-2.476236e-07
-6.6221208e-06
-2.575512e-07
-6.537e-06
-2.6715935e-07
-6.4492708e-06
-2.7645425e-07
-6.3590206e-06
-2.8544271e-07
-6.2663343e-06
-2.9413193e-07
-6.1712946e-06
-3.0252948e-07
-6.0739817e-06
-3.1064326e-07
-5.9744732e-06
-3.1848154e-07
-5.8728441e-06
-3.2605275e-07
-5.7691669e-06
-3.3336557e-07
-5.6635114e-06
-3.404288e-07
-5.5559447e-06
-3.4725145e-07
-5.4465312e-06
-3.5384249e-07
-5.3353326e-06
-3.60211e-07
-5.2224081e-06
-3.6636604e-07
-5.1078141e-06
-3.7231672e-07
-4.9916044e-06
-3.7807209e-07
-4.8738301e-06
-3.8364108e-07
-4.7545399e-06
-3.8903261e-07
-4.6337797e-06
-3.9425546e-07
-4.5115932e-06
-3.9931829e-07
-4.3880213e-06
-4.0422962e-07
-4.2631029e-06
-4.089978e-07
-4.1368742e-06
-4.1363107e-07
-4.0093693e-06
-4.1813732e-07
-3.8806199e-06
-4.2252446e-07
-3.7506557e-06
-4.2680006e-07
-3.6195043e-06
-4.3097153e-07
-3.4871909e-06
-4.3504594e-07
-3.3537392e-06
-4.3903029e-07
-3.2191708e-06
-4.429312e-07
-3.0835053e-06
-4.4675511e-07
-2.9467608e-06
-4.505081e-07
-2.8089536e-06
-4.5419601e-07
-2.6700985e-06
-4.578244e-07
-2.5302085e-06
-4.6139838e-07
-2.3892955e-06
-4.649227e-07
-2.2473697e-06
-4.6840164e-07
-2.1044402e-06
-4.7183902e-07
-1.9605146e-06
-4.752379e-07
-1.8155993e-06
-4.7860055e-07
-1.6696993e-06
-4.819282e-07
-1.5228173e-06
-4.8522047e-07
-1.3749535e-06
-4.8847531e-07
-1.2261033e-06
-4.9168887e-07
-1.0762547e-06
-4.9485695e-07
-9.2538367e-07
-4.9797958e-07
-7.7345183e-07
-5.0107348e-07
-6.2041169e-07
-5.0419951e-07
-4.662429e-07
-5.0751379e-07
-3.1106168e-07
-5.1133378e-07
-1.5533721e-07
-5.1616927e-07
-5.2224919e-07
-2.1906468e-09
6.1131458e-09
-8.6624965e-09
1.8527128e-08
-1.9351472e-08
3.1264884e-08
-3.4200425e-08
4.4391387e-08
-5.3215949e-08
5.7841822e-08
-7.6437384e-08
7.1555091e-08
-1.0390906e-07
8.5505744e-08
-1.3567341e-07
9.9688108e-08
-1.7176848e-07
1.1410965e-07
-2.1222773e-07
1.2878378e-07
-2.5708063e-07
1.4372472e-07
-3.0635315e-07
1.5894449e-07
-3.6006785e-07
1.7445126e-07
-4.182437e-07
1.9024849e-07
-4.8089557e-07
2.0633453e-07
-5.4803359e-07
2.2270239e-07
-6.1966238e-07
2.3933972e-07
-6.9578026e-07
2.5622876e-07
-7.7637844e-07
2.7334644e-07
-8.6144014e-07
2.9066449e-07
-9.5093986e-07
3.0814962e-07
-1.0448425e-06
3.2576379e-07
-1.1431029e-06
3.4346439e-07
-1.2456647e-06
3.6120467e-07
-1.3524602e-06
3.7893404e-07
-1.4634091e-06
3.9659838e-07
-1.5784188e-06
4.1414036e-07
-1.697384e-06
4.3149982e-07
-1.8201865e-06
4.4861428e-07
-1.9466951e-06
4.6541958e-07
-2.076765e-06
4.8185044e-07
-2.2102384e-06
4.978408e-07
-2.3469446e-06
5.1332429e-07
-2.4866999e-06
5.2823485e-07
-2.6293086e-06
5.4250722e-07
-2.7745632e-06
5.5607762e-07
-2.9222442e-06
5.6888413e-07
-3.0721215e-06
5.8086717e-07
-3.2239547e-06
5.9196982e-07
-3.3774942e-06
6.0213807e-07
-3.5324824e-06
6.1132136e-07
-3.6886543e-06
6.19473e-07
-3.8457385e-06
6.2655052e-07
-4.0034583e-06
6.32516e-07
-4.1615328e-06
6.373363e-07
-4.3196776e-06
6.409832e-07
-4.4776065e-06
6.4343364e-07
-4.6350324e-06
6.4466975e-07
-4.7916681e-06
6.4467897e-07
-4.9472281e-06
6.4345409e-07
-5.101429e-06
6.4099316e-07
-5.2539911e-06
6.3729954e-07
-5.4046394e-06
6.3238173e-07
-5.5531044e-06
6.2625326e-07
-5.699123e-06
6.1893255e-07
-5.8424399e-06
6.104427e-07
-5.982808e-06
6.0081124e-07
-6.1199893e-06
5.9006991e-07
-6.2537559e-06
5.7825434e-07
-6.3838902e-06
5.6540387e-07
-6.5101859e-06
5.5156101e-07
-6.6324484e-06
5.3677139e-07
-6.750495e-06
5.2108316e-07
-6.8641556e-06
5.0454686e-07
-6.9732729e-06
4.8721496e-07
-7.0777025e-06
4.6914149e-07
-7.1773129e-06
4.5038185e-07
-7.2719862e-06
4.3099227e-07
-7.3616174e-06
4.1102963e-07
-7.4461145e-06
3.9055108e-07
-7.5253987e-06
3.6961375e-07
-7.5994038e-06
3.4827441e-07
-7.6680762e-06
3.2658928e-07
-7.7313746e-06
3.0461359e-07
-7.7892694e-06
2.8240154e-07
-7.8417428e-06
2.6000596e-07
-7.8887878e-06
2.3747818e-07
-7.9304084e-06
2.1486786e-07
-7.9666185e-06
1.9222289e-07
-7.997442e-06
1.6958929e-07
-8.0229117e-06
1.4701104e-07
-8.0430692e-06
1.2453015e-07
-8.0579643e-06
1.0218667e-07
-8.0676548e-06
8.0018981e-08
-8.0722067e-06
5.8064551e-08
-8.0716964e-06
3.6362562e-08
-8.0662307e-06
1.4971479e-08
-8.0557434e-06
-6.2055334e-09
-8.0404578e-06
-2.7117812e-08
-8.0204545e-06
-4.7662557e-08
-7.9958178e-06
-6.7829899e-08
-7.9666399e-06
-8.7607889e-08
-7.9330168e-06
-1.0698333e-07
-7.8950497e-06
-1.259452e-07
-7.8528431e-06
-1.444841e-07
-7.806503e-06
-1.6259195e-07
-7.7561367e-06
-1.8026183e-07
-7.7018516e-06
-1.9748826e-07
-7.6437556e-06
-2.1426728e-07
-7.5819561e-06
-2.3059664e-07
-7.5165604e-06
-2.4647537e-07
-7.447675e-06
-2.6190402e-07
-7.3754057e-06
-2.7688443e-07
-7.2998566e-06
-2.914196e-07
-7.2211309e-06
-3.0551371e-07
-7.1393298e-06
-3.1917195e-07
-7.0545529e-06
-3.3240048e-07
-6.9668978e-06
-3.4520631e-07
-6.8764599e-06
-3.5759726e-07
-6.7833323e-06
-3.695818e-07
-6.6876059e-06
-3.8116911e-07
-6.589369e-06
-3.9236882e-07
-6.4887074e-06
-4.0319112e-07
-6.3857041e-06
-4.1364654e-07
-6.2804396e-06
-4.2374601e-07
-6.1729917e-06
-4.3350073e-07
-6.0634351e-06
-4.4292215e-07
-5.951842e-06
-4.5202191e-07
-5.8382817e-06
-4.6081175e-07
-5.7228206e-06
-4.6930353e-07
-5.6055225e-06
-4.7750912e-07
-5.4864481e-06
-4.8544043e-07
-5.3656555e-06
-4.9310932e-07
-5.2432e-06
-5.0052763e-07
-5.119134e-06
-5.0770702e-07
-4.9935075e-06
-5.146591e-07
-4.8663677e-06
-5.2139531e-07
-4.7377591e-06
-5.2792692e-07
-4.6077237e-06
-5.3426502e-07
-4.476301e-06
-5.404205e-07
-4.3435281e-06
-5.4640393e-07
-4.2094397e-06
-5.5222574e-07
-4.0740681e-06
-5.5789612e-07
-3.9374433e-06
-5.6342487e-07
-3.7995932e-06
-5.688216e-07
-3.6605435e-06
-5.7409557e-07
-3.520318e-06
-5.792558e-07
-3.3789384e-06
-5.8431086e-07
-3.2364243e-06
-5.8926915e-07
-3.0927938e-06
-5.9413859e-07
-2.9480631e-06
-5.9892678e-07
-2.8022466e-06
-6.0364088e-07
-2.6553572e-06
-6.0828776e-07
-2.5074063e-06
-6.1287369e-07
-2.3584035e-06
-6.1740446e-07
-2.2083572e-06
-6.2188535e-07
-2.057274e-06
-6.2632104e-07
-1.9051592e-06
-6.3071536e-07
-1.752016e-06
-6.3507142e-07
-1.5978452e-06
-6.3939129e-07
-1.4426444e-06
-6.4367613e-07
-1.2864064e-06
-6.4792682e-07
-1.1291177e-06
-6.5214566e-07
-9.7075662e-07
-6.5634065e-07
-8.1129533e-07
-6.6053474e-07
-6.5071177e-07
-6.6478307e-07
-4.8902622e-07
-6.6919935e-07
-3.2638246e-07
-6.7397755e-07
-1.6317077e-07
-6.7938096e-07
-6.8541993e-07
-2.2748428e-09
8.3879886e-09
-9.0319991e-09
2.5284284e-08
-2.0214419e-08
4.2447303e-08
-3.5770853e-08
5.9947822e-08
-5.5698189e-08
7.7769157e-08
-8.0023376e-08
9.5880278e-08
-1.0878262e-07
1.1426498e-07
-1.4201386e-07
1.3291935e-07
-1.7975308e-07
1.5184888e-07
-2.2203295e-07
1.7106365e-07
-2.6888252e-07
1.9057429e-07
-3.2032723e-07
2.103892e-07
-3.7638875e-07
2.3051278e-07
-4.3708467e-07
2.509444e-07
-5.0242797e-07
2.7167783e-07
-5.724264e-07
2.9270082e-07
-6.4708171e-07
3.1399503e-07
-7.2638887e-07
3.3553593e-07
-8.1033527e-07
3.5729283e-07
-8.9889983e-07
3.7922906e-07
-9.9205232e-07
4.013021e-07
-1.0897524e-06
4.2346391e-07
-1.1919492e-06
4.4566118e-07
-1.2985803e-06
4.6783574e-07
-1.4095712e-06
4.8992495e-07
-1.524835e-06
5.1186214e-07
-1.6442716e-06
5.3357706e-07
-1.7677682e-06
5.5499633e-07
-1.895198e-06
5.7604414e-07
-2.0264212e-06
5.9664278e-07
-2.1612841e-06
6.1671331e-07
-2.2996194e-06
6.3617616e-07
-2.4412468e-06
6.5495166e-07
-2.5859727e-06
6.7296073e-07
-2.733591e-06
6.9012555e-07
-2.8838835e-06
7.0637014e-07
-3.0366204e-06
7.2162096e-07
-3.1915606e-06
7.3580744e-07