/*--------------------------------*- C++ -*----------------------------------*\
| =========                 |                                                 |
| \\      /  F ield         | OpenFOAM: The Open Source CFD Toolbox           |
|  \\    /   O peration     | Version:  2306                                  |
|   \\  /    A nd           | Website:  www.openfoam.com                      |
|    \\/     M anipulation  |                                                 |
\*---------------------------------------------------------------------------*/
FoamFile
{
    version     2.0;
    format      ascii;
    arch        "LSB;label=32;scalar=64";
    class       volVectorField;
    location    "0.41";
    object      U_0;
}
// * * * * * * * * * * * * * * * * * * * * * * * * * * * * * * * * * * * * * //

dimensions      [0 1 -1 0 0 0 0];

internalField   nonuniform List<vector> 
51200
(
(1.1255192e-05 -1.9096509e-05 -2.3996048e-20)
(2.178368e-05 -1.7360768e-05 -1.8270211e-21)
(3.1996916e-05 -1.627045e-05 1.5884495e-21)
(4.0718705e-05 -1.5227051e-05 1.0784554e-20)
(4.8170126e-05 -1.4608162e-05 7.2322619e-21)
(5.5040631e-05 -1.4230248e-05 -7.6044109e-21)
(6.1506e-05 -1.3947664e-05 -1.127395e-21)
(6.7666331e-05 -1.3705986e-05 7.2636854e-21)
(7.3526607e-05 -1.3472709e-05 9.8535207e-21)
(7.906012e-05 -1.3232559e-05 6.9646375e-21)
(8.4227386e-05 -1.2978475e-05 1.0997673e-20)
(8.8983267e-05 -1.2708232e-05 3.2856326e-20)
(9.3281985e-05 -1.242137e-05 2.8902098e-20)
(9.7081561e-05 -1.2117747e-05 -7.4733027e-21)
(0.00010034754 -1.1797351e-05 -9.1497872e-21)
(0.00010304277 -1.1463545e-05 2.2608649e-20)
(0.00010514036 -1.111245e-05 4.2400167e-20)
(0.00010661778 -1.0749216e-05 4.9979171e-21)
(0.00010745019 -1.0373224e-05 -2.8555597e-20)
(0.00010762433 -9.9851038e-06 -3.2362303e-21)
(0.00010712459 -9.588227e-06 1.195432e-20)
(0.00010594259 -9.1808278e-06 2.0475255e-20)
(0.00010407676 -8.7670891e-06 6.0495627e-20)
(0.00010152626 -8.3501483e-06 8.495705e-20)
(9.8309799e-05 -7.9372922e-06 5.8632604e-20)
(9.4418317e-05 -7.5589139e-06 -1.1853613e-19)
(8.9823392e-05 -7.1982673e-06 -2.4591029e-19)
(8.4550633e-05 -6.8291834e-06 -8.4101687e-20)
(7.8638575e-05 -6.4569695e-06 7.0528611e-20)
(7.2090265e-05 -6.0894748e-06 1.6630649e-19)
(6.4912468e-05 -5.7194013e-06 1.3350718e-19)
(5.7156321e-05 -5.3409333e-06 -7.16896e-20)
(4.8836233e-05 -4.9734785e-06 -9.0126369e-20)
(3.9988317e-05 -4.6008651e-06 -1.1523246e-19)
(3.0641209e-05 -4.2483985e-06 -4.2643504e-20)
(2.0806973e-05 -3.9006922e-06 1.6588535e-19)
(1.0532551e-05 -3.5644766e-06 -7.990661e-20)
(-1.9114744e-07 -3.2401276e-06 -3.828699e-19)
(-1.128712e-05 -2.900876e-06 1.1541163e-19)
(-2.2684135e-05 -2.577834e-06 4.8390187e-19)
(-3.4381882e-05 -2.2679099e-06 7.8737627e-20)
(-4.6340707e-05 -1.9702555e-06 -1.8999653e-19)
(-5.8521215e-05 -1.6847293e-06 -7.2297513e-20)
(-7.0884008e-05 -1.4114486e-06 2.7563659e-20)
(-8.338978e-05 -1.1505973e-06 1.3402828e-19)
(-9.5999433e-05 -9.0235504e-07 2.9314154e-19)
(-0.00010867423 -6.6685517e-07 -2.2710736e-19)
(-0.00012137597 -4.4418178e-07 -1.7328624e-19)
(-0.00013406714 -2.3436747e-07 -1.0236194e-19)
(-0.00014671106 -3.7383852e-08 -6.4731396e-19)
(-0.00015927207 1.4683417e-07 2.8858463e-19)
(-0.00017171561 3.1841542e-07 5.5706337e-19)
(-0.00018400839 4.7753523e-07 1.1221417e-19)
(-0.00019611849 6.2440174e-07 1.6663465e-19)
(-0.00020801546 7.5927092e-07 -6.2072894e-19)
(-0.00021967043 8.8243839e-07 -4.8935037e-19)
(-0.00023105615 9.9422105e-07 4.0229009e-19)
(-0.0002421471 1.0949773e-06 1.7757198e-19)
(-0.00025291951 1.1850793e-06 -2.6680445e-20)
(-0.00026335142 1.264935e-06 7.3878135e-20)
(-0.0002734227 1.3349588e-06 -4.4008592e-20)
(-0.00028311506 1.3955915e-06 7.8904642e-20)
(-0.00029241209 1.4472703e-06 -3.4355497e-20)
(-0.00030129922 1.4904629e-06 -4.0849388e-19)
(-0.00030976371 1.525628e-06 -4.9978784e-19)
(-0.00031779465 1.5532293e-06 1.1310755e-19)
(-0.0003253829 1.5737349e-06 8.2238488e-19)
(-0.00033252105 1.5876059e-06 1.0220791e-20)
(-0.00033920341 1.5953122e-06 -3.4690102e-19)
(-0.00034542591 1.5973029e-06 3.5323968e-19)
(-0.00035118607 1.5940226e-06 -5.148486e-20)
(-0.00035648291 1.5859124e-06 -2.0793767e-19)
(-0.00036131689 1.5733911e-06 1.2645699e-19)
(-0.00036568985 1.5568692e-06 1.3744732e-19)
(-0.00036960491 1.5367417e-06 1.7304094e-19)
(-0.00037306636 1.5133805e-06 -2.7593328e-19)
(-0.00037607965 1.4871461e-06 -3.0648635e-19)
(-0.00037865122 1.45838e-06 1.9694463e-19)
(-0.00038078851 1.4273997e-06 2.8685441e-19)
(-0.00038249983 1.3945187e-06 -1.8194413e-19)
(-0.0003837943 1.3600322e-06 -5.9450943e-19)
(-0.00038468184 1.3242267e-06 2.7601545e-19)
(-0.00038517305 1.2873843e-06 4.9584656e-19)
(-0.00038527923 1.2497838e-06 -1.3990248e-20)
(-0.00038501224 1.2116785e-06 1.1938487e-19)
(-0.00038438445 1.1732751e-06 -1.9126522e-19)
(-0.00038340857 1.1346895e-06 5.3050757e-20)
(-0.00038209739 1.0958802e-06 3.1650307e-20)
(-0.0003804635 1.0567766e-06 -3.9674e-19)
(-0.00037851862 1.0176888e-06 2.6891789e-20)
(-0.00037627333 9.8176762e-07 -2.596313e-19)
(-0.00037373922 9.5181269e-07 -1.5199e-19)
(-0.00037092945 9.4278741e-07 3.8926359e-19)
(-0.00036785769 9.4154211e-07 2.1945902e-19)
(-0.00036453589 9.3907685e-07 -5.7406286e-20)
(-0.00036096596 9.2936044e-07 -3.7752134e-19)
(-0.00035716944 8.9012438e-07 8.7558358e-20)
(-0.00035317639 8.3732359e-07 3.5199914e-19)
(-0.00034899365 7.8393283e-07 1.2642535e-19)
(-0.00034462685 7.3292653e-07 -1.5264277e-19)
(-0.00034008593 6.8481664e-07 -4.279027e-19)
(-0.00033538171 6.3943826e-07 1.3555257e-19)
(-0.00033052505 5.9650214e-07 2.3777036e-19)
(-0.00032552659 5.557658e-07 9.4606166e-20)
(-0.00032039664 5.170412e-07 -6.0774341e-20)
(-0.00031514513 4.8017939e-07 -4.4562305e-19)
(-0.00030978165 4.4507655e-07 1.1773311e-19)
(-0.00030431542 4.1164042e-07 3.287058e-19)
(-0.0002987553 3.7980093e-07 6.330874e-20)
(-0.00029310975 3.4949012e-07 4.1285518e-20)
(-0.00028738689 3.2065028e-07 -3.3057574e-19)
(-0.00028159448 2.9322342e-07 -1.7642922e-19)
(-0.0002757399 2.671664e-07 2.2189658e-19)
(-0.0002698302 2.4241953e-07 8.8546074e-20)
(-0.00026387206 2.1893971e-07 2.3978582e-20)
(-0.00025787183 1.9667837e-07 -6.9195542e-20)
(-0.00025183552 1.7558483e-07 3.4461658e-21)
(-0.0002457688 1.5562113e-07 1.1634156e-19)
(-0.00023967704 1.3673336e-07 -1.6922347e-20)
(-0.00023356529 1.1888019e-07 -1.8010226e-20)
(-0.00022743829 1.0202242e-07 -7.4557475e-20)
(-0.00022130049 8.6109184e-08 7.1872802e-21)
(-0.00021515608 7.1105862e-08 9.671317e-20)
(-0.00020900893 5.6960309e-08 1.7612618e-20)
(-0.00020286269 4.3647071e-08 -4.048557e-20)
(-0.00019672074 3.1122683e-08 -1.4342139e-19)
(-0.00019058622 1.9335695e-08 -6.3434627e-24)
(-0.00018446201 8.260842e-09 1.3365528e-19)
(-0.00017835082 -2.1409681e-09 4.0974225e-20)
(-0.00017225509 -1.1905094e-08 -4.069179e-20)
(-0.00016617711 -2.1068296e-08 -8.0955698e-20)
(-0.00016011894 -2.9665256e-08 2.4278722e-20)
(-0.00015408246 -3.7724258e-08 7.6838722e-20)
(-0.00014806939 -4.5285029e-08 -1.7068215e-20)
(-0.00014208128 -5.2368989e-08 -8.015822e-20)
(-0.00013611952 -5.9011314e-08 -2.952476e-20)
(-0.00013018536 -6.524317e-08 6.038741e-20)
(-0.0001242799 -7.1080427e-08 3.4439612e-20)
(-0.00011840412 -7.6555391e-08 7.5095989e-21)
(-0.00011255889 -8.1684946e-08 -2.0608497e-21)
(-0.00010674493 -8.6480814e-08 -3.251162e-20)
(-0.0001009629 -9.09486e-08 2.3637857e-20)
(-9.5213349e-05 -9.5080749e-08 2.1198788e-20)
(-8.9496731e-05 -9.8857721e-08 -1.3608094e-20)
(-8.3813447e-05 -1.022313e-07 2.5127637e-22)
(-7.8163852e-05 -1.0516793e-07 -4.9757621e-20)
(-7.2548272e-05 -1.076625e-07 -8.5636587e-21)
(-6.6967033e-05 -1.097164e-07 6.048379e-20)
(-6.1420517e-05 -1.1131354e-07 1.677653e-20)
(-5.5909248e-05 -1.1239897e-07 -2.1258692e-20)
(-5.0434095e-05 -1.1281734e-07 -3.2563362e-20)
(-4.499664e-05 -1.1220639e-07 -2.8608341e-21)
(-3.9599892e-05 -1.0973252e-07 2.6831311e-20)
(-3.4249655e-05 -1.0357304e-07 7.783881e-21)
(-2.8956822e-05 -9.0026851e-08 -4.0810214e-21)
(-2.374012e-05 -6.2769831e-08 -9.3780773e-21)
(-1.8626024e-05 -1.6443593e-08 -4.3978251e-21)
(-1.3634367e-05 2.7869547e-08 5.1663006e-21)
(-8.6892376e-06 -1.117253e-07 2.3655578e-21)
(-3.1285586e-06 -9.3438667e-07 -1.7775627e-21)
(6.4952263e-07 -4.1634894e-05 1.6480182e-20)
(-2.3193499e-06 -3.387997e-05 -2.5815305e-21)
(-7.4635603e-06 -2.9460384e-05 1.3223506e-21)
(-1.4325082e-05 -2.5128878e-05 2.7091723e-20)
(-2.3321842e-05 -2.2104183e-05 1.0927717e-20)
(-3.3280178e-05 -2.0073991e-05 -2.089108e-20)
(-4.4017892e-05 -1.8560112e-05 8.141817e-21)
(-5.5339657e-05 -1.7298889e-05 4.8027891e-21)
(-6.7186706e-05 -1.6141147e-05 1.1241809e-20)
(-7.9556697e-05 -1.5003712e-05 5.2280767e-20)
(-9.2476498e-05 -1.384336e-05 5.4600009e-20)
(-0.00010598808 -1.2639996e-05 8.7310053e-20)
(-0.00012013779 -1.1384794e-05 1.0902619e-19)
(-0.00013496967 -1.0074324e-05 7.6131531e-20)
(-0.00015052207 -8.7086348e-06 4.4016303e-20)
(-0.00016683037 -7.2945321e-06 7.3114225e-20)
(-0.00018392206 -5.8291213e-06 1.2254732e-19)
(-0.00020181835 -4.3237253e-06 2.8898723e-20)
(-0.0002205365 -2.781431e-06 -1.1888023e-19)
(-0.00024008496 -1.2074787e-06 -6.5319406e-20)
(-0.00026046814 3.8869298e-07 1.4842705e-20)
(-0.00028168347 2.0051671e-06 4.6525884e-20)
(-0.00030372218 3.6316988e-06 1.3800163e-19)
(-0.00032657316 5.2602327e-06 2.4228493e-19)
(-0.00035022589 6.8798757e-06 5.0843282e-20)
(-0.0003746433 8.4615966e-06 -4.2642636e-19)
(-0.00039977766 1.0009764e-05 -4.0699904e-19)
(-0.00042560007 1.1541093e-05 -1.6405022e-19)
(-0.00045207744 1.3043893e-05 -1.0093097e-19)
(-0.00047916945 1.4505068e-05 4.777737e-19)
(-0.00050682882 1.593039e-05 5.3217416e-19)
(-0.0005349968 1.7322634e-05 -3.3627982e-19)
(-0.00056361752 1.8655101e-05 -6.0025177e-19)
(-0.00059263002 1.994326e-05 -1.5666945e-19)
(-0.00062197225 2.1154621e-05 4.7944927e-19)
(-0.00065158324 2.2303378e-05 3.1124376e-19)
(-0.00068139622 2.3379025e-05 -5.0518288e-19)
(-0.00071135249 2.437933e-05 -7.2756988e-19)
(-0.00074137247 2.5336055e-05 3.6728854e-19)
(-0.00077137431 2.6210801e-05 5.9739284e-19)
(-0.00080129344 2.7004458e-05 -6.964742e-19)
(-0.00083106059 2.7716806e-05 -1.5998798e-19)
(-0.00086060554 2.8347389e-05 1.3527378e-18)
(-0.00088985828 2.8895843e-05 1.8343874e-18)
(-0.00091874967 2.9362047e-05 -8.6441653e-20)
(-0.00094721191 2.9746166e-05 -2.7861355e-18)
(-0.0009751788 3.0048719e-05 -1.571604e-18)
(-0.0010025861 3.0270568e-05 1.1203612e-18)
(-0.0010293719 3.0412897e-05 1.2169439e-18)
(-0.0010554767 3.0477229e-05 -6.0817498e-19)
(-0.0010808436 3.0465358e-05 -1.0862296e-18)
(-0.0011054189 3.0379395e-05 1.2925095e-18)
(-0.0011291519 3.0221696e-05 1.6152831e-18)
(-0.0011519952 2.9994845e-05 -3.0782213e-19)
(-0.0011739048 2.9701648e-05 -1.049483e-18)
(-0.0011948403 2.9345109e-05 -1.1296889e-18)
(-0.0012147648 2.8928391e-05 -1.8267799e-19)
(-0.0012336454 2.8454788e-05 1.1038515e-18)
(-0.0012514526 2.7927717e-05 4.5213055e-19)
(-0.0012681608 2.7350701e-05 -1.0727975e-18)
(-0.0012837483 2.6727303e-05 -4.0956876e-19)
(-0.0012981968 2.6061153e-05 1.2160439e-18)
(-0.001311492 2.5355886e-05 2.8177823e-19)
(-0.0013236231 2.4615169e-05 -1.5654507e-18)
(-0.0013345829 2.3842626e-05 -9.2137891e-19)
(-0.0013443675 2.3041851e-05 9.45139e-19)
(-0.0013529765 2.2216392e-05 1.2642183e-18)
(-0.0013604127 2.1369717e-05 2.5751633e-19)
(-0.0013666818 2.0505232e-05 -7.2035147e-19)
(-0.0013717928 1.9626226e-05 -1.3360004e-18)
(-0.0013757571 1.8735893e-05 1.0334593e-19)
(-0.0013785889 1.7837313e-05 1.0455082e-18)
(-0.0013803049 1.6933419e-05 1.1445626e-19)
(-0.0013809241 1.6027014e-05 1.9637844e-19)
(-0.0013804675 1.5120762e-05 3.5417057e-19)
(-0.001378958 1.4217159e-05 1.561867e-19)
(-0.0013764204 1.3318566e-05 -5.3338967e-19)
(-0.0013728811 1.2427202e-05 -8.7399107e-19)
(-0.0013683677 1.1545143e-05 1.1949806e-20)
(-0.0013629092 1.0674349e-05 3.7829781e-19)
(-0.0013565357 9.8166492e-06 6.9711476e-20)
(-0.0013492783 8.9737761e-06 1.7677374e-19)
(-0.0013411688 8.1473484e-06 1.6853246e-19)
(-0.0013322397 7.3388871e-06 -6.1624411e-19)
(-0.001322524 6.5497728e-06 -8.6312653e-20)
(-0.0013120551 5.7812329e-06 5.4721803e-19)
(-0.0013008663 5.0342341e-06 -2.482272e-19)
(-0.0012889905 4.3094324e-06 3.2054223e-19)
(-0.0012764597 3.6071071e-06 2.0732974e-19)
(-0.0012633021 2.9247931e-06 -7.0552918e-19)
(-0.0012495458 2.2575605e-06 -4.927427e-19)
(-0.0012352117 1.6083835e-06 -6.4195497e-20)
(-0.0012203509 9.6629624e-07 4.5128861e-19)
(-0.0012050194 3.4518105e-07 7.9076061e-20)
(-0.001189238 -2.4919708e-07 -1.4332888e-19)
(-0.0011730382 -8.1976306e-07 4.6095309e-20)
(-0.0011564367 -1.3796816e-06 1.888337e-19)
(-0.0011394454 -1.9230296e-06 3.7237432e-19)
(-0.0011220998 -2.4437551e-06 -2.7660387e-19)
(-0.0011044336 -2.9406968e-06 -5.6907582e-19)
(-0.0010864744 -3.414025e-06 -3.9068491e-20)
(-0.0010682481 -3.8643575e-06 4.273082e-19)
(-0.0010497789 -4.2924255e-06 3.6363321e-19)
(-0.0010310905 -4.6989611e-06 -1.2486824e-19)
(-0.0010122054 -5.0846893e-06 -3.68067e-19)
(-0.00099314533 -5.4503233e-06 -2.3983446e-19)
(-0.00097393096 -5.7965389e-06 2.4104832e-19)
(-0.00095458217 -6.1240207e-06 5.8720764e-19)
(-0.00093511786 -6.4334437e-06 5.5613951e-20)
(-0.00091555606 -6.7254699e-06 -3.9510881e-19)
(-0.00089591386 -7.0007573e-06 -1.886085e-19)
(-0.00087620749 -7.2599672e-06 -1.3663211e-19)
(-0.00085645231 -7.5037401e-06 3.3427983e-19)
(-0.0008366628 -7.7327157e-06 4.6256196e-19)
(-0.00081685262 -7.9475294e-06 -2.1793595e-19)
(-0.00079703463 -8.1487974e-06 -4.3230727e-19)
(-0.00077722088 -8.3371357e-06 -9.5487813e-20)
(-0.00075742266 -8.5131319e-06 3.9478106e-19)
(-0.0007376505 -8.6773857e-06 1.2240077e-19)
(-0.00071791423 -8.8304551e-06 -4.8096984e-19)
(-0.00069822296 -8.9728982e-06 -1.481095e-19)
(-0.00067858516 -9.1052654e-06 4.4019732e-19)
(-0.00065900862 -9.2280659e-06 3.5641202e-19)
(-0.00063950053 -9.3418292e-06 -2.3747299e-19)
(-0.00062006748 -9.4470275e-06 -5.3877586e-19)
(-0.0006007155 -9.5441431e-06 -4.3881939e-20)
(-0.00058145005 -9.6336447e-06 3.9458073e-19)
(-0.00056227611 -9.7159618e-06 2.1587115e-19)
(-0.00054319814 -9.7915246e-06 -8.0929574e-20)
(-0.00052422012 -9.8607304e-06 -2.3476221e-19)
(-0.00050534561 -9.9239775e-06 -9.8527105e-20)
(-0.00048657773 -9.9816372e-06 2.5880967e-19)
(-0.00046791921 -1.003406e-05 2.7316463e-19)
(-0.00044937238 -1.0081592e-05 -6.1073249e-20)
(-0.00043093924 -1.012454e-05 -2.9848837e-19)
(-0.00041262145 -1.0163223e-05 -6.7803886e-20)
(-0.00039442034 -1.0197926e-05 1.8040398e-19)
(-0.00037633696 -1.0228914e-05 8.2184254e-20)
(-0.00035837207 -1.0256459e-05 -1.1585717e-20)
(-0.00034052618 -1.0280803e-05 -4.8625995e-20)
(-0.00032279957 -1.0302176e-05 -3.4918853e-20)
(-0.00030519229 -1.0320803e-05 6.100196e-21)
(-0.00028770419 -1.0336904e-05 4.7391762e-20)
(-0.00027033497 -1.0350692e-05 -2.5749927e-20)
(-0.00025308421 -1.0362357e-05 -9.7327981e-20)
(-0.00023595145 -1.037207e-05 -2.4300521e-20)
(-0.00021893616 -1.0379913e-05 8.1383411e-20)
(-0.00020203778 -1.0385867e-05 9.2842707e-20)
(-0.0001852558 -1.0389774e-05 -3.0486959e-20)
(-0.00016858994 -1.0391235e-05 -9.5639519e-20)
(-0.00015204033 -1.0389387e-05 -8.149642e-21)
(-0.00013560796 -1.0382534e-05 6.0518252e-20)
(-0.00011929509 -1.0367492e-05 3.6575056e-20)
(-0.00010310591 -1.0338697e-05 -1.3075188e-20)
(-8.704649e-05 -1.0287646e-05 -2.6145987e-20)
(-7.1122337e-05 -1.0205455e-05 -3.7355604e-21)
(-5.5327936e-05 -1.0098512e-05 1.3890083e-20)
(-3.9620237e-05 -1.0040974e-05 1.2737549e-20)
(-2.389558e-05 -1.0290931e-05 4.6149084e-21)
(-7.9864471e-06 -1.1341144e-05 3.6819826e-21)
(-1.7474994e-05 -1.4607297e-05 -1.4044362e-21)
(-4.2241688e-05 -3.7071321e-06 -3.5305002e-20)
(-7.0907286e-05 3.3998048e-06 -4.5499195e-20)
(-9.9695312e-05 1.0456769e-05 -2.5044072e-20)
(-0.00013071908 1.5776607e-05 4.9714062e-21)
(-0.00016255591 1.9577735e-05 -4.1124202e-20)
(-0.00019514999 2.2514657e-05 -3.0521653e-21)
(-0.00022836965 2.498945e-05 -6.7534991e-21)
(-0.00026216004 2.724859e-05 5.3699108e-20)
(-0.00029649292 2.9438238e-05 1.5229339e-19)
(-0.00033136531 3.1639298e-05 1.1128372e-19)
(-0.00036678946 3.3893333e-05 1.2725619e-19)
(-0.00040278415 3.6219996e-05 6.4932197e-20)
(-0.00043936866 3.8626243e-05 1.2128713e-19)
(-0.00047655943 4.111126e-05 1.8029094e-19)
(-0.00051437037 4.3668307e-05 9.0463973e-20)
(-0.00055280934 4.629043e-05 9.919664e-20)
(-0.0005918786 4.8965343e-05 -5.3869714e-21)
(-0.00063157585 5.1681705e-05 -9.231736e-20)
(-0.00067189139 5.4426893e-05 2.1563961e-20)
(-0.0007128105 5.7186891e-05 7.8715776e-20)
(-0.00075431199 5.9949164e-05 8.1628426e-20)
(-0.00079636867 6.2699257e-05 1.4500695e-19)
(-0.00083894949 6.5423652e-05 1.3450769e-19)
(-0.00088201841 6.8110631e-05 -1.1050746e-19)
(-0.00092552952 7.0755505e-05 -1.7764897e-19)
(-0.00096942897 7.3336699e-05 -1.0437872e-19)
(-0.0010136608 7.5834993e-05 -2.0300845e-19)
(-0.001058167 7.8236636e-05 -2.4981465e-19)
(-0.0011028877 8.0529776e-05 1.3080042e-19)
(-0.0011477571 8.2706301e-05 2.9051561e-19)
(-0.0011927012 8.4757444e-05 -1.6301385e-19)
(-0.0012376461 8.6670711e-05 -4.0531756e-19)
(-0.0012825148 8.8439541e-05 -2.2396149e-19)
(-0.001327229 9.0052166e-05 2.8562182e-19)
(-0.0013717103 9.150343e-05 3.9540323e-19)
(-0.0014158768 9.2786529e-05 -1.013688e-19)
(-0.0014596471 9.389766e-05 -2.1591557e-19)
(-0.0015029342 9.4841267e-05 -1.0488869e-19)
(-0.001545651 9.5607226e-05 -4.0002069e-19)
(-0.0015877155 9.6191656e-05 -4.2757445e-19)
(-0.0016290461 9.6592887e-05 5.2263693e-19)
(-0.0016695625 9.6810453e-05 1.0814898e-18)
(-0.0017091854 9.6844807e-05 8.8541502e-19)
(-0.0017478378 9.6697247e-05 -1.7578552e-19)
(-0.0017854449 9.6369847e-05 -1.9426252e-18)
(-0.0018219349 9.5865473e-05 -8.7783127e-19)
(-0.001857239 9.5187726e-05 5.5101271e-19)
(-0.0018912917 9.4340898e-05 8.050198e-19)
(-0.0019240314 9.3329951e-05 8.052916e-19)
(-0.0019554002 9.2160448e-05 -8.8496554e-19)
(-0.0019853445 9.0838519e-05 -1.7002534e-19)
(-0.0020138149 8.9370794e-05 9.505816e-19)
(-0.0020407665 8.7764347e-05 -1.0073895e-19)
(-0.0020661589 8.6026657e-05 -2.1080329e-19)
(-0.0020899566 8.4165539e-05 -3.710471e-19)
(-0.0021121285 8.2189105e-05 -3.4815687e-19)
(-0.0021326484 8.0105661e-05 4.9622939e-19)
(-0.0021514949 7.7923711e-05 1.1751204e-19)
(-0.0021686512 7.5651881e-05 -7.8295604e-19)
(-0.0021841053 7.329883e-05 -1.9596369e-19)
(-0.0021978497 7.0873264e-05 5.6777333e-19)
(-0.0022098815 6.838384e-05 -3.3292856e-20)
(-0.002220202 6.5839155e-05 -3.7391964e-19)
(-0.0022288171 6.3247666e-05 3.7213196e-19)
(-0.0022357364 6.0617682e-05 3.9616276e-19)
(-0.0022409737 5.7957323e-05 -2.5638307e-19)
(-0.0022445463 5.5274468e-05 -1.8252873e-19)
(-0.0022464753 5.2576756e-05 -1.1389324e-19)
(-0.002246785 4.9871542e-05 -6.0538729e-19)
(-0.0022455029 4.7165877e-05 -9.5703829e-20)
(-0.0022426594 4.4466496e-05 3.6094057e-19)
(-0.0022382874 4.1779763e-05 2.2927934e-20)
(-0.0022324226 3.9111699e-05 3.0420428e-19)
(-0.0022251027 3.6467944e-05 2.5178487e-19)
(-0.0022163674 3.3853754e-05 3.2569006e-19)
(-0.0022062583 3.1274007e-05 -6.5210465e-20)
(-0.0021948184 2.8733227e-05 -9.1868949e-19)
(-0.0021820921 2.623558e-05 -2.8018333e-19)
(-0.0021681249 2.3784884e-05 6.7314667e-19)
(-0.0021529632 2.1384621e-05 3.7070154e-19)
(-0.0021366543 1.9037957e-05 -5.7457032e-19)
(-0.0021192458 1.6747735e-05 -4.3711004e-19)
(-0.0021007859 1.4516478e-05 -2.5076696e-19)
(-0.0020813229 1.2346344e-05 -1.7342089e-19)
(-0.0020609051 1.0239089e-05 2.7348216e-19)
(-0.0020395808 8.1958775e-06 -9.7217697e-20)
(-0.0020173978 6.2167273e-06 2.4084872e-19)
(-0.0019944061 4.3016e-06 5.9196993e-19)
(-0.0019706559 2.4366774e-06 -2.8403087e-19)
(-0.001946184 6.4682648e-07 -4.6743445e-19)
(-0.0019210397 -1.0796056e-06 -2.7296636e-20)
(-0.0018952578 -2.7639568e-06 1.5771357e-19)
(-0.0018688666 -4.3945819e-06 -1.6785566e-19)
(-0.0018419246 -5.9616857e-06 1.1366484e-20)
(-0.0018144818 -7.460313e-06 4.841603e-19)
(-0.0017865798 -8.8793154e-06 -1.3239375e-20)
(-0.0017582554 -1.0228315e-05 -2.5779497e-19)
(-0.001729544 -1.1514828e-05 -3.5944437e-19)
(-0.0017004815 -1.274151e-05 -1.3902729e-19)
(-0.001671103 -1.3909966e-05 4.1790073e-19)
(-0.0016414422 -1.502158e-05 2.4961786e-19)
(-0.0016115315 -1.6077758e-05 3.6013048e-20)
(-0.0015814019 -1.7079995e-05 -2.995231e-19)
(-0.001551083 -1.8029859e-05 -1.1594693e-19)
(-0.0015206032 -1.8928986e-05 3.6263098e-19)
(-0.0014899895 -1.9779037e-05 8.5360308e-20)
(-0.0014592675 -2.0581704e-05 2.3780296e-20)
(-0.0014284616 -2.1338709e-05 -9.3184695e-20)
(-0.001397595 -2.2051764e-05 -3.0578532e-19)
(-0.0013666894 -2.2722581e-05 5.746181e-20)
(-0.0013357656 -2.3352869e-05 1.3051631e-19)
(-0.0013048429 -2.3944326e-05 1.0852666e-19)
(-0.0012739396 -2.4498613e-05 2.3461888e-19)
(-0.0012430728 -2.5017392e-05 -1.1753199e-19)
(-0.0012122585 -2.5502277e-05 -3.5856951e-19)
(-0.0011815115 -2.595487e-05 -1.6020611e-19)
(-0.0011508459 -2.6376713e-05 1.6055167e-19)
(-0.0011202744 -2.6769348e-05 1.1397423e-19)
(-0.0010898089 -2.7134241e-05 -1.1982725e-19)
(-0.0010594605 -2.7472839e-05 3.2961027e-20)
(-0.0010292391 -2.7786549e-05 1.8053514e-19)
(-0.00099915402 -2.8076717e-05 7.2297443e-20)
(-0.00096921357 -2.8344665e-05 -1.8998979e-19)
(-0.00093942538 -2.8591659e-05 -2.2801776e-19)
(-0.00090979626 -2.8818922e-05 1.0150352e-19)
(-0.00088033234 -2.9027636e-05 2.1028617e-19)
(-0.00085103904 -2.9218923e-05 9.5021979e-20)
(-0.00082192115 -2.9393881e-05 -9.311659e-20)
(-0.00079298283 -2.9553544e-05 -1.0059183e-19)
(-0.00076422766 -2.9698911e-05 4.3036738e-20)
(-0.00073565867 -2.9830937e-05 7.743505e-20)
(-0.00070727836 -2.9950526e-05 1.0934906e-19)
(-0.00067908875 -3.0058545e-05 5.2171654e-20)
(-0.00065109139 -3.0155809e-05 -6.7926971e-20)
(-0.0006232874 -3.0243104e-05 -7.5182669e-20)
(-0.00059567751 -3.0321166e-05 1.4284528e-20)
(-0.00056826206 -3.0390692e-05 4.1584603e-20)
(-0.00054104104 -3.0452357e-05 -1.6178106e-20)
(-0.00051401412 -3.0506779e-05 -2.4677405e-20)
(-0.00048718071 -3.0554555e-05 -2.8791004e-21)
(-0.0004605399 -3.059625e-05 -4.4793832e-20)
(-0.00043409059 -3.0632412e-05 1.117002e-20)
(-0.00040783145 -3.0663551e-05 1.4177332e-20)
(-0.00038176096 -3.0690142e-05 -3.3886111e-20)
(-0.00035587741 -3.0712567e-05 2.4307525e-20)
(-0.00033017898 -3.0731058e-05 1.9596369e-20)
(-0.00030466381 -3.0745643e-05 6.7192632e-22)
(-0.00027933009 -3.0756108e-05 -2.3534603e-21)
(-0.00025417609 -3.0761827e-05 -7.0074214e-21)
(-0.0002292003 -3.076151e-05 3.662524e-20)
(-0.00020440151 -3.0752813e-05 3.1289845e-20)
(-0.00017977876 -3.0731884e-05 3.2881162e-21)
(-0.00015533087 -3.0693278e-05 -2.3669167e-20)
(-0.00013105508 -3.0631584e-05 -9.2430808e-21)
(-0.0001069436 -3.0548708e-05 2.3568103e-20)
(-8.2976266e-05 -3.0476288e-05 1.1678455e-20)
(-5.9107582e-05 -3.0529003e-05 1.0270904e-20)
(-3.5279349e-05 -3.0988392e-05 1.775717e-20)
(-1.1649329e-05 -3.2222217e-05 2.6855623e-20)
(-3.2618125e-05 6.6951899e-05 -2.0223877e-19)
(-7.5761317e-05 7.6821102e-05 -1.4759723e-19)
(-0.00012402715 8.4452708e-05 -8.3401447e-20)
(-0.00017070094 9.2238123e-05 -1.6168093e-19)
(-0.00021949032 9.8471709e-05 -1.0024168e-19)
(-0.00026872555 0.00010324424 -1.4241589e-19)
(-0.00031853935 0.00010711546 -1.0650103e-19)
(-0.00036890842 0.00011046726 -1.7653155e-20)
(-0.00041980611 0.00011355915 7.1990528e-20)
(-0.00047120154 0.00011655388 1.584176e-19)
(-0.00052307401 0.00011954649 1.4680147e-19)
(-0.00057541222 0.00012258837 1.1749399e-19)
(-0.0006282101 0.00012570409 2.300794e-20)
(-0.00068146296 0.00012890181 1.2168308e-19)
(-0.00073516501 0.00013217926 1.3264843e-19)
(-0.0007893087 0.00013552724 1.3616716e-20)
(-0.00084388238 0.00013893321 1.0691822e-19)
(-0.00089886999 0.00014238054 5.6673495e-20)
(-0.00095425123 0.00014585137 1.6762831e-20)
(-0.00101 0.00014932645 7.3758094e-20)
(-0.0010660854 0.00015278536 7.472898e-20)
(-0.0011224709 0.00015620777 6.8186269e-20)
(-0.0011791146 0.00015957252 7.2540906e-21)
(-0.0012359703 0.00016285896 -7.1016506e-20)
(-0.0012929861 0.00016604774 2.5361493e-20)
(-0.0013501038 0.00016912138 8.7128766e-21)
(-0.0014072597 0.00017206021 -2.5350645e-19)
(-0.001464386 0.00017484418 -1.2425468e-19)
(-0.0015214121 0.00017745409 6.9848568e-20)
(-0.0015782649 0.00017987271 1.0932206e-20)
(-0.0016348674 0.00018208576 -1.6954152e-19)
(-0.0016911376 0.00018407951 -1.7512076e-19)
(-0.0017469922 0.00018583932 1.5196056e-19)
(-0.0018023457 0.00018735387 1.1560441e-19)
(-0.0018571118 0.000188611 -2.1398864e-19)
(-0.0019112033 0.00018960249 -2.2973609e-19)
(-0.0019645318 0.00019032097 1.4157934e-19)
(-0.0020170086 0.00019076146 2.4665249e-19)
(-0.0020685435 0.00019092121 -1.8662474e-19)
(-0.0021190475 0.00019079533 -2.6137472e-19)
(-0.0021684339 0.00019038116 -4.5556859e-20)
(-0.0022166178 0.00018967797 1.6562396e-19)
(-0.0022635166 0.00018868673 2.9895476e-19)
(-0.0023090501 0.00018740986 8.2028845e-20)
(-0.0023531407 0.00018585114 2.1516651e-20)
(-0.0023957143 0.00018401561 -3.5843655e-19)
(-0.0024367002 0.0001819095 -3.5794193e-19)
(-0.0024760316 0.00017954018 9.5767587e-20)
(-0.0025136459 0.00017691607 2.2544261e-19)
(-0.0025494849 0.00017404657 5.2183837e-19)
(-0.0025834952 0.00017094197 2.3688419e-20)
(-0.0026156281 0.00016761338 -5.2397335e-19)
(-0.0026458399 0.0001640726 7.3219656e-20)
(-0.002674092 0.0001603321 2.6249307e-19)
(-0.0027003511 0.00015640487 -7.1154884e-20)
(-0.0027245892 0.00015230434 -2.5611665e-19)
(-0.0027467833 0.00014804433 -1.8948456e-19)
(-0.002766916 0.00014363887 1.387047e-19)
(-0.0027849751 0.00013910223 2.1560169e-20)
(-0.0028009534 0.00013444875 -3.5065307e-19)
(-0.0028148489 0.00012969276 -4.1034377e-20)
(-0.0028266647 0.00012484857 2.9810697e-19)
(-0.0028364086 0.00011993032 4.4273329e-20)
(-0.0028440931 0.00011495197 -1.0733382e-19)
(-0.0028497354 0.00010992716 1.0371514e-19)
(-0.0028533567 0.00010486924 1.2665285e-19)
(-0.0028549826 9.9791171e-05 -2.5066243e-19)
(-0.0028546424 9.4705456e-05 -2.3402917e-19)
(-0.0028523692 8.962414e-05 -7.3613819e-20)
(-0.0028481995 8.4558757e-05 -7.1815728e-20)
(-0.0028421728 7.9520283e-05 4.1664286e-20)
(-0.0028343317 7.4519129e-05 4.3523717e-20)
(-0.0028247214 6.956508e-05 -1.1758002e-19)
(-0.0028133894 6.4667302e-05 -8.8587056e-20)
(-0.0028003855 5.9834316e-05 2.5584979e-19)
(-0.0027857613 5.5073989e-05 3.243142e-19)
(-0.00276957 5.0393537e-05 -2.9914955e-19)
(-0.0027518663 4.5799568e-05 -6.005582e-19)
(-0.0027327058 4.1298052e-05 -4.413539e-20)
(-0.0027121453 3.6894374e-05 1.8064628e-19)
(-0.002690242 3.2593313e-05 -1.3901217e-19)
(-0.0026670538 2.8399083e-05 -2.8348915e-19)
(-0.0026426389 2.4315323e-05 -1.8987369e-20)
(-0.0026170556 2.0345117e-05 1.5099987e-19)
(-0.002590362 1.6490923e-05 3.5340861e-20)
(-0.0025626166 1.275448e-05 -8.4642133e-20)
(-0.0025338778 9.1363995e-06 -2.9103215e-19)
(-0.0025042025 5.6360704e-06 -1.2598403e-19)
(-0.002473659 2.241694e-06 2.9560501e-19)
(-0.0024422713 -1.0082402e-06 3.0044415e-19)
(-0.0024100861 -4.1276087e-06 -8.3562702e-20)
(-0.0023771911 -7.1226196e-06 -3.5039866e-19)
(-0.0023436332 -9.9848494e-06 -8.446508e-20)
(-0.0023094557 -1.2729976e-05 1.734331e-19)
(-0.0022747041 -1.5365521e-05 1.9626069e-19)
(-0.0022394268 -1.7892187e-05 9.4896462e-20)
(-0.002203672 -2.0309662e-05 -2.3184848e-19)
(-0.0021674852 -2.2617997e-05 -1.7993402e-19)
(-0.0021309096 -2.4819112e-05 -1.5031104e-20)
(-0.0020939864 -2.691537e-05 1.7098003e-20)
(-0.0020567555 -2.8909334e-05 2.0915154e-19)
(-0.0020192552 -3.0803679e-05 8.030117e-20)
(-0.0019815223 -3.2601189e-05 -9.3488794e-20)
(-0.0019435917 -3.4304742e-05 -2.1085924e-21)
(-0.0019054969 -3.5917261e-05 1.861965e-19)
(-0.0018672698 -3.7441766e-05 1.4750074e-19)
(-0.0018289407 -3.8881288e-05 -8.7292238e-20)
(-0.0017905383 -4.0238888e-05 -1.0547008e-19)
(-0.0017520897 -4.1517643e-05 -9.6289177e-20)
(-0.0017136208 -4.2720624e-05 -1.5621147e-19)
(-0.0016751556 -4.3850891e-05 -1.4192421e-20)
(-0.001636717 -4.4911475e-05 1.3469885e-19)
(-0.0015983264 -4.5905376e-05 9.7553569e-20)
(-0.0015600038 -4.6835552e-05 7.6132197e-20)
(-0.0015217679 -4.7704915e-05 -2.3601229e-20)
(-0.0014836361 -4.851632e-05 -1.3262862e-19)
(-0.0014456245 -4.9272571e-05 -1.5688886e-19)
(-0.0014077482 -4.9976392e-05 -3.0862833e-20)
(-0.001370021 -5.063046e-05 7.1953974e-20)
(-0.0013324556 -5.1237367e-05 1.0494903e-19)
(-0.0012950635 -5.179963e-05 5.3311495e-20)
(-0.0012578555 -5.2319702e-05 -6.7535913e-20)
(-0.0012208411 -5.279995e-05 -3.6118046e-20)
(-0.0011840291 -5.3242663e-05 5.7103792e-20)
(-0.0011474272 -5.3650049e-05 9.2941547e-20)
(-0.0011110423 -5.4024239e-05 3.837433e-20)
(-0.0010748806 -5.436729e-05 -3.6252059e-20)
(-0.0010389475 -5.4681166e-05 -2.5618336e-21)
(-0.0010032474 -5.4967757e-05 -1.4929106e-20)
(-0.00096778446 -5.5228887e-05 3.5201653e-20)
(-0.00093256178 -5.5466279e-05 7.5371161e-20)
(-0.00089758205 -5.5681598e-05 1.2000517e-20)
(-0.00086284731 -5.5876421e-05 2.8602436e-20)
(-0.00082835907 -5.6052258e-05 2.4436072e-20)
(-0.00079411831 -5.6210537e-05 -2.041373e-20)
(-0.00076012555 -5.6352619e-05 -5.4694458e-20)
(-0.00072638083 -5.6479793e-05 -1.2659599e-20)
(-0.0006928838 -5.6593275e-05 -1.554608e-21)
(-0.00065963371 -5.6694219e-05 -2.2860624e-20)
(-0.00062662944 -5.6783687e-05 -1.0663781e-20)
(-0.00059386958 -5.686269e-05 1.6123682e-20)
(-0.00056135238 -5.6932156e-05 -4.3345999e-22)
(-0.00052907586 -5.6992931e-05 1.0593372e-20)
(-0.00049703777 -5.7045768e-05 6.0808541e-21)
(-0.00046523565 -5.7091316e-05 2.2442458e-21)
(-0.00043366685 -5.7130105e-05 2.392499e-20)
(-0.00040232856 -5.716256e-05 -1.9743853e-20)
(-0.00037121786 -5.7188894e-05 -7.1710911e-21)
(-0.00034033173 -5.7209037e-05 3.4283609e-20)
(-0.00030966707 -5.7222473e-05 4.2751611e-20)
(-0.00027922065 -5.7228037e-05 2.8912287e-20)
(-0.00024898896 -5.7223677e-05 6.7888667e-21)
(-0.00021896779 -5.720634e-05 8.9592131e-21)
(-0.00018915131 -5.7172556e-05 -2.3456075e-20)
(-0.00015953067 -5.7121124e-05 -1.0881297e-21)
(-0.00013009231 -5.7061044e-05 2.7216245e-20)
(-0.0001008164 -5.7030672e-05 1.0521448e-20)
(-7.1674653e-05 -5.7133298e-05 1.9875815e-20)
(-4.2655725e-05 -5.7578067e-05 2.6354928e-20)
(-1.4042201e-05 -5.8557229e-05 3.7788774e-20)
(-4.1866264e-05 0.00018375804 -4.9492328e-19)
(-9.6910805e-05 0.00019116724 -4.3172712e-19)
(-0.00015810324 0.00019804616 -2.3967868e-19)
(-0.00021652497 0.0002053163 -1.3615442e-19)