/*--------------------------------*- C++ -*----------------------------------*\
| =========                 |                                                 |
| \\      /  F ield         | OpenFOAM: The Open Source CFD Toolbox           |
|  \\    /   O peration     | Version:  2306                                  |
|   \\  /    A nd           | Website:  www.openfoam.com                      |
|    \\/     M anipulation  |                                                 |
\*---------------------------------------------------------------------------*/
FoamFile
{
    version     2.0;
    format      ascii;
    arch        "LSB;label=32;scalar=64";
    class       surfaceScalarField;
    location    "0.38";
    object      phi;
}
// * * * * * * * * * * * * * * * * * * * * * * * * * * * * * * * * * * * * * //

dimensions      [0 3 -1 0 0 0 0];

oriented        oriented;

internalField   nonuniform List<scalar> 
12640
(
1.7056848e-10
-1.705685e-10
4.0585574e-10
-2.3528719e-10
5.8127774e-10
-1.7542211e-10
5.4132805e-10
3.9949801e-11
2.2409422e-10
3.1723379e-10
-3.5006062e-10
5.7415488e-10
-1.1792279e-09
8.2916786e-10
-2.2708785e-09
1.0916505e-09
-3.6420356e-09
1.3711575e-09
-5.3175564e-09
1.675521e-09
-7.3277773e-09
2.010221e-09
-9.7067852e-09
2.3790085e-09
-1.2491581e-08
2.7847965e-09
-1.5721342e-08
3.2297597e-09
-1.943678e-08
3.7154385e-09
-2.3679601e-08
4.2428212e-09
-2.849198e-08
4.8123792e-09
-3.391609e-08
5.4241101e-09
-3.9993641e-08
6.0775527e-09
-4.676544e-08
6.7717999e-09
-5.4270957e-08
7.5055168e-09
-6.2547936e-08
8.276979e-09
-7.1631989e-08
9.0840521e-09
-8.1556219e-08
9.9242289e-09
-9.2350846e-08
1.0794628e-08
-1.0404288e-07
1.1692039e-08
-1.1665582e-07
1.2612936e-08
-1.3020934e-07
1.355352e-08
-1.447191e-07
1.4509754e-08
-1.6019647e-07
1.5477371e-08
-1.7664841e-07
1.6451945e-08
-1.9407731e-07
1.7428902e-08
-2.1248088e-07
1.8403566e-08
-2.3185207e-07
1.937119e-08
-2.5217907e-07
2.0326999e-08
-2.7344529e-07
2.1266217e-08
-2.9562939e-07
2.2184107e-08
-3.1870542e-07
2.3076025e-08
-3.4264285e-07
2.3937427e-08
-3.6740676e-07
2.4763915e-08
-3.9295803e-07
2.5551259e-08
-4.1925347e-07
2.6295443e-08
-4.4624615e-07
2.6992676e-08
-4.7388556e-07
2.7639407e-08
-5.0211794e-07
2.823239e-08
-5.3088658e-07
2.8768635e-08
-5.6013207e-07
2.9245486e-08
-5.8979267e-07
2.9660599e-08
-6.1980463e-07
3.0011961e-08
-6.5010255e-07
3.0297921e-08
-6.8061969e-07
3.0517143e-08
-7.1128834e-07
3.0668644e-08
-7.4204013e-07
3.0751798e-08
-7.7280644e-07
3.07663e-08
-8.0351863e-07
3.0712198e-08
-8.3410848e-07
3.0589858e-08
-8.6450843e-07
3.0399941e-08
-8.9465187e-07
3.014344e-08
-9.2447348e-07
2.9821616e-08
-9.5390948e-07
2.9435992e-08
-9.8289784e-07
2.898837e-08
-1.0113786e-06
2.848074e-08
-1.0392939e-06
2.7915337e-08
-1.0665885e-06
2.7294576e-08
-1.0932095e-06
2.662104e-08
-1.119107e-06
2.5897454e-08
-1.1442337e-06
2.5126681e-08
-1.1685454e-06
2.4311684e-08
-1.1920009e-06
2.3455514e-08
-1.2145621e-06
2.2561266e-08
-1.2361943e-06
2.163211e-08
-1.2568655e-06
2.0671231e-08
-1.2765473e-06
1.96818e-08
-1.2952143e-06
1.8666987e-08
-1.3128442e-06
1.7629907e-08
-1.3294178e-06
1.6573647e-08
-1.344919e-06
1.5501211e-08
-1.3593346e-06
1.4415589e-08
-1.3726544e-06
1.3319747e-08
1.2216656e-08
-6.4255526e-10
4.7198677e-10
-2.7763091e-09
1.8984667e-09
-6.5653887e-09
3.6136575e-09
-1.2198198e-08
5.6727588e-09
-1.9729634e-08
7.8486701e-09
-2.9185809e-08
1.0030329e-08
-4.0575034e-08
1.2218393e-08
-5.3906721e-08
1.4423337e-08
-6.9195214e-08
1.665965e-08
-8.6460788e-08
1.8941096e-08
-1.0572894e-07
2.127837e-08
-1.2702903e-07
2.3679098e-08
-1.5039276e-07
2.6148533e-08
-1.7585297e-07
2.8689963e-08
-2.0344255e-07
3.1305022e-08
-2.331936e-07
3.3993871e-08
-2.6513656e-07
3.6755344e-08
-2.9929948e-07
3.9587029e-08
-3.3570726e-07
4.2485329e-08
-3.7438098e-07
4.5445514e-08
-4.1533725e-07
4.8461791e-08
-4.5858764e-07
5.1527369e-08
-5.0413807e-07
5.4634486e-08
-5.5198831e-07
5.7774471e-08
-6.0213148e-07
6.0937797e-08
-6.5455361e-07
6.4114163e-08
-7.0923323e-07
6.7292563e-08
-7.6614112e-07
7.0461412e-08
-8.2523998e-07
7.3608605e-08
-8.8648424e-07
7.6721633e-08
-9.4981998e-07
7.9787686e-08
-1.0151848e-06
8.2793737e-08
-1.0825079e-06
8.5726669e-08
-1.1517101e-06
8.8573366e-08
-1.2227039e-06
9.1320811e-08
-1.2953939e-06
9.3956189e-08
-1.3696768e-06
9.6467004e-08
-1.4454419e-06
9.8841148e-08
-1.5225715e-06
1.0106702e-07
-1.6009412e-06
1.0313358e-07
-1.6804203e-06
1.0503046e-07
-1.7608729e-06
1.0674799e-07
-1.8421576e-06
1.0827734e-07
-1.9241286e-06
1.0961048e-07
-2.0066366e-06
1.1074031e-07
-2.0895286e-06
1.1166066e-07
-2.1726494e-06
1.1236632e-07
-2.2558419e-06
1.1285311e-07
-2.3389478e-06
1.1311783e-07
-2.4218082e-06
1.1315835e-07
-2.5042646e-06
1.1297352e-07
-2.5861592e-06
1.125632e-07
-2.6673357e-06
1.1192828e-07
-2.74764e-06
1.110706e-07
-2.8269207e-06
1.0999294e-07
-2.9050299e-06
1.0869901e-07
-2.9818233e-06
1.0719335e-07
-3.0571612e-06
1.0548136e-07
-3.1309087e-06
1.0356914e-07
-3.2029363e-06
1.0146355e-07
-3.27312e-06
9.9172083e-08
-3.341342e-06
9.6702796e-08
-3.407491e-06
9.406428e-08
-3.471462e-06
9.1265596e-08
-3.5331571e-06
8.8316156e-08
-3.5924854e-06
8.5225735e-08
-3.649363e-06
8.200434e-08
-3.7037136e-06
7.8662197e-08
-3.7554677e-06
7.520965e-08
-3.8045636e-06
7.1657146e-08
-3.8509466e-06
6.8015142e-08
-3.8945695e-06
6.4294077e-08
-3.9353919e-06
6.0504256e-08
-3.9733808e-06
5.6655885e-08
-4.0085098e-06
5.2758915e-08
-4.0407593e-06
4.8823093e-08
-4.0701159e-06
4.485789e-08
-4.0965729e-06
4.0872571e-08
-4.1201293e-06
3.6876164e-08
3.2877494e-08
-1.5959429e-09
2.0679296e-09
-6.3887243e-09
6.6912483e-09
-1.4473585e-08
1.1698518e-08
-2.593328e-08
1.7132454e-08
-4.0828561e-08
2.2743952e-08
-5.9199652e-08
2.840142e-08
-8.1064703e-08
3.4083445e-08
-1.0643335e-07
3.9791984e-08
-1.3531243e-07
4.5538732e-08
-1.6770831e-07
5.1336978e-08
-2.0362762e-07
5.7197681e-08
-2.4307698e-07
6.3128454e-08
-2.8606218e-07
6.9133727e-08
-3.3258731e-07
7.52151e-08
-3.8265394e-07
8.1371653e-08
-4.3626025e-07
8.7600176e-08
-4.9340025e-07
9.3895347e-08
-5.5406308e-07
1.0024986e-07
-6.1823224e-07
1.0665449e-07
-6.8588498e-07
1.1309826e-07
-7.5699168e-07
1.1956849e-07
-8.3151524e-07
1.2605093e-07
-9.094106e-07
1.3252985e-07
-9.9062428e-07
1.3898815e-07
-1.0750939e-06
1.4540746e-07
-1.1627481e-06
1.5176832e-07
-1.2535058e-06
1.5805025e-07
-1.3472764e-06
1.64232e-07
-1.4439594e-06
1.7029166e-07
-1.5434447e-06
1.7620686e-07
-1.6456119e-06
1.8195493e-07
-1.7503313e-06
1.8751309e-07
-1.8574632e-06
1.9285862e-07
-1.9668589e-06
1.9796905e-07
-2.0783604e-06
2.0282235e-07
-2.1918013e-06
2.0739705e-07
-2.3070068e-06
2.1167249e-07
-2.4237945e-06
2.156289e-07
-2.5419751e-06
2.1924761e-07
-2.6613527e-06
2.2251114e-07
-2.7817256e-06
2.2540339e-07
-2.9028873e-06
2.279097e-07
-3.0246269e-06
2.3001696e-07
-3.1467302e-06
2.3171372e-07
-3.2689801e-06
2.3299026e-07
-3.3911581e-06
2.3383861e-07
-3.5130444e-06
2.3425267e-07
-3.6344194e-06
2.3422813e-07
-3.7550642e-06
2.3376259e-07
-3.8747613e-06
2.328555e-07
-3.993296e-06
2.3150816e-07
-4.1104564e-06
2.2972366e-07
-4.226035e-06
2.2750689e-07
-4.3398289e-06
2.2486442e-07
-4.4516404e-06
2.2180451e-07
-4.5612784e-06
2.1833694e-07
-4.668558e-06
2.1447302e-07
-4.7733021e-06
2.102254e-07
-4.875341e-06
2.0560802e-07
-4.9745134e-06
2.00636e-07
-5.0706668e-06
1.9532548e-07
-5.1636576e-06
1.896936e-07
-5.2533515e-06
1.8375823e-07
-5.3396239e-06
1.7753799e-07
-5.4223598e-06
1.7105206e-07
-5.5014542e-06
1.6432008e-07
-5.5768118e-06
1.5736199e-07
-5.6483476e-06
1.5019799e-07
-5.7159863e-06
1.4284836e-07
-5.7796626e-06
1.3533343e-07
-5.8393209e-06
1.2767342e-07
-5.8949152e-06
1.1988834e-07
-5.9464088e-06
1.1199792e-07
-5.9937744e-06
1.040215e-07
-6.0369934e-06
9.5977909e-08
-6.0760558e-06
8.7885447e-08
-6.1109598e-06
7.9761846e-08
-6.1417115e-06
7.162429e-08
-6.1683247e-06
6.3489352e-08
5.5373048e-08
-2.2949015e-09
4.3628312e-09
-9.0739721e-09
1.3470319e-08
-2.0338153e-08
2.2962698e-08
-3.6079413e-08
3.2873714e-08
-5.6333058e-08
4.2997597e-08
-8.1139257e-08
5.3207619e-08
-1.1052104e-07
6.3465227e-08
-1.4448876e-07
7.3759707e-08
-1.8304408e-07
8.4094047e-08
-2.2618251e-07
9.4475407e-08
-2.7389499e-07
1.0491016e-07
-3.2616851e-07
1.1540197e-07
-3.8298606e-07
1.2595128e-07
-4.4432629e-07
1.3655532e-07
-5.1016291e-07
1.4720828e-07
-5.8046419e-07
1.5790145e-07
-6.5519222e-07
1.6862338e-07
-7.3430239e-07
1.7936002e-07
-8.1774272e-07
1.9009482e-07
-9.0545332e-07
2.0080885e-07
-9.9736582e-07
2.11481e-07
-1.093403e-06
2.2208808e-07
-1.1934781e-06
2.3260498e-07
-1.2974948e-06
2.4300489e-07
-1.4053468e-06
2.532594e-07
-1.5169173e-06
2.6333879e-07
-1.6320792e-06
2.7321217e-07
-1.7506949e-06
2.8284776e-07
-1.8726164e-06
2.9221315e-07
-1.9976851e-06
3.012755e-07
-2.125732e-06
3.1000182e-07
-2.2565781e-06
3.1835922e-07
-2.3900347e-06
3.2631521e-07
-2.5259035e-06
3.3383789e-07
-2.6639774e-06
3.4089625e-07
-2.8040408e-06
3.4746042e-07
-2.9458701e-06
3.5350184e-07
-3.0892349e-06
3.589936e-07
-3.2338978e-06
3.6391053e-07
-3.3796161e-06
3.6822945e-07
-3.5261421e-06
3.7192938e-07
-3.673224e-06
3.749916e-07
-3.8206069e-06
3.7739984e-07
-3.9680336e-06
3.7914044e-07
-4.1152457e-06
3.8020233e-07
-4.2619842e-06
3.8057718e-07
-4.407991e-06
3.8025943e-07
-4.5530091e-06
3.7924629e-07
-4.6967843e-06
3.7753778e-07
-4.8390655e-06
3.7513669e-07
-4.9796059e-06
3.7204851e-07
-5.1181636e-06
3.6828143e-07
-5.254503e-06
3.6384622e-07
-5.3883946e-06
3.587561e-07
-5.5196169e-06
3.5302673e-07
-5.6479559e-06
3.4667596e-07
-5.7732066e-06
3.3972379e-07
-5.8951734e-06
3.3219212e-07
-6.01367e-06
3.2410467e-07
-6.1285208e-06
3.1548676e-07
-6.2395605e-06
3.0636516e-07
-6.3466348e-06
2.9676789e-07
-6.4496006e-06
2.8672402e-07
-6.5483261e-06
2.7626355e-07
-6.6426912e-06
2.6541715e-07
-6.7325871e-06
2.5421601e-07
-6.8179169e-06
2.4269172e-07
-6.8985949e-06
2.30876e-07
-6.9745471e-06
2.1880061e-07
-7.0457109e-06
2.0649716e-07
-7.1120345e-06
1.9399702e-07
-7.1734772e-06
1.8133108e-07
-7.230009e-06
1.6852967e-07
-7.2816099e-06
1.5562241e-07
-7.32827e-06
1.4263805e-07
-7.369989e-06
1.2960446e-07
-7.4067757e-06
1.1654853e-07
-7.4386475e-06
1.0349613e-07
-7.4656304e-06
9.0472217e-08
7.7500684e-08
-2.6973135e-09
7.0601447e-09
-1.0665008e-08
2.1438013e-08
-2.3847872e-08
3.6145562e-08
-4.2189659e-08
5.1215502e-08
-6.5697321e-08
6.6505258e-08
-9.439882e-08
8.1909117e-08
-1.2831397e-07
9.7380382e-08
-1.6745153e-07
1.1289726e-07
-2.1180978e-07
1.284523e-07
-2.6137814e-07
1.4404377e-07
-3.1613855e-07
1.5967058e-07
-3.7606641e-07
1.7532983e-07
-4.4113089e-07
1.9101576e-07
-5.1129491e-07
2.0671934e-07
-5.8651486e-07
2.2242823e-07
-6.6674017e-07
2.3812676e-07
-7.5191284e-07
2.5379605e-07
-8.4196692e-07
2.6941411e-07
-9.3682803e-07
2.8495592e-07
-1.0364128e-06
3.0039364e-07
-1.1406286e-06
3.1569675e-07
-1.2493727e-06
3.3083225e-07
-1.3625326e-06
3.4576486e-07
-1.479985e-06
3.6045728e-07
-1.601596e-06
3.7487042e-07
-1.7272209e-06
3.8896369e-07
-1.856704e-06
4.0269527e-07
-1.9898787e-06
4.1602242e-07
-2.1265674e-06
4.2890184e-07
-2.2665818e-06
4.4128996e-07
-2.4097233e-06
4.5314328e-07
-2.5557828e-06
4.6441873e-07
-2.7045416e-06
4.7507397e-07
-2.8557714e-06
4.8506778e-07
-3.0092355e-06
4.9436033e-07
-3.1646886e-06
5.0291354e-07
-3.3218781e-06
5.1069134e-07
-3.4805446e-06
5.1766003e-07
-3.6404225e-06
5.2378846e-07
-3.8012413e-06
5.2904827e-07
-3.9627262e-06
5.3341425e-07
-4.1245989e-06
5.3686434e-07
-4.286579e-06
5.3937988e-07
-4.4483843e-06
5.4094581e-07
-4.6097327e-06
5.4155064e-07
-4.7703421e-06
5.4118662e-07
-4.9299324e-06
5.3984975e-07
-5.0882259e-06
5.3753981e-07
-5.2449485e-06
5.3426031e-07
-5.3998303e-06
5.3001854e-07
-5.5526072e-06
5.2482534e-07
-5.7030209e-06
5.1869517e-07
-5.8508205e-06
5.1164586e-07
-5.995763e-06
5.0369857e-07
-6.1376138e-06
4.9487752e-07
-6.2761477e-06
4.8520989e-07
-6.4111495e-06
4.7472557e-07
-6.5424144e-06
4.6345696e-07
-6.6697484e-06
4.5143872e-07
-6.7929693e-06
4.3870761e-07
-6.9119062e-06
4.2530213e-07
-7.0264007e-06
4.1126238e-07
-7.1363064e-06
3.9662967e-07
-7.2414893e-06
3.8144648e-07
-7.3418282e-06
3.6575601e-07
-7.4372142e-06
3.4960203e-07
-7.5275511e-06
3.3302865e-07
-7.6127552e-06
3.1608006e-07
-7.6927549e-06
2.9880034e-07
-7.767491e-06
2.8123321e-07
-7.8369158e-06
2.6342189e-07
-7.9009936e-06
2.4540887e-07
-7.9596997e-06
2.272357e-07
-8.0130201e-06
2.0894288e-07
-8.0609517e-06
1.9056966e-07
-8.1035012e-06
1.7215393e-07
-8.1406849e-06
1.5373221e-07
-8.1725283e-06
1.3533954e-07
-8.1990656e-06
1.1700949e-07
9.8774199e-08
-2.8872541e-09
9.9473989e-09
-1.1452071e-08
3.0002831e-08
-2.5625083e-08
5.0318574e-08
-4.5338462e-08
7.0928881e-08
-7.057987e-08
9.1746667e-08
-1.0136195e-07
1.126912e-07
-1.3769652e-07
1.3371495e-07
-1.7958821e-07
1.5478895e-07
-2.2703246e-07
1.7589656e-07
-2.8001567e-07
1.9702698e-07
-3.3851588e-07
2.1817078e-07
-4.0250345e-07
2.3931739e-07
-4.7194135e-07
2.6045366e-07
-5.4678524e-07
2.8156324e-07
-6.2698329e-07
3.0262627e-07
-7.1247579e-07
3.2361926e-07
-8.0319483e-07
3.4451509e-07
-8.990638e-07
3.6528308e-07
-9.9999697e-07
3.858891e-07
-1.1058991e-06
4.0629572e-07
-1.2166648e-06
4.2646245e-07
-1.3321784e-06
4.4634591e-07
-1.4523137e-06
4.6590016e-07
-1.5769334e-06
4.8507694e-07
-1.705889e-06
5.0382601e-07
-1.8390208e-06
5.220955e-07
-1.9761578e-06
5.3983228e-07
-2.1171177e-06
5.5698234e-07
-2.261707e-06
5.7349119e-07
-2.4097214e-06
5.8930426e-07
-2.5609455e-06
6.0436739e-07
-2.7151539e-06
6.1862712e-07
-2.8721111e-06
6.3203123e-07
-3.0315724e-06
6.4452908e-07
-3.1932842e-06
6.5607206e-07
-3.3569846e-06
6.6661394e-07
-3.5224045e-06
6.7611125e-07
-3.6892681e-06
6.8452365e-07
-3.8572939e-06
6.9181422e-07
-4.0261953e-06
6.9794975e-07
-4.1956821e-06
7.0290106e-07
-4.3654609e-06
7.0664313e-07
-4.5352364e-06
7.0915536e-07
-4.7047123e-06
7.1042171e-07
-4.8735925e-06
7.1043079e-07
-5.0415818e-06
7.0917596e-07
-5.2083875e-06
7.066554e-07
-5.3737197e-06
7.0287202e-07
-5.5372929e-06
6.9783354e-07
-5.6988267e-06
6.9155235e-07
-5.8580468e-06
6.8404539e-07
-6.0146857e-06
6.7533408e-07
-6.1684839e-06
6.654441e-07
-6.3191906e-06
6.5440521e-07
-6.466564e-06
6.4225102e-07
-6.6103729e-06
6.2901875e-07
-6.7503963e-06
6.1474897e-07
-6.8864247e-06
5.9948531e-07
-7.0182601e-06
5.8327419e-07
-7.145717e-06
5.6616444e-07
-7.2686219e-06
5.4820708e-07
-7.3868145e-06
5.2945497e-07
-7.5001472e-06
5.0996241e-07
-7.6084857e-06
4.8978496e-07
-7.7117087e-06
4.6897899e-07
-7.8097081e-06
4.4760145e-07
-7.9023891e-06
4.257096e-07
-7.9896696e-06
4.0336061e-07
-8.0714806e-06
3.8061138e-07
-8.1477657e-06
3.5751825e-07
-8.2184805e-06
3.341367e-07
-8.2835929e-06
3.1052124e-07
-8.3430822e-06
2.8672503e-07
-8.3969391e-06
2.6279975e-07
-8.4451649e-06
2.3879548e-07
-8.4877714e-06
2.1476045e-07
-8.5247802e-06
1.9074103e-07
-8.5562223e-06
1.6678165e-07
-8.5821376e-06
1.4292473e-07
1.192108e-07
-2.9588939e-09
1.2906293e-08
-1.1774119e-08
3.8818055e-08
-2.6386494e-08
6.4930949e-08
-4.6737211e-08
9.1279598e-08
-7.2805607e-08
1.1781506e-07
-1.0459224e-07
1.4447783e-07
-1.4210058e-07
1.7122329e-07
-1.8533033e-07
1.9801869e-07
-2.3427432e-07
2.2484055e-07
-2.8891753e-07
2.5167018e-07
-3.4923698e-07
2.7849023e-07
-4.1520191e-07
3.0528233e-07
-4.8677389e-07
3.3202564e-07
-5.6390668e-07
3.5869604e-07
-6.465461e-07
3.8526569e-07
-7.3462962e-07
4.1170278e-07
-8.2808604e-07
4.3797151e-07
-9.2683502e-07
4.6403206e-07
-1.0307867e-06
4.8984074e-07
-1.1398411e-06
5.1535013e-07
-1.2538879e-06
5.4050931e-07
-1.3728062e-06
5.6526416e-07
-1.4964636e-06
5.8955763e-07
-1.6247168e-06
6.1333014e-07
-1.7574107e-06
6.3651991e-07
-1.8943787e-06
6.5906343e-07
-2.0354423e-06
6.808959e-07
-2.1804116e-06
7.0195166e-07
-2.3290851e-06
7.2216472e-07
-2.4812501e-06
7.4146924e-07
-2.6366828e-06
7.5980003e-07
-2.7951487e-06
7.7709304e-07
-2.9564034e-06
7.9328592e-07
-3.1201927e-06
8.0831844e-07
-3.2862537e-06
8.2213301e-07
-3.4543149e-06
8.3467515e-07
-3.6240976e-06
8.4589391e-07
-3.7953162e-06
8.5574227e-07
-3.9676795e-06
8.6417751e-07
-4.1408914e-06
8.7116164e-07
-4.3146519e-06
8.7666157e-07
-4.4886582e-06
8.8064946e-07
-4.6626057e-06
8.831029e-07
-4.8361891e-06
8.840051e-07
-5.0091034e-06
8.8334502e-07
-5.1810448e-06
8.8111741e-07
-5.3517123e-06
8.7732291e-07
-5.5208083e-06
8.7196798e-07
-5.6880396e-06
8.6506487e-07
-5.8531188e-06
8.5663151e-07
-6.0157648e-06
8.4669141e-07
-6.1757041e-06
8.3527336e-07
-6.3326714e-06
8.2241141e-07
-6.4864106e-06
8.0814441e-07
-6.6366754e-06
7.9251586e-07
-6.7832302e-06
7.7557358e-07
-6.9258506e-06
7.5736931e-07
-7.0643238e-06
7.3795848e-07
-7.1984493e-06
7.1739974e-07
-7.3280394e-06
6.9575459e-07
-7.4529194e-06
6.7308705e-07
-7.5729277e-06
6.4946324e-07
-7.6879162e-06
6.2495096e-07
-7.7977506e-06
5.9961931e-07
-7.9023099e-06
5.7353833e-07
-8.001487e-06
5.4677858e-07
-8.0951883e-06
5.1941086e-07
-8.1833335e-06
4.9150575e-07
-8.2658554e-06
4.6313333e-07
-8.3427e-06
4.3436285e-07
-8.4138258e-06
4.0526247e-07
-8.4792035e-06
3.7589893e-07
-8.5388157e-06
3.4633728e-07
-8.5926567e-06
3.1664068e-07
-8.6407314e-06
2.8687019e-07
-8.6830555e-06
2.5708458e-07
-8.7196547e-06
2.2734025e-07
-8.7505642e-06
1.976911e-07
-8.7758279e-06
1.6818848e-07
1.3888126e-07
-2.9763831e-09
1.5882676e-08
-1.1872116e-08
4.7713788e-08
-2.6645839e-08
7.9704672e-08
-4.7255084e-08
1.1188884e-07
-7.3679059e-08
1.4423904e-07
-1.0591154e-07
1.7671032e-07
-1.439499e-07
2.0926164e-07
-1.8778979e-07
2.4185859e-07
-2.3742208e-07
2.7447284e-07
-2.9283126e-07
3.0707937e-07
-3.5399485e-07
3.3965382e-07
-4.2088304e-07
3.7217052e-07
-4.9345848e-07
4.0460108e-07
-5.7167602e-07
4.3691358e-07
-6.5548237e-07
4.6907204e-07
-7.4481571e-07
5.0103613e-07
-8.3960528e-07
5.3276108e-07
-9.3977088e-07
5.6419766e-07
-1.0452224e-06
5.9529229e-07
-1.1558595e-06
6.2598721e-07
-1.271571e-06
6.5622078e-07
-1.3922346e-06
6.8592772e-07
-1.5177165e-06
7.1503953e-07
-1.6478712e-06
7.4348489e-07
-1.7825414e-06
7.7119011e-07
-1.9215576e-06
7.9807962e-07
-2.0647382e-06
8.2407654e-07
-2.2118897e-06
8.4910316e-07
-2.3628066e-06
8.7308158e-07
-2.5172717e-06
8.9593428e-07
-2.6750563e-06
9.175847e-07
-2.8359211e-06
9.3795781e-07
-2.9996159e-06
9.5698077e-07
-3.1658809e-06
9.7458343e-07
-3.3344469e-06
9.9069898e-07
-3.5050361e-06
1.0052644e-06
-3.6773632e-06
1.018221e-06
-3.8511358e-06
1.0295149e-06
-4.0260558e-06
1.0390975e-06
-4.2018199e-06
1.0469258e-06
-4.3781212e-06
1.0529628e-06
-4.5546496e-06
1.0571778e-06
-4.7310933e-06
1.0595467e-06
-4.9071401e-06
1.0600519e-06
-5.0824779e-06
1.0586828e-06
-5.2567961e-06
1.0554357e-06
-5.4297872e-06
1.050314e-06
-5.601147e-06
1.0433278e-06
-5.7705763e-06
1.0344942e-06
-5.9377818e-06
1.023837e-06
-6.1024769e-06
1.0113865e-06
-6.2643829e-06
9.9717936e-07
-6.4232297e-06
9.8125828e-07
-6.578757e-06
9.6367163e-07
-6.7307143e-06
9.4447325e-07
-6.8788627e-06
9.2372196e-07
-7.0229746e-06
9.0148118e-07
-7.1628346e-06
8.7781852e-07
-7.2982402e-06
8.5280533e-07
-7.4290019e-06
8.265163e-07
-7.5549437e-06
7.9902886e-07
-7.6759033e-06
7.7042285e-07
-7.7917324e-06
7.4077997e-07
-7.9022964e-06
7.1018336e-07
-8.0074751e-06
6.7871706e-07
-8.1071623e-06
6.4646571e-07
-8.2012654e-06
6.1351397e-07
-8.2897058e-06
5.7994617e-07
-8.3724184e-06
5.4584592e-07
-8.4493512e-06
5.1129571e-07
-8.5204654e-06
4.763766e-07
-8.5857343e-06
4.4116787e-07
-8.6451437e-06
4.0574666e-07
-8.6986908e-06
3.7018781e-07
-8.7463842e-06
3.3456355e-07
-8.7882429e-06
2.9894332e-07
-8.8242963e-06
2.6339362e-07
-8.8545831e-06
2.2797792e-07
-8.8791511e-06
1.9275649e-07
1.577865e-07
-2.9740992e-09
1.8856775e-08
-1.1880945e-08
5.6620634e-08
-2.6695994e-08
9.4519721e-08
-4.7392743e-08
1.3258559e-07
-7.3954735e-08
1.7080103e-07
-1.0637371e-07
2.091293e-07
-1.44644e-07
2.4753192e-07
-1.8875898e-07
2.8597358e-07
-2.3870862e-07
3.2442248e-07
-2.9447781e-07
3.6284855e-07
-3.5604543e-07
4.0122145e-07
-4.2338372e-07
4.3950881e-07
-4.9645774e-07
4.776751e-07
-5.7522492e-07
5.1568076e-07
-6.5963458e-07
5.5348169e-07
-7.4962744e-07
5.9102898e-07
-8.4513509e-07
6.2826874e-07
-9.4607952e-07
6.6514209e-07
-1.0523725e-06
7.0158531e-07
-1.1639154e-06
7.3753004e-07
-1.2805981e-06
7.7290351e-07
-1.4022993e-06
8.0762895e-07
-1.5288858e-06
8.41626e-07
-1.6602121e-06
8.7481118e-07
-1.7961204e-06
9.0709843e-07
-1.9364405e-06
9.3839967e-07
-2.0809894e-06
9.6862546e-07
-2.2295718e-06
9.9768557e-07
-2.3819799e-06
1.0254897e-06
-2.5379938e-06
1.0519482e-06
-2.6973816e-06
1.0769725e-06
-2.8599002e-06
1.1004764e-06
-3.0252953e-06
1.1223759e-06
-3.1933025e-06
1.1425906e-06
-3.3636476e-06
1.1610441e-06
-3.5360476e-06
1.1776644e-06
-3.7102113e-06
1.1923848e-06
-3.8858407e-06
1.2051442e-06
-4.0626313e-06
1.215888e-06
-4.2402734e-06
1.224568e-06
-4.4184536e-06
1.231143e-06
-4.5968551e-06
1.2355794e-06
-4.7751596e-06
1.2378512e-06
-4.9530479e-06
1.2379402e-06
-5.1302014e-06
1.2358362e-06
-5.306303e-06
1.2315373e-06
-5.4810385e-06
1.2250495e-06
-5.6540975e-06
1.2163869e-06
-5.825175e-06
1.2055716e-06
-5.9939717e-06
1.1926336e-06
-6.1601956e-06
1.1776104e-06
-6.3235628e-06
1.1605466e-06
-6.4837987e-06
1.1414941e-06
-6.6406383e-06
1.1205112e-06
-6.7938274e-06
1.0976624e-06
-6.9431235e-06
1.073018e-06
-7.0882959e-06
1.0466536e-06
-7.2291267e-06
1.0186493e-06
-7.3654112e-06
9.8908987e-07
-7.4969584e-06
9.5806342e-07
-7.6235909e-06
9.2566136e-07
-7.7451457e-06
8.9197771e-07
-7.8614743e-06
8.5710852e-07
-7.9724423e-06
8.2115138e-07
-8.0779301e-06
7.8420482e-07
-8.1778322e-06
7.4636786e-07
-8.2720577e-06
7.0773947e-07
-8.3605296e-06
6.6841808e-07
-8.4431849e-06
6.2850117e-07
-8.5199739e-06
5.8808477e-07
-8.5908605e-06
5.4726313e-07
-8.6558209e-06
5.061283e-07
-8.714844e-06
4.6476979e-07
-8.7679305e-06
4.2327427e-07
-8.8150923e-06
3.8172535e-07
-8.8563522e-06
3.4020325e-07
-8.8917433e-06
2.9878469e-07
-8.9213081e-06
2.5754273e-07
-8.9450983e-06
2.1654664e-07
1.758619e-07
-2.9672766e-09
2.1824052e-08
-1.1863768e-08
6.5517125e-08
-2.667781e-08
1.0933376e-07
-4.7395796e-08
1.5330358e-07
-7.4007241e-08
1.9741247e-07
-1.065051e-07
2.4162715e-07
-1.4488339e-07
2.8591021e-07
-1.8913518e-07
3.3022537e-07
-2.3925082e-07
3.7453812e-07
-2.9521653e-07
4.1881426e-07
-3.5701332e-07
4.6301824e-07
-4.246162e-07
5.0711168e-07
-4.9799341e-07
5.5105231e-07
-5.7710582e-07
5.9479317e-07
-6.619063e-07
6.3828217e-07
-7.523391e-07
6.8146179e-07
-8.4833926e-07
7.242689e-07
-9.4983201e-07
7.6663483e-07
-1.0567322e-06
8.0848548e-07
-1.1689436e-06
8.4974151e-07
-1.2863588e-06
8.9031872e-07
-1.4088583e-06
9.3012844e-07
-1.5363103e-06
9.6907799e-07
-1.6685704e-06
1.0070713e-06
-1.8054813e-06
1.0440093e-06
-1.9468727e-06
1.079791e-06
-2.0925611e-06
1.1143139e-06
-2.24235e-06
1.1474745e-06
-2.3960299e-06
1.1791697e-06
-2.5533787e-06
1.2092969e-06
-2.7141616e-06
1.2377554e-06
-2.8781321e-06
1.2644468e-06
-3.045032e-06
1.2892758e-06
-3.2145924e-06
1.312151e-06
-3.3865343e-06
1.332986e-06
-3.5605693e-06
1.3516994e-06
-3.7364005e-06
1.368216e-06
-3.9137237e-06
1.3824674e-06
-4.0922279e-06
1.3943923e-06
-4.2715971e-06
1.4039371e-06
-4.4515105e-06
1.4110565e-06
-4.6316448e-06
1.4157136e-06
-4.8116741e-06
1.4178805e-06
-4.9912724e-06
1.4175384e-06
-5.1701136e-06
1.4146775e-06
-5.3478739e-06
1.4092975e-06
-5.524232e-06
1.4014075e-06
-5.6988708e-06
1.3910257e-06
-5.8714786e-06
1.3781794e-06
-6.04175e-06
1.3629051e-06
-6.2093872e-06
1.3452475e-06
-6.3741007e-06
1.3252601e-06
-6.5356106e-06
1.303004e-06
-6.6936473e-06
1.2785479e-06
-6.8479523e-06
1.2519675e-06
-6.9982794e-06
1.2233451e-06
-7.1443946e-06
1.1927687e-06
-7.2860771e-06
1.1603319e-06
-7.4231202e-06
1.1261329e-06
-7.5553308e-06
1.090274e-06
-7.6825306e-06
1.0528612e-06
-7.8045559e-06
1.0140029e-06
-7.9212576e-06
9.7381031e-07
-8.032502e-06
9.3239577e-07
-8.13817e-06
8.898728e-07
-8.2381574e-06
8.4635527e-07
-8.3323748e-06
8.0195686e-07
-8.4207473e-06
7.5679053e-07
-8.503214e-06
7.1096792e-07
-8.5797283e-06
6.6459901e-07
-8.6502567e-06
6.1779153e-07
-8.7147789e-06
5.7065055e-07
-8.7732873e-06
5.2327821e-07
-8.8257863e-06
4.7577322e-07
-8.8722916e-06
4.2823071e-07
-8.9128302e-06
3.8074184e-07
-8.9474392e-06
3.3339366e-07
-8.9761653e-06
2.8626889e-07
-8.9990645e-06
2.3944586e-07
1.9299833e-07
-2.9612959e-09
2.4785348e-08
-1.1845074e-08
7.4400903e-08
-2.6648615e-08
1.241373e-07
-4.7367922e-08
1.7402288e-07
-7.3998624e-08
2.2404318e-07
-1.0653676e-07
2.7416529e-07
-1.4497808e-07
3.2435153e-07
-1.8931705e-07
3.7456434e-07
-2.3954572e-07
4.2476679e-07
-2.9565259e-07
4.7492113e-07
-3.576216e-07
5.2498725e-07
-4.2543116e-07
5.7492124e-07
-4.9905334e-07
6.2467449e-07
-5.7845309e-07
6.7419292e-07
-6.6358748e-07
7.2341656e-07
-7.5440497e-07
7.7227927e-07
-8.5084471e-07
8.2070864e-07
-9.5283587e-07
8.6862599e-07
-1.060297e-06
9.1594656e-07
-1.1731352e-06
9.6257974e-07
-1.291246e-06
1.0084295e-06
-1.4145123e-06
1.0533948e-06
-1.5428045e-06
1.0973702e-06
-1.6759795e-06
1.1402463e-06
-1.813881e-06
1.1819108e-06
-1.9563389e-06
1.2222489e-06
-2.1031694e-06
1.2611443e-06
-2.2541749e-06
1.29848e-06
-2.4091444e-06
1.3341391e-06
-2.5678532e-06
1.3680058e-06
-2.7300638e-06
1.3999661e-06
-2.895526e-06
1.429909e-06
-3.0639775e-06
1.4577272e-06
-3.2351444e-06
1.483318e-06
-3.4087425e-06
1.5065841e-06
-3.5844775e-06
1.5274343e-06
-3.7620462e-06
1.5457847e-06
-3.9411375e-06
1.5615587e-06
-4.1214335e-06
1.5746883e-06
-4.3026105e-06
1.5851142e-06
-4.4843405e-06
1.5927864e-06
-4.6662919e-06
1.597665e-06
-4.8481312e-06
1.5997199e-06
-5.0295242e-06
1.5989313e-06
-5.210137e-06
1.5952903e-06
-5.3896377e-06
1.5887983e-06
-5.5676975e-06
1.5794673e-06
-5.7439916e-06
1.5673199e-06
-5.9182012e-06
1.552389e-06
-6.0900138e-06
1.5347177e-06
-6.259125e-06
1.5143588e-06
-6.4252392e-06
1.4913743e-06
-6.5880708e-06
1.4658356e-06
-6.747345e-06
1.4378221e-06
-6.9027986e-06
1.4074212e-06
-7.0541811e-06
1.3747276e-06
-7.201255e-06
1.3398426e-06
-7.3437966e-06
1.3028735e-06
-7.4815965e-06
1.2639328e-06
-7.61446e-06
1.2231376e-06
-7.7422074e-06
1.1806086e-06
-7.8646743e-06
1.1364698e-06
-7.9817116e-06
1.0908477e-06
-8.0931859e-06
1.04387e-06
-8.198979e-06
9.9566591e-07
-8.2989883e-06
9.4636453e-07
-8.3931261e-06
8.9609471e-07
-8.48132e-06
8.4498437e-07
-8.5635119e-06
7.9315981e-07
-8.6396581e-06
7.4074522e-07
-8.7097287e-06
6.8786217e-07
-8.7737073e-06
6.3462912e-07
-8.8315901e-06
5.81161e-07
-8.8833858e-06
5.2756888e-07
-8.9291146e-06
4.7395951e-07
-8.9688079e-06
4.2043518e-07
-9.0025076e-06
3.6709336e-07
-9.0302653e-06
3.1402655e-07
-9.0521416e-06
2.6132217e-07
2.0906238e-07
-2.9573298e-09
2.7742678e-08
-1.1831803e-08
8.3275376e-08
-2.6626718e-08
1.3893222e-07
-4.7345099e-08
1.9474127e-07
-7.398825e-08
2.5068633e-07
-1.0655626e-07
3.067333e-07
-1.4504795e-07
3.6284323e-07
-1.8946058e-07
4.1897696e-07
-2.3978908e-07
4.7509529e-07
-2.9602523e-07
5.3115728e-07
-3.5815666e-07
5.8711867e-07
-4.2616592e-07
6.429305e-07
-5.0002955e-07
6.9853812e-07
-5.7971718e-07
7.5388055e-07
-6.6519068e-07
8.0889006e-07
-7.5640331e-07
8.6349191e-07
-8.5329893e-07
9.1760426e-07
-9.5581119e-07
9.7113825e-07
-1.0638628e-06
1.0239982e-06
-1.1773648e-06
1.0760818e-06
-1.2962161e-06
1.1272808e-06
-1.4203025e-06
1.1774812e-06
-1.5494966e-06
1.2265643e-06
-1.6836572e-06
1.2744069e-06
-1.8226289e-06
1.3208825e-06
-1.9662421e-06
1.3658621e-06
-2.1143126e-06
1.4092148e-06
-2.2666417e-06
1.4508092e-06
-2.4230165e-06
1.490514e-06
-2.58321e-06
1.5281992e-06
-2.7469811e-06
1.5637372e-06
-2.9140756e-06
1.5970035e-06
-3.0842265e-06
1.6278781e-06
-3.2571546e-06
1.6562462e-06
-3.4325696e-06
1.681999e-06
-3.6101705e-06
1.7050352e-06
-3.789647e-06
1.7252612e-06
-3.9706805e-06
1.7425922e-06
-4.152945e-06
1.7569528e-06
-4.3361085e-06
1.7682776e-06
-4.5198342e-06
1.7765122e-06
-4.7037818e-06
1.7816126e-06
-4.8876089e-06
1.783547e-06
-5.0709722e-06
1.7822946e-06
-5.2535289e-06
1.777847e-06
-5.4349383e-06
1.7702076e-06
-5.6148626e-06
1.7593916e-06
-5.7929689e-06
1.7454262e-06
-5.96893e-06
1.7283501e-06
-6.1424258e-06
1.7082135e-06
-6.3131445e-06
1.6850774e-06
-6.4807835e-06
1.6590134e-06
-6.6450509e-06
1.630103e-06
-6.8056661e-06
1.5984373e-06
-6.9623608e-06
1.5641158e-06
-7.1148797e-06
1.5272465e-06
-7.2629815e-06
1.4879444e-06
-7.4064392e-06
1.4463312e-06
-7.5450407e-06
1.4025344e-06
-7.6785895e-06
1.3566863e-06
-7.8069044e-06
1.3089235e-06
-7.9298204e-06
1.2593859e-06
-8.0471886e-06
1.2082158e-06
-8.1588759e-06
1.1555573e-06
-8.2647654e-06
1.1015555e-06
-8.3647563e-06
1.0463554e-06
-8.4587631e-06
9.9010156e-07
-8.5467161e-06
9.3293741e-07
-8.6285606e-06
8.7500428e-07
-8.7042565e-06
8.1644105e-07
-8.7737778e-06
7.5738349e-07
-8.8371124e-06
6.9796372e-07
-8.8942612e-06
6.3830984e-07
-8.9452377e-06
5.7854539e-07
-8.9900673e-06
5.1878907e-07
-9.0287865e-06
4.5915436e-07
-9.0614424e-06
3.9974932e-07
-9.0880922e-06
3.4067631e-07
-9.1088019e-06
2.8203187e-07
2.2390663e-07
-2.9551031e-09
3.0697781e-08
-1.1824211e-08
9.2144483e-08
-2.6614758e-08
1.5372277e-07
-4.733506e-08
2.1546157e-07
-7.3991564e-08
2.7734283e-07
-1.0658885e-07
3.3933058e-07
-1.4512976e-07
4.0138414e-07
-1.8961535e-07
4.6346256e-07
-2.4004452e-07
5.2552446e-07
-2.9641323e-07
5.8752599e-07
-3.5871367e-07
6.4941912e-07
-4.2693329e-07
7.1115012e-07
-5.010538e-07
7.7265863e-07
-5.8105018e-07
8.3387694e-07
-6.6688974e-07
8.9472963e-07
-7.5853117e-07
9.5513333e-07
-8.5592359e-07
1.0149967e-06
-9.5900572e-07
1.0742204e-06
-1.067705e-06
1.1326974e-06
-1.1819368e-06
1.1903136e-06
-1.3016038e-06
1.2469477e-06
-1.4265951e-06
1.3024725e-06
-1.5567859e-06
1.3567551e-06
-1.6920368e-06
1.4096578e-06
-1.8321938e-06
1.4610395e-06
-1.9770875e-06
1.5107558e-06
-2.1265334e-06
1.5586607e-06
-2.2803316e-06
1.6046074e-06
-2.438267e-06
1.6484494e-06
-2.6001096e-06
1.6900418e-06
-2.7656147e-06
1.7292423e-06
-2.9345234e-06
1.7659123e-06
-3.1065634e-06
1.7999181e-06
-3.2814494e-06
1.8311322e-06
-3.4588842e-06
1.8594338e-06
-3.6385593e-06
1.8847104e-06
-3.8201565e-06
1.9068584e-06
-4.0033484e-06
1.9257841e-06
-4.1878e-06
1.9414044e-06
-4.3731698e-06
1.9536475e-06
-4.5591115e-06
1.9624538e-06
-4.7452747e-06
1.9677759e-06
-4.9313069e-06
1.9695792e-06
-5.1168548e-06
1.9678424e-06
-5.3015654e-06
1.9625577e-06
-5.485088e-06
1.9537302e-06
-5.6670752e-06
1.9413789e-06
-5.8471847e-06
1.9255356e-06
-6.0250799e-06
1.9062454e-06
-6.2004322e-06
1.8835658e-06
-6.3729216e-06
1.8575667e-06
-6.5422378e-06
1.8283296e-06
-6.7080819e-06
1.7959471e-06
-6.8701667e-06
1.7605221e-06
-7.0282184e-06
1.7221675e-06
-7.1819765e-06