/*--------------------------------*- C++ -*----------------------------------*\
| =========                 |                                                 |
| \\      /  F ield         | OpenFOAM: The Open Source CFD Toolbox           |
|  \\    /   O peration     | Version:  2306                                  |
|   \\  /    A nd           | Website:  www.openfoam.com                      |
|    \\/     M anipulation  |                                                 |
\*---------------------------------------------------------------------------*/
FoamFile
{
    version     2.0;
    format      ascii;
    arch        "LSB;label=32;scalar=64";
    class       volVectorField;
    location    "0.38";
    object      U;
}
// * * * * * * * * * * * * * * * * * * * * * * * * * * * * * * * * * * * * * //

dimensions      [0 1 -1 0 0 0 0];

internalField   nonuniform List<vector> 
6400
(
(5.101492e-06 -1.5702e-05 -3.087211e-21)
(6.5813397e-06 -1.2607992e-05 -1.0188914e-21)
(6.6999472e-06 -1.1409478e-05 -2.449519e-21)
(5.626798e-06 -1.0338892e-05 1.4386938e-20)
(2.9534463e-06 -9.6709537e-06 1.5234321e-20)
(-1.6184757e-07 -9.3466753e-06 -9.2625967e-21)
(-3.5898548e-06 -9.1263976e-06 -4.2863658e-21)
(-7.2068771e-06 -8.9481354e-06 9.6671427e-21)
(-1.0997283e-05 -8.7791786e-06 1.360855e-20)
(-1.4974029e-05 -8.6049628e-06 7.86181e-24)
(-1.9164762e-05 -8.4203622e-06 2.7343758e-21)
(-2.3603366e-05 -8.2241834e-06 3.8375175e-20)
(-2.8322539e-05 -8.0160291e-06 2.7519771e-20)
(-3.3350732e-05 -7.7960338e-06 -1.5337782e-20)
(-3.8712431e-05 -7.5646753e-06 -1.4328206e-20)
(-4.4428337e-05 -7.3226298e-06 2.2981098e-20)
(-5.0515515e-05 -7.0707217e-06 4.781602e-20)
(-5.6987536e-05 -6.809845e-06 4.559081e-22)
(-6.3854623e-05 -6.5409551e-06 -3.3731725e-20)
(-7.1123768e-05 -6.2650428e-06 -4.9340492e-22)
(-7.8798844e-05 -5.9831295e-06 9.4944485e-21)
(-8.6880718e-05 -5.69623e-06 1.7425627e-20)
(-9.5367356e-05 -5.4053827e-06 6.6127369e-20)
(-0.00010425391 -5.111617e-06 1.0140429e-19)
(-0.00011353279 -4.8159687e-06 8.9110182e-20)
(-0.00012319377 -4.519449e-06 -1.2510519e-19)
(-0.00013322411 -4.2230625e-06 -2.9626583e-19)
(-0.00014360864 -3.9277818e-06 -9.3086879e-20)
(-0.00015432991 -3.6345396e-06 9.3832382e-20)
(-0.00016536834 -3.3442495e-06 1.868416e-19)
(-0.00017670235 -3.0577765e-06 1.5090511e-19)
(-0.00018830852 -2.7759402e-06 -7.0514104e-20)
(-0.00020016175 -2.499518e-06 -7.9207061e-20)
(-0.00021223545 -2.2292355e-06 -1.4309243e-19)
(-0.00022450168 -1.9657706e-06 -8.4772872e-20)
(-0.00023693133 -1.7097486e-06 2.026995e-19)
(-0.00024949433 -1.4617405e-06 -6.640838e-20)
(-0.00026215979 -1.2222558e-06 -4.4579792e-19)
(-0.00027489622 -9.9175011e-07 1.3681137e-19)
(-0.0002876717 -7.7062463e-07 5.799425e-19)
(-0.00030045404 -5.5922688e-07 9.7403143e-20)
(-0.00031321097 -3.5783928e-07 -2.4454026e-19)
(-0.00032591033 -1.666928e-07 -1.5126544e-19)
(-0.00033852022 1.4031686e-08 -3.2792686e-20)
(-0.00035100913 1.8421911e-07 1.7772131e-19)
(-0.00036334616 3.4378937e-07 4.4524086e-19)
(-0.00037550112 4.9272539e-07 -2.1107028e-19)
(-0.00038744466 6.3105095e-07 -2.270605e-19)
(-0.00039914844 7.5883527e-07 -1.4979166e-19)
(-0.00041058521 8.7619924e-07 -7.6036498e-19)
(-0.00042172893 9.8329496e-07 3.4839268e-19)
(-0.00043255488 1.0803113e-06 6.2344705e-19)
(-0.00044303972 1.1674806e-06 9.6954876e-20)
(-0.00045316157 1.2450567e-06 2.1573573e-19)
(-0.00046290011 1.3133307e-06 -6.9993549e-19)
(-0.00047223659 1.3726174e-06 -5.557129e-19)
(-0.00048115387 1.4232461e-06 4.8930983e-19)
(-0.00048963648 1.465574e-06 2.0330598e-19)
(-0.00049767062 1.4999782e-06 -4.4535921e-20)
(-0.00050524417 1.5268378e-06 8.4745639e-20)
(-0.0005123467 1.5465547e-06 -5.0379199e-20)
(-0.00051896941 1.5595283e-06 7.3105744e-20)
(-0.00052510521 1.5661689e-06 -3.7608834e-20)
(-0.00053074857 1.5668891e-06 -4.1501204e-19)
(-0.00053589558 1.5621018e-06 -5.2748157e-19)
(-0.00054054385 1.552214e-06 9.917688e-20)
(-0.0005446925 1.537637e-06 8.8641692e-19)
(-0.00054834205 1.5187687e-06 8.7568419e-21)
(-0.00055149444 1.4960052e-06 -3.6914125e-19)
(-0.00055415286 1.4697213e-06 4.3905689e-19)
(-0.0005563218 1.4402977e-06 -6.3767138e-20)
(-0.00055800689 1.40809e-06 -2.7909698e-19)
(-0.00055921484 1.3734438e-06 1.3033982e-19)
(-0.00055995341 1.3366888e-06 1.6303578e-19)
(-0.00056023128 1.2981359e-06 1.9625257e-19)
(-0.00056005797 1.2580815e-06 -3.3268669e-19)
(-0.0005594438 1.2167957e-06 -3.5368053e-19)
(-0.00055839976 1.1745437e-06 2.4956794e-19)
(-0.00055693753 1.1315774e-06 3.5189616e-19)
(-0.00055506938 1.0881477e-06 -1.9888256e-19)
(-1.2460337e-05 -6.7703912e-06 1.9872773e-20)
(-3.2911069e-05 2.1779786e-06 -2.766137e-21)
(-5.7926484e-05 6.6272855e-06 4.5582007e-21)
(-8.3745866e-05 1.090392e-05 4.2430207e-20)
(-0.00011205563 1.3837705e-05 2.4919566e-20)
(-0.00014115202 1.5623177e-05 -2.1962326e-20)
(-0.00017078832 1.6853771e-05 1.4914482e-20)
(-0.00020078076 1.7805135e-05 4.5776602e-21)
(-0.00023105259 1.8626689e-05 5.0073927e-21)
(-0.00026157379 1.9399165e-05 4.9853596e-20)
(-0.00029234308 2.0162913e-05 4.8047185e-20)
(-0.00032337309 2.0937159e-05 8.31684e-20)
(-0.00035468035 2.1731059e-05 1.1320503e-19)
(-0.00038628028 2.2548005e-05 9.397487e-20)
(-0.00041818524 2.3388065e-05 4.4520861e-20)
(-0.00045040357 2.4249342e-05 7.3661093e-20)
(-0.00048293917 2.512872e-05 1.4323717e-19)
(-0.00051579129 2.6022328e-05 2.3582076e-20)
(-0.00054895455 2.692579e-05 -1.445682e-19)
(-0.00058241893 2.78344e-05 -8.029897e-20)
(-0.00061616991 2.874326e-05 9.235086e-21)
(-0.00065018854 2.9647395e-05 4.6393298e-20)
(-0.00068445165 3.0541758e-05 1.4759284e-19)
(-0.00071893197 3.1421311e-05 2.7353652e-19)
(-0.00075359831 3.2281036e-05 9.3361835e-20)
(-0.00078841573 3.3116018e-05 -4.4400015e-19)
(-0.00082334575 3.392146e-05 -4.5961545e-19)
(-0.00085834661 3.4692754e-05 -1.8263197e-19)
(-0.0008933735 3.5425497e-05 -1.1600721e-19)
(-0.00092837881 3.6115506e-05 5.1947171e-19)
(-0.00096331244 3.675888e-05 6.1176034e-19)
(-0.00099812212 3.7351987e-05 -3.434799e-19)
(-0.0010327537 3.7891505e-05 -6.4632956e-19)
(-0.0010671513 3.8374429e-05 -1.9289753e-19)
(-0.001101258 3.879808e-05 4.8850164e-19)
(-0.001135016 3.916012e-05 3.4141255e-19)
(-0.0011683666 3.9458565e-05 -5.5222475e-19)
(-0.0012012511 3.9691789e-05 -8.0680711e-19)
(-0.0012336108 3.9858527e-05 4.7282553e-19)
(-0.0012653874 3.9957862e-05 7.2780191e-19)
(-0.0012965232 3.9989236e-05 -8.4435366e-19)
(-0.0013269618 3.995244e-05 -2.3839236e-19)
(-0.0013566477 3.9847616e-05 1.4795918e-18)
(-0.0013855273 3.9675218e-05 1.9880245e-18)
(-0.0014135486 3.9436038e-05 -6.3992064e-20)
(-0.0014406619 3.9131163e-05 -3.0494578e-18)
(-0.0014668197 3.8761972e-05 -1.7418905e-18)
(-0.001491977 3.8330125e-05 1.2798726e-18)
(-0.0015160916 3.7837522e-05 1.3486866e-18)
(-0.001539124 3.7286329e-05 -7.0394414e-19)
(-0.001561038 3.6678909e-05 -1.2156247e-18)
(-0.0015818003 3.6017808e-05 1.4096258e-18)
(-0.001601381 3.5305773e-05 1.78993e-18)
(-0.0016197535 3.4545689e-05 -3.1261226e-19)
(-0.0016368945 3.3740569e-05 -1.1523714e-18)
(-0.0016527843 3.2893544e-05 -1.262264e-18)
(-0.0016674066 3.200782e-05 -1.8594259e-19)
(-0.0016807483 3.1086683e-05 1.280192e-18)
(-0.0016928001 3.0133446e-05 5.2022853e-19)
(-0.0017035558 2.9151452e-05 -1.232705e-18)
(-0.0017130128 2.8144061e-05 -4.7832621e-19)
(-0.0017211713 2.7114594e-05 1.3666202e-18)
(-0.0017280351 2.6066356e-05 3.4581416e-19)
(-0.0017336109 2.5002605e-05 -1.712495e-18)
(-0.0017379082 2.3926524e-05 -9.9138761e-19)
(-0.0017409395 2.2841228e-05 1.0279763e-18)
(-0.0017427198 2.174974e-05 1.3364121e-18)
(-0.0017432668 2.0654985e-05 2.972489e-19)
(-0.0017426004 1.9559774e-05 -7.4509724e-19)
(-0.0017407428 1.8466803e-05 -1.4196929e-18)
(-0.0017377184 1.7378647e-05 1.1700554e-19)
(-0.0017335533 1.6297751e-05 1.0919392e-18)
(-0.0017282754 1.5226411e-05 8.5731598e-20)
(-0.0017219141 1.4166795e-05 2.0253e-19)
(-0.0017145004 1.3120911e-05 4.1633413e-19)
(-0.0017060664 1.2090636e-05 1.5674245e-19)
(-0.0016966451 1.10777e-05 -6.3039892e-19)
(-0.0016862708 1.0083736e-05 -9.1288468e-19)
(-0.0016749781 9.1102808e-06 5.923851e-20)
(-0.0016628027 8.1588033e-06 3.9546187e-19)
(-3.347246e-05 6.7768038e-05 -5.0559693e-21)
(-7.8763594e-05 7.8999877e-05 -3.3382675e-20)
(-0.00013057553 8.5823428e-05 -4.3613927e-20)
(-0.00018139769 9.2532065e-05 -5.949472e-21)
(-0.00023491713 9.7377916e-05 1.9354081e-20)
(-0.00028906059 0.00010060971 -4.5895126e-20)
(-0.00034368357 0.00010291385 6.5156112e-21)
(-0.00039866013 0.00010469394 -1.2062711e-20)
(-0.0004539039 0.00010619146 5.9691383e-20)
(-0.00050935216 0.00010754716 1.7503544e-19)
(-0.00056496606 0.00010883906 1.0445612e-19)
(-0.00062072152 0.0001101083 1.2663234e-19)
(-0.00067660115 0.00011137512 5.5324859e-20)
(-0.00073258957 0.00011264775 1.2751968e-19)
(-0.00078867088 0.00011392732 2.046811e-19)
(-0.0008448271 0.00011521067 8.5076254e-20)
(-0.00090103727 0.000116492 1.010001e-19)
(-0.00095727693 0.00011776378 -1.142519e-20)
(-0.0010135178 0.00011901744 -1.1264712e-19)
(-0.0010697276 0.0001202437 2.6106148e-20)
(-0.00112587 0.00012143292 8.2480353e-20)
(-0.001181905 0.00012257529 8.5136089e-20)
(-0.0012377885 0.00012366099 1.5292372e-19)
(-0.0012934728 0.00012468024 1.5714591e-19)
(-0.0013489066 0.00012562345 -8.856894e-20)
(-0.0014040355 0.00012648128 -1.7479327e-19)
(-0.0014588019 0.00012724476 -1.0942006e-19)
(-0.0015131456 0.00012790535 -2.2391425e-19)
(-0.0015670037 0.00012845503 -2.7845131e-19)
(-0.0016203112 0.00012888634 1.3411271e-19)
(-0.0016730015 0.00012919245 3.1926495e-19)
(-0.0017250061 0.00012936719 -1.4189235e-19)
(-0.0017762557 0.00012940508 -4.2340284e-19)
(-0.00182668 0.0001293014 -2.4453548e-19)
(-0.0018762085 0.00012905216 2.9322348e-19)
(-0.0019247705 0.00012865415 3.8891038e-19)
(-0.0019722959 0.00012810495 -1.0663832e-19)
(-0.002018715 0.00012740292 -2.0925899e-19)
(-0.0020639595 0.00012654724 -7.7939128e-20)
(-0.0021079624 0.00012553783 -3.9234369e-19)
(-0.0021506585 0.0001243754 -4.7162981e-19)
(-0.0021919848 0.0001230614 5.1660448e-19)
(-0.0022318807 0.00012159802 1.1196107e-18)
(-0.0022702883 0.00011998811 9.3292311e-19)
(-0.002307153 0.00011823521 -1.7892184e-19)
(-0.002342423 0.00011634348 -2.0470123e-18)
(-0.0023760504 0.00011431766 -9.1929074e-19)
(-0.0024079908 0.00011216304 5.938333e-19)
(-0.0024382038 0.00010988541 8.2696263e-19)
(-0.0024666529 0.00010749101 7.8870154e-19)
(-0.0024933059 0.00010498649 -9.3340544e-19)
(-0.0025181349 0.00010237884 -1.3139023e-19)
(-0.0025411162 9.9675364e-05 1.0128893e-18)
(-0.0025622305 9.6883617e-05 -1.0436029e-19)
(-0.002581463 9.4011349e-05 -2.0977289e-19)
(-0.0025988034 9.1066466e-05 -3.8926332e-19)
(-0.0026142455 8.805699e-05 -3.7201879e-19)
(-0.0026277876 8.4990991e-05 5.4488906e-19)
(-0.0026394322 8.1876524e-05 1.5310278e-19)
(-0.0026491861 7.872164e-05 -8.196374e-19)
(-0.00265706 7.5534299e-05 -2.1771907e-19)
(-0.0026630686 7.2322347e-05 5.980583e-19)
(-0.0026672301 6.9093467e-05 -6.1684629e-22)
(-0.0026695668 6.5855169e-05 -3.970157e-19)
(-0.0026701039 6.2614729e-05 3.5319102e-19)
(-0.0026688703 5.9379191e-05 4.0095483e-19)
(-0.0026658976 5.6155309e-05 -2.4590404e-19)
(-0.0026612204 5.2949566e-05 -1.3528221e-19)
(-0.002654876 4.976812e-05 -1.1217077e-19)
(-0.0026469039 4.6616822e-05 -6.3659156e-19)
(-0.002637346 4.3501177e-05 -8.87314e-20)
(-0.0026262461 4.042635e-05 3.7701195e-19)
(-0.00261365 3.7397135e-05 2.1179298e-20)
(-0.0025996046 3.4417972e-05 2.9351048e-19)
(-0.0025841586 3.1492917e-05 2.5553926e-19)
(-0.0025673616 2.8625663e-05 3.0450122e-19)
(-0.0025492641 2.5819552e-05 -9.2691841e-20)
(-0.0025299174 2.3077612e-05 -9.1177694e-19)
(-0.0025093733 2.0402564e-05 -2.7979145e-19)
(-0.002487684 1.7796852e-05 6.7007879e-19)
(-4.877017e-05 0.00019741372 -2.9465054e-19)
(-0.00011274834 0.00020696042 -1.4562798e-19)
(-0.00018457496 0.00021405387 -5.3068763e-20)
(-0.00025371356 0.00022110389 -1.679921e-19)
(-0.00032546278 0.00022646177 -8.2263196e-20)
(-0.00039746668 0.00023026994 -1.3425508e-19)
(-0.00046975733 0.00023308684 -9.5288045e-20)
(-0.00054230808 0.00023529049 -1.7390531e-20)
(-0.00061506003 0.00023712816 6.7107232e-20)
(-0.0006879438 0.0002387533 1.6514161e-19)
(-0.00076090017 0.00024025597 1.4554166e-19)
(-0.0008338797 0.00024168611 1.172247e-19)
(-0.00090683881 0.00024306913 -3.1967945e-21)
(-0.00097973687 0.00024441554 1.1875421e-19)
(-0.0010525342 0.00024572663 1.5053255e-19)
(-0.0011251907 0.0002469979 -7.5706346e-21)
(-0.0011976645 0.00024822117 1.002922e-19)
(-0.0012699117 0.00024938583 5.6143146e-20)
(-0.0013418856 0.00025047974 -2.0459145e-21)
(-0.0014135366 0.00025148979 6.7213431e-20)
(-0.001484812 0.00025240234 7.5285232e-20)
(-0.0015556557 0.00025320356 7.1693927e-20)
(-0.0016260089 0.00025387962 2.7921955e-20)
(-0.0016958096 0.0002544169 -6.3250764e-20)
(-0.001764993 0.00025480213 2.2400029e-21)
(-0.0018334916 0.00025502252 -1.1062993e-20)
(-0.0019012359 0.00025506593 -2.4498421e-19)
(-0.0019681541 0.00025492093 -1.1129948e-19)
(-0.0020341727 0.00025457696 5.8680999e-20)
(-0.0020992167 0.00025402436 -1.1570949e-20)
(-0.0021632102 0.00025325449 -1.6109903e-19)
(-0.0022260764 0.00025225977 -1.43308e-19)
(-0.0022877381 0.00025103371 1.5283917e-19)
(-0.0023481183 0.00024957102 8.3347284e-20)
(-0.0024071403 0.00024786758 -2.2936785e-19)
(-0.0024647283 0.00024592048 -1.8718767e-19)
(-0.0025208074 0.00024372804 1.6052979e-19)
(-0.0025753045 0.00024128981 2.4075378e-19)
(-0.0026281483 0.00023860655 -1.5244986e-19)
(-0.0026792699 0.00023568021 -2.5584234e-19)
(-0.002728603 0.00023251395 -5.5346997e-20)
(-0.002776084 0.00022911201 1.7484573e-19)
(-0.0028216528 0.00022547975 3.0648608e-19)
(-0.0028652529 0.00022162357 5.1355281e-20)
(-0.0029068315 0.00021755085 -1.5177041e-22)
(-0.0029463397 0.00021326987 -3.6542171e-19)
(-0.0029837332 0.0002087898 -3.7377586e-19)
(-0.0030189718 0.00020412057 8.7831749e-20)
(-0.0030520202 0.00019927282 1.9607725e-19)
(-0.0030828475 0.00019425783 4.9260817e-19)
(-0.003111428 0.00018908743 3.4649347e-20)
(-0.0031377407 0.00018377389 -4.7898019e-19)
(-0.0031617694 0.00017832993 9.5107697e-20)
(-0.0031835032 0.0001727685 2.3604829e-19)
(-0.0032029359 0.00016710286 -6.4302902e-20)
(-0.0032200663 0.00016134634 -2.347268e-19)
(-0.003234898 0.0001555124 -1.9115283e-19)
(-0.0032474393 0.00014961446 1.5050406e-19)
(-0.0032577033 0.00014366587 2.347227e-20)
(-0.0032657075 0.00013767985 -3.6097012e-19)
(-0.0032714737 0.00013166938 -4.5297301e-20)
(-0.003275028 0.00012564721 3.0308959e-19)
(-0.0032764004 0.00011962572 5.8778145e-20)
(-0.0032756248 0.00011361694 -9.5959955e-20)
(-0.0032727386 0.00010763247 1.1558213e-19)
(-0.0032677825 0.00010168345 1.1058241e-19)
(-0.0032608005 9.5780506e-05 -2.7098698e-19)
(-0.0032518393 8.9933755e-05 -2.0473962e-19)
(-0.0032409485 8.4152739e-05 -5.1636655e-20)
(-0.0032281797 7.8446443e-05 -5.9047041e-20)
(-0.0032135872 7.2823262e-05 4.4482314e-20)
(-0.0031972266 6.7290972e-05 3.9349793e-20)
(-0.0031791556 6.1856731e-05 -1.1315307e-19)
(-0.0031594333 5.652707e-05 -8.9466613e-20)
(-0.0031381196 5.1307872e-05 2.5012793e-19)
(-0.0031152758 4.6204391e-05 2.8742342e-19)
(-0.0030909635 4.1221279e-05 -2.9839888e-19)
(-0.0030652453 3.6362602e-05 -5.6432965e-19)
(-0.0030381835 3.1631875e-05 -5.5898017e-20)
(-0.003009841 2.7032069e-05 1.8577909e-19)
(-5.7429983e-05 0.00036131418 -5.1065272e-19)
(-0.00013264198 0.00036809864 -4.7073619e-19)
(-0.00021678195 0.000374176 -2.3028044e-19)
(-0.00029715779 0.00038040193 -8.8196809e-20)
(-0.00038010435 0.0003854301 -3.4593427e-19)
(-0.00046298423 0.00038923334 -3.8987202e-19)
(-0.00054594425 0.00039216047 -2.6997621e-19)
(-0.00062903796 0.00039448987 -1.5540969e-19)
(-0.00071224428 0.00039642412 1.8837686e-20)
(-0.00079550592 0.00039809822 1.7230886e-19)
(-0.0008787622 0.00039959589 3.3045729e-20)
(-0.00096195506 0.00040096547 8.2977221e-20)
(-0.001045029 0.00040223191 3.0728317e-20)
(-0.00112793 0.00040340503 7.3102006e-20)
(-0.0012106051 0.00040448479 1.4049071e-19)
(-0.0012930009 0.00040546467 -1.9119061e-20)
(-0.001375063 0.00040633387 7.628539e-20)
(-0.0014567355 0.00040707877 5.7198196e-20)
(-0.0015379602 0.0004076839 -2.8583859e-20)
(-0.0016186767 0.00040813264 6.2369756e-20)
(-0.001698822 0.00040840777 1.1546003e-19)
(-0.0017783306 0.00040849187 -5.1649971e-20)
(-0.0018571342 0.0004083676 -6.312514e-20)
(-0.0019351623 0.00040801801 2.6656251e-20)
(-0.002012342 0.0004074267 1.4125834e-20)
(-0.0020885981 0.00040657802 -1.4024251e-19)
(-0.0021638539 0.00040545728 -2.6527948e-19)
(-0.0022380307 0.0004040508 -7.5051359e-20)
(-0.002311049 0.00040234615 1.139356e-19)
(-0.002382828 0.00040033219 1.0111375e-19)
(-0.0024532865 0.00039799919 -2.2806251e-19)
(-0.0025223431 0.00039533889 -1.1001041e-19)
(-0.0025899165 0.0003923446 1.6296276e-19)
(-0.0026559258 0.00038901123 1.5093289e-19)
(-0.0027202914 0.00038533532 3.7414974e-20)
(-0.0027829347 0.00038131508 -2.4827525e-19)
(-0.0028437789 0.00037695038 2.119948e-20)
(-0.0029027493 0.00037224278 1.7369603e-20)
(-0.0029597736 0.00036719547 -1.5688165e-19)
(-0.0030147823 0.00036181324 -1.6793147e-19)
(-0.0030677092 0.00035610251 -1.8756672e-19)
(-0.0031184913 0.00035007115 1.3309632e-19)
(-0.0031670697 0.0003437285 3.1910674e-19)
(-0.0032133891 0.0003370853 -6.187334e-20)
(-0.0032573989 0.00033015354 -2.2194118e-19)
(-0.0032990528 0.00032294643 -1.7454304e-19)
(-0.0033383093 0.00031547829 -1.1064449e-19)
(-0.0033751318 0.00030776442 1.4616048e-19)
(-0.0034094886 0.00029982104 8.6891503e-20)
(-0.0034413534 0.00029166513 3.9596456e-20)
(-0.0034707048 0.00028331434 1.2884037e-19)
(-0.0034975269 0.0002747869 -7.066282e-20)
(-0.003521809 0.00026610147 -8.1318209e-20)
(-0.0035435458 0.00025727704 -1.7946525e-20)
(-0.003562737 0.0002483328 -1.2242094e-20)
(-0.0035793877 0.00023928808 -2.7902002e-20)
(-0.0035935081 0.0002301622 -2.4594734e-19)
(-0.0036051132 0.00022097436 -2.3891427e-19)
(-0.0036142229 0.00021174359 -1.9560997e-20)
(-0.003620862 0.0002024886 -1.9140002e-20)
(-0.0036250595 0.00019322774 9.1967075e-20)
(-0.0036268489 0.0001839789 2.4358694e-19)
(-0.0036262676 0.00017475942 1.4792832e-19)
(-0.0036233572 0.00016558605 -5.6699775e-20)
(-0.0036181626 0.00015647489 -2.4168906e-19)
(-0.0036107323 0.00014744129 -1.0178731e-19)
(-0.0036011179 0.00013849987 3.7080654e-20)
(-0.0035893737 0.00012966445 1.4496105e-20)
(-0.0035755569 0.00012094801 -2.1288762e-19)
(-0.0035597268 0.00011236268 -2.7856544e-19)
(-0.0035419449 0.00010391972 8.0510949e-20)
(-0.0035222744 9.5629513e-05 2.5632409e-19)
(-0.0035007802 8.7501509e-05 8.4832251e-20)
(-0.0034775285 7.9544273e-05 -1.5106471e-19)
(-0.0034525863 7.1765445e-05 -1.0007092e-19)
(-0.0034260216 6.4171772e-05 -5.038564e-20)
(-0.0033979029 5.6769141e-05 -2.2139533e-19)
(-0.0033682991 4.9562598e-05 -1.8475288e-19)
(-0.003337279 4.2556401e-05 -1.2030018e-19)
(-0.0033049116 3.5754034e-05 -1.2949895e-19)
(-6.1393374e-05 0.00054245625 -8.3760445e-19)
(-0.00014226555 0.0005467777 -7.7549551e-19)
(-0.00023292802 0.00055146237 -7.8707136e-19)
(-0.00031936887 0.00055646965 -5.8047459e-19)
(-0.00040845623 0.00056078049 -5.5410736e-19)
(-0.00049729081 0.00056424199 -4.6938027e-19)
(-0.00058605326 0.00056701146 -2.3486462e-19)
(-0.00067483704 0.00056925458 -1.2380333e-20)
(-0.00076364966 0.00057111038 6.8167579e-20)
(-0.0008524509 0.00057267964 2.1822361e-19)
(-0.00094118868 0.00057402841 1.3829334e-19)
(-0.0010298076 0.00057519582 1.5088331e-19)
(-0.0011182511 0.00057620165 1.3167623e-19)
(-0.0012064616 0.00057705214 2.6327252e-19)
(-0.0012943815 0.00057774426 2.59924e-19)
(-0.0013819518 0.00057826854 1.2309587e-20)
(-0.0014691126 0.00057861113 1.8300037e-19)
(-0.0015558019 0.00057875522 2.0573326e-19)
(-0.001641956 0.00057868202 1.5967233e-19)
(-0.0017275087 0.00057837154 1.3294019e-19)
(-0.0018123914 0.00057780318 3.5581395e-20)
(-0.0018965333 0.00057695616 -6.6830632e-20)
(-0.0019798612 0.00057580997 1.5683794e-20)
(-0.0020622993 0.0005743446 1.8143058e-19)
(-0.0021437701 0.00057254083 1.507086e-19)
(-0.002224194 0.0005703805 8.180726e-20)
(-0.0023034898 0.00056784666 -7.851767e-20)
(-0.0023815748 0.0005649238 -1.6460811e-19)
(-0.0024583655 0.00056159796 -6.0934656e-20)
(-0.0025337776 0.00055785689 7.1697245e-20)
(-0.0026077265 0.00055369019 -6.0614825e-21)
(-0.0026801275 0.00054908935 9.9832945e-20)
(-0.0027508964 0.00054404787 1.5700803e-19)
(-0.00281995 0.00053856129 1.2020742e-19)
(-0.0028872061 0.00053262727 1.2154087e-19)
(-0.0029525841 0.00052624555 -6.5246629e-20)
(-0.0030160056 0.00051941804 1.8043102e-21)
(-0.0030773944 0.00051214873 -6.9023571e-20)
(-0.003136677 0.00050444368 -2.0897037e-20)
(-0.0031937834 0.000496311 -7.3165694e-20)
(-0.0032486465 0.00048776079 -2.4149166e-19)
(-0.0033012034 0.000478805 -3.0961566e-20)
(-0.0033513952 0.0004694574 2.2074236e-19)
(-0.0033991671 0.00045973348 1.6229103e-19)
(-0.0034444693 0.0004496503 -8.2335281e-21)
(-0.0034872565 0.0004392264 3.3836878e-20)
(-0.0035274885 0.00042848164 -1.1404012e-20)
(-0.0035651304 0.00041743712 1.0879195e-19)
(-0.0036001525 0.00040611499 1.2635174e-19)
(-0.0036325305 0.00039453832 -2.6037252e-21)
(-0.0036622456 0.00038273095 -3.3713113e-22)
(-0.0036892846 0.00037071736 -1.682158e-20)
(-0.0037136398 0.00035852251 -2.2056946e-21)
(-0.0037353089 0.00034617169 -1.1754921e-19)
(-0.0037542952 0.00033369036 -1.3888337e-19)
(-0.0037706072 0.00032110407 4.9329878e-20)
(-0.0037842589 0.00030843825 -1.0795565e-20)
(-0.0037952692 0.00029571811 -1.0751459e-19)
(-0.0038036622 0.00028296854 -7.3935471e-20)
(-0.0038094666 0.00027021395 -7.1136845e-20)
(-0.003812716 0.00025747819 4.0513302e-21)
(-0.003813448 0.00024478445 1.3358138e-19)
(-0.0038117047 0.00023215511 1.8412798e-19)
(-0.0038075321 0.00021961176 1.3941391e-19)
(-0.0038009798 0.00020717505 -5.3515328e-20)
(-0.0037921007 0.00019486462 -9.8874838e-20)
(-0.003780951 0.00018269911 -4.7832854e-20)
(-0.0037675898 0.00017069603 -7.2321622e-20)
(-0.0037520786 0.00015887181 -1.6718453e-19)
(-0.0037344815 0.0001472417 -1.0963544e-19)
(-0.0037148644 0.00013581978 4.0211257e-20)
(-0.0036932949 0.00012461896 4.7437743e-20)
(-0.0036698423 0.00011365093 -1.1559075e-20)
(-0.0036445769 0.00010292617 2.8833681e-20)
(-0.0036175701 9.2454009e-05 8.9056869e-20)
(-0.0035888939 8.2242546e-05 -1.0268574e-19)
(-0.0035586208 7.2298779e-05 -2.0479652e-19)
(-0.0035268235 6.2628604e-05 -1.900553e-19)
(-0.0034935747 5.3236855e-05 -1.8304568e-19)
(-0.0034589471 4.4127369e-05 -4.545557e-20)
(-6.2797964e-05 0.00073071309 -9.7242992e-19)
(-0.00014604299 0.00073333729 -6.9278796e-19)
(-0.00023969805 0.00073680112 -8.6867068e-19)
(-0.00032906821 0.00074068433 -1.0395475e-18)
(-0.00042123369 0.00074424056 -7.9454739e-19)
(-0.00051308546 0.00074725348 -3.2356303e-19)
(-0.00060478491 0.00074974724 -2.0018763e-19)
(-0.00069643147 0.0007517961 -9.4288895e-20)
(-0.00078804597 0.00075347999 1.252744e-19)
(-0.00087960125 0.00075486356 1.9461381e-19)
(-0.00097105551 0.00075599139 9.3399778e-20)
(-0.0010623603 0.0007568898 1.5732986e-20)
(-0.0011534632 0.00075757043 -9.6648008e-20)
(-0.0012443087 0.00075803385 6.8536817e-20)
(-0.0013348393 0.00075827251 1.9452089e-19)
(-0.0014249957 0.000758273 -4.4790616e-20)
(-0.0015147162 0.00075801774 1.7650117e-20)
(-0.0016039371 0.00075748625 6.3630296e-20)
(-0.0016925923 0.00075665612 9.4049028e-20)
(-0.0017806131 0.00075550381 2.6939917e-19)
(-0.0018679284 0.0007540052 2.5330863e-19)
(-0.0019544643 0.00075213613 1.5253437e-19)
(-0.0020401448 0.00074987285 1.4968157e-19)
(-0.0021248914 0.00074719231 3.1207552e-19)
(-0.0022086234 0.00074407252 1.9058568e-19)
(-0.0022912584 0.00074049283 -4.1623695e-21)
(-0.002372712 0.00073643413 -4.6089127e-20)
(-0.0024528989 0.00073187912 -7.5777856e-20)
(-0.0025317325 0.00072681243 3.3275191e-21)
(-0.0026091256 0.00072122084 1.6279436e-19)
(-0.0026849908 0.00071509339 1.6964487e-19)
(-0.0027592407 0.00070842145 2.4001581e-19)
(-0.0028317887 0.00070119889 2.5997436e-19)
(-0.0029025487 0.0006934221 1.2741213e-19)
(-0.0029714363 0.00068509 -1.8695225e-20)
(-0.0030383687 0.00067620415 -1.5678184e-19)
(-0.0031032653 0.00066676865 -1.5260073e-20)
(-0.003166048 0.00065679019 -6.4283558e-20)
(-0.0032266416 0.00064627797 -7.9498103e-20)
(-0.0032849745 0.00063524366 2.3912942e-21)
(-0.0033409783 0.0006237013 -2.5924185e-20)
(-0.003394589 0.00061166719 -7.646396e-20)
(-0.0034457465 0.00059915982 -1.0997645e-19)
(-0.0034943957 0.00058619971 1.2502618e-19)
(-0.003540486 0.00057280926 1.5352545e-19)
(-0.003583972 0.00055901261 1.7751882e-19)
(-0.0036248134 0.00054483551 1.8634227e-19)
(-0.0036629755 0.00053030507 1.4832104e-20)
(-0.0036984291 0.00051544968 8.1090335e-21)
(-0.0037311505 0.00050029878 -3.8909407e-21)
(-0.0037611218 0.00048488265 -2.8566558e-20)
(-0.0037883309 0.00046923229 -5.6226322e-20)
(-0.0038127713 0.0004533792 -8.3231707e-20)
(-0.0038344423 0.00043735522 -1.1289898e-19)
(-0.0038533488 0.00042119231 -1.8850604e-19)
(-0.0038695012 0.00040492243 -6.3179257e-20)
(-0.0038829155 0.00038857734 8.0238294e-20)
(-0.0038936129 0.00037218846 1.0042102e-19)
(-0.0039016196 0.0003557867 7.6296371e-21)
(-0.003906967 0.00033940232 -8.1860623e-20)
(-0.0039096909 0.00032306482 -9.6801233e-20)
(-0.003909832 0.00030680281 -4.5239747e-20)
(-0.003907435 0.00029064386 3.8843578e-20)
(-0.0039025485 0.00027461445 1.8238092e-19)
(-0.0038952252 0.00025873988 9.7858071e-20)
(-0.0038855209 0.00024304414 -1.3524255e-20)
(-0.0038734948 0.00022754992 -8.0850071e-20)
(-0.0038592089 0.00021227849 -1.0541248e-19)
(-0.0038427277 0.00019724972 -8.8534287e-20)
(-0.0038241183 0.000182482 -4.9870338e-20)
(-0.0038034494 0.00016799221 4.1777103e-21)
(-0.0037807918 0.00015379578 -1.1813786e-20)
(-0.0037562175 0.0001399066 -7.3601976e-20)
(-0.0037297997 0.00012633705 -2.2250935e-20)
(-0.0037016126 0.00011309808 6.3878119e-20)
(-0.0036717308 0.00010019911 -3.4132933e-20)
(-0.0036402296 8.7648205e-05 -1.2086657e-19)
(-0.0036071843 7.5452049e-05 -2.1582556e-19)
(-0.00357267 6.3616007e-05 -1.6067219e-19)
(-0.0035367618 5.2144206e-05 -5.2368145e-20)
(-6.3066491e-05 0.00092111166 -1.2533157e-18)
(-0.00014707089 0.00092275062 -1.2267259e-18)
(-0.00024188199 0.00092535211 -9.8831219e-19)
(-0.00033251868 0.00092839906 -8.3228073e-19)
(-0.00042611757 0.00093133784 -7.4289455e-19)
(-0.00051942206 0.00093393507 -4.8923157e-19)
(-0.00061255368 0.00093613919 -2.4967057e-19)
(-0.00070559892 0.00093796356 -2.2137141e-19)
(-0.00079857968 0.00093944349 -2.5359655e-20)
(-0.0008914754 0.00094061324 1.4837531e-19)
(-0.00098425201 0.00094149727 1.0580979e-19)
(-0.001076868 0.00094210851 -7.3410547e-23)
(-0.0011692763 0.00094244932 -2.2255937e-19)
(-0.0012614253 0.00094251337 -7.7689277e-20)
(-0.0013532602 0.00094228752 9.9175619e-21)
(-0.0014447231 0.00094175352 -6.5976071e-20)
(-0.001535753 0.00094088934 4.6304327e-20)
(-0.0016262864 0.00093967028 2.8623165e-20)
(-0.0017162565 0.00093806988 -2.2132321e-20)
(-0.0018055937 0.0009360606 1.3295456e-19)
(-0.0018942255 0.00093361453 2.3542204e-19)
(-0.0019820768 0.00093070387 9.1085029e-20)
(-0.0020690694 0.00092730136 1.8996879e-19)
(-0.0021551228 0.00092338078 5.4612494e-19)
(-0.0022401543 0.00091891718 4.2283527e-19)
(-0.002324079 0.00091388728 -3.7663899e-20)
(-0.00240681 0.00090826972 -1.1690564e-19)
(-0.0024882593 0.0009020453 -1.6360508e-19)
(-0.0025683377 0.00089519718 -4.274428e-20)
(-0.0026469553 0.00088771113 1.162741e-19)
(-0.0027240217 0.00087957558 9.7099751e-20)
(-0.0027994468 0.00087078183 2.6325456e-19)
(-0.002873141 0.00086132413 2.1563577e-19)
(-0.0029450156 0.00085119972 -6.8100137e-20)
(-0.0030149832 0.00084040891 -1.3963498e-19)
(-0.0030829584 0.00082895511 -1.0909839e-19)
(-0.0031488579 0.00081684477 8.0416104e-21)
(-0.0032126011 0.0008040874 -1.3067037e-19)
(-0.0032741105 0.00079069546 -2.9086483e-19)
(-0.003333312 0.00077668435 -2.6105984e-19)
(-0.0033901353 0.00076207224 -1.3607585e-19)
(-0.0034445142 0.00074688 5.7271375e-20)
(-0.0034963871 0.00073113102 -6.2293535e-20)
(-0.0035456971 0.00071485106 -9.5717123e-20)
(-0.0035923923 0.00069806811 5.8918357e-20)
(-0.0036364261 0.00068081216 2.517137e-19)
(-0.0036777574 0.00066311502 3.0611002e-19)
(-0.0037163506 0.00064501014 -1.9331161e-20)
(-0.0037521761 0.00062653236 -1.3945589e-19)
(-0.0037852098 0.0006077177 -1.2157338e-20)
(-0.0038154339 0.00058860319 -9.0192243e-20)
(-0.0038428362 0.00056922657 -4.0888667e-20)
(-0.0038674108 0.00054962613 -8.3827037e-20)
(-0.0038891575 0.00052984046 -1.9363674e-19)
(-0.0039080819 0.00050990826 -1.6008685e-19)
(-0.0039241955 0.00048986815 -7.9014442e-20)
(-0.0039375154 0.0004697584 1.8531552e-21)
(-0.003948064 0.00044961681 -3.2812025e-20)
(-0.0039558692 0.00042948053 -5.7577743e-20)
(-0.0039609639 0.00040938584 -6.9909478e-20)
(-0.0039633858 0.00038936803 -4.9602013e-20)
(-0.0039631772 0.00036946128 8.4559307e-21)
(-0.0039603851 0.00034969848 -6.5795162e-20)
(-0.0039550601 0.00033011112 -9.5855584e-21)
(-0.0039472569 0.00031072923 5.9769505e-20)
(-0.0039370337 0.00029158126 -2.5801358e-20)
(-0.003924452 0.00027269403 -3.341125e-20)
(-0.003909576 0.00025409262 -6.4627705e-20)
(-0.0038924726 0.00023580037 -6.4068287e-20)
(-0.0038732112 0.00021783884 -5.2619089e-20)
(-0.0038518629 0.00020022778 -2.8879179e-20)
(-0.0038285008 0.00018298512 -2.9622554e-20)
(-0.0038031992 0.00016612697 -1.548907e-20)
(-0.0037760337 0.00014966763 3.2924594e-20)
(-0.0037470805 0.00013361962 2.691495e-20)
(-0.0037164166 0.00011799371 -6.6171724e-20)
(-0.0036841194 0.00010279899 -1.2757131e-19)
(-0.0036502661 8.8042903e-05 -1.5935461e-19)
(-0.0036149339 7.3731307e-05 -1.7030343e-19)
(-0.0035781997 5.9868554e-05 -1.0323499e-19)
(-6.2943024e-05 0.0011116596 -1.6521737e-18)
(-0.00014704907 0.0011128073 -1.5755572e-18)
(-0.00024219383 0.0011148891 -8.1903502e-19)
(-0.00033331415 0.0011174019 -5.0192484e-19)
(-0.00042754626 0.0011199099 -3.531874e-19)
(-0.00052154066 0.0011221864 -3.2908783e-19)
(-0.00061538008 0.0011241445 -3.5110583e-20)
(-0.00070913204 0.0011257628 1.258829e-19)
(-0.00080281295 0.0011270476 2.6339596e-19)
(-0.00089640372 0.0011280106 3.079771e-19)
(-0.00098987469 0.0011286598 3.7754155e-19)
(-0.0010831895 0.0011289961 3.4101629e-19)
(-0.0011763057 0.0011290126 8.5840425e-20)
(-0.0012691758 0.0011286954 1.3659715e-19)