/*--------------------------------*- C++ -*----------------------------------*\
| =========                 |                                                 |
| \\      /  F ield         | OpenFOAM: The Open Source CFD Toolbox           |
|  \\    /   O peration     | Version:  2306                                  |
|   \\  /    A nd           | Website:  www.openfoam.com                      |
|    \\/     M anipulation  |                                                 |
\*---------------------------------------------------------------------------*/
FoamFile
{
    version     2.0;
    format      ascii;
    arch        "LSB;label=32;scalar=64";
    class       volVectorField;
    location    "0.05";
    object      U;
}
// * * * * * * * * * * * * * * * * * * * * * * * * * * * * * * * * * * * * * //

dimensions      [0 1 -1 0 0 0 0];

internalField   nonuniform List<vector> 
6400
(
(-1.1603438e-05 1.1083318e-05 2.7153422e-20)
(-2.6939788e-05 1.2385183e-05 -2.5766922e-22)
(-4.4403195e-05 1.2319704e-05 -6.0024579e-21)
(-6.1482964e-05 1.2349523e-05 -3.5145192e-22)
(-7.8911675e-05 1.2339733e-05 4.5455464e-21)
(-9.6220715e-05 1.2282392e-05 -4.4284364e-21)
(-0.0001133927 1.2207041e-05 -3.1145294e-21)
(-0.00013040094 1.2113878e-05 5.5250539e-21)
(-0.0001472186 1.2005352e-05 5.6855174e-21)
(-0.00016382012 1.1882912e-05 -4.5173016e-21)
(-0.00018018183 1.1747494e-05 -6.9122479e-21)
(-0.00019628105 1.1599831e-05 6.6045764e-21)
(-0.00021209547 1.1440595e-05 -2.7583373e-21)
(-0.00022760379 1.1270383e-05 -5.1210524e-21)
(-0.00024278588 1.108978e-05 1.0194932e-21)
(-0.00025762275 1.0899367e-05 1.5872006e-22)
(-0.00027209648 1.0699724e-05 2.3410079e-21)
(-0.00028619028 1.0491451e-05 -3.048758e-21)
(-0.00029988852 1.0275151e-05 -3.5755035e-21)
(-0.00031317672 1.0051429e-05 2.6639597e-21)
(-0.00032604161 9.8208949e-06 -1.7710903e-21)
(-0.0003384711 9.5841552e-06 -2.5600367e-21)
(-0.00035045433 9.3418099e-06 2.3368919e-21)
(-0.00036198164 9.0944499e-06 1.162028e-20)
(-0.00037304462 8.8426487e-06 2.0203111e-20)
(-0.00038363603 8.5869689e-06 -6.865424e-21)
(-0.00039374986 8.3279422e-06 -3.6336832e-20)
(-0.00040338127 8.066073e-06 -4.1115734e-21)
(-0.00041252657 7.8018302e-06 2.3774249e-20)
(-0.00042118321 7.5356321e-06 1.3824113e-20)
(-0.00042934975 7.2678268e-06 4.7615473e-21)
(-0.0004370258 6.9986775e-06 -4.4410414e-22)
(-0.000444212 6.72833e-06 1.3764694e-20)
(-0.00045091002 6.4567604e-06 -1.5125875e-20)
(-0.00045712267 6.1837754e-06 -3.3297059e-20)
(-0.0004628546 5.9091919e-06 2.604746e-20)
(-0.00046811361 5.6340607e-06 1.8237e-20)
(-0.00047290673 5.3634745e-06 -4.6506674e-20)
(-0.0004772375 5.1014292e-06 6.2278646e-21)
(-0.00048110992 4.8487587e-06 6.4477599e-20)
(-0.0004845304 4.6047838e-06 2.3238758e-20)
(-0.00048750712 4.3685387e-06 -2.8270146e-20)
(-0.00049004926 4.1392418e-06 -6.696065e-20)
(-0.00049216658 3.9163829e-06 -6.8553055e-20)
(-0.00049386926 3.6996726e-06 1.6057893e-20)
(-0.00049516779 3.4889831e-06 1.3853916e-19)
(-0.00049607302 3.2843089e-06 3.5498599e-20)
(-0.00049659608 3.0856635e-06 -4.4565818e-20)
(-0.00049674839 2.8930512e-06 -4.9343669e-20)
(-0.00049654156 2.7064654e-06 -9.8512077e-20)
(-0.00049598743 2.5258981e-06 6.7900078e-20)
(-0.00049509795 2.3513369e-06 5.8093769e-20)
(-0.00049388519 2.1827638e-06 -2.9084083e-20)
(-0.00049236133 2.0201542e-06 4.4610578e-20)
(-0.00049053855 1.8634662e-06 -7.8813411e-20)
(-0.00048842908 1.7126658e-06 -6.2147095e-20)
(-0.00048604508 1.5677017e-06 9.1237171e-20)
(-0.00048339869 1.4285118e-06 1.3676513e-20)
(-0.00048050196 1.2950397e-06 -2.7589298e-20)
(-0.00047736681 1.1672247e-06 2.0421962e-20)
(-0.00047400506 1.0449953e-06 2.1108614e-21)
(-0.00047042834 9.2829277e-07 -2.3863762e-20)
(-0.00046664812 8.1704084e-07 -1.4893388e-20)
(-0.00046267566 7.1119061e-07 2.1805062e-20)
(-0.00045852202 6.1069766e-07 -7.1414077e-21)
(-0.00045419803 5.1551932e-07 -2.8767798e-20)
(-0.00044971428 4.2566123e-07 5.4472778e-20)
(-0.00044508112 3.4114872e-07 -1.3455626e-20)
(-0.00044030867 2.6207784e-07 -2.855947e-20)
(-0.00043540679 1.8861112e-07 1.1439255e-19)
(-0.00043038514 1.2098497e-07 -2.0758009e-20)
(-0.00042525307 5.9423563e-08 -9.3375147e-20)
(-0.00042001937 3.9869286e-09 1.9509322e-20)
(-0.00041469019 -4.5711652e-08 3.8628614e-20)
(-0.0004092639 -9.6288691e-08 2.5564467e-20)
(-0.00040375904 -1.7439561e-07 -8.3300134e-20)
(-0.00039819616 -2.5762598e-07 -6.0263117e-20)
(-0.00039257468 -3.3639251e-07 7.6421903e-20)
(-0.00038689821 -4.0951446e-07 8.8799368e-20)
(-0.00038117304 -4.770648e-07 -1.9786114e-20)
(-1.8742284e-05 5.8131542e-05 -8.9883909e-21)
(-4.1879073e-05 5.891286e-05 -1.7348654e-21)
(-6.8435938e-05 5.8900696e-05 4.7842353e-22)
(-9.437267e-05 5.8914576e-05 9.3664018e-21)
(-0.00012081549 5.8778548e-05 7.550909e-21)
(-0.00014708189 5.852901e-05 -6.0757159e-21)
(-0.00017315133 5.8203249e-05 4.9029463e-21)
(-0.00019898265 5.7810897e-05 3.7707633e-21)
(-0.00022453308 5.7357802e-05 7.4490135e-22)
(-0.00024976118 5.684764e-05 -4.2285209e-21)
(-0.00027462871 5.6283129e-05 -6.6131725e-21)
(-0.00029909939 5.5666596e-05 -1.3275133e-21)
(-0.00032313807 5.5000236e-05 9.511609e-22)
(-0.00034671139 5.428616e-05 1.8010158e-20)
(-0.00036978798 5.3526488e-05 4.3617957e-21)
(-0.00039233833 5.2723395e-05 -9.8497242e-22)
(-0.00041433476 5.1879095e-05 1.5336791e-20)
(-0.0004357514 5.099588e-05 6.7940192e-22)
(-0.00045656422 5.0076091e-05 -1.5454685e-20)
(-0.00047675103 4.912212e-05 -1.1119311e-20)
(-0.00049629151 4.8136399e-05 -1.1325813e-21)
(-0.00051516725 4.712139e-05 7.0998709e-22)
(-0.00053336168 4.6079565e-05 2.3544575e-21)
(-0.00055086017 4.5013412e-05 1.1920077e-20)
(-0.00056764994 4.3925406e-05 2.4155176e-20)
(-0.0005837201 4.2818002e-05 -3.2031782e-21)
(-0.00059906164 4.1693632e-05 -3.0060434e-20)
(-0.00061366734 4.0554677e-05 -1.4014185e-20)
(-0.00062753182 3.9403448e-05 -1.1458791e-20)
(-0.00064065144 3.8242191e-05 2.4942809e-20)
(-0.00065302432 3.7073029e-05 4.5728946e-20)
(-0.00066465026 3.5897969e-05 -1.1803632e-20)
(-0.00067553069 3.4718866e-05 -2.5354984e-20)
(-0.00068566871 3.3537385e-05 -2.0683659e-20)
(-0.0006950689 3.2355055e-05 4.0620831e-21)
(-0.00070373679 3.1173465e-05 1.9411233e-20)
(-0.00071167745 2.9995258e-05 -3.3424177e-20)
(-0.00071889808 2.8826011e-05 -5.8835197e-20)
(-0.00072540995 2.7670625e-05 6.4545928e-20)
(-0.00073122544 2.6531488e-05 8.6259928e-20)
(-0.00073635684 2.5409545e-05 -1.0731686e-19)
(-0.00074081676 2.4305277e-05 -4.2624199e-20)
(-0.00074461858 2.3219125e-05 1.033865e-19)
(-0.00074777651 2.2151617e-05 1.0106155e-19)
(-0.00075030553 2.1103329e-05 6.7182542e-21)
(-0.00075222135 2.0074825e-05 -1.9584858e-19)
(-0.00075354034 1.9066646e-05 -1.1997572e-19)
(-0.00075427951 1.8079327e-05 1.3138709e-19)
(-0.00075445631 1.7113435e-05 1.1372132e-19)
(-0.0007540885 1.6169502e-05 -6.5870413e-20)
(-0.00075319414 1.5248022e-05 -1.1378762e-19)
(-0.0007517915 1.4349417e-05 8.2672217e-20)
(-0.00074989903 1.3474056e-05 1.3661155e-19)
(-0.00074753528 1.2622231e-05 -1.2345853e-20)
(-0.00074471887 1.1794163e-05 -8.1309258e-20)
(-0.00074146842 1.0990028e-05 -1.0055444e-19)
(-0.00073780249 1.020992e-05 -1.1433774e-20)
(-0.00073373956 9.4538761e-06 1.3833477e-19)
(-0.00072929798 8.7218769e-06 5.0340426e-20)
(-0.00072449589 8.0138559e-06 -1.481012e-19)
(-0.00071935126 7.3296859e-06 -4.89449e-20)
(-0.00071388177 6.6692021e-06 1.427953e-19)
(-0.00070810484 6.0321728e-06 4.4668129e-20)
(-0.00070203756 5.418357e-06 -1.36965e-19)
(-0.0006956967 4.8274671e-06 -5.539568e-20)
(-0.00068909865 4.2591606e-06 8.0193119e-20)
(-0.00068225939 3.7131013e-06 5.2108368e-20)
(-0.00067519452 3.1889113e-06 2.1811844e-20)
(-0.00066791922 2.6862178e-06 -2.9089913e-20)
(-0.00066044822 2.2046606e-06 -9.6156034e-20)
(-0.00065279587 1.7439047e-06 2.0383315e-20)
(-0.00064497626 1.3036857e-06 6.0951635e-20)
(-0.00063700395 8.837787e-07 -2.6484048e-20)
(-0.00062889812 4.8409954e-07 1.0424347e-20)
(-0.00062068754 1.0251047e-07 6.1257878e-20)
(-0.00061236346 -2.7399451e-07 1.489459e-20)
(-0.00060391278 -6.340191e-07 -8.7904412e-20)
(-0.0005953597 -9.7562861e-07 -5.1232216e-20)
(-0.00058672296 -1.2995858e-06 4.1315301e-20)
(-0.00057801461 -1.6066726e-06 2.2367523e-20)
(-2.0220245e-05 0.00011680917 -2.7948274e-20)
(-4.4962393e-05 0.00011720216 -1.0971551e-20)
(-7.3479699e-05 0.00011713404 -2.2227024e-21)
(-0.00010123513 0.00011694652 4.1807108e-21)
(-0.00012953815 0.00011657458 -2.8452696e-21)
(-0.00015764109 0.00011604455 -9.3112421e-21)
(-0.00018553095 0.0001153812 1.1927254e-20)
(-0.00021316617 0.00011459451 -3.320781e-21)
(-0.00024050145 0.00011369137 3.1120317e-21)
(-0.00026749225 0.00011267706 2.1623956e-20)
(-0.00029409727 0.00011155605 2.9747029e-21)
(-0.00032027725 0.00011033252 8.8900005e-21)
(-0.00034599423 0.00010901057 -1.0800458e-20)
(-0.00037121222 0.00010759433 8.0357805e-21)
(-0.0003958974 0.00010608802 2.0309864e-20)
(-0.00042001796 0.00010449597 2.7146941e-23)
(-0.00044354411 0.00010282263 1.1443964e-20)
(-0.00046644801 0.00010107263 -4.8161144e-21)
(-0.00048870385 9.9250642e-05 -1.2020731e-20)
(-0.00051028781 9.7361508e-05 9.899747e-21)
(-0.00053117811 9.5410113e-05 4.1111591e-21)
(-0.00055135499 9.3401419e-05 -7.9530163e-22)
(-0.00057080076 9.1340427e-05 5.3655354e-21)
(-0.00058949976 8.9232164e-05 1.579469e-20)
(-0.00060743837 8.7081659e-05 1.5224666e-20)
(-0.000624605 8.4893907e-05 1.6193376e-21)
(-0.00064099005 8.2673894e-05 -1.0189281e-20)
(-0.00065658593 8.0426535e-05 -2.2123885e-20)
(-0.00067138695 7.8156656e-05 -2.1606802e-20)
(-0.00068538934 7.5869023e-05 -9.4690735e-22)
(-0.0006985912 7.3568276e-05 6.3638733e-21)
(-0.00071099239 7.1258954e-05 1.2656593e-20)
(-0.00072259456 6.8945498e-05 -4.8272519e-21)
(-0.00073340096 6.6632265e-05 -3.421025e-20)
(-0.00074341639 6.4323568e-05 -1.5090065e-22)
(-0.00075264688 6.2023691e-05 1.6283975e-20)
(-0.0007610995 5.9736508e-05 2.0449281e-21)
(-0.00076878308 5.7464232e-05 -1.0479683e-20)
(-0.00077570861 5.5209341e-05 -2.3939078e-21)
(-0.00078188838 5.2975161e-05 9.0824888e-22)
(-0.00078733544 5.0765159e-05 -1.8821421e-20)
(-0.00079206357 4.8582538e-05 8.255804e-21)
(-0.00079608743 4.6430166e-05 2.3681424e-20)
(-0.00079942255 4.4310566e-05 2.7739037e-20)
(-0.00080208527 4.2225979e-05 1.6754923e-20)
(-0.00080409268 4.0178347e-05 -4.951645e-20)
(-0.00080546246 3.8169365e-05 -3.0383133e-20)
(-0.00080621274 3.6200575e-05 1.4872485e-20)
(-0.00080636215 3.4273399e-05 1.9226497e-20)
(-0.00080592974 3.2389112e-05 1.6741726e-20)
(-0.00080493487 3.0548853e-05 -3.7118176e-20)
(-0.0008033972 2.8753593e-05 3.469805e-22)
(-0.00080133653 2.700413e-05 4.0222112e-20)
(-0.00079877279 2.5301131e-05 9.5863294e-22)
(-0.00079572597 2.3645097e-05 -3.4621101e-21)
(-0.00079221606 2.2036391e-05 -1.510484e-20)
(-0.00078826298 2.0475243e-05 -1.1783041e-20)
(-0.00078388655 1.8961754e-05 2.8803478e-20)
(-0.00077910646 1.7495883e-05 5.34257e-21)
(-0.00077394217 1.6077491e-05 -3.7060913e-20)
(-0.00076841294 1.4706322e-05 -1.1215678e-20)
(-0.00076253775 1.3382022e-05 2.7323599e-20)
(-0.00075633525 1.2104121e-05 1.5570948e-20)
(-0.00074982379 1.087207e-05 -1.6362188e-20)
(-0.00074302135 9.6852289e-06 -9.5548331e-22)
(-0.00073594551 8.5428732e-06 4.6335896e-21)
(-0.00072861348 7.4441963e-06 -4.1015961e-21)
(-0.00072104203 6.3883001e-06 1.382346e-20)
(-0.00071324751 5.3742288e-06 -4.6211575e-21)
(-0.00070524579 4.4009626e-06 -1.9953764e-20)
(-0.00069705226 3.4674365e-06 5.1686474e-21)
(-0.00068868172 2.5727053e-06 8.5805243e-21)
(-0.00068014805 1.7159434e-06 -5.5811328e-21)
(-0.00067146393 8.9638766e-07 7.0390625e-21)
(-0.00066264307 1.181212e-07 1.0773591e-20)
(-0.00065369873 -6.0117464e-07 -5.5536783e-22)
(-0.00064464517 -1.2789721e-06 -1.1742874e-20)
(-0.00063549587 -1.9238481e-06 -1.6984658e-20)
(-0.00062626071 -2.5376297e-06 -6.3084155e-21)
(-0.00061694994 -3.1215361e-06 1.3664699e-20)
(-2.0363274e-05 0.00017498903 -1.0561356e-19)
(-4.5551487e-05 0.00017507215 -2.9585459e-20)
(-7.4554271e-05 0.00017483906 3.6865676e-21)
(-0.00010272636 0.00017443228 -2.2129624e-20)
(-0.00013146375 0.00017381081 1.3757798e-20)
(-0.00015998788 0.00017298758 -3.7988018e-21)
(-0.00018829015 0.00017197706 1.1797372e-21)
(-0.0002163302 0.00017078791 -2.0076502e-21)
(-0.00024406297 0.00016942734 4.9908374e-21)
(-0.00027144374 0.00016790168 1.1737659e-20)
(-0.0002984308 0.00016621691 7.0885228e-21)
(-0.00032498437 0.00016437889 1.4620994e-20)
(-0.00035106588 0.0001623936 -1.2100563e-20)
(-0.00037663876 0.00016026713 1.0474654e-21)
(-0.00040166863 0.00015800582 1.1956344e-20)
(-0.00042612315 0.00015561618 -1.1433499e-20)
(-0.000449972 0.00015310493 1.1810647e-20)
(-0.00047318691 0.000150479 4.3675808e-21)
(-0.00049574163 0.00014774549 -6.6701546e-21)
(-0.000517612 0.00014491165 6.7392641e-21)
(-0.0005387759 0.00014198486 4.3756624e-22)
(-0.00055921331 0.00013897255 1.1024958e-21)
(-0.00057890631 0.00013588229 1.4905305e-20)
(-0.00059783908 0.00013272161 6.4542234e-21)
(-0.00061599787 0.00012949806 -1.0334829e-20)
(-0.000633371 0.00012621918 -1.3488545e-20)
(-0.00064994885 0.00012289244 -1.1017646e-20)
(-0.0006657238 0.00011952523 3.5483146e-21)
(-0.00068069024 0.00011612482 2.0587308e-21)
(-0.00069484447 0.00011269835 -5.7786223e-21)
(-0.00070818466 0.00010925283 -6.8278222e-21)
(-0.00072071084 0.00010579506 1.7508089e-21)
(-0.00073242478 0.00010233171 1.3882136e-20)
(-0.00074332991 9.8869247e-05 -8.8057611e-21)
(-0.00075343125 9.5413902e-05 -2.4635547e-20)
(-0.00076273524 9.1971689e-05 6.4326189e-21)
(-0.00077124972 8.8548165e-05 2.5278496e-20)
(-0.0007789841 8.5148198e-05 4.2717931e-21)
(-0.00078594939 8.1776484e-05 -7.9503264e-22)
(-0.00079215787 7.8437784e-05 -1.4784266e-21)
(-0.00079762283 7.5136767e-05 -1.0248857e-22)
(-0.00080235846 7.1877779e-05 4.631387e-21)
(-0.00080637984 6.8664848e-05 3.1410246e-21)
(-0.00080970291 6.5501633e-05 -1.2175805e-20)
(-0.00081234442 6.2391491e-05 6.5372335e-21)
(-0.00081432181 5.9337482e-05 1.2555186e-21)
(-0.00081565319 5.6342407e-05 -9.3946843e-21)
(-0.00081635717 5.3408758e-05 1.1360051e-21)
(-0.00081645281 5.0538703e-05 -1.8629589e-20)
(-0.00081595958 4.7734131e-05 4.373215e-21)
(-0.00081489728 4.4996674e-05 1.5393928e-20)
(-0.00081328594 4.232773e-05 -3.8789412e-21)
(-0.00081114576 3.9728412e-05 5.7273507e-21)
(-0.00080849706 3.7199652e-05 -3.4242524e-21)
(-0.0008053602 3.4742126e-05 -3.8596975e-22)
(-0.00080175553 3.2356308e-05 5.2770599e-21)
(-0.00079770333 3.0042486e-05 -3.3332763e-21)
(-0.00079322377 2.7800743e-05 3.3218545e-21)
(-0.00078833686 2.5630983e-05 7.0953655e-23)
(-0.00078306241 2.353296e-05 -1.2185146e-20)
(-0.00077741996 2.1506254e-05 -3.2269056e-22)
(-0.00077142877 1.9550325e-05 8.1620176e-21)
(-0.00076510782 1.7664479e-05 1.5708275e-21)
(-0.0007584757 1.5847906e-05 -1.8158665e-21)
(-0.00075155065 1.4099686e-05 9.8711457e-22)
(-0.00074435049 1.2418816e-05 -3.4252473e-21)
(-0.00073689262 1.08042e-05 -6.8183612e-21)
(-0.00072919402 9.2546464e-06 5.4484003e-21)
(-0.00072127118 7.7689339e-06 1.1643158e-21)
(-0.0007131401 6.3457576e-06 4.410429e-21)
(-0.00070481627 4.9837633e-06 -8.8165578e-22)
(-0.00069631468 3.6815253e-06 -1.4409985e-21)
(-0.00068764983 2.4374272e-06 -2.9358812e-21)
(-0.0006788353 1.2492755e-06 -7.577002e-21)
(-0.00066988327 1.1550146e-07 3.246832e-21)
(-0.00066080929 -9.6021339e-07 -3.1558409e-21)
(-0.00065162838 -1.9855605e-06 6.4259823e-22)
(-0.00064235084 -2.9618195e-06 -5.5076831e-21)
(-0.00063298724 -3.889755e-06 -1.0878853e-20)
(-0.00062354859 -4.7707811e-06 4.5317567e-21)
(-2.0468088e-05 0.0002337272 -1.3608977e-19)
(-4.5867156e-05 0.00023366839 -5.2137803e-20)
(-7.5129239e-05 0.00023329295 -3.882625e-21)
(-0.00010353951 0.00023268442 4.2168887e-20)
(-0.00013252801 0.00023181546 -5.3309704e-21)
(-0.00016129607 0.00023069375 -3.2079221e-20)
(-0.00018983583 0.00022932948 -3.152753e-20)
(-0.00021810702 0.00022773068 -1.9633945e-20)
(-0.00024606458 0.00022590499 -7.4159031e-21)
(-0.00027366373 0.00022385979 1.3086434e-20)
(-0.00030086254 0.00022160251 -1.175251e-20)
(-0.00032762091 0.00021914068 2.5522075e-21)
(-0.00035389996 0.00021648212 -9.7973631e-21)
(-0.00037966275 0.00021363495 -1.2646379e-20)
(-0.00040487455 0.00021060763 1.1683132e-20)
(-0.00042950267 0.0002074089 -1.1804175e-20)
(-0.00045351651 0.0002040478 3.3785516e-21)
(-0.00047688752 0.00020053366 -1.8331782e-21)
(-0.00049958922 0.00019687602 -1.3684549e-20)
(-0.00052159723 0.00019308466 6.1313969e-21)
(-0.00054288928 0.00018916947 1.3795581e-20)
(-0.00056344524 0.0001851405 -1.2851464e-20)
(-0.00058324711 0.00018100786 -1.0363109e-20)
(-0.00060227903 0.00017678171 -5.9847412e-21)
(-0.00062052723 0.00017247219 -1.5139568e-20)
(-0.0006379801 0.00016808941 -1.2399275e-20)
(-0.00065462807 0.0001636434 -7.8587628e-21)
(-0.00067046365 0.00015914405 6.6232465e-21)
(-0.00068548133 0.00015460111 6.03055e-21)
(-0.0006996776 0.00015002414 1.2162522e-20)
(-0.00071305083 0.0001454225 -7.3373429e-21)
(-0.00072560125 0.00014080529 -1.7728596e-20)
(-0.00073733087 0.00013618136 4.6595396e-22)
(-0.00074824339 0.00013155927 -9.6560955e-22)
(-0.00075834412 0.00012694724 1.6488951e-20)
(-0.00076763991 0.00012235317 9.0255455e-21)
(-0.00077613905 0.00011778447 6.1743839e-21)
(-0.00078385132 0.00011324809 -2.0100985e-20)
(-0.00079078794 0.00010875062 -9.9343082e-21)
(-0.0007969614 0.00010429837 3.3939209e-21)
(-0.00080238531 9.9897418e-05 -1.9854988e-21)
(-0.00080707423 9.5553397e-05 -5.157549e-22)
(-0.00081104366 9.1271567e-05 -2.1158421e-21)
(-0.00081430993 8.7056742e-05 -1.8307994e-20)
(-0.00081689017 8.2913335e-05 1.9894954e-21)
(-0.00081880219 7.8845346e-05 8.8558362e-21)
(-0.00082006445 7.4856402e-05 -7.6010775e-21)
(-0.0008206959 7.0949743e-05 -1.0064738e-20)
(-0.00082071596 6.7128221e-05 -8.1179276e-21)
(-0.00082014446 6.3394326e-05 6.6950517e-21)
(-0.00081900149 5.9750212e-05 5.5929262e-21)
(-0.0008173074 5.6197689e-05 -7.2022633e-21)
(-0.00081508269 5.2738246e-05 1.3973555e-21)
(-0.00081234795 4.9373066e-05 4.0607729e-22)
(-0.00080912383 4.610303e-05 -4.016669e-22)
(-0.00080543093 4.2928751e-05 2.6516791e-21)
(-0.0008012898 3.9850567e-05 -3.9135094e-21)
(-0.00079672084 3.6868569e-05 -6.9300919e-21)
(-0.00079174427 3.3982607e-05 -5.6887621e-22)
(-0.00078638011 3.1192323e-05 6.4734751e-22)
(-0.00078064811 2.8497132e-05 2.8588804e-21)
(-0.00077456772 2.5896278e-05 7.5534834e-21)
(-0.00076815806 2.3388816e-05 1.9716202e-21)
(-0.0007614379 2.0973647e-05 3.5670063e-21)
(-0.00075442561 1.8649501e-05 -2.7476091e-22)
(-0.00074713917 1.6415e-05 -9.3964859e-21)
(-0.0007395961 1.4268637e-05 1.7388415e-21)
(-0.0007318135 1.2208775e-05 -1.8485649e-22)
(-0.000723808 1.0233689e-05 -9.4426028e-21)
(-0.00071559574 8.3415321e-06 6.1640148e-21)
(-0.00070719243 6.5303917e-06 1.9994637e-21)
(-0.00069861324 4.798237e-06 7.2105993e-22)
(-0.00068987276 3.1430142e-06 4.7128604e-22)
(-0.00068098412 1.5628549e-06 -3.9518727e-21)
(-0.00067195682 5.6073578e-08 -4.372896e-22)
(-0.00066280892 -1.3794316e-06 -4.876381e-21)
(-0.00065355803 -2.7456453e-06 3.6824015e-21)
(-0.0006442123 -4.0446672e-06 -8.1805522e-21)
(-0.00063478224 -5.2789253e-06 -1.2404044e-20)
(-0.00062527882 -6.4506274e-06 6.2545281e-22)
(-2.0625744e-05 0.0002928852 -1.6839178e-19)
(-4.6256828e-05 0.00029275498 -6.2593513e-20)
(-7.5791415e-05 0.00029225383 -6.7474031e-20)
(-0.0001044659 0.00029145653 -1.7104727e-20)
(-0.00013372806 0.00029034276 -2.3199879e-20)
(-0.00016276506 0.00028891974 -2.1987582e-20)
(-0.00019156831 0.00028719701 -1.0953153e-20)
(-0.00022009676 0.00028518284 6.414785e-21)
(-0.00024830481 0.00028288564 -5.3558971e-21)
(-0.00027614718 0.00028031398 1.9357875e-20)
(-0.00030358149 0.00027747672 9.37869e-21)
(-0.00033056719 0.00027438306 1.2602191e-20)
(-0.00035706486 0.00027104271 1.5336756e-20)
(-0.00038303715 0.00026746579 2.8536909e-20)
(-0.00040844887 0.0002636629 2.5321697e-20)
(-0.00043326697 0.00025964502 -1.4506393e-20)
(-0.00045746047 0.00025542354 1.6880266e-20)
(-0.0004810005 0.0002510102 2.2492611e-20)
(-0.00050386031 0.00024641702 1.2716642e-20)
(-0.00052601531 0.00024165631 4.7151932e-21)
(-0.00054744305 0.00023674055 -7.584731e-21)
(-0.00056812329 0.00023168239 -1.7307063e-20)
(-0.00058803794 0.00022649457 -1.1206335e-20)
(-0.00060717111 0.00022118987 1.0926667e-20)
(-0.00062550908 0.00021578108 8.5510121e-21)
(-0.00064304029 0.0002102809 1.4845341e-20)
(-0.00065975529 0.00020470196 1.8128698e-21)
(-0.00067564673 0.0001990567 -1.0066773e-20)
(-0.0006907093 0.00019335738 -3.1596208e-21)
(-0.00070493971 0.00018761602 1.1537445e-20)
(-0.00071833661 0.00018184437 -2.5422315e-21)
(-0.0007309005 0.00017605385 -5.9188393e-21)
(-0.00074263372 0.00017025555 4.7233454e-21)
(-0.00075354031 0.00016446018 1.9536647e-20)
(-0.00076362599 0.00015867803 3.033587e-20)
(-0.00077289802 0.00015291894 -6.9146166e-21)
(-0.00078136517 0.00014719227 7.495191e-22)
(-0.00078903765 0.00014150687 -3.6658244e-21)
(-0.00079592708 0.0001358711 5.1382163e-21)
(-0.00080204633 0.0001302929 1.2410271e-20)
(-0.00080740938 0.00012477979 -1.1755406e-20)
(-0.00081203127 0.00011933878 -1.1781894e-20)
(-0.00081592794 0.00011397637 1.6916008e-20)
(-0.0008191162 0.00010869856 2.5651103e-20)
(-0.00082161363 0.00010351086 2.1437696e-21)
(-0.00082343851 9.8418241e-05 -3.5871954e-22)
(-0.0008246097 9.3425214e-05 -1.2269259e-20)
(-0.0008251466 8.8535797e-05 1.0817966e-20)
(-0.00082506907 8.3753551e-05 1.8150901e-20)
(-0.00082439729 7.9081569e-05 -6.6031703e-21)
(-0.00082315178 7.4522516e-05 -3.7133494e-21)
(-0.00082135322 7.0078628e-05 -1.053919e-21)
(-0.0008190225 6.5751751e-05 1.3789058e-21)
(-0.00081618055 6.1543324e-05 -1.503699e-21)
(-0.00081284834 5.745443e-05 -9.7137865e-22)
(-0.00080904679 5.3485796e-05 2.6296565e-21)
(-0.00080479672 4.9637819e-05 -4.0087462e-21)
(-0.00080011882 4.5910572e-05 -4.9332289e-21)
(-0.00079503357 4.2303849e-05 9.6508991e-22)
(-0.00078956123 3.8817156e-05 4.0514677e-21)
(-0.00078372177 3.5449746e-05 -9.9946855e-22)
(-0.00077753485 3.2200636e-05 -1.8417446e-22)
(-0.0007710198 2.9068623e-05 5.3557843e-21)
(-0.00076419555 2.6052295e-05 1.3683257e-20)
(-0.00075708063 2.3150056e-05 4.0717111e-21)
(-0.00074969316 2.0360164e-05 -4.1083633e-21)
(-0.00074205081 1.7680713e-05 5.4716156e-21)
(-0.00073417078 1.510967e-05 -5.6380909e-21)
(-0.00072606977 1.2644896e-05 -1.7543904e-20)
(-0.00071776401 1.0284154e-05 7.3084426e-22)
(-0.00070926922 8.0251662e-06 8.0101832e-21)
(-0.00070060052 5.8655856e-06 1.8650694e-21)
(-0.00069177243 3.8030697e-06 -5.278374e-21)
(-0.00068279851 1.8353687e-06 2.0753924e-21)
(-0.00067369105 -4.0616597e-08 9.9038676e-21)
(-0.00066446548 -1.8316147e-06 -1.9027753e-21)
(-0.00065513653 -3.5364453e-06 1.0428728e-21)
(-0.0006457149 -5.1570609e-06 -1.0125748e-20)
(-0.00063621162 -6.6963806e-06 -1.2147881e-20)
(-0.00062663756 -8.1571909e-06 3.7674449e-21)
(-2.0842192e-05 0.00035259601 -1.7709923e-19)
(-4.6754226e-05 0.0003524216 -1.8801957e-20)
(-7.661541e-05 0.0003518006 -3.9026562e-20)
(-0.00010560848 0.0003508196 -9.6236686e-20)
(-0.00013519733 0.0003494605 -6.1173257e-20)
(-0.00016455671 0.00034773182 1.5669925e-20)
(-0.00019367687 0.00034564411 4.7196309e-21)
(-0.00022251559 0.00034320656 -8.3208435e-21)
(-0.00025102629 0.00034042867 1.7969558e-20)
(-0.00027916288 0.00033732034 1.265693e-20)
(-0.00030688227 0.000333892 1.8812221e-22)
(-0.00033414318 0.00033015459 -1.2834872e-21)
(-0.00036090555 0.00032611973 -1.7440387e-20)
(-0.00038713141 0.00032179962 5.619144e-21)
(-0.00041278503 0.00031720703 2.6199833e-20)
(-0.00043783285 0.00031235525 -1.5489787e-20)
(-0.00046224344 0.00030725807 -5.0210468e-21)
(-0.00048598755 0.00030192971 1.7125739e-21)
(-0.00050903809 0.00029638474 -3.356046e-21)
(-0.0005313702 0.00029063805 2.4094609e-20)
(-0.00055296123 0.00028470479 1.9952081e-20)
(-0.00057379078 0.00027860026 1.139866e-20)
(-0.00059384068 0.0002723399 2.8006189e-21)
(-0.00061309503 0.00026593919 1.4962109e-20)
(-0.00063154013 0.0002594136 7.1978757e-21)
(-0.0006491645 0.00025277852 -3.9653958e-21)
(-0.00066595885 0.0002460492 5.6195588e-21)
(-0.00068191601 0.00023924072 2.3586556e-21)
(-0.00069703093 0.00023236789 5.1122661e-21)
(-0.00071130058 0.00022544524 1.6748433e-20)
(-0.00072472395 0.00021848694 8.4768341e-21)
(-0.00073730191 0.00021150681 1.3224091e-20)
(-0.0007490372 0.00020451819 2.0497998e-20)
(-0.00075993431 0.00019753402 1.506623e-20)
(-0.00076999941 0.00019056668 4.1314133e-21)
(-0.00077924028 0.00018362803 -1.1753233e-20)
(-0.00078766622 0.00017672939 6.7660414e-21)
(-0.00079528799 0.00016988146 8.4508368e-21)
(-0.00080211771 0.00016309438 -2.2940662e-22)
(-0.00080816874 0.00015637771 1.0242079e-20)
(-0.00081345562 0.00014974046 1.077172e-20)
(-0.0008179939 0.00014319101 6.8229612e-21)
(-0.0008218001 0.00013673715 -8.5666981e-21)
(-0.00082489159 0.00013038609 1.1606335e-20)
(-0.00082728648 0.00012414437 8.0398303e-21)
(-0.00082900361 0.00011801799 6.77004e-21)
(-0.00083006238 0.00011201232 6.7295607e-21)
(-0.00083048271 0.00010613216 2.8334695e-21)
(-0.00083028495 0.00010038175 3.0045128e-22)
(-0.0008294898 9.4764804e-05 1.7150409e-22)
(-0.00082811822 8.9284454e-05 7.9556812e-21)
(-0.00082619139 8.3943373e-05 -2.8806859e-21)
(-0.00082373059 7.8743724e-05 -9.0053794e-21)
(-0.0008207572 7.3687207e-05 -2.8623914e-22)
(-0.00081729257 6.8775074e-05 -7.4510715e-21)
(-0.000813358 6.4008156e-05 -3.3592985e-21)
(-0.00080897467 5.9386882e-05 1.243193e-20)
(-0.0008041636 5.4911297e-05 1.0716138e-20)
(-0.00079894559 5.0581109e-05 2.6222595e-21)
(-0.0007933412 4.639568e-05 5.8534459e-21)
(-0.00078737065 4.2354067e-05 -2.6780004e-21)
(-0.00078105388 3.845505e-05 -7.8410761e-21)
(-0.00077441042 3.4697136e-05 -4.7647365e-21)
(-0.00076745942 3.1078591e-05 1.2181037e-20)
(-0.00076021962 2.7597465e-05 1.2104003e-20)
(-0.0007527093 2.4251621e-05 1.2095557e-21)
(-0.00074494627 2.1038731e-05 4.2914283e-22)
(-0.00073694787 1.7956319e-05 -3.9197672e-21)
(-0.00072873091 1.5001772e-05 -8.6055535e-21)
(-0.00072031172 1.2172357e-05 -1.4325441e-21)
(-0.00071170606 9.4652651e-06 5.562999e-21)
(-0.00070292914 6.8775699e-06 -2.2010544e-22)
(-0.00069399557 4.4062957e-06 -5.3240387e-21)
(-0.00068491925 2.0483996e-06 -3.1569535e-21)
(-0.00067571359 -1.9964381e-07 2.7210264e-21)
(-0.00066639281 -2.3427889e-06 4.1168337e-22)
(-0.00065697037 -4.3826274e-06 3.5711386e-21)
(-0.00064745787 -6.321895e-06 -9.5011444e-21)
(-0.00063786665 -8.1638417e-06 -3.3323806e-21)
(-0.00062820766 -9.9117007e-06 9.5874292e-22)
(-2.1109507e-05 0.0004130097 -2.4086056e-19)
(-4.7358009e-05 0.00041279839 -9.64455e-20)
(-7.760798e-05 0.00041205919 -5.6303073e-20)
(-0.00010697921 0.00041089512 -5.692194e-20)
(-0.00013695406 0.00040928784 -5.5717212e-20)
(-0.00016669454 0.00040724775 -4.4755546e-20)
(-0.00019618971 0.00040478708 -1.3290976e-20)
(-0.00022539597 0.0004019164 -2.7803636e-20)
(-0.00025426552 0.00039864656 -1.6909244e-20)
(-0.00028275119 0.000394989 2.8881288e-21)
(-0.00031080893 0.0003909558 -9.602055e-21)
(-0.00033839657 0.00038655976 -1.0883151e-20)
(-0.00036547319 0.00038181448 -3.8457255e-20)
(-0.00039200007 0.00037673433 -1.7645351e-20)
(-0.00041794081 0.00037133433 -2.671812e-22)
(-0.00044326121 0.00036563016 -8.274646e-21)
(-0.00046792933 0.00035963809 4.7882125e-21)
(-0.00049191541 0.00035337489 -4.5226416e-21)
(-0.000515192 0.00034685778 -2.1428905e-20)
(-0.00053773389 0.00034010431 -2.4924067e-22)
(-0.0005595182 0.00033313238 1.5600445e-20)
(-0.00058052436 0.00032596004 -9.4932249e-21)
(-0.0006007341 0.0003186055 -5.6062928e-21)
(-0.00062013148 0.00031108703 2.7527373e-20)
(-0.00063870287 0.00030342285 2.6561027e-20)
(-0.00065643688 0.00029563113 -2.1346234e-20)
(-0.0006733244 0.00028772981 -7.5295354e-21)
(-0.0006893585 0.00027973667 -7.4547828e-21)
(-0.00070453443 0.00027166913 2.7943431e-21)
(-0.00071884951 0.0002635443 9.4362713e-21)
(-0.00073230312 0.00025537887 -1.1037695e-20)
(-0.00074489658 0.00024718904 4.8415786e-21)
(-0.00075663311 0.00023899053 9.8298381e-21)
(-0.00076751772 0.00023079849 -2.1368612e-20)
(-0.00077755717 0.00022262748 -1.5469347e-20)
(-0.00078675982 0.00021449142 -1.8493658e-21)
(-0.0007951356 0.00020640359 8.8832894e-21)
(-0.00080269588 0.00019837657 3.583277e-22)
(-0.00080945343 0.00019042226 -2.8263698e-20)
(-0.00081542224 0.00018255188 -2.6917658e-20)
(-0.00082061748 0.00017477593 -1.0526789e-21)
(-0.00082505537 0.00016710421 2.091074e-20)
(-0.00082875309 0.00015954581 -3.0623946e-22)
(-0.00083172866 0.00015210911 -1.8516405e-20)
(-0.00083400087 0.00014480175 -6.0874512e-21)
(-0.00083558918 0.00013763067 1.0272211e-20)
(-0.00083651364 0.00013060214 1.8366493e-20)
(-0.00083679479 0.00012372173 -7.6254508e-21)
(-0.00083645357 0.00011699434 -1.4288049e-20)
(-0.00083551128 0.00011042426 5.0014106e-21)
(-0.00083398943 0.00010401512 -3.3190973e-21)
(-0.00083190975 9.7769965e-05 -8.3671457e-22)
(-0.00082929405 9.169129e-05 -4.1005358e-21)
(-0.00082616418 8.5781011e-05 -1.1767907e-20)
(-0.00082254198 8.0040529e-05 -7.9833764e-21)
(-0.00081844919 7.4470765e-05 -7.8484053e-21)
(-0.00081390741 6.907215e-05 3.0476205e-21)
(-0.00080893806 6.3844684e-05 -3.7880148e-21)
(-0.00080356232 5.878795e-05 -7.338892e-21)
(-0.00079780107 5.3901153e-05 1.3041788e-21)
(-0.00079167488 4.9183125e-05 9.0876629e-22)
(-0.00078520397 4.463238e-05 4.7599372e-21)
(-0.00077840814 4.0247113e-05 -9.0191718e-21)
(-0.0007713068 3.6025252e-05 -4.7479531e-21)
(-0.0007639189 3.1964452e-05 7.8385617e-21)
(-0.00075626294 2.8062165e-05 -3.5734703e-21)
(-0.00074835689 2.4315613e-05 4.461821e-21)
(-0.00074021825 2.0721849e-05 -3.3107303e-21)
(-0.00073186399 1.7277761e-05 -7.7258872e-21)
(-0.00072331054 1.3980097e-05 -6.458393e-22)
(-0.00071457377 1.0825493e-05 -5.8129198e-22)
(-0.00070566901 7.8104525e-06 -1.5310341e-21)
(-0.00069661096 4.9313911e-06 4.1628575e-22)
(-0.00068741369 2.1846354e-06 3.7674381e-21)
(-0.00067809108 -4.336961e-07 1.5890655e-21)
(-0.00066865689 -2.9281063e-06 -3.9234257e-21)
(-0.00065912399 -5.3017672e-06 -2.7320144e-21)
(-0.00064950437 -7.5581825e-06 -6.7497389e-21)
(-0.00063980948 -9.7010997e-06 -6.3039252e-21)
(-0.00063005031 -1.1734271e-05 -1.7203914e-21)
(-2.1424695e-05 0.00047426537 -2.9071795e-19)
(-4.8066939e-05 0.00047401886 -1.6316455e-19)
(-7.8770606e-05 0.0004731608 -4.2431005e-20)