/*--------------------------------*- C++ -*----------------------------------*\
| =========                 |                                                 |
| \\      /  F ield         | OpenFOAM: The Open Source CFD Toolbox           |
|  \\    /   O peration     | Version:  2106                                  |
|   \\  /    A nd           | Website:  www.openfoam.com                      |
|    \\/     M anipulation  |                                                 |
\*---------------------------------------------------------------------------*/
FoamFile
{
    version     2.0;
    format      ascii;
    arch        "LSB;label=32;scalar=64";
    class       volScalarField;
    location    "0.245";
    object      p_rgh;
}
// * * * * * * * * * * * * * * * * * * * * * * * * * * * * * * * * * * * * * //

dimensions      [1 -1 -2 0 0 0 0];

internalField   nonuniform List<scalar> 
32768
(
195.14031
195.17897
195.23266
195.29143
195.33165
195.3514
195.34705
195.31692
195.26102
195.18027
195.07588
194.94875
194.80031
194.63195
194.44296
194.24102
194.01062
193.78475
193.51566
193.25275
192.97435
192.65635
192.35678
192.02791
191.66613
191.3155
190.94667
190.54442
190.13271
189.71972
189.28022
188.82366
188.34735
187.86299
187.37336
186.85622
186.3165
185.77383
185.2258
184.65689
184.07916
183.47954
182.87309
182.2683
181.65114
181.02708
180.37569
179.73387
179.10231
178.43051
177.7665
177.12688
176.4608
175.77662
175.10485
174.44003
173.76967
173.09562
172.42079
171.75244
171.08464
170.39648
169.71643
169.0626
168.40026
167.73117
167.05802
166.37868
165.72171
165.07454
164.40288
163.72827
163.07072
162.41798
161.76837
161.11595
160.44186
159.77246
159.12898
158.47502
157.81398
157.16608
156.50471
155.84056
155.20337
154.54938
153.86478
153.21572
152.5761
151.89862
151.23836
150.60238
149.94461
149.26532
148.59527
147.9479
147.29359
146.61025
145.94743
145.30218
144.61038
143.92227
143.29409
142.6361
141.93393
141.26583
140.61124
139.92756
139.24786
138.57862
137.90512
137.2321
136.5437
135.8525
135.18944
134.52437
133.8326
133.16104
132.50762
131.81224
131.1023
130.44495
129.77959
129.05979
128.37791
127.73688
127.04639
126.33062
125.65577
124.98497
124.28868
123.59789
122.92107
122.2376
121.55101
120.87318
120.18108
119.48519
118.81534
118.14611
117.44994
116.755
116.09754
115.43399
114.73219
114.05051
113.41196
112.75934
112.06054
111.38091
110.74325
110.07063
109.37492
108.7224
108.0697
107.39261
106.73811
106.09428
105.439
104.78659
104.13574
103.48649
102.83756
102.18683
101.54547
100.91256
100.27245
99.624588
98.982915
98.359214
97.725552
97.061488
96.41999
95.818535
95.206428
94.571719
93.949452
93.353356
92.751123
92.118067
91.487955
90.890781
90.297018
89.690008
89.085918
88.502702
87.923845
87.328848
86.73442
86.166035
85.6039
85.009316
84.436071
83.888652
83.347545
82.786411
82.235672
81.710525
81.180096
80.678525
80.178989
79.69383
79.221095
78.773579
78.362309
77.939864
77.55414
77.20615
76.928016
76.666472
76.443912
76.295816
76.222947
76.281682
76.471767
76.815769
77.316278
78.030363
78.869796
79.941011
81.395003
83.274584
85.685673
88.660992
92.412065
96.829027
102.40564
108.98079
116.79753
126.47576
137.67678
150.76059
166.18654
183.35819
202.8667
224.38515
247.27373
271.66126
295.57864
318.05061
336.00071
345.77651
350.68727
355.72593
356.2801
353.54746
350.29447
342.80389
327.32798
305.61063
285.69065
287.03431
311.1818
349.16605
399.77816
417.41197
195.10888
195.14627
195.20072
195.25978
195.29948
195.31945
195.31482
195.2846
195.22857
195.14724
195.04214
194.91406
194.76499
194.59572
194.40673
194.20329
193.97481
193.7444
193.47919
193.21562
192.93275
192.6219
192.3193
191.98367
191.63293
191.28092
190.9014
190.50817
190.10114
189.67853
189.23888
188.78774
188.31023
187.82485
187.33257
186.8119
186.27902
185.73728
185.18095
184.61004
184.03684
183.43819
182.82921
182.22172
181.60596
180.97837
180.32828
179.69301
179.04961
178.37965
177.7282
177.07386
176.40195
175.73397
175.06233
174.38709
173.71887
173.04861
172.37318
171.70388
171.03157
170.34909
169.68017
169.01332
168.34074
167.68682
167.01725
166.33538
165.67843
165.02242
164.35426
163.69699
163.03374
162.36438
161.72264
161.0772
160.40308
159.73794
159.09001
158.43036
157.77715
157.12917
156.4628
155.80851
155.16891
154.4988
153.82958
153.19553
152.53285
151.85382
151.21493
150.56907
149.89634
149.23017
148.57485
147.91567
147.23927
146.57027
145.93005
145.26691
144.56343
143.90121
143.26728
142.58246
141.89664
141.24503
140.57411
139.88702
139.21478
138.54236
137.87292
137.19947
136.50482
135.82518
135.16167
134.47395
133.78848
133.13797
132.46923
131.75908
131.0799
130.42862
129.72234
129.01074
128.36834
127.70661
126.98863
126.3034
125.64189
124.94362
124.24379
123.5673
122.88058
122.19276
121.52424
120.84234
120.13674
119.45704
118.79628
118.103
117.39613
116.73118
116.08034
115.38183
114.68158
114.03218
113.38415
112.69839
112.01678
111.3722
110.7135
110.01425
109.34563
108.70482
108.02694
107.34522
106.70636
106.06854
105.40449
104.74439
104.10427
103.46064
102.80417
102.15717
101.51885
100.87618
100.23521
99.59087
98.94762
98.320721
97.688657
97.03319
96.390098
95.77775
95.169759
94.544791
93.920287
93.317007
92.715718
92.094847
91.465863
90.850641
90.253796
89.662994
89.059423
88.464076
87.886201
87.295558
86.703901
86.127841
85.566326
84.978276
84.407843
83.849575
83.305186
82.75702
82.206397
81.679841
81.13779
80.633688
80.128214
79.649319
79.172014
78.716277
78.294785
77.878532
77.49022
77.133596
76.839604
76.569961
76.336429
76.165806
76.076063
76.107983
76.257954
76.523745
76.968233
77.579166
78.376393
79.485924
80.892275
82.620405
84.867649
87.641164
91.224016
95.44308
100.58054
107.02268
114.40986
123.60591
134.40431
146.77302
161.56916
178.02846
196.65621
217.09201
238.99292
262.11815
284.95193
307.34121
326.89669
343.3265
355.30809
359.50135
356.92712
353.63788
351.12494
341.8586
324.19787
298.24333
270.76286
265.15007
286.95902
323.76819
365.54022
386.28901
195.03982
195.07716
195.13196
195.19089
195.23023
195.24954
195.24406
195.21274
195.15581
195.07383
194.96847
194.83993
194.69168
194.52149
194.33493
194.12883
193.9052
193.67026
193.41074
193.14627
192.86087
192.55762
192.25014
191.91454
191.57277
191.21254
190.83471
190.44729
190.0353
189.61182
189.17815
188.72011
188.24188
187.7653
187.26316
186.73789
186.21431
185.6691
185.10569
184.53945
183.96435
183.35933
182.75251
182.15079
181.53112
180.88779
180.25099
179.61999
178.9568
178.30309
177.65501
176.98032
176.31443
175.65529
174.97728
174.30279
173.63898
172.96234
172.28802
171.6214
170.9406
170.26955
169.6094
168.92425
168.2602
167.61637
166.92792
166.25035
165.60862
164.94432
164.28138
163.63007
162.95126
162.28913
161.65755
160.99987
160.32791
159.67264
159.02039
158.36542
157.71722
157.0565
156.39145
155.75562
155.10035
154.41589
153.78207
153.1474
152.45122
151.79542
151.1729
150.50336
149.82598
149.17456
148.52565
147.84989
147.16519
146.52612
145.89393
145.18575
144.49054
143.88165
143.2168
142.49935
141.85104
141.20244
140.50186
139.82744
139.16478
138.48577
137.82605
137.14674
136.44295
135.77684
135.11422
134.4168
133.74288
133.09572
132.40106
131.69256
131.04634
130.38295
129.64692
128.96779
128.34607
127.64339
126.92022
126.26622
125.59902
124.88402
124.19434
123.52034
122.82322
122.13966
121.47416
120.78224
120.08487
119.41968
118.75271
118.0452
117.34693
116.70165
116.03447
115.31413
114.63259
114.00832
113.34375
112.62824
111.96553
111.34472
110.65203
109.94303
109.31546
108.68043
107.98068
107.29699
106.6569
106.02111
105.36471
104.69648
104.04783
103.41053
102.75976
102.11202
101.47892
100.84188
100.19402
99.554535
98.922805
98.274179
97.616174
96.989725
96.37547
95.738263
95.103019
94.499171
93.899157
93.278834
92.64773
92.041151
91.446334
90.830442
90.20633
89.601333
89.01687
88.430478
87.829799
87.240124
86.670128
86.084209
85.49452
84.930832
84.385907
83.812646
83.247365
82.691938
82.156069
81.628434
81.097347
80.579129
80.058068
79.582725
79.10627
78.663476
78.204328
77.780278
77.383183
77.01571
76.6934
76.37709
76.1636
75.972346
75.853337
75.807513
75.865067
76.091658
76.446504
76.935589
77.625284
78.557019
79.766045
81.377117
83.374898
85.93394
89.056333
92.838345
97.519122
103.21706
110.02586
118.31216
128.00559
139.3362
152.44591
167.61533
184.64733
202.97992
222.94084
243.86325
264.6746
285.34402
304.09696
319.85859
331.76322
340.15931
346.49958
351.62706
348.14598
334.28451
311.60487
279.63864
247.13317
236.51554
256.05342
294.55206
336.26486
358.08122
194.93511
194.97226
195.02739
195.0862
195.12502
195.1434
195.1367
195.10396
195.04541
194.96179
194.85472
194.72467
194.57476
194.40319
194.21601
194.00778
193.78653
193.54767
193.29193
193.02662
192.7384
192.44209
192.13087
191.79377
191.46026
191.09265
190.71862
190.33006
189.92075
189.49453
189.06023
188.59933
188.12635
187.64685
187.13756
186.61366
186.09233
185.54401
184.97614
184.40937
183.83016
183.22531
182.61999
182.01693
181.38844
180.74128
180.11761
179.47584
178.80634
178.1671
177.50924
176.82581
176.16811
175.51159
174.83148
174.15707
173.48978
172.81342
172.14487
171.47207
170.79022
170.13338
169.46897
168.77766
168.12533
167.4718
166.77791
166.12313
165.47696
164.79683
164.1532
163.50687
162.81173
162.15846
161.5344
160.86752
160.20052
159.5609
158.90297
158.23752
157.59766
156.93866
156.27453
155.64651
154.97917
154.29788
153.69039
153.0343
152.32613
151.7028
151.0734
150.37926
149.7159
149.08456
148.42948
147.73868
147.05769
146.43446
145.79395
145.06905
144.39681
143.8008
143.10887
142.38981
141.76279
141.10937
140.40463
139.7375
139.072
138.39436
137.72934
137.03781
136.35211
135.69912
135.01525
134.31688
133.67026
133.01582
132.29249
131.60444
130.98417
130.28037
129.53367
128.91106
128.27615
127.52172
126.82633
126.20438
125.49924
124.77915
124.12706
123.43816
122.71993
122.06794
121.40223
120.6714
119.99322
119.36618
118.67134
117.92851
117.26576
116.65808
115.9478
115.20228
114.57058
113.95851
113.24053
112.52416
111.91443
111.2817
110.54294
109.84847
109.25294
108.60653
107.89097
107.2297
106.60735
105.9397
105.26487
104.63012
103.98695
103.32458
102.68766
102.05376
101.39498
100.74883
100.12152
99.486075
98.84464
98.2048
97.566531
96.922212
96.287614
95.67887
95.062395
94.421508
93.801037
93.207314
92.598306
91.968494
91.344115
90.757375
90.17788
89.551339
88.917986
88.347459
87.780344
87.171743
86.574423
86.02091
85.454771
84.858378
84.292008
83.747058
83.201071
82.609446
82.058099
81.527638
81.008081
80.473767
79.984047
79.504074
78.988047
78.532216
78.081241
77.683814
77.237952
76.850079
76.51197
76.173509
75.88707
75.626694
75.49555
75.412266
75.371865
75.480589
75.731085
76.094262
76.639008
77.360103
78.328113
79.6229
81.299441
83.449866
86.013338
89.266811
93.33314
98.177331
104.02437
111.0872
119.66305
129.55905
141.05639
154.48263
169.45704
186.0392
203.95472
222.58151
241.60251
260.4982
278.00136
293.62321
307.39755
318.40933
326.67876
330.29917
327.69982
317.55365
296.22744
266.76121
238.02172
228.80022
250.728
291.92164
331.6124
356.54665
194.79461
194.83182
194.887
194.94556
194.98361
195.00066
194.99226
194.95751
194.89674
194.8109
194.70168
194.56973
194.4182
194.24534
194.05764
193.84869
193.62829
193.38919
193.13471
192.87073
192.5822
192.28974
191.97755
191.64125
191.31292
190.93872
190.57347
190.17907
189.77466
189.34415
188.9125
188.44703
187.97935
187.49143
186.98287
186.45913
185.93253
185.3849
184.8123
184.24377
183.66116
183.05697
182.44878
181.84327
181.20714
180.56349
179.9434
179.28853
178.62424
177.98627
177.31814
176.64006
175.98338
175.32255
174.64733
173.97177
173.29657
172.62716
171.9639
171.28465
170.60834
169.95429
169.28227
168.60167
167.95398
167.28509
166.6
165.96375
165.30584
164.61993
163.985
163.33647
162.64994
162.0002
161.36494
160.70361
160.04957
159.41353
158.74868
158.08196
157.45138
156.78874
156.12469
155.50971
154.83571
154.15373
153.55516
152.8932
152.19201
151.56965
150.93115
150.24832
149.58666
148.94759
148.30264
147.61351
146.92366
146.30726
145.65998
144.92988
144.28421
143.68344
142.96914
142.26601
141.64209
140.9748
140.28445
139.62001
138.94295
138.27966
137.61519
136.9003
136.22262
135.59224
134.90436
134.1937
133.5461
132.89569
132.17378
131.48791
130.87478
130.16585
129.41267
128.79954
128.1627
127.40067
126.71022
126.09021
125.38418
124.66573
124.00479
123.31278
122.60989
121.95599
121.28418
120.56456
119.88408
119.25239
118.5668
117.81602
117.14069
116.54332
115.8418
115.09244
114.4729
113.86759
113.12724
112.39962
111.80883
111.18088
110.42655
109.73717
109.15045
108.48904
107.76986
107.12263
106.51401
105.85383
105.15721
104.50065
103.89181
103.2535
102.58161
101.93842
101.31521
100.6605
99.993617
99.361983
98.746366
98.100588
97.450053
96.836135
96.211646
95.572186
94.959243
94.348934
93.718081
93.096539
92.49248
91.88764
91.265786
90.639987
90.037889
89.456716
88.854991
88.236948
87.636363
87.074392
86.501751
85.909183
85.336375
84.786129
84.218994
83.625849
83.081434
82.529874
81.970544
81.399248
80.871402
80.339541
79.828971
79.34041
78.845349
78.384529
77.900142
77.47773
77.035963
76.650042
76.260897
75.908554
75.602979
75.285425
75.048131
74.859053
74.754364
74.751432
74.801143
74.999047
75.401156
76.010324
76.867585
77.88193
79.193451
80.730676
82.629516
85.279362
88.323419
92.16394
96.9525
102.51745
109.48579
117.81866
127.39655
138.73606
151.95395
166.335
182.37481
199.06543
216.15562
233.85857
250.68496
266.60558
281.0281
293.03313
302.24151
307.24741
307.58539
300.82393
287.72073
271.07585
256.15828
257.77903
278.65031
316.16243
349.60602
375.59841
194.61851
194.65578
194.711
194.76911
194.80612
194.82145
194.81086
194.77354
194.70997
194.62132
194.50935
194.37513
194.2214
194.04732
193.85825
193.64903
193.42872
193.18952
192.93672
192.67308
192.38628
192.09588
191.78328
191.45052
191.12222
190.74692
190.38807
189.9867
189.58837
189.15289
188.72347
188.25315
187.79081
187.29061
186.78784
186.26097
185.72743
185.17902
184.60329
184.03309
183.44526
182.84189
182.22793
181.61894
180.97786
180.33971
179.71583
179.05038
178.39406
177.74804
177.07695
176.40939
175.74466
175.07747
174.40986
173.73164
173.05423
172.39136
171.725
171.04631
170.38008
169.71645
169.04342
168.38346
167.72871
167.04461
166.38389
165.75939
165.0773
164.39795
163.77747
163.1144
162.43957
161.80991
161.15676
160.48148
159.85298
159.22727
158.5384
157.88403
157.27431
156.59165
155.92989
155.3343
154.65276
153.97463
153.37276
152.70343
152.02881
151.39944
150.73936
150.08262
149.42555
148.76672
148.13585
147.45441
146.74656
146.13605
145.49994
144.75977
144.12096
143.53013
142.80402
142.09829
141.48351
140.81982
140.12764
139.45577
138.77785
138.12273
137.45664
136.7406
136.07042
135.4455
134.75959
134.04246
133.39005
132.74453
132.01923
131.33199
130.72254
130.02016
129.2868
128.65415
127.98606
127.25666
126.58477
125.92193
125.2232
124.5499
123.8603
123.13037
122.46532
121.82901
121.12069
120.41208
119.75717
119.10868
118.41767
117.68409
117.00762
116.38629
115.68519
114.9622
114.33839
113.7147
112.99765
112.28625
111.65848
111.01443
110.29732
109.63167
109.02439
108.32845
107.61885
107.00892
106.36945
105.68099
105.04583
104.40499
103.73037
103.10121
102.4894
101.82802
101.16526
100.53332
99.897328
99.239328
98.587333
97.956591
97.331383
96.704025
96.078289
95.453592
94.82586
94.20272
93.597264
92.994524
92.373372
91.755977
91.166188
90.565034
89.920342
89.28355
88.696221
88.132514
87.523793
86.907241
86.34843
85.81251
85.22262
84.636008
84.097985
83.53736
82.934945
82.356659
81.845765
81.306137
80.735016
80.168666
79.672749
79.17484
78.650544
78.165851
77.699174
77.27544
76.783083
76.352122
75.944003
75.554532
75.179234
74.840355
74.625957
74.306867
74.026108
73.934998
73.856585
73.74872
73.822317
73.981555
74.182952
74.670637
75.541734
76.685454
78.106103
79.945855
82.056486
84.93214
88.329765
92.277984
97.643589
103.75828
111.22158
120.4642
130.96283
143.6557
157.53537
171.90558
187.92689
204.29553
220.61889
237.01922
252.6044
266.12922
277.35366
285.83426
291.18223
292.82578
291.31196
288.26507
288.04915
298.82673
323.03561
357.60755
394.6085
415.26835
194.40686
194.44444
194.49964
194.55707
194.59269
194.60585
194.5925
194.55199
194.48496
194.39284
194.27754
194.14047
193.9842
193.80858
193.61796
193.40869
193.18825
192.94956
192.69911
192.4352
192.15256
191.86258
191.55082
191.22403
190.89175
190.52198
190.16229
189.76174
189.36135
188.9287
188.49338
188.02815
187.55671
187.05582
186.55644
186.02289
185.48213
184.93224
184.35448
183.77926
183.18647
182.58271
181.96382
181.34823
180.7085
180.07132
179.43625
178.77142
178.12079
177.46032
176.79276
176.13513
175.45632
174.7875
174.12375
173.44256
172.77446
172.10959
171.43303
170.76244
170.10587
169.4352
168.76213
168.11421
167.45934
166.7692
166.11943
165.50442
164.8133
164.13607
163.52328
162.8616
162.19466
161.56788
160.91731
160.23714
159.60647
158.99394
158.30607
157.65494
157.05463
156.36418
155.7026
155.1135
154.43534
153.76819
153.15485
152.48365
151.83154
151.19079
150.52569
149.89064
149.22362
148.55117
147.93349
147.26218
146.5514
145.92971
145.29926
144.57807
143.92591
143.31878
142.62114
141.91797
141.27746
140.63845
139.95526
139.2518
138.58424
137.94283
137.25464
136.55045
135.90063
135.26493
134.58316
133.86336
133.19923
132.57296
131.85202
131.15168
130.53885
129.84001
129.12267
128.48747
127.80226
127.08318
126.41866
125.73467
125.03753
124.39022
123.69272
122.95297
122.2966
121.64983
120.93789
120.23662
119.57735
118.93971
118.25327
117.50984
116.85761
116.24679
115.50996
114.78837
114.17672
113.51932
112.81166
112.14797
111.49957
110.82057
110.13104
109.49609
108.88034
108.17213
107.46373
106.85185
106.21251
105.51629
104.86584
104.25538
103.60686
102.93457
102.30236
101.69245
101.03781
100.3659
99.740112
99.126954
98.465391
97.786724
97.170368
96.569211
95.92343
95.292522
94.691718
94.059922
93.421379
92.833467
92.245131
91.615072
91.000982
90.428893
89.829389
89.179958
88.540892
87.953473
87.380856
86.788864
86.187848
85.61499
85.071717
84.499731
83.921668
83.355292
82.811658
82.21809
81.633317
81.122272
80.589902
80.029352
79.488281
78.997688
78.465515
77.974737
77.489435
77.013798
76.560249
76.075452
75.617822
75.161305
74.729317
74.291055
73.935752
73.607548
73.28563
73.035555
72.797563
72.708974
72.689653
72.759439
73.108881
73.408162
73.962312
74.229041
74.56477
75.259183
76.196942
77.6223
79.315
81.829293
84.821224
88.663509
94.326871
101.08267
109.98686
120.5002
131.66147
144.73006
158.72897
172.81836
188.46595
204.93443
221.26342
237.19515
252.31296
265.89079
277.64229
288.46815
298.78957
310.08313
325.0702
347.24641
376.37329
409.11871
436.57513
454.36451
194.15923
194.19858
194.25326
194.30964
194.3435
194.35398
194.33727
194.29284
194.22161
194.1253
194.00599
193.8655
193.70625
193.52881
193.33662
193.1273
192.90701
192.66914
192.4215
192.15782
191.87995
191.59054
191.28099
190.96061
190.62257
190.26333
189.89588
189.50369
189.09255
188.67233
188.22085
187.76846
187.28053
186.78563
186.27907
185.74337
185.19447
184.64765
184.06465
183.47726
182.88476
182.27542
181.65454
181.03052
180.39247
179.75515
179.1043
178.44625
177.79701
177.12572
176.46131
175.80571
175.11916
174.45043
173.78628
173.10435
172.44787
171.77593
171.08868
170.43387
169.78037
169.10744
168.44231
167.79355
167.13593
166.45439
165.81478
165.19189
164.50079
163.84405
163.2222
162.55182
161.91076
161.28523
160.62144
159.95671
159.33179
158.7045
158.03122
157.40051
156.78374
156.09543
155.44954
154.84648
154.17674
153.53131
152.89667
152.23118
151.60371
150.93648
150.27629
149.66787
148.98258
148.30156
147.69269
147.02655
146.32833
145.70679
145.06022
144.34618
143.7031
143.07178
142.3881
141.71281
141.04966
140.40994
139.74212
139.02239
138.358
137.73393
137.02905
136.32575
135.69718
135.0481
134.35766
133.65422
132.99133
132.34812
131.63519
130.96068
130.32938
129.627
128.93655
128.2728
127.57964
126.89569
126.21203
125.50967
124.83813
124.19272
123.47858
122.75815
122.12074
121.43358
120.7141
120.04191
119.36307
118.71985
118.06162
117.32241
116.65617
116.05333
115.33352
114.59683
113.97093
113.31653
112.60263
111.94436
111.31046
110.62028
109.92457
109.31411
108.68582
107.96144
107.31483
106.70666
105.99078
105.31671
104.7213
104.05813
103.38952
102.78246
102.1314
101.4532
100.84399
100.21649
99.526909
98.913712
98.330357
97.655624
96.992754
96.386452
95.76569
95.132564
94.509089
93.895807
93.279105
92.646141
92.040436
91.451625
90.819004
90.197666
89.617275
89.009127
88.398438
87.809627
87.186085
86.589482
86.054807
85.485026
84.888049
84.31275
83.770703
83.178698
82.582883
82.026743
81.475789
80.890275
80.27483
79.744659
79.264165
78.77173
78.212661
77.690954
77.259858
76.779639
76.300675
75.779163
75.318215
74.868367
74.316911
73.81567
73.361916
72.763644
72.230538
71.869282
71.285632
70.522909
69.948528
69.566089
67.212315
64.518167
62.254669
60.122682
58.1379
56.534752
55.243366
54.39545
54.187903
54.434043
55.49465
57.566479
60.508621
64.779561
78.623851
88.896478
98.840741
109.61909
123.01232
139.46327
156.11065
172.70638
190.18447
207.88575
226.3131
245.01565
264.209
283.5852
303.83632
326.26188
350.38054
377.05658
407.27586
438.10008
464.3745
479.03546
193.87782
193.91698
193.97178
194.02694
194.0587
194.06595
194.04518
193.99604
193.91975
193.81839
193.69435
193.5498
193.38716
193.20759
193.01385
192.80469
192.58471
192.34858
192.10367
191.84165
191.56866
191.28113
190.97446
190.66021
190.31717
189.97092
189.5928
189.21069
188.79068
188.3777
187.91612
187.46831
186.9692
186.48012
185.96466
185.42581
184.86465
184.31598
183.73516
183.13581
182.53938
181.92037
181.30396
180.66982
180.0225
179.39189
178.72824
178.07363
177.42114
176.74439
176.08132
175.41682
174.74019
174.06573
173.39472
172.72506
172.0606
171.38983
170.70961
170.05214
169.40399
168.73839
168.06857
167.42579
166.77706
166.09053
165.46363
164.8404
164.14452
163.50593
162.88552
162.20543
161.56957
160.95875
160.29613
159.6291
159.02183
158.38969
157.70317
157.09752
156.48734
155.78759
155.15546
154.55773
153.88552
153.24183
152.60406
151.95503
151.33556
150.64715
150.00335
149.40474
148.69679
148.02648
147.43069
146.76297
146.05708
145.43954
144.80676
144.08512
143.4322
142.80742
142.13194
141.4546
140.79956
140.16112
139.48313
138.77264
138.10454
137.47343
136.78769
136.08005
135.43294
134.81261
134.12745
133.39183
132.7619
132.13226
131.37344
130.7102
130.09472
129.37979
128.70721
128.0475
127.33775
126.66119
125.98175
125.27299
124.60355
123.94722
123.2369
122.54964
121.90889
121.1971
120.49194
119.81698
119.11223
118.48325
117.8272
117.09468
116.44953
115.81322
115.10441
114.42004
113.73696
113.05369
112.41754
111.73532
111.05028
110.41296
109.7264
109.07979
108.44625
107.72881
107.11125
106.51981
105.79436
105.10662
104.50977
103.8754
103.1878
102.55306
101.95855
101.28364
100.59472
99.981559
99.332701
98.68311
98.081787
97.45827
96.846775
96.224694
95.544771
94.940435
94.365563
93.716736
93.089945
92.513827
91.889288
91.235192
90.632795
90.025744
89.35594
88.72102
88.180159
87.617258
86.977275
86.364844
85.82381
85.29819
84.761794
84.186073
83.593025
83.035833
82.480884
81.838416
81.210814
80.782419
80.164008
79.291321
78.90476
77.751769
73.294267
68.701768
64.246703
59.814135
55.360028
50.807192
46.337779
41.95392
37.434614
32.962711
28.666284
24.325479
20.035578
15.959071
11.894488
7.8255054
4.0847996
0.75778405
-0.12638031
-0.12025061
-0.10641895
-0.095627169
-0.085424599
-0.074882174
-0.0671187
-0.061066104
-0.054591203
-0.048430068
-0.042118804
-0.033607203
-0.020550709
0.0058934109
3.892763
13.675438
25.215245
38.449538
54.760468
87.505007
112.13788
133.39021
155.56121
178.30248
200.36157
223.38205
248.48734
274.63869
301.73871
330.33839
360.91892
393.37589
426.13742
456.29518
480.82015
493.03528
193.56211
193.60071
193.65557
193.70921
193.73847
193.74187
193.71625
193.66145
193.57911
193.47176
193.34214
193.19284
193.02641
192.84445
192.64927
192.4405
192.22126
191.98793
191.74567
191.48753
191.21875
190.93496
190.6321
190.32277
189.9782
189.64241
189.25516
188.88183
188.45722
188.04422
187.57985
187.12614
186.62786
186.13267
185.60284
185.07229
184.50442
183.94272
183.35411
182.75247
182.14945
181.51937
180.90725
180.26248
179.6041
178.98004
178.30764
177.64816
176.99686
176.31568
175.65014
174.97824
174.31091
173.63039
172.95366
172.29579
171.61688
170.9493
170.29165
169.62163
168.97031
168.32395
167.64873
167.00247
166.37706
165.69063
165.05873
164.43943
163.75011
163.12184
162.49614
161.82829
161.19356
160.56875
159.93323
159.27561
158.65288
158.03355
157.35917
156.73868
156.13784
155.45955
154.82572
154.22694
153.55721
152.91655
152.28376
151.64086
151.01849
150.33436
149.70254
149.09345
148.38805
147.7275
147.1207
146.4655
145.76486
145.13163
144.49932
143.7892
143.1418
142.51302
141.85227
141.16866
140.49998
139.87305
139.19203
138.48582
137.8305
137.18155
136.50002
135.82223
135.14272
134.5073
133.86566
133.1175
132.4734
131.87388
131.13269
130.44271
129.80907
129.12073
128.42891
127.75894
127.09291
126.40396
125.71077
125.02513
124.3355
123.66156
122.95606
122.27884
121.64711
120.92798
120.25476
119.58765
118.8448
118.21656
117.56119
116.82908
116.18221
115.55068
114.85733
114.18854
113.51225
112.78667
112.15347
111.5196
110.79614
110.14057
109.50941
108.85958
108.16876
107.44407
106.8649
106.25336
105.51727
104.92011
104.30915
103.59753
102.96924
102.39054
101.71764
101.04592
100.42921
99.753508
99.072675
98.47155
97.814396
97.116425
96.598174
96.014514
95.314888
94.665106
94.103981
93.548776
92.913927
92.270721
91.720732
91.122099
90.407351
89.821052
89.264721
88.402755
87.808898
87.080574
82.283724
76.376422
70.764784
65.253102
59.781775
54.295137
48.749439
43.171571
37.582132
31.970449
26.423351
21.003829
15.49974
9.9164923
4.6800078
0.40989292
-0.061234219
-0.060053172
-0.055212925
-0.056562209
-0.059357579
-0.062727975
-0.06725515
-0.0740736
-0.082924638
-0.092921709
-0.10332624
-0.1139039
-0.12474071
-0.13414614
-0.14061844
-0.1460371
-0.147435
-0.14177318
-0.12951987
-0.11864056
-0.10501223
-0.092930356
-0.084104118
-0.076870088
-0.071605999
-0.068387116
-0.065278455
-0.062377444
-0.059745094
-0.056753431
-0.053236258
-0.054480476
-0.062718653
-0.0415077
-0.021856867
0.010625536
0.063820494
4.1105098
28.808929
62.999815
109.24938
139.11856
169.15217
198.80933
228.6216
260.19503
293.63447
328.9095
364.57344
400.16589
433.31667
461.88619
483.10348
494.41734
193.21246
193.2501
193.30501
193.35663
193.38298
193.38184
193.35042
193.28886
193.19932
193.08487
192.94873
192.79396
192.62329
192.43878
192.24232
192.03437
191.81653
191.58707
191.34807
191.09577
190.83111
190.55336
190.25512
189.949
189.60998
189.27362
188.8896
188.51442
188.09294
187.66794
187.21511
186.74248
186.25238
185.74399
185.21043
184.67305
184.09733
183.52825
182.93288
182.32434
181.71392
181.0754
180.45492
179.80813
179.14269
178.51183
177.84615
177.16801
176.52288
175.84287
175.15988
174.50186
173.82692
173.1361
172.47765
171.80324
171.12483
170.47111
169.80813
169.1465
168.49725
167.84828
167.18588
166.54585
165.92377
165.24361
164.61392
163.9939
163.31171
162.69433
162.06036
161.40726
160.78441
160.13921
159.51848
158.88513
158.24415
157.62465
156.99087
156.35652
155.73696
155.09203
154.46317
153.85056
153.19102
152.56527
151.93411
151.29085
150.66181
149.99404
149.36442
148.73046
148.06384
147.41378
146.76773
146.12777
145.4377
144.79606
144.16584
143.45303
142.80943
142.19107
141.53043
140.85379
140.19525
139.54116
138.86839
138.17811
137.50823
136.87038
136.18285
135.50686
134.84522
134.18442
133.53573
132.82628
132.18563
131.53596
130.82572
130.18661
129.50932
128.83354
128.16038
127.44676
126.78527
126.11863
125.42435
124.74152
124.03815
123.358
122.67693
121.97141
121.31214
120.6348
119.99348
119.31674
118.58232
117.95153
117.2428
116.53271
115.89493
115.21375
114.56139
113.92392
113.23837
112.55599
111.90267
111.22128
110.56362
109.9066
109.21515
108.60916
107.92387
107.1746
106.57123
105.90436
105.23206
104.62563
104.0066
103.34989
102.67963
102.11397
101.5388
100.81864
100.17687
99.605535
98.856329
98.219215
97.636131
96.767432
96.274061
92.793092
85.941543
79.285592
72.755075
66.315446
59.832013
53.276358
46.766155
40.23734
33.621101
27.067334
20.521714
13.81994
7.3372201
1.4066025
-0.074065999
-0.075236534
-0.067875381
-0.063049277
-0.059417464
-0.05635662
-0.054449537
-0.054149281
-0.055137264
-0.056531259
-0.058650826
-0.06102361
-0.061295279
-0.060524585
-0.059222228
-0.054760079
-0.051874455
-0.050984291
-0.049977718
-0.051804302
-0.055257447
-0.059269785
-0.065254343
-0.073373818
-0.082632381
-0.093126855
-0.10421703
-0.11540393
-0.1268577
-0.13773845
-0.14689016
-0.15340815
-0.15535908
-0.14722531
-0.13488121
-0.12434692
-0.11263033
-0.10042638
-0.090709374
-0.083287538
-0.078163211
-0.075403523
-0.0741354
-0.073389106
-0.073336744
-0.073994005
-0.074859315
-0.07450456
-0.075846873
-0.07134764
-0.057168845
-0.04060654
-0.024170166
-0.02336573
0.033210257
0.14506102
17.253863
65.619639
121.62772
163.72254
203.24296
241.7396
280.99083
320.81011
359.84941
395.67
427.40234
453.74442
473.01266
482.87393
192.82956
192.86545
192.92046
192.96932
192.99236
192.98585
192.94755
192.87795
192.77986
192.65702
192.51331
192.35227
192.17697
191.98975
191.79238
191.58575
191.37036
191.14593
190.9114
190.66674
190.40729
190.13725
189.8448
189.54202
189.21116
188.8685
188.49647
188.10823
187.6986
187.25658
186.81527
186.32363
185.83716
185.31843
184.77841
184.23115
183.65389
183.06709
182.47171
181.845
181.23217
180.58786
179.94658
179.30885
178.63705
177.98261
177.33835
176.64116
175.99114
175.32427
174.62218
173.96911
173.29329
172.5893
171.94735
171.26173
170.58057
169.94183
169.27361
168.61687
167.97439
167.33479
166.6727
166.03771
165.43126
164.74901
164.12039
163.51011
162.83553
162.21562
161.58197
160.94778
160.32124
159.67437
159.06903
158.43951
157.79709
157.18843
156.57264
155.93107
155.31556
154.68865
154.05948
153.43659
152.79182
152.19054
151.5369
150.89364
150.2879
149.61664
148.98048
148.34903
147.70289
147.04593
146.39217
145.77738
145.07099
144.41352
143.79398
143.09383
142.44442