/*--------------------------------*- C++ -*----------------------------------*\
| =========                 |                                                 |
| \\      /  F ield         | OpenFOAM: The Open Source CFD Toolbox           |
|  \\    /   O peration     | Version:  2106                                  |
|   \\  /    A nd           | Website:  www.openfoam.com                      |
|    \\/     M anipulation  |                                                 |
\*---------------------------------------------------------------------------*/
FoamFile
{
    version     2.0;
    format      ascii;
    arch        "LSB;label=32;scalar=64";
    class       volVectorField;
    location    "0.017";
    object      U_0;
}
// * * * * * * * * * * * * * * * * * * * * * * * * * * * * * * * * * * * * * //

dimensions      [0 1 -1 0 0 0 0];

internalField   nonuniform List<vector> 
1024
(
(-0.009903111 0.0097419262 0)
(-0.029322751 0.0093619795 0)
(-0.047598487 0.0086175097 0)
(-0.06401947 0.0075386558 0)
(-0.077949969 0.006168892 0)
(-0.088854085 0.0045630194 0)
(-0.096318842 0.0027844387 0)
(-0.10006163 0.00090489524 0)
(-0.099956129 -0.0010043999 0)
(-0.096014307 -0.0028694101 0)
(-0.088400248 -0.0046192935 0)
(-0.077414833 -0.0061884021 0)
(-0.063484827 -0.0075185366 0)
(-0.047145531 -0.0085608534 0)
(-0.02902021 -0.0092773987 0)
(-0.0097968576 -0.0096422455 0)
(0.0097969437 -0.0096422434 0)
(0.029020288 -0.0092773928 0)
(0.047145593 -0.0085608448 0)
(0.06348487 -0.0075185266 0)
(0.077414856 -0.0061883922 0)
(0.088400252 -0.004619285 0)
(0.096014295 -0.0028694035 0)
(0.099956107 -0.0010043955 0)
(0.1000616 0.00090489786 0)
(0.096318809 0.0027844399 0)
(0.088854051 0.0045630199 0)
(0.077949935 0.006168892 0)
(0.064019436 0.0075386557 0)
(0.047598454 0.0086175096 0)
(0.029322718 0.0093619794 0)
(0.0099030782 0.0097419262 0)
(-0.010139969 0.02943014 0)
(-0.030023044 0.028281566 0)
(-0.048731957 0.02603117 0)
(-0.065537609 0.022770288 0)
(-0.079788707 0.018630632 0)
(-0.090937436 0.013778276 0)
(-0.098561592 0.0084058615 0)
(-0.10237744 0.0027261553 0)
(-0.10225278 -0.0030398843 0)
(-0.098205914 -0.0086716474 0)
(-0.090405796 -0.013955085 0)
(-0.079161808 -0.018692148 0)
(-0.064911134 -0.02270736 0)
(-0.048201153 -0.025853505 0)
(-0.029668501 -0.028016215 0)
(-0.010015458 -0.029117377 0)
(0.010015549 -0.029117371 0)
(0.029668583 -0.028016197 0)
(0.048201218 -0.025853478 0)
(0.064911177 -0.022707329 0)
(0.079161828 -0.018692118 0)
(0.090405795 -0.013955058 0)
(0.098205897 -0.0086716277 0)
(0.10225275 -0.0030398712 0)
(0.1023774 0.0027261626 0)
(0.098561557 0.0084058648 0)
(0.090937401 0.013778277 0)
(0.079788673 0.018630632 0)
(0.065537577 0.022770287 0)
(0.048731927 0.02603117 0)
(0.030023014 0.028281566 0)
(0.010139939 0.02943014 0)
(-0.010381685 0.049686003 0)
(-0.030736816 0.047743679 0)
(-0.049884458 0.043938643 0)
(-0.06707588 0.038426333 0)
(-0.081643712 0.031430679 0)
(-0.093028557 0.023233676 0)
(-0.1008008 0.014162376 0)
(-0.1046749 0.0045754928 0)
(-0.10451893 -0.0051537593 0)
(-0.10035667 -0.014652256 0)
(-0.092364272 -0.023560121 0)
(-0.080860504 -0.031544468 0)
(-0.066293179 -0.038310553 0)
(-0.049221302 -0.043611225 0)
(-0.030293891 -0.047254547 0)
(-0.010226145 -0.049109442 0)
(0.010226251 -0.04910943 0)
(0.030293983 -0.047254513 0)
(0.049221372 -0.043611177 0)
(0.066293222 -0.038310497 0)
(0.080860519 -0.031544414 0)
(0.092364263 -0.023560076 0)
(0.10035665 -0.014652224 0)
(0.1045189 -0.005153739 0)
(0.10467486 0.0045755028 0)
(0.10080076 0.014162379 0)
(0.093028521 0.023233676 0)
(0.081643679 0.031430677 0)
(0.06707585 0.038426331 0)
(0.04988443 0.043938641 0)
(0.030736789 0.047743678 0)
(0.010381658 0.049686003 0)
(-0.010687139 0.07041947 0)
(-0.031638418 0.067660185 0)
(-0.051339048 0.062255845 0)
(-0.06901512 0.054429282 0)
(-0.083978957 0.04450103 0)
(-0.095656801 0.032873936 0)
(-0.10361062 0.02001423 0)
(-0.10755255 0.0064310327 0)
(-0.10735312 -0.0073463159 0)
(-0.1030429 -0.020789504 0)
(-0.094807704 -0.033390758 0)
(-0.082978119 -0.044681161 0)
(-0.0680151 -0.054245936 0)
(-0.05049189 -0.061737455 0)
(-0.031072665 -0.066885825 0)
(-0.010488484 -0.069506748 0)
(0.010488616 -0.069506728 0)
(0.031072779 -0.066885772 0)
(0.050491973 -0.061737377 0)
(0.068015144 -0.054245849 0)
(0.082978126 -0.044681078 0)
(0.094807681 -0.033390691 0)
(0.10304286 -0.020789458 0)
(0.10735307 -0.0073462907 0)
(0.1075525 0.006431042 0)
(0.10361058 0.02001423 0)
(0.095656764 0.032873931 0)
(0.083978925 0.044501024 0)
(0.069015091 0.054429278 0)
(0.051339022 0.062255843 0)
(0.031638394 0.067660183 0)
(0.010687114 0.07041947 0)
(-0.011203642 0.091862074 0)
(-0.033164235 0.088251963 0)
(-0.05380476 0.08118313 0)
(-0.072310326 0.070950512 0)
(-0.087959438 0.057977493 0)
(-0.10015325 0.042794757 0)
(-0.10843772 0.026014532 0)
(-0.11251797 0.0083027887 0)
(-0.11226559 -0.009649679 0)
(-0.10771939 -0.027155216 0)
(-0.099079149 -0.04355505 0)
(-0.086693821 -0.058242224 0)
(-0.071046093 -0.070680392 0)
(-0.05273402 -0.080420127 0)
(-0.032449294 -0.087112502 0)
(-0.010952628 -0.09051917 0)
(0.010952804 -0.090519139 0)
(0.032449442 -0.087112418 0)
(0.052734122 -0.080420007 0)
(0.07104614 -0.070680259 0)
(0.086693814 -0.058242101 0)
(0.099079101 -0.043554956 0)
(0.10771933 -0.027155158 0)
(0.11226552 -0.009649653 0)
(0.1125179 0.0083027916 0)
(0.10843767 0.026014523 0)
(0.10015321 0.042794745 0)
(0.087959406 0.057977482 0)
(0.0723103 0.070950505 0)
(0.053804737 0.081183126 0)
(0.033164213 0.088251961 0)
(0.011203618 0.091862074 0)
(-0.012148394 0.11461866 0)
(-0.035957911 0.11009929 0)
(-0.058328073 0.10125292 0)
(-0.078372304 0.088453687 0)
(-0.095308074 0.07223729 0)
(-0.10848865 0.053273035 0)
(-0.11742636 0.032330082 0)
(-0.12180696 0.010241849 0)
(-0.12149707 -0.012129566 0)
(-0.11654445 -0.033928448 0)
(-0.10717037 -0.054337881 0)
(-0.093755312 -0.072607434 0)
(-0.076821732 -0.088074438 0)
(-0.057015153 -0.10018335 0)
(-0.035081451 -0.10850265 0)
(-0.011840707 -0.11273728 0)
(0.011840952 -0.11273723 0)
(0.035081653 -0.10850252 0)
(0.057015284 -0.10018316 0)
(0.076821779 -0.088074238 0)
(0.09375528 -0.072607255 0)
(0.10717028 -0.054337753 0)
(0.11654434 -0.03392838 0)
(0.12149697 -0.012129547 0)
(0.12180687 0.010241836 0)
(0.1174263 0.032330057 0)
(0.10848861 0.053273011 0)
(0.095308047 0.072237269 0)
(0.078372283 0.088453677 0)
(0.058328053 0.10125291 0)
(0.035957891 0.11009929 0)
(0.012148371 0.11461866 0)
(-0.013754481 0.13977703 0)
(-0.040710517 0.13424796 0)
(-0.066033675 0.12342873 0)
(-0.088719371 0.10778319 0)
(-0.10788203 0.087973395 0)
(-0.12279071 0.064823777 0)
(-0.13289455 0.039277827 0)
(-0.13783813 0.012354171 0)
(-0.13747096 -0.014895359 0)
(-0.13184967 -0.041428944 0)
(-0.12122917 -0.066255937 0)
(-0.10604336 -0.088470178 0)
(-0.086883746 -0.10727164 0)
(-0.064479681 -0.12198875 0)
(-0.039673335 -0.13209938 0)
(-0.013390418 -0.13724587 0)
(0.01339077 -0.1372458 0)
(0.03967362 -0.13209918 0)
(0.064479853 -0.12198846 0)
(0.086883787 -0.10727134 0)
(0.10604328 -0.088469919 0)
(0.12122902 -0.066255769 0)
(0.13184949 -0.041428875 0)
(0.13747081 -0.014895361 0)
(0.13783803 0.012354124 0)
(0.13289449 0.039277776 0)
(0.12279067 0.064823734 0)
(0.10788201 0.087973362 0)
(0.088719362 0.10778318 0)
(0.06603366 0.12342873 0)
(0.040710501 0.13424796 0)
(0.013754457 0.13977704 0)
(-0.016136193 0.16886133 0)
(-0.047761607 0.16216519 0)
(-0.077476352 0.14906595 0)
(-0.10410459 0.13013146 0)
(-0.12660817 0.10616938 0)
(-0.14412757 0.078182525 0)
(-0.15601118 0.047314186 0)
(-0.16183234 0.014795642 0)
(-0.1614055 -0.018099752 0)
(-0.15479606 -0.050110455 0)
(-0.14231113 -0.08004305 0)
(-0.12446918 -0.10681361 0)
(-0.10196885 -0.12946537 0)
(-0.075668064 -0.14719372 0)
(-0.046554791 -0.15937275 0)
(-0.015712634 -0.16557247 0)
(0.015713154 -0.16557235 0)
(0.046555205 -0.15937244 0)
(0.075668295 -0.14719327 0)
(0.10196887 -0.12946492 0)
(0.12446901 -0.10681323 0)
(0.14231085 -0.080042834 0)
(0.15479578 -0.050110401 0)
(0.16140528 -0.018099802 0)
(0.16183221 0.014795534 0)
(0.15601112 0.047314091 0)
(0.14412755 0.078182454 0)
(0.12660817 0.10616933 0)
(0.1041046 0.13013146 0)
(0.077476345 0.14906596 0)
(0.047761592 0.1621652 0)
(0.016136163 0.16886134 0)
(-0.019036463 0.20341149 0)
(-0.056350796 0.19533564 0)
(-0.09142418 0.17954008 0)
(-0.12287543 0.15671375 0)
(-0.14947982 0.1278324 0)
(-0.17021623 0.094105549 0)
(-0.18430154 0.056908484 0)
(-0.19120833 0.017721534 0)
(-0.190696 -0.021912191 0)
(-0.18284061 -0.060455836 0)
(-0.16802749 -0.096465264 0)
(-0.14689881 -0.12864931 0)
(-0.12029534 -0.15586904 0)
(-0.089237819 -0.17716543 0)
(-0.054891288 -0.19179389 0)
(-0.018524246 -0.19924095 0)
(0.018525032 -0.19924076 0)
(0.054891907 -0.19179338 0)
(0.089238135 -0.17716472 0)
(0.12029532 -0.15586834 0)
(0.1468985 -0.12864875 0)
(0.16802701 -0.096464998 0)
(0.18284017 -0.060455839 0)
(0.19069568 -0.021912334 0)
(0.19120817 0.017721318 0)
(0.1843015 0.056908324 0)
(0.17021623 0.094105437 0)
(0.14947987 0.12783232 0)
(0.12287547 0.15671378 0)
(0.091424175 0.17954011 0)
(0.056350779 0.19533567 0)
(0.019036417 0.20341152 0)
(-0.021468893 0.24393296 0)
(-0.063556753 0.23425055 0)
(-0.10313274 0.21531316 0)
(-0.13864609 0.1879468 0)
(-0.16871254 0.15331364 0)
(-0.19216712 0.11285762 0)
(-0.20810487 0.068217589 0)
(-0.21588735 0.021156379 0)
(-0.21519878 -0.026450926 0)
(-0.20614114 -0.072707229 0)
(-0.18921946 -0.11585076 0)
(-0.16522602 -0.15435547 0)
(-0.13515183 -0.18688537 0)
(-0.10016659 -0.21231412 0)
(-0.061575362 -0.22977325 0)
(-0.020773447 -0.23866107 0)
(0.020774663 -0.23866078 0)
(0.06157632 -0.22977244 0)
(0.10016703 -0.21231295 0)
(0.13515173 -0.18688429 0)
(0.16522545 -0.15435464 0)
(0.18921864 -0.11585046 0)
(0.20614046 -0.072707368 0)
(0.21519834 -0.026451234 0)
(0.21588718 0.02115598 0)
(0.20810489 0.068217341 0)
(0.19216714 0.11285745 0)
(0.16871266 0.15331351 0)
(0.13864619 0.18794691 0)
(0.10313272 0.21531324 0)
(0.063556722 0.23425059 0)
(0.021468812 0.24393301 0)
(-0.021386216 0.2880643 0)
(-0.063314793 0.27664294 0)
(-0.10274777 0.25430159 0)
(-0.13814489 0.22200989 0)
(-0.16811292 0.18112256 0)
(-0.1914743 0.13332691 0)
(-0.20731185 0.080530862 0)
(-0.21491322 0.024777906 0)
(-0.21386086 -0.031651434 0)
(-0.2043042 -0.086362863 0)
(-0.18694849 -0.13722788 0)
(-0.162742 -0.18249931 0)
(-0.13274638 -0.22064926 0)
(-0.098158804 -0.25040866 0)
(-0.060247465 -0.27081674 0)
(-0.020308615 -0.28119897 0)
(0.020310553 -0.28119852 0)
(0.060249028 -0.27081543 0)
(0.098159479 -0.25040672 0)
(0.13274613 -0.22064756 0)
(0.16274099 -0.18249803 0)
(0.18694709 -0.1372276 0)
(0.20430315 -0.086363301 0)
(0.21386024 -0.031652009 0)
(0.21491306 0.024777211 0)
(0.20731197 0.080530513 0)
(0.19147433 0.13332665 0)
(0.16811316 0.18112234 0)
(0.13814508 0.22201018 0)
(0.10274766 0.25430174 0)
(0.063314714 0.27664302 0)
(0.021386049 0.28806441 0)
(-0.015718023 0.32820537 0)
(-0.046532113 0.31520271 0)
(-0.075497965 0.28976404 0)
(-0.10148161 0.25299227 0)
(-0.12344896 0.20638713 0)
(-0.14049931 0.15185969 0)
(-0.15194235 0.091552018 0)
(-0.15709647 0.027666362 0)
(-0.15540942 -0.037085089 0)
(-0.1471115 -0.099568305 0)
(-0.13322271 -0.15725372 0)
(-0.11481543 -0.20832218 0)
(-0.092802102 -0.25115548 0)
(-0.068111941 -0.2844316 0)
(-0.04158792 -0.30720019 0)
(-0.013969019 -0.3187762 0)
(0.013972266 -0.31877551 0)
(0.041590666 -0.30719807 0)
(0.068113077 -0.28442828 0)
(0.092801589 -0.2511528 0)
(0.11481362 -0.20832018 0)
(0.1332202 -0.15725363 0)
(0.14710985 -0.099569353 0)
(0.15540861 -0.037086076 0)
(0.15709644 0.027665204 0)
(0.15194265 0.091551594 0)
(0.14049928 0.15185926 0)
(0.12344944 0.20638672 0)
(0.10148189 0.25299301 0)
(0.07549756 0.28976431 0)
(0.046531893 0.31520283 0)
(0.015717649 0.32820557 0)
(-0.0014004991 0.34994135 0)
(-0.0041663248 0.3360775 0)
(-0.0067096566 0.30894528 0)
(-0.0089669865 0.2697236 0)
(-0.010801355 0.2199551 0)
(-0.012031639 0.16166793 0)
(-0.012647252 0.097058839 0)
(-0.012175737 0.028206837 0)
(-0.0097153129 -0.041734021 0)
(-0.0056052121 -0.10859601 0)
(-0.0014356806 -0.1694423 0)
(0.0017514171 -0.22277097 0)
(0.0036270663 -0.26711812 0)
(0.0039878287 -0.30129505 0)
(0.002998909 -0.32456172 0)
(0.0011131559 -0.33632489 0)
(-0.001107245 -0.33632386 0)
(-0.0029936631 -0.3245583 0)
(-0.0039857905 -0.30128952 0)
(-0.0036282879 -0.2671138 0)
(-0.0017550969 -0.22276782 0)
(0.0014308108 -0.16944227 0)
(0.0056025628 -0.10859804 0)
(0.0097144212 -0.041735766 0)
(0.012176194 0.028205021 0)
(0.012647965 0.097058536 0)
(0.012031498 0.16166733 0)
(0.010802528 0.21995438 0)
(0.0089674214 0.26972514 0)
(0.0067084292 0.30894571 0)
(0.0041657018 0.33607755 0)
(0.0013995491 0.3499417 0)
(0.02166424 0.33172782 0)
(0.064134047 0.31851883 0)
(0.10412181 0.29265704 0)
(0.13994944 0.2553557 0)
(0.17025641 0.20798775 0)
(0.1940169 0.15257805 0)
(0.21003309 0.091171079 0)
(0.2184429 0.024782408 0)
(0.22096744 -0.043082773 0)
(0.2172805 -0.1067501 0)
(0.20492292 -0.16304897 0)
(0.18315291 -0.21174465 0)
(0.15289258 -0.25176423 0)
(0.11512265 -0.28220168 0)
(0.071475699 -0.30282953 0)
(0.024243485 -0.31321869 0)
(-0.024231884 -0.31321687 0)
(-0.071465679 -0.30282281 0)
(-0.11511947 -0.28219038 0)
(-0.15289642 -0.25175578 0)
(-0.18316097 -0.21173949 0)
(-0.20493221 -0.16305062 0)
(-0.21728477 -0.10675566 0)
(-0.22096766 -0.043086407 0)
(-0.21844103 0.024779597 0)
(-0.21003165 0.091170936 0)
(-0.19401674 0.15257647 0)
(-0.17025325 0.20798661 0)
(-0.13994845 0.25535991 0)
(-0.10412467 0.29265834 0)
(-0.064135775 0.31851904 0)
(-0.021666769 0.33172867 0)
(0.045072204 0.273098 0)
(0.13339641 0.26232493 0)
(0.21630558 0.24126631 0)
(0.29022167 0.21091865 0)
(0.35223974 0.17208152 0)
(0.40026831 0.12643005 0)
(0.43131284 0.075389487 0)
(0.44495821 0.017842029 0)
(0.44442344 -0.042428843 0)
(0.4297928 -0.096387588 0)
(0.39797432 -0.14055393 0)
(0.34954048 -0.17721166 0)
(0.2875718 -0.20617432 0)
(0.21411203 -0.2272384 0)
(0.13198974 -0.24114105 0)
(0.04460181 -0.24801938 0)
(-0.04457913 -0.24801733 0)
(-0.13197177 -0.24113148 0)
(-0.21410986 -0.22722 0)
(-0.2875851 -0.20616063 0)
(-0.34955974 -0.17720252 0)
(-0.39798997 -0.14055672 0)
(-0.42979493 -0.096398024 0)
(-0.44441922 -0.04243567 0)
(-0.44495531 0.017838092 0)
(-0.43131244 0.075391365 0)
(-0.40026586 0.12642832 0)
(-0.35222944 0.17207975 0)
(-0.29021818 0.21092635 0)
(-0.21631114 0.24126749 0)
(-0.13340055 0.26232404 0)
(-0.04507922 0.27309894 0)
(0.043277473 0.13680573 0)
(0.12767804 0.13148045 0)
(0.20597958 0.12092994 0)
(0.27431796 0.10637985 0)
(0.32969277 0.087096545 0)
(0.37025673 0.064718642 0)
(0.3932715 0.042204071 0)
(0.39801145 0.011568623 0)
(0.38767097 -0.025765583 0)
(0.36372536 -0.054363756 0)
(0.32591627 -0.072887427 0)
(0.27724618 -0.090072608 0)
(0.22165828 -0.10365988 0)
(0.16119578 -0.11286225 0)
(0.097711533 -0.11931743 0)
(0.032757334 -0.12239999 0)
(-0.03273849 -0.12239222 0)
(-0.097699164 -0.1192883 0)
(-0.16119783 -0.11281129 0)
(-0.22167281 -0.10363106 0)
(-0.2772627 -0.090067237 0)
(-0.32592516 -0.072912189 0)
(-0.36372176 -0.054391343 0)
(-0.38766568 -0.025766028 0)
(-0.39801194 0.011570438 0)
(-0.39327348 0.042201801 0)
(-0.37025215 0.064701437 0)
(-0.32967983 0.087093785 0)
(-0.27431285 0.1064081 0)
(-0.20598359 0.12093472 0)
(-0.12768254 0.13148444 0)
(-0.043287378 0.13681182 0)
(-0.032829121 0.12240457 0)
(-0.097958422 0.11931888 0)
(-0.16160945 0.11287905 0)
(-0.22221895 0.10370769 0)
(-0.27792739 0.090139724 0)
(-0.32668513 0.072971853 0)
(-0.36454885 0.054447877 0)
(-0.38852362 0.025829768 0)
(-0.39886392 -0.011520281 0)
(-0.39408491 -0.04216813 0)
(-0.37099524 -0.064712423 0)
(-0.33033172 -0.087134246 0)
(-0.27483795 -0.10645841 0)
(-0.20636879 -0.12105598 0)
(-0.1279271 -0.13163315 0)
(-0.043375745 -0.13696268 0)
(0.043351775 -0.13695556 0)
(0.12791073 -0.131606 0)
(0.20637029 -0.12100789 0)
(0.27485487 -0.10643075 0)
(0.33035091 -0.087128577 0)
(0.37100598 -0.064736222 0)
(0.39408198 -0.042195186 0)
(0.39885906 -0.011520596 0)
(0.38852467 0.025831652 0)
(0.36455106 0.054445408 0)
(0.32668143 0.072953821 0)
(0.27791667 0.090136945 0)
(0.22221437 0.10373746 0)
(0.16161238 0.11288421 0)
(0.097962215 0.11932342 0)
(0.032837123 0.12241119 0)
(-0.044673495 0.24820663 0)
(-0.13223654 0.24132768 0)
(-0.21452385 0.22742419 0)
(-0.28812507 0.20635841 0)
(-0.35020723 0.17738228 0)
(-0.3987233 0.14069834 0)
(-0.43059063 0.096502749 0)
(-0.44524177 0.042503289 0)
(-0.44576658 -0.017816326 0)
(-0.43207763 -0.075420451 0)
(-0.40096016 -0.12652158 0)
(-0.35283664 -0.17222951 0)
(-0.29070369 -0.21111886 0)
(-0.2166625 -0.24151696 0)
(-0.13362147 -0.26260954 0)
(-0.0451584 -0.27340065 0)
(0.045137304 -0.27339925 0)
(0.13360437 -0.26260221 0)
(0.2166598 -0.24150204 0)
(0.29071554 -0.21110672 0)
(0.35285465 -0.17222035 0)
(0.40097529 -0.12652341 0)
(0.4320799 -0.07543013 0)
(0.44576252 -0.017822827 0)
(0.44523908 0.042499608 0)
(0.43059046 0.09650461 0)
(0.39872055 0.14069569 0)
(0.3501962 0.17738052 0)
(0.28812134 0.20636807 0)
(0.21452963 0.22742577 0)
(0.13224103 0.24132728 0)
(0.044681435 0.24820816 0)
(-0.024317684 0.3135741 0)
(-0.071710384 0.30317636 0)
(-0.11550913 0.28253334 0)
(-0.15341016 0.25206804 0)
(-0.18378044 0.21201503 0)
(-0.20563293 0.1632598 0)
(-0.21804101 0.10690073 0)
(-0.22175084 0.043161596 0)
(-0.21921666 -0.02478276 0)
(-0.2107682 -0.091255206 0)
(-0.1946876 -0.15274741 0)
(-0.17083946 -0.20823653 0)
(-0.14042281 -0.25567596 0)
(-0.10447165 -0.29303884 0)
(-0.064350719 -0.31894204 0)
(-0.02174139 -0.33217176 0)
(0.021731403 -0.33217002 0)
(0.064341975 -0.31893584 0)
(0.10446863 -0.2930286 0)
(0.1404258 -0.25566816 0)
(0.17084649 -0.20823174 0)
(0.19469613 -0.15274909 0)
(0.21077224 -0.091260601 0)
(0.21921666 -0.024786342 0)
(0.22174881 0.043158893 0)
(0.21803956 0.10690078 0)
(0.20563254 0.16325812 0)
(0.18377659 0.21201392 0)
(0.15340898 0.25207289 0)
(0.11551243 0.28253479 0)
(0.071712454 0.30317654 0)
(0.024320853 0.31357506 0)
(-0.0011896235 0.33683269 0)
(-0.0032317649 0.32505419 0)
(-0.0043750295 0.30175728 0)
(-0.0041455278 0.26753611 0)
(-0.002389678 0.22312689 0)
(0.00070268086 0.16972226 0)
(0.0048184691 0.10878523 0)
(0.0088941898 0.041823233 0)
(0.011352596 -0.02822601 0)
(0.011853535 -0.097189414 0)
(0.011298372 -0.1619086 0)
(0.010157186 -0.22029717 0)
(0.0084384554 -0.27015514 0)
(0.0063160619 -0.3094504 0)
(0.0039226475 -0.33663335 0)
(0.0013159999 -0.35052289 0)
(-0.0013211734 -0.35052197 0)
(-0.0039271948 -0.33663031 0)
(-0.0063178566 -0.30944556 0)
(-0.0084373971 -0.27015126 0)
(-0.010153999 -0.22029436 0)
(-0.011294052 -0.16190865 0)
(-0.011851055 -0.097191497 0)
(-0.011351881 -0.028227892 0)
(-0.0088948234 0.041821368 0)
(-0.0048192496 0.10878494 0)
(-0.00070260578 0.16972165 0)
(0.0023881225 0.22312619 0)
(0.0041449894 0.26753802 0)
(0.0043765502 0.30175785 0)
(0.0032325006 0.32505426 0)
(0.0011908057 0.33683311 0)
(0.0138746 0.31944647 0)
(0.041303859 0.30784891 0)
(0.067645086 0.28503682 0)
(0.092168464 0.25170347 0)
(0.11403353 0.20878286 0)
(0.13231872 0.15762213 0)
(0.14611973 0.099816573 0)
(0.15436339 0.037200686 0)
(0.15603503 -0.027693485 0)
(0.15090669 -0.091724888 0)
(0.13953203 -0.15217567 0)
(0.12259105 -0.20683592 0)
(0.1007711 -0.25355753 0)
(0.074966242 -0.29042335 0)
(0.04620241 -0.31592742 0)
(0.015605293 -0.32896352 0)
(-0.015608165 -0.32896289 0)
(-0.046204794 -0.31592548 0)
(-0.074967215 -0.29042039 0)
(-0.10077061 -0.2535551 0)
(-0.12258941 -0.20683419 0)
(-0.13952977 -0.15217557 0)
(-0.15090517 -0.091725938 0)
(-0.15603434 -0.027694532 0)
(-0.15436349 0.037199507 0)
(-0.14612014 0.099816158 0)
(-0.13231876 0.1576217 0)
(-0.11403418 0.20878244 0)
(-0.092168815 0.25170446 0)
(-0.067644583 0.28503713 0)
(-0.041303604 0.30784905 0)
(-0.013874153 0.31944671 0)
(0.020170141 0.28208565 0)
(0.059833492 0.27167681 0)
(0.097480161 0.25121574 0)
(0.13182261 0.22137851 0)
(0.16160024 0.18312226 0)
(0.18562424 0.13772125 0)
(0.20284243 0.086700753 0)
(0.21231285 0.03181352 0)
(0.21333675 -0.024805618 0)
(0.20576893 -0.080754986 0)
(0.19002847 -0.13374499 0)
(0.16682706 -0.18172166 0)
(0.13707703 -0.22276776 0)
(0.10194674 -0.25518748 0)
(0.06281798 -0.27761835 0)
(0.021217261 -0.28908569 0)
(-0.021218973 -0.28908528 0)
(-0.062819333 -0.27761715 0)
(-0.10194731 -0.25518574 0)
(-0.13707675 -0.22276623 0)
(-0.16682612 -0.18172055 0)
(-0.19002717 -0.13374477 0)
(-0.20576795 -0.080755462 0)
(-0.21333622 -0.024806238 0)
(-0.21231279 0.031812797 0)
(-0.20284264 0.0867004 0)
(-0.18562434 0.137721 0)
(-0.16160057 0.18312205 0)
(-0.13182285 0.22137892 0)
(-0.097480033 0.25121594 0)
(-0.05983341 0.27167691 0)
(-0.020169954 0.28208577 0)
(0.020564269 0.24039398 0)
(0.060952029 0.23144874 0)
(0.099146105 0.21387584 0)
(0.1337634 0.18827919 0)
(0.1635111 0.15552947 0)
(0.18723223 0.11675886 0)
(0.20394775 0.073308119 0)
(0.21287765 0.026713639 0)
(0.21352565 -0.021252373 0)
(0.20579593 -0.068676307 0)
(0.19000673 -0.11366871 0)
(0.16679321 -0.15445026 0)
(0.13705301 -0.18936644 0)
(0.1019384 -0.21695911 0)
(0.062816587 -0.23605421 0)
(0.021217798 -0.24581754 0)
(-0.021218852 -0.24581728 0)
(-0.062817401 -0.23605348 0)
(-0.10193876 -0.21695807 0)
(-0.13705288 -0.18936548 0)
(-0.16679266 -0.15444954 0)
(-0.19000597 -0.11366848 0)
(-0.2057953 -0.0686765 0)
(-0.21352526 -0.021252726 0)
(-0.21287754 0.026713208 0)
(-0.20394784 0.073307858 0)
(-0.18723231 0.11675869 0)
(-0.16351127 0.15552935 0)
(-0.13376354 0.18827934 0)
(-0.099146093 0.21387595 0)
(-0.060952009 0.2314488 0)
(-0.020564191 0.24039404 0)
(0.018217887 0.19810355 0)
(0.053980574 0.19071893 0)
(0.087750654 0.17621047 0)
(0.11827853 0.15508209 0)
(0.14441777 0.12806494 0)
(0.16516586 0.096102882 0)
(0.17969817 0.060318324 0)
(0.18738522 0.021988224 0)
(0.18785531 -0.017454651 0)
(0.18103891 -0.056482765 0)
(0.16717483 -0.093555554 0)
(0.14678639 -0.12719136 0)
(0.1206454 -0.15601092 0)
(0.089755501 -0.17879891 0)
(0.055318164 -0.19457324 0)
(0.018686677 -0.20263985 0)
(-0.018687355 -0.20263968 0)
(-0.055318686 -0.19457278 0)
(-0.08975575 -0.17879826 0)
(-0.12064534 -0.15601027 0)
(-0.14678607 -0.12719084 0)
(-0.16717437 -0.093555306 0)
(-0.1810385 -0.056482771 0)
(-0.18785503 -0.017454789 0)
(-0.1873851 0.021988022 0)
(-0.17969818 0.06031819 0)
(-0.16516591 0.096102805 0)
(-0.14441786 0.1280649 0)
(-0.11827861 0.15508216 0)
(-0.087750666 0.17621054 0)
(-0.053980571 0.19071897 0)
(-0.018217851 0.19810359 0)
(0.015524237 0.17712344 0)
(0.045993184 0.17049615 0)
(0.074745944 0.15747604 0)
(0.10070813 0.13852083 0)
(0.12290183 0.11429743 0)
(0.14048043 0.085664686 0)
(0.15275753 0.053644512 0)
(0.15922813 0.019396598 0)
(0.15959289 -0.015801548 0)
(0.15379503 -0.05059833 0)
(0.14202978 -0.083630434 0)
(0.12472441 -0.11357941 0)
(0.10252639 -0.13922129 0)
(0.076284437 -0.15948286 0)
(0.047019315 -0.17349994 0)
(0.015883966 -0.18066513 0)
(-0.015884381 -0.18066503 0)
(-0.047019634 -0.17349967 0)
(-0.076284595 -0.15948249 0)
(-0.10252636 -0.13922093 0)
(-0.12472422 -0.11357913 0)
(-0.14202951 -0.083630304 0)
(-0.15379476 -0.050598355 0)
(-0.1595927 -0.015801668 0)
(-0.15922804 0.019396431 0)
(-0.15275751 0.053644369 0)
(-0.14048045 0.085664579 0)
(-0.12290188 0.11429736 0)
(-0.10070819 0.13852082 0)
(-0.074745973 0.15747604 0)
(-0.045993204 0.17049615 0)
(-0.015524238 0.17712345 0)
(0.012864329 0.12276395 0)
(0.038113648 0.11820433 0)
(0.061942809 0.10924069 0)
(0.083461922 0.0961786 0)
(0.10186184 0.079465693 0)
(0.11644222 0.059680827 0)
(0.1266356 0.037518919 0)
(0.13202502 0.013774555 0)
(0.13237038 -0.010674466 0)
(0.12761848 -0.034895523 0)
(0.1179109 -0.057937715 0)
(0.10359092 -0.078869892 0)
(0.085187908 -0.096821244 0)
(0.06340374 -0.11102449 0)
(0.03908848 -0.12085946 0)
(0.013206241 -0.12588963 0)
(-0.013206551 -0.12588956 0)
(-0.039088726 -0.12085925 0)
(-0.063403881 -0.1110242 0)
(-0.085187928 -0.096820922 0)
(-0.10359083 -0.078869601 0)
(-0.11791075 -0.057937501 0)
(-0.12761832 -0.034895396 0)
(-0.13237024 -0.010674404 0)
(-0.13202493 0.013774579 0)
(-0.12663556 0.037518941 0)
(-0.1164422 0.059680856 0)
(-0.10186184 0.079465726 0)
(-0.08346193 0.09617865 0)
(-0.061942806 0.10924073 0)
(-0.03811364 0.11820436 0)
(-0.012864311 0.12276397 0)
(0.012954061 0.14562809 0)
(0.038376275 0.14015614 0)
(0.062358372 0.12940591 0)
(0.083998158 0.11375868 0)
(0.10247711 0.093772276 0)
(0.11708958 0.070165139 0)
(0.1272683 0.043794559 0)
(0.13260548 0.01563167 0)
(0.13286611 -0.013265337 0)
(0.12801101 -0.041787445 0)
(0.11820116 -0.068821338 0)
(0.10378752 -0.093292961 0)
(0.085307419 -0.11421259 0)
(0.063467267 -0.13072001 0)
(0.039116574 -0.14212732 0)
(0.013213851 -0.14795435 0)
(-0.013213975 -0.14795432 0)
(-0.039116663 -0.14212724 0)
(-0.063467301 -0.13071989 0)
(-0.085307389 -0.11421247 0)
(-0.10378744 -0.093292878 0)
(-0.11820104 -0.068821311 0)
(-0.1280109 -0.04178748 0)
(-0.13286602 -0.013265417 0)
(-0.13260542 0.015631563 0)
(-0.12726829 0.043794452 0)
(-0.11708959 0.070165043 0)
(-0.10247715 0.093772196 0)
(-0.083998209 0.11375862 0)
(-0.062358427 0.12940587 0)
(-0.038376332 0.14015611 0)
(-0.012954116 0.14562809 0)
(0.010650622 0.047400086 0)
(0.031556156 0.045680633 0)
(0.051288315 0.042293633 0)
(0.069109747 0.037342495 0)
(0.084348827 0.030981584 0)
(0.096423571 0.023414957 0)
(0.10486247 0.014893922 0)
(0.10932147 0.005713201 0)
(0.10960636 -0.0037951079 0)
(0.10567326 -0.013271943 0)
(0.097635436 -0.022338581 0)
(0.085776476 -0.030615942 0)
(0.070535567 -0.037744395 0)
(0.052495732 -0.04340335 0)
(0.032362217 -0.04733129 0)
(0.010933476 -0.049343167 0)
(-0.010933639 -0.049343124 0)
(-0.032362354 -0.04733117 0)
(-0.052495822 -0.043403169 0)
(-0.070535603 -0.03774418 0)
(-0.085776461 -0.030615718 0)
(-0.097635384 -0.02233837 0)
(-0.10567319 -0.013271756 0)
(-0.10960629 -0.0037949453 0)
(-0.10932141 0.0057133423 0)
(-0.10486243 0.014894048 0)
(-0.096423542 0.02341507 0)
(-0.084348806 0.030981683 0)
(-0.06910973 0.03734258 0)
(-0.051288299 0.042293698 0)
(-0.031556138 0.045680674 0)
(-0.010650601 0.047400101 0)
(0.015473087 0.13163971 0)
(0.045835385 0.12666449 0)
(0.074466664 0.11689321 0)
(0.10028239 0.10267907 0)
(0.12229984 0.084538054 0)
(0.13967458 0.063133079 0)
(0.15173278 0.039254516 0)
(0.15799857 0.013791174 0)
(0.15820702 -0.012287793 0)
(0.1523264 -0.037978013 0)
(0.14056241 -0.062276676 0)
(0.12334668 -0.084229129 0)
(0.10132868 -0.10296155 0)
(0.07535325 -0.11772106 0)
(0.046427595 -0.12790923 0)
(0.015681076 -0.1331099 0)
(-0.015680989 -0.13310989 0)
(-0.046427501 -0.12790922 0)
(-0.075353147 -0.11772106 0)
(-0.10132857 -0.10296156 0)
(-0.12334657 -0.084229153 0)
(-0.14056231 -0.062276726 0)
(-0.15232632 -0.037978092 0)
(-0.15820697 -0.012287892 0)
(-0.15799856 0.013791061 0)
(-0.15173281 0.039254403 0)
(-0.13967464 0.063132974 0)
(-0.12229993 0.084537961 0)
(-0.10028251 0.102679 0)
(-0.074466803 0.11689315 0)
(-0.045835536 0.12666446 0)
(-0.015473244 0.1316397 0)
(0.0097180912 -0.043476509 0)
(0.028793411 -0.041760142 0)
(0.046798573 -0.038399917 0)
(0.063059882 -0.033537258 0)
(0.076962402 -0.027375217 0)
(0.087974238 -0.020168898 0)
(0.095661911 -0.01221294 0)
(0.099714355 -0.003827839 0)
(0.099955337 0.0046580298 0)
(0.09634832 0.012914196 0)
(0.088998711 0.020632204 0)
(0.078169629 0.027527818 0)
(0.064266093 0.033353736 0)
(0.04782053 0.037906013 0)
(0.029475868 0.041028844 0)
(0.00995762 0.042616826 0)
(-0.0099577203 0.042616856 0)
(-0.02947597 0.041028947 0)
(-0.047820595 0.037906176 0)
(-0.064266129 0.033353943 0)
(-0.078169636 0.027528055 0)
(-0.088998696 0.020632457 0)
(-0.096348291 0.012914453 0)
(-0.0999553 0.0046582823 0)
(-0.099714316 -0.0038275997 0)
(-0.095661876 -0.012212716 0)
(-0.087974208 -0.020168694 0)
(-0.076962373 -0.02737504 0)
(-0.063059857 -0.033537113 0)
(-0.046798551 -0.038399808 0)
(-0.028793388 -0.041760074 0)
(-0.0097180672 -0.043476485 0)
(0.018545989 0.12173494 0)
(0.054936501 0.11710909 0)
(0.08924756 0.10802668 0)
(0.12017704 0.094824758 0)
(0.14654594 0.07799083 0)
(0.16734239 0.058144414 0)
(0.18175931 0.036042029 0)
(0.18922982 0.012480961 0)
(0.18943981 -0.011588341 0)
(0.18235803 -0.035278941 0)
(0.1682384 -0.057631589 0)
(0.14760264 -0.077802014 0)
(0.12123322 -0.094986138 0)
(0.090142648 -0.10850989 0)
(0.055534529 -0.11783859 0)
(0.018756065 -0.12259792 0)
(-0.018755937 -0.12259785 0)
(-0.055534392 -0.11783867 0)
(-0.090142524 -0.10850992 0)
(-0.12123311 -0.094986193 0)
(-0.14760255 -0.077802082 0)
(-0.16823832 -0.057631666 0)
(-0.18235798 -0.035279043 0)
(-0.18943978 -0.011588445 0)
(-0.18922983 0.012480843 0)
(-0.18175935 0.036041919 0)
(-0.16734245 0.058144311 0)
(-0.14654603 0.077990721 0)
(-0.12017716 0.094824691 0)
(-0.089247697 0.10802661 0)
(-0.054936654 0.11710905 0)
(-0.01854615 0.12173493 0)
(-0.00086544529 -0.13710478 0)
(-0.002552758 -0.13182646 0)
(-0.0041067761 -0.12147328 0)
(-0.0054510537 -0.10644799 0)
(-0.0065334714 -0.087331212 0)
(-0.0072938362 -0.064856845 0)
(-0.0077459035 -0.039908206 0)
(-0.0078498811 -0.013417269 0)
(-0.0076489191 0.013550767 0)
(-0.0071884264 0.040014734 0)
(-0.0064698478 0.064924607 0)
(-0.0055605916 0.08734577 0)
(-0.0044779417 0.10640533 0)
(-0.0032813907 0.12137679 0)
(-0.0020021784 0.13168913 0)
(-0.00067261433 0.13694567 0)
(0.00067207197 0.13694564 0)
(0.0020015561 0.13168932 0)
(0.0032809665 0.121377 0)
(0.0044775406 0.10640562 0)
(0.0055603045 0.087346104 0)
(0.0064696437 0.064924965 0)
(0.0071883235 0.040015117 0)
(0.0076489173 0.013551145 0)
(0.0078499718 -0.013416892 0)
(0.0077460904 -0.039907854 0)
(0.0072940735 -0.064856523 0)
(0.0065338068 -0.087330914 0)
(0.005451443 -0.10644777 0)
(0.0041071834 -0.1214731 0)
(0.0025532212 -0.13182634 0)
(0.00086592138 -0.13710474 0)
)
;

boundaryField
{
    leftWall
    {
        type            cyclic;
    }
    rightWall
    {
        type            cyclic;
    }
    lowerWall
    {
        type            slip;
    }
    atmosphere
    {
        type            slip;
    }
    defaultFaces
    {
        type            empty;
    }
}


// ************************************************************************* //
