/*--------------------------------*- C++ -*----------------------------------*\
| =========                 |                                                 |
| \\      /  F ield         | OpenFOAM: The Open Source CFD Toolbox           |
|  \\    /   O peration     | Version:  2106                                  |
|   \\  /    A nd           | Website:  www.openfoam.com                      |
|    \\/     M anipulation  |                                                 |
\*---------------------------------------------------------------------------*/
FoamFile
{
    version     2.0;
    format      ascii;
    arch        "LSB;label=32;scalar=64";
    class       volVectorField;
    location    "0.028";
    object      U;
}
// * * * * * * * * * * * * * * * * * * * * * * * * * * * * * * * * * * * * * //

dimensions      [0 1 -1 0 0 0 0];

internalField   nonuniform List<vector> 
16384
(
(-0.0020744091 0.0020725887 0)
(-0.0062184994 0.0020678644 0)
(-0.010348415 0.0020584244 0)
(-0.014454735 0.002044286 0)
(-0.018528082 0.0020254751 0)
(-0.022559139 0.0020020265 0)
(-0.026538666 0.0019739835 0)
(-0.030457521 0.0019413983 0)
(-0.034306672 0.0019043319 0)
(-0.038077221 0.0018628542 0)
(-0.041760416 0.0018170438 0)
(-0.045347673 0.0017669886 0)
(-0.048830592 0.0017127851 0)
(-0.052200975 0.001654539 0)
(-0.055450844 0.0015923651 0)
(-0.058572461 0.001526387 0)
(-0.061558343 0.0014567373 0)
(-0.064401281 0.0013835577 0)
(-0.067094359 0.0013069984 0)
(-0.069630971 0.0012272186 0)
(-0.072004836 0.0011443861 0)
(-0.074210019 0.001058677 0)
(-0.076240946 0.00097027567 0)
(-0.078092417 0.0008793744 0)
(-0.079759628 0.00078617325 0)
(-0.081238181 0.00069087964 0)
(-0.082524101 0.00059370802 0)
(-0.083613846 0.00049487948 0)
(-0.084504328 0.00039462129 0)
(-0.085192914 0.00029316608 0)
(-0.085677451 0.00019074994 0)
(-0.085956247 8.7619846e-05 0)
(-0.08602813 -1.5968562e-05 0)
(-0.085892416 -0.00011978615 0)
(-0.085548911 -0.00022356513 0)
(-0.084997944 -0.00032705206 0)
(-0.084240357 -0.00042998981 0)
(-0.083277505 -0.00053212017 0)
(-0.082111261 -0.00063318475 0)
(-0.080744017 -0.00073292575 0)
(-0.079178676 -0.00083108671 0)
(-0.077418657 -0.00092741325 0)
(-0.075467881 -0.0010216539 0)
(-0.073330773 -0.0011135608 0)
(-0.071012245 -0.0012028907 0)
(-0.068517696 -0.0012894053 0)
(-0.065852993 -0.0013728725 0)
(-0.063024461 -0.0014530671 0)
(-0.06003887 -0.0015297711 0)
(-0.056903417 -0.001602775 0)
(-0.05362571 -0.0016718785 0)
(-0.050213748 -0.0017368907 0)
(-0.046675902 -0.0017976314 0)
(-0.043020894 -0.0018539313 0)
(-0.03925777 -0.001905633 0)
(-0.035395883 -0.0019525912 0)
(-0.031444861 -0.0019946737 0)
(-0.027414585 -0.0020317615 0)
(-0.02331516 -0.0020637494 0)
(-0.019156888 -0.0020905466 0)
(-0.014950236 -0.0021120768 0)
(-0.010705813 -0.0021282785 0)
(-0.0064343326 -0.0021391054 0)
(-0.0021465865 -0.0021445266 0)
(0.0021465866 -0.0021445266 0)
(0.0064343326 -0.0021391054 0)
(0.010705813 -0.0021282785 0)
(0.014950236 -0.0021120768 0)
(0.019156888 -0.0020905466 0)
(0.02331516 -0.0020637494 0)
(0.027414585 -0.0020317615 0)
(0.031444861 -0.0019946737 0)
(0.035395883 -0.0019525912 0)
(0.03925777 -0.0019056329 0)
(0.043020894 -0.0018539313 0)
(0.046675902 -0.0017976314 0)
(0.050213748 -0.0017368907 0)
(0.05362571 -0.0016718785 0)
(0.056903417 -0.001602775 0)
(0.06003887 -0.0015297711 0)
(0.063024461 -0.0014530671 0)
(0.065852993 -0.0013728725 0)
(0.068517696 -0.0012894053 0)
(0.071012245 -0.0012028907 0)
(0.073330773 -0.0011135608 0)
(0.075467881 -0.0010216539 0)
(0.077418657 -0.00092741325 0)
(0.079178676 -0.00083108671 0)
(0.080744017 -0.00073292575 0)
(0.082111261 -0.00063318475 0)
(0.083277505 -0.00053212017 0)
(0.084240357 -0.00042998981 0)
(0.084997944 -0.00032705206 0)
(0.085548911 -0.00022356512 0)
(0.085892416 -0.00011978615 0)
(0.08602813 -1.596856e-05 0)
(0.085956247 8.7619848e-05 0)
(0.085677451 0.00019074994 0)
(0.085192914 0.00029316608 0)
(0.084504328 0.00039462129 0)
(0.083613846 0.00049487948 0)
(0.082524101 0.00059370802 0)
(0.081238181 0.00069087964 0)
(0.079759628 0.00078617325 0)
(0.078092417 0.0008793744 0)
(0.076240946 0.00097027567 0)
(0.074210019 0.001058677 0)
(0.072004836 0.0011443861 0)
(0.06963097 0.0012272186 0)
(0.067094359 0.0013069984 0)
(0.064401281 0.0013835577 0)
(0.061558343 0.0014567373 0)
(0.058572461 0.001526387 0)
(0.055450844 0.0015923651 0)
(0.052200975 0.001654539 0)
(0.048830592 0.0017127851 0)
(0.045347673 0.0017669886 0)
(0.041760416 0.0018170438 0)
(0.038077221 0.0018628542 0)
(0.034306672 0.0019043319 0)
(0.030457521 0.0019413983 0)
(0.026538666 0.0019739835 0)
(0.022559139 0.0020020265 0)
(0.018528082 0.0020254751 0)
(0.014454735 0.002044286 0)
(0.010348415 0.0020584244 0)
(0.0062184993 0.0020678644 0)
(0.002074409 0.0020725887 0)
(-0.0020788998 0.0062213105 0)
(-0.0062319628 0.0062071307 0)
(-0.010370825 0.0061787969 0)
(-0.014486048 0.0061363611 0)
(-0.018568237 0.0060799012 0)
(-0.022608056 0.006009521 0)
(-0.02659625 0.0059253509 0)
(-0.030523657 0.0058275472 0)
(-0.03438123 0.005716293 0)
(-0.038160051 0.0055917978 0)
(-0.041851351 0.0054542978 0)
(-0.045446529 0.0053040562 0)
(-0.048937166 0.005141363 0)
(-0.052315048 0.0049665353 0)
(-0.055572179 0.0047799171 0)
(-0.058700804 0.0045818795 0)
(-0.061693422 0.0043728206 0)
(-0.064542809 0.0041531652 0)
(-0.067242031 0.0039233644 0)
(-0.069784466 0.003683896 0)
(-0.072163818 0.0034352631 0)
(-0.074374137 0.0031779944 0)
(-0.076409832 0.0029126433 0)
(-0.078265692 0.0026397871 0)
(-0.079936898 0.002360026 0)
(-0.081419039 0.0020739826 0)
(-0.082708129 0.0017823007 0)
(-0.083800616 0.0014856438 0)
(-0.0846934 0.0011846942 0)
(-0.085383841 0.0008801509 0)
(-0.085869775 0.00057272768 0)
(-0.086149515 0.00026315651 0)
(-0.086221872 -4.7817451e-05 0)
(-0.086086152 -0.00035944686 0)
(-0.085742169 -0.00067097058 0)
(-0.085190249 -0.00098162004 0)
(-0.084431229 -0.0012906223 0)
(-0.083466468 -0.0015972019 0)
(-0.082297841 -0.0019005833 0)
(-0.080927742 -0.0021999923 0)
(-0.079359081 -0.0024946592 0)
(-0.077595279 -0.0027838202 0)
(-0.075640269 -0.0030667205 0)
(-0.073498481 -0.0033426159 0)
(-0.07117484 -0.0036107758 0)
(-0.068674754 -0.0038704854 0)
(-0.066004104 -0.0041210476 0)
(-0.063169229 -0.0043617859 0)
(-0.060176914 -0.0045920464 0)
(-0.057034371 -0.0048112001 0)
(-0.053749227 -0.0050186451 0)
(-0.0503295 -0.0052138088 0)
(-0.04678358 -0.0053961499 0)
(-0.043120208 -0.0055651603 0)
(-0.039348455 -0.0057203672 0)
(-0.035477694 -0.0058613346 0)
(-0.031517577 -0.0059876654 0)
(-0.02747801 -0.0060990023 0)
(-0.023369122 -0.0061950296 0)
(-0.019201239 -0.0062754745 0)
(-0.014984858 -0.0063401077 0)
(-0.010730611 -0.006388745 0)
(-0.006449238 -0.0064212473 0)
(-0.0021515595 -0.0064375218 0)
(0.0021515596 -0.0064375218 0)
(0.0064492381 -0.0064212473 0)
(0.010730611 -0.006388745 0)
(0.014984858 -0.0063401077 0)
(0.019201239 -0.0062754745 0)
(0.023369122 -0.0061950296 0)
(0.02747801 -0.0060990023 0)
(0.031517577 -0.0059876654 0)
(0.035477694 -0.0058613346 0)
(0.039348455 -0.0057203672 0)
(0.043120208 -0.0055651603 0)
(0.04678358 -0.0053961499 0)
(0.0503295 -0.0052138088 0)
(0.053749227 -0.0050186451 0)
(0.057034371 -0.0048112001 0)
(0.060176914 -0.0045920464 0)
(0.063169229 -0.0043617859 0)
(0.066004104 -0.0041210476 0)
(0.068674754 -0.0038704854 0)
(0.07117484 -0.0036107758 0)
(0.073498481 -0.0033426159 0)
(0.075640269 -0.0030667205 0)
(0.07759528 -0.0027838202 0)
(0.079359081 -0.0024946592 0)
(0.080927742 -0.0021999923 0)
(0.082297841 -0.0019005833 0)
(0.083466468 -0.0015972019 0)
(0.084431229 -0.0012906223 0)
(0.085190249 -0.00098162003 0)
(0.085742169 -0.00067097058 0)
(0.086086152 -0.00035944686 0)
(0.086221872 -4.7817446e-05 0)
(0.086149515 0.00026315651 0)
(0.085869775 0.00057272769 0)
(0.085383841 0.0008801509 0)
(0.0846934 0.0011846942 0)
(0.083800616 0.0014856438 0)
(0.082708129 0.0017823007 0)
(0.081419039 0.0020739826 0)
(0.079936898 0.002360026 0)
(0.078265692 0.0026397871 0)
(0.076409832 0.0029126434 0)
(0.074374137 0.0031779945 0)
(0.072163818 0.0034352631 0)
(0.069784466 0.003683896 0)
(0.067242031 0.0039233644 0)
(0.064542809 0.0041531652 0)
(0.061693422 0.0043728206 0)
(0.058700804 0.0045818795 0)
(0.055572179 0.0047799171 0)
(0.052315048 0.0049665353 0)
(0.048937166 0.005141363 0)
(0.045446529 0.0053040562 0)
(0.041851351 0.0054542978 0)
(0.038160051 0.0055917978 0)
(0.03438123 0.005716293 0)
(0.030523657 0.0058275472 0)
(0.02659625 0.0059253509 0)
(0.022608056 0.006009521 0)
(0.018568237 0.0060799012 0)
(0.014486048 0.0061363611 0)
(0.010370825 0.0061787969 0)
(0.0062319628 0.0062071307 0)
(0.0020788997 0.0062213105 0)
(-0.0020854893 0.010382206 0)
(-0.0062517183 0.010358547 0)
(-0.010403707 0.010311272 0)
(-0.014531992 0.010240467 0)
(-0.018627151 0.010146262 0)
(-0.022679823 0.010028831 0)
(-0.026680726 0.0098883902 0)
(-0.030620672 0.0097252005 0)
(-0.034490588 0.0095395668 0)
(-0.038281529 0.0093318384 0)
(-0.041984701 0.0091024091 0)
(-0.045591476 0.0088517174 0)
(-0.049093409 0.0085802469 0)
(-0.052482261 0.0082885261 0)
(-0.055750009 0.0079771288 0)
(-0.058888873 0.0076466736 0)
(-0.061891327 0.0072978243 0)
(-0.064750123 0.0069312892 0)
(-0.067458302 0.0065478211 0)
(-0.070009218 0.0061482165 0)
(-0.072396553 0.005733315 0)
(-0.074614334 0.0053039983 0)
(-0.07665695 0.0048611897 0)
(-0.078519169 0.0044058522 0)
(-0.080196153 0.0039389876 0)
(-0.081683473 0.0034616346 0)
(-0.082977126 0.0029748673 0)
(-0.084073545 0.0024797932 0)
(-0.084969617 0.0019775506 0)
(-0.085662689 0.0014693067 0)
(-0.086150585 0.00095625463 0)
(-0.086431613 0.0004396135 0)
(-0.086504572 -7.9376856e-05 0)
(-0.086368764 -0.00059946371 0)
(-0.086024 -0.0011193768 0)
(-0.085470603 -0.0016378339 0)
(-0.084709413 -0.0021535453 0)
(-0.083741787 -0.0026652167 0)
(-0.082569607 -0.0031715533 0)
(-0.08119527 -0.0036712631 0)
(-0.079621696 -0.004163061 0)
(-0.077852316 -0.0046456722 0)
(-0.075891072 -0.0051178365 0)
(-0.073742409 -0.0055783119 0)
(-0.071411267 -0.0060258789 0)
(-0.068903071 -0.0064593438 0)
(-0.066223721 -0.0068775434 0)
(-0.063379577 -0.0072793481 0)
(-0.060377444 -0.0076636664 0)
(-0.057224562 -0.0080294482 0)
(-0.05392858 -0.0083756887 0)
(-0.050497544 -0.0087014321 0)
(-0.046939873 -0.0090057744 0)
(-0.043264338 -0.0092878676 0)
(-0.039480041 -0.0095469224 0)
(-0.035596387 -0.0097822108 0)
(-0.031623062 -0.0099930697 0)
(-0.027570006 -0.010178903 0)
(-0.023447384 -0.010339183 0)
(-0.01926556 -0.010473454 0)
(-0.015035064 -0.010581334 0)
(-0.010766568 -0.010662516 0)
(-0.0064708513 -0.010716766 0)
(-0.0021587704 -0.01074393 0)
(0.0021587704 -0.01074393 0)
(0.0064708514 -0.010716766 0)
(0.010766568 -0.010662516 0)
(0.015035064 -0.010581334 0)
(0.01926556 -0.010473454 0)
(0.023447384 -0.010339183 0)
(0.027570006 -0.010178903 0)
(0.031623062 -0.0099930697 0)
(0.035596387 -0.0097822108 0)
(0.039480041 -0.0095469224 0)
(0.043264338 -0.0092878676 0)
(0.046939873 -0.0090057744 0)
(0.050497544 -0.008701432 0)
(0.05392858 -0.0083756887 0)
(0.057224562 -0.0080294482 0)
(0.060377445 -0.0076636664 0)
(0.063379577 -0.0072793481 0)
(0.066223721 -0.0068775434 0)
(0.068903072 -0.0064593438 0)
(0.071411267 -0.0060258789 0)
(0.073742409 -0.0055783119 0)
(0.075891072 -0.0051178365 0)
(0.077852316 -0.0046456722 0)
(0.079621696 -0.004163061 0)
(0.08119527 -0.0036712631 0)
(0.082569607 -0.0031715533 0)
(0.083741787 -0.0026652167 0)
(0.084709413 -0.0021535453 0)
(0.085470603 -0.0016378339 0)
(0.086024 -0.0011193768 0)
(0.086368764 -0.0005994637 0)
(0.086504572 -7.9376847e-05 0)
(0.086431613 0.0004396135 0)
(0.086150585 0.00095625464 0)
(0.085662689 0.0014693067 0)
(0.084969617 0.0019775506 0)
(0.084073545 0.0024797932 0)
(0.082977126 0.0029748673 0)
(0.081683473 0.0034616346 0)
(0.080196153 0.0039389876 0)
(0.078519169 0.0044058522 0)
(0.07665695 0.0048611897 0)
(0.074614334 0.0053039983 0)
(0.072396553 0.005733315 0)
(0.070009218 0.0061482165 0)
(0.067458301 0.0065478211 0)
(0.064750123 0.0069312892 0)
(0.061891327 0.0072978243 0)
(0.058888873 0.0076466736 0)
(0.055750009 0.0079771288 0)
(0.052482261 0.0082885261 0)
(0.049093409 0.0085802469 0)
(0.045591476 0.0088517174 0)
(0.041984701 0.0091024091 0)
(0.038281529 0.0093318384 0)
(0.034490588 0.0095395668 0)
(0.030620672 0.0097252005 0)
(0.026680726 0.0098883902 0)
(0.022679823 0.010028831 0)
(0.018627151 0.010146262 0)
(0.014531992 0.010240467 0)
(0.010403707 0.010311272 0)
(0.0062517182 0.010358547 0)
(0.0020854892 0.010382206 0)
(-0.0020941833 0.014558463 0)
(-0.0062777828 0.014525294 0)
(-0.01044709 0.014459016 0)
(-0.014592607 0.014359751 0)
(-0.018704876 0.014227679 0)
(-0.022774503 0.014063044 0)
(-0.026792169 0.013866148 0)
(-0.030748653 0.013637358 0)
(-0.034634846 0.0133771 0)
(-0.038441768 0.013085863 0)
(-0.042160592 0.012764198 0)
(-0.045782653 0.012412719 0)
(-0.049299474 0.012032104 0)
(-0.052702778 0.011623093 0)
(-0.055984512 0.011186489 0)
(-0.05913686 0.01072316 0)
(-0.062152264 0.010234034 0)
(-0.06502344 0.0097201051 0)
(-0.067743402 0.0091824275 0)
(-0.07030547 0.0086221176 0)
(-0.072703296 0.0080403519 0)
(-0.074930879 0.0074383666 0)
(-0.07698258 0.0068174558 0)
(-0.078853139 0.0061789695 0)
(-0.080537694 0.0055243122 0)
(-0.082031792 0.0048549405 0)
(-0.08333141 0.0041723604 0)
(-0.08443296 0.0034781247 0)
(-0.085333311 0.00277383 0)
(-0.086029794 0.0020611133 0)
(-0.08652022 0.0013416485 0)
(-0.086802886 0.00061714406 0)
(-0.086876581 -0.00011066301 0)
(-0.086740602 -0.00084001273 0)
(-0.086394753 -0.0015691235 0)
(-0.085839357 -0.0022961974 0)
(-0.085075254 -0.0030194255 0)
(-0.084103805 -0.0037369926 0)
(-0.082926896 -0.0044470824 0)
(-0.081546935 -0.005147883 0)
(-0.079966851 -0.0058375914 0)
(-0.078190087 -0.0065144199 0)
(-0.076220603 -0.0071766007 0)
(-0.074062861 -0.0078223917 0)
(-0.071721821 -0.0084500823 0)
(-0.069202932 -0.0090579981 0)
(-0.066512118 -0.0096445075 0)
(-0.063655765 -0.010208026 0)
(-0.060640711 -0.010747023 0)
(-0.057474225 -0.011260024 0)
(-0.05416399 -0.011745621 0)
(-0.050718088 -0.012202473 0)
(-0.047144975 -0.012629312 0)
(-0.043453462 -0.013024947 0)
(-0.03965269 -0.013388272 0)
(-0.035752108 -0.013718266 0)
(-0.031761445 -0.014013997 0)
(-0.027690687 -0.01427463 0)
(-0.023550044 -0.014499426 0)
(-0.019349927 -0.014687744 0)
(-0.015100916 -0.014839048 0)
(-0.01081373 -0.014952906 0)
(-0.0064991986 -0.015028993 0)
(-0.0021682278 -0.015067092 0)
(0.0021682279 -0.015067092 0)
(0.0064991987 -0.015028993 0)
(0.01081373 -0.014952906 0)
(0.015100916 -0.014839048 0)
(0.019349927 -0.014687744 0)
(0.023550044 -0.014499426 0)
(0.027690687 -0.01427463 0)
(0.031761445 -0.014013997 0)
(0.035752108 -0.013718266 0)
(0.03965269 -0.013388272 0)
(0.043453462 -0.013024947 0)
(0.047144975 -0.012629312 0)
(0.050718088 -0.012202473 0)
(0.05416399 -0.011745621 0)
(0.057474225 -0.011260024 0)
(0.060640711 -0.010747023 0)
(0.063655765 -0.010208026 0)
(0.066512118 -0.0096445075 0)
(0.069202932 -0.0090579981 0)
(0.071721821 -0.0084500822 0)
(0.074062861 -0.0078223917 0)
(0.076220603 -0.0071766007 0)
(0.078190087 -0.0065144199 0)
(0.079966851 -0.0058375914 0)
(0.081546935 -0.0051478829 0)
(0.082926896 -0.0044470824 0)
(0.084103805 -0.0037369926 0)
(0.085075254 -0.0030194255 0)
(0.085839357 -0.0022961974 0)
(0.086394753 -0.0015691235 0)
(0.086740602 -0.00084001271 0)
(0.086876581 -0.00011066299 0)
(0.086802886 0.00061714408 0)
(0.08652022 0.0013416485 0)
(0.086029794 0.0020611133 0)
(0.08533331 0.00277383 0)
(0.08443296 0.0034781247 0)
(0.08333141 0.0041723604 0)
(0.082031792 0.0048549405 0)
(0.080537693 0.0055243122 0)
(0.078853139 0.0061789695 0)
(0.07698258 0.0068174558 0)
(0.074930879 0.0074383666 0)
(0.072703296 0.0080403519 0)
(0.07030547 0.0086221176 0)
(0.067743402 0.0091824276 0)
(0.06502344 0.0097201051 0)
(0.062152263 0.010234034 0)
(0.05913686 0.01072316 0)
(0.055984512 0.011186489 0)
(0.052702778 0.011623093 0)
(0.049299474 0.012032104 0)
(0.045782653 0.012412719 0)
(0.042160592 0.012764198 0)
(0.038441768 0.013085863 0)
(0.034634845 0.0133771 0)
(0.030748653 0.013637358 0)
(0.026792169 0.013866148 0)
(0.022774503 0.014063044 0)
(0.018704876 0.014227679 0)
(0.014592607 0.014359751 0)
(0.01044709 0.014459016 0)
(0.0062777828 0.014525294 0)
(0.0020941832 0.014558463 0)
(-0.0021050238 0.018754163 0)
(-0.0063102827 0.018711445 0)
(-0.010501185 0.018626087 0)
(-0.014668187 0.018498244 0)
(-0.01880179 0.01832815 0)
(-0.022892555 0.018116116 0)
(-0.026931121 0.017862533 0)
(-0.030908223 0.017567869 0)
(-0.034814706 0.017232675 0)
(-0.038641551 0.016857578 0)
(-0.042379882 0.016443288 0)
(-0.046020996 0.015990594 0)
(-0.049556368 0.015500367 0)
(-0.052977682 0.01497356 0)
(-0.05627684 0.014411207 0)
(-0.059445984 0.013814422 0)
(-0.062477514 0.013184402 0)
(-0.065364109 0.012522426 0)
(-0.068098737 0.011829849 0)
(-0.070674685 0.011108111 0)
(-0.073085564 0.010358724 0)
(-0.075325337 0.0095832821 0)
(-0.077388331 0.0087834503 0)
(-0.079269254 0.0079609678 0)
(-0.080963211 0.0071176435 0)
(-0.082465722 0.0062553535 0)
(-0.083772734 0.0053760379 0)
(-0.084880638 0.0044816972 0)
(-0.085786279 0.0035743883 0)
(-0.086486971 0.0026562204 0)
(-0.086980506 0.0017293506 0)
(-0.087265166 0.0007959791 0)
(-0.087339733 -0.00014165634 0)
(-0.087203494 -0.0010812868 0)
(-0.086856249 -0.0020206163 0)
(-0.086298318 -0.0029573285 0)
(-0.085530542 -0.0038890924 0)
(-0.084554289 -0.0048135689 0)
(-0.083371452 -0.0057284178 0)
(-0.081984448 -0.006631304 0)
(-0.080396219 -0.0075199044 0)
(-0.078610229 -0.0083919152 0)
(-0.076630454 -0.0092450585 0)
(-0.074461381 -0.01007709 0)
(-0.072107995 -0.010885804 0)
(-0.069575774 -0.011669044 0)
(-0.066870673 -0.012424707 0)
(-0.063999113 -0.013150751 0)
(-0.060967968 -0.013845204 0)
(-0.057784547 -0.014506167 0)
(-0.054456574 -0.015131823 0)
(-0.050992176 -0.015720445 0)
(-0.047399855 -0.016270399 0)
(-0.043688471 -0.016780151 0)
(-0.039867215 -0.017248275 0)
(-0.035945589 -0.017673454 0)
(-0.031933377 -0.01805449 0)
(-0.027840618 -0.018390303 0)
(-0.023677582 -0.018679942 0)
(-0.019454737 -0.018922582 0)
(-0.015182722 -0.019117531 0)
(-0.010872318 -0.019264233 0)
(-0.0065344127 -0.019362268 0)
(-0.0021799762 -0.019411356 0)
(0.0021799762 -0.019411356 0)
(0.0065344128 -0.019362268 0)
(0.010872318 -0.019264233 0)
(0.015182722 -0.019117531 0)
(0.019454737 -0.018922582 0)
(0.023677582 -0.018679942 0)
(0.027840618 -0.018390303 0)
(0.031933377 -0.01805449 0)
(0.035945589 -0.017673454 0)
(0.039867215 -0.017248275 0)
(0.043688471 -0.016780151 0)
(0.047399855 -0.016270399 0)
(0.050992176 -0.015720445 0)
(0.054456574 -0.015131823 0)
(0.057784547 -0.014506167 0)
(0.060967968 -0.013845204 0)
(0.063999113 -0.013150751 0)
(0.066870673 -0.012424707 0)
(0.069575774 -0.011669044 0)
(0.072107995 -0.010885804 0)
(0.074461381 -0.01007709 0)
(0.076630454 -0.0092450585 0)
(0.078610229 -0.0083919152 0)
(0.080396219 -0.0075199044 0)
(0.081984448 -0.0066313039 0)
(0.083371452 -0.0057284178 0)
(0.084554289 -0.0048135689 0)
(0.085530542 -0.0038890923 0)
(0.086298318 -0.0029573285 0)
(0.086856249 -0.0020206163 0)
(0.087203494 -0.0010812867 0)
(0.087339733 -0.00014165632 0)
(0.087265166 0.00079597912 0)
(0.086980506 0.0017293506 0)
(0.086486971 0.0026562204 0)
(0.085786279 0.0035743883 0)
(0.084880638 0.0044816972 0)
(0.083772734 0.0053760379 0)
(0.082465722 0.0062553535 0)
(0.080963211 0.0071176435 0)
(0.079269254 0.0079609678 0)
(0.077388331 0.0087834503 0)
(0.075325337 0.0095832821 0)
(0.073085564 0.010358724 0)
(0.070674685 0.011108111 0)
(0.068098737 0.011829849 0)
(0.065364108 0.012522426 0)
(0.062477514 0.013184402 0)
(0.059445983 0.013814422 0)
(0.056276839 0.014411207 0)
(0.052977682 0.01497356 0)
(0.049556368 0.015500367 0)
(0.046020995 0.015990594 0)
(0.042379882 0.016443288 0)
(0.038641551 0.016857578 0)
(0.034814706 0.017232675 0)
(0.030908223 0.017567869 0)
(0.026931121 0.017862533 0)
(0.022892555 0.018116116 0)
(0.01880179 0.01832815 0)
(0.014668187 0.018498244 0)
(0.010501185 0.018626087 0)
(0.0063102826 0.018711445 0)
(0.0021050237 0.018754163 0)
(-0.0021180896 0.022973696 0)
(-0.0063494541 0.022921382 0)
(-0.010566383 0.022816848 0)
(-0.014759281 0.022660284 0)
(-0.018918597 0.022451976 0)
(-0.023034839 0.022192304 0)
(-0.027098593 0.021881746 0)
(-0.031100542 0.021520875 0)
(-0.035031478 0.021110361 0)
(-0.03888233 0.020650974 0)
(-0.042644169 0.020143579 0)
(-0.046308239 0.019589143 0)
(-0.049865964 0.018988731 0)
(-0.053308974 0.018343507 0)
(-0.056629122 0.017654736 0)
(-0.059818497 0.016923782 0)
(-0.062869451 0.016152109 0)
(-0.065774611 0.015341281 0)
(-0.068526899 0.014492959 0)
(-0.071119554 0.013608903 0)
(-0.073546142 0.012690966 0)
(-0.075800582 0.011741098 0)
(-0.07787716 0.01076134 0)
(-0.079770542 0.00975382 0)
(-0.081475799 0.0087207547 0)
(-0.082988414 0.0076644419 0)
(-0.084304302 0.0065872582 0)
(-0.085419826 0.0054916543 0)
(-0.086331803 0.0043801506 0)
(-0.087037524 0.0032553313 0)
(-0.087534763 0.0021198395 0)
(-0.087821786 0.00097637076 0)
(-0.087897361 -0.00017233303 0)
(-0.087760765 -0.001323491 0)
(-0.087411795 -0.0024742898 0)
(-0.086850768 -0.0036218907 0)
(-0.086078529 -0.0047634372 0)
(-0.085096449 -0.0058960632 0)
(-0.083906432 -0.0070169008 0)
(-0.082510909 -0.0081230886 0)
(-0.080912839 -0.00921178 0)
(-0.079115706 -0.010280152 0)
(-0.077123511 -0.011325412 0)
(-0.074940769 -0.012344811 0)
(-0.072572496 -0.013335647 0)
(-0.070024205 -0.014295276 0)
(-0.067301889 -0.015221121 0)
(-0.064412011 -0.01611068 0)
(-0.061361489 -0.016961536 0)
(-0.058157679 -0.017771363 0)
(-0.054808357 -0.018537934 0)
(-0.051321702 -0.019259133 0)
(-0.047706272 -0.019932955 0)
(-0.043970984 -0.020557524 0)
(-0.040125092 -0.021131089 0)
(-0.03617816 -0.021652038 0)
(-0.032140037 -0.022118901 0)
(-0.028020828 -0.022530357 0)
(-0.023830872 -0.022885237 0)
(-0.019580706 -0.023182533 0)
(-0.015281041 -0.023421396 0)
(-0.01094273 -0.023601144 0)
(-0.0065767341 -0.023721263 0)
(-0.0021940956 -0.023781408 0)
(0.0021940957 -0.023781408 0)
(0.0065767341 -0.023721263 0)
(0.01094273 -0.023601144 0)
(0.015281042 -0.023421396 0)
(0.019580706 -0.023182533 0)
(0.023830872 -0.022885237 0)
(0.028020828 -0.022530357 0)
(0.032140037 -0.022118901 0)
(0.03617816 -0.021652038 0)
(0.040125093 -0.021131089 0)
(0.043970984 -0.020557524 0)
(0.047706272 -0.019932955 0)
(0.051321702 -0.019259133 0)
(0.054808357 -0.018537934 0)
(0.058157679 -0.017771363 0)
(0.06136149 -0.016961536 0)
(0.064412011 -0.01611068 0)
(0.067301889 -0.015221121 0)
(0.070024205 -0.014295276 0)
(0.072572496 -0.013335647 0)
(0.074940769 -0.012344811 0)
(0.077123511 -0.011325412 0)
(0.079115706 -0.010280152 0)
(0.080912839 -0.00921178 0)
(0.082510909 -0.0081230886 0)
(0.083906432 -0.0070169008 0)
(0.085096449 -0.0058960632 0)
(0.086078529 -0.0047634372 0)
(0.086850768 -0.0036218906 0)
(0.087411795 -0.0024742898 0)
(0.087760765 -0.001323491 0)
(0.087897361 -0.00017233301 0)
(0.087821786 0.00097637078 0)
(0.087534763 0.0021198395 0)
(0.087037524 0.0032553313 0)
(0.086331803 0.0043801506 0)
(0.085419826 0.0054916544 0)
(0.084304302 0.0065872582 0)
(0.082988414 0.0076644419 0)
(0.081475799 0.0087207547 0)
(0.079770542 0.00975382 0)
(0.077877159 0.01076134 0)
(0.075800582 0.011741098 0)
(0.073546142 0.012690966 0)
(0.071119553 0.013608903 0)
(0.068526899 0.014492959 0)
(0.065774611 0.015341281 0)
(0.062869451 0.016152109 0)
(0.059818497 0.016923782 0)
(0.056629122 0.017654736 0)
(0.053308974 0.018343507 0)
(0.049865964 0.018988731 0)
(0.046308239 0.019589143 0)
(0.042644169 0.020143579 0)
(0.03888233 0.020650974 0)
(0.035031478 0.021110361 0)
(0.031100541 0.021520875 0)
(0.027098593 0.021881746 0)
(0.023034839 0.022192304 0)
(0.018918597 0.022451976 0)
(0.014759281 0.022660284 0)
(0.010566383 0.022816848 0)
(0.006349454 0.022921382 0)
(0.0021180895 0.022973696 0)
(-0.0021334967 0.027221622 0)
(-0.0063956444 0.027159654 0)
(-0.010643264 0.02703583 0)
(-0.014866698 0.026850375 0)
(-0.019056333 0.026603625 0)
(-0.023202616 0.02629603 0)
(-0.027296071 0.025928155 0)
(-0.031327316 0.025500676 0)
(-0.035287086 0.025014386 0)
(-0.039166242 0.024470194 0)
(-0.042955798 0.023869123 0)
(-0.046646931 0.023212317 0)
(-0.050231008 0.022501034 0)
(-0.053699595 0.021736651 0)
(-0.057044483 0.020920665 0)
(-0.060257704 0.02005469 0)
(-0.063331548 0.019140458 0)
(-0.066258584 0.018179819 0)
(-0.069031679 0.01717474 0)
(-0.071644014 0.016127305 0)
(-0.074089104 0.015039708 0)
(-0.076360815 0.013914258 0)
(-0.078453382 0.012753372 0)
(-0.080361428 0.011559573 0)
(-0.082079976 0.010335485 0)
(-0.08360447 0.0090838308 0)
(-0.084930788 0.0078074275 0)
(-0.086055257 0.0065091792 0)
(-0.086974664 0.0051920726 0)
(-0.087686275 0.0038591707 0)
(-0.088187838 0.0025136063 0)
(-0.088477601 0.0011585744 0)
(-0.088554319 -0.00020267522 0)
(-0.088417258 -0.0015668459 0)
(-0.08806621 -0.0029306025 0)
(-0.08750149 -0.0042905802 0)
(-0.086723945 -0.0056433929 0)
(-0.085734956 -0.0069856432 0)
(-0.084536436 -0.0083139316 0)
(-0.083130834 -0.0096248663 0)
(-0.081521131 -0.010915073 0)
(-0.079710834 -0.012181205 0)
(-0.077703973 -0.013419954 0)
(-0.075505098 -0.014628059 0)
(-0.073119262 -0.015802319 0)
(-0.070552019 -0.016939599 0)
(-0.067809406 -0.018036845 0)
(-0.064897938 -0.019091092 0)
(-0.061824583 -0.020099475 0)
(-0.058596753 -0.021059235 0)
(-0.055222286 -0.021967734 0)
(-0.05170942 -0.022822462 0)
(-0.048066782 -0.023621045 0)
(-0.044303356 -0.024361257 0)
(-0.040428467 -0.025041023 0)
(-0.036451754 -0.025658433 0)
(-0.032383139 -0.026211743 0)
(-0.02823281 -0.026699388 0)
(-0.024011183 -0.027119982 0)
(-0.019728877 -0.027472329 0)
(-0.015396688 -0.027755423 0)
(-0.01102555 -0.027968456 0)
(-0.0066265126 -0.028110818 0)
(-0.0022107029 -0.028182101 0)
(0.002210703 -0.028182101 0)
(0.0066265127 -0.028110818 0)
(0.01102555 -0.027968456 0)
(0.015396688 -0.027755423 0)
(0.019728877 -0.027472329 0)
(0.024011183 -0.027119982 0)
(0.02823281 -0.026699388 0)
(0.03238314 -0.026211743 0)
(0.036451754 -0.025658433 0)
(0.040428467 -0.025041023 0)
(0.044303356 -0.024361257 0)
(0.048066782 -0.023621045 0)
(0.05170942 -0.022822462 0)
(0.055222286 -0.021967734 0)
(0.058596753 -0.021059235 0)
(0.061824583 -0.020099475 0)
(0.064897938 -0.019091092 0)
(0.067809407 -0.018036845 0)
(0.070552019 -0.016939599 0)
(0.073119262 -0.015802319 0)
(0.075505098 -0.014628059 0)
(0.077703974 -0.013419954 0)
(0.079710834 -0.012181205 0)
(0.081521131 -0.010915073 0)
(0.083130834 -0.0096248662 0)
(0.084536436 -0.0083139316 0)
(0.085734956 -0.0069856432 0)
(0.086723945 -0.0056433929 0)
(0.08750149 -0.0042905801 0)
(0.08806621 -0.0029306025 0)
(0.088417258 -0.0015668459 0)
(0.088554319 -0.00020267519 0)
(0.088477601 0.0011585744 0)
(0.088187838 0.0025136063 0)
(0.087686275 0.0038591707 0)
(0.086974664 0.0051920726 0)
(0.086055257 0.0065091792 0)
(0.084930788 0.0078074276 0)
(0.08360447 0.0090838308 0)
(0.082079976 0.010335485 0)
(0.080361427 0.011559573 0)
(0.078453382 0.012753372 0)
(0.076360815 0.013914258 0)
(0.074089104 0.015039708 0)
(0.071644014 0.016127305 0)
(0.069031679 0.01717474 0)
(0.066258584 0.018179819 0)
(0.063331548 0.019140458 0)
(0.060257704 0.02005469 0)
(0.057044483 0.020920665 0)
(0.053699595 0.021736651 0)
(0.050231008 0.022501034 0)
(0.046646931 0.023212317 0)
(0.042955797 0.023869123 0)
(0.039166242 0.024470194 0)
(0.035287086 0.025014386 0)
(0.031327316 0.025500676 0)
(0.02729607 0.025928155 0)
(0.023202616 0.02629603 0)
(0.019056333 0.026603625 0)
(0.014866698 0.026850375 0)
(0.010643264 0.02703583 0)
(0.0063956443 0.027159654 0)
(0.0021334966 0.027221622 0)
(-0.0021513992 0.031502755 0)
(-0.0064493159 0.031431067 0)
(-0.010732596 0.03128782 0)
(-0.014991512 0.031073272 0)
(-0.019216377 0.030787813 0)
(-0.023397565 0.030431962 0)
(-0.027525529 0.030006368 0)
(-0.031590815 0.029511813 0)
(-0.035584085 0.028949212 0)
(-0.039496127 0.028319612 0)
(-0.043317883 0.027624197 0)
(-0.04704046 0.026864284 0)
(-0.050655149 0.026041327 0)
(-0.054153447 0.025156917 0)
(-0.057527073 0.024212782 0)
(-0.060767989 0.023210787 0)
(-0.063868417 0.022152933 0)
(-0.066820858 0.021041359 0)
(-0.06961811 0.019878339 0)
(-0.072253293 0.01866628 0)
(-0.074719856 0.017407723 0)
(-0.077011608 0.016105336 0)
(-0.079122725 0.014761916 0)
(-0.081047775 0.013380381 0)
(-0.082781732 0.011963768 0)
(-0.084319991 0.010515229 0)
(-0.085658387 0.0090380234 0)
(-0.086793206 0.0075355128 0)
(-0.087721201 0.0060111546 0)
(-0.088439606 0.0044684949 0)
(-0.088946145 0.0029111604 0)
(-0.089239042 0.00134285 0)
(-0.089317037 -0.00023267351 0)
(-0.089179386 -0.0018115934 0)
(-0.088825872 -0.003390048 0)
(-0.088256811 -0.0049641414 0)
(-0.087473054 -0.0065299534 0)
(-0.086475991 -0.0080835502 0)
(-0.08526755 -0.009620996 0)
(-0.0838502 -0.011138364 0)
(-0.082226944 -0.012631747 0)
(-0.080401322 -0.014097272 0)
(-0.078377398 -0.015531107 0)
(-0.076159759 -0.016929479 0)
(-0.073753504 -0.018288679 0)
(-0.071164234 -0.01960508 0)
(-0.068398041 -0.020875148 0)
(-0.065461495 -0.022095447 0)
(-0.062361626 -0.023262661 0)
(-0.059105911 -0.024373598 0)
(-0.055702257 -0.025425203 0)
(-0.052158976 -0.02641457 0)
(-0.048484769 -0.02733895 0)
(-0.044688701 -0.028195767 0)
(-0.040780179 -0.028982618 0)
(-0.036768926 -0.02969729 0)
(-0.032664956 -0.030337768 0)
(-0.028478542 -0.030902236 0)
(-0.024220196 -0.031389091 0)
(-0.019900631 -0.031796948 0)
(-0.015530737 -0.032124642 0)
(-0.011121549 -0.032371238 0)
(-0.0066842114 -0.032536028 0)
(-0.0022299524 -0.032618542 0)
(0.0022299525 -0.032618542 0)
(0.0066842115 -0.032536028 0)
(0.011121549 -0.032371238 0)
(0.015530737 -0.032124642 0)
(0.019900631 -0.031796948 0)
(0.024220196 -0.031389091 0)
(0.028478542 -0.030902236 0)
(0.032664956 -0.030337768 0)
(0.036768927 -0.02969729 0)
(0.040780179 -0.028982618 0)
(0.044688701 -0.028195767 0)
(0.048484769 -0.02733895 0)
(0.052158976 -0.02641457 0)
(0.055702257 -0.025425203 0)
(0.059105911 -0.024373598 0)
(0.062361626 -0.023262661 0)
(0.065461495 -0.022095447 0)
(0.068398041 -0.020875148 0)
(0.071164234 -0.01960508 0)
(0.073753504 -0.018288679 0)
(0.076159759 -0.016929478 0)
(0.078377398 -0.015531107 0)
(0.080401322 -0.014097272 0)
(0.082226944 -0.012631747 0)
(0.0838502 -0.011138364 0)