/*--------------------------------*- C++ -*----------------------------------*\
| =========                 |                                                 |
| \\      /  F ield         | OpenFOAM: The Open Source CFD Toolbox           |
|  \\    /   O peration     | Version:  2106                                  |
|   \\  /    A nd           | Website:  www.openfoam.com                      |
|    \\/     M anipulation  |                                                 |
\*---------------------------------------------------------------------------*/
FoamFile
{
    version     2.0;
    format      ascii;
    arch        "LSB;label=32;scalar=64";
    class       volVectorField;
    location    "0.028";
    object      U_0;
}
// * * * * * * * * * * * * * * * * * * * * * * * * * * * * * * * * * * * * * //

dimensions      [0 1 -1 0 0 0 0];

internalField   nonuniform List<vector> 
16384
(
(-0.0020755101 0.0020736887 0)
(-0.0062218 0.0020689617 0)
(-0.010353907 0.0020595165 0)
(-0.014462406 0.0020453702 0)
(-0.018537913 0.0020265489 0)
(-0.022571107 0.0020030873 0)
(-0.026552743 0.0019750288 0)
(-0.030473672 0.0019424256 0)
(-0.03432486 0.0019053388 0)
(-0.038097401 0.0018638382 0)
(-0.041782541 0.0018180026 0)
(-0.04537169 0.0017679198 0)
(-0.048856444 0.0017136866 0)
(-0.052228599 0.0016554086 0)
(-0.055480176 0.0015932007 0)
(-0.058603429 0.0015271866 0)
(-0.061590874 0.001457499 0)
(-0.064435297 0.0013842795 0)
(-0.067129779 0.0013076788 0)
(-0.06966771 0.0012278559 0)
(-0.072042806 0.0011449787 0)
(-0.07424913 0.0010592234 0)
(-0.076281102 0.00097077462 0)
(-0.078133524 0.00087982466 0)
(-0.079801587 0.00078657372 0)
(-0.081280891 0.00069122934 0)
(-0.082567458 0.00059400609 0)
(-0.083657749 0.00049512517 0)
(-0.084548669 0.00039481398 0)
(-0.085237587 0.00029330528 0)
(-0.08572235 0.00019083528 0)
(-0.086001262 8.7651108e-05 0)
(-0.086073153 -1.5991487e-05 0)
(-0.085937339 -0.00011986325 0)
(-0.085593626 -0.00022369623 0)
(-0.085042343 -0.00032723689 0)
(-0.084284332 -0.00043022795 0)
(-0.08332095 -0.00053241107 0)
(-0.082154072 -0.00063352774 0)
(-0.08078609 -0.00073332003 0)
(-0.07921991 -0.00083153135 0)
(-0.077458951 -0.0009279072 0)
(-0.075507138 -0.001022196 0)
(-0.073368897 -0.0011141498 0)
(-0.071049145 -0.0012035251 0)
(-0.068553282 -0.0012900836 0)
(-0.065887178 -0.0013735932 0)
(-0.063057163 -0.0014538283 0)
(-0.060070009 -0.001530571 0)
(-0.056932918 -0.0016036118 0)
(-0.0536535 -0.0016727501 0)
(-0.050239761 -0.001737795 0)
(-0.046700074 -0.0017985662 0)
(-0.043043165 -0.0018548943 0)
(-0.039278088 -0.0019066219 0)
(-0.035414197 -0.0019536037 0)
(-0.031461127 -0.0019957072 0)
(-0.027428763 -0.0020328135 0)
(-0.023327216 -0.0020648175 0)
(-0.019166792 -0.002091628 0)
(-0.014957965 -0.0021131689 0)
(-0.010711347 -0.0021293787 0)
(-0.0064376583 -0.002140211 0)
(-0.002147696 -0.0021456349 0)
(0.002147696 -0.0021456349 0)
(0.0064376584 -0.002140211 0)
(0.010711347 -0.0021293787 0)
(0.014957965 -0.0021131689 0)
(0.019166792 -0.002091628 0)
(0.023327216 -0.0020648175 0)
(0.027428763 -0.0020328135 0)
(0.031461127 -0.0019957072 0)
(0.035414197 -0.0019536037 0)
(0.039278088 -0.0019066219 0)
(0.043043165 -0.0018548943 0)
(0.046700074 -0.0017985662 0)
(0.050239761 -0.001737795 0)
(0.0536535 -0.0016727501 0)
(0.056932918 -0.0016036118 0)
(0.060070009 -0.001530571 0)
(0.063057163 -0.0014538283 0)
(0.065887178 -0.0013735932 0)
(0.068553282 -0.0012900836 0)
(0.071049145 -0.0012035251 0)
(0.073368897 -0.0011141498 0)
(0.075507138 -0.001022196 0)
(0.077458951 -0.0009279072 0)
(0.07921991 -0.00083153135 0)
(0.08078609 -0.00073332003 0)
(0.082154072 -0.00063352774 0)
(0.08332095 -0.00053241107 0)
(0.084284332 -0.00043022795 0)
(0.085042343 -0.00032723689 0)
(0.085593626 -0.00022369623 0)
(0.085937339 -0.00011986325 0)
(0.086073153 -1.5991485e-05 0)
(0.086001262 8.7651109e-05 0)
(0.08572235 0.00019083529 0)
(0.085237587 0.00029330528 0)
(0.084548669 0.00039481398 0)
(0.083657749 0.00049512517 0)
(0.082567458 0.00059400609 0)
(0.081280891 0.00069122934 0)
(0.079801587 0.00078657372 0)
(0.078133524 0.00087982466 0)
(0.076281102 0.00097077462 0)
(0.074249129 0.0010592234 0)
(0.072042806 0.0011449787 0)
(0.069667709 0.0012278559 0)
(0.067129779 0.0013076788 0)
(0.064435297 0.0013842795 0)
(0.061590874 0.001457499 0)
(0.058603429 0.0015271866 0)
(0.055480176 0.0015932007 0)
(0.052228599 0.0016554086 0)
(0.048856444 0.0017136866 0)
(0.04537169 0.0017679198 0)
(0.041782541 0.0018180026 0)
(0.038097401 0.0018638382 0)
(0.03432486 0.0019053388 0)
(0.030473672 0.0019424256 0)
(0.026552743 0.0019750288 0)
(0.022571107 0.0020030873 0)
(0.018537913 0.0020265489 0)
(0.014462406 0.0020453702 0)
(0.010353907 0.0020595165 0)
(0.0062217999 0.0020689617 0)
(0.0020755101 0.0020736887 0)
(-0.0020800042 0.0062246129 0)
(-0.0062352733 0.0062104252 0)
(-0.010376334 0.0061820757 0)
(-0.014493742 0.0061396164 0)
(-0.018578097 0.0060831251 0)
(-0.02262006 0.006012706 0)
(-0.026610369 0.0059284892 0)
(-0.030539857 0.0058306315 0)
(-0.034399472 0.0057193159 0)
(-0.038180291 0.005594752 0)
(-0.041873542 0.0054571763 0)
(-0.045470617 0.0053068521 0)
(-0.048963095 0.0051440696 0)
(-0.052342755 0.0049691461 0)
(-0.055601598 0.0047824258 0)
(-0.058731865 0.0045842802 0)
(-0.061726051 0.0043751074 0)
(-0.064576927 0.0041553325 0)
(-0.067277557 0.0039254072 0)
(-0.069821315 0.0036858092 0)
(-0.072201902 0.0034370421 0)
(-0.074413364 0.003179635 0)
(-0.076450109 0.0029141414 0)
(-0.078306922 0.0026411389 0)
(-0.079978982 0.0023612283 0)
(-0.081461877 0.0020750326 0)
(-0.082751617 0.0017831956 0)
(-0.08384465 0.0014863814 0)
(-0.084737874 0.0011852727 0)
(-0.085428649 0.00088056885 0)
(-0.085914808 0.00057298395 0)
(-0.086194665 0.00026325038 0)
(-0.08626703 -4.7886274e-05 0)
(-0.08613121 -0.00035967831 0)
(-0.085787019 -0.00067136419 0)
(-0.085234781 -0.00098217495 0)
(-0.084475337 -0.0012913372 0)
(-0.083510045 -0.0015980753 0)
(-0.082340781 -0.001901613 0)
(-0.080969942 -0.0022011761 0)
(-0.079400438 -0.0024959942 0)
(-0.077635695 -0.0027853033 0)
(-0.075679644 -0.003068348 0)
(-0.07353672 -0.0033443841 0)
(-0.071211851 -0.0036126805 0)
(-0.068710447 -0.003872522 0)
(-0.066038392 -0.0041232112 0)
(-0.06320203 -0.0043640713 0)
(-0.060208147 -0.0045944482 0)
(-0.057063961 -0.0048137124 0)
(-0.053777102 -0.0050212619 0)
(-0.050355591 -0.0052165238 0)
(-0.046807824 -0.0053989565 0)
(-0.043142547 -0.0055680517 0)
(-0.039368834 -0.0057233363 0)
(-0.035496063 -0.0058643744 0)
(-0.031533892 -0.0059907684 0)
(-0.027492231 -0.0061021609 0)
(-0.023381214 -0.0061982362 0)
(-0.019211174 -0.0062787212 0)
(-0.01499261 -0.0063433867 0)
(-0.010736161 -0.0063920482 0)
(-0.0064525738 -0.0064245668 0)
(-0.0021526723 -0.0064408493 0)
(0.0021526724 -0.0064408493 0)
(0.0064525739 -0.0064245668 0)
(0.010736161 -0.0063920482 0)
(0.01499261 -0.0063433867 0)
(0.019211174 -0.0062787212 0)
(0.023381214 -0.0061982362 0)
(0.027492231 -0.0061021609 0)
(0.031533892 -0.0059907683 0)
(0.035496063 -0.0058643744 0)
(0.039368834 -0.0057233363 0)
(0.043142547 -0.0055680517 0)
(0.046807824 -0.0053989565 0)
(0.050355591 -0.0052165238 0)
(0.053777102 -0.0050212619 0)
(0.057063961 -0.0048137124 0)
(0.060208147 -0.0045944482 0)
(0.06320203 -0.0043640713 0)
(0.066038392 -0.0041232112 0)
(0.068710447 -0.003872522 0)
(0.071211851 -0.0036126805 0)
(0.07353672 -0.0033443841 0)
(0.075679644 -0.003068348 0)
(0.077635695 -0.0027853032 0)
(0.079400438 -0.0024959942 0)
(0.080969942 -0.0022011761 0)
(0.082340781 -0.001901613 0)
(0.083510045 -0.0015980753 0)
(0.084475337 -0.0012913372 0)
(0.085234781 -0.00098217494 0)
(0.085787019 -0.00067136419 0)
(0.08613121 -0.00035967831 0)
(0.08626703 -4.7886268e-05 0)
(0.086194665 0.00026325039 0)
(0.085914808 0.00057298395 0)
(0.085428649 0.00088056885 0)
(0.084737874 0.0011852727 0)
(0.08384465 0.0014863815 0)
(0.082751617 0.0017831956 0)
(0.081461877 0.0020750326 0)
(0.079978982 0.0023612283 0)
(0.078306922 0.0026411389 0)
(0.076450109 0.0029141414 0)
(0.074413364 0.003179635 0)
(0.072201902 0.0034370421 0)
(0.069821315 0.0036858092 0)
(0.067277557 0.0039254072 0)
(0.064576927 0.0041553325 0)
(0.061726051 0.0043751074 0)
(0.058731865 0.0045842802 0)
(0.055601598 0.0047824258 0)
(0.052342755 0.0049691461 0)
(0.048963095 0.0051440696 0)
(0.045470617 0.0053068521 0)
(0.041873542 0.0054571763 0)
(0.038180291 0.005594752 0)
(0.034399472 0.0057193159 0)
(0.030539857 0.0058306315 0)
(0.026610369 0.0059284893 0)
(0.02262006 0.006012706 0)
(0.018578097 0.0060831251 0)
(0.014493742 0.0061396164 0)
(0.010376334 0.0061820757 0)
(0.0062352732 0.0062104252 0)
(0.0020800041 0.0062246129 0)
(-0.002086599 0.01038772 0)
(-0.0062550447 0.010364048 0)
(-0.010409243 0.010316747 0)
(-0.014539723 0.010245902 0)
(-0.018637059 0.010151646 0)
(-0.022691884 0.010034149 0)
(-0.026694912 0.0098936305 0)
(-0.030636949 0.0097303505 0)
(-0.034508917 0.0095446142 0)
(-0.038301867 0.0093367712 0)
(-0.042006999 0.0091072154 0)
(-0.04561568 0.0088563858 0)
(-0.049119463 0.0085847662 0)
(-0.052510101 0.0082928855 0)
(-0.05577957 0.0079813177 0)
(-0.058920083 0.007650682 0)
(-0.061924113 0.0073016425 0)
(-0.064784405 0.0069349082 0)
(-0.067493998 0.006551232 0)
(-0.070046244 0.0061514111 0)
(-0.07243482 0.0057362855 0)
(-0.07465375 0.0053067376 0)
(-0.076697421 0.004863691 0)
(-0.078560597 0.0044081095 0)
(-0.080238439 0.0039409953 0)
(-0.081726517 0.0034633878 0)
(-0.083020823 0.0029763617 0)
(-0.084117791 0.0024810249 0)
(-0.085014305 0.0019785167 0)
(-0.085707712 0.0014700046 0)
(-0.086195835 0.00095668259 0)
(-0.08647698 0.00043977031 0)
(-0.086549948 -7.9491712e-05 0)
(-0.086414039 -0.00059985011 0)
(-0.086069066 -0.0011200339 0)
(-0.08551535 -0.0016387604 0)
(-0.084753733 -0.002154739 0)
(-0.083785574 -0.0026666749 0)
(-0.082612754 -0.0031732727 0)
(-0.081237674 -0.0036732396 0)
(-0.079663253 -0.00416529 0)
(-0.077892926 -0.0046481484 0)
(-0.075930637 -0.0051205541 0)
(-0.073780833 -0.0055812644 0)
(-0.071448457 -0.0060290592 0)
(-0.068938937 -0.0064627444 0)
(-0.066258176 -0.0068811561 0)
(-0.063412536 -0.0072831642 0)
(-0.060408829 -0.0076676768 0)
(-0.057254295 -0.0080336432 0)
(-0.05395659 -0.0083800582 0)
(-0.050523762 -0.0087059655 0)
(-0.046964235 -0.0090104608 0)
(-0.043286786 -0.0092926956 0)
(-0.039500519 -0.0095518802 0)
(-0.035614845 -0.0097872865 0)
(-0.031639456 -0.0099982509 0)
(-0.027584296 -0.010184177 0)
(-0.023459535 -0.010344537 0)
(-0.019275542 -0.010478875 0)
(-0.015042854 -0.010586809 0)
(-0.010772146 -0.010668031 0)
(-0.0064742033 -0.010722308 0)
(-0.0021598886 -0.010749486 0)
(0.0021598887 -0.010749486 0)
(0.0064742033 -0.010722308 0)
(0.010772146 -0.010668031 0)
(0.015042854 -0.010586809 0)
(0.019275542 -0.010478875 0)
(0.023459536 -0.010344537 0)
(0.027584296 -0.010184177 0)
(0.031639456 -0.0099982509 0)
(0.035614845 -0.0097872865 0)
(0.039500519 -0.0095518802 0)
(0.043286786 -0.0092926956 0)
(0.046964235 -0.0090104607 0)
(0.050523762 -0.0087059654 0)
(0.05395659 -0.0083800582 0)
(0.057254295 -0.0080336432 0)
(0.060408829 -0.0076676768 0)
(0.063412536 -0.0072831642 0)
(0.066258176 -0.006881156 0)
(0.068938937 -0.0064627444 0)
(0.071448457 -0.0060290592 0)
(0.073780833 -0.0055812644 0)
(0.075930637 -0.005120554 0)
(0.077892926 -0.0046481484 0)
(0.079663253 -0.0041652899 0)
(0.081237674 -0.0036732396 0)
(0.082612754 -0.0031732726 0)
(0.083785574 -0.0026666749 0)
(0.084753733 -0.002154739 0)
(0.08551535 -0.0016387604 0)
(0.086069066 -0.0011200339 0)
(0.086414039 -0.0005998501 0)
(0.086549948 -7.9491702e-05 0)
(0.08647698 0.00043977032 0)
(0.086195835 0.00095668259 0)
(0.085707712 0.0014700047 0)
(0.085014305 0.0019785167 0)
(0.084117791 0.0024810249 0)
(0.083020823 0.0029763617 0)
(0.081726517 0.0034633878 0)
(0.080238439 0.0039409953 0)
(0.078560597 0.0044081095 0)
(0.076697421 0.004863691 0)
(0.07465375 0.0053067376 0)
(0.07243482 0.0057362855 0)
(0.070046244 0.0061514111 0)
(0.067493998 0.006551232 0)
(0.064784405 0.0069349082 0)
(0.061924113 0.0073016426 0)
(0.058920083 0.007650682 0)
(0.05577957 0.0079813177 0)
(0.052510101 0.0082928855 0)
(0.049119463 0.0085847662 0)
(0.04561568 0.0088563858 0)
(0.042006999 0.0091072154 0)
(0.038301867 0.0093367712 0)
(0.034508917 0.0095446142 0)
(0.030636949 0.0097303505 0)
(0.026694912 0.0098936305 0)
(0.022691884 0.010034149 0)
(0.018637059 0.010151646 0)
(0.014539723 0.010245902 0)
(0.010409242 0.010316747 0)
(0.0062550446 0.010364048 0)
(0.0020865989 0.01038772 0)
(-0.0020953003 0.014566202 0)
(-0.0062811312 0.014533014 0)
(-0.010452662 0.0144667 0)
(-0.014600389 0.014367379 0)
(-0.01871485 0.014235234 0)
(-0.022786644 0.014070507 0)
(-0.026806449 0.013873503 0)
(-0.030765038 0.013644586 0)
(-0.034653296 0.013384184 0)
(-0.038462241 0.013092786 0)
(-0.042183037 0.012770943 0)
(-0.045807018 0.012419271 0)
(-0.0493257 0.012038447 0)
(-0.052730803 0.011629211 0)
(-0.056014268 0.011192368 0)
(-0.059168277 0.010728785 0)
(-0.062185266 0.010239393 0)
(-0.065057949 0.009725184 0)
(-0.067779335 0.0091872144 0)
(-0.070342741 0.0086266009 0)
(-0.072741817 0.0080445208 0)
(-0.074970556 0.007442211 0)
(-0.077023318 0.0068209662 0)
(-0.078894841 0.0061821374 0)
(-0.08058026 0.0055271299 0)
(-0.082075121 0.004857401 0)
(-0.083375397 0.0041744576 0)
(-0.084477499 0.0034798534 0)
(-0.085378295 0.0027751859 0)
(-0.086075116 0.0020620928 0)
(-0.08656577 0.0013422492 0)
(-0.086848554 0.00061736423 0)
(-0.086922258 -0.0001108241 0)
(-0.086786177 -0.00084055491 0)
(-0.086440118 -0.0015700457 0)
(-0.085884401 -0.0022974976 0)
(-0.085119868 -0.0030211007 0)
(-0.084147882 -0.003739039 0)
(-0.08297033 -0.0044494953 0)
(-0.081589621 -0.0051506567 0)
(-0.080008684 -0.0058407195 0)
(-0.078230968 -0.006517895 0)
(-0.076260431 -0.0071804145 0)
(-0.07410154 -0.0078265352 0)
(-0.071759259 -0.0084545455 0)
(-0.069239036 -0.0090627705 0)
(-0.066546801 -0.0096495776 0)
(-0.063688944 -0.010213382 0)
(-0.060672305 -0.010752651 0)
(-0.057504156 -0.011265912 0)
(-0.054192186 -0.011751754 0)
(-0.05074448 -0.012208835 0)
(-0.0471695 -0.012635888 0)
(-0.043476059 -0.013031723 0)
(-0.039673304 -0.01339523 0)
(-0.035770689 -0.013725389 0)
(-0.031777949 -0.014021269 0)
(-0.027705072 -0.014282032 0)
(-0.023562276 -0.01450694 0)
(-0.019359976 -0.014695352 0)
(-0.015108758 -0.014846732 0)
(-0.010819345 -0.014960647 0)
(-0.006502573 -0.015036772 0)
(-0.0021693535 -0.015074889 0)
(0.0021693536 -0.015074889 0)
(0.0065025731 -0.015036772 0)
(0.010819345 -0.014960647 0)
(0.015108758 -0.014846732 0)
(0.019359976 -0.014695352 0)
(0.023562276 -0.01450694 0)
(0.027705072 -0.014282032 0)
(0.031777949 -0.014021269 0)
(0.035770689 -0.013725389 0)
(0.039673304 -0.01339523 0)
(0.043476059 -0.013031723 0)
(0.0471695 -0.012635888 0)
(0.050744481 -0.012208835 0)
(0.054192186 -0.011751754 0)
(0.057504156 -0.011265912 0)
(0.060672305 -0.010752651 0)
(0.063688944 -0.010213382 0)
(0.066546801 -0.0096495775 0)
(0.069239036 -0.0090627705 0)
(0.071759259 -0.0084545455 0)
(0.074101541 -0.0078265352 0)
(0.076260431 -0.0071804145 0)
(0.078230968 -0.006517895 0)
(0.080008684 -0.0058407195 0)
(0.081589621 -0.0051506567 0)
(0.08297033 -0.0044494953 0)
(0.084147882 -0.003739039 0)
(0.085119868 -0.0030211007 0)
(0.085884401 -0.0022974976 0)
(0.086440118 -0.0015700457 0)
(0.086786177 -0.00084055489 0)
(0.086922258 -0.00011082409 0)
(0.086848554 0.00061736425 0)
(0.08656577 0.0013422492 0)
(0.086075116 0.0020620928 0)
(0.085378295 0.0027751859 0)
(0.084477499 0.0034798534 0)
(0.083375397 0.0041744576 0)
(0.082075121 0.004857401 0)
(0.08058026 0.0055271299 0)
(0.078894841 0.0061821374 0)
(0.077023318 0.0068209662 0)
(0.074970556 0.007442211 0)
(0.072741817 0.0080445208 0)
(0.070342741 0.0086266009 0)
(0.067779335 0.0091872144 0)
(0.065057949 0.009725184 0)
(0.062185266 0.010239393 0)
(0.059168277 0.010728785 0)
(0.056014268 0.011192368 0)
(0.052730803 0.011629211 0)
(0.0493257 0.012038447 0)
(0.045807018 0.012419271 0)
(0.042183037 0.012770943 0)
(0.038462241 0.013092786 0)
(0.034653296 0.013384184 0)
(0.030765038 0.013644586 0)
(0.026806449 0.013873503 0)
(0.022786644 0.014070507 0)
(0.01871485 0.014235234 0)
(0.014600389 0.014367379 0)
(0.010452662 0.0144667 0)
(0.0062811311 0.014533014 0)
(0.0020953002 0.014566202 0)
(-0.0021061502 0.018764143 0)
(-0.0063136593 0.018721401 0)
(-0.010506803 0.018635995 0)
(-0.014676034 0.018508081 0)
(-0.018811848 0.018337892 0)
(-0.022904799 0.018125741 0)
(-0.026945522 0.017872017 0)
(-0.030924745 0.01757719 0)
(-0.034833312 0.01724181 0)
(-0.038662195 0.016866506 0)
(-0.042402517 0.016451987 0)
(-0.046045565 0.015999043 0)
(-0.049582815 0.015508546 0)
(-0.053005942 0.01498145 0)
(-0.056306846 0.014418788 0)
(-0.059477665 0.013821676 0)
(-0.062510794 0.013191313 0)
(-0.065398908 0.012528975 0)
(-0.068134973 0.011836023 0)
(-0.07071227 0.011113892 0)
(-0.073124409 0.010364101 0)
(-0.075365349 0.0095882398 0)
(-0.077429413 0.0087879774 0)
(-0.079311308 0.0079650532 0)
(-0.081006136 0.0071212773 0)
(-0.082509416 0.0062585267 0)
(-0.083817092 0.0053787426 0)
(-0.084925553 0.0044839267 0)
(-0.085831643 0.0035761369 0)
(-0.086532674 0.0026574838 0)
(-0.08702644 0.0017301254 0)
(-0.08731122 0.00079626318 0)
(-0.087385796 -0.00014186394 0)
(-0.087249454 -0.0010819858 0)
(-0.086901996 -0.0020218054 0)
(-0.086343742 -0.0029590051 0)
(-0.085575534 -0.0038912526 0)
(-0.084598739 -0.0048162079 0)
(-0.083415252 -0.0057315294 0)
(-0.082027493 -0.0066348809 0)
(-0.080438406 -0.0075239383 0)
(-0.078651455 -0.0083963966 0)
(-0.076670619 -0.0092499767 0)
(-0.074500388 -0.010082433 0)
(-0.07214575 -0.010891559 0)
(-0.069612184 -0.011675198 0)
(-0.06690565 -0.012431245 0)
(-0.064032573 -0.013157658 0)
(-0.060999829 -0.013852462 0)
(-0.057814731 -0.014513759 0)
(-0.054485009 -0.015139731 0)
(-0.051018792 -0.01572865 0)
(-0.047424588 -0.016278881 0)
(-0.04371126 -0.01678889 0)
(-0.039888005 -0.017257248 0)
(-0.035964329 -0.017682641 0)
(-0.031950021 -0.018063867 0)
(-0.027855126 -0.018399849 0)
(-0.023689918 -0.018689633 0)
(-0.019464871 -0.018932394 0)
(-0.01519063 -0.019127441 0)
(-0.01087798 -0.019274216 0)
(-0.0065378157 -0.0193723 0)
(-0.0021811114 -0.019421413 0)
(0.0021811115 -0.019421413 0)
(0.0065378158 -0.0193723 0)
(0.01087798 -0.019274216 0)
(0.01519063 -0.019127441 0)
(0.019464871 -0.018932394 0)
(0.023689918 -0.018689633 0)
(0.027855126 -0.018399849 0)
(0.031950021 -0.018063867 0)
(0.035964329 -0.017682641 0)
(0.039888005 -0.017257248 0)
(0.04371126 -0.01678889 0)
(0.047424588 -0.016278881 0)
(0.051018792 -0.01572865 0)
(0.054485009 -0.015139731 0)
(0.057814731 -0.014513759 0)
(0.060999829 -0.013852462 0)
(0.064032573 -0.013157658 0)
(0.06690565 -0.012431245 0)
(0.069612184 -0.011675198 0)
(0.07214575 -0.010891559 0)
(0.074500388 -0.010082433 0)
(0.076670619 -0.0092499767 0)
(0.078651455 -0.0083963966 0)
(0.080438406 -0.0075239383 0)
(0.082027494 -0.0066348809 0)
(0.083415252 -0.0057315293 0)
(0.084598739 -0.0048162078 0)
(0.085575534 -0.0038912526 0)
(0.086343742 -0.0029590051 0)
(0.086901996 -0.0020218054 0)
(0.087249454 -0.0010819858 0)
(0.087385796 -0.00014186393 0)
(0.08731122 0.00079626319 0)
(0.08702644 0.0017301254 0)
(0.086532674 0.0026574838 0)
(0.085831643 0.0035761369 0)
(0.084925553 0.0044839267 0)
(0.083817092 0.0053787426 0)
(0.082509416 0.0062585267 0)
(0.081006136 0.0071212773 0)
(0.079311308 0.0079650532 0)
(0.077429413 0.0087879774 0)
(0.075365349 0.0095882398 0)
(0.073124409 0.010364101 0)
(0.07071227 0.011113892 0)
(0.068134973 0.011836023 0)
(0.065398908 0.012528975 0)
(0.062510794 0.013191313 0)
(0.059477665 0.013821676 0)
(0.056306846 0.014418788 0)
(0.053005942 0.01498145 0)
(0.049582815 0.015508546 0)
(0.046045565 0.015999043 0)
(0.042402517 0.016451987 0)
(0.038662195 0.016866506 0)
(0.034833312 0.01724181 0)
(0.030924745 0.01757719 0)
(0.026945522 0.017872017 0)
(0.022904799 0.018125741 0)
(0.018811848 0.018337892 0)
(0.014676034 0.018508081 0)
(0.010506803 0.018635995 0)
(0.0063136592 0.018721401 0)
(0.0021061501 0.018764143 0)
(-0.0021192275 0.022985938 0)
(-0.006352865 0.022933594 0)
(-0.010572059 0.022829002 0)
(-0.014767209 0.022672351 0)
(-0.018928757 0.022463927 0)
(-0.023047207 0.02220411 0)
(-0.02711314 0.02189338 0)
(-0.031117233 0.021532308 0)
(-0.035050274 0.021121567 0)
(-0.038903185 0.020661925 0)
(-0.042667034 0.020154249 0)
(-0.046333059 0.019599507 0)
(-0.04989268 0.018998764 0)
(-0.053337523 0.018353185 0)
(-0.056659434 0.017664035 0)
(-0.059850501 0.016932681 0)
(-0.06290307 0.016160586 0)
(-0.065809765 0.015349315 0)
(-0.068563504 0.014500532 0)
(-0.071157522 0.013615995 0)
(-0.073585383 0.012697561 0)
(-0.075841001 0.01174718 0)
(-0.07791866 0.010766893 0)
(-0.079813025 0.0097588316 0)
(-0.081519162 0.0087252122 0)
(-0.083032553 0.0076683344 0)
(-0.084349112 0.006590576 0)
(-0.085465198 0.0054943893 0)
(-0.086377629 0.0043822958 0)
(-0.087083695 0.0032568812 0)
(-0.087581166 0.0021207901 0)
(-0.08786831 0.00097671941 0)
(-0.087943893 -0.0001725875 0)
(-0.087807195 -0.0013243483 0)
(-0.08745801 -0.0024757482 0)
(-0.086896657 -0.003623947 0)
(-0.08612398 -0.0047660868 0)
(-0.085141353 -0.0058993001 0)
(-0.083950681 -0.0070207175 0)
(-0.082554395 -0.0081274762 0)
(-0.080955458 -0.0092167281 0)
(-0.079157354 -0.010285649 0)
(-0.077164087 -0.011331445 0)
(-0.074980175 -0.012351366 0)
(-0.072610637 -0.013342707 0)
(-0.070060988 -0.014302825 0)
(-0.067337225 -0.015229141 0)
(-0.064445814 -0.016119152 0)
(-0.061393677 -0.01697044 0)
(-0.058188173 -0.017780676 0)
(-0.054837084 -0.018547635 0)
(-0.051348591 -0.019269197 0)
(-0.047731258 -0.01994336 0)
(-0.043994007 -0.020568243 0)
(-0.040146095 -0.021142096 0)
(-0.036197092 -0.021663307 0)
(-0.032156851 -0.022130404 0)
(-0.028035484 -0.022542066 0)
(-0.023843334 -0.022897125 0)
(-0.019590944 -0.023194569 0)
(-0.015289031 -0.023433552 0)
(-0.010948451 -0.02361339 0)
(-0.006580172 -0.023733569 0)
(-0.0021952425 -0.023793744 0)
(0.0021952426 -0.023793744 0)
(0.0065801721 -0.023733569 0)
(0.010948451 -0.02361339 0)
(0.015289031 -0.023433552 0)
(0.019590945 -0.023194569 0)
(0.023843334 -0.022897125 0)
(0.028035485 -0.022542066 0)
(0.032156851 -0.022130404 0)
(0.036197092 -0.021663307 0)
(0.040146095 -0.021142096 0)
(0.043994007 -0.020568243 0)
(0.047731258 -0.01994336 0)
(0.051348591 -0.019269197 0)
(0.054837084 -0.018547635 0)
(0.058188173 -0.017780676 0)
(0.061393677 -0.01697044 0)
(0.064445814 -0.016119152 0)
(0.067337225 -0.015229141 0)
(0.070060988 -0.014302825 0)
(0.072610637 -0.013342707 0)
(0.074980175 -0.012351366 0)
(0.077164088 -0.011331445 0)
(0.079157354 -0.010285649 0)
(0.080955458 -0.0092167281 0)
(0.082554395 -0.0081274761 0)
(0.083950681 -0.0070207175 0)
(0.085141353 -0.0058993001 0)
(0.08612398 -0.0047660868 0)
(0.086896657 -0.003623947 0)
(0.08745801 -0.0024757482 0)
(0.087807195 -0.0013243483 0)
(0.087943893 -0.00017258748 0)
(0.08786831 0.00097671943 0)
(0.087581166 0.0021207901 0)
(0.087083695 0.0032568812 0)
(0.086377629 0.0043822958 0)
(0.085465198 0.0054943893 0)
(0.084349112 0.006590576 0)
(0.083032553 0.0076683344 0)
(0.081519162 0.0087252122 0)
(0.079813025 0.0097588316 0)
(0.07791866 0.010766893 0)
(0.075841001 0.01174718 0)
(0.073585383 0.012697561 0)
(0.071157522 0.013615995 0)
(0.068563504 0.014500532 0)
(0.065809765 0.015349315 0)
(0.06290307 0.016160586 0)
(0.059850501 0.016932681 0)
(0.056659434 0.017664035 0)
(0.053337523 0.018353185 0)
(0.04989268 0.018998764 0)
(0.046333059 0.019599507 0)
(0.042667034 0.020154249 0)
(0.038903185 0.020661925 0)
(0.035050274 0.021121567 0)
(0.031117233 0.021532308 0)
(0.02711314 0.02189338 0)
(0.023047207 0.02220411 0)
(0.018928757 0.022463927 0)
(0.014767209 0.022672351 0)
(0.010572059 0.022829002 0)
(0.006352865 0.022933594 0)
(0.0021192274 0.022985938 0)
(-0.0021346482 0.027236151 0)
(-0.006399096 0.027174148 0)
(-0.010649007 0.027050255 0)
(-0.01487472 0.026864696 0)
(-0.019066614 0.026617808 0)
(-0.023215132 0.026310042 0)
(-0.027310791 0.025941962 0)
(-0.031344207 0.025514245 0)
(-0.035306105 0.025027685 0)
(-0.039187346 0.02448319 0)
(-0.042978935 0.023881787 0)
(-0.046672048 0.023224617 0)
(-0.050258043 0.022512941 0)
(-0.053728484 0.021748137 0)
(-0.057075157 0.020931702 0)
(-0.06029009 0.020065251 0)
(-0.063365568 0.019150518 0)
(-0.066294158 0.018189354 0)
(-0.069068721 0.017183728 0)
(-0.071682436 0.016135722 0)
(-0.074128813 0.015047535 0)
(-0.076401716 0.013921476 0)
(-0.078495378 0.012759963 0)
(-0.080404418 0.011565521 0)
(-0.082123857 0.010340775 0)
(-0.083649137 0.0090884507 0)
(-0.084976134 0.0078113655 0)
(-0.086101172 0.0065124253 0)
(-0.087021039 0.0051946187 0)
(-0.087732997 0.0038610104 0)
(-0.088234795 0.0025147347 0)
(-0.088524681 0.0011589884 0)
(-0.088601408 -0.00020297697 0)
(-0.088464243 -0.0015678631 0)
(-0.088112978 -0.0029323332 0)
(-0.087547927 -0.0042930204 0)
(-0.08676994 -0.0056465373 0)
(-0.085780397 -0.0069894846 0)
(-0.084581214 -0.0083184611 0)
(-0.083174841 -0.0096300732 0)
(-0.08156426 -0.010920945 0)
(-0.07975298 -0.012187729 0)
(-0.077745036 -0.013427114 0)
(-0.075544976 -0.014635838 0)
(-0.07315786 -0.015810698 0)
(-0.070589242 -0.016948558 0)
(-0.067845166 -0.018046364 0)
(-0.064932146 -0.019101147 0)
(-0.061857156 -0.020110041 0)
(-0.058627613 -0.021070288 0)
(-0.055251357 -0.021979247 0)
(-0.051736632 -0.022834407 0)
(-0.048092068 -0.023633394 0)
(-0.044326655 -0.024373978 0)
(-0.040449722 -0.025054087 0)
(-0.036470913 -0.025671807 0)
(-0.032400156 -0.026225396 0)
(-0.028247643 -0.026713285 0)
(-0.024023795 -0.027134091 0)
(-0.019739239 -0.027486615 0)
(-0.015404773 -0.027769851 0)
(-0.01103134 -0.027982991 0)
(-0.0066299919 -0.028125424 0)
(-0.0022118636 -0.028196743 0)
(0.0022118637 -0.028196743 0)
(0.006629992 -0.028125424 0)
(0.01103134 -0.027982991 0)
(0.015404773 -0.027769851 0)
(0.019739239 -0.027486615 0)
(0.024023795 -0.027134091 0)
(0.028247643 -0.026713285 0)
(0.032400156 -0.026225396 0)
(0.036470913 -0.025671807 0)
(0.040449722 -0.025054087 0)
(0.044326655 -0.024373978 0)
(0.048092068 -0.023633394 0)
(0.051736632 -0.022834407 0)
(0.055251357 -0.021979247 0)
(0.058627613 -0.021070288 0)
(0.061857156 -0.020110041 0)
(0.064932146 -0.019101147 0)
(0.067845166 -0.018046364 0)
(0.070589242 -0.016948558 0)
(0.07315786 -0.015810698 0)
(0.075544976 -0.014635838 0)
(0.077745036 -0.013427114 0)
(0.07975298 -0.012187729 0)
(0.08156426 -0.010920945 0)
(0.083174841 -0.0096300732 0)
(0.084581214 -0.0083184611 0)
(0.085780397 -0.0069894846 0)
(0.08676994 -0.0056465373 0)
(0.087547927 -0.0042930204 0)
(0.088112978 -0.0029323331 0)
(0.088464243 -0.0015678631 0)
(0.088601408 -0.00020297694 0)
(0.088524681 0.0011589884 0)
(0.088234795 0.0025147347 0)
(0.087732997 0.0038610104 0)
(0.087021039 0.0051946187 0)
(0.086101172 0.0065124253 0)
(0.084976134 0.0078113655 0)
(0.083649137 0.0090884507 0)
(0.082123857 0.010340775 0)
(0.080404418 0.011565521 0)
(0.078495378 0.012759963 0)
(0.076401716 0.013921476 0)
(0.074128813 0.015047535 0)
(0.071682436 0.016135722 0)
(0.069068721 0.017183728 0)
(0.066294158 0.018189354 0)
(0.063365568 0.019150518 0)
(0.06029009 0.020065251 0)
(0.057075157 0.020931702 0)
(0.053728484 0.021748137 0)
(0.050258043 0.022512941 0)
(0.046672048 0.023224617 0)
(0.042978935 0.023881787 0)
(0.039187346 0.02448319 0)
(0.035306105 0.025027685 0)
(0.031344206 0.025514245 0)
(0.027310791 0.025941962 0)
(0.023215132 0.026310042 0)
(0.019066614 0.026617808 0)
(0.01487472 0.026864696 0)
(0.010649007 0.027050255 0)
(0.006399096 0.027174148 0)
(0.0021346481 0.027236151 0)
(-0.0021525663 0.0315196 0)
(-0.0064528145 0.031447871 0)
(-0.010738418 0.031304544 0)
(-0.014999643 0.031089877 0)
(-0.019226798 0.030804258 0)
(-0.023410251 0.030448208 0)
(-0.02754045 0.030022376 0)
(-0.031607936 0.029527545 0)
(-0.035603363 0.028964631 0)
(-0.039517519 0.028334681 0)
(-0.043341336 0.02763888 0)
(-0.047065918 0.026878545 0)
(-0.050682552 0.026055133 0)
(-0.054182729 0.025170235 0)
(-0.057558165 0.024225579 0)
(-0.060800817 0.023223032 0)
(-0.063902901 0.022164598 0)
(-0.066856916 0.021052415 0)
(-0.069655657 0.019888759 0)
(-0.072292237 0.01867604 0)
(-0.074760106 0.017416798 0)
(-0.077053066 0.016113705 0)
(-0.079165293 0.014769558 0)
(-0.081091351 0.013387277 0)
(-0.082826211 0.011969902 0)
(-0.084365267 0.010520586 0)
(-0.08570435 0.0090425894 0)
(-0.086839747 0.0075392767 0)
(-0.087768208 0.006014107 0)
(-0.088486965 0.0044706282 0)
(-0.088993742 0.002912469 0)
(-0.089286765 0.0013433304 0)
(-0.089364769 -0.00023302305 0)
(-0.089227012 -0.0018127724 0)
(-0.088873278 -0.0033920542 0)
(-0.088303882 -0.0049669704 0)
(-0.087519677 -0.0065335988 0)
(-0.086522053 -0.0080880037 0)
(-0.08531294 -0.0096262473 0)
(-0.083894807 -0.011144401 0)
(-0.082270662 -0.012638556 0)
(-0.080444045 -0.014104835 0)
(-0.078419022 -0.015539408 0)
(-0.076200183 -0.016938497 0)
(-0.07379263 -0.018298394 0)
(-0.071201967 -0.019615468 0)
(-0.06843429 -0.020886184 0)
(-0.065496171 -0.022107105 0)
(-0.062394645 -0.023274913 0)
(-0.059137194 -0.024386414 0)
(-0.055731726 -0.025438552 0)
(-0.052186561 -0.026428419 0)
(-0.048510401 -0.027353268 0)
(-0.044712319 -0.028210517 0)
(-0.040801725 -0.028997765 0)
(-0.036788348 -0.029712798 0)
(-0.032682206 -0.030353597 0)
(-0.028493578 -0.030918349 0)
(-0.024232981 -0.03140545 0)
(-0.019911134 -0.031813511 0)
(-0.015538933 -0.03214137 0)
(-0.011127418 -0.03238809 0)
(-0.0066877384 -0.032552963 0)
(-0.0022311291 -0.032635518 0)
(0.0022311291 -0.032635518 0)
(0.0066877385 -0.032552963 0)
(0.011127418 -0.03238809 0)
(0.015538934 -0.03214137 0)
(0.019911134 -0.031813511 0)
(0.024232981 -0.03140545 0)
(0.028493578 -0.030918349 0)
(0.032682206 -0.030353597 0)
(0.036788348 -0.029712798 0)
(0.040801726 -0.028997765 0)
(0.044712319 -0.028210517 0)
(0.048510401 -0.027353268 0)
(0.052186561 -0.026428419 0)
(0.055731727 -0.025438552 0)
(0.059137194 -0.024386414 0)
(0.062394645 -0.023274913 0)
(0.065496171 -0.022107105 0)
(0.06843429 -0.020886184 0)
(0.071201967 -0.019615468 0)
(0.07379263 -0.018298394 0)
(0.076200183 -0.016938497 0)
(0.078419022 -0.015539408 0)
(0.080444045 -0.014104835 0)
(0.082270663 -0.012638556 0)
(0.083894808 -0.011144401 0)
(0.08531294 -0.0096262473 0)