/*--------------------------------*- C++ -*----------------------------------*\
| =========                 |                                                 |
| \\      /  F ield         | OpenFOAM: The Open Source CFD Toolbox           |
|  \\    /   O peration     | Version:  2106                                  |
|   \\  /    A nd           | Website:  www.openfoam.com                      |
|    \\/     M anipulation  |                                                 |
\*---------------------------------------------------------------------------*/
FoamFile
{
    version     2.0;
    format      ascii;
    arch        "LSB;label=32;scalar=64";
    class       surfaceScalarField;
    location    "0.045";
    object      phi_0;
}
// * * * * * * * * * * * * * * * * * * * * * * * * * * * * * * * * * * * * * //

dimensions      [0 3 -1 0 0 0 0];

oriented        oriented;

internalField   nonuniform List<scalar> 
1984
(
9.9180753e-05
-9.9192342e-05
0.00019458392
-9.5403168e-05
0.00028255069
-8.7966767e-05
0.00035971359
-7.7162904e-05
0.00042311238
-6.339879e-05
0.00047030693
-4.7194549e-05
0.00049947142
-2.9164485e-05
0.00050946616
-9.9947483e-06
0.00049988433
9.5818305e-06
0.00047107049
2.8813839e-05
0.00042411082
4.6959672e-05
0.00036079636
6.3314466e-05
0.0002835549
7.7241453e-05
0.00019535908
8.8195823e-05
9.9611484e-05
9.5747596e-05
1.1866059e-08
9.9599618e-05
-9.9588218e-05
9.9600084e-05
-0.00019533719
9.5748975e-05
-0.00028353525
8.8198054e-05
-0.00036077969
7.7244439e-05
-0.00042409777
6.3318082e-05
-0.00047106154
4.6963773e-05
-0.00049987981
2.8818263e-05
-0.00050946621
9.5864064e-06
-0.00049947602
-9.9901957e-06
-0.00047031589
-2.9160127e-05
-0.00042312534
-4.7190549e-05
-0.00035973004
-6.3395296e-05
-0.00028257
-7.7160044e-05
-0.00019460535
-8.7964646e-05
-9.9203491e-05
-9.5401863e-05
-9.9191902e-05
0.00010549202
-0.00020469656
0.00020696549
-0.00019687664
0.00030052861
-0.00018152989
0.00038259962
-0.00015923391
0.00045003018
-0.00013082935
0.00050022541
-9.7389775e-05
0.00053124388
-6.0182957e-05
0.00054187384
-2.0624703e-05
0.00053168245
1.9773214e-05
0.00050103608
5.9460215e-05
0.00045109053
9.6905222e-05
0.00038374959
0.00013065541
0.00030159512
0.00015939593
0.00020778865
0.00018200229
0.00010594931
0.00019758694
1.249412e-08
0.00020553644
-0.00010592482
0.0002055374
-0.00020776562
0.00019758977
-0.00030157444
0.00018200688
-0.00038373206
0.00015940206
-0.00045107682
0.00013066284
-0.00050102669
9.6913642e-05
-0.00053167772
5.9469293e-05
-0.00054187391
1.97826e-05
-0.00053124874
-2.0615366e-05
-0.00050023485
-6.0174021e-05
-0.00045004382
-9.7381574e-05
-0.00038261693
-0.00013082219
-0.00030054893
-0.00015922805
-0.00020698804
-0.00018152554
-0.00010551594
-0.00019687396
-0.00020469565
0.00011618815
-0.00032089788
0.00022794801
-0.00030863649
0.00033099197
-0.00028457385
0.0004213746
-0.00024961654
0.00049562895
-0.0002050837
0.00055089864
-0.00015265947
0.00058504763
-9.4331944e-05
0.00059674352
-3.2320597e-05
0.00058551135
3.1005383e-05
0.0005517558
9.3215773e-05
0.00049675
0.00015191102
0.00042259035
0.00020481506
0.00033211947
0.0002498668
0.00022881834
0.00028530342
0.0001166719
0.00030973338
1.3520492e-08
0.00032219481
-0.00011664539
0.00032219631
-0.00022879342
0.0003097378
-0.00033209712
0.00028531057
-0.00042257142
0.00024987636
-0.00049673521
0.00020482663
-0.00055174568
0.00015192411
-0.00058550627
9.3229886e-05
-0.00059674364
3.101997e-05
-0.00058505291
-3.2306092e-05
-0.00055090887
-9.4318066e-05
-0.00049564371
-0.00015264674
-0.00042139331
-0.00020507258
-0.00033101393
-0.00024960743
-0.00022797237
-0.00028456709
-0.00011621399
-0.00030863234
-0.00032089648
0.00013204795
-0.00045296041
0.00025905878
-0.00043564732
0.00037615712
-0.00040167219
0.00047885791
-0.00035231733
0.00056322206
-0.00028944785
0.00062600634
-0.00021544375
0.00066478741
-0.00013311302
0.0006780555
-4.5588686e-05
0.00066527453
4.3786349e-05
0.00062690666
0.00013158364
0.00056439934
0.00021441834
0.00048013445
0.00028907995
0.00037734099
0.00035266027
0.00025997288
0.00040267153
0.00013255671
0.00043714955
1.5010498e-08
0.00045473651
-0.00013252729
0.00045473861
-0.00025994524
0.00043715576
-0.00037731621
0.00040268154
-0.0004801135
0.00035267365
-0.00056438298
0.00028909611
-0.0006268955
0.00021443663
-0.00066526896
0.00013160335
-0.00067805569
4.3806704e-05
-0.00066479333
-4.5568455e-05
-0.00062601773
-0.00013309367
-0.00056323846
-0.00021542601
-0.00047887868
-0.00028943236
-0.00037618146
-0.00035230465
-0.00025908576
-0.00040166279
-0.00013207656
-0.00043564154
-0.00045295846
0.00015464976
-0.00060762666
0.00030339314
-0.0005843907
0.00044051606
-0.00053879511
0.00056076401
-0.00047256528
0.00065952545
-0.00038820928
0.000733007
-0.0002889253
0.00077837759
-0.00017848361
0.00079387641
-6.1087508e-05
0.00077888178
5.8780975e-05
0.00073393866
0.00017652676
0.00066074329
0.00028761371
0.00056208419
0.00038773905
0.00044174036
0.0004730041
0.00030433896
0.00054007292
0.00015517746
0.00058631105
1.7055183e-08
0.00060989691
-0.00015514405
0.00060989971
-0.00030430759
0.0005863193
-0.00044171227
0.00054008622
-0.00056206046
0.00047302184
-0.0006607248
0.00038776046
-0.00073392608
0.0002876379
-0.00077887555
0.00017655282
-0.00079387673
5.880788e-05
-0.0007783844
-6.1060783e-05
-0.00073302
-0.00017845807
-0.00065954411
-0.0002889019
-0.00056078759
-0.00038818887
-0.00044054365
-0.00047254859
-0.00030342369
-0.00053878275
-0.00015468214
-0.0005843831
-0.0006076241
0.00018639558
-0.00079404125
0.00036566171
-0.00076365683
0.0005309051
-0.00070403849
0.00067578988
-0.00061745007
0.00079476041
-0.00050717981
0.00088325197
-0.00037741685
0.00093786279
-0.00023309443
0.00095648166
-7.9706382e-05
0.00093836856
7.6894074e-05
0.00088418613
0.0002307092
0.00079598079
0.00037581904
0.0006771122
0.00050660764
0.00053213135
0.00061798496
0.00036660993
0.00070559434
0.00018692686
0.00076599412
1.9761981e-08
0.00079680401
-0.00018688815
0.00079680762
-0.00036657362
0.00076600477
-0.00053209887
0.00070561148
-0.00067708481
0.00061800777
-0.00079595949
0.00050663513
-0.00088417167
0.00037585009
-0.00093836147
0.00023074261
-0.00095648216
7.692857e-05
-0.0009378708
-7.9672143e-05
-0.00088326713
-0.00023306173
-0.00079478209
-0.00037738695
-0.0006758172
-0.00050715377
-0.00053093699
-0.00061742879
-0.00036569697
-0.00070402277
-0.0001864329
-0.00076364717
-0.000794038
0.00023030431
-0.0010243678
0.0004517852
-0.00098513772
0.00065591714
-0.00090817043
0.0008348679
-0.00079640083
0.00098177619
-0.00065408811
0.0010910115
-0.00048665221
0.0011583848
-0.00030046765
0.0011813022
-0.00010262382
0.0011588625
9.9333805e-05
0.0010918931
0.00029767855
0.0009829266
0.00048478557
0.0008361134
0.00065342084
0.00065707215
0.00079702621
0.00045267989
0.0009099866
0.00023080949
0.00098786452
2.3263826e-08
0.0010275902
-0.00023076393
0.0010275948
-0.00045263721
0.00098787805
-0.00065703402
0.0009100083
-0.00083608128
0.00079705503
-0.00098290167
0.00065345552
-0.0010918763
0.00048482467
-0.0011588543
0.00029772066
-0.001181303
9.9377249e-05
-0.0011583944
-0.00010258074
-0.0010910296
-0.00030042654
-0.00098180181
-0.0004866147
-0.00083490006
-0.00065405552
-0.00065595459
-0.00079637427
-0.00045182649
-0.00090815088
-0.00023034793
-0.00098512573
-0.0010243637
0.00028905458
-0.0013134485
0.00056701763
-0.0012631008
0.00082317903
-0.0011643318
0.0010477038
-0.0010209255
0.0012319832
-0.00083836755
0.0013689609
-0.00062362988
0.0014533944
-0.00038490123
0.0014820458
-0.00013127514
0.0014537998
0.00012757978
0.0013697078
0.00038177057
0.0012329559
0.00062153748
0.0010487554
0.00083762134
0.00082415451
0.0010216271
0.00056777609
0.001166365
0.00028948957
0.001266151
2.7734023e-08
0.0013170521
-0.00028943528
0.0013170578
-0.0005677253
0.0012661681
-0.00082410921
0.0011663922
-0.0010487172
0.0010216631
-0.0012329263
0.00083766462
-0.0013696879
0.00062158619
-0.0014537903
0.00038182306
-0.0014820469
0.00012763391
-0.0014534061
-0.00013122155
-0.0013689826
-0.00038485009
-0.0012320139
-0.00062358337
-0.0010477422
-0.00083832727
-0.00082322357
-0.0010208928
-0.00056706651
-0.0011643079
-0.00028910609
-0.0012630861
-0.0013134436
0.00036267117
-0.0016761508
0.00071140975
-0.0016118394
0.0010327695
-0.0014856916
0.0013144058
-0.0013025619
0.0015455193
-0.001069481
0.0017172639
-0.0007953745
0.001823074
-0.00049071137
0.0018589009
-0.00016710196
0.0018233625
0.00016311817
0.0017177944
0.00048733866
0.0015462077
0.00079312415
0.0013151486
0.0010686804
0.0010334598
0.0013033159
0.00071195163
0.0014878732
0.00036299335
0.0016151093
3.3405829e-08
0.001680012
-0.00036292798
0.0016800192
-0.00071189066
0.0016151308
-0.0010334055
0.0014879071
-0.001315103
0.0013033605
-0.0015461725
0.0010687341
-0.0017177707
0.00079318441
-0.0018233514
0.00048740371
-0.0018589026
0.00016318516
-0.0018230884
-0.00016703581
-0.0017172903
-0.00049064812
-0.0015455565
-0.00079531722
-0.0013144521
-0.0010694316
-0.001032823
-0.001302522
-0.00071146805
-0.0014856629
-0.00036273239
-0.0016118218
-0.0016761449
0.0004444966
-0.0021206845
0.00087190928
-0.002039252
0.001265756
-0.0018795383
0.001610905
-0.0016477108
0.0018941189
-0.0013526949
0.0021045553
-0.0010058109
0.0022341646
-0.00062032064
0.0022779843
-0.00021092169
0.0022343334
0.00020676909
0.0021048676
0.00061680445
0.0018945247
0.0010034671
0.0016113441
0.0013518609
0.0012661686
0.0016484914
0.00087224158
0.0018818002
0.00044471087
0.00204264
4.0582054e-08
0.0021246823
-0.00044463155
0.0021246913
-0.00087216801
0.0020426672
-0.0012661033
0.0018818423
-0.0016112894
0.0016485467
-0.0018944829
0.0013519276
-0.0021048398
0.0010035413
-0.0022343208
0.0006168847
-0.002277987
0.00020685141
-0.002234182
-0.00021084083
-0.0021045874
-0.00062024269
-0.001894164
-0.0010057406
-0.0016109611
-0.0013526346
-0.0012658206
-0.0016476625
-0.00087197897
-0.0018795045
-0.00044456951
-0.0020392313
-0.0021206773
0.00051604257
-0.0026367711
0.0010122619
-0.0025354714
0.0014695358
-0.0023368122
0.0018703023
-0.0020484773
0.0021991912
-0.0016815839
0.0024435921
-0.0012502117
0.0025941259
-0.00077085445
0.002645012
-0.00026180784
0.0025942904
0.00025749067
0.0024438999
0.00076719499
0.0021996044
0.0012477626
0.0018707652
0.0016807001
0.00146998
0.0020492766
0.0010126241
0.0023391562
0.0005162797
0.0025389844
4.9491934e-08
0.0026409125
-0.0005161832
0.002640924
-0.0010125357
0.0025390197
-0.0014699023
0.0023392089
-0.0018707005
0.0020493449
-0.002199556
0.0016807831
-0.0024438682
0.0012478535
-0.0025942769
0.00076729339
-0.0026450161
0.00025759061
-0.0025941462
-0.00026171072
-0.0024436301
-0.00077075875
-0.002199245
-0.0012501257
-0.0018703696
-0.0016815099
-0.0014696135
-0.0020484186
-0.0010123444
-0.0023367736
-0.00051612873
-0.002535447
-0.002636762
0.00054341965
-0.0031802412
0.0010659996
-0.0030580513
0.0015476413
-0.002818454
0.0019698659
-0.0024707019
0.0023164808
-0.0020281988
0.0025741756
-0.0015079065
0.0027330231
-0.0009297019
0.0027868443
-0.00031562906
0.0027335036
0.00031083134
0.0025750751
0.00092562347
0.0023176778
0.0015051599
0.0019711899
0.002027188
0.0015488927
0.0024715738
0.0010669852
0.0028210637
0.00054399994
0.0030619697
5.9349521e-08
0.0031848531
-0.0005438848
0.0031848682
-0.0010668826
0.0030620175
-0.0015488039
0.0028211303
-0.0019711163
0.0024716573
-0.0023176249
0.0020272916
-0.0025750412
0.0015052698
-0.0027334907
0.00092574283
-0.0027868503
0.00031095027
-0.002733045
-0.00031551607
-0.0025742188
-0.00092958489
-0.0023165427
-0.0015078019
-0.0019699446
-0.002028108
-0.0015477324
-0.0024706308
-0.0010660933
-0.0028184126
-0.00054351738
-0.0030580229
-0.003180229
0.00048150604
-0.0036617968
0.00094460291
-0.0035211481
0.0013715531
-0.0032454041
0.0017460119
-0.0028451607
0.0020536487
-0.0023358356
0.0022826505
-0.0017369084
0.0024241042
-0.0010711556
0.0024723271
-0.00036385191
0.0024252957
0.0003578627
0.0022848875
0.0010660317
0.0020566209
0.0017334264
0.0017492834
0.0023345256
0.0013746153
0.0028462419
0.00094697462
0.0032487043
0.00048283755
0.0035261067
6.466963e-08
0.003667626
-0.00048271282
0.0036676457
-0.00094686841
0.0035261731
-0.0013745239
0.0032487858
-0.0017492035
0.0028463369
-0.0020565648
0.0023346528
-0.0022848511
0.0017335561
-0.0024252839
0.0010661756
-0.0024723355
0.00035800196
-0.0024241256
-0.000363726
-0.0022826994
-0.0010710111
-0.0020537199
-0.0017367814
-0.0017461024
-0.0023357254
-0.0013716541
-0.0028450791
-0.00094469566
-0.0032453711
-0.00048160027
-0.0035211183
-0.0036617797
0.00029619524
-0.0039580125
0.00058115952
-0.0038061124
0.00084400304
-0.0035082477
0.0010746949
-0.0030758525
0.0012645017
-0.0025256424
0.0014062288
-0.0018786355
0.0014942874
-0.0011592142
0.0015248172
-0.00039438165
0.0014962438
0.00038643607
0.0014098564
0.0011524191
0.0012692399
0.001874043
0.001079822
0.0025239435
0.00084873841
0.0030773255
0.00058480154
0.0035126412
0.00029823269
0.0038126756
4.5992295e-08
0.0039658127
-0.00029814196
0.0039658336
-0.0005847268
0.0038127579
-0.00084866126
0.0035127203
-0.0010797266
0.0030774022
-0.0012691633
0.0025240896
-0.0014098015
0.0018741943
-0.0014962271
0.0011526012
-0.0015248285
0.00038660337
-0.001494308
-0.00039424649
-0.0014062959
-0.0011590232
-0.0012646017
-0.0018784756
-0.0010748133
-0.0025255139
-0.00084411035
-0.0030757821
-0.00058121519
-0.0035082662
-0.00029623262
-0.0038061009
-0.0039579918
1.8225069e-05
-0.0039761635
3.54718e-05
-0.0038233592
5.1252357e-05
-0.0035240282
6.4962953e-05
-0.0030895631
7.6282582e-05
-0.002536962
8.5151629e-05
-0.0018875046
9.1251949e-05
-0.0011653145
9.3657863e-05
-0.00039678757
9.1811119e-05
0.00038828282
8.6236764e-05
0.0011579935
7.7721868e-05
0.0018825579
6.6506202e-05
0.0025351591
5.2617645e-05
0.0030912141
3.6439475e-05
0.0035288194
1.8664822e-05
0.0038304502
-3.7368223e-08
0.0039845149
-1.871765e-05
0.0039845139
-3.6456377e-05
0.0038304967
-5.2556601e-05
0.0035288205
-6.634973e-05
0.0030911953
-7.7560866e-05
0.0025353007
-8.6124089e-05
0.0018827576
-9.1777832e-05
0.0011582549
-9.3670213e-05
0.00038849575
-9.1279648e-05
-0.00039663706
-8.5263057e-05
-0.0011650398
-7.6467003e-05
-0.0018872717
-6.5163233e-05
-0.0025368176
-5.1374164e-05
-0.0030895712
-3.543734e-05
-0.003524203
-1.8097682e-05
-0.0038234406
-0.0039761636
-0.00016578346
-0.003810211
-0.00032649679
-0.0036626458
-0.00047618144
-0.0033743436
-0.00060950541
-0.0029562392
-0.00072129108
-0.0024251764
-0.00080650506
-0.0018022906
-0.00086097061
-0.001110849
-0.00088227346
-0.00037548472
-0.00086936052
0.00037536988
-0.00082192426
0.0011105572
-0.00074138992
0.0018020235
-0.00063127853
0.0024250478
-0.00049641421
0.0029563497
-0.0003421586
0.0033745638
-0.00017445644
0.0036627481
-1.55265e-07
0.0038102137
0.00017422108
0.0038101376
0.00034205922
0.0036626585
0.00049648701
0.0033743927
0.00063152312
0.0029561592
0.00074163375
0.0024251901
0.00082207847
0.0018023128
0.00086938957
0.0011109438
0.00088225189
0.00037563344
0.00086095597
-0.00037534114
0.00080637201
-0.0011104558
0.00072104875
-0.0018019484
0.00060924396
-0.0024250128
0.00047604519
-0.0029563724
0.00032660395
-0.0033747618
0.00016606287
-0.0036628995
-0.0038102697
0.00017770081
-0.0039880853
0.00034892214
-0.0038338672
0.00050647592
-0.0035318973
0.00064419495
-0.0030939582
0.00075654018
-0.0025375216
0.00083865099
-0.0018844014
0.00088702251
-0.0011592205
0.00090028753
-0.00038874974
0.00087864541
0.00039701201
0.00082306666
0.001166136
0.00073609978
0.0018889904
0.0006220661
0.0025390814
0.00048613425
0.0030922816
0.00033351567
0.0035271823
0.00016955926
0.0038267045
1.5182787e-07
0.0039796211
-0.00016932946
0.0039796189
-0.00033341935
0.0038267484
-0.00048620699
0.0035271803
-0.00062230789
0.0030922601
-0.00073634059
0.0025392228
-0.00082321911
0.0018891914
-0.00087867384
0.0011663986
-0.00090026578
0.00039722538
-0.00088700821
-0.00038859871
-0.00083851641
-0.0011589476
-0.0007562947
-0.0018841701
-0.00064392989
-0.0025373776
-0.00050633852
-0.0030939638
-0.0003490335
-0.0035320668
-0.00017798805
-0.0038339449
-0.0039880843
-1.5231516e-05
-0.0039729261
-2.9560881e-05
-0.0038195378
-4.2510279e-05
-0.003518948
-5.3580771e-05
-0.0030828877
-6.2543114e-05
-0.0025285592
-6.9430735e-05
-0.0018775138
-7.4028481e-05
-0.0011546227
-7.5534711e-05
-0.00038724351
-7.3487402e-05
0.0003949647
-6.847718e-05
0.0011611257
-6.1330276e-05
0.0018818435
-5.2263418e-05
0.0025300146
-4.122522e-05
0.0030812434
-2.8480112e-05
0.0035144372
-1.4583319e-05
0.0038128077
3.9514674e-08
0.0039649983
1.4639348e-05
0.003965019
2.8497996e-05
0.0038128898
4.116292e-05
0.0035145154
5.2104348e-05
0.0030813187
6.1166069e-05
0.002530161
6.8361927e-05
0.0018819955
7.3452064e-05
0.0011613084
7.5545589e-05
0.00039513186
7.4055131e-05
-0.00038710826
6.9539582e-05
-0.001154432
6.2723961e-05
-0.0018773545
5.3777246e-05
-0.0025284309
4.2629677e-05
-0.0030828162
2.9526988e-05
-0.0035189641
1.5106872e-05
-0.0038195248
-0.0039729051
-0.00029448559
-0.0036784193
-0.00057751286
-0.0035365105
-0.00083816247
-0.0032582983
-0.0010663731
-0.0028546771
-0.0012534553
-0.0023414771
-0.0013923498
-0.0017386193
-0.0014776967
-0.0010692758
-0.001505922
-0.00035901823
-0.0014757695
0.00036481223
-0.0013888206
0.0010741768
-0.0012488646
0.0017418875
-0.0010614222
0.0023425722
-0.00083358318
0.0028534043
-0.00057398471
0.0032548388
-0.00029256812
0.0035313911
-4.531617e-08
0.0036724755
0.00029247833
0.0036724954
0.00057391018
0.0035314579
0.00083350512
0.0032549205
0.0010613246
0.0028534992
0.0012487857
0.0023426999
0.0013887636
0.0017420177
0.001475751
0.001074321
0.0015059314
0.00036495148
0.0014777154
-0.00035889224
0.0013924146
-0.0010691313
0.0012535526
-0.0017384925
0.0010664888
-0.0023413671
0.00083826791
-0.0028545953
0.00057756831
-0.0032582645
0.00029452398
-0.0035364805
-0.0036784023
-0.00047875555
-0.0031996146
-0.00093908342
-0.0030761827
-0.0013632108
-0.002834171
-0.0017348102
-0.0024830776
-0.0020396434
-0.0020366439
-0.0022660605
-0.0015122022
-0.0024053482
-0.00092998809
-0.0024520186
-0.00031234781
-0.0024042147
0.00031700835
-0.0022639512
0.00093391325
-0.0020368534
0.0015147897
-0.0017317644
0.0020374832
-0.0013603925
0.0024820324
-0.00093695113
0.0028313974
-0.0004776646
0.0030721046
-6.4961603e-08
0.0031948759
0.00047753928
0.0031948911
0.00093684432
0.0030721529
0.0013603003
0.0028314645
0.0017316833
0.0024821162
0.0020367959
0.0020375873
0.0022639135
0.0015149001
0.0024042016
0.00093403287
0.0024520256
0.00031712743
0.0024053681
-0.00031223469
0.0022661078
-0.00092987103
0.0020397128
-0.0015120975
0.001734899
-0.0020365532
0.0013633102
-0.0024830065
0.00093917515
-0.0028341295
0.00047884902
-0.0030761544
-0.0031996025
-0.000539393
-0.0026601718
-0.0010580607
-0.002557515
-0.0015359949
-0.0023562367
-0.0019548229
-0.0020642497
-0.0022984788
-0.001692988
-0.0025537874
-0.0012568937
-0.0027109511
-0.00077282439
-0.0027638925
-0.00025940639
-0.0027105538
0.00026366967
-0.0025530532
0.00077641266
-0.0022975122
0.0012592487
-0.0019537745
0.0016937456
-0.0015350371
0.002063295
-0.0010573585
0.0023537188
-0.0005390724
0.0025538184
-5.9806785e-08
0.0026558633
0.0005389564
0.0026558749
0.0010572552
0.0025538541
0.0015349477
0.002353772
0.0019537001
0.0020633637
0.0022974584
0.001693829
0.0025530185
0.00125934
0.00271054
0.0007765114
0.0027638976
0.00026376987
0.0027109719
-0.00025930904
0.0025538294
-0.00077272854
0.0022985395
-0.0012568076
0.0019549003
-0.001692914
0.0015360846
-0.0020641909
0.0010581532
-0.002356198
0.00053948945
-0.0025574906
-0.0026601628
-0.00051081282
-0.0021493157
-0.0010019969
-0.0020663309
-0.0014546065
-0.0019036272
-0.0018512459
-0.0016676102
-0.0021766998
-0.0013675341
-0.0024184989
-0.0010150946
-0.0025673765
-0.00062394674
-0.0026176221
-0.0002091608
-0.0025673127
0.00021336025
-0.0024183835
0.00062748347
-0.0021765486
0.0010174138
-0.0018510866
0.0013682835
-0.0014544756
0.001666684
-0.0010019263
0.0019011695
-0.0005108233
0.0020627155
-4.9833197e-08
0.0021450898
0.00051072616
0.0021450989
0.0010018374
0.0020627429
0.0014543974
0.001901212
0.0018510214
0.0016667397
0.0021764998
0.0013683506
0.0024183513
0.0010174884
0.0025672986
0.00062756413
0.0026176255
0.00021344294
0.0025673961
-0.00020907961
0.0024185361
-0.00062386852
0.0021767526
-0.0010150241
0.0018513122
-0.0013674736
0.001454683
-0.0016675617
0.0010020783
-0.0019035933
0.00051089771
-0.0020663101
-0.0021493084
-0.00043798386
-0.0017112953
-0.00085912738
-0.0016451874
-0.0012471786
-0.001515576
-0.001587219
-0.0013275698
-0.0018662032
-0.0010885499
-0.002073449
-0.0008078488
-0.0022010335
-0.00049636227
-0.0022440869
-0.0001661074
-0.0022009724
0.00017024578
-0.0020733398
0.00049985085
-0.0018660708
0.00081014484
-0.0015870919
0.0010893046
-0.0012470814
0.0013266736
-0.00085907998
0.0015131681
-0.00043799817
0.0016416337
-4.0763468e-08
0.0017071324
0.00043791851
0.0017071396
0.00085900612
0.0016416553
0.0012470159
0.0015132022
0.0015870369
0.0013267186
0.0018660288
0.0010893588
0.0020733117
0.0008102056
0.0022009594
0.0004999164
0.0022440891
0.00017031325
0.0022010503
-0.0001660408
0.0020734804
-0.00049629862
0.0018662475
-0.00080779118
0.0015872741
-0.0010885002
0.0012472421
-0.0013275297
0.00085919597
-0.0015155472
0.00043805563
-0.0016451697
-0.0017112893
-0.00035474465
-0.00135652
-0.00069583976
-0.0013040922
-0.0010101122
-0.0012013035
-0.0012854738
-0.0010522082
-0.0015113584
-0.00086266532
-0.0016791212
-0.00064008598
-0.0017823604
-0.00039312303
-0.00181715
-0.0001313178
-0.0017821792
0.00013527499
-0.0016787918
0.00039646342
-0.0015109394
0.00064229243
-0.0012850358
0.00086340102
-0.001009726
0.0010513637
-0.00069556706
0.0011990091
-0.00035462987
0.0013006965
-3.3451075e-08
0.001352536
0.00035456443
0.0013525418
0.00069550605
0.0013007137
0.0010096717
0.0011990366
0.0012849902
0.0010514001
0.0015109042
0.0008634448
0.0016787681
0.0006423417
0.001782168
0.00039651652
0.0018171515
0.00013532973
0.0017823743
-0.00013126361
0.001679147
-0.00039307135
0.0015113948
-0.00064003899
0.0012855193
-0.00086262467
0.0010101648
-0.0010521752
0.00069589707
-0.0012012795
0.00035480485
-0.0013040775
-0.0013565151
-0.00027996758
-0.0010765267
-0.00054915749
-0.0010349023
-0.0007971653
-0.00095329572
-0.0010144455
-0.000834928
-0.0011926565
-0.00068445435
-0.0013249785
-0.00050776399
-0.0014063678
-0.00031173373
-0.0014337384
-0.00010394716
-0.0014060669
0.00010760348
-0.0013244271
0.00031482366
-0.0011919456
0.00050981093
-0.0010136897
0.00068514506
-0.00079648352
0.00083415755
-0.0005486556
0.00095118123
-0.00027972342
0.0010317643
-2.7629567e-08
0.0010728402
0.00027966934
0.0010728448
0.00054860502
0.001031778
0.0007964384
0.00095120323
0.0010136517
0.0008341868
0.0011919162
0.00068518029
0.0013244072
0.00050985068
0.0014060573
0.00031486648
0.0014337393
0.00010764766
0.0014063791
-0.00010390335
0.0013249997
-0.00031169194
0.0011926865
-0.00050772587
0.0010144831
-0.00068442126
0.00079720897
-0.00083490107
0.00054920543
-0.00095327592
0.00028001811
-0.0010348902
-0.0010765227
-0.00022009923
-0.0008564059
-0.00043171799
-0.00082328358
-0.00062666815
-0.00075834556
-0.00079744108
-0.00066415507
-0.00093747797
-0.00054441746
-0.0010414201
-0.00040382191
-0.0011053086
-0.0002478452
-0.0011267272
-8.2528519e-05
-0.0011048869
8.5763195e-05
-0.0010406442
0.00025058091
-0.00093647097
0.0004056377
-0.0007963607
0.00054503479
-0.0006256819
0.00066347875
-0.00043097835
0.00075647768
-0.00021972125
0.00082050722
-2.2955749e-08
0.00085314187
0.00021967629
0.00085314555
0.00043093622
0.00082051809
0.00062564427
0.00075649518
0.00079632898
0.00066350208
0.00093644633
0.00054506294
0.0010406275
0.00040566953
0.0011048788
0.00025061519
0.0011267278
8.5798598e-05
0.0011053178
-8.2493375e-05
0.0010414375
-0.00024781164
0.0009375029
-0.00040379123
0.0007974724
-0.00054439076
0.00062670462
-0.00066413329
0.00043175819
-0.00075832949
0.00022014169
-0.00082327371
-0.00085640258
-0.00018384998
-0.00067253706
-0.00036061786
-0.0006465157
-0.00052346339
-0.00059550003
-0.00066611339
-0.00052150507
-0.00078308664
-0.0004274442
-0.00086990354
-0.00031700501
-0.00092325415
-0.00019449459
-0.00094111936
-6.466331e-05
-0.00092283933
6.7483169e-05
-0.00086913889
0.00019688047
-0.00078209107
0.00031858988
-0.00066504101
0.00042798472
-0.00052248035
0.00052091809
-0.00035987708
0.00059387441
-0.00018346784
0.00064409798
-1.9770486e-08
0.0006696938
0.00018342911
0.00066969667
0.00035984073
0.00064410647
0.0005224478
0.0005938881
0.00066501351
0.00052093637
0.00078206964
0.00042800681
0.0008691243
0.00031861488
0.00092283209
0.0001969074
0.0009411197
6.7510991e-05
0.00092326199
-6.4635667e-05
0.00086991853
-0.00019446817
0.00078310812
-0.00031698082
0.00066614049
-0.00042742312
0.00052349504
-0.00052148785
0.00036065285
-0.0005954873
0.00018388701
-0.00064650788
-0.00067253443
-0.0001489555
-0.00052356607
-0.00029216228
-0.00050330892
-0.0004240687
-0.00046359361
-0.00053958592
-0.00040598785
-0.00063427136
-0.00033275877
-0.00070449973
-0.00024677664
-0.00074759954
-0.00015139478
-0.0007619492
-5.0313652e-05
-0.00074703524
5.2569209e-05
-0.00070345838
0.0001533036
-0.00063291348
0.00024804499
-0.00053812081
0.00033319205
-0.00042272209
0.00040551937
-0.00029114165
0.00046229397
-0.00014841872
0.00050137505
-1.6195412e-08
0.00052129127
0.00014838699
0.00052129349
0.00029111185
0.0005013816
0.0004226954
0.00046230455
0.00053809825
0.00040553353
0.00063289588
0.00033320918
0.00070344637
0.00024806438
0.00074702925
0.00015332452
0.00076194942
5.2590825e-05
0.00074760591
-5.0292159e-05
0.00070451196
-0.00015137422
0.00063428893
-0.00024675779
0.00053960812
-0.00033274231
0.00042409467
-0.0004059744
0.00029219101
-0.00046358364
0.00014898593
-0.00050330279
-0.000523564
-0.00016343513
-0.00036011454
-0.00032057541
-0.00034616864
-0.0004653403
-0.00031882872
-0.00059215072
-0.00027917743
-0.00069612961
-0.00022877987
-0.00077328992
-0.00016961633
-0.00082068642
-0.00010399828
-0.00083652544
-3.4474632e-05
-0.00082022576
3.6269526e-05
-0.00077243998
0.00010551782
-0.00069502182
0.00017062683
-0.00059095633
0.00022912656
-0.00046424372
0.00027880677
-0.00031974626
0.00031779651
-0.00016300258
0.00034463138
-1.6854704e-08
0.00035830554
0.00016296954
0.00035830709
0.00031971519
0.00034463596
0.00046421584
0.00031780391
0.0005909327
0.00027881667
0.00069500333
0.00022913855
0.0007724273
0.00017064041
0.00082021935
0.00010553247
0.00083652551
3.628466e-05
0.00082069293
-3.445958e-05
0.0007733026
-0.00010398388
0.00069614795
-0.00016960314
0.000592174
-0.00022876837
0.00046536763
-0.00027916803
0.00032060574
-0.00031882175
0.0001634673
-0.00034616436
-0.00036011309
-0.00012410389
-0.00023599824
-0.00024341081
-0.00022686173
-0.00035328981
-0.00020894971
-0.00044949667
-0.00018297058
-0.00052832799
-0.00014994856
-0.00058676447
-0.00011117985
-0.00062258481
-6.8177937e-05
-0.00063444708
-2.2612357e-05
-0.00062193637
2.3758819e-05
-0.00058556703
6.9148485e-05
-0.00052676549
0.00011182529
-0.0004478087
0.00015016977
-0.00035173532
0.00018273339
-0.00024222862
0.0002082898
-0.00012347633
0.00022587909
-1.281006e-08
0.00023484202
0.00012345122
0.00023484306
0.00024220499
0.00022588219
0.0003517141
0.00020829479
0.0004477907
0.00018274007
0.0005267514
0.00015017785
0.00058555737
0.00011183444
0.0006219315
6.9158341e-05
0.00063444715
2.3769006e-05
0.0006225898
-2.2602225e-05
0.00058677415
-6.8168237e-05
0.00052834196
-0.00011117094
0.00044951437
-0.00014994077
0.00035331054
-0.0001829642
0.00024343377
-0.00020894498
0.00012412823
-0.00022685882
-0.00023599726
-0.00018807072
-4.7908243e-05
-0.00036890385
-4.6028592e-05
-0.000535506
-4.2347561e-05
-0.00068145844
-3.7018137e-05
-0.00080114702
-3.0259985e-05
-0.00088997866
-2.2348207e-05
-0.00094455709
-1.3599505e-05
-0.00096281472
-4.3547296e-06
-0.00094408438
5.0284773e-06
-0.00088910604
1.4170152e-05
-0.00080000943
2.272868e-05
-0.00068023168
3.0392018e-05
-0.00053437993
3.6881635e-05
-0.00036805341
4.1963277e-05
-0.00018762924
4.5454928e-05
-1.9585876e-08
4.7232361e-05
0.00018759086
4.7232621e-05
0.00036801734
4.5455702e-05
0.00053434759
4.1964543e-05
0.00068020431
3.6883352e-05
0.00079998802
3.0394128e-05
0.00088909136
2.27311e-05
0.00094407692
1.4172781e-05
0.00096281474
5.0311942e-06
0.00094456454
-4.3520275e-06
0.00088999326
-1.3596964e-05
0.00080116825
-2.2345929e-05
0.00068148553
-3.0258053e-05
0.00053553793
-3.7016605e-05
0.00036893941
-4.2346458e-05
0.00018810852
-4.6027929e-05
-4.7908022e-05
-5.9767506e-05
-0.00011720734
-0.00017007212
-0.00021630944
-0.00025413635
-0.00028210838
-0.00029917234
-0.00030469881
-0.00029850414
-0.00028087429
-0.00025252508
-0.0002145675
-0.00016846595
-0.00011598279
-5.9112444e-05
-8.0770524e-09
5.9096596e-05
0.00011596785
0.0001684525
0.00021455606
0.0002525161
0.00028086814
0.00029850105
0.00030469889
0.00029917557
0.00028211459
0.00025414524
0.00021632062
0.00017008512
0.00011722166
5.978263e-05
)
;

boundaryField
{
    leftWall
    {
        type            cyclic;
        value           nonuniform List<scalar> 
32
(
1.1588993e-08
1.2190343e-08
1.316733e-08
1.4575747e-08
1.6492831e-08
1.9003799e-08
2.2204656e-08
2.6206085e-08
3.1133423e-08
3.7101953e-08
4.4007113e-08
5.0421082e-08
4.957569e-08
2.0456191e-08
-7.4063941e-08
-1.6904028e-07
1.7351032e-07
7.2248426e-08
-2.1136234e-08
-4.9197841e-08
-4.9749165e-08
-4.3349264e-08
-3.6516198e-08
-3.0617323e-08
-2.5708015e-08
-2.1609361e-08
-1.885682e-08
-1.5499527e-08
-1.6398488e-08
-1.2397879e-08
-1.928367e-08
-7.6950841e-09
)
;
    }
    rightWall
    {
        type            cyclic;
        value           nonuniform List<scalar> 
32
(
-1.1588993e-08
-1.2190343e-08
-1.316733e-08
-1.4575747e-08
-1.6492831e-08
-1.9003799e-08
-2.2204656e-08
-2.6206085e-08
-3.1133423e-08
-3.7101953e-08
-4.4007113e-08
-5.0421082e-08
-4.957569e-08
-2.0456191e-08
7.4063941e-08
1.6904028e-07
-1.7351032e-07
-7.2248426e-08
2.1136234e-08
4.9197841e-08
4.9749165e-08
4.3349264e-08
3.6516198e-08
3.0617323e-08
2.5708015e-08
2.1609361e-08
1.885682e-08
1.5499527e-08
1.6398488e-08
1.2397879e-08
1.928367e-08
7.6950841e-09
)
;
    }
    lowerWall
    {
        type            calculated;
        value           uniform 0;
    }