/*--------------------------------*- C++ -*----------------------------------*\
| =========                 |                                                 |
| \\      /  F ield         | OpenFOAM: The Open Source CFD Toolbox           |
|  \\    /   O peration     | Version:  2106                                  |
|   \\  /    A nd           | Website:  www.openfoam.com                      |
|    \\/     M anipulation  |                                                 |
\*---------------------------------------------------------------------------*/
FoamFile
{
    version     2.0;
    format      ascii;
    arch        "LSB;label=32;scalar=64";
    class       volVectorField;
    location    "0.028";
    object      U;
}
// * * * * * * * * * * * * * * * * * * * * * * * * * * * * * * * * * * * * * //

dimensions      [0 1 -1 0 0 0 0];

internalField   nonuniform List<vector> 
4096
(
(-0.0027530819 0.0027429321 0)
(-0.0082323304 0.0027161143 0)
(-0.01363109 0.0026627526 0)
(-0.018896615 0.002583391 0)
(-0.023977518 0.0024788381 0)
(-0.028824292 0.0023501568 0)
(-0.033389807 0.0021986524 0)
(-0.037629785 0.0020258571 0)
(-0.041503234 0.0018335129 0)
(-0.044972854 0.0016235513 0)
(-0.04800539 0.0013980721 0)
(-0.050571951 0.0011593196 0)
(-0.052648272 0.00090965887 0)
(-0.054214931 0.00065154738 0)
(-0.055257556 0.00038750394 0)
(-0.05576673 0.0001201539 0)
(-0.055738539 -0.00014797982 0)
(-0.055173941 -0.00041428357 0)
(-0.054079202 -0.00067621295 0)
(-0.052465613 -0.00093127574 0)
(-0.050349387 -0.0011770596 0)
(-0.047751474 -0.0014112535 0)
(-0.044697343 -0.0016316677 0)
(-0.041216716 -0.0018362521 0)
(-0.037343269 -0.0020231139 0)
(-0.033114303 -0.002190532 0)
(-0.028570387 -0.0023369713 0)
(-0.023754969 -0.002461094 0)
(-0.018713975 -0.0025617701 0)
(-0.013495376 -0.0026380857 0)
(-0.0081487591 -0.0026893493 0)
(-0.0027248646 -0.0027150975 0)
(0.0027248668 -0.0027150975 0)
(0.0081487613 -0.0026893493 0)
(0.013495379 -0.0026380857 0)
(0.018713977 -0.0025617701 0)
(0.023754971 -0.002461094 0)
(0.028570389 -0.0023369712 0)
(0.033114305 -0.002190532 0)
(0.037343271 -0.0020231139 0)
(0.041216718 -0.0018362521 0)
(0.044697345 -0.0016316676 0)
(0.047751476 -0.0014112535 0)
(0.050349388 -0.0011770596 0)
(0.052465615 -0.00093127573 0)
(0.054079203 -0.00067621296 0)
(0.055173942 -0.0004142836 0)
(0.055738541 -0.00014797987 0)
(0.055766732 0.00012015383 0)
(0.055257558 0.00038750386 0)
(0.054214933 0.00065154727 0)
(0.052648275 0.00090965873 0)
(0.050571954 0.0011593195 0)
(0.048005393 0.0013980719 0)
(0.044972857 0.0016235512 0)
(0.041503238 0.0018335127 0)
(0.037629789 0.0020258569 0)
(0.033389812 0.0021986522 0)
(0.028824297 0.0023501567 0)
(0.023977524 0.002478838 0)
(0.018896621 0.0025833909 0)
(0.013631096 0.0026627525 0)
(0.0082323362 0.0027161143 0)
(0.0027530878 0.0027429321 0)
(-0.0027734173 0.0082452671 0)
(-0.0082931282 0.0081646451 0)
(-0.013731727 0.0080042242 0)
(-0.019036062 0.0077656413 0)
(-0.02415435 0.0074513274 0)
(-0.029036707 0.0070644795 0)
(-0.033635647 0.0066090226 0)
(-0.03790656 0.0060895647 0)
(-0.041808154 0.0055113437 0)
(-0.045302857 0.0048801679 0)
(-0.04835718 0.0042023507 0)
(-0.050942032 0.0034846406 0)
(-0.053032986 0.0027341479 0)
(-0.054610501 0.0019582665 0)
(-0.055660095 0.0011645932 0)
(-0.056172411 0.00036088666 0)
(-0.056143366 -0.00044507372 0)
(-0.055574056 -0.0012455435 0)
(-0.054470792 -0.0020328575 0)
(-0.052844969 -0.0027995237 0)
(-0.050712934 -0.0035382915 0)
(-0.048095807 -0.0042422153 0)
(-0.045019254 -0.0049047145 0)
(-0.041513218 -0.0055196288 0)
(-0.037611626 -0.0060812697 0)
(-0.033352047 -0.006584466 0)
(-0.028775341 -0.0070246048 0)
(-0.023925261 -0.0073976667 0)
(-0.018848054 -0.0077002564 0)
(-0.013592026 -0.0079296277 0)
(-0.008207101 -0.0080837035 0)
(-0.0027443707 -0.0081610909 0)
(0.0027443731 -0.0081610909 0)
(0.0082071034 -0.0080837035 0)
(0.013592028 -0.0079296276 0)
(0.018848057 -0.0077002563 0)
(0.023925264 -0.0073976666 0)
(0.028775343 -0.0070246047 0)
(0.03335205 -0.0065844659 0)
(0.037611628 -0.0060812696 0)
(0.041513221 -0.0055196287 0)
(0.045019256 -0.0049047144 0)
(0.048095809 -0.0042422153 0)
(0.050712936 -0.0035382914 0)
(0.052844971 -0.0027995236 0)
(0.054470794 -0.0020328575 0)
(0.055574058 -0.0012455436 0)
(0.056143368 -0.00044507384 0)
(0.056172413 0.00036088647 0)
(0.055660098 0.001164593 0)
(0.054610503 0.0019582662 0)
(0.053032989 0.0027341475 0)
(0.050942035 0.0034846402 0)
(0.048357183 0.0042023502 0)
(0.045302861 0.0048801674 0)
(0.041808158 0.0055113432 0)
(0.037906564 0.0060895641 0)
(0.033635651 0.006609022 0)
(0.029036712 0.007064479 0)
(0.024154355 0.007451327 0)
(0.019036067 0.0077656409 0)
(0.013731733 0.0080042239 0)
(0.008293134 0.0081646449 0)
(0.0027734233 0.0082452671 0)
(-0.0027996121 0.013800171 0)
(-0.0083714421 0.013665205 0)
(-0.013861353 0.013396651 0)
(-0.019215663 0.012997254 0)
(-0.024382082 0.012471085 0)
(-0.029310234 0.0118235 0)
(-0.033952176 0.011061075 0)
(-0.03826287 0.010191528 0)
(-0.042200636 0.0092236348 0)
(-0.045727555 0.0081671218 0)
(-0.048809838 0.0070325626 0)
(-0.051418139 0.0058312581 0)
(-0.05352783 0.0045751137 0)
(-0.055119215 0.0032765105 0)
(-0.056177703 0.0019481762 0)
(-0.056693901 0.00060307048 0)
(-0.056663697 -0.00074578092 0)
(-0.056088248 -0.0020854002 0)
(-0.05497395 -0.0034029669 0)
(-0.053332334 -0.0046859484 0)
(-0.051179925 -0.0059222148 0)
(-0.048538062 -0.007100147 0)
(-0.045432663 -0.0082087373 0)
(-0.041893958 -0.0092376823 0)
(-0.037956193 -0.010177468 0)
(-0.033657285 -0.011019446 0)
(-0.029038461 -0.011755903 0)
(-0.024143871 -0.012380116 0)
(-0.019020169 -0.01288641 0)
(-0.013716088 -0.013270191 0)
(-0.0082819891 -0.013527988 0)
(-0.0027694085 -0.013657471 0)
(0.0027694114 -0.013657471 0)
(0.0082819919 -0.013527988 0)
(0.013716091 -0.013270191 0)
(0.019020172 -0.01288641 0)
(0.024143874 -0.012380116 0)
(0.029038464 -0.011755903 0)
(0.033657287 -0.011019446 0)
(0.037956195 -0.010177468 0)
(0.041893961 -0.0092376821 0)
(0.045432665 -0.0082087372 0)
(0.048538065 -0.0071001469 0)
(0.051179928 -0.0059222147 0)
(0.053332336 -0.0046859483 0)
(0.054973952 -0.0034029669 0)
(0.05608825 -0.0020854003 0)
(0.056663699 -0.00074578111 0)
(0.056693904 0.00060307019 0)
(0.056177705 0.0019481758 0)
(0.055119217 0.0032765099 0)
(0.053527832 0.004575113 0)
(0.051418142 0.0058312574 0)
(0.048809841 0.0070325618 0)
(0.045727559 0.0081671209 0)
(0.04220064 0.0092236339 0)
(0.038262874 0.010191528 0)
(0.03395218 0.011061074 0)
(0.029310239 0.011823499 0)
(0.024382087 0.012471084 0)
(0.019215669 0.012997253 0)
(0.013861358 0.013396651 0)
(0.0083714481 0.013665204 0)
(0.0027996181 0.013800171 0)
(-0.0028320357 0.019413499 0)
(-0.0084683774 0.019223585 0)
(-0.014021796 0.018845698 0)
(-0.019437955 0.018283703 0)
(-0.024663928 0.017543336 0)
(-0.029648736 0.016632141 0)
(-0.034343863 0.015559379 0)
(-0.038703745 0.014335921 0)
(-0.042686222 0.01297412 0)
(-0.046252947 0.011487674 0)
(-0.04936976 0.0098914687 0)
(-0.052007005 0.0082014111 0)
(-0.054139804 0.0064342581 0)
(-0.055748274 0.004607435 0)
(-0.056817696 0.0027388534 0)
(-0.057338619 0.00084673217 0)
(-0.057306924 -0.0010506013 0)
(-0.056723827 -0.0029348854 0)
(-0.055595839 -0.0047880924 0)
(-0.053934659 -0.0065926006 0)
(-0.051757033 -0.0083313558 0)
(-0.049084568 -0.0099880233 0)
(-0.045943495 -0.011547129 0)
(-0.042364402 -0.012994191 0)
(-0.038381925 -0.014315836 0)
(-0.034034409 -0.01549991 0)
(-0.029363541 -0.016535573 0)
(-0.024413953 -0.017413379 0)
(-0.019232806 -0.018125351 0)
(-0.013869356 -0.018665037 0)
(-0.0083745064 -0.019027556 0)
(-0.0028003404 -0.019209637 0)
(0.0028003436 -0.019209637 0)
(0.0083745096 -0.019027556 0)
(0.01386936 -0.018665037 0)
(0.019232809 -0.018125351 0)
(0.024413956 -0.017413379 0)
(0.029363544 -0.016535573 0)
(0.034034412 -0.01549991 0)
(0.038381927 -0.014315835 0)
(0.042364404 -0.01299419 0)
(0.045943497 -0.011547129 0)
(0.04908457 -0.0099880231 0)
(0.051757036 -0.0083313556 0)
(0.053934661 -0.0065926005 0)
(0.055595841 -0.0047880924 0)
(0.05672383 -0.0029348855 0)
(0.057306926 -0.0010506015 0)
(0.057338621 0.0008467318 0)
(0.056817698 0.0027388529 0)
(0.055748276 0.0046074343 0)
(0.054139807 0.0064342573 0)
(0.052007008 0.0082014101 0)
(0.049369763 0.0098914675 0)
(0.046252951 0.011487673 0)
(0.042686226 0.012974119 0)
(0.038703749 0.014335919 0)
(0.034343867 0.015559378 0)
(0.029648741 0.01663214 0)
(0.024663933 0.017543335 0)
(0.019437961 0.018283702 0)
(0.014021802 0.018845698 0)
(0.0084683837 0.019223584 0)
(0.0028320421 0.019413499 0)
(-0.0028724628 0.025097915 0)
(-0.0085892404 0.024852315 0)
(-0.014221843 0.02436363 0)
(-0.019715118 0.023636863 0)
(-0.025015348 0.022679442 0)
(-0.030070799 0.021501133 0)
(-0.034832244 0.020113928 0)
(-0.039253463 0.018531896 0)
(-0.043291697 0.01677103 0)
(-0.046908068 0.014849055 0)
(-0.050067953 0.012785232 0)
(-0.052741309 0.010600144 0)
(-0.054902947 0.008315466 0)
(-0.056532749 0.0059537353 0)
(-0.05761584 0.0035381144 0)
(-0.058142691 0.001092153 0)
(-0.058109179 -0.0013604554 0)
(-0.057516591 -0.0037961038 0)
(-0.056371575 -0.006191495 0)
(-0.05468604 -0.0085238599 0)
(-0.052477005 -0.010771165 0)
(-0.049766409 -0.012912309 0)
(-0.046580872 -0.014927305 0)
(-0.042951424 -0.016797446 0)
(-0.038913189 -0.018505464 0)
(-0.034505046 -0.020035662 0)
(-0.02976925 -0.021374041 0)
(-0.024751038 -0.022508407 0)
(-0.019498204 -0.023428457 0)
(-0.014060662 -0.024125863 0)
(-0.0084899861 -0.024594323 0)
(-0.0028389499 -0.024829613 0)
(0.0028389534 -0.024829613 0)
(0.0084899896 -0.024594323 0)
(0.014060665 -0.024125863 0)
(0.019498208 -0.023428457 0)
(0.024751042 -0.022508407 0)
(0.029769253 -0.021374041 0)
(0.034505049 -0.020035661 0)
(0.038913192 -0.018505463 0)
(0.042951427 -0.016797446 0)
(0.046580875 -0.014927304 0)
(0.049766412 -0.012912309 0)
(0.052477008 -0.010771165 0)
(0.054686043 -0.0085238596 0)
(0.056371578 -0.0061914949 0)
(0.057516593 -0.0037961039 0)
(0.058109181 -0.0013604556 0)
(0.058142694 0.0010921526 0)
(0.057615843 0.0035381138 0)
(0.056532752 0.0059537344 0)
(0.054902949 0.0083154649 0)
(0.052741312 0.010600143 0)
(0.050067956 0.012785231 0)
(0.046908071 0.014849053 0)
(0.043291701 0.016771028 0)
(0.039253468 0.018531894 0)
(0.03483225 0.020113926 0)
(0.030070804 0.021501132 0)
(0.025015354 0.02267944 0)
(0.019715124 0.023636861 0)
(0.01422185 0.024363629 0)
(0.0085892473 0.024852314 0)
(0.0028724698 0.025097915 0)
(-0.0029240609 0.030872059 0)
(-0.0087435034 0.030569845 0)
(-0.014477181 0.029968516 0)
(-0.020068902 0.029074238 0)
(-0.025463946 0.027896165 0)
(-0.030609616 0.026446331 0)
(-0.035455784 0.024739509 0)
(-0.03995539 0.022793034 0)
(-0.044064913 0.020626602 0)
(-0.047744796 0.018262046 0)
(-0.050959825 0.015723083 0)
(-0.053679459 0.01303505 0)
(-0.055878107 0.010224629 0)
(-0.05753535 0.0073195541 0)
(-0.058636103 0.0043483247 0)
(-0.059170732 0.0013399073 0)
(-0.059135101 -0.001676556 0)
(-0.05853058 -0.0046720343 0)
(-0.057363988 -0.0076178834 0)
(-0.055647492 -0.010486113 0)
(-0.053398451 -0.013249642 0)
(-0.050639222 -0.015882536 0)
(-0.04739692 -0.018360234 0)
(-0.043703132 -0.020659751 0)
(-0.039593608 -0.022759869 0)
(-0.035107903 -0.024641305 0)
(-0.030289006 -0.026286861 0)
(-0.025182928 -0.027681557 0)
(-0.019838277 -0.028812738 0)
(-0.01430581 -0.029670174 0)
(-0.0086379748 -0.030246125 0)
(-0.0028884297 -0.030535402 0)
(0.0028884335 -0.030535402 0)
(0.0086379786 -0.030246125 0)
(0.014305814 -0.029670174 0)
(0.019838281 -0.028812738 0)
(0.025182932 -0.027681556 0)
(0.03028901 -0.026286861 0)
(0.035107907 -0.024641304 0)
(0.039593611 -0.022759868 0)
(0.043703136 -0.02065975 0)
(0.047396923 -0.018360233 0)
(0.050639225 -0.015882535 0)
(0.053398454 -0.013249641 0)
(0.055647495 -0.010486113 0)
(0.057363991 -0.0076178832 0)
(0.058530583 -0.0046720343 0)
(0.059135104 -0.0016765562 0)
(0.059170734 0.0013399069 0)
(0.058636106 0.0043483239 0)
(0.057535352 0.0073195531 0)
(0.05587811 0.010224627 0)
(0.053679462 0.013035048 0)
(0.050959828 0.015723081 0)
(0.0477448 0.018262044 0)
(0.044064918 0.0206266 0)
(0.039955395 0.022793031 0)
(0.03545579 0.024739506 0)
(0.030609623 0.026446329 0)
(0.025463953 0.027896163 0)
(0.02006891 0.029074236 0)
(0.014477188 0.029968515 0)
(0.0087435113 0.030569844 0)
(0.0029240689 0.030872059 0)
(-0.0029914128 0.036762142 0)
(-0.0089448711 0.036402121 0)
(-0.014810504 0.035685779 0)
(-0.020530777 0.034620473 0)
(-0.026049663 0.033217126 0)
(-0.031313221 0.031490097 0)
(-0.036270146 0.029457009 0)
(-0.040872289 0.02713854 0)
(-0.045075133 0.024558182 0)
(-0.048838232 0.021741967 0)
(-0.052125596 0.018718168 0)
(-0.054906028 0.015516989 0)
(-0.057153403 0.012170221 0)
(-0.058846892 0.0087109094 0)
(-0.059971132 0.005172997 0)
(-0.060516332 0.001590978 0)
(-0.060478326 -0.0020004515 0)
(-0.059858576 -0.0055667334 0)
(-0.05866411 -0.0090737766 0)
(-0.056907418 -0.012488274 0)
(-0.054606292 -0.015778006 0)
(-0.051783627 -0.018912119 0)
(-0.048467171 -0.021861397 0)
(-0.04468924 -0.024598503 0)
(-0.040486393 -0.027098201 0)
(-0.035899078 -0.029337559 0)
(-0.030971241 -0.031296127 0)
(-0.025749914 -0.032956088 0)
(-0.020284779 -0.034302398 0)
(-0.014627711 -0.035322891 0)
(-0.0088323087 -0.036008364 0)
(-0.002953407 -0.036352649 0)
(0.0029534109 -0.036352648 0)
(0.0088323126 -0.036008364 0)
(0.014627715 -0.03532289 0)
(0.020284783 -0.034302398 0)
(0.025749918 -0.032956088 0)
(0.030971245 -0.031296126 0)
(0.035899082 -0.029337559 0)
(0.040486397 -0.027098201 0)
(0.044689244 -0.024598502 0)
(0.048467175 -0.021861396 0)
(0.05178363 -0.018912118 0)
(0.054606295 -0.015778005 0)
(0.056907421 -0.012488274 0)
(0.058664113 -0.0090737763 0)
(0.059858579 -0.0055667333 0)
(0.060478329 -0.0020004517 0)
(0.060516335 0.0015909775 0)
(0.059971135 0.0051729961 0)
(0.058846896 0.0087109081 0)
(0.057153406 0.01217022 0)
(0.054906032 0.015516987 0)
(0.052125601 0.018718166 0)
(0.048838237 0.021741964 0)
(0.045075138 0.024558179 0)
(0.040872295 0.027138537 0)
(0.036270153 0.029457006 0)
(0.031313228 0.031490094 0)
(0.026049671 0.033217124 0)
(0.020530786 0.034620471 0)
(0.014810513 0.035685778 0)
(0.0089448803 0.03640212 0)
(0.0029914223 0.036762141 0)
(-0.0030805506 0.042804854 0)
(-0.0092113823 0.042385471 0)
(-0.015251687 0.041551024 0)
(-0.021142166 0.040310098 0)
(-0.026825079 0.038675441 0)
(-0.032244847 0.036663808 0)
(-0.037348617 0.034295761 0)
(-0.0420868 0.031595422 0)
(-0.046413562 0.02859019 0)
(-0.050287278 0.025310419 0)
(-0.053670921 0.021789073 0)
(-0.056532413 0.018061353 0)
(-0.058844908 0.014164305 0)
(-0.06058702 0.010136423 0)
(-0.061742992 0.0060172406 0)
(-0.062302807 0.0018469195 0)
(-0.062262238 -0.0023341498 0)
(-0.061622844 -0.006485746 0)
(-0.060391908 -0.010568199 0)
(-0.05858233 -0.014542757 0)
(-0.056212459 -0.018371938 0)
(-0.053305885 -0.022019856 0)
(-0.049891188 -0.025452531 0)
(-0.046001639 -0.028638168 0)
(-0.041674874 -0.031547423 0)
(-0.036952518 -0.034153627 0)
(-0.031879798 -0.036433 0)
(-0.026505109 -0.038364827 0)
(-0.020879573 -0.039931615 0)
(-0.015056563 -0.041119215 0)
(-0.0090912266 -0.041916931 0)
(-0.0030399814 -0.042317589 0)
(0.0030399853 -0.042317589 0)
(0.0090912304 -0.041916931 0)
(0.015056567 -0.041119215 0)
(0.020879577 -0.039931614 0)
(0.026505113 -0.038364827 0)
(0.031879802 -0.036432999 0)
(0.036952522 -0.034153626 0)
(0.041674877 -0.031547422 0)
(0.046001643 -0.028638168 0)
(0.049891192 -0.02545253 0)
(0.053305889 -0.022019856 0)
(0.056212462 -0.018371938 0)
(0.058582333 -0.014542757 0)
(0.060391911 -0.010568199 0)
(0.061622847 -0.0064857459 0)
(0.062262241 -0.00233415 0)
(0.06230281 0.0018469189 0)
(0.061742995 0.0060172395 0)
(0.060587023 0.010136422 0)
(0.058844912 0.014164303 0)
(0.056532417 0.01806135 0)
(0.053670926 0.02178907 0)
(0.050287283 0.025310415 0)
(0.046413569 0.028590186 0)
(0.042086807 0.031595419 0)
(0.037348625 0.034295758 0)
(0.032244855 0.036663805 0)
(0.026825089 0.038675438 0)
(0.021142176 0.040310095 0)
(0.015251698 0.041551022 0)
(0.0092113934 0.04238547 0)
(0.0030805619 0.042804853 0)
(-0.00319895 0.049050385 0)
(-0.0095653931 0.048569593 0)
(-0.015837755 0.047612969 0)
(-0.021954411 0.046190376 0)
(-0.027855365 0.044316457 0)
(-0.033482876 0.042010456 0)
(-0.038782045 0.039295985 0)
(-0.043701374 0.036200739 0)
(-0.048193281 0.032756169 0)
(-0.052214565 0.028997114 0)
(-0.055726814 0.024961394 0)
(-0.058696763 0.020689385 0)
(-0.061096587 0.016223572 0)
(-0.062904136 0.011608084 0)
(-0.064103105 0.0068882306 0)
(-0.064683145 0.0021100311 0)
(-0.064639918 -0.0026802449 0)
(-0.063975085 -0.0074365307 0)
(-0.062696243 -0.012113399 0)
(-0.060816808 -0.016666483 0)
(-0.058355849 -0.021052871 0)
(-0.055337865 -0.025231486 0)
(-0.051792527 -0.029163432 0)
(-0.047754372 -0.03281232 0)
(-0.04326246 -0.036144563 0)
(-0.038359994 -0.039129639 0)
(-0.033093909 -0.041740332 0)
(-0.027514431 -0.043952933 0)
(-0.021674612 -0.045747421 0)
(-0.015629846 -0.047107605 0)
(-0.0094373647 -0.048021241 0)
(-0.0031557233 -0.048480118 0)
(0.0031557269 -0.048480118 0)
(0.0094373683 -0.048021241 0)
(0.015629849 -0.047107605 0)
(0.021674615 -0.045747421 0)
(0.027514435 -0.043952933 0)
(0.033093913 -0.041740332 0)
(0.038359998 -0.039129639 0)
(0.043262464 -0.036144562 0)
(0.047754376 -0.032812319 0)
(0.051792531 -0.029163431 0)
(0.055337869 -0.025231485 0)
(0.058355853 -0.02105287 0)
(0.060816812 -0.016666482 0)
(0.062696246 -0.012113399 0)
(0.063975088 -0.0074365305 0)
(0.064639922 -0.0026802451 0)
(0.064683149 0.0021100304 0)
(0.064103108 0.0068882293 0)
(0.06290414 0.011608082 0)
(0.061096592 0.016223569 0)
(0.058696768 0.020689382 0)
(0.055726819 0.02496139 0)
(0.052214571 0.02899711 0)
(0.048193288 0.032756165 0)
(0.043701382 0.036200734 0)
(0.038782054 0.03929598 0)
(0.033482887 0.042010452 0)
(0.027855377 0.044316453 0)
(0.021954423 0.046190373 0)
(0.015837768 0.047612966 0)
(0.0095654065 0.048569591 0)
(0.0031989636 0.049050385 0)
(-0.0033554116 0.055565267 0)
(-0.010033222 0.055020371 0)
(-0.016612295 0.053936212 0)
(-0.023027957 0.052323991 0)
(-0.029217255 0.050200338 0)
(-0.035119603 0.047587101 0)
(-0.040677411 0.044511087 0)
(-0.045836666 0.041003732 0)
(-0.050547473 0.037100727 0)
(-0.054764542 0.032841596 0)
(-0.058447615 0.028269237 0)
(-0.061561838 0.023429432 0)
(-0.064078068 0.01837034 0)
(-0.065973114 0.013141972 0)
(-0.067229912 0.007795659 0)
(-0.067837646 0.002383527 0)
(-0.067791791 -0.0030420294 0)
(-0.06709411 -0.008428855 0)
(-0.065752581 -0.013725527 0)
(-0.06378128 -0.01888183 0)
(-0.061200197 -0.023849199 0)
(-0.058035017 -0.02858115 0)
(-0.054316843 -0.033033667 0)
(-0.050081876 -0.037165572 0)
(-0.045371062 -0.040938857 0)
(-0.040229694 -0.044318982 0)
(-0.03470698 -0.047275146 0)
(-0.028855585 -0.049780518 0)
(-0.02273114 -0.05181244 0)
(-0.01639174 -0.053352586 0)
(-0.0098974071 -0.054387099 0)
(-0.0033095566 -0.054906686 0)
(0.0033095599 -0.054906686 0)
(0.0098974104 -0.054387099 0)
(0.016391743 -0.053352586 0)
(0.022731144 -0.05181244 0)
(0.028855588 -0.049780518 0)
(0.034706984 -0.047275146 0)
(0.040229698 -0.044318981 0)
(0.045371066 -0.040938856 0)
(0.05008188 -0.037165571 0)
(0.054316847 -0.033033666 0)
(0.058035021 -0.028581149 0)
(0.061200201 -0.023849198 0)
(0.063781283 -0.018881829 0)
(0.065752585 -0.013725527 0)
(0.067094113 -0.0084288548 0)
(0.067791795 -0.0030420296 0)
(0.06783765 0.0023835262 0)
(0.067229916 0.0077956575 0)
(0.065973118 0.013141969 0)
(0.064078073 0.018370337 0)
(0.061561843 0.023429428 0)
(0.058447621 0.028269232 0)
(0.054764549 0.032841591 0)
(0.050547482 0.037100722 0)
(0.045836676 0.041003727 0)
(0.040677422 0.044511081 0)
(0.035119616 0.047587096 0)
(0.029217269 0.050200333 0)
(0.023027972 0.052323987 0)
(0.01661231 0.053936209 0)
(0.010033239 0.055020369 0)
(0.003355428 0.055565267 0)
(-0.0035597396 0.062434814 0)
(-0.010644191 0.061822295 0)
(-0.017623869 0.060603603 0)
(-0.024430152 0.058791357 0)
(-0.030996245 0.056404282 0)
(-0.03725787 0.053466986 0)
(-0.043153934 0.050009652 0)
(-0.048627146 0.046067668 0)
(-0.053624588 0.041681205 0)
(-0.058098231 0.036894734 0)
(-0.062005389 0.031756512 0)
(-0.065309111 0.026318025 0)
(-0.0679785 0.020633415 0)
(-0.069988969 0.01475889 0)
(-0.071322431 0.0087521298 0)
(-0.071967412 0.002671688 0)
(-0.071919109 -0.0034235892 0)
(-0.071179377 -0.0094751355 0)
(-0.069756661 -0.015425216 0)
(-0.067665862 -0.021217453 0)
(-0.064928157 -0.026797332 0)
(-0.061570757 -0.032112667 0)
(-0.05762662 -0.037114049 0)
(-0.05313412 -0.041755247 0)
(-0.048136669 -0.04599359 0)
(-0.042682297 -0.049790295 0)
(-0.036823199 -0.053110777 0)
(-0.030615246 -0.055924905 0)
(-0.024117472 -0.058207233 0)
(-0.017391526 -0.059937179 0)
(-0.010501117 -0.06109918 0)
(-0.0035114348 -0.061682799 0)
(0.0035114376 -0.061682799 0)
(0.01050112 -0.06109918 0)
(0.017391529 -0.059937179 0)
(0.024117475 -0.058207233 0)
(0.03061525 -0.055924905 0)
(0.036823203 -0.053110776 0)
(0.042682301 -0.049790295 0)
(0.048136673 -0.045993589 0)
(0.053134124 -0.041755247 0)
(0.057626624 -0.037114048 0)
(0.061570761 -0.032112666 0)
(0.064928162 -0.026797331 0)
(0.067665866 -0.021217452 0)
(0.069756664 -0.015425215 0)
(0.07117938 -0.0094751353 0)
(0.071919112 -0.0034235895 0)
(0.071967416 0.002671687 0)
(0.071322435 0.0087521279 0)
(0.069988974 0.014758888 0)
(0.067978505 0.020633411 0)
(0.065309117 0.02631802 0)
(0.062005396 0.031756506 0)
(0.058098239 0.036894728 0)
(0.053624598 0.041681198 0)
(0.048627158 0.046067661 0)
(0.043153947 0.050009645 0)
(0.037257885 0.05346698 0)
(0.030996261 0.056404276 0)
(0.024430169 0.058791351 0)
(0.017623887 0.060603599 0)
(0.01064421 0.061822292 0)
(0.0035597591 0.062434813 0)
(-0.0038221124 0.069764676 0)
(-0.011428738 0.069080002 0)
(-0.018922893 0.067717763 0)
(-0.026230918 0.065692087 0)
(-0.033281111 0.063023947 0)
(-0.040004475 0.059740892 0)
(-0.046335433 0.055876712 0)
(-0.052212488 0.051471017 0)
(-0.057578839 0.046568758 0)
(-0.062382928 0.041219687 0)
(-0.066578931 0.035477775 0)
(-0.070127174 0.029400592 0)
(-0.072994475 0.023048658 0)
(-0.075154417 0.016484786 0)
(-0.076587549 0.0097734198 0)
(-0.077281514 0.0029799643 0)
(-0.077231107 -0.00382986 0)
(-0.076438265 -0.010590654 0)
(-0.074911991 -0.017237954 0)
(-0.072668222 -0.023708815 0)
(-0.069729629 -0.029942369 0)
(-0.066125366 -0.035880351 0)
(-0.061890769 -0.041467588 0)
(-0.057066997 -0.046652453 0)
(-0.051700632 -0.051387284 0)
(-0.045843233 -0.055628762 0)
(-0.039550848 -0.059338248 0)
(-0.032883494 -0.062482077 0)
(-0.025904598 -0.065031814 0)
(-0.018680414 -0.066964457 0)
(-0.011279422 -0.068262614 0)
(-0.003771701 -0.06891462 0)
(0.0037717035 -0.06891462 0)
(0.011279424 -0.068262615 0)
(0.018680417 -0.066964458 0)
(0.025904601 -0.065031814 0)
(0.032883498 -0.062482078 0)
(0.039550852 -0.059338248 0)
(0.045843237 -0.055628762 0)
(0.051700636 -0.051387283 0)
(0.057067001 -0.046652452 0)
(0.061890774 -0.041467587 0)
(0.066125371 -0.03588035 0)
(0.069729633 -0.029942368 0)
(0.072668226 -0.023708813 0)
(0.074911995 -0.017237953 0)
(0.076438269 -0.010590654 0)
(0.077231111 -0.0038298604 0)
(0.077281518 0.002979963 0)
(0.076587553 0.0097734175 0)
(0.075154422 0.016484783 0)
(0.072994481 0.023048653 0)
(0.070127181 0.029400586 0)
(0.066578939 0.035477769 0)
(0.062382937 0.041219679 0)
(0.05757885 0.046568749 0)
(0.052212501 0.051471008 0)
(0.046335448 0.055876703 0)
(0.040004492 0.059740884 0)
(0.033281129 0.063023939 0)
(0.026230938 0.065692081 0)
(0.018922915 0.067717758 0)
(0.01142876 0.069079999 0)
(0.0038221352 0.069764675 0)
(-0.0041520329 0.077680783 0)
(-0.012415285 0.07691822 0)
(-0.020556446 0.075401022 0)
(-0.028495553 0.073144952 0)
(-0.036154765 0.070173402 0)
(-0.043459174 0.0665171 0)
(-0.050337579 0.062213724 0)
(-0.056723199 0.057307438 0)
(-0.062554344 0.051848348 0)
(-0.067775007 0.045891902 0)
(-0.072335393 0.039498232 0)
(-0.07619237 0.032731463 0)
(-0.079309844 0.025658993 0)
(-0.081659052 0.018350758 0)
(-0.083218785 0.01087849 0)
(-0.083975526 0.0033149847 0)
(-0.08392352 -0.004266621 0)
(-0.083064764 -0.011793555 0)
(-0.081408933 -0.019194088 0)
(-0.078973237 -0.02639818 0)
(-0.075782205 -0.0333381 0)
(-0.071867425 -0.039949006 0)
(-0.067267214 -0.046169486 0)
(-0.062026234 -0.051942068 0)
(-0.056195066 -0.057213684 0)
(-0.049829718 -0.061936089 0)
(-0.042991108 -0.066066245 0)
(-0.035744486 -0.069566647 0)
(-0.028158837 -0.072405609 0)
(-0.02030624 -0.074557502 0)
(-0.012261211 -0.07600294 0)
(-0.0041000159 -0.076728922 0)
(0.0041000183 -0.076728922 0)
(0.012261213 -0.076002941 0)
(0.020306243 -0.074557503 0)
(0.02815884 -0.07240561 0)
(0.03574449 -0.069566647 0)
(0.042991112 -0.066066245 0)
(0.049829723 -0.061936089 0)
(0.056195071 -0.057213683 0)
(0.06202624 -0.051942068 0)
(0.067267219 -0.046169485 0)
(0.07186743 -0.039949005 0)
(0.07578221 -0.033338099 0)
(0.078973241 -0.026398179 0)
(0.081408938 -0.019194087 0)
(0.083064768 -0.011793555 0)
(0.083923524 -0.0042666214 0)
(0.083975531 0.0033149832 0)
(0.08321879 0.010878487 0)
(0.081659057 0.018350754 0)
(0.07930985 0.025658988 0)
(0.076192377 0.032731456 0)
(0.072335401 0.039498223 0)
(0.067775017 0.045891892 0)
(0.062554356 0.051848338 0)
(0.056723213 0.057307427 0)
(0.050337595 0.062213713 0)
(0.043459193 0.066517089 0)
(0.036154785 0.070173393 0)
(0.028495576 0.073144944 0)
(0.020556471 0.075401016 0)
(0.01241531 0.076918216 0)
(0.0041520591 0.077680782 0)
(-0.0045567534 0.086326707 0)
(-0.013625522 0.085479154 0)
(-0.022560459 0.083792872 0)
(-0.031273904 0.081285399 0)
(-0.039680516 0.077982762 0)
(-0.04769816 0.073919147 0)
(-0.055248746 0.069136468 0)
(-0.062259021 0.063683844 0)
(-0.068661287 0.057616996 0)
(-0.074394062 0.050997568 0)
(-0.079402652 0.043892401 0)
(-0.083639649 0.036372762 0)
(-0.08706534 0.028513536 0)
(-0.089648038 0.020392419 0)
(-0.091364323 0.012089092 0)
(-0.09219921 0.0036844111 0)
(-0.092146221 -0.0047403919 0)
(-0.091207393 -0.013104492 0)
(-0.089393195 -0.021328219 0)
(-0.086722373 -0.029333777 0)
(-0.08322173 -0.037045925 0)
(-0.078925831 -0.044392615 0)
(-0.073876651 -0.051305604 0)
(-0.068123162 -0.057721007 0)
(-0.061720858 -0.063579821 0)
(-0.054731228 -0.068828393 0)
(-0.047221181 -0.073418846 0)
(-0.039262417 -0.077309453 0)
(-0.030930764 -0.080464951 0)
(-0.022305477 -0.082856813 0)
(-0.013468506 -0.084463459 0)
(-0.0045037437 -0.085270414 0)
(0.0045037465 -0.085270414 0)
(0.013468509 -0.08446346 0)
(0.02230548 -0.082856814 0)
(0.030930768 -0.080464952 0)
(0.039262421 -0.077309454 0)
(0.047221186 -0.073418848 0)
(0.054731234 -0.068828393 0)
(0.061720864 -0.063579821 0)
(0.068123169 -0.057721006 0)
(0.073876657 -0.051305603 0)
(0.078925837 -0.044392614 0)
(0.083221736 -0.037045923 0)
(0.086722379 -0.029333776 0)
(0.0893932 -0.021328218 0)
(0.091207398 -0.013104491 0)
(0.092146225 -0.0047403922 0)
(0.092199214 0.0036844096 0)
(0.091364328 0.012089089 0)
(0.089648042 0.020392414 0)
(0.087065345 0.02851353 0)
(0.083639656 0.036372754 0)
(0.079402661 0.043892392 0)
(0.074394072 0.050997556 0)
(0.0686613 0.057616983 0)
(0.062259036 0.063683831 0)
(0.055248764 0.069136455 0)
(0.04769818 0.073919134 0)
(0.039680538 0.07798275 0)
(0.031273929 0.081285389 0)
(0.022560487 0.083792864 0)
(0.013625551 0.085479149 0)
(0.0045567829 0.086326706 0)
(-0.0050390922 0.095857315 0)
(-0.015067882 0.094916208 0)
(-0.024948909 0.093043797 0)
(-0.034585375 0.090259568 0)
(-0.043883035 0.086592436 0)
(-0.052751161 0.082080377 0)
(-0.06110347 0.076769947 0)
(-0.068858991 0.0707157 0)
(-0.075942862 0.063979511 0)
(-0.082287053 0.056629824 0)
(-0.087831 0.048740844 0)
(-0.092522155 0.040391671 0)
(-0.096316447 0.031665421 0)
(-0.099178648 0.022648315 0)
(-0.10108265 0.013428785 0)
(-0.10201167 0.0040965627 0)
(-0.10195833 -0.0052581954 0)
(-0.10092467 -0.014545778 0)
(-0.098922097 -0.023677747 0)
(-0.095971179 -0.032567736 0)
(-0.092101424 -0.041132201 0)
(-0.087350957 -0.049291129 0)
(-0.081766129 -0.05696871 0)
(-0.075401063 -0.064093959 0)
(-0.068317132 -0.070601292 0)
(-0.060582378 -0.076431059 0)
(-0.052270871 -0.081530013 0)
(-0.043462021 -0.085851734 0)
(-0.034239833 -0.089356985 0)
(-0.024692136 -0.092014017 0)
(-0.014909762 -0.093798811 0)
(-0.0049857102 -0.094695251 0)
(0.0049857138 -0.094695252 0)
(0.014909766 -0.093798812 0)
(0.024692141 -0.092014019 0)
(0.034239839 -0.089356987 0)
(0.043462027 -0.085851736 0)
(0.052270878 -0.081530015 0)
(0.060582386 -0.07643106 0)
(0.068317141 -0.070601292 0)
(0.075401072 -0.064093958 0)
(0.081766137 -0.056968709 0)
(0.087350965 -0.049291127 0)
(0.092101431 -0.041132199 0)
(0.095971185 -0.032567734 0)
(0.098922103 -0.023677745 0)
(0.10092468 -0.014545776 0)
(0.10195833 -0.0052581954 0)
(0.10201168 0.0040965612 0)
(0.10108266 0.013428781 0)
(0.099178652 0.02264831 0)
(0.096316452 0.031665413 0)
(0.092522161 0.040391662 0)
(0.087831007 0.048740832 0)
(0.082287062 0.056629811 0)
(0.075942874 0.063979496 0)
(0.068859006 0.070715684 0)
(0.061103488 0.07676993 0)
(0.052751182 0.082080361 0)
(0.04388306 0.086592421 0)
(0.034585402 0.090259556 0)
(0.024948938 0.093043788 0)
(0.015067914 0.094916202 0)
(0.0050391247 0.095857313 0)
(-0.0055946183 0.10642742 0)
(-0.016729118 0.10538274 0)
(-0.027699868 0.10330426 0)
(-0.038399588 0.1002136 0)
(-0.048723802 0.096142858 0)
(-0.058571908 0.091134184 0)
(-0.067848197 0.085239244 0)
(-0.076462809 0.078518575 0)
(-0.084332619 0.071040831 0)
(-0.091382029 0.062881953 0)
(-0.097543677 0.054124261 0)
(-0.10275905 0.044855506 0)
(-0.106979 0.035167888 0)
(-0.11016417 0.025157065 0)
(-0.11228529 0.01492115 0)
(-0.11332345 0.0045597257 0)
(-0.1132702 -0.0058271424 0)
(-0.1121276 -0.016139863 0)
(-0.10990808 -0.026280246 0)
(-0.10663436 -0.036152388 0)
(-0.10233907 -0.045663501 0)
(-0.097064473 -0.054724703 0)
(-0.090861988 -0.063251755 0)
(-0.083791707 -0.071165758 0)
(-0.075921805 -0.078393796 0)
(-0.067327896 -0.084869524 0)
(-0.058092322 -0.090533703 0)
(-0.048303386 -0.095334674 0)
(-0.038054525 -0.09922876 0)
(-0.027443445 -0.10218061 0)
(-0.01657121 -0.10416348 0)
(-0.0055413081 -0.10515942 0)
(0.0055413129 -0.10515942 0)
(0.016571215 -0.10416348 0)
(0.027443451 -0.10218061 0)
(0.038054532 -0.099228763 0)
(0.048303394 -0.095334677 0)