/*--------------------------------*- C++ -*----------------------------------*\
| =========                 |                                                 |
| \\      /  F ield         | OpenFOAM: The Open Source CFD Toolbox           |
|  \\    /   O peration     | Version:  2306                                  |
|   \\  /    A nd           | Website:  www.openfoam.com                      |
|    \\/     M anipulation  |                                                 |
\*---------------------------------------------------------------------------*/
FoamFile
{
    version     2.0;
    format      ascii;
    arch        "LSB;label=32;scalar=64";
    class       volVectorField;
    location    "0.4";
    object      U_0;
}
// * * * * * * * * * * * * * * * * * * * * * * * * * * * * * * * * * * * * * //

dimensions      [0 1 -1 0 0 0 0];

internalField   nonuniform List<vector> 
6400
(
(0.0074437331 -0.18445942 1.8846307e-17)
(0.01707332 -0.18436555 -1.7565547e-16)
(0.02796686 -0.18291802 2.0889749e-17)
(0.038299888 -0.18030612 2.0813427e-16)
(0.048650469 -0.17637032 4.2463247e-17)
(0.058580287 -0.17114515 -2.9635548e-17)
(0.068005527 -0.16471239 -4.9652208e-17)
(0.076853956 -0.15714541 -8.9004904e-18)
(0.085036929 -0.14851785 -4.0577593e-17)
(0.092458653 -0.13891234 -4.3817542e-17)
(0.099025533 -0.12842704 -2.612171e-17)
(0.10465374 -0.11717787 -2.7693799e-17)
(0.10927565 -0.10529682 -1.4734195e-17)
(0.11284417 -0.092927571 6.0490229e-18)
(0.11533499 -0.080219816 1.3267216e-17)
(0.11674655 -0.067323355 -4.9332994e-17)
(0.11709834 -0.054382741 -2.4726369e-17)
(0.11642815 -0.041532956 -1.7571163e-17)
(0.11478847 -0.028896451 2.1655597e-21)
(0.11224251 -0.016581194 3.2923619e-17)
(0.10886024 -0.0046790737 1.3358564e-17)
(0.10472228 0.0067327841 3.9462246e-18)
(0.099900122 0.017593274 8.3958293e-18)
(0.094467412 0.027853592 -8.1551065e-18)
(0.088496398 0.03747661 -1.6919922e-17)
(0.082053668 0.046434436 1.1810274e-17)
(0.075200721 0.054706384 3.7170232e-17)
(0.067993845 0.062276951 5.8585788e-17)
(0.060484518 0.069133919 4.1330993e-17)
(0.052720106 0.075266866 1.3349098e-17)
(0.04474504 0.080665775 8.5096359e-18)
(0.036601859 0.085320136 1.0368496e-17)
(0.028333347 0.089218873 2.6563126e-17)
(0.019983931 0.092349308 2.0443367e-17)
(0.011598725 0.094699422 1.5595375e-17)
(0.0032113146 0.09625627 1.8170844e-17)
(-0.0051192471 0.097012485 2.40427e-17)
(-0.013324818 0.096947913 4.260233e-17)
(-0.021345386 0.096062519 3.4092681e-17)
(-0.029112338 0.094357135 3.9236053e-17)
(-0.036552139 0.091840258 4.3080025e-17)
(-0.043586976 0.088530205 2.5195037e-17)
(-0.050136469 0.084457004 7.4887375e-18)
(-0.056119832 0.07966399 -2.0461416e-17)
(-0.061458497 0.074208983 -3.3777926e-18)
(-0.066079177 0.068164872 2.1827906e-17)
(-0.06991722 0.061619441 7.2468429e-18)
(-0.072920028 0.054674298 -8.1758605e-18)
(-0.075050255 0.047442846 -1.1167791e-17)
(-0.076288284 0.040047327 -1.5251786e-17)
(-0.076634036 0.032615179 -3.9605774e-18)
(-0.076108157 0.025274896 2.0732364e-18)
(-0.074752134 0.01815152 -1.569611e-17)
(-0.07262742 0.011361996 -9.9030051e-18)
(-0.069814762 0.005011308 -1.6949403e-17)
(-0.066402051 -0.00081097986 -1.8528277e-17)
(-0.062491704 -0.0060291537 -9.7323988e-18)
(-0.058204752 -0.010596642 -1.5215825e-17)
(-0.053650852 -0.01448201 -7.383196e-18)
(-0.048942519 -0.017675042 -5.1352279e-18)
(-0.044187099 -0.020184633 -6.3850923e-18)
(-0.039483645 -0.022036905 -4.4914262e-18)
(-0.034920465 -0.023272818 -1.1583079e-17)
(-0.030573267 -0.023945445 -2.8590275e-18)
(-0.026503937 -0.024117061 -2.6638464e-18)
(-0.022759963 -0.023856201 -4.7173808e-18)
(-0.019374395 -0.023234827 9.8253555e-21)
(-0.016366505 -0.022325636 3.6218635e-19)
(-0.01374293 -0.021199829 -2.3843336e-19)
(-0.011498635 -0.019925106 -8.829777e-19)
(-0.0096182492 -0.018563714 -1.7998595e-18)
(-0.008077939 -0.017170979 -2.5082931e-18)
(-0.006847133 -0.015794478 1.7293653e-18)
(-0.0058903811 -0.014473124 8.2169686e-19)
(-0.0051694183 -0.013236938 1.2963816e-18)
(-0.0046449696 -0.012107277 4.0558191e-19)
(-0.0042783292 -0.011097194 -9.101686e-19)
(-0.0040327888 -0.010212194 5.1041815e-19)
(-0.003874876 -0.0094511982 3.2068286e-19)
(-0.0037753996 -0.0088076176 9.623048e-20)
(0.0084348877 -0.20773068 5.6773372e-17)
(0.019362122 -0.2076514 -2.8794139e-16)
(0.031656261 -0.20594715 -5.0175222e-17)
(0.043225874 -0.20293275 -1.1462799e-16)
(0.054765319 -0.19845601 -1.4160413e-16)
(0.065809312 -0.19257727 6.3553833e-17)
(0.076297555 -0.18538523 -7.1817944e-17)
(0.086165803 -0.1769437 -1.3701965e-17)
(0.095316414 -0.167314 3.9785038e-17)
(0.10363314 -0.15657247 -9.8664977e-18)
(0.11099733 -0.14482099 1.4566388e-17)
(0.11730128 -0.1321896 -6.0511471e-17)
(0.12245851 -0.1188326 -5.8946197e-17)
(0.12641006 -0.10492117 -3.8392769e-17)
(0.12912716 -0.090634553 -4.1563067e-17)
(0.13061066 -0.076151641 -1.5647448e-17)
(0.13088812 -0.061643634 -1.8333742e-17)
(0.13000953 -0.047268519 -3.1940218e-17)
(0.12804237 -0.033167365 -2.5377697e-17)
(0.12506704 -0.019462066 -2.5493571e-17)
(0.12117085 -0.0062544992 1.0614607e-17)
(0.11645083 0.0063735538 9.1201082e-19)
(0.11099342 0.018358701 3.5263908e-18)
(0.10488513 0.029653331 -1.6344453e-17)
(0.098209567 0.040223611 -1.3574292e-17)
(0.09104189 0.050046318 1.7478959e-17)
(0.083449841 0.059106161 3.2181309e-17)
(0.075493764 0.067393155 4.6132872e-17)
(0.067227263 0.074900206 3.0401946e-17)
(0.058698244 0.081621122 5.3748487e-18)
(0.049950439 0.087548916 1.2760487e-17)
(0.041025042 0.092674755 1.1908561e-17)
(0.031962998 0.09698749 1.7886962e-17)
(0.02280727 0.10047291 1.5976306e-17)
(0.013602693 0.1031153 1.4692245e-17)
(0.0043856883 0.1048978 1.6301939e-18)
(-0.0047931099 0.10581235 4.7602378e-18)
(-0.013857318 0.10582248 2.5503851e-17)
(-0.022738436 0.10492747 3.0221476e-17)
(-0.031363551 0.10312068 3.5524939e-17)
(-0.03964985 0.1004043 2.8267263e-17)
(-0.047508017 0.096791761 1.9126638e-17)
(-0.054844177 0.092310134 2.2389937e-17)
(-0.061562406 0.087002359 -2.4134126e-17)
(-0.067567902 0.080929025 -1.1062421e-17)
(-0.07277079 0.074169445 4.5534279e-18)
(-0.077090398 0.066821784 8.9387651e-18)
(-0.080459728 0.059002039 -1.3664714e-18)
(-0.082829729 0.050841732 -4.8574214e-18)
(-0.084172717 0.04248434 -6.8014927e-18)
(-0.084484862 0.034080712 -8.1876276e-18)
(-0.083787934 0.025783863 4.9102989e-18)
(-0.082129746 0.017743165 -1.8969541e-17)
(-0.079582588 0.010098244 -1.8207143e-17)
(-0.076240801 0.0029730585 -1.0108482e-17)
(-0.0722115 -0.0035172289 -1.8962343e-17)
(-0.067621264 -0.0092979634 -1.276274e-17)
(-0.062610109 -0.014307376 -1.1179095e-17)
(-0.057312141 -0.01851236 -1.6008564e-17)
(-0.0518611 -0.021904584 -1.1345395e-17)
(-0.046384024 -0.024498658 -7.9293715e-18)
(-0.040997312 -0.02632975 -4.1844339e-18)
(-0.035803753 -0.027450507 -1.131751e-17)
(-0.030890405 -0.027927601 -9.7040487e-18)
(-0.026327261 -0.027838089 -7.4845655e-18)
(-0.022166745 -0.027265795 -4.6743135e-18)
(-0.018443845 -0.026297921 -2.5324559e-18)
(-0.015177076 -0.025021841 2.7491523e-18)
(-0.012370053 -0.023522395 6.2374317e-19)
(-0.010012615 -0.021879705 -2.4795463e-18)
(-0.0080823481 -0.020166814 -1.2913115e-18)
(-0.0065472291 -0.018447699 -1.7068137e-18)
(-0.0053675741 -0.016777021 2.3720511e-18)
(-0.0044981711 -0.015198412 -1.646883e-19)
(-0.0038910923 -0.01374452 1.2987688e-19)
(-0.0034977365 -0.012437493 1.0071697e-18)
(-0.0032707292 -0.011289285 -7.9064501e-19)
(-0.0031656936 -0.010302857 3.8619636e-19)
(-0.0031425917 -0.0094734627 3.7121985e-19)
(-0.003167086 -0.0087896607 -3.6976135e-19)
(0.0096713409 -0.23421202 3.0942742e-16)
(0.022195127 -0.23411266 4.0018855e-16)
(0.03612613 -0.23196501 3.5980611e-16)
(0.04904425 -0.22835471 1.9932255e-16)
(0.061837923 -0.22317553 2.8857505e-17)
(0.07404596 -0.21652712 3.9309528e-17)
(0.085663158 -0.20849096 3.202707e-17)
(0.096642979 -0.19909712 -2.4781344e-17)
(0.10687417 -0.18837313 -5.4326085e-18)
(0.11620761 -0.17637542 5.188179e-17)
(0.12448541 -0.16320497 5.2810051e-17)
(0.13156384 -0.14900831 3.6797818e-17)
(0.13732917 -0.13396891 -2.0156846e-20)
(0.14170616 -0.11829429 1.1881175e-17)
(0.14466065 -0.10220246 -7.9714718e-18)
(0.14619761 -0.085909649 1.6951713e-17)
(0.14635622 -0.06962055 5.8635963e-18)
(0.14520345 -0.053521278 3.6226497e-18)
(0.14282702 -0.037774836 -1.0118835e-17)
(0.13932859 -0.022518759 -2.3224086e-17)
(0.1348175 -0.0078652412 1.7323606e-17)
(0.12941262 0.0060986567 4.3724047e-17)
(0.12321835 0.019309843 -6.4628232e-18)
(0.1163364 0.031724039 -3.7015929e-17)
(0.10886368 0.043313182 -2.2826205e-17)
(0.10088503 0.054061418 7.0557479e-18)
(0.092474776 0.063961528 2.987985e-17)
(0.083697031 0.073011557 7.3902843e-18)
(0.074606683 0.081211775 -2.3020809e-17)
(0.065250908 0.088562033 -1.1226122e-17)
(0.055671217 0.095059737 -2.8774963e-18)
(0.045905624 0.10069864 -7.200986e-19)
(0.035991471 0.10546789 -1.1662987e-17)
(0.025968342 0.10935174 -1.3433467e-17)
(0.015878364 0.11233033 -1.215149e-17)
(0.005763878 0.11438069 -3.6844304e-17)
(-0.004341205 0.11548824 -3.7930413e-17)
(-0.014350808 0.11560909 -2.3593857e-17)
(-0.024184259 0.11473242 -1.8453155e-17)
(-0.033767503 0.11284228 -1.2093907e-17)
(-0.043006942 0.10993211 -6.2137826e-19)
(-0.051799984 0.10600794 8.964576e-18)
(-0.060036845 0.10109156 4.2761292e-18)
(-0.067603346 0.095223601 -4.0555271e-17)
(-0.074384695 0.088466184 -5.4457003e-17)
(-0.08027019 0.080904708 -1.2298499e-17)
(-0.085158664 0.072648482 1.8240119e-17)
(-0.088964334 0.063829883 6.6093527e-18)
(-0.091622543 0.054601798 -1.549839e-17)
(-0.09309451 0.045133299 -2.4111239e-17)
(-0.093370743 0.035603895 1.2878714e-17)
(-0.092473493 0.026196928 2.6189845e-17)
(-0.090457785 0.01709202 1.3811636e-18)
(-0.087410459 0.0084577548 -1.5791815e-17)
(-0.083439143 0.00044229285 -1.0974689e-18)
(-0.078673708 -0.0068182242 1.7308204e-17)
(-0.073278342 -0.013232931 2.3170545e-17)
(-0.067411863 -0.018732719 1.4033493e-17)
(-0.061237842 -0.0232816 -9.127136e-18)
(-0.054916447 -0.026874031 -5.8163429e-18)
(-0.04859852 -0.029532395 1.1750873e-17)
(-0.042421055 -0.031303651 1.243952e-17)
(-0.036503751 -0.032255304 -2.7490475e-18)
(-0.030946634 -0.032471025 -2.963584e-18)
(-0.02582864 -0.032046095 1.7538082e-19)
(-0.021207279 -0.031082956 4.0623241e-18)
(-0.017119091 -0.029687223 6.7998881e-18)
(-0.01358091 -0.027963879 3.1472497e-18)
(-0.010591987 -0.026013884 2.0336988e-18)
(-0.0081354941 -0.023931982 1.9906356e-18)
(-0.0061798845 -0.021804145 -1.1908447e-18)
(-0.004682867 -0.019703683 -1.6984262e-18)
(-0.0035934878 -0.017694025 2.2740144e-18)
(-0.0028543008 -0.015823705 1.7551721e-20)
(-0.0024055902 -0.014127835 -3.9615519e-19)
(-0.0021873564 -0.012628941 -1.0586316e-18)
(-0.0021417088 -0.01133688 -2.2741108e-19)
(-0.0022152668 -0.010250796 7.2785227e-20)
(-0.0023601872 -0.0093614287 -1.8273565e-19)
(-0.0025360209 -0.0086506361 -3.6071943e-19)
(0.011326593 -0.26477338 3.2901603e-16)
(0.025899854 -0.26450408 2.5174407e-16)
(0.041749253 -0.26150683 8.1575945e-17)
(0.056070521 -0.25693136 1.8317056e-16)
(0.070101236 -0.25079185 1.0200729e-16)
(0.083454381 -0.2432301 -5.5834295e-17)
(0.096231298 -0.23427617 -8.216385e-18)
(0.10841187 -0.22387517 -4.0258046e-18)
(0.11985703 -0.21198124 7.2230729e-18)
(0.13036034 -0.19860875 1.550166e-17)
(0.13970035 -0.18385165 -9.3262551e-18)
(0.14767836 -0.16787811 -1.2486244e-18)
(0.15414156 -0.15091211 -5.8161682e-18)
(0.15899314 -0.13321108 -9.0194292e-18)
(0.16219336 -0.1150448 2.799831e-17)
(0.1637546 -0.096678041 5.0719306e-18)
(0.16373305 -0.078357779 -1.8801478e-17)
(0.16221911 -0.060304492 -1.8184712e-17)
(0.1593276 -0.042707146 -2.0447662e-17)
(0.15518849 -0.025721118 3.9299243e-18)
(0.14993855 -0.0094685604 9.7487111e-18)
(0.14372387 0.0059596684 2.5727713e-17)
(0.13667123 0.020502609 7.2282869e-18)
(0.12890078 0.034122519 1.9172116e-17)
(0.12052473 0.04680062 3.2370997e-17)
(0.11163867 0.058532033 4.3864789e-17)
(0.10232374 0.069321155 4.727063e-17)
(0.092647212 0.079177317 4.4691782e-17)
(0.082664027 0.08811098 4.4520982e-17)
(0.072418856 0.096130388 4.370716e-17)
(0.061948927 0.10323909 2.554386e-17)
(0.051286785 0.10943447 2.0295608e-17)
(0.040463729 0.11470646 2.141198e-17)
(0.029513441 0.11903765 2.2261349e-17)
(0.018473256 0.12240363 2.3751067e-17)
(0.0073860791 0.12477483 3.6847861e-18)
(-0.0037255552 0.12611966 6.7548625e-18)
(-0.014767577 0.12639844 1.8839667e-17)
(-0.025655393 0.12557936 1.9638964e-17)
(-0.036308563 0.12363471 3.319991e-17)
(-0.046622239 0.12054608 1.7142289e-17)
(-0.056478906 0.11630868 5.2699121e-18)
(-0.065750176 0.11093577 -1.1483018e-17)
(-0.074299924 0.10446294 -1.0539779e-17)
(-0.081988757 0.096951833 -2.0927862e-17)
(-0.08867979 0.08849305 -1.0616196e-17)
(-0.094245564 0.079207562 1.0460875e-17)
(-0.098575714 0.069246276 1.1928841e-18)
(-0.10158469 0.058787284 -5.8059252e-18)
(-0.10321839 0.048030653 8.65918e-18)
(-0.10345891 0.037191149 2.2413057e-17)
(-0.10232798 0.026489822 2.3832705e-18)
(-0.099888272 0.016144054 1.1000877e-18)
(-0.09624372 0.0063586688 -1.3232166e-17)
(-0.09152325 -0.0026845359 -3.1486901e-18)
(-0.085885084 -0.010830835 2.9240619e-17)
(-0.07952901 -0.017964995 2.8252701e-17)
(-0.072647857 -0.024009626 6.9457797e-18)
(-0.065439378 -0.02892672 -1.1551935e-17)
(-0.05809564 -0.032715377 -1.2225124e-17)
(-0.050796121 -0.035408619 1.5121034e-17)
(-0.043702216 -0.037068807 1.8996493e-17)
(-0.036953284 -0.037782371 2.2317445e-19)
(-0.030664051 -0.037654241 -5.385818e-18)
(-0.024923182 -0.036802151 -7.1090181e-18)
(-0.019793232 -0.035351176 1.4277203e-19)
(-0.015311641 -0.033429114 1.2054115e-17)
(-0.011492348 -0.031162052 5.4772254e-18)
(-0.0083284172 -0.028670052 -3.983888e-18)
(-0.0057945716 -0.026064422 -5.9828483e-18)
(-0.0038471822 -0.02344785 -7.4951551e-20)
(-0.0024315598 -0.020902482 -1.6737374e-18)
(-0.0014830886 -0.018503372 -4.9962246e-19)
(-0.00092837896 -0.016303672 -3.8892133e-19)
(-0.00069352004 -0.014340885 -3.2414632e-19)
(-0.00070459098 -0.012637084 -2.1555252e-18)
(-0.00089082427 -0.011198735 -5.1994313e-19)
(-0.0011887416 -0.010018481 3.608474e-19)
(-0.0015411008 -0.0090831054 -4.6580685e-20)
(-0.0018997985 -0.0083647957 6.2445884e-20)
(0.013700988 -0.30087651 6.4301833e-16)
(0.030988249 -0.29995911 8.6137671e-16)
(0.049043174 -0.29525265 1.221419e-16)
(0.064685496 -0.28902079 3.3767836e-16)
(0.079781187 -0.28151884 2.4151259e-16)
(0.09415168 -0.2728848 3.9569786e-17)
(0.10807688 -0.26298424 1.6840662e-17)
(0.12155978 -0.25157667 3.4842458e-17)
(0.13439797 -0.23847514 7.0529451e-18)
(0.14628171 -0.2236191 4.9507482e-17)
(0.1568858 -0.20709037 6.4273487e-17)
(0.16592872 -0.18909064 4.5902976e-17)
(0.17320341 -0.16990388 5.7865024e-17)
(0.17858662 -0.14985816 3.0867846e-17)
(0.18203517 -0.12929357 6.9715094e-17)
(0.1835752 -0.10853837 7.5461155e-17)
(0.1832884 -0.087892847 8.520876e-18)
(0.18129791 -0.06761928 1.4604346e-18)
(0.17775476 -0.047936887 -8.6416723e-18)
(0.17282572 -0.02902061 5.0481964e-17)
(0.16668296 -0.011002527 4.9950065e-17)
(0.1595068 0.0060256828 1.534893e-17)
(0.15145034 0.022008376 5.2562429e-17)
(0.1426566 0.036918514 4.1841071e-17)
(0.13325531 0.050751306 6.7672193e-17)
(0.12335389 0.063517587 1.337295e-16)
(0.1130402 0.075237961 1.026532e-16)
(0.10238367 0.085937236 8.9420884e-17)
(0.091437486 0.095639638 8.8097619e-17)
(0.080241415 0.10436475 8.8851883e-17)
(0.068825597 0.11212447 1.0906388e-16)
(0.057214031 0.11892108 6.9647288e-17)
(0.045428932 0.12474577 3.6183776e-17)
(0.033495254 0.12957939 5.5835082e-17)
(0.021442822 0.13339198 7.5881423e-17)
(0.0093078677 0.13614551 8.8339965e-17)
(-0.0028936302 0.13779335 7.9761202e-17)
(-0.01506037 0.1382882 6.8829875e-17)
(-0.027112568 0.13757978 9.6366631e-17)
(-0.038959552 0.13562371 9.9743721e-17)
(-0.05048458 0.13238515 4.0237744e-17)
(-0.061553472 0.12784394 7.4108419e-19)
(-0.072016199 0.1220004 -1.5058324e-17)
(-0.081710343 0.1148811 -1.0632491e-17)
(-0.090466275 0.10654415 -2.607509e-17)
(-0.098114181 0.097083623 1.1318811e-18)
(-0.10449281 0.086632199 1.397118e-17)
(-0.10945951 0.075361509 3.7298923e-18)
(-0.11290069 0.063479355 -5.2298065e-18)
(-0.11474112 0.051223494 -2.1866454e-19)
(-0.11495062 0.038852343 1.6530854e-17)
(-0.11354894 0.026634052 2.4698083e-18)
(-0.11060732 0.014833027 1.4038181e-18)
(-0.10625021 0.0036957758 -1.2413188e-17)
(-0.1006303 -0.0065396785 -9.3479551e-18)
(-0.09394915 -0.015703075 1.4246405e-17)
(-0.086446314 -0.023654215 3.1321205e-17)
(-0.078358223 -0.030303877 1.3711142e-17)
(-0.069924859 -0.035612358 -7.0216341e-18)
(-0.061377432 -0.039585993 -8.8411782e-18)
(-0.052929937 -0.042272369 1.3037891e-17)
(-0.044772619 -0.04375403 2.4345744e-17)
(-0.03706754 -0.044141552 2.496345e-18)
(-0.029945901 -0.043566433 -3.1255288e-18)
(-0.023506736 -0.042174043 -6.0541846e-18)
(-0.017817306 -0.040116946 -6.9312819e-18)
(-0.012914931 -0.037549472 5.2568609e-18)
(-0.0088090417 -0.034622665 4.2097898e-18)
(-0.0054836651 -0.031480231 2.9545827e-19)
(-0.0029042276 -0.028250548 -4.8948862e-18)
(-0.0010105625 -0.025058392 -2.9630604e-18)
(0.00026742736 -0.021998393 -3.6608585e-18)
(0.0010097746 -0.019152929 -8.4340015e-19)
(0.0013115264 -0.016582105 2.5892533e-19)
(0.0012635224 -0.014325995 3.6935192e-19)
(0.0009567384 -0.012405196 -1.417459e-18)
(0.0004783965 -0.010822199 -2.1727572e-18)
(-9.8461589e-05 -0.0095634178 -7.6853905e-19)
(-0.00070544379 -0.0086015509 3.3201833e-19)
(-0.0012831811 -0.0079028356 1.7264463e-19)
(0.017136642 -0.34488214 5.9509109e-16)
(0.037947713 -0.34208612 8.8347007e-16)
(0.058390228 -0.33399175 5.9120345e-16)
(0.075052515 -0.32489348 4.1718363e-16)
(0.090842421 -0.31545049 4.6440155e-16)
(0.10600292 -0.30562107 1.546101e-16)
(0.12107181 -0.29485824 1.8078574e-17)
(0.13603836 -0.28255475 -1.5303449e-16)
(0.15056291 -0.26827596 -6.9170501e-17)
(0.16415316 -0.25184452 -9.7362863e-17)
(0.17631879 -0.23333286 -1.8667979e-16)
(0.18665802 -0.21300233 -9.7395511e-17)
(0.19489348 -0.19123046 -1.1360388e-16)
(0.20087474 -0.16844766 -1.1565857e-17)
(0.20456342 -0.14509011 -1.6467073e-17)
(0.2060118 -0.12156876 -4.4305985e-17)
(0.2053407 -0.098250432 -5.5311134e-17)
(0.20271928 -0.075447536 -7.3709208e-17)
(0.19834709 -0.053413924 -1.1063534e-17)
(0.19243861 -0.032345124 7.5632941e-17)
(0.18521121 -0.012381245 9.6301649e-17)
(0.17688817 0.0063882007 1.5287925e-17)
(0.16765336 0.023917987 3.3830794e-17)
(0.15767788 0.040197644 4.5456034e-17)
(0.14711134 0.055242562 5.1313379e-17)
(0.13607394 0.069085465 1.1603989e-16)
(0.12465979 0.081769028 9.4424468e-17)
(0.11293887 0.09333886 7.0844174e-17)
(0.10096005 0.10383748 8.4577071e-17)
(0.088754993 0.11329943 6.5040043e-17)
(0.076342982 0.12174767 9.7298824e-17)
(0.063735465 0.12919099 5.811126e-17)
(0.05094185 0.13562272 -4.5662379e-18)
(0.037974317 0.1410212 3.0812494e-17)
(0.024851063 0.14534968 4.8766927e-17)
(0.011599488 0.14856034 8.7934421e-17)
(-0.0017754407 0.15059236 8.3101776e-17)
(-0.015166905 0.15137987 4.7724677e-17)
(-0.028500494 0.15085406 1.0167574e-16)
(-0.04167762 0.14894863 8.4555128e-17)
(-0.054568758 0.14560674 9.5346754e-18)
(-0.067021265 0.14078689 4.0782572e-18)
(-0.078860117 0.13447055 1.734387e-17)
(-0.089891558 0.12666974 -1.9892447e-17)
(-0.099908902 0.11743446 -4.6150786e-17)
(-0.10870094 0.10685921 -2.696113e-17)
(-0.11606292 0.095087616 6.7895399e-18)
(-0.12180968 0.082314091 3.370658e-17)
(-0.12578981 0.068781356 -3.262626e-18)
(-0.12789882 0.054773204 -3.8730188e-17)
(-0.12808877 0.040602744 -1.9349508e-17)
(-0.12637565 0.026598098 -5.2500446e-18)
(-0.12284352 0.01308528 -1.7808382e-17)
(-0.11762849 0.0003643566 9.7403704e-18)
(-0.11091992 -0.011271377 4.0798358e-17)
(-0.1029903 -0.021613482 1.1350151e-17)
(-0.094113984 -0.030495734 3.8090057e-18)
(-0.084585196 -0.037816735 2.0174286e-18)
(-0.07469713 -0.043536917 3.7079403e-18)
(-0.064729146 -0.047673824 2.2319463e-17)
(-0.054936803 -0.050295084 2.1634906e-17)
(-0.045544291 -0.051509791 1.685754e-17)
(-0.036739633 -0.051459384 7.5393475e-18)
(-0.028672179 -0.050308529 6.1829809e-18)
(-0.02145165 -0.048236454 3.7104317e-19)
(-0.015149159 -0.045429113 -5.266113e-19)
(-0.0098002751 -0.042072539 8.0809305e-18)
(-0.0054086731 -0.038346911 1.4837064e-17)
(-0.0019442565 -0.034423417 2.4394628e-18)
(0.00063768022 -0.030457611 -5.7418555e-18)
(0.0024118773 -0.026588864 -6.9543758e-19)
(0.003478576 -0.022932389 1.2128872e-18)
(0.0039373296 -0.019575814 6.2873649e-18)
(0.0039017983 -0.016587699 1.1244196e-18)
(0.0034856813 -0.014011098 -2.5530042e-18)
(0.0028007927 -0.011864308 -5.3044239e-19)
(0.0019520771 -0.010144 -4.6997433e-19)
(0.0010328081 -0.008828006 4.1395144e-19)
(0.00012024341 -0.0078731598 3.8596772e-19)
(-0.00071967717 -0.0072312454 -4.4356365e-19)
(0.021508566 -0.39986183 6.5662013e-16)
(0.046299349 -0.39268353 7.2685455e-16)
(0.069037144 -0.37840163 8.9128089e-16)
(0.086261581 -0.36457952 4.5110848e-16)
(0.10232073 -0.35249271 3.6640791e-16)
(0.11813633 -0.34150673 1.9717229e-16)
(0.13455473 -0.33019553 3.216858e-16)
(0.15145329 -0.31729273 1.952921e-16)
(0.1682286 -0.30196593 1.0302415e-16)
(0.18408675 -0.28387933 2.0461282e-16)
(0.19829022 -0.26312062 1.1546964e-16)
(0.21027402 -0.24006394 -6.5915705e-18)
(0.21967977 -0.21523728 -3.245857e-17)
(0.22634051 -0.18922091 -3.2659742e-17)
(0.23024402 -0.16258178 1.9353855e-17)
(0.23149283 -0.13583663 -6.9953021e-17)
(0.2302695 -0.1094332 2.8738012e-17)
(0.22680883 -0.083742083 -6.8594255e-17)
(0.22137558 -0.059055106 -1.2564699e-16)
(0.21424628 -0.035588262 -9.3856864e-17)
(0.20569474 -0.013487008 -2.356642e-17)
(0.19599736 0.0071674735 1.0942718e-17)
(0.18537409 0.026346802 -1.0748058e-17)
(0.17403029 0.044065002 3.1176302e-17)
(0.16213775 0.060365834 2.7760568e-17)
(0.14983 0.075311867 5.1148872e-17)
(0.13720639 0.088975304 1.001637e-16)
(0.12433497 0.10142921 9.0615657e-17)
(0.11125677 0.11274004 9.9273937e-17)
(0.097991027 0.12296178 6.0025555e-17)
(0.084541377 0.13213157 7.8606923e-17)
(0.070901711 0.14026685 9.0416818e-17)
(0.057063242 0.14736396 4.0360466e-17)
(0.04302046 0.15339812 6.4826799e-17)
(0.02877649 0.15832501 7.2059759e-17)
(0.014345034 0.16208463 6.9326731e-17)
(-0.00028452235 0.16459787 8.1914606e-17)
(-0.015003052 0.16577807 7.104767e-17)
(-0.029742423 0.16553105 1.0938848e-16)
(-0.044398987 0.16376309 1.0855241e-16)
(-0.058830255 0.16038862 6.3339723e-17)
(-0.072863706 0.15533731 3.9189043e-17)
(-0.086295875 0.14856387 2.3285931e-17)
(-0.098895962 0.14005813 -4.0038748e-17)
(-0.11041209 0.12985525 -3.2897661e-17)
(-0.12058109 0.11804522 -1.3102159e-17)
(-0.12914215 0.10478045 -1.7975836e-18)
(-0.13585391 0.090279705 -7.0050029e-18)
(-0.14051376 0.074826512 -6.2292855e-18)
(-0.14297638 0.058760998 -6.1278462e-18)
(-0.14316748 0.04246494 -9.909498e-18)
(-0.14109433 0.026342679 -7.6485148e-18)
(-0.13685611 0.01080031 -3.66223e-17)
(-0.13061538 -0.0037867723 1.3803706e-17)
(-0.12260266 -0.017072315 3.377367e-17)
(-0.11315897 -0.028784808 -2.3484023e-17)
(-0.10262761 -0.038729909 -2.8900018e-17)
(-0.09137192 -0.046793803 -1.6417414e-17)
(-0.079750737 -0.052940187 2.3787421e-18)
(-0.068102358 -0.057203634 3.0520864e-17)
(-0.056732177 -0.059679404 5.5477379e-18)
(-0.045903991 -0.060511601 -1.4015491e-17)
(-0.03583506 -0.059881176 -1.1395265e-17)
(-0.026694176 -0.057994167 -3.7451414e-19)
(-0.018601591 -0.05507111 1.6773571e-17)
(-0.011630781 -0.051338075 5.4235905e-18)
(-0.0058130181 -0.047018952 -1.0409974e-17)
(-0.0011430993 -0.042329637 1.0053809e-17)
(0.0024164187 -0.037474812 5.947282e-18)
(0.0049384853 -0.032641064 5.2126566e-18)
(0.0065228148 -0.027978077 4.1789508e-18)
(0.0072862218 -0.023624473 -3.0160343e-18)
(0.0073583897 -0.019683213 6.8523244e-18)
(0.0068788949 -0.016229126 2.5493336e-18)
(0.0059886055 -0.013306819 2.5047913e-19)
(0.0048248241 -0.010930982 2.5128913e-18)
(0.0035152518 -0.0090891812 1.6937326e-19)
(0.0021727469 -0.0077451837 1.3973067e-18)
(0.00089165794 -0.0068435097 1.6716626e-18)
(-0.00025506051 -0.0063125755 -7.7250369e-20)
(0.025130028 -0.46741071 8.1907805e-16)
(0.052645067 -0.45227934 1.472063e-15)
(0.077126862 -0.42839546 1.3553066e-15)
(0.094748731 -0.40766952 8.8314269e-16)
(0.11116783 -0.39238511 4.1831837e-16)
(0.12814875 -0.38067978 1.1918769e-16)
(0.14680528 -0.36952197 2.1715022e-17)
(0.16672313 -0.35657889 2.4500746e-16)
(0.18686482 -0.34044086 1.0922059e-16)
(0.20599156 -0.32059485 5.28869e-17)
(0.22303191 -0.29721168 2.2979996e-16)
(0.23722047 -0.27087566 8.1558749e-17)
(0.24812069 -0.24235738 1.0458193e-16)
(0.25557951 -0.21245711 5.7142596e-17)
(0.2596548 -0.18191797 2.902315e-17)
(0.26054472 -0.15138808 6.8022784e-17)
(0.25853292 -0.12140866 -1.4696784e-17)
(0.25395076 -0.092413388 -2.083786e-17)
(0.2471514 -0.064732331 -1.8466118e-17)
(0.23849076 -0.038599171 2.0199128e-17)
(0.22831426 -0.014159658 6.9119975e-17)
(0.21696335 0.0085208929 2.8501149e-17)
(0.2046984 0.029440793 -3.9133876e-18)
(0.19176639 0.048649356 1.649833e-18)
(0.17836341 0.066229115 -2.2895516e-17)
(0.16463624 0.082282615 -3.7764127e-17)
(0.15068758 0.096920984 -3.3280636e-17)
(0.13657993 0.11025302 -1.6605013e-17)
(0.12234162 0.12237602 -2.8443978e-18)
(0.10797375 0.13336876 -2.4002753e-19)
(0.093458125 0.14328644 -2.3395866e-17)
(0.07876473 0.15215747 -1.7180886e-17)
(0.06386017 0.15998204 -1.1223255e-17)
(0.048715543 0.16673245 1.3161874e-17)
(0.033313109 0.17235516 6.6963403e-18)
(0.017646935 0.1767731 -5.7647817e-17)
(0.0016879749 0.17988911 -3.1942002e-17)
(-0.014459939 0.1815892 1.1480419e-17)
(-0.030734976 0.18174709 1.6196173e-17)
(-0.047032862 0.18023515 5.1367984e-17)
(-0.063198757 0.17693077 6.7901534e-17)
(-0.079039614 0.17172533 6.4210288e-17)
(-0.094320296 0.16453636 5.0509036e-17)
(-0.10876674 0.15532107 -2.5207807e-17)
(-0.12207234 0.14408999 -8.6590042e-17)
(-0.13390897 0.13092081 -6.8111729e-17)
(-0.14394355 0.11597031 4.9600442e-18)
(-0.15186022 0.09948201 2.2020369e-17)
(-0.15738667 0.081786715 -6.3752953e-18)
(-0.16032071 0.06329358 -4.4283319e-17)
(-0.16055037 0.044471154 -2.7250928e-17)
(-0.15806748 0.025820971 -1.6903392e-17)
(-0.15298788 0.007850168 -3.7188025e-17)
(-0.14550252 -0.0089597759 3.7498085e-18)
(-0.13590746 -0.024185807 5.863421e-17)
(-0.12462677 -0.037494786 -1.2117688e-17)
(-0.11209343 -0.048653876 -3.2790723e-17)
(-0.098759769 -0.057535846 -1.1089374e-17)
(-0.085067383 -0.064112637 -7.0534362e-18)
(-0.071426969 -0.068444402 2.8341589e-17)
(-0.058203418 -0.070664595 -1.4137753e-17)
(-0.045706243 -0.070963565 -2.1289635e-17)
(-0.034184916 -0.069572793 -1.6907759e-17)
(-0.02382813 -0.066749904 -2.8567859e-18)
(-0.014765644 -0.062766025 1.5748779e-17)
(-0.0070714845 -0.057895834 -8.8265749e-18)
(-0.00077069319 -0.052406695 -5.7239917e-18)
(0.0041501668 -0.046562694 2.9628634e-18)
(0.0077570137 -0.040598864 4.6473582e-18)
(0.01014459 -0.034727408 2.764976e-18)
(0.011436135 -0.029133886 -4.996605e-18)
(0.011778983 -0.023974012 -5.2862505e-19)
(0.011336179 -0.019366687 8.444626e-18)
(0.010280101 -0.015394535 2.8561417e-18)
(0.0087846313 -0.012103196 -3.735118e-18)
(0.0070185091 -0.0095019469 7.136664e-19)
(0.0051375783 -0.0075661236 2.8818194e-18)
(0.0032781272 -0.0062419087 1.3352644e-18)
(0.0015526988 -0.0054525905 1.1243004e-18)
(4.6437547e-05 -0.0051044164 -1.347018e-18)
(0.023930328 -0.5416192 3.5655152e-16)
(0.049039684 -0.51642607 1.4976317e-16)
(0.073869843 -0.48156638 8.5857742e-16)
(0.09286817 -0.45303661 3.367667e-16)
(0.11128698 -0.4348976 3.0515879e-16)
(0.13149402 -0.42368051 -4.296082e-16)
(0.15465243 -0.41392615 -2.1876851e-16)
(0.17979627 -0.40179182 -2.4370293e-16)
(0.20529736 -0.38513831 -3.3237893e-16)
(0.22936516 -0.36331871 -1.886224e-16)
(0.25054573 -0.33671836 -1.3573155e-16)
(0.26785719 -0.30628577 -8.9225305e-17)
(0.28079957 -0.27317271 -9.819377e-17)
(0.2892796 -0.23850191 -3.1872008e-17)
(0.29349405 -0.20325429 -6.2736708e-17)
(0.29381287 -0.16823718 -1.3566474e-17)
(0.2906894 -0.13409169 -5.0251845e-17)
(0.28460446 -0.10131068 -6.1558634e-17)
(0.27603635 -0.070255204 -1.2154003e-17)
(0.2654448 -0.041168576 2.9739822e-17)
(0.25326377 -0.014187513 -1.7839338e-17)
(0.23991336 0.01065132 -3.0789454e-17)
(0.22570081 0.033383509 -4.1822152e-17)
(0.21092135 0.054107977 -9.8540109e-17)
(0.19579639 0.07295961 -8.4672019e-17)
(0.18048519 0.090093822 -1.2631542e-16)
(0.16509049 0.10567246 -1.6515987e-16)
(0.1496641 0.11985024 -1.2505987e-16)
(0.134215 0.13276367 -1.315052e-16)
(0.1187187 0.14452271 -1.1392254e-16)
(0.10312727 0.15520505 -1.8426894e-16)
(0.087378787 0.16485267 -1.8966403e-16)
(0.071407747 0.17347075 -1.3184121e-16)
(0.055154324 0.18102828 -1.3491296e-16)
(0.038571504 0.18745977 -1.3374727e-16)
(0.021630392 0.19266903 -2.0924618e-16)
(0.00427939 0.19653703 -1.711738e-16)
(-0.013398509 0.19891793 -7.2960492e-17)
(-0.031341887 0.19964379 -6.4713983e-17)
(-0.049454292 0.19854667 8.5731131e-18)
(-0.067570406 0.19545668 5.3671259e-17)
(-0.085477252 0.19021509 5.9998508e-17)
(-0.10290555 0.18268898 4.2472514e-17)
(-0.11953163 0.17278859 1.9704853e-18)
(-0.13498336 0.16048604 -5.7550725e-17)
(-0.1488518 0.14583472 -4.4305529e-17)
(-0.16071084 0.12898775 3.9263106e-19)
(-0.17014573 0.1102117 9.4328134e-18)
(-0.17678881 0.089891233 -1.8960104e-17)
(-0.18035774 0.068520015 -3.1432614e-17)
(-0.18068633 0.046676651 7.5365838e-19)
(-0.17774287 0.024988027 -3.6142911e-17)
(-0.17165549 0.0040859183 -2.1890457e-17)
(-0.16264834 -0.015379696 -6.2031912e-18)
(-0.15112104 -0.032911492 2.3075183e-17)
(-0.13759774 -0.048090021 1.0996708e-17)
(-0.12262961 -0.060636573 -2.7236152e-18)
(-0.10678475 -0.07041248 -4.8632073e-18)
(-0.090609396 -0.077406723 -1.1512541e-17)
(-0.074603001 -0.081717911 4.9620208e-18)
(-0.059200856 -0.083532475 -1.0650263e-18)
(-0.044764333 -0.083102053 5.5847812e-18)
(-0.031577367 -0.080722862 -1.2320314e-17)
(-0.019848083 -0.076717134 -2.1515089e-18)
(-0.0097135688 -0.071417711 8.5560627e-19)
(-0.0012431078 -0.065152267 -1.8411756e-17)
(0.0055404278 -0.05825181 6.5794634e-18)
(0.010682073 -0.051016986 3.1771311e-18)
(0.014266061 -0.043725976 -2.0210541e-18)
(0.016414183 -0.03663065 -8.5925675e-18)
(0.017283622 -0.029947366 -4.3175888e-18)
(0.01705814 -0.02385498 -3.6917394e-18)
(0.01594034 -0.018490014 -2.3317753e-18)
(0.014143238 -0.013944348 2.7594235e-18)