/*--------------------------------*- C++ -*----------------------------------*\
| =========                 |                                                 |
| \\      /  F ield         | OpenFOAM: The Open Source CFD Toolbox           |
|  \\    /   O peration     | Version:  2106                                  |
|   \\  /    A nd           | Website:  www.openfoam.com                      |
|    \\/     M anipulation  |                                                 |
\*---------------------------------------------------------------------------*/
FoamFile
{
    version     2.0;
    format      ascii;
    arch        "LSB;label=32;scalar=64";
    class       surfaceScalarField;
    location    "0.033";
    object      phi;
}
// * * * * * * * * * * * * * * * * * * * * * * * * * * * * * * * * * * * * * //

dimensions      [0 3 -1 0 0 0 0];

oriented        oriented;

internalField   nonuniform List<scalar> 
130560
(
5.3239157e-06
-5.3239157e-06
1.0644433e-05
-5.3205178e-06
1.5958158e-05
-5.3137246e-06
2.1261699e-05
-5.303541e-06
2.6551674e-05
-5.2899745e-06
3.1824709e-05
-5.2730352e-06
3.7077444e-05
-5.2527356e-06
4.2306535e-05
-5.2290904e-06
4.7508652e-05
-5.2021173e-06
5.2680488e-05
-5.1718358e-06
5.7818756e-05
-5.1382684e-06
6.2920196e-05
-5.1014396e-06
6.7981572e-05
-5.0613765e-06
7.2999681e-05
-5.0181082e-06
7.7971347e-05
-4.9716665e-06
8.2893432e-05
-4.9220853e-06
8.7762833e-05
-4.8694006e-06
9.2576484e-05
-4.8136508e-06
9.733136e-05
-4.7548765e-06
0.00010202448
-4.6931202e-06
0.00010665291
-4.6284266e-06
0.00011121375
-4.5608424e-06
0.00011570417
-4.4904164e-06
0.00012012137
-4.4171992e-06
0.00012446261
-4.3412433e-06
0.00012872521
-4.2626031e-06
0.00013290655
-4.1813347e-06
0.00013700404
-4.0974961e-06
0.00014101519
-4.0111467e-06
0.00014493754
-3.9223477e-06
0.0001487687
-3.8311619e-06
0.00015250635
-3.7376534e-06
0.00015614824
-3.6418879e-06
0.00015969217
-3.5439323e-06
0.00016313603
-3.4438551e-06
0.00016647775
-3.3417257e-06
0.00016971537
-3.237615e-06
0.00017284696
-3.1315947e-06
0.0001758707
-3.0237379e-06
0.00017878482
-2.9141184e-06
0.00018158763
-2.8028111e-06
0.00018427752
-2.6898916e-06
0.00018685296
-2.5754365e-06
0.00018931248
-2.4595229e-06
0.00019165471
-2.3422287e-06
0.00019387834
-2.2236324e-06
0.00019598215
-2.1038129e-06
0.000197965
-1.9828498e-06
0.00019982583
-1.8608228e-06
0.00020156364
-1.7378122e-06
0.00020317754
-1.6138983e-06
0.0002046667
-1.489162e-06
0.00020603038
-1.3636838e-06
0.00020726793
-1.2375448e-06
0.00020837875
-1.1108259e-06
0.00020936236
-9.8360783e-07
0.00021021833
-8.5597142e-07
0.00021094633
-7.2799727e-07
0.0002115461
-5.9976576e-07
0.00021201745
-4.71357e-07
0.0002123603
-3.4285076e-07
0.00021257463
-2.1432644e-07
0.00021266049
-8.5863112e-08
0.00021261803
4.2460589e-08
0.00021244747
1.7056669e-07
0.00021214909
2.9837966e-07
0.00021172327
4.2582038e-07
0.00021117045
5.5281359e-07
0.00021049117
6.7928408e-07
0.00020968601
8.0515732e-07
0.00020875565
9.3035956e-07
0.00020770083
1.0548179e-06
0.00020652237
1.1784604e-06
0.00020522116
1.301216e-06
0.00020379814
1.4230145e-06
0.00020225436
1.5437868e-06
0.00020059089
1.663465e-06
0.00019880891
1.7819819e-06
0.00019690964
1.8992716e-06
0.00019489437
2.0152693e-06
0.00019276446
2.1299113e-06
0.00019052132
2.2431352e-06
0.00018816644
2.3548795e-06
0.00018570136
2.4650842e-06
0.00018312767
2.5736904e-06
0.00018044703
2.6806404e-06
0.00017766115
2.7858779e-06
0.0001747718
2.8893477e-06
0.00017178081
2.9909961e-06
0.00016869004
3.0907705e-06
0.00016550142
3.1886198e-06
0.00016221692
3.2844941e-06
0.00015883858
3.3783448e-06
0.00015536845
3.4701248e-06
0.00015180866
3.5597882e-06
0.00014816137
3.6472904e-06
0.00014442879
3.7325885e-06
0.00014061314
3.8156405e-06
0.00013671674
3.896406e-06
0.00013274189
3.9748459e-06
0.00012869097
4.0509226e-06
0.00012456637
4.1245996e-06
0.00012037053
4.195842e-06
0.00011610591
4.2646161e-06
0.00011177502
4.3308896e-06
0.00010738039
4.3946315e-06
0.00010292458
4.4558123e-06
9.8410175e-05
4.5144036e-06
9.3839797e-05
4.5703786e-06
8.9216085e-05
4.6237115e-06
8.4541707e-05
4.6743782e-06
7.9819351e-05
4.7223557e-06
7.5051729e-05
4.7676222e-06
7.0241572e-05
4.8101575e-06
6.5391629e-05
4.8499426e-06
6.050467e-05
4.8869596e-06
5.5583477e-05
4.9211921e-06
5.0630852e-05
4.952625e-06
4.5649608e-05
4.9812444e-06
4.064257e-05
5.0070377e-06
3.5612577e-05
5.0299935e-06
3.0562475e-05
5.0501018e-06
2.5495121e-05
5.0673538e-06
2.0413379e-05
5.0817419e-06
1.5320119e-05
5.09326e-06
1.0218217e-05
5.1019029e-06
5.1105496e-06
5.1076669e-06
-1.7440767e-15
5.1105496e-06
-5.1105496e-06
5.1105496e-06
-1.0218217e-05
5.1076669e-06
-1.5320119e-05
5.1019029e-06
-2.0413379e-05
5.09326e-06
-2.5495121e-05
5.0817419e-06
-3.0562475e-05
5.0673538e-06
-3.5612577e-05
5.0501018e-06
-4.064257e-05
5.0299935e-06
-4.5649608e-05
5.0070377e-06
-5.0630852e-05
4.9812444e-06
-5.5583477e-05
4.952625e-06
-6.050467e-05
4.9211921e-06
-6.5391629e-05
4.8869596e-06
-7.0241572e-05
4.8499426e-06
-7.5051729e-05
4.8101575e-06
-7.9819351e-05
4.7676222e-06
-8.4541707e-05
4.7223557e-06
-8.9216085e-05
4.6743782e-06
-9.3839797e-05
4.6237115e-06
-9.8410175e-05
4.5703786e-06
-0.00010292458
4.5144036e-06
-0.00010738039
4.4558123e-06
-0.00011177502
4.3946315e-06
-0.00011610591
4.3308896e-06
-0.00012037053
4.2646161e-06
-0.00012456637
4.195842e-06
-0.00012869097
4.1245996e-06
-0.00013274189
4.0509226e-06
-0.00013671674
3.9748459e-06
-0.00014061314
3.896406e-06
-0.00014442879
3.8156405e-06
-0.00014816137
3.7325885e-06
-0.00015180866
3.6472904e-06
-0.00015536845
3.5597882e-06
-0.00015883858
3.4701248e-06
-0.00016221692
3.3783448e-06
-0.00016550142
3.2844941e-06
-0.00016869004
3.1886198e-06
-0.00017178081
3.0907705e-06
-0.0001747718
2.9909961e-06
-0.00017766115
2.8893477e-06
-0.00018044703
2.7858779e-06
-0.00018312767
2.6806404e-06
-0.00018570136
2.5736904e-06
-0.00018816644
2.4650842e-06
-0.00019052132
2.3548795e-06
-0.00019276446
2.2431352e-06
-0.00019489437
2.1299113e-06
-0.00019690964
2.0152693e-06
-0.00019880891
1.8992716e-06
-0.00020059089
1.7819819e-06
-0.00020225436
1.663465e-06
-0.00020379814
1.5437868e-06
-0.00020522116
1.4230145e-06
-0.00020652237
1.301216e-06
-0.00020770083
1.1784604e-06
-0.00020875565
1.0548179e-06
-0.00020968601
9.3035956e-07
-0.00021049117
8.0515732e-07
-0.00021117045
6.7928408e-07
-0.00021172327
5.5281359e-07
-0.00021214909
4.2582038e-07
-0.00021244747
2.9837966e-07
-0.00021261803
1.7056669e-07
-0.00021266049
4.2460589e-08
-0.00021257463
-8.5863112e-08
-0.0002123603
-2.1432644e-07
-0.00021201745
-3.4285076e-07
-0.0002115461
-4.71357e-07
-0.00021094633
-5.9976576e-07
-0.00021021833
-7.2799727e-07
-0.00020936236
-8.5597142e-07
-0.00020837875
-9.8360783e-07
-0.00020726793
-1.1108259e-06
-0.00020603038
-1.2375448e-06
-0.0002046667
-1.3636838e-06
-0.00020317754
-1.489162e-06
-0.00020156364
-1.6138983e-06
-0.00019982583
-1.7378122e-06
-0.000197965
-1.8608228e-06
-0.00019598215
-1.9828498e-06
-0.00019387834
-2.1038129e-06
-0.00019165471
-2.2236324e-06
-0.00018931248
-2.3422287e-06
-0.00018685296
-2.4595229e-06
-0.00018427752
-2.5754365e-06
-0.00018158763
-2.6898916e-06
-0.00017878482
-2.8028111e-06
-0.0001758707
-2.9141184e-06
-0.00017284696
-3.0237379e-06
-0.00016971537
-3.1315947e-06
-0.00016647775
-3.237615e-06
-0.00016313603
-3.3417257e-06
-0.00015969217
-3.4438551e-06
-0.00015614824
-3.5439323e-06
-0.00015250635
-3.6418879e-06
-0.0001487687
-3.7376534e-06
-0.00014493754
-3.8311619e-06
-0.00014101519
-3.9223477e-06
-0.00013700404
-4.0111467e-06
-0.00013290655
-4.0974961e-06
-0.00012872521
-4.1813347e-06
-0.00012446261
-4.2626031e-06
-0.00012012137
-4.3412433e-06
-0.00011570417
-4.4171992e-06
-0.00011121375
-4.4904164e-06
-0.00010665291
-4.5608424e-06
-0.00010202448
-4.6284266e-06
-9.733136e-05
-4.6931202e-06
-9.2576484e-05
-4.7548765e-06
-8.7762833e-05
-4.8136508e-06
-8.2893432e-05
-4.8694006e-06
-7.7971347e-05
-4.9220853e-06
-7.2999681e-05
-4.9716665e-06
-6.7981572e-05
-5.0181082e-06
-6.2920196e-05
-5.0613765e-06
-5.7818756e-05
-5.1014396e-06
-5.2680488e-05
-5.1382684e-06
-4.7508652e-05
-5.1718358e-06
-4.2306535e-05
-5.2021173e-06
-3.7077444e-05
-5.2290904e-06
-3.1824709e-05
-5.2527356e-06
-2.6551674e-05
-5.2730352e-06
-2.1261699e-05
-5.2899745e-06
-1.5958158e-05
-5.303541e-06
-1.0644433e-05
-5.3137246e-06
-5.3239157e-06
-5.3205178e-06
-5.3239157e-06
5.3296272e-06
-1.0653543e-05
1.0655853e-05
-1.0646743e-05
1.5975278e-05
-1.0633149e-05
2.1284507e-05
-1.0612771e-05
2.6580156e-05
-1.0585623e-05
3.1858847e-05
-1.0551726e-05
3.7117215e-05
-1.0511104e-05
4.2351912e-05
-1.0463788e-05
4.7559607e-05
-1.0409812e-05
5.2736986e-05
-1.0349215e-05
5.7880761e-05
-1.0282044e-05
6.2987667e-05
-1.0208345e-05
6.8054465e-05
-1.0128175e-05
7.3077948e-05
-1.0041591e-05
7.8054937e-05
-9.9486561e-06
8.2982291e-05
-9.849439e-06
8.7856902e-05
-9.7440117e-06
9.2675702e-05
-9.6324508e-06
9.7435663e-05
-9.5148375e-06
0.0001021338
-9.3912569e-06
0.00010676717
-9.2617986e-06
0.00011133289
-9.126556e-06
0.0001158281
-8.9856267e-06
0.00012025001
-8.8391119e-06
0.00012459588
-8.6871168e-06
0.00012886303
-8.5297501e-06
0.00013304882
-8.3671243e-06
0.00013715068
-8.1993552e-06
0.00014116609
-8.0265619e-06
0.00014509261
-7.8488668e-06
0.00014892785
-7.6663954e-06
0.00015266947
-7.4792762e-06
0.00015631522
-7.2876406e-06
0.00015986291
-7.0916225e-06
0.00016331042
-6.8913589e-06
0.00016665568
-6.6869888e-06
0.00016989672
-6.4786539e-06
0.00017303162
-6.266498e-06
0.00017605855
-6.050667e-06
0.00017897574
-5.8313088e-06
0.0001817815
-5.6085733e-06
0.00018447422
-5.3826117e-06
0.00018705236
-5.1535773e-06
0.00018951446
-4.9216244e-06
0.00019185915
-4.686909e-06
0.0001940851
-4.449588e-06
0.00019619111
-4.2098196e-06
0.00019817602
-3.9677626e-06
0.00020003877
-3.7235769e-06
0.00020177839
-3.4774229e-06
0.00020339395
-3.2294617e-06
0.00020488464
-2.9798546e-06
0.00020624972
-2.7287634e-06
0.00020748853
-2.4763498e-06
0.00020860048
-2.2227758e-06
0.00020958507
-1.9682032e-06
0.00021044189
-1.7127935e-06
0.0002111706
-1.4567082e-06
0.00021177095
-1.200108e-06
0.00021224274
-9.4315321e-07
0.0002125859
-6.8600356e-07
0.00021280039
-4.2881792e-07
0.00021288628
-1.7175438e-07
0.00021284371
8.5029903e-08
0.0002126729
3.4137928e-07
0.00021237414
5.9713963e-07
0.0002119478
8.5215634e-07
0.00021139434
1.1062775e-06
0.00021071427
1.3593524e-06
0.00020990819
1.611232e-06
0.00020897678
1.8617687e-06
0.00020792079
2.1108167e-06
0.00020674101
2.358232e-06
0.00020543836
2.6038723e-06
0.00020401377
2.8475973e-06
0.00020246829
3.0892689e-06
0.00020080301
3.3287506e-06
0.00019901908
3.5659085e-06
0.00019711774
3.8006106e-06
0.00019510028
4.0327272e-06
0.00019296806
4.2621309e-06
0.0001907225
4.4886965e-06
0.00018836508
4.7123014e-06
0.00018589734
4.9328253e-06
0.00018332088
5.1501504e-06
0.00018063736
5.3641613e-06
0.00017784849
5.5747452e-06
0.00017495605
5.7817918e-06
0.00017196185
5.9851935e-06
0.00016886777
6.1848453e-06
0.00016567575
6.3806446e-06
0.00016238775
6.5724918e-06
0.00015900581
6.7602896e-06
0.00015553199
6.9439437e-06
0.00015196841
7.1233623e-06
0.00014831725
7.2984563e-06
0.0001445807
7.4691395e-06
0.00014076101
7.6353283e-06
0.00013686047
7.7969416e-06
0.00013288142
7.9539013e-06
0.00012882621
8.106132e-06
0.00012469725
8.2535609e-06
0.00012049697
8.396118e-06
0.00011622785
8.5337359e-06
0.00011189239
8.6663499e-06
0.00010749313
8.7938982e-06
0.00010303262
8.9163216e-06
9.8513456e-05
9.0335634e-06
9.3938265e-05
9.1455697e-06
8.9309687e-05
9.2522893e-06
8.4630392e-05
9.3536737e-06
7.9903071e-05
9.4496768e-06
7.5130438e-05
9.5402554e-06
7.0315226e-05
9.6253687e-06
6.546019e-05
9.7049787e-06
6.05681e-05
9.7790498e-06
5.5641743e-05
9.8475492e-06
5.0683921e-05
9.9104465e-06
4.5697452e-05
9.9677139e-06
4.0685163e-05
1.0019326e-05
3.5649896e-05
1.0065261e-05
3.05945e-05
1.0105498e-05
2.5521835e-05
1.0140019e-05
2.0434768e-05
1.0168809e-05
1.5336171e-05
1.0191857e-05
1.0228922e-05
1.0209151e-05
5.1159039e-06
1.0220685e-05
-1.7595108e-15
1.0226453e-05
-5.1159039e-06
1.0226453e-05
-1.0228922e-05
1.0220685e-05
-1.5336171e-05
1.0209151e-05
-2.0434768e-05
1.0191857e-05
-2.5521835e-05
1.0168809e-05
-3.05945e-05
1.0140019e-05
-3.5649896e-05
1.0105498e-05
-4.0685163e-05
1.0065261e-05
-4.5697452e-05
1.0019326e-05
-5.0683921e-05
9.9677139e-06
-5.5641743e-05
9.9104465e-06
-6.05681e-05
9.8475492e-06
-6.546019e-05
9.7790498e-06
-7.0315226e-05
9.7049787e-06
-7.5130438e-05
9.6253687e-06
-7.9903071e-05
9.5402554e-06
-8.4630392e-05
9.4496768e-06
-8.9309687e-05
9.3536737e-06
-9.3938265e-05
9.2522893e-06
-9.8513456e-05
9.1455697e-06
-0.00010303262
9.0335634e-06
-0.00010749313
8.9163216e-06
-0.00011189239
8.7938982e-06
-0.00011622785
8.6663499e-06
-0.00012049697
8.5337359e-06
-0.00012469725
8.396118e-06
-0.00012882621
8.2535609e-06
-0.00013288142
8.106132e-06
-0.00013686047
7.9539013e-06
-0.00014076101
7.7969416e-06
-0.0001445807
7.6353283e-06
-0.00014831725
7.4691395e-06
-0.00015196841
7.2984563e-06
-0.00015553199
7.1233623e-06
-0.00015900581
6.9439437e-06
-0.00016238775
6.7602896e-06
-0.00016567575
6.5724918e-06
-0.00016886777
6.3806446e-06
-0.00017196185
6.1848453e-06
-0.00017495605
5.9851935e-06
-0.00017784849
5.7817918e-06
-0.00018063736
5.5747452e-06
-0.00018332088
5.3641613e-06
-0.00018589734
5.1501504e-06
-0.00018836508
4.9328253e-06
-0.0001907225
4.7123014e-06
-0.00019296806
4.4886965e-06
-0.00019510028
4.2621309e-06
-0.00019711774
4.0327272e-06
-0.00019901908
3.8006106e-06
-0.00020080301
3.5659085e-06
-0.00020246829
3.3287506e-06
-0.00020401377
3.0892689e-06
-0.00020543836
2.8475973e-06
-0.00020674101
2.6038723e-06
-0.00020792079
2.358232e-06
-0.00020897678
2.1108167e-06
-0.00020990819
1.8617687e-06
-0.00021071427
1.611232e-06
-0.00021139434
1.3593524e-06
-0.0002119478
1.1062775e-06
-0.00021237414
8.5215634e-07
-0.0002126729
5.9713963e-07
-0.00021284371
3.4137928e-07
-0.00021288628
8.5029902e-08
-0.00021280039
-1.7175438e-07
-0.0002125859
-4.2881792e-07
-0.00021224274
-6.8600356e-07
-0.00021177095
-9.4315321e-07
-0.0002111706
-1.200108e-06
-0.00021044189
-1.4567082e-06
-0.00020958507
-1.7127935e-06
-0.00020860048
-1.9682032e-06
-0.00020748853
-2.2227758e-06
-0.00020624972
-2.4763498e-06
-0.00020488464
-2.7287634e-06
-0.00020339395
-2.9798546e-06
-0.00020177839
-3.2294617e-06
-0.00020003877
-3.4774229e-06
-0.00019817602
-3.7235769e-06
-0.00019619111
-3.9677626e-06
-0.0001940851
-4.2098196e-06
-0.00019185915
-4.449588e-06
-0.00018951446
-4.686909e-06
-0.00018705236
-4.9216244e-06
-0.00018447422
-5.1535773e-06
-0.0001817815
-5.3826117e-06
-0.00017897574
-5.6085733e-06
-0.00017605855
-5.8313088e-06
-0.00017303162
-6.050667e-06
-0.00016989672
-6.266498e-06
-0.00016665568
-6.4786539e-06
-0.00016331042
-6.6869888e-06
-0.00015986291
-6.8913589e-06
-0.00015631522
-7.0916225e-06
-0.00015266947
-7.2876406e-06
-0.00014892785
-7.4792762e-06
-0.00014509261
-7.6663954e-06
-0.00014116609
-7.8488668e-06
-0.00013715068
-8.0265619e-06
-0.00013304882
-8.1993552e-06
-0.00012886303
-8.3671243e-06
-0.00012459588
-8.5297501e-06
-0.00012025001
-8.6871168e-06
-0.0001158281
-8.8391119e-06
-0.00011133289
-8.9856267e-06
-0.00010676717
-9.126556e-06
-0.0001021338
-9.2617986e-06
-9.7435663e-05
-9.3912569e-06
-9.2675702e-05
-9.5148375e-06
-8.7856902e-05
-9.6324508e-06
-8.2982291e-05
-9.7440117e-06
-7.8054937e-05
-9.849439e-06
-7.3077948e-05
-9.9486561e-06
-6.8054465e-05
-1.0041591e-05
-6.2987667e-05
-1.0128175e-05
-5.7880761e-05
-1.0208345e-05
-5.2736986e-05
-1.0282044e-05
-4.7559607e-05
-1.0349215e-05
-4.2351912e-05
-1.0409812e-05
-3.7117215e-05
-1.0463788e-05
-3.1858847e-05
-1.0511104e-05
-2.6580156e-05
-1.0551726e-05
-2.1284507e-05
-1.0585623e-05
-1.5975278e-05
-1.0612771e-05
-1.0655853e-05
-1.0633149e-05
-5.3296272e-06
-1.0646743e-05
-1.0653543e-05
5.339348e-06
-1.5992891e-05
1.0675288e-05
-1.5982683e-05
1.6004415e-05
-1.5962276e-05
2.1323328e-05
-1.5931684e-05
2.6628635e-05
-1.589093e-05
3.1916953e-05
-1.5840044e-05
3.7184911e-05
-1.5779062e-05
4.2429155e-05
-1.5708031e-05
4.7646346e-05
-1.5627003e-05
5.2833167e-05
-1.5536036e-05
5.7986322e-05
-1.5435198e-05
6.3102539e-05
-1.5324563e-05
6.8178576e-05
-1.5204211e-05
7.3211217e-05
-1.5074232e-05
7.819728e-05
-1.4934719e-05
8.3133616e-05
-1.4785775e-05
8.8017112e-05
-1.4627508e-05
9.2844695e-05
-1.4460034e-05
9.7613331e-05
-1.4283473e-05
0.00010232003
-1.4097955e-05
0.00010696184
-1.3903613e-05
0.00011153588
-1.3700588e-05
0.00011603928
-1.3489026e-05
0.00012046924
-1.3269079e-05
0.00012482303
-1.3040906e-05
0.00012909795
-1.2804668e-05
0.00013329136
-1.2560536e-05
0.00013740069
-1.2308682e-05
0.00014142341
-1.2049287e-05
0.00014535708
-1.1782533e-05
0.00014919929
-1.1508608e-05
0.00015294772
-1.1227707e-05
0.00015660011
-1.0940025e-05
0.00016015425
-1.0645765e-05
0.00016360802
-1.0345132e-05
0.00016695937
-1.0038334e-05
0.0001702063
-9.7255837e-06
0.0001733469
-9.4070978e-06
0.00017637933
-9.0830949e-06
0.00017930181
-8.7537972e-06
0.00018211267
-8.4194294e-06
0.00018481028
-8.0802189e-06
0.0001873931
-7.7363955e-06
0.00018985966
-7.3881911e-06
0.00019220859
-7.0358397e-06
0.00019443858
-6.6795769e-06
0.0001965484
-6.31964e-06
0.00019853691
-5.9562678e-06
0.00020040303
-5.5897e-06
0.00020214579
-5.2201776e-06
0.00020376427
-4.8479423e-06
0.00020525765
-4.4732363e-06
0.00020662519
-4.0963024e-06
0.00020786622
-3.7173836e-06
0.00020898017
-3.3367228e-06
0.00020996653
-2.9545631e-06
0.00021082488
-2.571147e-06
0.00021155489
-2.1867166e-06
0.00021215629
-1.8015134e-06
0.00021262892
-1.4157782e-06
0.00021297267
-1.0297505e-06
0.00021318752
-6.4366885e-07
0.00021327353
-2.5777059e-07
0.00021323085
1.2770854e-07
0.0002130597
5.1253467e-07
0.00021276036
8.9647563e-07
0.00021233322
1.2793005e-06
0.00021177872
1.6607809e-06
0.00021109738
2.0406907e-06
0.0002102898
2.4188059e-06
0.00020935667
2.794905e-06
0.00020829871
3.1687692e-06
0.00020711676
3.5401822e-06
0.00020581171
3.9089305e-06
0.0002043845
4.2748035e-06
0.00020283618
4.6375936e-06
0.00020116783
4.9970964e-06
0.00019938063
5.3531104e-06
0.0001974758
5.7054378e-06
0.00019545464
6.0538836e-06
0.00019331852
6.3982567e-06
0.00019106885
6.7383694e-06
0.00018870711
7.0740373e-06
0.00018623485
7.4050799e-06
0.00018365369
7.7313204e-06
0.00018096526
8.0525855e-06
0.0001781713
8.368706e-06
0.00017527358
8.6795164e-06
0.00017227391
8.9848549e-06
0.0001691742
9.284564e-06
0.00016597635
9.5784899e-06
0.00016268236
9.8664827e-06
0.00015929425
1.0148397e-05
0.00015581411
1.042409e-05
0.00015224404
1.0693425e-05
0.00014858623
1.0956268e-05
0.00014484288
1.121249e-05
0.00014101624
1.1461965e-05
0.00013710861
1.1704571e-05
0.00013312232
1.1940191e-05
0.00012905974
1.2168712e-05
0.00012492328
1.2390025e-05
0.00012071537
1.2604025e-05
0.0001164385
1.2810609e-05
0.00011209517
1.3009683e-05
0.00010768791
1.3201151e-05
0.00010321931
1.3384927e-05
9.8691948e-05
1.3560924e-05
9.4108456e-05
1.3729061e-05
8.9471483e-05
1.3889263e-05
8.4783701e-05
1.4041455e-05
8.0047808e-05
1.418557e-05
7.5266523e-05
1.4321541e-05
7.0442583e-05
1.4449308e-05
6.5578748e-05
1.4568814e-05
6.0677793e-05
1.4680005e-05
5.5742509e-05
1.4782832e-05
5.0775706e-05
1.487725e-05
4.5780204e-05
1.4963216e-05
4.0758836e-05
1.5040694e-05
3.5714449e-05
1.5109648e-05
3.0649898e-05
1.5170049e-05
2.5568047e-05
1.522187e-05
2.0471768e-05
1.5265089e-05
1.5363939e-05
1.5299686e-05
1.0247443e-05
1.5325648e-05
5.1251667e-06
1.5342961e-05
-1.7627453e-15
1.535162e-05
-5.1251667e-06
1.535162e-05
-1.0247443e-05
1.5342961e-05
-1.5363939e-05
1.5325648e-05
-2.0471768e-05
1.5299686e-05
-2.5568047e-05
1.5265089e-05
-3.0649898e-05
1.522187e-05
-3.5714449e-05
1.5170049e-05
-4.0758836e-05
1.5109648e-05
-4.5780204e-05
1.5040694e-05
-5.0775706e-05
1.4963216e-05
-5.5742509e-05
1.487725e-05
-6.0677793e-05
1.4782832e-05
-6.5578748e-05
1.4680005e-05
-7.0442583e-05
1.4568814e-05
-7.5266523e-05
1.4449308e-05
-8.0047808e-05
1.4321541e-05
-8.4783701e-05
1.418557e-05
-8.9471483e-05
1.4041455e-05
-9.4108456e-05
1.3889263e-05
-9.8691948e-05
1.3729061e-05
-0.00010321931
1.3560924e-05
-0.00010768791
1.3384927e-05
-0.00011209517
1.3201151e-05
-0.0001164385
1.3009683e-05
-0.00012071537
1.2810609e-05
-0.00012492328
1.2604025e-05
-0.00012905974
1.2390025e-05
-0.00013312232
1.2168712e-05
-0.00013710861
1.1940191e-05
-0.00014101624
1.1704571e-05
-0.00014484288
1.1461965e-05
-0.00014858623
1.121249e-05
-0.00015224404
1.0956268e-05
-0.00015581411
1.0693425e-05
-0.00015929425
1.042409e-05
-0.00016268236
1.0148397e-05
-0.00016597635
9.8664827e-06
-0.0001691742
9.5784899e-06
-0.00017227391
9.284564e-06
-0.00017527358
8.9848549e-06
-0.0001781713
8.6795164e-06
-0.00018096526
8.368706e-06
-0.00018365369
8.0525855e-06
-0.00018623485
7.7313204e-06
-0.00018870711
7.4050799e-06
-0.00019106885
7.0740373e-06
-0.00019331852
6.7383694e-06
-0.00019545464
6.3982567e-06
-0.0001974758
6.0538836e-06
-0.00019938063
5.7054378e-06
-0.00020116783
5.3531104e-06
-0.00020283618
4.9970964e-06
-0.0002043845
4.6375936e-06
-0.00020581171
4.2748035e-06
-0.00020711676
3.9089305e-06
-0.00020829871
3.5401822e-06
-0.00020935667
3.1687692e-06
-0.0002102898
2.794905e-06
-0.00021109738
2.4188059e-06
-0.00021177872
2.0406907e-06
-0.00021233322
1.6607809e-06
-0.00021276036
1.2793005e-06
-0.0002130597
8.9647563e-07
-0.00021323085
5.1253467e-07
-0.00021327353
1.2770854e-07
-0.00021318752
-2.5777059e-07
-0.00021297267
-6.4366885e-07
-0.00021262892
-1.0297505e-06
-0.00021215629
-1.4157782e-06
-0.00021155489
-1.8015134e-06
-0.00021082488
-2.1867166e-06
-0.00020996653
-2.571147e-06
-0.00020898017
-2.9545631e-06
-0.00020786622
-3.3367228e-06
-0.00020662519
-3.7173836e-06
-0.00020525765
-4.0963024e-06
-0.00020376427
-4.4732363e-06
-0.00020214579
-4.8479423e-06
-0.00020040303
-5.2201776e-06
-0.00019853691
-5.5897e-06
-0.0001965484
-5.9562678e-06
-0.00019443858
-6.31964e-06
-0.00019220859
-6.6795769e-06
-0.00018985966
-7.0358397e-06
-0.0001873931
-7.3881911e-06
-0.00018481028
-7.7363955e-06
-0.00018211267
-8.0802189e-06
-0.00017930181
-8.4194294e-06
-0.00017637933
-8.7537972e-06
-0.0001733469
-9.0830949e-06
-0.0001702063
-9.4070978e-06
-0.00016695937
-9.7255837e-06
-0.00016360802
-1.0038334e-05
-0.00016015425
-1.0345132e-05
-0.00015660011
-1.0645765e-05
-0.00015294772
-1.0940025e-05
-0.00014919929
-1.1227707e-05
-0.00014535708
-1.1508608e-05
-0.00014142341
-1.1782533e-05
-0.00013740069
-1.2049287e-05
-0.00013329136
-1.2308682e-05
-0.00012909795
-1.2560536e-05
-0.00012482303
-1.2804668e-05
-0.00012046924
-1.3040906e-05
-0.00011603928
-1.3269079e-05
-0.00011153588
-1.3489026e-05
-0.00010696184
-1.3700588e-05
-0.00010232003
-1.3903613e-05
-9.7613331e-05
-1.4097955e-05
-9.2844695e-05
-1.4283473e-05
-8.8017112e-05
-1.4460034e-05
-8.3133616e-05
-1.4627508e-05
-7.819728e-05
-1.4785775e-05
-7.3211217e-05
-1.4934719e-05
-6.8178576e-05
-1.5074232e-05
-6.3102539e-05
-1.5204211e-05
-5.7986322e-05
-1.5324563e-05
-5.2833167e-05
-1.5435198e-05
-4.7646346e-05
-1.5536036e-05
-4.2429155e-05
-1.5627003e-05
-3.7184911e-05
-1.5708031e-05
-3.1916953e-05
-1.5779062e-05
-2.6628635e-05
-1.5840044e-05
-2.1323328e-05
-1.589093e-05
-1.6004415e-05
-1.5931684e-05
-1.0675288e-05
-1.5962276e-05
-5.339348e-06
-1.5982683e-05
-1.5992891e-05
5.3530768e-06
-2.1345968e-05
1.0702737e-05
-2.1332344e-05
1.6045567e-05
-2.1305106e-05
2.1378156e-05
-2.1264274e-05
2.6697105e-05
-2.1209879e-05
3.1999021e-05
-2.1141959e-05
3.7280525e-05
-2.1060567e-05
4.2538253e-05
-2.096576e-05
4.776886e-05
-2.0857609e-05
5.2969018e-05
-2.0736194e-05
5.8135424e-05
-2.0601604e-05
6.3264798e-05
-2.0453937e-05
6.8353888e-05
-2.0293301e-05
7.3399471e-05
-2.0119815e-05
7.8398356e-05
-1.9933604e-05
8.3347387e-05
-1.9734806e-05
8.8243442e-05
-1.9523564e-05
9.3083441e-05
-1.9300032e-05
9.7864341e-05
-1.9064374e-05
0.00010258315
-1.8816759e-05
0.0001072369
-1.8557367e-05
0.0001118227
-1.8286386e-05
0.00011633768
-1.8004009e-05
0.00012077904
-1.7710442e-05
0.00012514403
-1.7405894e-05
0.00012942995
-1.7090583e-05
0.00013363415
-1.6764735e-05
0.00013775404
-1.6428582e-05
0.00014178712
-1.6082361e-05
0.00014573091
-1.5726319e-05
0.000149583
-1.5360707e-05
0.00015334108
-1.4985783e-05
0.00015700286
-1.4601809e-05
0.00016056615
-1.4209054e-05
0.00016402881
-1.3807793e-05
0.00016738878
-1.3398304e-05
0.00017064407
-1.298087e-05
0.00017379275
-1.2555781e-05
0.00017683299
-1.2123329e-05
0.000179763
-1.1683809e-05
0.00018258109
-1.1237522e-05
0.00018528564
-1.0784771e-05
0.00018787511
-1.0325864e-05
0.00019034803
-9.8611087e-06
0.00019270301
-9.3908187e-06
0.00019493874
-8.9153081e-06
0.00019705399
-8.4348937e-06
0.00019904762
-7.949894e-06
0.00020091855
-7.4606293e-06
0.00020266579
-6.967421e-06
0.00020428844
-6.4705917e-06
0.00020578567
-5.9704648e-06
0.00020715673
-5.4673643e-06
0.00020840096
-4.9616145e-06
0.00020951778
-4.4535397e-06
0.00021050668
-3.9434643e-06
0.00021136725
-3.431712e-06
0.00021209914
-2.918606e-06
0.00021270209
-2.4044686e-06
0.00021317593
-1.889621e-06
0.00021352057
-1.3743832e-06
0.00021373597
-8.5907341e-07
0.00021382221
-3.4400841e-07
0.00021377942
1.7049722e-07
0.00021360782
6.841311e-07
0.00021330772
1.1965832e-06
0.00021287947
1.7075456e-06
0.00021232354
2.2167136e-06
0.00021164044
2.7237851e-06
0.00021083079
3.2284612e-06
0.00020989525
3.7304464e-06
0.00020883457
4.2294484e-06
0.00020764957
4.7251787e-06
0.00020634115
5.2173522e-06
0.00020491026
5.7056879e-06
0.00020335795
6.1899087e-06
0.0002016853
6.6697417e-06
0.0001998935
7.1449181e-06
0.00019798376
7.6151736e-06
0.0001959574
8.0802483e-06
0.00019381577
8.5398869e-06
0.0001915603
8.9938389e-06
0.00018919248
9.4418582e-06
0.00018671385
9.883704e-06
0.00018412603
1.031914e-05
0.00018143068
1.0747935e-05
0.00017862952
1.1169864e-05
0.00017572434
1.1584705e-05
0.00017271695
1.1992242e-05
0.00016960925
1.2392266e-05
0.00016640317
1.278457e-05
0.00016310069
1.3168956e-05
0.00015970386
1.3545228e-05
0.00015621475
1.3913197e-05
0.0001526355
1.4272679e-05
0.00014896827
1.4623497e-05
0.00014521529
1.4965477e-05
0.0001413788
1.5298451e-05
0.00013746111
1.5622257e-05
0.00013346456
1.593674e-05
0.00012939153
1.6241747e-05
0.00012524442
1.6537133e-05
0.00012102569
1.6822757e-05
0.00011673781
1.7098486e-05
0.00011238331
1.7364188e-05
0.00010796472
1.7619741e-05
0.00010348462
1.7865025e-05
9.8945616e-05
1.8099927e-05
9.4350338e-05
1.832434e-05
8.9701441e-05
1.853816e-05
8.5001606e-05
1.874129e-05
8.0253536e-05
1.8933639e-05
7.5459958e-05
1.9115119e-05
7.0623618e-05
1.9285649e-05
6.5747279e-05
1.9445152e-05
6.0833726e-05
1.9593558e-05
5.5885758e-05
1.9730801e-05
5.0906189e-05
1.9856819e-05
4.5897847e-05
1.9971558e-05
4.0863575e-05
2.0074966e-05
3.5806224e-05
2.0166998e-05
3.0728658e-05
2.0247615e-05
2.5633748e-05
2.031678e-05
2.0524373e-05
2.0374464e-05
1.5403418e-05
2.0420641e-05
1.0273775e-05
2.0455291e-05
5.1383363e-06
2.04784e-05
-1.7548564e-15
2.0489957e-05
-5.1383363e-06
2.0489957e-05
-1.0273775e-05
2.04784e-05
-1.5403418e-05
2.0455291e-05
-2.0524373e-05
2.0420641e-05
-2.5633748e-05
2.0374464e-05
-3.0728658e-05
2.031678e-05
-3.5806224e-05
2.0247615e-05
-4.0863575e-05
2.0166998e-05
-4.5897847e-05
2.0074966e-05
-5.0906189e-05
1.9971558e-05
-5.5885758e-05
1.9856819e-05
-6.0833726e-05
1.9730801e-05
-6.5747279e-05
1.9593558e-05
-7.0623618e-05
1.9445152e-05
-7.5459958e-05
1.9285649e-05
-8.0253536e-05
1.9115119e-05
-8.5001606e-05
1.8933639e-05
-8.9701441e-05
1.874129e-05
-9.4350338e-05
1.853816e-05
-9.8945616e-05
1.832434e-05
-0.00010348462
1.8099927e-05
-0.00010796472
1.7865025e-05
-0.00011238331
1.7619741e-05
-0.00011673781
1.7364188e-05
-0.00012102569
1.7098486e-05
-0.00012524442
1.6822757e-05
-0.00012939153
1.6537133e-05
-0.00013346456
1.6241747e-05
-0.00013746111
1.593674e-05
-0.0001413788
1.5622257e-05
-0.00014521529
1.5298451e-05
-0.00014896827
1.4965477e-05
-0.0001526355
1.4623497e-05
-0.00015621475
1.4272679e-05
-0.00015970386
1.3913197e-05
-0.00016310069
1.3545228e-05
-0.00016640317
1.3168956e-05
-0.00016960925
1.278457e-05
-0.00017271695
1.2392266e-05
-0.00017572434
1.1992242e-05
-0.00017862952
1.1584705e-05
-0.00018143068
1.1169864e-05
-0.00018412603
1.0747935e-05
-0.00018671385
1.031914e-05
-0.00018919248
9.883704e-06
-0.0001915603
9.4418582e-06
-0.00019381577
8.9938389e-06
-0.0001959574
8.5398869e-06
-0.00019798376
8.0802483e-06
-0.0001998935
7.6151736e-06
-0.0002016853
7.1449181e-06
-0.00020335795
6.6697417e-06
-0.00020491026
6.1899087e-06
-0.00020634115
5.7056879e-06
-0.00020764957
5.2173522e-06
-0.00020883457
4.7251787e-06
-0.00020989525
4.2294484e-06
-0.00021083079
3.7304464e-06
-0.00021164044
3.2284612e-06
-0.00021232354
2.723785e-06
-0.00021287947
2.2167136e-06
-0.00021330772
1.7075456e-06
-0.00021360782
1.1965832e-06
-0.00021377942
6.841311e-07
-0.00021382221
1.7049722e-07
-0.00021373597
-3.4400841e-07
-0.00021352057
-8.5907342e-07
-0.00021317593
-1.3743832e-06
-0.00021270209
-1.889621e-06
-0.00021209914
-2.4044686e-06
-0.00021136725
-2.918606e-06
-0.00021050668
-3.431712e-06
-0.00020951778
-3.9434643e-06
-0.00020840096
-4.4535397e-06
-0.00020715673
-4.9616145e-06
-0.00020578567
-5.4673643e-06
-0.00020428844
-5.9704648e-06
-0.00020266579
-6.4705917e-06
-0.00020091855
-6.967421e-06
-0.00019904762
-7.4606293e-06
-0.00019705399
-7.949894e-06
-0.00019493874
-8.4348937e-06
-0.00019270301
-8.9153081e-06
-0.00019034803
-9.3908187e-06
-0.00018787511
-9.8611087e-06
-0.00018528564
-1.0325864e-05
-0.00018258109
-1.0784771e-05
-0.000179763
-1.1237522e-05
-0.00017683299
-1.1683809e-05
-0.00017379275
-1.2123329e-05
-0.00017064407
-1.2555781e-05
-0.00016738878
-1.298087e-05
-0.00016402881
-1.3398304e-05
-0.00016056615
-1.3807793e-05
-0.00015700286
-1.4209054e-05
-0.00015334108
-1.4601809e-05
-0.000149583
-1.4985783e-05
-0.00014573091
-1.5360707e-05
-0.00014178712
-1.5726319e-05
-0.00013775404
-1.6082361e-05
-0.00013363415
-1.6428582e-05
-0.00012942995
-1.6764735e-05
-0.00012514403
-1.7090583e-05
-0.00012077904
-1.7405894e-05
-0.00011633768
-1.7710442e-05
-0.0001118227
-1.8004009e-05
-0.0001072369
-1.8286386e-05
-0.00010258315
-1.8557367e-05
-9.7864341e-05
-1.8816759e-05
-9.3083441e-05
-1.9064374e-05
-8.8243442e-05
-1.9300032e-05
-8.3347387e-05
-1.9523564e-05
-7.8398356e-05
-1.9734806e-05
-7.3399471e-05
-1.9933604e-05
-6.8353888e-05
-2.0119815e-05
-6.3264798e-05