/*--------------------------------*- C++ -*----------------------------------*\
| =========                 |                                                 |
| \\      /  F ield         | OpenFOAM: The Open Source CFD Toolbox           |
|  \\    /   O peration     | Version:  2306                                  |
|   \\  /    A nd           | Website:  www.openfoam.com                      |
|    \\/     M anipulation  |                                                 |
\*---------------------------------------------------------------------------*/
FoamFile
{
    version     2.0;
    format      ascii;
    arch        "LSB;label=32;scalar=64";
    class       surfaceScalarField;
    location    "0.29";
    object      phi;
}
// * * * * * * * * * * * * * * * * * * * * * * * * * * * * * * * * * * * * * //

dimensions      [0 3 -1 0 0 0 0];

oriented        oriented;

internalField   nonuniform List<scalar> 
12640
(
3.8125202e-06
4.0969742e-06
3.9331439e-06
3.9384478e-06
4.0433852e-06
3.7773608e-06
4.1436e-06
3.6142107e-06
4.2341453e-06
3.4494594e-06
4.3153796e-06
3.2835319e-06
4.3876591e-06
3.1168201e-06
4.4513369e-06
2.9496846e-06
4.5067623e-06
2.7824555e-06
4.5542783e-06
2.6154351e-06
4.5942222e-06
2.448899e-06
4.6269233e-06
2.2830977e-06
4.6527043e-06
2.1182594e-06
4.6718784e-06
1.9545902e-06
4.6847499e-06
1.7922756e-06
4.6916147e-06
1.6314824e-06
4.6927595e-06
1.4723598e-06
4.6884605e-06
1.3150406e-06
4.6789848e-06
1.1596428e-06
4.6645897e-06
1.0062701e-06
4.6455231e-06
8.5501168e-07
4.6220229e-06
7.0594578e-07
4.5943177e-06
5.5914142e-07
4.5626275e-06
4.1465155e-07
4.5271517e-06
2.7252636e-07
4.4880979e-06
1.3279969e-07
4.4456828e-06
-4.4499361e-09
4.4000575e-06
-1.3925474e-07
4.3514047e-06
-2.7159091e-07
4.2998902e-06
-4.014394e-07
4.2456725e-06
-5.2879399e-07
4.1889013e-06
-6.5365203e-07
4.1297186e-06
-7.7601772e-07
4.06826e-06
-8.9589923e-07
4.004653e-06
-1.0133063e-06
3.9390171e-06
-1.1282532e-06
3.8714683e-06
-1.2407565e-06
3.8021128e-06
-1.3508353e-06
3.7310527e-06
-1.4585112e-06
3.6583825e-06
-1.5638071e-06
3.5841931e-06
-1.6667469e-06
3.5085678e-06
-1.7673577e-06
3.4315851e-06
-1.8656646e-06
3.3533201e-06
-1.961696e-06
3.2738394e-06
-2.0554795e-06
3.1932091e-06
-2.1470441e-06
3.1114876e-06
-2.2364178e-06
3.0287311e-06
-2.3236296e-06
2.9449901e-06
-2.4087076e-06
2.8603121e-06
-2.4916811e-06
2.7747408e-06
-2.5725761e-06
2.6883157e-06
-2.6514212e-06
2.6010742e-06
-2.728243e-06
2.5130485e-06
-2.8030671e-06
2.4242696e-06
-2.875918e-06
2.3347642e-06
-2.9468205e-06
2.2445566e-06
-3.0157969e-06
2.1536685e-06
-3.0828693e-06
2.0621197e-06
-3.1480581e-06
1.9699265e-06
-3.2113832e-06
1.877103e-06
-3.2728623e-06
1.7836618e-06
-3.3325114e-06
1.6896129e-06
-3.3903463e-06
1.5949647e-06
-3.4463803e-06
1.4997239e-06
-3.5006253e-06
1.4038948e-06
-3.5530915e-06
1.3074805e-06
-3.6037874e-06
1.2104832e-06
-3.6527199e-06
1.1129023e-06
-3.6998937e-06
1.0147376e-06
-3.7453116e-06
9.1598617e-07
-3.7889746e-06
8.1664464e-07
-3.8308828e-06
7.1670914e-07
-3.8710323e-06
6.1617411e-07
-3.909419e-06
5.1503364e-07
-3.9460372e-06
4.1328049e-07
-3.9808835e-06
3.1090779e-07
-4.0139597e-06
2.0790856e-07
-4.0452902e-06
1.0427479e-07
-4.0749371e-06
-4.1029609e-06
3.6041845e-06
3.9661466e-06
3.7247904e-06
3.817842e-06
3.8354804e-06
3.6666707e-06
3.936568e-06
3.513123e-06
4.0283717e-06
3.3576557e-06
4.1112117e-06
3.2006917e-06
4.1854102e-06
3.0426218e-06
4.2512881e-06
2.8838066e-06
4.3091645e-06
2.7245792e-06
4.3593545e-06
2.565245e-06
4.402169e-06
2.4060843e-06
4.4379141e-06
2.2473529e-06
4.4668889e-06
2.0892846e-06
4.4893866e-06
1.9320927e-06
4.5056932e-06
1.7759693e-06
4.5160861e-06
1.6210893e-06
4.520836e-06
1.46761e-06
4.520204e-06
1.3156724e-06
4.5144447e-06
1.1654027e-06
4.5038023e-06
1.0169122e-06
4.4885135e-06
8.7030075e-07
4.4688051e-06
7.2565398e-07
4.4448977e-06
5.8304883e-07
4.4169997e-06
4.4254995e-07
4.3853129e-06
3.0421295e-07
4.3500236e-06
1.6808898e-07
4.311351e-06
3.4222744e-08
4.2694381e-06
-9.7341638e-08
4.2244645e-06
-2.2661725e-07
4.1765912e-06
-3.5356626e-07
4.1259724e-06
-4.7817498e-07
4.0727546e-06
-6.0043438e-07
4.0170781e-06
-7.2034144e-07
3.9590742e-06
-8.3789574e-07
3.8988694e-06
-9.5310153e-07
3.8365829e-06
-1.0659663e-06
3.772327e-06
-1.1765006e-06
3.7062083e-06
-1.2847167e-06
3.638328e-06
-1.3906307e-06
3.5687803e-06
-1.4942593e-06
3.497655e-06
-1.5956219e-06
3.425036e-06
-1.6947388e-06
3.3510029e-06
-1.7916312e-06
3.275629e-06
-1.886322e-06
3.1989843e-06
-1.9788348e-06
3.1211325e-06
-2.0691926e-06
3.0421358e-06
-2.1574208e-06
2.9620489e-06
-2.2435431e-06
2.8809255e-06
-2.3275838e-06
2.7988128e-06
-2.4095679e-06
2.7157563e-06
-2.48952e-06
2.6317972e-06
-2.5674621e-06
2.5469736e-06
-2.6434194e-06
2.46132e-06
-2.7174136e-06
2.3748682e-06
-2.7894665e-06
2.2876474e-06
-2.8595993e-06
2.1996835e-06
-2.9278328e-06
2.1109999e-06
-2.9941857e-06
2.0216181e-06
-3.0586759e-06
1.9315561e-06
-3.1213214e-06
1.8408302e-06
-3.1821363e-06
1.7494549e-06
-3.241136e-06
1.6574421e-06
-3.2983338e-06
1.5648029e-06
-3.3537412e-06
1.471545e-06
-3.4073676e-06
1.3776756e-06
-3.4592219e-06
1.2832e-06
-3.5093119e-06
1.1881218e-06
-3.5576414e-06
1.0924433e-06
-3.6042152e-06
9.9616565e-07
-3.6490341e-06
8.9928896e-07
-3.6920983e-06
8.0181282e-07
-3.7334062e-06
7.0373379e-07
-3.7729535e-06
6.0504964e-07
-3.8107351e-06
5.0575739e-07
-3.8467446e-06
4.0585167e-07
-3.8809777e-06
3.0532794e-07
-3.9134362e-06
2.0418145e-07
-3.9441437e-06
1.0240688e-07
-3.9731627e-06
-4.0005538e-06
3.4076433e-06
3.836293e-06
3.5277836e-06
3.6977018e-06
3.6384744e-06
3.5559799e-06
3.7399891e-06
3.4116084e-06
3.8326084e-06
3.2650365e-06
3.9166178e-06
3.1166821e-06
3.9923061e-06
2.9669334e-06
4.0599628e-06
2.8161498e-06
4.1198781e-06
2.6646641e-06
4.1723398e-06
2.5127832e-06
4.2176341e-06
2.3607901e-06
4.2560425e-06
2.2089443e-06
4.2878431e-06
2.057484e-06
4.3133081e-06
1.9066274e-06
4.3327046e-06
1.7565728e-06
4.3462933e-06
1.6075007e-06
4.3543278e-06
1.4595752e-06
4.357056e-06
1.3129444e-06
4.3547166e-06
1.1677419e-06
4.3475429e-06
1.0240859e-06
4.3357594e-06
8.8208401e-07
4.3195827e-06
7.4183092e-07
4.2992233e-06
6.0340806e-07
4.2748825e-06
4.6689095e-07
4.2467539e-06
3.3234138e-07
4.215024e-06
1.9981897e-07
4.1798777e-06
6.9368966e-08
4.1414846e-06
-5.8948529e-08
4.1000046e-06
-1.8513722e-07
4.0555962e-06
-3.0915812e-07
4.0084095e-06
-4.3098807e-07
3.9585876e-06
-5.5061239e-07
3.9062667e-06
-6.6802059e-07
3.8515767e-06
-7.8320562e-07
3.7946414e-06
-8.9616617e-07
3.7355775e-06
-1.0069025e-06
3.6744957e-06
-1.1154188e-06
3.6115023e-06
-1.2217231e-06
3.5466966e-06
-1.3258248e-06
3.4801726e-06
-1.4277354e-06
3.4120198e-06
-1.5274688e-06
3.3423215e-06
-1.6250405e-06
3.2711566e-06
-1.7204662e-06
3.1985994e-06
-1.813765e-06
3.1247198e-06
-1.9049551e-06
3.0495827e-06
-1.9940553e-06
2.9732494e-06
-2.0810875e-06
2.895777e-06
-2.1660703e-06
2.8172186e-06
-2.2490258e-06
2.7376238e-06
-2.3299732e-06
2.6570385e-06
-2.4089344e-06
2.5755055e-06
-2.4859289e-06
2.4930632e-06
-2.5609772e-06
2.4097487e-06
-2.6340987e-06
2.3255945e-06
-2.7053123e-06
2.2406312e-06
-2.7746365e-06
2.1548869e-06
-2.8420884e-06
2.0683861e-06
-2.9076851e-06
1.9811518e-06
-2.9714418e-06
1.8932043e-06
-3.0333741e-06
1.8045619e-06
-3.0934934e-06
1.7152404e-06
-3.1518149e-06
1.6252541e-06
-3.2083475e-06
1.534615e-06
-3.263102e-06
1.4433331e-06
-3.3160861e-06
1.3514188e-06
-3.3673072e-06
1.2588772e-06
-3.4167705e-06
1.1657158e-06
-3.4644802e-06
1.0719391e-06
-3.510438e-06
9.7754891e-07
-3.5546443e-06
8.8254879e-07
-3.5970979e-06
7.869393e-07
-3.6377968e-06
6.9072059e-07
-3.6767347e-06
5.9389195e-07
-3.7139065e-06
4.9645202e-07
-3.749305e-06
3.9839873e-07
-3.7829245e-06
2.9972965e-07
-3.8147671e-06
2.0044175e-07
-3.8448557e-06
1.0053292e-07
-3.8732538e-06
-3.9000208e-06
3.2223774e-06
3.7078066e-06
3.3416525e-06
3.5784268e-06
3.4519411e-06
3.4456913e-06
3.5534794e-06
3.3100704e-06
3.6465121e-06
3.1720037e-06
3.7312917e-06
3.0319028e-06
3.8080747e-06
2.8901503e-06
3.8771215e-06
2.7471031e-06
3.9386934e-06
2.6030921e-06
3.9930527e-06
2.4584239e-06
4.0404605e-06
2.3133823e-06
4.0811759e-06
2.1682288e-06
4.1154551e-06
2.0232049e-06
4.1435508e-06
1.8785318e-06
4.1657112e-06
1.7344123e-06
4.1821797e-06
1.5910321e-06
4.1931947e-06
1.4485607e-06
4.198988e-06
1.307151e-06
4.1997861e-06
1.1669436e-06
4.1958089e-06
1.0280633e-06
4.1872695e-06
8.9062336e-07
4.174375e-06
7.547251e-07
4.1573241e-06
6.2045914e-07
4.1363108e-06
4.8790397e-07
4.1115187e-06
3.5713355e-07
4.0831312e-06
2.2820639e-07
4.0513195e-06
1.0118094e-07
4.0162549e-06
-2.3883924e-08
3.978087e-06
-1.4696948e-07
3.9369703e-06
-2.6804128e-07
3.8930511e-06
-3.8706924e-07
3.8464689e-06
-5.0403006e-07
3.7973563e-06
-6.1890789e-07
3.7458406e-06
-7.3168989e-07
3.6920418e-06
-8.4236724e-07
3.6360756e-06
-9.5093602e-07
3.5780511e-06
-1.0573943e-06
3.5180716e-06
-1.1617435e-06
3.4562361e-06
-1.2639894e-06
3.3926373e-06
-1.3641368e-06
3.3273643e-06
-1.4621958e-06
3.2604993e-06
-1.5581753e-06
3.1921213e-06
-1.6520883e-06
3.1223048e-06
-1.7439484e-06
3.0511191e-06
-1.8337691e-06
2.9786303e-06
-1.9215667e-06
2.9048992e-06
-2.0073562e-06
2.8299835e-06
-2.091155e-06
2.7539373e-06
-2.1729796e-06
2.6768112e-06
-2.2528472e-06
2.598652e-06
-2.330775e-06
2.5195031e-06
-2.4067799e-06
2.4394041e-06
-2.4808786e-06
2.358393e-06
-2.5530876e-06
2.2765048e-06
-2.6234242e-06
2.1937704e-06
-2.6919019e-06
2.1102195e-06
-2.758537e-06
2.0258777e-06
-2.8233435e-06
1.9407703e-06
-2.8863344e-06
1.8549186e-06
-2.9475222e-06
1.7683432e-06
-3.0069182e-06
1.6810607e-06
-3.0645325e-06
1.5930878e-06
-3.1203746e-06
1.5044383e-06
-3.1744521e-06
1.4151241e-06
-3.2267718e-06
1.3251562e-06
-3.2773395e-06
1.234544e-06
-3.3261582e-06
1.143295e-06
-3.373231e-06
1.051416e-06
-3.4185592e-06
9.5891188e-07
-3.4621406e-06
8.657871e-07
-3.5039734e-06
7.720441e-07
-3.5440538e-06
6.7768634e-07
-3.5823771e-06
5.8271459e-07
-3.6189347e-06
4.8712946e-07
-3.65372e-06
3.9093145e-07
-3.6867262e-06
2.9411983e-07
-3.7179554e-06
1.9669488e-07
-3.7474304e-06
9.8654791e-08
-3.7752139e-06
-3.8013661e-06
3.0478684e-06
3.5810335e-06
3.1659245e-06
3.4603704e-06
3.2754513e-06
3.3361645e-06
3.37665e-06
3.2088716e-06
3.4697319e-06
3.0789218e-06
3.5549179e-06
2.946717e-06
3.6324339e-06
2.8126339e-06
3.7025124e-06
2.6770248e-06
3.765388e-06
2.5402166e-06
3.8212973e-06
2.4025143e-06
3.8704784e-06
2.2642014e-06
3.9131674e-06
2.1255401e-06
3.9496e-06
1.9867722e-06
3.9800094e-06
1.8481223e-06
4.0046258e-06
1.7097959e-06
4.0236757e-06
1.5719822e-06
4.0373812e-06
1.4348549e-06
4.0459602e-06
1.2985719e-06
4.0496258e-06
1.163278e-06
4.0485849e-06
1.0291041e-06
4.0430392e-06
8.9616907e-07
4.0331848e-06
7.6457969e-07
4.0192117e-06
6.3443251e-07
4.0013031e-06
5.058125e-07
3.979637e-06
3.7879972e-07
3.9543848e-06
2.5345868e-07
3.9257136e-06
1.2985215e-07
3.8937951e-06
8.034518e-09
3.8587605e-06
-1.1193475e-07
3.8207663e-06
-2.3004712e-07
3.7799543e-06
-3.4625688e-07
3.7364592e-06
-4.6053493e-07
3.6904099e-06
-5.7285849e-07
3.64193e-06
-6.8321012e-07
3.5911376e-06
-7.9157513e-07
3.5381453e-06
-8.9794364e-07
3.4830603e-06
-1.0023093e-06
3.4259847e-06
-1.1046682e-06
3.3670148e-06
-1.2050195e-06
3.3062432e-06
-1.3033654e-06
3.2437565e-06
-1.399709e-06
3.1796385e-06
-1.4940572e-06
3.1139661e-06
-1.5864161e-06
3.0468131e-06
-1.6767956e-06
2.9782499e-06
-1.7652057e-06
2.9083415e-06
-1.8516585e-06
2.83715e-06
-1.9361648e-06
2.7647331e-06
-2.0187379e-06
2.6911452e-06
-2.0993919e-06
2.6164374e-06
-2.1781395e-06
2.540657e-06
-2.2549945e-06
2.4638482e-06
-2.3299708e-06
2.3860528e-06
-2.4030831e-06
2.307309e-06
-2.4743438e-06
2.2276525e-06
-2.5437675e-06
2.1471162e-06
-2.6113656e-06
2.0657296e-06
-2.6771509e-06
1.9835221e-06
-2.7411359e-06
1.9005186e-06
-2.8033306e-06
1.8167424e-06
-2.863746e-06
1.7322147e-06
-2.9223907e-06
1.6469553e-06
-2.9792729e-06
1.5609814e-06
-3.0344008e-06
1.4743084e-06
-3.0877795e-06
1.3869511e-06
-3.1394145e-06
1.2989209e-06
-3.1893093e-06
1.2102296e-06
-3.2374671e-06
1.1208866e-06
-3.2838879e-06
1.0308997e-06
-3.3285722e-06
9.4027702e-07
-3.371518e-06
8.4902413e-07
-3.4127204e-06
7.5714641e-07
-3.4521758e-06
6.6464759e-07
-3.4898783e-06
5.7153164e-07
-3.5258187e-06
4.7780125e-07
-3.5599892e-06
3.8345888e-07
-3.5923837e-06
2.8850604e-07
-3.6230029e-06
1.9294443e-07
-3.651869e-06
9.677535e-08
-3.679045e-06
-3.7045907e-06
2.8836026e-06
3.4562739e-06
3.0001285e-06
3.3438447e-06
3.1085745e-06
3.2277184e-06
3.2091089e-06
3.1083373e-06
3.3019119e-06
2.9861187e-06
3.387174e-06
2.8614548e-06
3.4650939e-06
2.7347142e-06
3.5358762e-06
2.6062424e-06
3.5997303e-06
2.4763627e-06
3.6568688e-06
2.3453759e-06
3.7075063e-06
2.2135639e-06
3.7518583e-06
2.0811878e-06
3.7901403e-06
1.9484902e-06
3.8225662e-06
1.8156962e-06
3.8493489e-06
1.6830133e-06
3.870698e-06
1.550633e-06
3.8868207e-06
1.4187323e-06
3.8979197e-06
1.2874727e-06
3.9041954e-06
1.1570026e-06
3.9058422e-06
1.0274573e-06
3.9030505e-06
8.9896056e-07
3.8960056e-06
7.7162493e-07
3.884887e-06
6.4555104e-07
3.8698697e-06
5.2082972e-07
3.8511245e-06
3.9754493e-07
3.8288129e-06
2.757703e-07
3.8030908e-06
1.5557445e-07
3.7741406e-06
3.6984468e-08
3.7420646e-06
-7.985845e-08
3.7070288e-06
-1.950115e-07
3.6691668e-06
-3.0839516e-07
3.6286091e-06
-4.1997714e-07
3.5854807e-06
-5.2973009e-07
3.5399019e-06
-6.3763119e-07
3.4919872e-06
-7.4366065e-07
3.441847e-06
-8.4780332e-07
3.3895859e-06
-9.500482e-07
3.3353039e-06
-1.0503862e-06
3.2790965e-06
-1.1488122e-06
3.2210538e-06
-1.2453226e-06
3.1612621e-06
-1.3399172e-06
3.0998031e-06
-1.432598e-06
3.0367538e-06
-1.5233668e-06
2.9721879e-06
-1.6122298e-06
2.9061745e-06
-1.6991925e-06
2.838779e-06
-1.7842631e-06
2.7700636e-06
-1.8674492e-06
2.7000858e-06
-1.9487601e-06
2.6289002e-06
-2.0282065e-06
2.5565586e-06
-2.1057979e-06
2.4831093e-06
-2.1815449e-06
2.4085968e-06
-2.2554582e-06
2.3330635e-06
-2.3275497e-06
2.2565488e-06
-2.3978291e-06
2.1790888e-06
-2.4663071e-06
2.1007175e-06
-2.5329943e-06
2.0214668e-06
-2.5979003e-06
1.9413657e-06
-2.6610347e-06
1.860441e-06
-2.7224059e-06
1.7787173e-06
-2.7820221e-06
1.6962176e-06
-2.8398909e-06
1.6129625e-06
-2.8960179e-06
1.5289709e-06
-2.9504089e-06
1.4442601e-06
-3.0030688e-06
1.3588464e-06
-3.0540001e-06
1.2727424e-06
-3.1032057e-06
1.1859616e-06
-3.1506867e-06
1.0985155e-06
-3.196442e-06
1.0104143e-06
-3.2404707e-06
9.2166652e-07
-3.28277e-06
8.3228028e-07
-3.3233343e-06
7.4226288e-07
-3.3621587e-06
6.5161998e-07
-3.3992355e-06
5.6035748e-07
-3.4345559e-06
4.6847935e-07
-3.4681114e-06
3.7599065e-07
-3.499895e-06
2.8289492e-07
-3.5299071e-06
1.8919568e-07
-3.5581697e-06
9.4896232e-08
-3.5847456e-06
-3.6096941e-06
2.7290728e-06
3.3337861e-06
2.8437976e-06
3.2291198e-06
2.9508818e-06
3.1206342e-06
3.0504634e-06
3.0087558e-06
3.1426938e-06
2.8938882e-06
3.2277352e-06
2.7764134e-06
3.3057597e-06
2.6566896e-06
3.3769468e-06
2.5350556e-06
3.4414812e-06
2.4118279e-06
3.499553e-06
2.2873041e-06
3.5513547e-06
2.1617622e-06
3.5970814e-06
2.0354611e-06
3.6369292e-06
1.9086426e-06
3.6710935e-06
1.7815317e-06
3.6997704e-06
1.6543366e-06
3.7231532e-06
1.5272502e-06
3.7414341e-06
1.4004515e-06
3.7548023e-06
1.2741044e-06
3.7634442e-06
1.1483605e-06
3.7675423e-06
1.0233593e-06
3.7672755e-06
8.9922753e-07
3.7628186e-06
7.7608153e-07
3.7543421e-06
6.5402749e-07
3.742012e-06
5.3315981e-07
3.7259886e-06
4.1356846e-07
3.7064299e-06
2.9532883e-07
3.6834924e-06
1.7851186e-07
3.6572974e-06
6.317945e-08
3.628027e-06
-5.058804e-08
3.5957922e-06
-1.627768e-07
3.5607282e-06
-2.7333091e-07
3.5229618e-06
-3.8221084e-07
3.482615e-06
-4.8938335e-07
3.4398039e-06
-5.9482003e-07
3.3946408e-06
-6.9849745e-07
3.3472324e-06
-8.0039511e-07
3.2976812e-06
-9.0049685e-07
3.2460851e-06
-9.9878993e-07
3.1925372e-06
-1.0952642e-06
3.1371261e-06
-1.1899115e-06
3.0799373e-06
-1.2827287e-06
3.0210505e-06
-1.3737113e-06
2.9605424e-06
-1.4628588e-06
2.898486e-06
-1.5501737e-06
2.83495e-06
-1.6356565e-06
2.7699991e-06
-1.719312e-06
2.7036955e-06
-1.8011458e-06
2.6360965e-06
-1.8811613e-06
2.5672572e-06
-1.9593674e-06
2.4972296e-06
-2.0357702e-06
2.4260619e-06
-2.1103775e-06
2.3537998e-06
-2.1831963e-06
2.2804857e-06
-2.2542354e-06
2.20616e-06
-2.3235033e-06
2.1308597e-06
-2.391007e-06
2.0546202e-06
-2.4567547e-06
1.9774736e-06
-2.5207538e-06
1.8994501e-06
-2.5830112e-06
1.8205781e-06
-2.6435338e-06
1.740883e-06
-2.7023272e-06
1.6603889e-06
-2.7593968e-06
1.5791182e-06
-2.8147472e-06
1.4970907e-06
-2.8683818e-06
1.4143259e-06
-2.9203039e-06
1.33084e-06
-2.9705144e-06
1.2466494e-06
-3.0190147e-06
1.1617675e-06
-3.0658048e-06
1.0762079e-06
-3.1108826e-06
9.8998229e-07
-3.1542456e-06
9.0310105e-07
-3.1958886e-06
8.1557445e-07
-3.2358078e-06
7.2741067e-07
-3.273995e-06
6.3861771e-07
-3.3104424e-06
5.4920334e-07
-3.3451413e-06
4.5917384e-07
-3.3780819e-06
3.6853481e-07
-3.4092564e-06
2.7729286e-07
-3.438665e-06
1.8545311e-07
-3.4663297e-06
9.3020321e-08
-3.4923129e-06
-3.516674e-06
2.5837816e-06
3.21379e-06
2.6964714e-06
3.11643e-06
2.8019487e-06
3.015157e-06
2.9003234e-06
2.9103811e-06
2.9917193e-06
2.802492e-06
3.0762741e-06
2.6918588e-06
3.1541335e-06
2.57883e-06
3.2254534e-06
2.4637355e-06
3.2903961e-06
2.3468852e-06
3.3491297e-06
2.2285709e-06
3.4018256e-06
2.1090662e-06
3.4486604e-06
1.9886267e-06
3.4898099e-06
1.8674928e-06
3.5254536e-06
1.7458881e-06
3.5557703e-06
1.6240201e-06
3.5809375e-06
1.5020828e-06
3.6011336e-06
1.3802557e-06
3.6165334e-06
1.2587048e-06
3.6273105e-06
1.1375836e-06
3.6336354e-06
1.0170345e-06
3.6356758e-06
8.9718724e-07
3.6335962e-06
7.7816108e-07
3.6275576e-06
6.6006616e-07
3.6177167e-06
5.4300065e-07
3.6042261e-06
4.2705905e-07
3.5872351e-06
3.1232009e-07
3.5668864e-06
1.9886018e-07
3.5433199e-06
8.6745981e-08
3.5166778e-06
-2.3945904e-08
3.4870855e-06
-1.3318455e-07
3.4546695e-06
-2.4091486e-07
3.4195519e-06
-3.4709325e-07
3.3818502e-06
-4.516813e-07
3.3416774e-06
-5.5464712e-07
3.2991418e-06
-6.5596168e-07
3.2543475e-06
-7.5560088e-07
3.2073935e-06
-8.5354301e-07
3.1583762e-06
-9.4977259e-07
3.1073864e-06
-1.0442743e-06
3.054511e-06
-1.1370365e-06
2.9998334e-06
-1.228051e-06
2.943433e-06
-1.3173105e-06
2.8853851e-06
-1.4048108e-06
2.8257609e-06
-1.4905493e-06
2.7646292e-06
-1.5745248e-06
2.7020543e-06
-1.6567376e-06
2.6380974e-06
-1.7371886e-06
2.5728167e-06
-1.8158804e-06
2.5062671e-06
-1.8928176e-06
2.4384998e-06
-1.9680026e-06
2.3695635e-06
-2.0414413e-06
2.2995047e-06
-2.1131374e-06
2.2283663e-06
-2.1830972e-06
2.1561893e-06
-2.2513261e-06
2.0830108e-06
-2.3178289e-06
2.0088677e-06
-2.3826115e-06
1.9337921e-06
-2.4456784e-06
1.8578162e-06
-2.5070352e-06
1.7809685e-06
-2.5666861e-06
1.7032763e-06
-2.6246351e-06
1.6247643e-06
-2.6808848e-06
1.5454559e-06
-2.7354385e-06
1.4653728e-06
-2.788299e-06
1.3845353e-06
-2.8394664e-06
1.3029616e-06
-2.8889405e-06
1.2206689e-06
-2.9367219e-06
1.1376723e-06
-2.9828083e-06
1.0539866e-06
-3.0271971e-06
9.6962561e-07
-3.069884e-06
8.8460086e-07
-3.1108642e-06
7.9892393e-07
-3.1501309e-06
7.1260559e-07
-3.1876767e-06
6.256558e-07
-3.2234923e-06
5.3808236e-07
-3.2575682e-06
4.4989426e-07
-3.2898939e-06
3.6110003e-07
-3.3204616e-06
2.7170638e-07
-3.3492715e-06
1.8172031e-07
-3.376344e-06
9.1149456e-08
-3.4017423e-06
-3.4255244e-06
2.4472434e-06
3.0964694e-06
2.5576992e-06
3.0059745e-06
2.661357e-06
2.9114991e-06
2.7583019e-06
2.8134363e-06
2.8486332e-06
2.7121609e-06
2.9324631e-06
2.608029e-06
3.0099153e-06
2.5013779e-06
3.0811226e-06
2.3925281e-06
3.1462264e-06
2.2817817e-06
3.2053733e-06
2.1694237e-06
3.2587164e-06
2.0557228e-06
3.3064121e-06
1.940931e-06
3.3486201e-06
1.8252849e-06
3.3855021e-06
1.7090061e-06
3.4172209e-06
1.5923013e-06
3.4439398e-06
1.4753638e-06
3.4658221e-06
1.3583736e-06
3.4830298e-06
1.2414972e-06
3.4957236e-06
1.1248897e-06
3.5040629e-06
1.0086952e-06
3.5082038e-06
8.9304612e-07
3.5083011e-06
7.7806382e-07
3.5045061e-06
6.6386145e-07
3.4969654e-06
5.5054116e-07
3.4858255e-06
4.3819901e-07
3.4712256e-06
3.2691965e-07
3.4533043e-06
2.1678171e-07
3.4321915e-06
1.0785857e-07
3.4080264e-06
2.1920946e-10
3.380926e-06
-1.0608404e-07
3.3510135e-06
-2.1100255e-07
3.3184061e-06
-3.1448576e-07
3.2832172e-06
-4.1649262e-07
3.2455554e-06
-5.1698543e-07
3.2055262e-06
-6.1593243e-07
3.1632296e-06
-7.133042e-07
3.1187637e-06
-8.0907695e-07
3.0722201e-06
-9.0322917e-07
3.023688e-06
-9.9574245e-07
2.9732539e-06
-1.0866022e-06
2.9209974e-06
-1.1757947e-06
2.8669974e-06
-1.2633107e-06
2.8113279e-06
-1.3491413e-06
2.7540596e-06
-1.4332809e-06
2.6952593e-06
-1.5157246e-06
2.6349917e-06
-1.5964698e-06
2.573317e-06
-1.675514e-06
2.5102937e-06
-1.752857e-06
2.4459753e-06
-1.8284995e-06
2.3804143e-06
-1.9024416e-06
2.3136587e-06
-1.974686e-06
2.2457557e-06
-2.0452344e-06
2.1767488e-06
-2.11409e-06
2.1066783e-06
-2.1812556e-06
2.0355831e-06
-2.2467337e-06
1.9634993e-06
-2.3105277e-06
1.8904616e-06
-2.3726408e-06
1.8165016e-06
-2.4330756e-06
1.7416492e-06
-2.4918339e-06
1.6659317e-06
-2.5489179e-06
1.5893767e-06
-2.6043298e-06
1.5120077e-06
-2.6580696e-06
1.4338479e-06
-2.7101388e-06
1.3549179e-06
-2.7605362e-06
1.2752378e-06
-2.8092606e-06
1.1948261e-06
-2.8563102e-06
1.1136993e-06
-2.9016817e-06
1.0318742e-06
-2.9453714e-06
9.4936418e-07
-2.987374e-06
8.6618405e-07
-3.0276842e-06
7.8234652e-07
-3.0662935e-06
6.9786346e-07
-3.1031934e-06
6.1274636e-07
-3.1383752e-06
5.2700555e-07
-3.1718276e-06
4.4065106e-07
-3.2035394e-06
3.5369308e-07
-3.2335036e-06
2.6614022e-07
-3.2617184e-06
1.7800123e-07
-3.2882053e-06
8.9285201e-08
-3.3130264e-06
-3.3362389e-06
2.3189849e-06
2.9819755e-06
2.4270391e-06
2.8979204e-06
2.5286965e-06
2.8098414e-06
2.624019e-06
2.7181138e-06
2.7130826e-06
2.6230973e-06
2.7959778e-06
2.5251335e-06
2.8728066e-06
2.4245492e-06
2.9436807e-06
2.3216539e-06
3.0087212e-06
2.2167412e-06
3.0680562e-06
2.1100889e-06
3.1218194e-06
2.0019596e-06
3.1701503e-06
1.8926003e-06
3.2131914e-06
1.7822439e-06
3.2510882e-06
1.6711092e-06
3.2839886e-06
1.559401e-06
3.312041e-06
1.4473112e-06
3.3353955e-06
1.3350191e-06
3.3542008e-06
1.2226917e-06
3.3686059e-06
1.1104845e-06
3.3787584e-06
9.9854272e-07
3.3848047e-06
8.8700003e-07
3.3868879e-06
7.7598027e-07
3.3851505e-06
6.655986e-07
3.3797315e-06
5.5596041e-07
3.3707673e-06
4.4716308e-07
3.3583911e-06
3.3929595e-07
3.3427334e-06
2.3243943e-07
3.3239193e-06
1.2667271e-07
3.3020786e-06
2.2059873e-08
3.2773249e-06
-8.1330363e-08
3.2497762e-06
-1.8345362e-07
3.2195447e-06
-2.8425448e-07
3.1867395e-06
-3.8368741e-07
3.1514658e-06
-4.8171124e-07
3.1138243e-06
-5.7829087e-07
3.0739131e-06
-6.7339319e-07
3.0318261e-06
-7.669896e-07
2.9876529e-06
-8.5905619e-07
2.9414811e-06
-9.4957059e-07
2.8933933e-06
-1.0385142e-06
2.843469e-06
-1.1258706e-06
2.7917848e-06
-1.2116265e-06
2.7384135e-06
-1.2957702e-06
2.6834245e-06
-1.3782921e-06
2.6268838e-06
-1.459184e-06
2.5688546e-06
-1.5384409e-06
2.5093978e-06
-1.6160572e-06
2.44857e-06
-1.6920296e-06
2.3864254e-06
-1.7663549e-06
2.3230159e-06
-1.8390319e-06
2.2583901e-06
-1.9100603e-06
2.1925948e-06
-1.9794391e-06
2.1256733e-06
-2.0471685e-06
2.0576666e-06
-2.1132489e-06
1.9886144e-06
-2.1776812e-06
1.9185535e-06
-2.240467e-06
1.8475182e-06
-2.3016054e-06
1.7755411e-06
-2.3610984e-06
1.7026531e-06
-2.4189461e-06
1.6288837e-06
-2.4751481e-06
1.5542588e-06
-2.5297051e-06
1.4788049e-06
-2.5826158e-06
1.4025448e-06
-2.633879e-06
1.3255011e-06
-2.6834924e-06
1.2476949e-06
-2.7314546e-06
1.1691456e-06
-2.7777609e-06
1.0898717e-06
-2.8224079e-06
1.00989e-06
-2.8653899e-06
9.292173e-07
-2.9067013e-06
8.4786808e-07
-2.9463349e-06
7.6585702e-07
-2.9842823e-06
6.8319752e-07
-3.0205337e-06
5.9990232e-07
-3.05508e-06
5.159834e-07
-3.0879086e-06
4.3145294e-07
-3.1190087e-06
3.4632174e-07
-3.1483722e-06
2.606008e-07
-3.1759973e-06
1.7430006e-07
-3.2019045e-06
8.7429925e-08
-3.2261559e-06
-3.2488091e-06
2.1985478e-06
2.8704293e-06
2.3040621e-06
2.7924061e-06
2.4035666e-06
2.7103369e-06
2.4971009e-06
2.6245794e-06
2.5847213e-06
2.535477e-06
2.6664971e-06
2.443358e-06
2.7425102e-06
2.348536e-06
2.812854e-06
2.2513104e-06
2.87763e-06
2.1519651e-06
2.9369483e-06
2.0507706e-06
2.9909258e-06
1.9479821e-06
3.0396843e-06
1.8438416e-06
3.0833514e-06
1.7385772e-06
3.1220565e-06
1.6324039e-06
3.1559333e-06
1.5255243e-06
3.1851169e-06
1.4181276e-06
3.2097435e-06
1.3103925e-06
3.22995e-06
1.2024851e-06
3.2458732e-06
1.0945614e-06
3.2576501e-06
9.8676593e-07
3.265416e-06
8.7923423e-07
3.2693049e-06
7.7209138e-07
3.2694495e-06
6.654541e-07
3.2659804e-06
5.5942935e-07
3.2590262e-06
4.5411723e-07
3.2487128e-06
3.496093e-07
3.2351621e-06
2.4599014e-07
3.2184967e-06
1.4333836e-07
3.1988334e-06
4.1723361e-08
3.1762861e-06
-5.8783458e-08
3.1509661e-06
-1.5813351e-07
3.1229807e-06
-2.5626919e-07
3.092434e-06
-3.5314071e-07
3.0594279e-06
-4.4870508e-07
3.0240593e-06
-5.4292217e-07
2.9864226e-06
-6.3575644e-07
2.9466086e-06
-7.2717554e-07
2.9047054e-06
-8.1715298e-07
2.8607969e-06
-9.0566183e-07
2.8149639e-06
-9.9268144e-07
2.7672842e-06
-1.0781908e-06
2.7178322e-06
-1.1621743e-06
2.6666788e-06
-1.2446171e-06
2.6138932e-06
-1.3255063e-06
2.5595402e-06
-1.4048313e-06
2.5036821e-06
-1.4825827e-06
2.4463776e-06
-1.5587531e-06
2.3876845e-06
-1.6333358e-06
2.3276558e-06
-1.7063263e-06
2.2663434e-06
-1.7777194e-06
2.2037957e-06
-1.8475124e-06
2.1400588e-06
-1.9157019e-06
2.0751766e-06
-1.9822864e-06
2.0091911e-06
-2.0472632e-06
1.9421413e-06
-2.1106319e-06
1.8740643e-06
-2.1723901e-06
1.8049957e-06
-2.2325366e-06
1.7349681e-06
-2.2910709e-06
1.6640136e-06
-2.3479913e-06
1.5921614e-06
-2.4032959e-06
1.5194394e-06
-2.4569831e-06
1.4458736e-06
-2.50905e-06
1.3714894e-06
-2.5594945e-06
1.2963095e-06
-2.6083129e-06
1.2203561e-06
-2.6555011e-06
1.1436499e-06
-2.7010547e-06
1.0662101e-06
-2.7449684e-06
9.8805579e-07
-2.7872354e-06
9.0920346e-07
-2.8278493e-06
8.2967051e-07
-2.8668021e-06
7.4947148e-07
-2.9040832e-06
6.6862184e-07
-2.9396844e-06
5.8713604e-07
-2.9735942e-06
5.0502698e-07
-3.0057996e-06
4.2230853e-07
-3.0362905e-06
3.3899285e-07
-3.0650567e-06
2.5509203e-07
-3.0920966e-06
1.7061916e-07
-3.1174314e-06
8.5584858e-08
-3.1411219e-06
-3.1632246e-06
2.0854893e-06
2.7619246e-06
2.1883525e-06
2.689543e-06
2.2855769e-06
2.6131123e-06
2.3771837e-06
2.532973e-06
2.4632091e-06
2.4494515e-06
2.5437046e-06
2.3628624e-06
2.6187337e-06
2.2735069e-06
2.6883713e-06
2.1816727e-06
2.7527022e-06
2.0876343e-06
2.8118195e-06
1.9916532e-06
2.8658237e-06
1.8939779e-06
2.9148212e-06
1.7948439e-06
2.958924e-06
1.6944743e-06
2.9982477e-06
1.5930804e-06
3.0329117e-06
1.4908599e-06
3.0630382e-06
1.3880014e-06
3.0887506e-06
1.2846799e-06
3.1101742e-06
1.1810616e-06
3.1274346e-06
1.0773009e-06
3.1406576e-06
9.7354315e-07
3.1499683e-06
8.6992337e-07
3.1554922e-06
7.6656763e-07
3.1573522e-06
6.6359404e-07
3.1556709e-06
5.6111059e-07
3.1505688e-06
4.5921951e-07
3.1421632e-06
3.5801481e-07
3.1305717e-06
2.5758168e-07
3.1159091e-06
1.5800088e-07
3.0982843e-06
5.9348204e-08
3.0778086e-06
-3.8307646e-08
3.0545869e-06
-1.3491164e-07
3.0287211e-06
-2.3040366e-07
3.0003123e-06
-3.2473189e-07
2.9694568e-06
-4.1784951e-07
2.9362486e-06
-5.0971433e-07
2.9007791e-06
-6.0028676e-07
2.8631359e-06
-6.8953265e-07
2.8234034e-06
-7.7742056e-07
2.7816635e-06
-8.6392209e-07
2.7379953e-06
-9.4901292e-07
2.6924735e-06
-1.032669e-06
2.6451711e-06
-1.114872e-06
2.5961578e-06
-1.195604e-06
2.5455007e-06
-1.2748492e-06
2.4932636e-06
-1.3525942e-06
2.4395083e-06
-1.4288271e-06
2.3842926e-06
-1.5035375e-06
2.3276729e-06
-1.5767162e-06
2.2697022e-06
-1.6483555e-06
2.2104316e-06
-1.718449e-06
2.1499098e-06
-1.7869906e-06
2.0881825e-06
-1.8539749e-06
2.0252935e-06
-1.9193974e-06
1.9612849e-06
-1.9832545e-06
1.8961958e-06
-2.0455426e-06
1.8300642e-06
-2.1062582e-06
1.7629251e-06
-2.1653978e-06
1.6948127e-06
-2.2229586e-06
1.6257591e-06
-2.2789375e-06
1.5557936e-06
-2.3333308e-06
1.4849454e-06
-2.3861347e-06
1.4132413e-06
-2.4373462e-06
1.3407077e-06
-2.4869608e-06
1.2673679e-06
-2.5349731e-06
1.1932448e-06
-2.581378e-06
1.1183607e-06
-2.6261703e-06
1.0427357e-06
-2.6693432e-06
9.6638914e-07
-2.7108892e-06
8.8934023e-07
-2.7508001e-06
8.1160583e-07
-2.7890675e-06
7.3320353e-07
-2.825681e-06
6.5414919e-07
-2.8606299e-06
5.7445801e-07
-2.8939031e-06
4.9414549e-07
-2.925487e-06
4.1322577e-07
-2.9553706e-06
3.3171287e-07
-2.9835436e-06
2.4962092e-07
-3.0100046e-06
1.6696277e-07
-3.0347734e-06
8.3751815e-08
-3.0579108e-06
-3.0794722e-06
1.9793831e-06
2.6565308e-06
2.0795079e-06
2.5894181e-06
2.1743496e-06
2.5182707e-06
2.2639118e-06
2.4434108e-06
2.3482139e-06
2.3651494e-06
2.4272903e-06
2.2837863e-06
2.5011876e-06
2.1996096e-06
2.5699643e-06
2.1128957e-06
2.6336896e-06
2.0239092e-06
2.6924403e-06
1.9329023e-06
2.7463022e-06
1.8401162e-06
2.7953666e-06
1.7457795e-06
2.8397315e-06
1.6501095e-06
2.8794994e-06
1.5533125e-06
2.914776e-06
1.4555833e-06
2.9456714e-06
1.3571062e-06
2.9722968e-06
1.2580547e-06
2.9947661e-06
1.1585923e-06
3.013194e-06
1.0588728e-06
3.027696e-06
9.5904107e-07
3.0383881e-06
8.5923127e-07
3.0453855e-06
7.5957014e-07
3.0488039e-06
6.601758e-07
3.048756e-06
5.6115867e-07
3.045355e-06
4.6262036e-07
3.0387122e-06
3.6465763e-07
3.028937e-06
2.6735682e-07
3.0161364e-06
1.7080136e-07
3.000417e-06
7.5067265e-08
2.9818831e-06
-1.9773773e-08
2.9606336e-06
-1.1366193e-07
2.9367668e-06
-2.0653678e-07
2.9103781e-06
-2.9834314e-07
2.881561e-06
-3.890326e-07
2.8504052e-06
-4.7855838e-07
2.8169983e-06
-5.6688002e-07
2.781425e-06
-6.539595e-07
2.743767e-06
-7.3976279e-07
2.7041037e-06
-8.2425867e-07
2.6625109e-06
-9.0741992e-07
2.6190624e-06
-9.8922057e-07
2.5738288e-06
-1.0696383e-06
2.5268779e-06
-1.1486534e-06
2.4782757e-06
-1.226247e-06
2.4280846e-06
-1.3024031e-06
2.3763645e-06
-1.3771071e-06
2.3231734e-06
-1.4503463e-06
2.2685665e-06
-1.522109e-06
2.2125958e-06
-1.5923851e-06
2.1553127e-06
-1.6611656e-06
2.0967643e-06
-1.7284424e-06
2.0369969e-06
-1.7942075e-06
1.9760544e-06
-1.8584552e-06
1.9139785e-06
-1.9211787e-06
1.8508086e-06
-1.982373e-06
1.7865825e-06
-2.042032e-06
1.721336e-06
-2.1001516e-06
1.6551033e-06
-2.1567259e-06
1.5879163e-06
-2.2117505e-06
1.5198067e-06
-2.2652207e-06
1.4508027e-06
-2.317131e-06
1.380933e-06
-2.3674759e-06
1.3102226e-06
-2.4162503e-06
1.238698e-06
-2.4634481e-06
1.1663818e-06
-2.5090623e-06
1.0932973e-06
-2.5530859e-06
1.0194656e-06
-2.5955118e-06
9.4490785e-07
-2.6363313e-06