/*--------------------------------*- C++ -*----------------------------------*\
| =========                 |                                                 |
| \\      /  F ield         | OpenFOAM: The Open Source CFD Toolbox           |
|  \\    /   O peration     | Version:  2306                                  |
|   \\  /    A nd           | Website:  www.openfoam.com                      |
|    \\/     M anipulation  |                                                 |
\*---------------------------------------------------------------------------*/
FoamFile
{
    version     2.0;
    format      ascii;
    arch        "LSB;label=32;scalar=64";
    class       surfaceScalarField;
    location    "0.19";
    object      phi;
}
// * * * * * * * * * * * * * * * * * * * * * * * * * * * * * * * * * * * * * //

dimensions      [0 3 -1 0 0 0 0];

oriented        oriented;

internalField   nonuniform List<scalar> 
12640
(
-1.8912134e-08
-1.8104333e-07
-7.544939e-08
-5.4201534e-07
-1.6839862e-07
-8.9537429e-07
-2.9564995e-07
-1.2352944e-06
-4.5412939e-07
-1.5553059e-06
-6.3995699e-07
-1.8498714e-06
-8.4862742e-07
-2.114473e-06
-1.0751879e-06
-2.3455064e-06
-1.3144382e-06
-2.540359e-06
-1.5611419e-06
-2.6974404e-06
-1.8102362e-06
-2.8161697e-06
-2.0570266e-06
-2.8969186e-06
-2.2973531e-06
-2.9409121e-06
-2.527716e-06
-2.9500886e-06
-2.7453494e-06
-2.9269304e-06
-2.9482408e-06
-2.8742776e-06
-3.135096e-06
-2.7951425e-06
-3.3052593e-06
-2.6925387e-06
-3.4585981e-06
-2.5693353e-06
-3.5953676e-06
-2.4281479e-06
-3.7160706e-06
-2.2712701e-06
-3.8213244e-06
-2.1006453e-06
-3.9117493e-06
-1.9178757e-06
-3.9878812e-06
-1.7242588e-06
-4.0501174e-06
-1.5208476e-06
-4.0986873e-06
-1.308521e-06
-4.1336481e-06
-1.088046e-06
-4.1548997e-06
-8.6014289e-07
-4.1622217e-06
-6.2554817e-07
-4.1553228e-06
-3.850743e-07
-4.133986e-06
-1.3972912e-07
-4.0974511e-06
1.1013023e-07
-4.0456656e-06
3.6313569e-07
-3.9784329e-06
6.1777888e-07
-3.8956849e-06
8.7288581e-07
-3.7974907e-06
1.1271321e-06
-3.6840715e-06
1.3791372e-06
-3.5558045e-06
1.6275021e-06
-3.4132223e-06
1.8708396e-06
-3.2570028e-06
2.1078018e-06
-3.0879585e-06
2.3371035e-06
-2.9070185e-06
2.5575435e-06
-2.7152111e-06
2.7680215e-06
-2.5136433e-06
2.967551e-06
-2.3034811e-06
3.15527e-06
-2.0859291e-06
3.3304449e-06
-1.8622123e-06
3.4924741e-06
-1.6335574e-06
3.6408882e-06
-1.4011776e-06
3.7753464e-06
-1.1662575e-06
3.895632e-06
-9.2994203e-07
4.0016456e-06
-6.9332507e-07
4.0933963e-06
-4.5744114e-07
4.170994e-06
-2.2326136e-07
4.2346413e-06
8.3149176e-09
4.2846136e-06
2.3644476e-07
4.3212436e-06
4.6039691e-07
4.3449962e-06
6.7948033e-07
4.3563028e-06
8.9309148e-07
4.3556587e-06
1.1006983e-06
4.3436126e-06
1.3018386e-06
4.3207312e-06
1.4961175e-06
4.2875967e-06
1.6832048e-06
4.2448047e-06
1.8628306e-06
4.1929561e-06
2.0347823e-06
4.1326533e-06
2.1989006e-06
4.0644947e-06
2.3550739e-06
3.9890704e-06
2.5032363e-06
3.9069597e-06
2.6433627e-06
3.8187271e-06
2.7754647e-06
3.7249212e-06
2.8995871e-06
3.6260716e-06
3.0158047e-06
3.5226875e-06
3.1242183e-06
3.415257e-06
3.2249513e-06
3.3042462e-06
3.3181471e-06
3.1900983e-06
3.4039671e-06
3.0732336e-06
3.4825864e-06
2.9540486e-06
3.5541924e-06
2.8329175e-06
3.618982e-06
2.710192e-06
2.5862008e-06
-1.6817975e-08
-1.6422536e-07
-6.7103857e-08
-4.9172946e-07
-1.4983006e-07
-8.1264809e-07
-2.6320698e-07
-1.1219175e-06
-4.0462491e-07
-1.4138879e-06
-5.7078938e-07
-1.6837069e-06
-7.5787353e-07
-1.9273889e-06
-9.6166606e-07
-2.1417139e-06
-1.1777351e-06
-2.3242899e-06
-1.4015994e-06
-2.4735762e-06
-1.6288968e-06
-2.5888723e-06
-1.8555408e-06
-2.6702746e-06
-2.0778542e-06
-2.7185988e-06
-2.2926717e-06
-2.7352711e-06
-2.4974041e-06
-2.722198e-06
-2.6900605e-06
-2.6816212e-06
-2.8692297e-06
-2.6159732e-06
-3.0340273e-06
-2.527741e-06
-3.1840142e-06
-2.4193485e-06
-3.3190977e-06
-2.2930644e-06
-3.4394269e-06
-2.1509409e-06
-3.5452909e-06
-1.9947814e-06
-3.6370294e-06
-1.8261373e-06
-3.7149613e-06
-1.6463269e-06
-3.7793352e-06
-1.4564737e-06
-3.8303011e-06
-1.2575552e-06
-3.8678987e-06
-1.0504483e-06
-3.8920647e-06
-8.3597696e-07
-3.9026528e-06
-6.149601e-07
-3.8994691e-06
-3.8825795e-07
-3.8823314e-06
-1.5686687e-07
-3.8507838e-06
7.8582633e-08
-3.8047756e-06
3.171275e-07
-3.7441888e-06
5.5719214e-07
-3.6690183e-06
7.9771546e-07
-3.5793711e-06
1.0374848e-06
-3.4754774e-06
1.2752436e-06
-3.3576979e-06
1.5097225e-06
-3.2265223e-06
1.7396642e-06
-3.0825653e-06
1.9638447e-06
-2.9265559e-06
2.1810942e-06
-2.7593265e-06
2.390314e-06
-2.5817962e-06
2.5904914e-06
-2.3949574e-06
2.7807121e-06
-2.1998559e-06
2.9601683e-06
-1.9975764e-06
3.1281653e-06
-1.7892257e-06
3.2841235e-06
-1.5759173e-06
3.4275799e-06
-1.3587569e-06
3.5581859e-06
-1.13883e-06
3.6757051e-06
-9.1719011e-07
3.7800058e-06
-6.9485102e-07
3.8710572e-06
-4.7277616e-07
3.9489193e-06
-2.5187396e-07
4.0137391e-06
-3.2989813e-08
4.0657294e-06
1.8306105e-07
4.1051927e-06
3.9559181e-07
4.1324655e-06
6.0393775e-07
4.1479568e-06
8.0750556e-07
4.1520907e-06
1.0057735e-06
4.1453448e-06
1.1982821e-06
4.1282227e-06
1.3846328e-06
4.101246e-06
1.5644867e-06
4.0649508e-06
1.7375616e-06
4.0198813e-06
1.9036278e-06
3.9665874e-06
2.0625057e-06
3.9056167e-06
2.2140621e-06
3.837514e-06
2.3582061e-06
3.7628156e-06
2.4948865e-06
3.6820467e-06
2.6240878e-06
3.5957198e-06
2.7458267e-06
3.5043327e-06
2.8601492e-06
3.4083651e-06
2.9671274e-06
3.3082788e-06
3.0668563e-06
3.2045173e-06
3.1594515e-06
3.0975034e-06
3.2450455e-06
2.9876394e-06
3.3237868e-06
2.8753072e-06
3.3958363e-06
2.7608683e-06
3.4613657e-06
2.6446627e-06
2.5270111e-06
-1.4997743e-08
-1.4922761e-07
-5.9849968e-08
-4.4687724e-07
-1.3368521e-07
-7.3881284e-07
-2.3498352e-07
-1.0206191e-06
-3.6152514e-07
-1.2873463e-06
-5.1050563e-07
-1.5347264e-06
-6.786643e-07
-1.7592302e-06
-8.6240684e-07
-1.9579713e-06
-1.0579401e-06
-2.1287567e-06
-1.261411e-06
-2.2701051e-06
-1.469044e-06
-2.3812393e-06
-1.6772667e-06
-2.462052e-06
-1.8828196e-06
-2.5130459e-06
-2.0828408e-06
-2.5352499e-06
-2.2749214e-06
-2.5301174e-06
-2.4571293e-06
-2.4994134e-06
-2.6280021e-06
-2.4451004e-06
-2.7865126e-06
-2.3692306e-06
-2.9320115e-06
-2.2738495e-06
-3.0641567e-06
-2.1609193e-06
-3.1828338e-06
-2.0322637e-06
-3.2880799e-06
-1.8895353e-06
-3.3800119e-06
-1.7342052e-06
-3.4587687e-06
-1.5675701e-06
-3.5244679e-06
-1.3907744e-06
-3.5771791e-06
-1.204844e-06
-3.6169095e-06
-1.0107178e-06
-3.6436038e-06
-8.0928267e-07
-3.6571552e-06
-6.0140879e-07
-3.6574272e-06
-3.8798604e-07
-3.6443066e-06
-1.699875e-07
-3.6174729e-06
5.1749068e-08
-3.5769227e-06
2.7657732e-07
-3.5225955e-06
5.028649e-07
-3.4545299e-06
7.2964979e-07
-3.3728582e-06
9.5581309e-07
-3.2778164e-06
1.1802018e-06
-3.1697492e-06
1.4016554e-06
-3.0491108e-06
1.6190257e-06
-2.9164616e-06
1.8311955e-06
-2.7724609e-06
2.0370935e-06
-2.6178582e-06
2.2357112e-06
-2.4534802e-06
2.4261134e-06
-2.280219e-06
2.6074509e-06
-2.0990174e-06
2.7789668e-06
-1.910855e-06
2.9400028e-06
-1.7167342e-06
3.0900028e-06
-1.5176676e-06
3.228513e-06
-1.3146644e-06
3.3551828e-06
-1.1087197e-06
3.4697604e-06
-9.0080482e-07
3.5720909e-06
-6.9185779e-07
3.66211e-06
-4.8277648e-07
3.739838e-06
-2.7441134e-07
3.8053738e-06
-6.7567907e-08
3.858886e-06
1.3701444e-07
3.9006102e-06
3.3865396e-07
3.9308261e-06
5.3671285e-07
3.9498977e-06
7.3061829e-07
3.9581854e-06
9.1986021e-07
3.9561026e-06
1.1039856e-06
3.9440972e-06
1.2825964e-06
3.9226352e-06
1.4553491e-06
3.8921981e-06
1.6219521e-06
3.8532783e-06
1.7821638e-06
3.8063758e-06
1.9357883e-06
3.7519919e-06
2.0826743e-06
3.6906281e-06
2.2227106e-06
3.6227794e-06
2.3558232e-06
3.5489341e-06
2.4819734e-06
3.4695698e-06
2.6011532e-06
3.3851528e-06
2.7133836e-06
3.2961346e-06
2.818711e-06
3.2029515e-06
2.9172048e-06
3.1060237e-06
3.0089545e-06
3.0057535e-06
3.0940681e-06
2.9025258e-06
3.1726688e-06
2.7967066e-06
3.2448929e-06
2.6886439e-06
3.3108888e-06
2.5786668e-06
2.4670859e-06
-1.3411034e-08
-1.3581658e-07
-5.3526208e-08
-4.0676207e-07
-1.1960518e-07
-6.7273388e-07
-2.1035454e-07
-9.2986978e-07
-3.2388186e-07
-1.173819e-06
-4.5779321e-07
-1.4008151e-06
-6.0930125e-07
-1.6077222e-06
-7.7532689e-07
-1.7919457e-06
-9.5261027e-07
-1.9514734e-06
-1.1378247e-06
-2.0848908e-06
-1.327688e-06
-2.191376e-06
-1.5190663e-06
-2.2706736e-06
-1.7090633e-06
-2.3230489e-06
-1.8950912e-06
-2.3492219e-06
-2.0749196e-06
-2.350289e-06
-2.2466991e-06
-2.3276339e-06
-2.4089613e-06
-2.2828381e-06
-2.5605983e-06
-2.2175936e-06
-2.7008227e-06
-2.133625e-06
-2.8291167e-06
-2.0326252e-06
-2.945174e-06
-1.9162065e-06
-3.0488398e-06
-1.7858694e-06
-3.1400571e-06
-1.642988e-06
-3.2188183e-06
-1.488809e-06
-3.2851286e-06
-1.324464e-06
-3.3389818e-06
-1.1509908e-06
-3.3803457e-06
-9.6935392e-07
-3.409157e-06
-7.8047145e-07
-3.4253263e-06
-5.8523936e-07
-3.4287534e-06
-3.8455893e-07
-3.4193593e-06
-1.7938165e-07
-3.396922e-06
2.9311748e-08
-3.3614802e-06
2.4113543e-07
-3.3130038e-06
4.543885e-07
-3.2515637e-06
6.6820985e-07
-3.17731e-06
8.8155936e-07
-3.0904795e-06
1.0933712e-06
-2.9914013e-06
1.3025772e-06
-2.8804982e-06
1.5081224e-06
-2.7582833e-06
1.7089805e-06
-2.6253564e-06
1.9041667e-06
-2.4823954e-06
2.0927502e-06
-2.3301476e-06
2.2738655e-06
-2.1694181e-06
2.4467216e-06
-2.0010597e-06
2.6106083e-06
-1.8259595e-06
2.7649026e-06
-1.645028e-06
2.9090713e-06
-1.4591873e-06
3.0426726e-06
-1.2693604e-06
3.1653558e-06
-1.0764608e-06
3.2768608e-06
-8.813834e-07
3.3770137e-06
-6.8499713e-07
3.4657237e-06
-4.8813693e-07
3.5429779e-06
-2.9159918e-07
3.6088361e-06
-9.6138755e-08
3.6634257e-06
9.7539964e-08
3.7069315e-06
2.8879316e-07
3.7395728e-06
4.7700957e-07
3.7616814e-06
6.6163383e-07
3.7735612e-06
8.4217014e-07
3.7755664e-06
1.0181737e-06
3.7680937e-06
1.1892499e-06
3.7515591e-06
1.3550538e-06
3.7263941e-06
1.5152883e-06
3.6930436e-06
1.6697027e-06
3.6519612e-06
1.8180893e-06
3.6036054e-06
1.9602817e-06
3.5484357e-06
2.0961517e-06
3.4869095e-06
2.2256073e-06
3.4194788e-06
2.3485883e-06
3.3465886e-06
2.4650664e-06
3.2686747e-06
2.5750398e-06
3.1861611e-06
2.6785326e-06
3.0994586e-06
2.7755912e-06
3.0089652e-06
2.8662819e-06
2.9150628e-06
2.9506899e-06
2.8181178e-06
3.0289156e-06
2.7184808e-06
3.1010732e-06
2.6164864e-06
3.1672892e-06
2.5124509e-06
2.4066751e-06
-1.2023734e-08
-1.2379284e-07
-4.7996396e-08
-3.707894e-07
-1.0728766e-07
-6.134426e-07
-1.8879439e-07
-8.4836304e-07
-2.9089894e-07
-1.0717145e-06
-4.1155168e-07
-1.2801623e-06
-5.4836195e-07
-1.4709119e-06
-6.9868246e-07
-1.6416252e-06
-8.5970081e-07
-1.790455e-06
-1.0285331e-06
-1.9160584e-06
-1.2023156e-06
-2.0175934e-06
-1.3782899e-06
-2.0946994e-06
-1.5538767e-06
-2.147462e-06
-1.7267364e-06
-2.1763623e-06
-1.8948108e-06
-2.1822146e-06
-2.0563471e-06
-2.1660977e-06
-2.2099026e-06
-2.1292826e-06
-2.3543328e-06
-2.0731633e-06
-2.4887657e-06
-1.9991922e-06
-2.6125642e-06
-1.9088267e-06
-2.7252841e-06
-1.8034867e-06
-2.8266285e-06
-1.6845249e-06
-2.9164062e-06
-1.5532103e-06
-2.9944921e-06
-1.4107231e-06
-3.0607979e-06
-1.2581582e-06
-3.1152497e-06
-1.096539e-06
-3.1577732e-06
-9.2683038e-07
-3.1882885e-06
-7.4995605e-07
-3.2067101e-06
-5.6681781e-07
-3.2129547e-06
-3.7831434e-07
-3.2069633e-06
-1.8537308e-07
-3.1885769e-06
1.0925392e-08
-3.1578669e-06
2.1042537e-07
-3.1148198e-06
4.1134145e-07
-3.0595279e-06
6.1291802e-07
-2.9921505e-06
8.1418193e-07
-2.9129219e-06
1.0141425e-06
-2.8221551e-06
1.2118106e-06
-2.720244e-06
1.4062113e-06
-2.6076603e-06
1.5963969e-06
-2.4849513e-06
1.7814577e-06
-2.3527332e-06
1.960532e-06
-2.2116832e-06
2.1328156e-06
-2.0625315e-06
2.29757e-06
-1.906051e-06
2.4541278e-06
-1.7430476e-06
2.6018993e-06
-1.5743504e-06
2.7403739e-06
-1.4008006e-06
2.8691228e-06
-1.2232434e-06
2.9877985e-06
-1.042518e-06
3.0961354e-06
-8.5945027e-07
3.1939458e-06
-6.7484459e-07
3.2811179e-06
-4.8947803e-07
3.3576113e-06
-3.0409484e-07
3.4234529e-06
-1.1940376e-07
3.4787345e-06
6.3927788e-08
3.5236001e-06
2.4529266e-07
3.5582077e-06
4.241022e-07
3.5828719e-06
5.9982515e-07
3.5978383e-06
7.7197937e-07
3.603412e-06
9.4013067e-07
3.5999425e-06
1.10389e-06
3.5877997e-06
1.262914e-06
3.5673702e-06
1.4169029e-06
3.5390548e-06
1.5655998e-06
3.5032643e-06
1.7087883e-06
3.4604171e-06
1.8462898e-06
3.4109341e-06
1.9779628e-06
3.3552363e-06
2.1036992e-06
3.2937424e-06
2.2234223e-06
3.2268656e-06
2.3370847e-06
3.1550124e-06
2.4446659e-06
3.07858e-06
2.5461694e-06
2.9979552e-06
2.6416213e-06
2.9135131e-06
2.7310678e-06
2.8256162e-06
2.8145727e-06
2.7346129e-06
2.8922159e-06
2.6408378e-06
2.9640913e-06
2.5446107e-06
3.0303054e-06
2.4462368e-06
2.3460057e-06
-1.080705e-08
-1.1298579e-07
-4.3145788e-08
-3.3845067e-07
-9.647823e-08
-5.6011016e-07
-1.6986102e-07
-7.7498027e-07
-2.6190739e-07
-9.7966809e-07
-3.7085709e-07
-1.1712126e-06
-4.9465275e-07
-1.3471162e-06
-6.3101015e-07
-1.5052678e-06
-7.7749383e-07
-1.6439713e-06
-9.3159465e-07
-1.7619577e-06
-1.0908051e-06
-1.858383e-06
-1.2526899e-06
-1.9328146e-06
-1.414948e-06
-1.9852039e-06
-1.5754634e-06
-2.0158468e-06
-1.7323423e-06
-2.0253357e-06
-1.8839354e-06
-2.0145045e-06
-2.0288467e-06
-1.9843714e-06
-2.1659272e-06
-1.9360828e-06
-2.2942586e-06
-1.8708607e-06
-2.4131277e-06
-1.7899577e-06
-2.5219944e-06
-1.69462e-06
-2.6204589e-06
-1.5860603e-06
-2.7082281e-06
-1.4654412e-06
-2.7850853e-06
-1.3338658e-06
-2.8508657e-06
-1.1923779e-06
-2.9054362e-06
-1.0419684e-06
-2.9486832e-06
-8.8358353e-07
-2.9805048e-06
-7.1813442e-07
-3.0008102e-06
-5.4651248e-07
-3.0095245e-06
-3.6959996e-07
-3.0066146e-06
-1.8828285e-07
-2.9918793e-06
-3.8099841e-09
-2.9655339e-06
1.8408001e-07
-2.9274943e-06
3.733017e-07
-2.8778794e-06
5.6330309e-07
-2.8168548e-06
7.5315735e-07
-2.7446488e-06
9.4193666e-07
-2.6615578e-06
1.1287195e-06
-2.5679479e-06
1.3126014e-06
-2.4642539e-06
1.4927029e-06
-2.3509765e-06
1.6681803e-06
-2.2286772e-06
1.8382327e-06
-2.097972e-06
2.0021103e-06
-1.9595247e-06
2.1591225e-06
-1.814038e-06
2.3086413e-06
-1.662246e-06
2.4501073e-06
-1.5049046e-06
2.5830325e-06
-1.3427832e-06
2.7070014e-06
-1.176657e-06
2.8216721e-06
-1.0072973e-06
2.9267759e-06
-8.3546687e-07
3.0221153e-06
-6.6191071e-07
3.1075618e-06
-4.8735181e-07
3.1830524e-06
-3.1248571e-07
3.2485869e-06
-1.3797613e-07
3.3042249e-06
3.5545635e-08
3.3500784e-06
2.0750068e-07
3.3862526e-06
3.7732886e-07
3.4130437e-06
5.4452553e-07
3.4306416e-06
7.0862222e-07
3.4393154e-06
8.6919599e-07
3.4393687e-06
1.025866e-06
3.4311298e-06
1.1782915e-06
3.4149445e-06
1.3261735e-06
3.3911729e-06
1.4692512e-06
3.3601868e-06
1.6073015e-06
3.3223667e-06
1.7401377e-06
3.2780979e-06
1.8676066e-06
3.2277673e-06
1.9895874e-06
3.1717616e-06
2.1059889e-06
3.110464e-06
2.216748e-06
3.0442532e-06
2.3218274e-06
2.9735005e-06
2.4212133e-06
2.8985694e-06
2.5149135e-06
2.8198131e-06
2.6029555e-06
2.7375741e-06
2.6853847e-06
2.6521837e-06
2.7622624e-06
2.5639601e-06
2.8336639e-06
2.4732094e-06
2.8996773e-06
2.3802238e-06
2.285282e-06
-9.7366884e-09
-1.032491e-07
-3.8877695e-08
-3.0930966e-07
-8.6962582e-08
-5.1202527e-07
-1.5318229e-07
-7.0876055e-07
-2.3634439e-07
-8.9650599e-07
-3.3493223e-07
-1.0726248e-06
-4.4716936e-07
-1.2348791e-06
-5.7107786e-07
-1.3813593e-06
-7.045413e-07
-1.5105079e-06
-8.4536881e-07
-1.6211302e-06
-9.9135771e-07
-1.7123941e-06
-1.1403523e-06
-1.7838201e-06
-1.290296e-06
-1.8352603e-06
-1.4392745e-06
-1.8668683e-06
-1.5855486e-06
-1.8790617e-06
-1.7275756e-06
-1.8724775e-06
-1.8640191e-06
-1.8479279e-06
-1.993748e-06
-1.8063539e-06
-2.1158266e-06
-1.7487821e-06
-2.2294969e-06
-1.6762875e-06
-2.3341561e-06
-1.5899607e-06
-2.4293318e-06
-1.4908847e-06
-2.5146559e-06
-1.3801171e-06
-2.5898418e-06
-1.2586799e-06
-2.654663e-06
-1.1275567e-06
-2.7089375e-06
-9.8769398e-07
-2.7525152e-06
-8.4000572e-07
-2.7852707e-06
-6.8537894e-07
-2.8070994e-06
-5.2468374e-07
-2.8179172e-06
-3.5878208e-07
-2.8176562e-06
-1.8854397e-07
-2.8064426e-06
-1.5023583e-08
-2.783987e-06
1.6162447e-07
-2.7505144e-06
3.398291e-07
-2.7061126e-06
5.1890129e-07
-2.6509374e-06
6.9798215e-07
-2.5852049e-06
8.7620409e-07
-2.5091928e-06
1.0527075e-06
-2.4232414e-06
1.2266499e-06
-2.327751e-06
1.3972126e-06
-2.2231803e-06
1.5636096e-06
-2.1100423e-06
1.7250945e-06
-1.9888986e-06
1.8809668e-06
-1.8603541e-06
2.0305779e-06
-1.7250495e-06
2.1733366e-06
-1.5836544e-06
2.3087123e-06
-1.4368598e-06
2.4362378e-06
-1.2853704e-06
2.555512e-06
-1.1298976e-06
2.6661995e-06
-9.7115228e-07
2.7680306e-06
-8.0983845e-07
2.8608015e-06
-6.4664671e-07
2.9443703e-06
-4.8225007e-07
3.0186558e-06
-3.1729717e-07
3.0836338e-06
-1.5240807e-07
3.1393356e-06
1.1833295e-08
3.185837e-06
1.7482407e-07
3.2232621e-06
3.3608566e-07
3.251782e-06
4.9512519e-07
3.2716021e-06
6.5148741e-07
3.2829533e-06
8.0476151e-07
3.2860944e-06
9.5457558e-07
3.2813157e-06
1.1005946e-06
3.2689255e-06
1.2425207e-06
3.2492468e-06
1.380092e-06
3.2226155e-06
1.5130818e-06
3.189377e-06
1.6412967e-06
3.1498829e-06
1.7645749e-06
3.1044891e-06
1.8827852e-06
3.0535512e-06
1.9958244e-06
2.9974249e-06
2.1036158e-06
2.9364617e-06
2.2061076e-06
2.8710088e-06
2.3032709e-06
2.8014063e-06
2.3950973e-06
2.7279864e-06
2.4815986e-06
2.6510729e-06
2.562803e-06
2.5709793e-06
2.6387549e-06
2.4880081e-06
2.7095128e-06
2.4024513e-06
2.7751479e-06
2.3145886e-06
2.2246872e-06
-8.792158e-09
-9.4456947e-08
-3.5110584e-08
-2.8299123e-07
-7.8560056e-08
-4.6857579e-07
-1.3844457e-07
-6.4887605e-07
-2.1373555e-07
-8.2121501e-07
-3.0312198e-07
-9.8323836e-07
-4.0506479e-07
-1.1329363e-06
-5.1784547e-07
-1.2685786e-06
-6.3961853e-07
-1.3887348e-06
-7.6846464e-07
-1.492284e-06
-9.0244311e-07
-1.5784156e-06
-1.039641e-06
-1.6466222e-06
-1.1782169e-06
-1.6966843e-06
-1.3164385e-06
-1.7286468e-06
-1.4527111e-06
-1.742789e-06
-1.5855977e-06
-1.7395909e-06
-1.7138295e-06
-1.7196961e-06
-1.8363088e-06
-1.6838746e-06
-1.952103e-06
-1.632988e-06
-2.0604332e-06
-1.5679571e-06
-2.160659e-06
-1.489735e-06
-2.252259e-06
-1.3992847e-06
-2.3348125e-06
-1.2975636e-06
-2.4079803e-06
-1.1855121e-06
-2.4714885e-06
-1.0640485e-06
-2.5251147e-06
-9.3406783e-07
-2.5686778e-06
-7.964427e-07
-2.6020301e-06
-6.520266e-07
-2.6250543e-06
-5.0165951e-07
-2.6376621e-06
-3.4617431e-07
-2.6397986e-06
-1.8640746e-07
-2.6315169e-06
-2.3305173e-08
-2.6126583e-06
1.4276565e-07
-2.5833674e-06
3.1053823e-07
-2.5437446e-06
4.7927853e-07
-2.4939422e-06
6.4817993e-07
-2.4341652e-06
8.1642712e-07
-2.3646735e-06
9.8321586e-07
-2.2857816e-06
1.1477579e-06
-2.1978586e-06
1.3092896e-06
-2.1013251e-06
1.4670761e-06
-1.9966502e-06
1.6204196e-06
-1.8843472e-06
1.7686637e-06
-1.7649682e-06
1.9111989e-06
-1.6390984e-06
2.0474669e-06
-1.5073499e-06
2.1769638e-06
-1.3703555e-06
2.2992433e-06
-1.2287612e-06
2.4139179e-06
-1.0832214e-06
2.5206595e-06
-9.3439115e-07
2.6192003e-06
-7.8292136e-07
2.7093316e-06
-6.2945251e-07
2.7909014e-06
-4.7461056e-07
2.8638138e-06
-3.1900193e-07
2.9280254e-06
-1.6320833e-07
2.9835421e-06
-7.7861186e-09
3.0304149e-06
1.4671382e-07
3.068762e-06
2.9982221e-07
3.0986737e-06
4.5106717e-07
3.1203571e-06
6.0001462e-07
3.1340058e-06
7.4626715e-07
3.139842e-06
8.8946286e-07
3.1381201e-06
1.0292734e-06
3.1291149e-06
1.1654046e-06
3.1131157e-06
1.2975953e-06
3.0904248e-06
1.4256165e-06
3.0613555e-06
1.5492705e-06
3.026229e-06
1.6683894e-06
2.9853704e-06
1.7828328e-06
2.9391075e-06
1.8924883e-06
2.8877695e-06
1.9972677e-06
2.8316822e-06
2.0971073e-06
2.7711692e-06
2.1919644e-06
2.7065489e-06
2.2818171e-06
2.6381337e-06
2.3666622e-06
2.5662279e-06
2.4465134e-06
2.4911281e-06
2.5214e-06
2.4131217e-06
2.5913649e-06
2.3324863e-06
2.6564646e-06
2.249489e-06
2.1643861e-06
-7.9561473e-09
-8.6500802e-08
-3.1775625e-08
-2.5917175e-07
-7.1118152e-08
-4.2923327e-07
-1.2538303e-07
-5.9461116e-07
-1.9368019e-07
-7.5291785e-07
-2.7487268e-07
-9.0204588e-07
-3.676226e-07
-1.0401863e-06
-4.7043194e-07
-1.1657693e-06
-5.8168605e-07
-1.2774807e-06
-6.9969839e-07
-1.3742717e-06
-8.227542e-07
-1.4553598e-06
-9.4915182e-07
-1.5202246e-06
-1.0772403e-06
-1.5685958e-06
-1.2054509e-06
-1.6004361e-06
-1.3323232e-06
-1.6159167e-06
-1.4565229e-06
-1.6153913e-06
-1.5768534e-06
-1.5993655e-06
-1.69226e-06
-1.5684679e-06
-1.8018281e-06
-1.5234199e-06
-1.9047758e-06
-1.4650094e-06
-2.0004435e-06
-1.3940672e-06
-2.0882804e-06
-1.3114479e-06
-2.1678296e-06
-1.2180143e-06
-2.2387149e-06
-1.1146268e-06
-2.3006265e-06
-1.0021369e-06
-2.3533104e-06
-8.8138392e-07
-2.3965593e-06
-7.5319365e-07
-2.430206e-06
-6.1837987e-07
-2.4541195e-06
-4.7774616e-07
-2.4682035e-06
-3.3209026e-07
-2.4723994e-06
-1.8221161e-07
-2.4667255e-06
-2.8979047e-08
-2.4510868e-06
1.2712699e-07
-2.4255879e-06
2.8503938e-07
-2.3903246e-06
4.4401521e-07
-2.3454423e-06
6.0329748e-07
-2.2911328e-06
7.6211768e-07
-2.2276375e-06
9.1972051e-07
-2.1552473e-06
1.0753676e-06
-2.0743012e-06
1.2283435e-06
-1.9851852e-06
1.3779602e-06
-1.888329e-06
1.5235634e-06
-1.7842018e-06
1.6645365e-06
-1.6733084e-06
1.8003056e-06
-1.5561842e-06
1.9303427e-06
-1.4333898e-06
2.0541694e-06
-1.3055051e-06
2.1713586e-06
-1.1731239e-06
2.2815366e-06
-1.0368478e-06
2.3843835e-06
-8.972817e-07
2.4796344e-06
-7.5502746e-07
2.5670775e-06
-6.1067978e-07
2.6465537e-06
-4.6482116e-07
2.7179553e-06
-3.1801856e-07
2.7812225e-06
-1.7081934e-07
2.8363428e-06
-2.375146e-08
2.8833471e-06
1.2269441e-07
2.922316e-06
2.6804042e-07
2.9533277e-06
4.1184398e-07
2.9765534e-06
5.5369081e-07
2.992159e-06
6.9319793e-07
3.0003349e-06
8.3001408e-07
3.0013039e-06
9.6381917e-07
2.9953098e-06
1.0943239e-06
2.982611e-06
1.2212691e-06
2.9634797e-06
1.3444253e-06
2.9381993e-06
1.4635922e-06
2.9070621e-06
1.5785972e-06
2.8703653e-06
1.6892943e-06
2.8284106e-06
1.7955622e-06
2.7815017e-06
1.8973038e-06
2.7299404e-06
1.9944449e-06
2.6740282e-06
2.0869317e-06
2.6140625e-06
2.1747297e-06
2.5503355e-06
2.2578229e-06
2.4831345e-06
2.3362119e-06
2.4127392e-06
2.4099126e-06
2.3394212e-06
2.4789543e-06
2.2634446e-06
2.5433792e-06
2.185064e-06
2.1045247e-06
-7.2140076e-09
-7.9286793e-08
-2.8814593e-08
-2.3757116e-07
-6.450779e-08
-3.9354007e-07
-1.1377353e-07
-5.4534542e-07
-1.7583908e-07
-6.908523e-07
-2.4971518e-07
-8.2816976e-07
-3.3423508e-07
-9.5566643e-07
-4.2808866e-07
-1.0719157e-06
-5.2985887e-07
-1.1757105e-06
-6.3805926e-07
-1.2660713e-06
-7.5117069e-07
-1.3422484e-06
-8.6767621e-07
-1.403719e-06
-9.8609312e-07
-1.450179e-06
-1.1050004e-06
-1.4815288e-06
-1.2230613e-06
-1.4978559e-06
-1.3390403e-06
-1.4994123e-06
-1.4518142e-06
-1.4865916e-06
-1.5603779e-06
-1.4599042e-06
-1.6638447e-06
-1.4199531e-06
-1.7614427e-06
-1.3674114e-06
-1.8525075e-06
-1.3030025e-06
-1.936473e-06
-1.2274824e-06
-2.0128607e-06
-1.1416266e-06
-2.0812688e-06
-1.0462187e-06
-2.141362e-06
-9.420437e-07
-2.1928623e-06
-8.2988359e-07
-2.2355415e-06
-7.1051465e-07
-2.2692151e-06
-5.8470626e-07
-2.293739e-06
-4.5322223e-07
-2.3090072e-06
-3.168221e-07
-2.314953e-06
-1.7626578e-07
-2.3115724e-06
-3.2359604e-08
-2.2988053e-06
1.1435988e-07
-2.2767243e-06
2.6295827e-07
-2.245422e-06
4.1271315e-07
-2.2050319e-06
5.6290726e-07
-2.1557313e-06
7.1281703e-07
-2.0977431e-06
8.6173214e-07
-2.0313343e-06
1.008959e-06
-1.956817e-06
1.1538261e-06
-1.8745446e-06
1.2956879e-06
-1.7849107e-06
1.4339295e-06
-1.688345e-06
1.5679708e-06
-1.5853095e-06
1.6972701e-06
-1.4762946e-06
1.8213278e-06
-1.361814e-06
1.9396888e-06
-1.2424e-06
2.0519447e-06
-1.1185989e-06
2.1577354e-06
-9.9096493e-07
2.2567496e-06
-8.6005662e-07
2.3487258e-06
-7.2643104e-07
2.4334519e-06
-5.9064023e-07
2.510763e-06
-4.532268e-07
2.5805417e-06
-3.1472011e-07
2.6427161e-06
-1.7563345e-07
2.6972561e-06
-3.6461391e-08
2.744175e-06
1.0233037e-07
2.7835244e-06
2.4028843e-07
2.8153696e-06
3.7699166e-07
2.8398501e-06
5.1204564e-07
2.8571051e-06
6.4508003e-07
2.8673004e-06
7.7575551e-07
2.8706286e-06
9.0376074e-07
2.8673043e-06
1.0288121e-06
2.8575595e-06
1.1506542e-06
2.8416376e-06
1.2690585e-06
2.8197952e-06
1.3838237e-06
2.7922968e-06
1.494774e-06
2.759415e-06
1.6017587e-06
2.7214262e-06
1.7046504e-06
2.67861e-06
1.8033443e-06
2.6312465e-06
1.8977572e-06
2.5796153e-06
1.9878258e-06
2.523994e-06
2.0735052e-06
2.4646561e-06
2.1547682e-06
2.4018716e-06
2.2316041e-06
2.3359033e-06
2.3040159e-06
2.2670093e-06
2.3720215e-06
2.1954391e-06
2.4356494e-06
2.1214359e-06
2.0452329e-06
-6.5533318e-09
-7.273346e-08
-2.6178113e-08
-2.1794639e-07
-5.8619561e-08
-3.6109861e-07
-1.0342594e-07
-5.0053906e-07
-1.5992417e-07
-6.3435406e-07
-2.2725081e-07
-7.6084316e-07
-3.0438502e-07
-8.7853222e-07
-3.9017745e-07
-9.8612327e-07
-4.8338077e-07
-1.0825072e-06
-5.8268107e-07
-1.166771e-06
-6.8672915e-07
-1.2382003e-06
-7.9417003e-07
-1.2962782e-06
-9.0367004e-07
-1.340679e-06
-1.0139412e-06
-1.3712577e-06
-1.1237605e-06
-1.3880365e-06
-1.2319864e-06
-1.3911865e-06
-1.3375684e-06
-1.3810096e-06
-1.4395545e-06
-1.357918e-06
-1.5370929e-06
-1.3224146e-06
-1.6294308e-06
-1.2750736e-06
-1.7159096e-06
-1.2165237e-06
-1.7959591e-06
-1.1474328e-06
-1.86909e-06
-1.0684957e-06
-1.9348852e-06
-9.8042349e-07
-1.9929919e-06
-8.8393696e-07
-2.043115e-06
-7.7976059e-07
-2.0850097e-06
-6.6861985e-07
-2.1184779e-06
-5.5123812e-07
-2.1433631e-06
-4.2833694e-07
-2.1595496e-06
-3.0063561e-07
-2.1669615e-06
-1.6885383e-07
-2.1655777e-06
-3.3743431e-08
-2.1553493e-06
1.0413142e-07
-2.1363395e-06
2.4394856e-07
-2.1086237e-06
3.8499728e-07
-2.072324e-06
5.2660752e-07
-2.0276028e-06
6.6809595e-07
-1.9746641e-06
8.0879349e-07
-1.9137532e-06
9.4804817e-07
-1.8451554e-06
1.0852283e-06
-1.7691949e-06
1.2197274e-06
-1.6862317e-06
1.3509663e-06
-1.5966592e-06
1.4783983e-06
-1.5009011e-06
1.6015118e-06
-1.3994064e-06
1.7198332e-06
-1.2926469e-06
1.8329293e-06
-1.1811117e-06
1.9404095e-06
-1.0653034e-06
2.0419269e-06
-9.4573314e-07
2.1371794e-06
-8.2291693e-07
2.2259097e-06
-6.9737125e-07
2.307906e-06
-5.6960817e-07
2.383e-06
-4.401335e-07
2.4510671e-06
-3.0944142e-07
2.512024e-06
-1.78013e-07
2.5658277e-06
-4.6312539e-08
2.6124746e-06
8.5215344e-08
2.6519964e-06
2.161512e-07
2.6844338e-06
3.460872e-07
2.7099141e-06
4.7464749e-07
2.7285449e-06
6.0147758e-07
2.7404703e-06
7.2624958e-07
2.7458565e-06
8.4866149e-07
2.7448925e-06
9.6843643e-07
2.7377846e-06
1.0853235e-06
2.7247506e-06
1.1990967e-06
2.7060219e-06
1.3095545e-06
2.6818389e-06
1.4165198e-06
2.6524498e-06
1.5198379e-06
2.6181078e-06
1.6193774e-06
2.5790702e-06
1.7150274e-06
2.5355965e-06
1.8066974e-06
2.4879454e-06
1.8943157e-06
2.4363757e-06
1.9778285e-06
2.3811433e-06
2.0571992e-06
2.3225009e-06
2.1324059e-06
2.2606964e-06
2.203442e-06
2.1959733e-06
2.2703135e-06
2.1285678e-06
2.3330387e-06
2.0587107e-06
1.9866247e-06
-5.9635714e-09
-6.6769889e-08
-2.3824229e-08
-2.0008573e-07
-5.3360453e-08
-3.3156239e-07
-9.4178505e-08
-4.59721e-07
-1.4569031e-07
-5.8284227e-07
-2.0713976e-07
-6.993937e-07
-2.7763101e-07
-8.0804095e-07
-3.5615263e-07
-9.0760166e-07
-4.4160343e-07
-9.9705641e-07
-5.328191e-07
-1.0755553e-06
-6.2859836e-07
-1.142421e-06
-7.2772845e-07
-1.1971481e-06
-8.2900822e-07
-1.2393991e-06
-9.3126924e-07
-1.2689967e-06
-1.0333934e-06
-1.2859123e-06
-1.1343269e-06
-1.290253e-06
-1.2330906e-06
-1.2822459e-06
-1.3287871e-06
-1.2622216e-06
-1.4206037e-06
-1.230598e-06
-1.5078129e-06
-1.1878643e-06
-1.5897701e-06
-1.1345665e-06
-1.6659095e-06
-1.0712934e-06
-1.7357391e-06
-9.9866605e-07
-1.7988345e-06
-9.1732816e-07
-1.8548327e-06
-8.2793872e-07
-1.9034265e-06
-7.3116672e-07
-1.9443601e-06
-6.2768626e-07
-1.9774234e-06
-5.1817485e-07
-2.0024502e-06
-4.0331019e-07
-2.0193151e-06
-2.8377072e-07
-2.027933e-06
-1.6023591e-07
-2.0282679e-06
-3.3408546e-08
-2.0202812e-06
9.6144727e-08
-2.0040135e-06
2.276809e-07
-1.9795332e-06
3.6051708e-07
-1.9469481e-06
4.9402246e-07
-1.9064053e-06
6.2755312e-07
-1.8580903e-06
7.6047846e-07
-1.802227e-06
8.9218483e-07
-1.7390762e-06
1.0220776e-06
-1.6689342e-06
1.1495853e-06
-1.5921305e-06
1.2741627e-06
-1.5090255e-06
1.3952934e-06
-1.4200071e-06
1.5124933e-06
-1.3254876e-06
1.6253137e-06
-1.2259001e-06
1.7333417e-06
-1.1216941e-06
1.8362036e-06
-1.0133328e-06
1.9335656e-06
-9.0128791e-07
2.0251345e-06
-7.8603663e-07
2.1106584e-06
-6.6805712e-07
2.1899268e-06
-5.4782604e-07
2.2627689e-06
-4.258138e-07
2.3290547e-06
-3.0248218e-07
2.3886924e-06
-1.7828177e-07
2.4416275e-06
-5.3648089e-08
2.487841e-06
7.1001049e-08
2.5273472e-06
1.9525834e-07
2.5601764e-06
3.1874494e-07
2.5864275e-06
4.4110278e-07
2.606187e-06
5.6199118e-07
2.6195818e-06
6.8109382e-07
2.626754e-06
7.981185e-07
2.6278681e-06
9.1279582e-07
2.6231071e-06
1.0248799e-06
2.6126665e-06
1.1341479e-06
2.5967537e-06
1.2404e-06
2.575587e-06
1.3434584e-06
2.5493914e-06
1.4431667e-06
2.5183995e-06
1.5393895e-06
2.4828475e-06
1.6320117e-06
2.4429743e-06
1.7209365e-06
2.3990205e-06
1.8060855e-06
2.3512266e-06
1.8873978e-06
2.2998314e-06
1.9648275e-06
2.2450712e-06
2.0383444e-06
2.1871796e-06
2.107932e-06
2.1263856e-06
2.1735867e-06
2.062913e-06
2.2353169e-06
1.9969806e-06
1.9288001e-06
-5.4357345e-09
-6.1334154e-08
-2.1717189e-08
-1.8380428e-07
-4.865111e-08
-3.0462848e-07
-8.5893245e-08
-4.2247887e-07
-1.3292811e-07
-5.3580738e-07
-1.8909158e-07
-6.4323023e-07
-2.535951e-07
-7.4353746e-07
-3.2554599e-07
-8.3565076e-07
-4.0396947e-07
-9.1863293e-07
-4.87831e-07
-9.9169379e-07
-5.7605875e-07
-1.0541933e-06
-6.675651e-07
-1.1056418e-06
-7.6126672e-07
-1.1456975e-06
-8.5610315e-07
-1.1741603e-06
-9.5105179e-07
-1.1909636e-06
-1.0451414e-06
-1.1961635e-06
-1.1374613e-06
-1.1899259e-06
-1.2271687e-06
-1.1725141e-06
-1.3134926e-06
-1.1442741e-06
-1.3957351e-06
-1.1056219e-06
-1.473271e-06
-1.0570307e-06
-1.5455451e-06
-9.9901916e-07
-1.6120697e-06
-9.3214154e-07
-1.6724189e-06
-8.5697895e-07
-1.7262253e-06
-7.7413229e-07
-1.7731752e-06
-6.8421675e-07
-1.8130046e-06
-5.8785703e-07
-1.8454952e-06
-4.8568416e-07
-1.8704723e-06
-3.7833303e-07
-1.8878022e-06
-2.6644081e-07
-1.8973913e-06
-1.5064666e-07
-1.8991909e-06
-3.1609046e-08
-1.8931654e-06
9.0119202e-08
-1.8793381e-06
2.1385353e-07
-1.8577672e-06
3.3894612e-07
-1.8285473e-06
4.6480253e-07
-1.7918101e-06
5.9081576e-07
-1.7477229e-06
7.1639134e-07
-1.6964892e-06
8.4095121e-07
-1.6383469e-06
9.6393521e-07
-1.5735663e-06
1.0848047e-06
-1.5024485e-06
1.2030451e-06
-1.4253239e-06
1.3181686e-06
-1.3425475e-06
1.4297171e-06
-1.2544978e-06
1.537264e-06
-1.1615727e-06
1.6404166e-06
-1.0641861e-06
1.7388169e-06
-9.6276422e-07
1.8321439e-06
-8.5774334e-07
1.9201136e-06
-7.4956461e-07
2.0024797e-06
-6.3867154e-07
2.0790337e-06