/*--------------------------------*- C++ -*----------------------------------*\
| =========                 |                                                 |
| \\      /  F ield         | OpenFOAM: The Open Source CFD Toolbox           |
|  \\    /   O peration     | Version:  2306                                  |
|   \\  /    A nd           | Website:  www.openfoam.com                      |
|    \\/     M anipulation  |                                                 |
\*---------------------------------------------------------------------------*/
FoamFile
{
    version     2.0;
    format      ascii;
    arch        "LSB;label=32;scalar=64";
    class       surfaceScalarField;
    location    "0.05";
    object      phi;
}
// * * * * * * * * * * * * * * * * * * * * * * * * * * * * * * * * * * * * * //

dimensions      [0 3 -1 0 0 0 0];

oriented        oriented;

internalField   nonuniform List<scalar> 
12640
(
3.5747091e-08
4.0320648e-08
3.7206489e-08
3.985059e-08
3.8647959e-08
3.9313073e-08
4.0069236e-08
3.8709483e-08
4.146812e-08
3.8039577e-08
4.2841725e-08
3.7303763e-08
4.4187445e-08
3.6503056e-08
4.5503081e-08
3.5638504e-08
4.6786318e-08
3.4711362e-08
4.8035109e-08
3.3721759e-08
4.9247128e-08
3.2671027e-08
5.0420667e-08
3.1560911e-08
5.1553568e-08
3.0392988e-08
5.2643696e-08
2.9167766e-08
5.3689752e-08
2.7887467e-08
5.4689201e-08
2.655329e-08
5.5640105e-08
2.5166696e-08
5.6541694e-08
2.3730269e-08
5.7391328e-08
2.2244676e-08
5.8188227e-08
2.0712612e-08
5.8931905e-08
1.9135261e-08
5.9620058e-08
1.751561e-08
6.0251569e-08
1.5854309e-08
6.0825814e-08
1.4154173e-08
6.1341734e-08
1.2417579e-08
6.179768e-08
1.0646165e-08
6.2192861e-08
8.841627e-09
6.2527464e-08
7.006711e-09
6.2799158e-08
5.1438242e-09
6.3008773e-08
3.2548366e-09
6.315469e-08
1.3420728e-09
6.3236812e-08
-5.9236515e-10
6.3255829e-08
-2.5460029e-09
6.3209691e-08
-4.5168506e-09
6.3099908e-08
-6.5020097e-09
6.2924736e-08
-8.4998246e-09
6.2684873e-08
-1.050754e-08
6.2380334e-08
-1.2523344e-08
6.2010571e-08
-1.4544981e-08
6.1576487e-08
-1.6569901e-08
6.1077696e-08
-1.8595173e-08
6.051539e-08
-2.0619512e-08
5.9888961e-08
-2.2640265e-08
5.9199164e-08
-2.4655914e-08
5.8446139e-08
-2.6662929e-08
5.7630751e-08
-2.8659571e-08
5.6753575e-08
-3.0644564e-08
5.5815371e-08
-3.2614643e-08
5.4816287e-08
-3.4567843e-08
5.3757822e-08
-3.6502169e-08
5.2640219e-08
-3.8416682e-08
5.1464767e-08
-4.0307359e-08
5.0231943e-08
-4.2172812e-08
4.8943605e-08
-4.4011864e-08
4.7599772e-08
-4.5821573e-08
4.620189e-08
-4.7600385e-08
4.4750915e-08
-4.934634e-08
4.3248292e-08
-5.1057849e-08
4.1695433e-08
-5.2732375e-08
4.0093232e-08
-5.4368512e-08
3.844313e-08
-5.5964482e-08
3.6746376e-08
-5.7518767e-08
3.500451e-08
-5.9029343e-08
3.3218173e-08
-6.0494295e-08
3.1390149e-08
-6.1912132e-08
2.9521687e-08
-6.3281866e-08
2.7613748e-08
-6.4601371e-08
2.5668095e-08
-6.5869021e-08
2.3686415e-08
-6.7083935e-08
2.1669785e-08
-6.8244246e-08
1.9619843e-08
-6.9348705e-08
1.753976e-08
-7.0395681e-08
1.5430646e-08
-7.1384425e-08
1.3294374e-08
-7.2313938e-08
1.1131915e-08
-7.3181572e-08
8.9455776e-09
-7.3987435e-08
6.7371254e-09
-7.4730168e-08
4.5091014e-09
-7.5409057e-08
2.2628181e-09
-7.6023728e-08
-7.6577511e-08
3.478236e-08
3.8901725e-08
3.6186997e-08
3.844595e-08
3.7574551e-08
3.7925367e-08
3.8942949e-08
3.7341136e-08
4.0289579e-08
3.6692681e-08
4.1612344e-08
3.598105e-08
4.2908535e-08
3.5206753e-08
4.4176075e-08
3.4371136e-08
4.5412503e-08
3.3474594e-08
4.6616184e-08
3.2518162e-08
4.7784811e-08
3.1502609e-08
4.8915943e-08
3.0429739e-08
5.0008276e-08
2.9300517e-08
5.1059794e-08
2.8116356e-08
5.2068758e-08
2.6878402e-08
5.303336e-08
2.5588646e-08
5.3951701e-08
2.4248526e-08
5.4821666e-08
2.2860044e-08
5.5642558e-08
2.1423917e-08
5.6412611e-08
1.9942656e-08
5.7130556e-08
1.8417419e-08
5.7795712e-08
1.6850455e-08
5.8406112e-08
1.524387e-08
5.8961538e-08
1.3599177e-08
5.9460265e-08
1.1918756e-08
5.9901915e-08
1.0204439e-08
6.0284778e-08
8.4585836e-09
6.0608363e-08
6.6828897e-09
6.0872041e-08
4.8802804e-09
6.1074953e-08
3.0515513e-09
6.1216927e-08
1.1998906e-09
6.1297859e-08
-6.7262573e-10
6.131668e-08
-2.5650964e-09
6.1273019e-08
-4.4731283e-09
6.1167462e-08
-6.3961235e-09
6.0998772e-08
-8.3314835e-09
6.0767427e-08
-1.0276497e-08
6.0473637e-08
-1.22296e-08
6.0117398e-08
-1.4188163e-08
5.9697674e-08
-1.6150139e-08
5.9215825e-08
-1.8112987e-08
5.8671706e-08
-2.0075458e-08
5.8065951e-08
-2.2034704e-08
5.7398817e-08
-2.3988652e-08
5.6670382e-08
-2.5934458e-08
5.5881505e-08
-2.7870793e-08
5.5032667e-08
-2.9795799e-08
5.4124669e-08
-3.1706038e-08
5.3157376e-08
-3.3600688e-08
5.2132295e-08
-3.5477728e-08
5.1050053e-08
-3.7333997e-08
4.9911396e-08
-3.9168339e-08
4.8717493e-08
-4.097897e-08
4.7469031e-08
-4.2763512e-08
4.6167346e-08
-4.4519601e-08
4.481276e-08
-4.62458e-08
4.3406244e-08
-4.7940231e-08
4.1949946e-08
-4.9601318e-08
4.044431e-08
-5.1226755e-08
3.8891357e-08
-5.2815465e-08
3.729193e-08
-5.4364947e-08
3.5646839e-08
-5.5873995e-08
3.3957083e-08
-5.7339779e-08
3.2225646e-08
-5.8762577e-08
3.0452349e-08
-6.0139555e-08
2.8640054e-08
-6.1469351e-08
2.678953e-08
-6.2750966e-08
2.4902311e-08
-6.3981929e-08
2.2979855e-08
-6.5161766e-08
2.1023921e-08
-6.628833e-08
1.9035969e-08
-6.7360434e-08
1.7017602e-08
-6.8377645e-08
1.497146e-08
-6.9338056e-08
1.2898312e-08
-7.0240947e-08
1.0800439e-08
-7.1083577e-08
8.6792475e-09
-7.1866434e-08
6.5370983e-09
-7.2587611e-08
4.3749554e-09
-7.3246871e-08
2.1957297e-09
-7.3844152e-08
-7.4381816e-08
3.3849344e-08
3.7536517e-08
3.5201102e-08
3.7094162e-08
3.6536681e-08
3.6590053e-08
3.7853823e-08
3.6023715e-08
3.9150648e-08
3.5396274e-08
4.0424481e-08
3.4707245e-08
4.1672738e-08
3.395847e-08
4.2893622e-08
3.3150241e-08
4.4085507e-08
3.2283068e-08
4.5245617e-08
3.135776e-08
4.6371962e-08
3.0376222e-08
4.7462634e-08
2.9339028e-08
4.8515885e-08
2.8247356e-08
4.9529852e-08
2.7102344e-08
5.0502658e-08
2.5905436e-08
5.1432892e-08
2.4658585e-08
5.2318882e-08
2.3362839e-08
5.3159026e-08
2.2019895e-08
5.3951805e-08
2.0631143e-08
5.4696317e-08
1.9198111e-08
5.5390638e-08
1.7723215e-08
5.6033096e-08
1.6207801e-08
5.6623197e-08
1.4653404e-08
5.71599e-08
1.3062179e-08
5.7641799e-08
1.1436766e-08
5.806834e-08
9.7780889e-09
5.8438624e-08
8.0884221e-09
5.8751521e-08
6.3700391e-09
5.900725e-08
4.6247821e-09
5.9203877e-08
2.8549176e-09
5.9342314e-08
1.0616638e-09
5.9421124e-08
-7.5164107e-10
5.9440054e-08
-2.5837681e-09
5.9398409e-08
-4.4320481e-09
5.9296454e-08
-6.2942699e-09
5.9134291e-08
-8.1691391e-09
5.8910788e-08
-1.0053188e-08
5.8627204e-08
-1.1945866e-08
5.8282485e-08
-1.3843579e-08
5.7877326e-08
-1.5744782e-08
5.7411903e-08
-1.76476e-08
5.6885915e-08
-1.9549425e-08
5.6299976e-08
-2.1448588e-08
5.565409e-08
-2.3343028e-08
5.4949286e-08
-2.522959e-08
5.4185732e-08
-2.710718e-08
5.336417e-08
-2.8973943e-08
5.2485036e-08
-3.0827106e-08
5.1548598e-08
-3.2664421e-08
5.0556115e-08
-3.4484989e-08
4.9508161e-08
-3.6286027e-08
4.8405467e-08
-3.8065706e-08
4.7248374e-08
-3.9822052e-08
4.6038754e-08
-4.1553933e-08
4.4777016e-08
-4.325781e-08
4.3464483e-08
-4.4933196e-08
4.2102158e-08
-4.6577436e-08
4.0690223e-08
-4.8189749e-08
3.9231016e-08
-4.9767503e-08
3.7725045e-08
-5.1309418e-08
3.6174078e-08
-5.2814e-08
3.4578544e-08
-5.4278493e-08
3.2940728e-08
-5.5702077e-08
3.1261437e-08
-5.7083059e-08
2.954237e-08
-5.8419875e-08
2.7784103e-08
-5.9711497e-08
2.5989183e-08
-6.0955555e-08
2.4158494e-08
-6.2150923e-08
2.2293197e-08
-6.3296721e-08
2.0396199e-08
-6.439098e-08
1.8467946e-08
-6.5432764e-08
1.651058e-08
-6.6420287e-08
1.4525853e-08
-6.7353492e-08
1.2514388e-08
-6.8229453e-08
1.0478969e-08
-6.9048157e-08
8.420709e-09
-6.9807963e-08
6.3420779e-09
-7.050906e-08
4.2449601e-09
-7.114973e-08
2.1306702e-09
-7.1729841e-08
-7.2250785e-08
3.2946764e-08
3.6222662e-08
3.4247479e-08
3.579333e-08
3.5532859e-08
3.5304546e-08
3.6801179e-08
3.4755627e-08
3.8049712e-08
3.4147508e-08
3.9276303e-08
3.3480814e-08
4.047865e-08
3.2756043e-08
4.1654896e-08
3.1974053e-08
4.2802902e-08
3.1134797e-08
4.3921123e-08
3.0239905e-08
4.5006657e-08
2.9290658e-08
4.6058054e-08
2.8287461e-08
4.7073591e-08
2.7231828e-08
4.8051561e-08
2.6124558e-08
4.8990186e-08
2.4966964e-08
4.9887141e-08
2.3761352e-08
5.0741812e-08
2.2508073e-08
5.1552657e-08
2.1208922e-08
5.2318022e-08
1.9865785e-08
5.3036297e-08
1.8479786e-08
5.370651e-08
1.7052663e-08
5.4327389e-08
1.5586956e-08
5.4897655e-08
1.4083435e-08
5.5416377e-08
1.2543483e-08
5.5882223e-08
1.0971057e-08
5.6294895e-08
9.3652951e-09
5.6653105e-08
7.7303479e-09
5.6955781e-08
6.067146e-09
5.720273e-08
4.3776162e-09
5.7393903e-08
2.6636025e-09
5.7527727e-08
9.2789849e-10
5.7604268e-08
-8.2819083e-10
5.7622727e-08
-2.6021423e-09
5.7583084e-08
-4.3921006e-09
5.7485335e-08
-6.1965662e-09
5.7328547e-08
-8.0120678e-09
5.7113077e-08
-9.8378065e-09
5.6838585e-08
-1.1671199e-08
5.6505204e-08
-1.3510393e-08
5.6113872e-08
-1.5353167e-08
5.5663453e-08
-1.7197226e-08
5.5154947e-08
-1.9040952e-08
5.4587982e-08
-2.0881912e-08
5.3963091e-08
-2.2718036e-08
5.32813e-08
-2.4547268e-08
5.2542181e-08
-2.6368137e-08
5.1746529e-08
-2.8178435e-08
5.0895056e-08
-2.9975702e-08
4.998858e-08
-3.1757623e-08
4.9027319e-08
-3.3523755e-08
4.8012118e-08
-3.5270675e-08
4.6943723e-08
-3.69975e-08
4.5823362e-08
-3.8701592e-08
4.4650849e-08
-4.0381733e-08
4.3428362e-08
-4.2035284e-08
4.2156139e-08
-4.3660744e-08
4.0835581e-08
-4.5257225e-08
3.946766e-08
-4.6821679e-08
3.8053277e-08
-4.835304e-08
3.6593135e-08
-4.9849562e-08
3.5088929e-08
-5.1310201e-08
3.3542145e-08
-5.2732136e-08
3.1954088e-08
-5.4113481e-08
3.0325515e-08
-5.54544e-08
2.8658482e-08
-5.6752627e-08
2.6953414e-08
-5.8006882e-08
2.5212513e-08
-5.9214511e-08
2.343668e-08
-6.0375729e-08
2.16279e-08
-6.1487925e-08
1.9787372e-08
-6.2550384e-08
1.7917036e-08
-6.356196e-08
1.6018163e-08
-6.4521561e-08
1.4092314e-08
-6.5427449e-08
1.2141492e-08
-6.6278852e-08
1.0166381e-08
-6.7072974e-08
8.1697782e-09
-6.7811157e-08
6.1530626e-09
-6.8492285e-08
4.117923e-09
-6.9115118e-08
2.0665661e-09
-6.9678101e-08
-7.018457e-08
3.2072971e-08
3.4958383e-08
3.3325084e-08
3.4541702e-08
3.4562387e-08
3.4067195e-08
3.5783256e-08
3.3534933e-08
3.6985223e-08
3.2945609e-08
3.8166406e-08
3.2299394e-08
3.9324315e-08
3.1597991e-08
4.045764e-08
3.0840922e-08
4.1563643e-08
3.0028812e-08
4.2640491e-08
2.9162952e-08
4.368696e-08
2.8244307e-08
4.470034e-08
2.7274075e-08
4.5679691e-08
2.6252481e-08
4.6622818e-08
2.5181381e-08
4.7527663e-08
2.40618e-08
4.8393461e-08
2.2895502e-08
4.9218268e-08
2.168326e-08
5.0000576e-08
2.0426661e-08
5.0739032e-08
1.9127451e-08
5.1432511e-08
1.7786518e-08
5.2078885e-08
1.6406069e-08
5.267837e-08
1.4987383e-08
5.3229074e-08
1.3532342e-08
5.3729683e-08
1.2042975e-08
5.4180107e-08
1.0520565e-08
5.4578984e-08
8.9666413e-09
5.4925412e-08
7.3839911e-09
5.5218371e-08
5.774034e-09
5.5457321e-08
4.1387685e-09
5.5642007e-08
2.4787708e-09
5.5771721e-08
7.9823323e-10
5.5845755e-08
-9.019334e-10
5.5863751e-08
-2.6206231e-09
5.5825672e-08
-4.354209e-09
5.5731029e-08
-6.101744e-09
5.5579763e-08
-7.8610396e-09
5.537167e-08
-9.6297363e-09
5.5106499e-08
-1.1406086e-08
5.4784376e-08
-1.3188597e-08
5.4405696e-08
-1.4974173e-08
5.3970021e-08
-1.6761586e-08
5.3477439e-08
-1.8548773e-08
5.2928898e-08
-2.0333309e-08
5.2324566e-08
-2.2113586e-08
5.1664347e-08
-2.3887153e-08
5.0948825e-08
-2.5652752e-08
5.0178698e-08
-2.7407926e-08
4.9354263e-08
-2.9151265e-08
4.8476231e-08
-3.0879665e-08
4.754464e-08
-3.259229e-08
4.6561281e-08
-3.4287383e-08
4.5526324e-08
-3.5962249e-08
4.4440565e-08
-3.7615668e-08
4.3304785e-08
-3.9245958e-08
4.2120187e-08
-4.0850695e-08
4.0887168e-08
-4.2428077e-08
3.9606714e-08
-4.3976863e-08
3.8280765e-08
-4.5495511e-08
3.6909815e-08
-4.6982039e-08
3.5494478e-08
-4.8434413e-08
3.4036297e-08
-4.9851496e-08
3.2536693e-08
-5.1232048e-08
3.0996407e-08
-5.2573684e-08
2.9417255e-08
-5.387564e-08
2.7800827e-08
-5.5135882e-08
2.614686e-08
-5.6352793e-08
2.4458465e-08
-5.7525885e-08
2.2736411e-08
-5.8653053e-08
2.0981992e-08
-5.9733755e-08
1.9196839e-08
-6.0765427e-08
1.7382173e-08
-6.174749e-08
1.5540019e-08
-6.267949e-08
1.3671816e-08
-6.3559019e-08
1.1778617e-08
-6.4385633e-08
9.8632667e-09
-6.5157646e-08
7.9265102e-09
-6.5874821e-08
5.9699659e-09
-6.6535718e-08
3.9956893e-09
-6.7140552e-08
2.0047978e-09
-6.7687447e-08
-6.8179743e-08
3.1227354e-08
3.3741786e-08
3.2432202e-08
3.333679e-08
3.3623115e-08
3.2875993e-08
3.4798343e-08
3.2359632e-08
3.5955643e-08
3.1788275e-08
3.7092794e-08
3.1162291e-08
3.8208382e-08
3.0482547e-08
3.9299891e-08
2.9749316e-08
4.0365481e-08
2.8963249e-08
4.1403125e-08
2.8125185e-08
4.2411463e-08
2.7236134e-08
4.3388515e-08
2.6297144e-08
4.433237e-08
2.5308533e-08
4.5241439e-08
2.4272207e-08
4.6114066e-08
2.3189219e-08
4.6949135e-08
2.2060684e-08
4.7744652e-08
2.0887503e-08
4.8499299e-08
1.9671634e-08
4.9211894e-08
1.8414837e-08
4.9881069e-08
1.7117435e-08
5.0505453e-08
1.578168e-08
5.1084049e-08
1.4408893e-08
5.1615542e-08
1.3000884e-08
5.2099505e-08
1.1559319e-08
5.2534174e-08
1.0085687e-08
5.2919273e-08
8.5814428e-09
5.325379e-08
7.0495849e-09
5.353699e-08
5.4910206e-09
5.3768018e-08
3.9075519e-09
5.3946229e-08
2.3006126e-09
5.407175e-08
6.7286008e-10
5.4143323e-08
-9.7375919e-10
5.4160794e-08
-2.6380676e-09
5.4124103e-08
-4.3172717e-09
5.4032589e-08
-6.01036e-09
5.388658e-08
-7.7144302e-09
5.3684993e-08
-9.4283675e-09
5.3428989e-08
-1.1150005e-08
5.3117452e-08
-1.287676e-08
5.2750993e-08
-1.4607575e-08
5.2329231e-08
-1.6339719e-08
5.1852665e-08
-1.8072099e-08
5.1321667e-08
-1.9802375e-08
5.0736089e-08
-2.1528347e-08
5.0096881e-08
-2.324786e-08
4.9404298e-08
-2.4960068e-08
4.8658349e-08
-2.6662097e-08
4.7859791e-08
-2.8352356e-08
4.7009381e-08
-3.0029416e-08
4.6107451e-08
-3.1690271e-08
4.5154618e-08
-3.3334441e-08
4.4151963e-08
-3.4959638e-08
4.3099773e-08
-3.656359e-08
4.1999156e-08
-3.8145129e-08
4.0850793e-08
-3.9702259e-08
3.9656058e-08
-4.1232982e-08
3.8415215e-08
-4.2736121e-08
3.7129547e-08
-4.4209736e-08
3.5800048e-08
-4.5652344e-08
3.4428283e-08
-4.7062833e-08
3.3014558e-08
-4.843807e-08
3.1560129e-08
-4.9777963e-08
3.0066975e-08
-5.1080167e-08
2.8535962e-08
-5.2344487e-08
2.6967921e-08
-5.3567621e-08
2.5364433e-08
-5.474969e-08
2.3726399e-08
-5.5888034e-08
2.2056065e-08
-5.6983141e-08
2.035425e-08
-5.8031863e-08
1.8622937e-08
-5.9033929e-08
1.6863012e-08
-5.9987278e-08
1.5075883e-08
-6.0892465e-08
1.3263388e-08
-6.1746685e-08
1.142681e-08
-6.2549416e-08
9.5686562e-09
-6.3299435e-08
7.6898538e-09
-6.3995504e-08
5.7917369e-09
-6.4638077e-08
3.8763568e-09
-6.5224844e-08
1.9450721e-09
-6.5756186e-08
-6.6234457e-08
3.0407881e-08
3.2571448e-08
3.1567344e-08
3.2177244e-08
3.2713692e-08
3.172969e-08
3.384506e-08
3.1228172e-08
3.4959431e-08
3.0673846e-08
3.6054816e-08
3.0067046e-08
3.7128828e-08
2.9408285e-08
3.8180333e-08
2.8697835e-08
3.9206892e-08
2.7936656e-08
4.0206912e-08
2.712519e-08
4.1178384e-08
2.6264549e-08
4.2120181e-08
2.5355376e-08
4.3030048e-08
2.4398923e-08
4.3906188e-08
2.3395977e-08
4.4747623e-08
2.2348073e-08
4.5552654e-08
2.1255891e-08
4.6319824e-08
2.0120426e-08
4.7047755e-08
1.8943895e-08
4.773529e-08
1.7727242e-08
4.838106e-08
1.6471789e-08
4.8983461e-08
1.5179206e-08
4.9541859e-08
1.3850609e-08
5.0055015e-08
1.2487702e-08
5.052185e-08
1.1092307e-08
5.0942029e-08
9.6659162e-09
5.1313606e-08
8.2100146e-09
5.1636321e-08
6.7265184e-09
5.190978e-08
5.2175546e-09
5.2133212e-08
3.6844279e-09
5.2305407e-08
2.1283258e-09
5.2425943e-08
5.5236289e-10
5.2495464e-08
-1.0428548e-09
5.2512349e-08
-2.6551081e-09
5.2476758e-08
-4.2816278e-09
5.2388125e-08
-5.9220044e-09
5.2246868e-08
-7.5729308e-09
5.2052092e-08
-9.2336278e-09
5.1803926e-08
-1.0901433e-08
5.1502355e-08
-1.2575331e-08
5.1147488e-08
-1.4252794e-08
5.0739363e-08
-1.5932119e-08
5.0278134e-08
-1.7611153e-08
4.9764205e-08
-1.9288143e-08
4.9197095e-08
-2.096154e-08
4.8578214e-08
-2.2628959e-08
4.7907497e-08
-2.4289197e-08
4.7184628e-08
-2.5939478e-08
4.6411157e-08
-2.75791e-08
4.5587275e-08
-2.9205563e-08
4.4713643e-08
-3.0816584e-08
4.3790933e-08
-3.2411453e-08
4.2819102e-08
-3.3987692e-08
4.1799238e-08
-3.5544233e-08
4.0733005e-08
-3.7078775e-08
3.9619705e-08
-3.8589168e-08
3.8461559e-08
-4.0074702e-08
3.7259009e-08
-4.1533009e-08
3.6012435e-08
-4.2963589e-08
3.4724265e-08
-4.4364016e-08
3.3393761e-08
-4.5732306e-08
3.2023087e-08
-4.706772e-08
3.0613012e-08
-4.8367667e-08
2.916512e-08
-4.9632412e-08
2.7680137e-08
-5.085952e-08
2.6159395e-08
-5.2047079e-08
2.4604551e-08
-5.3194293e-08
2.3015993e-08
-5.4300052e-08
2.1395634e-08
-5.5362819e-08
1.9745215e-08
-5.6381646e-08
1.8065862e-08
-5.7354479e-08
1.6358547e-08
-5.8280495e-08
1.4625245e-08
-5.9159168e-08
1.2867123e-08
-5.9988596e-08
1.1085389e-08
-6.076802e-08
9.2828259e-09
-6.1496699e-08
7.4601855e-09
-6.2173058e-08
5.6186709e-09
-6.2796732e-08
3.7602987e-09
-6.3366658e-08
1.8869355e-09
-6.3883098e-08
-6.4347338e-08
2.9613416e-08
3.1444684e-08
3.0729424e-08
3.1060995e-08
3.1833091e-08
3.0626086e-08
3.2922494e-08
3.013903e-08
3.3995138e-08
2.960087e-08
3.505027e-08
2.9012093e-08
3.6085018e-08
2.8373701e-08
3.7097502e-08
2.7685132e-08
3.8086539e-08
2.6947646e-08
3.9049757e-08
2.6161777e-08
3.9986004e-08
2.5328231e-08
4.0893258e-08
2.4448041e-08
4.1770129e-08
2.3522071e-08
4.2614975e-08
2.2551327e-08
4.3426122e-08
2.1536911e-08
4.4202506e-08
2.0479601e-08
4.4942189e-08
1.9380653e-08
4.5644029e-08
1.8242073e-08
4.6306972e-08
1.7063953e-08
4.6930002e-08
1.584888e-08
4.751149e-08
1.4597665e-08
4.8050014e-08
1.3312185e-08
4.8544957e-08
1.1992555e-08
4.8996055e-08
1.0641196e-08
4.9401148e-08
9.2605123e-09
4.9760119e-08
7.8508335e-09
5.0071451e-08
6.4149753e-09
5.0335355e-08
4.9538592e-09
5.0550771e-08
3.4688023e-09
5.0716964e-08
1.9618909e-09
5.0834022e-08
4.3546502e-10
5.0900558e-08
-1.1093383e-09
5.0916627e-08
-2.6708834e-09
5.0881628e-08
-4.2470121e-09
5.0795927e-08
-5.8354967e-09
5.0658375e-08
-7.4356499e-09
5.0470017e-08
-9.0450686e-09
5.0229927e-08
-1.0661544e-08
4.9937828e-08
-1.2283377e-08
4.9593903e-08
-1.3908951e-08
4.9199094e-08
-1.5537008e-08
4.8752544e-08
-1.7164623e-08
4.8254567e-08
-1.8790319e-08
4.7705688e-08
-2.0412589e-08
4.7106036e-08
-2.2029583e-08
4.6456113e-08
-2.3639207e-08
4.5756388e-08
-2.5239748e-08
4.50073e-08
-2.6829631e-08
4.420896e-08
-2.8407077e-08
4.336246e-08
-2.9969783e-08
4.2467687e-08
-3.1517105e-08
4.1526406e-08
-3.3046353e-08
4.0537972e-08
-3.4556062e-08
3.9504551e-08
-3.6045092e-08
3.8425813e-08
-3.7510428e-08
3.7302874e-08
-3.8951965e-08
3.6136752e-08
-4.03673e-08
3.4929128e-08
-4.1755675e-08
3.3679358e-08
-4.311445e-08
3.239015e-08
-4.444264e-08
3.1060951e-08
-4.5738196e-08
2.9693671e-08
-4.700034e-08
2.8289461e-08
-4.8228399e-08
2.6849683e-08
-4.9419734e-08
2.5374811e-08
-5.0572326e-08
2.386669e-08
-5.1686365e-08
2.2326587e-08
-5.2759384e-08
2.0754869e-08
-5.379161e-08
1.9153915e-08
-5.478029e-08
1.7524807e-08
-5.5724877e-08
1.5869146e-08
-5.6624674e-08
1.4187529e-08
-5.7477398e-08
1.2482066e-08
-5.8282808e-08
1.0754115e-08
-5.9039891e-08
9.0052185e-09
-5.9747897e-08
7.2373516e-09
-6.0404676e-08
5.4506862e-09
-6.1010532e-08
3.6478461e-09
-6.1563886e-08
1.8304725e-09
-6.2065455e-08
-6.2517002e-08
2.8843477e-08
3.0360478e-08
2.9917892e-08
2.9986481e-08
3.0980646e-08
2.9563308e-08
3.2029445e-08
2.9090077e-08
3.3062481e-08
2.8567993e-08
3.4077962e-08
2.7996728e-08
3.5074308e-08
2.7377251e-08
3.6049577e-08
2.6709735e-08
3.7002369e-08
2.5995157e-08
3.7930476e-08
2.5233673e-08
3.8832461e-08
2.4426443e-08
3.9706824e-08
2.3573773e-08
4.0551506e-08
2.2677154e-08
4.1365923e-08
2.1737252e-08
4.2147969e-08
2.0754705e-08
4.2896367e-08
1.9731017e-08
4.3609759e-08
1.8667407e-08
4.4286543e-08
1.7565233e-08
4.4925919e-08
1.6425087e-08
4.552646e-08
1.5248085e-08
4.6086928e-08
1.4037336e-08
4.6606967e-08
1.2792355e-08
4.708511e-08
1.151452e-08
4.7519425e-08
1.020682e-08
4.7910487e-08
8.8696431e-09
4.8256488e-08
7.5051066e-09
4.8557005e-08
6.1144869e-09
4.8811884e-08
4.6989473e-09
4.9019641e-08
3.2613043e-09
4.9180057e-08
1.8016774e-09
4.9292366e-08
3.2309893e-10
4.9356415e-08
-1.1733221e-09
4.9371489e-08
-2.6863143e-09
4.9337964e-08
-4.2131193e-09
4.9253953e-08
-5.752189e-09
4.9121009e-08
-7.3026356e-09
4.8937933e-08
-8.8621641e-09
4.8705207e-08
-1.0428231e-08
4.8422193e-08
-1.2000181e-08
4.8089418e-08
-1.3576209e-08
4.7706584e-08
-1.5154439e-08
4.7274097e-08
-1.6731999e-08
4.6791859e-08
-1.8308179e-08
4.626009e-08
-1.9880922e-08
4.5679317e-08
-2.1448619e-08
4.5049908e-08
-2.3009477e-08
4.4371891e-08
-2.4561621e-08
4.3645862e-08
-2.6103822e-08
4.2872382e-08
-2.7633577e-08
4.2051936e-08
-2.9149617e-08
4.1185204e-08
-3.0649776e-08
4.0272578e-08
-3.2133559e-08
3.9315257e-08
-3.3598686e-08
3.831338e-08
-3.5043061e-08
3.7267794e-08
-3.6465167e-08
3.6179461e-08
-3.786365e-08
3.5049021e-08
-3.9237017e-08
3.3877981e-08
-4.0584242e-08
3.2666461e-08
-4.1903289e-08
3.1416162e-08
-4.3192118e-08
3.0127881e-08
-4.4449824e-08
2.8802061e-08
-4.5674941e-08
2.7440375e-08
-4.6866493e-08
2.6043683e-08
-4.8023032e-08
2.4613401e-08
-4.9142217e-08
2.3150833e-08
-5.0223583e-08
2.1657023e-08
-5.126564e-08
2.0133178e-08
-5.2267472e-08
1.8580104e-08
-5.322703e-08
1.6999927e-08
-5.4144941e-08
1.5393418e-08
-5.5018345e-08
1.376266e-08
-5.584663e-08
1.2108219e-08
-5.6628973e-08
1.0432823e-08
-5.7364007e-08
8.7360051e-09
-5.8051519e-08
7.020451e-09
-5.8689191e-08
5.2873113e-09
-5.9277568e-08
3.5388795e-09
-5.98151e-08
1.7757983e-09
-6.0302502e-08
-6.0741549e-08
2.8097553e-08
2.9316805e-08
2.9131494e-08
2.8952339e-08
3.0154423e-08
2.854059e-08
3.1164093e-08
2.808058e-08
3.2158744e-08
2.7573093e-08
3.3136795e-08
2.7018845e-08
3.4096062e-08
2.6417679e-08
3.5035557e-08
2.5770385e-08
3.5953179e-08
2.5077477e-08
3.6847491e-08
2.4339523e-08
3.7716374e-08
2.3557254e-08
3.8558864e-08
2.2731299e-08
3.9372998e-08
2.1862743e-08
4.0157704e-08
2.0952299e-08
4.0911521e-08
2.0000882e-08
4.1632985e-08
1.9009691e-08
4.2320365e-08
1.7979698e-08
4.2973069e-08
1.6912385e-08
4.358935e-08
1.5808546e-08
4.4168443e-08
1.4669114e-08
4.4709391e-08
1.3496366e-08
4.5211064e-08
1.2290863e-08
4.5671107e-08
1.1054072e-08
4.6090648e-08
9.7872885e-09
4.6467665e-08
8.4925747e-09
4.6801707e-08
7.1709538e-09
4.7092125e-08
5.8243237e-09
4.7337402e-08
4.4537985e-09
4.7537877e-08
3.0606885e-09
4.7691953e-08
1.6473945e-09
4.7799811e-08
2.1533326e-10
4.7861362e-08
-1.2347959e-09
4.7875415e-08
-2.7002659e-09
4.7842028e-08
-4.1797678e-09
4.7761009e-08
-5.6713666e-09
4.7631807e-08
-7.1732528e-09
4.7454178e-08
-8.6846462e-09
4.7228408e-08
-1.0202792e-08
4.6954173e-08
-1.1725971e-08
4.6631618e-08
-1.3253784e-08
4.6260522e-08
-1.4783068e-08
4.5841366e-08
-1.6312869e-08
4.5374223e-08
-1.7840731e-08
4.4859104e-08
-1.9366108e-08
4.4296368e-08
-2.0886062e-08
4.3686432e-08
-2.2399671e-08
4.3029521e-08
-2.3904838e-08
4.2325973e-08
-2.5400298e-08
4.1576488e-08
-2.6883878e-08
4.0781383e-08
-2.8354647e-08
3.994139e-08
-2.9810144e-08
3.905714e-08
-3.1249322e-08
3.812898e-08
-3.2670403e-08
3.7157862e-08
-3.4072045e-08
3.614439e-08
-3.545137e-08
3.5089333e-08
-3.6808608e-08
3.3993553e-08
-3.8141654e-08
3.2858222e-08
-3.9448794e-08
3.1684035e-08
-4.0728877e-08
3.0471603e-08
-4.1979701e-08
2.9221662e-08
-4.3200145e-08
2.7936792e-08
-4.4389872e-08
2.6616476e-08
-4.5546151e-08
2.5261837e-08
-4.6668313e-08
2.3874863e-08
-4.7755197e-08
2.2456296e-08
-4.8805062e-08
2.100725e-08
-4.9816718e-08
1.952919e-08
-5.0789101e-08
1.8023205e-08
-5.1721371e-08
1.6490797e-08
-5.2612225e-08
1.4932604e-08
-5.346009e-08
1.3350767e-08
-5.4264685e-08
1.1746516e-08
-5.50243e-08
1.0120266e-08
-5.5738016e-08
8.4745105e-09
-5.6405774e-08
6.810283e-09
-5.7025557e-08
5.1297213e-09
-5.7596611e-08
3.4330182e-09
-5.8118598e-08
1.7224998e-09
-5.859205e-08
-5.9018319e-08
2.73731e-08
2.8312326e-08
2.8368594e-08
2.7957021e-08
2.9353117e-08
2.7556001e-08
3.0325084e-08
2.7108679e-08
3.1282902e-08
2.6615433e-08
3.2224744e-08
2.6076732e-08
3.3148976e-08
2.5493406e-08
3.4053688e-08
2.486573e-08
3.4937609e-08
2.4193661e-08
3.5798704e-08
2.3478124e-08
3.6636109e-08
2.2719952e-08
3.7447776e-08
2.1919701e-08
3.8232324e-08
2.1078061e-08
3.8988588e-08
2.0196349e-08
3.9715239e-08
1.9274369e-08
4.0410377e-08
1.8314463e-08
4.1073067e-08
1.7317225e-08
4.1702409e-08
1.6283328e-08
4.229686e-08
1.5213907e-08
4.2854912e-08
1.4110738e-08
4.3376504e-08
1.2975078e-08
4.3859568e-08
1.1807545e-08
4.4304127e-08
1.0609815e-08
4.4708229e-08
9.3833337e-09
4.5071849e-08
8.1288974e-09
4.5393385e-08
6.8493741e-09
4.5672981e-08
5.5445255e-09
4.5909742e-08
4.2169371e-09
4.6102525e-08
2.8678932e-09
4.6251025e-08
1.4988485e-09
4.6355289e-08
1.1127611e-10
4.6413792e-08
-1.2936115e-09
4.642667e-08
-2.7133096e-09
4.639367e-08
-4.1467839e-09
4.6314599e-08
-5.5923362e-09
4.6189143e-08
-7.0480078e-09
4.601697e-08
-8.5123513e-09
4.5798091e-08
-9.9837062e-09
4.5532298e-08
-1.1460289e-08
4.5219334e-08
-1.2941008e-08
4.4859706e-08
-1.4423765e-08
4.4453188e-08
-1.5906504e-08
4.4000727e-08
-1.7388067e-08
4.3501411e-08
-1.8866447e-08
4.2956293e-08
-2.034063e-08
4.236512e-08
-2.1808688e-08
4.1728547e-08
-2.3268248e-08
4.1046524e-08
-2.4718484e-08
4.0320251e-08
-2.6157684e-08
3.9549705e-08
-2.758392e-08
3.8735421e-08
-2.8996034e-08
3.7878571e-08
-3.0392298e-08
3.6978901e-08
-3.1770741e-08
3.6037242e-08
-3.3130508e-08
3.5054833e-08
-3.4469207e-08
3.403208e-08
-3.5785668e-08
3.2970083e-08
-3.7079287e-08
3.1869481e-08
-3.8347868e-08
3.0730483e-08
-3.9590171e-08
2.9554714e-08
-4.0804295e-08
2.8343421e-08
-4.1988792e-08
2.7097143e-08
-4.3143477e-08
2.5816482e-08
-4.4265741e-08
2.4502971e-08
-4.535496e-08
2.3158047e-08
-4.6410059e-08
2.1782099e-08
-4.7429367e-08
2.0376766e-08
-4.841181e-08
1.8943804e-08
-4.9355976e-08
1.7482679e-08
-5.0260336e-08
1.5996182e-08
-5.1125918e-08
1.4485056e-08
-5.1949287e-08
1.2950639e-08
-5.2730374e-08
1.1394311e-08
-5.3467577e-08
9.8172489e-09
-5.4160931e-08
8.2206544e-09
-5.4809314e-08
6.6064418e-09
-5.5411358e-08
4.9761313e-09
-5.5966245e-08
3.3305995e-09
-5.6473031e-08
1.6717239e-09
-5.6933565e-08
-5.7346809e-08
2.6670146e-08
2.7345512e-08
2.7628193e-08
2.6998701e-08
2.8576444e-08
2.6607809e-08
2.9512308e-08
2.6172581e-08
3.0434599e-08
2.5692975e-08
3.1341503e-08
2.5169988e-08
3.2231339e-08
2.4603434e-08
3.310291e-08
2.3994317e-08
3.3954142e-08
2.3342427e-08
3.4784021e-08
2.2648606e-08
3.5590509e-08
2.1913448e-08
3.6372521e-08
2.1137759e-08
3.7128511e-08
2.0322162e-08
3.7857521e-08
1.946735e-08
3.8557574e-08
1.8574477e-08
3.9227296e-08
1.7644489e-08
3.9866188e-08
1.6678476e-08
4.0472556e-08
1.5676755e-08
4.1045459e-08
1.4641182e-08
4.1584022e-08
1.3572459e-08
4.2086393e-08
1.247238e-08
4.2552212e-08
1.1341883e-08
4.298048e-08
1.0181556e-08
4.3369896e-08
8.9935857e-09
4.3720142e-08
7.7786582e-09
4.4030694e-08
6.5386566e-09
4.4300075e-08
5.2752778e-09
4.4527635e-08
3.9891953e-09
4.4713192e-08
2.6823152e-09
4.4856403e-08
1.3560187e-09
4.4956028e-08
1.134262e-11
4.501203e-08
-1.3496218e-09
4.5024016e-08
-2.7251201e-09
4.4991504e-08
-4.1142409e-09
4.4914061e-08
-5.5149415e-09
4.4791948e-08
-6.9257079e-09
4.4624395e-08
-8.3448603e-09
4.4411877e-08
-9.771185e-09
4.4154105e-08
-1.1202518e-08
4.3851069e-08
-1.2637591e-08
4.350239e-08
-1.4075067e-08
4.3108371e-08
-1.5512546e-08
4.2669604e-08
-1.6949438e-08
4.2185982e-08
-1.8382874e-08
4.1657349e-08
-1.9811756e-08
4.1084061e-08
-2.1235154e-08
4.046738e-08
-2.2651334e-08
3.9806621e-08
-2.4058089e-08
3.9102349e-08
-2.5453304e-08
3.8355341e-08
-2.6836933e-08
3.7566503e-08
-2.8206899e-08
3.6735382e-08
-2.9561325e-08
3.5863232e-08
-3.0898561e-08
3.4950672e-08
-3.2217601e-08
3.3998337e-08
-3.3516594e-08
3.300679e-08
-3.4794262e-08
3.1976731e-08
-3.6049626e-08
3.0909565e-08
-3.7280722e-08
2.9805313e-08
-3.8486127e-08
2.8665568e-08
-3.966417e-08
2.7491026e-08
-4.0814225e-08
2.6281979e-08
-4.193464e-08
2.5040562e-08
-4.302404e-08
2.3766832e-08
-4.4081533e-08
2.2462517e-08
-4.5105499e-08
2.112857e-08
-4.6094976e-08
1.9764899e-08
-4.7048744e-08
1.8374839e-08
-4.7965328e-08
1.6958434e-08
-4.8843748e-08
1.5516035e-08
-4.9683847e-08
1.4050441e-08
-5.0483488e-08
1.256179e-08
-5.124189e-08
1.1052327e-08
-5.1958097e-08
9.5225174e-09
-5.2631211e-08
7.9737767e-09
-5.3260782e-08
6.4084877e-09
-5.3845517e-08
4.826563e-09
-5.438457e-08
3.2306332e-09
-5.4877149e-08
1.6210476e-09
-5.5323513e-08
-5.5725946e-08
2.5987977e-08
2.6414848e-08
2.6910598e-08
2.6076071e-08
2.7823455e-08
2.5695096e-08
2.872453e-08
2.5271344e-08
2.9612701e-08
2.4805115e-08
3.048588e-08
2.4296883e-08
3.1342961e-08
2.3746606e-08
3.218216e-08
2.315518e-08
3.3002156e-08
2.2522435e-08
3.3801364e-08
2.1849198e-08
3.4578267e-08
2.1136292e-08
3.5331874e-08
2.0384352e-08
3.6060152e-08
1.9593808e-08
3.6762333e-08
1.8765082e-08
3.7436881e-08
1.7899896e-08
3.808258e-08
1.6998896e-08
3.8698215e-08
1.6062756e-08
3.9282548e-08
1.5092581e-08
3.9834796e-08
1.4088856e-08
4.0353347e-08
1.3053857e-08
4.0837761e-08
1.1988199e-08
4.1286667e-08
1.0892884e-08
4.1699455e-08
9.7689012e-09
4.2075017e-08
8.6177915e-09
4.2412505e-08
7.4416288e-09
4.2710793e-08
6.2404196e-09
4.2970398e-08
5.0157482e-09
4.3189648e-08
3.7698074e-09
4.3368477e-08
2.503787e-09
4.3505774e-08
1.2184831e-09
4.3601471e-08
-8.4343375e-11
4.3654903e-08
-1.4029175e-09
4.3665649e-08
-2.7358053e-09
4.363324e-08
-4.081965e-09
4.3558209e-08
-5.4395998e-09
4.3438561e-08
-6.8064753e-09
4.3276224e-08
-8.1821741e-09
4.3069614e-08
-9.5647354e-09
4.2819409e-08
-1.0952136e-08
4.2525147e-08
-1.2343304e-08
4.2187251e-08
-1.3737059e-08
4.1805423e-08
-1.5130974e-08
4.1380051e-08
-1.6523706e-08
4.0910691e-08
-1.7913826e-08
4.0398159e-08
-1.9299587e-08
3.9842884e-08
-2.0679956e-08
3.924488e-08
-2.2053387e-08
3.8604242e-08
-2.3417396e-08
3.7921591e-08
-2.4770783e-08
3.7197505e-08
-2.6112658e-08
3.6432745e-08
-2.7442039e-08
3.5627111e-08
-2.8755918e-08
3.4781504e-08
-3.0053123e-08
3.3896874e-08
-3.1332539e-08
3.2973649e-08
-3.259318e-08
3.2012341e-08
-3.383299e-08
3.1013565e-08
-3.5051177e-08
2.9979246e-08
-3.6245784e-08
2.8908481e-08
-3.7415579e-08
2.7803101e-08
-3.8558853e-08
2.666363e-08
-3.9674787e-08
2.5491745e-08
-4.0762461e-08
2.4287673e-08
-4.181987e-08
2.3053081e-08
-4.2846534e-08
2.1787819e-08
-4.3840196e-08
2.0493671e-08
-4.4800809e-08
1.9171994e-08
-4.572688e-08
1.7822786e-08
-4.6616649e-08
1.6448716e-08
-4.7470124e-08