/*--------------------------------*- C++ -*----------------------------------*\
| =========                 |                                                 |
| \\      /  F ield         | OpenFOAM: The Open Source CFD Toolbox           |
|  \\    /   O peration     | Version:  2306                                  |
|   \\  /    A nd           | Website:  www.openfoam.com                      |
|    \\/     M anipulation  |                                                 |
\*---------------------------------------------------------------------------*/
FoamFile
{
    version     2.0;
    format      ascii;
    arch        "LSB;label=32;scalar=64";
    class       volVectorField;
    location    "0.05";
    object      U_0;
}
// * * * * * * * * * * * * * * * * * * * * * * * * * * * * * * * * * * * * * //

dimensions      [0 1 -1 0 0 0 0];

internalField   nonuniform List<vector> 
6400
(
(1.3890981e-05 1.6283687e-05 8.0204894e-22)
(1.4295424e-05 1.5896753e-05 4.7549264e-22)
(1.4683502e-05 1.549256e-05 -8.9439761e-22)
(1.5055102e-05 1.5072305e-05 -2.0098263e-22)
(1.5409856e-05 1.4636521e-05 4.2758579e-22)
(1.5747386e-05 1.4185928e-05 -1.5034359e-22)
(1.6067356e-05 1.3721159e-05 -1.5751398e-22)
(1.6369373e-05 1.324334e-05 -4.2436355e-22)
(1.6653256e-05 1.2753397e-05 7.429305e-23)
(1.6918953e-05 1.2251669e-05 1.5459805e-22)
(1.7166223e-05 1.173908e-05 -1.6449779e-22)
(1.7394866e-05 1.1216646e-05 1.6356398e-22)
(1.7604871e-05 1.0685324e-05 -4.741366e-22)
(1.7796226e-05 1.0145459e-05 -2.0052649e-22)
(1.7968845e-05 9.5980172e-06 1.6220299e-22)
(1.812268e-05 9.0437092e-06 -2.3032833e-22)
(1.8257637e-05 8.4832008e-06 -4.6918009e-23)
(1.837368e-05 7.9175046e-06 -2.7861711e-22)
(1.8470971e-05 7.3471731e-06 1.0824787e-22)
(1.8549552e-05 6.7731598e-06 -1.0245109e-22)
(1.8609761e-05 6.1962193e-06 -8.8856644e-23)
(1.8651701e-05 5.6168876e-06 -3.1370689e-23)
(1.8675182e-05 5.0358355e-06 -1.5691298e-22)
(1.8680697e-05 4.453996e-06 -9.0943973e-23)
(1.866856e-05 3.8719098e-06 -1.348208e-22)
(1.8638661e-05 3.2900656e-06 -1.7529585e-22)
(1.8591234e-05 2.7090553e-06 -1.0768196e-22)
(1.8526641e-05 2.1297938e-06 -7.6971711e-24)
(1.8445092e-05 1.5528313e-06 1.6110315e-22)
(1.8346807e-05 9.7860788e-07 -3.3277936e-22)
(1.8232086e-05 4.0787728e-07 -3.0244533e-22)
(1.8101213e-05 -1.5887051e-07 7.7801141e-23)
(1.7954637e-05 -7.2090831e-07 4.9431407e-22)
(1.7792602e-05 -1.2779754e-06 -6.7113273e-23)
(1.7615395e-05 -1.8293696e-06 -4.7336715e-22)
(1.7423466e-05 -2.3747001e-06 -2.3225449e-22)
(1.7217014e-05 -2.9134427e-06 2.0717608e-22)
(1.699647e-05 -3.4451609e-06 3.1894707e-22)
(1.6762177e-05 -3.9695846e-06 -5.6372633e-23)
(1.6514438e-05 -4.4860436e-06 -6.3741747e-22)
(1.625371e-05 -4.9941215e-06 -1.0869138e-22)
(1.5980482e-05 -5.4933361e-06 3.2777552e-22)
(1.5695077e-05 -5.9835538e-06 1.8136304e-22)
(1.5397769e-05 -6.4643407e-06 -7.5479405e-23)
(1.508899e-05 -6.9351993e-06 -3.8133581e-22)
(1.4769172e-05 -7.3958428e-06 -2.896967e-22)
(1.4438776e-05 -7.8461164e-06 1.4178726e-22)
(1.409821e-05 -8.2856306e-06 3.2825897e-22)
(1.3747769e-05 -8.7141187e-06 -7.7786742e-23)
(1.3387792e-05 -9.1312204e-06 -1.4215881e-22)
(1.3018874e-05 -9.5367457e-06 -2.2588422e-22)
(1.2641439e-05 -9.9303375e-06 7.1048026e-24)
(1.2255801e-05 -1.0311826e-05 3.842414e-22)
(1.1862446e-05 -1.0681056e-05 -3.4083005e-23)
(1.1461696e-05 -1.1037845e-05 -3.7595271e-22)
(1.1053982e-05 -1.1381909e-05 -1.694272e-22)
(1.0639722e-05 -1.1713175e-05 7.9136699e-23)
(1.0219345e-05 -1.2031387e-05 3.677196e-22)
(9.7933122e-06 -1.2336396e-05 -1.5119261e-22)
(9.3619285e-06 -1.2628037e-05 -4.1546887e-22)
(8.9256306e-06 -1.2906252e-05 -1.694716e-22)
(8.4848664e-06 -1.3171068e-05 2.2124078e-23)
(8.0400165e-06 -1.3422207e-05 4.1595059e-22)
(7.5913887e-06 -1.3659526e-05 3.8117409e-23)
(7.139426e-06 -1.3883071e-05 -3.4083455e-22)
(6.6846817e-06 -1.4092604e-05 -1.6685529e-22)
(6.2274559e-06 -1.4288171e-05 -6.5214379e-23)
(5.7680345e-06 -1.4469802e-05 3.203301e-22)
(5.3068728e-06 -1.4637468e-05 3.4229631e-23)
(4.8443076e-06 -1.4791166e-05 -3.5037092e-22)
(4.38067e-06 -1.4930732e-05 -1.9074618e-23)
(3.9164652e-06 -1.5056151e-05 -3.682736e-24)
(3.4521113e-06 -1.5167443e-05 2.2969262e-22)
(2.9880081e-06 -1.5264687e-05 -1.1280634e-23)
(2.5244222e-06 -1.5347878e-05 -2.6555005e-22)
(2.0616064e-06 -1.5417118e-05 -2.9340003e-24)
(1.59999e-06 -1.5472401e-05 5.8650111e-23)
(1.1399504e-06 -1.5513761e-05 1.2821453e-22)
(6.8164042e-07 -1.5541529e-05 -1.177834e-22)
(2.2593329e-07 -1.5556694e-05 -1.7956222e-22)
(1.3519114e-05 1.5710058e-05 -5.2018053e-22)
(1.3906629e-05 1.5335897e-05 -9.5557577e-23)
(1.4278383e-05 1.494526e-05 1.4284882e-22)
(1.4634305e-05 1.453914e-05 -7.5546181e-22)
(1.4974174e-05 1.4117895e-05 -1.6674912e-22)
(1.5297657e-05 1.3682425e-05 -1.5085142e-22)
(1.5604289e-05 1.3233641e-05 -3.4701961e-22)
(1.5893712e-05 1.2772239e-05 5.3349284e-22)
(1.6165861e-05 1.2298908e-05 -4.9612978e-22)
(1.642067e-05 1.181437e-05 -6.381477e-23)
(1.6657806e-05 1.1319385e-05 1.0813845e-22)
(1.6876996e-05 1.0814736e-05 9.1235692e-23)
(1.7078317e-05 1.0301225e-05 1.4697152e-22)
(1.7261749e-05 9.7796063e-06 -6.3344264e-22)
(1.7427251e-05 9.2506859e-06 2.9313465e-23)
(1.7574757e-05 8.7152651e-06 -9.8995645e-23)
(1.770414e-05 8.1739637e-06 6.3345404e-23)
(1.7815404e-05 7.6276966e-06 3.8235485e-22)
(1.7908608e-05 7.0768601e-06 -6.0536081e-22)
(1.7983917e-05 6.5222047e-06 -6.9637181e-23)
(1.8041409e-05 5.9644712e-06 2.9985726e-23)
(1.8081248e-05 5.404471e-06 -1.5504623e-22)
(1.8103473e-05 4.8426828e-06 3.7859142e-22)
(1.8108347e-05 4.2798564e-06 -3.6142236e-22)
(1.8096152e-05 3.7167819e-06 2.4330854e-23)
(1.806695e-05 3.1541343e-06 -2.8790422e-23)
(1.8020888e-05 2.5923642e-06 1.1224301e-22)
(1.7958131e-05 2.0320366e-06 2.9718961e-22)
(1.7879e-05 1.4739666e-06 -2.8082505e-22)
(1.7783764e-05 9.1855535e-07 1.5926889e-22)
(1.7672648e-05 3.6644785e-07 4.3519866e-22)
(1.7545991e-05 -1.820346e-07 1.3235737e-22)
(1.7404148e-05 -7.2612297e-07 -6.7309726e-23)
(1.7247337e-05 -1.2653723e-06 -5.1513583e-22)
(1.7075824e-05 -1.79922e-06 2.7159431e-22)
(1.6889995e-05 -2.3272552e-06 3.9000454e-22)
(1.6690242e-05 -2.848996e-06 5.9189048e-23)
(1.6476831e-05 -3.3639663e-06 -1.0830241e-22)
(1.6250139e-05 -3.8717183e-06 -1.88836e-22)
(1.6010416e-05 -4.3718644e-06 8.8039269e-23)
(1.5758003e-05 -4.8640044e-06 1.1079872e-22)
(1.5493446e-05 -5.3478888e-06 2.0877257e-22)
(1.521713e-05 -5.8229645e-06 2.455426e-23)
(1.4929334e-05 -6.2889193e-06 -1.6077996e-22)
(1.4630354e-05 -6.7452542e-06 9.4557732e-23)
(1.4320695e-05 -7.1918349e-06 3.436597e-22)
(1.400077e-05 -7.6284227e-06 4.5579962e-22)
(1.3670922e-05 -8.0544166e-06 -1.1021969e-23)
(1.3331459e-05 -8.4697402e-06 -2.6266341e-22)
(1.2982835e-05 -8.8742266e-06 3.5990789e-22)
(1.2625454e-05 -9.2675377e-06 2.9907548e-22)
(1.2259714e-05 -9.6493454e-06 1.1614587e-22)
(1.1886097e-05 -1.001944e-05 1.3271938e-22)
(1.1504926e-05 -1.0377713e-05 8.5098633e-24)
(1.1116604e-05 -1.0723802e-05 3.9813718e-23)
(1.0721493e-05 -1.1057597e-05 1.697817e-22)
(1.0319941e-05 -1.1379011e-05 1.8715376e-22)
(9.9124303e-06 -1.1687829e-05 2.2299809e-22)
(9.499376e-06 -1.1983853e-05 -3.4201327e-23)
(9.0811569e-06 -1.2267048e-05 5.6701913e-23)
(8.6581937e-06 -1.2537194e-05 1.7649375e-22)
(8.2309002e-06 -1.2794164e-05 6.6062834e-23)
(7.7994923e-06 -1.3037768e-05 1.4384541e-22)
(7.3643725e-06 -1.326812e-05 1.5601326e-22)
(6.9261062e-06 -1.3485094e-05 1.6464526e-22)
(6.4850295e-06 -1.3688727e-05 1.2970193e-22)
(6.0415224e-06 -1.387878e-05 4.5947188e-23)
(5.5959128e-06 -1.4055105e-05 1.0193821e-22)
(5.148562e-06 -1.4217841e-05 2.8769505e-23)
(4.6998928e-06 -1.4366862e-05 1.2523978e-23)
(4.2501949e-06 -1.4502267e-05 1.93798e-22)
(3.7998606e-06 -1.462408e-05 1.7324147e-22)
(3.3493993e-06 -1.4732294e-05 2.1581624e-22)
(2.8990742e-06 -1.4826902e-05 1.3354853e-22)
(2.4492273e-06 -1.4907654e-05 7.7841015e-23)
(2.0002147e-06 -1.4974901e-05 1.0014888e-23)
(1.5524067e-06 -1.5028561e-05 1.5304601e-22)
(1.1061112e-06 -1.506881e-05 1.8102276e-22)
(6.6142847e-07 -1.5095822e-05 1.4336612e-23)
(2.1927252e-07 -1.5110492e-05 -7.6570296e-23)
(1.3159517e-05 1.5157857e-05 4.5626119e-22)
(1.3530563e-05 1.4795938e-05 5.5409185e-22)
(1.3886647e-05 1.4418201e-05 7.0354403e-22)
(1.4227473e-05 1.4025561e-05 9.9325881e-22)
(1.4553055e-05 1.3618611e-05 8.6363382e-22)
(1.486304e-05 1.3197746e-05 2.1076649e-22)
(1.515683e-05 1.2763955e-05 -3.2090651e-24)
(1.5434089e-05 1.2318182e-05 6.427874e-22)
(1.5694934e-05 1.1860939e-05 5.0866068e-22)
(1.5939286e-05 1.1392769e-05 5.9446097e-22)
(1.6166652e-05 1.0914481e-05 5.2616251e-22)
(1.637677e-05 1.0427037e-05 2.3377854e-22)
(1.656974e-05 9.931055e-06 3.3111692e-22)
(1.674555e-05 9.4271238e-06 5.8963002e-22)
(1.690408e-05 8.9159842e-06 8.2365836e-22)
(1.704525e-05 8.3984948e-06 1.7660626e-22)
(1.7169058e-05 7.8754233e-06 -7.2111199e-23)
(1.7275637e-05 7.3474803e-06 3.0775607e-22)
(1.7364951e-05 6.8151095e-06 3.1801194e-22)
(1.7437105e-05 6.2790972e-06 7.0691626e-22)
(1.7492216e-05 5.7400093e-06 -8.0905803e-24)
(1.7530178e-05 5.1986101e-06 -1.6114124e-22)
(1.7551117e-05 4.6555605e-06 7.4626382e-23)
(1.7555336e-05 4.1114781e-06 2.1987141e-22)
(1.7542981e-05 3.5671137e-06 5.9363453e-22)
(1.751418e-05 3.0227991e-06 2.4639502e-23)
(1.7469135e-05 2.4793824e-06 -1.6514673e-22)
(1.7408065e-05 1.9374572e-06 3.9899808e-23)
(1.7331285e-05 1.3976078e-06 1.0581277e-23)
(1.7238917e-05 8.6026262e-07 1.6256676e-22)
(1.7131321e-05 3.258151e-07 -3.5745223e-22)
(1.7008778e-05 -2.0484917e-07 -1.58958e-22)
(1.6871408e-05 -7.3147294e-07 1.3954948e-22)
(1.6719538e-05 -1.2533565e-06 2.202813e-22)
(1.6553493e-05 -1.7702499e-06 2.5350276e-22)
(1.637362e-05 -2.2815554e-06 -2.5084578e-22)
(1.6180185e-05 -2.7866843e-06 -2.5275871e-22)
(1.5973529e-05 -3.2855517e-06 1.305341e-22)
(1.5754055e-05 -3.7773546e-06 7.1430773e-24)
(1.5522001e-05 -4.261791e-06 1.8713578e-22)
(1.5277757e-05 -4.7384909e-06 -1.59535e-22)
(1.5021695e-05 -5.2072286e-06 -2.1244512e-22)
(1.4754147e-05 -5.6676258e-06 2.7091341e-23)
(1.4475431e-05 -6.1192962e-06 1.2777623e-22)
(1.4185879e-05 -6.5615242e-06 1.1573526e-22)
(1.3885955e-05 -6.9943102e-06 -1.7422453e-22)
(1.3576064e-05 -7.4175627e-06 -1.4377293e-22)
(1.3256589e-05 -7.8307166e-06 1.6101686e-23)
(1.292783e-05 -8.2334596e-06 -6.1091212e-23)
(1.2590128e-05 -8.6256677e-06 1.5133917e-22)
(1.2243922e-05 -9.0069251e-06 -5.7497969e-23)
(1.1889624e-05 -9.3771576e-06 -2.8083756e-22)
(1.1527558e-05 -9.7362373e-06 -4.7755955e-23)
(1.1158133e-05 -1.0083917e-05 4.4329847e-23)
(1.0781768e-05 -1.0419602e-05 7.6516757e-23)
(1.0398807e-05 -1.0743386e-05 -9.0150603e-23)
(1.0009664e-05 -1.1055106e-05 -2.2600984e-22)
(9.6146914e-06 -1.1354797e-05 -6.0107768e-23)
(9.2142599e-06 -1.1642099e-05 -4.6685891e-23)
(8.8087718e-06 -1.1916999e-05 4.5167123e-23)
(8.3986642e-06 -1.2179198e-05 -3.8841481e-23)
(7.9842255e-06 -1.2428563e-05 -3.7007885e-22)
(7.565869e-06 -1.2665027e-05 -2.4920182e-23)
(7.1440373e-06 -1.2888707e-05 -1.1467041e-23)
(6.7190043e-06 -1.3099271e-05 6.0810147e-23)
(6.2912317e-06 -1.3296907e-05 1.4391998e-24)
(5.8610264e-06 -1.3481407e-05 -3.0502743e-22)
(5.4287238e-06 -1.3652732e-05 -4.3952147e-23)
(4.9947522e-06 -1.3810832e-05 -7.9442263e-23)
(4.5594987e-06 -1.3955537e-05 1.6371867e-23)
(4.1233135e-06 -1.408694e-05 5.2329661e-23)
(3.6865689e-06 -1.4205182e-05 -9.0406538e-23)
(3.2496539e-06 -1.4310316e-05 -5.6342807e-23)
(2.8128269e-06 -1.4402224e-05 -5.2691912e-23)
(2.3763416e-06 -1.448068e-05 1.4155361e-23)
(1.9406336e-06 -1.4545896e-05 -3.6986216e-23)
(1.5061332e-06 -1.4597955e-05 -1.4976814e-22)
(1.0731512e-06 -1.4637025e-05 -5.3910283e-23)
(6.4179294e-07 -1.466331e-05 -1.1574302e-22)
(2.128366e-07 -1.4677469e-05 -8.8239239e-23)
(1.2811571e-05 1.4626551e-05 -7.2717349e-22)
(1.3166869e-05 1.4276356e-05 3.1866999e-23)
(1.3507674e-05 1.3911178e-05 2.8335843e-22)
(1.3834116e-05 1.3531299e-05 -1.0785593e-21)
(1.4146057e-05 1.3137669e-05 -1.2132981e-21)
(1.4442918e-05 1.2730924e-05 -7.9484434e-22)
(1.472433e-05 1.2311832e-05 6.3134529e-23)
(1.499006e-05 1.1880924e-05 1.026069e-22)
(1.5240017e-05 1.1438762e-05 -8.8559569e-22)
(1.5474094e-05 1.0986241e-05 -8.6961856e-22)
(1.5691947e-05 1.0524309e-05 -2.6582145e-22)
(1.589332e-05 1.0053311e-05 1.5460678e-22)
(1.6078233e-05 9.5740214e-06 -8.4037156e-23)
(1.6246747e-05 9.0871045e-06 -5.4055517e-22)
(1.6398663e-05 8.5932274e-06 -5.1114428e-22)
(1.6533816e-05 8.0932666e-06 -2.8370677e-22)
(1.6652279e-05 7.5876233e-06 1.3610765e-22)
(1.6754245e-05 7.077102e-06 -6.8382534e-23)
(1.6839684e-05 6.5623738e-06 -5.4236293e-22)
(1.6908474e-05 6.0440889e-06 -2.904349e-22)
(1.6960836e-05 5.5230013e-06 -1.8387312e-22)
(1.6996852e-05 4.9997731e-06 2.655789e-22)
(1.7016574e-05 4.4747607e-06 -1.8820233e-22)
(1.7020132e-05 3.9486081e-06 -4.6886766e-22)
(1.7007639e-05 3.4222881e-06 -1.2736772e-22)
(1.6979373e-05 2.8959443e-06 1.5088797e-23)
(1.6935516e-05 2.3704076e-06 2.5638611e-22)
(1.6876119e-05 1.8461231e-06 -1.3863096e-23)
(1.6801414e-05 1.3236538e-06 -4.2625871e-22)
(1.6711822e-05 8.0363913e-07 -3.8558334e-23)
(1.6607548e-05 2.8651219e-07 3.9020897e-22)
(1.6488704e-05 -2.2716002e-07 5.2578788e-22)
(1.6355604e-05 -7.3685142e-07 -4.9953975e-22)
(1.6208479e-05 -1.2420057e-06 -3.9111136e-22)
(1.6047713e-05 -1.74236e-06 2.5469005e-22)
(1.587358e-05 -2.2373907e-06 3.4835689e-22)
(1.5686302e-05 -2.7265373e-06 1.0412832e-22)
(1.5486171e-05 -3.2095768e-06 -2.8346895e-22)
(1.5273522e-05 -3.6859718e-06 -2.7230582e-22)
(1.5048848e-05 -4.1553573e-06 2.1236156e-22)
(1.4812384e-05 -4.6173339e-06 3.8364176e-22)
(1.4564416e-05 -5.0714606e-06 1.6581102e-22)
(1.4305336e-05 -5.5173773e-06 -2.6082904e-22)
(1.403544e-05 -5.9548909e-06 -1.8270987e-22)
(1.3755111e-05 -6.3835849e-06 2.3982573e-22)
(1.3464634e-05 -6.803251e-06 3.1197628e-22)
(1.3164386e-05 -7.2135287e-06 1.6240246e-22)
(1.2854869e-05 -7.6140254e-06 -2.0876427e-22)
(1.2536413e-05 -8.0044018e-06 -1.8079059e-22)
(1.2209265e-05 -8.3847957e-06 1.486818e-22)
(1.1873809e-05 -8.7546215e-06 2.7744648e-22)
(1.1530473e-05 -9.1137278e-06 1.3532082e-22)
(1.1179681e-05 -9.4618219e-06 -2.7750804e-22)
(1.0821712e-05 -9.7989172e-06 -9.7561937e-23)
(1.0456904e-05 -1.0124601e-05 3.4963007e-22)
(1.0085693e-05 -1.0438874e-05 3.1820468e-22)
(9.7084654e-06 -1.0741452e-05 1.6291487e-22)
(9.3256335e-06 -1.1032124e-05 -2.0832891e-22)
(8.9375089e-06 -1.1310791e-05 -1.2631851e-22)
(8.5443992e-06 -1.15774e-05 3.4245345e-22)
(8.1467008e-06 -1.1831915e-05 3.9450008e-22)
(7.7448422e-06 -1.2074023e-05 -8.1745038e-23)
(7.3391762e-06 -1.2303582e-05 -2.6255765e-22)
(6.9300873e-06 -1.2520707e-05 -1.7219382e-24)
(6.5179506e-06 -1.2725181e-05 2.8149272e-22)
(6.1030773e-06 -1.2917034e-05 2.5382147e-22)
(5.6857809e-06 -1.3095995e-05 -3.8871625e-23)
(5.266515e-06 -1.3262214e-05 -1.3178589e-22)
(4.8456719e-06 -1.3415687e-05 6.2775904e-23)
(4.4234506e-06 -1.3556364e-05 2.122822e-22)
(4.0002656e-06 -1.368417e-05 2.3582598e-22)
(3.5765965e-06 -1.3799061e-05 8.4100216e-23)
(3.1527132e-06 -1.3901031e-05 -1.5985554e-22)
(2.7289282e-06 -1.3990033e-05 1.1822822e-22)
(2.3054767e-06 -1.4066135e-05 1.9231056e-22)
(1.8828041e-06 -1.4129521e-05 9.1684726e-23)
(1.4612735e-06 -1.4180318e-05 5.1350526e-23)
(1.041147e-06 -1.4218338e-05 -5.1177236e-23)
(6.2253302e-07 -1.4243746e-05 2.5130285e-23)
(2.0628019e-07 -1.4257338e-05 3.9217598e-23)
(1.2474678e-05 1.411552e-05 -1.0778286e-21)
(1.2814891e-05 1.3776534e-05 -1.1162237e-21)
(1.3141133e-05 1.3423091e-05 -6.8846369e-22)
(1.3453777e-05 1.3055577e-05 -3.3409989e-22)
(1.3752543e-05 1.267479e-05 -7.9350969e-22)
(1.4036753e-05 1.2281376e-05 -9.3513088e-22)
(1.4306251e-05 1.1876188e-05 -9.7733375e-22)
(1.4560882e-05 1.1459652e-05 -3.0194852e-22)
(1.4800351e-05 1.1032253e-05 5.9463314e-22)
(1.5024442e-05 1.0594867e-05 -6.8425645e-22)
(1.5233076e-05 1.0148318e-05 -1.0747991e-21)
(1.5425989e-05 9.6930917e-06 -8.5926263e-22)
(1.560319e-05 9.2297755e-06 -4.197504e-22)
(1.576464e-05 8.7590894e-06 2.6137674e-22)
(1.5910073e-05 8.2816895e-06 -4.4114394e-22)
(1.603949e-05 7.7985161e-06 -5.5230038e-22)
(1.6152971e-05 7.3098178e-06 -5.2441923e-22)
(1.6250521e-05 6.8163656e-06 -4.8547715e-22)
(1.6332093e-05 6.3189155e-06 4.3977191e-22)
(1.6397676e-05 5.8178721e-06 -2.693659e-22)
(1.6447313e-05 5.3139975e-06 -4.3090832e-22)
(1.6481287e-05 4.8079459e-06 -3.5699661e-22)
(1.649976e-05 4.300243e-06 -3.3609772e-22)
(1.6502457e-05 3.7914535e-06 4.6252939e-22)
(1.648977e-05 3.2823399e-06 4.5430447e-23)
(1.6462014e-05 2.7731041e-06 -1.5355792e-22)
(1.6419189e-05 2.2647464e-06 -2.1340756e-22)
(1.6361429e-05 1.7576343e-06 -3.3757321e-22)
(1.6288835e-05 1.252214e-06 2.9562062e-22)
(1.6201804e-05 7.4885333e-07 7.7709877e-23)
(1.6100582e-05 2.4851391e-07 -2.0714294e-22)
(1.5985343e-05 -2.486166e-07 -3.9659346e-22)
(1.5856338e-05 -7.4197897e-07 -9.3403778e-23)
(1.5713795e-05 -1.2310552e-06 6.5165947e-22)
(1.5557977e-05 -1.7155517e-06 2.6229669e-22)
(1.5389252e-05 -2.1947963e-06 -6.2931825e-23)
(1.520791e-05 -2.6685031e-06 -2.3614669e-22)
(1.5014107e-05 -3.1362348e-06 -6.3775256e-23)
(1.4808244e-05 -3.5976849e-06 4.795056e-22)
(1.4590668e-05 -4.0523382e-06 3.8320716e-22)
(1.4361611e-05 -4.4998488e-06 1.672616e-22)
(1.4121412e-05 -4.9399149e-06 -3.6842963e-22)
(1.3870431e-05 -5.3720748e-06 -1.6937014e-22)
(1.3609044e-05 -5.7960531e-06 5.2321263e-22)
(1.3337542e-05 -6.211474e-06 4.0755683e-22)
(1.3056222e-05 -6.6182309e-06 -7.2253666e-23)
(1.2765391e-05 -7.0158927e-06 -1.7565602e-22)
(1.2465508e-05 -7.404177e-06 1.454694e-22)
(1.2157011e-05 -7.7826592e-06 3.5453934e-22)
(1.1840021e-05 -8.1513966e-06 3.9898902e-22)
(1.1514902e-05 -8.5100185e-06 1.0682752e-22)
(1.1182178e-05 -8.8582749e-06 -1.0330076e-22)
(1.0842221e-05 -9.1959909e-06 2.5513911e-23)
(1.0495307e-05 -9.5229626e-06 2.8411322e-22)
(1.0141784e-05 -9.8389127e-06 4.561995e-22)
(9.7820011e-06 -1.0143649e-05 2.191213e-22)
(9.4162939e-06 -1.0437214e-05 -2.2957061e-23)
(9.0450922e-06 -1.0719292e-05 2.6195177e-23)
(8.6688415e-06 -1.098976e-05 1.9588003e-22)
(8.2878264e-06 -1.1248441e-05 3.9180864e-22)
(7.9022329e-06 -1.1495351e-05 3.7493656e-22)
(7.5125338e-06 -1.173032e-05 6.1475918e-23)
(7.1191681e-06 -1.195307e-05 -1.0945286e-23)
(6.7225024e-06 -1.2163789e-05 1.0293919e-22)
(6.3228364e-06 -1.2362307e-05 2.9418689e-22)
(5.9204296e-06 -1.254848e-05 2.6927708e-22)
(5.5157095e-06 -1.2722267e-05 2.7439968e-23)
(5.1090935e-06 -1.2883665e-05 8.7674365e-23)
(4.7008864e-06 -1.3032648e-05 2.2111462e-22)
(4.2913762e-06 -1.3169093e-05 2.6091524e-22)
(3.8808986e-06 -1.329308e-05 2.2513078e-22)
(3.4698524e-06 -1.3404696e-05 4.7081465e-23)
(3.0586315e-06 -1.3503742e-05 -6.5909598e-23)
(2.6474015e-06 -1.3590279e-05 1.2671416e-22)
(2.2366127e-06 -1.3664146e-05 3.5614729e-22)
(1.8267073e-06 -1.372568e-05 2.6933003e-22)
(1.417805e-06 -1.3774916e-05 4.6771411e-23)
(1.010222e-06 -1.3811888e-05 -8.8192944e-25)
(6.0396195e-07 -1.3836564e-05 -2.9016181e-23)
(2.0007282e-07 -1.3849824e-05 2.2060836e-23)
(1.2148656e-05 1.3623541e-05 -4.7338753e-22)
(1.247408e-05 1.3295309e-05 -8.6781691e-23)
(1.278649e-05 1.2953127e-05 1.3131005e-23)
(1.3085771e-05 1.2597516e-05 4.9583797e-23)
(1.3371843e-05 1.2229173e-05 2.0130419e-22)
(1.3643891e-05 1.1848583e-05 -4.564837e-24)
(1.3901938e-05 1.1456622e-05 3.8340048e-24)
(1.4145869e-05 1.105376e-05 4.3041025e-22)
(1.4375275e-05 1.0640591e-05 2.235406e-22)
(1.4589886e-05 1.02178e-05 -8.3924683e-24)
(1.4789611e-05 9.7859655e-06 6.1589461e-23)
(1.4974413e-05 9.3458881e-06 -4.8749033e-23)
(1.5144117e-05 8.8979102e-06 4.5700318e-24)
(1.5298591e-05 8.4428746e-06 7.0435177e-25)
(1.5437732e-05 7.9814169e-06 6.0773797e-23)
(1.5561559e-05 7.5142149e-06 9.9866161e-24)
(1.5670089e-05 7.0417269e-06 -1.1346837e-22)
(1.5763275e-05 6.5646994e-06 1.1705388e-22)
(1.5841098e-05 6.0837918e-06 1.7893729e-22)
(1.5903587e-05 5.5993619e-06 -1.7720287e-22)
(1.5950829e-05 5.1121892e-06 1.5583602e-22)
(1.5982969e-05 4.6227525e-06 -9.5227303e-23)
(1.5999964e-05 4.1317238e-06 8.3875185e-23)
(1.6001944e-05 3.6396667e-06 -5.9356881e-25)
(1.5989147e-05 3.1471677e-06 -5.5535721e-23)
(1.5961669e-05 2.654481e-06 1.6617601e-22)
(1.5919705e-05 2.1626802e-06 -2.3173801e-22)
(1.5863313e-05 1.6720421e-06 -4.0305993e-23)
(1.5792719e-05 1.1830382e-06 1.7133365e-22)
(1.5708208e-05 6.9594356e-07 -7.0825604e-23)
(1.5609932e-05 2.1167435e-07 1.8392072e-22)
(1.549808e-05 -2.6939626e-07 -2.3312925e-22)
(1.5372924e-05 -7.4698051e-07 2.0296227e-22)
(1.523478e-05 -1.2204724e-06 -4.8423874e-23)
(1.5083849e-05 -1.6895762e-06 -2.6153482e-22)
(1.4920368e-05 -2.1536278e-06 2.074989e-22)
(1.4744617e-05 -2.6123961e-06 1.0839064e-24)
(1.4556944e-05 -3.0654327e-06 -3.1348341e-23)
(1.4357552e-05 -3.5123556e-06 -1.632275e-22)
(1.4146755e-05 -3.9527572e-06 -3.0608883e-22)
(1.3924913e-05 -4.3862267e-06 2.637015e-22)
(1.3692261e-05 -4.8125753e-06 -6.3585859e-23)
(1.3449132e-05 -5.2313743e-06 -1.7142468e-22)
(1.3195864e-05 -5.6422818e-06 -1.3869203e-22)
(1.2932767e-05 -6.0448767e-06 -1.7222854e-22)
(1.2660214e-05 -6.439077e-06 -2.2083343e-23)
(1.2378536e-05 -6.8245272e-06 -3.0359362e-22)
(1.208799e-05 -7.2008967e-06 -3.971941e-23)
(1.1789015e-05 -7.5679348e-06 -9.522089e-23)
(1.1481917e-05 -7.9253636e-06 -6.6324043e-23)
(1.1166933e-05 -8.2731534e-06 2.1311031e-23)
(1.0844505e-05 -8.6108865e-06 -3.0489037e-22)
(1.0515028e-05 -8.938409e-06 -1.4231216e-23)
(1.0178774e-05 -9.2555472e-06 -5.1462374e-23)
(9.8360974e-06 -9.5620288e-06 -1.726835e-22)
(9.4873521e-06 -9.8576062e-06 8.1851611e-23)
(9.132879e-06 -1.0142318e-05 -1.8131864e-22)
(8.7730443e-06 -1.0416015e-05 -1.0074214e-22)
(8.408188e-06 -1.0678433e-05 -2.149961e-22)
(8.038731e-06 -1.0929538e-05 -2.6009468e-22)
(7.6649193e-06 -1.1169067e-05 3.3243192e-23)
(7.2870584e-06 -1.1397051e-05 -2.1636575e-22)
(6.9056223e-06 -1.1613244e-05 8.5914045e-24)
(6.520995e-06 -1.1817808e-05 -7.7822877e-23)
(6.1334196e-06 -1.2010416e-05 -2.5593297e-22)
(5.7431701e-06 -1.2191069e-05 -1.2437341e-23)
(5.350624e-06 -1.2359764e-05 -3.1107777e-22)
(4.9562339e-06 -1.2516532e-05 -3.8122076e-23)
(4.5602482e-06 -1.2661141e-05 -9.5338566e-23)
(4.1630158e-06 -1.2793589e-05 -2.332184e-22)
(3.7649192e-06 -1.2913892e-05 5.4802677e-23)
(3.3662388e-06 -1.3022225e-05 -2.1845965e-22)
(2.9672954e-06 -1.3118344e-05 -1.9426742e-22)
(2.5683035e-06 -1.3202395e-05 -1.3742244e-22)
(2.1698193e-06 -1.3274237e-05 -1.6416527e-22)
(1.7721323e-06 -1.3333964e-05 2.4342832e-23)
(1.3755029e-06 -1.3381719e-05 -1.3853418e-22)
(9.8008777e-07 -1.3417545e-05 -1.3517836e-22)
(5.8592849e-07 -1.3441489e-05 -1.2460337e-22)
(1.9417455e-07 -1.3454421e-05 -9.4194867e-23)
(1.1832573e-05 1.3150112e-05 8.0372078e-22)
(1.214392e-05 1.2832207e-05 -4.1917603e-22)
(1.2443032e-05 1.250093e-05 -2.663779e-22)
(1.2729522e-05 1.2156583e-05 -1.7739528e-22)
(1.3003373e-05 1.1800002e-05 -3.6861947e-22)
(1.3263901e-05 1.1431822e-05 3.842872e-22)
(1.3510968e-05 1.1052627e-05 -7.2128973e-22)
(1.3744502e-05 1.0662864e-05 2.4097191e-23)
(1.3964187e-05 1.0263262e-05 -5.8589541e-23)
(1.4169676e-05 9.8543145e-06 -8.719228e-23)
(1.43609e-05 9.4367364e-06 4.5441566e-22)
(1.453786e-05 9.0111353e-06 -4.2863288e-22)
(1.4700359e-05 8.578023e-06 -1.0172412e-22)
(1.4848112e-05 8.1381246e-06 -3.3193317e-23)
(1.4981141e-05 7.6919986e-06 -1.7900725e-23)
(1.5099534e-05 7.2402133e-06 2.6470097e-22)
(1.5203238e-05 6.7832366e-06 -4.1198476e-22)
(1.5292147e-05 6.3219428e-06 4.7341674e-24)
(1.5366322e-05 5.8568584e-06 -9.8055313e-23)
(1.5425875e-05 5.3883987e-06 -1.4254549e-22)
(1.5470708e-05 4.9172672e-06 3.1605036e-22)
(1.5500896e-05 4.4439247e-06 -3.8778885e-22)
(1.5516501e-05 3.9689741e-06 1.0108424e-22)
(1.5517752e-05 3.4930431e-06 1.0128355e-22)
(1.5504795e-05 3.016584e-06 -5.2141926e-23)
(1.547764e-05 2.5400386e-06 7.1854827e-23)
(1.5436411e-05 2.0641958e-06 -2.8491953e-22)
(1.5381324e-05 1.5894458e-06 4.0224932e-23)
(1.5312674e-05 1.1162039e-06 2.5412862e-22)
(1.5230521e-05 6.4489858e-07 1.4317817e-22)
(1.5134981e-05 1.7617702e-07 3.133892e-22)
(1.5026382e-05 -2.8956604e-07 -2.6000129e-22)
(1.4905006e-05 -7.5189797e-07 -6.9940514e-23)
(1.4771095e-05 -1.2102653e-06 -2.9403851e-23)
(1.4624793e-05 -1.6644519e-06 1.7232225e-22)
(1.4466297e-05 -2.1138431e-06 2.2114187e-22)
(1.4296032e-05 -2.5581182e-06 -2.5731797e-22)
(1.4114176e-05 -2.9968959e-06 -7.3667221e-23)
(1.3920948e-05 -3.4297732e-06 1.7862049e-22)
(1.3716673e-05 -3.8563776e-06 9.7406809e-23)
(1.3501702e-05 -4.2763233e-06 6.2785448e-23)
(1.3276405e-05 -4.6893638e-06 -5.3292973e-23)
(1.3040926e-05 -5.0951445e-06 2.09918e-23)
(1.2795475e-05 -5.4932947e-06 1.271382e-22)
(1.2540574e-05 -5.8835258e-06 1.3464761e-22)
(1.2276544e-05 -6.2656112e-06 1.9456008e-22)
(1.2003578e-05 -6.639143e-06 4.5381283e-23)
(1.1722043e-05 -7.0040184e-06 5.1869907e-24)
(1.1432296e-05 -7.3599503e-06 9.8899941e-23)
(1.1134664e-05 -7.7064971e-06 2.9043588e-22)
(1.0829511e-05 -8.0437034e-06 4.1104016e-23)
(1.051708e-05 -8.3711995e-06 -1.4868477e-22)
(1.0197678e-05 -8.6887836e-06 1.4087754e-22)
(9.8717895e-06 -8.9963482e-06 2.2727935e-22)
(9.5396289e-06 -9.2935657e-06 1.5419846e-22)
(9.2015538e-06 -9.5803762e-06 2.2752312e-24)
(8.8579064e-06 -9.8565514e-06 4.0341858e-23)
(8.5090434e-06 -1.0122028e-05 2.2691478e-22)
(8.1553948e-06 -1.0376668e-05 1.4334262e-22)
(7.797155e-06 -1.0620277e-05 5.6226093e-23)
(7.4346773e-06 -1.0852701e-05 4.1012679e-23)
(7.068283e-06 -1.1073844e-05 -1.0614244e-22)
(6.6984257e-06 -1.1283756e-05 1.5480818e-22)
(6.3254514e-06 -1.1482302e-05 2.64181e-22)
(5.9495025e-06 -1.1669163e-05 1.8847709e-22)
(5.5710319e-06 -1.1844532e-05 -3.3088828e-24)
(5.1903985e-06 -1.2008241e-05 -4.194506e-23)
(4.807854e-06 -1.21604e-05 1.7818794e-22)
(4.4237479e-06 -1.2300784e-05 1.65605e-22)
(4.0384543e-06 -1.242939e-05 1.0345314e-22)
(3.6523184e-06 -1.2546173e-05 1.1638276e-23)
(3.2656235e-06 -1.2651317e-05 8.9407206e-23)
(2.878575e-06 -1.2744607e-05 2.1891542e-22)
(2.4915492e-06 -1.2826147e-05 2.0047015e-22)
(2.104985e-06 -1.2895956e-05 9.808377e-23)
(1.7191844e-06 -1.2953936e-05 -8.9755909e-23)
(1.3344289e-06 -1.300033e-05 8.3377298e-23)
(9.5076297e-07 -1.3035055e-05 1.5308067e-22)
(5.6839118e-07 -1.3058355e-05 -4.5900529e-24)
(1.8839315e-07 -1.3070932e-05 -7.9557793e-23)
(1.1525942e-05 1.2694744e-05 5.1170507e-22)
(1.1824103e-05 1.2386615e-05 1.161827e-21)
(1.2110315e-05 1.2065731e-05 -4.5309502e-22)
(1.2384666e-05 1.1732155e-05 5.710747e-22)
(1.2646693e-05 1.1386804e-05 1.3477216e-22)
(1.2896179e-05 1.103034e-05 5.0356728e-22)
(1.3132806e-05 1.0663418e-05 5.1429409e-22)
(1.3356352e-05 1.0286297e-05 -3.4033537e-22)
(1.3566583e-05 9.8997032e-06 4.9585186e-22)
(1.3763252e-05 9.5041358e-06 -1.0289003e-23)
(1.3946306e-05 9.100255e-06 5.2002806e-22)
(1.4115632e-05 8.6885756e-06 7.3716999e-22)
(1.4271041e-05 8.2697164e-06 -3.1138747e-22)
(1.4412353e-05 7.8443114e-06 3.5387937e-22)
(1.453958e-05 7.4128905e-06 -7.8144308e-23)
(1.4652802e-05 6.9759254e-06 2.4651137e-22)
(1.475186e-05 6.5339765e-06 5.0513788e-22)
(1.4836623e-05 6.0878834e-06 -1.198025e-22)
(1.4907185e-05 5.6379661e-06 2.1172058e-22)
(1.4963725e-05 5.1848871e-06 -8.8789553e-23)
(1.5006252e-05 4.7292286e-06 1.8458667e-22)
(1.5034551e-05 4.2714631e-06 4.963517e-22)
(1.5048815e-05 3.8119729e-06 -1.1578797e-22)
(1.5049357e-05 3.3514579e-06 2.3060089e-22)
(1.5036186e-05 2.8905325e-06 -1.9579435e-22)
(1.500933e-05 2.429526e-06 -6.5152007e-24)
(1.4968817e-05 1.9691086e-06 3.2734668e-22)
(1.4914961e-05 1.5097158e-06 4.1977992e-24)
(1.4848068e-05 1.0516689e-06 1.7208624e-22)
(1.4768137e-05 5.9551743e-07 -4.1491251e-22)
(1.4675377e-05 1.4186124e-07 -4.5169002e-22)
(1.4569951e-05 -3.0898581e-07 3.4838563e-22)
(1.4452143e-05 -7.5660784e-07 3.3998668e-22)
(1.4322217e-05 -1.2003982e-06 2.594788e-22)
(1.4180235e-05 -1.6401542e-06 -3.5424758e-22)
(1.4026527e-05 -2.075301e-06 -4.1390253e-22)
(1.3861458e-05 -2.5055746e-06 1.4625085e-22)
(1.3685247e-05 -2.9305031e-06 4.9257236e-22)
(1.3498039e-05 -3.349757e-06 2.8102354e-22)
(1.330004e-05 -3.7630137e-06 -3.9660229e-22)
(1.3091741e-05 -4.1699459e-06 -4.2248764e-22)
(1.2873452e-05 -4.5700839e-06 3.1198947e-22)
(1.2645275e-05 -4.9632286e-06 4.7844637e-22)
(1.240747e-05 -5.3490575e-06 2.0830264e-22)
(1.2160466e-05 -5.7272566e-06 -3.7968387e-22)
(1.1904588e-05 -6.0975756e-06 -2.329418e-22)
(1.1640114e-05 -6.4596167e-06 3.0058901e-22)
(1.1367355e-05 -6.8133827e-06 4.1936295e-22)
(1.108654e-05 -7.1584246e-06 6.5851039e-23)
(1.0798079e-05 -7.4944232e-06 -2.7090347e-22)
(1.0502304e-05 -7.8213303e-06 -2.5328387e-22)
(1.0199484e-05 -8.1388716e-06 2.9050208e-23)
(9.8899112e-06 -8.4468649e-06 3.5394744e-22)
(9.5739795e-06 -8.7451886e-06 1.2298478e-22)
(9.2520189e-06 -9.0333797e-06 -2.6474601e-22)
(8.9242721e-06 -9.3116073e-06 -2.1015046e-22)
(8.5911291e-06 -9.5795068e-06 5.1821091e-23)
(8.2529336e-06 -9.837094e-06 4.3194129e-22)
(7.9100247e-06 -1.008415e-05 9.3428893e-23)
(7.562715e-06 -1.0320453e-05 -2.2195345e-22)
(7.2112566e-06 -1.054594e-05 -1.2682901e-22)
(6.8559627e-06 -1.0760496e-05 -8.4315203e-23)
(6.4973048e-06 -1.0964241e-05 3.6047419e-22)
(6.1356095e-06 -1.1156917e-05 6.4931699e-23)
(5.7710297e-06 -1.1338272e-05 -1.8150351e-22)
(5.4039661e-06 -1.1508449e-05 -5.7322649e-23)
(5.034864e-06 -1.1667327e-05 -3.6327365e-23)
(4.6638608e-06 -1.1814951e-05 3.3751007e-22)
(4.2912816e-06 -1.1951221e-05 3.0618074e-23)
(3.9175362e-06 -1.2076073e-05 -1.6814376e-22)
(3.5429874e-06 -1.2189503e-05 -1.7702374e-23)
(3.1678974e-06 -1.2291515e-05 5.5178539e-23)
(2.7924045e-06 -1.2382065e-05 3.1692287e-22)
(2.4170366e-06 -1.246117e-05 1.1054156e-22)
(2.0420634e-06 -1.252898e-05 -8.0640075e-23)
(1.6678237e-06 -1.2585267e-05 -4.7122831e-23)
(1.2945234e-06 -1.26303e-05 1.5799822e-23)
(9.2232385e-07 -1.2663973e-05 2.2535783e-22)
(5.5139206e-07 -1.2686615e-05 -4.6963485e-23)
(1.8265063e-07 -1.2698815e-05 -1.5290131e-22)
(1.1228777e-05 1.2256427e-05 -4.2540379e-22)
(1.1514168e-05 1.1957534e-05 1.5034418e-21)
(1.17882e-05 1.1646461e-05 3.2876655e-23)
(1.205084e-05 1.1323346e-05 -8.1941774e-22)
(1.2301609e-05 1.0989001e-05 1.4199792e-22)
(1.2540312e-05 1.0643833e-05 1.5006111e-22)
(1.2766714e-05 1.0288577e-05 1.1915412e-21)
(1.2980649e-05 9.9235753e-06 6.7648826e-24)
(1.3181828e-05 9.5494864e-06 -8.5715912e-22)
(1.3370088e-05 9.1667703e-06 -1.652522e-23)