/*--------------------------------*- C++ -*----------------------------------*\
| =========                 |                                                 |
| \\      /  F ield         | OpenFOAM: The Open Source CFD Toolbox           |
|  \\    /   O peration     | Version:  2306                                  |
|   \\  /    A nd           | Website:  www.openfoam.com                      |
|    \\/     M anipulation  |                                                 |
\*---------------------------------------------------------------------------*/
FoamFile
{
    version     2.0;
    format      ascii;
    arch        "LSB;label=32;scalar=64";
    class       volVectorField;
    location    "0.32";
    object      U_0;
}
// * * * * * * * * * * * * * * * * * * * * * * * * * * * * * * * * * * * * * //

dimensions      [0 1 -1 0 0 0 0];

internalField   nonuniform List<vector> 
51200
(
(-5.6778628e-06 -8.5178355e-06 2.7363914e-20)
(-1.9129169e-05 -3.5955582e-06 -2.553135e-21)
(-3.6187611e-05 -2.7101168e-06 -1.4718039e-20)
(-5.3665319e-05 -1.533901e-06 1.2361066e-20)
(-7.2938835e-05 -8.5772147e-07 2.1704594e-20)
(-9.2541678e-05 -5.6584088e-07 -9.2339278e-21)
(-0.00011220388 -3.9305023e-07 -3.1902298e-21)
(-0.00013183809 -2.7635068e-07 1.1003305e-20)
(-0.0001514176 -1.8599077e-07 1.4021519e-20)
(-0.00017093923 -1.0690642e-07 -7.4992384e-21)
(-0.00019040947 -3.2539449e-08 -1.2810198e-20)
(-0.00020983655 3.9151437e-08 3.9777214e-20)
(-0.00022922695 1.0800374e-07 2.149591e-20)
(-0.00024858469 1.726079e-07 -2.7474562e-20)
(-0.00026791259 2.3106151e-07 -1.9544886e-20)
(-0.00028721461 2.8355891e-07 2.0063309e-20)
(-0.00030649054 3.3726884e-07 5.3719628e-20)
(-0.00032573106 3.9991709e-07 -2.5185389e-21)
(-0.00034492263 4.743052e-07 -4.3056124e-20)
(-0.00036405227 5.5915862e-07 -1.1535421e-21)
(-0.00038310788 6.5191927e-07 7.2625928e-21)
(-0.00040207691 7.5017699e-07 1.4464256e-20)
(-0.00042094561 8.520005e-07 7.5128871e-20)
(-0.00043969881 9.5588249e-07 1.2418834e-19)
(-0.00045831996 1.0605932e-06 1.2838159e-19)
(-0.00047679124 1.1651084e-06 -1.2737862e-19)
(-0.00049509372 1.268548e-06 -3.5669801e-19)
(-0.0005132075 1.3701354e-06 -1.0184864e-19)
(-0.00053111188 1.4691965e-06 1.2917362e-19)
(-0.00054878546 1.5651176e-06 2.0628608e-19)
(-0.00056620635 1.6573532e-06 1.6268267e-19)
(-0.00058335226 1.7454003e-06 -6.7327374e-20)
(-0.00060020062 1.8288272e-06 -5.8358253e-20)
(-0.0006167288 1.9072356e-06 -1.762507e-19)
(-0.00063291412 1.9802844e-06 -1.4475615e-19)
(-0.00064873408 2.0476764e-06 2.466366e-19)
(-0.00066416645 2.1091586e-06 -3.45819e-20)
(-0.00067918938 2.1645214e-06 -5.0857671e-19)
(-0.00069378155 2.2136103e-06 1.6411045e-19)
(-0.00070792227 2.2563002e-06 6.9673832e-19)
(-0.00072159158 2.2925195e-06 1.2066564e-19)
(-0.00073477037 2.322225e-06 -3.191577e-19)
(-0.00074744048 2.3454238e-06 -2.7778697e-19)
(-0.00075958477 2.3621535e-06 -1.4562454e-19)
(-0.00077118722 2.3724899e-06 2.3624933e-19)
(-0.00078223298 2.3765408e-06 6.7993029e-19)
(-0.00079270846 2.374441e-06 -1.5698206e-19)
(-0.00080260137 2.3663632e-06 -2.9734593e-19)
(-0.00081190076 2.3524949e-06 -2.2592772e-19)
(-0.00082059709 2.333056e-06 -8.9232091e-19)
(-0.00082868222 2.3082878e-06 4.3304495e-19)
(-0.00083614945 2.2784405e-06 6.8355644e-19)
(-0.00084299355 2.2437926e-06 5.2843827e-20)
(-0.0008492107 2.2046309e-06 2.7410334e-19)
(-0.00085479855 2.1612525e-06 -7.8032036e-19)
(-0.00085975619 2.1139698e-06 -6.1422432e-19)
(-0.0008640841 2.063098e-06 5.9953266e-19)
(-0.00086778414 2.0089466e-06 2.2372013e-19)
(-0.00087085952 1.9518487e-06 -7.2901086e-20)
(-0.00087331476 1.8921153e-06 1.046267e-19)
(-0.00087515562 1.8300776e-06 -4.9028747e-20)
(-0.00087638908 1.7660495e-06 5.7996138e-20)
(-0.00087702326 1.7003426e-06 -4.0780754e-20)
(-0.00087706736 1.6332687e-06 -3.9469083e-19)
(-0.00087653161 1.565118e-06 -5.3862954e-19)
(-0.00087542717 1.4961915e-06 6.3215409e-20)
(-0.00087376613 1.4267646e-06 9.2819363e-19)
(-0.00087156136 1.3571135e-06 4.1624578e-21)
(-0.00086882649 1.2874995e-06 -3.8076615e-19)
(-0.00086557581 1.2181663e-06 5.527364e-19)
(-0.00086182423 1.1493674e-06 -8.2708887e-20)
(-0.00085758722 1.0813212e-06 -3.7554164e-19)
(-0.00085288068 1.0142513e-06 1.366708e-19)
(-0.00084772097 9.4836603e-07 1.8972689e-19)
(-0.00084212477 8.838703e-07 2.1793559e-19)
(-0.00083610902 8.2096614e-07 -4.061283e-19)
(-0.00082969097 7.5989434e-07 -4.0909027e-19)
(-0.00082288818 7.0101366e-07 3.2138146e-19)
(-0.00081571866 6.4488989e-07 4.3161582e-19)
(-0.0008082009 5.924172e-07 -2.1567373e-19)
(-0.00080035338 5.4483107e-07 -7.4223391e-19)
(-0.0007921928 5.0326114e-07 3.1538584e-19)
(-0.00078373002 4.6871115e-07 5.8991035e-19)
(-0.00077496932 4.479938e-07 3.0396988e-21)
(-0.00076591579 4.1638992e-07 1.6218749e-19)
(-0.0007566156 3.393104e-07 -2.4033081e-19)
(-0.00074710478 2.5383777e-07 2.8711331e-20)
(-0.00073738158 1.7009317e-07 1.1464988e-20)
(-0.00072745639 9.0486211e-08 -4.3839651e-19)
(-0.00071734313 1.5452738e-08 1.0169592e-19)
(-0.00070705622 -5.5237305e-08 -2.8804848e-19)
(-0.00069660992 -1.219542e-07 -1.841636e-19)
(-0.00068601812 -1.8502578e-07 4.44502e-19)
(-0.00067529424 -2.4472465e-07 2.4065332e-19)
(-0.00066445125 -3.0126121e-07 -6.3069953e-20)
(-0.00065350165 -3.5481653e-07 -4.4014577e-19)
(-0.00064245743 -4.0553361e-07 5.6213153e-20)
(-0.00063133014 -4.5355266e-07 3.6728562e-19)
(-0.00062013083 -4.9897246e-07 1.9145207e-19)
(-0.00060887009 -5.4191113e-07 -1.3024803e-19)
(-0.00059755802 -5.8246414e-07 -4.9756341e-19)
(-0.00058620427 -6.2073124e-07 1.337765e-19)
(-0.00057481802 -6.5679374e-07 2.4370003e-19)
(-0.000563408 -6.9075025e-07 1.2767624e-19)
(-0.00055198247 -7.2268369e-07 -4.1116637e-20)
(-0.00054054926 -7.5267592e-07 -5.0570581e-19)
(-0.00052911577 -7.8080948e-07 1.1989459e-19)
(-0.00051768898 -8.0716351e-07 3.4310514e-19)
(-0.00050627544 -8.3182025e-07 6.5102903e-20)
(-0.0004948813 -8.5484893e-07 3.8265163e-20)
(-0.00048351233 -8.7632957e-07 -3.6820448e-19)
(-0.0004721739 -8.9633119e-07 -1.6283776e-19)
(-0.00046087103 -9.1493021e-07 2.3875741e-19)
(-0.00044960837 -9.3218894e-07 7.7911887e-20)
(-0.00043839022 -9.4817631e-07 3.4566643e-20)
(-0.00042722056 -9.6295509e-07 -7.0341716e-20)
(-0.00041610304 -9.765908e-07 9.6227423e-21)
(-0.00040504102 -9.891386e-07 1.106111e-19)
(-0.00039403753 -1.0006627e-06 -1.3880781e-20)
(-0.00038309536 -1.011214e-06 9.5219787e-21)
(-0.00037221698 -1.0208451e-06 -8.6429712e-20)
(-0.00036140464 -1.0296092e-06 -1.1553823e-20)
(-0.00035066034 -1.0375506e-06 9.8375484e-20)
(-0.0003399858 -1.0447141e-06 4.5261749e-20)
(-0.00032938258 -1.0511407e-06 -2.2937002e-20)
(-0.00031885198 -1.056865e-06 -1.7648446e-19)
(-0.00030839511 -1.0619269e-06 -2.7272064e-20)
(-0.0002980129 -1.0663523e-06 1.3933894e-19)
(-0.00028770609 -1.0701683e-06 5.49011e-20)
(-0.00027747525 -1.0734088e-06 -4.2214745e-20)
(-0.00026732079 -1.0761042e-06 -8.8530396e-20)
(-0.00025724298 -1.0782949e-06 1.767058e-20)
(-0.00024724194 -1.0800193e-06 6.0049134e-20)
(-0.00023731765 -1.0813124e-06 -2.6242708e-20)
(-0.00022746996 -1.0822021e-06 -8.1753496e-20)
(-0.00021769864 -1.0827293e-06 -1.8529514e-20)
(-0.00020800332 -1.0829118e-06 7.7297993e-20)
(-0.00019838353 -1.0827873e-06 3.6250403e-20)
(-0.00018883871 -1.0823716e-06 5.474502e-21)
(-0.00017936824 -1.0816993e-06 -5.2845012e-21)
(-0.00016997139 -1.0807782e-06 -3.4954376e-20)
(-0.00016064738 -1.0796415e-06 2.783873e-20)
(-0.00015139538 -1.0782979e-06 1.9155931e-20)
(-0.00014221449 -1.0767701e-06 -1.0858256e-20)
(-0.00013310376 -1.0750667e-06 1.0276839e-20)
(-0.00012406224 -1.0731973e-06 -5.54047e-20)
(-0.00011508894 -1.0711734e-06 -1.7537824e-20)
(-0.0001061829 -1.0689893e-06 6.1629245e-20)
(-9.7343188e-05 -1.0666264e-06 2.4046409e-20)
(-8.8568998e-05 -1.0640295e-06 -2.0110075e-20)
(-7.9859783e-05 -1.0610648e-06 -3.8640545e-20)
(-7.1215541e-05 -1.0574038e-06 -6.9691214e-21)
(-6.2637416e-05 -1.0522952e-06 2.8636793e-20)
(-5.4128972e-05 -1.0439885e-06 9.2378655e-21)
(-4.5698592e-05 -1.0287254e-06 -6.0558717e-21)
(-3.7363229e-05 -9.995364e-07 -1.1011351e-20)
(-2.9151768e-05 -9.4878997e-07 -4.5174578e-21)
(-2.1097556e-05 -8.9402447e-07 5.0988125e-21)
(-1.3131831e-05 -1.0345763e-06 1.521907e-21)
(-4.580484e-06 -2.0051905e-06 -3.8032636e-21)
(-3.3955837e-05 5.2377257e-05 4.0728642e-20)
(-8.1958559e-05 6.2331311e-05 -3.7495693e-22)
(-0.00013785 6.6186998e-05 5.4586295e-21)
(-0.0001931364 7.0236657e-05 5.949472e-20)
(-0.00025137532 7.2716938e-05 4.6305968e-20)
(-0.00031010739 7.4007554e-05 -1.9877357e-20)
(-0.0003689453 7.4722277e-05 2.5824333e-20)
(-0.00042772654 7.5127592e-05 3.3206832e-21)
(-0.00048634994 7.5357034e-05 -1.2613653e-20)
(-0.00054474458 7.5481649e-05 3.8493577e-20)
(-0.00060286211 7.5538371e-05 2.9614899e-20)
(-0.00066066548 7.554549e-05 6.7856044e-20)
(-0.00071812189 7.5511547e-05 1.1417295e-19)
(-0.00077519938 7.5439902e-05 1.2478897e-19)
(-0.00083186416 7.5331325e-05 4.9178584e-20)
(-0.0008880775 7.5186761e-05 6.4905544e-20)
(-0.00094379921 7.5010839e-05 1.7704864e-19)
(-0.00099899228 7.4807838e-05 1.4914657e-20)
(-0.0010536203 7.4578247e-05 -1.9689479e-19)
(-0.001107644 7.4319653e-05 -9.4791412e-20)
(-0.0011610213 7.4028798e-05 1.2436915e-20)
(-0.0012137084 7.3702704e-05 2.7682779e-20)
(-0.0012656599 7.3338759e-05 1.4368102e-19)
(-0.0013168298 7.2934585e-05 3.0296843e-19)
(-0.0013671715 7.2488032e-05 1.5528589e-19)
(-0.0014166379 7.1997208e-05 -4.3128911e-19)
(-0.0014651816 7.1460443e-05 -5.0631787e-19)
(-0.0015127551 7.0876289e-05 -1.9940103e-19)
(-0.0015593109 7.0243568e-05 -1.2276821e-19)
(-0.001604802 6.9561331e-05 5.5778518e-19)
(-0.0016491818 6.8828873e-05 6.8743958e-19)
(-0.0016924043 6.8045723e-05 -3.4667305e-19)
(-0.0017344246 6.7211674e-05 -6.8276205e-19)
(-0.001775199 6.6326753e-05 -2.3976851e-19)
(-0.0018146851 6.5391237e-05 4.7272957e-19)
(-0.0018528419 6.4405652e-05 3.7581105e-19)
(-0.0018896306 6.3370759e-05 -5.8541062e-19)
(-0.0019250138 6.2287564e-05 -8.6754471e-19)
(-0.0019589568 6.1157292e-05 6.1084624e-19)
(-0.001991427 5.9981405e-05 8.8465534e-19)
(-0.002022394 5.8761556e-05 -1.0210886e-18)
(-0.0020518305 5.7499608e-05 -3.5960939e-19)
(-0.0020797116 5.6197602e-05 1.5606908e-18)
(-0.0021060153 5.4857755e-05 2.0615394e-18)
(-0.0021307228 5.3482438e-05 -2.02614e-20)
(-0.0021538179 5.2074153e-05 -3.2090507e-18)
(-0.0021752878 5.0635533e-05 -1.8575642e-18)
(-0.0021951226 4.9169316e-05 1.4538738e-18)
(-0.0022133157 4.7678323e-05 1.4552116e-18)
(-0.0022298637 4.6165463e-05 -8.0665544e-19)
(-0.002244766 4.4633685e-05 -1.3340814e-18)
(-0.0022580256 4.3085967e-05 1.4771694e-18)
(-0.0022696481 4.1525326e-05 1.9308654e-18)
(-0.0022796425 3.9954778e-05 -3.0832089e-19)
(-0.0022880205 3.8377315e-05 -1.2348608e-18)
(-0.0022947968 3.6795925e-05 -1.3562256e-18)
(-0.0022999888 3.5213522e-05 -1.7157175e-19)
(-0.0023036166 3.3632982e-05 1.4586222e-18)
(-0.0023057028 3.2057114e-05 5.7447453e-19)
(-0.0023062725 3.0488635e-05 -1.418222e-18)
(-0.0023053529 2.8930183e-05 -5.4088531e-19)
(-0.0023029737 2.7384289e-05 1.5313632e-18)
(-0.0022991662 2.5853373e-05 4.1823575e-19)
(-0.0022939639 2.4339741e-05 -1.8385689e-18)
(-0.0022874016 2.2845559e-05 -1.030623e-18)
(-0.002279516 2.1372901e-05 1.0894873e-18)
(-0.0022703449 1.9923675e-05 1.3345112e-18)
(-0.0022599276 1.8499689e-05 3.3303112e-19)
(-0.0022483042 1.7102593e-05 -7.2422271e-19)
(-0.0022355159 1.5733919e-05 -1.4576224e-18)
(-0.0022216045 1.4395095e-05 1.4390736e-19)
(-0.0022066127 1.3087401e-05 1.0948045e-18)
(-0.0021905835 1.1812022e-05 3.5885326e-20)
(-0.0021735603 1.0570024e-05 2.0287338e-19)
(-0.0021555866 9.3623762e-06 4.7953678e-19)
(-0.0021367062 8.1899587e-06 1.4649458e-19)
(-0.0021169629 7.0536672e-06 -7.4474386e-19)
(-0.0020964001 5.9544898e-06 -9.0901297e-19)
(-0.0020750609 4.8935075e-06 1.3955597e-19)
(-0.0020529881 3.8716951e-06 3.9552654e-19)
(-0.0020302226 2.8890214e-06 4.8203872e-20)
(-0.002006803 1.9420508e-06 2.2031798e-19)
(-0.0019827588 1.0207349e-06 2.6135096e-19)
(-0.0019581477 1.0652014e-07 -6.0727046e-19)
(-0.0019330406 -7.9222444e-07 -7.1821637e-20)
(-0.0019074411 -1.6764084e-06 5.7714687e-19)
(-0.0018813602 -2.5252974e-06 -3.8746391e-19)
(-0.0018548518 -3.3353613e-06 2.410434e-19)
(-0.0018279569 -4.1071697e-06 2.5202771e-19)
(-0.0018007113 -4.8420433e-06 -5.9593245e-19)
(-0.0017731485 -5.5413949e-06 -4.3076679e-19)
(-0.0017453008 -6.2065698e-06 -1.6044989e-19)
(-0.001717199 -6.8387791e-06 4.6287787e-19)
(-0.0016888729 -7.4391744e-06 1.5731739e-19)
(-0.0016603511 -8.0088249e-06 -1.6427877e-19)
(-0.0016316611 -8.5487766e-06 -8.9722843e-21)
(-0.0016028292 -9.0600426e-06 1.2296353e-19)
(-0.0015738804 -9.543629e-06 3.8255511e-19)
(-0.0015448388 -1.0000505e-05 -2.0496e-19)
(-0.0015157272 -1.0431644e-05 -5.645883e-19)
(-0.0014865674 -1.0838012e-05 -6.6162029e-20)
(-0.0014573799 -1.1220554e-05 4.1238295e-19)
(-0.0014281844 -1.1580192e-05 3.8317359e-19)
(-0.0013989992 -1.1917868e-05 -7.0892003e-20)
(-0.0013698419 -1.2234486e-05 -3.9451099e-19)
(-0.0013407287 -1.2530935e-05 -2.9961099e-19)
(-0.001311675 -1.2808097e-05 2.2560742e-19)
(-0.0012826953 -1.3066829e-05 5.9790429e-19)
(-0.0012538031 -1.3307983e-05 6.243965e-20)
(-0.0012250109 -1.3532372e-05 -4.2468465e-19)
(-0.0011963303 -1.3740803e-05 -1.8482508e-19)
(-0.0011677722 -1.3934065e-05 -1.0490224e-19)
(-0.0011393466 -1.4112923e-05 3.5960937e-19)
(-0.0011110626 -1.4278116e-05 4.5938433e-19)
(-0.0010829287 -1.443036e-05 -2.5381104e-19)
(-0.0010549525 -1.4570355e-05 -4.241997e-19)
(-0.001027141 -1.4698781e-05 -8.0243027e-20)
(-0.00099950053 -1.4816284e-05 3.8762669e-19)
(-0.00097203666 -1.4923503e-05 1.3271046e-19)
(-0.00094475445 -1.5021042e-05 -4.6868084e-19)
(-0.00091765831 -1.51095e-05 -1.4743107e-19)
(-0.00089075212 -1.5189433e-05 4.110423e-19)
(-0.0008640392 -1.5261389e-05 3.4125256e-19)
(-0.00083752236 -1.5325892e-05 -2.0272079e-19)
(-0.00081120395 -1.538345e-05 -5.0756105e-19)
(-0.00078508583 -1.5434544e-05 -4.9063746e-20)
(-0.00075916943 -1.5479649e-05 3.5968237e-19)
(-0.00073345581 -1.5519204e-05 2.0310823e-19)
(-0.00070794562 -1.5553643e-05 -7.5118784e-20)
(-0.00068263916 -1.5583383e-05 -2.4132321e-19)
(-0.00065753639 -1.5608798e-05 -9.3004463e-20)
(-0.00063263697 -1.5630251e-05 2.6037551e-19)
(-0.00060794021 -1.5648076e-05 2.532904e-19)
(-0.00058344518 -1.5662599e-05 -8.6120639e-20)
(-0.00055915066 -1.5674115e-05 -3.1641898e-19)
(-0.00053505521 -1.5682923e-05 -5.5531713e-20)
(-0.00051115716 -1.5689281e-05 2.1102829e-19)
(-0.00048745464 -1.5693453e-05 9.2050644e-20)
(-0.00046394557 -1.5695671e-05 -2.4576646e-20)
(-0.00044062774 -1.5696169e-05 -6.0068021e-20)
(-0.00041749874 -1.5695144e-05 -2.7060681e-20)
(-0.00039455606 -1.5692793e-05 1.7922143e-20)
(-0.00037179705 -1.5689289e-05 4.7831285e-20)
(-0.00034921896 -1.5684792e-05 -2.8734874e-20)
(-0.00032681896 -1.5679433e-05 -9.5509414e-20)
(-0.00030459417 -1.567332e-05 -2.1840958e-20)
(-0.00028254165 -1.5666532e-05 7.4826322e-20)
(-0.00026065851 -1.5659082e-05 8.9035701e-20)
(-0.00023894188 -1.5650892e-05 -2.7100143e-20)
(-0.00021738908 -1.5641714e-05 -9.5045483e-20)
(-0.00019599772 -1.5630967e-05 -9.5366975e-21)
(-0.00017476594 -1.5617389e-05 5.6425766e-20)
(-0.0001536928 -1.5598436e-05 3.5129283e-20)
(-0.00013277871 -1.5569186e-05 -1.3785354e-20)
(-0.00011202562 -1.5521089e-05 -2.8763908e-20)
(-9.143539e-05 -1.5442581e-05 -4.0210602e-21)
(-7.1001596e-05 -1.5331054e-05 1.3491592e-20)
(-5.0687928e-05 -1.5240229e-05 9.9153552e-21)
(-3.0408206e-05 -1.5400046e-05 4.5725783e-22)
(-1.0099633e-05 -1.6338255e-05 -1.0291272e-21)
(-5.7668484e-05 0.00019993398 -7.8648376e-20)
(-0.00013298225 0.00021069295 -3.2069923e-20)
(-0.00021869316 0.0002165783 -3.5678955e-20)
(-0.00030199293 0.00022213665 2.0179952e-20)
(-0.00038846182 0.00022571678 5.6717734e-20)
(-0.00047517639 0.00022769063 -5.3057726e-20)
(-0.00056187968 0.00022872793 5.6713906e-21)
(-0.00064845173 0.00022919242 6.6413376e-21)
(-0.00073476961 0.00022929013 7.7767558e-20)
(-0.00082071728 0.00022913888 1.961852e-19)
(-0.0009061985 0.00022880498 1.226938e-19)
(-0.00099113072 0.00022832504 1.3982229e-19)
(-0.0010754391 0.00022771921 2.0081264e-20)
(-0.0011590527 0.00022699857 1.3691019e-19)
(-0.0012419028 0.00022616914 2.1691715e-19)
(-0.0013239214 0.00022523307 6.7955576e-20)
(-0.0014050416 0.00022418753 1.0108521e-19)
(-0.001485198 0.00022302787 -4.0136844e-20)
(-0.0015643251 0.0002217504 -1.4128211e-19)
(-0.0016423561 0.00022035276 2.8934576e-20)
(-0.0017192234 0.00021883318 8.1896719e-20)
(-0.0017948593 0.00021719017 8.1765502e-20)
(-0.0018691961 0.00021542235 1.7484825e-19)
(-0.0019421665 0.00021352833 1.8981282e-19)
(-0.0020137039 0.00021150684 -6.4838668e-20)
(-0.0020837423 0.00020935679 -1.7019113e-19)
(-0.0021522166 0.0002070774 -1.1210655e-19)
(-0.002219063 0.00020466821 -2.2776652e-19)
(-0.0022842187 0.0002021292 -2.7895923e-19)
(-0.0023476229 0.0001994608 1.2856052e-19)
(-0.0024092161 0.00019666391 3.2113718e-19)
(-0.0024689411 0.00019373991 -9.5366005e-20)
(-0.0025267429 0.0001906907 -4.1144426e-19)
(-0.0025825687 0.00018751866 -2.9121931e-19)
(-0.0026363687 0.00018422669 2.8383851e-19)
(-0.0026880958 0.00018081817 3.824807e-19)
(-0.0027377059 0.00017729699 -1.1656452e-19)
(-0.0027851583 0.0001736675 -1.9444523e-19)
(-0.0028304158 0.00016993449 -2.1299317e-20)
(-0.0028734447 0.00016610319 -3.3385642e-19)
(-0.002914215 0.00016217922 -5.032229e-19)
(-0.0029527007 0.00015816856 4.519271e-19)
(-0.0029888799 0.00015407752 1.075765e-18)
(-0.0030227343 0.00014991272 9.3068609e-19)
(-0.0030542502 0.00014568102 -1.503254e-19)
(-0.003083418 0.0001413895 -2.0272385e-18)
(-0.0031102319 0.00013704544 -9.082444e-19)
(-0.0031346909 0.00013265624 6.2196399e-19)
(-0.0031567976 0.00012822942 7.9764241e-19)
(-0.0031765591 0.00012377257 6.9077305e-19)
(-0.0031939865 0.00011929326 -9.2677248e-19)
(-0.0032090949 0.0001147991 -6.0338689e-20)
(-0.0032219032 0.00011029762 1.017382e-18)
(-0.0032324342 0.00010579626 -1.0479668e-19)
(-0.0032407143 0.00010130234 -1.8882186e-19)
(-0.0032467736 9.6823056e-05 -3.8821561e-19)
(-0.0032506453 9.2365377e-05 -3.655881e-19)
(-0.0032523661 8.7936082e-05 5.7997845e-19)
(-0.0032519754 8.3541713e-05 1.6963823e-19)
(-0.0032495158 7.9188546e-05 -8.2976913e-19)
(-0.0032450322 7.4882566e-05 -2.3712655e-19)
(-0.0032385723 7.0629483e-05 6.1719539e-19)
(-0.0032301858 6.6434659e-05 6.7578337e-20)
(-0.0032199246 6.230315e-05 -4.0482806e-19)
(-0.0032078422 5.8239656e-05 2.7639679e-19)
(-0.0031939939 5.4248557e-05 3.7472322e-19)
(-0.0031784366 5.0333854e-05 -1.9484198e-19)
(-0.0031612279 4.6499221e-05 -5.4046942e-20)
(-0.0031424269 4.2747971e-05 -1.1399464e-19)
(-0.0031220933 3.9083088e-05 -6.3993325e-19)
(-0.0031002874 3.5507223e-05 -4.8533901e-20)
(-0.0030770701 3.2022694e-05 3.7521089e-19)
(-0.0030525023 2.8631508e-05 4.9139075e-21)
(-0.0030266452 2.533534e-05 2.7200256e-19)
(-0.0029995598 2.2135556e-05 2.4660949e-19)
(-0.0029713068 1.9033214e-05 2.3984885e-19)
(-0.0029419467 1.6029155e-05 -1.6227121e-19)
(-0.0029115394 1.3124034e-05 -8.4022945e-19)
(-0.0028801444 1.0318341e-05 -2.3118738e-19)
(-0.0028478219 7.6122841e-06 6.1908066e-19)
(-0.0028146336 5.0049591e-06 4.1732998e-19)
(-0.0027806426 2.4924852e-06 -4.7924112e-19)
(-0.0027459097 5.5950983e-08 -3.8580013e-19)
(-0.0027104552 -2.2935786e-06 -2.3146905e-19)
(-0.0026743094 -4.5484057e-06 -1.5339486e-19)
(-0.002637548 -6.6899547e-06 2.7902186e-19)
(-0.0026002346 -8.7355175e-06 -1.3826735e-19)
(-0.0025624182 -1.0690654e-05 1.866154e-19)
(-0.0025241447 -1.2558165e-05 5.2492876e-19)
(-0.0024854586 -1.4340286e-05 -2.3199904e-19)
(-0.0024464034 -1.6039059e-05 -3.4668248e-19)
(-0.0024070211 -1.7656554e-05 -4.6994407e-20)
(-0.0023673521 -1.9194886e-05 1.2979766e-19)
(-0.0023274353 -2.0656251e-05 -1.3372003e-19)
(-0.002287308 -2.2042888e-05 -8.8286658e-21)
(-0.0022470059 -2.3357076e-05 4.2971347e-19)
(-0.0022065632 -2.4601144e-05 -2.2946484e-20)
(-0.0021660124 -2.5777418e-05 -2.1774882e-19)
(-0.0021253844 -2.6888245e-05 -3.0716378e-19)
(-0.0020847087 -2.7935972e-05 -1.2424117e-19)
(-0.0020440132 -2.8922952e-05 3.7441745e-19)
(-0.0020033242 -2.9851504e-05 1.9077136e-19)
(-0.0019626668 -3.0723936e-05 3.8452701e-20)
(-0.0019220644 -3.1542541e-05 -2.5226961e-19)
(-0.0018815392 -3.2309576e-05 -1.3182418e-19)
(-0.0018411118 -3.3027257e-05 3.0935875e-19)
(-0.0018008018 -3.3697771e-05 6.6626422e-20)
(-0.0017606271 -3.4323251e-05 3.0804382e-20)
(-0.0017206048 -3.4905801e-05 -8.8512508e-20)
(-0.0016807504 -3.5447465e-05 -2.8627052e-19)
(-0.0016410784 -3.5950238e-05 8.0078262e-20)
(-0.0016016022 -3.6416077e-05 1.340146e-19)
(-0.0015623342 -3.6846867e-05 1.0577596e-19)
(-0.0015232854 -3.7244454e-05 1.9494317e-19)
(-0.0014844662 -3.761061e-05 -1.3171663e-19)
(-0.0014458858 -3.7947076e-05 -2.9046799e-19)
(-0.0014075526 -3.8255514e-05 -1.1858072e-19)
(-0.001369474 -3.8537548e-05 1.45069e-19)
(-0.0013316567 -3.879473e-05 1.0017475e-19)
(-0.0012941064 -3.9028569e-05 -1.2512699e-19)
(-0.0012568283 -3.9240522e-05 1.9039445e-20)
(-0.0012198265 -3.9431973e-05 1.5346058e-19)
(-0.0011831049 -3.9604272e-05 6.4637633e-20)
(-0.0011466663 -3.9758705e-05 -1.5631443e-19)
(-0.001110513 -3.9896519e-05 -1.9649514e-19)
(-0.001074647 -4.0018899e-05 9.2918266e-20)
(-0.0010390693 -4.0126996e-05 1.7810352e-19)
(-0.0010037807 -4.0221891e-05 7.2194415e-20)
(-0.0009687813 -4.0304648e-05 -8.9283843e-20)
(-0.0009340709 -4.0376254e-05 -9.2066518e-20)
(-0.00089964877 -4.0437651e-05 4.8348335e-20)
(-0.0008655138 -4.0489717e-05 7.8308686e-20)
(-0.00083166449 -4.0533278e-05 8.4080723e-20)
(-0.00079809901 -4.0569135e-05 1.6059281e-20)
(-0.00076481519 -4.0598027e-05 -7.705849e-20)
(-0.00073181057 -4.0620667e-05 -5.327767e-20)
(-0.00069908238 -4.063772e-05 3.3985585e-20)
(-0.00066662763 -4.0649809e-05 4.3211458e-20)
(-0.00063444307 -4.0657534e-05 -2.2591713e-20)
(-0.00060252525 -4.0661433e-05 -2.5369564e-20)
(-0.00057087052 -4.066204e-05 5.6450066e-21)
(-0.00053947506 -4.0659812e-05 -3.5543836e-20)
(-0.00050833489 -4.0655192e-05 1.012042e-20)
(-0.00047744593 -4.064858e-05 7.0009645e-21)
(-0.00044680396 -4.0640312e-05 -3.2037882e-20)
(-0.0004164047 -4.0630675e-05 2.7623645e-20)
(-0.00038624381 -4.0619891e-05 1.7317306e-20)
(-0.00035631694 -4.0608058e-05 -6.9120088e-22)
(-0.00032661975 -4.0595103e-05 -5.6990394e-21)
(-0.000297148 -4.0580687e-05 -1.0720972e-20)
(-0.00026789754 -4.0564001e-05 3.3426868e-20)
(-0.00023886438 -4.0543469e-05 2.7060665e-20)
(-0.00021004464 -4.0516269e-05 1.9016353e-21)
(-0.00018143414 -4.0477926e-05 -2.592821e-20)
(-0.00015302732 -4.0422775e-05 -1.1693894e-20)
(-0.00012481459 -4.0348516e-05 2.3549492e-20)
(-9.6776309e-05 -4.0273782e-05 1.0513891e-20)
(-6.8871746e-05 -4.0284981e-05 6.0490456e-21)
(-4.1052424e-05 -4.0620852e-05 1.0983921e-20)
(-1.3539472e-05 -4.1632662e-05 2.0849668e-20)
(-7.164686e-05 0.00039854041 -3.7357958e-19)
(-0.00016430954 0.00040663316 -1.4853495e-19)
(-0.00026869611 0.00041217111 -5.4700485e-20)
(-0.00036916242 0.00041734907 -1.794487e-19)
(-0.00047278293 0.00042077896 -5.3153631e-20)
(-0.00057630593 0.00042266033 -1.5676712e-19)
(-0.0006796282 0.00042350145 -8.091466e-20)
(-0.00078270701 0.00042362583 -7.6164838e-21)
(-0.00088543657 0.00042323746 1.0183601e-19)
(-0.00098768927 0.00042246148 1.9319322e-19)
(-0.0010893469 0.00042137271 1.2124651e-19)
(-0.0011903015 0.00042001504 1.0321534e-19)
(-0.0012904526 0.00041841379 -2.0283856e-20)
(-0.001389705 0.00041658325 1.0964476e-19)
(-0.0014879668 0.00041453102 1.3633654e-19)
(-0.0015851491 0.00041226033 -3.2370878e-20)
(-0.0016811651 0.00040977156 9.5439881e-20)
(-0.0017759297 0.000407064 2.3910776e-20)
(-0.001869359 0.00040413673 -3.5822453e-20)
(-0.0019613697 0.0004009888 6.5647467e-20)
(-0.002051879 0.00039761906 7.0968896e-20)
(-0.0021408053 0.00039402629 8.5744432e-20)
(-0.0022280676 0.00039020942 9.0012953e-20)
(-0.0023135863 0.00038616762 -3.5852413e-20)
(-0.0023972829 0.00038190051 -5.3731518e-20)
(-0.0024790808 0.00037740815 -5.0487731e-20)
(-0.002558905 0.00037269125 -2.3499118e-19)
(-0.0026366824 0.00036775114 -7.3544589e-20)
(-0.0027123424 0.00036258987 6.2383607e-20)
(-0.0027858167 0.00035721027 -4.1114036e-20)
(-0.0028570396 0.00035161589 -1.4216145e-19)
(-0.0029259485 0.00034581106 -8.4743777e-20)
(-0.0029924836 0.00033980089 1.5307697e-19)
(-0.0030565888 0.00033359126 3.5171766e-20)
(-0.0031182112 0.00032718882 -2.3346205e-19)
(-0.0031773021 0.00032060095 -1.0515118e-19)
(-0.0032338163 0.00031383576 1.8283766e-19)
(-0.0032877129 0.00030690205 2.0058709e-19)
(-0.0033389553 0.00029980927 -8.3873961e-20)
(-0.0033875112 0.00029256748 -2.2199822e-19)
(-0.003433353 0.00028518729 -7.9586118e-20)
(-0.0034764576 0.00027767983 1.5924255e-19)
(-0.0035168066 0.00027005663 2.5876876e-19)
(-0.0035543864 0.00026232967 -8.9468056e-21)
(-0.0035891884 0.00025451121 1.1022305e-20)
(-0.0036212085 0.00024661378 -3.252633e-19)
(-0.0036504476 0.00023865013 -3.5284211e-19)
(-0.0036769114 0.00023063312 7.4492894e-20)
(-0.0037006103 0.0002225757 1.3110958e-19)
(-0.0037215593 0.00021449082 4.3331286e-19)
(-0.003739778 0.00020639137 6.1722875e-20)
(-0.0037552905 0.00019829015 -3.9896962e-19)
(-0.0037681251 0.00019019978 8.9538362e-20)
(-0.0037783144 0.00018213263 1.7871714e-19)
(-0.0037858949 0.00017410082 -4.8414921e-20)
(-0.0037909071 0.00016611614 -1.8321627e-19)
(-0.0037933948 0.00015819 -1.6121131e-19)
(-0.0037934056 0.00015033339 1.7958176e-19)
(-0.0037909901 0.00014255686 4.0270075e-20)
(-0.003786202 0.00013487046 -3.6888449e-19)
(-0.0037790976 0.00012728372 -5.6509337e-20)
(-0.003769736 0.00011980566 2.7769849e-19)
(-0.0037581783 0.00011244468 6.3339117e-20)
(-0.003744488 0.00010520866 -7.9992752e-20)
(-0.00372873 9.8104842e-05 9.9609412e-20)
(-0.0037109712 9.1139893e-05 8.0626382e-20)
(-0.0036912797 8.4319852e-05 -2.5681476e-19)
(-0.0036697245 7.7650178e-05 -1.3146721e-19)
(-0.0036463758 7.113572e-05 -2.7154191e-21)
(-0.0036213044 6.4780737e-05 -4.6563833e-20)
(-0.0035945813 5.858891e-05 2.1500677e-20)
(-0.0035662782 5.2563335e-05 3.213353e-20)
(-0.0035364664 4.6706562e-05 -9.0997475e-20)
(-0.0035052172 4.1020524e-05 -6.7206631e-20)
(-0.0034726017 3.5506629e-05 2.04908e-19)
(-0.0034386903 3.0165709e-05 2.0025584e-19)
(-0.0034035529 2.4998099e-05 -2.6037737e-19)
(-0.0033672583 2.0003669e-05 -4.8046251e-19)
(-0.0033298748 1.5181837e-05 -6.5189796e-20)
(-0.00329147 1.0531707e-05 1.8638106e-19)
(-0.0032521123 6.0516947e-06 -3.0626864e-20)
(-0.0032118807 1.7428482e-06 -2.4164968e-19)
(-0.0031708096 -2.3742233e-06 -4.0909854e-20)
(-0.0031289517 -6.2961894e-06 1.1011719e-19)
(-0.0030863948 -1.0050657e-05 2.955364e-20)
(-0.003043189 -1.3650808e-05 -5.7184197e-20)
(-0.002999387 -1.709952e-05 -2.5298642e-19)
(-0.0029550449 -2.0398436e-05 -8.5177325e-20)
(-0.0029102167 -2.354972e-05 2.0777996e-19)
(-0.0028649541 -2.6556124e-05 2.0154622e-19)
(-0.0028193067 -2.9420805e-05 -4.4079986e-20)
(-0.0027733219 -3.2147209e-05 -2.5100283e-19)
(-0.0027270453 -3.4738982e-05 -1.5879777e-20)
(-0.0026805207 -3.7199889e-05 1.2600419e-19)
(-0.0026337899 -3.9533814e-05 1.2876054e-19)
(-0.0025868927 -4.1744704e-05 9.9216952e-20)
(-0.0025398673 -4.3836568e-05 -1.9348998e-19)
(-0.00249275 -4.5813427e-05 -1.4587336e-19)
(-0.0024455752 -4.7679328e-05 -9.7257484e-21)
(-0.0023983755 -4.9438325e-05 8.4549502e-21)
(-0.002351182 -5.1094453e-05 1.7086167e-19)
(-0.0023040239 -5.2651714e-05 4.9862594e-20)
(-0.0022569286 -5.4114069e-05 -5.3656376e-20)
(-0.0022099222 -5.5485449e-05 -1.0679286e-20)
(-0.0021630289 -5.676972e-05 1.1623442e-19)
(-0.0021162716 -5.797069e-05 1.2123898e-19)
(-0.0020696714 -5.909209e-05 -7.3373664e-20)
(-0.0020232483 -6.0137576e-05 -7.798586e-20)
(-0.0019770207 -6.1110731e-05 -9.6361388e-20)
(-0.0019310055 -6.2015054e-05 -1.3710094e-19)
(-0.0018852185 -6.2853949e-05 1.1488373e-21)
(-0.0018396741 -6.3630733e-05 1.2275439e-19)
(-0.0017943857 -6.4348628e-05 9.4951007e-20)
(-0.0017493652 -6.5010763e-05 3.6319665e-20)
(-0.0017046235 -6.5620163e-05 -5.5794844e-20)
(-0.0016601707 -6.6179771e-05 -9.2036536e-20)
(-0.0016160154 -6.6692413e-05 -9.7618389e-20)
(-0.0015721656 -6.7160839e-05 -6.8732907e-21)
(-0.0015286281 -6.7587686e-05 6.142755e-20)
(-0.001485409 -6.7975502e-05 7.8461837e-20)
(-0.0014425134 -6.8326724e-05 4.0066008e-20)
(-0.0013999456 -6.8643715e-05 -5.6872431e-20)
(-0.0013577093 -6.892873e-05 -3.1287538e-20)
(-0.0013158072 -6.9183936e-05 4.1473627e-20)
(-0.0012742417 -6.9411412e-05 7.7693457e-20)
(-0.0012330141 -6.9613135e-05 4.0039949e-20)
(-0.0011921253 -6.9791013e-05 -2.4578134e-20)
(-0.0011515757 -6.9946844e-05 5.5796775e-22)
(-0.0011113651 -7.0082367e-05 -2.8082085e-20)
(-0.0010714928 -7.0199221e-05 1.8668872e-20)
(-0.0010319574 -7.0298986e-05 7.194519e-20)
(-0.00099275734 -7.0383151e-05 2.1846916e-20)
(-0.00095389057 -7.0453138e-05 2.3920169e-20)
(-0.0009153546 -7.0510296e-05 -1.265834e-21)
(-0.00087714661 -7.0555898e-05 -3.4462857e-20)
(-0.00083926344 -7.0591151e-05 -4.6624283e-20)
(-0.00080170165 -7.0617194e-05 3.2677592e-21)
(-0.00076445748 -7.0635084e-05 7.2757251e-21)
(-0.00072752694 -7.0645845e-05 -2.2859329e-20)
(-0.0006909058 -7.0650399e-05 -1.3265095e-20)
(-0.00065458963 -7.0649636e-05 1.6031502e-20)
(-0.0006185738 -7.0644367e-05 1.0239477e-21)
(-0.0005828535 -7.063534e-05 1.3997952e-20)
(-0.00054742382 -7.062324e-05 6.403096e-21)
(-0.00051227969 -7.0608661e-05 -4.8798906e-21)
(-0.00047741596 -7.0592122e-05 1.8149822e-20)
(-0.00044282739 -7.0574056e-05 -1.9340326e-20)
(-0.00040850866 -7.0554723e-05 -4.4423512e-21)
(-0.00037445443 -7.0534201e-05 3.0573035e-20)
(-0.0003406593 -7.0512277e-05 3.4582006e-20)
(-0.00030711777 -7.0488295e-05 2.483858e-20)
(-0.00027382417 -7.0460973e-05 5.8730544e-21)
(-0.00024077228 -7.0428185e-05 7.1418593e-21)
(-0.00020795463 -7.0387075e-05 -2.615606e-20)
(-0.00017536134 -7.0335337e-05 -4.5754966e-21)
(-0.00014297882 -7.0276218e-05 2.4560964e-20)
(-0.00011078816 -7.0232806e-05 8.1291577e-21)
(-7.8761581e-05 -7.0277535e-05 1.6266079e-20)
(-4.6884702e-05 -7.0572686e-05 2.0076425e-20)
(-1.5442247e-05 -7.1283738e-05 3.0872586e-20)
(-7.8474331e-05 0.00062583237 -6.3817492e-19)
(-0.00018018624 0.00063097446 -4.7730005e-19)
(-0.00029466586 0.00063521078 -2.0112928e-19)
(-0.00040442169 0.00063918479 -3.3445612e-20)