/*--------------------------------*- C++ -*----------------------------------*\
| =========                 |                                                 |
| \\      /  F ield         | OpenFOAM: The Open Source CFD Toolbox           |
|  \\    /   O peration     | Version:  2106                                  |
|   \\  /    A nd           | Website:  www.openfoam.com                      |
|    \\/     M anipulation  |                                                 |
\*---------------------------------------------------------------------------*/
FoamFile
{
    version     2.0;
    format      ascii;
    arch        "LSB;label=32;scalar=64";
    class       surfaceScalarField;
    location    "0.05";
    object      phi;
}
// * * * * * * * * * * * * * * * * * * * * * * * * * * * * * * * * * * * * * //

dimensions      [0 3 -1 0 0 0 0];

oriented        oriented;

internalField   nonuniform List<scalar> 
8064
(
-2.8909357e-05
2.8909365e-05
-5.7539305e-05
2.8629948e-05
-8.5613152e-05
2.8073847e-05
-0.00011285965
2.7246493e-05
-0.00013901561
2.6155964e-05
-0.00016382851
2.4812905e-05
-0.00018705893
2.3230413e-05
-0.00020848284
2.1423912e-05
-0.00022789383
1.9410995e-05
-0.00024510508
1.7211244e-05
-0.00025995112
1.4846037e-05
-0.00027228945
1.2338334e-05
-0.0002820019
9.7124484e-06
-0.0002889957
6.9938029e-06
-0.00029320437
4.2086639e-06
-0.00029458836
1.3839939e-06
-0.00029313535
-1.4530129e-06
-0.0002888603
-4.2750432e-06
-0.00028180535
-7.054954e-06
-0.0002720393
-9.7660471e-06
-0.00025965698
-1.2382323e-05
-0.00024477825
-1.4878726e-05
-0.00022754688
-1.7231376e-05
-0.00020812908
-1.9417797e-05
-0.00018671196
-2.1417121e-05
-0.00016350167
-2.321029e-05
-0.00013872144
-2.4780223e-05
-0.00011260946
-2.611198e-05
-8.541657e-05
-2.7192895e-05
-5.7403875e-05
-2.8012695e-05
-2.8840283e-05
-2.8563592e-05
7.1314387e-11
-2.8840354e-05
2.8840424e-05
-2.8840353e-05
5.7404014e-05
-2.856359e-05
8.5416706e-05
-2.8012692e-05
0.0001126096
-2.7192891e-05
0.00013872157
-2.6111975e-05
0.00016350179
-2.4780219e-05
0.00018671208
-2.3210286e-05
0.0002081292
-2.1417119e-05
0.00022754699
-1.9417795e-05
0.00024477837
-1.7231377e-05
0.0002596571
-1.4878728e-05
0.00027203942
-1.2382327e-05
0.00028180548
-9.7660523e-06
0.00028886044
-7.05496e-06
0.00029313549
-4.2750493e-06
0.0002945885
-1.4530185e-06
0.00029320451
1.3839897e-06
0.00028899585
4.2086616e-06
0.00028200205
6.9938031e-06
0.0002722896
9.7124515e-06
0.00025995126
1.233834e-05
0.00024510521
1.4846046e-05
0.00022789396
1.7211256e-05
0.00020848295
1.9411009e-05
0.00018705902
2.1423928e-05
0.00016382859
2.3230429e-05
0.00013901567
2.4812921e-05
0.00011285969
2.6155979e-05
8.5613184e-05
2.7246505e-05
5.7539328e-05
2.8073856e-05
2.8909374e-05
2.8629954e-05
2.8909367e-05
-2.9227947e-05
5.8137313e-05
-5.8173388e-05
5.757539e-05
-8.6556578e-05
5.6457037e-05
-0.00011410327
5.479318e-05
-0.00014054737
5.2600066e-05
-0.00016563356
4.9899101e-05
-0.00018911978
4.6716631e-05
-0.00021077954
4.3083674e-05
-0.00023040416
3.9035611e-05
-0.00024780474
3.4611827e-05
-0.00026281402
2.9855314e-05
-0.00027528793
2.4812249e-05
-0.00028510701
1.9531525e-05
-0.00029217748
1.4064273e-05
-0.00029643217
8.4633558e-06
-0.00029783107
2.782893e-06
-0.00029636173
-2.9223545e-06
-0.00029203931
-8.5974605e-06
-0.00028490642
-1.418785e-05
-0.00027503263
-1.9639837e-05
-0.00026251381
-2.490114e-05
-0.00024747117
-2.992137e-05
-0.00023005003
-3.4652508e-05
-0.00021041847
-3.9049356e-05
-0.00018876564
-4.3069953e-05
-0.00016529996
-4.6675971e-05
-0.00014024712
-4.9833065e-05
-0.00011384791
-5.251119e-05
-8.6355928e-05
-5.4684878e-05
-5.8035152e-05
-5.6333471e-05
-2.9157437e-05
-5.7441307e-05
7.4983534e-11
-5.7997866e-05
2.9157586e-05
-5.7997864e-05
5.8035299e-05
-5.7441302e-05
8.635607e-05
-5.6333463e-05
0.00011384805
-5.4684869e-05
0.00014024725
-5.251118e-05
0.00016530009
-4.9833055e-05
0.00018876576
-4.6675963e-05
0.00021041859
-4.3069947e-05
0.00023005015
-3.9049353e-05
0.00024747128
-3.4652509e-05
0.00026251393
-2.9921375e-05
0.00027503275
-2.4901148e-05
0.00028490655
-1.9639848e-05
0.00029203945
-1.4187862e-05
0.00029636187
-8.597473e-06
0.00029783122
-2.9223659e-06
0.00029643232
2.7828843e-06
0.00029217763
8.4633512e-06
0.00028510716
1.4064274e-05
0.00027528808
1.9531531e-05
0.00026281416
2.4812262e-05
0.00024780488
2.9855334e-05
0.00023040428
3.4611852e-05
0.00021077965
3.9035641e-05
0.00018911987
4.3083707e-05
0.00016563363
4.6716665e-05
0.00014054742
4.9899135e-05
0.0001141033
5.2600097e-05
8.6556602e-05
5.4793206e-05
5.8173401e-05
5.6457057e-05
2.9227953e-05
5.7575402e-05
5.8137318e-05
-2.9722906e-05
8.7860213e-05
-5.9158505e-05
8.7010989e-05
-8.8022313e-05
8.5320846e-05
-0.00011603543
8.2806295e-05
-0.00014292726
7.9491894e-05
-0.00016843815
7.5409994e-05
-0.00019232193
7.0600414e-05
-0.0002143483
6.5110037e-05
-0.00023430502
5.8992332e-05
-0.00025200002
5.2306826e-05
-0.0002672632
4.5118494e-05
-0.00027994807
3.7497121e-05
-0.00028993314
2.9516602e-05
-0.00029712308
2.1254212e-05
-0.00030144958
1.278985e-05
-0.00030287195
4.2052679e-06
-0.00030137755
-4.4167576e-06
-0.0002969818
-1.2993211e-05
-0.00028972802
-2.1441623e-05
-0.000279687
-2.9680867e-05
-0.0002669562
-3.7631932e-05
-0.0002516589
-4.5218673e-05
-0.00023394288
-5.2368524e-05
-0.00021397906
-5.901318e-05
-0.00019195978
-6.5089231e-05
-0.000168097
-7.0538755e-05
-0.00014262021
-7.530985e-05
-0.00011577429
-7.9357112e-05
-8.7817116e-05
-8.2642054e-05
-5.9017132e-05
-8.5133455e-05
-2.965079e-05
-8.6807649e-05
8.1079226e-11
-8.7648737e-05
2.9650951e-05
-8.7648734e-05
5.9017289e-05
-8.6807641e-05
8.7817268e-05
-8.5133442e-05
0.00011577444
-8.2642038e-05
0.00014262035
-7.9357095e-05
0.00016809713
-7.5309833e-05
0.00019195991
-7.0538741e-05
0.00021397918
-6.508922e-05
0.000233943
-5.9013174e-05
0.00025165902
-5.2368524e-05
0.00026695632
-4.5218679e-05
0.00027968712
-3.7631944e-05
0.00028972815
-2.9680883e-05
0.00029698193
-2.1441642e-05
0.00030137769
-1.2993231e-05
0.0003028721
-4.4167755e-06
0.00030144973
4.2052542e-06
0.00029712324
1.2789843e-05
0.0002899333
2.1254213e-05
0.00027994822
2.9516612e-05
0.00026726334
3.7497141e-05
0.00025200015
4.5118524e-05
0.00023430514
5.2306865e-05
0.0002143484
5.8992379e-05
0.00019232202
6.5110088e-05
0.00016843821
7.0600469e-05
0.0001429273
7.5410047e-05
0.00011603545
7.9491943e-05
8.8022323e-05
8.2806337e-05
5.9158503e-05
8.5320878e-05
2.9722896e-05
8.7011009e-05
8.786022e-05
-3.0400411e-05
0.00011826061
-6.0506947e-05
0.00011711753
-9.0028646e-05
0.00011484254
-0.00011868024
0.00011145789
-0.00014618497
0.00010699662
-0.00017227725
0.00010150228
-0.00019670532
9.502848e-05
-0.0002192336
8.763832e-05
-0.00023964505
7.9403781e-05
-0.00025774321
7.0404986e-05
-0.00027335412
6.0729399e-05
-0.00028632795
5.0470953e-05
-0.00029654046
3.9729113e-05
-0.00030389414
2.8607896e-05
-0.00030831914
1.7214844e-05
-0.00030977385
5.6599817e-06
-0.00030824534
-5.9452697e-06
-0.00030374938
-1.7489167e-05
-0.0002963303
-2.8860711e-05
-0.00028606045
-3.9950709e-05
-0.00027303957
-5.0652817e-05
-0.0002573937
-6.0864544e-05
-0.000239274
-7.0488221e-05
-0.00021885527
-7.9431908e-05
-0.00019633425
-8.7610258e-05
-0.00017192769
-9.4945307e-05
-0.00014587035
-0.00010136719
-0.00011841266
-0.0001068148
-8.981838e-05
-0.00011123633
-6.0362077e-05
-0.00011458976
-3.0326502e-05
-0.00011684322
8.9173558e-11
-0.00011797533
3.0326679e-05
-0.00011797532
6.0362249e-05
-0.00011684321
8.9818547e-05
-0.00011458974
0.00011841282
-0.00011123631
0.0001458705
-0.00010681478
0.00017192783
-0.00010136717
0.00019633438
-9.4945284e-05
0.0002188554
-8.7610241e-05
0.00023927412
-7.9431898e-05
0.00025739382
-7.048822e-05
0.00027303969
-6.0864552e-05
0.00028606058
-5.0652832e-05
0.00029633043
-3.9950731e-05
0.00030374952
-2.8860738e-05
0.00030824549
-1.7489195e-05
0.00030977401
-5.9452955e-06
0.0003083193
5.6599617e-06
0.00030389431
1.7214833e-05
0.00029654063
2.8607896e-05
0.00028632811
3.9729128e-05
0.00027335427
5.0470982e-05
0.00025774335
6.0729443e-05
0.00023964517
7.0405042e-05
0.0002192337
7.9403848e-05
0.0001967054
8.7638395e-05
0.00017227731
9.5028558e-05
0.000146185
0.00010150236
0.00011868025
0.00010699669
9.0028637e-05
0.00011145795
6.0506925e-05
0.00011484259
3.0400379e-05
0.00011711755
0.00011826062
-3.1275212e-05
0.00014953579
-6.2248073e-05
0.00014809039
-9.2619257e-05
0.00014521373
-0.00012209528
0.00014093392
-0.00015039142
0.00013529276
-0.00017723446
0.00012834532
-0.00020236538
0.00012015939
-0.00022554183
0.00011081477
-0.00024654053
0.00010040248
-0.00026515938
8.9023835e-05
-0.00028121942
7.6789433e-05
-0.00029456651
6.381805e-05
-0.00030507286
5.0235458e-05
-0.00031263814
3.6173181e-05
-0.0003171905
2.1767199e-05
-0.00031868714
7.1566244e-06
-0.00031711475
-7.5176598e-06
-0.00031248956
-2.211436e-05
-0.00030485714
-3.6493127e-05
-0.00029429195
-5.0515898e-05
-0.00028089656
-6.404821e-05
-0.00026480064
-7.696047e-05
-0.00024615968
-8.9129179e-05
-0.0002251535
-0.00010043808
-0.00020198449
-0.00011077927
-0.00017687566
-0.00012005414
-0.00015006848
-0.00012817437
-0.00012182062
-0.00013506267
-9.2403416e-05
-0.00014065353
-6.2099354e-05
-0.00014489382
-3.1199328e-05
-0.00014774325
9.9079265e-11
-0.00014917476
3.1199525e-05
-0.00014917475
6.2099544e-05
-0.00014774323
9.2403598e-05
-0.00014489379
0.00012182079
-0.0001406535
0.00015006864
-0.00013506263
0.0001768758
-0.00012817433
0.00020198463
-0.00012005411
0.00022515363
-0.00011077924
0.0002461598
-0.00010043807
0.00026480075
-8.9129175e-05
0.00028089668
-7.6960478e-05
0.00029429208
-6.404823e-05
0.00030485727
-5.0515928e-05
0.0003124897
-3.6493164e-05
0.0003171149
-2.2114399e-05
0.0003186873
-7.5176956e-06
0.00031719067
7.1565961e-06
0.00031263832
2.1767183e-05
0.00030507304
3.617318e-05
0.00029456669
5.0235477e-05
0.00028121958
6.3818089e-05
0.00026515953
7.6789492e-05
0.00024654066
8.9023912e-05
0.00022554193
0.00010040257
0.00020236545
0.00011081488
0.00017723451
0.0001201595
0.00015039144
0.00012834543
0.00012209528
0.00013529286
9.2619225e-05
0.000140934
6.2248025e-05
0.00014521379
3.1275153e-05
0.00014809043
0.0001495358
-3.2371114e-05
0.00018190685
-6.4429263e-05
0.00018014854
-9.5864644e-05
0.00017664911
-0.00012637349
0.00017144277
-0.0001556611
0.00016458037
-0.00018344469
0.00015612891
-0.00020945615
0.00014617086
-0.00023344468
0.0001348033
-0.00025517915
0.00012213696
-0.0002744504
0.00010829509
-0.00029107321
9.341224e-05
-0.00030488806
7.7632898e-05
-0.00031576266
6.1110059e-05
-0.00032359319
4.4003716e-05
-0.00032830528
2.6479279e-05
-0.00032985462
8.7059658e-06
-0.00032822742
-9.1448522e-06
-0.00032344048
-2.6901302e-05
-0.00031554095
-4.4392658e-05
-0.00030460587
-6.1450978e-05
-0.00029074139
-7.7912695e-05
-0.00027408169
-9.3620166e-05
-0.00025478771
-0.00010842316
-0.00023304555
-0.00012218024
-0.00020906468
-0.00013476014
-0.0001830759
-0.00014604292
-0.00015532917
-0.0001559211
-0.00012609117
-0.00016430067
-9.5642784e-05
-0.00017110192
-6.4276388e-05
-0.00017626022
-3.2293097e-05
-0.00017972654
1.1069761e-10
-0.00018146796
3.2293316e-05
-0.00018146795
6.4276599e-05
-0.00017972651
9.5642984e-05
-0.00017626018
0.00012609136
-0.00017110187
0.00015532934
-0.00016430061
0.00018307605
-0.00015592104
0.00020906481
-0.00014604287
0.00023304568
-0.0001347601
0.00025478783
-0.00012218022
0.0002740818
-0.00010842315
0.0002907415
-9.3620176e-05
0.00030460599
-7.7912721e-05
0.00031554108
-6.1451018e-05
0.00032344062
-4.4392707e-05
0.00032822758
-2.6901354e-05
0.00032985479
-9.1449019e-06
0.00032830546
8.7059259e-06
0.00032359338
2.6479255e-05
0.00031576285
4.4003713e-05
0.00030488825
6.1110082e-05
0.00029107339
7.7632947e-05
0.00027445056
9.3412316e-05
0.00025517929
0.00010829519
0.00023344478
0.00012213708
0.00020945623
0.00013480343
0.00018344473
0.000146171
0.0001556611
0.00015612905
0.00012637346
0.0001645805
9.5864586e-05
0.00017144288
6.4429184e-05
0.00017664919
3.2371021e-05
0.00018014859
0.00018190687
-3.3721918e-05
0.0002156287
-6.7117791e-05
0.00021354441
-9.9864906e-05
0.00020939622
-0.00013164682
0.00020322469
-0.00016215654
0.00019509009
-0.00019109949
0.00018507186
-0.00021819638
0.00017326775
-0.00024318593
0.00015979286
-0.00026582742
0.00014477844
-0.00028590294
0.00012837061
-0.00030321956
0.00011072886
-0.00031761111
9.202445e-05
-0.00032893979
7.2438744e-05
-0.00033709746
5.2161383e-05
-0.00034200661
3.138843e-05
-0.0003436211
1.0320458e-05
-0.00034192655
-1.0839405e-05
-0.00033694042
-3.1887438e-05
-0.0003287118
-5.2621278e-05
-0.00031732092
-7.2841858e-05
-0.00030287832
-9.2355295e-05
-0.00028552376
-0.00011097472
-0.00026542487
-0.00012852205
-0.00024277547
-0.00014482964
-0.00021779378
-0.00015974184
-0.00019072022
-0.00017311648
-0.00016181517
-0.00018482614
-0.00013135647
-0.00019475937
-9.9636721e-05
-0.00020282167
-6.6960546e-05
-0.00020893639
-3.3641656e-05
-0.00021304543
1.2386825e-10
-0.00021510974
3.3641901e-05
-0.00021510973
6.696078e-05
-0.00021304539
9.963694e-05
-0.00020893634
0.00013135667
-0.0002028216
0.00016181535
-0.00019475929
0.00019072037
-0.00018482607
0.00021779391
-0.00017311641
0.00024277559
-0.00015974178
0.00026542497
-0.0001448296
0.00028552386
-0.00012852204
0.00030287842
-0.00011097473
0.00031732103
-9.2355329e-05
0.00032871192
-7.2841911e-05
0.00033694056
-5.2621344e-05
0.00034192671
-3.188751e-05
0.00034362128
-1.0839474e-05
0.00034200681
1.0320402e-05
0.00033709767
3.1388394e-05
0.00032894001
5.2161374e-05
0.00031761132
7.2438769e-05
0.00030321976
9.2024511e-05
0.00028590312
0.00011072895
0.00026582757
0.00012837074
0.00024318605
0.0001447786
0.00021819645
0.00015979303
0.00019109952
0.00017326793
0.00016215653
0.00018507204
0.00013164677
0.00019509026
9.9864816e-05
0.00020322483
6.7117674e-05
0.00020939633
3.3721785e-05
0.00021354448
0.00021562872
-3.5372897e-05
0.0002510015
-7.0403767e-05
0.00024857528
-0.00010475412
0.00024374658
-0.00013809203
0.0002365626
-0.00017009548
0.00022709353
-0.00020045547
0.00021543184
-0.00022887906
0.00020169134
-0.0002550922
0.00018600599
-0.00027884237
0.00016852861
-0.00029990103
0.00014942927
-0.0003180658
0.00012889363
-0.0003331624
0.00010712105
-0.00034504629
8.4322629e-05
-0.00035360401
6.0719102e-05
-0.00035875426
3.653868e-05
-0.00036044862
1.2014818e-05
-0.00035867197
-1.2616056e-05
-0.00035344259
-3.7116818e-05
-0.00034481194
-6.1251928e-05
-0.00033286412
-8.4789672e-05
-0.00031771505
-0.00010750437
-0.00029951127
-0.0001291785
-0.00027842859
-0.00014960474
-0.00025467028
-0.00016858794
-0.00022846522
-0.0001859469
-0.0002000656
-0.0002015161
-0.00016974457
-0.00021514718
-0.00013779355
-0.00022671038
-0.00010451954
-0.00023609568
-7.0242103e-05
-0.00024321383
-3.5290362e-05
-0.00024799717
1.3825008e-10
-0.00025040024
3.5290634e-05
-0.00025040023
7.0242361e-05
-0.00024799712
0.00010451978
-0.00024321376
0.00013779377
-0.00023609559
0.00016974475
-0.00022671028
0.00020006576
-0.00021514708
0.00022846535
-0.000201516
0.00025467039
-0.00018594682
0.00027842867
-0.00016858789
0.00029951136
-0.00014960472
0.00031771513
-0.00012917851
0.00033286422
-0.00010750441
0.00034481205
-8.4789744e-05
0.00035344272
-6.1252018e-05
0.00035867213
-3.7116918e-05
0.00036044881
-1.2616152e-05
0.00035875448
1.2014736e-05
0.00035360424
3.6538625e-05
0.00034504654
6.0719083e-05
0.00033316265
8.4322655e-05
0.00031806604
0.00010712113
0.00029990124
0.00012889375
0.00027884254
0.00014942944
0.00025509233
0.00016852881
0.00022887914
0.00018600622
0.00020045549
0.00020169158
0.00017009545
0.00021543208
0.00013809195
0.00022709375
0.000104754
0.00023656279
7.0403608e-05
0.00024374672
3.5372717e-05
0.00024857537
0.00025100154
-3.7382477e-05
0.00028838386
-7.4403479e-05
0.00028559628
-0.00011070532
0.00028004842
-0.00014593723
0.00027179451
-0.0001797589
0.0002609152
-0.00021184379
0.00024751674
-0.00024188235
0.00023172989
-0.00026958496
0.0002137086
-0.00029468479
0.00019362844
-0.00031694032
0.00017168481
-0.0003361377
0.00014809101
-0.00035209274
0.00012307609
-0.00036465269
9.6882579e-05
-0.00037369764
6.9764056e-05
-0.00037914166
4.1982697e-05
-0.00038093354
1.3806694e-05
-0.00037905725
-1.4492344e-05
-0.00037353206
-4.2642005e-05
-0.0003644123
-7.0371693e-05
-0.00035178677
-9.7415199e-05
-0.0003357779
-0.00012351324
-0.00031654052
-0.00014841588
-0.00029426034
-0.00017188492
-0.00026915216
-0.00019369611
-0.00024145783
-0.00021364124
-0.00021144385
-0.00023153007
-0.0001793989
-0.00024719213
-0.00014563102
-0.00026047827
-0.00011046465
-0.00027126205
-7.4237606e-05
-0.00027944088
-3.7297773e-05
-0.000284937
1.5325103e-10
-0.00028769817
3.7298074e-05
-0.00028769815
7.4237889e-05
-0.00028493694
0.00011046491
-0.00027944078
0.00014563124
-0.00027126192
0.00017939909
-0.00026047813
0.000211444
-0.00024719198
0.00024145793
-0.00023152994
0.00026915224
-0.00021364113
0.00029426039
-0.00019369604
0.00031654057
-0.0001718849
0.00033577796
-0.0001484159
0.00035178684
-0.0001235133
0.00036441239
-9.7415298e-05
0.00037353219
-7.0371818e-05
0.00037905742
-4.2642144e-05
0.00038093375
-1.449248e-05
0.00037914191
1.3806576e-05
0.00037369792
4.1982614e-05
0.00036465298
6.976402e-05
0.00035209303
9.6882601e-05
0.00033613798
0.00012307618
0.00031694058
0.00014809116
0.000294685
0.00017168501
0.00026958512
0.00019362869
0.00024188244
0.0002137089
0.00021184382
0.0002317302
0.00017975885
0.00024751705
0.00014593712
0.00026091548
0.00011070516
0.00027179475
7.4403274e-05
0.00028004861
3.7382244e-05
0.0002855964
0.0002883839
-3.9823601e-05
0.00032820731
-7.9262115e-05
0.0003250348
-0.00011793454
0.00031872084
-0.00015546721
0.00030932718
-0.00019149762
0.00029694561
-0.00022567794
0.00028169706
-0.00025767841
0.00026373036
-0.00028719053
0.00024322073
-0.00031393007
0.00022036797
-0.00033763975
0.00019539449
-0.00035809177
0.00016854303
-0.00037508992
0.00014007425
-0.00038847148
0.00011026413
-0.00039810868
7.9401257e-05
-0.00040390994
4.7783958e-05
-0.00040582066
1.5717416e-05
-0.00040382371
-1.6489292e-05
-0.00039793954
-4.852618e-05
-0.00038822592
-8.0085312e-05
-0.00037477738
-0.00011086374
-0.00035772424
-0.00014056638
-0.00033723135
-0.00016890877
-0.00031349648
-0.00019561979
-0.00028674842
-0.00022044418
-0.00025724474
-0.00024314491
-0.00022526938
-0.00026350543
-0.00019112986
-0.00028133165
-0.00015515437
-0.00029645375
-0.00011768865
-0.00030872777
-7.9092628e-05
-0.0003180369
-3.9737031e-05
-0.0003242926
1.6803305e-10
-0.00032743537
3.9737359e-05
-0.00032743534
7.9092933e-05
-0.00032429251
0.00011768892
-0.00031803676
0.0001551546
-0.00030872759
0.00019113003
-0.00029645356
0.0002252695
-0.00028133145
0.00025724481
-0.00026350525
0.00028674845
-0.00024314477
0.00031349649
-0.00022044408
0.00033723135
-0.00019561975
0.00035772424
-0.00016890879
0.00037477741
-0.00014056646
0.00038822599
-0.00011086388
0.00039793965
-8.0085486e-05
0.00040382388
-4.8526373e-05
0.00040582089
-1.6489485e-05
0.00040391022
1.5717247e-05
0.000398109
4.7783832e-05
0.00038847183
7.9401193e-05
0.00037509028
0.00011026414
0.00035809212
0.00014007434
0.00033764007
0.00016854321
0.00031393034
0.00019539475
0.00028719074
0.00022036829
0.00025767854
0.0002432211
0.00022567798
0.00026373076
0.00019149758
0.00028169745
0.00015546708
0.00029694598
0.00011793434
0.0003093275
7.926186e-05
0.00031872109
3.9823311e-05
0.00032503495
0.00032820736
-4.2784114e-05
0.00037099124
-8.515452e-05
0.0003674052
-0.00012670194
0.00036026826
-0.00016702497
0.00034965021
-0.00020573417
0.00033565481
-0.00024245589
0.00031841878
-0.00027683589
0.00029811036
-0.00030854278
0.00027492761
-0.00033727119
0.00024909638
-0.00036274477
0.00022086807
-0.00038471877
0.00019051704
-0.00040298242
0.0001583379
-0.00041736087
0.00012464258
-0.00042771682
8.9757214e-05
-0.00043395184
5.4018977e-05
-0.0004360072
1.7772771e-05
-0.00043386439
-1.86321e-05
-0.00042754528
-5.4845294e-05
-0.00041711181
-9.0518775e-05
-0.00040266543
-0.00012531013
-0.00038434601
-0.0001588858
-0.00036233054
-0.00019092423
-0.00033683141
-0.00022111892
-0.00030809434
-0.00024918125
-0.00027639601
-0.00027484323
-0.00024204147
-0.00029785998
-0.00020536111
-0.000318012
-0.00016670761
-0.00033510725
-0.00012645249
-0.0003489829
-8.4982559e-05
-0.00035950683
-4.2696258e-05
-0.0003665789
1.8163187e-10
-0.00037013181
4.2696611e-05
-0.00037013177
8.4982881e-05
-0.00036657878
0.00012645276
-0.00035950664
0.00016670783
-0.00034898266
0.00020536126
-0.00033510699
0.00024204154
-0.00031801174
0.00027639603
-0.00029785974
0.0003080943
-0.00027484304
0.00033683135
-0.00024918113
0.00036233047
-0.00022111887
0.00038434594
-0.00019092427
0.0004026654
-0.00015888591
0.00041711184
-0.00012531032
0.00042754537
-9.0519018e-05
0.00043386456
-5.4845566e-05
0.00043600745
-1.8632373e-05
0.00043395217
1.7772526e-05
0.00042771721
5.4018788e-05
0.0004173613
8.9757105e-05
0.00040298288
0.00012464257
0.00038471922
0.000158338
0.00036274518
0.00019051725
0.00033727154
0.00022086838
0.00030854305
0.00024909679
0.00027683607
0.00027492808
0.00024245596
0.00029811087
0.00020573413
0.00031841929
0.00016702482
0.00033565528
0.0001267017
0.00034965061
8.5154214e-05
0.00036026857
4.2783763e-05
0.0003674054
0.00037099131
-4.6365297e-05
0.00041735632
-9.2282283e-05
0.00041332219
-0.00013730749
0.00040529347
-0.00018100595
0.00039334867
-0.00022295569
0.00037760455
-0.00026275183
0.00035821492
-0.00030001049
0.00033536903
-0.0003343726
0.00030928971
-0.00036550727
0.00028023105
-0.00039311501
0.00024847581
-0.00041693062
0.00021433265
-0.00043672566
0.00017813294
-0.00045231061
0.00014022753
-0.00046353665
0.00010098325
-0.00047029701
6.0779338e-05
-0.00047252795
2.0003708e-05
-0.00047020929
-2.0950761e-05
-0.00046336457
-6.1690011e-05
-0.00045206078
-0.00010182256
-0.00043640768
-0.00014096324
-0.00041655669
-0.00017873678
-0.00039269948
-0.00021478144
-0.0003650661
-0.00024875231
-0.00033392273
-0.00028032462
-0.0002995692
-0.00030919677
-0.00026233605
-0.00033509313
-0.00022258141
-0.00035776665
-0.00018068753
-0.00037700112
-0.00013705718
-0.00039261325
-9.2109711e-05
-0.0004044543
-4.6277104e-05
-0.00041241151
1.932447e-10
-0.00041640911
4.6277476e-05
-0.00041640905
9.2110043e-05
-0.00041241135
0.00013705745
-0.00040445405
0.00018068772
-0.00039261293
0.00022258151
-0.00037700077
0.00026233606
-0.00035776629
0.00029956913
-0.00033509281
0.0003339226
-0.00030919651
0.00036506592
-0.00028032445
0.0003926993
-0.00024875225
0.00041655652
-0.00021478149
0.00043640756
-0.00017873695
0.00045206074
-0.0001409635
0.00046336462
-0.0001018229
0.00047020945
-6.1690393e-05
0.00047252823
-2.0951149e-05
0.0004702974
2.0003354e-05
0.00046353713
6.0779057e-05
0.00045231116
0.00010098308
0.00043672624
0.00014022748
0.00041693121
0.00017813304
0.00039311556
0.00021433289
0.00036550774
0.0002484762
0.00033437298
0.00028023155
0.00030001075
0.00030929031
0.00026275194
0.00033536967
0.00022295567
0.00035821556
0.0001810058
0.00037760516
0.00013730722
0.00039334919
9.2281924e-05
0.00040529387
4.6364882e-05
0.00041332244
0.00041735641
-5.0677517e-05
0.00046803358
-0.00010086508
0.00046350975
-0.00015007806
0.00045450645
-0.00019784111
0.00044111173
-0.00024369308
0.00042345652
-0.00028719148
0.00040171331
-0.0003279168
0.00037609436
-0.0003654766
0.00034684951
-0.00039950925
0.00031426369
-0.00042968743
0.000278654
-0.00045572127
0.00024036649
-0.00047736106
0.00019977272
-0.00049439959
0.00015726606
-0.00050667414
0.0001132578
-0.00051406788
6.8173082e-05
-0.00051651101
2.2446837e-05
-0.00051398131
-2.3480464e-05
-0.00050650431
-6.9167005e-05
-0.00049415304
-0.00011417384
-0.00047704724
-0.00015806904
-0.00045535223
-0.00020043179
-0.00042927734
-0.00024085633
-0.00039907384
-0.00027895581
-0.00036503258
-0.00031436587
-0.00032748123
-0.00034674812
-0.00028678108
-0.00037579329
-0.00024332361
-0.00040122411
-0.00019752677
-0.00042279796
-0.00014983093
-0.00044030909
-0.00010069467
-0.00045359056
-5.05904e-05
-0.00046251578
2.027401e-10
-0.00046699971
5.0590787e-05
-0.00046699964
0.000100695
-0.00046251556
0.00014983118
-0.00045359022
0.00019752691
-0.00044030867
0.00024332363
-0.00042279749
0.00028678098
-0.00040122364
0.00032748103
-0.00037579286
0.0003650323
-0.00034674778
0.0003990735
-0.00031436565
0.00042927699
-0.00027895573
0.00045535191
-0.00024085642
0.00047704699
-0.00020043203
0.0004941529
-0.00015806941
0.00050650431
-0.00011417431
0.00051398146
-6.9167543e-05
0.00051651132
-2.3481013e-05
0.00051406835
2.244633e-05
0.00050667474
6.8172668e-05
0.00049440029
0.00011325752
0.00047736182
0.00015726596
0.00045572204
0.00019977281
0.00042968817
0.00024036677
0.0003995099
0.00027865447
0.00036547713
0.00031426432
0.00032791718
0.00034685026
0.00028719168
0.00037609517
0.00024369311
0.00040171414
0.00019784097
0.0004234573
0.00015007776
0.0004411124
0.00010086467
0.00045450696
5.0677033e-05
0.00046351008
0.0004680337
-5.5831815e-05
0.0005238651
-0.00011112393
0.00051880186
-0.00016534254
0.00050872506
-0.00021796406
0.00049373325
-0.00026848052
0.00047397298
-0.00031640449
0.00044963729
-0.00036127389
0.00042096376
-0.00040265639
0.00038823201
-0.00044015362
0.00035176092
-0.00047340499
0.00031190536
-0.0005020911
0.0002690526
-0.00052593681
0.00022361843
-0.00054471376
0.00017604302
-0.00055824255
0.00012678659
-0.00056639433
7.6324866e-05
-0.00056909201
2.5144512e-05
-0.00056631088
-2.6261591e-05
-0.00055807885
-7.7399036e-05
-0.0005444761
-0.00012777659
-0.0005256343
-0.00017691084
-0.00050173535
-0.00022433073
-0.00047300965
-0.00026958204
-0.00043973387
-0.00031223159
-0.00040222832
-0.00035187142
-0.00036085393
-0.00038812251
-0.00031600877
-0.00042063845
-0.00026812423
-0.00044910865
-0.0002176609
-0.00047326129
-0.00016510417
-0.00049286582
-0.00011095953
-0.0005077352
-5.5747729e-05
-0.00051772758
2.1142015e-10
-0.00052274765
5.5748127e-05
-0.00052274755
0.00011095985
-0.00051772729
0.00016510439
-0.00050773476
0.00021766098
-0.00049286526
0.00026812414
-0.00047326066
0.00031600853
-0.00044910802
0.00036085355
-0.00042063788
0.00040222783
-0.00038812205
0.0004397333
-0.00035187113
0.00047300908
-0.00031223151
0.00050173482
-0.00026958216
0.00052563387
-0.00022433107
0.00054447582
-0.00017691136
0.00055807876
-0.00012777726
0.00056631101
-7.7399791e-05
0.00056909236
-2.6262365e-05
0.0005663949
2.5143789e-05
0.00055824331
7.6324263e-05
0.00054471466
0.00012678616
0.0005259378
0.00017604282
0.00050209212
0.00022361849
0.00047340597
0.00026905292
0.00044015451
0.00031190593
0.00040265713
0.0003517617
0.00036127444
0.00038823295
0.00031640482
0.00042096479
0.00026848061
0.00044963834
0.00021796394
0.00047397397
0.00016534222
0.00049373411
0.00011112346
0.00050872573
5.5831255e-05
0.00051880228
0.00052386525
-6.1926219e-05
0.00058579098
-0.00012325395
0.00058012959
-0.00018339128
0.00056886239
-0.00024175761
0.00055209957
-0.00029778962
0.00053000499
-0.00035094681
0.00050279448
-0.00040071671
0.00047073366
-0.00044661987
0.00043413517
-0.00048821445
0.00039335551
-0.0005251005
0.00034879141
-0.00055692371
0.00030087582
-0.00058337883
0.00025007355
-0.00060421246
0.00019687665
-0.00061922544
0.00014179957
-0.00062827466
8.5374089e-05
-0.00063127437
2.8144218e-05
-0.0006281969
-2.9339065e-05
-0.00061907289
-8.6523043e-05
-0.00060399098
-0.0001428585
-0.00058309691
-0.0001978049
-0.00055659217
-0.00025083548
-0.00052473204
-0.00030144217
-0.0004878232
-0.00034914043
-0.00044622084
-0.00039347378
-0.0004003252
-0.00043401814
-0.00035057785
-0.0004703858
-0.00029745738
-0.00050222912
-0.00024147486
-0.00052924381
-0.00018316891
-0.00055117177
-0.00012310053
-0.00056780358
-6.1847695e-05
-0.00057898042
2.2299835e-10
-0.00058459557
6.1848108e-05
-0.00058459544
0.00012310085
-0.00057898003
0.00018316908
-0.00056780298
0.00024147484
-0.00055117102
0.00029745715
-0.00052924297
0.0003505774
-0.00050222828
0.00040032457
-0.00047038504
0.00044622005
-0.00043401754
0.00048782234
-0.00039347341
0.00052473115
-0.00034914033
0.00055659135
-0.00030144236
0.00058309623
-0.00025083595
0.0006039905
-0.00019780563
0.00061907268
-0.00014285943
0.00062819698
-8.6524097e-05
0.00063127477
-2.9340152e-05
0.00062827536
2.8143194e-05
0.00061922641
8.537322e-05
0.00060421364
0.00014179893
0.00058338014
0.00019687632
0.00055692508
0.00025007355
0.00052510183
0.00030087617
0.00048821567
0.00034879209
0.00044662089
0.00039335648
0.00040071749
0.00043413635
0.0003509473
0.00047073498
0.00029778982
0.00050279583
0.00024175752
0.00053000627
0.00018339094
0.00055210068
0.00012325342
0.00056886325
6.1925568e-05
0.00058013013
0.00058579116
-6.90257e-05
0.00065481626
-0.00013738446
0.00064848835
-0.00020441673
0.00063589466
-0.00026947551
0.00061715835
-0.00033193307
0.00059246255
-0.00039118705
0.00056204847
-0.00044666634
0.00052621295
-0.00049783657
0.00048530539
-0.00054420526
0.0004397242
-0.00058532658
0.00038991273
-0.00062080554
0.00033635478
-0.00065030176
0.00027956976
-0.00067353261
0.00022010751
-0.0006902759
0.00015854286
-0.00070037185
9.5470035e-05
-0.00070372456
3.1496927e-05
-0.00070030286
-3.2760758e-05
-0.00069014058
-9.6685326e-05
-0.00067333614
-0.00015966294
-0.00065005167
-0.00022108938
-0.00062051141
-0.00028037573
-0.00058499967
-0.00033695391
-0.00054385809
-0.00039028201
-0.00049748243
-0.00043984944
-0.00044631882
-0.00048518175
-0.00039085947
-0.00052584514
-0.00033163802
-0.00056145058
-0.00026922434
-0.00059165748
-0.00020421912
-0.00061617699
-0.00013724805
-0.00063477465
-6.8955791e-05
-0.00064727268
2.4464519e-10
-0.0006535516
6.8956236e-05
-0.00065355143
0.00013724837
-0.00064727216
0.00020421923
-0.00063477385
0.0002692242
-0.00061617598
0.00033163759
-0.00059165636
0.00039085876
-0.00056144945
0.00044631785
-0.00052584413
0.00049748127
-0.00048518096
0.00054385681
-0.00043984895
0.00058499837
-0.00039028189
0.00062051019
-0.00033695418
0.00065005064
-0.0002803764
0.0006733354
-0.0002210904
0.0006901402
-0.00015966423
0.00070030289
-9.6686791e-05
0.00070372501
-3.2762274e-05
0.00070037272
3.1495487e-05
0.00069027714
9.5468797e-05
0.00067353415
0.00015854193
0.00065030349
0.00022010698
0.00062080736
0.00027956968
0.00058532837
0.00033635516
0.0005442069
0.00038991356
0.00049783797
0.00043972541
0.00044666742
0.0004853069
0.00039118777
0.00052621463