/*--------------------------------*- C++ -*----------------------------------*\
| =========                 |                                                 |
| \\      /  F ield         | OpenFOAM: The Open Source CFD Toolbox           |
|  \\    /   O peration     | Version:  2306                                  |
|   \\  /    A nd           | Website:  www.openfoam.com                      |
|    \\/     M anipulation  |                                                 |
\*---------------------------------------------------------------------------*/
FoamFile
{
    version     2.0;
    format      ascii;
    arch        "LSB;label=32;scalar=64";
    class       surfaceScalarField;
    location    "0.37";
    object      phi_0;
}
// * * * * * * * * * * * * * * * * * * * * * * * * * * * * * * * * * * * * * //

dimensions      [0 3 -1 0 0 0 0];

oriented        oriented;

internalField   nonuniform List<scalar> 
101920
(
8.1444385e-11
-8.1444346e-11
3.3033998e-11
4.8410186e-11
-2.7176871e-10
3.048032e-10
-9.9420298e-10
7.2243434e-10
-2.173828e-09
1.1796248e-09
-3.792531e-09
1.6187025e-09
-5.8462417e-09
2.0537111e-09
-8.3394864e-09
2.4932448e-09
-1.1284998e-08
2.9455108e-09
-1.4702357e-08
3.4173593e-09
-1.861604e-08
3.913682e-09
-2.30539e-08
4.4378628e-09
-2.8046238e-08
4.9923351e-09
-3.3625034e-08
5.5787974e-09
-3.9823376e-08
6.1983422e-09
-4.6674927e-08
6.8515507e-09
-5.4213449e-08
7.5385209e-09
-6.2472367e-08
8.2589181e-09
-7.1484346e-08
9.0119792e-09
-8.1280893e-08
9.7965448e-09
-9.1891962e-08
1.0611069e-08
-1.033456e-07
1.1453644e-08
-1.1566762e-07
1.2322014e-08
-1.288812e-07
1.321358e-08
-1.430066e-07
1.4125409e-08
-1.5806089e-07
1.5054283e-08
-1.7405759e-07
1.5996702e-08
-1.9100653e-07
1.6948944e-08
-2.0891361e-07
1.7907077e-08
-2.2778061e-07
1.8866997e-08
-2.4760507e-07
1.9824458e-08
-2.6838018e-07
2.0775117e-08
-2.9009474e-07
2.1714563e-08
-3.1273308e-07
2.2638343e-08
-3.3627508e-07
2.3542002e-08
-3.6069621e-07
2.4421125e-08
-3.8596757e-07
2.5271361e-08
-4.1205604e-07
2.608847e-08
-4.3892437e-07
2.6868336e-08
-4.6653138e-07
2.7607002e-08
-4.9483209e-07
2.8300714e-08
-5.2377801e-07
2.8945923e-08
-5.5331733e-07
2.9539322e-08
-5.833952e-07
3.0077865e-08
-6.1395398e-07
3.0558787e-08
-6.4493359e-07
3.0979612e-08
-6.7627177e-07
3.1338175e-08
-7.0790439e-07
3.1632627e-08
-7.3976584e-07
3.1861438e-08
-7.7178927e-07
3.2023437e-08
-8.0390701e-07
3.2117751e-08
-8.3605087e-07
3.214385e-08
-8.6815241e-07
3.2101539e-08
-9.0014335e-07
3.1990939e-08
-9.3195582e-07
3.1812477e-08
-9.6352273e-07
3.1566901e-08
-9.9477796e-07
3.1255235e-08
-1.0256568e-06
3.0878795e-08
-1.0560959e-06
3.0439143e-08
-1.086034e-06
2.9938085e-08
-1.1154117e-06
2.9377667e-08
-1.1441718e-06
2.8760122e-08
-1.1722596e-06
2.8087866e-08
-1.1996232e-06
2.7363517e-08
-1.2262129e-06
2.6589786e-08
-1.2519825e-06
2.5769532e-08
-1.2768882e-06
2.490572e-08
-1.3008896e-06
2.4001389e-08
-1.3239492e-06
2.3059642e-08
-1.3460329e-06
2.2083631e-08
-1.3671094e-06
2.1076519e-08
-1.3871509e-06
2.0041492e-08
-1.4061326e-06
1.8981723e-08
-1.4240329e-06
1.7900326e-08
-1.4408333e-06
1.6800375e-08
-1.4565182e-06
1.5684892e-08
-1.471075e-06
1.4556836e-08
-1.4844941e-06
1.3419112e-08
-1.4967688e-06
1.2274675e-08
-1.5078953e-06
1.1126491e-08
-1.5178729e-06
9.9776076e-09
-1.5267041e-06
8.8311529e-09
-1.5343942e-06
7.6900889e-09
-1.5409508e-06
6.5565938e-09
-1.5463819e-06
5.4311118e-09
-1.5506955e-06
4.3136344e-09
-1.5538833e-06
3.1878424e-09
-1.5559473e-06
2.0639208e-09
-1.556878e-06
9.3078683e-10
-1.5566613e-06
-2.1678394e-10
-1.5554808e-06
-1.1804731e-09
-1.5532861e-06
-2.1946394e-09
-1.5500787e-06
-3.2074344e-09
-1.545873e-06
-4.2057618e-09
-1.5406881e-06
-5.1849032e-09
-1.5345451e-06
-6.1429765e-09
-1.527466e-06
-7.0791273e-09
-1.5194731e-06
-7.9928524e-09
-1.5105893e-06
-8.883847e-09
-1.5008374e-06
-9.7518745e-09
-1.4902406e-06
-1.0596793e-08
-1.478822e-06
-1.1418579e-08
-1.4666048e-06
-1.2217204e-08
-1.4536121e-06
-1.2992768e-08
-1.4398667e-06
-1.3745365e-08
-1.4253915e-06
-1.447524e-08
-1.4102088e-06
-1.5182648e-08
-1.394341e-06
-1.5867843e-08
-1.3778097e-06
-1.6531222e-08
-1.3606366e-06
-1.7173124e-08
-1.3428426e-06
-1.779403e-08
-1.3244482e-06
-1.8394359e-08
-1.3054736e-06
-1.8974612e-08
-1.2859383e-06
-1.9535316e-08
-1.2658613e-06
-2.0077007e-08
-1.2452611e-06
-2.0600238e-08
-1.2241555e-06
-2.1105567e-08
-1.2025619e-06
-2.1593587e-08
-1.180497e-06
-2.2064912e-08
-1.1579769e-06
-2.2520107e-08
-1.1350171e-06
-2.2959817e-08
-1.1116324e-06
-2.3384632e-08
-1.0878373e-06
-2.3795152e-08
-1.0636453e-06
-2.4192023e-08
-1.0390694e-06
-2.4575805e-08
-1.0141223e-06
-2.494713e-08
-9.8881576e-07
-2.530655e-08
-9.6316102e-07
-2.5654729e-08
-9.3716888e-07
-2.5992184e-08
-9.1084939e-07
-2.6319471e-08
-8.8421219e-07
-2.6637205e-08
-8.5726633e-07
-2.6945874e-08
-8.3002026e-07
-2.7246045e-08
-8.0248201e-07
-2.7538253e-08
-7.7465906e-07
-2.7822956e-08
-7.4655836e-07
-2.8100685e-08
-7.1818649e-07
-2.8371869e-08
-6.8954949e-07
-2.8637001e-08
-6.60653e-07
-2.8896496e-08
-6.3150228e-07
-2.9150711e-08
-6.0210223e-07
-2.9400073e-08
-5.7245734e-07
-2.9644891e-08
-5.4257178e-07
-2.9885547e-08
-5.1244942e-07
-3.0122347e-08
-4.8209387e-07
-3.0355564e-08
-4.5150851e-07
-3.0585354e-08
-4.2069669e-07
-3.081182e-08
-3.8966178e-07
-3.1034912e-08
-3.5840759e-07
-3.1254196e-08
-3.2693889e-07
-3.1468703e-08
-2.9526262e-07
-3.167627e-08
-2.6339026e-07
-3.1872368e-08
-2.3134241e-07
-3.2047836e-08
-1.9915737e-07
-3.2185065e-08
-1.6690462e-07
-3.2252739e-08
-1.3469769e-07
-3.2206918e-08
-1.026663e-07
-3.20314e-08
-7.0742259e-08
-3.192405e-08
-3.7790773e-08
-3.2951491e-08
-3.779077e-08
-8.3091167e-10
7.494673e-10
-3.5264314e-09
2.7439302e-09
-8.2388211e-09
5.0171927e-09
-1.5147524e-08
7.6311365e-09
-2.4314154e-08
1.0346256e-08
-3.5753094e-08
1.3057643e-08
-4.946437e-08
1.5764987e-08
-6.5448811e-08
1.8477686e-08
-8.3711601e-08
2.1208301e-08
-1.0426278e-07
2.3968536e-08
-1.2711637e-07
2.6767273e-08
-1.5228903e-07
2.9610529e-08
-1.7979871e-07
3.2502009e-08
-2.0966347e-07
3.5443561e-08
-2.4190063e-07
3.8435496e-08
-2.7652585e-07
4.1476775e-08
-3.1355247e-07
4.4565145e-08
-3.5299079e-07
4.7697233e-08
-3.9484741e-07
5.0868602e-08
-4.3912468e-07
5.4073818e-08
-4.8582013e-07
5.7306513e-08
-5.3492593e-07
6.0559449e-08
-5.8642848e-07
6.3824563e-08
-6.403079e-07
6.7093001e-08
-6.9653768e-07
7.035518e-08
-7.5508428e-07
7.3600881e-08
-8.1590687e-07
7.6819299e-08
-8.789571e-07
7.9999169e-08
-9.4417888e-07
8.3128849e-08
-1.0115083e-06
8.6196388e-08
-1.0808735e-06
8.9189658e-08
-1.1521948e-06
9.2096428e-08
-1.2253847e-06
9.4904478e-08
-1.300348e-06
9.7601659e-08
-1.3769821e-06
1.0017605e-07
-1.4551769e-06
1.0261599e-07
-1.5348158e-06
1.0491022e-07
-1.6157752e-06
1.0704791e-07
-1.6979257e-06
1.0901884e-07
-1.7811321e-06
1.1081335e-07
-1.8652539e-06
1.1242252e-07
-1.9501461e-06
1.1383817e-07
-2.0356597e-06
1.1505293e-07
-2.1216422e-06
1.1606028e-07
-2.207938e-06
1.1685464e-07
-2.2943897e-06
1.1743132e-07
-2.3808382e-06
1.1778662e-07
-2.4671233e-06
1.179178e-07
-2.553085e-06
1.178231e-07
-2.6385633e-06
1.1750178e-07
-2.7233996e-06
1.1695402e-07
-2.8074368e-06
1.1618103e-07
-2.8905202e-06
1.151849e-07
-2.9724979e-06
1.1396866e-07
-3.0532216e-06
1.125362e-07
-3.132547e-06
1.1089229e-07
-3.2103342e-06
1.0904243e-07
-3.2864483e-06
1.0699293e-07
-3.3607599e-06
1.047507e-07
-3.4331451e-06
1.0232335e-07
-3.5034865e-06
9.9719017e-08
-3.5716727e-06
9.6946379e-08
-3.6375994e-06
9.4014498e-08
-3.7011687e-06
9.0932879e-08
-3.7622903e-06
8.7711302e-08
-3.8208805e-06
8.4359815e-08
-3.8768635e-06
8.0888628e-08
-3.9301702e-06
7.7308136e-08
-3.9807393e-06
7.3628743e-08
-4.0285166e-06
6.9860938e-08
-4.0734552e-06
6.6015133e-08
-4.1155154e-06
6.2101691e-08
-4.1546645e-06
5.8130823e-08
-4.1908767e-06
5.4112512e-08
-4.2241329e-06
5.0056555e-08
-4.2544204e-06
4.5972429e-08
-4.2817329e-06
4.1869378e-08
-4.3060702e-06
3.7756398e-08
-4.3274378e-06
3.3642283e-08
-4.3458469e-06
2.9535598e-08
-4.361314e-06
2.54447e-08
-4.3738604e-06
2.1377564e-08
-4.3835116e-06
1.7341211e-08
-4.3902954e-06
1.3340471e-08
-4.3942387e-06
9.3743999e-09
-4.3953447e-06
5.4195882e-09
-4.393615e-06
1.4582217e-09
-4.3892265e-06
-2.3246428e-09
-4.3822571e-06
-6.0385439e-09
-4.3727313e-06
-9.7426316e-09
-4.360537e-06
-1.3374806e-08
-4.3457969e-06
-1.6934671e-08
-4.3285835e-06
-2.0420882e-08
-4.3089576e-06
-2.3831617e-08
-4.2869773e-06
-2.7165251e-08
-4.2627e-06
-3.0420293e-08
-4.2361835e-06
-3.3595564e-08
-4.2074862e-06
-3.6690171e-08
-4.1766665e-06
-3.9703548e-08
-4.143783e-06
-4.2635364e-08
-4.1088942e-06
-4.5485593e-08
-4.0720584e-06
-4.8254437e-08
-4.0333332e-06
-5.0942329e-08
-3.9927761e-06
-5.3549941e-08
-3.9504434e-06
-5.6078059e-08
-3.9063909e-06
-5.852774e-08
-3.8606734e-06
-6.0900154e-08
-3.8133446e-06
-6.3196628e-08
-3.7644572e-06
-6.5418623e-08
-3.7140626e-06
-6.7567702e-08
-3.662211e-06
-6.9645592e-08
-3.6089514e-06
-7.1654016e-08
-3.5543311e-06
-7.3594893e-08
-3.4983963e-06
-7.5470096e-08
-3.4411917e-06
-7.7281636e-08
-3.3827603e-06
-7.9031558e-08
-3.323144e-06
-8.0721917e-08
-3.2623828e-06
-8.2354796e-08
-3.2005154e-06
-8.3932353e-08
-3.1375787e-06
-8.5456715e-08
-3.0736086e-06
-8.6930005e-08
-3.0086388e-06
-8.8354387e-08
-2.942702e-06
-8.9731975e-08
-2.8758291e-06
-9.10649e-08
-2.8080497e-06
-9.2355255e-08
-2.7393917e-06
-9.3605121e-08
-2.6698817e-06
-9.4816544e-08
-2.5995448e-06
-9.5991562e-08
-2.5284049e-06
-9.7132142e-08
-2.4564841e-06
-9.8240269e-08
-2.3838035e-06
-9.9317808e-08
-2.3103826e-06
-1.0036665e-07
-2.2362401e-06
-1.0138865e-07
-2.1613928e-06
-1.0238553e-07
-2.0858567e-06
-1.0335901e-07
-2.0096466e-06
-1.0431082e-07
-1.9327759e-06
-1.0524252e-07
-1.8552573e-06
-1.0615566e-07
-1.7771022e-06
-1.0705161e-07
-1.6983213e-06
-1.0793159e-07
-1.6189244e-06
-1.0879695e-07
-1.5389203e-06
-1.09649e-07
-1.4583168e-06
-1.1048902e-07
-1.3771211e-06
-1.1131805e-07
-1.2953396e-06
-1.1213701e-07
-1.2129784e-06
-1.1294661e-07
-1.1300429e-06
-1.1374731e-07
-1.0465387e-06
-1.1453904e-07
-9.6247188e-07
-1.1532105e-07
-8.7784936e-07
-1.1609122e-07
-7.9268062e-07
-1.1684502e-07
-7.0697931e-07
-1.1757368e-07
-6.2076575e-07
-1.1826139e-07
-5.3406876e-07
-1.1888203e-07
-4.4692198e-07
-1.1939951e-07
-3.5934173e-07
-1.1978718e-07
-2.7125581e-07
-1.201173e-07
-1.823501e-07
-1.2082977e-07
-9.2018873e-08
-1.232827e-07
-1.2980965e-07
-1.8150103e-09
2.5644776e-09
-7.2492427e-09
8.1781624e-09
-1.6395456e-08
1.4163407e-08
-2.932427e-08
2.055995e-08
-4.6092736e-08
2.7114721e-08
-6.6732662e-08
3.3697568e-08
-9.1253311e-08
4.0285638e-08
-1.1965411e-07
4.6878481e-08
-1.5193046e-07
5.3484652e-08
-1.8807599e-07
6.0114072e-08
-2.280832e-07
6.6774478e-08
-2.7194315e-07
7.3470483e-08
-3.1964487e-07
8.0203723e-08
-3.7117452e-07
8.6973218e-08
-4.2651473e-07
9.3775699e-08
-4.8564378e-07
1.0060582e-07
-5.48535e-07
1.0745637e-07
-6.1515611e-07
1.1431834e-07
-6.8546862e-07
1.2118111e-07
-7.5942728e-07
1.2803248e-07
-8.3697958e-07
1.3485882e-07
-9.180653e-07
1.4164516e-07
-1.0026161e-06
1.4837534e-07
-1.0905551e-06
1.5503203e-07
-1.1817968e-06
1.6159688e-07
-1.2762466e-06
1.6805069e-07
-1.3738008e-06
1.7437347e-07
-1.4743463e-06
1.8054471e-07
-1.5777609e-06
1.8654343e-07
-1.6839129e-06
1.923484e-07
-1.7926616e-06
1.9793833e-07
-1.9038571e-06
2.0329198e-07
-2.017341e-06
2.0838837e-07
-2.1329463e-06
2.1320693e-07
-2.2504979e-06
2.1772767e-07
-2.3698132e-06
2.2193132e-07
-2.4907026e-06
2.2579955e-07
-2.6129697e-06
2.2931499e-07
-2.7364123e-06
2.3246152e-07
-2.8608232e-06
2.3522425e-07
-2.9859905e-06
2.3758974e-07
-3.1116983e-06
2.3954601e-07
-3.237728e-06
2.4108268e-07
-3.3638588e-06
2.4219106e-07
-3.4898683e-06
2.4286412e-07
-3.6155336e-06
2.4309662e-07
-3.7406321e-06
2.4288511e-07
-3.8649422e-06
2.4222791e-07
-3.9882443e-06
2.4112516e-07
-4.1103213e-06
2.3957879e-07
-4.2309597e-06
2.3759244e-07
-4.3499502e-06
2.3517154e-07
-4.4670884e-06
2.3232309e-07
-4.5821755e-06
2.2905575e-07
-4.6950189e-06
2.2537967e-07
-4.8054331e-06
2.2130645e-07
-4.9132397e-06
2.1684904e-07
-5.0182684e-06
2.1202158e-07
-5.1203571e-06
2.0683942e-07
-5.2193526e-06
2.0131888e-07
-5.3151108e-06
1.9547721e-07
-5.4074969e-06
1.8933242e-07
-5.4963856e-06
1.8290327e-07
-5.5816617e-06
1.7620897e-07
-5.6632197e-06
1.6926926e-07
-5.740964e-06
1.6210415e-07
-5.8148092e-06
1.5473385e-07
-5.8846798e-06
1.4717873e-07
-5.9505102e-06
1.3945912e-07
-6.0122445e-06
1.3159524e-07
-6.0698366e-06
1.236072e-07
-6.1232496e-06
1.1551476e-07
-6.1724561e-06
1.0733732e-07
-6.2174374e-06
9.9093836e-08
-6.2581836e-06
9.0802653e-08
-6.2946927e-06
8.248159e-08
-6.3269712e-06
7.4147829e-08
-6.3550327e-06
6.5817953e-08
-6.3788985e-06
5.7508028e-08
-6.3985964e-06
4.923352e-08
-6.4141611e-06
4.1009368e-08
-6.4256336e-06
3.2850089e-08
-6.4330619e-06
2.4769504e-08
-6.4365001e-06
1.6778751e-08
-6.4360064e-06
8.880656e-09
-6.4317242e-06
1.1373711e-09
-6.4235964e-06
-6.6695865e-09
-6.4116227e-06
-1.4298355e-08
-6.3959073e-06
-2.1753957e-08
-6.3765945e-06
-2.90554e-08
-6.353759e-06
-3.6210294e-08
-6.3274728e-06
-4.3220835e-08
-6.2978121e-06
-5.0081542e-08
-6.264856e-06
-5.6787737e-08
-6.2286853e-06
-6.3336003e-08
-6.1893817e-06
-6.9723816e-08
-6.1470279e-06
-7.5949372e-08
-6.1017066e-06
-8.2011507e-08
-6.0535004e-06
-8.7909696e-08
-6.0024919e-06
-9.3643903e-08
-5.948763e-06
-9.9214518e-08
-5.8923949e-06
-1.0462253e-07
-5.8334681e-06
-1.0986915e-07
-5.7720619e-06
-1.1495616e-07
-5.7082543e-06
-1.1988557e-07
-5.6421223e-06
-1.2465976e-07
-5.5737411e-06
-1.2928141e-07
-5.5031843e-06
-1.3375341e-07
-5.4305239e-06
-1.3807897e-07
-5.3558302e-06
-1.4226144e-07
-5.2791714e-06
-1.4630438e-07
-5.2006139e-06
-1.5021148e-07
-5.1202222e-06
-1.5398663e-07
-5.0380585e-06
-1.5763378e-07
-4.9541831e-06
-1.61157e-07
-4.8686543e-06
-1.6456041e-07
-4.7815279e-06
-1.6784822e-07
-4.692858e-06
-1.7102473e-07
-4.6026962e-06
-1.7409414e-07
-4.5110922e-06
-1.7706074e-07
-4.4180933e-06
-1.7992887e-07
-4.323745e-06
-1.8270277e-07
-4.2280903e-06
-1.8538667e-07
-4.1311704e-06
-1.8798479e-07
-4.0330243e-06
-1.9050134e-07
-3.933689e-06
-1.9294042e-07
-3.8331995e-06
-1.9530609e-07
-3.7315887e-06
-1.9760231e-07
-3.6288879e-06
-1.9983302e-07
-3.525126e-06
-2.020021e-07
-3.4203306e-06
-2.0411328e-07
-3.314527e-06
-2.0617023e-07
-3.2077392e-06
-2.0817649e-07
-3.0999891e-06
-2.1013561e-07
-2.9912972e-06
-2.1205087e-07
-2.8816824e-06
-2.1392562e-07
-2.771162e-06
-2.1576294e-07
-2.6597518e-06
-2.1756585e-07
-2.5474662e-06
-2.1933722e-07
-2.4343181e-06
-2.210797e-07
-2.3203191e-06
-2.2279596e-07
-2.2054796e-06
-2.2448846e-07
-2.089809e-06
-2.2615959e-07
-1.9733156e-06
-2.2781146e-07
-1.8560067e-06
-2.2944597e-07
-1.7378888e-06
-2.3106457e-07
-1.6189676e-06
-2.3266846e-07
-1.4992486e-06
-2.3425806e-07
-1.378737e-06
-2.3583264e-07
-1.2574382e-06
-2.3738999e-07
-1.1353582e-06
-2.3892498e-07
-1.0125037e-06
-2.4042821e-07
-8.8888097e-07
-2.4188414e-07
-7.6449206e-07
-2.4327098e-07
-6.3932386e-07
-2.445677e-07
-5.1332562e-07
-2.4578543e-07
-3.8638085e-07
-2.4706207e-07
-2.5833303e-07
-2.4887759e-07
-1.2922884e-07
-2.523869e-07
-2.5903848e-07
-2.5096375e-09
5.0741151e-09
-9.9258885e-09
1.5594414e-08
-2.2244963e-08
2.6482481e-08
-3.9450714e-08
3.7765701e-08
-6.1572467e-08
4.9236475e-08
-8.8642265e-08
6.0767365e-08
-1.206736e-07
7.2316975e-08
-1.5766584e-07
8.3870717e-08
-1.9960826e-07
9.542707e-08
-2.4648265e-07
1.0698847e-07
-2.9826487e-07
1.1855669e-07
-3.5492543e-07
1.3013105e-07
-4.1642965e-07
1.4170794e-07
-4.8273729e-07
1.5328085e-07
-5.5380218e-07
1.6484059e-07
-6.2957174e-07
1.7637538e-07
-7.0998642e-07
1.8787105e-07
-7.9497921e-07
1.9931114e-07
-8.8447521e-07
2.1067711e-07
-9.7839108e-07
2.2194835e-07
-1.0766347e-06
2.3310246e-07
-1.1791048e-06
2.4411529e-07
-1.2856907e-06
2.549612e-07
-1.3962718e-06
2.6561315e-07
-1.5107178e-06
2.760429e-07
-1.6288884e-06
2.8622124e-07
-1.750633e-06
2.9611813e-07
-1.8757913e-06
3.0570301e-07
-2.0041929e-06
3.1494496e-07
-2.1356575e-06
3.23813e-07
-2.2699954e-06
3.3227624e-07
-2.4070076e-06
3.4030424e-07
-2.5464864e-06
3.4786715e-07
-2.6882155e-06
3.5493601e-07
-2.8319708e-06
3.6148293e-07
-2.9775208e-06
3.6748136e-07
-3.1246275e-06
3.7290627e-07
-3.2730469e-06
3.7773439e-07
-3.4225298e-06
3.8194435e-07
-3.5728224e-06
3.8551685e-07
-3.7236675e-06
3.8843487e-07
-3.8748052e-06
3.906837e-07
-4.0259736e-06
3.9225113e-07
-4.1769101e-06
3.9312751e-07
-4.3273518e-06
3.933058e-07
-4.4770368e-06
3.9278165e-07
-4.6257051e-06
3.9155337e-07
-4.7730992e-06
3.8962203e-07
-4.9189653e-06
3.8699132e-07
-5.0630542e-06
3.8366763e-07
-5.2051216e-06
3.7965988e-07
-5.3449296e-06
3.7497952e-07
-5.4822469e-06
3.6964043e-07
-5.6168499e-06
3.6365876e-07
-5.7485232e-06
3.5705289e-07
-5.8770599e-06
3.4984319e-07
-6.0022629e-06
3.4205198e-07
-6.1239445e-06
3.3370325e-07
-6.2419277e-06
3.2482264e-07
-6.356046e-06
3.1543711e-07
-6.4661437e-06
3.0557491e-07
-6.5720765e-06
2.952653e-07
-6.6737116e-06
2.8453837e-07
-6.7709276e-06
2.7342496e-07
-6.8636148e-06
2.619564e-07
-6.9516749e-06
2.5016433e-07
-7.0350216e-06
2.3808054e-07
-7.1135798e-06
2.2573691e-07
-7.1872858e-06
2.1316512e-07
-7.2560872e-06
2.0039656e-07
-7.3199422e-06
1.8746226e-07
-7.3788201e-06
1.7439262e-07
-7.4327002e-06
1.6121739e-07
-7.4815718e-06
1.4796551e-07
-7.5254341e-06
1.3466493e-07
-7.5642952e-06
1.2134269e-07
-7.5981722e-06
1.0802477e-07
-7.6270903e-06
9.4736129e-08
-7.6510831e-06
8.150075e-08
-7.6701912e-06
6.8341698e-08
-7.684463e-06
5.5281147e-08
-7.6939535e-06
4.2340601e-08
-7.6987257e-06
2.9541692e-08
-7.6988572e-06
1.6910266e-08
-7.6944717e-06
4.4951772e-09
-7.6854218e-06
-7.9125462e-09
-7.671979e-06
-2.0112406e-08
-7.654214e-06
-3.2063324e-08
-7.6321851e-06
-4.3782937e-08
-7.605971e-06
-5.5269435e-08
-7.5756646e-06
-6.6516718e-08
-7.5413639e-06
-7.7521534e-08
-7.5031661e-06
-8.8279344e-08
-7.4611682e-06
-9.8785679e-08
-7.4154674e-06
-1.0903682e-07
-7.3661613e-06
-1.1902992e-07
-7.3133476e-06
-1.2876305e-07
-7.257124e-06
-1.382351e-07
-7.1975878e-06
-1.4744587e-07
-7.1348358e-06
-1.5639593e-07
-7.0689639e-06
-1.6508645e-07
-7.000067e-06
-1.7351943e-07
-6.9282387e-06
-1.8169738e-07
-6.8535715e-06
-1.8962341e-07
-6.7761559e-06
-1.9730115e-07
-6.696081e-06
-2.0473469e-07
-6.6134338e-06
-2.1192857e-07
-6.5282995e-06
-2.188877e-07
-6.4407611e-06
-2.2561731e-07
-6.3508996e-06
-2.32123e-07
-6.2587934e-06
-2.3841056e-07
-6.1645189e-06
-2.44486e-07
-6.0681499e-06
-2.5035562e-07
-5.9697579e-06
-2.5602579e-07
-5.8694118e-06
-2.6150303e-07
-5.7671782e-06
-2.6679402e-07
-5.663121e-06
-2.7190546e-07
-5.5573016e-06
-2.7684409e-07
-5.449779e-06
-2.816167e-07
-5.3406096e-06
-2.8623015e-07
-5.2298474e-06
-2.9069117e-07
-5.1175436e-06
-2.9500656e-07
-5.0037472e-06
-2.9918301e-07
-4.8885048e-06
-3.0322718e-07
-4.7718605e-06
-3.0714567e-07
-4.653856e-06
-3.1094493e-07
-4.5345306e-06
-3.1463139e-07
-4.4139216e-06
-3.182113e-07
-4.2920638e-06
-3.2169082e-07
-4.16899e-06
-3.2507599e-07
-4.0447305e-06
-3.2837268e-07
-3.9193141e-06
-3.3158665e-07
-3.792767e-06
-3.3472352e-07
-3.6651139e-06
-3.377887e-07
-3.5363774e-06
-3.4078747e-07
-3.406578e-06
-3.4372496e-07
-3.2757349e-06
-3.4660604e-07
-3.1438653e-06
-3.4943545e-07
-3.0109848e-06
-3.5221776e-07
-2.8771073e-06
-3.5495722e-07
-2.7422453e-06
-3.5765801e-07
-2.6064097e-06
-3.6032405e-07
-2.4696102e-06
-3.6295902e-07
-2.3318554e-06
-3.6556628e-07
-2.1931524e-06
-3.6814892e-07
-2.0535075e-06
-3.7070953e-07
-1.9129257e-06
-3.7325023e-07
-1.7714114e-06
-3.7577235e-07
-1.628968e-06
-3.7827611e-07
-1.4855978e-06
-3.8076016e-07
-1.341302e-06
-3.8322082e-07
-1.1960788e-06
-3.8565134e-07
-1.0499214e-06
-3.8804156e-07
-9.0281201e-07
-3.9038038e-07
-7.5471359e-07
-3.9266608e-07
-6.0556215e-07
-3.9493687e-07
-4.5527994e-07
-3.9734429e-07
-3.0387346e-07
-4.0028408e-07
-1.5172254e-07
-4.045378e-07
-4.1076106e-07
-2.8999021e-09
7.974017e-09
-1.1474133e-08
2.4168644e-08
-2.5664588e-08
4.0672936e-08
-4.5410287e-08
5.75114e-08
-7.0712135e-08
7.4538324e-08
-1.0158986e-07
9.1645093e-08
-1.3805337e-07
1.0878048e-07
-1.801e-07
1.2591734e-07
-2.2771528e-07
1.4304235e-07
-2.8087454e-07
1.6014773e-07
-3.3954435e-07
1.7722651e-07
-4.0368347e-07
1.9427016e-07
-4.7324322e-07
2.1126769e-07
-5.4816757e-07
2.2820521e-07
-6.2839295e-07
2.4506596e-07
-7.1384789e-07
2.6183032e-07
-8.0445271e-07
2.7847587e-07
-9.0011913e-07
2.9497756e-07
-1.0007498e-06
3.113078e-07
-1.1062381e-06
3.2743664e-07
-1.2164676e-06
3.4333196e-07
-1.3313119e-06
3.5895961e-07
-1.4506344e-06
3.742837e-07
-1.5742881e-06
3.8926676e-07
-1.7021152e-06
4.0387006e-07
-1.8339478e-06
4.1805378e-07
-1.969607e-06
4.317774e-07
-2.1089039e-06
4.4499988e-07
-2.251639e-06
4.5768007e-07
-2.397603e-06
4.6977695e-07
-2.5465767e-06
4.8124999e-07
-2.6983319e-06
4.9205942e-07
-2.8526313e-06
5.0216658e-07
-3.0092295e-06
5.115342e-07
-3.1678733e-06
5.2012674e-07
-3.3283026e-06
5.2791061e-07
-3.4902508e-06
5.348545e-07
-3.653446e-06
5.409296e-07
-3.8176115e-06
5.4610987e-07
-3.9824669e-06
5.5037218e-07
-4.1477286e-06
5.5369658e-07
-4.3131113e-06
5.5606639e-07
-4.4783285e-06
5.5746832e-07
-4.6430936e-06
5.5789267e-07
-4.8071211e-06
5.5733326e-07
-4.970127e-06
5.557876e-07
-5.1318305e-06
5.5325683e-07
-5.2919542e-06
5.4974576e-07
-5.4502256e-06
5.4526276e-07
-5.6063778e-06
5.3981976e-07
-5.76015e-06
5.3343211e-07
-5.911289e-06
5.2611854e-07
-6.0595495e-06
5.1790088e-07
-6.2046948e-06
5.0880405e-07
-6.3464976e-06
4.9885578e-07
-6.4847409e-06
4.8808647e-07
-6.6192179e-06
4.7652895e-07
-6.749733e-06
4.642183e-07
-6.8761018e-06
4.5119153e-07
-6.9981522e-06
4.3748748e-07
-7.1157238e-06
4.2314644e-07
-7.2286685e-06
4.0821e-07
-7.3368508e-06
3.9272074e-07
-7.4401479e-06
3.7672206e-07
-7.5384494e-06
3.6025786e-07
-7.6316574e-06
3.4337239e-07
-7.7196868e-06
3.2610993e-07
-7.8024646e-06
3.0851469e-07
-7.87993e-06
2.9063051e-07
-7.9520341e-06
2.725007e-07
-8.0187398e-06
2.5416788e-07
-8.0800209e-06
2.3567378e-07
-8.1358626e-06
2.1705907e-07
-8.1862603e-06
1.983632e-07
-8.2312196e-06
1.7962426e-07
-8.2707559e-06
1.6087895e-07
-8.3048936e-06
1.4216246e-07
-8.3336659e-06
1.2350848e-07
-8.3571145e-06
1.0494927e-07
-8.3752885e-06
8.6515755e-08
-8.3882452e-06
6.8237797e-08
-8.3960496e-06
5.0144988e-08
-8.3987758e-06
3.2267946e-08
-8.3965091e-06
1.4643584e-08
-8.3892712e-06
-2.742761e-09
-8.3771706e-06
-2.0013167e-08
-8.3603353e-06
-3.6947635e-08
-8.3388373e-06
-5.3561333e-08
-8.3127706e-06
-6.9849669e-08
-8.2822327e-06
-8.580733e-08
-8.2473226e-06
-1.0142685e-07
-8.2081428e-06
-1.167013e-07
-8.1647978e-06
-1.3162435e-07
-8.117393e-06
-1.4619053e-07
-8.0660343e-06
-1.6039553e-07
-8.010828e-06
-1.742362e-07
-7.9518804e-06
-1.8771063e-07
-7.8892975e-06
-2.0081802e-07
-7.8231847e-06
-2.1355865e-07
-7.7536468e-06
-2.2593384e-07
-7.6807874e-06
-2.3794589e-07
-7.6047088e-06
-2.49598e-07
-7.525512e-06
-2.6089412e-07
-7.4432964e-06
-2.7183908e-07
-7.3581593e-06
-2.8243822e-07
-7.2701963e-06
-2.9269768e-07
-7.1795008e-06
-3.0262403e-07
-7.0861641e-06
-3.1222443e-07
-6.990275e-06
-3.2150646e-07
-6.8919199e-06
-3.3047808e-07
-6.7911828e-06
-3.3914762e-07
-6.6881451e-06
-3.475237e-07
-6.5828856e-06
-3.5561514e-07
-6.4754804e-06
-3.6343103e-07
-6.3660029e-06
-3.7098055e-07
-6.2545238e-06
-3.7827309e-07
-6.1411111e-06
-3.8531811e-07
-6.0258301e-06
-3.9212512e-07
-5.9087432e-06
-3.9870357e-07
-5.7899103e-06
-4.0506308e-07
-5.6693884e-06
-4.1121309e-07
-5.5472319e-06
-4.1716305e-07
-5.4234926e-06
-4.2292235e-07
-5.2982195e-06
-4.2850025e-07
-5.1714592e-06
-4.3390593e-07
-5.0432557e-06
-4.3914845e-07
-4.9136505e-06
-4.4423663e-07
-4.7826826e-06
-4.4917925e-07
-4.6503885e-06
-4.5398485e-07
-4.5168027e-06
-4.5866181e-07
-4.3819571e-06
-4.6321831e-07
-4.2458815e-06
-4.676623e-07
-4.1086034e-06
-4.7200158e-07
-3.9701485e-06
-4.7624367e-07
-3.83054e-06
-4.8039589e-07
-3.6897996e-06
-4.8446536e-07
-3.5479468e-06
-4.8845884e-07
-3.4049993e-06
-4.9238293e-07
-3.2609731e-06
-4.9624392e-07
-3.1158825e-06
-5.0004788e-07
-2.96974e-06
-5.0380054e-07
-2.8225566e-06
-5.0750738e-07
-2.6743421e-06
-5.111736e-07
-2.5251044e-06
-5.1480394e-07
-2.3748506e-06
-5.1840277e-07
-2.223586e-06
-5.2197406e-07
-2.0713151e-06
-5.2552112e-07
-1.9180409e-06
-5.2904663e-07
-1.7637648e-06
-5.3255218e-07
-1.6084866e-06
-5.360383e-07
-1.4522036e-06
-5.3950387e-07
-1.2949085e-06
-5.429464e-07
-1.1365876e-06
-5.4636247e-07
-9.7721633e-07
-5.4975168e-07
-8.1675633e-07
-5.531261e-07
-6.5515996e-07
-5.5653324e-07
-4.9240319e-07
-5.6010107e-07
-3.28589e-07
-5.6409828e-07
-1.641582e-07
-5.6896861e-07
-5.7491922e-07
-3.080323e-09
1.105434e-08
-1.2226066e-08
3.3314387e-08
-2.7366833e-08
5.5813703e-08
-4.8432179e-08
7.8576746e-08
-7.540419e-08
1.0151033e-07
-1.0828732e-07
1.2452822e-07
-1.4708336e-07
1.4757652e-07
-1.9178536e-07
1.7061934e-07
-2.423758e-07
1.936328e-07
-2.9882684e-07
2.1659877e-07
-3.6110101e-07
2.3950068e-07
-4.2915196e-07
2.6232111e-07
-5.0292481e-07
2.8504054e-07
-5.8235628e-07
3.0763668e-07
-6.6737459e-07
3.3008428e-07
-7.5789925e-07
3.5235498e-07
-8.5384075e-07
3.7441738e-07
-9.5510027e-07
3.9623707e-07
-1.0615693e-06
4.1777682e-07
-1.1731293e-06
4.3899669e-07
-1.2896516e-06
4.5985426e-07
-1.4109969e-06
4.8030488e-07
-1.5370151e-06
5.0030193e-07
-1.6675454e-06
5.1979707e-07
-1.802416e-06
5.3874061e-07
-1.941444e-06
5.5708181e-07
-2.0844359e-06
5.7476925e-07
-2.2311871e-06
5.9175116e-07
-2.381483e-06
6.0797588e-07
-2.5350981e-06
6.2339215e-07
-2.6917977e-06
6.3794959e-07
-2.8513373e-06
6.5159901e-07
-3.0134636e-06
6.6429287e-07
-3.177915e-06
6.759856e-07
-3.3444223e-06
6.8663398e-07
-3.5127092e-06
6.9619752e-07
-3.6824934e-06
7.0463874e-07
-3.8534874e-06
7.1192353e-07
-4.0253988e-06
7.1802137e-07
-4.1979323e-06
7.229056e-07
-4.3707894e-06
7.265537e-07
-4.5436703e-06
7.2894734e-07
-4.7162747e-06
7.3007266e-07
-4.8883023e-06
7.2992031e-07
-5.0594546e-06
7.2848554e-07
-5.2294352e-06
7.2576823e-07
-5.3979513e-06
7.2177295e-07
-5.5647144e-06
7.1650884e-07
-5.7294413e-06
7.0998961e-07
-5.8918549e-06
7.0223341e-07
-6.0516855e-06
6.9326272e-07
-6.2086712e-06
6.8310417e-07
-6.3625586e-06
6.7178834e-07
-6.5131042e-06
6.593496e-07
-6.6600742e-06
6.4582581e-07
-6.8032458e-06
6.312581e-07
-6.9424074e-06
6.1569056e-07
-7.0773591e-06
5.9917002e-07
-7.2079133e-06
5.8174568e-07
-7.3338947e-06
5.6346888e-07
-7.4551409e-06
5.4439268e-07
-7.5715026e-06
5.2457167e-07
-7.6828434e-06
5.0406154e-07
-7.7890402e-06
4.8291889e-07
-7.8899832e-06
4.6120083e-07
-7.9855755e-06
4.389647e-07
-8.0757334e-06
4.1626788e-07
-8.1603861e-06
3.9316739e-07
-8.2394753e-06
3.6971968e-07
-8.3129551e-06
3.4598047e-07
-8.3807916e-06
3.2200436e-07
-8.4429626e-06
2.9784475e-07
-8.4994571e-06
2.7355358e-07
-8.550275e-06
2.4918112e-07
-8.5954266e-06
2.2477588e-07
-8.6349321e-06
2.0038447e-07
-8.6688212e-06
1.760515e-07
-8.6971323e-06
1.5181964e-07
-8.7199125e-06
1.2772949e-07
-8.7372167e-06
1.0381995e-07
-8.7491072e-06
8.0128271e-08
-8.7556536e-06
5.6691412e-08
-8.756935e-06
3.3549274e-08
-8.7530584e-06
1.0767037e-08
-8.7439939e-06
-1.1807291e-08
-8.7299484e-06
-3.4058633e-08
-8.7109979e-06
-5.5898187e-08
-8.6872333e-06
-7.7325924e-08
-8.658751e-06
-9.8331915e-08
-8.6256536e-06
-1.1890475e-07
-8.5880465e-06
-1.3903388e-07
-8.5460378e-06
-1.5871002e-07
-8.4997369e-06
-1.779253e-07
-8.4492541e-06
-1.9667333e-07
-8.3947004e-06
-2.149492e-07
-8.336187e-06
-2.327496e-07
-8.2738249e-06
-2.5007272e-07
-8.2077247e-06
-2.6691815e-07
-8.1379965e-06
-2.832869e-07
-8.0647491e-06
-2.9918122e-07
-7.9880904e-06
-3.1460461e-07
-7.9081267e-06
-3.2956166e-07
-7.8249629e-06
-3.4405795e-07
-7.7387019e-06
-3.5810008e-07
-7.6494447e-06
-3.7169543e-07
-7.5572902e-06
-3.8485217e-07
-7.462335e-06
-3.9757922e-07
-7.3646734e-06
-4.0988605e-07
-7.2643972e-06
-4.217827e-07
-7.1615955e-06
-4.3327974e-07
-7.056355e-06
-4.4438815e-07
-6.9487595e-06
-4.5511919e-07
-6.8388902e-06
-4.654845e-07
-6.7268253e-06
-4.7549592e-07
-6.6126403e-06
-4.8516551e-07
-6.4964079e-06
-4.9450548e-07
-6.3781979e-06
-5.0352808e-07
-6.2580773e-06
-5.1224573e-07
-6.1361101e-06
-5.2067079e-07
-6.0123576e-06
-5.2881557e-07
-5.8868783e-06
-5.3669242e-07
-5.7597277e-06
-5.4431361e-07
-5.6309588e-06
-5.5169123e-07
-5.5006218e-06
-5.5883726e-07
-5.3687642e-06
-5.6576361e-07
-5.2354307e-06
-5.724819e-07
-5.1006637e-06
-5.7900361e-07
-4.9645029e-06
-5.8534005e-07
-4.8269856e-06
-5.9150221e-07
-4.6881465e-06
-5.9750089e-07
-4.5480181e-06
-6.0334667e-07
-4.4066306e-06
-6.0904978e-07
-4.2640119e-06
-6.1462026e-07
-4.1201878e-06
-6.2006782e-07
-3.9751818e-06
-6.2540187e-07
-3.8290156e-06
-6.3063156e-07
-3.6817088e-06
-6.3576563e-07
-3.5332792e-06
-6.4081257e-07
-3.3837425e-06
-6.4578058e-07
-3.233113e-06
-6.5067744e-07
-3.081403e-06
-6.5551056e-07
-2.9286233e-06
-6.6028707e-07
-2.7747832e-06
-6.6501366e-07
-2.6198905e-06
-6.6969669e-07
-2.4639514e-06
-6.7434189e-07
-2.3069708e-06
-6.7895465e-07
-2.1489521e-06
-6.8353977e-07
-1.9898974e-06
-6.8810136e-07
-1.8298068e-06
-6.926428e-07
-1.6686783e-06
-6.9716677e-07
-1.5065072e-06
-7.0167503e-07
-1.3432844e-06
-7.0616915e-07
-1.1789953e-06
-7.1065152e-07
-1.0136182e-06
-7.1512881e-07
-8.4712515e-07
-7.1961917e-07
-6.7949216e-07
-7.2416625e-07
-5.1073139e-07
-7.2886182e-07
-3.4096475e-07
-7.3386491e-07
-1.7053861e-07
-7.3939475e-07
-7.4545783e-07
-3.1477734e-09
1.4202113e-08
-1.2531927e-08
4.2698541e-08
-2.8093094e-08
7.137487e-08
-4.9770667e-08
1.0025432e-07
-7.7538789e-08
1.2927846e-07
-1.1139001e-07
1.5837944e-07
-1.5131778e-07
1.8750429e-07
-1.9731016e-07
2.1661173e-07
-2.4934692e-07
2.4566955e-07
-3.0739859e-07
2.7465044e-07
-3.7142655e-07
3.0352864e-07
-4.4138318e-07
3.3227773e-07
-5.17212e-07
3.6086936e-07
-5.9884773e-07
3.8927241e-07
-6.8621613e-07
4.1745267e-07
-7.7923377e-07
4.4537262e-07
-8.7780777e-07
4.7299137e-07
-9.8183547e-07
5.0026477e-07
-1.0912041e-06
5.2714548e-07
-1.2057906e-06
5.5358315e-07
-1.3254611e-06
5.7952472e-07
-1.4500708e-06
6.0491459e-07
-1.5794639e-06
6.2969504e-07
-1.7134733e-06
6.5380651e-07
-1.8519207e-06
6.7718798e-07
-1.9946163e-06
6.9977742e-07
-2.1413592e-06
7.2151219e-07
-2.2919375e-06
7.4232947e-07
-2.4461284e-06
7.6216676e-07
-2.6036986e-06
7.8096231e-07
-2.7644046e-06
7.9865561e-07
-2.9279934e-06
8.1518784e-07
-3.0942029e-06
8.3050235e-07
-3.2627624e-06
8.4454511e-07
-3.4333936e-06
8.5726513e-07
-3.605811e-06
8.6861488e-07
-3.7797229e-06
8.7855069e-07
-3.9548324e-06
8.8703308e-07