/*--------------------------------*- C++ -*----------------------------------*\
| =========                 |                                                 |
| \\      /  F ield         | OpenFOAM: The Open Source CFD Toolbox           |
|  \\    /   O peration     | Version:  2306                                  |
|   \\  /    A nd           | Website:  www.openfoam.com                      |
|    \\/     M anipulation  |                                                 |
\*---------------------------------------------------------------------------*/
FoamFile
{
    version     2.0;
    format      ascii;
    arch        "LSB;label=32;scalar=64";
    class       volVectorField;
    location    "0.37";
    object      U_0;
}
// * * * * * * * * * * * * * * * * * * * * * * * * * * * * * * * * * * * * * //

dimensions      [0 1 -1 0 0 0 0];

internalField   nonuniform List<vector> 
51200
(
(3.2218121e-06 -1.4658158e-05 2.7363916e-21)
(1.9192109e-06 -1.1195001e-05 -1.2209218e-21)
(-1.0677093e-06 -1.0050327e-05 -4.3331978e-21)
(-5.1041013e-06 -8.9910343e-06 1.4496139e-20)
(-1.0859976e-05 -8.3259602e-06 1.7326971e-20)
(-1.7040428e-05 -7.9975955e-06 -9.2914402e-21)
(-2.3473125e-05 -7.776138e-06 -4.9408021e-21)
(-3.0053191e-05 -7.5989387e-06 1.0600289e-20)
(-3.6763082e-05 -7.4350279e-06 1.5065592e-20)
(-4.36155e-05 -7.2696129e-06 -2.2392283e-21)
(-5.0635881e-05 -7.0966798e-06 -1.9411947e-22)
(-5.7853753e-05 -6.9141121e-06 3.9867391e-20)
(-6.5296917e-05 -6.7212149e-06 2.6950738e-20)
(-7.2989515e-05 -6.5179924e-06 -1.7723223e-20)
(-8.0951964e-05 -6.3048379e-06 -1.5810267e-20)
(-8.9201094e-05 -6.0823609e-06 2.2844474e-20)
(-9.7750276e-05 -5.8513223e-06 4.9330534e-20)
(-0.00010660959 -5.6125578e-06 -1.173913e-21)
(-0.00011578597 -5.366965e-06 -3.5681909e-20)
(-0.00012528336 -5.1154697e-06 4.9206502e-22)
(-0.0001351028 -4.859021e-06 9.4091487e-21)
(-0.00014524255 -4.5985705e-06 1.6145612e-20)
(-0.00015569825 -4.3350715e-06 6.701697e-20)
(-0.00016646295 -4.0694759e-06 1.0571626e-19)
(-0.00017752721 -3.8027422e-06 9.792205e-20)
(-0.00018887923 -3.5358019e-06 -1.2621197e-19)
(-0.00020050491 -3.2695782e-06 -3.1023378e-19)
(-0.000212388 -3.0049576e-06 -9.4499776e-20)
(-0.00022451023 -2.7428004e-06 1.0139331e-19)
(-0.00023685143 -2.4839269e-06 1.9124806e-19)
(-0.00024938971 -2.2291286e-06 1.5478279e-19)
(-0.00026210158 -1.9791441e-06 -6.9410586e-20)
(-0.00027496213 -1.7346699e-06 -7.5079149e-20)
(-0.00028794519 -1.4963563e-06 -1.5121401e-19)
(-0.00030102348 -1.2648103e-06 -9.7941824e-20)
(-0.0003141688 -1.0405835e-06 2.1244758e-19)
(-0.00032735219 -8.2417674e-07 -6.1266296e-20)
(-0.00034054413 -6.1603165e-07 -4.6096827e-19)
(-0.00035371466 -4.1654487e-07 1.4274755e-19)
(-0.00036683361 -2.2606039e-07 6.0525632e-19)
(-0.00037987071 -4.4860046e-08 1.0251421e-19)
(-0.00039279584 1.268197e-07 -2.6077987e-19)
(-0.00040557907 2.8879784e-07 -1.7562319e-19)
(-0.00041819095 4.4094304e-07 -5.129623e-20)
(-0.00043060253 5.8317698e-07 1.8959627e-19)
(-0.0004427856 7.1546548e-07 4.9205984e-19)
(-0.00045471276 8.3782158e-07 -2.0266667e-19)
(-0.00046635759 9.5030311e-07 -2.4326476e-19)
(-0.0004776947 1.0530048e-06 -1.6546182e-19)
(-0.00048869991 1.1460727e-06 -7.9059384e-19)
(-0.00049935028 1.229681e-06 3.6682536e-19)
(-0.00050962425 1.3040367e-06 6.4011246e-19)
(-0.00051950167 1.3693812e-06 8.8673859e-20)
(-0.00052896386 1.4259856e-06 2.2785389e-19)
(-0.00053799368 1.4741412e-06 -7.1793713e-19)
(-0.0005465756 1.5141685e-06 -5.7117562e-19)
(-0.00055469564 1.5464025e-06 5.1293613e-19)
(-0.00056234148 1.5711976e-06 2.0979777e-19)
(-0.00056950242 1.588924e-06 -5.0233952e-20)
(-0.0005761694 1.5999535e-06 8.8747374e-20)
(-0.00058233495 1.6046794e-06 -5.0464879e-20)
(-0.00058799323 1.6034917e-06 6.8823211e-20)
(-0.00059313996 1.5967807e-06 -3.9985898e-20)
(-0.00059777238 1.5849523e-06 -4.1522866e-19)
(-0.00060188926 1.5683952e-06 -5.3388943e-19)
(-0.00060549077 1.5474992e-06 9.666988e-20)
(-0.00060857849 1.5226564e-06 9.0262224e-19)
(-0.00061115535 1.4942428e-06 8.0492117e-21)
(-0.0006132255 1.4626301e-06 -3.7377035e-19)
(-0.00061479434 1.4281783e-06 4.6185465e-19)
(-0.00061586835 1.3912325e-06 -6.8451668e-20)
(-0.00061645512 1.3521322e-06 -2.9745873e-19)
(-0.00061656318 1.3112005e-06 1.3228356e-19)
(-0.00061620198 1.2687378e-06 1.6814859e-19)
(-0.00061538182 1.2250289e-06 2.0369029e-19)
(-0.0006141137 1.1803473e-06 -3.4717982e-19)
(-0.00061240933 1.1349447e-06 -3.6890906e-19)
(-0.00061028099 1.0890606e-06 2.6302427e-19)
(-0.00060774158 1.0429408e-06 3.7000718e-19)
(-0.00060480451 9.968399e-07 -2.0399519e-19)
(-0.00060148376 9.5105046e-07 -6.8532631e-19)
(-0.00059779387 9.0592019e-07 3.0402734e-19)
(-0.00059374985 8.6184677e-07 5.5356404e-19)
(-0.00058936695 8.1925403e-07 -9.2039171e-21)
(-0.00058465999 7.7846516e-07 1.4732303e-19)
(-0.00057964294 7.4009962e-07 -2.1806347e-19)
(-0.00057432631 7.1045843e-07 4.1873029e-20)
(-0.0005687199 7.0026103e-07 2.2530314e-20)
(-0.00056283295 6.9822045e-07 -4.2850408e-19)
(-0.0005566696 6.8056773e-07 6.2148766e-20)
(-0.0005502687 6.2095209e-07 -2.8229943e-19)
(-0.0005436623 5.5354417e-07 -1.7046493e-19)
(-0.00053684825 4.8727582e-07 4.2746056e-19)
(-0.00052983567 4.2425139e-07 2.3500882e-19)
(-0.00052263666 3.6477275e-07 -6.3646463e-20)
(-0.00051526388 3.0860398e-07 -4.1928178e-19)
(-0.00050772985 2.5542876e-07 7.8452207e-20)
(-0.00050004683 2.0498399e-07 3.7204953e-19)
(-0.00049222669 1.5705419e-07 1.6122685e-19)
(-0.00048428093 1.1148752e-07 -1.4727536e-19)
(-0.00047622062 6.8154443e-08 -4.7550472e-19)
(-0.00046805645 2.6941301e-08 1.384055e-19)
(-0.00045979868 -1.2231531e-08 2.4834862e-19)
(-0.00045145719 -4.9449425e-08 1.1230399e-19)
(-0.00044304141 -8.4777889e-08 -5.3436477e-20)
(-0.00043456039 -1.1829379e-07 -4.8655018e-19)
(-0.00042602276 -1.5006589e-07 1.2219173e-19)
(-0.00041743676 -1.8014727e-07 3.4582702e-19)
(-0.00040881021 -2.0861007e-07 6.5092313e-20)
(-0.00040015055 -2.3550562e-07 4.040562e-20)
(-0.00039146482 -2.6090414e-07 -3.5677554e-19)
(-0.00038275971 -2.8485739e-07 -1.7436007e-19)
(-0.0003740415 -3.0742535e-07 2.3367792e-19)
(-0.00036531613 -3.2866814e-07 8.5311929e-20)
(-0.00035658917 -3.4864011e-07 3.3159691e-20)
(-0.00034786586 -3.6739982e-07 -7.1015307e-20)
(-0.00033915109 -3.8499671e-07 5.6207975e-21)
(-0.00033044945 -4.0148666e-07 1.1575951e-19)
(-0.00032176518 -4.169246e-07 -1.5770795e-20)
(-0.00031310226 -4.3135545e-07 -5.0629108e-21)
(-0.00030446433 -4.4483731e-07 -8.3113863e-20)
(-0.00029585479 -4.5741337e-07 -1.9752115e-21)
(-0.00028727675 -4.6913234e-07 1.0059182e-19)
(-0.00027873307 -4.8004258e-07 3.1866919e-20)
(-0.00027022636 -4.9018437e-07 -3.3958392e-20)
(-0.00026175898 -4.9960534e-07 -1.6311376e-19)
(-0.00025333308 -5.0833866e-07 -1.2490117e-20)
(-0.00024495059 -5.1643978e-07 1.4004367e-19)
(-0.00023661324 -5.2393608e-07 4.8759962e-20)
(-0.00022832255 -5.3086158e-07 -4.3048376e-20)
(-0.00022007987 -5.3726031e-07 -8.6937675e-20)
(-0.00021188637 -5.4315341e-07 2.1315664e-20)
(-0.00020374306 -5.4857911e-07 7.0896883e-20)
(-0.00019565077 -5.5356195e-07 -2.1653274e-20)
(-0.00018761021 -5.5811763e-07 -8.3384745e-20)
(-0.00017962194 -5.6226932e-07 -2.4964365e-20)
(-0.0001716864 -5.6602059e-07 7.0562748e-20)
(-0.0001638039 -5.6938054e-07 3.602163e-20)
(-0.00015597465 -5.7234058e-07 6.5217012e-21)
(-0.00014819874 -5.7488684e-07 -3.0571283e-21)
(-0.00014047619 -5.7704166e-07 -3.4395901e-20)
(-0.00013280693 -5.7881788e-07 2.6096122e-20)
(-0.00012519082 -5.8024265e-07 2.0749672e-20)
(-0.00011762763 -5.8133797e-07 -1.2682083e-20)
(-0.00011011709 -5.8212291e-07 4.71562e-21)
(-0.00010265888 -5.826084e-07 -5.3848867e-20)
(-9.5252655e-05 -5.8280224e-07 -1.2991439e-20)
(-8.7898082e-05 -5.8270701e-07 6.2812405e-20)
(-8.0594872e-05 -5.8229801e-07 2.0988339e-20)
(-7.3342878e-05 -5.8151616e-07 -2.1371759e-20)
(-6.6142262e-05 -5.8021123e-07 -3.6492686e-20)
(-5.8993837e-05 -5.7802883e-07 -5.0165248e-21)
(-5.1899747e-05 -5.7414603e-07 2.8382301e-20)
(-4.4864836e-05 -5.6673718e-07 8.7072842e-21)
(-3.7899068e-05 -5.519499e-07 -5.0867901e-21)
(-3.1020865e-05 -5.2297136e-07 -1.0310958e-20)
(-2.4258707e-05 -4.7317434e-07 -4.6381186e-21)
(-1.7639709e-05 -4.2249597e-07 5.1703376e-21)
(-1.1088869e-05 -5.6616098e-07 2.0228209e-21)
(-3.9202876e-06 -1.4831788e-06 -2.8528082e-21)
(-1.6475476e-05 3.8534074e-06 2.443719e-20)
(-4.2243755e-05 1.30713e-05 -3.0943472e-21)
(-7.3188804e-05 1.7465354e-05 6.6685467e-21)
(-0.00010459693 2.1724636e-05 4.9284158e-20)
(-0.00013863339 2.4583454e-05 2.9781535e-20)
(-0.00017344482 2.629863e-05 -2.2947232e-20)
(-0.00020871709 2.7451915e-05 1.7890883e-20)
(-0.00024427053 2.8319334e-05 1.1387688e-20)
(-0.0002800224 2.9047196e-05 5.7522931e-21)
(-0.0003159361 2.9714562e-05 4.1922335e-20)
(-0.00035200259 3.0361928e-05 4.4884678e-20)
(-0.00038822575 3.1009222e-05 8.267286e-20)
(-0.00042461307 3.1665824e-05 1.1216379e-19)
(-0.00046117127 3.2335342e-05 9.799795e-20)
(-0.00049790435 3.3018135e-05 4.5253479e-20)
(-0.00053481278 3.3712666e-05 7.4682312e-20)
(-0.00057189297 3.4416223e-05 1.4869476e-19)
(-0.00060913724 3.5125376e-05 2.3787096e-20)
(-0.00064653373 3.583622e-05 -1.4821507e-19)
(-0.00068406647 3.654456e-05 -8.678579e-20)
(-0.0007217155 3.7246027e-05 3.9020292e-21)
(-0.000759457 3.7936184e-05 4.7152424e-20)
(-0.00079726346 3.861056e-05 1.4873407e-19)
(-0.00083510383 3.9264681e-05 2.7570114e-19)
(-0.00087294369 3.98941e-05 1.0460093e-19)
(-0.00091074544 4.0494485e-05 -4.4342616e-19)
(-0.00094846851 4.1061618e-05 -4.721141e-19)
(-0.00098606958 4.1591476e-05 -1.8692468e-19)
(-0.0010235028 4.2080242e-05 -1.195865e-19)
(-0.0010607202 4.2524323e-05 5.2970001e-19)
(-0.0010976718 4.2920389e-05 6.3206077e-19)
(-0.0011343057 4.3265388e-05 -3.4417214e-19)
(-0.0011705691 4.3556568e-05 -6.5186224e-19)
(-0.0012064077 4.3791462e-05 -2.0477544e-19)
(-0.0012417666 4.3967943e-05 4.8487373e-19)
(-0.0012765906 4.4084197e-05 3.5262913e-19)
(-0.0013108241 4.4138743e-05 -5.6686359e-19)
(-0.0013444117 4.413045e-05 -8.2654857e-19)
(-0.0013772987 4.4058518e-05 5.0480179e-19)
(-0.0014094308 4.3922475e-05 7.6268207e-19)
(-0.0014407551 4.3722197e-05 -8.8488836e-19)
(-0.0014712198 4.3457864e-05 -2.6230523e-19)
(-0.0015007748 4.3129991e-05 1.5110395e-18)
(-0.0015293718 4.2739382e-05 2.0224866e-18)
(-0.0015569647 4.2287146e-05 -5.9709251e-20)
(-0.0015835093 4.1774659e-05 -3.1092421e-18)
(-0.0016089645 4.1203564e-05 -1.7790086e-18)
(-0.0016332913 4.0575752e-05 1.319296e-18)
(-0.0016564539 3.9893331e-05 1.3788229e-18)
(-0.0016784193 3.9158641e-05 -7.2544748e-19)
(-0.0016991577 3.837418e-05 -1.2483861e-18)
(-0.0017186424 3.7542631e-05 1.4346556e-18)
(-0.0017368498 3.6666818e-05 1.8337366e-18)
(-0.0017537601 3.5749694e-05 -3.1242279e-19)
(-0.0017693563 3.4794303e-05 -1.1799284e-18)
(-0.0017836251 3.3803793e-05 -1.2916619e-18)
(-0.0017965565 3.2781355e-05 -1.8232654e-19)
(-0.0018081438 3.1730241e-05 1.325765e-18)
(-0.0018183835 3.0653702e-05 5.3418213e-19)
(-0.0018272755 2.955501e-05 -1.2794835e-18)
(-0.0018348229 2.8437412e-05 -4.926558e-19)
(-0.0018410316 2.7304132e-05 1.4113626e-18)
(-0.0018459107 2.6158326e-05 3.606713e-19)
(-0.0018494721 2.5003118e-05 -1.7507682e-18)
(-0.0018517304 2.3841528e-05 -1.0042154e-18)
(-0.0018527027 2.2676499e-05 1.0468637e-18)
(-0.0018524088 2.1510872e-05 1.3474099e-18)
(-0.0018508705 2.0347388e-05 3.0654572e-19)
(-0.001848112 1.9188657e-05 -7.4867215e-19)
(-0.0018441592 1.8037183e-05 -1.4394994e-18)
(-0.0018390402 1.6895327e-05 1.2425595e-19)
(-0.0018327845 1.5765335e-05 1.1010378e-18)
(-0.0018254232 1.4649308e-05 7.6323791e-20)
(-0.0018169887 1.3549193e-05 2.0304012e-19)
(-0.0018075145 1.2466811e-05 4.2981584e-19)
(-0.0017970354 1.1403836e-05 1.5825878e-19)
(-0.0017855867 1.0361825e-05 -6.5589385e-19)
(-0.0017732047 9.3422373e-06 -9.1971453e-19)
(-0.0017599261 8.3464758e-06 7.2343433e-20)
(-0.0017457881 7.3758946e-06 3.9751507e-19)
(-0.0017308285 6.431838e-06 6.4999183e-20)
(-0.0017150848 5.5156142e-06 2.0701597e-19)
(-0.0016985949 4.6283584e-06 2.1997894e-19)
(-0.0016813957 3.7706653e-06 -6.3128838e-19)
(-0.0016635227 2.9421546e-06 -8.3147143e-20)
(-0.0016450047 2.1416699e-06 5.7713411e-19)
(-0.0016258658 1.3524285e-06 -3.2566241e-19)
(-0.0016061592 5.7405076e-07 2.9274078e-19)
(-0.0015859499 -1.8282207e-07 2.3822691e-19)
(-0.0015652748 -9.1557204e-07 -6.7617641e-19)
(-0.0015441333 -1.6375433e-06 -4.8025849e-19)
(-0.0015225414 -2.3321916e-06 -1.1414438e-19)
(-0.0015005481 -2.9963579e-06 4.7111429e-19)
(-0.0014781895 -3.6300726e-06 1.2191939e-19)
(-0.001455497 -4.2340996e-06 -1.5926598e-19)
(-0.0014325005 -4.8093827e-06 1.9935838e-20)
(-0.0014092287 -5.3568772e-06 1.65561e-19)
(-0.0013857089 -5.877484e-06 3.8940653e-19)
(-0.0013619678 -6.3720785e-06 -2.4660721e-19)
(-0.0013380309 -6.8414843e-06 -5.8098459e-19)
(-0.0013139227 -7.2865252e-06 -5.7261216e-20)
(-0.0012896665 -7.708012e-06 4.2851419e-19)
(-0.001265285 -8.1067377e-06 3.8006385e-19)
(-0.0012407994 -8.4835046e-06 -1.0659199e-19)
(-0.0012162302 -8.8390836e-06 -3.9027411e-19)
(-0.0011915969 -9.1742738e-06 -2.7200143e-19)
(-0.0011669177 -9.4898532e-06 2.4150152e-19)
(-0.0011422102 -9.7865825e-06 6.1132501e-19)
(-0.0011174908 -1.0065233e-05 5.8774015e-20)
(-0.0010927751 -1.0326545e-05 -4.2181044e-19)
(-0.0010680777 -1.0571278e-05 -1.8987587e-19)
(-0.0010434123 -1.0800146e-05 -1.2446762e-19)
(-0.0010187917 -1.1013876e-05 3.570149e-19)
(-0.000994228 -1.1213164e-05 4.7597058e-19)
(-0.00096973235 -1.1398699e-05 -2.3883222e-19)
(-0.00094531516 -1.1571156e-05 -4.4324491e-19)
(-0.00092098606 -1.173118e-05 -9.3696077e-20)
(-0.00089675393 -1.1879405e-05 4.042487e-19)
(-0.00087262695 -1.2016459e-05 1.2955617e-19)
(-0.00084861263 -1.2142933e-05 -4.8982465e-19)
(-0.00082471779 -1.2259411e-05 -1.5178995e-19)
(-0.00080094866 -1.2366452e-05 4.3656503e-19)
(-0.00077731083 -1.2464595e-05 3.5914202e-19)
(-0.00075380935 -1.2554368e-05 -2.2541589e-19)
(-0.00073044871 -1.2636265e-05 -5.3973094e-19)
(-0.00070723285 -1.2710777e-05 -4.8204155e-20)
(-0.00068416526 -1.2778355e-05 3.8910131e-19)
(-0.00066124892 -1.2839464e-05 2.1683278e-19)
(-0.00063848638 -1.2894516e-05 -8.0038525e-20)
(-0.00061587977 -1.2943922e-05 -2.458034e-19)
(-0.00059343082 -1.2988075e-05 -9.818893e-20)
(-0.00057114085 -1.3027343e-05 2.6776503e-19)
(-0.00054901088 -1.3062094e-05 2.70399e-19)
(-0.00052704154 -1.3092663e-05 -7.5543524e-20)
(-0.00050523319 -1.3119373e-05 -3.1514552e-19)
(-0.00048358586 -1.314255e-05 -6.3940655e-20)
(-0.00046209933 -1.3162484e-05 2.0019108e-19)
(-0.00044077313 -1.3179475e-05 8.9551674e-20)
(-0.00041960655 -1.319381e-05 -1.7880405e-20)
(-0.00039859871 -1.3205753e-05 -5.5571274e-20)
(-0.00037774855 -1.3215558e-05 -3.2668603e-20)
(-0.00035705482 -1.3223408e-05 1.2220895e-20)
(-0.0003365161 -1.3229504e-05 4.946751e-20)
(-0.00031613079 -1.3234003e-05 -2.7857477e-20)
(-0.00029589723 -1.3237047e-05 -9.9963783e-20)
(-0.00027581364 -1.3238736e-05 -2.3934099e-20)
(-0.00025587821 -1.3239141e-05 8.1008614e-20)
(-0.0002360891 -1.3238256e-05 9.3577344e-20)
(-0.00021644458 -1.323596e-05 -2.9964346e-20)
(-0.0001969431 -1.3231918e-05 -9.8201236e-20)
(-0.0001775835 -1.3225383e-05 -8.9774075e-21)
(-0.00015836532 -1.3214825e-05 6.0199142e-20)
(-0.00013928926 -1.3197271e-05 3.6938119e-20)
(-0.00012035771 -1.3167305e-05 -1.3850253e-20)
(-0.00010157489 -1.3116089e-05 -2.8213417e-20)
(-8.2944757e-05 -1.3033098e-05 -4.1045358e-21)
(-6.4461402e-05 -1.2920446e-05 1.4074505e-20)
(-4.6084078e-05 -1.2844482e-05 1.1620127e-20)
(-2.7714342e-05 -1.3056926e-05 2.6816143e-21)
(-9.2316509e-06 -1.4081774e-05 1.3043522e-21)
(-3.8239564e-05 9.2621882e-05 8.4266147e-21)
(-8.9524929e-05 0.00010388493 -3.2444966e-20)
(-0.0001480933 0.00011063057 -4.2207011e-20)
(-0.00020536453 0.00011721611 -2.6129434e-21)
(-0.00026545719 0.0001218624 1.9823079e-20)
(-0.00032611915 0.0001248852 -4.7916031e-20)
(-0.00038717174 0.00012697236 9.1564886e-21)
(-0.00044849002 0.00012852384 -6.3595621e-21)
(-0.00050997958 0.00012977587 5.7191815e-20)
(-0.00057156769 0.00013086541 1.8125598e-19)
(-0.00063320494 0.00013186863 1.0015456e-19)
(-0.00069485633 0.00013282605 1.2394072e-19)
(-0.00075649363 0.00013375785 5.5336101e-20)
(-0.00081809099 0.0001346726 1.2778021e-19)
(-0.00087962254 0.00013557207 2.0425406e-19)
(-0.0009410609 0.00013645392 8.4168449e-20)
(-0.0010023763 0.00013731331 1.0762596e-19)
(-0.0010635361 0.00013814379 -1.6450339e-20)
(-0.0011245043 0.00013893793 -1.1316427e-19)
(-0.0011852419 0.00013968768 2.4547559e-20)
(-0.0012457064 0.00014038466 8.5095345e-20)
(-0.001305852 0.00014102041 8.6104608e-20)
(-0.0013656299 0.00014158643 1.599964e-19)
(-0.0014249882 0.00014207434 1.6259438e-19)
(-0.0014838722 0.00014247593 -8.6466972e-20)
(-0.0015422246 0.00014278326 -1.7659754e-19)
(-0.001599986 0.00014298874 -1.1600923e-19)
(-0.0016570946 0.00014308524 -2.241444e-19)
(-0.0017134869 0.00014306614 -2.7853018e-19)
(-0.0017690981 0.00014292535 1.3175167e-19)
(-0.0018238621 0.00014265741 3.2185744e-19)
(-0.0018777117 0.00014225748 -1.2979621e-19)
(-0.0019305796 0.00014172143 -4.2448932e-19)
(-0.0019823982 0.00014104579 -2.5776998e-19)
(-0.0020330999 0.00014022783 2.8897368e-19)
(-0.0020826179 0.00013926556 3.9655181e-19)
(-0.002130886 0.00013815771 -1.038589e-19)
(-0.0021778396 0.00013690376 -2.0878988e-19)
(-0.0022234153 0.00013550394 -6.7731664e-20)
(-0.0022675519 0.00013395919 -3.9005308e-19)
(-0.00231019 0.00013227117 -4.8358771e-19)
(-0.0023512732 0.0001304422 5.1008101e-19)
(-0.0023907475 0.00012847528 1.1253608e-18)
(-0.002428562 0.00012637404 9.4340273e-19)
(-0.0024646692 0.0001241427 -1.7979128e-19)
(-0.0024990251 0.00012178602 -2.0607819e-18)
(-0.0025315892 0.00011930929 -9.2492153e-19)
(-0.0025623249 0.0001167183 5.9405818e-19)
(-0.0025911997 0.00011401922 8.2528254e-19)
(-0.0026181852 0.00011121865 7.8339142e-19)
(-0.0026432571 0.00010832349 -9.3924219e-19)
(-0.0026663955 0.00010534096 -1.187077e-19)
(-0.0026875847 0.00010227848 1.0282645e-18)
(-0.0027068133 9.9143683e-05 -1.0473108e-19)
(-0.0027240744 9.5944344e-05 -2.0846129e-19)
(-0.0027393652 9.2688331e-05 -3.9778147e-19)
(-0.0027526873 8.9383554e-05 -3.7474307e-19)
(-0.0027640464 8.6037931e-05 5.5815419e-19)
(-0.0027734521 8.2659331e-05 1.615161e-19)
(-0.0027809182 7.9255561e-05 -8.2325285e-19)
(-0.0027864622 7.583428e-05 -2.243565e-19)
(-0.0027901054 7.2403016e-05 6.0437491e-19)
(-0.0027918723 6.8969096e-05 8.4962669e-21)
(-0.0027917911 6.5539631e-05 -4.0170644e-19)
(-0.002789893 6.2121488e-05 3.462626e-19)
(-0.002786212 5.8721263e-05 3.9538884e-19)
(-0.0027807851 5.5345248e-05 -2.411962e-19)
(-0.0027736517 5.1999453e-05 -1.1663837e-19)
(-0.0027648537 4.8689542e-05 -1.1618028e-19)
(-0.002754435 4.5420864e-05 -6.4145023e-19)
(-0.0027424415 4.2198426e-05 -7.74072e-20)
(-0.0027289206 3.902688e-05 3.7769568e-19)
(-0.0027139214 3.5910522e-05 1.5352206e-20)
(-0.0026974943 3.2853285e-05 2.9082075e-19)
(-0.0026796906 2.9858727e-05 2.5655057e-19)
(-0.0026605626 2.6930054e-05 2.9715099e-19)
(-0.0026401631 2.4070138e-05 -1.0600996e-19)
(-0.0026185457 2.1281543e-05 -9.0570194e-19)
(-0.0025957638 1.8566576e-05 -2.7393111e-19)
(-0.0025718715 1.5927269e-05 6.6447578e-19)
(-0.0025469225 1.3365411e-05 4.1601997e-19)
(-0.0025209707 1.0882524e-05 -5.3942825e-19)
(-0.0024940702 8.4796513e-06 -4.3014178e-19)
(-0.0024662749 6.1568513e-06 -2.5728208e-19)
(-0.0024376379 3.9109779e-06 -1.7032691e-19)
(-0.0024082247 1.7300695e-06 2.8604408e-19)
(-0.0023780785 -3.6756528e-07 -1.2578543e-19)
(-0.0023472157 -2.4028736e-06 2.1803917e-19)
(-0.0023156789 -4.3718798e-06 5.7489096e-19)
(-0.0022835342 -6.2583314e-06 -2.690979e-19)
(-0.0022508411 -8.0481228e-06 -4.1433728e-19)
(-0.0022176434 -9.7574205e-06 -3.5944155e-20)
(-0.0021839831 -1.1391165e-05 1.4726559e-19)
(-0.0021499016 -1.2951671e-05 -1.4988602e-19)
(-0.0021154392 -1.4440677e-05 6.447785e-21)
(-0.0020806352 -1.5859767e-05 4.7175845e-19)
(-0.0020455276 -1.7210579e-05 -2.3676266e-20)
(-0.0020101526 -1.8494835e-05 -2.5168895e-19)
(-0.0019745455 -1.9714346e-05 -3.4031727e-19)
(-0.0019387398 -2.0870977e-05 -1.3295004e-19)
(-0.0019027675 -2.1966637e-05 4.0300857e-19)
(-0.0018666593 -2.3003289e-05 2.308167e-19)
(-0.0018304445 -2.3982899e-05 4.2103469e-20)
(-0.0017941509 -2.4907476e-05 -2.8336741e-19)
(-0.0017578047 -2.5779003e-05 -1.3056463e-19)
(-0.0017214311 -2.6599488e-05 3.4131174e-19)
(-0.0016850536 -2.7370921e-05 7.8424134e-20)
(-0.0016486946 -2.8095274e-05 2.9055394e-20)
(-0.0016123749 -2.8774512e-05 -9.7216117e-20)
(-0.0015761143 -2.9410559e-05 -3.0900626e-19)
(-0.0015399312 -3.0005329e-05 7.5823398e-20)
(-0.0015038429 -3.056068e-05 1.3978098e-19)
(-0.0014678655 -3.1078463e-05 1.1349973e-19)
(-0.0014320138 -3.156046e-05 2.1929718e-19)
(-0.0013963018 -3.2008433e-05 -1.3473137e-19)
(-0.0013607421 -3.2424089e-05 -3.329718e-19)
(-0.0013253466 -3.2809092e-05 -1.4008348e-19)
(-0.0012901261 -3.3165062e-05 1.6075518e-19)
(-0.0012550903 -3.3493567e-05 1.0880612e-19)
(-0.0012202482 -3.3796126e-05 -1.2707423e-19)
(-0.0011856078 -3.407421e-05 2.5440331e-20)
(-0.0011511764 -3.4329242e-05 1.723829e-19)
(-0.0011169604 -3.4562583e-05 7.1890816e-20)
(-0.0010829655 -3.4775554e-05 -1.7784954e-19)
(-0.0010491966 -3.4969429e-05 -2.1977615e-19)
(-0.0010156581 -3.5145422e-05 9.9613796e-20)
(-0.00098235361 -3.5304702e-05 2.0096652e-19)
(-0.00094928609 -3.5448388e-05 8.541638e-20)
(-0.00091645801 -3.5577552e-05 -9.4768199e-20)
(-0.00088387127 -3.5693232e-05 -1.003525e-19)
(-0.00085152725 -3.5796398e-05 4.7578232e-20)
(-0.00081942684 -3.5887993e-05 8.0669104e-20)
(-0.00078757046 -3.5968916e-05 1.0093277e-19)
(-0.00075595814 -3.6040025e-05 3.5939485e-20)
(-0.00072458949 -3.6102129e-05 -7.6631424e-20)
(-0.00069346373 -3.6156033e-05 -6.5205138e-20)
(-0.00066257978 -3.6202475e-05 2.5039875e-20)
(-0.0006319362 -3.6242183e-05 4.2239704e-20)
(-0.00060153128 -3.6275858e-05 -1.9734387e-20)
(-0.00057136301 -3.6304146e-05 -2.6894317e-20)
(-0.00054142913 -3.6327634e-05 1.2091675e-21)
(-0.00051172715 -3.6346818e-05 -4.0792808e-20)
(-0.0004822544 -3.6362176e-05 1.1262962e-20)
(-0.00045300805 -3.6374111e-05 1.1326651e-20)
(-0.00042398514 -3.6382977e-05 -3.4671847e-20)
(-0.00039518255 -3.6389051e-05 2.5447126e-20)
(-0.00036659712 -3.6392539e-05 1.9045737e-20)
(-0.00033822562 -3.6393499e-05 1.550173e-21)
(-0.00031006487 -3.6391777e-05 -3.7606237e-21)
(-0.00028211176 -3.638689e-05 -9.7108984e-21)
(-0.00025436336 -3.6377765e-05 3.5918356e-20)
(-0.00022681697 -3.6362376e-05 2.9647825e-20)
(-0.00019947008 -3.6337262e-05 2.8564324e-21)
(-0.00017231996 -3.6297248e-05 -2.5218062e-20)
(-0.00014536232 -3.6236527e-05 -1.1166301e-20)
(-0.0001185883 -3.6154799e-05 2.4115232e-20)
(-9.197754e-05 -3.6078054e-05 1.1379327e-20)
(-6.5485839e-05 -3.6110357e-05 8.2847197e-21)
(-3.9058316e-05 -3.6520629e-05 1.4850143e-20)
(-1.2888847e-05 -3.7680135e-05 2.4564869e-20)
(-5.3434958e-05 0.0002362576 -2.9268429e-19)
(-0.0001233711 0.0002456494 -1.4440895e-19)
(-0.00020193649 0.00025252776 -5.4700698e-20)
(-0.00027752036 0.00025929923 -1.7518771e-19)
(-0.00035584606 0.00026434207 -8.1731596e-20)
(-0.00043436671 0.00026782204 -1.3195265e-19)
(-0.00051308439 0.00027029395 -9.5807541e-20)
(-0.00059196976 0.00027212929 -1.6771464e-20)
(-0.00067095435 0.00027356917 6.3266842e-20)
(-0.00074995738 0.00027476267 1.7145101e-19)
(-0.00082890822 0.00027579756 1.4182969e-19)
(-0.00090774607 0.00027672294 1.1772631e-19)
(-0.00098641627 0.00027756431 -6.2134861e-21)
(-0.0010648675 0.00027833287 1.1158348e-19)
(-0.00114305 0.00027903107 1.5211437e-19)
(-0.001220914 0.0002796558 -1.8264155e-20)
(-0.0012984088 0.00028020051 9.4723698e-20)
(-0.0013754821 0.00028065636 4.6679976e-20)
(-0.0014520796 0.00028101312 -6.6473182e-21)
(-0.0015281448 0.00028125965 7.2617873e-20)
(-0.0016036186 0.00028138441 8.0192898e-20)
(-0.0016784397 0.00028137567 7.0705671e-20)
(-0.0017525444 0.00028122183 3.5119739e-20)
(-0.0018258666 0.00028091147 -5.598205e-20)
(-0.0018983384 0.00028043357 -9.5561913e-21)
(-0.0019698899 0.00027977765 -1.7888537e-20)
(-0.0020404496 0.0002789338 -2.3988692e-19)
(-0.0021099448 0.0002778929 -1.0147062e-19)
(-0.0021783017 0.00027664662 5.3837793e-20)
(-0.0022454459 0.00027518757 -2.4663591e-20)
(-0.0023113024 0.0002735093 -1.568548e-19)
(-0.0023757965 0.0002716064 -1.316809e-19)
(-0.0024388534 0.00026947451 1.538998e-19)
(-0.0025003992 0.0002671104 7.3884364e-20)
(-0.0025603609 0.00026451195 -2.2949418e-19)
(-0.0026186671 0.00026167817 -1.72598e-19)
(-0.0026752478 0.00025860925 1.6482406e-19)
(-0.0027300353 0.00025530647 2.3771072e-19)
(-0.0027829641 0.0002517723 -1.4396006e-19)
(-0.0028339716 0.00024801025 -2.5253659e-19)
(-0.0028829981 0.00024402495 -5.5763872e-20)
(-0.0029299874 0.00023982203 1.7595773e-19)
(-0.0029748866 0.0002354081 3.0212578e-19)
(-0.0030176468 0.00023079071 3.7210487e-20)
(-0.0030582232 0.00022597829 -3.6013839e-21)
(-0.0030965752 0.00022098005 -3.662565e-19)
(-0.0031326664 0.00021580595 -3.7189663e-19)
(-0.0031664655 0.00021046663 9.1045682e-20)
(-0.0031979452 0.00020497331 1.8576663e-19)
(-0.0032270836 0.00019933775 4.8237498e-19)
(-0.0032538633 0.00019357211 3.5744315e-20)
(-0.0032782718 0.00018768896 -4.6389329e-19)
(-0.0033003016 0.00018170112 1.0217769e-19)
(-0.0033199499 0.00017562162 2.2705369e-19)
(-0.0033372189 0.00016946364 -6.4212519e-20)
(-0.0033521154 0.0001632404 -2.2806674e-19)
(-0.0033646511 0.00015696512 -1.8838102e-19)
(-0.0033748419 0.00015065089 1.5193062e-19)
(-0.0033827084 0.00014431071 2.9073952e-20)
(-0.0033882753 0.00013795731 -3.579431e-19)
(-0.0033915715 0.00013160316 -4.7620642e-20)
(-0.0033926297 0.00012526043 3.0022508e-19)
(-0.0033914864 0.00011894087 5.8618287e-20)
(-0.0033881816 0.00011265583 -9.1885059e-20)
(-0.0033827585 0.00010641619 1.135359e-19)
(-0.0033752634 0.00010023234 1.0320564e-19)
(-0.0033657453 9.4114103e-05 -2.6962642e-19)
(-0.0033542559 8.8070812e-05 -1.8961652e-19)
(-0.0033408492 8.2111188e-05 -4.498318e-20)
(-0.0033255813 7.6243366e-05 -6.5041613e-20)
(-0.0033085099 7.0474915e-05 3.9510771e-20)
(-0.0032896947 6.4812763e-05 4.6644733e-20)
(-0.0032691964 5.9263227e-05 -1.0993724e-19)
(-0.003247077 5.3832008e-05 -8.8522824e-20)
(-0.0032233993 4.8524147e-05 2.4837144e-19)
(-0.0031982268 4.3344095e-05 2.7290385e-19)
(-0.0031716235 3.82957e-05 -2.9302817e-19)
(-0.0031436535 3.3382243e-05 -5.5211463e-19)
(-0.0031143811 2.8606487e-05 -6.1468802e-20)
(-0.0030838702 2.3970678e-05 1.8568161e-19)
(-0.003052185 1.9476545e-05 -8.3815273e-20)
(-0.003019389 1.5125276e-05 -2.7449767e-19)
(-0.0029855458 1.0917359e-05 -2.1261639e-20)
(-0.0029507206 6.8517429e-06 1.4070055e-19)
(-0.0029149843 2.9275893e-06 1.4833858e-20)
(-0.0028783662 -8.4735366e-07 -8.6022774e-20)
(-0.0028409195 -4.4528397e-06 -2.8332735e-19)
(-0.0028027337 -7.8998636e-06 -1.0489039e-19)
(-0.0027638592 -1.1204424e-05 2.656539e-19)
(-0.0027243431 -1.4378658e-05 2.5547681e-19)
(-0.0026842371 -1.7423054e-05 -6.8173039e-20)
(-0.0026435937 -2.0337997e-05 -3.0269128e-19)
(-0.0026024641 -2.3124591e-05 -4.7503207e-20)
(-0.0025608973 -2.5784751e-05 1.5655584e-19)
(-0.00251894 -2.8320941e-05 1.6611639e-19)
(-0.0024766372 -3.0735946e-05 1.0200012e-19)
(-0.0024340319 -3.3032755e-05 -2.1501486e-19)
(-0.0023911656 -3.5214504e-05 -1.8004286e-19)
(-0.0023480779 -3.7284474e-05 -1.7155937e-20)
(-0.0023048066 -3.9246031e-05 1.9028968e-20)
(-0.002261388 -4.1102576e-05 2.0076799e-19)
(-0.0022178565 -4.285761e-05 6.7709843e-20)
(-0.0021742449 -4.451462e-05 -7.9874744e-20)
(-0.0021305842 -4.6077142e-05 6.0218371e-22)
(-0.0020869039 -4.7548696e-05 1.60769e-19)
(-0.0020432317 -4.8932795e-05 1.3450454e-19)
(-0.0019995939 -5.0232946e-05 -8.6807979e-20)
(-0.0019560152 -5.1452598e-05 -9.7491103e-20)
(-0.0019125187 -5.2595184e-05 -1.0682671e-19)
(-0.0018691262 -5.3664079e-05 -1.5316215e-19)
(-0.0018258579 -5.4662601e-05 5.9651078e-22)
(-0.0017827327 -5.5593997e-05 1.3428332e-19)
(-0.0017397681 -5.6461472e-05 9.8982508e-20)
(-0.0016969803 -5.7268136e-05 6.4003088e-20)
(-0.0016543844 -5.8017031e-05 -4.4931136e-20)
(-0.0016119942 -5.8711123e-05 -1.2301316e-19)
(-0.0015698221 -5.9353291e-05 -1.2364904e-19)
(-0.0015278799 -5.9946337e-05 -1.4951836e-20)
(-0.0014861778 -6.0492963e-05 6.423065e-20)
(-0.0014447253 -6.0995801e-05 9.5209491e-20)
(-0.0014035308 -6.1457386e-05 4.9045981e-20)
(-0.0013626018 -6.1880168e-05 -6.5834401e-20)
(-0.001321945 -6.2266502e-05 -3.3934809e-20)
(-0.001281566 -6.2618659e-05 5.1761569e-20)
(-0.0012414698 -6.2938833e-05 8.7712858e-20)
(-0.0012016607 -6.3229114e-05 3.6966863e-20)
(-0.0011621419 -6.3491518e-05 -3.0490384e-20)
(-0.0011229164 -6.3727965e-05 1.1705715e-21)
(-0.0010839862 -6.3940304e-05 -2.4488384e-20)
(-0.0010453528 -6.4130299e-05 2.431769e-20)
(-0.0010070172 -6.4299625e-05 7.6938715e-20)
(-0.00096897971 -6.4449888e-05 2.1500359e-20)
(-0.00093124025 -6.4582612e-05 2.6329128e-20)
(-0.00089379822 -6.4699251e-05 1.2735981e-20)
(-0.0008566526 -6.4801168e-05 -2.7159828e-20)
(-0.00081980191 -6.4889679e-05 -5.320471e-20)
(-0.00078324434 -6.4966001e-05 -5.362271e-21)
(-0.00074697769 -6.5031291e-05 1.8101725e-21)
(-0.00071099947 -6.5086643e-05 -2.3650744e-20)
(-0.00067530684 -6.5133049e-05 -1.2090929e-20)
(-0.0006398967 -6.5171472e-05 1.6297691e-20)
(-0.00060476573 -6.5202794e-05 -4.9988953e-22)
(-0.00056991035 -6.5227835e-05 1.2345276e-20)
(-0.00053532682 -6.5247326e-05 8.1976224e-21)
(-0.00050101124 -6.5261919e-05 1.6337941e-22)
(-0.00046695955 -6.5272148e-05 2.1273784e-20)
(-0.00043316758 -6.5278441e-05 -2.1494011e-20)
(-0.00039963106 -6.5281042e-05 -7.3197773e-21)
(-0.00036634566 -6.5279933e-05 3.4055174e-20)
(-0.00033330698 -6.5274751e-05 4.1143332e-20)
(-0.00030051051 -6.5264559e-05 2.7437315e-20)
(-0.00026795147 -6.5247635e-05 6.7022386e-21)
(-0.00023562446 -6.5221278e-05 8.4404277e-21)
(-0.00020352261 -6.5182159e-05 -2.540726e-20)
(-0.00017163624 -6.5128343e-05 -3.2773454e-21)
(-0.00013995133 -6.5066019e-05 2.6366889e-20)
(-0.00010844796 -6.5026875e-05 9.5159954e-21)
(-7.7097431e-05 -6.5101826e-05 1.8594108e-20)
(-4.5886968e-05 -6.5483121e-05 2.3801764e-20)
(-1.5109208e-05 -6.6356088e-05 3.5402417e-20)
(-6.1829073e-05 0.00041350736 -5.3593247e-19)
(-0.00014270728 0.00042005543 -4.5348206e-19)
(-0.00023329947 0.00042584462 -2.2904229e-19)