/*--------------------------------*- C++ -*----------------------------------*\
| =========                 |                                                 |
| \\      /  F ield         | OpenFOAM: The Open Source CFD Toolbox           |
|  \\    /   O peration     | Version:  2106                                  |
|   \\  /    A nd           | Website:  www.openfoam.com                      |
|    \\/     M anipulation  |                                                 |
\*---------------------------------------------------------------------------*/
FoamFile
{
    version     2.0;
    format      ascii;
    arch        "LSB;label=32;scalar=64";
    class       surfaceScalarField;
    location    "0.019";
    object      phi;
}
// * * * * * * * * * * * * * * * * * * * * * * * * * * * * * * * * * * * * * //

dimensions      [0 3 -1 0 0 0 0];

oriented        oriented;

internalField   nonuniform List<scalar> 
1984
(
0.00054267839
-0.00054266371
0.0010649308
-0.00052225242
0.0015470839
-0.00048215311
0.0019708753
-0.00042379143
0.0023201308
-0.00034925543
0.0025813666
-0.00026123583
0.0027443111
-0.00016294446
0.0028023272
-5.8016162e-05
0.00275272
4.9607255e-05
0.0025969054
0.0001558146
0.0023404233
0.00025648206
0.0019928294
0.00034759395
0.0015673556
0.00042547373
0.0010804338
0.00048692181
0.00055105267
0.00052938113
-1.5814475e-08
0.00055106849
-0.00055108367
0.00055106785
-0.0010804629
0.00052937926
-0.0015673817
0.00048691875
-0.0019928513
0.00042546962
-0.0023404402
0.00034758894
-0.0025969166
0.00025647638
-0.0027527251
0.0001558085
-0.0028023261
4.9601015e-05
-0.0027443039
-5.802224e-05
-0.0025813538
-0.0001629501
-0.002320113
-0.00026124081
-0.0019708534
-0.00034925959
-0.0015470587
-0.00042379468
-0.0010649033
-0.00048215542
-0.00054264949
-0.00052225379
-0.00054266416
0.00057917001
-0.0011218186
0.0011365728
-0.0010796552
0.0016512378
-0.00099681818
0.0021036915
-0.00087624505
0.0024766757
-0.0007222397
0.0027557902
-0.00054035029
0.002930048
-0.00033720231
0.0029923285
-0.00012029667
0.002939702
0.00010223378
0.0027736226
0.00032189399
0.0024999694
0.00053013525
0.0021288942
0.00071866918
0.0016745099
0.00087985801
0.0011543711
0.0010070607
0.00058878573
0.0010949665
-1.6369857e-08
0.0011398706
-0.00058881782
0.0011398693
-0.0011544012
0.0010949627
-0.0016745369
0.0010070544
-0.002128917
0.00087984964
-0.002499987
0.00071865898
-0.0027736343
0.00053012366
-0.0029397073
0.00032188154
-0.0029923273
0.00010222104
-0.0029300405
-0.00012030908
-0.0027557768
-0.00033721381
-0.0024766572
-0.0005403604
-0.0021036687
-0.00072224811
-0.0016512118
-0.00087625159
-0.0011365444
-0.0009968228
-0.00057914028
-0.0010796579
-0.0011218195
0.00064796899
-0.0017697716
0.0012716242
-0.0017033104
0.0018475357
-0.0015727297
0.0023539382
-0.0013826476
0.002771532
-0.0011398334
0.0030841982
-0.0008530165
0.0032796201
-0.00053262423
0.0033497865
-0.00019046306
0.0032913569
0.00016066335
0.0031058789
0.00050737199
0.0027998505
0.00083616368
0.0023845768
0.0011339429
0.0018758267
0.0013886081
0.0012932614
0.001589626
0.00065966059
0.0017285673
-1.7637591e-08
0.0017995488
-0.00065969516
0.0017995468
-0.0012932939
0.0017285614
-0.0018758558
0.0015896164
-0.0023846013
0.0013885951
-0.0027998695
0.0011339271
-0.0031058915
0.0008361457
-0.0032913626
0.00050735262
-0.003349785
0.0001606435
-0.0032796117
-0.00019048239
-0.0030841834
-0.00053264209
-0.0027715117
-0.00085303211
-0.0023539136
-0.0011398463
-0.0018475076
-0.0013826575
-0.0012715939
-0.0015727365
-0.00064793741
-0.0017033144
-0.0017697729
0.00075178449
-0.0025215387
0.0014753952
-0.0024269211
0.0021436783
-0.0022410128
0.0027314064
-0.0019703758
0.0032162043
-0.0016246313
0.0035793774
-0.0012161896
0.0038066261
-0.00075987294
0.0038886207
-0.00027245763
0.0038214152
0.00022786884
0.0036066971
0.00072209007
0.0032518863
0.0011909745
0.0027700099
0.0016158192
0.0021793229
0.0019792951
0.0015026565
0.0022662923
0.00076651704
0.0024647068
-1.9605797e-08
0.0025660855
-0.00076655549
0.0025660827
-0.0015026927
0.0024646987
-0.0021793554
0.002266279
-0.0027700374
0.0019792771
-0.0032519075
0.0016157972
-0.0036067111
0.0011909493
-0.0038214214
0.00072206286
-0.0038886187
0.00022784089
-0.0038066163
-0.00027248484
-0.0035793604
-0.00075989798
-0.0032161813
-0.0012162113
-0.0027313787
-0.0016246488
-0.0021436473
-0.001970389
-0.001475362
-0.0022410218
-0.00075175008
-0.0024269263
-0.0025215404
0.00089237785
-0.0034138974
0.0017513301
-0.0032858733
0.0025446429
-0.0030343256
0.0032423973
-0.0026681303
0.0038180682
-0.0022003022
0.0042495056
-0.001647627
0.0045197677
-0.001030135
0.0046177777
-0.00037046771
0.0045387842
0.00030686234
0.0042846349
0.00097623942
0.0038639489
0.0016116605
0.0032920329
0.0021877353
0.0025904723
0.0026808557
0.0017863806
0.003070384
0.0009113219
0.0033397655
-2.2316702e-08
0.0034774297
-0.0009113657
0.0034774261
-0.0017864219
0.0033397548
-0.0025905095
0.0030703666
-0.0032920644
0.0026808321
-0.0038639733
0.0021877062
-0.004284651
0.001611627
-0.0045387912
0.00097620303
-0.0046177751
0.00030682479
-0.0045197557
-0.00037050427
-0.0042494853
-0.0010301684
-0.0038180411
-0.0016476554
-0.0032423653
-0.0022003246
-0.0025446076
-0.0026681467
-0.0017512929
-0.0030343365
-0.00089233983
-0.0032858794
-0.0034138994
0.0010740725
-0.0044879488
0.0021078905
-0.0043196913
0.0030626734
-0.0039891085
0.0039024363
-0.0035078931
0.0045953187
-0.0028931846
0.0051147675
-0.0021670757
0.0054405079
-0.0013558755
0.0055592799
-0.00048923964
0.0054653135
0.00040082874
0.0051605916
0.0012809613
0.0046551681
0.002117084
0.0039671835
0.0028757198
0.003122455
0.0035255842
0.0021536117
0.0040392274
0.0010987861
0.0043945911
-2.5816704e-08
0.0045762416
-0.0010988368
0.0045762371
-0.0021536596
0.0043945776
-0.0031224984
0.0040392054
-0.0039672206
0.0035255542
-0.004655197
0.0028756826
-0.0051606108
0.0021170409
-0.0054653217
0.0012809139
-0.0055592763
0.00040077941
-0.0054404928
-0.00048928776
-0.0051147422
-0.001355919
-0.0045952857
-0.0021671119
-0.0039023982
-0.0028932121
-0.0030626326
-0.0035079123
-0.0021078485
-0.0039891206
-0.0010740302
-0.0043196977
-0.0044879507
0.0013094519
-0.0057973775
0.0025697315
-0.0055799709
0.0037335034
-0.0051528803
0.0047569163
-0.0045313061
0.0056012425
-0.0037375107
0.0062343296
-0.0028001629
0.0066317314
-0.0017532772
0.0067775
-0.00063500826
0.006664601
0.00051372776
0.0062950541
0.0016505081
0.0056805571
0.002731581
0.004842725
0.0037135519
0.0038127321
0.0045555771
0.0026303262
0.0052216332
0.0013422077
0.0056827096
-3.0103342e-08
0.0059184794
-0.001342267
0.005918474
-0.0026303825
0.0056826932
-0.0038127834
0.0052216063
-0.0048427693
0.0045555401
-0.0056805922
0.0037135055
-0.0062950778
0.0027315265
-0.0066646112
0.0016504473
-0.0067774953
0.00051366344
-0.0066317118
-0.00063507127
-0.0062342972
-0.0017533336
-0.005601201
-0.0028002081
-0.00475687
-0.0037375432
-0.0037334554
-0.004531327
-0.0025696838
-0.0051528921
-0.0013094051
-0.0055799764
-0.005797379
0.0016266876
-0.0074240403
0.0031920733
-0.0071453566
0.0046372153
-0.0065980224
0.0059076387
-0.0058017294
0.0069554068
-0.0047852788
0.0077409704
-0.0035857265
0.0082344872
-0.0022467941
0.0084166394
-0.00081716044
0.0082788257
0.00065154149
0.0078228895
0.0021064444
0.0070624136
0.0034920569
0.0060234129
0.0047525527
0.0047441131
0.0058348769
0.0032738287
0.0066919176
0.0016708844
0.0072856539
-3.5133076e-08
0.007589399
-0.0016709537
0.0075893926
-0.0032738949
0.0072856343
-0.0047441741
0.0066918855
-0.0060234666
0.0058348326
-0.0070624572
0.0047524961
-0.0078229199
0.0034919892
-0.0082788395
0.002106367
-0.0084166334
0.00065145735
-0.008234461
-0.00081724367
-0.0077409272
-0.0022468674
-0.0069553531
-0.0035857822
-0.0059075811
-0.0047853152
-0.0046371584
-0.0058017496
-0.0031920195
-0.0065980311
-0.0016266368
-0.0071453591
-0.0074240405
0.0020758082
-0.0094998236
0.0040729877
-0.0091425361
0.0059160557
-0.0084410903
0.0075354405
-0.0074211143
0.0088701806
-0.0061200189
0.009870414
-0.0045859598
0.010498958
-0.002875338
0.010732138
-0.001050341
0.010559474
0.00082420637
0.0099822311
0.0026836869
0.009016251
0.0044580369
0.0076934791
0.0060753246
0.0060619687
0.0074663873
0.0041845718
0.0085693145
0.0021361275
0.0093340981
-4.0664409e-08
0.0097255672
-0.0021362081
0.00972556
-0.0041846491
0.0093340753
-0.006062041
0.0085692774
-0.0076935447
0.0074663363
-0.0090163064
0.0060752578
-0.0099822719
0.0044579547
-0.010559494
0.002683589
-0.010732131
0.00082409476
-0.010498922
-0.0010504534
-0.0098703542
-0.0028754348
-0.0088701088
-0.0045860276
-0.0075353675
-0.0061200565
-0.005915988
-0.0074211292
-0.0040729283
-0.0084410908
-0.0020757557
-0.0091425316
-0.0094998212
0.0027269726
-0.012226774
0.0053499912
-0.011765555
0.0077694463
-0.010860545
0.0098937606
-0.0095454287
0.011642986
-0.0078692444
0.012952404
-0.0058953775
0.013774502
-0.003697436
0.01407995
-0.0013557889
0.013856353
0.0010478034
0.013103657
0.0034363824
0.011840581
0.0057211129
0.010107524
0.0078083823
0.0079667673
0.0096071435
0.0055008502
0.011035232
0.0028085033
0.012026445
-4.6568445e-08
0.012534117
-0.002808596
0.012534109
-0.0055009395
0.012026419
-0.0079668521
0.01103519
-0.010107604
0.0096070883
-0.011840653
0.0078083072
-0.013103715
0.005721016
-0.013856385
0.0034362596
-0.014079942
0.0010476516
-0.013774449
-0.0013559468
-0.012952317
-0.0036975669
-0.011642886
-0.005895458
-0.0098936659
-0.0078692768
-0.0077693657
-0.0095454294
-0.0053499283
-0.010860528
-0.0027269235
-0.011765536
-0.012226767
0.0036483929
-0.015875153
0.0071567227
-0.015273885
0.010391065
-0.014094888
0.013228497
-0.01238286
0.015561851
-0.010202599
0.017305295
-0.0076388213
0.018396859
-0.0047889999
0.018800254
-0.0017591833
0.018502344
0.0013457129
0.017500282
0.0044384446
0.015816639
0.0074047557
0.013504095
0.010120926
0.010645373
0.012465866
0.0073510606
0.014329544
0.0037533624
0.015624143
-5.3349228e-08
0.016287533
-0.0037534691
0.016287525
-0.0073511626
0.015624112
-0.01064547
0.014329498
-0.013504193
0.012465811
-0.015816735
0.010120849
-0.017500367
0.0074046482
-0.018502401
0.0044382937
-0.018800248
0.0013454982
-0.018396776
-0.0017594188
-0.017305161
-0.004789182
-0.015561708
-0.007638911
-0.013228372
-0.010202613
-0.010390971
-0.012382831
-0.0071566617
-0.014094837
-0.003648357
-0.015273841
-0.015875138
0.0048470175
-0.020722173
0.0095065971
-0.019933464
0.013800048
-0.018388339
0.017563397
-0.01614621
0.020653199
-0.013292401
0.022955545
-0.0099411668
0.024389246
-0.0062227015
0.024910542
-0.002280479
0.024510298
0.0017459571
0.023179566
0.0057691765
0.020946281
0.0096380402
0.017880572
0.013186635
0.014092657
0.016253781
0.0097300737
0.018692127
0.0049675777
0.020386639
-6.3846696e-08
0.021255174
-0.0049677061
0.021255167
-0.0097301915
0.020386598
-0.014092764
0.01869207
-0.017880688
0.016253735
-0.020946408
0.013186569
-0.023179696
0.0096379362
-0.024510405
0.0057690023
-0.024910545
0.001745638
-0.0243891
-0.0022808639
-0.022955323
-0.0062229586
-0.020652985
-0.0099412492
-0.01756323
-0.013292367
-0.013799937
-0.016146124
-0.0095065485
-0.018388225
-0.0048470127
-0.019933377
-0.020722147
0.0061588516
-0.026881062
0.012077695
-0.025852307
0.017529067
-0.02383971
0.022304136
-0.020921279
0.026217792
-0.017206058
0.02912214
-0.012845515
0.030914204
-0.0080147655
0.031544121
-0.0029103956
0.03101956
0.0022705179
0.0293176
0.007471137
0.026474403
0.012481237
0.022583574
0.017077464
0.017787429
0.021049926
0.012274976
0.024204581
0.0062648943
0.026396721
-8.4617909e-08
0.027520153
-0.0062650651
0.027520148
-0.012275118
0.026396651
-0.017787536
0.024204488
-0.0225837
0.0210499
-0.02647457
0.017077439
-0.029317812
0.012481178
-0.031019786
0.0074709759
-0.031544157
0.0022700096
-0.030913909
-0.0029111118
-0.029121753
-0.0080151145
-0.026217465
-0.012845538
-0.022303907
-0.017205925
-0.017528935
-0.020921096
-0.012077677
-0.023839484
-0.0061589093
-0.025852144
-0.02688102
0.0070965266
-0.033977688
0.013914367
-0.032670148
0.020190569
-0.030115912
0.025683142
-0.026413851
0.030172413
-0.02169533
0.033487478
-0.01616058
0.035507547
-0.010034835
0.036173593
-0.0035764409
0.035534772
0.0029093388
0.033537091
0.0094688179
0.030236331
0.015781998
0.025751291
0.021562504
0.020253058
0.026548158
0.013962125
0.030495513
0.0071213214
0.033237525
-1.2242817e-07
0.034641597
-0.0071215709
0.034641596
-0.013962304
0.033237384
-0.020253132
0.030495316
-0.025751399
0.026548167
-0.03023656
0.0215626
-0.033537473
0.01578209
-0.035535304
0.0094688075
-0.036173743
0.0029084476
-0.035506873
-0.0035779809
-0.033486787
-0.010035201
-0.030171916
-0.016160408
-0.025682812
-0.02169503
-0.02019039
-0.026413518
-0.013914401
-0.030115472
-0.0070967018
-0.032669844
-0.033977622
0.0067153833
-0.040693277
0.013174067
-0.039128831
0.019110919
-0.036052765
0.024299966
-0.031602897
0.028524784
-0.025920148
0.031619835
-0.019255631
0.033457157
-0.011872157
0.033965256
-0.0040845403
0.033280879
0.0035937166
0.031296753
0.011452943
0.028106033
0.018972718
0.023851769
0.025816767
0.018704238
0.03169569
0.012868586
0.036331165
0.0065538741
0.039552237
-1.6307134e-07
0.041195634
-0.0065542133
0.041195646
-0.012868782
0.039551953
-0.018704182
0.036330716
-0.023851796
0.031695781
-0.028106386
0.025817189
-0.031297501
0.018973205
-0.033282286
0.011453593
-0.033965786
0.0035919473
-0.033455381
-0.0040883859
-0.031618692
-0.01187189
-0.028524136
-0.019254964
-0.024299475
-0.025919691
-0.019110607
-0.031602386
-0.01317416
-0.036051919
-0.0067157514
-0.039128253
-0.040693168
0.0036954045
-0.044388931
0.0072420776
-0.042675504
0.010473727
-0.039284415
0.013270227
-0.034399397
0.015501071
-0.028150991
0.017079809
-0.020834369
0.017939379
-0.012731727
0.017972584
-0.0041177453
0.017447544
0.0041187571
0.016173494
0.012726993
0.014313392
0.02083282
0.011980223
0.028149937
0.0092765131
0.0343994
0.0063214399
0.039286238
0.0031963843
0.042677293
-1.1756419e-07
0.044392136
-0.0031966365
0.044392165
-0.006321536
0.042676852
-0.0092763169
0.039285497
-0.011980185
0.034399649
-0.014313916
0.028150921
-0.016174784
0.020834073
-0.017451563
0.012730372
-0.017974238
0.0041146227
-0.017934104
-0.0041285199
-0.017078319
-0.012727676
-0.015500536
-0.020832746
-0.013269699
-0.028150528
-0.010473306
-0.034398779
-0.0072421593
-0.039283065
-0.0036958428
-0.042674569
-0.044388761
-0.0031740218
-0.041214688
-0.0062782114
-0.039571315
-0.0092136823
-0.036348944
-0.011900633
-0.031712446
-0.014220103
-0.025831522
-0.016069918
-0.018984554
-0.017339982
-0.011461663
-0.017860895
-0.0035968321
-0.017827846
0.0040857085
-0.016977083
0.01187623
-0.015408741
0.019264477
-0.013192023
0.02593322
-0.010412644
0.031620021
-0.00719998
0.036073574
-0.0036743072
0.03915162
1.334823e-07
0.040717695
0.0036745897
0.040717709
0.0072000904
0.039151352
0.010412437
0.03607315
0.013191973
0.031620114
0.01540926
0.025933634
0.016978358
0.019264975
0.017831823
0.011876907
0.017862695
0.0040837506
0.017334798
-0.0036006227
0.016068474
-0.011461351
0.014219595
-0.018983867
0.011900133
-0.025831067
0.0092132796
-0.031711925
0.0062782762
-0.036348062
0.0031744127
-0.039570706
-0.04121457
-0.0065303544
-0.03468412
-0.012822839
-0.03327883
-0.018637915
-0.030533868
-0.023767918
-0.026582443
-0.02800812
-0.02159132
-0.031188614
-0.01580406
-0.033167137
-0.0094831401
-0.03384928
-0.0029146891
-0.033343433
0.003579862
-0.03151366
0.010046456
-0.028429798
0.016180616
-0.024219727
0.021723148
-0.019048281
0.026448575
-0.013130994
0.030156287
-0.0066936035
0.032714229
1.611185e-07
0.034023931
0.00669394
0.03402393
0.013131194
0.032714098
0.019048243
0.030156101
0.024219773
0.026448583
0.028430171
0.021723236
0.031514441
0.016180704
0.033344911
0.010046438
0.033849697
0.0035789642
0.033165311
-0.0029162372
0.031187443
-0.0094834825
0.028007455
-0.01580388
0.023767407
-0.021591018
0.018637584
-0.026582103
0.012822932
-0.030533409
0.0065307347
-0.033278509
-0.034684049
-0.0070962349
-0.027587776
-0.013913116
-0.026461949
-0.02018211
-0.024264874
-0.025661449
-0.021103104
-0.030131321
-0.017121448
-0.033421138
-0.012514243
-0.035412503
-0.0074917749
-0.036049441
-0.0022777514
-0.035386263
0.0029166838
-0.033373997
0.008034191
-0.030070947
0.012877565
-0.025597417
0.017249618
-0.020123594
0.020974752
-0.01386837
0.023901063
-0.0070731771
0.025919036
1.1679666e-07
0.026950637
0.0070734157
0.026950631
0.013868544
0.025918969
0.020123671
0.023900974
0.02559753
0.020974724
0.030071177
0.017249588
0.03337438
0.012877501
0.035386795
0.0080340234
0.036049585
0.0029161739
0.03541181
-0.0022784627
0.033420443
-0.0074921153
0.030130822
-0.012514259
0.025661114
-0.01712131
0.020181928
-0.021102917
0.013913157
-0.024264638
0.0070964267
-0.026461779
-0.027587731
-0.0062376005
-0.021350132
-0.01222155
-0.020478
-0.017710088
-0.018776336
-0.022485571
-0.016327622
-0.026359776
-0.013247242
-0.029190977
-0.0096830424
-0.030885946
-0.0057968065
-0.031408593
-0.0017551038
-0.030781983
0.0022900737
-0.028998342
0.0062505498
-0.026107028
0.0099862515
-0.02221044
0.01335303
-0.017455763
0.016220076
-0.012027339
0.018472639
-0.0061332299
0.020024927
8.0756356e-08
0.020817326
0.0061333932
0.020817319
0.012027477
0.020024886
0.01745587
0.018472581
0.022210567
0.016220027
0.026107195
0.01335296
0.028998553
0.0099861439
0.030782203
0.0062503733
0.031408623
0.0022897537
0.030885647
-0.0017554865
0.029190589
-0.0057970573
0.02635945
-0.0096831194
0.022485344
-0.013247204
0.01770996
-0.016327533
0.01222154
-0.018776218
0.0062376701
-0.020477909
-0.021350105
-0.0049372004
-0.016412923
-0.009670555
-0.015744645
-0.014006462
-0.014440429
-0.017771266
-0.012562818
-0.020818327
-0.010200181
-0.023038108
-0.0074632611
-0.024360929
-0.0044739852
-0.024759043
-0.0013569902
-0.024241432
0.0017724624
-0.022817061
0.0048261793
-0.020529213
0.0076984034
-0.017458444
0.010282261
-0.013717903
0.012479535
-0.00945016
0.014204896
-0.0048182782
0.015393045
6.1623634e-08
0.015998986
0.0048184022
0.015998978
0.0094502746
0.015393013
0.013718008
0.014204848
0.017458558
0.012479477
0.020529338
0.01028218
0.022817189
0.0076982928
0.024241535
0.004826027
0.024759041
0.0017722478
0.024360779
-0.0013572246
0.023037886
-0.004474164
0.020818115
-0.0074633478
0.017771102
-0.010200192
0.014006356
-0.012562787
0.0096705137
-0.014440375
0.0049372045
-0.0157446
-0.016412908
-0.0037187465
-0.012694187
-0.0072832183
-0.012180173
-0.010547116
-0.011176531
-0.013379473
-0.0097304611
-0.015670728
-0.0079089257
-0.017338946
-0.005795043
-0.018331965
-0.0034809663
-0.018627466
-0.0010614894
-0.018228283
0.0013732795
-0.017147336
0.0037452315
-0.015420392
0.0059714595
-0.013108719
0.0079705887
-0.010297291
0.0096681063
-0.0070922879
0.010999893
-0.0036155731
0.01191633
5.1744671e-08
0.012383362
0.0036156766
0.012383354
0.007092387
0.011916303
0.010297385
0.010999849
0.013108814
0.0096680483
0.015420484
0.0079705105
0.017147417
0.0059713598
0.018228337
0.0037451069
0.018627458
0.001373127
0.01833188
-0.0010616474
0.017338813
-0.0034810962
0.015670587
-0.0057951225
0.013379352
-0.0079089571
0.010547026
-0.0097304609
0.0072831638
-0.011176513
0.003718718
-0.012180154
-0.01269418
-0.0027665039
-0.0099277021
-0.0054185143
-0.0095281627
-0.0078474649
-0.0087475807
-0.0099561087
-0.0076218173
-0.011663162
-0.0062018726
-0.012907312
-0.0045508925
-0.013648828
-0.0027394505
-0.013869312
-0.00084100605
-0.013568873
0.0010728405
-0.012759576
0.0029359345
-0.011470178
0.0046820622
-0.0097473485
0.0062477589
-0.0076547638
0.0075755216
-0.0052711647
0.0086162937
-0.0026868153
0.0093319805
4.4790983e-08
0.0096965015
0.0026869044
0.0096964939
0.0052712505
0.0093319566
0.0076548453
0.0086162547
0.0097474254
0.0075754681
0.011470247
0.0062476892
0.01275963
0.0046819769
0.013568902
0.0029358342
0.013869302
0.0010727271
0.013648775
-0.00084112003
0.012907227
-0.002739548
0.011663065
-0.0045509607
0.0099560182
-0.0062019104
0.0078473895
-0.0076218322
0.0054184573
-0.0087475809
0.0027664613
-0.0095281579
-0.0099276996
-0.0020834903
-0.0078442335
-0.0040814393
-0.0075302137
-0.0059126
-0.00691642
-0.0075039604
-0.0060304568
-0.0087942107
-0.0049116223
-0.0097365093
-0.0036085939
-0.010299744
-0.0021762158
-0.010468523
-0.00067222658
-0.010241517
0.00084583365
-0.0096289279
0.0023233459
-0.0086536918
0.0037068261
-0.0073519578
0.0049460249
-0.0057722928
0.0059958566
-0.0039741542
0.0068181551
-0.0020254596
0.0073832859
3.8543471e-08
0.0076710034
0.0020255359
0.0076709966
0.0039742274
0.0073832651
0.0057723611
0.006818121
0.0073520196
0.0059958097
0.0086537436
0.0049459652
0.0096289655
0.003706755
0.010241534
0.0023232652
0.010468515
0.00084574643
0.010299708
-0.00067231262
0.0097364511
-0.0021762914
0.0087941418
-0.0036086514
0.0075038914
-0.00491166
0.0059125372
-0.006030478
0.0040813856
-0.0069164293
0.0020834441
-0.0075302164
-0.0078442339
-0.001593856
-0.0062503989
-0.0031227772
-0.0060012925
-0.0045250244
-0.0055141728
-0.0057449384
-0.0048105429
-0.0067354933
-0.0039210675
-0.007460309
-0.0028837781
-0.007894692
-0.0017418329
-0.0080257757
-0.00054114289
-0.0078519968
0.00067205477
-0.0073814284
0.0018527775
-0.0066324562
0.0029578538
-0.0056334607
0.0039470294
-0.0044220948
0.0047844907
-0.0030440393
0.0054400996
-0.0015512442
0.0058904907
3.2446002e-08
0.0061197268
0.0015513082
0.0061197209
0.0030441004
0.0058904729
0.004422151
0.0054400704
0.00563351
0.0047844507
0.0066324959
0.0039469793
0.0073814558
0.0029577952
0.0078520086
0.0018527124
0.0080257688
0.00067198617
0.0078946663
-0.00054121012
0.0074602679
-0.0017418929
0.0067354429
-0.0028838265
0.0057448853
-0.0039211024
0.004524973
-0.0048105657
0.0031227296
-0.0055141859
0.0015938119
-0.0060012987
-0.0062504006
-0.0012500982
-0.0050003206
-0.0024497392
-0.0048016514
-0.0035508933
-0.0044130188
-0.0045101002
-0.003851336
-0.0052903925
-0.0031407752
-0.0058627382
-0.0023114323
-0.006206977
-0.001397594
-0.0063122494
-0.00043587056
-0.0061765662
0.00053637161
-0.0058065818
0.0014827931
-0.0052170748
0.0023683468
-0.0044307687
0.0031607233
-0.0034775968
0.0038313188
-0.0023936176
0.0043561204
-0.0012196966
0.0047165697
2.7240609e-08
0.004900003
0.0012197502
0.0048999979
0.0023936685
0.0047165546
0.0034776432
0.0043560957
0.0044308087
0.0038312852
0.0052171063
0.0031606817
0.0058066029
0.0023682986
0.0061765749
0.0014827404
0.0063122441
0.00053631691
0.0062069583
-0.00043592425
0.0058627079
-0.0013976425
0.0052903543
-0.0023114729
0.0045100582
-0.0031408063
0.0035508505
-0.003851358
0.0024496975
-0.0044130328
0.0012500577
-0.004801659
-0.005000323
-0.00093549586
-0.004064842
-0.001833281
-0.0039038663
-0.0026574241
-0.0035888756
-0.0033753624
-0.0031333977
-0.0039593516
-0.002556786
-0.0043875592
-0.0018832248
-0.0046447982
-0.001140355
-0.0047227764
-0.0003578924
-0.0046202108
0.00043380601
-0.0043421324
0.0012047147
-0.0038999985
0.0019262129
-0.0033111112
0.0025718359
-0.0025980468
0.0031182544
-0.0017878296
0.0035459032
-0.00091088338
0.0038396235
2.2228948e-08
0.0039890974
0.00091092706
0.0039890931
0.0017878709
0.0038396108
0.0025980841
0.0035458825
0.0033111429
0.0031182263
0.0039000232
0.0025718014
0.0043421485
0.0019261733
0.0046202173
0.0012046716
0.0047227728
0.00043376138
0.0046447843
-0.00035793569
0.0043875365
-0.0011403948
0.0039593225
-0.001883259
0.0033753296
-0.0025568134
0.0026573896
-0.003133418
0.0018332461
-0.0035888893
0.00093546116
-0.003903874
-0.0040648445
-0.0007865432
-0.0032783125
-0.0015416694
-0.00314874
-0.002235394
-0.0028951511
-0.0028404382
-0.0025283535
-0.0033333923
-0.002063832
-0.0036956996
-0.0015209174
-0.0039142652
-0.00092178934
-0.0039817574
-0.00029040029
-0.0038964917
0.00034854037
-0.0036628254
0.00097104849
-0.0032904094
0.0015537969
-0.0027939305
0.002075357
-0.0021924576
0.0025167816
-0.0015088255
0.002862271
-0.00076876418
0.0030995622
1.7026856e-08
0.0032203162
0.0007687976
0.0032203125
0.001508857
0.0030995514
0.002192486
0.0028622534
0.0027939545
0.0025167579
0.0032904279
0.002075328
0.0036628375
0.0015537637
0.0038964965
0.00097101261
0.0039817544
0.00034850343
0.0039142552
-0.0002904364
0.0036956832
-0.00092182283
0.003333371
-0.0015209467
0.0028404137
-0.0020638561
0.0022353676
-0.0025283719
0.0015416423
-0.002895164
0.00078651581
-0.0031487476
-0.003278315
-0.00051825428
-0.002760071
-0.0010155347
-0.0026514596
-0.0014718703
-0.0024388154
-0.0018691659
-0.0021310579
-0.0021920129
-0.001740985
-0.0024282915
-0.0012846388
-0.0025695562
-0.00078052461
-0.0026111996
-0.00024875691
-0.0025525748
0.00028991554
-0.002396931
0.00081540474
-0.002151067
0.0013079329
-0.0018248774
0.0017491674
-0.0014309785
0.0021228828
-0.00098424443
0.0024155369
-0.00050131118
0.0026166289
1.4927992e-08
0.00271899
0.00050134046
0.002718987
0.00098427199
0.0026166199
0.0014310033
0.0024155222
0.0018248983
0.0021228629
0.0021510831
0.0017491432
0.0023969416
0.0013079052
0.0025525792
0.00081537496
0.0026111974
0.00028988528
0.0025695483
-0.00024878733
0.0024282781
-0.00078055265
0.0021919951
-0.0012846637
0.0018691447
-0.0017410058
0.001471847
-0.0021310741
0.00101551
-0.0024388271
0.00051822899
-0.0026514665
-0.0027600733
-0.00071710396
-0.0020429744
-0.0014058333
-0.0019627302
-0.0020390486
-0.0018056002
-0.0025919761
-0.0015781304
-0.0030432377
-0.0012897233
-0.0033756933
-0.00095218326
-0.0035770691
-0.00057914888
-0.0036403853
-0.00018544072
-0.0035638469
0.00021337723
-0.0033512781
0.00060283592
-0.0030113586
0.0009680133
-0.0025574813
0.0012952901
-0.0020071856
0.0015725871
-0.0013814486
0.0017897999
-0.00070390185
0.0019390821
8.9832772e-09
0.0020150792
0.00070391945
0.0020150765
0.0013814652
0.0019390742
0.0020072004
0.001789787
0.0025574936
0.0015725696
0.0030113678
0.0012952689
0.003351284
0.00096798912
0.0035638491
0.00060280978
0.0036403848
0.00021334959
0.0035770639
-0.00018546638
0.003375685
-0.00057917374
0.0030432269
-0.00095220562
0.0025919635
-0.0012897424
0.0020390348
-0.0015781454
0.001405819
-0.0018056112
0.0007170893
-0.0019627369
-0.0020429766
-0.00055351472
-0.0014894561
-0.0010849345
-0.0014313104
-0.0015731431
-0.0013173916
-0.0019989449
-0.0011523285
-0.0023458784
-0.00094278991
-0.0026008791
-0.00069718247
-0.0027547212
-0.00042530687
-0.0028020243
-0.00013813753
-0.0027402286
0.00015158152
-0.0025741075
0.0004367148
-0.0023109102
0.00070481597
-0.0019611067
0.00094548662
-0.0015381972
0.0011496776
-0.0010581965
0.0013097992
-0.00053904965
0.0014199353
-2.6118296e-09
0.0014760322
0.00053904453
0.0014760294
0.0010581916
0.0014199271
0.0015381927
0.0013097859
0.0019611026
0.0011496597
0.0023109068
0.00094546474
0.0025741049
0.00070479103
0.0027402267
0.00043668794
0.0028020219
0.00015155438
0.0027547215
-0.00013816594
0.0026008809
-0.00042533313
0.0023458814
-0.00069720613
0.0019989492
-0.00094281016
0.0015731485
-0.0011523448
0.0010849408
-0.0013174035
0.00055352172
-0.0014313177
-0.0014894585
-0.0014431431
-0.0028299094
-0.0041062564
-0.0052226187
-0.0061359035
-0.0068111748
-0.0072230039
-0.0073566073
-0.0072095625
-0.0067863302
-0.0061034337
-0.0051874647
-0.0040737699
-0.002805035
-0.0014296647
1.8533688e-08
0.0014297009
0.002805069
0.0040738002
0.00518749
0.0061034529
0.0067863426
0.0072095678
0.0073566059
0.0072229946
0.006811159
0.0061358823
0.0052225933
0.0041062277
0.0028298785
0.0014431108
)
;

boundaryField
{
    leftWall
    {
        type            cyclic;
        value           nonuniform List<scalar> 
32
(
-1.467631e-08
-1.5088257e-08
-1.5994681e-08
-1.7391669e-08
-1.9138733e-08
-2.1171926e-08
-2.3197713e-08
-2.4741794e-08
-2.4911811e-08
-2.2099958e-08
-1.417173e-08
3.1784218e-09
3.695588e-08
9.9638429e-08
2.0516493e-07
2.4966849e-07
-2.2156863e-07
-2.1369397e-07
-1.0903113e-07
-4.3339983e-08
-8.0123533e-09
1.0364747e-08
1.88218e-08
2.16992e-08
2.1358715e-08
1.9933493e-08
1.7262999e-08
1.370062e-08
1.2739143e-08
7.3778125e-09
-3.6247e-09
1.6337551e-08
)
;
    }
    rightWall
    {
        type            cyclic;
        value           nonuniform List<scalar> 
32
(
1.467631e-08
1.5088257e-08
1.5994681e-08
1.7391669e-08
1.9138733e-08
2.1171926e-08
2.3197713e-08
2.4741794e-08
2.4911811e-08
2.2099958e-08
1.417173e-08
-3.1784218e-09
-3.695588e-08
-9.9638429e-08
-2.0516493e-07
-2.4966849e-07
2.2156863e-07
2.1369397e-07
1.0903113e-07
4.3339983e-08
8.0123533e-09
-1.0364747e-08
-1.88218e-08
-2.16992e-08
-2.1358715e-08
-1.9933493e-08
-1.7262999e-08
-1.370062e-08
-1.2739143e-08
-7.3778125e-09
3.6247e-09
-1.6337551e-08
)
;
    }
    lowerWall
    {
        type            calculated;
        value           uniform 0;
    }
    atmosphere
    {
        type            calculated;
        value           nonuniform List<scalar> 
32
(
-4.632936e-05
-4.4544086e-05
-4.1044591e-05
-3.596619e-05
-2.9505184e-05
-2.1911194e-05
-1.3477765e-05
-4.53406e-06
4.5367306e-06
1.3482468e-05
2.1919423e-05
2.9517689e-05
3.598283e-05
4.1064295e-05
4.4564968e-05
4.6348954e-05
4.634696e-05
4.4559063e-05
4.1054691e-05
3.5969875e-05
2.9501862e-05
2.1901315e-05
1.3462768e-05
4.516195e-06
-4.5546047e-06
-1.3497536e-05
-2.1929409e-05
-2.9521132e-05
-3.5979259e-05
-4.1054289e-05
-4.4550053e-05
-4.6331376e-05
)
;
    }
    defaultFaces
    {
        type            empty;
        value           nonuniform List<scalar> 0();
    }
}


// ************************************************************************* //
