/*--------------------------------*- C++ -*----------------------------------*\
| =========                 |                                                 |
| \\      /  F ield         | OpenFOAM: The Open Source CFD Toolbox           |
|  \\    /   O peration     | Version:  2106                                  |
|   \\  /    A nd           | Website:  www.openfoam.com                      |
|    \\/     M anipulation  |                                                 |
\*---------------------------------------------------------------------------*/
FoamFile
{
    version     2.0;
    format      ascii;
    arch        "LSB;label=32;scalar=64";
    class       volVectorField;
    location    "0.019";
    object      U_0;
}
// * * * * * * * * * * * * * * * * * * * * * * * * * * * * * * * * * * * * * //

dimensions      [0 1 -1 0 0 0 0];

internalField   nonuniform List<vector> 
1024
(
(0.008748592 -0.0085794111 0)
(0.025916063 -0.008256612 0)
(0.04210864 -0.0076224647 0)
(0.056714801 -0.0066995401 0)
(0.069179542 -0.0055208907 0)
(0.079024702 -0.0041291021 0)
(0.085867119 -0.0025749966 0)
(0.089433889 -0.00091607407 0)
(0.089573365 0.00078540425 0)
(0.086265943 0.0024639782 0)
(0.079620748 0.0040551623 0)
(0.069882446 0.0054950766 0)
(0.057417352 0.0067257548 0)
(0.042703868 0.0076967062 0)
(0.026313381 0.0083675785 0)
(0.0088874997 0.008710236 0)
(-0.0088884277 0.0087102265 0)
(-0.026314266 0.0083675505 0)
(-0.04270468 0.0076966604 0)
(-0.057418057 0.0067256934 0)
(-0.069883014 0.005495002 0)
(-0.079621158 0.0040550776 0)
(-0.086266178 0.0024638874 0)
(-0.089573419 0.00078531164 0)
(-0.089433762 -0.00091616402 0)
(-0.085866822 -0.0025750799 0)
(-0.07902425 -0.0041291753 0)
(-0.069178958 -0.0055209518 0)
(-0.056714111 -0.0066995879 0)
(-0.04210787 -0.0076224986 0)
(-0.025915241 -0.008256632 0)
(-0.008747739 -0.0085794176 0)
(0.0093375783 -0.026210247 0)
(0.027661386 -0.025224557 0)
(0.044946146 -0.023288083 0)
(0.060539878 -0.020469631 0)
(0.073850551 -0.016869986 0)
(0.084367716 -0.012619032 0)
(0.091681846 -0.0078718289 0)
(0.095500586 -0.0028038752 0)
(0.095661169 0.0023944743 0)
(0.092139253 0.0075249002 0)
(0.085052033 0.012387669 0)
(0.074657511 0.016789244 0)
(0.061346466 0.020551746 0)
(0.045629533 0.02352051 0)
(0.028117579 0.025571918 0)
(0.0094971392 0.026619753 0)
(-0.0094981004 0.026619724 0)
(-0.028118496 0.025571833 0)
(-0.045630374 0.023520371 0)
(-0.061347196 0.020551559 0)
(-0.074658099 0.016789018 0)
(-0.085052457 0.012387411 0)
(-0.092139496 0.0075246242 0)
(-0.095661223 0.0023941928 0)
(-0.095500452 -0.0028041485 0)
(-0.091681534 -0.0078720814 0)
(-0.084367244 -0.012619254 0)
(-0.073849943 -0.016870169 0)
(-0.060539163 -0.020469774 0)
(-0.044945351 -0.023288184 0)
(-0.027660541 -0.025224617 0)
(-0.0093367022 -0.026210266 0)
(0.010447256 -0.045598191 0)
(0.030949352 -0.043884909 0)
(0.050290708 -0.040518815 0)
(0.067742759 -0.035619144 0)
(0.082643598 -0.029360627 0)
(0.094422129 -0.021968548 0)
(0.10261964 -0.013711976 0)
(0.10690791 -0.0048955579 0)
(0.10710321 0.0041502752 0)
(0.10317573 0.013080462 0)
(0.095254119 0.021547231 0)
(0.083624632 0.029213617 0)
(0.068723319 0.03576869 0)
(0.051121487 0.040942037 0)
(0.031503961 0.044517376 0)
(0.010641328 0.046343793 0)
(-0.010642363 0.046343744 0)
(-0.03150495 0.044517231 0)
(-0.051122394 0.040941801 0)
(-0.068724107 0.035768372 0)
(-0.083625267 0.029213229 0)
(-0.095254576 0.02154679 0)
(-0.10317599 0.013079988 0)
(-0.10710326 0.0041497918 0)
(-0.10690775 -0.0048960275 0)
(-0.1026193 -0.013712409 0)
(-0.094421612 -0.021968926 0)
(-0.082642938 -0.029360939 0)
(-0.067741989 -0.035619383 0)
(-0.050289858 -0.040518982 0)
(-0.030948453 -0.043885007 0)
(-0.010446328 -0.045598223 0)
(0.012121802 -0.067716888 0)
(0.035910721 -0.06517475 0)
(0.058354465 -0.060179941 0)
(0.0786086 -0.052908922 0)
(0.095905788 -0.043620386 0)
(0.1095838 -0.032647991 0)
(0.11911041 -0.020390329 0)
(0.12410413 -0.0072986938 0)
(0.12435024 0.0061373998 0)
(0.11981114 0.019406368 0)
(0.11063218 0.031991518 0)
(0.097141911 0.043391342 0)
(0.07984407 0.053141946 0)
(0.059401189 0.060839333 0)
(0.03660951 0.066160095 0)
(0.012366426 0.068878461 0)
(-0.012367578 0.06887839 0)
(-0.036610612 0.066159886 0)
(-0.0594022 0.060838991 0)
(-0.07984495 0.053141484 0)
(-0.097142621 0.043390777 0)
(-0.11063269 0.031990875 0)
(-0.11981143 0.019405675 0)
(-0.12435029 0.0061366908 0)
(-0.12410395 -0.0072993823 0)
(-0.11911001 -0.020390961 0)
(-0.10958321 -0.032648538 0)
(-0.095905042 -0.04362083 0)
(-0.078607741 -0.052909258 0)
(-0.058353528 -0.060180172 0)
(-0.035909739 -0.065174883 0)
(-0.012120796 -0.067716931 0)
(0.014389596 -0.093731857 0)
(0.04262936 -0.090215784 0)
(0.069273039 -0.083307183 0)
(0.09331894 -0.073249749 0)
(0.11385712 -0.060400823 0)
(0.13010272 -0.045221368 0)
(0.14142526 -0.02826185 0)
(0.14737262 -0.010145123 0)
(0.14768908 0.0084536076 0)
(0.14232633 0.026828694 0)
(0.13145081 0.044265272 0)
(0.11544656 0.060067356 0)
(0.094907483 0.073589305 0)
(0.070618854 0.084267678 0)
(0.043527832 0.091650915 0)
(0.014704232 0.095423577 0)
(-0.014705547 0.095423482 0)
(-0.043529092 0.091650634 0)
(-0.070620013 0.084267218 0)
(-0.094908492 0.073588683 0)
(-0.11544738 0.060066593 0)
(-0.1314514 0.044264398 0)
(-0.14232665 0.026827748 0)
(-0.14768913 0.0084526356 0)
(-0.14737239 -0.010146067 0)
(-0.14142478 -0.028262711 0)
(-0.13010201 -0.045222102 0)
(-0.11385625 -0.060401407 0)
(-0.093317956 -0.073250179 0)
(-0.069271986 -0.083307471 0)
(-0.042628272 -0.090215946 0)
(-0.014388491 -0.093731909 0)
(0.017320375 -0.12485185 0)
(0.051311465 -0.12017078 0)
(0.08338029 -0.11097324 0)
(0.11232138 -0.097583845 0)
(0.13704084 -0.080478574 0)
(0.15659685 -0.06027124 0)
(0.17023444 -0.037693898 0)
(0.17741294 -0.013573379 0)
(0.17782574 0.011195691 0)
(0.17140983 0.035679438 0)
(0.1583554 0.058927465 0)
(0.13911425 0.0800101 0)
(0.11439359 0.098061428 0)
(0.085135845 0.11232352 0)
(0.052483495 0.12218804 0)
(0.017730931 0.12722963 0)
(-0.017732457 0.12722951 0)
(-0.052484961 0.12218768 0)
(-0.085137195 0.11232293 0)
(-0.11439477 0.098060625 0)
(-0.13911521 0.080009108 0)
(-0.1583561 0.058926321 0)
(-0.17141022 0.035678189 0)
(-0.17782579 0.0111944 0)
(-0.17741265 -0.013574633 0)
(-0.17023383 -0.037695032 0)
(-0.15659599 -0.060272187 0)
(-0.13703979 -0.080479301 0)
(-0.11232022 -0.097584359 0)
(-0.083379086 -0.11097356 0)
(-0.051310248 -0.12017095 0)
(-0.017319156 -0.12485191 0)
(0.021117271 -0.16249934 0)
(0.062558137 -0.15640723 0)
(0.10165087 -0.14443823 0)
(0.13692505 -0.12701636 0)
(0.16704896 -0.10476305 0)
(0.19087985 -0.078479082 0)
(0.20750575 -0.049116932 0)
(0.21627636 -0.017748566 0)
(0.21682335 0.014470945 0)
(0.20906329 0.046340075 0)
(0.19321032 0.076626926 0)
(0.16979685 0.10411774 0)
(0.13967143 0.1276754 0)
(0.10397758 0.14630031 0)
(0.06411149 0.15918859 0)
(0.021661552 0.16577748 0)
(-0.021663338 0.16577733 0)
(-0.06411321 0.15918814 0)
(-0.10397917 0.14629957 0)
(-0.13967283 0.12767439 0)
(-0.169798 0.10411649 0)
(-0.19321116 0.076625465 0)
(-0.20906376 0.046338459 0)
(-0.21682341 0.014469255 0)
(-0.21627597 -0.017750211 0)
(-0.20750496 -0.049118403 0)
(-0.19087874 -0.078480272 0)
(-0.16704767 -0.10476392 0)
(-0.13692367 -0.12701693 0)
(-0.10164949 -0.14443856 0)
(-0.062556781 -0.1564074 0)
(-0.02111594 -0.16249939 0)
(0.026235234 -0.20868787 0)
(0.077716035 -0.20085993 0)
(0.12626957 -0.18548332 0)
(0.17006663 -0.16310721 0)
(0.20745513 -0.13453556 0)
(0.23702457 -0.10080325 0)
(0.25765768 -0.063135727 0)
(0.26856464 -0.022903953 0)
(0.26930248 0.018426088 0)
(0.25975878 0.05934203 0)
(0.24016867 0.098273165 0)
(0.2111627 0.13365487 0)
(0.17377231 0.16400922 0)
(0.12940896 0.18802939 0)
(0.079811913 0.20466199 0)
(0.026969788 0.21316847 0)
(-0.026971882 0.2131683 0)
(-0.079813937 0.20466145 0)
(-0.12941085 0.1880285 0)
(-0.17377399 0.16400801 0)
(-0.2111641 0.13365333 0)
(-0.24016972 0.098271334 0)
(-0.2597594 0.059339961 0)
(-0.26930256 0.018423876 0)
(-0.26856414 -0.02290612 0)
(-0.25765663 -0.063137634 0)
(-0.23702312 -0.10080473 0)
(-0.20745348 -0.13453655 0)
(-0.17006496 -0.16310779 0)
(-0.12626797 -0.1854836 0)
(-0.077714546 -0.20086003 0)
(-0.026233822 -0.20868789 0)
(0.033482444 -0.26664167 0)
(0.099177539 -0.25662626 0)
(0.16111821 -0.23695865 0)
(0.21696464 -0.20835043 0)
(0.2646099 -0.17184156 0)
(0.30226688 -0.1287699 0)
(0.32853494 -0.080709392 0)
(0.34243844 -0.029405766 0)
(0.34344549 0.023297996 0)
(0.33140288 0.075534787 0)
(0.30655892 0.12531941 0)
(0.26967141 0.17064221 0)
(0.22202344 0.20958432 0)
(0.16540357 0.24043624 0)
(0.10203815 0.26181746 0)
(0.034485176 0.27275813 0)
(-0.034487613 0.27275793 0)
(-0.10204052 0.26181682 0)
(-0.16540579 0.2404352 0)
(-0.22202547 0.20958289 0)
(-0.26967316 0.17064035 0)
(-0.30656027 0.12531715 0)
(-0.33140373 0.075532152 0)
(-0.34344565 0.023295073 0)
(-0.34243777 -0.029408668 0)
(-0.32853348 -0.08071189 0)
(-0.30226489 -0.1287717 0)
(-0.26460774 -0.17184261 0)
(-0.21696258 -0.2083509 0)
(-0.16111638 -0.23695874 0)
(-0.099175967 -0.2566262 0)
(-0.033481039 -0.26664162 0)
(0.043992722 -0.34157877 0)
(0.1302987 -0.32871828 0)
(0.21164146 -0.30347487 0)
(0.28493704 -0.26677777 0)
(0.3474145 -0.219982 0)
(0.3967398 -0.16483334 0)
(0.43110703 -0.10336853 0)
(0.44928538 -0.037823231 0)
(0.45064753 0.029487176 0)
(0.43498664 0.096305994 0)
(0.40254654 0.16012526 0)
(0.35426226 0.21834937 0)
(0.29178003 0.26846937 0)
(0.21743678 0.30823095 0)
(0.13416607 0.33581375 0)
(0.045348319 0.34993613 0)
(-0.04535113 0.34993591 0)
(-0.13416882 0.33581301 0)
(-0.21743936 0.30822977 0)
(-0.29178247 0.26846777 0)
(-0.35426445 0.21834724 0)
(-0.40254834 0.16012256 0)
(-0.4349879 0.09630266 0)
(-0.45064786 0.029483231 0)
(-0.44928445 -0.037827241 0)
(-0.43110489 -0.10337187 0)
(-0.39673695 -0.16483549 0)
(-0.34741159 -0.21998298 0)
(-0.28493449 -0.26677794 0)
(-0.21163942 -0.30347456 0)
(-0.13029716 -0.3287179 0)
(-0.043991511 -0.34157861 0)
(0.058869299 -0.4412085 0)
(0.17434386 -0.42453901 0)
(0.28313233 -0.39183913 0)
(0.38109306 -0.34433593 0)
(0.46450477 -0.28381316 0)
(0.53025128 -0.21258491 0)
(0.57595074 -0.13332591 0)
(0.60002414 -0.048944036 0)
(0.60177966 0.037621885 0)
(0.58095208 0.1237335 0)
(0.53773961 0.20619356 0)
(0.47333681 0.28160448 0)
(0.38991654 0.34664733 0)
(0.2906016 0.39831541 0)
(0.17932537 0.43419237 0)
(0.060614815 0.45257217 0)
(-0.060618065 0.45257193 0)
(-0.17932855 0.43419152 0)
(-0.29060456 0.39831411 0)
(-0.38991942 0.3466457 0)
(-0.47333958 0.2816022 0)
(-0.53774208 0.20619047 0)
(-0.58095407 0.12372933 0)
(-0.6017804 0.03761637 0)
(-0.60002279 -0.048949876 0)
(-0.57594741 -0.13333049 0)
(-0.53024699 -0.21258736 0)
(-0.46450074 -0.28381376 0)
(-0.38108987 -0.3443354 0)
(-0.28313013 -0.39183803 0)
(-0.17434262 -0.42453802 0)
(-0.058868626 -0.44120814 0)
(0.078226602 -0.57514184 0)
(0.23164831 -0.55331309 0)
(0.37612596 -0.51052825 0)
(0.50614012 -0.44841973 0)
(0.61671255 -0.3693454 0)
(0.70368661 -0.27642024 0)
(0.76390171 -0.17322446 0)
(0.79532481 -0.06362204 0)
(0.79733905 0.048569397 0)
(0.7696447 0.16047518 0)
(0.71229711 0.2679353 0)
(0.62688151 0.36642491 0)
(0.51629974 0.45151323 0)
(0.38472222 0.51916052 0)
(0.23737552 0.56616553 0)
(0.080231478 0.5902566 0)
(-0.080235419 0.59025637 0)
(-0.23737936 0.56616448 0)
(-0.38472557 0.51915904 0)
(-0.51630303 0.45151178 0)
(-0.62688496 0.3664228 0)
(-0.71230051 0.2679321 0)
(-0.76964803 0.16047011 0)
(-0.79734072 0.048561252 0)
(-0.79532269 -0.063631267 0)
(-0.76389605 -0.17323088 0)
(-0.7036798 -0.2764227 0)
(-0.61670684 -0.36934499 0)
(-0.50613612 -0.44841789 0)
(-0.37612376 -0.51052569 0)
(-0.23164783 -0.55331106 0)
(-0.078227041 -0.57514118 0)
(0.099415981 -0.75156979 0)
(0.2943693 -0.72290101 0)
(0.47788301 -0.66676668 0)
(0.64294315 -0.5853406 0)
(0.78316384 -0.48172263 0)
(0.8931931 -0.36008689 0)
(0.96888618 -0.22516166 0)
(1.0076931 -0.082311774 0)
(1.009444 0.063240668 0)
(0.97388267 0.2089401 0)
(0.90071009 0.34920138 0)
(0.79211993 0.47793451 0)
(0.65191965 0.58922512 0)
(0.4854832 0.67768115 0)
(0.29942289 0.73915538 0)
(0.10118097 0.77066487 0)
(-0.10118629 0.77066466 0)
(-0.29942797 0.73915378 0)
(-0.48548692 0.67767909 0)
(-0.65192309 0.58922415 0)
(-0.79212407 0.47793322 0)
(-0.9007149 0.34919884 0)
(-0.97388882 0.2089346 0)
(-1.0094481 0.063227911 0)
(-1.0076894 -0.08232788 0)
(-0.96887563 -0.22517052 0)
(-0.8931818 -0.36008835 0)
(-0.78315554 -0.48172 0)
(-0.64293797 -0.5853364 0)
(-0.47788099 -0.66676149 0)
(-0.29437043 -0.72289716 0)
(-0.099418503 -0.75156869 0)
(0.1145529 -0.96926709 0)
(0.33920101 -0.93215399 0)
(0.55056394 -0.85947224 0)
(0.740571 -0.75407913 0)
(0.90172838 -0.61984169 0)
(1.0276445 -0.46233606 0)
(1.1136911 -0.28803796 0)
(1.1566076 -0.10408152 0)
(1.1570657 0.082023953 0)
(1.114988 0.26932629 0)
(1.0295598 0.44982382 0)
(0.90394081 0.61534277 0)
(0.7427642 0.7584167 0)
(0.55243329 0.87197588 0)
(0.34042556 0.95088929 0)
(0.11498059 0.99131918 0)
(-0.11498839 0.99131904 0)
(-0.34043289 0.95088623 0)
(-0.55243704 0.87197183 0)
(-0.74276672 0.7584166 0)
(-0.90394559 0.61534401 0)
(-1.0295675 0.44982468 0)
(-1.115001 0.26932384 0)
(-1.1570766 0.082003043 0)
(-1.1566001 -0.10411314 0)
(-1.1136698 -0.28804777 0)
(-1.0276257 -0.46233339 0)
(-0.90171601 -0.61983479 0)
(-0.74056341 -0.75407112 0)
(-0.5505619 -0.85946232 0)
(-0.33920515 -0.93214699 0)
(-0.11455933 -0.96926537 0)
(0.10831881 -1.2049291 0)
(0.32113327 -1.1582398 0)
(0.52122896 -1.0673676 0)
(0.70087252 -0.93582414 0)
(0.85289341 -0.76811384 0)
(0.97107154 -0.57150404 0)
(1.0507679 -0.35400454 0)
(1.0880062 -0.1248959 0)
(1.085062 0.10358539 0)
(1.0424679 0.33579857 0)
(0.95874336 0.5592295 0)
(0.83844993 0.76370747 0)
(0.68665708 0.93988885 0)
(0.50947216 1.0792341 0)
(0.31339449 1.1761479 0)
(0.10572053 1.2257361 0)
(-0.10573101 1.2257362 0)
(-0.31340413 1.1761417 0)
(-0.509474 1.0792249 0)
(-0.68665575 0.93988982 0)
(-0.83845544 0.76371402 0)
(-0.95875838 0.55923809 0)
(-1.0424998 0.33580715 0)
(-1.0850923 0.10354041 0)
(-1.0879867 -0.12497669 0)
(-1.0507223 -0.35400775 0)
(-0.97104403 -0.57149104 0)
(-0.85287626 -0.76810074 0)
(-0.70085953 -0.93581098 0)
(-0.52122535 -1.0673495 0)
(-0.32114193 -1.1582275 0)
(-0.10833187 -1.2049266 0)
(0.059641627 -1.4066105 0)
(0.17663642 -1.3530451 0)
(0.28609644 -1.2466456 0)
(0.38340344 -1.0929855 0)
(0.46456528 -0.89615057 0)
(0.5260492 -0.66515954 0)
(0.56555859 -0.40878922 0)
(0.57960149 -0.13655054 0)
(0.57141337 0.12629865 0)
(0.54244907 0.39984868 0)
(0.4914335 0.65893618 0)
(0.42358249 0.89345278 0)
(0.34227168 1.0942528 0)
(0.25097714 1.2518199 0)
(0.15314045 1.3612767 0)
(0.051320119 1.4169148 0)
(-0.051327697 1.4169156 0)
(-0.15314663 1.361263 0)
(-0.25097532 1.2517968 0)
(-0.34226716 1.0942581 0)
(-0.42358977 0.89347694 0)
(-0.49146107 0.65896335 0)
(-0.54253344 0.39991513 0)
(-0.57149516 0.12620785 0)
(-0.57953507 -0.13678145 0)
(-0.56545328 -0.40871683 0)
(-0.52601962 -0.66512326 0)
(-0.46454942 -0.89613845 0)
(-0.3833872 -1.0929676 0)
(-0.28609052 -1.2466064 0)
(-0.17664598 -1.3530179 0)
(-0.059657426 -1.4066057 0)
(-0.050951876 -1.4171549 0)
(-0.15208164 -1.3615466 0)
(-0.24926564 -1.2520656 0)
(-0.33997205 -1.0945167 0)
(-0.42079147 -0.89370224 0)
(-0.48825248 -0.65914226 0)
(-0.53902715 -0.40005187 0)
(-0.56786332 -0.12636265 0)
(-0.57601143 0.13655479 0)
(-0.56211704 0.40878798 0)
(-0.52290484 0.66527997 0)
(-0.46181385 0.8963404 0)
(-0.3811573 1.0932562 0)
(-0.28443173 1.2470078 0)
(-0.17561611 1.3534362 0)
(-0.059309583 1.407053 0)
(0.059318209 1.4070538 0)
(0.17562354 1.3534229 0)
(0.28442971 1.2469855 0)
(0.38115179 1.0932616 0)
(0.46182113 0.89636456 0)
(0.52293246 0.66530792 0)
(0.56219924 0.40885634 0)
(0.57609372 0.13646895 0)
(0.56780139 -0.12658848 0)
(0.53892412 -0.39997751 0)
(0.48822347 -0.65910523 0)
(0.42077625 -0.89369013 0)
(0.3399572 -1.0944986 0)
(0.24926007 -1.2520254 0)
(0.15208964 -1.3615187 0)
(0.050965863 -1.4171499 0)
(-0.10533779 -1.2267116 0)
(-0.31227595 -1.1771027 0)
(-0.50766094 -1.0801239 0)
(-0.68422969 -0.94069783 0)
(-0.83551317 -0.7643991 0)
(-0.95541327 -0.55977015 0)
(-1.0388815 -0.33616911 0)
(-1.0813523 -0.10372927 0)
(-1.0843016 0.12496003 0)
(-1.0472244 0.35425073 0)
(-0.9678294 0.5719618 0)
(-0.85006831 0.76876525 0)
(-0.69856999 0.93665041 0)
(-0.51952455 1.0683413 0)
(-0.32008771 1.1593051 0)
(-0.10796989 1.2060538 0)
(0.10798025 1.2060539 0)
(0.32009739 1.1592994 0)
(0.51952669 1.0683329 0)
(0.69856915 0.93665146 0)
(0.85007443 0.76877155 0)
(0.96784541 0.5719707 0)
(1.0472582 0.35425995 0)
(1.0843318 0.12491743 0)
(1.0813305 -0.10380629 0)
(1.0388345 -0.3361709 0)
(0.95538502 -0.55975658 0)
(0.83549541 -0.76438607 0)
(0.68421612 -0.94068435 0)
(0.50765702 -1.0801045 0)
(0.31228476 -1.1770893 0)
(0.10535137 -1.2267089 0)
(-0.11457455 -0.9930551 0)
(-0.33922823 -0.95256773 0)
(-0.55049485 -0.87353044 0)
(-0.74016552 -0.75979545 0)
(-0.90079233 -0.616491 0)
(-1.0259893 -0.45069349 0)
(-1.1111407 -0.26987925 0)
(-1.153088 -0.082225756 0)
(-1.1526467 0.10423127 0)
(-1.1099046 0.28852696 0)
(-1.0241791 0.46315779 0)
(-0.8987105 0.62096801 0)
(-0.73811021 0.75547153 0)
(-0.54874286 0.86107766 0)
(-0.33808329 0.93390297 0)
(-0.11417705 0.97109422 0)
(0.11418449 0.97109406 0)
(0.33809035 0.93390011 0)
(0.54874658 0.86107388 0)
(0.73811285 0.75547133 0)
(0.89871534 0.62096893 0)
(1.0241868 0.4631581 0)
(1.1099178 0.28852318 0)
(1.1526577 0.10420787 0)
(1.1530799 -0.082258513 0)
(1.111119 -0.26988947 0)
(1.0259705 -0.45069086 0)
(0.90077986 -0.61648409 0)
(0.74015779 -0.7597873 0)
(0.55049286 -0.87352006 0)
(0.33923274 -0.95256036 0)
(0.11458157 -0.99305331 0)
(-0.10074009 -0.77327142 0)
(-0.29811843 -0.74166576 0)
(-0.48337022 -0.67999809 0)
(-0.64908632 -0.5912618 0)
(-0.78868468 -0.47961174 0)
(-0.89681318 -0.35045273 0)
(-0.96968067 -0.20971546 0)
(-1.0050997 -0.063506258 0)
(-1.0033721 0.082563215 0)
(-0.96475589 0.22591785 0)
(-0.8894106 0.36132334 0)
(-0.77986748 0.48339415 0)
(-0.64025081 0.58738324 0)
(-0.47588949 0.6691032 0)
(-0.29314461 0.72543921 0)
(-0.099002719 0.75421301 0)
(0.099007783 0.75421279 0)
(0.29314949 0.72543766 0)
(0.47589313 0.66910117 0)
(0.64025425 0.58738219 0)
(0.77987163 0.48339278 0)
(0.88941538 0.36132079 0)
(0.96476198 0.22591243 0)
(1.0033761 0.082550479 0)
(1.0050958 -0.06352218 0)
(0.96967001 -0.20972393 0)
(0.89680188 -0.35045391 0)
(0.78867641 -0.47960893 0)
(0.64908122 -0.59125747 0)
(0.48336837 -0.67999273 0)
(0.29811988 -0.74166177 0)
(0.10074301 -0.77327028 0)
(-0.079741218 -0.59371736 0)
(-0.23592298 -0.56949287 0)
(-0.38236808 -0.52222441 0)
(-0.51314141 -0.45419524 0)
(-0.62304911 -0.36862092 0)
(-0.70794622 -0.26956028 0)
(-0.76494926 -0.16146681 0)
(-0.79248275 -0.048890117 0)
(-0.79049452 0.063980739 0)
(-0.75928264 0.17424569 0)
(-0.69945319 0.27806401 0)
(-0.6130207 0.3715482 0)
(-0.50312344 0.45109732 0)
(-0.37389172 0.51357867 0)
(-0.23027524 0.55661951 0)
(-0.077762688 0.57857941 0)
(0.077766488 0.57857917 0)
(0.23027896 0.55661845 0)
(0.37389499 0.51357715 0)
(0.50312668 0.45109577 0)
(0.61302408 0.37154597 0)
(0.69945653 0.27806071 0)
(0.75928589 0.17424062 0)
(0.79049608 0.063972692 0)
(0.79248049 -0.048899154 0)
(0.76494354 -0.16147304 0)
(0.70793945 -0.26956261 0)
(0.6230435 -0.36862041 0)
(0.51313755 -0.45419331 0)
(0.38236607 -0.52222175 0)
(0.23592275 -0.56949076 0)
(0.079741937 -0.59371668 0)
(-0.06005634 -0.45718115 0)
(-0.17767006 -0.4386205 0)
(-0.28791845 -0.40238857 0)
(-0.38631654 -0.35020643 0)
(-0.46896774 -0.28451133 0)
(-0.53277856 -0.20833676 0)
(-0.57559712 -0.12503274 0)
(-0.59624108 -0.038030741 0)
(-0.59451572 0.049436036 0)
(-0.5706827 0.13469437 0)
(-0.52542179 0.21477355 0)
(-0.4602919 0.2867357 0)
(-0.37764973 0.34787944 0)
(-0.28058162 0.39586859 0)
(-0.17277608 0.42890194 0)
(-0.058339411 0.44574133 0)
(0.058342561 0.44574109 0)
(0.17277917 0.42890107 0)
(0.2805845 0.39586724 0)
(0.37765252 0.34787771 0)
(0.46029456 0.28673332 0)
(0.52542414 0.21477037 0)
(0.57068458 0.13469014 0)
(0.59451637 0.049430502 0)
(0.59623966 -0.038036552 0)
(0.57559377 -0.12503726 0)
(0.53277432 -0.20833915 0)
(0.46896383 -0.28451188 0)
(0.3863135 -0.35020586 0)
(0.28791643 -0.40238742 0)
(0.17766903 -0.43861948 0)
(0.060055903 -0.45718078 0)
(-0.044670762 -0.35516199 0)
(-0.13215769 -0.34082929 0)
(-0.2141801 -0.31283528 0)
(-0.28740813 -0.27248019 0)
(-0.34895247 -0.2216106 0)
(-0.39651216 -0.16251341 0)
(-0.42846723 -0.097734726 0)
(-0.44389859 -0.029909858 0)
(-0.44256813 0.038412354 0)
(-0.42467826 0.10493731 0)
(-0.39084166 0.1673137 0)
(-0.34226586 0.22327367 0)
(-0.28072649 0.27075258 0)
(-0.20852117 0.30798203 0)
(-0.12838032 0.33358975 0)
(-0.04334438 0.34663528 0)
(0.043347081 0.34663505 0)
(0.12838296 0.33358899 0)
(0.20852365 0.3079808 0)
(0.28072882 0.27075091 0)
(0.34226794 0.22327145 0)
(0.39084335 0.16731091 0)
(0.42467942 0.10493392 0)
(0.44256839 0.038408373 0)
(0.44389762 -0.029913877 0)
(0.42846511 -0.097738052 0)
(0.39650937 -0.16251554 0)
(0.34894968 -0.22161156 0)
(0.28740572 -0.27248033 0)
(0.21417823 -0.31283494 0)
(0.13215635 -0.34082889 0)
(0.044669751 -0.35516182 0)
(-0.033635641 -0.28133707 0)
(-0.099521924 -0.27005727 0)
(-0.16132561 -0.24801145 0)
(-0.21655114 -0.21619737 0)
(-0.26302647 -0.1760364 0)
(-0.29900754 -0.12928876 0)
(-0.32324418 -0.077931677 0)
(-0.3349993 -0.024038123 0)
(-0.33403038 0.030341374 0)
(-0.32048508 0.083274234 0)
(-0.29487881 0.13285668 0)
(-0.25815834 0.17728756 0)
(-0.21168678 0.21494435 0)
(-0.15720594 0.24444922 0)
(-0.096771942 0.2647316 0)
(-0.0326697 0.27505945 0)
(0.032672009 0.27505923 0)
(0.096774187 0.26473093 0)
(0.15720804 0.24444812 0)
(0.21168869 0.21494284 0)
(0.25815997 0.17728561 0)
(0.29488006 0.13285432 0)
(0.32048584 0.083271508 0)
(0.33403048 0.030338373 0)
(0.3349986 -0.024041087 0)
(0.32324274 -0.077934223 0)
(0.29900561 -0.12929059 0)
(0.26302442 -0.17603749 0)
(0.21654922 -0.21619787 0)
(0.16132395 -0.24801156 0)
(0.099520533 -0.27005723 0)
(0.033634428 -0.28133703 0)
(-0.025727007 -0.21806802 0)
(-0.076129534 -0.20935154 0)
(-0.12343301 -0.19231243 0)
(-0.16573943 -0.16771195 0)
(-0.20138958 -0.13663275 0)
(-0.22903875 -0.10041632 0)
(-0.24770623 -0.060579224 0)
(-0.25679448 -0.018726217 0)
(-0.25608413 0.02353298 0)
(-0.24568363 0.064650954 0)
(-0.22601224 0.10313077 0)
(-0.1978208 0.13757559 0)
(-0.1621726 0.16673941 0)
(-0.12041096 0.18957173 0)
(-0.074110946 0.20525792 0)
(-0.025017408 0.21324215 0)
(0.025019343 0.21324196 0)
(0.074112815 0.20525735 0)
(0.12041269 0.1895708 0)
(0.16217415 0.16673813 0)
(0.19782208 0.13757398 0)
(0.22601318 0.10312886 0)
(0.24568416 0.064648819 0)
(0.25608417 0.023530712 0)
(0.25679397 -0.01872843 0)
(0.24770522 -0.060581167 0)
(0.22903737 -0.10041782 0)
(0.20138805 -0.13663376 0)
(0.16573791 -0.16771255 0)
(0.12343159 -0.19231272 0)
(0.076128238 -0.20935165 0)
(0.025725797 -0.21806804 0)
(-0.020174408 -0.18595075 0)
(-0.05970661 -0.17856989 0)
(-0.096831207 -0.1641305 0)
(-0.13006928 -0.14325946 0)
(-0.15812285 -0.11685416 0)
(-0.17992788 -0.086028807 0)
(-0.19469293 -0.052054378 0)
(-0.20192252 -0.01629164 0)
(-0.20141613 0.019875327 0)
(-0.19325176 0.055093493 0)
(-0.17777285 0.088062541 0)
(-0.15558265 0.11757614 0)
(-0.12752957 0.14256321 0)
(-0.094677408 0.16212441 0)
(-0.058266662 0.17556251 0)
(-0.019667775 0.18240195 0)
(0.019669394 0.18240179 0)
(0.05826822 0.17556203 0)
(0.094678849 0.16212361 0)
(0.12753084 0.14256212 0)
(0.15558369 0.11757479 0)
(0.17777359 0.088060973 0)
(0.19325217 0.055091768 0)
(0.20141615 0.019873532 0)
(0.20192214 -0.016293379 0)
(0.19469218 -0.052055933 0)
(0.17992685 -0.086030075 0)
(0.15812166 -0.1168551 0)
(0.13006804 -0.14326009 0)
(0.096829987 -0.16413088 0)
(0.059705436 -0.17857008 0)
(0.020173268 -0.1859508 0)
(-0.015096181 -0.12786606 0)
(-0.044678294 -0.12277274 0)
(-0.072460956 -0.1128113 0)
(-0.097337314 -0.098418499 0)
(-0.1183336 -0.080216724 0)
(-0.13465071 -0.058983598 0)
(-0.14569262 -0.035602395 0)
(-0.15108491 -0.011012571 0)
(-0.15067625 0.013829457 0)
(-0.14452878 0.037989053 0)
(-0.13290839 0.06057378 0)
(-0.11627847 0.080764015 0)
(-0.095280931 0.097838734 0)
(-0.070717847 0.11119271 0)
(-0.043513471 0.12036062 0)
(-0.014686478 0.12502509 0)
(0.014687792 0.12502493 0)
(0.043514733 0.12036016 0)
(0.070719008 0.11119196 0)
(0.095281944 0.097837713 0)
(0.11627929 0.08076276 0)
(0.13290897 0.06057234 0)
(0.14452909 0.037987488 0)
(0.15067627 0.01382784 0)
(0.15108464 -0.011014148 0)
(0.14569207 -0.035603837 0)
(0.13464994 -0.058984827 0)
(0.11833269 -0.080217698 0)
(0.097336331 -0.098419215 0)
(0.072459951 -0.11281178 0)
(0.044677296 -0.12277301 0)
(0.015095191 -0.12786614 0)
(-0.012687289 -0.14017843 0)
(-0.037553869 -0.13466253 0)
(-0.060921547 -0.12386338 0)
(-0.081865843 -0.10823411 0)
(-0.099568084 -0.088425695 0)
(-0.11335185 -0.065252367 0)
(-0.1227092 -0.039651297 0)
(-0.12731227 -0.012640007 0)
(-0.12701656 0.014731553 0)
(-0.12186634 0.041425818 0)
(-0.11208911 0.066441217 0)
(-0.098077457 0.088850485 0)
(-0.080377034 0.10783302 0)
(-0.059660172 0.12270106 0)
(-0.036711344 0.13291795 0)
(-0.012390978 0.13811879 0)
(0.012391979 0.13811869 0)
(0.036712303 0.13291767 0)
(0.059661052 0.12270059 0)
(0.0803778 0.1078324 0)
(0.098078073 0.088849723 0)
(0.11208954 0.066440349 0)
(0.12186658 0.041424883 0)
(0.12701658 0.014730599 0)
(0.12731207 -0.012640938 0)
(0.1227088 -0.039652139 0)
(0.11335129 -0.06525308 0)
(0.099567413 -0.088426257 0)
(0.081865104 -0.10823452 0)
(0.060920777 -0.12386365 0)
(0.037553091 -0.13466268 0)
(0.012686506 -0.14017847 0)
(-0.0083631244 -0.059588811 0)
(-0.024749846 -0.057202593 0)
(-0.040135995 -0.052537336 0)
(-0.053906402 -0.045800838 0)
(-0.065520294 -0.037288834 0)
(-0.074533736 -0.027368155 0)
(-0.080615744 -0.016455817 0)
(-0.083557072 -0.0049964938 0)
(-0.083274789 0.0065579979 0)
(-0.07981209 0.017776502 0)
(-0.07333221 0.028245433 0)
(-0.064104298 0.037588502 0)
(-0.052491286 0.045475245 0)
(-0.038936804 0.051634251 0)
(-0.023948582 0.05585785 0)
(-0.0080812779 0.058005144 0)
(0.0080821626 0.058005054 0)
(0.023949428 0.055857583 0)
(0.03893758 0.051633815 0)
(0.05249196 0.045474657 0)
(0.06410484 0.037587785 0)
(0.073332597 0.028244614 0)
(0.079812303 0.017775617 0)
(0.083274814 0.0065570888 0)
(0.083556915 -0.0049973639 0)
(0.080615421 -0.016456624 0)
(0.07453327 -0.027368864 0)
(0.065519718 -0.037289422 0)
(0.053905748 -0.045801291 0)
(0.040135291 -0.052537656 0)
(0.024749119 -0.057202781 0)
(0.0083623826 -0.059588873 0)
(-0.011561731 -0.12896238 0)
(-0.034226995 -0.12393482 0)
(-0.055538599 -0.11408423 0)
(-0.074658854 -0.099809976 0)
(-0.090843505 -0.081687835 0)
(-0.10347177 -0.060444038 0)
(-0.11206991 -0.036923155 0)
(-0.11633133 -0.012052337 0)
(-0.11611102 0.01319986 0)
(-0.11144312 0.037898181 0)
(-0.1025344 0.061099904 0)
(-0.089738338 0.081926762 0)
(-0.073554009 0.099597594 0)
(-0.05460213 0.11345528 0)
(-0.033601268 0.12298713 0)
(-0.011341738 0.12784212 0)
(0.011342238 0.12784192 0)
(0.033601744 0.12298655 0)
(0.054602563 0.11345432 0)
(0.073554382 0.099596311 0)
(0.089738632 0.081925202 0)
(0.1025346 0.061098128 0)
(0.11144322 0.037896264 0)
(0.11611103 0.013197879 0)
(0.11633125 -0.012054319 0)
(0.11206971 -0.036925033 0)
(0.10347149 -0.060445737 0)
(0.090843182 -0.081689295 0)
(0.074658494 -0.09981115 0)
(0.055538218 -0.11408509 0)
(0.034226608 -0.12393534 0)
(0.011561338 -0.12896256 0)
(-0.0089456228 0.011301692 0)
(-0.026479495 0.010901129 0)
(-0.042956595 0.01011021 0)
(-0.05772485 0.0089492674 0)
(-0.07020782 0.0074499297 0)
(-0.079928685 0.0056558357 0)
(-0.086528016 0.0036236248 0)
(-0.089773549 0.0014251052 0)
(-0.089532595 -0.00086567448 0)
(-0.085841573 -0.0031514927 0)
(-0.078901735 -0.0053449726 0)
(-0.068996765 -0.0073496893 0)
(-0.056514231 -0.0090770072 0)
(-0.041930608 -0.010448426 0)
(-0.025794181 -0.011400253 0)
(-0.0087051214 -0.011887624 0)
(0.0087049526 -0.011887389 0)
(0.025794011 -0.011399557 0)
(0.041930447 -0.010447295 0)
(0.056514085 -0.0090754826 0)
(0.068996636 -0.007347828 0)
(0.07890163 -0.0053428453 0)
(0.085841495 -0.0031491778 0)
(0.089532521 -0.00086325849 0)
(0.089773514 0.0014275237 0)
(0.086528051 0.0036259592 0)
(0.079928764 0.0056579942 0)
(0.070207946 0.0074518284 0)
(0.057725013 0.0089508311 0)
(0.042956792 0.010111373 0)
(0.026479723 0.010901847 0)
(0.0089458589 0.011301935 0)
(-0.023278787 -0.12043099 0)
(-0.068925839 -0.115774 0)
(-0.11188143 -0.10664351 0)
(-0.15047349 -0.093397651 0)
(-0.18320728 -0.076554924 0)
(-0.20882385 -0.056773067 0)
(-0.22634628 -0.034825036 0)
(-0.23513851 -0.011584577 0)
(-0.23491468 0.01194469 0)
(-0.22570903 0.035133356 0)
(-0.20786983 0.056984946 0)
(-0.18208163 0.076640352 0)
(-0.14934761 0.093345888 0)
(-0.11092669 0.1064647 0)
(-0.068287542 0.11549759 0)
(-0.023053971 0.12010118 0)
(0.023055056 0.12010054 0)
(0.068288575 0.1154957 0)
(0.11092763 0.10646162 0)
(0.14934843 0.093341742 0)
(0.18208227 0.076635296 0)
(0.20787029 0.056979174 0)
(0.22570928 0.035127095 0)
(0.23491473 0.011938188 0)
(0.23513835 -0.011591051 0)
(0.22634591 -0.034831239 0)
(0.2088233 -0.056778758 0)
(0.18320659 -0.076559885 0)
(0.1504727 -0.093401702 0)
(0.11188056 -0.10664651 0)
(0.068924925 -0.11577584 0)
(0.023277842 -0.12043162 0)
)
;

boundaryField
{
    leftWall
    {
        type            cyclic;
    }
    rightWall
    {
        type            cyclic;
    }
    lowerWall
    {
        type            slip;
    }
    atmosphere
    {
        type            slip;
    }
    defaultFaces
    {
        type            empty;
    }
}


// ************************************************************************* //
