/*--------------------------------*- C++ -*----------------------------------*\
| =========                 |                                                 |
| \\      /  F ield         | OpenFOAM: The Open Source CFD Toolbox           |
|  \\    /   O peration     | Version:  2306                                  |
|   \\  /    A nd           | Website:  www.openfoam.com                      |
|    \\/     M anipulation  |                                                 |
\*---------------------------------------------------------------------------*/
FoamFile
{
    version     2.0;
    format      ascii;
    arch        "LSB;label=32;scalar=64";
    class       surfaceScalarField;
    location    "0.21";
    object      phi;
}
// * * * * * * * * * * * * * * * * * * * * * * * * * * * * * * * * * * * * * //

dimensions      [0 3 -1 0 0 0 0];

oriented        oriented;

internalField   nonuniform List<scalar> 
12640
(
-1.5570522e-08
-1.3725302e-07
-6.2028815e-08
-4.1091748e-07
-1.3783199e-07
-6.7758161e-07
-2.4035459e-07
-9.318395e-07
-3.6587103e-07
-1.1677406e-06
-5.0984859e-07
-1.3806345e-06
-6.6727535e-07
-1.5672613e-06
-8.3298843e-07
-1.7256505e-06
-1.0020136e-06
-1.8551364e-06
-1.1698856e-06
-1.9562818e-06
-1.3329214e-06
-2.0307189e-06
-1.4884184e-06
-2.0809175e-06
-1.634753e-06
-2.1099032e-06
-1.7713802e-06
-2.120952e-06
-1.8987343e-06
-2.117278e-06
-2.018042e-06
-2.1017528e-06
-2.1310734e-06
-2.0766824e-06
-2.2398641e-06
-2.0436638e-06
-2.3464405e-06
-2.0035258e-06
-2.4525771e-06
-1.9563529e-06
-2.5596068e-06
-1.9015759e-06
-2.6683012e-06
-1.8381209e-06
-2.7788125e-06
-1.7645984e-06
-2.8906571e-06
-1.679438e-06
-3.0027557e-06
-1.5810517e-06
-3.1135176e-06
-1.4679978e-06
-3.2209532e-06
-1.3391126e-06
-3.3228016e-06
-1.1936056e-06
-3.4166604e-06
-1.0311214e-06
-3.5001079e-06
-8.5176973e-07
-3.5708163e-06
-6.5612698e-07
-3.6265987e-06
-4.4523643e-07
-3.6655329e-06
-2.2053779e-07
-3.6864626e-06
1.7180094e-08
-3.687366e-06
2.6578698e-07
-3.6678186e-06
5.2201538e-07
-3.6273307e-06
7.8397574e-07
-3.5657756e-06
1.0493817e-06
-3.4833622e-06
1.3159041e-06
-3.3806046e-06
1.5812509e-06
-3.2582879e-06
1.8432183e-06
-3.1174304e-06
2.0997302e-06
-2.959245e-06
2.3488681e-06
-2.7851001e-06
2.5888922e-06
-2.5964809e-06
2.8182571e-06
-2.3949571e-06
3.0356195e-06
-2.1821485e-06
3.2398375e-06
-1.9596953e-06
3.4299717e-06
-1.729231e-06
3.6052807e-06
-1.4923612e-06
3.7652103e-06
-1.2506435e-06
3.9093833e-06
-1.0055729e-06
4.0375858e-06
-7.5856837e-07
4.1497538e-06
-5.1096388e-07
4.2459558e-06
-2.6399874e-07
4.3263787e-06
-1.8840865e-08
4.3913769e-06
2.2347152e-07
4.4411362e-06
4.619955e-07
4.4763685e-06
6.958773e-07
4.4974805e-06
9.2435965e-07
4.5050532e-06
1.1467783e-06
4.4997081e-06
1.3625578e-06
4.4820928e-06
1.5712073e-06
4.4528763e-06
1.7723154e-06
4.41274e-06
1.9655456e-06
4.362372e-06
2.1506304e-06
4.3024597e-06
2.3273657e-06
4.2336849e-06
2.495606e-06
4.1567186e-06
2.6552598e-06
4.0722174e-06
2.806283e-06
3.9808209e-06
2.948675e-06
3.8831481e-06
3.0824746e-06
3.7797957e-06
3.2077542e-06
3.6713363e-06
3.3246166e-06
3.5583176e-06
3.433191e-06
3.4412612e-06
3.5336295e-06
3.3206625e-06
3.626104e-06
3.1969897e-06
3.7108023e-06
3.0706858e-06
3.7879259e-06
2.9421652e-06
2.811819e-06
-1.3548179e-08
-1.2370484e-07
-5.3998297e-08
-3.7046737e-07
-1.2011375e-07
-6.1146616e-07
-2.0978292e-07
-8.4217034e-07
-3.199962e-07
-1.0575273e-06
-4.4708318e-07
-1.2535475e-06
-5.8697411e-07
-1.4273704e-06
-7.3545787e-07
-1.5771667e-06
-8.8844602e-07
-1.7021483e-06
-1.0422207e-06
-1.8025071e-06
-1.1936456e-06
-1.8792939e-06
-1.3403204e-06
-1.9342427e-06
-1.4806621e-06
-1.9695615e-06
-1.6139146e-06
-1.9876995e-06
-1.7400832e-06
-1.9911095e-06
-1.8598035e-06
-1.9820324e-06
-1.974163e-06
-1.9623229e-06
-2.0844964e-06
-1.9333304e-06
-2.1921795e-06
-1.8958427e-06
-2.2984427e-06
-1.8500897e-06
-2.4042187e-06
-1.7958e-06
-2.5100383e-06
-1.7323013e-06
-2.615977e-06
-1.6586597e-06
-2.7216306e-06
-1.5737843e-06
-2.8261345e-06
-1.4765479e-06
-2.9282186e-06
-1.3659138e-06
-3.026287e-06
-1.2410441e-06
-3.1185127e-06
-1.10138e-06
-3.2029364e-06
-9.4669765e-07
-3.2775648e-06
-7.771413e-07
-3.3404574e-06
-5.9323442e-07
-3.3898164e-06
-3.9587737e-07
-3.4240258e-06
-1.8632847e-07
-3.441836e-06
3.4990305e-08
-3.4418299e-06
2.6578095e-07
-3.4234091e-06
5.0359451e-07
-3.3861286e-06
7.4669527e-07
-3.3298302e-06
9.9308331e-07
-3.2546393e-06
1.2407132e-06
-3.160947e-06
1.4875585e-06
-3.0493839e-06
1.7316551e-06
-2.9207914e-06
1.9711377e-06
-2.7761897e-06
2.2042664e-06
-2.6167461e-06
2.4294486e-06
-2.4437418e-06
2.6452529e-06
-2.2585428e-06
2.8504205e-06
-2.0625723e-06
3.043867e-06
-1.8572831e-06
3.2246826e-06
-1.6441342e-06
3.3921318e-06
-1.4245696e-06
3.5456457e-06
-1.200001e-06
3.6848148e-06
-9.7179283e-07
3.8093776e-06
-7.412497e-07
3.9192107e-06
-5.0960716e-07
4.0143132e-06
-2.7802486e-07
4.0947963e-06
-4.7537077e-08
4.1608892e-06
1.8071935e-07
4.2128797e-06
4.0596499e-07
4.2511229e-06
6.2735568e-07
4.2760897e-06
8.4415051e-07
4.2882583e-06
1.055695e-06
4.2881637e-06
1.261416e-06
4.2763718e-06
1.4608184e-06
4.253474e-06
1.6534801e-06
4.2200784e-06
1.8390483e-06
4.1768038e-06
2.017235e-06
4.124273e-06
2.1878125e-06
4.0631075e-06
2.3506082e-06
3.9939229e-06
2.505501e-06
3.9173246e-06
2.6524158e-06
3.833906e-06
2.7913202e-06
3.7442437e-06
2.9222188e-06
3.6488969e-06
3.0451519e-06
3.5484033e-06
3.1601884e-06
3.4432812e-06
3.2674245e-06
3.3340252e-06
3.3669799e-06
3.2211071e-06
3.4589938e-06
3.1049757e-06
3.5436235e-06
2.986056e-06
3.6210403e-06
2.8647485e-06
2.7414314e-06
-1.185703e-08
-1.1184781e-07
-4.7278857e-08
-3.3504553e-07
-1.052731e-07
-5.5347191e-07
-1.8413719e-07
-7.6330625e-07
-2.8143162e-07
-9.602329e-07
-3.9417155e-07
-1.1408076e-06
-5.1903551e-07
-1.3025064e-06
-6.5256851e-07
-1.4436337e-06
-7.9138848e-07
-1.5633283e-06
-9.3237945e-07
-1.6615161e-06
-1.0728564e-06
-1.738817e-06
-1.2106858e-06
-1.7964133e-06
-1.3443548e-06
-1.8358926e-06
-1.4729855e-06
-1.8590688e-06
-1.5962932e-06
-1.8678018e-06
-1.7144944e-06
-1.8638312e-06
-1.8281787e-06
-1.8486385e-06
-1.9381585e-06
-1.8233507e-06
-2.045314e-06
-1.7886872e-06
-2.1504502e-06
-1.7449535e-06
-2.2541756e-06
-1.6920746e-06
-2.3568151e-06
-1.6296618e-06
-2.4583605e-06
-1.5571142e-06
-2.5584448e-06
-1.4737001e-06
-2.6563482e-06
-1.3786445e-06
-2.7510329e-06
-1.271229e-06
-2.8411994e-06
-1.1508777e-06
-2.9253553e-06
-1.0172241e-06
-3.001892e-06
-8.7016094e-07
-3.069162e-06
-7.0987133e-07
-3.1255516e-06
-5.3684482e-07
-3.1695311e-06
-3.5189787e-07
-3.1998039e-06
-1.5605561e-07
-3.2151196e-06
5.0306008e-08
-3.2144077e-06
2.6506904e-07
-3.1970631e-06
4.8624996e-07
-3.1626651e-06
7.1229726e-07
-3.1110378e-06
9.4145601e-07
-3.0422485e-06
1.1719239e-06
-2.9565947e-06
1.4019047e-06
-2.8545853e-06
1.6296458e-06
-2.7369182e-06
1.8534706e-06
-2.604454e-06
2.0718023e-06
-2.4581902e-06
2.2831847e-06
-2.2992341e-06
2.4862968e-06
-2.1287764e-06
2.6799628e-06
-1.948068e-06
2.8631585e-06
-1.758396e-06
3.0350107e-06
-1.5610625e-06
3.1947983e-06
-1.3573661e-06
3.3419493e-06
-1.1485846e-06
3.4760333e-06
-9.3596174e-07
3.5967548e-06
-7.2069476e-07
3.7039437e-06
-5.0392567e-07
3.7975442e-06
-2.8673788e-07
3.8776086e-06
-7.0142049e-08
3.9442933e-06
1.4494135e-07
3.9977962e-06
3.5762501e-07
4.0384393e-06
5.6713168e-07
4.066583e-06
7.7275152e-07
4.0826384e-06
9.7384752e-07
4.0870678e-06
1.1698545e-06
4.0803648e-06
1.360278e-06
4.0630504e-06
1.544691e-06
4.0356653e-06
1.7227304e-06
3.9987645e-06
1.8940931e-06
3.9529102e-06
2.0585322e-06
3.8986682e-06
2.2158543e-06
3.8366009e-06
2.365913e-06
3.7672658e-06
2.5086078e-06
3.6912112e-06
2.643878e-06
3.6089735e-06
2.7717009e-06
3.5210741e-06
2.8920858e-06
3.4280183e-06
3.0050729e-06
3.330294e-06
3.1107286e-06
3.2283694e-06
3.2091429e-06
3.1226929e-06
3.3004265e-06
3.013692e-06
3.3847081e-06
2.9017745e-06
3.462131e-06
2.7873254e-06
2.6707097e-06
-1.0434724e-08
-1.0141309e-07
-4.1624384e-08
-3.0385588e-07
-9.2770775e-08
-5.0232552e-07
-1.6249675e-07
-6.9358028e-07
-2.4881721e-07
-8.7391244e-07
-3.4929364e-07
-1.0403311e-06
-4.6120112e-07
-1.1905989e-06
-5.8168849e-07
-1.3231464e-06
-7.0794063e-07
-1.4370762e-06
-8.3733001e-07
-1.5321268e-06
-9.6754612e-07
-1.6086009e-06
-1.0966912e-06
-1.6672682e-06
-1.2233392e-06
-1.7092445e-06
-1.3465521e-06
-1.7358559e-06
-1.465854e-06
-1.7484999e-06
-1.5811681e-06
-1.7485171e-06
-1.6927236e-06
-1.737083e-06
-1.800946e-06
-1.7151282e-06
-1.906341e-06
-1.6832922e-06
-2.0093838e-06
-1.6419107e-06
-2.1104246e-06
-1.5910337e-06
-2.2096161e-06
-1.5304703e-06
-2.30687e-06
-1.4598603e-06
-2.4018315e-06
-1.3787386e-06
-2.493878e-06
-1.286598e-06
-2.5821404e-06
-1.1829666e-06
-2.6655423e-06
-1.0674758e-06
-2.7428502e-06
-9.3991611e-07
-2.8127322e-06
-8.0027893e-07
-2.8738187e-06
-6.4878484e-07
-2.924762e-06
-4.8590155e-07
-2.9642973e-06
-3.1236257e-07
-2.9911898e-06
-1.2916315e-07
-3.0045343e-06
6.3650494e-08
-3.0033357e-06
2.6387044e-07
-2.9870408e-06
4.699551e-07
-2.9552625e-06
6.8051895e-07
-2.9078206e-06
8.9401405e-07
-2.8447426e-06
1.1088459e-06
-2.7662556e-06
1.3234177e-06
-2.6727725e-06
1.5361627e-06
-2.5648743e-06
1.7455723e-06
-2.4432895e-06
1.9502176e-06
-2.3088733e-06
2.1487685e-06
-2.162584e-06
2.3400075e-06
-2.0054617e-06
2.5228406e-06
-1.8386067e-06
2.6963034e-06
-1.66316e-06
2.8595639e-06
-1.480284e-06
3.0119223e-06
-1.2911456e-06
3.1528109e-06
-1.0969009e-06
3.2817885e-06
-8.9868223e-07
3.3985361e-06
-6.9758661e-07
3.5028481e-06
-4.9466771e-07
3.5946253e-06
-2.9092772e-07
3.6738687e-06
-8.7304401e-08
3.74067e-06
1.1530072e-07
3.7951911e-06
3.1608768e-07
3.8376523e-06
5.1430126e-07
3.8683696e-06
7.0925677e-07
3.887683e-06
9.003364e-07
3.8959882e-06
1.086987e-06
3.8937142e-06
1.2687194e-06
3.881318e-06
1.4451054e-06
3.8592792e-06
1.6157765e-06
3.8280935e-06
1.7804193e-06
3.7882676e-06
1.9387732e-06
3.7403142e-06
2.0906272e-06
3.6847469e-06
2.2358156e-06
3.6220774e-06
2.3742157e-06
3.5528111e-06
2.5057439e-06
3.4774454e-06
2.6303519e-06
3.396466e-06
2.7480244e-06
3.3103458e-06
2.8587749e-06
3.2195434e-06
2.9626437e-06
3.1245007e-06
3.0596943e-06
3.0256421e-06
3.1500114e-06
2.9233751e-06
3.2336977e-06
2.8180883e-06
3.3108713e-06
2.7101518e-06
2.5999159e-06
-9.2314058e-09
-9.2181681e-08
-3.6837821e-08
-2.7624946e-07
-8.2175307e-08
-4.5698804e-07
-1.4412572e-07
-6.3162986e-07
-2.2106668e-07
-7.9697148e-07
-3.1099632e-07
-9.5040148e-07
-4.1166703e-07
-1.0899282e-06
-5.2071234e-07
-1.2141011e-06
-6.3577486e-07
-1.3220136e-06
-7.5462609e-07
-1.4132755e-06
-8.7526822e-07
-1.4879587e-06
-9.9601188e-07
-1.5465245e-06
-1.1155255e-06
-1.5897309e-06
-1.2328529e-06
-1.6185285e-06
-1.3473981e-06
-1.6339548e-06
-1.458882e-06
-1.6370332e-06
-1.5672765e-06
-1.6286885e-06
-1.6727231e-06
-1.6096817e-06
-1.7754459e-06
-1.5805693e-06
-1.8756682e-06
-1.5416884e-06
-1.9735369e-06
-1.493165e-06
-2.0690641e-06
-1.4349431e-06
-2.1620898e-06
-1.3668347e-06
-2.2522579e-06
-1.2885704e-06
-2.3390115e-06
-1.1998444e-06
-2.4216044e-06
-1.1003737e-06
-2.4991286e-06
-9.8995167e-07
-2.5705509e-06
-8.6849389e-07
-2.634757e-06
-7.3607279e-07
-2.6905986e-06
-5.9294322e-07
-2.736941e-06
-4.3955913e-07
-2.7726909e-06
-2.7661268e-07
-2.796894e-06
-1.0496008e-07
-2.808622e-06
7.5378472e-08
-2.8071039e-06
2.6235229e-07
-2.7918338e-06
4.5468498e-07
-2.7624549e-06
6.5114011e-07
-2.7187887e-06
8.5034794e-07
-2.6608358e-06
1.050893e-06
-2.5887698e-06
1.2513517e-06
-2.5029277e-06
1.4503206e-06
-2.4037955e-06
1.6464401e-06
-2.2919927e-06
1.8384147e-06
-2.1682541e-06
2.0250298e-06
-2.0334114e-06
2.2051649e-06
-1.8883746e-06
2.3778038e-06
-1.7341132e-06
2.542042e-06
-1.5716394e-06
2.69709e-06
-1.4019912e-06
2.842274e-06
-1.2262173e-06
2.977037e-06
-1.0453632e-06
3.1009344e-06
-8.6045909e-07
3.213632e-06
-6.725097e-07
3.3148987e-06
-4.8248456e-07
3.4046003e-06
-2.9131113e-07
3.4826952e-06
-9.9861829e-08
3.5492207e-06
9.1006432e-08
3.6043228e-06
2.8055098e-07
3.6481078e-06
4.6805008e-07
3.6808704e-06
6.5284604e-07
3.702887e-06
8.3434309e-07
3.7144912e-06
1.0120029e-06
3.7160544e-06
1.1853447e-06
3.7079762e-06
1.3539439e-06
3.6906801e-06
1.5174293e-06
3.664608e-06
1.6754819e-06
3.6302151e-06
1.8278309e-06
3.5879652e-06
1.9742524e-06
3.5383255e-06
2.1145652e-06
3.4817646e-06
2.2486285e-06
3.4187477e-06
2.376339e-06
3.3497349e-06
2.4976276e-06
3.2751774e-06
2.6124565e-06
3.1955169e-06
2.7208166e-06
3.1111834e-06
2.822725e-06
3.0225923e-06
2.9182213e-06
2.9301457e-06
3.0073668e-06
2.8342296e-06
3.0902406e-06
2.7352145e-06
3.1669383e-06
2.6334541e-06
2.5292849e-06
-8.2071666e-09
-8.3974514e-08
-3.2761395e-08
-2.5169523e-07
-7.3141294e-08
-4.1660814e-07
-1.2843514e-07
-5.7633602e-07
-1.9731071e-07
-7.280959e-07
-2.7811615e-07
-8.6959603e-07
-3.6898737e-07
-9.99057e-07
-4.6794876e-07
-1.1151397e-06
-5.7301464e-07
-1.2169478e-06
-6.822843e-07
-1.3040059e-06
-7.9402281e-07
-1.3762202e-06
-9.0672456e-07
-1.4338228e-06
-1.0191548e-06
-1.4773006e-06
-1.1303671e-06
-1.5073162e-06
-1.2396957e-06
-1.5246262e-06
-1.3467265e-06
-1.5300024e-06
-1.4512499e-06
-1.5241651e-06
-1.5532015e-06
-1.5077302e-06
-1.652597e-06
-1.4811738e-06
-1.7494683e-06
-1.4448171e-06
-1.843805e-06
-1.3988283e-06
-1.9355074e-06
-1.3432407e-06
-2.024354e-06
-1.277988e-06
-2.1099819e-06
-1.2029426e-06
-2.1918784e-06
-1.1179479e-06
-2.2693879e-06
-1.0228641e-06
-2.3417301e-06
-9.1760947e-07
-2.4080272e-06
-8.0219675e-07
-2.4673366e-06
-6.7676339e-07
-2.5186875e-06
-5.4159227e-07
-2.5611185e-06
-3.9712824e-07
-2.5937191e-06
-2.4401212e-07
-2.6156099e-06
-8.3069187e-08
-2.6260646e-06
8.5833089e-08
-2.6243848e-06
2.6067244e-07
-2.6101221e-06
4.4042245e-07
-2.5829558e-06
6.2397375e-07
-2.5427153e-06
8.1010744e-07
-2.4893841e-06
9.975618e-07
-2.4230961e-06
1.1850636e-06
-2.3441277e-06
1.3713523e-06
-2.2528881e-06
1.5552005e-06
-2.1499057e-06
1.7354323e-06
-2.0358145e-06
1.9109386e-06
-1.9113381e-06
2.0806885e-06
-1.7772742e-06
2.24374e-06
-1.6344787e-06
2.3992464e-06
-1.4838501e-06
2.5464615e-06
-1.3263165e-06
2.6847404e-06
-1.1628204e-06
2.8135409e-06
-9.9430734e-07
2.9324213e-06
-8.2171424e-07
3.041039e-06
-6.4595967e-07
3.1391441e-06
-4.6793664e-07
3.2265772e-06
-2.8850296e-07
3.3032615e-06
-1.0847992e-07
3.3691977e-06
7.136571e-08
3.4244771e-06
2.5029946e-07
3.4691742e-06
4.2764621e-07
3.5035236e-06
6.0277858e-07
3.5277546e-06
7.75124e-07
3.5421458e-06
9.4416173e-07
3.5470167e-06
1.1094225e-06
3.5427155e-06
1.2704873e-06
3.5296152e-06
1.4269867e-06
3.5081085e-06
1.5785988e-06
3.4786031e-06
1.7250469e-06
3.4415171e-06
1.8660967e-06
3.3972755e-06
2.0015556e-06
3.3463057e-06
2.1312682e-06
3.2890352e-06
2.2551149e-06
3.2258883e-06
2.3730085e-06
3.1572838e-06
2.4848926e-06
3.0836328e-06
2.5907381e-06
3.0053379e-06
2.6905415e-06
2.922789e-06
2.7843218e-06
2.8363653e-06
2.872119e-06
2.7464324e-06
2.9539911e-06
2.6533424e-06
3.0300129e-06
2.5574323e-06
2.4590246e-06
-7.330028e-09
-7.6644487e-08
-2.9268583e-08
-2.2975668e-07
-6.5391762e-08
-3.8048496e-07
-1.1495264e-07
-5.2677515e-07
-1.7685175e-07
-6.6619679e-07
-2.4971871e-07
-7.9672905e-07
-3.3199883e-07
-9.1677689e-07
-4.2203327e-07
-1.0251052e-06
-5.1813986e-07
-1.1208412e-06
-6.1868871e-07
-1.2034571e-06
-7.2216695e-07
-1.272742e-06
-8.27231e-07
-1.3287587e-06
-9.3274153e-07
-1.3717901e-06
-1.03778e-06
-1.4022778e-06
-1.1416465e-06
-1.4207596e-06
-1.2438407e-06
-1.4278081e-06
-1.3440283e-06
-1.4239775e-06
-1.441998e-06
-1.4097605e-06
-1.5376131e-06
-1.3855587e-06
-1.6307629e-06
-1.3516674e-06
-1.721317e-06
-1.3082742e-06
-1.8090884e-06
-1.2554694e-06
-1.893806e-06
-1.1932704e-06
-1.9750979e-06
-1.1216507e-06
-2.0524824e-06
-1.0405634e-06
-2.1253715e-06
-9.4997499e-07
-2.1930828e-06
-8.4989811e-07
-2.2548594e-06
-7.4042024e-07
-2.3098945e-06
-6.2172828e-07
-2.3573604e-06
-4.9412638e-07
-2.3964365e-06
-3.580521e-07
-2.4263451e-06
-2.1410359e-07
-2.4463268e-06
-6.3087511e-08
-2.4557562e-06
9.5262516e-08
-2.4540305e-06
2.5894673e-07
-2.440752e-06
4.2714395e-07
-2.4156328e-06
5.9885462e-07
-2.3785138e-06
7.7298842e-07
-2.329368e-06
9.4841605e-07
-2.2682989e-06
1.1239945e-06
-2.1955354e-06
1.2985887e-06
-2.1114234e-06
1.4710885e-06
-2.0164163e-06
1.6404252e-06
-1.9110627e-06
1.805585e-06
-1.7959939e-06
1.9656198e-06
-1.6719109e-06
2.1196569e-06
-1.5395702e-06
2.2669058e-06
-1.3997714e-06
2.4066626e-06
-1.2533442e-06
2.5383132e-06
-1.1011364e-06
2.6613331e-06
-9.4400338e-07
2.7752883e-06
-7.8279669e-07
2.8798322e-06
-6.1835672e-07
2.9747042e-06
-4.5150343e-07
3.0597239e-06
-2.8302916e-07
3.1347872e-06
-1.1369e-07
3.1998585e-06
5.5774443e-08
3.2550127e-06
2.2469732e-07
3.3002512e-06
3.924335e-07
3.3357875e-06
5.5838529e-07
3.3618028e-06
7.2200414e-07
3.3785269e-06
8.827884e-07
3.3862324e-06
1.0402816e-06
3.3852222e-06
1.1940739e-06
3.375823e-06
1.3437998e-06
3.3583827e-06
1.4891373e-06
3.3332654e-06
1.6298064e-06
3.3008481e-06
1.7655668e-06
3.2615151e-06
1.8962164e-06
3.2156561e-06
2.0215884e-06
3.1636632e-06
2.14155e-06
3.1059266e-06
2.2559995e-06
3.0428344e-06
2.3648638e-06
2.9747687e-06
2.4680971e-06
2.9021045e-06
2.565678e-06
2.8252082e-06
2.657607e-06
2.7444364e-06
2.743905e-06
2.6601343e-06
2.8246118e-06
2.5726357e-06
2.8997825e-06
2.4822615e-06
2.3893193e-06
-6.5743016e-09
-7.0070185e-08
-2.6257768e-08
-2.1007321e-07
-5.8704153e-08
-3.4803857e-07
-1.0329844e-07
-4.8218086e-07
-1.5912839e-07
-6.1036684e-07
-2.2505087e-07
-7.3080658e-07
-2.9976184e-07
-8.4206591e-07
-3.8186044e-07
-9.4300663e-07
-4.6991359e-07
-1.032788e-06
-5.6251629e-07
-1.1108544e-06
-6.5834433e-07
-1.176914e-06
-7.5619685e-07
-1.2309062e-06
-8.5502621e-07
-1.2729607e-06
-9.5395323e-07
-1.3033508e-06
-1.0522688e-06
-1.322444e-06
-1.1494215e-06
-1.3306555e-06
-1.2449945e-06
-1.3284046e-06
-1.3386743e-06
-1.3160807e-06
-1.4302149e-06
-1.294018e-06
-1.5194012e-06
-1.2624812e-06
-1.6060134e-06
-1.221662e-06
-1.6897979e-06
-1.1716848e-06
-1.7704453e-06
-1.112623e-06
-1.8475754e-06
-1.0445206e-06
-1.9207294e-06
-9.6740941e-07
-1.9893707e-06
-8.8133375e-07
-2.0528928e-06
-7.8637597e-07
-2.1106335e-06
-6.8267949e-07
-2.1618945e-06
-5.7046728e-07
-2.2059623e-06
-4.5005857e-07
-2.2421315e-06
-3.2188296e-07
-2.2697262e-06
-1.865088e-07
-2.2881001e-06
-4.4713624e-08
-2.2967089e-06
1.0387135e-07
-2.295028e-06
2.5726582e-07
-2.2827054e-06
4.1482136e-07
-2.2594847e-06
5.7563385e-07
-2.2252192e-06
7.3872297e-07
-2.1798764e-06
9.0307311e-07
-2.123537e-06
1.0676552e-06
-2.0563916e-06
1.2314434e-06
-1.9787349e-06
1.3934318e-06
-1.890957e-06
1.5526474e-06
-1.7935348e-06
1.7081627e-06
-1.6870208e-06
1.8591057e-06
-1.5720319e-06
2.0046681e-06
-1.4492389e-06
2.1441127e-06
-1.3193537e-06
2.2767775e-06
-1.1831193e-06
2.4020788e-06
-1.0412989e-06
2.5195126e-06
-8.9466627e-07
2.6286556e-06
-7.4399596e-07
2.729162e-06
-5.900556e-07
2.8207638e-06
-4.3359865e-07
2.903267e-06
-2.753572e-07
2.9765457e-06
-1.1604045e-07
3.0405418e-06
4.3687998e-08
3.0952844e-06
2.0317671e-07
3.1407625e-06
3.6182345e-07
3.1771407e-06
5.1906317e-07
3.2045631e-06
6.7437196e-07
3.2232182e-06
8.2726724e-07
3.2333371e-06
9.7730844e-07
3.235181e-06
1.1240954e-06
3.229036e-06
1.2672689e-06
3.215209e-06
1.40651e-06
3.1940243e-06
1.5415376e-06
3.1658205e-06
1.6721079e-06
3.130945e-06
1.7980116e-06
3.0897523e-06
1.9190741e-06
3.0426006e-06
2.0351516e-06
2.989849e-06
2.1461302e-06
2.9318557e-06
2.2519237e-06
2.8689752e-06
2.3524712e-06
2.8015571e-06
2.4477355e-06
2.7299438e-06
2.5377015e-06
2.6544704e-06
2.6223737e-06
2.5754622e-06
2.7017742e-06
2.4932352e-06
2.7759419e-06
2.4080937e-06
2.3203313e-06
-5.9193206e-09
-6.4150864e-08
-2.3647105e-08
-1.9234542e-07
-5.2899101e-08
-3.1878658e-07
-9.3166174e-08
-4.4191379e-07
-1.4368724e-07
-5.5984577e-07
-2.0350332e-07
-6.709905e-07
-2.7151435e-07
-7.7405489e-07
-3.4653056e-07
-8.6799041e-07
-4.2732437e-07
-9.5199418e-07
-5.1267874e-07
-1.0255e-06
-6.0143003e-07
-1.0881627e-06
-6.9250335e-07
-1.1398329e-06
-7.8493753e-07
-1.1805266e-06
-8.778997e-07
-1.2103886e-06
-9.7068837e-07
-1.2296554e-06
-1.0627266e-06
-1.2386172e-06
-1.1535461e-06
-1.2375851e-06
-1.2427649e-06
-1.2268619e-06
-1.3300609e-06
-1.2067219e-06
-1.4151442e-06
-1.1773979e-06
-1.4977302e-06
-1.139076e-06
-1.5775165e-06
-1.0918985e-06
-1.654165e-06
-1.0359745e-06
-1.7272899e-06
-9.7139571e-07
-1.7964501e-06
-8.9824921e-07
-1.8611492e-06
-8.1663463e-07
-1.9208404e-06
-7.266848e-07
-1.9749366e-06
-6.2858321e-07
-2.0228255e-06
-5.225784e-07
-2.0638858e-06
-4.0899831e-07
-2.0975068e-06
-2.8826187e-07
-2.1231133e-06
-1.6090241e-07
-2.1401018e-06
-2.772514e-08
-2.1480575e-06
1.1182714e-07
-2.1464859e-06
2.5569418e-07
-2.1350835e-06
4.0341902e-07
-2.1136235e-06
5.5417382e-07
-2.0819721e-06
7.0707159e-07
-2.0400939e-06
8.6119497e-07
-1.9880525e-06
1.0156137e-06
-1.9260077e-06
1.1693986e-06
-1.8542118e-06
1.3216358e-06
-1.7730023e-06
1.471438e-06
-1.6827949e-06
1.6179553e-06
-1.5840746e-06
1.7603853e-06
-1.4773863e-06
1.8979798e-06
-1.3633251e-06
2.0300515e-06
-1.2425264e-06
2.1559788e-06
-1.1156562e-06
2.2752085e-06
-9.8340248e-07
2.3872589e-06
-8.4646517e-07
2.4917183e-06
-7.0554909e-07
2.5882459e-06
-5.6135557e-07
2.6765703e-06
-4.1457617e-07
2.7564876e-06
-2.6588696e-07
2.8278566e-06
-1.1594427e-07
2.890599e-06
3.4632334e-08
2.9447078e-06
1.8523208e-07
2.9901627e-06
3.3528918e-07
3.0270836e-06
4.8426914e-07
3.0555832e-06
6.3167289e-07
3.0758145e-06
7.7703838e-07
3.0879715e-06
9.1994083e-07
3.0922787e-06
1.0599921e-06
3.0889847e-06
1.1968413e-06
3.0783598e-06
1.3301732e-06
3.0606925e-06
1.4597083e-06
3.0362854e-06
1.5852012e-06
3.005452e-06
1.706439e-06
2.9685144e-06
1.8232406e-06
2.9257991e-06
1.935454e-06
2.8776357e-06
2.0429552e-06
2.8243545e-06
2.1456468e-06
2.7662837e-06
2.2434558e-06
2.703748e-06
2.3363314e-06
2.6370682e-06
2.4242445e-06
2.5665572e-06
2.5071849e-06
2.4925218e-06
2.5851602e-06
2.4152599e-06
2.6581934e-06
2.3350605e-06
2.2522019e-06
-5.3483793e-09
-5.8802485e-08
-2.1370437e-08
-1.7632337e-07
-4.7831544e-08
-2.9232547e-07
-8.4307841e-08
-4.0543749e-07
-1.3016074e-07
-5.1399288e-07
-1.8458112e-07
-6.1657011e-07
-2.4663566e-07
-7.1200036e-07
-3.1530817e-07
-7.9931791e-07
-3.8954142e-07
-8.7776093e-07
-4.6827619e-07
-9.4676524e-07
-5.5048639e-07
-1.0059525e-06
-6.3520806e-07
-1.0551112e-06
-7.2156093e-07
-1.0941737e-06
-8.0876152e-07
-1.123188e-06
-8.9612762e-07
-1.1422893e-06
-9.8307488e-07
-1.15167e-06
-1.0691065e-06
-1.1515535e-06
-1.1537971e-06
-1.1421713e-06
-1.2367738e-06
-1.1237452e-06
-1.3176954e-06
-1.0964763e-06
-1.3962318e-06
-1.0605396e-06
-1.4720463e-06
-1.0160841e-06
-1.544781e-06
-9.6323971e-07
-1.6140474e-06
-9.0212937e-07
-1.6794195e-06
-8.3287703e-07
-1.7404332e-06
-7.5562092e-07
-1.7965892e-06
-6.7052881e-07
-1.847361e-06
-5.7781137e-07
-1.8922048e-06
-4.7773463e-07
-1.9305728e-06
-3.7063032e-07
-1.9619278e-06
-2.5690685e-07
-1.9857557e-06
-1.370745e-07
-2.0016522e-06
-1.1828662e-08
-2.0090406e-06
1.1921547e-07
-2.0076112e-06
2.5426488e-07
-1.9970852e-06
3.9289294e-07
-1.9772569e-06
5.3434554e-07
-1.9480035e-06
6.7781817e-07
-1.9092883e-06
8.2247979e-07
-1.8611615e-06
9.6748676e-07
-1.8037582e-06
1.1119953e-06
-1.7372952e-06
1.2551729e-06
-1.6620661e-06
1.3962088e-06
-1.5784345e-06
1.5343237e-06
-1.4868274e-06
1.6687783e-06
-1.3877271e-06
1.7988796e-06
-1.2816631e-06
1.9239875e-06
-1.1692031e-06
2.0435189e-06
-1.0509455e-06
2.1569509e-06
-9.275099e-07
2.2638233e-06
-7.99531e-07
2.3637393e-06
-6.676497e-07
2.4563646e-06
-5.3250738e-07
2.5414279e-06
-3.9473873e-07
2.618719e-06
-2.5496725e-07
2.6880851e-06
-1.137999e-07
2.7494317e-06
2.8183801e-08
2.802724e-06
1.704138e-07
2.8479327e-06
3.1235858e-07
2.8851389e-06
4.5351439e-07
2.9144275e-06
5.9340621e-07
2.9359225e-06
7.3159283e-07
2.9497849e-06
8.6766646e-07
2.9562051e-06
1.0012518e-06
2.9553994e-06
1.1320068e-06
2.9476047e-06
1.259623e-06
2.9330763e-06
1.3838239e-06
2.9120846e-06
1.504364e-06
2.884912e-06
1.6210291e-06
2.8518493e-06
1.7336329e-06
2.8131952e-06
1.8420179e-06
2.7692508e-06
1.9460523e-06
2.7203201e-06
2.0456294e-06
2.6667066e-06
2.1406656e-06
2.6087117e-06
2.2310993e-06
2.5466344e-06
2.316889e-06
2.4807675e-06
2.3980117e-06
2.4113991e-06
2.4744615e-06
2.33881e-06
2.5462481e-06
2.2632738e-06
2.1850541e-06
-4.8479398e-09
-5.3954545e-08
-1.9374122e-08
-1.6179718e-07
-4.3383775e-08
-2.6831582e-07
-7.6521935e-08
-3.7229933e-07
-1.182497e-07
-4.722651e-07
-1.6788044e-07
-5.6693937e-07
-2.2461777e-07
-6.5526304e-07
-2.87589e-07
-7.3634667e-07
-3.5587885e-07
-8.0947107e-07
-4.2856126e-07
-8.7408282e-07
-5.0472823e-07
-9.297855e-07
-5.8351382e-07
-9.7632564e-07
-6.6411257e-07
-1.0135749e-06
-7.4579145e-07
-1.0415091e-06
-8.2789498e-07
-1.0601858e-06
-9.0984425e-07
-1.0697207e-06
-9.9113041e-07
-1.0702673e-06
-1.0713038e-06
-1.0619979e-06
-1.1499597e-06
-1.0450892e-06
-1.2267237e-06
-1.0197124e-06
-1.3012357e-06
-9.8602761e-07
-1.3731362e-06
-9.4418357e-07
-1.4420553e-06
-8.9432055e-07
-1.5076049e-06
-8.3657976e-07
-1.5693728e-06
-7.711091e-07
-1.6269218e-06
-6.9807195e-07
-1.6797917e-06
-6.1765898e-07
-1.7275046e-06
-5.300985e-07
-1.769573e-06
-4.3566622e-07
-1.8055098e-06
-3.3469354e-07
-1.8348379e-06
-2.2757872e-07
-1.8570989e-06
-1.1481354e-07
-1.8720151e-06
3.0876321e-09
-1.8789419e-06
1.2614221e-07
-1.8776849e-06
2.5300782e-07
-1.8679908e-06
3.831989e-07
-1.8496741e-06
5.1602883e-07
-1.8226224e-06
6.5076652e-07
-1.7867994e-06
7.8665677e-07
-1.7422447e-06
9.2293212e-07
-1.6890734e-06
1.058824e-06
-1.6274727e-06
1.1935723e-06
-1.5576989e-06
1.326435e-06
-1.4800714e-06
1.4566962e-06
-1.3949672e-06
1.5836741e-06
-1.3028144e-06
1.7067267e-06
-1.2040846e-06
1.8252577e-06
-1.0992865e-06
1.9387208e-06
-9.8895759e-07
2.046622e-06
-8.7365797e-07
2.1485237e-06
-7.5396253e-07
2.244044e-06
-6.3045484e-07
2.3328569e-06
-5.0372128e-07
2.4146944e-06
-3.7434461e-07
2.4893423e-06
-2.4289939e-07
2.5566398e-06
-1.0994747e-07
2.6164798e-06
2.3969928e-08
2.6688067e-06
1.5832218e-07
2.7135805e-06
2.9261017e-07
2.7508509e-06
4.2635865e-07
2.7806789e-06
5.5911804e-07
2.8031632e-06
6.9046765e-07
2.8184352e-06
8.2001635e-07
2.8266564e-06
9.4740292e-07
2.8280129e-06
1.072296e-06
2.8227116e-06
1.1943943e-06
2.810978e-06
1.3134253e-06
2.7930537e-06
1.4291462e-06
2.769191e-06
1.5413416e-06
2.7396538e-06
1.6498237e-06
2.7047132e-06
1.7544299e-06
2.6646446e-06
1.8550229e-06
2.6197273e-06
1.9514886e-06
2.5702409e-06
2.0437346e-06
2.5164658e-06
2.13169e-06
2.4586789e-06
2.2153028e-06
2.3971547e-06
2.2945388e-06
2.3321631e-06
2.3693805e-06
2.2639683e-06
2.4398261e-06
2.1928282e-06
2.1189934e-06
-4.406995e-09
-4.9547551e-08
-1.7614498e-08
-1.4858968e-07
-3.9459848e-08
-2.4647046e-07
-6.9644019e-08
-3.4211516e-07
-1.0770953e-07
-4.341996e-07
-1.5307036e-07
-5.2157853e-07
-2.0504316e-07
-6.0329023e-07
-2.6287438e-07
-6.7851545e-07
-3.2576769e-07
-7.4657776e-07
-3.9290993e-07
-8.0694058e-07
-4.6349483e-07
-8.5920059e-07
-5.367432e-07
-9.0307727e-07
-6.1191842e-07
-9.3839969e-07
-6.883372e-07
-9.6509034e-07
-7.6537547e-07
-9.8314748e-07
-8.4246856e-07
-9.9262761e-07
-9.1910764e-07
-9.9362822e-07
-9.948324e-07
-9.8627317e-07
-1.0692211e-06
-9.7070049e-07
-1.1418798e-06
-9.4705373e-07
-1.2124303e-06
-9.154771e-07
-1.2805003e-06
-8.761136e-07
-1.3457139e-06
-8.2910695e-07
-1.4076862e-06
-7.7460744e-07
-1.4660185e-06
-7.127768e-07
-1.5202967e-06
-6.437937e-07
-1.5700934e-06
-5.6786226e-07
-1.6149711e-06
-4.8522078e-07
-1.6544892e-06
-3.9614814e-07
-1.6882105e-06
-3.009722e-07
-1.7157111e-06
-2.0007813e-07
-1.7365877e-06
-9.3936864e-08
-1.750572e-06
1.7071906e-08
-1.7571293e-06
1.326995e-07
-1.7560639e-06
2.5194235e-07
-1.7471543e-06
3.7428933e-07
-1.7302356e-06
4.9911016e-07
-1.7052062e-06
6.2573713e-07
-1.6720306e-06
7.5348118e-07
-1.6307405e-06
8.8164197e-07
-1.5814342e-06
1.0095177e-06
-1.5242744e-06
1.1364125e-06
-1.4594856e-06
1.2616462e-06
-1.3873492e-06
1.3845598e-06
-1.3081992e-06
1.504524e-06
-1.2224161e-06
1.6209436e-06
-1.1304215e-06
1.7332631e-06
-1.0326711e-06
1.8409705e-06
-9.2964959e-07
1.9436005e-06
-8.2186269e-07
2.0407368e-06
-7.0983222e-07
2.1320134e-06
-5.9409002e-07
2.2171147e-06
-4.7517207e-07
2.2957764e-06
-3.5361341e-07
2.3677836e-06
-2.2994415e-07
2.4329706e-06
-1.0468367e-07
2.4912193e-06
2.1664237e-08
2.5424587e-06
1.4860338e-07
2.5866414e-06
2.7566665e-07
2.6237877e-06
4.0240723e-07
2.6539383e-06
5.2839944e-07
2.677171e-06
6.5324298e-07
2.6935918e-06
7.7656426e-07
2.7033351e-06
8.980161e-07
2.706561e-06
1.0172783e-06
2.7034493e-06
1.1340576e-06
2.6941987e-06
1.2480881e-06
2.6790232e-06
1.3591292e-06
2.6581498e-06
1.4669673e-06
2.6318158e-06
1.5714131e-06
2.6002674e-06
1.6723018e-06
2.5637559e-06
1.7694914e-06
2.5225377e-06
1.8628621e-06
2.4768703e-06
1.9523149e-06
2.4270129e-06
2.0377707e-06
2.3732231e-06
2.1191685e-06
2.3157569e-06
2.1964647e-06
2.254867e-06
2.2696317e-06
2.1908011e-06
2.3386569e-06
2.123803e-06
2.0541091e-06
-4.0165353e-09
-4.5531015e-08
-1.6055845e-08
-1.3655037e-07
-3.5981235e-08
-2.2654507e-07
-6.3539273e-08
-3.1455712e-07
-9.8339339e-08
-3.9939954e-07
-1.3987839e-07
-4.8003947e-07
-1.8756685e-07
-5.5560179e-07
-2.4075063e-07
-6.2533167e-07
-2.9873357e-07
-6.8859482e-07
-3.6079864e-07
-7.4487551e-07
-4.2622768e-07
-7.9377154e-07
-4.9431811e-07
-8.3498684e-07
-5.643964e-07
-8.683214e-07
-6.358278e-07
-8.9365893e-07
-7.080217e-07
-9.1095356e-07
-7.8043366e-07
-9.2021565e-07
-8.5256343e-07
-9.2149848e-07
-9.239502e-07
-9.1488639e-07
-9.9416612e-07
-9.0048455e-07
-1.0628081e-06
-8.7841174e-07
-1.1294896e-06
-8.4879568e-07
-1.1938323e-06
-8.1177085e-07
-1.2554601e-06
-7.6747914e-07
-1.3139939e-06
-7.160737e-07
-1.369048e-06
-6.577226e-07
-1.4202296e-06
-5.9261212e-07
-1.4671391e-06
-5.2095285e-07
-1.5093731e-06
-4.4298672e-07
-1.5465296e-06
-3.5899164e-07
-1.5782138e-06
-2.69288e-07
-1.6040458e-06
-1.7424621e-07
-1.6236654e-06
-7.4317287e-08
-1.6368052e-06
3.021183e-08
-1.6430416e-06
1.3893575e-07
-1.6421693e-06
2.5107007e-07
-1.6339926e-06
3.6611266e-07
-1.6183641e-06
4.8348165e-07
-1.5951914e-06
6.0256441e-07
-1.5644407e-06
7.2273053e-07
-1.5261375e-06
8.4333873e-07
-1.480366e-06
9.6374614e-07
-1.4272683e-06
1.0833149e-06
-1.3670416e-06
1.2014194e-06
-1.2999346e-06
1.3174529e-06
-1.226244e-06
1.4308334e-06
-1.1463089e-06
1.5410085e-06
-1.0605066e-06
1.6474608e-06
-9.6924683e-07
1.7497107e-06
-8.7296617e-07
1.8473198e-06
-7.7212273e-07
1.9398933e-06
-6.6719039e-07
2.027081e-06
-5.5865383e-07