/*--------------------------------*- C++ -*----------------------------------*\
| =========                 |                                                 |
| \\      /  F ield         | OpenFOAM: The Open Source CFD Toolbox           |
|  \\    /   O peration     | Version:  2306                                  |
|   \\  /    A nd           | Website:  www.openfoam.com                      |
|    \\/     M anipulation  |                                                 |
\*---------------------------------------------------------------------------*/
FoamFile
{
    version     2.0;
    format      ascii;
    arch        "LSB;label=32;scalar=64";
    class       volVectorField;
    location    "0.21";
    object      U_0;
}
// * * * * * * * * * * * * * * * * * * * * * * * * * * * * * * * * * * * * * //

dimensions      [0 1 -1 0 0 0 0];

internalField   nonuniform List<vector> 
6400
(
(-0.00032481171 -0.0092678301 2.5528042e-17)
(-0.00076958044 -0.0092480028 3.8432541e-17)
(-0.0012602486 -0.0091452347 1.2359823e-17)
(-0.001710806 -0.0089764985 -5.416109e-18)
(-0.0021492393 -0.0087397817 -3.2060342e-17)
(-0.0025487496 -0.0084428997 -1.7266025e-17)
(-0.002904299 -0.0080964585 -1.7126939e-17)
(-0.003211694 -0.0077115588 -1.0082556e-17)
(-0.0034687371 -0.0072995812 -1.0921392e-18)
(-0.0036752786 -0.006871743 -6.5786147e-18)
(-0.0038332055 -0.0064386227 -2.6058694e-18)
(-0.0039461938 -0.0060096945 -9.1380058e-19)
(-0.0040193698 -0.0055929325 -1.4626285e-18)
(-0.0040589201 -0.0051945413 1.4122919e-18)
(-0.0040716346 -0.0048187832 1.1022175e-18)
(-0.0040644164 -0.0044679473 1.7282934e-18)
(-0.0040438211 -0.0041424651 -9.7736058e-19)
(-0.0040156654 -0.0038411541 8.5324612e-19)
(-0.0039847395 -0.003561554 2.5186525e-18)
(-0.0039546377 -0.0033003131 1.8368077e-18)
(-0.0039277062 -0.0030535824 1.3959858e-19)
(-0.0039050987 -0.00281738 -6.7749604e-19)
(-0.0038869156 -0.0025878931 -8.9904195e-19)
(-0.0038723783 -0.0023617167 1.0907512e-18)
(-0.0038600251 -0.0021360261 2.11947e-18)
(-0.0038479248 -0.0019086799 -5.7923529e-19)
(-0.003833886 -0.0016782581 -1.0215309e-18)
(-0.0038156456 -0.0014440449 2.9384237e-19)
(-0.003791026 -0.0012059731 1.5524891e-18)
(-0.0037580667 -0.00096453974 1.5852445e-18)
(-0.0037151045 -0.00072070291 -1.6047672e-19)
(-0.0036608215 -0.0004757686 -5.9595779e-19)
(-0.003594248 -0.00023130214 -1.0978587e-19)
(-0.0035149488 1.0909949e-05 5.7262445e-19)
(-0.0034226118 0.00024923083 6.4265903e-19)
(-0.0033172825 0.00048178755 -7.5524093e-19)
(-0.0031995697 0.00070691059 -4.3085656e-19)
(-0.0030702153 0.00092305203 1.1840697e-20)
(-0.0029301658 0.0011288274 2.0977263e-19)
(-0.0027805303 0.0013230425 4.6725729e-19)
(-0.0026225354 0.0015047066 2.8865657e-19)
(-0.0024574839 0.0016730381 8.0143904e-20)
(-0.0022867168 0.0018274626 -7.0638816e-19)
(-0.00211158 0.0019676034 -8.3989888e-19)
(-0.0019333962 0.0020932699 -3.437616e-19)
(-0.0017534421 0.0022044421 -1.1418357e-19)
(-0.0015729304 0.0023012537 -3.7054783e-19)
(-0.0013929952 0.0023839733 -4.2030317e-19)
(-0.0012146811 0.0024529853 -7.5237315e-19)
(-0.0010389368 0.0025087713 -3.530921e-19)
(-0.00086661142 0.0025518922 6.0428927e-20)
(-0.00069845361 0.0025829713 -1.916284e-20)
(-0.00053511197 0.0026026795 -7.834181e-20)
(-0.00037713925 0.0026117197 -2.3627817e-19)
(-0.00022502691 0.0026108151 1.0529377e-19)
(-7.9123855e-05 0.002600726 2.9978255e-19)
(6.0356288e-05 0.0025820816 9.083385e-20)
(0.00019313119 0.0025557491 -8.8137054e-20)
(0.00031900213 0.0025223684 -2.4878887e-19)
(0.00043793167 0.0024826321 -3.9186948e-20)
(0.0005498886 0.0024372077 1.1904707e-19)
(0.00065489167 0.0023867314 1.0818677e-21)
(0.00075300269 0.0023318094 -3.1674333e-19)
(0.00084432093 0.0022730139 -2.9497764e-19)
(0.00092897765 0.0022108845 1.155533e-19)
(0.0010071312 0.0021459259 1.4342397e-19)
(0.0010789624 0.0020786086 1.2318845e-19)
(0.0011446701 0.0020093687 7.6242031e-21)
(0.0012044677 0.0019386095 -8.2832209e-20)
(0.0012585797 0.0018667017 1.3780746e-19)
(0.0013072385 0.0017939845 2.3350162e-19)
(0.0013506819 0.0017207675 -1.022697e-19)
(0.0013891506 0.0016473315 -1.0295777e-19)
(0.0014228862 0.0015739303 -1.4119511e-19)
(0.0014521295 0.001500792 6.551115e-20)
(0.0014771188 0.0014281209 5.1069168e-20)
(0.0014980891 0.0013560985 -1.368577e-20)
(0.0015152701 0.0012848858 -6.9645296e-20)
(0.0015288864 0.0012146238 -8.6251549e-20)
(0.001539156 0.0011454361 -1.1537505e-20)
(-0.000282034 -0.0083392927 4.3977826e-18)
(-0.0006695949 -0.0083239792 -1.5945947e-17)
(-0.0010975866 -0.0082397573 4.104779e-19)
(-0.0014919448 -0.0081004593 -9.1883077e-19)
(-0.0018778684 -0.0079038667 -1.4059357e-18)
(-0.0022322128 -0.0076562085 -3.3472937e-18)
(-0.0025509478 -0.0073660381 -6.2278398e-18)
(-0.0028305923 -0.0070422559 2.1835499e-18)
(-0.0030692352 -0.0066939518 2.6101845e-19)
(-0.0032665523 -0.0063300714 -1.6528967e-18)
(-0.0034237985 -0.0059590608 2.3644734e-18)
(-0.0035436159 -0.0055885223 2.4133951e-18)
(-0.0036297898 -0.0052249321 1.8410023e-18)
(-0.0036869546 -0.00487343 2.7882454e-18)
(-0.0037202464 -0.0045376855 1.1201735e-18)
(-0.0037349383 -0.0042198673 -2.9991204e-19)
(-0.0037360961 -0.0039207207 1.3214373e-18)
(-0.0037282817 -0.003639736 2.4422384e-18)
(-0.0037153291 -0.0033753874 3.1504988e-18)
(-0.0037002024 -0.0031254127 2.8419224e-18)
(-0.0036849389 -0.0028871029 3.0943282e-18)
(-0.0036706712 -0.002657579 1.2675595e-18)
(-0.0036577152 -0.0024340271 3.9629565e-19)
(-0.0036456914 -0.0022138884 2.0096598e-18)
(-0.0036336643 -0.0019950037 -1.0923434e-18)
(-0.0036202983 -0.0017757055 -1.0003175e-18)
(-0.0036040164 -0.0015548627 5.8923917e-19)
(-0.0035831461 -0.0013318806 1.314474e-18)
(-0.0035560453 -0.0011066701 1.9274242e-18)
(-0.0035212071 -0.00087959325 -9.5143776e-19)
(-0.003477339 -0.00065138516 -7.1149536e-19)
(-0.0034234172 -0.00042307607 4.0376867e-20)
(-0.0033586857 -0.00019592259 1.9987093e-19)
(-0.0032827329 2.863099e-05 5.9430876e-19)
(-0.0031953142 0.00024924663 -1.6001716e-18)
(-0.0030965089 0.00046437538 -7.2160782e-19)
(-0.0029867815 0.00067260766 2.3114057e-19)
(-0.0028667502 0.0008726304 3.118465e-19)
(-0.0027372073 0.0010632567 2.6278003e-19)
(-0.0025990875 0.0012434501 -1.1628536e-18)
(-0.0024534328 0.0014123384 -8.915799e-19)
(-0.0023013581 0.0015692213 -6.6139784e-19)
(-0.00214402 0.0017135712 -1.0708051e-18)
(-0.0019825882 0.0018450287 -8.6477712e-19)
(-0.0018182208 0.0019633935 -4.6201696e-19)
(-0.0016520436 0.0020686134 -2.5257894e-19)
(-0.0014851343 0.0021607716 -6.8980598e-19)
(-0.0013185086 0.0022400716 -8.1338954e-19)
(-0.0011531098 0.0023068218 -7.6916219e-19)
(-0.00098980206 0.0023614199 -3.6710779e-19)
(-0.00082936576 0.0024043382 -1.6659962e-19)
(-0.00067249561 0.0024361085 -3.4083404e-19)
(-0.00051980054 0.0024573099 -2.836116e-19)
(-0.0003718053 0.0024685541 -3.6951829e-19)
(-0.00022896863 0.0024704759 -2.5380386e-19)
(-9.1690898e-05 0.0024637458 4.094588e-20)
(3.9870289e-05 0.0024489558 5.8530133e-20)
(0.00016544423 0.0024268229 -5.7468715e-20)
(0.00028475123 0.0023979623 -3.9984182e-19)
(0.00039776475 0.0023629968 -4.1005578e-19)
(0.00050442911 0.0023225342 -9.5775985e-20)
(0.00060473568 0.0022771573 -1.2152251e-19)
(0.00069871719 0.002227424 -3.7556541e-19)
(0.0007864421 0.0021738641 -3.3037806e-19)
(0.00086801002 0.0021169791 -1.1572196e-19)
(0.00094354722 0.0020572407 -1.5733168e-20)
(0.0010132024 0.0019950908 1.8078561e-20)
(0.0010771428 0.001930941 -1.0938966e-19)
(0.0011355507 0.0018651732 -1.3804863e-19)
(0.0011886203 0.0017981409 -2.2023982e-20)
(0.0012365549 0.0017301687 8.2361705e-20)
(0.0012795642 0.0016615547 -4.0194984e-20)
(0.0013178623 0.00159257 -1.3929966e-19)
(0.0013516656 0.0015234619 -1.4368263e-19)
(0.0013811909 0.0014544532 -2.1421698e-20)
(0.0014066543 0.001385745 -1.3217453e-20)
(0.0014282693 0.0013175171 -3.6686458e-20)
(0.0014462464 0.00124993 -1.0479657e-19)
(0.0014607918 0.0011831255 -8.8319378e-20)
(0.0014721066 0.0011172285 -3.1277597e-20)
(-0.00024641292 -0.00752887 -4.2562851e-19)
(-0.00058599721 -0.007517016 -1.5617266e-17)
(-0.00096140606 -0.0074476389 7.5139412e-18)
(-0.0013084812 -0.0073320132 1.8827418e-17)
(-0.0016499435 -0.0071678084 1.5834346e-17)
(-0.0019656918 -0.0069599847 4.0586463e-18)
(-0.0022524762 -0.0067154579 8.5819616e-18)
(-0.0025073766 -0.006441389 1.1072556e-17)
(-0.0027287113 -0.0061450692 1.0583042e-17)
(-0.0029160321 -0.005833669 5.5819185e-18)
(-0.003070122 -0.0055139711 5.365936e-18)
(-0.0031928523 -0.0051921162 1.4515056e-18)
(-0.003287003 -0.0048733979 1.4860362e-18)
(-0.0033560367 -0.0045620954 1.3949041e-19)
(-0.0034038349 -0.0042613705 -5.3832436e-19)
(-0.0034344258 -0.0039732396 1.2664477e-18)
(-0.0034517248 -0.0036986235 3.498006e-19)
(-0.0034593086 -0.0034374651 4.0986687e-19)
(-0.0034602396 -0.0031888989 1.1516541e-19)
(-0.0034569486 -0.0029514544 3.1408209e-20)
(-0.0034511797 -0.00272327 -1.358209e-18)
(-0.0034439926 -0.0025023019 -2.3534097e-18)
(-0.0034358164 -0.0022865077 8.8639826e-20)
(-0.0034265327 -0.0020739963 -2.2552505e-19)
(-0.0034155752 -0.0018631467 9.6804934e-19)
(-0.0034020429 -0.0016526892 1.1068837e-18)
(-0.0033848194 -0.0014417497 -5.6967324e-19)
(-0.0033626852 -0.0012298601 9.5621431e-20)
(-0.0033344186 -0.0010169438 -1.9631243e-19)
(-0.0032988806 -0.00080328101 7.4223471e-19)
(-0.0032550806 -0.00058945602 1.1396071e-18)
(-0.0032022238 -0.0003762957 -7.7800328e-19)
(-0.0031397522 -0.00016482044 -6.6052829e-19)
(-0.0030673102 4.3854973e-05 -7.9684511e-19)
(-0.0029846969 0.00024854092 1.4718592e-19)
(-0.0028920245 0.00044798061 1.2913801e-18)
(-0.0027896691 0.00064098831 -4.6214138e-20)
(-0.0026781508 0.00082644847 -3.3227237e-20)
(-0.0025581406 0.0010033435 -6.0574413e-19)
(-0.0024304337 0.0011707749 -4.7958856e-19)
(-0.0022959212 0.0013279771 6.6828814e-19)
(-0.0021555629 0.001474326 -1.9509657e-19)
(-0.0020103603 0.0016093415 -6.9121821e-19)
(-0.0018613327 0.0017326857 -2.964038e-19)
(-0.0017094966 0.0018441574 -2.2854723e-19)
(-0.0015558465 0.0019436835 -1.6227733e-19)
(-0.0014013404 0.0020313094 -5.5533598e-19)
(-0.0012468881 0.0021071876 -4.0001244e-19)
(-0.001093341 0.0021715648 -2.2539776e-19)
(-0.00094148493 0.0022247695 -3.4768299e-20)
(-0.0007920356 0.0022671993 -4.9021351e-20)
(-0.00064563601 0.0022993084 -1.6891501e-19)
(-0.00050285535 0.0023215963 -7.4568746e-20)
(-0.00036418982 0.0023345959 2.239002e-20)
(-0.00023007293 0.0023388658 2.3670967e-19)
(-0.00010090229 0.0023349883 -5.5882591e-20)
(2.3160343e-05 0.002323531 -8.3313835e-20)
(0.0001418511 0.0023050789 9.6347909e-20)
(0.00025488407 0.002280216 1.3707577e-20)
(0.00036220799 0.0022495038 2.5174418e-20)
(0.00046375064 0.0022134954 -2.0423806e-19)
(0.0005594822 0.0021727238 -2.3797322e-19)
(0.00064941145 0.0021277018 -9.0619883e-20)
(0.00073358105 0.0020789189 4.3426928e-20)
(0.00081206358 0.0020268407 9.764981e-20)
(0.0008849575 0.0019719068 -1.3152599e-19)
(0.00095238333 0.0019145313 -9.8982631e-20)
(0.0010144803 0.0018551016 6.4179134e-20)
(0.001071403 0.0017939787 9.8244164e-20)
(0.0011233185 0.0017314982 3.3805657e-20)
(0.0011704037 0.0016679703 -9.1752356e-20)
(0.0012128432 0.0016036805 -8.9353804e-20)
(0.0012508265 0.0015388901 -6.503767e-20)
(0.0012845467 0.0014738385 4.709229e-20)
(0.0013141988 0.0014087429 5.0333589e-20)
(0.0013399776 0.0013437998 -1.4108258e-19)
(0.0013620774 0.0012791865 -1.3209704e-19)
(0.0013806903 0.001215062 -2.7514425e-20)
(0.0013960049 0.0011515677 3.0204886e-20)
(0.0014082067 0.0010888293 2.5424603e-20)
(-0.00021656073 -0.0068175193 1.3481949e-17)
(-0.00051569671 -0.0068083219 2.0501198e-17)
(-0.00084674511 -0.0067508474 9.0449072e-18)
(-0.0011537958 -0.0066543035 3.8673066e-18)
(-0.001457373 -0.0065163235 3.1922152e-18)
(-0.001739926 -0.0063408576 4.0780376e-19)
(-0.0019988144 -0.0061335157 1.5873475e-18)
(-0.0022315668 -0.005900081 8.6881971e-18)
(-0.0024366915 -0.0056464278 3.0296477e-18)
(-0.0026136581 -0.0053783325 -7.2897207e-19)
(-0.0027629022 -0.0051012718 -1.2635801e-18)
(-0.0028857219 -0.0048202382 -5.4525417e-19)
(-0.0029841419 -0.0045395827 1.1026834e-18)
(-0.0030607371 -0.004262885 1.0674601e-18)
(-0.0031184348 -0.0039928728 2.8012861e-18)
(-0.0031603094 -0.0037313966 -3.9109621e-18)
(-0.0031893852 -0.0034794613 -2.3920293e-18)
(-0.0032084641 -0.0032373075 -6.8591091e-19)
(-0.0032199871 -0.0030045323 6.5915739e-19)
(-0.0032259386 -0.0027802382 2.613545e-18)
(-0.003227795 -0.0025631912 -1.5804607e-18)
(-0.003226517 -0.0023519778 -1.5320908e-18)
(-0.0032225803 -0.0021451482 -6.0013377e-19)
(-0.0032160325 -0.0019413348 4.7780995e-19)
(-0.0032065624 -0.0017393485 2.2870426e-18)
(-0.0031935834 -0.0015382476 -3.4501647e-19)
(-0.0031763219 -0.0013373807 -8.1240642e-19)
(-0.0031539046 -0.0011364013 2.0129731e-19)
(-0.0031254368 -0.0009352639 3.9627659e-19)
(-0.0030900719 -0.00073420172 1.8450661e-18)
(-0.0030470685 -0.00053369173 -2.5840578e-19)
(-0.0029958339 -0.00033440868 -1.3375423e-18)
(-0.0029359023 -0.0001371856 -7.2937653e-19)
(-0.0028670326 5.7057938e-05 -4.2619162e-19)
(-0.0027891235 0.00024732377 1.0671486e-18)
(-0.0027022494 0.00043257028 -1.1399582e-19)
(-0.0026067345 0.00061179611 -6.143643e-19)
(-0.0025030295 0.00078405168 -4.6236221e-19)
(-0.0023917107 0.00094846324 -4.3461412e-19)
(-0.0022734617 0.0011042519 1.8378486e-19)
(-0.0021490507 0.001250747 -3.0357648e-19)
(-0.0020193084 0.0013873943 -5.3529291e-19)
(-0.0018851062 0.0015137595 -2.9839629e-19)
(-0.0017473359 0.0016295292 -1.9557035e-19)
(-0.0016068914 0.0017345063 -4.54879e-19)
(-0.0014646531 0.0018286053 -2.9762139e-19)
(-0.0013214741 0.001911844 -1.3714592e-19)
(-0.0011781694 0.0019843347 -2.4873694e-20)
(-0.0010355074 0.0020462744 -1.0594907e-19)
(-0.000894202 0.0020979347 -1.5003717e-19)
(-0.00075490879 0.0021396501 -1.782043e-19)
(-0.00061822137 0.0021718089 4.4904784e-21)
(-0.00048467002 0.002194842 -6.3536144e-20)
(-0.00035472162 0.0022092145 1.1330199e-19)
(-0.00022878458 0.002215418 3.7774084e-19)
(-0.0001072535 0.0022139643 -2.8352651e-19)
(9.7179376e-06 0.0022053616 -3.7529933e-19)
(0.00012187094 0.0021901327 -1.1927418e-19)
(0.00022891063 0.0021688021 2.0761263e-20)
(0.00033077435 0.002141878 1.6930985e-19)
(0.00042737556 0.0021098641 -2.479623e-19)
(0.00051866665 0.002073248 -4.0066621e-19)
(0.00060463688 0.0020325003 -1.6723936e-19)
(0.00068530723 0.0019880726 -3.8377502e-21)
(0.00076072719 0.0019403962 1.9470673e-19)
(0.00083097125 0.0018898804 -5.8312645e-20)
(0.00089613553 0.0018369124 -2.0244622e-19)
(0.0009563346 0.0017818556 -3.0849233e-20)
(0.0010116984 0.001725051 1.1817783e-20)
(0.0010623697 0.0016668163 9.8463639e-20)
(0.001108502 0.0016074467 -2.9023431e-20)
(0.0011502565 0.0015472149 -1.8748956e-19)
(0.0011878007 0.0014863722 -1.5578956e-19)
(0.0012213066 0.0014251494 -2.6426243e-20)
(0.0012509483 0.001363757 8.1660793e-20)
(0.001276902 0.0013023867 -3.3392415e-20)
(0.0012993434 0.0012412122 -1.4000359e-19)
(0.0013184472 0.0011803902 -9.4477486e-20)
(0.0013343864 0.0011200609 -8.6686534e-20)
(0.001347331 0.0010603499 3.5137342e-20)
(-0.00019138159 -0.0061897509 1.3161368e-17)
(-0.00045622369 -0.0061825956 1.6534467e-17)
(-0.00074963032 -0.0061346892 -1.0830603e-18)
(-0.0010225935 -0.0060535761 -1.63427e-17)
(-0.0012936899 -0.0059369105 -7.9491877e-18)
(-0.0015475184 -0.0057878411 -1.5822091e-17)
(-0.001781919 -0.0056109357 -8.6115476e-18)
(-0.0019947837 -0.0054108838 -3.693306e-18)
(-0.002184783 -0.0051924399 -7.8122117e-18)
(-0.0023513365 -0.0049602801 -3.2512761e-18)
(-0.0024946284 -0.0047188512 1.4384511e-18)
(-0.0026155323 -0.0044722364 4.8959842e-18)
(-0.0027155034 -0.0042240306 2.0581744e-18)
(-0.0027964442 -0.0039772418 3.1783574e-18)
(-0.0028605543 -0.0037342269 6.7191717e-19)
(-0.0029101747 -0.0034966687 4.5555719e-19)
(-0.0029476387 -0.0032655958 1.8186523e-18)
(-0.0029751378 -0.0030414379 7.9709427e-19)
(-0.0029946131 -0.0028241132 1.7647066e-18)
(-0.0030076775 -0.0026131357 6.0829392e-19)
(-0.0030155704 -0.0024077334 -7.1842879e-21)
(-0.003019143 -0.0022069669 -6.5519746e-19)
(-0.0030188761 -0.0020098395 -3.2949081e-19)
(-0.0030149168 -0.001815391 1.0404296e-18)
(-0.0030071279 -0.0016227754 2.271324e-19)
(-0.0029951475 -0.0014313191 -1.1104756e-18)
(-0.0029784559 -0.0012405584 -6.7193356e-19)
(-0.002956441 -0.0010502576 2.7836035e-19)
(-0.0029284612 -0.00086041032 1.0567675e-18)
(-0.0028938997 -0.00067122647 4.9217047e-19)
(-0.0028522085 -0.0004831078 -1.0682692e-18)
(-0.0028029447 -0.00029661549 -1.1505035e-18)
(-0.0027458016 -0.00011244093 -4.9377237e-19)
(-0.0026805876 6.8626953e-05 5.9064858e-19)
(-0.002607223 0.00024577321 5.7438826e-19)
(-0.0025258238 0.00041812127 -9.5661972e-19)
(-0.0024366749 0.00058482034 -5.3740738e-19)
(-0.0023401693 0.00074505975 -2.3980541e-19)
(-0.0022368077 0.00089808789 8.8346555e-19)
(-0.0021271832 0.001043229 4.5892307e-19)
(-0.0020119634 0.0011798959 -3.473184e-19)
(-0.001891872 0.0013075971 -4.2786443e-19)
(-0.0017676706 0.0014259421 -8.2572802e-19)
(-0.0016401426 0.0015346421 -5.6838244e-19)
(-0.0015100767 0.0016335084 -5.9040525e-19)
(-0.0013782539 0.0017224485 -1.5046151e-19)
(-0.0012454351 0.0018014603 6.1246744e-20)
(-0.0011123513 0.0018706251 -2.0008581e-19)
(-0.0009796959 0.0019300997 -3.1137249e-19)
(-0.00084811764 0.0019801085 -2.7686063e-19)
(-0.00071821616 0.0020209333 -2.2974822e-19)
(-0.00059053869 0.0020529061 -5.7980231e-20)
(-0.00046557808 0.0020763995 -1.0867231e-19)
(-0.00034377189 0.0020918187 1.7045792e-19)
(-0.00022550498 0.0020995959 3.1824634e-19)
(-0.00011115882 0.0021001806 -6.787879e-20)
(-8.8677803e-07 0.0020940403 -1.8107587e-19)
(0.00010505947 0.0020816179 -1.3195179e-19)
(0.00020638836 0.0020634008 1.0505182e-19)
(0.00030302412 0.0020398463 2.6515528e-19)
(0.00039487026 0.0020114113 -9.8871473e-20)
(0.00048186504 0.0019785416 -2.5853858e-19)
(0.00056398163 0.0019416686 -2.5146124e-19)
(0.00064122322 0.0019012085 -9.895395e-21)
(0.00071361971 0.0018575601 2.1798831e-19)
(0.000781225 0.001811104 7.7849871e-21)
(0.00084411388 0.0017622014 -1.0136959e-19)
(0.0009023792 0.001711193 2.3225217e-20)
(0.00095612938 0.0016583998 4.7092461e-20)
(0.0010054857 0.0016041218 2.0747228e-19)
(0.0010505801 0.0015486393 6.9995488e-21)
(0.0010915533 0.0014922122 -1.523706e-19)
(0.0011285525 0.0014350813 -1.1961127e-19)
(0.00116173 0.0013774684 1.8095836e-20)
(0.0011912419 0.001319577 1.4007679e-19)
(0.001217246 0.0012615932 -1.5822921e-20)
(0.0012399012 0.0012036863 -1.2415121e-19)
(0.0012593663 0.0011460102 -1.036989e-19)
(0.0012757991 0.0010887033 -3.9624361e-20)
(0.0012893555 0.0010318899 1.1997384e-19)
(-0.00017000605 -0.005632921 -3.6703747e-19)
(-0.00040560327 -0.0056273366 -1.7765282e-17)
(-0.0006668797 -0.0055871469 5.7600792e-18)
(-0.00091063465 -0.0055185601 -8.9223238e-18)
(-0.0011537163 -0.005419292 -2.7513771e-18)
(-0.001382546 -0.0052918565 6.6477755e-21)
(-0.0015953449 -0.0051399885 -3.9074102e-18)
(-0.0017903031 -0.0049675077 -4.6260497e-18)
(-0.0019662306 -0.00477828 -3.2490325e-18)
(-0.0021225232 -0.0045761097 -1.6768571e-18)
(-0.0022591869 -0.0043646279 -5.1805326e-19)
(-0.0023767806 -0.0041471916 -2.1477633e-18)
(-0.0024763314 -0.0039267869 -2.9044e-18)
(-0.0025592315 -0.0037059516 -2.4779543e-18)
(-0.0026271244 -0.0034867259 -2.1574903e-18)
(-0.0026817871 -0.0032706306 -1.8666953e-19)
(-0.0027250148 -0.0030586789 -1.607958e-18)
(-0.0027585178 -0.0028514145 -1.6078337e-18)
(-0.0027838358 -0.0026489735 -8.3823573e-19)
(-0.0028022747 -0.0024511634 -8.7744435e-19)
(-0.0028148664 -0.0022575502 -7.004966e-19)
(-0.0028223534 -0.0020675485 -8.4817716e-19)
(-0.0028251958 -0.0018805063 -1.1670573e-18)
(-0.0028235956 -0.0016957785 1.5616732e-20)
(-0.0028175309 -0.0015127895 1.3669358e-20)
(-0.0028067991 -0.0013310813 -1.2389088e-18)
(-0.002791066 -0.0011503465 -1.2581336e-18)
(-0.002769916 -0.00097044614 -3.0841277e-19)
(-0.0027429009 -0.00079141492 8.791349e-19)
(-0.0027095827 -0.00061345409 6.0429544e-19)
(-0.0026695712 -0.00043691414 -9.9329698e-19)
(-0.0026225595 -0.00026227934 -1.0294457e-18)
(-0.0025683179 -9.0138485e-05 -2.5156375e-20)
(-0.0025067264 7.8872142e-05 1.1429849e-18)
(-0.0024377692 0.00024403564 7.0133426e-19)
(-0.0023615567 0.00040461318 -3.2383189e-19)
(-0.0022783497 0.00055988248 2.4583921e-19)
(-0.0021884996 0.00070914955 5.5161583e-19)
(-0.002092448 0.00085176634 1.1617861e-18)
(-0.0019907151 0.00098714587 1.0030199e-18)
(-0.0018838856 0.0011147734 4.9276859e-19)
(-0.0017725939 0.0012342139 -4.9132191e-19)
(-0.0016575095 0.0013451169 -8.8003742e-19)
(-0.001539323 0.0014472182 -4.3265039e-19)
(-0.0014187329 0.0015403394 -3.5494645e-19)
(-0.0012964337 0.0016243853 -8.2017007e-20)
(-0.0011731055 0.0016993397 -3.3657899e-19)
(-0.0010494047 0.0017652598 -3.6693958e-19)
(-0.00092595773 0.00182227 -1.5271352e-19)
(-0.00080335397 0.0018705558 -8.6205169e-20)
(-0.00068214178 0.0019103549 -1.3637018e-19)
(-0.00056282499 0.0019419515 -2.3682564e-19)
(-0.00044586059 0.0019656677 -2.2044355e-19)
(-0.000331658 0.0019818572 -8.7865593e-20)
(-0.00022058006 0.0019908994 2.4035649e-19)
(-0.00011298396 0.0019931906 1.1767317e-19)
(-9.0356444e-06 0.0019891568 -1.6077225e-19)
(9.1023775e-05 0.0019791768 -1.5820574e-19)
(0.00018692091 0.0019637004 -2.4691228e-20)
(0.00027856099 0.0019431399 1.7312269e-19)
(0.00036584187 0.0019179085 -4.8681207e-20)
(0.00044869112 0.0018884136 -2.7573282e-19)
(0.00052706887 0.0018550505 -3.4474135e-19)
(0.00060096356 0.0018182023 -1.3715907e-19)
(0.00067038875 0.0017782375 1.893959e-19)
(0.00073538068 0.0017355093 -2.3432877e-20)
(0.0007959958 0.0016903541 -1.5822873e-19)
(0.00085230814 0.0016430908 -1.0889111e-19)
(0.0009044068 0.0015940208 4.4001995e-20)
(0.00095239399 0.0015434272 2.4953565e-19)
(0.00099638265 0.0014915753 -5.4011854e-20)
(0.0010364947 0.0014387125 -1.3970205e-19)
(0.0010728593 0.0013850684 -1.2245392e-19)
(0.0011056109 0.0013308559 5.197739e-21)
(0.0011348883 0.0012762709 1.456731e-19)
(0.0011608333 0.0012214936 -4.941537e-20)
(0.001183589 0.0011666885 -1.0998387e-19)
(0.0012032993 0.0011120058 -7.8689028e-20)
(0.0012201078 0.0010575815 5.4224243e-21)
(0.0012341572 0.0010035384 9.7665345e-20)
(-0.00015174216 -0.0051366665 3.200527e-18)
(-0.00036225341 -0.0051322909 2.8812713e-19)
(-0.00059594064 -0.0050983489 7.5565004e-18)
(-0.00081451818 -0.0050399749 1.124409e-17)
(-0.0010332973 -0.0049549741 8.7783925e-18)
(-0.0012402526 -0.004845358 7.1741325e-18)
(-0.00143391 -0.0047141944 5.540843e-18)
(-0.0016127061 -0.0045646091 6.8137609e-18)
(-0.0017755728 -0.0043997612 4.8611399e-18)
(-0.0019219021 -0.0042227608 2.423257e-18)
(-0.0020515758 -0.0040365898 2.2969614e-18)
(-0.0021649211 -0.0038440223 -1.431058e-18)
(-0.0022626432 -0.0036475507 -2.3217517e-19)
(-0.0023457472 -0.0034493255 -1.3091959e-18)
(-0.002415452 -0.0032511156 3.5787596e-19)
(-0.002473099 -0.0030542895 8.6577291e-21)
(-0.0025200646 -0.0028598211 -1.398538e-18)
(-0.0025576794 -0.0026683155 -3.862705e-19)
(-0.0025871609 -0.0024800534 1.6817093e-19)
(-0.0026095618 -0.0022950481 1.0179848e-18)
(-0.002625736 -0.002113111 2.5291204e-18)
(-0.0026363225 -0.0019339193 1.6334545e-18)
(-0.0026417465 -0.0017570811 -8.3153946e-21)
(-0.002642235 -0.0015821933 8.1070011e-19)
(-0.0026378402 -0.0014088914 -1.5483296e-19)
(-0.00262847 -0.0012368893 -3.7162053e-19)
(-0.0026139247 -0.0010660072 3.4278881e-19)
(-0.0025939352 -0.00089618847 4.0890585e-19)
(-0.0025681998 -0.0007275069 1.0025995e-18)
(-0.0025364187 -0.00056016309 -7.9408272e-20)
(-0.0024983284 -0.00039447446 -6.0906703e-19)
(-0.0024537198 -0.00023086219 -1.1366774e-19)
(-0.0024024446 -6.9825186e-05 6.8038916e-20)
(-0.0023444383 8.8074351e-05 5.7548807e-19)
(-0.00227972 0.00024223474 -3.1695934e-19)
(-0.0022084124 0.00039202579 -1.3830584e-19)
(-0.0021307581 0.00053682746 5.3442431e-19)
(-0.0020470754 0.00067604224 4.5607466e-19)
(-0.0019577584 0.00080910927 6.8220667e-19)
(-0.0018632675 0.00093551719 7.0272705e-19)
(-0.0017641191 0.0010548143 3.186456e-19)
(-0.0016608728 0.0011666153 -6.8085035e-19)
(-0.0015541203 0.0012706062 -6.6662286e-19)
(-0.0014444733 0.0013665464 -9.4374196e-20)
(-0.0013325524 0.0014542687 1.9368386e-19)
(-0.0012189769 0.0015336781 1.0970633e-19)
(-0.0011043558 0.0016047487 -5.1490836e-19)
(-0.00098928012 0.001667519 -2.9397481e-19)
(-0.00087431579 0.0017220876 6.4240197e-20)
(-0.00075999871 0.0017686074 2.7170913e-19)
(-0.00064683027 0.0018072795 1.0265891e-19)
(-0.00053527404 0.0018383472 -1.090557e-19)
(-0.00042575337 0.0018620894 1.991042e-20)
(-0.00031865017 0.0018788151 7.3109909e-20)
(-0.00021430587 0.0018888571 5.0844615e-19)
(-0.00011305386 0.0018925665 2.617965e-19)
(-1.5069749e-05 0.0018903264 2.4768544e-23)
(7.9418736e-05 0.0018824672 2.1730894e-19)
(0.00017015479 0.0018693994 1.0580074e-19)
(0.00025702832 0.0018514955 2.3035678e-19)
(0.00033993474 0.0018291294 9.8897554e-20)
(0.00041879344 0.0018026722 -1.5172149e-19)
(0.0004935539 0.0017724865 -6.7254947e-20)
(0.00056419248 0.0017389244 2.8428473e-20)
(0.00063070917 0.0017023261 2.4210539e-19)
(0.00069312533 0.0016630188 6.6619545e-20)
(0.00075148149 0.0016213157 -8.2677692e-20)
(0.00080583516 0.0015775148 1.068128e-19)
(0.00085625886 0.0015318984 1.6699838e-19)
(0.00090283765 0.0014847333 1.6743166e-19)
(0.00094566755 0.00143627 6.6894612e-20)
(0.00098485371 0.0013867434 7.6221609e-21)
(0.0010205086 0.0013363722 4.232057e-20)
(0.0010527509 0.00128536 8.9288769e-20)
(0.0010817038 0.0012338949 1.0375433e-19)
(0.0011074938 0.0011821508 4.0821986e-21)
(0.0011302497 0.001130287 -5.2864917e-20)
(0.0011501017 0.0010784497 1.4951742e-20)
(0.0011671802 0.0010267719 6.5659059e-20)
(0.0011816155 0.00097537427 4.2270648e-20)
(-0.00013603724 -0.0046924536 7.6978575e-18)
(-0.00032490432 -0.0046890088 7.831001e-18)
(-0.00053476203 -0.0046601473 6.590333e-18)
(-0.00073150991 -0.0046101395 1.2884254e-17)
(-0.00092908946 -0.0045368985 6.2160789e-18)
(-0.0011168066 -0.0044420374 -3.4067146e-18)
(-0.001293432 -0.0043280885 1.1620117e-17)
(-0.0014576084 -0.0041976228 7.3778577e-18)
(-0.0016083748 -0.0040532344 5.1927779e-18)
(-0.0017451336 -0.0038974794 6.8249133e-18)
(-0.0018676829 -0.0037328195 2.8468888e-18)
(-0.00197618 -0.0035615589 2.1320533e-18)
(-0.0020710893 -0.0033857879 2.2034748e-18)
(-0.0021531226 -0.0032073361 1.7586695e-18)
(-0.0022231735 -0.0030277404 2.3163126e-18)
(-0.0022822477 -0.0028482286 -7.3042225e-19)
(-0.0023313948 -0.0026697212 2.0144765e-18)
(-0.0023716458 -0.002492849 1.8566526e-18)
(-0.0024039597 -0.0023179841 1.7161499e-18)
(-0.0024291815 -0.002145282 2.6998505e-18)
(-0.0024480134 -0.0019747299 5.9011549e-19)
(-0.0024609993 -0.0018061975 -7.8647821e-19)
(-0.0024685228 -0.0016394881 5.7629666e-19)
(-0.0024708164 -0.0014743825 6.9881481e-19)
(-0.002467977 -0.0013106797 -4.2396688e-20)
(-0.0024599879 -0.0011482288 4.3247857e-19)
(-0.0024467458 -0.00098695248 -5.3110645e-19)
(-0.0024280891 -0.00082686265 1.3013256e-19)
(-0.0024038269 -0.00066806735 6.1325143e-19)
(-0.0023737662 -0.00051077072 3.4034727e-20)
(-0.002337737 -0.0003552676 2.6522987e-19)
(-0.0022956114 -0.00020193117 -6.9255505e-19)
(-0.0022473051 -5.1204983e-05 -2.7658413e-19)
(-0.0021928012 9.6436997e-05 1.6033081e-19)
(-0.002132149 0.00024046232 -6.3537097e-20)
(-0.0020654777 0.00038033383 6.5245317e-19)
(-0.001993017 0.00051551684 4.0383679e-20)
(-0.0019150596 0.00064549379 1.5361916e-19)
(-0.0018319609 0.00076977701 3.1801442e-20)
(-0.0017441325 0.00088791958 -4.5761361e-19)
(-0.0016520335 0.00099952404 -1.9613516e-19)
(-0.001556161 0.0011042489 9.6599843e-20)
(-0.0014570405 0.0012018129 2.0625484e-19)
(-0.0013552162 0.0012919974 -2.6633669e-20)
(-0.0012512415 0.0013746469 -1.2891012e-19)
(-0.0011456705 0.0014496683 -1.1413016e-19)
(-0.0010390499 0.0015170292 6.6255493e-20)
(-0.00093191235 0.001576754 2.0903233e-19)
(-0.00082477031 0.0016289201 2.3362221e-20)
(-0.00071811122 0.0016736538 9.2482216e-20)
(-0.00061239369 0.0017111255 8.0105838e-20)
(-0.00050804402 0.0017415433 1.4779167e-19)
(-0.000405454 0.0017651493 1.6408013e-19)
(-0.00030497972 0.0017822134 2.4893256e-19)
(-0.00020694177 0.0017930279 4.2615619e-19)
(-0.00011164712 0.0017979042 4.7599929e-20)
(-1.9284833e-05 0.0017971856 4.3776873e-20)
(6.9933718e-05 0.0017911619 2.3682608e-19)
(0.00015577264 0.001780207 2.2335481e-19)
(0.00023810551 0.0017646576 1.9085741e-19)
(0.00031682746 0.0017448514 -5.3450831e-20)
(0.00039185247 0.0017211266 -9.2718245e-20)
(0.0004631218 0.0016938155 1.6372152e-20)
(0.00053060191 0.0016632414 1.1265533e-19)
(0.00059428135 0.0016297181 1.3713767e-19)
(0.00065416902 0.0015935485 2.2647208e-20)
(0.00071029194 0.0015550238 -7.5858573e-20)
(0.00076269342 0.0015144219 1.0814645e-19)
(0.00081143104 0.0014720071 8.562654e-20)
(0.00085657496 0.0014280303 1.9779296e-20)
(0.0008982062 0.0013827277 3.9615956e-20)
(0.0009364148 0.0013363217 -5.5162883e-20)
(0.00097129851 0.0012890204 -4.1803786e-21)
(0.0010029613 0.0012410178 5.3894043e-20)
(0.0010315121 0.0011924942 5.1658606e-20)
(0.0010570637 0.0011436169 1.1593538e-20)
(0.0010797318 0.0010945398 -1.126779e-19)
(0.0010996336 0.0010454046 -2.7913486e-20)
(0.0011168875 0.00099634091 -1.7161333e-20)
(0.001131612 0.000947467 -2.2284801e-20)
(-0.00012244879 -0.0042932194 6.4475018e-18)
(-0.00029253409 -0.0042904917 4.956083e-18)
(-0.00048169106 -0.0042657816 -1.168086e-18)
(-0.0006594049 -0.004222663 -8.2016039e-18)
(-0.00083839345 -0.0041591668 -1.8634114e-18)
(-0.0010091097 -0.0040765907 -1.0652523e-19)
(-0.0011705224 -0.0039770356 2.5308346e-18)
(-0.001321447 -0.0038626272 -1.0784331e-18)
(-0.0014610181 -0.0037355064 2.9848302e-18)
(-0.0015886583 -0.0035977859 -1.0399481e-18)
(-0.001704111 -0.003451508 -2.9087008e-18)
(-0.0018074104 -0.0032985962 8.9456382e-20)
(-0.0018988416 -0.003140812 -9.482095e-19)
(-0.0019788946 -0.0029797183 1.7417988e-19)
(-0.0020482143 -0.0028166532 -2.0378995e-19)
(-0.0021075469 -0.002652716 -2.7637844e-19)
(-0.0021576874 -0.002488767 -8.5528443e-19)
(-0.0021994302 -0.0023254382 -1.1043672e-18)
(-0.0022335269 -0.0021631556 -9.5552854e-19)
(-0.0022606526 -0.0020021698 -9.9310787e-19)
(-0.0022813814 -0.0018425917 -1.4352449e-18)
(-0.0022961719 -0.0016844311 -1.7582893e-18)
(-0.0023053641 -0.0015276354 -9.0690832e-19)
(-0.0023091832 -0.0013721242 -2.2616893e-19)
(-0.002307751 -0.0012178217 1.08385e-18)