/*--------------------------------*- C++ -*----------------------------------*\
| =========                 |                                                 |
| \\      /  F ield         | OpenFOAM: The Open Source CFD Toolbox           |
|  \\    /   O peration     | Version:  2106                                  |
|   \\  /    A nd           | Website:  www.openfoam.com                      |
|    \\/     M anipulation  |                                                 |
\*---------------------------------------------------------------------------*/
FoamFile
{
    version     2.0;
    format      ascii;
    arch        "LSB;label=32;scalar=64";
    class       volVectorField;
    location    "0.033";
    object      U_0;
}
// * * * * * * * * * * * * * * * * * * * * * * * * * * * * * * * * * * * * * //

dimensions      [0 1 -1 0 0 0 0];

internalField   nonuniform List<vector> 
4096
(
(0.0030772862 -0.0030622538 0)
(0.009201656 -0.003032204 0)
(0.015235733 -0.0029724175 0)
(0.021120368 -0.0028835161 0)
(0.026797965 -0.002766422 0)
(0.032213072 -0.0026223456 0)
(0.037312947 -0.0024527697 0)
(0.042048087 -0.0022594309 0)
(0.046372712 -0.0020442981 0)
(0.050245214 -0.0018095492 0)
(0.053628548 -0.0015575459 0)
(0.056490574 -0.0012908078 0)
(0.05880435 -0.001011985 0)
(0.060548362 -0.00072383009 0)
(0.061706708 -0.00042917055 0)
(0.062269211 -0.00013088022 0)
(0.062231454 0.00016815369 0)
(0.061594988 0.00046502016 0)
(0.060366776 0.00075694143 0)
(0.058559773 0.0010410897 0)
(0.056192237 0.0013147911 0)
(0.053287752 0.0015754798 0)
(0.04987492 0.0018207271 0)
(0.04598706 0.0020482646 0)
(0.041661867 0.0022560033 0)
(0.036941036 0.0024420495 0)
(0.031869854 0.0026047195 0)
(0.026496769 0.0027425508 0)
(0.02087293 0.0028543116 0)
(0.015051723 0.0029390084 0)
(0.0090882807 0.0029958914 0)
(0.0030389933 0.0030244587 0)
(-0.0030389933 0.0030244587 0)
(-0.0090882807 0.0029958914 0)
(-0.015051723 0.0029390084 0)
(-0.02087293 0.0028543116 0)
(-0.026496769 0.0027425508 0)
(-0.031869854 0.0026047195 0)
(-0.036941036 0.0024420495 0)
(-0.041661867 0.0022560033 0)
(-0.04598706 0.0020482646 0)
(-0.04987492 0.0018207271 0)
(-0.053287752 0.0015754798 0)
(-0.056192237 0.0013147911 0)
(-0.058559773 0.0010410897 0)
(-0.060366776 0.00075694143 0)
(-0.061594988 0.00046502016 0)
(-0.062231454 0.00016815369 0)
(-0.062269211 -0.00013088022 0)
(-0.061706708 -0.00042917055 0)
(-0.060548362 -0.00072383009 0)
(-0.05880435 -0.001011985 0)
(-0.056490574 -0.0012908078 0)
(-0.053628548 -0.0015575459 0)
(-0.050245214 -0.0018095492 0)
(-0.046372712 -0.0020442981 0)
(-0.042048087 -0.0022594309 0)
(-0.037312947 -0.0024527697 0)
(-0.032213072 -0.0026223456 0)
(-0.026797965 -0.002766422 0)
(-0.021120368 -0.0028835161 0)
(-0.015235733 -0.0029724175 0)
(-0.009201656 -0.003032204 0)
(-0.0030772862 -0.0030622538 0)
(0.0031256251 -0.0092236094 0)
(0.0093461925 -0.0091330929 0)
(0.015475032 -0.0089530033 0)
(0.021452054 -0.0086852144 0)
(0.027218752 -0.0083325053 0)
(0.0327188 -0.0078985231 0)
(0.037898625 -0.0073877357 0)
(0.042707949 -0.0068053749 0)
(0.047100279 -0.0061573723 0)
(0.05103336 -0.0054502884 0)
(0.054469572 -0.0046912378 0)
(0.057376279 -0.0038878093 0)
(0.059726123 -0.003047985 0)
(0.061497259 -0.0021800562 0)
(0.06267354 -0.0012925394 0)
(0.063244633 -0.00039409168 0)
(0.063206084 0.00050657301 0)
(0.062559355 0.0014007947 0)
(0.061311704 0.0022800186 0)
(0.059476176 0.0031358556 0)
(0.057071356 0.0039602274 0)
(0.054121202 0.0047454005 0)
(0.050654775 0.0054840598 0)
(0.046705923 0.0061693736 0)
(0.042312942 0.0067950504 0)
(0.037518187 0.0073553883 0)
(0.032367657 0.0078453173 0)
(0.026910557 0.0082604339 0)
(0.021198836 0.0085970298 0)
(0.015286705 0.0088521141 0)
(0.0092301501 0.0090234299 0)
(0.0030864301 0.0091094665 0)
(-0.0030864301 0.0091094665 0)
(-0.0092301501 0.0090234299 0)
(-0.015286705 0.0088521141 0)
(-0.021198836 0.0085970298 0)
(-0.026910557 0.0082604339 0)
(-0.032367657 0.0078453173 0)
(-0.037518187 0.0073553883 0)
(-0.042312942 0.0067950504 0)
(-0.046705923 0.0061693736 0)
(-0.050654775 0.0054840598 0)
(-0.054121202 0.0047454005 0)
(-0.057071356 0.0039602274 0)
(-0.059476176 0.0031358556 0)
(-0.061311704 0.0022800186 0)
(-0.062559355 0.0014007947 0)
(-0.063206084 0.00050657301 0)
(-0.063244633 -0.00039409168 0)
(-0.06267354 -0.0012925394 0)
(-0.061497259 -0.0021800562 0)
(-0.059726123 -0.003047985 0)
(-0.057376279 -0.0038878093 0)
(-0.054469572 -0.0046912378 0)
(-0.05103336 -0.0054502884 0)
(-0.047100279 -0.0061573723 0)
(-0.042707949 -0.0068053749 0)
(-0.037898625 -0.0073877357 0)
(-0.0327188 -0.0078985231 0)
(-0.027218752 -0.0083325053 0)
(-0.021452054 -0.0086852144 0)
(-0.015475032 -0.0089530033 0)
(-0.0093461925 -0.0091330929 0)
(-0.0031256251 -0.0092236094 0)
(0.003207639 -0.015524343 0)
(0.0095914255 -0.01537198 0)
(0.015881067 -0.015068843 0)
(0.022014893 -0.01461809 0)
(0.02793286 -0.014024402 0)
(0.033577164 -0.01329392 0)
(0.038892833 -0.012434169 0)
(0.043828274 -0.011453959 0)
(0.048335784 -0.010363275 0)
(0.052372006 -0.0091731611 0)
(0.05589834 -0.0078955906 0)
(0.058881299 -0.0065433359 0)
(0.061292806 -0.0051298297 0)
(0.063110442 -0.0036690251 0)
(0.064317626 -0.0021752541 0)
(0.064903748 -0.0006630843 0)
(0.064864231 0.00085282562 0)
(0.064200549 0.0023578796 0)
(0.062920171 0.0038376711 0)
(0.061036462 0.0052781079 0)
(0.058568503 0.0066655788 0)
(0.055540884 0.0079870634 0)
(0.051983434 0.0092302484 0)
(0.047930903 0.010383636 0)
(0.043422602 0.011436639 0)
(0.038502007 0.012379663 0)
(0.033216335 0.01320418 0)
(0.027616086 0.013902782 0)
(0.021754572 0.014469234 0)
(0.015687426 0.014898507 0)
(0.0094720956 0.015186806 0)
(0.0031673314 0.015331592 0)
(-0.0031673314 0.015331592 0)
(-0.0094720956 0.015186806 0)
(-0.015687426 0.014898507 0)
(-0.021754572 0.014469234 0)
(-0.027616086 0.013902782 0)
(-0.033216335 0.01320418 0)
(-0.038502007 0.012379663 0)
(-0.043422602 0.011436639 0)
(-0.047930903 0.010383636 0)
(-0.051983434 0.0092302484 0)
(-0.055540884 0.0079870634 0)
(-0.058568503 0.0066655788 0)
(-0.061036462 0.0052781079 0)
(-0.062920171 0.0038376711 0)
(-0.064200549 0.0023578796 0)
(-0.064864231 0.00085282562 0)
(-0.064903748 -0.0006630843 0)
(-0.064317626 -0.0021752541 0)
(-0.063110442 -0.0036690251 0)
(-0.061292806 -0.0051298297 0)
(-0.058881299 -0.0065433359 0)
(-0.05589834 -0.0078955906 0)
(-0.052372006 -0.0091731611 0)
(-0.048335784 -0.010363275 0)
(-0.043828274 -0.011453959 0)
(-0.038892833 -0.012434169 0)
(-0.033577164 -0.01329392 0)
(-0.02793286 -0.014024402 0)
(-0.022014893 -0.01461809 0)
(-0.015881067 -0.015068843 0)
(-0.0095914255 -0.01537198 0)
(-0.003207639 -0.015524343 0)
(0.0033240852 -0.022022775 0)
(0.0099396195 -0.02180662 0)
(0.016457587 -0.021376568 0)
(0.02281408 -0.0207371 0)
(0.028946877 -0.019894863 0)
(0.034796082 -0.018858576 0)
(0.040304738 -0.017638919 0)
(0.04541939 -0.016248391 0)
(0.050090615 -0.01470116 0)
(0.054273492 -0.013012891 0)
(0.057928026 -0.011200567 0)
(0.061019513 -0.009282302 0)
(0.063518852 -0.0072771445 0)
(0.065402795 -0.0052048827 0)
(0.066654142 -0.0030858425 0)
(0.067261873 -0.0009406852 0)
(0.067221221 0.0012097968 0)
(0.066533692 0.003344887 0)
(0.065207008 0.0054441393 0)
(0.063255005 0.0074875694 0)
(0.060697452 0.0094558582 0)
(0.057559837 0.011330527 0)
(0.05387308 0.013094103 0)
(0.049673208 0.014730273 0)
(0.045000976 0.016224017 0)
(0.039901459 0.017561729 0)
(0.034423602 0.018731314 0)
(0.028619755 0.019722273 0)
(0.022545173 0.020525767 0)
(0.016257512 0.02113467 0)
(0.0098163039 0.021543604 0)
(0.0032824278 0.021748973 0)
(-0.0032824278 0.021748973 0)
(-0.0098163039 0.021543604 0)
(-0.016257512 0.02113467 0)
(-0.022545173 0.020525767 0)
(-0.028619755 0.019722273 0)
(-0.034423602 0.018731314 0)
(-0.039901459 0.017561729 0)
(-0.045000976 0.016224017 0)
(-0.049673208 0.014730273 0)
(-0.05387308 0.013094103 0)
(-0.057559837 0.011330527 0)
(-0.060697452 0.0094558582 0)
(-0.063255005 0.0074875694 0)
(-0.065207008 0.0054441393 0)
(-0.066533692 0.003344887 0)
(-0.067221221 0.0012097968 0)
(-0.067261873 -0.0009406852 0)
(-0.066654142 -0.0030858425 0)
(-0.065402795 -0.0052048827 0)
(-0.063518852 -0.0072771445 0)
(-0.061019513 -0.009282302 0)
(-0.057928026 -0.011200567 0)
(-0.054273492 -0.013012891 0)
(-0.050090615 -0.01470116 0)
(-0.04541939 -0.016248391 0)
(-0.040304738 -0.017638919 0)
(-0.034796082 -0.018858576 0)
(-0.028946877 -0.019894863 0)
(-0.02281408 -0.0207371 0)
(-0.016457587 -0.021376568 0)
(-0.0099396195 -0.02180662 0)
(-0.0033240852 -0.022022775 0)
(0.003476171 -0.028787868 0)
(0.010394384 -0.028505304 0)
(0.01721057 -0.027943129 0)
(0.023857901 -0.027107208 0)
(0.030271318 -0.026006236 0)
(0.036388197 -0.024651619 0)
(0.042148991 -0.023057323 0)
(0.047497816 -0.021239691 0)
(0.052383004 -0.019217241 0)
(0.05675759 -0.017010447 0)
(0.060579755 -0.0146415 0)
(0.063813202 -0.012134064 0)
(0.066427485 -0.0095130291 0)
(0.068398265 -0.0068042486 0)
(0.069707522 -0.0040342827 0)
(0.070343693 -0.0012301336 0)
(0.070301753 0.0015810193 0)
(0.069583237 0.0043720867 0)
(0.06819619 0.0071163299 0)
(0.066155058 0.0097876174 0)
(0.063480508 0.012360681 0)
(0.060199196 0.014811349 0)
(0.056343471 0.017116772 0)
(0.051951031 0.019255617 0)
(0.047064523 0.021208248 0)
(0.041731111 0.022956882 0)
(0.03600201 0.024485714 0)
(0.029931984 0.02578103 0)
(0.023578836 0.026831285 0)
(0.017002868 0.027627177 0)
(0.010266339 0.028161686 0)
(0.0034329107 0.028430117 0)
(-0.0034329107 0.028430117 0)
(-0.010266339 0.028161686 0)
(-0.017002868 0.027627177 0)
(-0.023578836 0.026831285 0)
(-0.029931984 0.02578103 0)
(-0.03600201 0.024485714 0)
(-0.041731111 0.022956882 0)
(-0.047064523 0.021208248 0)
(-0.051951031 0.019255617 0)
(-0.056343471 0.017116772 0)
(-0.060199196 0.014811349 0)
(-0.063480508 0.012360681 0)
(-0.066155058 0.0097876174 0)
(-0.06819619 0.0071163299 0)
(-0.069583237 0.0043720867 0)
(-0.070301753 0.0015810193 0)
(-0.070343693 -0.0012301336 0)
(-0.069707522 -0.0040342827 0)
(-0.068398265 -0.0068042486 0)
(-0.066427485 -0.0095130291 0)
(-0.063813202 -0.012134064 0)
(-0.060579755 -0.0146415 0)
(-0.05675759 -0.017010447 0)
(-0.052383004 -0.019217241 0)
(-0.047497816 -0.021239691 0)
(-0.042148991 -0.023057323 0)
(-0.036388197 -0.024651619 0)
(-0.030271318 -0.026006236 0)
(-0.023857901 -0.027107208 0)
(-0.01721057 -0.027943129 0)
(-0.010394384 -0.028505304 0)
(-0.003476171 -0.028787868 0)
(0.003665633 -0.035892571 0)
(0.010960913 -0.035540267 0)
(0.018148616 -0.034839347 0)
(0.025158282 -0.033797131 0)
(0.03192132 -0.032424469 0)
(0.038371715 -0.030735593 0)
(0.044446694 -0.028747921 0)
(0.050087354 -0.026481833 0)
(0.05523923 -0.023960414 0)
(0.059852812 -0.021209178 0)
(0.063884004 -0.018255776 0)
(0.067294523 -0.015129693 0)
(0.070052235 -0.011861936 0)
(0.072131437 -0.0084847202 0)
(0.073513073 -0.0050311431 0)
(0.074184891 -0.0015348632 0)
(0.074141531 0.0019702313 0)
(0.073384556 0.0054503536 0)
(0.071922405 0.0088721466 0)
(0.069770279 0.012203008 0)
(0.066949961 0.015411406 0)
(0.063489567 0.01846718 0)
(0.05942323 0.02134182 0)
(0.054790735 0.024008714 0)
(0.049637095 0.026443374 0)
(0.044012087 0.028623629 0)
(0.037969756 0.030529785 0)
(0.031567886 0.032144753 0)
(0.024867453 0.03345416 0)
(0.017932062 0.03444642 0)
(0.01082737 0.035112799 0)
(0.0036205083 0.035447452 0)
(-0.0036205083 0.035447452 0)
(-0.01082737 0.035112799 0)
(-0.017932062 0.03444642 0)
(-0.024867453 0.03345416 0)
(-0.031567886 0.032144753 0)
(-0.037969756 0.030529785 0)
(-0.044012087 0.028623629 0)
(-0.049637095 0.026443374 0)
(-0.054790735 0.024008714 0)
(-0.05942323 0.02134182 0)
(-0.063489567 0.01846718 0)
(-0.066949961 0.015411406 0)
(-0.069770279 0.012203008 0)
(-0.071922405 0.0088721466 0)
(-0.073384556 0.0054503536 0)
(-0.074141531 0.0019702314 0)
(-0.074184891 -0.0015348632 0)
(-0.073513073 -0.0050311431 0)
(-0.072131437 -0.0084847202 0)
(-0.070052235 -0.011861936 0)
(-0.067294523 -0.015129693 0)
(-0.063884004 -0.018255776 0)
(-0.059852812 -0.021209178 0)
(-0.05523923 -0.023960414 0)
(-0.050087354 -0.026481833 0)
(-0.044446694 -0.028747921 0)
(-0.038371715 -0.030735593 0)
(-0.03192132 -0.032424469 0)
(-0.025158282 -0.033797131 0)
(-0.018148616 -0.034839347 0)
(-0.010960913 -0.035540267 0)
(-0.003665633 -0.035892571 0)
(0.0038949112 -0.043413575 0)
(0.011646503 -0.042987455 0)
(0.019283809 -0.042139681 0)
(0.026731979 -0.040879119 0)
(0.033918155 -0.039218906 0)
(0.040772221 -0.037176268 0)
(0.04722751 -0.034772281 0)
(0.053221464 -0.032031596 0)
(0.05869624 -0.028982125 0)
(0.063599249 -0.02565471 0)
(0.067883636 -0.022082766 0)
(0.071508706 -0.018301921 0)
(0.074440277 -0.014349645 0)
(0.076650977 -0.010264867 0)
(0.078120484 -0.0060875966 0)
(0.078835692 -0.0018585337 0)
(0.078790823 0.0023813292 0)
(0.077987458 0.0065911059 0)
(0.076434503 0.010730418 0)
(0.074148072 0.014759791 0)
(0.071151298 0.018641045 0)
(0.067474067 0.022337658 0)
(0.063152682 0.025815111 0)
(0.058229466 0.029041193 0)
(0.052752306 0.031986276 0)
(0.046774155 0.034623545 0)
(0.040352492 0.036929192 0)
(0.033548762 0.038882568 0)
(0.026427787 0.040466312 0)
(0.019057172 0.041666437 0)
(0.011506686 0.042472399 0)
(0.0038476572 0.042877147 0)
(-0.0038476572 0.042877147 0)
(-0.011506686 0.042472399 0)
(-0.019057172 0.041666437 0)
(-0.026427787 0.040466312 0)
(-0.033548762 0.038882568 0)
(-0.040352492 0.036929192 0)
(-0.046774155 0.034623545 0)
(-0.052752306 0.031986276 0)
(-0.058229466 0.029041193 0)
(-0.063152682 0.025815111 0)
(-0.067474067 0.022337658 0)
(-0.071151298 0.018641045 0)
(-0.074148072 0.014759791 0)
(-0.076434503 0.010730418 0)
(-0.077987458 0.0065911059 0)
(-0.078790823 0.0023813292 0)
(-0.078835692 -0.0018585337 0)
(-0.078120484 -0.0060875966 0)
(-0.076650977 -0.010264867 0)
(-0.074440277 -0.014349645 0)
(-0.071508706 -0.018301921 0)
(-0.067883636 -0.022082766 0)
(-0.063599249 -0.02565471 0)
(-0.05869624 -0.028982125 0)
(-0.053221464 -0.032031596 0)
(-0.04722751 -0.034772281 0)
(-0.040772221 -0.037176268 0)
(-0.033918155 -0.039218906 0)
(-0.026731979 -0.040879119 0)
(-0.019283809 -0.042139681 0)
(-0.011646503 -0.042987455 0)
(-0.0038949112 -0.043413575 0)
(0.0041674147 -0.051433136 0)
(0.012461349 -0.050928323 0)
(0.020633032 -0.049923997 0)
(0.028602405 -0.048430674 0)
(0.036291545 -0.046463939 0)
(0.043625467 -0.044044212 0)
(0.050532884 -0.041196474 0)
(0.056946903 -0.037949925 0)
(0.062805668 -0.034337616 0)
(0.068052929 -0.030396054 0)
(0.072638554 -0.026164782 0)
(0.076518969 -0.021685953 0)
(0.079657543 -0.017003903 0)
(0.082024905 -0.012164701 0)
(0.083599204 -0.0072157134 0)
(0.0843663 -0.0022051408 0)
(0.084319892 0.0028184431 0)
(0.083461567 0.0078065675 0)
(0.081800775 0.012711344 0)
(0.079354709 0.017485943 0)
(0.076148109 0.022085062 0)
(0.072212977 0.026465372 0)
(0.067588209 0.030585924 0)
(0.062319163 0.034408525 0)
(0.056457161 0.037898058 0)
(0.050058944 0.041022761 0)
(0.04318609 0.043754446 0)
(0.035904404 0.046068684 0)
(0.028283287 0.047944942 0)
(0.020395094 0.049366687 0)
(0.012314485 0.050321462 0)
(0.004117766 0.050800936 0)
(-0.004117766 0.050800936 0)
(-0.012314485 0.050321462 0)
(-0.020395094 0.049366687 0)
(-0.028283287 0.047944942 0)
(-0.035904404 0.046068684 0)
(-0.04318609 0.043754446 0)
(-0.050058944 0.041022761 0)
(-0.056457161 0.037898058 0)
(-0.062319163 0.034408525 0)
(-0.067588209 0.030585924 0)
(-0.072212977 0.026465372 0)
(-0.076148109 0.022085062 0)
(-0.079354709 0.017485943 0)
(-0.081800775 0.012711344 0)
(-0.083461567 0.0078065675 0)
(-0.084319892 0.0028184431 0)
(-0.0843663 -0.0022051408 0)
(-0.083599204 -0.0072157134 0)
(-0.082024905 -0.012164701 0)
(-0.079657543 -0.017003903 0)
(-0.076518969 -0.021685953 0)
(-0.072638554 -0.026164782 0)
(-0.068052929 -0.030396054 0)
(-0.062805668 -0.034337616 0)
(-0.056946903 -0.037949925 0)
(-0.050532884 -0.041196474 0)
(-0.043625467 -0.044044212 0)
(-0.036291545 -0.046463939 0)
(-0.028602405 -0.048430674 0)
(-0.020633032 -0.049923997 0)
(-0.012461349 -0.050928323 0)
(-0.0041674147 -0.051433136 0)
(0.0044878556 -0.060041444 0)
(0.013419542 -0.059452186 0)
(0.022219624 -0.058279867 0)
(0.030801923 -0.056536785 0)
(0.03908257 -0.054241153 0)
(0.046980868 -0.051416832 0)
(0.054420103 -0.048092989 0)
(0.061328293 -0.044303705 0)
(0.06763887 -0.040087536 0)
(0.073291282 -0.035487046 0)
(0.078231534 -0.030548327 0)
(0.082412661 -0.025320508 0)
(0.085795133 -0.019855258 0)
(0.088347202 -0.014206288 0)
(0.090045189 -0.0084288367 0)
(0.090873706 -0.0025791539 0)
(0.09082581 0.0032860413 0)
(0.08990307 0.0091101141 0)
(0.08811556 0.01483708 0)
(0.085481739 0.020412175 0)
(0.082028243 0.025782412 0)
(0.077789575 0.030897113 0)
(0.072807705 0.035708403 0)
(0.067131584 0.040171648 0)
(0.060816599 0.044245837 0)
(0.053923973 0.047893899 0)
(0.046520119 0.051082962 0)
(0.038675982 0.053784557 0)
(0.030466353 0.055974771 0)
(0.021969178 0.05763436 0)
(0.013264857 0.05874883 0)
(0.0044355457 0.059308492 0)
(-0.0044355457 0.059308492 0)
(-0.013264857 0.05874883 0)
(-0.021969178 0.05763436 0)
(-0.030466353 0.055974771 0)
(-0.038675982 0.053784557 0)
(-0.046520119 0.051082962 0)
(-0.053923973 0.047893899 0)
(-0.060816599 0.044245837 0)
(-0.067131584 0.040171648 0)
(-0.072807705 0.035708403 0)
(-0.077789575 0.030897113 0)
(-0.082028243 0.025782412 0)
(-0.085481739 0.020412175 0)
(-0.08811556 0.01483708 0)
(-0.08990307 0.0091101141 0)
(-0.09082581 0.0032860413 0)
(-0.090873706 -0.0025791539 0)
(-0.090045189 -0.0084288367 0)
(-0.088347202 -0.014206288 0)
(-0.085795133 -0.019855258 0)
(-0.082412661 -0.025320508 0)
(-0.078231534 -0.030548327 0)
(-0.073291282 -0.035487046 0)
(-0.06763887 -0.040087536 0)
(-0.061328293 -0.044303705 0)
(-0.054420103 -0.048092989 0)
(-0.046980868 -0.051416832 0)
(-0.03908257 -0.054241153 0)
(-0.030801923 -0.056536785 0)
(-0.022219624 -0.058279867 0)
(-0.013419542 -0.059452186 0)
(-0.0044878556 -0.060041444 0)
(0.0048626115 -0.069339576 0)
(0.014540154 -0.068659143 0)
(0.024075168 -0.067305446 0)
(0.03337433 -0.065292715 0)
(0.042346827 -0.062642011 0)
(0.050905293 -0.059380915 0)
(0.058966682 -0.05554312 0)
(0.066453072 -0.051167969 0)
(0.073292389 -0.046299945 0)
(0.079419054 -0.040988129 0)
(0.084774553 -0.035285647 0)
(0.089307937 -0.02924912 0)
(0.092976262 -0.022938095 0)
(0.095744967 -0.016414498 0)
(0.097588198 -0.0097420494 0)
(0.098489064 -0.0029856861 0)
(0.098439831 0.0037890606 0)
(0.097442017 0.010516705 0)
(0.095506406 0.01713247 0)
(0.092652933 0.023572963 0)
(0.08891046 0.029776839 0)
(0.084316442 0.035685437 0)
(0.07891647 0.04124336 0)
(0.072763737 0.046398999 0)
(0.06591842 0.051104968 0)
(0.058447008 0.055318477 0)
(0.050421599 0.059001616 0)
(0.041919164 0.06212158 0)
(0.033020804 0.064650838 0)
(0.023810999 0.066567246 0)
(0.014376859 0.067854137 0)
(0.004807367 0.068500371 0)
(-0.004807367 0.068500371 0)
(-0.014376859 0.067854137 0)
(-0.023810999 0.066567246 0)
(-0.033020804 0.064650838 0)
(-0.041919164 0.06212158 0)
(-0.050421599 0.059001616 0)
(-0.058447008 0.055318477 0)
(-0.06591842 0.051104968 0)
(-0.072763737 0.046398999 0)
(-0.07891647 0.041243361 0)
(-0.084316442 0.035685437 0)
(-0.08891046 0.029776839 0)
(-0.092652933 0.023572963 0)
(-0.095506406 0.01713247 0)
(-0.097442017 0.010516705 0)
(-0.098439831 0.0037890606 0)
(-0.098489064 -0.0029856861 0)
(-0.097588198 -0.0097420494 0)
(-0.095744967 -0.016414498 0)
(-0.092976262 -0.022938095 0)
(-0.089307937 -0.02924912 0)
(-0.084774553 -0.035285647 0)
(-0.079419054 -0.040988129 0)
(-0.073292389 -0.046299945 0)
(-0.066453072 -0.051167969 0)
(-0.058966682 -0.05554312 0)
(-0.050905293 -0.059380915 0)
(-0.042346827 -0.062642011 0)
(-0.03337433 -0.065292715 0)
(-0.024075168 -0.067305446 0)
(-0.014540154 -0.068659143 0)
(-0.0048626115 -0.069339576 0)
(0.0053000604 -0.079443181 0)
(0.01584824 -0.078663723 0)
(0.026241155 -0.077113042 0)
(0.036377157 -0.074807471 0)
(0.046157341 -0.071771179 0)
(0.055486571 -0.068035794 0)
(0.064274426 -0.063639929 0)
(0.072436063 -0.058628634 0)
(0.079892996 -0.053052808 0)
(0.086573779 -0.046968574 0)
(0.092414617 -0.040436655 0)
(0.097359895 -0.033521748 0)
(0.10136266 -0.026291911 0)
(0.10438501 -0.018817941 0)
(0.10639852 -0.011172749 0)
(0.10738448 -0.0034307012 0)
(0.10733418 0.0043330732 0)
(0.10624905 0.012043423 0)
(0.10414066 0.019625949 0)
(0.10103067 0.027007807 0)
(0.09695057 0.034118492 0)
(0.091941273 0.0408906 0)
(0.08605265 0.047260517 0)
(0.07934289 0.053169025 0)
(0.071877805 0.058561817 0)
(0.063730077 0.063389901 0)
(0.054978465 0.067609927 0)
(0.045706991 0.071184422 0)
(0.036004131 0.074081963 0)
(0.025961992 0.0762773 0)
(0.015675498 0.077751436 0)
(0.0052415902 0.07849168 0)
(-0.0052415902 0.07849168 0)
(-0.015675498 0.077751436 0)
(-0.025961992 0.0762773 0)
(-0.036004131 0.074081963 0)
(-0.045706991 0.071184422 0)
(-0.054978465 0.067609927 0)
(-0.063730077 0.063389901 0)
(-0.071877805 0.058561817 0)
(-0.07934289 0.053169025 0)
(-0.08605265 0.047260517 0)
(-0.091941273 0.0408906 0)
(-0.09695057 0.034118492 0)
(-0.10103067 0.027007807 0)
(-0.10414066 0.019625949 0)
(-0.10624905 0.012043423 0)
(-0.10733418 0.0043330732 0)
(-0.10738448 -0.0034307012 0)
(-0.10639852 -0.011172749 0)
(-0.10438501 -0.018817941 0)
(-0.10136266 -0.026291911 0)
(-0.097359895 -0.033521748 0)
(-0.092414617 -0.040436655 0)
(-0.086573779 -0.046968574 0)
(-0.079892996 -0.053052808 0)
(-0.072436063 -0.058628634 0)
(-0.064274426 -0.063639929 0)
(-0.055486571 -0.068035794 0)
(-0.046157341 -0.071771179 0)
(-0.036377157 -0.074807471 0)
(-0.026241155 -0.077113042 0)
(-0.01584824 -0.078663723 0)
(-0.0053000604 -0.079443181 0)
(0.0058108101 -0.090486767 0)
(0.01737552 -0.089599138 0)
(0.028770116 -0.087833284 0)
(0.039883241 -0.08520785 0)
(0.05060656 -0.081750414 0)
(0.060835883 -0.077497036 0)
(0.070472196 -0.072491705 0)
(0.079422594 -0.066785697 0)
(0.087601117 -0.060436892 0)
(0.09492948 -0.053509061 0)
(0.10133772 -0.046071162 0)
(0.10676475 -0.03819665 0)
(0.1111589 -0.029962802 0)
(0.11447834 -0.021450052 0)
(0.11669153 -0.012741312 0)
(0.11777762 -0.0039212497 0)
(0.11772666 0.0049244849 0)
(0.11653994 0.013710109 0)
(0.11422992 0.022350616 0)
(0.11082028 0.030762721 0)
(0.10634557 0.038865805 0)
(0.10085081 0.046582821 0)
(0.094390903 0.053841114 0)
(0.087029946 0.060573124 0)
(0.078840386 0.066716978 0)
(0.069902181 0.072216939 0)
(0.060301901 0.077023757 0)
(0.050131825 0.081094913 0)
(0.039489041 0.084394792 0)
(0.028474553 0.086894798 0)
(0.017192401 0.088573433 0)
(0.0057487885 0.089416343 0)
(-0.0057487885 0.089416343 0)
(-0.017192401 0.088573433 0)
(-0.028474553 0.086894798 0)
(-0.039489041 0.084394792 0)
(-0.050131825 0.081094913 0)
(-0.060301901 0.077023757 0)
(-0.069902181 0.072216939 0)
(-0.078840386 0.066716978 0)
(-0.087029946 0.060573124 0)
(-0.094390903 0.053841114 0)
(-0.10085081 0.046582821 0)
(-0.10634557 0.038865805 0)
(-0.11082028 0.030762721 0)
(-0.11422992 0.022350616 0)
(-0.11653994 0.013710109 0)
(-0.11772666 0.0049244849 0)
(-0.11777762 -0.0039212497 0)
(-0.11669153 -0.012741312 0)
(-0.11447834 -0.021450052 0)
(-0.1111589 -0.029962802 0)
(-0.10676475 -0.03819665 0)
(-0.10133772 -0.046071162 0)
(-0.09492948 -0.053509061 0)
(-0.087601117 -0.060436892 0)
(-0.079422594 -0.066785697 0)
(-0.070472196 -0.072491705 0)
(-0.060835883 -0.077497036 0)
(-0.05060656 -0.081750414 0)
(-0.039883241 -0.08520785 0)
(-0.028770116 -0.087833284 0)
(-0.01737552 -0.089599138 0)
(-0.0058108101 -0.090486767 0)
(0.0064077162 -0.10262831 0)
(0.019160437 -0.10162184 0)
(0.03172571 -0.099619593 0)
(0.043980843 -0.096642775 0)
(0.055806501 -0.092722724 0)
(0.067087931 -0.087900384 0)
(0.077716098 -0.082225655 0)
(0.087588698 -0.075756641 0)
(0.096611057 -0.068558859 0)
(0.10469691 -0.060704425 0)
(0.11176907 -0.052271268 0)
(0.11776006 -0.04334237 0)
(0.12261264 -0.034005045 0)
(0.12628034 -0.024350238 0)
(0.12872793 -0.0144718 0)
(0.12993191 -0.0044657185 0)
(0.12988088 0.0055707496 0)
(0.12857583 0.015540043 0)
(0.12603028 0.025345365 0)
(0.12227023 0.034891812 0)
(0.11733385 0.044087508 0)
(0.11127101 0.052844695 0)
(0.10414258 0.061080701 0)
(0.09601962 0.06871877 0)
(0.086982401 0.075688718 0)
(0.077119441 0.081927441 0)
(0.066526477 0.087379266 0)
(0.055305456 0.091996204 0)
(0.043563536 0.095738107 0)
(0.031412111 0.098572773 0)
(0.018965852 0.10047601 0)
(0.0063417613 0.10143166 0)
(-0.0063417613 0.10143166 0)
(-0.018965852 0.10047601 0)
(-0.031412111 0.098572773 0)
(-0.043563536 0.095738107 0)
(-0.055305456 0.091996204 0)
(-0.066526477 0.087379266 0)
(-0.077119441 0.081927441 0)
(-0.086982401 0.075688718 0)
(-0.09601962 0.06871877 0)
(-0.10414258 0.061080701 0)
(-0.11127101 0.052844695 0)
(-0.11733385 0.044087508 0)
(-0.12227023 0.034891812 0)
(-0.12603028 0.025345365 0)
(-0.12857583 0.015540043 0)
(-0.12988088 0.0055707496 0)
(-0.12993191 -0.0044657185 0)
(-0.12872793 -0.0144718 0)
(-0.12628034 -0.024350238 0)
(-0.12261264 -0.034005045 0)
(-0.11776006 -0.04334237 0)
(-0.11176907 -0.052271268 0)
(-0.10469691 -0.060704425 0)
(-0.096611057 -0.068558859 0)
(-0.087588698 -0.075756641 0)
(-0.077716098 -0.082225655 0)
(-0.067087931 -0.087900384 0)
(-0.055806501 -0.092722724 0)
(-0.043980843 -0.096642775 0)
(-0.03172571 -0.099619593 0)
(-0.019160437 -0.10162184 0)
(-0.0064077162 -0.10262831 0)
(0.0071055529 -0.11605361 0)
(0.02124717 -0.11491584 0)
(0.035181091 -0.11265242 0)
(0.048771388 -0.1092874 0)
(0.061885877 -0.10485631 0)
(0.074397479 -0.099405493 0)
(0.086185468 -0.092991398 0)
(0.097136578 -0.085679658 0)
(0.10714597 -0.077544187 0)
(0.11611806 -0.068666254 0)
(0.12396725 -0.059133599 0)
(0.13061855 -0.049039614 0)
(0.13600819 -0.038482585 0)
(0.14008419 -0.027564962 0)
(0.14280692 -0.016392626 0)
(0.14414972 -0.0050740641 0)
(0.14409935 0.0062805743 0)
(0.14265642 0.017560585 0)
(0.13983561 0.028655968 0)
(0.13566565 0.039458784 0)
(0.13018898 0.049864536 0)
(0.12346119 0.059773478 0)
(0.11555023 0.069091777 0)
(0.10653537 0.077732475 0)
(0.096506117 0.085616228 0)
(0.085561049 0.092671844 0)
(0.073806663 0.098836644 0)
(0.061356223 0.10405669 0)
(0.048328659 0.10828692 0)
(0.034847497 0.11149122 0)
(0.021039812 0.11364249 0)
(0.0070352068 0.11472265 0)
(-0.0070352068 0.11472265 0)
(-0.021039812 0.11364249 0)
(-0.034847497 0.11149122 0)
(-0.048328659 0.10828692 0)
(-0.061356223 0.10405669 0)
(-0.073806663 0.098836644 0)
(-0.085561049 0.092671844 0)
(-0.096506117 0.085616228 0)
(-0.10653537 0.077732475 0)
(-0.11555023 0.069091777 0)
(-0.12346119 0.059773478 0)
(-0.13018898 0.049864536 0)
(-0.13566565 0.039458784 0)
(-0.13983561 0.028655968 0)
(-0.14265642 0.017560585 0)
(-0.14409935 0.0062805743 0)
(-0.14414972 -0.0050740641 0)
(-0.14280692 -0.016392626 0)
(-0.14008419 -0.027564962 0)
(-0.13600819 -0.038482585 0)
(-0.13061855 -0.049039614 0)
(-0.12396725 -0.059133599 0)
(-0.11611806 -0.068666254 0)
(-0.10714597 -0.077544187 0)
(-0.097136578 -0.085679658 0)
(-0.086185468 -0.092991398 0)
(-0.074397479 -0.099405493 0)
(-0.061885877 -0.10485631 0)
(-0.048771388 -0.1092874 0)
(-0.035181091 -0.11265242 0)
(-0.02124717 -0.11491584 0)
(-0.0071055529 -0.11605361 0)
(0.0079201765 -0.13097961 0)
(0.023683134 -0.12969596 0)
(0.039214767 -0.12714242 0)
(0.054363709 -0.12334621 0)
(0.068982791 -0.11834751 0)
(0.082930562 -0.11219873 0)
(0.096072673 -0.10496358 0)
(0.10828309 -0.096716049 0)
(0.11944513 -0.087539341 0)
(0.12945239 -0.077524808 0)
(0.13820943 -0.066770971 0)
(0.14563251 -0.05538264 0)
(0.15165019 -0.043470132 0)
(0.15620399 -0.031148548 0)
(0.15924909 -0.018537044 0)
(0.16075498 -0.0057579873 0)
(0.16070619 0.0070640701 0)
(0.1591028 0.019803657 0)
(0.15596078 0.032335876 0)
(0.15131205 0.044538056 0)
(0.14520408 0.056291442 0)
(0.13769923 0.067482787 0)
(0.12887378 0.078005746 0)
(0.11881669 0.087761992 0)
(0.10762834 0.096662038 0)
(0.095419116 0.10462579 0)
(0.082308092 0.1115829 0)
(0.06842176 0.11747295 0)
(0.053892786 0.12224551 0)
(0.038858838 0.12586025 0)
(0.023461448 0.1282869 0)
(0.0078448948 0.12950527 0)
(-0.0078448948 0.12950527 0)
(-0.023461448 0.1282869 0)
(-0.038858838 0.12586025 0)
(-0.053892786 0.12224551 0)
(-0.06842176 0.11747295 0)
(-0.082308092 0.1115829 0)
(-0.095419116 0.10462579 0)
(-0.10762834 0.096662038 0)
(-0.11881669 0.087761992 0)
(-0.12887378 0.078005746 0)
(-0.13769923 0.067482787 0)
(-0.14520408 0.056291442 0)
(-0.15131205 0.044538056 0)
(-0.15596078 0.032335876 0)
(-0.1591028 0.019803657 0)
(-0.16070619 0.0070640701 0)
(-0.16075498 -0.0057579873 0)
(-0.15924909 -0.018537044 0)
(-0.15620399 -0.031148548 0)
(-0.15165019 -0.043470132 0)
(-0.14563251 -0.05538264 0)
(-0.13820943 -0.066770971 0)
(-0.12945239 -0.077524808 0)
(-0.11944513 -0.087539341 0)
(-0.10828309 -0.096716049 0)
(-0.096072673 -0.10496358 0)
(-0.082930562 -0.11219873 0)
(-0.068982791 -0.11834751 0)
(-0.054363709 -0.12334621 0)
(-0.039214767 -0.12714242 0)
(-0.023683134 -0.12969596 0)
(-0.0079201765 -0.13097961 0)
(0.0088669996 -0.14765536 0)
(0.026514413 -0.14620888 0)
(0.04390304 -0.14333147 0)
(0.060863574 -0.13905394 0)
(0.077231434 -0.13342173 0)
(0.092848481 -0.12649401 0)
(0.10756455 -0.11834263 0)
(0.1212388 -0.10905092 0)
(0.13374084 -0.098712388 0)
(0.14495167 -0.087429558 0)
(0.15476451 -0.075312848 0)
(0.16308543 -0.062479632 0)
(0.16983407 -0.049053466 0)
(0.17494436 -0.035163399 0)
(0.17836528 -0.020943292 0)
(0.18006181 -0.0065309872 0)
(0.18001571 0.0079327878 0)
(0.17822636 0.022305869 0)
(0.17471119 0.036446443 0)
(0.16950578 0.050215077 0)
(0.16266352 0.063476803 0)
(0.15425473 0.076103082 0)
(0.14436546 0.087973478 0)
(0.13309608 0.098976942 0)
(0.12055962 0.10901272 0)
(0.10688026 0.1179909 0)
(0.09219172 0.12583271 0)
(0.076635864 0.13247062 0)
(0.060361305 0.1378484 0)
(0.043522127 0.14192107 0)
(0.026276641 0.14465491 0)
(0.0087861681 0.14602745 0)
(-0.0087861681 0.14602745 0)
(-0.026276641 0.14465491 0)
(-0.043522127 0.14192107 0)
(-0.060361305 0.1378484 0)
(-0.076635864 0.13247062 0)
(-0.09219172 0.12583271 0)
(-0.10688026 0.1179909 0)
(-0.12055962 0.10901272 0)
(-0.13309608 0.098976942 0)
(-0.14436546 0.087973478 0)
(-0.15425473 0.076103082 0)
(-0.16266352 0.063476803 0)
(-0.16950578 0.050215077 0)
(-0.17471119 0.036446443 0)
(-0.17822636 0.022305869 0)