/*--------------------------------*- C++ -*----------------------------------*\
| =========                 |                                                 |
| \\      /  F ield         | OpenFOAM: The Open Source CFD Toolbox           |
|  \\    /   O peration     | Version:  2106                                  |
|   \\  /    A nd           | Website:  www.openfoam.com                      |
|    \\/     M anipulation  |                                                 |
\*---------------------------------------------------------------------------*/
FoamFile
{
    version     2.0;
    format      ascii;
    arch        "LSB;label=32;scalar=64";
    class       volScalarField;
    location    "0.039";
    object      reconstructedDistanceFunction;
}
// * * * * * * * * * * * * * * * * * * * * * * * * * * * * * * * * * * * * * //

dimensions      [0 1 0 0 0 0 0];

internalField   nonuniform List<scalar> 
1024
(
0
0
0
0
0
0
0
0
0
0
0
0
0
0
0
0
0
0
0
0
0
0
0
0
0
0
0
0
0
0
0
0
0
0
0
0
0
0
0
0
0
0
0
0
0
0
0
0
0
0
0
0
0
0
0
0
0
0
0
0
0
0
0
0
0
0
0
0
0
0
0
0
0
0
0
0
0
0
0
0
0
0
0
0
0
0
0
0
0
0
0
0
0
0
0
0
0
0
0
0
0
0
0
0
0
0
0
0
0
0
0
0
0
0
0
0
0
0
0
0
0
0
0
0
0
0
0
0
0
0
0
0
0
0
0
0
0
0
0
0
0
0
0
0
0
0
0
0
0
0
0
0
0
0
0
0
0
0
0
0
0
0
0
0
0
0
0
0
0
0
0
0
0
0
0
0
0
0
0
0
0
0
0
0
0
0
0
0
0
0
0
0
0
0
0
0
0
0
0
0
0
0
0
0
0
0
0
0
0
0
0
0
0
0
0
0
0
0
0
0
0
0
0
0
0
0
0
0
0
0
0
0
0
0
0
0
0
0
0
0
0
0
0
0
0
0
0
0
0
0
0
0
0
0
0
0
0
0
0
0
0
0
0
0
0
0
0
0
0
0
0
0
0
0
0
0
0
0
0
0
0
0
0
0
0
0
0
0
0
0
0
0
0
0
0
0
0
0
0
0
0
0
0
0
0
0
0
0
0
0
0
0
0
0
0
0
0
0
0
0
0
0
0
0
0
0
0
0
0
0
0
0
0
0
0
0
0
0
0
0
0
0
0
0
0
0
0
0
0
0
0
0
0
0
0
0
0
0
0
0
0
0
0
0
0
0
0
0
0
0
0
0
0
0
0
0
0
0
0
0
0
0
0
0
0
0
0
0
0
0.10966008
0.10955013
0.10943363
0.1093148
0.10919842
0.10908869
0.10899008
0.10890618
0.10884035
0.10879495
0.10877186
0.10877186
0.10879495
0.10884034
0.10890617
0.10899008
0.10908869
0.10919841
0.10931481
0.10943364
0.10955013
0.10966008
0
0
0
0
0
0.078728139
0.078704939
0.078659351
0.078593284
0.078509105
0.078410255
0.078300336
0.078183857
0.078065024
0.077948624
0.077838868
0.077740219
0.077656268
0.077590397
0.077544972
0.077521858
0.077521858
0.077544969
0.077590393
0.077656265
0.077740213
0.07783887
0.07794862
0.07806503
0.078183862
0.078300341
0.078410252
0.078509104
0.07859328
0.078659346
0.078704938
0.078728135
0.047478139
0.047454958
0.047409403
0.047343376
0.04725924
0.047160431
0.047050543
0.04693408
0.046815247
0.04669883
0.046589044
0.046490354
0.046406359
0.046340447
0.046294991
0.04627186
0.04627186
0.046294988
0.046340443
0.046406356
0.046490348
0.046589046
0.046698827
0.046815253
0.046934085
0.047050547
0.047160428
0.047259239
0.047343371
0.047409398
0.047454956
0.047478135
0.016228139
0.016204976
0.016159455
0.016093467
0.016009375
0.015910607
0.01580075
0.015684303
0.01556547
0.015449037
0.01533922
0.01524049
0.01515645
0.015090497
0.01504501
0.015021863
0.015021862
0.015045007
0.015090494
0.015156447
0.015240484
0.015339222
0.015449033
0.015565475
0.015684307
0.015800754
0.015910604
0.016009374
0.016093462
0.01615945
0.016204974
0.016228135
-0.015021861
-0.015045006
-0.015090493
-0.015156442
-0.01524049
-0.015339217
-0.015449043
-0.015565474
-0.015684307
-0.015800756
-0.015910604
-0.016009375
-0.016093459
-0.016159452
-0.016204971
-0.016228135
-0.016228135
-0.016204974
-0.016159456
-0.016093462
-0.016009381
-0.015910602
-0.01580076
-0.015684302
-0.01556547
-0.015449039
-0.01533922
-0.015240491
-0.015156447
-0.015090498
-0.015045007
-0.015021865
-0.046271861
-0.046294988
-0.04634044
-0.046406351
-0.046490356
-0.046589041
-0.046698837
-0.046815251
-0.046934085
-0.047050549
-0.047160428
-0.04725924
-0.047343368
-0.047409402
-0.047454952
-0.047478133
-0.047478133
-0.047454955
-0.047409406
-0.047343371
-0.047259246
-0.047160426
-0.047050553
-0.046934079
-0.046815247
-0.046698832
-0.046589044
-0.046490356
-0.046406355
-0.046340446
-0.046294989
-0.046271865
-0.077521861
-0.077544969
-0.077590388
-0.07765626
-0.077740221
-0.077838865
-0.07794863
-0.078065029
-0.078183862
-0.078300343
-0.078410252
-0.078509105
-0.078593277
-0.078659352
-0.078704933
-0.078728131
-0.078728131
-0.078704936
-0.078659356
-0.07859328
-0.078509111
-0.07841025
-0.078300347
-0.078183856
-0.078065024
-0.077948626
-0.077838868
-0.077740221
-0.077656264
-0.077590394
-0.077544971
-0.077521865
-0.10877186
-0.10879495
-0.10884034
-0.10890617
-0.10899009
-0.10908869
-0.10919842
-0.10931481
-0.10943364
-0.10955014
-0.10966008
0
0
0
0
0
0
0
0
0
0
-0.10966007
-0.10955014
-0.10943363
-0.1093148
-0.10919842
-0.10908869
-0.10899009
-0.10890617
-0.10884034
-0.10879495
-0.10877186
0
0
0
0
0
0
0
0
0
0
0
0
0
0
0
0
0
0
0
0
0
0
0
0
0
0
0
0
0
0
0
0
0
0
0
0
0
0
0
0
0
0
0
0
0
0
0
0
0
0
0
0
0
0
0
0
0
0
0
0
0
0
0
0
0
0
0
0
0
0
0
0
0
0
0
0
0
0
0
0
0
0
0
0
0
0
0
0
0
0
0
0
0
0
0
0
0
0
0
0
0
0
0
0
0
0
0
0
0
0
0
0
0
0
0
0
0
0
0
0
0
0
0
0
0
0
0
0
0
0
0
0
0
0
0
0
0
0
0
0
0
0
0
0
0
0
0
0
0
0
0
0
0
0
0
0
0
0
0
0
0
0
0
0
0
0
0
0
0
0
0
0
0
0
0
0
0
0
0
0
0
0
0
0
0
0
0
0
0
0
0
0
0
0
0
0
0
0
0
0
0
0
0
0
0
0
0
0
0
0
0
0
0
0
0
0
0
0
0
0
0
0
0
0
0
0
0
0
0
0
0
0
0
0
0
0
0
0
0
0
0
0
0
0
0
0
0
0
0
0
0
0
0
0
0
0
0
0
0
0
0
0
0
0
0
0
0
0
0
0
0
0
0
0
0
0
0
0
0
0
0
0
0
0
0
0
0
0
0
0
0
0
0
0
0
0
0
0
0
0
0
0
0
0
0
0
0
0
0
0
0
0
0
0
0
0
0
0
0
0
0
0
0
0
0
0
0
0
0
0
0
0
0
0
0
0
0
0
0
0
0
0
0
0
0
0
0
0
0
0
0
0
0
0
0
0
0
0
0
0
0
0
0
0
0
0
0
0
0
0
0
0
0
0
0
0
0
0
0
0
0
0
0
0
)
;

boundaryField
{
    leftWall
    {
        type            cyclic;
    }
    rightWall
    {
        type            cyclic;
    }
    lowerWall
    {
        type            calculated;
        value           uniform 0;
    }
    atmosphere
    {
        type            calculated;
        value           uniform 0;
    }
    defaultFaces
    {
        type            empty;
    }
}


// ************************************************************************* //
