/*--------------------------------*- C++ -*----------------------------------*\
| =========                 |                                                 |
| \\      /  F ield         | OpenFOAM: The Open Source CFD Toolbox           |
|  \\    /   O peration     | Version:  2306                                  |
|   \\  /    A nd           | Website:  www.openfoam.com                      |
|    \\/     M anipulation  |                                                 |
\*---------------------------------------------------------------------------*/
FoamFile
{
    version     2.0;
    format      ascii;
    arch        "LSB;label=32;scalar=64";
    class       volVectorField;
    location    "0.29";
    object      U;
}
// * * * * * * * * * * * * * * * * * * * * * * * * * * * * * * * * * * * * * //

dimensions      [0 1 -1 0 0 0 0];

internalField   nonuniform List<vector> 
6400
(
(-1.0337452e-05 -4.950122e-06 4.6308161e-20)
(-2.9732076e-05 5.4833432e-07 -4.8486552e-21)
(-5.3453401e-05 1.3243e-06 -1.8077737e-20)
(-7.7353014e-05 2.472952e-06 1.2592019e-20)
(-0.00010305672 3.1194701e-06 2.2509044e-20)
(-0.00012899751 3.3740482e-06 -7.4766092e-21)
(-0.00015490044 3.511736e-06 -1.2869061e-21)
(-0.00018068552 3.5924034e-06 1.6336236e-20)
(-0.00020632206 3.6440971e-06 1.3182128e-20)
(-0.00023179729 3.6816745e-06 -2.0940149e-20)
(-0.00025710656 3.7119528e-06 -1.8115709e-20)
(-0.0002822467 3.7374824e-06 4.2977108e-20)
(-0.00030721309 3.7589448e-06 1.6881807e-20)
(-0.00033199884 3.7760487e-06 -3.1595869e-20)
(-0.00035659475 3.7878433e-06 -2.0540788e-20)
(-0.00038098951 3.7926997e-06 1.8439736e-20)
(-0.00040516991 3.7881866e-06 5.1510674e-20)
(-0.00042912155 3.7710516e-06 -6.9932615e-21)
(-0.00045283207 3.737816e-06 -4.2632446e-20)
(-0.00047629663 3.6900983e-06 2.1448754e-21)
(-0.00049950139 3.6461094e-06 6.0624448e-21)
(-0.00052241569 3.6175745e-06 1.3002785e-20)
(-0.0005450115 3.6028546e-06 7.1999974e-20)
(-0.00056726835 3.5975491e-06 1.2320967e-19)
(-0.00058916762 3.5979522e-06 1.4606842e-19)
(-0.00061069044 3.6014458e-06 -1.199081e-19)
(-0.00063181715 3.6061724e-06 -3.6990921e-19)
(-0.00065252755 3.610789e-06 -1.0127219e-19)
(-0.00067280109 3.6142994e-06 1.4155028e-19)
(-0.00069261713 3.6159432e-06 2.0301434e-19)
(-0.00071195503 3.6151187e-06 1.578807e-19)
(-0.00073079441 3.611347e-06 -5.9123016e-20)
(-0.00074911522 3.6042323e-06 -4.6532585e-20)
(-0.00076689787 3.593462e-06 -1.8190039e-19)
(-0.00078412334 3.5787666e-06 -1.6636086e-19)
(-0.00080077328 3.5599561e-06 2.5465696e-19)
(-0.00081683014 3.5368658e-06 -1.509307e-20)
(-0.00083227721 3.5093898e-06 -5.1675218e-19)
(-0.00084709877 3.4774574e-06 1.6646204e-19)
(-0.00086128009 3.441047e-06 7.1260137e-19)
(-0.00087480759 3.4001613e-06 1.2556102e-19)
(-0.00088766883 3.3548436e-06 -3.3007264e-19)
(-0.00089985262 3.3051667e-06 -3.1726489e-19)
(-0.00091134903 3.2512368e-06 -1.888861e-19)
(-0.00092214946 3.1931825e-06 2.4438677e-19)
(-0.00093224667 3.1311613e-06 7.5021029e-19)
(-0.00094163478 3.0653501e-06 -1.1963161e-19)
(-0.00095030934 2.9959489e-06 -3.1267142e-19)
(-0.00095826727 2.9231733e-06 -2.5036754e-19)
(-0.00096550694 2.8472568e-06 -9.120718e-19)
(-0.00097202809 2.7684441e-06 4.4607148e-19)
(-0.00097783189 2.6869874e-06 6.7585385e-19)
(-0.00098292085 2.6031564e-06 2.9413758e-20)
(-0.00098729885 2.5172256e-06 2.8789206e-19)
(-0.00099097108 2.4294634e-06 -7.8045486e-19)
(-0.00099394399 2.3401576e-06 -6.0843402e-19)
(-0.00099622529 2.249581e-06 6.3112563e-19)
(-0.00099782385 2.1580152e-06 2.2550614e-19)
(-0.00099874967 2.0657399e-06 -8.7190003e-20)
(-0.00099901382 1.9730262e-06 9.8817062e-20)
(-0.00099862838 1.8801361e-06 -5.439084e-20)
(-0.00099760639 1.7873402e-06 5.1923389e-20)
(-0.00099596174 1.6948886e-06 -3.7600633e-20)
(-0.00099370914 1.6030305e-06 -3.6738225e-19)
(-0.00099086405 1.511998e-06 -5.1400135e-19)
(-0.00098744258 1.4220251e-06 4.3792197e-20)
(-0.00098346145 1.3333342e-06 9.0328861e-19)
(-0.00097893789 1.2461296e-06 -6.2483712e-23)
(-0.00097388961 1.1606214e-06 -3.6891609e-19)
(-0.0009683347 1.0769985e-06 5.824813e-19)
(-0.00096229159 9.9545972e-07 -8.7893686e-20)
(-0.000955779 9.1619187e-07 -4.0575772e-19)
(-0.00094881584 8.3938452e-07 1.2756355e-19)
(-0.00094142123 7.6524076e-07 1.9308901e-19)
(-0.0009336144 6.9397862e-07 2.2366805e-19)
(-0.00092541468 6.2589069e-07 -4.175964e-19)
(-0.00091684161 5.6142216e-07 -4.1656892e-19)
(-0.00090791504 5.0133004e-07 3.4047692e-19)
(-0.00089865508 4.4675996e-07 4.5091215e-19)
(-0.00088908095 3.9866114e-07 -2.1260631e-19)
(-4.2034819e-05 7.62121e-05 5.2525899e-20)
(-9.9793914e-05 8.6083327e-05 -9.8459678e-21)
(-0.00016652492 8.9553438e-05 1.3505101e-21)
(-0.00023224817 9.3269109e-05 5.7846546e-20)
(-0.0003009541 9.5440457e-05 4.4242358e-20)
(-0.0003699754 9.645035e-05 -1.4505104e-20)
(-0.00043891664 9.6903455e-05 4.9397412e-20)
(-0.00050762952 9.7049177e-05 2.4932666e-20)
(-0.0005760064 9.7008865e-05 -1.4699371e-20)
(-0.00064395918 9.6846949e-05 1.8217424e-21)
(-0.0007114193 9.6597189e-05 2.0221222e-20)
(-0.0007783289 9.6276725e-05 5.9780835e-20)
(-0.00084463469 9.5894227e-05 1.0197104e-19)
(-0.00091028518 9.5453884e-05 1.254247e-19)
(-0.00097522944 9.4957389e-05 4.9974264e-20)
(-0.0010394167 9.4404815e-05 5.5918596e-20)
(-0.0011027961 9.3795063e-05 1.6703724e-19)
(-0.0011653168 9.3126209e-05 2.4305653e-20)
(-0.0012269248 9.2396069e-05 -1.9306905e-19)
(-0.0012875573 9.1605796e-05 -1.2074589e-19)
(-0.0013471559 9.0767333e-05 7.6117708e-21)
(-0.0014056762 8.9889211e-05 5.9710969e-20)
(-0.0014630734 8.8971121e-05 1.4853367e-19)
(-0.0015192973 8.8010074e-05 2.7924659e-19)
(-0.0015742971 8.7003479e-05 1.6057512e-19)
(-0.0016280224 8.5949611e-05 -4.0712636e-19)
(-0.0016804244 8.4847427e-05 -4.9680278e-19)
(-0.0017314556 8.3696389e-05 -1.8886089e-19)
(-0.0017810699 8.2496399e-05 -1.2313841e-19)
(-0.0018292232 8.1247698e-05 5.2043858e-19)
(-0.0018758729 7.9950819e-05 6.8232765e-19)
(-0.0019209784 7.8606553e-05 -3.1103225e-19)
(-0.0019645013 7.7215925e-05 -6.7017183e-19)
(-0.0020064054 7.5780191e-05 -2.5013428e-19)
(-0.0020466569 7.4300787e-05 4.5073048e-19)
(-0.0020852243 7.2779383e-05 3.7065825e-19)
(-0.002122079 7.1217808e-05 -5.7304757e-19)
(-0.0021571952 6.9618081e-05 -8.5045329e-19)
(-0.0021905498 6.7982372e-05 6.48825e-19)
(-0.0022221228 6.6313021e-05 9.1547075e-19)
(-0.0022518972 6.4612476e-05 -1.0549021e-18)
(-0.0022798591 6.2883327e-05 -3.9668385e-19)
(-0.0023059978 6.1128268e-05 1.5301322e-18)
(-0.0023303058 5.9350082e-05 1.984953e-18)
(-0.0023527787 5.7551628e-05 -9.9757615e-21)
(-0.0023734155 5.5735821e-05 -3.1177767e-18)
(-0.0023922181 5.3905633e-05 -1.8114061e-18)
(-0.0024091919 5.206406e-05 1.4567433e-18)
(-0.0024243451 5.0214111e-05 1.4358226e-18)
(-0.0024376893 4.8358806e-05 -8.0856515e-19)
(-0.0024492387 4.6501137e-05 -1.3274272e-18)
(-0.0024590107 4.4644068e-05 1.4297882e-18)
(-0.0024670253 4.2790533e-05 1.8954686e-18)
(-0.0024733055 4.0943402e-05 -2.8510325e-19)
(-0.0024778766 3.9105472e-05 -1.2094999e-18)
(-0.0024807664 3.7279472e-05 -1.3345717e-18)
(-0.0024820053 3.546803e-05 -1.5454273e-19)
(-0.0024816254 3.367368e-05 1.4624242e-18)
(-0.0024796614 3.1898856e-05 5.6882206e-19)
(-0.0024761495 3.0145861e-05 -1.4323462e-18)
(-0.0024711279 2.8416883e-05 -5.4125951e-19)
(-0.0024646361 2.6713995e-05 1.5366007e-18)
(-0.0024567154 2.503912e-05 4.2965399e-19)
(-0.002447408 2.3394056e-05 -1.8117524e-18)
(-0.0024367574 2.1780463e-05 -1.0073573e-18)
(-0.0024248081 2.019987e-05 1.0707915e-18)
(-0.0024116053 1.8653662e-05 1.2650971e-18)
(-0.0023971949 1.7143095e-05 3.2639185e-19)
(-0.0023816233 1.5669306e-05 -6.7050224e-19)
(-0.0023649372 1.4233304e-05 -1.4034549e-18)
(-0.0023471838 1.2836005e-05 1.5359342e-19)
(-0.0023284101 1.1478224e-05 1.0440331e-18)
(-0.0023086633 1.0160691e-05 5.0646878e-22)
(-0.0022879905 8.884072e-06 1.8718624e-19)
(-0.0022664384 7.6489591e-06 4.9046859e-19)
(-0.0022440536 6.4559438e-06 1.4312557e-19)
(-0.0022208821 5.3057428e-06 -7.6098718e-19)
(-0.0021969693 4.1993342e-06 -8.7048157e-19)
(-0.0021723597 3.1376785e-06 1.7194972e-19)
(-0.0021470952 2.12006e-06 3.7672393e-19)
(-6.5582376e-05 0.00024874611 -8.0333686e-20)
(-0.00015024612 0.00025874639 -3.3570304e-20)
(-0.00024650341 0.00026391566 -4.0968828e-20)
(-0.00033999986 0.00026868913 4.8238919e-21)
(-0.00043670597 0.00027156697 4.5086522e-20)
(-0.00053347749 0.00027291714 -5.5513451e-20)
(-0.00063003396 0.00027336703 2.6798395e-20)
(-0.00072626213 0.00027324484 -1.1243534e-22)
(-0.00082202891 0.00027273258 6.5054576e-20)
(-0.00091719955 0.0002719339 1.9879185e-19)
(-0.0010116569 0.0002709075 1.2314933e-19)
(-0.0011052971 0.00026968647 1.1880258e-19)
(-0.0011980245 0.00026828978 1.2179327e-20)
(-0.0012897486 0.00026672865 1.4456025e-19)
(-0.0013803822 0.00026501002 2.1691703e-19)
(-0.0014698407 0.00026313849 4.97094e-20)
(-0.0015580414 0.00026111751 8.7526415e-20)
(-0.0016449026 0.00025895009 -4.8707707e-20)
(-0.0017303441 0.00025663916 -1.4027809e-19)
(-0.0018142864 0.00025418558 4.0941289e-20)
(-0.0018966541 0.00025158271 6.3996354e-20)
(-0.0019773746 0.00024882654 7.4920017e-20)
(-0.0020563753 0.00024591922 1.8670481e-19)
(-0.0021335838 0.0002428642 2.041585e-19)
(-0.0022089299 0.0002396649 -5.450122e-20)
(-0.0022823459 0.00023632453 -1.5351626e-19)
(-0.0023537669 0.00023284626 -9.9671464e-20)
(-0.0024231308 0.00022923342 -2.2739799e-19)
(-0.0024903783 0.00022548956 -2.779223e-19)
(-0.0025554535 0.00022161855 1.0736421e-19)
(-0.0026183033 0.00021762461 2.9593022e-19)
(-0.0026788782 0.00021351228 -7.6346378e-20)
(-0.0027371322 0.0002092865 -3.7856694e-19)
(-0.0027930228 0.00020495255 -2.8852268e-19)
(-0.0028465113 0.00020051607 2.736261e-19)
(-0.002897563 0.00019598302 3.561193e-19)
(-0.0029461471 0.00019135972 -1.3759679e-19)
(-0.0029922369 0.00018665275 -1.8193937e-19)
(-0.00303581 0.00018186898 5.8766092e-21)
(-0.0030768482 0.00017701554 -2.8313877e-19)
(-0.0031153376 0.00017209972 -4.8828022e-19)
(-0.0031512688 0.00016712902 3.9754401e-19)
(-0.0031846365 0.00016211109 1.0034725e-18)
(-0.00321544 0.00015705366 8.7346608e-19)
(-0.0032436826 0.00015196456 -1.2713609e-19)
(-0.0032693722 0.00014685162 -1.8946018e-18)
(-0.0032925207 0.00014172269 -8.4869754e-19)
(-0.0033131442 0.0001365856 6.0062709e-19)
(-0.0033312629 0.00013144808 7.3871474e-19)
(-0.0033469009 0.0001263178 6.1331748e-19)
(-0.003360086 0.00012120227 -8.7752578e-19)
(-0.0033708496 0.00011610885 -3.3675996e-20)
(-0.0033792268 0.00011104472 9.6444478e-19)
(-0.003385256 0.00010601681 -9.5352398e-20)
(-0.0033889786 0.00010103184 -1.6753809e-19)
(-0.003390439 9.6096254e-05 -3.781e-19)
(-0.0033896846 9.1216225e-05 -3.440466e-19)
(-0.0033867651 8.6397603e-05 5.764007e-19)
(-0.0033817329 8.1645936e-05 1.7277935e-19)
(-0.0033746421 7.6966433e-05 -7.9908362e-19)
(-0.0033655493 7.2363969e-05 -2.3567525e-19)
(-0.0033545124 6.7843067e-05 5.960416e-19)
(-0.0033415912 6.3407883e-05 8.0165112e-20)
(-0.0033268466 5.9062218e-05 -4.0128931e-19)
(-0.0033103406 5.4809522e-05 2.2299691e-19)
(-0.0032921364 5.0652878e-05 3.5555519e-19)
(-0.0032722975 4.6595e-05 -1.5709947e-19)
(-0.0032508884 4.2638271e-05 -2.7898955e-20)
(-0.0032279736 3.8784743e-05 -1.0060619e-19)
(-0.0032036178 3.5036125e-05 -6.13084e-19)
(-0.003177886 3.1393849e-05 -3.6874432e-20)
(-0.0031508426 2.7859041e-05 3.6154189e-19)
(-0.003122552 2.4432547e-05 -2.4046312e-21)
(-0.003093078 2.1114943e-05 2.438694e-19)
(-0.0030624839 1.7906506e-05 2.3237286e-19)
(-0.003030832 1.4807248e-05 2.087281e-19)
(-0.0029981841 1.181695e-05 -1.6905808e-19)
(-0.0029646013 8.9351119e-06 -7.4924928e-19)
(-0.0029301452 6.1605526e-06 -1.9951642e-19)
(-0.0028948807 3.4892868e-06 5.5584934e-19)
(-7.8211401e-05 0.00046751104 -4.8986665e-19)
(-0.00017867193 0.00047459859 -1.3897021e-19)
(-0.00029199866 0.00047919461 -3.4553703e-20)
(-0.00040120462 0.00048333444 -1.6256504e-19)
(-0.00051364219 0.00048579962 3.1264287e-21)
(-0.00062583563 0.00048678726 -1.3768282e-19)
(-0.00073763579 0.00048675736 -1.1256182e-19)
(-0.00084899453 0.00048599433 -1.0880838e-20)
(-0.00095979132 0.00048467518 1.3954442e-19)
(-0.0010698794 0.00048290852 2.0613786e-19)
(-0.001179121 0.00048076027 1.3344072e-19)
(-0.0012873888 0.00047827044 1.4334642e-19)
(-0.0013945634 0.00047546371 -3.6853117e-20)
(-0.0015005316 0.00047235578 1.0797711e-19)
(-0.0016051849 0.000468957 1.395196e-19)
(-0.0017084187 0.00046527458 -6.6956793e-20)
(-0.0018101314 0.00046131387 1.0396734e-19)
(-0.0019102243 0.00045707909 2.7207645e-20)
(-0.0020086014 0.00045257384 -6.9089385e-20)
(-0.0021051689 0.00044780114 5.7739136e-20)
(-0.0021998369 0.00044276354 6.4654751e-20)
(-0.0022925181 0.00043746504 7.1569256e-20)
(-0.0023831276 0.00043191097 1.1531458e-19)
(-0.0024715827 0.00042610697 -8.4062155e-21)
(-0.0025578035 0.00042005871 -7.9563591e-20)
(-0.0026417131 0.000413772 -6.902753e-20)
(-0.0027232382 0.00040725305 -2.1413508e-19)
(-0.0028023092 0.00040050857 -6.5409318e-20)
(-0.0028788601 0.00039354584 4.6624761e-20)
(-0.0029528289 0.00038637276 -4.3288992e-20)
(-0.0030241579 0.0003789978 -1.2678088e-19)
(-0.0030927932 0.00037143006 -5.5629277e-20)
(-0.0031586858 0.00036367917 1.6184814e-19)
(-0.0032217908 0.00035575535 3.2643256e-20)
(-0.003282068 0.00034766932 -2.050602e-19)
(-0.0033394822 0.00033943231 -9.8944341e-20)
(-0.0033940027 0.00033105599 1.4700247e-19)
(-0.0034456039 0.00032255245 1.8205165e-19)
(-0.0034942651 0.00031393417 -5.8298791e-20)
(-0.0035399706 0.00030521392 -1.9749791e-19)
(-0.0035827098 0.00029640473 -7.6021595e-20)
(-0.0036224769 0.00028751986 1.5125459e-19)
(-0.0036592715 0.00027857268 2.3273354e-19)
(-0.0036930978 0.0002695767 -2.5520705e-20)
(-0.0037239651 0.00026054541 4.7934046e-21)
(-0.0037518876 0.0002514923 -2.9373323e-19)
(-0.003776884 0.00024243077 -3.1472194e-19)
(-0.0037989779 0.00023337411 7.2839974e-20)
(-0.0038181972 0.00022433538 9.6711163e-20)
(-0.0038345743 0.00021532743 3.6514118e-19)
(-0.0038481456 0.00020636279 5.1422248e-20)
(-0.0038589517 0.0001974537 -3.4150238e-19)
(-0.0038670369 0.00018861197 9.8010029e-20)
(-0.0038724491 0.00017984902 1.5359035e-19)
(-0.0038752398 0.0001711758 -4.2192976e-20)
(-0.0038754633 0.00016260278 -1.5296372e-19)
(-0.0038731773 0.0001541399 -1.4222751e-19)
(-0.003868442 0.00014579655 1.6908157e-19)
(-0.00386132 0.00013758158 3.4391787e-20)
(-0.0038518763 0.00012950323 -3.4029915e-19)
(-0.0038401779 0.00012156914 -5.5183692e-20)
(-0.0038262936 0.00011378636 2.5266466e-19)
(-0.0038102935 0.0001061613 6.5705181e-20)
(-0.0037922494 9.8699774e-05 -7.1900627e-20)
(-0.0037722337 9.1406964e-05 8.9055544e-20)
(-0.00375032 8.4287446e-05 6.7501201e-20)
(-0.0037265824 7.7345181e-05 -2.3334369e-19)
(-0.0037010953 7.0583541e-05 -1.0360788e-19)
(-0.0036739334 6.4005343e-05 7.1158761e-21)
(-0.0036451715 5.7612804e-05 -3.5052449e-20)
(-0.0036148839 5.1407651e-05 1.8000053e-20)
(-0.0035831448 4.5391044e-05 2.6416832e-20)
(-0.0035500276 3.9563643e-05 -8.3760449e-20)
(-0.0035156053 3.3925585e-05 -6.6437064e-20)
(-0.0034799498 2.8476494e-05 1.8211589e-19)
(-0.0034431319 2.3215491e-05 1.6120357e-19)
(-0.0034052217 1.814125e-05 -2.2906756e-19)
(-0.0033662886 1.325205e-05 -4.0850208e-19)
(-0.0033264028 8.5459234e-06 -7.4178704e-20)
(-0.0032856349 4.0218553e-06 1.5843414e-19)
(-8.390226e-05 0.00071106602 -6.3761298e-19)
(-0.00019205324 0.00071533158 -4.5291924e-19)
(-0.00031405368 0.0007185957 -1.3269805e-19)
(-0.00043125467 0.00072145579 3.3365205e-20)
(-0.00055175481 0.00072298391 -3.1679332e-19)
(-0.00067178595 0.00072321034 -3.9529428e-19)
(-0.00079126595 0.00072240226 -2.5148917e-19)
(-0.00091019428 0.00072075806 -1.8947913e-19)
(-0.0010284731 0.00071841848 6.3763307e-20)
(-0.0011459624 0.00071547825 2.188747e-19)
(-0.0012625229 0.00071199974 -7.9838935e-20)
(-0.0013780211 0.00070802391 -2.3173635e-20)
(-0.0014923291 0.00070357814 -9.0729639e-21)
(-0.0016053244 0.00069868129 7.2373371e-20)
(-0.0017168888 0.00069334697 1.2905932e-19)
(-0.0018269081 0.00068758556 -7.9103066e-20)
(-0.0019352718 0.00068140549 3.7588749e-20)
(-0.0020418727 0.00067481413 1.21568e-20)
(-0.0021466064 0.00066781824 -3.4210492e-20)
(-0.0022493718 0.00066042435 1.0702098e-19)
(-0.0023500708 0.00065263898 1.2731982e-19)
(-0.0024486091 0.00064446927 -9.6045342e-20)
(-0.0025448954 0.00063592324 -6.7113013e-20)
(-0.0026388416 0.00062700959 -1.0082646e-20)
(-0.002730363 0.00061773768 -6.1381621e-20)
(-0.0028193783 0.00060811751 -1.5082362e-19)
(-0.00290581 0.0005981598 -1.9560492e-19)
(-0.0029895846 0.00058787603 -2.1970695e-20)
(-0.0030706329 0.00057727848 8.7769396e-20)
(-0.0031488899 0.00056638023 8.9782789e-20)
(-0.0032242953 0.00055519514 -1.8618111e-19)
(-0.0032967935 0.00054373782 -1.2445373e-19)
(-0.0033663336 0.00053202364 9.7556905e-20)
(-0.0034328698 0.00052006865 1.0379262e-19)
(-0.0034963614 0.0005078896 1.2438186e-19)
(-0.0035567728 0.00049550379 -1.139265e-19)
(-0.0036140738 0.00048292914 -3.0662077e-20)
(-0.0036682394 0.00047018403 -2.7045365e-20)
(-0.00371925 0.0004572873 -7.1711485e-20)
(-0.0037670914 0.00044425812 -1.1616069e-19)
(-0.003811755 0.00043111595 -1.2786985e-19)
(-0.0038532374 0.00041788048 6.8635944e-20)
(-0.0038915405 0.00040457147 1.733133e-19)
(-0.0039266717 0.00039120877 -8.0734751e-20)
(-0.0039586436 0.00037781216 -9.9251304e-20)
(-0.0039874738 0.00036440132 -9.7335872e-20)
(-0.0040131851 0.0003509957 -1.3974718e-19)
(-0.004035805 0.00033761452 3.1185782e-20)
(-0.0040553659 0.00032427662 2.9678278e-20)
(-0.0040719048 0.00031100044 4.5263898e-20)
(-0.0040854628 0.00029780394 8.4895755e-20)
(-0.0040960856 0.00028470451 -5.8909517e-20)
(-0.0041038224 0.00027171897 -3.599312e-20)
(-0.0041087267 0.00025886346 -2.928717e-20)
(-0.004110855 0.0002461534 -1.6112274e-20)
(-0.0041102674 0.00023360351 -2.0484157e-20)
(-0.004107027 0.00022122767 -1.692076e-19)
(-0.0041011996 0.00020903897 -1.2751126e-19)
(-0.0040928535 0.00019704966 -1.2703888e-20)
(-0.0040820595 0.00018527111 -4.3364698e-20)
(-0.0040688902 0.00017371381 5.646778e-20)
(-0.00405342 0.00016238736 1.7613592e-19)
(-0.0040357249 0.00015130045 1.0951946e-19)
(-0.004015882 0.0001404609 -6.0066178e-21)
(-0.0039939696 0.00012987561 -1.2369863e-19)
(-0.0039700665 0.00011955062 -1.0486767e-19)
(-0.0039442524 0.00010949108 -9.2563278e-21)
(-0.003916607 9.9701297e-05 7.9049098e-21)
(-0.0038872103 9.0184786e-05 -1.5093683e-19)
(-0.003856142 8.0944221e-05 -1.3902579e-19)
(-0.0038234815 7.1981542e-05 5.4844971e-20)
(-0.003789308 6.329791e-05 1.482695e-19)
(-0.0037536995 5.4893803e-05 4.0792943e-20)
(-0.0037167335 4.6768964e-05 -9.0808998e-20)
(-0.0036784863 3.8922482e-05 -4.4518439e-20)
(-0.0036390332 3.13528e-05 -4.7392599e-20)
(-0.003598448 2.4057835e-05 -1.3355754e-19)
(-0.0035568033 1.7035215e-05 -1.708131e-19)
(-0.0035141701 1.0282711e-05 -1.380145e-19)
(-0.0034706194 3.8007526e-06 -6.2618463e-20)
(-8.6028261e-05 0.00096450326 -1.0853453e-18)
(-0.00019755418 0.00096679931 -6.5659188e-19)
(-0.00032363107 0.00096872967 -6.5538518e-19)
(-0.0004447058 0.00097026538 -5.5587196e-19)
(-0.00056920818 0.00097071814 -5.194006e-19)
(-0.00069313101 0.00097001177 -3.1639876e-19)
(-0.00081639833 0.00096826851 -1.4256367e-19)
(-0.00093902748 0.00096560714 -6.3146775e-20)
(-0.0010609363 0.00096212645 1.0759959e-20)
(-0.0011819954 0.0009579006 1.6383772e-19)
(-0.0013020709 0.00095298299 3.0982133e-20)
(-0.0014210316 0.00094741172 6.2178676e-20)
(-0.0015387492 0.00094121432 1.2735354e-19)
(-0.0016550991 0.0009344113 2.9408082e-19)
(-0.0017699603 0.00092701859 2.2570804e-19)
(-0.0018832152 0.00091904925 -8.3441664e-20)
(-0.0019947496 0.00091051461 1.5530266e-19)
(-0.0021044523 0.00090142506 1.9629358e-19)
(-0.0022122154 0.00089179059 2.1243961e-19)
(-0.0023179343 0.00088162116 1.3319948e-19)
(-0.0024215074 0.00087092702 -2.9540724e-20)
(-0.0025228366 0.00085971902 -1.3181618e-19)
(-0.0026218274 0.00084800892 -3.9459529e-20)
(-0.0027183885 0.00083580937 1.7343071e-19)
(-0.0028124324 0.00082313397 1.4962827e-19)
(-0.0029038752 0.00080999725 8.5669239e-20)
(-0.0029926372 0.00079641473 -5.5314941e-20)
(-0.0030786427 0.00078240292 -1.2884344e-19)
(-0.0031618206 0.00076797933 -3.8281689e-20)
(-0.0032421041 0.00075316249 8.4994498e-20)
(-0.0033194315 0.00073797192 -1.8120678e-20)
(-0.0033937459 0.0007224281 4.1791212e-20)
(-0.0034649953 0.00070655241 1.5602057e-19)
(-0.0035331331 0.00069036708 1.7269139e-19)
(-0.0035981181 0.00067389519 1.9718009e-19)
(-0.0036599143 0.0006571605 -3.1588855e-20)
(-0.0037184913 0.00064018747 1.7609149e-20)
(-0.0037738244 0.00062300111 -3.5794926e-21)
(-0.0038258944 0.00060562694 -8.7694995e-23)
(-0.0038746877 0.00058809085 -2.4379065e-20)
(-0.0039201964 0.00057041905 -1.6422356e-19)
(-0.0039624183 0.00055263791 -6.9754929e-20)
(-0.0040013565 0.00053477391 1.89721e-19)
(-0.00403702 0.0005168535 1.8724858e-19)
(-0.0040694228 0.00049890299 1.2090997e-20)
(-0.0040985846 0.00048094851 2.4621528e-20)
(-0.0041245301 0.00046301581 -6.8070173e-20)
(-0.0041472891 0.00044513025 7.9469212e-20)
(-0.0041668963 0.00042731666 1.4750926e-19)
(-0.0041833909 0.00040959927 8.0499332e-21)
(-0.0041968171 0.00039200161 -3.0715109e-20)
(-0.0042072228 0.00037454644 -4.4992267e-20)
(-0.0042146605 0.00035725568 -2.6827428e-20)
(-0.0042191862 0.00034015033 -1.0345243e-19)
(-0.0042208597 0.00032325045 -8.343577e-20)
(-0.0042197439 0.00030657504 5.1322485e-20)
(-0.0042159052 0.00029014205 -1.7170733e-20)
(-0.0042094124 0.00027396832 -7.3236697e-20)
(-0.0042003371 0.00025806956 -1.9503648e-20)
(-0.0041887531 0.0002424603 -2.929704e-20)
(-0.0041747363 0.0002271539 -1.3533106e-20)
(-0.0041583643 0.00021216254 7.5153907e-20)
(-0.0041397161 0.00019749721 1.173849e-19)
(-0.0041188721 0.00018316768 1.3262681e-19)
(-0.0040959135 0.00016918259 1.1018496e-20)
(-0.0040709224 0.00015554938 -6.8308833e-20)
(-0.0040439812 0.00014227437 -2.1772008e-20)
(-0.0040151727 0.00012936275 -6.8010845e-20)
(-0.0039845797 0.00011681864 -1.6228139e-19)
(-0.0039522847 0.00010464512 -4.9639008e-20)
(-0.0039183699 9.2844237e-05 5.4070041e-20)
(-0.0038829167 8.1417079e-05 3.3410669e-20)
(-0.003846006 7.0363792e-05 -2.097747e-20)
(-0.0038077174 5.9683619e-05 2.2005249e-20)
(-0.0037681297 4.9374945e-05 8.3734668e-20)
(-0.0037273201 3.9435362e-05 -6.1188391e-20)
(-0.0036853647 2.9861766e-05 -1.0821307e-19)
(-0.003642338 2.0650634e-05 -1.6418938e-19)
(-0.0035983131 1.1798604e-05 -1.6629025e-19)
(-0.0035533633 3.3042637e-06 -1.2399889e-20)
(-8.6790165e-05 0.0012215987 -1.131972e-18)
(-0.00019978694 0.0012227657 -5.0168002e-19)
(-0.00032781593 0.001223665 -8.1655779e-19)
(-0.00045086576 0.0012240949 -1.1334506e-18)
(-0.00057749476 0.0012235387 -7.3507703e-19)
(-0.00070351769 0.0012218746 -6.5285728e-20)
(-0.00082883329 0.0012191405 -8.4637936e-20)
(-0.0009534555 0.0012154003 -9.7328328e-20)
(-0.0010773071 0.0012107191 1.7265033e-19)
(-0.0012002653 0.0012051519 1.2183369e-19)
(-0.0013222019 0.0011987425 -3.918261e-20)
(-0.0014429896 0.0011915245 -4.8475753e-20)
(-0.0015625023 0.0011835242 -1.3464794e-19)
(-0.0016806163 0.0011747627 5.828205e-20)
(-0.0017972104 0.0011652575 2.2246686e-19)
(-0.0019121663 0.0011550238 -6.46695e-20)
(-0.0020253684 0.0011440754 -7.0441912e-21)
(-0.0021367041 0.0011324255 -4.9206024e-21)
(-0.0022460638 0.0011200872 4.1282655e-20)
(-0.002353341 0.0011070739 2.6505609e-19)
(-0.002458432 0.0010933992 2.2059578e-19)
(-0.002561237 0.001079078 1.1843924e-19)
(-0.002661659 0.0010641259 1.09448e-19)
(-0.0027596051 0.0010485596 2.6269048e-19)
(-0.0028549857 0.0010323972 1.6879778e-19)
(-0.0029477152 0.0010156578 -1.3220993e-20)
(-0.003037712 0.00099836184 -2.6643776e-20)
(-0.0031248991 0.00098053097 -4.0768669e-20)
(-0.0032092037 0.00096218807 1.6667177e-20)
(-0.0032905577 0.00094335728 1.5058557e-19)
(-0.0033688981 0.00092406392 1.699231e-19)
(-0.0034441668 0.0009043345 2.0970563e-19)
(-0.0035163108 0.0008841966 2.3948092e-19)
(-0.0035852827 0.00086367886 1.4237457e-19)
(-0.0036510403 0.00084281083 -2.2333077e-20)
(-0.0037135473 0.00082162298 -1.4902689e-19)
(-0.0037727729 0.0008001465 3.9080496e-20)
(-0.0038286919 0.00077841326 2.6084188e-20)
(-0.003881285 0.00075645567 -5.0032157e-20)
(-0.0039305389 0.00073430657 4.2502804e-20)
(-0.0039764458 0.0007119991 3.3560325e-20)
(-0.0040190039 0.00068956657 -2.2566969e-20)
(-0.0040582169 0.00066704235 -4.0873634e-20)
(-0.0040940945 0.0006444597 1.2572707e-19)
(-0.0041266516 0.00062185171 7.790836e-20)
(-0.0041559088 0.00059925107 1.050109e-19)
(-0.0041818922 0.00057669007 1.3249104e-19)
(-0.0042046326 0.00055420037 3.0836198e-20)
(-0.0042241663 0.00053181295 -1.0693436e-20)
(-0.0042405341 0.00050955798 -9.3801746e-21)
(-0.0042537817 0.00048746472 2.3588062e-20)
(-0.0042639589 0.00046556141 -3.9221949e-20)
(-0.0042711198 0.00044387523 -7.2822505e-20)
(-0.0042753226 0.00042243214 -1.0041725e-19)
(-0.0042766288 0.00040125689 -1.6491952e-19)
(-0.0042751037 0.0003803729 -5.4678843e-20)
(-0.0042708155 0.00035980222 7.689129e-20)
(-0.0042638352 0.00033956553 9.6738069e-20)
(-0.0042542366 0.00031968204 2.6786844e-20)
(-0.0042420957 0.00030016947 -2.0464318e-20)
(-0.0042274905 0.0002810441 -6.8779153e-20)
(-0.0042105007 0.00026232069 -5.2203993e-20)
(-0.0041912076 0.0002440125 -7.5322936e-21)
(-0.0041696937 0.0002261313 1.4204657e-19)
(-0.0041460425 0.00020868739 1.1627816e-19)
(-0.0041203378 0.00019168964 4.80801e-21)
(-0.0040926644 0.00017514545 -3.8865398e-20)
(-0.004063107 0.00015906086 -9.7245377e-20)
(-0.0040317501 0.00014344056 -1.1822987e-19)
(-0.0039986784 0.00012828794 -2.8912598e-20)
(-0.0039639757 0.0001136051 3.6485635e-20)
(-0.0039277254 9.9392946e-05 1.1066773e-20)
(-0.0038900099 8.5651223e-05 -5.230041e-20)
(-0.0038509106 7.2378553e-05 -2.6221248e-20)
(-0.0038105077 5.9572516e-05 4.0700734e-20)
(-0.0037688803 4.7229698e-05 -1.4335627e-20)
(-0.0037261055 3.5345801e-05 -5.1239434e-20)
(-0.0036822586 2.3915845e-05 -1.6231273e-19)
(-0.0036374112 1.2934594e-05 -1.1974985e-19)
(-0.0035916341 2.3974925e-06 -4.5424768e-20)
(-8.7203631e-05 0.0014803206 -1.3617357e-18)
(-0.00020103839 0.0014809182 -1.1442051e-18)
(-0.00033022834 0.0014811037 -8.8161169e-19)
(-0.00045452187 0.0014806852 -8.8968335e-19)
(-0.00058253672 0.0014792511 -7.5139766e-19)
(-0.00070996242 0.001476671 -5.2304976e-19)
(-0.0008366652 0.0014729449 -1.3455429e-19)
(-0.00096264596 0.0014681063 -9.2713191e-20)
(-0.0010878248 0.0014621983 3.7542802e-20)
(-0.0012120804 0.0014552623 1.2529969e-19)
(-0.0013352877 0.0014473338 4.6124114e-20)
(-0.0014573219 0.0014384426 -2.0089973e-20)
(-0.001578059 0.0014286132 -3.2532853e-19)
(-0.0016973764 0.0014178669 -1.86187e-19)
(-0.0018151536 0.0014062222 -8.480888e-21)
(-0.001931272 0.0013936958 -7.781339e-20)
(-0.0020456156 0.001380304 2.2973028e-20)
(-0.0021580711 0.0013660624 5.4030107e-21)
(-0.0022685275 0.001350987 -7.3759005e-20)
(-0.002376877 0.0013350943 9.0815126e-20)
(-0.0024830148 0.0013184017 1.8767792e-19)
(-0.0025868391 0.0013009273 -1.5863302e-20)
(-0.0026882515 0.0012826909 8.3646585e-20)
(-0.0027871572 0.0012637134 4.4567707e-19)
(-0.0028834651 0.0012440172 3.8491853e-19)
(-0.0029770879 0.001223626 -6.7736093e-20)
(-0.0030679426 0.0012025653 -8.7873067e-20)
(-0.0031559503 0.0011808619 -1.0913459e-19)
(-0.0032410368 0.0011585442 -3.8449021e-20)
(-0.0033231327 0.0011356418 7.4367729e-20)
(-0.0034021736 0.0011121862 2.7762449e-20)
(-0.0034781 0.00108821 1.7066639e-19)
(-0.0035508579 0.001063747 1.7783155e-19)
(-0.0036203987 0.0010388324 -8.4850283e-20)
(-0.0036866795 0.0010135025 -1.5019761e-19)
(-0.003749663 0.00098779446 -8.7981077e-20)
(-0.0038093177 0.00096174651 2.3615029e-20)
(-0.0038656181 0.0009353975 -9.39522e-20)
(-0.0039185445 0.00090878691 -2.3925385e-19)
(-0.0039680833 0.00088195471 -2.0658074e-19)
(-0.0040142267 0.00085494116 -1.0561422e-19)
(-0.0040569729 0.00082778671 1.0663604e-19)
(-0.0040963262 0.00080053178 -5.4559717e-21)
(-0.0041322963 0.00077321667 -1.2246026e-19)
(-0.0041648991 0.00074588134 1.5935818e-21)
(-0.0041941557 0.00071856532 1.8684761e-19)
(-0.0042200929 0.00069130753 2.6216781e-19)
(-0.0042427429 0.00066414613 -8.6673147e-21)
(-0.0042621429 0.0006371184 -1.3960075e-19)
(-0.0042783351 0.0006102606 5.4291527e-21)
(-0.0042913664 0.00058360785 -5.778582e-20)
(-0.0043012882 0.00055719403 -3.4369827e-20)
(-0.0043081562 0.00053105163 -5.8076918e-20)
(-0.0043120302 0.00050521174 -1.6534599e-19)
(-0.0043129735 0.00047970388 -1.4973404e-19)
(-0.004311053 0.00045455596 -7.1254141e-20)
(-0.004306339 0.00042979425 2.1514221e-20)
(-0.0042989043 0.00040544327 -4.7660473e-20)
(-0.0042888246 0.00038152581 -6.0723681e-20)
(-0.0042761777 0.00035806286 -1.904342e-20)
(-0.0042610438 0.00033507358 -1.2084204e-20)
(-0.0042435045 0.00031257537 1.9652706e-20)
(-0.004223643 0.00029058378 -8.1585417e-20)
(-0.0042015437 0.00026911256 -1.6813496e-20)
(-0.0041772919 0.00024817369 7.5831476e-20)
(-0.0041509736 0.0002277774 -1.5836112e-20)
(-0.004122675 0.00020793222 7.9238229e-21)
(-0.0040924827 0.00018864499 -6.6370323e-20)
(-0.0040604832 0.00016992095 -8.5935838e-20)
(-0.0040267624 0.00015176377 -2.5488617e-20)
(-0.0039914061 0.00013417561 -8.8294257e-21)
(-0.0039544989 0.00011715721 -9.4970262e-21)
(-0.0039161249 0.00010070794 -5.6669867e-21)
(-0.0038763668 8.4825844e-05 1.5712822e-20)
(-0.0038353062 6.9507767e-05 2.0259395e-20)
(-0.0037930232 5.4749396e-05 -2.9031557e-20)
(-0.0037495961 4.0545334e-05 -6.7066906e-20)
(-0.0037051013 2.6889086e-05 -1.3699816e-19)
(-0.0036596123 1.3773265e-05 -1.4323634e-19)
(-0.0036131986 1.18809e-06 -7.7831503e-20)
(-8.7649921e-05 0.001740378 -1.8577792e-18)
(-0.00020223863 0.0017407157 -1.609688e-18)
(-0.00033241359 0.0017404209 -7.4373633e-19)
(-0.00045776027 0.0017393602 -4.6027775e-19)
(-0.00058694878 0.0017371737 -3.9877326e-19)
(-0.00071557976 0.0017337379 -4.2399597e-19)
(-0.00084349151 0.0017290419 -4.8487997e-21)
(-0.0009706704 0.001723106 6.8212819e-20)
(-0.0010970301 0.0017159623 1.9211704e-19)
(-0.0012224475 0.0017076438 3.6644951e-19)
(-0.0013467976 0.0016981808 4.6370387e-19)
(-0.0014699563 0.0016875999 3.3482449e-19)
(-0.0015918007 0.0016759246 -2.6474713e-20)
(-0.0017122087 0.0016631759 6.1429994e-20)
(-0.0018310597 0.0016493733 9.4960296e-20)
(-0.0019482351 0.0016345349 -1.5263117e-19)
(-0.0020636182 0.001618679 1.693215e-19)