/*--------------------------------*- C++ -*----------------------------------*\
| =========                 |                                                 |
| \\      /  F ield         | OpenFOAM: The Open Source CFD Toolbox           |
|  \\    /   O peration     | Version:  2106                                  |
|   \\  /    A nd           | Website:  www.openfoam.com                      |
|    \\/     M anipulation  |                                                 |
\*---------------------------------------------------------------------------*/
FoamFile
{
    version     2.0;
    format      ascii;
    arch        "LSB;label=32;scalar=64";
    class       volVectorField;
    location    "0.014";
    object      U_0;
}
// * * * * * * * * * * * * * * * * * * * * * * * * * * * * * * * * * * * * * //

dimensions      [0 1 -1 0 0 0 0];

internalField   nonuniform List<vector> 
1024
(
(-0.027685531 0.027281339 0)
(-0.081984548 0.026225504 0)
(-0.13310991 0.024155582 0)
(-0.17908564 0.021153298 0)
(-0.21813896 0.01733687 0)
(-0.24876847 0.01285569 0)
(-0.26981112 0.0078825281 0)
(-0.28044938 0.0026191937 0)
(-0.28031922 -0.0027420107 0)
(-0.26942045 -0.0079902418 0)
(-0.24819182 -0.012925749 0)
(-0.2174583 -0.017360949 0)
(-0.17840558 -0.021127947 0)
(-0.13253379 -0.024084591 0)
(-0.081599765 -0.026119607 0)
(-0.027550442 -0.027156564 0)
(0.027550442 -0.027156564 0)
(0.081599765 -0.026119607 0)
(0.13253379 -0.024084591 0)
(0.17840558 -0.021127947 0)
(0.2174583 -0.017360949 0)
(0.24819182 -0.012925749 0)
(0.26942045 -0.0079902418 0)
(0.28031922 -0.0027420107 0)
(0.28044938 0.0026191937 0)
(0.26981112 0.0078825281 0)
(0.24876847 0.01285569 0)
(0.21813896 0.01733687 0)
(0.17908564 0.021153298 0)
(0.13310991 0.024155582 0)
(0.081984548 0.026225504 0)
(0.027685531 0.027281339 0)
(-0.028579313 0.082608853 0)
(-0.084629759 0.079410651 0)
(-0.13739981 0.073140873 0)
(-0.18484778 0.064047363 0)
(-0.22514311 0.052488612 0)
(-0.25673771 0.038918276 0)
(-0.27842827 0.023864865 0)
(-0.28939225 0.0079167191 0)
(-0.28923048 -0.0083110617 0)
(-0.27796494 -0.024198947 0)
(-0.25604597 -0.039139489 0)
(-0.22432688 -0.052564886 0)
(-0.18403188 -0.063967118 0)
(-0.13670845 -0.072916178 0)
(-0.084167964 -0.079075518 0)
(-0.028417183 -0.082213999 0)
(0.028417183 -0.082213999 0)
(0.084167964 -0.079075518 0)
(0.13670845 -0.072916178 0)
(0.18403188 -0.063967118 0)
(0.22432688 -0.052564886 0)
(0.25604597 -0.039139489 0)
(0.27796494 -0.024198947 0)
(0.28923048 -0.0083110617 0)
(0.28939225 0.0079167191 0)
(0.27842827 0.023864865 0)
(0.25673771 0.038918276 0)
(0.22514311 0.052488612 0)
(0.18484778 0.064047363 0)
(0.13739981 0.073140873 0)
(0.084629759 0.079410651 0)
(0.028579313 0.082608853 0)
(-0.029949675 0.1403818 0)
(-0.088684785 0.13494218 0)
(-0.14397404 0.12427907 0)
(-0.19367432 0.10881539 0)
(-0.2358664 0.089162597 0)
(-0.26893041 0.066094275 0)
(-0.29160873 0.040512886 0)
(-0.3030496 0.013414973 0)
(-0.30283793 -0.014154262 0)
(-0.2910059 -0.041139218 0)
(-0.26802874 -0.066510905 0)
(-0.23480291 -0.089306651 0)
(-0.19261125 -0.10866508 0)
(-0.14307323 -0.12385728 0)
(-0.088083103 -0.1343129 0)
(-0.029738436 -0.13964034 0)
(0.029738436 -0.13964034 0)
(0.088083103 -0.1343129 0)
(0.14307323 -0.12385728 0)
(0.19261125 -0.10866508 0)
(0.23480291 -0.089306651 0)
(0.26802874 -0.066510905 0)
(0.2910059 -0.041139218 0)
(0.30283793 -0.014154262 0)
(0.3030496 0.013414973 0)
(0.29160873 0.040512886 0)
(0.26893041 0.066094275 0)
(0.2358664 0.089162597 0)
(0.19367432 0.10881539 0)
(0.14397404 0.12427907 0)
(0.088684785 0.13494218 0)
(0.029949675 0.1403818 0)
(-0.031879749 0.20136414 0)
(-0.094395042 0.19355152 0)
(-0.15322865 0.17823836 0)
(-0.20609353 0.15603517 0)
(-0.25094547 0.12782404 0)
(-0.2860642 0.094720042 0)
(-0.31011928 0.058022641 0)
(-0.32221659 0.019161474 0)
(-0.32192643 -0.020363988 0)
(-0.30929319 -0.059041153 0)
(-0.28482833 -0.095398431 0)
(-0.24948822 -0.12805908 0)
(-0.20463704 -0.15579131 0)
(-0.15199457 -0.17755291 0)
(-0.093570819 -0.19252863 0)
(-0.031590393 -0.20015885 0)
(0.031590393 -0.20015885 0)
(0.093570819 -0.19252863 0)
(0.15199457 -0.17755291 0)
(0.20463704 -0.15579131 0)
(0.24948822 -0.12805908 0)
(0.28482833 -0.095398431 0)
(0.30929319 -0.059041153 0)
(0.32192643 -0.020363988 0)
(0.32221659 0.019161474 0)
(0.31011928 0.058022641 0)
(0.2860642 0.094720042 0)
(0.25094547 0.12782404 0)
(0.20609353 0.15603517 0)
(0.15322865 0.17823836 0)
(0.094395042 0.19355152 0)
(0.031879749 0.20136414 0)
(-0.034485044 0.26675545 0)
(-0.1021013 0.25638662 0)
(-0.16571292 0.23606649 0)
(-0.22283676 0.20661138 0)
(-0.27125988 0.1691997 0)
(-0.30912838 0.12531892 0)
(-0.33501779 0.076698811 0)
(-0.34798086 0.025236337 0)
(-0.34757273 -0.027083632 0)
(-0.3338558 -0.078263304 0)
(-0.30739006 -0.12636122 0)
(-0.26921051 -0.16956091 0)
(-0.22078874 -0.20623691 0)
(-0.16397783 -0.23501375 0)
(-0.10094258 -0.25481571 0)
(-0.034078283 -0.26490449 0)
(0.034078283 -0.26490449 0)
(0.10094258 -0.25481571 0)
(0.16397783 -0.23501375 0)
(0.22078874 -0.20623691 0)
(0.26921051 -0.16956091 0)
(0.30739006 -0.12636122 0)
(0.3338558 -0.078263304 0)
(0.34757273 -0.027083632 0)
(0.34798086 0.025236337 0)
(0.33501779 0.076698811 0)
(0.30912838 0.12531892 0)
(0.27125988 0.1691997 0)
(0.22283676 0.20661138 0)
(0.16571292 0.23606649 0)
(0.1021013 0.25638662 0)
(0.034485044 0.26675545 0)
(-0.038014257 0.33805192 0)
(-0.11253811 0.32487761 0)
(-0.18261341 0.29906562 0)
(-0.24548904 0.2616644 0)
(-0.29872353 0.21418532 0)
(-0.34028501 0.15853209 0)
(-0.36862754 0.096911371 0)
(-0.38273895 0.031732852 0)
(-0.38215968 -0.034493196 0)
(-0.36697832 -0.099248937 0)
(-0.33781792 -0.16008915 0)
(-0.29581537 -0.21472433 0)
(-0.24258322 -0.26110396 0)
(-0.18015194 -0.29749177 0)
(-0.11089451 -0.32252976 0)
(-0.037437334 -0.33528589 0)
(0.037437334 -0.33528589 0)
(0.11089451 -0.32252976 0)
(0.18015194 -0.29749177 0)
(0.24258322 -0.26110396 0)
(0.29581537 -0.21472433 0)
(0.33781792 -0.16008915 0)
(0.36697832 -0.099248937 0)
(0.38215968 -0.034493196 0)
(0.38273895 0.031732852 0)
(0.36862754 0.096911371 0)
(0.34028501 0.15853209 0)
(0.29872353 0.21418532 0)
(0.24548904 0.2616644 0)
(0.18261341 0.29906562 0)
(0.11253811 0.32487761 0)
(0.038014257 0.33805192 0)
(-0.04298283 0.41742513 0)
(-0.12722931 0.4010996 0)
(-0.20639633 0.36912427 0)
(-0.27735334 0.32281793 0)
(-0.33733736 0.26407807 0)
(-0.38406939 0.19528793 0)
(-0.41583916 0.11919712 0)
(-0.4315514 0.038789968 0)
(-0.43073262 -0.042846103 0)
(-0.41350807 -0.12263155 0)
(-0.38058253 -0.19757452 0)
(-0.33322775 -0.26486762 0)
(-0.27324785 -0.32199124 0)
(-0.20291935 -0.36680834 0)
(-0.12490808 -0.3976467 0)
(-0.042168161 -0.41335821 0)
(0.042168161 -0.41335821 0)
(0.12490808 -0.3976467 0)
(0.20291935 -0.36680834 0)
(0.27324785 -0.32199124 0)
(0.33322775 -0.26486762 0)
(0.38058253 -0.19757452 0)
(0.41350807 -0.12263155 0)
(0.43073262 -0.042846103 0)
(0.4315514 0.038789968 0)
(0.41583916 0.11919712 0)
(0.38406939 0.19528793 0)
(0.33733736 0.26407807 0)
(0.27735334 0.32281793 0)
(0.20639633 0.36912427 0)
(0.12722931 0.4010996 0)
(0.04298283 0.41742513 0)
(-0.05029458 0.50840188 0)
(-0.14884874 0.48842525 0)
(-0.24139465 0.44931632 0)
(-0.32424339 0.39272096 0)
(-0.39415916 0.32100143 0)
(-0.44850077 0.2371144 0)
(-0.48532001 0.14444986 0)
(-0.50340525 0.0466558 0)
(-0.50226799 -0.052532802 0)
(-0.48208217 -0.14942518 0)
(-0.44365804 -0.24042434 0)
(-0.38845287 -0.32213957 0)
(-0.3185446 -0.39151569 0)
(-0.2365698 -0.44595281 0)
(-0.14562868 -0.48341491 0)
(-0.049164713 -0.50250286 0)
(0.049164713 -0.50250286 0)
(0.14562868 -0.48341491 0)
(0.2365698 -0.44595281 0)
(0.3185446 -0.39151569 0)
(0.38845287 -0.32213957 0)
(0.44365804 -0.24042434 0)
(0.48208217 -0.14942518 0)
(0.50226799 -0.052532802 0)
(0.50340525 0.0466558 0)
(0.48532001 0.14444986 0)
(0.44850077 0.2371144 0)
(0.39415916 0.32100143 0)
(0.32424339 0.39272096 0)
(0.24139465 0.44931632 0)
(0.14884874 0.48842525 0)
(0.05029458 0.50840188 0)
(-0.061251072 0.61673318 0)
(-0.18124957 0.59236059 0)
(-0.29386067 0.5446719 0)
(-0.39456375 0.47572379 0)
(-0.47941428 0.38845975 0)
(-0.54522416 0.2865511 0)
(-0.58968379 0.17417542 0)
(-0.61140481 0.055778644 0)
(-0.60987911 -0.064155098 0)
(-0.58533959 -0.18126529 0)
(-0.53872697 -0.29126289 0)
(-0.47176109 -0.39007045 0)
(-0.38692432 -0.47399151 0)
(-0.28739588 -0.53986306 0)
(-0.17693721 -0.58520608 0)
(-0.059738537 -0.60831449 0)
(0.059738537 -0.60831449 0)
(0.17693721 -0.58520608 0)
(0.28739588 -0.53986306 0)
(0.38692432 -0.47399151 0)
(0.47176109 -0.39007045 0)
(0.53872697 -0.29126289 0)
(0.58533959 -0.18126529 0)
(0.60987911 -0.064155098 0)
(0.61140481 0.055778644 0)
(0.58968379 0.17417542 0)
(0.54522416 0.2865511 0)
(0.47941428 0.38845975 0)
(0.39456375 0.47572379 0)
(0.29386067 0.5446719 0)
(0.18124957 0.59236059 0)
(0.061251072 0.61673318 0)
(-0.077271038 0.75110363 0)
(-0.22863681 0.72123179 0)
(-0.37063309 0.66281845 0)
(-0.4975368 0.57845043 0)
(-0.60436593 0.47181858 0)
(-0.68711729 0.34751584 0)
(-0.74293088 0.21072775 0)
(-0.77014117 0.066904144 0)
(-0.76821326 -0.078569218 0)
(-0.73743959 -0.2205987 0)
(-0.67890286 -0.35406713 0)
(-0.59469304 -0.47404082 0)
(-0.48788781 -0.57601394 0)
(-0.3624732 -0.65609858 0)
(-0.22319809 -0.71124973 0)
(-0.075364774 -0.73936737 0)
(0.075364774 -0.73936737 0)
(0.22319809 -0.71124973 0)
(0.3624732 -0.65609858 0)
(0.48788781 -0.57601394 0)
(0.59469304 -0.47404082 0)
(0.67890286 -0.35406713 0)
(0.73743959 -0.2205987 0)
(0.76821326 -0.078569218 0)
(0.77014117 0.066904144 0)
(0.74293088 0.21072775 0)
(0.68711729 0.34751584 0)
(0.60436593 0.47181858 0)
(0.4975368 0.57845043 0)
(0.37063309 0.66281845 0)
(0.22863681 0.72123179 0)
(0.077271038 0.75110363 0)
(-0.099076916 0.92288951 0)
(-0.29316387 0.88596583 0)
(-0.4752518 0.81380322 0)
(-0.63800951 0.70967574 0)
(-0.77504129 0.57823751 0)
(-0.88120007 0.42528514 0)
(-0.95282305 0.25732473 0)
(-0.98781549 0.081119948 0)
(-0.98561448 -0.096809582 0)
(-0.9465486 -0.2705955 0)
(-0.87180556 -0.43407617 0)
(-0.7639757 -0.58119094 0)
(-0.62697841 -0.70636408 0)
(-0.46592946 -0.80473536 0)
(-0.28695807 -0.87252 0)
(-0.096904595 -0.90709974 0)
(0.096904595 -0.90709974 0)
(0.28695807 -0.87252 0)
(0.46592946 -0.80473536 0)
(0.62697841 -0.70636408 0)
(0.7639757 -0.58119094 0)
(0.87180556 -0.43407617 0)
(0.9465486 -0.2705955 0)
(0.98561448 -0.096809582 0)
(0.98781549 0.081119948 0)
(0.95282305 0.25732473 0)
(0.88120007 0.42528514 0)
(0.77504129 0.57823751 0)
(0.63800951 0.70967574 0)
(0.4752518 0.81380322 0)
(0.29316387 0.88596583 0)
(0.099076916 0.92288951 0)
(-0.12513769 1.1436477 0)
(-0.37032758 1.0977035 0)
(-0.60049933 1.0079447 0)
(-0.80645719 0.87851054 0)
(-0.98012014 0.71524972 0)
(-1.1149075 0.52550151 0)
(-1.2060877 0.31749291 0)
(-1.250921 0.09973576 0)
(-1.2488437 -0.11976637 0)
(-1.2001548 -0.33442977 0)
(-1.1060078 -0.53670157 0)
(-0.9695992 -0.71899589 0)
(-0.7959613 -0.8742643 0)
(-0.59162592 -0.99635309 0)
(-0.36443285 -1.0805352 0)
(-0.12308012 -1.1235201 0)
(0.12308012 -1.1235201 0)
(0.36443285 -1.0805352 0)
(0.59162592 -0.99635309 0)
(0.7959613 -0.8742643 0)
(0.9695992 -0.71899589 0)
(1.1060078 -0.53670157 0)
(1.2001548 -0.33442977 0)
(1.2488437 -0.11976637 0)
(1.250921 0.09973576 0)
(1.2060877 0.31749291 0)
(1.1149075 0.52550151 0)
(0.98012014 0.71524972 0)
(0.80645719 0.87851054 0)
(0.60049933 1.0079447 0)
(0.37032758 1.0977035 0)
(0.12513769 1.1436477 0)
(-0.1494397 1.4186598 0)
(-0.44236967 1.3616257 0)
(-0.71768983 1.2502019 0)
(-0.96457901 1.089544 0)
(-1.1734026 0.8868483 0)
(-1.3361212 0.65135107 0)
(-1.4468362 0.39341389 0)
(-1.5018635 0.12377401 0)
(-1.5007002 -0.1475654 0)
(-1.4435153 -0.41373533 0)
(-1.3311547 -0.66509862 0)
(-1.1673123 -0.89159307 0)
(-0.95841329 -1.0847103 0)
(-0.71243601 -1.2366078 0)
(-0.43890095 -1.3414076 0)
(-0.14823977 -1.3949817 0)
(0.14823977 -1.3949817 0)
(0.43890095 -1.3414076 0)
(0.71243601 -1.2366078 0)
(0.95841329 -1.0847103 0)
(1.1673123 -0.89159307 0)
(1.3311547 -0.66509862 0)
(1.4435153 -0.41373533 0)
(1.5007002 -0.1475654 0)
(1.5018635 0.12377401 0)
(1.4468362 0.39341389 0)
(1.3361212 0.65135107 0)
(1.1734026 0.8868483 0)
(0.96457901 1.089544 0)
(0.71768983 1.2502019 0)
(0.44236967 1.3616257 0)
(0.1494397 1.4186598 0)
(-0.15939681 1.7356102 0)
(-0.47208474 1.6660758 0)
(-0.7665703 1.530158 0)
(-1.0315904 1.3341503 0)
(-1.2568538 1.0866889 0)
(-1.4334958 0.79895237 0)
(-1.555159 0.48326465 0)
(-1.6167734 0.15315347 0)
(-1.617605 -0.17824826 0)
(-1.5575059 -0.50452006 0)
(-1.4369668 -0.81304161 0)
(-1.2607993 -1.0919675 0)
(-1.0353303 -1.3295357 0)
(-0.76965884 -1.5162151 0)
(-0.47418763 -1.6450145 0)
(-0.16012973 -1.710857 0)
(0.16012973 -1.710857 0)
(0.47418763 -1.6450145 0)
(0.76965884 -1.5162151 0)
(1.0353303 -1.3295357 0)
(1.2607993 -1.0919675 0)
(1.4369668 -0.81304161 0)
(1.5575059 -0.50452006 0)
(1.617605 -0.17824826 0)
(1.6167734 0.15315347 0)
(1.555159 0.48326465 0)
(1.4334958 0.79895237 0)
(1.2568538 1.0866889 0)
(1.0315904 1.3341503 0)
(0.7665703 1.530158 0)
(0.47208474 1.6660758 0)
(0.15939681 1.7356102 0)
(-0.13603704 2.0504941 0)
(-0.40335703 1.9690426 0)
(-0.65601533 1.8096019 0)
(-0.88459893 1.5798263 0)
(-1.0810216 1.2886319 0)
(-1.2375558 0.94925955 0)
(-1.3473484 0.57644873 0)
(-1.4046589 0.18504055 0)
(-1.4089118 -0.20652733 0)
(-1.3591998 -0.59496321 0)
(-1.2549843 -0.96221553 0)
(-1.1015515 -1.2938817 0)
(-0.90481752 -1.5765509 0)
(-0.67271686 -1.7984548 0)
(-0.41434494 -1.9517961 0)
(-0.13961834 -2.0307689 0)
(0.13961834 -2.0307689 0)
(0.41434494 -1.9517961 0)
(0.67271686 -1.7984548 0)
(0.90481752 -1.5765509 0)
(1.1015515 -1.2938817 0)
(1.2549843 -0.96221553 0)
(1.3591998 -0.59496321 0)
(1.4089118 -0.20652733 0)
(1.4046589 0.18504055 0)
(1.3473484 0.57644873 0)
(1.2375558 0.94925955 0)
(1.0810216 1.2886319 0)
(0.88459893 1.5798263 0)
(0.65601533 1.8096019 0)
(0.40335703 1.9690426 0)
(0.13603704 2.0504941 0)
(-0.060176491 2.2793563 0)
(-0.17941029 2.1903335 0)
(-0.29344739 2.0155626 0)
(-0.39930143 1.7636761 0)
(-0.49295944 1.4431178 0)
(-0.57046338 1.0680781 0)
(-0.62836381 0.65342978 0)
(-0.66116366 0.21324857 0)
(-0.668531 -0.22302546 0)
(-0.64941155 -0.66177324 0)
(-0.60241863 -1.074119 0)
(-0.53111936 -1.4461407 0)
(-0.43789533 -1.7631317 0)
(-0.32661715 -2.0113434 0)
(-0.2015937 -2.1831276 0)
(-0.068169407 -2.2697154 0)
(0.068169407 -2.2697154 0)
(0.2015937 -2.1831276 0)
(0.32661715 -2.0113434 0)
(0.43789533 -1.7631317 0)
(0.53111936 -1.4461407 0)
(0.60241863 -1.074119 0)
(0.64941155 -0.66177324 0)
(0.668531 -0.22302546 0)
(0.66116366 0.21324857 0)
(0.62836381 0.65342978 0)
(0.57046338 1.0680781 0)
(0.49295944 1.4431178 0)
(0.39930143 1.7636761 0)
(0.29344739 2.0155626 0)
(0.17941029 2.1903335 0)
(0.060176491 2.2793563 0)
(0.067632889 2.2703406 0)
(0.19995235 2.1837405 0)
(0.32395797 2.0118803 0)
(0.43431636 1.7635725 0)
(0.52676122 1.4464762 0)
(0.59748218 1.0743763 0)
(0.644152 0.66189041 0)
(0.66303458 0.22286606 0)
(0.65550236 -0.21351492 0)
(0.62290081 -0.65363353 0)
(0.56551303 -1.0683391 0)
(0.48865219 -1.443478 0)
(0.3957717 -1.7640807 0)
(0.29082391 -2.0159898 0)
(0.17779865 -2.190766 0)
(0.059615767 -2.2798075 0)
(-0.059615767 -2.2798075 0)
(-0.17779865 -2.190766 0)
(-0.29082391 -2.0159898 0)
(-0.3957717 -1.7640807 0)
(-0.48865219 -1.443478 0)
(-0.56551303 -1.0683391 0)
(-0.62290081 -0.65363353 0)
(-0.65550236 -0.21351492 0)
(-0.66303458 0.22286606 0)
(-0.644152 0.66189041 0)
(-0.59748218 1.0743763 0)
(-0.52676122 1.4464762 0)
(-0.43431636 1.7635725 0)
(-0.32395797 2.0118803 0)
(-0.19995235 2.1837405 0)
(-0.067632889 2.2703406 0)
(0.13907141 2.0325001 0)
(0.41273012 1.9534586 0)
(0.67009994 1.7999606 0)
(0.90129131 1.5778408 0)
(1.0972509 1.2949115 0)
(1.2500846 0.96295212 0)
(1.3538693 0.59535127 0)
(1.4033329 0.20656508 0)
(1.3990537 -0.18532542 0)
(1.3419272 -0.57701855 0)
(1.2325479 -0.95007257 0)
(1.0766366 -1.2896843 0)
(0.88099412 -1.5810766 0)
(0.65333577 -1.8109928 0)
(0.40170935 -1.9705243 0)
(0.13547994 -2.0520354 0)
(-0.13547994 -2.0520354 0)
(-0.40170935 -1.9705243 0)
(-0.65333577 -1.8109928 0)
(-0.88099412 -1.5810766 0)
(-1.0766366 -1.2896843 0)
(-1.2325479 -0.95007257 0)
(-1.3419272 -0.57701855 0)
(-1.3990537 -0.18532542 0)
(-1.4033329 0.20656508 0)
(-1.3538693 0.59535127 0)
(-1.2500846 0.96295212 0)
(-1.0972509 1.2949115 0)
(-0.90129131 1.5778408 0)
(-0.67009994 1.7999606 0)
(-0.41273012 1.9534586 0)
(-0.13907141 2.0325001 0)
(0.15958963 1.7136546 0)
(0.47259004 1.6477012 0)
(0.76706221 1.5186734 0)
(1.0318243 1.3316682 0)
(1.2565103 1.0936922 0)
(1.4320536 0.81429322 0)
(1.5521419 0.50524621 0)
(1.6119888 0.17844327 0)
(1.6111305 -0.15349564 0)
(1.5496958 -0.48412955 0)
(1.4284261 -0.80028457 0)
(1.252394 -1.0884425 0)
(1.0279197 -1.3362546 0)
(0.76383429 -1.5325322 0)
(0.47039843 -1.6686315 0)
(0.15882774 -1.7382637 0)
(-0.15882774 -1.7382637 0)
(-0.47039843 -1.6686315 0)
(-0.76383429 -1.5325322 0)
(-1.0279197 -1.3362546 0)
(-1.252394 -1.0884425 0)
(-1.4284261 -0.80028457 0)
(-1.5496958 -0.48412955 0)
(-1.6111305 -0.15349564 0)
(-1.6119888 0.17844327 0)
(-1.5521419 0.50524621 0)
(-1.4320536 0.81429322 0)
(-1.2565103 1.0936922 0)
(-1.0318243 1.3316682 0)
(-0.76706221 1.5186734 0)
(-0.47259004 1.6477012 0)
(-0.15958963 1.7136546 0)
(0.14769297 1.3988507 0)
(0.43728107 1.3451252 0)
(0.70979969 1.2400247 0)
(0.95485111 1.0876941 0)
(1.1629511 0.89403114 0)
(1.326151 0.66689468 0)
(1.4380442 0.41481812 0)
(1.4949699 0.14790837 0)
(1.4960981 -0.12418532 0)
(1.4412534 -0.39456553 0)
(1.3309396 -0.65318724 0)
(1.1688354 -0.88929848 0)
(0.9608128 -1.0925138 0)
(0.71488003 -1.2535759 0)
(0.44063563 -1.3652757 0)
(0.14885396 -1.4224524 0)
(-0.14885396 -1.4224524 0)
(-0.44063563 -1.3652757 0)
(-0.71488003 -1.2535759 0)
(-0.9608128 -1.0925138 0)
(-1.1688354 -0.88929848 0)
(-1.3309396 -0.65318724 0)
(-1.4412534 -0.39456553 0)
(-1.4960981 -0.12418532 0)
(-1.4949699 0.14790837 0)
(-1.4380442 0.41481812 0)
(-1.326151 0.66689468 0)
(-1.1629511 0.89403114 0)
(-0.95485111 1.0876941 0)
(-0.70979969 1.2400247 0)
(-0.43728107 1.3451252 0)
(-0.14769297 1.3988507 0)
(0.12250231 1.1284872 0)
(0.36271984 1.0853119 0)
(0.58883646 1.000755 0)
(0.79219105 0.87812268 0)
(0.96498093 0.7221637 0)
(1.1007065 0.53905657 0)
(1.1943615 0.33588106 0)
(1.2427757 0.12026129 0)
(1.2448119 -0.10021973 0)
(1.200172 -0.31894062 0)
(1.1094181 -0.5278546 0)
(0.9752796 -0.71841795 0)
(0.8024642 -0.88237197 0)
(0.59751996 -1.0123499 0)
(0.36848805 -1.1024825 0)
(0.12451593 -1.1486182 0)
(-0.12451593 -1.1486182 0)
(-0.36848805 -1.1024825 0)
(-0.59751996 -1.0123499 0)
(-0.8024642 -0.88237197 0)
(-0.9752796 -0.71841795 0)
(-1.1094181 -0.5278546 0)
(-1.200172 -0.31894062 0)
(-1.2448119 -0.10021973 0)
(-1.2427757 0.12026129 0)
(-1.1943615 0.33588106 0)
(-1.1007065 0.53905657 0)
(-0.96498093 0.7221637 0)
(-0.79219105 0.87812268 0)
(-0.58883646 1.000755 0)
(-0.36271984 1.0853119 0)
(-0.12250231 1.1284872 0)
(0.096247909 0.91326479 0)
(0.28501069 0.87845344 0)
(0.46275816 0.81021314 0)
(0.62269266 0.71117893 0)
(0.75872634 0.58515958 0)
(0.86578052 0.43704498 0)
(0.93996724 0.2724473 0)
(0.97872289 0.097469701 0)
(0.98087693 -0.081683273 0)
(0.94610584 -0.25909697 0)
(0.87496924 -0.42820167 0)
(0.76954824 -0.58218878 0)
(0.6334792 -0.71451058 0)
(0.47187227 -0.81933422 0)
(0.2910773 -0.89197729 0)
(0.098371505 -0.92914661 0)
(-0.098371505 -0.92914661 0)
(-0.2910773 -0.89197729 0)
(-0.47187227 -0.81933422 0)
(-0.6334792 -0.71451058 0)
(-0.76954824 -0.58218878 0)
(-0.87496924 -0.42820167 0)
(-0.94610584 -0.25909697 0)
(-0.98087693 -0.081683273 0)
(-0.97872289 0.097469701 0)
(-0.93996724 0.2724473 0)
(-0.86578052 0.43704498 0)
(-0.75872634 0.58515958 0)
(-0.62269266 0.71117893 0)
(-0.46275816 0.81021314 0)
(-0.28501069 0.87845344 0)
(-0.096247909 0.91326479 0)
(0.07453895 0.74697272 0)
(0.22074929 0.71857378 0)
(0.3584865 0.66286898 0)
(0.48250283 0.58197687 0)
(0.58810111 0.47896963 0)
(0.67134179 0.3577702 0)
(0.72918681 0.22292742 0)
(0.75957815 0.079424912 0)
(0.76145275 -0.067565287 0)
(0.73452518 -0.21289275 0)
(0.67932587 -0.35111033 0)
(0.59750144 -0.47671005 0)
(0.49187856 -0.58445264 0)
(0.36641412 -0.6696982 0)
(0.22603267 -0.72871846 0)
(0.076390706 -0.75890063 0)
(-0.076390706 -0.75890063 0)
(-0.22603267 -0.72871846 0)
(-0.36641412 -0.6696982 0)
(-0.49187856 -0.58445264 0)
(-0.59750144 -0.47671005 0)
(-0.67932587 -0.35111033 0)
(-0.73452518 -0.21289275 0)
(-0.76145275 -0.067565287 0)
(-0.75957815 0.079424912 0)
(-0.72918681 0.22292742 0)
(-0.67134179 0.3577702 0)
(-0.58810111 0.47896963 0)
(-0.48250283 0.58197687 0)
(-0.3584865 0.66286898 0)
(-0.22074929 0.71857378 0)
(-0.07453895 0.74697272 0)
(0.058597852 0.61772276 0)
(0.1735556 0.59426991 0)
(0.28189352 0.54824858 0)
(0.37949801 0.48138625 0)
(0.4626791 0.39619383 0)
(0.52832123 0.29587633 0)
(0.57399543 0.18418207 0)
(0.59802368 0.065248825 0)
(0.59948924 -0.056568419 0)
(0.5781678 -0.17683458 0)
(0.53456044 -0.29099131 0)
(0.47002745 -0.39451935 0)
(0.38683215 -0.48317271 0)
(0.28809913 -0.55322016 0)
(0.17769467 -0.60167008 0)
(0.060049542 -0.62643205 0)
(-0.060049542 -0.62643205 0)
(-0.17769467 -0.60167008 0)
(-0.28809913 -0.55322016 0)
(-0.38683215 -0.48317271 0)
(-0.47002745 -0.39451935 0)
(-0.53456044 -0.29099131 0)
(-0.5781678 -0.17683458 0)
(-0.59948924 -0.056568419 0)
(-0.59802368 0.065248825 0)
(-0.57399543 0.18418207 0)
(-0.52832123 0.29587633 0)
(-0.4626791 0.39619383 0)
(-0.37949801 0.48138625 0)
(-0.28189352 0.54824858 0)
(-0.1735556 0.59426991 0)
(-0.058597852 0.61772276 0)
(0.047519302 0.51387714 0)
(0.14075229 0.49437713 0)
(0.22864013 0.45610287 0)
(0.30785181 0.40047774 0)
(0.37539062 0.32957427 0)
(0.42871081 0.2460411 0)
(0.46580896 0.15299418 0)
(0.48528227 0.053895693 0)
(0.48635509 -0.047578002 0)
(0.46886296 -0.14764716 0)
(0.43327764 -0.24248635 0)
(0.38077058 -0.3283567 0)
(0.31322355 -0.40178241 0)
(0.23318724 -0.45973088 0)
(0.14378659 -0.49977832 0)
(0.048583912 -0.52023547 0)
(-0.048583912 -0.52023547 0)
(-0.14378659 -0.49977832 0)
(-0.23318724 -0.45973088 0)
(-0.31322355 -0.40178241 0)
(-0.38077058 -0.3283567 0)
(-0.43327764 -0.24248635 0)
(-0.46886296 -0.14764716 0)
(-0.48635509 -0.047578002 0)
(-0.48528227 0.053895693 0)
(-0.46580896 0.15299418 0)
(-0.42871081 0.2460411 0)
(-0.37539062 0.32957427 0)
(-0.30785181 0.40047774 0)
(-0.22864013 0.45610287 0)
(-0.14075229 0.49437713 0)
(-0.047519302 0.51387714 0)
(0.039857852 0.43179058 0)
(0.11806279 0.41540017 0)
(0.19179314 0.38322571 0)
(0.25825467 0.33645873 0)
(0.31492732 0.27683602 0)
(0.35966094 0.20657953 0)
(0.39075342 0.12831249 0)
(0.40700628 0.044962068 0)
(0.4077567 -0.040347607 0)
(0.39288904 -0.12439941 0)
(0.36285318 -0.20396182 0)
(0.31868663 -0.27590846 0)
(0.2620074 -0.33735662 0)
(0.19496948 -0.38580622 0)
(0.12018246 -0.41926571 0)
(0.040601626 -0.43635031 0)
(-0.040601626 -0.43635031 0)
(-0.12018246 -0.41926571 0)
(-0.19496948 -0.38580622 0)
(-0.2620074 -0.33735662 0)
(-0.31868663 -0.27590846 0)
(-0.36285318 -0.20396182 0)
(-0.39288904 -0.12439941 0)
(-0.4077567 -0.040347607 0)
(-0.40700628 0.044962068 0)
(-0.39075342 0.12831249 0)
(-0.35966094 0.20657953 0)
(-0.31492732 0.27683602 0)
(-0.25825467 0.33645873 0)
(-0.19179314 0.38322571 0)
(-0.11806279 0.41540017 0)
(-0.039857852 0.43179058 0)
(0.034273593 0.34983086 0)
(0.10152312 0.33655394 0)
(0.16492802 0.31048865 0)
(0.22208415 0.27259605 0)
(0.27081942 0.22427835 0)
(0.3092753 0.16733155 0)
(0.33597508 0.10388126 0)
(0.3498761 0.036306513 0)
(0.35040511 -0.032845926 0)
(0.33748097 -0.10095247 0)
(0.31152757 -0.16538658 0)
(0.27347401 -0.22361976 0)
(0.22473641 -0.27332974 0)
(0.16717467 -0.31250772 0)
(0.10302328 -0.3395558 0)
(0.03480017 -0.3533641 0)
(-0.03480017 -0.3533641 0)
(-0.10302328 -0.3395558 0)
(-0.16717467 -0.31250772 0)
(-0.22473641 -0.27332974 0)
(-0.27347401 -0.22361976 0)
(-0.31152757 -0.16538658 0)
(-0.33748097 -0.10095247 0)
(-0.35040511 -0.032845926 0)
(-0.3498761 0.036306513 0)
(-0.33597508 0.10388126 0)
(-0.3092753 0.16733155 0)
(-0.27081942 0.22427835 0)
(-0.22208415 0.27259605 0)
(-0.16492802 0.31048865 0)
(-0.10152312 0.33655394 0)
(-0.034273593 0.34983086 0)
(0.030911724 0.30647357 0)
(0.091563991 0.29482193 0)
(0.14874589 0.27194947 0)
(0.20028619 0.23870384 0)
(0.24422171 0.19632116 0)
(0.27887018 0.14638447 0)
(0.30289314 0.09076861 0)
(0.31534705 0.031570996 0)
(0.31571481 -0.028968926 0)
(0.3039409 -0.088556033 0)
(0.28043978 -0.14489265 0)
(0.2460751 -0.1957715 0)
(0.2021407 -0.23917363 0)
(0.15031832 -0.27335993 0)
(0.092614573 -0.29695124 0)
(0.0312806 -0.3089915 0)
(-0.0312806 -0.3089915 0)
(-0.092614573 -0.29695124 0)
(-0.15031832 -0.27335993 0)
(-0.2021407 -0.23917363 0)
(-0.2460751 -0.1957715 0)
(-0.28043978 -0.14489265 0)
(-0.3039409 -0.088556033 0)
(-0.31571481 -0.028968926 0)
(-0.31534705 0.031570996 0)
(-0.30289314 0.090768609 0)
(-0.27887018 0.14638447 0)
(-0.24422171 0.19632116 0)
(-0.20028619 0.23870384 0)
(-0.14874589 0.27194947 0)
(-0.091563991 0.29482193 0)
(-0.030911724 0.30647357 0)
(0.0281611 0.21146183 0)
(0.083417635 0.2034391 0)
(0.13551614 0.18768709 0)
(0.18247978 0.16478374 0)
(0.22252001 0.13557416 0)
(0.25410241 0.10114312 0)
(0.27600242 0.062776569 0)
(0.28734985 0.021916192 0)
(0.28766192 -0.01988833 0)
(0.27689182 -0.061065072 0)
(0.25543308 -0.10001598 0)
(0.22408909 -0.1352076 0)
(0.18404792 -0.165238 0)
(0.13684464 -0.18889855 0)
(0.084304805 -0.2052297 0)
(0.028472531 -0.2135657 0)
(-0.028472531 -0.2135657 0)
(-0.084304805 -0.2052297 0)
(-0.13684464 -0.18889855 0)
(-0.18404792 -0.165238 0)
(-0.22408909 -0.1352076 0)
(-0.25543308 -0.10001598 0)
(-0.27689182 -0.061065072 0)
(-0.28766192 -0.01988833 0)
(-0.28734985 0.021916192 0)
(-0.27600242 0.062776569 0)
(-0.25410241 0.10114312 0)
(-0.22252001 0.13557416 0)
(-0.18247978 0.16478374 0)
(-0.13551614 0.18768709 0)
(-0.083417635 0.2034391 0)
(-0.0281611 0.21146183 0)
(0.030681466 0.2159931 0)
(0.090879413 0.20775233 0)
(0.14762522 0.19157883 0)
(0.19875882 0.16807853 0)
(0.24232747 0.13813545 0)
(0.27665942 0.10288305 0)
(0.30042862 0.063666799 0)
(0.31271108 0.021991608 0)
(0.31298651 -0.020549797 0)
(0.30121292 -0.06243795 0)
(0.27783045 -0.10205021 0)
(0.24370701 -0.13781955 0)
(0.20013686 -0.16832232 0)
(0.14879254 -0.19233984 0)
(0.091658996 -0.20890919 0)
(0.03095515 -0.21736415 0)
(-0.03095515 -0.21736415 0)
(-0.091658996 -0.20890919 0)
(-0.14879254 -0.19233984 0)
(-0.20013686 -0.16832232 0)
(-0.24370701 -0.13781955 0)
(-0.27783045 -0.10205021 0)
(-0.30121292 -0.06243795 0)
(-0.31298651 -0.020549797 0)
(-0.31271108 0.021991608 0)
(-0.30042862 0.063666799 0)
(-0.27665942 0.10288305 0)
(-0.24232747 0.13813545 0)
(-0.19875882 0.16807853 0)
(-0.14762522 0.19157883 0)
(-0.090879413 0.20775233 0)
(-0.030681466 0.2159931 0)
(0.031161831 0.064516498 0)
(0.092307425 0.06208984 0)
(0.14996158 0.057321731 0)
(0.20193812 0.050380569 0)
(0.24625936 0.041514002 0)
(0.28123137 0.031042607 0)
(0.30550536 0.019348158 0)
(0.31811928 0.0068554923 0)
(0.31843597 -0.0059273527 0)
(0.30641167 -0.01856423 0)
(0.28258493 -0.030530093 0)
(0.24785504 -0.041355342 0)
(0.20353309 -0.050604497 0)
(0.15131325 -0.057899002 0)
(0.093210369 -0.06293751 0)
(0.031478863 -0.065510492 0)
(-0.031478863 -0.065510492 0)
(-0.093210369 -0.06293751 0)
(-0.15131325 -0.057899002 0)
(-0.20353309 -0.050604497 0)
(-0.24785504 -0.041355342 0)
(-0.28258493 -0.030530093 0)
(-0.30641167 -0.01856423 0)
(-0.31843597 -0.0059273527 0)
(-0.31811928 0.0068554923 0)
(-0.30550536 0.019348158 0)
(-0.28123137 0.031042607 0)
(-0.24625936 0.041514002 0)
(-0.20193812 0.050380569 0)
(-0.14996158 0.057321731 0)
(-0.092307426 0.06208984 0)
(-0.031161831 0.064516498 0)
(0.0425889 0.11935199 0)
(0.12613973 0.11474477 0)
(0.20487035 0.10570904 0)
(0.27576759 0.092595159 0)
(0.33611128 0.075911439 0)
(0.38357426 0.056305893 0)
(0.41631196 0.034553879 0)
(0.4331312 0.011587615 0)
(0.43343914 -0.011324027 0)
(0.41719219 -0.034322172 0)
(0.38489307 -0.0561385 0)
(0.33766854 -0.075830491 0)
(0.2773257 -0.092608806 0)
(0.20619172 -0.1058106 0)
(0.12702284 -0.11491385 0)
(0.042899038 -0.11955769 0)
(-0.042899038 -0.11955769 0)
(-0.12702284 -0.11491385 0)
(-0.20619172 -0.1058106 0)
(-0.2773257 -0.092608806 0)
(-0.33766854 -0.075830491 0)
(-0.38489307 -0.0561385 0)
(-0.41719219 -0.034322172 0)
(-0.43343914 -0.011324027 0)
(-0.4331312 0.011587615 0)
(-0.41631196 0.034553879 0)
(-0.38357426 0.056305893 0)
(-0.33611128 0.075911439 0)
(-0.27576759 0.092595159 0)
(-0.20487035 0.10570904 0)
(-0.12613973 0.11474477 0)
(-0.0425889 0.11935199 0)
)
;

boundaryField
{
    leftWall
    {
        type            cyclic;
    }
    rightWall
    {
        type            cyclic;
    }
    lowerWall
    {
        type            slip;
    }
    atmosphere
    {
        type            slip;
    }
    defaultFaces
    {
        type            empty;
    }
}


// ************************************************************************* //
