/*--------------------------------*- C++ -*----------------------------------*\
| =========                 |                                                 |
| \\      /  F ield         | OpenFOAM: The Open Source CFD Toolbox           |
|  \\    /   O peration     | Version:  2106                                  |
|   \\  /    A nd           | Website:  www.openfoam.com                      |
|    \\/     M anipulation  |                                                 |
\*---------------------------------------------------------------------------*/
FoamFile
{
    version     2.0;
    format      ascii;
    arch        "LSB;label=32;scalar=64";
    class       volVectorField;
    location    "0.029";
    object      U;
}
// * * * * * * * * * * * * * * * * * * * * * * * * * * * * * * * * * * * * * //

dimensions      [0 1 -1 0 0 0 0];

internalField   nonuniform List<vector> 
4096
(
(-0.00013409491 0.0001350643 0)
(-0.00040097433 0.0001333491 0)
(-0.00066274326 0.00012994929 0)
(-0.00091609881 0.00012492793 0)
(-0.0011578955 0.00011837853 0)
(-0.0013852045 0.00011042279 0)
(-0.001595366 0.00010120542 0)
(-0.0017860276 9.0888585e-05 0)
(-0.0019551865 7.9656804e-05 0)
(-0.0021012087 6.7692844e-05 0)
(-0.0022228473 5.5199291e-05 0)
(-0.0023192466 4.2363316e-05 0)
(-0.0023899366 2.9383623e-05 0)
(-0.0024348298 1.6442016e-05 0)
(-0.0024541852 3.713287e-06 0)
(-0.0024486148 -8.6417067e-06 0)
(-0.002419036 -2.0501573e-05 0)
(-0.0023665778 -3.1736209e-05 0)
(-0.0022925754 -4.2256534e-05 0)
(-0.0021985359 -5.1997366e-05 0)
(-0.0020860691 -6.0915445e-05 0)
(-0.0019568631 -6.8974969e-05 0)
(-0.0018126426 -7.6169121e-05 0)
(-0.0016551304 -8.2502191e-05 0)
(-0.001486015 -8.7999732e-05 0)
(-0.0013069271 -9.2688538e-05 0)
(-0.0011194276 -9.6607456e-05 0)
(-0.00092500301 -9.9787884e-05 0)
(-0.00072505607 -0.00010227916 0)
(-0.0005209017 -0.00010411488 0)
(-0.00031379039 -0.00010532335 0)
(-0.00010492379 -0.00010592297 0)
(0.00010452555 -0.00010592392 0)
(0.00031339589 -0.00010532625 0)
(0.00052051488 -0.00010411963 0)
(0.00072468052 -0.00010228565 0)
(0.00092464211 -9.9796025e-05 0)
(0.0011190847 -9.6617292e-05 0)
(0.0013066056 -9.2699971e-05 0)
(0.0014857179 -8.8012651e-05 0)
(0.0016548608 -8.2516698e-05 0)
(0.0018124034 -7.6184967e-05 0)
(0.0019566571 -6.8992183e-05 0)
(0.0020858987 -6.0933666e-05 0)
(0.0021984026 -5.2016299e-05 0)
(0.0022924805 -4.2275809e-05 0)
(0.0023665219 -3.175587e-05 0)
(0.0024190199 -2.0521672e-05 0)
(0.0024486386 -8.6621503e-06 0)
(0.0024542491 3.6930997e-06 0)
(0.0024349333 1.6422524e-05 0)
(0.0023900784 2.9364908e-05 0)
(0.0023194252 4.2345419e-05 0)
(0.0022230608 5.5182423e-05 0)
(0.0021014548 6.7677192e-05 0)
(0.0019554627 7.9642479e-05 0)
(0.001786331 9.0875708e-05 0)
(0.0015956937 0.00010119405 0)
(0.0013855535 0.00011041294 0)
(0.0011582624 0.0001183705 0)
(0.00091647999 0.00012492174 0)
(0.00066313508 0.00012994488 0)
(0.00040137325 0.00013334643 0)
(0.00013449735 0.00013506336 0)
(-0.00012364901 0.00039777312 0)
(-0.00036972945 0.0003926889 0)
(-0.00061096332 0.0003826113 0)
(-0.00084422058 0.00036772874 0)
(-0.0010665257 0.00034832098 0)
(-0.0012751191 0.00032475349 0)
(-0.0014675095 0.00029745974 0)
(-0.0016415013 0.00026692017 0)
(-0.0017952528 0.00023369661 0)
(-0.0019272763 0.00019832086 0)
(-0.0020364672 0.00016141326 0)
(-0.0021221 0.0001235149 0)
(-0.0021838155 8.5229606e-05 0)
(-0.0022216339 4.7089428e-05 0)
(-0.0022358973 9.6081869e-06 0)
(-0.0022273099 -2.6697934e-05 0)
(-0.0021968311 -6.149723e-05 0)
(-0.0021456131 -9.4417871e-05 0)
(-0.0020750272 -0.00012520159 0)
(-0.0019865727 -0.00015364541 0)
(-0.0018818139 -0.00017964677 0)
(-0.0017623795 -0.00020309084 0)
(-0.0016299196 -0.00022396889 0)
(-0.0014860564 -0.00024230295 0)
(-0.0013323512 -0.00025818148 0)
(-0.0011702831 -0.00027169016 0)
(-0.0010012396 -0.00028295927 0)
(-0.00082652767 -0.00029206923 0)
(-0.00064735213 -0.00029919924 0)
(-0.00046479866 -0.0003044444 0)
(-0.00027988782 -0.00030789366 0)
(-9.3583809e-05 -0.0003096034 0)
(9.3181221e-05 -0.0003096062 0)
(0.00027948903 -0.00030790247 0)
(0.00046440777 -0.00030445875 0)
(0.00064697272 -0.00029921884 0)
(0.00082616297 -0.00029209362 0)
(0.001000893 -0.00028298884 0)
(0.0011699581 -0.00027172456 0)
(0.0013320506 -0.00025822015 0)
(0.0014857836 -0.00024234668 0)
(0.0016296775 -0.00022401643 0)
(0.0017621709 -0.00020314284 0)
(0.0018816415 -0.00017970171 0)
(0.0019864382 -0.00015370256 0)
(0.0020749314 -0.00012525933 0)
(0.0021455563 -9.4476716e-05 0)
(0.0021968141 -6.1557084e-05 0)
(0.0022273337 -2.6757872e-05 0)
(0.0022359624 9.5479311e-06 0)
(0.0022217392 4.7030972e-05 0)
(0.0021839592 8.5173425e-05 0)
(0.0021222807 0.00012346105 0)
(0.0020366833 0.00016136249 0)
(0.0019275254 0.00019827378 0)
(0.0017955322 0.00023365352 0)
(0.0016418082 0.00026688146 0)
(0.0014678408 0.00029742554 0)
(0.001275472 0.00032472374 0)
(0.001066897 0.00034829684 0)
(0.00084460603 0.0003677102 0)
(0.00061135932 0.00038259811 0)
(0.00037013253 0.00039268088 0)
(0.00012405573 0.00039777024 0)
(-0.00010026711 0.00062651912 0)
(-0.00029980077 0.00061836094 0)
(-0.00049511017 0.00060219096 0)
(-0.00068347081 0.00057831831 0)
(-0.00086230321 0.00054720358 0)
(-0.0010292386 0.00050945553 0)
(-0.0011821784 0.00046579126 0)
(-0.0013192739 0.00041697372 0)
(-0.0014390521 0.00036398752 0)
(-0.0015403439 0.00030761906 0)
(-0.001622355 0.00024897959 0)
(-0.001684641 0.00018885193 0)
(-0.0017270657 0.00012829337 0)
(-0.0017498837 6.8122743e-05 0)
(-0.0017535491 9.1506605e-06 0)
(-0.0017389605 -4.7676888e-05 0)
(-0.0017072023 -0.00010197585 0)
(-0.0016594289 -0.00015307476 0)
(-0.0015970294 -0.00020065877 0)
(-0.0015214791 -0.00024432828 0)
(-0.0014342207 -0.00028408646 0)
(-0.0013367186 -0.00031967847 0)
(-0.0012304584 -0.00035114418 0)
(-0.0011168299 -0.0003785745 0)
(-0.00099710553 -0.00040215754 0)
(-0.00087243393 -0.00042206302 0)
(-0.000743808 -0.00043858366 0)
(-0.0006121666 -0.00045174633 0)
(-0.00047830219 -0.00046204214 0)
(-0.00034279113 -0.00046956836 0)
(-0.00020617884 -0.000474501 0)
(-6.8931488e-05 -0.00047693732 0)
(6.8520998e-05 -0.00047694163 0)
(0.00020577215 -0.00047451612 0)
(0.0003423929 -0.00046959269 0)
(0.00047791599 -0.00046207535 0)
(0.00061179515 -0.00045178673 0)
(0.00074345458 -0.00043863317 0)
(0.00087210282 -0.00042212099 0)
(0.00099679866 -0.00040222124 0)
(0.0011165511 -0.00037864867 0)
(0.0012302107 -0.00035122292 0)
(0.001336505 -0.00031976683 0)
(0.0014340449 -0.0002841789 0)
(0.001521343 -0.00024442536 0)
(0.0015969328 -0.0002007545 0)
(0.0016593709 -0.00015317301 0)
(0.0017071852 -0.00010207694 0)
(0.0017389842 -4.7778783e-05 0)
(0.0017536149 9.0477032e-06 0)
(0.0017499918 6.8024626e-05 0)
(0.0017272127 0.00012819946 0)
(0.0016848256 0.0001887614 0)
(0.001622576 0.00024889429 0)
(0.0015405985 0.00030754012 0)
(0.0014393375 0.00036391526 0)
(0.0013195872 0.00041690898 0)
(0.0011825161 0.00046573416 0)
(0.0010295986 0.0005094049 0)
(0.00086268243 0.00054716321 0)
(0.00068386405 0.0005782876 0)
(0.00049551362 0.00060216923 0)
(0.00030021115 0.00061834755 0)
(0.0001006816 0.00062651378 0)
(-6.3565778e-05 0.00079545534 0)
(-0.00019004541 0.00078476493 0)
(-0.00031329492 0.00076357088 0)
(-0.00043123353 0.00073229299 0)
(-0.00054190461 0.00069155742 0)
(-0.00064355569 0.00064222515 0)
(-0.00073473641 0.0005852926 0)
(-0.00081409632 0.0005216595 0)
(-0.00088078898 0.00045298497 0)
(-0.0009341142 0.00037988842 0)
(-0.0009737712 0.000304382 0)
(-0.00099976775 0.0002270121 0)
(-0.0010122611 0.00014958448 0)
(-0.0010119399 7.299526e-05 0)
(-0.00099930808 -1.6824686e-06 0)
(-0.00097565147 -7.3053804e-05 0)
(-0.00094222448 -0.00014097138 0)
(-0.00090014135 -0.00020408291 0)
(-0.00085081382 -0.000262571 0)
(-0.00079570725 -0.00031534943 0)
(-0.00073606483 -0.00036324109 0)
(-0.00067297964 -0.00040544314 0)
(-0.00060777654 -0.00044218961 0)
(-0.0005414653 -0.00047377543 0)
(-0.00047484401 -0.00050051958 0)
(-0.0004085825 -0.00052269941 0)
(-0.00034294829 -0.00054102472 0)
(-0.00027841563 -0.00055495474 0)
(-0.00021518353 -0.00056599286 0)
(-0.00015290972 -0.00057389441 0)
(-9.1473779e-05 -0.00057904351 0)
(-3.0567343e-05 -0.0005815607 0)
(3.0145201e-05 -0.00058156502 0)
(9.1054852e-05 -0.00057906616 0)
(0.00015250063 -0.00057392917 0)
(0.00021478795 -0.00056604101 0)
(0.00027803455 -0.00055500995 0)
(0.00034258408 -0.00054109444 0)
(0.00040824329 -0.00052278312 0)
(0.00047452727 -0.00050060451 0)
(0.00054117746 -0.00047388492 0)
(0.00060752029 -0.00044229545 0)
(0.00067275744 -0.0004055729 0)
(0.0007358839 -0.00036337081 0)
(0.00079556977 -0.00031549221 0)
(0.00085071718 -0.00026270096 0)
(0.00090007951 -0.00020422029 0)
(0.0009422042 -0.00014111575 0)
(0.00097567385 -7.3197584e-05 0)
(0.00099937746 -1.8308697e-06 0)
(0.0010120548 7.2857633e-05 0)
(0.001012413 0.00014945339 0)
(0.00099995778 0.00022688329 0)
(0.00097399961 0.00030426114 0)
(0.00093437706 0.00037977707 0)
(0.00088108336 0.00045288288 0)
(0.00081441917 0.0005215686 0)
(0.00073508265 0.00058521353 0)
(0.00064392621 0.00064215019 0)
(0.00054229662 0.00069150117 0)
(0.0004316385 0.00073225084 0)
(0.00031370913 0.00076354184 0)
(0.00019046579 0.00078474625 0)
(6.3992142e-05 0.000795445 0)
(-1.4342277e-05 0.00087803786 0)
(-4.2863015e-05 0.00086561585 0)
(-6.9505387e-05 0.0008409616 0)
(-9.3052097e-05 0.0008045883 0)
(-0.00011236079 0.00075725448 0)
(-0.000126491 0.00070012228 0)
(-0.00013500376 0.00063448046 0)
(-0.00013696632 0.0005609584 0)
(-0.00013262809 0.00048267195 0)
(-0.00012175747 0.0003988859 0)
(-0.00010475905 0.0003137418 0)
(-8.2345943e-05 0.00022624566 0)
(-5.4800784e-05 0.00013983811 0)
(-2.3691866e-05 5.4952455e-05 0)
(1.0634887e-05 -2.7252278e-05 0)
(4.6155091e-05 -0.00010415091 0)
(8.173048e-05 -0.00017699761 0)
(0.00011604769 -0.00024427372 0)
(0.00014779845 -0.00030417098 0)
(0.00017538276 -0.00035843642 0)
(0.00019774851 -0.00040604663 0)
(0.00021484207 -0.00044654451 0)
(0.00022503799 -0.00048153865 0)
(0.000227943 -0.0005097501 0)
(0.00022349462 -0.00053348825 0)
(0.00021144369 -0.00055194947 0)
(0.00019299102 -0.00056660327 0)
(0.0001678523 -0.00057766374 0)
(0.00013644762 -0.00058563868 0)
(0.00010087719 -0.00059106186 0)
(6.182496e-05 -0.00059459835 0)
(2.0710726e-05 -0.00059629499 0)
(-2.1148083e-05 -0.00059630381 0)
(-6.2261981e-05 -0.00059462459 0)
(-0.0001013008 -0.00059110088 0)
(-0.00013685414 -0.00058569377 0)
(-0.00016824517 -0.0005777412 0)
(-0.00019337275 -0.00056669939 0)
(-0.00021178981 -0.00055205421 0)
(-0.00022382704 -0.00053361233 0)
(-0.00022824248 -0.00050988601 0)
(-0.00022530567 -0.00048168403 0)
(-0.00021507925 -0.00044669958 0)
(-0.00019793693 -0.00040621553 0)
(-0.00017551867 -0.00035860972 0)
(-0.00014788918 -0.00030435144 0)
(-0.00011611955 -0.00024445665 0)
(-8.175347e-05 -0.00017718201 0)
(-4.613482e-05 -0.00010433161 0)
(-1.0562238e-05 -2.7421537e-05 0)
(2.3818055e-05 5.477999e-05 0)
(5.4957386e-05 0.00013967263 0)
(8.2541607e-05 0.00022607524 0)
(0.0001049983 0.00031358364 0)
(0.00012203166 0.00039874144 0)
(0.00013293482 0.00048253892 0)
(0.00013730347 0.00056084143 0)
(0.00013535826 0.00063438303 0)
(0.00012687483 0.00070001401 0)
(0.00011277376 0.00075718399 0)
(9.3473502e-05 0.00080453647 0)
(6.9933277e-05 0.00084092857 0)
(4.3293055e-05 0.00086559233 0)
(1.4786751e-05 0.0008780145 0)
(4.550691e-05 0.00085088385 0)
(0.00013603458 0.00083765012 0)
(0.00022676456 0.00081149554 0)
(0.00031787081 0.00077302557 0)
(0.00040958175 0.00072308564 0)
(0.00050190628 0.0006629117 0)
(0.00059361807 0.0005941623 0)
(0.00068590517 0.00051776766 0)
(0.00077643625 0.00043640403 0)
(0.00086531959 0.00035077674 0)
(0.00095119098 0.00026388648 0)
(0.0010321597 0.00017611074 0)
(0.0011085472 9.0407722e-05 0)
(0.001176674 7.7739623e-06 0)
(0.0012377605 -7.0836482e-05 0)
(0.0012878811 -0.0001434537 0)
(0.0013246857 -0.00020985805 0)
(0.0013503625 -0.00026973619 0)
(0.0013606949 -0.00032101115 0)
(0.0013541027 -0.0003655612 0)
(0.001332413 -0.00040227463 0)
(0.0012929491 -0.0004310857 0)
(0.0012364228 -0.00045429457 0)
(0.001162489 -0.00047096162 0)
(0.0010713739 -0.00048302841 0)
(0.00096486505 -0.00049047594 0)
(0.00084339677 -0.00049490672 0)
(0.0007092624 -0.00049736254 0)
(0.00056382058 -0.00049776674 0)
(0.00040919086 -0.00049750029 0)
(0.00024795881 -0.00049703621 0)
(8.2954671e-05 -0.00049671049 0)
(-8.3411721e-05 -0.00049672233 0)
(-0.00024840778 -0.00049706526 0)
(-0.00040962862 -0.00049754986 0)
(-0.0005642544 -0.00049783781 0)
(-0.00070968429 -0.0004974524 0)
(-0.00084378802 -0.00049502933 0)
(-0.00096523192 -0.00049061179 0)
(-0.0010717214 -0.00048318541 0)
(-0.0011627978 -0.00047112442 0)
(-0.0012366978 -0.00045448095 0)
(-0.0012931943 -0.00043127132 0)
(-0.0013326116 -0.0004024788 0)
(-0.0013542511 -0.00036576737 0)
(-0.0013608005 -0.00032124457 0)
(-0.0013504276 -0.0002699671 0)
(-0.001324703 -0.00021008737 0)
(-0.0012878428 -0.00014368284 0)
(-0.001237682 -7.1055899e-05 0)
(-0.0011765544 7.5486583e-06 0)
(-0.0011083923 9.0196298e-05 0)
(-0.0010319613 0.00017590268 0)
(-0.00095093557 0.00026368917 0)
(-0.00086503054 0.00035059944 0)
(-0.00077611328 0.00043623782 0)
(-0.00068554559 0.00051762087 0)
(-0.00059326199 0.00059402787 0)
(-0.00050150766 0.00066279962 0)
(-0.00040913213 0.00072299082 0)
(-0.00031742719 0.00077295219 0)
(-0.00022632085 0.00081143063 0)
(-0.00013560334 0.00083761822 0)
(-4.5032481e-05 0.00085087485 0)
(0.00011293737 0.00069527538 0)
(0.00033779198 0.00068230037 0)
(0.0005610655 0.00065689338 0)
(0.00078163503 0.00061986963 0)
(0.00099850016 0.00057194732 0)
(0.0012107654 0.00051436875 0)
(0.001416071 0.00044911222 0)
(0.0016140595 0.00037775516 0)
(0.0018021597 0.00030138561 0)
(0.0019790645 0.00022384037 0)
(0.0021424296 0.00014496851 0)
(0.002290154 6.8476837e-05 0)
(0.0024215045 -5.0047841e-06 0)
(0.002532121 -7.3903742e-05 0)
(0.0026221267 -0.00013644055 0)
(0.0026885395 -0.00019223217 0)
(0.0027286161 -0.00023949469 0)
(0.0027432171 -0.00027823311 0)
(0.0027294127 -0.00030870492 0)
(0.0026854458 -0.00033015012 0)
(0.0026132389 -0.00034362911 0)
(0.0025105617 -0.00034963587 0)
(0.0023780835 -0.00034931146 0)
(0.0022173573 -0.00034425005 0)
(0.0020291348 -0.00033452812 0)
(0.0018153693 -0.00032281822 0)
(0.0015781739 -0.00030955733 0)
(0.0013210092 -0.00029616393 0)
(0.0010460975 -0.00028404035 0)
(0.00075719062 -0.00027401095 0)
(0.00045826463 -0.00026694472 0)
(0.0001532919 -0.00026322536 0)
(-0.00015377003 -0.00026323604 0)
(-0.00045873927 -0.00026698133 0)
(-0.00075765612 -0.00027407436 0)
(-0.0010465441 -0.000284131 0)
(-0.0013214534 -0.00029626213 0)
(-0.0015786014 -0.00030970619 0)
(-0.0018157495 -0.000322993 0)
(-0.0020294938 -0.00033470295 0)
(-0.0022176858 -0.00034444994 0)
(-0.0023783736 -0.0003495292 0)
(-0.0025108161 -0.00034987 0)
(-0.0026134473 -0.00034387032 0)
(-0.0026856102 -0.00033040746 0)
(-0.0027295274 -0.00030898049 0)
(-0.002743284 -0.00027850855 0)
(-0.0027286363 -0.0002397746 0)
(-0.0026885083 -0.00019251451 0)
(-0.0026220492 -0.0001367307 0)
(-0.0025319857 -7.4187615e-05 0)
(-0.0024213294 -5.2874603e-06 0)
(-0.0022899429 6.8216148e-05 0)
(-0.0021421583 0.00014473018 0)
(-0.0019787578 0.00022363022 0)
(-0.0018018211 0.00030118723 0)
(-0.0016136891 0.00037757958 0)
(-0.0014156803 0.0004489424 0)
(-0.0012103405 0.00051424739 0)
(-0.00099804702 0.00057183011 0)
(-0.00078118224 0.00061977404 0)
(-0.00056059464 0.00065679005 0)
(-0.00033730454 0.00068226098 0)
(-0.00011245049 0.00069528288 0)
(0.0001842299 0.00039914241 0)
(0.00055115842 0.00038777141 0)
(0.00091483394 0.0003654495 0)
(0.0012724786 0.0003337009 0)
(0.0016217166 0.00029279907 0)
(0.001960927 0.00024418812 0)
(0.0022865065 0.00018971066 0)
(0.0025962509 0.00013146373 0)
(0.0028878252 7.0550206e-05 0)
(0.0031580989 1.054602e-05 0)
(0.0034038615 -4.8337622e-05 0)
(0.0036225843 -0.00010246757 0)
(0.0038113432 -0.00015130272 0)
(0.003966809 -0.0001933421 0)
(0.0040885248 -0.00022655206 0)
(0.004172389 -0.00025079825 0)
(0.0042157801 -0.00026503205 0)
(0.0042192476 -0.00026909366 0)
(0.0041800119 -0.00026366283 0)
(0.004096614 -0.00024876297 0)
(0.0039707835 -0.0002254301 0)
(0.0038011312 -0.00019563446 0)
(0.0035888264 -0.00016023671 0)
(0.0033363151 -0.00012148608 0)
(0.0030446182 -8.073999e-05 0)
(0.0027171624 -3.9859736e-05 0)
(0.0023577419 -4.6397981e-07 0)
(0.0019698791 3.5503683e-05 0)
(0.001557792 6.6214419e-05 0)
(0.0011264546 9.0554073e-05 0)
(0.00068125569 0.00010732593 0)
(0.00022790273 0.00011588236 0)
(-0.00022840704 0.00011586858 0)
(-0.00068175735 0.00010727979 0)
(-0.0011269463 9.0474401e-05 0)
(-0.0015582606 6.6110415e-05 0)
(-0.0019703591 3.5370119e-05 0)
(-0.0023582096 -6.1744264e-07 0)
(-0.0027175549 -4.0047225e-05 0)
(-0.0030449905 -8.0964736e-05 0)
(-0.0033366663 -0.0001217305 0)
(-0.0035891352 -0.00016050299 0)
(-0.0038013993 -0.00019591377 0)
(-0.0039710047 -0.0002257149 0)
(-0.004096796 -0.0002490674 0)
(-0.0041801347 -0.00026398397 0)
(-0.004219316 -0.00026942267 0)
(-0.0042158032 -0.00026536564 0)
(-0.0041723597 -0.0002511351 0)
(-0.0040884466 -0.00022688756 0)
(-0.0039666805 -0.00019366818 0)
(-0.0038111636 -0.00015162522 0)
(-0.0036223401 -0.00010278075 0)
(-0.003403554 -4.8638247e-05 0)
(-0.0031577683 1.0288667e-05 0)
(-0.0028874659 7.0305287e-05 0)
(-0.002595861 0.00013126656 0)
(-0.0022860945 0.00018952128 0)
(-0.001960474 0.00024402687 0)
(-0.0016212394 0.00029266153 0)
(-0.0012720193 0.00033357821 0)
(-0.00091433222 0.00036535341 0)
(-0.00055061456 0.00038773332 0)
(-0.00018372177 0.00039913783 0)
(0.00025516542 -4.035961e-05 0)
(0.00076321547 -4.8579723e-05 0)
(0.0012666614 -6.4239156e-05 0)
(0.0017609909 -8.8112546e-05 0)
(0.002241998 -0.00011704003 0)
(0.0027073857 -0.00015048912 0)
(0.0031526703 -0.0001869982 0)
(0.0035742065 -0.00022314949 0)
(0.0039686126 -0.00025893071 0)
(0.0043316845 -0.00029129696 0)
(0.004659434 -0.00031891217 0)
(0.0049487059 -0.00033908843 0)
(0.0051955763 -0.00035049753 0)
(0.0053964464 -0.00035179529 0)
(0.0055496658 -0.00034163605 0)
(0.0056511759 -0.00032022374 0)
(0.0056984705 -0.00028675567 0)
(0.0056911803 -0.00024157614 0)
(0.0056269584 -0.00018581047 0)
(0.0055047033 -0.00012051422 0)
(0.0053256268 -4.7344741e-05 0)
(0.0050891096 3.1555665e-05 0)
(0.0047971538 0.0001148871 0)
(0.0044525809 0.00019919301 0)
(0.0040584261 0.00028283745 0)
(0.0036183864 0.00036339374 0)
(0.0031365875 0.00043778226 0)
(0.0026184465 0.00050362988 0)
(0.0020692385 0.00055892601 0)
(0.0014956135 0.00060158151 0)
(0.00090431093 0.00063164698 0)
(0.00030246277 0.00064686571 0)
(-0.00030300086 0.00064684704 0)
(-0.00090485147 0.00063159374 0)
(-0.0014961369 0.00060149077 0)
(-0.002069739 0.00055880253 0)
(-0.0026189401 0.00050347079 0)
(-0.0031370687 0.00043762141 0)
(-0.0036188376 0.00036319337 0)
(-0.0040588417 0.00028259804 0)
(-0.0044529505 0.00019892814 0)
(-0.0047974782 0.00011459526 0)
(-0.0050893819 3.1237687e-05 0)
(-0.0053258596 -4.7694229e-05 0)
(-0.0055049032 -0.00012086954 0)
(-0.0056270966 -0.00018618074 0)
(-0.0056912585 -0.00024196333 0)
(-0.0056984973 -0.0002871462 0)
(-0.0056511452 -0.00032061658 0)
(-0.005549576 -0.00034202224 0)
(-0.0053962965 -0.00035217197 0)
(-0.0051953866 -0.00035085777 0)
(-0.0049484712 -0.00033943255 0)
(-0.004659105 -0.00031925299 0)
(-0.0043313202 -0.00029163307 0)
(-0.0039682118 -0.00025923631 0)
(-0.0035737786 -0.00022343777 0)
(-0.0031522417 -0.00018723599 0)
(-0.0027069069 -0.00015068964 0)
(-0.0022415042 -0.00011720902 0)
(-0.0017604946 -8.8247654e-05 0)
(-0.0012661039 -6.4307731e-05 0)
(-0.00076263445 -4.8633424e-05 0)
(-0.00025463381 -4.0381159e-05 0)
(0.00032152092 -0.00061796383 0)
(0.0009621149 -0.00062194801 0)
(0.0015946164 -0.00062982571 0)
(0.0022154414 -0.00064074555 0)
(0.0028204773 -0.00065336881 0)
(0.0034035248 -0.00066588249 0)
(0.0039611901 -0.00067704223 0)
(0.0044873841 -0.00068434596 0)
(0.0049772342 -0.000686463 0)
(0.0054270643 -0.00068070252 0)
(0.0058317502 -0.00066597079 0)
(0.0061875235 -0.00063961009 0)
(0.0064892132 -0.00060095321 0)
(0.0067329313 -0.00054844774 0)
(0.006916416 -0.00048136359 0)
(0.0070350714 -0.00040041258 0)
(0.0070864736 -0.00030523528 0)
(0.0070698498 -0.00019671157 0)
(0.0069825595 -7.67237e-05 0)
(0.006823681 5.2728025e-05 0)
(0.0065951217 0.00018989078 0)
(0.0062972817 0.00033152451 0)
(0.005931592 0.00047519496 0)
(0.0055018575 0.00061729553 0)
(0.0050119216 0.00075490665 0)
(0.0044656366 0.00088375435 0)
(0.0038687786 0.0010014053 0)
(0.0032279111 0.0011043247 0)
(0.002549539 0.0011899789 0)
(0.0018427215 0.0012564543 0)
(0.001114717 0.001301924 0)
(0.00037283686 0.0013251034 0)
(-0.00037341309 0.0013250821 0)
(-0.0011152907 0.0013018688 0)
(-0.0018432834 0.001256363 0)
(-0.0025500758 0.0011898483 0)
(-0.0032284283 0.0011041458 0)
(-0.0038692873 0.0010011932 0)
(-0.0044661074 0.0008835174 0)
(-0.0050123581 0.00075464241 0)
(-0.0055022608 0.00061699513 0)
(-0.0059319533 0.00047484723 0)
(-0.0062976068 0.00033115195 0)
(-0.0065953794 0.00018948538 0)
(-0.0068238828 5.2297458e-05 0)
(-0.006982713 -7.716003e-05 0)
(-0.0070699371 -0.00019715685 0)
(-0.0070865009 -0.00030568441 0)
(-0.0070350361 -0.00040086251 0)
(-0.0069163198 -0.00048181015 0)
(-0.006732775 -0.00054888567 0)
(-0.0064889991 -0.0006013807 0)
(-0.0061872578 -0.00064000725 0)
(-0.0058314325 -0.00066633821 0)
(-0.0054266962 -0.00068107407 0)
(-0.0049768249 -0.0006867903 0)
(-0.0044869242 -0.00068466906 0)
(-0.0039606881 -0.0006773054 0)
(-0.0034030008 -0.00066609937 0)
(-0.0028199325 -0.00065354423 0)
(-0.0022148795 -0.00064087605 0)
(-0.0015940311 -0.00062990138 0)
(-0.00096152181 -0.0006220168 0)
(-0.00032093535 -0.00061799068 0)
(0.00037910691 -0.0013234254 0)
(0.0011335366 -0.0013221512 0)
(0.0018798227 -0.0013199532 0)
(0.0026117529 -0.0013144651 0)
(0.0033232855 -0.0013061771 0)
(0.0040094015 -0.0012922084 0)
(0.0046638888 -0.0012713904 0)
(0.0052810169 -0.00124253 0)
(0.005855697 -0.0012021708 0)
(0.0063818895 -0.0011491823 0)
(0.0068542868 -0.0010817443 0)
(0.0072683406 -0.00099806508 0)
(0.0076183739 -0.0008980336 0)
(0.0079005142 -0.00077986816 0)
(0.0081108078 -0.00064397247 0)
(0.0082450649 -0.0004910152 0)
(0.008301106 -0.00032143505 0)
(0.0082770439 -0.00013691486 0)
(0.0081703361 5.9759055e-05 0)
(0.0079811082 0.00026636779 0)
(0.007710574 0.00048017511 0)
(0.0073587921 0.00069639667 0)
(0.0069288496 0.00091172431 0)
(0.0064246025 0.001122089 0)
(0.005849987 0.0013224138 0)
(0.0052107844 0.0015088544 0)
(0.0045134732 0.0016773972 0)
(0.003764988 0.0018243032 0)
(0.0029738385 0.0019466258 0)
(0.0021489862 0.0020413336 0)
(0.0012993937 0.0021047808 0)
(0.00043469477 0.0021367684 0)
(-0.00043530927 0.0021367465 0)
(-0.0013000042 0.002104719 0)
(-0.0021495847 0.0020412296 0)
(-0.0029744263 0.0019464808 0)
(-0.0037655628 0.0018241035 0)
(-0.0045140123 0.0016771566 0)
(-0.0052112874 0.0015085797 0)
(-0.0058504656 0.0013220912 0)
(-0.006425055 0.0011217341 0)
(-0.0069292454 0.00091133677 0)
(-0.0073591211 0.00069597422 0)
(-0.0077108637 0.00047972513 0)
(-0.0079813378 0.00026589316 0)
(-0.0081704877 5.9283922e-05 0)
(-0.0082771334 -0.00013741554 0)
(-0.0083011358 -0.00032194721 0)
(-0.0082450299 -0.00049152975 0)
(-0.0081107041 -0.00064448313 0)
(-0.0079003432 -0.00078036597 0)
(-0.0076181413 -0.0008985151 0)
(-0.0072680436 -0.00099852354 0)
(-0.0068539299 -0.0010821688 0)
(-0.0063814828 -0.0011495738 0)
(-0.0058552455 -0.001202524 0)
(-0.0052805226 -0.0012428364 0)
(-0.0046633517 -0.0012716621 0)
(-0.0040088327 -0.00129244 0)
(-0.0033227031 -0.001306366 0)
(-0.0026111546 -0.0013146128 0)
(-0.0018792013 -0.0013200593 0)
(-0.0011329046 -0.00132222 0)
(-0.0003784775 -0.0013234479 0)
(0.00042583955 -0.0021347676 0)
(0.0012733225 -0.0021275947 0)
(0.002110792 -0.0021122946 0)
(0.0029319487 -0.0020886889 0)
(0.0037307688 -0.0020550304 0)
(0.0045004592 -0.0020102853 0)
(0.0052339 -0.0019524309 0)
(0.005925499 -0.0018795635 0)
(0.0065688066 -0.0017900536 0)
(0.0071572897 -0.0016822485 0)
(0.0076855695 -0.001554301 0)
(0.0081475582 -0.0014054972 0)
(0.0085377632 -0.0012345146 0)
(0.0088517543 -0.0010415382 0)
(0.0090850542 -0.00082696542 0)
(0.0092335034 -0.00059132112 0)
(0.009294341 -0.00033679615 0)
(0.0092652973 -6.5695315e-05 0)
(0.0091441873 0.00021894942 0)
(0.0089312398 0.00051357069 0)
(0.0086269754 0.00081377945 0)
(0.0082324518 0.0011148812 0)
(0.007751071 0.0014116649 0)
(0.0071861294 0.0016988359 0)
(0.0065429427 0.0019712664 0)
(0.0058276467 0.0022235732 0)
(0.0050473057 0.0024505815 0)
(0.0042106897 0.0026475745 0)
(0.0033261053 0.0028104803 0)
(0.0024029625 0.0029355297 0)
(0.0014523641 0.0030208726 0)
(0.00048569954 0.0030638442 0)
(-0.00048635916 0.0030638201 0)
(-0.0014530196 0.0030207996 0)
(-0.0024036073 0.0029354079 0)
(-0.0033267374 0.0028103076 0)
(-0.004211302 0.0026473581 0)
(-0.005047889 0.0024503259 0)
(-0.0058281989 0.0022232635 0)
(-0.0065434586 0.0019709107 0)
(-0.0071865968 0.0016984403 0)
(-0.0077514988 0.0014112466 0)
(-0.0082328381 0.0011144144 0)
(-0.008627284 0.00081327266 0)
(-0.0089314654 0.00051304302 0)
(-0.0091443653 0.00021839253 0)
(-0.00926542 -6.6268961e-05 0)
(-0.0092943803 -0.0003373794 0)
(-0.0092334647 -0.00059190599 0)
(-0.0090849393 -0.00082754543 0)
(-0.0088515667 -0.0010421114 0)
(-0.0085375075 -0.0012350638 0)
(-0.0081472332 -0.0014060102 0)
(-0.0076851826 -0.0015547803 0)
(-0.0071568482 -0.0016826894 0)
(-0.00656831 -0.0017904547 0)
(-0.0059249554 -0.0018799189 0)
(-0.0052333208 -0.0019527393 0)
(-0.0044998503 -0.0020105554 0)
(-0.003730138 -0.002055255 0)
(-0.0029313019 -0.0020888584 0)
(-0.0021101258 -0.0021124149 0)
(-0.0012726439 -0.0021276696 0)
(-0.00042516071 -0.0021347943 0)
(0.00046165055 -0.0030266607 0)
(0.0013809148 -0.0030126867 0)
(0.0022898467 -0.0029837356 0)
(0.0031808574 -0.0029393794 0)
(0.0040467496 -0.0028782559 0)
(0.0048809466 -0.0027994351 0)
(0.0056764913 -0.002700545 0)
(0.0064258974 -0.0025798844 0)
(0.0071227383 -0.0024362963 0)
(0.0077603966 -0.002267815 0)
(0.0083321261 -0.0020733877 0)
(0.0088326439 -0.0018523766 0)
(0.0092554398 -0.001603603 0)
(0.0095952385 -0.0013282527 0)
(0.0098482855 -0.001026662 0)
(0.010009323 -0.00070070859 0)
(0.010075264 -0.00035304183 0)
(0.010044365 1.3175268e-05 0)
(0.009913873 0.00039440595 0)
(0.0096836471 0.00078524811 0)
(0.009354868 0.0011804254 0)
(0.008927843 0.0015749085 0)
(0.0084060835 0.0019611525 0)
(0.0077944891 0.00233303 0)
(0.0070977898 0.0026844169 0)
(0.0063225154 0.0030084502 0)
(0.005476514 0.0032991018 0)
(0.0045684344 0.0035510536 0)
(0.0036082575 0.0037587415 0)
(0.002607611 0.0039180992 0)
(0.0015769409 0.0040266702 0)
(0.00052743454 0.0040814527 0)
(-0.00052814546 0.0040814276 0)
(-0.0015776484 0.0040265949 0)
(-0.0026083086 0.0039179676 0)
(-0.0036089392 0.0037585553 0)
(-0.0045690914 0.0035508163 0)
(-0.0054771456 0.0032988122 0)
(-0.0063231177 0.0030081031 0)
(-0.0070983533 0.0026840184 0)
(-0.007795003 0.0023325788 0)
(-0.0084065492 0.0019606488 0)
(-0.0089282592 0.0015743667 0)
(-0.009355217 0.0011798466 0)
(-0.0096839252 0.00078463076 0)
(-0.0099140688 0.00039375399 0)
(-0.010044479 1.2521072e-05 0)
(-0.010075303 -0.00035370398 0)
(-0.010009282 -0.000701373 0)
(-0.0098481679 -0.0010273252 0)
(-0.0095950344 -0.0013289122 0)
(-0.0092551448 -0.0016042303 0)
(-0.0088322748 -0.0018529594 0)
(-0.0083316948 -0.0020739268 0)
(-0.0077599095 -0.0022683063 0)
(-0.0071221991 -0.0024367385 0)
(-0.0064253083 -0.0025802796 0)
(-0.0056758669 -0.002700888 0)
(-0.004880292 -0.0027997346 0)
(-0.0040460649 -0.0028785023 0)
(-0.0031801531 -0.002939567 0)
(-0.0022891291 -0.0029838666 0)
(-0.0013801877 -0.0030127674 0)
(-0.00046091792 -0.0030266894 0)
(0.00049210939 -0.0039816441 0)
(0.0014720766 -0.0039599944 0)
(0.0024406059 -0.003916243 0)
(0.003389901 -0.0038501144 0)
(0.0043127522 -0.003759841 0)
(0.0052018775 -0.0036440701 0)
(0.0060496587 -0.0035010031 0)
(0.0068482833 -0.0033298231 0)
(0.0075908457 -0.0031280808 0)
(0.0082702853 -0.0028949748 0)
(0.0088797678 -0.0026293588 0)
(0.0094134867 -0.002330645 0)
(0.0098645402 -0.0019992043 0)
(0.010227624 -0.001635622 0)
(0.010498397 -0.0012410686 0)
(0.010671354 -0.00081898615 0)
(0.010743515 -0.00037173264 0)
(0.010712835 9.6499851e-05 0)
(0.010576009 0.00058031631 0)
(0.010332613 0.0010741213 0)
(0.0099845622 0.001571308 0)
(0.0095315753 0.0020649901 0)
(0.0089767758 0.0025473656 0)
(0.0083255753 0.0030108605 0)
(0.0075831147 0.0034470519 0)
(0.0067560489 0.0038485859 0)
(0.0058532735 0.0042077481 0)
(0.0048841773 0.0045186685 0)
(0.0038583524 0.0047750074 0)
(0.0027882432 0.004972079 0)
(0.0016858557 0.0051051136 0)
(0.0005637897 0.0051724645 0)
(-0.00056454879 0.0051724359 0)
(-0.0016866169 0.0051050258 0)
(-0.0027889981 0.0049719347 0)
(-0.0038590893 0.0047748067 0)
(-0.0048848921 0.0045184082 0)
(-0.0058539655 0.0042074256 0)
(-0.0067567089 0.0038482061 0)
(-0.0075837335 0.0034466127 0)
(-0.0083261465 0.003010363 0)
(-0.0089772927 0.0025468134 0)
(-0.0095320352 0.0020643894 0)
(-0.0099849446 0.0015706666 0)
(-0.01033291 0.0010734413 0)
(-0.010576222 0.00057961491 0)
(-0.010712966 9.5763632e-05 0)
(-0.010743563 -0.00037247896 0)
(-0.010671315 -0.00081973207 0)
(-0.010498275 -0.0012418046 0)
(-0.010227398 -0.0016363385 0)
(-0.0098642055 -0.0019999106 0)
(-0.0094130713 -0.0023313091 0)
(-0.0088792873 -0.0026299677 0)
(-0.0082697449 -0.0028955298 0)
(-0.007590251 -0.0031285784 0)
(-0.0068476384 -0.0033302644 0)
(-0.006048982 -0.0035013853 0)
(-0.0052011703 -0.0036443933 0)
(-0.0043120081 -0.0037601051 0)
(-0.0033891375 -0.0038503174 0)
(-0.0024398315 -0.0039163879 0)
(-0.0014712945 -0.0039600808 0)
(-0.00049131991 -0.003981673 0)
(0.00052801903 -0.0049944721 0)
(0.0015794155 -0.0049648447 0)
(0.0026183618 -0.0049060151 0)
(0.0036367468 -0.0048160159 0)
(0.0046267986 -0.0046946315 0)
(0.0055805308 -0.0045397924 0)
(0.0064892668 -0.0043502246 0)
(0.0073452798 -0.0041253109 0)
(0.0081415513 -0.0038621822 0)
(0.008869909 -0.0035605174 0)
(0.0095234596 -0.0032195782 0)
(0.010095769 -0.0028389744 0)
(0.010579787 -0.0024198565 0)
(0.010970297 -0.0019630883 0)
(0.011261722 -0.0014708971 0)
(0.011448769 -0.000946882 0)
(0.011528824 -0.00039418074 0)
(0.011498337 0.00018169083 0)