/*--------------------------------*- C++ -*----------------------------------*\
| =========                 |                                                 |
| \\      /  F ield         | OpenFOAM: The Open Source CFD Toolbox           |
|  \\    /   O peration     | Version:  2106                                  |
|   \\  /    A nd           | Website:  www.openfoam.com                      |
|    \\/     M anipulation  |                                                 |
\*---------------------------------------------------------------------------*/
FoamFile
{
    version     2.0;
    format      ascii;
    arch        "LSB;label=32;scalar=64";
    class       volVectorField;
    location    "0.021";
    object      U;
}
// * * * * * * * * * * * * * * * * * * * * * * * * * * * * * * * * * * * * * //

dimensions      [0 1 -1 0 0 0 0];

internalField   nonuniform List<vector> 
4096
(
(0.0063480205 -0.0063154957 0)
(0.018981 -0.0062527769 0)
(0.031425486 -0.0061280264 0)
(0.043558114 -0.0059426071 0)
(0.05525892 -0.0056985351 0)
(0.066412628 -0.0053984476 0)
(0.076909856 -0.0050455624 0)
(0.086648236 -0.0046436301 0)
(0.095533432 -0.0041968817 0)
(0.10348005 -0.0037099727 0)
(0.11041242 -0.0031879244 0)
(0.11626529 -0.0026360655 0)
(0.12098437 -0.0020599724 0)
(0.12452676 -0.0014654095 0)
(0.12686129 -0.00085827074 0)
(0.12796871 -0.00024452172 0)
(0.12784163 0.00036987722 0)
(0.12648529 0.00097888306 0)
(0.12391539 0.0015769231 0)
(0.12016055 0.00215814 0)
(0.11525981 0.0027171369 0)
(0.10926307 0.0032487513 0)
(0.10223029 0.0037481269 0)
(0.094230823 0.0042107622 0)
(0.085342677 0.0046325456 0)
(0.075651697 0.0050097824 0)
(0.065250704 0.0053392157 0)
(0.054238598 0.005618041 0)
(0.042719444 0.0058439154 0)
(0.030801533 0.0060149627 0)
(0.018596447 0.0061297756 0)
(0.0062181172 0.0061874164 0)
(-0.0062181172 0.0061874164 0)
(-0.018596447 0.0061297756 0)
(-0.030801533 0.0060149627 0)
(-0.042719444 0.0058439154 0)
(-0.054238598 0.005618041 0)
(-0.065250704 0.0053392157 0)
(-0.075651697 0.0050097824 0)
(-0.085342677 0.0046325456 0)
(-0.094230823 0.0042107622 0)
(-0.10223029 0.0037481269 0)
(-0.10926307 0.0032487513 0)
(-0.11525981 0.0027171369 0)
(-0.12016055 0.00215814 0)
(-0.12391539 0.0015769231 0)
(-0.12648529 0.00097888306 0)
(-0.12784163 0.00036987722 0)
(-0.12796871 -0.00024452172 0)
(-0.12686129 -0.00085827074 0)
(-0.12452676 -0.0014654095 0)
(-0.12098437 -0.0020599724 0)
(-0.11626529 -0.0026360655 0)
(-0.11041242 -0.0031879244 0)
(-0.10348005 -0.0037099727 0)
(-0.095533432 -0.0041968817 0)
(-0.086648236 -0.0046436301 0)
(-0.076909856 -0.0050455624 0)
(-0.066412628 -0.0053984476 0)
(-0.05525892 -0.0056985351 0)
(-0.043558114 -0.0059426071 0)
(-0.031425486 -0.0061280264 0)
(-0.018981 -0.0062527769 0)
(-0.0063480205 -0.0063154957 0)
(0.0064572597 -0.019029388 0)
(0.019307602 -0.018840382 0)
(0.031966122 -0.018464444 0)
(0.04430728 -0.017905683 0)
(0.056209013 -0.01717018 0)
(0.067554041 -0.016265889 0)
(0.078231096 -0.015202512 0)
(0.088136058 -0.013991357 0)
(0.097172993 -0.012645177 0)
(0.10525507 -0.011178003 0)
(0.11230536 -0.0096049667 0)
(0.11825752 -0.0079421257 0)
(0.12305637 -0.0062062811 0)
(0.1266583 -0.0044148017 0)
(0.12903163 -0.0025854472 0)
(0.13015681 -0.00073619645 0)
(0.13002644 0.0011149241 0)
(0.12864541 0.0029501215 0)
(0.12603045 0.0047518793 0)
(0.12221022 0.0065030433 0)
(0.1172246 0.0081872546 0)
(0.11112438 0.0097889387 0)
(0.10397061 0.011293463 0)
(0.095833863 0.012687269 0)
(0.086793545 0.01395797 0)
(0.076936996 0.015094442 0)
(0.066358643 0.016086879 0)
(0.055159076 0.01692684 0)
(0.043444114 0.017607275 0)
(0.031323855 0.018122538 0)
(0.018911726 0.018468397 0)
(0.0063235247 0.018642032 0)
(-0.0063235247 0.018642032 0)
(-0.018911726 0.018468397 0)
(-0.031323855 0.018122538 0)
(-0.043444114 0.017607275 0)
(-0.055159076 0.01692684 0)
(-0.066358643 0.016086879 0)
(-0.076936996 0.015094442 0)
(-0.086793545 0.01395797 0)
(-0.095833863 0.012687269 0)
(-0.10397061 0.011293463 0)
(-0.11112438 0.0097889387 0)
(-0.1172246 0.0081872546 0)
(-0.12221022 0.0065030433 0)
(-0.12603045 0.0047518793 0)
(-0.12864541 0.0029501215 0)
(-0.13002644 0.0011149241 0)
(-0.13015681 -0.00073619645 0)
(-0.12903163 -0.0025854472 0)
(-0.1266583 -0.0044148017 0)
(-0.12305637 -0.0062062811 0)
(-0.11825752 -0.0079421257 0)
(-0.11230536 -0.0096049667 0)
(-0.10525507 -0.011178003 0)
(-0.097172993 -0.012645177 0)
(-0.088136058 -0.013991357 0)
(-0.078231096 -0.015202512 0)
(-0.067554041 -0.016265889 0)
(-0.056209013 -0.01717018 0)
(-0.04430728 -0.017905683 0)
(-0.031966122 -0.018464444 0)
(-0.019307602 -0.018840382 0)
(-0.0064572597 -0.019029388 0)
(0.0066459884 -0.032060584 0)
(0.019871882 -0.03174207 0)
(0.032900257 -0.031108542 0)
(0.045601859 -0.030166941 0)
(0.057851026 -0.028927531 0)
(0.06952704 -0.027403735 0)
(0.080515388 -0.025611921 0)
(0.090708936 -0.02357116 0)
(0.10000899 -0.021302952 0)
(0.10832621 -0.018830946 0)
(0.11558148 -0.016180637 0)
(0.12170656 -0.013379074 0)
(0.12664466 -0.010454557 0)
(0.13035093 -0.0074363402 0)
(0.13279275 -0.0043543363 0)
(0.13394999 -0.0012388222 0)
(0.13381504 0.0018798624 0)
(0.13239286 0.0049716545 0)
(0.12970078 0.0080070088 0)
(0.12576823 0.010957134 0)
(0.12063632 0.013794409 0)
(0.11435738 0.016492575 0)
(0.10699429 0.01902698 0)
(0.098619777 0.021374781 0)
(0.089315607 0.023515128 0)
(0.079171735 0.025429296 0)
(0.068285378 0.027100792 0)
(0.056760073 0.028515423 0)
(0.044704709 0.029661344 0)
(0.032232551 0.030529072 0)
(0.01946026 0.031111503 0)
(0.0065069234 0.0314039 0)
(-0.0065069234 0.0314039 0)
(-0.01946026 0.031111503 0)
(-0.032232551 0.030529072 0)
(-0.044704709 0.029661344 0)
(-0.056760073 0.028515423 0)
(-0.068285378 0.027100792 0)
(-0.079171735 0.025429296 0)
(-0.089315607 0.023515128 0)
(-0.098619777 0.021374781 0)
(-0.10699429 0.01902698 0)
(-0.11435738 0.016492575 0)
(-0.12063632 0.013794409 0)
(-0.12576823 0.010957134 0)
(-0.12970078 0.0080070088 0)
(-0.13239286 0.0049716545 0)
(-0.13381504 0.0018798624 0)
(-0.13394999 -0.0012388222 0)
(-0.13279275 -0.0043543363 0)
(-0.13035093 -0.0074363402 0)
(-0.12664466 -0.010454557 0)
(-0.12170656 -0.013379074 0)
(-0.11558148 -0.016180637 0)
(-0.10832621 -0.018830946 0)
(-0.10000899 -0.021302952 0)
(-0.090708936 -0.02357116 0)
(-0.080515388 -0.025611921 0)
(-0.06952704 -0.027403735 0)
(-0.057851026 -0.028927531 0)
(-0.045601859 -0.030166941 0)
(-0.032900257 -0.031108542 0)
(-0.019871882 -0.03174207 0)
(-0.0066459884 -0.032060584 0)
(0.0069163275 -0.045548798 0)
(0.020680179 -0.045096171 0)
(0.034238385 -0.044195905 0)
(0.047456388 -0.042857883 0)
(0.060203392 -0.041096722 0)
(0.072353766 -0.038931527 0)
(0.083788366 -0.036385587 0)
(0.094395745 -0.033486024 0)
(0.10407325 -0.030263402 0)
(0.11272797 -0.026751324 0)
(0.12027763 -0.022986005 0)
(0.12665123 -0.019005857 0)
(0.1317897 -0.014851064 0)
(0.13564634 -0.010563163 0)
(0.13818717 -0.006184634 0)
(0.13939119 -0.0017584741 0)
(0.13925044 0.0026722202 0)
(0.13777002 0.0070646937 0)
(0.13496794 0.011376931 0)
(0.13087483 0.015568054 0)
(0.12553352 0.019598777 0)
(0.11899852 0.023431764 0)
(0.11133534 0.027031976 0)
(0.10261978 0.03036696 0)
(0.092937029 0.033407109 0)
(0.082380783 0.036125849 0)
(0.071052277 0.03849979 0)
(0.059059289 0.040508818 0)
(0.046515127 0.042136154 0)
(0.033537615 0.04336838 0)
(0.020248076 0.044195442 0)
(0.0067703261 0.044610645 0)
(-0.0067703261 0.044610645 0)
(-0.020248076 0.044195442 0)
(-0.033537615 0.04336838 0)
(-0.046515127 0.042136154 0)
(-0.059059289 0.040508818 0)
(-0.071052277 0.03849979 0)
(-0.082380783 0.036125849 0)
(-0.092937029 0.033407109 0)
(-0.10261978 0.03036696 0)
(-0.11133534 0.027031976 0)
(-0.11899852 0.023431764 0)
(-0.12553352 0.019598777 0)
(-0.13087483 0.015568054 0)
(-0.13496794 0.011376931 0)
(-0.13777002 0.0070646937 0)
(-0.13925044 0.0026722202 0)
(-0.13939119 -0.0017584741 0)
(-0.13818717 -0.006184634 0)
(-0.13564634 -0.010563163 0)
(-0.1317897 -0.014851064 0)
(-0.12665123 -0.019005857 0)
(-0.12027763 -0.022986005 0)
(-0.11272797 -0.026751324 0)
(-0.10407325 -0.030263402 0)
(-0.094395745 -0.033486024 0)
(-0.083788366 -0.036385587 0)
(-0.072353766 -0.038931527 0)
(-0.060203392 -0.041096722 0)
(-0.047456388 -0.042857883 0)
(-0.034238385 -0.044195905 0)
(-0.020680179 -0.045096171 0)
(-0.0069163275 -0.045548798 0)
(0.0072710538 -0.05965789 0)
(0.021740796 -0.059064916 0)
(0.035994254 -0.057885517 0)
(0.049889928 -0.05613268 0)
(0.063290297 -0.053825597 0)
(0.076063306 -0.050989346 0)
(0.088083743 -0.047654478 0)
(0.099234515 -0.043856553 0)
(0.10940778 -0.039635624 0)
(0.11850595 -0.035035698 0)
(0.12644256 -0.030104188 0)
(0.13314302 -0.024891365 0)
(0.13854522 -0.019449813 0)
(0.14260001 -0.013833891 0)
(0.14527158 -0.0080991967 0)
(0.14653775 -0.0023020275 0)
(0.14639004 0.0035011691 0)
(0.14483373 0.0092543538 0)
(0.14188769 0.014902444 0)
(0.13758409 0.02039186 0)
(0.131968 0.025671086 0)
(0.1250968 0.030691169 0)
(0.11703951 0.035406178 0)
(0.10787592 0.0397736 0)
(0.097695759 0.043754669 0)
(0.086597661 0.047314624 0)
(0.074688153 0.050422891 0)
(0.062080597 0.053053204 0)
(0.048894119 0.055183669 0)
(0.035252538 0.05679679 0)
(0.021283304 0.057879468 0)
(0.0071164497 0.058422984 0)
(-0.0071164497 0.058422984 0)
(-0.021283304 0.057879468 0)
(-0.035252538 0.05679679 0)
(-0.048894119 0.055183669 0)
(-0.062080597 0.053053204 0)
(-0.074688153 0.050422891 0)
(-0.086597661 0.047314624 0)
(-0.097695759 0.043754669 0)
(-0.10787592 0.0397736 0)
(-0.11703951 0.035406178 0)
(-0.1250968 0.030691169 0)
(-0.131968 0.025671086 0)
(-0.13758409 0.02039186 0)
(-0.14188769 0.014902444 0)
(-0.14483373 0.0092543538 0)
(-0.14639004 0.0035011691 0)
(-0.14653775 -0.0023020275 0)
(-0.14527158 -0.0080991967 0)
(-0.14260001 -0.013833891 0)
(-0.13854522 -0.019449813 0)
(-0.13314302 -0.024891365 0)
(-0.12644256 -0.030104188 0)
(-0.11850595 -0.035035698 0)
(-0.10940778 -0.039635624 0)
(-0.099234515 -0.043856553 0)
(-0.088083743 -0.047654478 0)
(-0.076063306 -0.050989346 0)
(-0.063290297 -0.053825597 0)
(-0.049889928 -0.05613268 0)
(-0.035994254 -0.057885517 0)
(-0.021740796 -0.059064916 0)
(-0.0072710538 -0.05965789 0)
(0.0077137884 -0.07456024 0)
(0.023064563 -0.073818964 0)
(0.038185798 -0.07234463 0)
(0.052927349 -0.070153522 0)
(0.067143321 -0.067269699 0)
(0.080693656 -0.063724578 0)
(0.09344559 -0.05955641 0)
(0.105275 -0.054809685 0)
(0.11606757 -0.049534477 0)
(0.12571988 -0.04378577 0)
(0.13414025 -0.037622772 0)
(0.14124957 -0.031108239 0)
(0.14698188 -0.024307804 0)
(0.15128496 -0.017289324 0)
(0.15412066 -0.010122224 0)
(0.15546526 -0.0028768322 0)
(0.1553096 0.0043762907 0)
(0.15365911 0.01156705 0)
(0.1505337 0.018626517 0)
(0.14596747 0.025487632 0)
(0.14000827 0.032085901 0)
(0.1327171 0.03836005 0)
(0.12416733 0.044252606 0)
(0.11444384 0.04971041 0)
(0.10364204 0.054685032 0)
(0.091866754 0.059133086 0)
(0.079231158 0.063016456 0)
(0.06585561 0.06630243 0)
(0.051866515 0.068963772 0)
(0.037395183 0.07097874 0)
(0.022576714 0.072331066 0)
(0.0075488918 0.07300993 0)
(-0.0075488918 0.07300993 0)
(-0.022576714 0.072331066 0)
(-0.037395183 0.07097874 0)
(-0.051866515 0.068963772 0)
(-0.06585561 0.06630243 0)
(-0.079231158 0.063016456 0)
(-0.091866754 0.059133086 0)
(-0.10364204 0.054685032 0)
(-0.11444384 0.04971041 0)
(-0.12416733 0.044252606 0)
(-0.1327171 0.03836005 0)
(-0.14000827 0.032085901 0)
(-0.14596747 0.025487632 0)
(-0.1505337 0.018626517 0)
(-0.15365911 0.01156705 0)
(-0.1553096 0.0043762907 0)
(-0.15546526 -0.0028768322 0)
(-0.15412066 -0.010122224 0)
(-0.15128496 -0.017289324 0)
(-0.14698188 -0.024307804 0)
(-0.14124957 -0.031108239 0)
(-0.13414025 -0.037622772 0)
(-0.12571988 -0.04378577 0)
(-0.11606757 -0.049534477 0)
(-0.105275 -0.054809685 0)
(-0.09344559 -0.05955641 0)
(-0.080693656 -0.063724578 0)
(-0.067143321 -0.067269699 0)
(-0.052927349 -0.070153522 0)
(-0.038185798 -0.07234463 0)
(-0.023064563 -0.073818964 0)
(-0.0077137884 -0.07456024 0)
(0.0082493891 -0.090435731 0)
(0.024666007 -0.089536416 0)
(0.040837082 -0.087747796 0)
(0.05660203 -0.085089698 0)
(0.071804851 -0.081591405 0)
(0.086295831 -0.077291124 0)
(0.099933098 -0.072235341 0)
(0.11258404 -0.066478072 0)
(0.12412654 -0.060080064 0)
(0.13445011 -0.053107965 0)
(0.14345677 -0.0456335 0)
(0.15106188 -0.037732661 0)
(0.15719484 -0.029484913 0)
(0.16179959 -0.020972431 0)
(0.16483511 -0.012279323 0)
(0.16627572 -0.0034908512 0)
(0.16611135 0.0053073761 0)
(0.16434757 0.014030246 0)
(0.1610055 0.022594005 0)
(0.15612154 0.030917142 0)
(0.14974694 0.03892125 0)
(0.14194708 0.046531847 0)
(0.13280067 0.053679112 0)
(0.12239881 0.060298519 0)
(0.11084381 0.066331345 0)
(0.098248089 0.071725053 0)
(0.084732893 0.076433549 0)
(0.070427088 0.080417334 0)
(0.055465901 0.083643561 0)
(0.039989715 0.086086041 0)
(0.024142871 0.087725198 0)
(0.0080725196 0.088548023 0)
(-0.0080725196 0.088548023 0)
(-0.024142871 0.087725198 0)
(-0.039989715 0.086086041 0)
(-0.055465901 0.083643561 0)
(-0.070427088 0.080417334 0)
(-0.084732893 0.076433549 0)
(-0.098248089 0.071725053 0)
(-0.11084381 0.066331345 0)
(-0.12239881 0.060298519 0)
(-0.13280067 0.053679112 0)
(-0.14194708 0.046531847 0)
(-0.14974694 0.03892125 0)
(-0.15612154 0.030917142 0)
(-0.1610055 0.022594005 0)
(-0.16434757 0.014030246 0)
(-0.16611135 0.0053073761 0)
(-0.16627572 -0.0034908512 0)
(-0.16483511 -0.012279323 0)
(-0.16179959 -0.020972431 0)
(-0.15719484 -0.029484913 0)
(-0.15106188 -0.037732661 0)
(-0.14345677 -0.0456335 0)
(-0.13445011 -0.053107965 0)
(-0.12412654 -0.060080064 0)
(-0.11258404 -0.066478072 0)
(-0.099933098 -0.072235341 0)
(-0.086295831 -0.077291124 0)
(-0.071804851 -0.081591405 0)
(-0.05660203 -0.085089698 0)
(-0.040837083 -0.087747796 0)
(-0.024666007 -0.089536416 0)
(-0.0082493891 -0.090435731 0)
(0.0088845543 -0.10747518 0)
(0.026565162 -0.1064062 0)
(0.043981288 -0.1042802 0)
(0.060959998 -0.10112083 0)
(0.077333343 -0.096963043 0)
(0.092940194 -0.09185237 0)
(0.10762791 -0.085844167 0)
(0.12125385 -0.079002691 0)
(0.13368668 -0.071400124 0)
(0.14480751 -0.06311559 0)
(0.15451089 -0.054234173 0)
(0.16270562 -0.044845977 0)
(0.16931547 -0.035045216 0)
(0.17427978 -0.024929341 0)
(0.17755398 -0.014598162 0)
(0.17911 -0.0041529475 0)
(0.17893654 0.0063045128 0)
(0.17703924 0.016672914 0)
(0.17344062 0.026852484 0)
(0.16817979 0.036746065 0)
(0.161312 0.046260186 0)
(0.15290793 0.055306077 0)
(0.14305271 0.063800581 0)
(0.13184486 0.071666933 0)
(0.11939502 0.078835373 0)
(0.10582467 0.08524359 0)
(0.091264729 0.090837011 0)
(0.075854179 0.095568951 0)
(0.059738746 0.099400657 0)
(0.043069567 0.10230127 0)
(0.026001934 0.10424775 0)
(0.0086940683 0.1052248 0)
(-0.0086940683 0.1052248 0)
(-0.026001934 0.10424775 0)
(-0.043069567 0.10230127 0)
(-0.059738746 0.099400657 0)
(-0.075854179 0.095568951 0)
(-0.091264729 0.090837011 0)
(-0.10582467 0.08524359 0)
(-0.11939502 0.078835373 0)
(-0.13184486 0.071666933 0)
(-0.14305271 0.063800581 0)
(-0.15290793 0.055306077 0)
(-0.161312 0.046260186 0)
(-0.16817979 0.036746065 0)
(-0.17344062 0.026852484 0)
(-0.17703924 0.016672914 0)
(-0.17893654 0.0063045128 0)
(-0.17911 -0.0041529475 0)
(-0.17755398 -0.014598162 0)
(-0.17427978 -0.024929341 0)
(-0.16931547 -0.035045216 0)
(-0.16270562 -0.044845977 0)
(-0.15451089 -0.054234173 0)
(-0.14480751 -0.06311559 0)
(-0.13368668 -0.071400124 0)
(-0.12125385 -0.079002691 0)
(-0.10762791 -0.085844167 0)
(-0.092940194 -0.09185237 0)
(-0.077333343 -0.096963043 0)
(-0.060959998 -0.10112083 0)
(-0.043981288 -0.1042802 0)
(-0.026565162 -0.1064062 0)
(-0.0088845544 -0.10747518 0)
(0.0096285994 -0.12588499 0)
(0.028789887 -0.12463269 0)
(0.047664563 -0.12214216 0)
(0.066065263 -0.11844128 0)
(0.083810089 -0.11357113 0)
(0.10072459 -0.10758522 0)
(0.11664355 -0.10054852 0)
(0.13141264 -0.092536367 0)
(0.14488975 -0.083633265 0)
(0.15694619 -0.073931741 0)
(0.16746772 -0.063531203 0)
(0.1763554 -0.052536867 0)
(0.18352633 -0.041058744 0)
(0.18891433 -0.029210664 0)
(0.19247052 -0.01710932 0)
(0.19416383 -0.0048732541 0)
(0.1939814 0.0073782194 0)
(0.19192882 0.019526189 0)
(0.18803014 0.031453411 0)
(0.18232763 0.043045633 0)
(0.1748813 0.054192917 0)
(0.16576806 0.064790893 0)
(0.15508069 0.074741886 0)
(0.14292657 0.083955857 0)
(0.12942624 0.092351133 0)
(0.11471191 0.099854916 0)
(0.098925895 0.10640358 0)
(0.082219138 0.11194283 0)
(0.064749675 0.11642767 0)
(0.046681249 0.11982234 0)
(0.028181945 0.12210018 0)
(0.0094229078 0.1232435 0)
(-0.0094229078 0.1232435 0)
(-0.028181945 0.12210018 0)
(-0.046681249 0.11982234 0)
(-0.064749675 0.11642767 0)
(-0.082219138 0.11194283 0)
(-0.098925895 0.10640358 0)
(-0.11471191 0.099854916 0)
(-0.12942624 0.092351133 0)
(-0.14292657 0.083955857 0)
(-0.15508069 0.074741886 0)
(-0.16576806 0.064790893 0)
(-0.1748813 0.054192917 0)
(-0.18232763 0.043045633 0)
(-0.18803014 0.031453411 0)
(-0.19192882 0.019526189 0)
(-0.1939814 0.0073782194 0)
(-0.19416383 -0.0048732541 0)
(-0.19247052 -0.01710932 0)
(-0.18891433 -0.029210664 0)
(-0.18352633 -0.041058744 0)
(-0.1763554 -0.052536867 0)
(-0.16746772 -0.063531203 0)
(-0.15694619 -0.073931741 0)
(-0.14488975 -0.083633265 0)
(-0.13141264 -0.092536367 0)
(-0.11664355 -0.10054852 0)
(-0.10072459 -0.10758522 0)
(-0.083810089 -0.11357113 0)
(-0.066065263 -0.11844128 0)
(-0.047664563 -0.12214216 0)
(-0.028789887 -0.12463269 0)
(-0.0096285994 -0.12588499 0)
(0.010494341 -0.14589318 0)
(0.031378512 -0.14444167 0)
(0.051950391 -0.14155508 0)
(0.07200588 -0.13726586 0)
(0.091346904 -0.13162185 0)
(0.10978357 -0.12468531 0)
(0.12713613 -0.1165317 0)
(0.14323669 -0.10724836 0)
(0.15793064 -0.096933157 0)
(0.17107794 -0.08569307 0)
(0.18255411 -0.073642921 0)
(0.19225111 -0.06090416 0)
(0.20007818 -0.047603766 0)
(0.20596252 -0.033873205 0)
(0.20985004 -0.019847402 0)
(0.21170594 -0.005663645 0)
(0.21151533 0.0085396299 0)
(0.20928354 0.022624212 0)
(0.20503632 0.036453631 0)
(0.19881957 0.049894783 0)
(0.19069887 0.062819561 0)
(0.18075854 0.075106417 0)
(0.16910043 0.086641742 0)
(0.1558424 0.097321008 0)
(0.14111669 0.10704962 0)
(0.12506819 0.11574348 0)
(0.10785263 0.12332929 0)
(0.089634913 0.12974466 0)
(0.070587451 0.13493802 0)
(0.050888643 0.13886846 0)
(0.030721426 0.14150554 0)
(0.010271911 0.14282911 0)
(-0.010271911 0.14282911 0)
(-0.030721426 0.14150554 0)
(-0.050888643 0.13886846 0)
(-0.070587451 0.13493802 0)
(-0.089634913 0.12974466 0)
(-0.10785263 0.12332929 0)
(-0.12506819 0.11574348 0)
(-0.14111669 0.10704962 0)
(-0.1558424 0.097321008 0)
(-0.16910043 0.086641742 0)
(-0.18075854 0.075106417 0)
(-0.19069887 0.062819561 0)
(-0.19881957 0.049894783 0)
(-0.20503632 0.036453631 0)
(-0.20928354 0.022624212 0)
(-0.21151533 0.00853963 0)
(-0.21170594 -0.005663645 0)
(-0.20985004 -0.019847402 0)
(-0.20596252 -0.033873205 0)
(-0.20007818 -0.047603766 0)
(-0.19225111 -0.06090416 0)
(-0.18255411 -0.073642921 0)
(-0.17107794 -0.08569307 0)
(-0.15793064 -0.096933157 0)
(-0.14323669 -0.10724836 0)
(-0.12713613 -0.1165317 0)
(-0.10978357 -0.12468531 0)
(-0.091346904 -0.13162185 0)
(-0.07200588 -0.13726586 0)
(-0.051950391 -0.14155508 0)
(-0.031378512 -0.14444167 0)
(-0.010494341 -0.14589318 0)
(0.011498989 -0.16775733 0)
(0.034382506 -0.16608822 0)
(0.056924017 -0.16276901 0)
(0.078900072 -0.15783726 0)
(0.10009389 -0.15134826 0)
(0.12029777 -0.14337388 0)
(0.13931514 -0.13400106 0)
(0.15696249 -0.1233303 0)
(0.17307078 -0.11147394 0)
(0.1874868 -0.098554642 0)
(0.20007418 -0.084703832 0)
(0.21071427 -0.070060439 0)
(0.21930701 -0.054769708 0)
(0.22577171 -0.038982139 0)
(0.23004791 -0.022852429 0)
(0.23209621 -0.0065383195 0)
(0.23189903 0.0098007541 0)
(0.2294612 0.02600525 0)
(0.22481024 0.041917349 0)
(0.21799626 0.057382956 0)
(0.20909138 0.072253735 0)
(0.19818869 0.086389052 0)
(0.18540076 0.099657684 0)
(0.17085794 0.11193919 0)
(0.15470628 0.12312489 0)
(0.1371056 0.13311849 0)
(0.11822735 0.14183635 0)
(0.098252753 0.14920748 0)
(0.077370943 0.15517339 0)
(0.055777315 0.1596878 0)
(0.033671976 0.16271633 0)
(0.011258321 0.16423626 0)
(-0.011258321 0.16423626 0)
(-0.033671976 0.16271633 0)
(-0.055777315 0.1596878 0)
(-0.077370943 0.15517339 0)
(-0.098252753 0.14920748 0)
(-0.11822735 0.14183635 0)
(-0.1371056 0.13311849 0)
(-0.15470628 0.12312489 0)
(-0.17085794 0.11193919 0)
(-0.18540076 0.099657684 0)
(-0.19818869 0.086389052 0)
(-0.20909138 0.072253735 0)
(-0.21799626 0.057382956 0)
(-0.22481024 0.041917349 0)
(-0.2294612 0.02600525 0)
(-0.23189903 0.0098007541 0)
(-0.23209621 -0.0065383195 0)
(-0.23004791 -0.022852429 0)
(-0.22577171 -0.038982139 0)
(-0.21930701 -0.054769708 0)
(-0.21071427 -0.070060439 0)
(-0.20007418 -0.084703832 0)
(-0.1874868 -0.098554642 0)
(-0.17307078 -0.11147394 0)
(-0.15696249 -0.1233303 0)
(-0.13931514 -0.13400106 0)
(-0.12029777 -0.14337388 0)
(-0.10009389 -0.15134826 0)
(-0.078900072 -0.15783726 0)
(-0.056924017 -0.16276901 0)
(-0.034382506 -0.16608822 0)
(-0.011498989 -0.16775733 0)
(0.012664904 -0.19177414 0)
(0.037868734 -0.18986616 0)
(0.062696176 -0.18607208 0)
(0.086901393 -0.18043515 0)
(0.110246 -0.17301895 0)
(0.13250169 -0.16390594 0)
(0.15345254 -0.15319577 0)
(0.17289696 -0.14100334 0)
(0.19064931 -0.12745681 0)
(0.20654115 -0.11269582 0)
(0.2204223 -0.096869766 0)
(0.2321617 -0.080136403 0)
(0.24164831 -0.06266067 0)
(0.24879199 -0.044613644 0)
(0.25352456 -0.02617153 0)
(0.25580083 -0.0075144903 0)
(0.25559973 0.011174816 0)
(0.25292516 0.029713076 0)
(0.24780655 0.047918542 0)
(0.2402988 0.065613516 0)
(0.23048176 0.08262692 0)
(0.2184589 0.098796737 0)
(0.20435561 0.11397212 0)
(0.18831701 0.12801506 0)
(0.17050557 0.14080148 0)
(0.15109866 0.15222189 0)
(0.13028622 0.16218159 0)
(0.10826851 0.1706005 0)
(0.0852541 0.17741288 0)
(0.06145809 0.18256684 0)
(0.037100436 0.18602394 0)
(0.012404475 0.18775881 0)
(-0.012404475 0.18775881 0)
(-0.037100436 0.18602394 0)
(-0.06145809 0.18256684 0)
(-0.0852541 0.17741288 0)
(-0.10826851 0.1706005 0)
(-0.13028622 0.16218159 0)
(-0.15109866 0.15222189 0)
(-0.17050557 0.14080148 0)
(-0.18831701 0.12801506 0)
(-0.20435561 0.11397212 0)
(-0.2184589 0.098796737 0)
(-0.23048176 0.08262692 0)
(-0.2402988 0.065613516 0)
(-0.24780655 0.047918542 0)
(-0.25292516 0.029713076 0)
(-0.25559973 0.011174816 0)
(-0.25580083 -0.0075144903 0)
(-0.25352456 -0.02617153 0)
(-0.24879199 -0.044613644 0)
(-0.24164831 -0.06266067 0)
(-0.2321617 -0.080136403 0)
(-0.2204223 -0.096869766 0)
(-0.20654115 -0.11269582 0)
(-0.19064931 -0.12745681 0)
(-0.17289696 -0.14100334 0)
(-0.15345254 -0.15319577 0)
(-0.13250169 -0.16390594 0)
(-0.110246 -0.17301895 0)
(-0.086901393 -0.18043515 0)
(-0.062696176 -0.18607208 0)
(-0.037868734 -0.18986616 0)
(-0.012664904 -0.19177414 0)
(0.014019997 -0.2182904 0)
(0.041920664 -0.21611892 0)
(0.069405087 -0.21180107 0)
(0.096201496 -0.20538646 0)
(0.12204649 -0.1969479 0)
(0.14668794 -0.18657972 0)
(0.16988753 -0.17439561 0)
(0.19142286 -0.16052632 0)
(0.21108906 -0.14511737 0)
(0.2287001 -0.12832687 0)
(0.24408978 -0.11032364 0)
(0.25711253 -0.09128575 0)
(0.26764434 -0.071399366 0)
(0.27558376 -0.050857835 0)
(0.28085312 -0.029860808 0)
(0.28340005 -0.0086131433 0)
(0.28319887 0.01267665 0)
(0.28025204 0.033798542 0)
(0.27459089 0.054543701 0)
(0.26627592 0.074707623 0)
(0.25539606 0.094093413 0)
(0.24206719 0.11251488 0)
(0.22643 0.12979917 0)
(0.20864722 0.14578877 0)
(0.1889008 0.16034272 0)
(0.16738887 0.17333728 0)
(0.14432304 0.18466593 0)
(0.11992584 0.19423901 0)
(0.094428473 0.20198321 0)
(0.06806888 0.20784086 0)
(0.041089989 0.21176934 0)
(0.013738173 0.21374056 0)
(-0.013738173 0.21374056 0)
(-0.041089989 0.21176934 0)
(-0.06806888 0.20784086 0)
(-0.094428473 0.20198321 0)
(-0.11992584 0.19423901 0)
(-0.14432304 0.18466593 0)
(-0.16738887 0.17333728 0)
(-0.1889008 0.16034272 0)
(-0.20864722 0.14578877 0)
(-0.22643 0.12979917 0)
(-0.24206719 0.11251488 0)
(-0.25539606 0.094093413 0)
(-0.26627592 0.074707623 0)
(-0.27459089 0.054543701 0)
(-0.28025204 0.033798542 0)
(-0.28319887 0.01267665 0)
(-0.28340005 -0.0086131433 0)
(-0.28085312 -0.029860808 0)
(-0.27558376 -0.050857835 0)
(-0.26764434 -0.071399366 0)
(-0.25711253 -0.09128575 0)
(-0.24408978 -0.11032364 0)
(-0.2287001 -0.12832687 0)
(-0.21108906 -0.14511737 0)
(-0.19142286 -0.16052632 0)
(-0.16988753 -0.17439561 0)
(-0.14668794 -0.18657972 0)
(-0.12204649 -0.1969479 0)
(-0.096201496 -0.20538646 0)
(-0.069405087 -0.21180107 0)
(-0.041920664 -0.21611892 0)
(-0.014019997 -0.2182904 0)
(0.01559751 -0.24771421 0)
(0.046637692 -0.24525065 0)
(0.077215332 -0.24035228 0)
(0.10702855 -0.23307588 0)
(0.13578491 -0.22350466 0)
(0.1632047 -0.21174621 0)
(0.18902368 -0.19792987 0)
(0.21299537 -0.182204 0)
(0.2348927 -0.16473317 0)
(0.25450931 -0.14569564 0)
(0.27166037 -0.12528131 0)
(0.28618341 -0.10369013 0)
(0.29793908 -0.081131127 0)
(0.30681235 -0.057821749 0)
(0.31271402 -0.033987255 0)
(0.31558265 -0.0098598065 0)
(0.31538665 0.01432312 0)
(0.31212619 0.038321209 0)
(0.30583461 0.061894667 0)
(0.2965788 0.084808233 0)
(0.28445849 0.10683541 0)
(0.26960443 0.12776246 0)
(0.25217561 0.14739166 0)
(0.23235585 0.16554376 0)
(0.2103502 0.18205929 0)
(0.18638136 0.19679907 0)
(0.16068642 0.20964402 0)
(0.13351392 0.22049446 0)
(0.10512143 0.22926922 0)
(0.075773409 0.23590471 0)
(0.045739394 0.24035404 0)
(0.015292424 0.24258636 0)
(-0.015292424 0.24258636 0)
(-0.045739394 0.24035404 0)
(-0.075773409 0.23590471 0)
(-0.10512143 0.22926922 0)
(-0.13351392 0.22049446 0)
(-0.16068642 0.20964402 0)
(-0.18638136 0.19679907 0)
(-0.2103502 0.18205929 0)
(-0.23235585 0.16554376 0)
(-0.25217561 0.14739166 0)
(-0.26960443 0.12776246 0)
(-0.28445849 0.10683541 0)
(-0.2965788 0.084808233 0)
(-0.30583461 0.061894667 0)
(-0.31212619 0.038321209 0)
(-0.31538665 0.01432312 0)
(-0.31558265 -0.0098598065 0)
(-0.31271402 -0.033987255 0)
(-0.30681235 -0.057821749 0)
(-0.29793908 -0.081131127 0)
(-0.28618341 -0.10369013 0)
(-0.27166037 -0.12528131 0)
(-0.25450931 -0.14569564 0)
(-0.2348927 -0.16473317 0)
(-0.21299537 -0.182204 0)
(-0.18902368 -0.19792987 0)
(-0.1632047 -0.21174621 0)
(-0.13578491 -0.22350466 0)
(-0.10702855 -0.23307588 0)
(-0.077215332 -0.24035228 0)
(-0.046637692 -0.24525065 0)
(-0.01559751 -0.24771421 0)
(0.01743479 -0.28052499 0)
(0.052131493 -0.27773611 0)
(0.08631181 -0.27219125 0)
(0.11963885 -0.2639553 0)
(0.15178648 -0.25312325 0)
(0.18244294 -0.23981761 0)
(0.21131397 -0.22418532 0)
(0.23812523 -0.20639433 0)
(0.26262403 -0.18663026 0)
(0.28458049 -0.16509347 0)
(0.30378827 -0.14199668 0)
(0.32006514 -0.11756344 0)
(0.33325375 -0.09202737 0)
(0.34322283 -0.06563195 0)
(0.34986912 -0.038630419 0)
(0.35311987 -0.01128523 0)
(0.35293581 0.016133484 0)
(0.34931386 0.043350782 0)
(0.34228928 0.070091135 0)
(0.33193637 0.09608363 0)
(0.31836773 0.12106752 0)
(0.30173193 0.14479738 0)
(0.28220991 0.16704729 0)
(0.26001066 0.18761364 0)
(0.23536671 0.20631663 0)
(0.20852974 0.22300046 0)
(0.17976674 0.23753275 0)
(0.14935665 0.24980337 0)
(0.11758771 0.25972309 0)
(0.084755143 0.26722228 0)
(0.051159342 0.27224972 0)
(0.017104225 0.27477178 0)
(-0.017104225 0.27477178 0)
(-0.051159342 0.27224972 0)
(-0.084755143 0.26722228 0)
(-0.11758771 0.25972309 0)
(-0.14935665 0.24980337 0)
(-0.17976674 0.23753275 0)
(-0.20852974 0.22300046 0)
(-0.23536671 0.20631663 0)
(-0.26001066 0.18761364 0)
(-0.28220991 0.16704729 0)
(-0.30173193 0.14479738 0)
(-0.31836773 0.12106752 0)
(-0.33193637 0.09608363 0)
(-0.34228928 0.070091135 0)
(-0.34931386 0.043350782 0)
(-0.35293581 0.016133484 0)
(-0.35311987 -0.01128523 0)
(-0.34986912 -0.038630419 0)
(-0.34322283 -0.06563195 0)
(-0.33325375 -0.09202737 0)
(-0.32006514 -0.11756344 0)
(-0.30378827 -0.14199668 0)
(-0.28458049 -0.16509347 0)
(-0.26262403 -0.18663026 0)
(-0.23812523 -0.20639433 0)
(-0.21131397 -0.22418532 0)
(-0.18244294 -0.23981761 0)
(-0.15178648 -0.25312325 0)
(-0.11963885 -0.2639553 0)
(-0.08631181 -0.27219125 0)
(-0.052131493 -0.27773611 0)
(-0.01743479 -0.28052499 0)
(0.019570662 -0.31727987 0)
(0.058518152 -0.31412701 0)
(0.096886697 -0.30785893 0)
(0.13429876 -0.29854975 0)
(0.17038904 -0.28630785 0)
(0.20480868 -0.2712727 0)
(0.23722865 -0.25361107 0)
(0.26734242 -0.23351288 0)
(0.29486777 -0.21118719 0)
(0.31954776 -0.18685861 0)
(0.34115124 -0.16076469 0)
(0.35947315 -0.13315438 0)
(0.37433505 -0.10428767 0)
(0.38558642 -0.074436104 0)
(0.39310698 -0.043883448 0)
(0.39680998 -0.012925832 0)
(0.39664626 0.018129594 0)
(0.39260824 0.048967997 0)
(0.38473292 0.079272224 0)
(0.37310321 0.10872966 0)
(0.35784702 0.13703956 0)
(0.33913423 0.16391987 0)
(0.31717205 0.18911242 0)
(0.29219947 0.21238638 0)
(0.26448151 0.23353957 0)
(0.23430393 0.25239839 0)
(0.20196863 0.26881646 0)
(0.16778992 0.28267285 0)
(0.13209158 0.29387011 0)
(0.095204485 0.30233248 0)
(0.057464734 0.30800438 0)
(0.019211988 0.31084935 0)
(-0.019211988 0.31084935 0)
(-0.057464734 0.30800438 0)
(-0.095204485 0.30233248 0)
(-0.13209158 0.29387011 0)
(-0.16778992 0.28267285 0)
(-0.20196863 0.26881646 0)
(-0.23430393 0.25239839 0)
(-0.26448151 0.23353957 0)
(-0.29219947 0.21238638 0)
(-0.31717205 0.18911242 0)
(-0.33913423 0.16391987 0)
(-0.35784702 0.13703956 0)
(-0.37310321 0.10872966 0)
(-0.38473292 0.079272224 0)
(-0.39260824 0.048967997 0)
(-0.39664626 0.018129594 0)
(-0.39680998 -0.012925832 0)
(-0.39310698 -0.043883448 0)
(-0.38558642 -0.074436104 0)
(-0.37433505 -0.10428767 0)
(-0.35947315 -0.13315438 0)
(-0.34115124 -0.16076469 0)
(-0.31954776 -0.18685861 0)
(-0.29486777 -0.21118719 0)
(-0.26734242 -0.23351288 0)
(-0.23722865 -0.25361107 0)
(-0.20480868 -0.2712727 0)
(-0.17038904 -0.28630785 0)
(-0.13429876 -0.29854975 0)
(-0.096886697 -0.30785893 0)
(-0.058518152 -0.31412701 0)
(-0.019570662 -0.31727987 0)
(0.022040915 -0.35861317 0)
(0.065904663 -0.35505147 0)
(0.1091171 -0.3479711 0)
(0.15125367 -0.33745679 0)
(0.19190382 -0.32363219 0)
(0.23067579 -0.30665609 0)
(0.26720046 -0.2867178 0)
(0.3011343 -0.26403207 0)
(0.33216118 -0.23883412 0)
(0.35999324 -0.21137542 0)
(0.38437099 -0.18192054 0)
(0.4050632 -0.15074576 0)
(0.42186708 -0.11813926 0)
(0.43460954 -0.084402651 0)
(0.44314989 -0.049852942 0)
(0.44738425 -0.014823711 0)