/*--------------------------------*- C++ -*----------------------------------*\
| =========                 |                                                 |
| \\      /  F ield         | OpenFOAM: The Open Source CFD Toolbox           |
|  \\    /   O peration     | Version:  2306                                  |
|   \\  /    A nd           | Website:  www.openfoam.com                      |
|    \\/     M anipulation  |                                                 |
\*---------------------------------------------------------------------------*/
FoamFile
{
    version     2.0;
    format      ascii;
    arch        "LSB;label=32;scalar=64";
    class       surfaceScalarField;
    location    "0.54";
    object      phi;
}
// * * * * * * * * * * * * * * * * * * * * * * * * * * * * * * * * * * * * * //

dimensions      [0 3 -1 0 0 0 0];

oriented        oriented;

internalField   nonuniform List<scalar> 
12640
(
-1.7927024e-05
-6.3372471e-05
-1.1773082e-05
-6.0000406e-05
-6.4687875e-06
-5.6028838e-05
-2.0364709e-06
-5.1611945e-05
1.5394017e-06
-4.6917847e-05
4.2791208e-06
-4.2085099e-05
6.2226118e-06
-3.7259339e-05
7.4377011e-06
-3.2564596e-05
7.9997872e-06
-2.8115816e-05
7.9979329e-06
-2.400595e-05
7.5281468e-06
-2.0307965e-05
6.6902088e-06
-1.7073997e-05
5.5842691e-06
-1.4335096e-05
4.3070142e-06
-1.2100994e-05
2.9482004e-06
-1.0361918e-05
1.5873266e-06
-9.0899333e-06
2.926696e-07
-8.2421798e-06
-8.7905375e-07
-7.7637828e-06
-1.8910223e-06
-7.5918858e-06
-2.7178438e-06
-7.6611028e-06
-3.3485935e-06
-7.9040144e-06
-3.7850221e-06
-8.2569008e-06
-4.0394171e-06
-8.6625736e-06
-4.1321128e-06
-9.0725946e-06
-4.0888981e-06
-9.4485577e-06
-3.9385875e-06
-9.7624353e-06
-3.7109288e-06
-9.9961138e-06
-3.4344957e-06
-1.0140976e-05
-3.1349951e-06
-1.019686e-05
-2.8340806e-06
-1.0170407e-05
-2.5486764e-06
-1.0073161e-05
-2.2907996e-06
-9.9196222e-06
-2.0676657e-06
-9.7256534e-06
-1.8821456e-06
-9.5070801e-06
-1.7335297e-06
-9.2783209e-06
-1.6184183e-06
-9.0515005e-06
-1.5316264e-06
-8.8359741e-06
-1.4670463e-06
-8.6381557e-06
-1.4184045e-06
-8.4616411e-06
-1.3798948e-06
-8.3075268e-06
-1.3465929e-06
-8.1749603e-06
-1.3146666e-06
-8.0617525e-06
-1.2814288e-06
-7.9649367e-06
-1.2452886e-06
-7.881229e-06
-1.2055938e-06
-7.8074349e-06
-1.1624139e-06
-7.7407512e-06
-1.1163073e-06
-7.6789356e-06
-1.0681038e-06
-7.6203662e-06
-1.018721e-06
-7.5640137e-06
-9.6902723e-07
-7.5093559e-06
-9.1975365e-07
-7.4562604e-06
-8.7145037e-07
-7.4048588e-06
-8.2447929e-07
-7.3554307e-06
-7.7903241e-07
-7.3083083e-06
-7.3516687e-07
-7.2638056e-06
-6.9284628e-07
-7.2221749e-06
-6.5198058e-07
-7.1835887e-06
-6.1245912e-07
-7.1481406e-06
-5.7417505e-07
-7.1158578e-06
-5.3704015e-07
-7.086721e-06
-5.0099172e-07
-7.0606844e-06
-4.6599293e-07
-7.0376946e-06
-4.3202891e-07
-7.0177054e-06
-3.9910042e-07
-7.0006878e-06
-3.6721697e-07
-6.9866352e-06
-3.3639031e-07
-6.9755656e-06
-3.0662887e-07
-6.9675202e-06
-2.7793378e-07
-6.9625614e-06
-2.5029581e-07
-6.9607689e-06
-2.2369355e-07
-6.9622366e-06
-1.9809204e-07
-6.9670687e-06
-1.7344223e-07
-6.9753755e-06
-1.496804e-07
-6.9872685e-06
-1.2672821e-07
-7.0028536e-06
-1.0449286e-07
-7.0222224e-06
-8.2868197e-08
-7.0454409e-06
-6.1736361e-08
-7.0725373e-06
-4.097059e-08
-7.1034969e-06
-2.0438733e-08
-7.1382772e-06
-7.17703e-06
-1.3864307e-05
-7.1036809e-05
-7.1658809e-06
-6.6698833e-05
-1.4788213e-06
-6.1715898e-05
3.1936942e-06
-5.628446e-05
6.8500065e-06
-5.0574159e-05
9.5292013e-06
-4.4764294e-05
1.1289596e-05
-3.9019733e-05
1.2212265e-05
-3.3487266e-05
1.2393173e-05
-2.8296723e-05
1.1941587e-05
-2.3554364e-05
1.0974976e-05
-1.9341354e-05
9.6148072e-06
-1.5713828e-05
7.982181e-06
-1.270247e-05
6.1931043e-06
-1.0311917e-05
4.3545802e-06
-8.523394e-06
2.5609321e-06
-7.2962852e-06
8.9082198e-07
-6.5720697e-06
-5.9410689e-07
-6.2788539e-06
-1.8503974e-06
-6.3355953e-06
-2.8537655e-06
-6.6577348e-06
-3.5971435e-06
-7.1606365e-06
-4.0889082e-06
-7.765136e-06
-4.3500355e-06
-8.4014462e-06
-4.4107663e-06
-9.0118638e-06
-4.3072336e-06
-9.5520903e-06
-4.0785336e-06
-9.9911354e-06
-3.7640099e-06
-1.0310638e-05
-3.4005486e-06
-1.0504437e-05
-3.0205532e-06
-1.0576856e-05
-2.6505779e-06
-1.0540383e-05
-2.3106369e-06
-1.0413102e-05
-2.0141118e-06
-1.0216147e-05
-1.7680418e-06
-9.9717235e-06
-1.5738934e-06
-9.7012284e-06
-1.4286992e-06
-9.4235151e-06
-1.3263271e-06
-9.1538726e-06
-1.2586955e-06
-8.9036058e-06
-1.2168976e-06
-8.6799536e-06
-1.1921839e-06
-8.4863549e-06
-1.1767921e-06
-8.3229186e-06
-1.1644206e-06
-8.1873318e-06
-1.1504083e-06
-8.0757648e-06
-1.1317391e-06
-7.9836058e-06
-1.1069114e-06
-7.9060567e-06
-1.0756522e-06
-7.8386942e-06
-1.038582e-06
-7.7778214e-06
-9.968758e-07
-7.7206418e-06
-9.5195875e-07
-7.6652832e-06
-9.0526289e-07
-7.6107096e-06
-8.5805583e-07
-7.556563e-06
-8.1134343e-07
-7.5029728e-06
-7.6583385e-07
-7.4503684e-06
-7.2194864e-07
-7.3993159e-06
-6.7986686e-07
-7.3503901e-06
-6.3958818e-07
-7.3040843e-06
-6.0099909e-07
-7.2607639e-06
-5.6393169e-07
-7.2206561e-06
-5.2820972e-07
-7.1838626e-06
-4.9367906e-07
-7.1503885e-06
-4.602248e-07
-7.1201753e-06
-4.2777615e-07
-7.093133e-06
-3.9630306e-07
-7.0691677e-06
-3.6580765e-07
-7.0482008e-06
-3.3631333e-07
-7.0301821e-06
-3.0785409e-07
-7.0150944e-06
-2.8046533e-07
-7.0029543e-06
-2.5417675e-07
-6.9938088e-06
-2.290074e-07
-6.9877307e-06
-2.0496268e-07
-6.9848136e-06
-1.8203241e-07
-6.9851669e-06
-1.6019021e-07
-6.9889109e-06
-1.3939285e-07
-6.9961729e-06
-1.1958005e-07
-7.0070813e-06
-1.0067429e-07
-7.0217593e-06
-8.2581211e-08
-7.0403155e-06
-6.5190415e-08
-7.0628317e-06
-4.8377101e-08
-7.0893506e-06
-3.2005079e-08
-7.119869e-06
-1.5930748e-08
-7.1543515e-06
-7.1929607e-06
-8.7631489e-06
-7.946548e-05
-1.4865335e-06
-7.3975448e-05
4.6013775e-06
-6.7803809e-05
9.4777525e-06
-6.1160835e-05
1.3166547e-05
-5.4262954e-05
1.5717242e-05
-4.7314989e-05
1.7205776e-05
-4.0508267e-05
1.7732694e-05
-3.4014184e-05
1.7417381e-05
-2.798141e-05
1.6393916e-05
-2.2530899e-05
1.4805644e-05
-1.7753082e-05
1.280017e-05
-1.3708354e-05
1.0523972e-05
-1.0426272e-05
8.1163509e-06
-7.9042959e-06
5.7049705e-06
-6.1120136e-06
3.4009136e-06
-4.9922283e-06
1.2952179e-06
-4.466374e-06
-5.4273147e-07
-4.4409045e-06
-2.0661528e-06
-4.812174e-06
-3.2519797e-06
-5.4719078e-06
-4.0988421e-06
-6.313774e-06
-4.6244741e-06
-7.239504e-06
-4.8616689e-06
-8.1642514e-06
-4.8537725e-06
-9.0197603e-06
-4.6503678e-06
-9.7554951e-06
-4.3038141e-06
-1.0337689e-05
-3.8655273e-06
-1.0748924e-05
-3.3826491e-06
-1.0987315e-05
-2.8956106e-06
-1.1063894e-05
-2.4365888e-06
-1.0999404e-05
-2.0288452e-06
-1.0820846e-05
-1.6866796e-06
-1.0558313e-05
-1.4161751e-06
-1.0242228e-05
-1.2162816e-06
-9.9011219e-06
-1.0805429e-06
-9.5592538e-06
-9.9888191e-07
-9.2355336e-06
-9.591986e-07
-8.9432891e-06
-9.4884241e-07
-8.6903098e-06
-9.5581673e-07
-8.4793805e-06
-9.6991112e-07
-8.3088242e-06
-9.8321204e-07
-8.1740309e-06
-9.9019552e-07
-8.0687814e-06
-9.8767998e-07
-7.9861213e-06
-9.7452056e-07
-7.9192161e-06
-9.5114797e-07
-7.8620667e-06
-9.1906632e-07
-7.809903e-06
-8.8036877e-07
-7.7593393e-06
-8.373221e-07
-7.7083299e-06
-7.920474e-07
-7.6559843e-06
-7.4631507e-07
-7.6022953e-06
-7.0144753e-07
-7.5478404e-06
-6.583032e-07
-7.4935127e-06
-6.173192e-07
-7.4402999e-06
-5.7860023e-07
-7.3891091e-06
-5.4202327e-07
-7.3406612e-06
-5.0733868e-07
-7.2954485e-06
-4.7425439e-07
-7.2537404e-06
-4.4249649e-07
-7.2156205e-06
-4.1184617e-07
-7.1810388e-06
-3.8215577e-07
-7.1498657e-06
-3.5334924e-07
-7.1219396e-06
-3.2541166e-07
-7.0971053e-06
-2.9837278e-07
-7.0752397e-06
-2.7228943e-07
-7.0562654e-06
-2.4722931e-07
-7.0401545e-06
-2.2325866e-07
-7.026925e-06
-2.0043343e-07
-7.016634e-06
-1.7879388e-07
-7.0093703e-06
-1.5836165e-07
-7.0052458e-06
-1.3913882e-07
-7.0043897e-06
-1.2110783e-07
-7.0069419e-06
-1.0423176e-07
-7.0130489e-06
-8.8453673e-08
-7.0228594e-06
-7.3697032e-08
-7.036516e-06
-5.9865649e-08
-7.0541468e-06
-4.6844234e-08
-7.0758531e-06
-3.4499896e-08
-7.101695e-06
-2.2685049e-08
-7.1316838e-06
-1.1242036e-08
-7.1657945e-06
-7.2042028e-06
-2.4219728e-06
-8.8725872e-05
5.4681631e-06
-8.1865584e-05
1.1939636e-05
-7.4275281e-05
1.6989508e-05
-6.6210707e-05
2.0648928e-05
-5.7922374e-05
2.2983684e-05
-4.9649744e-05
2.4090634e-05
-4.1615217e-05
2.409446e-05
-3.401801e-05
2.3142365e-05
-2.7029315e-05
2.1398549e-05
-2.0787083e-05
1.9037805e-05
-1.5392339e-05
1.6239199e-05
-1.0909747e-05
1.3179558e-05
-7.3666317e-06
1.002642e-05
-4.7511577e-06
6.933045e-06
-3.0186385e-06
4.0300716e-06
-2.0892548e-06
1.4227748e-06
-1.8590772e-06
-8.1186249e-07
-2.2062673e-06
-2.6233108e-06
-3.0007257e-06
-3.9914393e-06
-4.1037793e-06
-4.9232316e-06
-5.3819817e-06
-5.4494896e-06
-6.7132461e-06
-5.6189279e-06
-7.994813e-06
-5.4920956e-06
-9.1465926e-06
-5.1360839e-06
-1.0111507e-05
-4.6202413e-06
-1.0853532e-05
-4.0111366e-06
-1.1358029e-05
-3.3685127e-06
-1.1629939e-05
-2.7423561e-06
-1.1690051e-05
-2.1711877e-06
-1.1570573e-05
-1.6815038e-06
-1.131053e-05
-1.2877245e-06
-1.0952092e-05
-9.9378498e-07
-1.0536168e-05
-7.9448122e-07
-1.0100426e-05
-6.7815277e-07
-9.6755822e-06
-6.2912533e-07
-9.2845611e-06
-6.2977819e-07
-8.9426362e-06
-6.6261931e-07
-8.6574687e-06
-7.1144439e-07
-8.4305555e-06
-7.6301809e-07
-8.2572505e-06
-8.0758598e-07
-8.129463e-06
-8.3883921e-07
-8.0375281e-06
-8.5374063e-07
-7.9712199e-06
-8.519355e-07
-7.9210213e-06
-8.3504299e-07
-7.8789593e-06
-8.0592474e-07
-7.8390213e-06
-7.680077e-07
-7.7972563e-06
-7.2472139e-07
-7.7516162e-06
-6.7908821e-07
-7.7016174e-06
-6.3349025e-07
-7.6478933e-06
-5.8959309e-07
-7.5917375e-06
-5.4836052e-07
-7.5347453e-06
-5.1015917e-07
-7.4785013e-06
-4.7491728e-07
-7.424351e-06
-4.4228943e-07
-7.3732891e-06
-4.1180544e-07
-7.3259325e-06
-3.8298688e-07
-7.2825589e-06
-3.5542385e-07
-7.2431835e-06
-3.2881484e-07
-7.2076478e-06
-3.0297788e-07
-7.1757026e-06
-2.778417e-07
-7.1470757e-06
-2.534224e-07
-7.1215246e-06
-2.2979507e-07
-7.098867e-06
-2.0706582e-07
-7.0789947e-06
-1.8534877e-07
-7.0618716e-06
-1.6475006e-07
-7.0475237e-06
-1.4535765e-07
-7.0360264e-06
-1.2723574e-07
-7.0274921e-06
-1.1042339e-07
-7.0220582e-06
-9.4935043e-08
-7.0198781e-06
-8.0761606e-08
-7.0211154e-06
-6.7872936e-08
-7.0259376e-06
-5.6215236e-08
-7.0345171e-06
-4.571305e-08
-7.0470182e-06
-3.6268635e-08
-7.0635913e-06
-2.7761358e-08
-7.0843603e-06
-2.004923e-08
-7.1094071e-06
-1.2971092e-08
-7.1387619e-06
-6.3519497e-09
-7.1724137e-06
-7.2105547e-06
5.3843466e-06
-9.8881248e-05
1.3906638e-05
-9.0387876e-05
2.0754516e-05
-8.1123159e-05
2.5930827e-05
-7.1387018e-05
2.948089e-05
-6.1472438e-05
3.1490004e-05
-5.1658858e-05
3.2079937e-05
-4.220515e-05
3.1404695e-05
-3.3342768e-05
2.9644747e-05
-2.5269367e-05
2.7000328e-05
-1.8142664e-05
2.3684451e-05
-1.2076461e-05
1.9915153e-05
-7.14045e-06
1.5906159e-05
-3.3576374e-06
1.1855346e-05
-7.0034494e-07
7.9507448e-06
8.8596295e-07
4.3481764e-06
1.5133136e-06
1.1665739e-06
1.3225253e-06
-1.5130539e-06
4.7336047e-07
-3.62759e-06
-8.8618961e-07
-5.1688149e-06
-2.5625544e-06
-6.1540745e-06
-4.3967221e-06
-6.6320125e-06
-6.2353081e-06
-6.6726018e-06
-7.9542237e-06
-6.3588638e-06
-9.4603306e-06
-5.7807213e-06
-1.0689649e-05
-5.0291739e-06
-1.1605079e-05
-4.1897603e-06
-1.2197443e-05
-3.3376506e-06
-1.2482049e-05
-2.5341429e-06
-1.2493558e-05
-1.8247517e-06
-1.2279964e-05
-1.2388487e-06
-1.1896433e-05
-7.8977268e-07
-1.1401168e-05
-4.7765023e-07
-1.084829e-05
-2.9065345e-07
-1.0287422e-05
-2.0933599e-07
-9.7568997e-06
-2.1013483e-07
-9.2837622e-06
-2.6802712e-07
-8.8847439e-06
-3.5959454e-07
-8.5659012e-06
-4.6331892e-07
-8.3268311e-06
-5.6220115e-07
-8.1583683e-06
-6.4440581e-07
-8.0472583e-06
-7.0311832e-07
-7.9788156e-06
-7.3597158e-07
-7.9383666e-06
-7.4406924e-07
-7.9129236e-06
-7.3092879e-07
-7.8920997e-06
-7.0143655e-07
-7.8685135e-06
-6.6091669e-07
-7.8377762e-06
-6.1437103e-07
-7.7981619e-06
-5.6597132e-07
-7.7500172e-06
-5.1881362e-07
-7.695051e-06
-4.74896e-07
-7.6356551e-06
-4.3517784e-07
-7.5744634e-06
-3.998042e-07
-7.5138749e-06
-3.6836677e-07
-7.4557884e-06
-3.401508e-07
-7.401505e-06
-3.1434882e-07
-7.3517345e-06
-2.9021618e-07
-7.3066916e-06
-2.6716406e-07
-7.2662356e-06
-2.4479383e-07
-7.230018e-06
-2.2289701e-07
-7.1975995e-06
-2.0142983e-07
-7.1685429e-06
-1.804674e-07
-7.142487e-06
-1.6015764e-07
-7.1191768e-06
-1.4067926e-07
-7.098473e-06
-1.2220915e-07
-7.0803417e-06
-1.0490405e-07
-7.0648288e-06
-8.8889683e-08
-7.0520408e-06
-7.4256053e-08
-7.0421258e-06
-6.1059141e-08
-7.0352551e-06
-4.9324318e-08
-7.0316129e-06
-3.9048744e-08
-7.0313909e-06
-3.0211654e-08
-7.0347747e-06
-2.2759898e-08
-7.0419688e-06
-1.6620452e-08
-7.0531576e-06
-1.1694825e-08
-7.0685169e-06
-7.8569845e-09
-7.0881982e-06
-4.9558592e-09
-7.1123082e-06
-2.8135844e-09
-7.1409042e-06
-1.2342013e-09
-7.173993e-06
-7.2117889e-06
1.4917341e-05
-0.000109997
2.4094965e-05
-9.9565501e-05
3.1296826e-05
-8.832502e-05
3.6536007e-05
-7.6626199e-05
3.987478e-05
-6.4811212e-05
4.1421826e-05
-5.3205904e-05
4.132844e-05
-4.2111764e-05
3.9783645e-05
-3.1797972e-05
3.7007652e-05
-2.2493374e-05
3.3243687e-05
-1.4378699e-05
2.8749713e-05
-7.5824869e-06
2.3787407e-05
-2.1781442e-06
1.8624137e-05
1.8056333e-06
1.3508307e-05
4.4154844e-06
8.6487285e-06
5.7455418e-06
4.2275399e-06
5.9345022e-06
3.9051271e-07
5.1595525e-06
-2.7638085e-06
3.6276817e-06
-5.2016048e-06
1.5516067e-06
-6.9005689e-06
-8.6359023e-07
-7.8917489e-06
-3.4055421e-06
-8.2518258e-06
-5.8752311e-06
-8.0798884e-06
-8.1261612e-06
-7.4884983e-06
-1.0051721e-05
-6.5973428e-06
-1.1580805e-05
-5.5249689e-06
-1.2677453e-05
-4.3806065e-06
-1.3341805e-05
-3.2582013e-06
-1.3604454e-05
-2.2323319e-06
-1.3519428e-05
-1.3560629e-06
-1.3156233e-05
-6.6090317e-07
-1.2591593e-05
-1.5809189e-07
-1.1903979e-05
1.6251259e-07
-1.1168894e-05
3.2033433e-07
-1.0445244e-05
3.4388198e-07
-9.7804474e-06
2.6744406e-07
-9.2073243e-06
1.2661736e-07
-8.7439172e-06
-4.4127405e-08
-8.3951565e-06
-2.1879504e-07
-8.1521634e-06
-3.7686212e-07
-8.0003012e-06
-5.0363732e-07
-7.9204831e-06
-5.9243731e-07
-7.8900156e-06
-6.4241158e-07
-7.8883923e-06
-6.5712918e-07
-7.8982061e-06
-6.4303044e-07
-7.9061984e-06
-6.0796097e-07
-7.903583e-06
-5.5989026e-07
-7.8858469e-06
-5.0590217e-07
-7.85215e-06
-4.5159428e-07
-7.804325e-06
-4.0084759e-07
-7.7457977e-06
-3.5590253e-07
-7.6806002e-06
-3.174992e-07
-7.6128668e-06
-2.8531359e-07
-7.5460605e-06
-2.5836065e-07
-7.4827413e-06
-2.3534773e-07
-7.424518e-06
-2.1497334e-07
-7.3721089e-06
-1.9612895e-07
-7.325536e-06
-1.7800465e-07
-7.2843599e-06
-1.6009963e-07
-7.2479231e-06
-1.4220521e-07
-7.2154939e-06
-1.2434918e-07
-7.1863989e-06
-1.067113e-07
-7.1601249e-06
-8.9553846e-08
-7.1363343e-06
-7.3160048e-08
-7.1148668e-06
-5.7789817e-08
-7.0957119e-06
-4.3661789e-08
-7.0789568e-06
-3.0944776e-08
-7.0647578e-06
-1.975366e-08
-7.0533169e-06
-1.0157727e-08
-7.044851e-06
-2.1912161e-09
-7.0395794e-06
4.1405569e-09
-7.0377227e-06
8.8713271e-09
-7.0395055e-06
1.2035337e-08
-7.0451328e-06
1.3702497e-08
-7.0548248e-06
1.3971339e-08
-7.0687857e-06
1.2969775e-08
-7.0871966e-06
1.0865427e-08
-7.1102039e-06
7.8496947e-09
-7.1378885e-06
4.1437167e-09
-7.1702871e-06
-7.2076452e-06
2.6491306e-05
-0.00012213784
3.633826e-05
-0.00010941245
4.3858042e-05
-9.5844801e-05
4.907627e-05
-8.1844426e-05
5.207543e-05
-6.7810372e-05
5.299181e-05
-5.4122284e-05
5.2011327e-05
-4.1131281e-05
4.9364096e-05
-2.9150742e-05
4.5317542e-05
-1.844682e-05
4.0167911e-05
-9.229068e-06
3.4227832e-05
-1.6424079e-06
2.7833732e-05
4.2159559e-06
2.1286782e-05
8.3525839e-06
1.4880864e-05
1.0821401e-05
8.87883e-06
1.1747576e-05
3.4995331e-06
1.1313799e-05
-1.0895247e-06
9.7486103e-06
-4.7774932e-06
7.3156502e-06
-7.5166052e-06
4.2907186e-06
-9.3336426e-06
9.5344724e-07
-1.0257794e-05
-2.4813907e-06
-1.0402355e-05
-5.7306701e-06
-9.904456e-06
-8.6240603e-06
-8.9152815e-06
-1.1040895e-05
-7.5930708e-06
-1.2903016e-05
-6.0913924e-06
-1.4179131e-05
-4.5490211e-06
-1.4884176e-05
-3.0825981e-06
-1.5070877e-05
-1.7821299e-06
-1.4819896e-05
-7.0911154e-07
-1.4229251e-05
1.0633212e-07
-1.3407036e-05
6.6162514e-07
-1.2459272e-05
9.7128056e-07
-1.147855e-05
1.0694263e-06
-1.054339e-05
1.0005735e-06
-9.7115945e-06
8.139524e-07
-9.0207032e-06
5.5863502e-07
-8.4885998e-06
2.7818565e-07
-8.1147071e-06
9.4481495e-09
-7.883426e-06
-2.2109586e-07
-7.7697572e-06
-3.9948313e-07
-7.7420959e-06
-5.1966704e-07
-7.7698317e-06
-5.8359267e-07
-7.8244667e-06
-5.9879758e-07
-7.8830012e-06
-5.7611908e-07
-7.9288769e-06
-5.2766142e-07
-7.9520406e-06
-4.6501434e-07
-7.948494e-06
-3.9795892e-07
-7.9192054e-06
-3.338076e-07
-7.8684764e-06
-2.7719667e-07
-7.8024086e-06
-2.3040394e-07
-7.7273929e-06
-1.935479e-07
-7.6497228e-06
-1.6545382e-07
-7.5741546e-06
-1.4421053e-07
-7.5039846e-06
-1.2766271e-07
-7.4410658e-06
-1.1381778e-07
-7.3859538e-06
-1.0108816e-07
-7.3382656e-06
-8.8411632e-08
-7.2970364e-06
-7.5201444e-08
-7.2611333e-06
-6.1304571e-08
-7.2293908e-06
-4.6902007e-08
-7.2008015e-06
-3.2346128e-08
-7.1746807e-06
-1.807365e-08
-7.1506068e-06
-4.5166302e-09
-7.1284239e-06
7.9598316e-09
-7.1081884e-06
1.9061833e-08
-7.0900588e-06
2.8584491e-08
-7.0742805e-06
3.6396675e-08
-7.0611291e-06
4.2418822e-08
-7.0508732e-06
4.66176e-08
-7.0437782e-06
4.8988596e-08
-7.0400937e-06
4.9546137e-08
-7.040063e-06
4.833308e-08
-7.0439198e-06
4.5413243e-08
-7.0519049e-06
4.0878217e-08
-7.0642507e-06
3.4860554e-08
-7.081179e-06
2.7528716e-08
-7.102872e-06
1.9099588e-08
-7.1294593e-06
9.8248464e-09
-7.1610123e-06
-7.1978204e-06
4.0469435e-05
-0.00013536994
5.0990831e-05
-0.00011993385
5.8775624e-05
-0.00010362959
6.3864807e-05
-8.693361e-05
6.6364541e-05
-7.0310106e-05
6.6443361e-05
-5.4201104e-05
6.4328175e-05
-3.9016095e-05
6.0298578e-05
-2.5121145e-05
5.4678271e-05
-1.2826514e-05
4.7825602e-05
-2.3763985e-06
4.0134629e-05
6.0485644e-06
3.1980935e-05
1.236965e-05
2.3751616e-05
1.6581903e-05
1.5802918e-05
1.87701e-05
8.4509348e-06
1.9099559e-05
1.9562971e-06
1.7808437e-05
-3.4828853e-06
1.5187793e-05
-7.7465532e-06
1.1579318e-05
-1.0790028e-05
7.3341935e-06
-1.2641794e-05
2.8052133e-06
-1.3397116e-05
-1.7260689e-06
-1.3192142e-05
-5.9356439e-06
-1.2215991e-05
-9.6002112e-06
-1.0670991e-05
-1.2585896e-05
-8.765217e-06
-1.4808789e-05
-6.6966778e-06
-1.6247671e-05
-4.6409813e-06
-1.6939873e-05
-2.7424109e-06
-1.6969447e-05
-1.108028e-06
-1.6454279e-05
1.9497928e-07
-1.5532258e-05
1.1386685e-06
-1.4350726e-05
1.7260588e-06
-1.3046663e-05
1.990623e-06
-1.1743114e-05
1.9854654e-06
-1.0538232e-05
1.7754603e-06
-9.5015895e-06
1.430108e-06
-8.6753508e-06
1.0164139e-06
-8.0749057e-06
5.928253e-07
-7.6911185e-06
2.0526574e-07
-7.4958664e-06
-1.1508261e-07
-7.4494088e-06
-3.5188139e-07
-7.5052971e-06
-5.0220877e-07
-7.6195043e-06
-5.7310132e-07
-7.7535741e-06
-5.7833201e-07
-7.8777705e-06
-5.3525936e-07
-7.9719496e-06
-4.62016e-07
-8.025284e-06
-3.7506802e-07
-8.035442e-06
-2.8760536e-07
-8.0066681e-06
-2.0892112e-07
-7.9471606e-06
-1.4412716e-07
-7.8672026e-06
-9.5259798e-08
-7.7762603e-06
-6.1027136e-08
-7.6839555e-06
-3.8844607e-08
-7.5963371e-06
-2.5342464e-08
-7.5174868e-06
-1.7125922e-08
-7.4492823e-06
-1.1304375e-08
-7.3917754e-06
-5.7306748e-09
-7.3438393e-06
9.8549683e-10
-7.3037526e-06
9.3809309e-09
-7.2695287e-06
1.9392341e-08
-7.2394022e-06
3.0623811e-08
-7.212033e-06
4.2441906e-08
-7.1864988e-06
5.4188222e-08
-7.1623531e-06
6.5259818e-08
-7.1394955e-06
7.5130435e-08
-7.118059e-06
8.3423121e-08
-7.0983515e-06
8.989381e-08
-7.0807511e-06
9.4394166e-08
-7.0656294e-06
9.686038e-08
-7.0533394e-06
9.7273256e-08
-7.0441911e-06
9.563734e-08
-7.0384578e-06
9.1969363e-08
-7.036395e-06
8.6302996e-08
-7.0382534e-06
7.8686098e-08
-7.044288e-06
6.9201193e-08
-7.0547658e-06
5.7969856e-08
-7.0699476e-06
4.5170071e-08
-7.0900722e-06
3.1037765e-08
-7.115327e-06
1.5863956e-08
-7.1458385e-06
-7.1819564e-06
5.7275563e-05
-0.00014975324
6.8463838e-05
-0.00013112213
7.6440474e-05
-0.00011160623
8.1264641e-05
-9.1757777e-05
8.3069856e-05
-7.2115322e-05
8.2061706e-05
-5.3192954e-05
7.8514388e-05
-3.5468777e-05
7.2765091e-05
-1.9371848e-05
6.5202643e-05
-5.2640651e-06
5.626712e-05
6.5591239e-06
4.6418425e-05
1.589726e-05
3.6132673e-05
2.2655401e-05
2.5874063e-05
2.6840513e-05
1.6076476e-05
2.8567687e-05
7.1239492e-06
2.8052086e-05
-6.6828313e-07
2.5600669e-05
-7.0690156e-06
2.1588525e-05
-1.1943125e-05
1.6453427e-05
-1.5253373e-05
1.0644442e-05
-1.7053911e-05
4.6057518e-06
-1.748679e-05
-1.2931899e-06
-1.6747292e-05
-6.6751426e-06
-1.5089187e-05
-1.1258316e-05
-1.278134e-05
-1.4893743e-05
-1.0095799e-05
-1.749433e-05
-7.2868492e-06
-1.9056621e-05
-4.5756972e-06
-1.9651025e-05
-2.139374e-06
-1.9405771e-05
-1.0400629e-07
-1.8489647e-05
1.4588501e-06
-1.7095115e-05
2.5236294e-06
-1.5415505e-05
3.1117045e-06
-1.3634738e-05
3.279215e-06
-1.1910625e-05
3.1064187e-06
-1.0365436e-05
2.6865741e-06
-9.0817449e-06
2.1164741e-06
-8.1052508e-06
1.486746e-06
-7.4451776e-06
8.7405934e-07
-7.0784319e-06
3.3646061e-07
-6.9582676e-06
-8.9728792e-08
-7.0232194e-06
-3.8892468e-07
-7.2061012e-06
-5.6333611e-07
-7.4450929e-06
-6.281289e-07
-7.6887814e-06
-6.0648258e-07
-7.8994168e-06
-5.2526436e-07
-8.0531678e-06
-4.1098742e-07
-8.1395609e-06
-2.865733e-07
-8.1598561e-06
-1.6940396e-07
-8.1238374e-06
-7.1007615e-08
-8.045557e-06
3.3493334e-09
-7.9415595e-06
5.4224152e-08
-7.8271351e-06
8.3797974e-08
-7.7135293e-06
9.702505e-08
-7.6095642e-06
9.9512042e-08
-7.5199737e-06
9.6429549e-08
-7.4461998e-06
9.1932464e-08
-7.3872783e-06
8.8870763e-08
-7.3407776e-06
8.8797373e-08
-7.3036792e-06
9.2185118e-08
-7.2729164e-06
9.8669898e-08
-7.245887e-06
1.0736553e-07
-7.2207286e-06
1.1721008e-07
-7.1963434e-06
1.271492e-07
-7.1722922e-06
1.3628181e-07
-7.148628e-06
1.4393295e-07
-7.1257102e-06
1.4965624e-07
-7.1040748e-06
1.5319297e-07
-7.0842879e-06
1.5443368e-07
-7.0668701e-06
1.5335218e-07
-7.0522579e-06
1.4996119e-07
-7.0408001e-06
1.4428457e-07
-7.0327812e-06
1.3634181e-07
-7.0284523e-06
1.2614965e-07
-7.0280613e-06
1.1373456e-07
-7.0318729e-06
9.9150275e-08
-7.0401815e-06
8.2502256e-08
-7.0532996e-06
6.3965324e-08
-7.0715353e-06
4.3796e-08
-7.0951577e-06
2.2331955e-08
-7.1243745e-06
-7.1596245e-06
7.7401797e-05
-0.00016534102
8.923431e-05
-0.00014295464
9.7306195e-05
-0.00011967811
0.00010169717
-9.6148757e-05
0.00010257129
-7.2989435e-05
0.00010017554
-5.0797206e-05
9.4837492e-05
-3.0130729e-05
8.696618e-05
-1.1500536e-05
7.70106e-05
4.6915145e-06
6.5517757e-05
1.8051967e-05
5.3045425e-05
2.8369592e-05
4.0170376e-05
3.5530451e-05
2.7458926e-05
3.9551962e-05
1.5441199e-05
4.0585415e-05
4.5872616e-06
3.8906023e-05
-4.7172579e-06
3.4905189e-05
-1.2199369e-05
2.9070637e-05
-1.7709331e-05
2.1963388e-05
-2.1222169e-05
1.415728e-05
-2.2831105e-05
6.2146874e-06
-2.2733588e-05
-1.3907064e-06
-2.1211164e-05
-8.1975669e-06
-1.8601354e-05
-1.3868126e-05
-1.5260904e-05
-1.8234193e-05
-1.1544191e-05
-2.1211043e-05
-7.7766966e-06
-2.2824115e-05
-4.2357314e-06
-2.319199e-05
-1.1369789e-06
-2.2504523e-05
1.3726221e-06
-2.0999248e-05
3.2156459e-06
-1.8938139e-05
4.381422e-06
-1.6581281e-05
4.9153893e-06
-1.4168705e-05
4.906955e-06
-1.190219e-05
4.4740849e-06
-9.932566e-06
3.7491188e-06
-8.3567787e-06
2.8653182e-06
-7.2214503e-06
1.9440923e-06
-6.5239517e-06
1.0850704e-06
-6.21941e-06
3.6039341e-07
-6.2335906e-06
-1.8793566e-07
-6.4748904e-06
-5.4877819e-07
-6.8452586e-06
-7.3342978e-07
-7.2604413e-06
-7.6980704e-07
-7.6524041e-06
-6.950495e-07
-7.9741743e-06
-5.4966201e-07
-8.1985553e-06
-3.7164997e-07
-8.317573e-06
-1.9233133e-07
-8.3391747e-06
-3.4243257e-08
-8.2819255e-06
9.0186237e-08
-8.1699864e-06
1.7632304e-07
-8.0276963e-06
2.2600627e-07
-7.8768183e-06
2.4590596e-07
-7.733429e-06
2.44528e-07
-7.6081863e-06
2.306528e-07
-7.5060985e-06
2.1190497e-07
-7.427452e-06
1.9398833e-07
-7.3693616e-06
1.80564e-07
-7.3273533e-06
1.7325112e-07
-7.2963664e-06
1.7203379e-07
-7.2716991e-06
1.7583853e-07
-7.2496917e-06
1.8304995e-07
-7.22794e-06
1.9193346e-07
-7.2052269e-06
2.0092401e-07
-7.1812828e-06
2.0878176e-07
-7.1564858e-06
2.1465748e-07
-7.1315859e-06
2.1805992e-07
-7.1074772e-06
2.1877765e-07
-7.0850056e-06
2.1677908e-07
-7.0648716e-06
2.1212155e-07
-7.0476004e-06
2.0488426e-07
-7.0335628e-06
1.9512515e-07
-7.0230221e-06
1.8286543e-07
-7.0161925e-06
1.6809547e-07
-7.0132913e-06
1.507984e-07
-7.0145759e-06
1.3098065e-07
-7.0203637e-06
1.0870793e-07
-7.0310269e-06
8.4138102e-08
-7.0469655e-06
5.754442e-08
-7.068564e-06
2.9322074e-08
-7.0961521e-06
-7.1303024e-06
0.00010141716
-0.00018217675
0.00011385248
-0.00015538996
0.00012189524
-0.00012772088
0.00012564752
-9.9901036e-05
0.00012530661
-7.2648526e-05
0.00012116499
-4.6655589e-05
0.00011360911
-2.2574844e-05
0.00010312053
-1.0119604e-06
9.0238283e-05
1.7573764e-05
7.5624746e-05
3.2665504e-05
5.9956247e-05
4.4038091e-05
4.3935074e-05
5.1551624e-05
2.8254482e-05
5.5232555e-05
1.3564315e-05
5.5275581e-05
4.3579609e-07
5.2034542e-05
-1.0621081e-05
4.5962065e-05
-1.9316885e-05
3.7766442e-05
-2.5474602e-05
2.8121105e-05
-2.908502e-05
1.7767698e-05
-3.0298896e-05
7.4285634e-06
-2.938579e-05
-2.303812e-06
-2.6746606e-05
-1.083675e-05
-2.2828873e-05
-1.7785859e-05
-1.8105216e-05
-2.295785e-05
-1.3036126e-05
-2.6280133e-05
-8.0370867e-06
-2.7823154e-05
-3.4543321e-06
-2.7774745e-05
4.5012208e-07
-2.6408977e-05
3.5077502e-06
-2.4056876e-05
5.6428193e-06
-2.1073208e-05
6.8653576e-06
-1.7803819e-05
7.2579102e-06
-1.4561258e-05
6.9570816e-06
-1.1601362e-05
6.1328522e-06
-9.1083366e-06
4.9716534e-06
-7.1955799e-06
3.6553392e-06
-5.9051361e-06
2.3450413e-06
-5.2136539e-06
1.1690238e-06
-5.0433925e-06
2.1689443e-07
-5.2814612e-06
-4.6912942e-07
-5.7888665e-06
-8.8248783e-07
-6.4319002e-06
-1.0513735e-06
-7.0915556e-06
-1.0232712e-06
-7.6805064e-06
-8.5589545e-07
-8.1415501e-06
-6.090029e-07
-8.4454479e-06
-3.3616492e-07
-8.5904109e-06
-7.9166778e-08
-8.5961729e-06
1.3374251e-07
-8.4948347e-06
2.8899317e-07
-8.3252371e-06
3.8469079e-07
-8.1233939e-06
4.2753636e-07
-7.9196639e-06
4.2963447e-07
-7.7355271e-06
4.0505787e-07
-7.5836097e-06
3.6719714e-07
-7.4682378e-06
3.2694534e-07
-7.3872002e-06
2.9195343e-07
-7.3343697e-06
2.6649655e-07
-7.3018964e-06
2.518021e-07
-7.2816719e-06
2.469147e-07
-7.2668117e-06
2.4957073e-07
-7.2523477e-06
2.5698868e-07
-7.235358e-06
2.6646494e-07
-7.2147032e-06
2.7574467e-07
-7.1905625e-06
2.8318651e-07
-7.1639276e-06
2.8778939e-07
-7.1361888e-06
2.8909427e-07
-7.1087821e-06
2.8702412e-07
-7.0829355e-06
2.8171708e-07
-7.0595645e-06
2.7338621e-07
-7.0392695e-06
2.6221957e-07
-7.0223962e-06
2.4832718e-07
-7.0091297e-06
2.3172688e-07
-6.9995922e-06
2.12362e-07
-6.9939264e-06
1.9014034e-07
-6.9923542e-06
1.64985e-07
-6.9952084e-06
1.3688909e-07
-7.002931e-06
1.0596801e-07
-7.0160444e-06
7.2501911e-08
-7.0350979e-06
3.6955731e-08
-7.0606059e-06
-7.0933467e-06
0.00012997967
-0.00020028718
0.00014295261
-0.0001683629
0.00015081017
-0.00013557844
0.00015367737
-0.00010276824
0.00015178575
-7.0756906e-05
0.00014547666
-4.0346497e-05
0.00013521046
-1.230864e-05
0.00012147539
1.2723112e-05
0.00010504079
3.4008358e-05
8.6628108e-05
5.107819e-05
6.706766e-05
6.3598539e-05
4.7220542e-05
7.1398742e-05
2.7938942e-05
7.4514155e-05
1.0028349e-05
7.3186174e-05
-5.7782078e-06
6.7841099e-05
-1.8918791e-05
5.9102648e-05
-2.8982119e-05
4.782977e-05
-3.5777975e-05
3.491696e-05
-3.932689e-05
2.1316613e-05
-3.9857726e-05
7.9593997e-06
-3.7741019e-05
-4.4205191e-06
-3.3536565e-05
-1.5041205e-05
-2.7841267e-05
-2.3481158e-05
-2.1279722e-05
-2.9519394e-05
-1.4449143e-05
-3.3110712e-05
-7.8782116e-06
-3.4394086e-05
-1.996165e-06
-3.3656791e-05
2.8760607e-06
-3.1281203e-05
6.5545227e-06
-2.7735338e-05
8.9709226e-06
-2.3489608e-05
1.0169262e-05
-1.9002159e-05
1.0286812e-05
-1.4678807e-05
9.5271373e-06
-1.0841687e-05
8.1294173e-06
-7.7106166e-06
6.3529422e-06
-5.4191048e-06
4.4454637e-06
-3.9976576e-06
2.6200695e-06
-3.3882597e-06
1.0400821e-06
-3.4634051e-06
-1.8691482e-07
-4.0544643e-06
-1.0157762e-06
-4.9600052e-06
-1.4578714e-06
-5.989805e-06
-1.566165e-06
-6.983262e-06
-1.41737e-06
-7.8293015e-06
-1.099215e-06
-8.4597051e-06
-6.9829049e-07
-8.8463724e-06
-2.8883391e-07
-8.9998675e-06
7.3981677e-08
-8.9589885e-06
3.5659393e-07
-8.777447e-06
5.4582138e-07
-8.5144646e-06
6.4535456e-07
-8.2229271e-06
6.7002239e-07
-7.9443317e-06
6.4072286e-07
-7.7062276e-06
5.7975492e-07
-7.5226417e-06
5.0694818e-07
-7.3954311e-06
4.3742979e-07
-7.3176818e-06
3.8096363e-07
-7.2779036e-06
3.4197836e-07
-7.2629111e-06
3.2061346e-07
-7.260307e-06
3.1413584e-07
-7.260334e-06
3.1831898e-07
-7.2565309e-06
3.2860876e-07
-7.2456478e-06
3.409432e-07
-7.2270376e-06
3.521779e-07
-7.2017972e-06
3.6023351e-07
-7.1719832e-06
3.6405005e-07
-7.1400053e-06
3.6335016e-07
-7.1080822e-06
3.5835384e-07
-7.0779392e-06
3.4951076e-07
-7.0507214e-06
3.3729067e-07
-7.0270494e-06
3.2204928e-07
-7.0071548e-06
3.0396539e-07
-6.9910458e-06
2.8303776e-07
-6.9786646e-06
2.5912401e-07
-6.9700126e-06
2.3200732e-07
-6.9652375e-06
2.0147332e-07
-6.9646744e-06
1.67391e-07
-6.9688487e-06
1.2979184e-07
-6.9784452e-06
8.894194e-08
-6.994248e-06
4.5388101e-08
-7.0170521e-06
-7.0479586e-06
0.00016386077
-0.00021967364
0.00017727438
-0.00018177652
0.00018475159
-0.00014305564
0.00018643913
-0.00010445578
0.00018260209
-6.6919871e-05
0.0001736388
-3.1383204e-05
0.0001600048
1.3253616e-06
0.00014239346
3.0334453e-05
0.00012161582
5.4785997e-05
9.8572903e-05
7.4121106e-05
7.4269607e-05
8.7901835e-05
4.9761666e-05
9.5906682e-05
2.6096216e-05
9.8179606e-05
4.2533924e-06
9.5028997e-05
-1.4764268e-05
8.6858759e-05
-3.032412e-05
7.4662501e-05
-4.1916272e-05
5.9421922e-05
-4.9310009e-05
4.2310697e-05
-5.2559485e-05
2.4566089e-05
-5.1998135e-05
7.3980503e-06
-4.8151179e-05
-8.2674752e-06
-4.1782647e-05
-2.1409737e-05
-3.3691931e-05
-3.1571873e-05
-2.4703716e-05
-3.8507609e-05
-1.5591539e-05
-4.2222889e-05
-7.0264668e-06
-4.2959159e-05
4.5722571e-07
-4.1140484e-05
6.4857819e-06
-3.7309759e-05
1.0850627e-05
-3.2100183e-05
1.3504384e-05
-2.6143365e-05
1.4542963e-05
-2.0040738e-05
1.4181021e-05
-1.4316865e-05
1.2715976e-05
-9.376642e-06
1.0490838e-05
-5.4854787e-06
7.8613299e-06
-2.7895968e-06
5.1619092e-06
-1.2982369e-06
2.6683166e-06
-8.9466712e-07
5.8302133e-07
-1.3781098e-06
-9.7001256e-07
-2.5014304e-06
-1.9392524e-06
-3.9907653e-06