/*--------------------------------*- C++ -*----------------------------------*\
| =========                 |                                                 |
| \\      /  F ield         | OpenFOAM: The Open Source CFD Toolbox           |
|  \\    /   O peration     | Version:  2306                                  |
|   \\  /    A nd           | Website:  www.openfoam.com                      |
|    \\/     M anipulation  |                                                 |
\*---------------------------------------------------------------------------*/
FoamFile
{
    version     2.0;
    format      ascii;
    arch        "LSB;label=32;scalar=64";
    class       volVectorField;
    location    "0.54";
    object      U;
}
// * * * * * * * * * * * * * * * * * * * * * * * * * * * * * * * * * * * * * //

dimensions      [0 1 -1 0 0 0 0];

internalField   nonuniform List<vector> 
6400
(
(-0.0084188739 -0.02376247 -3.4640778e-18)
(-0.0057403333 -0.022318932 -2.6878409e-18)
(-0.0034488734 -0.020686043 -2.0465272e-18)
(-0.0015422632 -0.018925164 -2.514408e-18)
(-1.1223793e-05 -0.017096603 -2.8813983e-18)
(0.001163363 -0.015254245 3.1760286e-18)
(0.0020079843 -0.013448375 -6.2139685e-19)
(0.0025536924 -0.01171747 8.2946177e-19)
(0.0028371199 -0.010099186 8.2905339e-19)
(0.0028963325 -0.0086206055 3.0975463e-19)
(0.0027718839 -0.0073018744 5.0604051e-19)
(0.0025043273 -0.0061555831 9.4896553e-19)
(0.0021331139 -0.0051868752 6.4402657e-19)
(0.0016955066 -0.0043940495 -1.1879282e-19)
(0.0012253885 -0.0037695013 3.6064609e-19)
(0.00075230772 -0.0033004462 2.2869412e-19)
(0.00030081102 -0.002969881 6.7304024e-20)
(-0.00010974457 -0.0027576466 -2.1492423e-19)
(-0.00046484538 -0.0026432599 -1.1345188e-19)
(-0.00075590716 -0.002604843 -4.8980632e-20)
(-0.00097968612 -0.002621213 -2.0684434e-19)
(-0.0011368534 -0.00267286 -1.8510286e-19)
(-0.0012317359 -0.0027426582 -1.8687316e-19)
(-0.0012713711 -0.0028163603 -1.2484346e-19)
(-0.0012645812 -0.0028828368 -7.5611874e-20)
(-0.0012211249 -0.0029340951 -8.9817263e-20)
(-0.0011509728 -0.0029651581 -9.4244503e-20)
(-0.001063661 -0.0029737876 -5.3727941e-21)
(-0.00096773826 -0.002960052 -4.0711672e-20)
(-0.00087038039 -0.0029258204 -1.0610136e-19)
(-0.00077717332 -0.0028742168 -6.088963e-20)
(-0.00069207237 -0.0028090854 2.6509321e-21)
(-0.00061752778 -0.0027345538 -8.7434438e-20)
(-0.00055465118 -0.0026546786 -6.9646927e-20)
(-0.00050340386 -0.0025731104 1.5058388e-20)
(-0.00046286868 -0.0024928808 -1.16559e-21)
(-0.00043154283 -0.0024162958 5.5834725e-21)
(-0.00040760978 -0.0023449072 -3.5437371e-20)
(-0.00038917799 -0.0022795552 -7.4549419e-20)
(-0.00037447473 -0.0022204663 -2.727589e-20)
(-0.00036198044 -0.0021673973 -2.3297573e-22)
(-0.00035049673 -0.0021197864 4.0759798e-21)
(-0.00033916207 -0.00207689 -3.3529946e-20)
(-0.00032743143 -0.0020378953 -3.5015954e-20)
(-0.00031503569 -0.0020020133 -9.3162523e-22)
(-0.00030192592 -0.0019685482 4.3802225e-20)
(-0.00028820726 -0.0019369358 4.8299944e-20)
(-0.00027407511 -0.0019067559 2.5998926e-20)
(-0.00025976107 -0.0018777254 -4.007337e-21)
(-0.00024549208 -0.0018496784 3.3874956e-20)
(-0.00023146341 -0.0018225392 4.519688e-20)
(-0.00021782444 -0.0017962939 1.8514448e-20)
(-0.0002046748 -0.001770965 -5.0461048e-21)
(-0.00019206815 -0.0017465897 -2.1012816e-20)
(-0.00018002047 -0.001723205 -3.593037e-20)
(-0.00016852055 -0.0017008374 -1.8048102e-20)
(-0.00015754058 -0.0016794991 -2.9990652e-20)
(-0.00014704526 -0.0016591876 -2.1798027e-20)
(-0.00013699869 -0.001639888 -1.8084715e-20)
(-0.00012736884 -0.0016215768 -1.4588222e-20)
(-0.00011812975 -0.0016042256 2.1755988e-21)
(-0.00010926214 -0.0015878054 -4.2756415e-21)
(-0.00010075262 -0.0015722887 -4.6661194e-21)
(-9.2592386e-05 -0.001557652 -9.5205971e-21)
(-8.4775531e-05 -0.0015438764 -1.8496223e-20)
(-7.7297475e-05 -0.0015309485 -4.1670567e-21)
(-7.015361e-05 -0.0015188593 -5.0196543e-21)
(-6.3338268e-05 -0.0015076044 -2.1258071e-20)
(-5.6844009e-05 -0.001497183 -8.7405433e-21)
(-5.0661164e-05 -0.0014875971 1.0128256e-20)
(-4.4777582e-05 -0.0014788506 5.6353737e-21)
(-3.9178503e-05 -0.0014709485 -6.1704201e-21)
(-3.3846523e-05 -0.0014638961 8.2955101e-21)
(-2.8761612e-05 -0.0014576972 1.9298852e-20)
(-2.3901236e-05 -0.0014523526 2.3455111e-20)
(-1.9240743e-05 -0.0014478578 2.3210567e-20)
(-1.4753489e-05 -0.0014442011 1.9040366e-21)
(-1.0408773e-05 -0.0014413624 9.0608524e-21)
(-6.1731629e-06 -0.001439317 2.554792e-20)
(-2.0331192e-06 -0.0014380798 3.4939846e-20)
(-0.0069272258 -0.026666621 -7.099823e-18)
(-0.0040211919 -0.024842164 -5.2320118e-18)
(-0.0015694672 -0.022819997 -2.6251427e-18)
(0.00043083573 -0.020673635 -1.4341069e-18)
(0.0019941813 -0.018472223 -2.0795277e-18)
(0.0031479982 -0.01627602 2.5648494e-18)
(0.003923273 -0.014142086 -8.8427019e-19)
(0.0043585873 -0.01211758 -5.0150396e-19)
(0.0044979855 -0.010242986 9.1864248e-19)
(0.0043883125 -0.0085489658 6.9782909e-19)
(0.0040783025 -0.0070571162 9.5600116e-19)
(0.0036166577 -0.0057799745 2.4700117e-19)
(0.0030505662 -0.0047212965 6.7488886e-19)
(0.0024242399 -0.0038766084 5.01923e-19)
(0.0017775927 -0.0032343895 4.9316128e-19)
(0.0011451127 -0.0027769775 3.4572265e-19)
(0.00055507828 -0.0024820655 3.1796971e-19)
(2.9196945e-05 -0.0023240954 8.2012906e-20)
(-0.00041732566 -0.0022758899 -1.0782606e-19)
(-0.00077612492 -0.0023104162 -6.8838741e-20)
(-0.0010451063 -0.0024013467 -1.5704995e-19)
(-0.0012273518 -0.0025247665 -1.3966995e-19)
(-0.0013302347 -0.0026600466 -1.83278e-19)
(-0.0013642146 -0.0027904066 -1.7500695e-19)
(-0.0013416499 -0.0029031366 -1.0406298e-19)
(-0.0012757558 -0.0029895614 -1.5249942e-19)
(-0.0011797149 -0.0030448537 -1.7862215e-19)
(-0.0010658524 -0.0030675977 -6.0739091e-20)
(-0.00094496109 -0.0030591915 -5.3639771e-20)
(-0.00082585697 -0.0030231574 -6.090212e-20)
(-0.00071514961 -0.0029644128 -1.1779444e-19)
(-0.00061727462 -0.0028885752 -7.0323776e-20)
(-0.00053472452 -0.002801437 4.8459164e-21)
(-0.0004682666 -0.0027084956 -1.1487657e-20)
(-0.0004172174 -0.0026145367 -2.4574563e-20)
(-0.00037985078 -0.0025233974 -7.3275427e-20)
(-0.00035379403 -0.002437874 1.021165e-20)
(-0.00033638084 -0.002359718 1.3723918e-20)
(-0.00032496086 -0.0022897222 -4.5613096e-20)
(-0.00031715185 -0.0022278752 -2.7946737e-20)
(-0.00031100218 -0.0021735847 -3.0567208e-20)
(-0.00030505035 -0.0021258984 -2.8369856e-20)
(-0.00029831373 -0.0020836846 -3.1197116e-20)
(-0.00029024229 -0.0020457757 -1.7678008e-20)
(-0.00028065317 -0.002011094 -1.6130651e-20)
(-0.00026964137 -0.0019787333 -1.0283567e-20)
(-0.00025748051 -0.0019479969 1.7292185e-21)
(-0.00024453316 -0.0019184018 -9.1029438e-21)
(-0.00023117867 -0.0018896576 5.7262067e-21)
(-0.00021776162 -0.0018616296 7.3935325e-21)
(-0.00020456113 -0.0018342957 -1.4670467e-20)
(-0.00019177823 -0.0018077041 -1.8979522e-20)
(-0.0001795369 -0.0017819375 -2.7660302e-20)
(-0.00016789431 -0.0017570845 -2.6817047e-20)
(-0.00015685611 -0.0017332207 -2.5048691e-20)
(-0.00014639363 -0.0017103974 -3.135217e-20)
(-0.00013645999 -0.0016886394 -1.8817932e-20)
(-0.0001270029 -0.0016679473 -3.9425874e-20)
(-0.00011797366 -0.0016483026 -1.6447151e-20)
(-0.00010933236 -0.0016296745 5.3071304e-21)
(-0.00010104987 -0.0016120266 -7.9972946e-21)
(-9.3107606e-05 -0.0015953216 -2.4267915e-20)
(-8.5495644e-05 -0.0015795259 -3.3282039e-20)
(-7.8210271e-05 -0.0015646116 -4.3488242e-20)
(-7.1251332e-05 -0.0015505578 -3.8076806e-20)
(-6.4619921e-05 -0.0015373503 -2.508413e-20)
(-5.8316571e-05 -0.0015249814 -1.6685222e-20)
(-5.2339989e-05 -0.0015134485 -1.8974539e-20)
(-4.6686268e-05 -0.0015027533 -4.5870749e-21)
(-4.1348468e-05 -0.0014929006 2.1489471e-21)
(-3.6316452e-05 -0.0014838975 -8.4557247e-21)
(-3.1576859e-05 -0.001475752 -1.1933128e-20)
(-2.7113112e-05 -0.0014684723 -5.3670119e-21)
(-2.2905466e-05 -0.0014620654 3.8099879e-21)
(-1.8931149e-05 -0.0014565349 1.0935606e-20)
(-1.5164717e-05 -0.0014518789 1.5182258e-20)
(-1.1578203e-05 -0.0014480877 1.9367959e-20)
(-8.1394744e-06 -0.0014451429 1.9944772e-20)
(-4.8136161e-06 -0.0014430205 2.9761567e-20)
(-1.5823117e-06 -0.0014417366 4.0558516e-20)
(-0.0050306593 -0.029863145 -4.845677e-18)
(-0.0018838899 -0.02758653 -5.4847201e-18)
(0.00072787413 -0.025106486 -2.023801e-18)
(0.0028121809 -0.022509327 1.4549695e-19)
(0.0043922783 -0.019870801 -1.3508681e-18)
(0.0054984227 -0.017263986 4.6059118e-19)
(0.0061704337 -0.014753449 -3.3546503e-18)
(0.0064558618 -0.012393832 -2.2696602e-19)
(0.0064080632 -0.010230207 2.4411902e-18)
(0.0060839073 -0.0082967498 3.7547166e-19)
(0.005542052 -0.0066166454 -5.3992463e-19)
(0.0048409165 -0.0052021669 -1.2582387e-19)
(0.0040369543 -0.0040551272 2.3009725e-19)
(0.0031827146 -0.0031674277 -4.7425306e-20)
(0.0023252507 -0.0025226088 -6.4187677e-20)
(0.0015048531 -0.0020967766 -1.4759341e-19)
(0.00075394671 -0.0018606599 -1.5117746e-19)
(9.6751281e-05 -0.0017816547 -5.7879958e-20)
(-0.00045074835 -0.0018254551 -1.0318935e-20)
(-0.00088085687 -0.0019578914 -2.5962424e-19)
(-0.0011934369 -0.0021464226 -2.2934553e-19)
(-0.0013948643 -0.0023618101 -1.0433941e-19)
(-0.0014966127 -0.0025792976 -1.6596471e-19)
(-0.0015136453 -0.0027792339 -1.0482135e-19)
(-0.001462893 -0.0029472499 2.7953035e-20)
(-0.0013619949 -0.0030741697 2.3619609e-20)
(-0.0012281775 -0.0031556999 -5.8791507e-20)
(-0.0010772 -0.0031917838 1.5616071e-20)
(-0.0009225446 -0.003185779 -1.7822376e-20)
(-0.00077490283 -0.0031435223 -1.7756238e-20)
(-0.00064195394 -0.0030723603 2.3219506e-21)
(-0.00052852092 -0.0029802783 -2.4296798e-20)
(-0.00043692961 -0.0028752245 3.042868e-20)
(-0.00036728537 -0.0027645235 6.726804e-20)
(-0.00031788603 -0.0026543419 5.4886143e-20)
(-0.00028582503 -0.0025494387 -2.6847644e-20)
(-0.00026751438 -0.0024531168 -1.94799e-20)
(-0.00025913547 -0.0023672487 2.4253874e-20)
(-0.00025703445 -0.002292449 3.1855955e-22)
(-0.00025805363 -0.0022282764 -1.4830248e-20)
(-0.00025973363 -0.0021735913 -2.357695e-20)
(-0.00026033771 -0.0021268723 -4.1755861e-20)
(-0.00025879066 -0.0020864391 -1.6246997e-21)
(-0.00025460213 -0.0020506455 1.2512323e-20)
(-0.00024776452 -0.0020180437 3.6230282e-21)
(-0.00023861008 -0.0019874737 2.0906035e-22)
(-0.00022766738 -0.0019580968 -8.7973082e-21)
(-0.00021553808 -0.001929383 -3.4671368e-20)
(-0.00020280195 -0.0019010672 -3.12305e-20)
(-0.00018995392 -0.0018730861 2.929493e-21)
(-0.00017737204 -0.0018455111 -8.4856838e-21)
(-0.00016531041 -0.0018184885 -1.7436593e-20)
(-0.00015390901 -0.0017921903 -1.0594765e-20)
(-0.0001432142 -0.0017667767 -2.6091281e-20)
(-0.00013320467 -0.0017423726 -3.157327e-20)
(-0.00012381867 -0.0017190582 -2.3954489e-20)
(-0.0001149774 -0.0016968692 -1.7732391e-21)
(-0.00010660241 -0.0016758042 -4.5391549e-21)
(-9.8626687e-05 -0.001655835 -1.3124288e-20)
(-9.1000044e-05 -0.0016369177 -5.8258907e-21)
(-8.3690184e-05 -0.0016190018 -5.102558e-21)
(-7.6680748e-05 -0.0016020381 -1.3977267e-20)
(-6.9967649e-05 -0.0015859843 -3.666909e-20)
(-6.3554813e-05 -0.0015708069 -5.2676759e-20)
(-5.745013e-05 -0.0015564826 -4.1592622e-20)
(-5.1662191e-05 -0.0015429974 -3.4499458e-20)
(-4.619798e-05 -0.0015303453 -2.9410465e-20)
(-4.1061414e-05 -0.0015185266 -7.5845356e-21)
(-3.625258e-05 -0.0015075467 -7.1804429e-21)
(-3.1767482e-05 -0.001497414 1.0704882e-21)
(-2.759806e-05 -0.0014881392 -9.4202662e-21)
(-2.373236e-05 -0.0014797342 -4.2212388e-21)
(-2.0154619e-05 -0.0014722109 3.2567854e-21)
(-1.6845328e-05 -0.0014655795 1.6030307e-21)
(-1.3781403e-05 -0.0014598471 8.992503e-21)
(-1.0936463e-05 -0.0014550151 8.225636e-21)
(-8.2809778e-06 -0.0014510764 1.645262e-20)
(-5.7810306e-06 -0.0014480148 1.8577148e-20)
(-3.3997282e-06 -0.0014458072 1.9468232e-20)
(-1.1132914e-06 -0.0014444716 3.5325139e-20)
(-0.0026524551 -0.033377461 -3.8888225e-18)
(0.00074605069 -0.030565012 -3.6454815e-18)
(0.0035163747 -0.027547136 -6.3392397e-18)
(0.0056742048 -0.024418638 -2.4999912e-18)
(0.0072458985 -0.021271622 -2.9926686e-18)
(0.0082704873 -0.018189576 5.0153311e-20)
(0.0087974414 -0.015246322 1.840949e-18)
(0.0088848051 -0.012504562 2.0630695e-18)
(0.0085971627 -0.010015122 -8.876223e-20)
(0.0080032572 -0.0078160422 1.2469781e-18)
(0.0071737257 -0.005932192 5.201864e-19)
(0.0061786646 -0.0043752591 2.1826111e-18)
(0.005085534 -0.0031443754 2.0576303e-18)
(0.0039567865 -0.0022265625 3.0566965e-19)
(0.0028481882 -0.0015996551 4.2496309e-19)
(0.0018069962 -0.001231781 4.0411246e-19)
(0.00087019762 -0.0010845076 2.2084088e-19)
(6.4531548e-05 -0.001116425 2.5514425e-19)
(-0.00059325734 -0.001284844 6.1320517e-19)
(-0.0010966366 -0.001546234 4.591905e-20)
(-0.0014484274 -0.0018606283 -2.1571123e-19)
(-0.0016595015 -0.0021923498 -2.4022386e-19)
(-0.0017468304 -0.0025117877 -2.13115e-19)
(-0.0017312676 -0.0027960551 -7.7816531e-20)
(-0.0016356498 -0.0030290925 -8.7832018e-21)
(-0.0014832645 -0.0032015397 -3.1236907e-21)
(-0.0012964074 -0.0033101947 -2.8765319e-20)
(-0.0010950515 -0.003357107 -9.9620283e-20)
(-0.00089587902 -0.0033484474 -1.1371031e-19)
(-0.00071168654 -0.0032932406 -1.0241486e-19)
(-0.00055123012 -0.00320209 -4.4398041e-20)
(-0.0004195409 -0.0030861385 8.4964524e-20)
(-0.00031844092 -0.0029560676 1.9908885e-20)
(-0.00024691448 -0.0028215356 -1.2305116e-20)
(-0.00020171381 -0.0026903579 5.6947851e-20)
(-0.00017825074 -0.0025683071 4.5127517e-20)
(-0.00017126278 -0.0024591599 -1.8010562e-20)
(-0.00017539732 -0.0023647452 -2.0802509e-20)
(-0.0001856936 -0.0022853288 9.2602234e-22)
(-0.0001980151 -0.0022197472 9.3221924e-21)
(-0.0002093303 -0.0021660342 2.4284961e-20)
(-0.00021763903 -0.0021218548 3.7114006e-20)
(-0.00022183612 -0.002084763 3.5660051e-20)
(-0.00022160464 -0.0020524819 -4.6555994e-21)
(-0.00021724807 -0.0020230991 3.4818534e-21)
(-0.00020947071 -0.0019951597 2.7400042e-20)
(-0.00019917634 -0.0019676859 7.7445179e-21)
(-0.00018730106 -0.0019401383 -2.2160297e-20)
(-0.00017469044 -0.0019123328 -7.5691002e-20)
(-0.00016202546 -0.0018843398 -2.2802619e-20)
(-0.00014979462 -0.001856383 -1.0223778e-21)
(-0.00013829919 -0.0018287575 -1.5186347e-21)
(-0.00012767683 -0.0018017631 -3.9186943e-21)
(-0.00011793769 -0.0017756553 -1.4177988e-20)
(-0.00010900739 -0.0017506195 1.3149102e-21)
(-0.0001007681 -0.0017267655 6.0194426e-21)
(-9.3091492e-05 -0.001704134 3.1452876e-21)
(-8.5861447e-05 -0.0016827122 1.6641042e-20)
(-7.8986613e-05 -0.0016624519 1.2081302e-21)
(-7.2404913e-05 -0.001643286 -1.1989596e-20)
(-6.6082346e-05 -0.0016251426 -4.151575e-21)
(-6.0008152e-05 -0.0016079554 -1.9909247e-21)
(-5.4188157e-05 -0.0015916699 -2.0605845e-20)
(-4.8637889e-05 -0.0015762465 -3.3112724e-20)
(-4.3376538e-05 -0.0015616597 -3.466696e-20)
(-3.8422565e-05 -0.0015478968 -2.6861724e-20)
(-3.3790963e-05 -0.0015349551 -1.3343112e-20)
(-2.9491694e-05 -0.0015228396 -1.2731396e-20)
(-2.5529161e-05 -0.0015115602 -8.8806913e-21)
(-2.1902349e-05 -0.0015011304 8.8398703e-21)
(-1.8605164e-05 -0.0014915653 6.0610771e-21)
(-1.5626992e-05 -0.001482881 1.7476867e-20)
(-1.2952843e-05 -0.0014750937 1.9226427e-20)
(-1.0563366e-05 -0.0014682177 1.0950707e-20)
(-8.4351458e-06 -0.001462264 1.5179943e-20)
(-6.5407822e-06 -0.0014572377 1.5111595e-20)
(-4.8489719e-06 -0.0014531354 1.2613551e-20)
(-3.3236458e-06 -0.0014499434 1.0612031e-20)
(-1.9253328e-06 -0.0014476405 1.4975753e-20)
(-6.2394912e-07 -0.001446247 1.8014708e-20)
(0.000298058 -0.037234467 -1.1099576e-19)
(0.0039576349 -0.033789887 -2.9729194e-19)
(0.0068840982 -0.030136252 -5.9536305e-18)
(0.009096039 -0.026387156 -1.4080539e-18)
(0.010628064 -0.022648475 -3.3430939e-18)
(0.011528949 -0.019016406 -1.737947e-18)
(0.011859358 -0.015575782 -7.4063389e-19)
(0.011689847 -0.012398392 -2.5237887e-18)
(0.011098444 -0.0095418047 -3.9621651e-18)
(0.010167961 -0.0070484582 -1.0948178e-18)
(0.0089833601 -0.0049451475 -3.0843805e-18)
(0.0076288838 -0.0032428967 -1.5786714e-18)
(0.0061855427 -0.001938336 5.3458554e-19)
(0.0047270549 -0.0010119926 -1.6088445e-18)
(0.0033195185 -0.00043111082 -1.7943672e-18)
(0.0020194613 -0.00015482289 -1.1688757e-18)
(0.0008688747 -0.00013507861 -6.7454384e-19)
(-0.0001037795 -0.00031873327 3.2657327e-20)
(-0.00088041529 -0.00064936991 1.8430747e-20)
(-0.0014562316 -0.0010770376 -1.5094668e-19)
(-0.0018389395 -0.0015516687 3.9195466e-20)
(-0.0020452396 -0.002028995 -4.5078415e-20)
(-0.0020993985 -0.0024735695 1.5635994e-19)
(-0.0020299376 -0.0028588429 3.2898823e-19)
(-0.001867319 -0.0031671185 5.6788367e-19)
(-0.0016420353 -0.0033893443 4.4340976e-19)
(-0.0013827113 -0.0035242136 2.0454331e-19)
(-0.0011144716 -0.0035769114 6.65616e-20)
(-0.00085777956 -0.0035575719 7.6505589e-20)
(-0.0006277443 -0.0034795579 1.3061157e-19)
(-0.00043413948 -0.0033577958 1.2465372e-19)
(-0.00028187347 -0.0032076354 1.3986078e-19)
(-0.00017178565 -0.0030431872 -2.9685263e-20)
(-0.00010110091 -0.0028770999 -2.6260461e-20)
(-6.4242442e-05 -0.002719108 -4.1619485e-20)
(-5.4266001e-05 -0.0025760541 -4.4745583e-20)
(-6.3629112e-05 -0.002452047 -7.0501837e-20)
(-8.5004056e-05 -0.0023485371 -7.343234e-20)
(-0.00011175252 -0.0022652409 1.1613709e-21)
(-0.0001384882 -0.0021998963 -6.8192982e-21)
(-0.00016157762 -0.0021493064 1.9176628e-20)
(-0.00017880792 -0.0021099689 3.2143681e-20)
(-0.00018916482 -0.0020783943 2.3805213e-20)
(-0.00019269166 -0.0020514895 4.70176e-21)
(-0.00019020321 -0.0020267723 1.1903279e-20)
(-0.00018296693 -0.0020024602 1.2006726e-20)
(-0.00017242649 -0.0019774651 -5.5281114e-21)
(-0.00015997681 -0.0019513076 2.2036947e-21)
(-0.00014680742 -0.0019239764 -1.9883654e-20)
(-0.00013382025 -0.0018957692 -1.6072939e-20)
(-0.00012161775 -0.001867145 -2.2581886e-20)
(-0.00011052995 -0.0018386196 -4.8369011e-21)
(-0.00010065668 -0.0018106692 -1.3236602e-20)
(-9.1930155e-05 -0.0017836707 -9.8466353e-21)
(-8.4183406e-05 -0.0017578792 2.0430447e-20)
(-7.7209839e-05 -0.0017334288 2.0241304e-20)
(-7.0808416e-05 -0.0017103519 1.9057301e-20)
(-6.4811733e-05 -0.0016886076 2.0602487e-20)
(-5.9098598e-05 -0.001668111 1.326746e-20)
(-5.3595275e-05 -0.0016487584 4.1032167e-21)
(-4.8270271e-05 -0.0016304453 -8.6870395e-21)
(-4.3124768e-05 -0.0016130815 -1.1587632e-21)
(-3.8181194e-05 -0.0015965979 -7.2527106e-21)
(-3.347262e-05 -0.0015809478 -1.157536e-20)
(-2.9033986e-05 -0.0015661056 -1.4783342e-20)
(-2.4896527e-05 -0.0015520621 -1.1029649e-20)
(-2.1084922e-05 -0.0015388203 6.2791289e-21)
(-1.7615842e-05 -0.0015263919 -7.2110896e-21)
(-1.4498012e-05 -0.0015147937 3.0632478e-21)
(-1.1733079e-05 -0.001504045 7.563557e-21)
(-9.316408e-06 -0.0014941666 1.084778e-20)
(-7.238671e-06 -0.0014851785 1.8133405e-20)
(-5.4855996e-06 -0.0014771028 1.9264634e-20)
(-4.0378056e-06 -0.0014699577 2.2817988e-20)
(-2.8716963e-06 -0.0014637589 9.5829365e-21)
(-1.9588617e-06 -0.001458516 9.3095035e-21)
(-1.2661613e-06 -0.0014542298 1.4979438e-20)
(-7.5503089e-07 -0.0014508904 6.7914732e-21)
(-3.8264591e-07 -0.0014484794 2.63911e-21)
(-1.1160949e-07 -0.0014470198 -2.6271503e-21)
(0.0039256517 -0.041461703 -3.0751645e-18)
(0.0078567656 -0.037268392 -6.0995802e-18)
(0.010929965 -0.032868689 -1.6075383e-18)
(0.013170844 -0.028394221 2.2006746e-18)
(0.014623646 -0.023967263 -3.0640799e-18)
(0.015348507 -0.019698814 -5.3491924e-19)
(0.015419309 -0.015686471 -2.2044082e-18)
(0.014921365 -0.01201256 -1.4419778e-18)
(0.013948661 -0.0087426269 -7.3124084e-19)
(0.01260071 -0.0059243461 1.1080256e-18)
(0.010979351 -0.0035868305 -7.9835616e-19)
(0.0091847876 -0.0017403593 5.6930542e-19)
(0.0073154637 -0.00037272143 2.8879768e-18)
(0.0054628505 0.00054045917 -2.9083903e-19)
(0.0037041364 0.0010406017 -3.1411442e-20)
(0.0021020708 0.0011808393 -1.7799069e-19)
(0.0007056648 0.0010227843 4.7240956e-19)
(-0.00045007303 0.00063470832 3.4773539e-19)
(-0.0013515227 8.7044682e-05 -2.9363694e-19)
(-0.001998564 -0.00055439374 1.7240539e-19)
(-0.0023997465 -0.001231749 -2.9125972e-20)
(-0.002580536 -0.0018899647 -5.963288e-20)
(-0.0025756327 -0.0024868201 -1.2940699e-19)
(-0.0024236517 -0.0029917247 8.7603227e-21)
(-0.0021649297 -0.0033855617 1.7777929e-19)
(-0.0018391437 -0.0036603295 9.980395e-20)
(-0.0014828071 -0.0038177658 -1.7071287e-19)
(-0.0011273109 -0.0038675961 -3.2343987e-20)
(-0.0007975328 -0.0038254409 6.1912409e-20)
(-0.00051105173 -0.0037105254 -9.6782908e-20)
(-0.00027855034 -0.0035435134 -7.1251108e-21)
(-0.00010426622 -0.0033451858 4.3999823e-20)
(1.2651747e-05 -0.0031346054 5.4104409e-20)
(7.7631384e-05 -0.0029273309 5.7872315e-20)
(9.9724129e-05 -0.0027353819 1.4748919e-20)
(8.9145694e-05 -0.0025668606 -1.8649979e-20)
(5.6553371e-05 -0.0024260397 -7.4831913e-21)
(1.1684721e-05 -0.0023137985 3.1228805e-20)
(-3.6788657e-05 -0.0022282916 7.0439087e-20)
(-8.1822117e-05 -0.0021658113 4.0284373e-20)
(-0.00011914506 -0.0021216128 1.7348254e-20)
(-0.00014646903 -0.0020904094 2.5390122e-20)
(-0.0001631004 -0.0020673322 1.9361252e-20)
(-0.00016972982 -0.0020482476 2.1652602e-20)
(-0.00016797207 -0.002029992 2.7258214e-21)
(-0.0001599256 -0.0020104447 1.7386685e-20)
(-0.00014779672 -0.0019884774 7.2021508e-21)
(-0.00013359741 -0.0019637921 -9.8188743e-21)
(-0.00011895052 -0.0019366922 5.7480811e-21)
(-0.00010500624 -0.001907841 -2.1821315e-20)
(-9.2470176e-05 -0.0018780499 -2.5866223e-20)
(-8.1660803e-05 -0.0018481549 -1.9523923e-20)
(-7.2576269e-05 -0.0018188656 -1.9605233e-20)
(-6.5006047e-05 -0.0017907065 9.2433979e-22)
(-5.8632957e-05 -0.0017640051 3.6883959e-21)
(-5.311651e-05 -0.0017389043 5.3295349e-21)
(-4.8153498e-05 -0.001715403 -1.131528e-20)
(-4.3510849e-05 -0.001693404 8.5609344e-21)
(-3.9034312e-05 -0.0016727623 5.8076125e-23)
(-3.4642316e-05 -0.0016533165 9.3187459e-21)
(-3.0314817e-05 -0.0016349155 4.1855542e-21)
(-2.6076072e-05 -0.0016174378 1.3708772e-20)
(-2.1975552e-05 -0.0016007969 2.1365026e-20)
(-1.8072418e-05 -0.0015849407 2.0594869e-20)
(-1.4423143e-05 -0.0015698473 1.0750114e-20)
(-1.1074973e-05 -0.0015555147 1.4303516e-20)
(-8.0638367e-06 -0.0015419555 3.9991264e-21)
(-5.4133454e-06 -0.0015291918 6.2193911e-21)
(-3.1358568e-06 -0.001517249 1.575884e-20)
(-1.2348653e-06 -0.001506154 5.8463354e-21)
(2.9427474e-07 -0.0014959337 1.0629855e-20)
(1.4593299e-06 -0.0014866141 1.3706612e-20)
(2.2737588e-06 -0.0014782205 2.2631164e-20)
(2.7577314e-06 -0.0014707768 1.9510412e-20)
(2.9342531e-06 -0.0014643038 1.0756758e-20)
(2.8325598e-06 -0.0014588165 2.5665237e-21)
(2.4874569e-06 -0.0014543215 -4.5007083e-21)
(1.9402737e-06 -0.0014508135 -2.3345755e-21)
(1.2382183e-06 -0.0014482777 -1.106842e-20)
(4.2715655e-07 -0.0014467416 -3.0987908e-20)
(0.0083565501 -0.046084285 8.5207069e-18)
(0.012564837 -0.041008328 -6.9866351e-19)
(0.015770025 -0.035733513 5.5123277e-18)
(0.018006896 -0.030411917 -4.1766286e-18)
(0.019330749 -0.025184859 -8.9848626e-18)
(0.019815101 -0.020180397 6.1299449e-19)
(0.019549297 -0.015510973 -4.9362046e-18)
(0.018635863 -0.011271216 -5.594782e-18)
(0.017187424 -0.007536054 -3.0661016e-18)
(0.015323403 -0.0043591059 -1.503375e-18)
(0.013166408 -0.001771131 -1.1839343e-18)
(0.010841461 0.00022236504 -2.2507445e-18)
(0.0084639507 0.0016347621 3.9676825e-19)
(0.0061383163 0.0025008184 -2.7818315e-19)
(0.003958348 0.0028728479 1.0173537e-19)
(0.0020004958 0.0028194844 3.543558e-20)
(0.00032196998 0.0024204251 7.1827059e-19)
(-0.0010397611 0.0017621431 -3.0838966e-19)
(-0.0020694495 0.00093039652 -4.085937e-19)
(-0.0027746035 1.1858012e-05 9.9711384e-19)
(-0.0031737751 -0.00091955171 6.5146907e-19)
(-0.0032993165 -0.0018009875 8.1947336e-19)
(-0.0031999405 -0.0025817584 2.1613039e-19)
(-0.0029273129 -0.0032267913 1.2256864e-19)
(-0.002534491 -0.003716014 4.5197217e-19)
(-0.0020728211 -0.0040435751 1.2031085e-19)
(-0.0015886356 -0.0042158827 -7.073052e-20)
(-0.0011209048 -0.0042491166 3.9073511e-19)
(-0.00069959334 -0.004166375 1.1688295e-19)
(-0.00034485086 -0.0039947485 -7.6440872e-20)
(-6.7972682e-05 -0.003762959 -1.9865698e-20)
(0.00012770987 -0.0034986809 -1.0629202e-19)
(0.00024659479 -0.0032264421 5.4200761e-20)
(0.00029854583 -0.0029657792 -9.7171159e-20)
(0.00029657918 -0.0027313567 -1.4165159e-19)
(0.00025537619 -0.0025325212 -1.9817808e-20)
(0.00018970052 -0.0023733796 1.2848188e-20)
(0.00011299422 -0.0022536464 -5.5900669e-21)
(3.6479388e-05 -0.0021692143 -5.0708799e-20)
(-3.1563869e-05 -0.0021141057 -8.9296463e-21)
(-8.5924895e-05 -0.0020810498 3.3842036e-20)
(-0.00012426977 -0.0020625997 4.3146906e-20)
(-0.00014674091 -0.0020520421 2.2212508e-20)
(-0.00015508938 -0.0020439286 2.0265513e-20)
(-0.00015214282 -0.0020343048 1.0250755e-20)
(-0.00014120336 -0.0020207468 2.3887033e-20)
(-0.00012553695 -0.0020022251 1.6450717e-20)
(-0.0001079683 -0.001978822 2.4491191e-21)
(-9.0648462e-05 -0.0019513687 1.8341656e-20)
(-7.4986268e-05 -0.001921099 -2.1108649e-20)
(-6.1754588e-05 -0.0018893333 -1.9530752e-20)
(-5.1181412e-05 -0.0018573695 -1.4404522e-20)
(-4.3055335e-05 -0.0018262076 1.0391335e-20)
(-3.6927047e-05 -0.0017965398 1.6452416e-20)
(-3.2247763e-05 -0.0017687558 -5.1309369e-21)
(-2.848258e-05 -0.0017429745 5.5009493e-21)
(-2.5190354e-05 -0.0017191189 -1.3708809e-20)
(-2.2060051e-05 -0.0016969911 -7.0052399e-22)
(-1.8906623e-05 -0.0016763513 -3.044759e-21)
(-1.5650236e-05 -0.0016569523 1.8338297e-20)
(-1.2299488e-05 -0.0016385764 3.8360488e-20)
(-8.9200942e-06 -0.0016210654 2.5712504e-20)
(-5.603854e-06 -0.0016043145 4.2411099e-20)
(-2.4484771e-06 -0.001588271 4.2192628e-20)
(4.6103314e-07 -0.0015729237 3.2014562e-20)
(3.0587482e-06 -0.0015582841 2.6857641e-20)
(5.2961536e-06 -0.0015443811 1.3368341e-20)
(7.1434838e-06 -0.0015312511 1.9621162e-21)
(8.5870518e-06 -0.0015189308 1.8447425e-21)
(9.6234636e-06 -0.001507456 1.8192577e-21)
(1.0257157e-05 -0.0014968599 1.6603909e-20)
(1.0497444e-05 -0.0014871747 1.4234452e-20)
(1.035742e-05 -0.0014784288 2.7629756e-20)
(9.8552192e-06 -0.0014706515 1.7217442e-20)
(9.0137644e-06 -0.0014638692 8.0335485e-21)
(7.8620196e-06 -0.0014581036 -1.6127199e-21)
(6.4366201e-06 -0.0014533682 -1.401925e-20)
(4.7820396e-06 -0.0014496643 -1.4516002e-20)
(2.9499939e-06 -0.0014469824 -2.0525804e-20)
(9.967073e-07 -0.0014453564 -3.1908114e-20)
(0.013736355 -0.051128335 -2.8564967e-18)
(0.018223095 -0.045013832 -2.4372331e-19)
(0.021539036 -0.038713838 -6.709793e-20)
(0.023729419 -0.032404006 -1.6704921e-18)
(0.024862514 -0.026247395 -2.823284e-18)
(0.025027378 -0.020391692 5.0109998e-19)
(0.02433141 -0.014966525 -7.7518909e-18)
(0.022897482 -0.010080877 -8.7432909e-18)
(0.020860563 -0.0058204907 -1.1667428e-18)
(0.01836436 -0.0022458279 -1.475647e-18)
(0.015558647 0.00061130751 -2.9584912e-18)
(0.01258788 0.0027437124 -3.6503624e-18)
(0.009591601 0.004170982 -1.2636699e-18)
(0.0066986451 0.0049402895 -1.1930745e-18)
(0.0040205976 0.005121031 -1.6361645e-18)
(0.0016477785 0.0048011636 -1.3238447e-18)
(-0.00035307758 0.0040806178 -1.3379467e-18)
(-0.0019407211 0.0030697519 -1.7452845e-19)
(-0.003101878 0.0018774524 7.6068648e-19)
(-0.0038480141 0.0006080695 2.7064554e-20)
(-0.0042116887 -0.00064201925 2.9198634e-20)
(-0.0042415277 -0.0017977548 5.0093637e-19)
(-0.0039999637 -0.0027991379 3.8796474e-19)
(-0.0035562646 -0.0036064132 2.0764371e-19)
(-0.0029800023 -0.0041994064 7.4810978e-19)
(-0.0023373232 -0.0045760391 5.5318257e-19)
(-0.0016867527 -0.0047496495 3.3385046e-19)
(-0.0010763528 -0.0047454903 3.2059341e-19)
(-0.00054190315 -0.0045969686 -2.9926025e-20)
(-0.00010658482 -0.0043418069 2.0577861e-19)
(0.00021834714 -0.0040192495 1.5874939e-19)
(0.00043289567 -0.0036653766 7.8697336e-20)
(0.00054605207 -0.0033113907 7.7518615e-20)
(0.00057309523 -0.0029822716 -1.2419893e-20)
(0.00053328111 -0.0026956375 -9.4293148e-20)
(0.00044737286 -0.0024617326 1.6970446e-20)
(0.00033564946 -0.0022838491 3.8817591e-20)
(0.00021606283 -0.002159441 -7.9763718e-20)
(0.00010297149 -0.0020815386 -7.068792e-20)
(6.5758085e-06 -0.0020406297 -6.1321007e-20)
(-6.7392594e-05 -0.0020256967 -5.0429141e-21)
(-0.00011720048 -0.00202644 -1.0610644e-20)
(-0.00014415665 -0.0020337678 -1.580489e-20)
(-0.00015171599 -0.0020406132 -1.5160782e-20)
(-0.00014451748 -0.0020421535 6.6235207e-21)
(-0.00012758196 -0.0020357811 7.9956298e-21)
(-0.00010562196 -0.0020208135 4.1930297e-20)
(-8.250873e-05 -0.0019980283 3.3020752e-20)
(-6.1013322e-05 -0.001969091 2.5055612e-20)
(-4.2774145e-05 -0.0019361252 3.0591745e-20)
(-2.8560428e-05 -0.0019011419 1.3725137e-20)
(-1.8368529e-05 -0.0018661208 2.5773103e-20)
(-1.1592314e-05 -0.0018323786 4.0951307e-20)
(-7.4112112e-06 -0.0018007887 1.0692842e-20)
(-4.9339859e-06 -0.0017717636 -5.2524828e-21)
(-3.3541368e-06 -0.001745334 1.0530766e-20)
(-2.0516374e-06 -0.0017212797 2.1647542e-20)
(-6.3125012e-07 -0.001699246 9.9266202e-21)
(1.1101837e-06 -0.0016788345 1.5386528e-20)
(3.2320911e-06 -0.0016596759 2.6139796e-20)
(5.6654749e-06 -0.0016414755 3.8093773e-20)
(8.2734209e-06 -0.001624029 3.9049323e-20)
(1.090071e-05 -0.0016072203 4.0243168e-20)
(1.3394597e-05 -0.001591005 3.2833505e-20)
(1.5634222e-05 -0.0015753894 2.6557152e-20)
(1.7532294e-05 -0.0015604111 2.4965478e-20)
(1.9028362e-05 -0.0015461241 2.067897e-20)
(2.0090647e-05 -0.0015325844 1.4650797e-20)
(2.0707252e-05 -0.0015198441 -1.8245143e-21)
(2.0877787e-05 -0.0015079489 1.7131674e-20)
(2.0609516e-05 -0.0014969383 2.9996234e-20)
(1.9913425e-05 -0.0014868476 2.6388422e-20)
(1.8802226e-05 -0.0014777099 1.6122474e-20)
(1.7292043e-05 -0.0014695581 1.4305673e-20)
(1.5403755e-05 -0.0014624245 -1.1581833e-21)
(1.3164975e-05 -0.0014563387 -1.1902144e-20)
(1.0613029e-05 -0.0014513229 -1.2822273e-20)
(7.7951902e-06 -0.0014473878 -1.8576231e-20)
(4.7688735e-06 -0.0014445321 -1.9813487e-20)
(1.602694e-06 -0.0014427985 -2.3052258e-20)
(0.020234851 -0.056619344 -2.3544729e-18)
(0.024996175 -0.049284699 -5.9509883e-20)
(0.028393215 -0.041785539 -9.0272827e-18)
(0.030483457 -0.034324047 3.3946596e-18)
(0.031350217 -0.027087928 -1.128823e-18)
(0.03110044 -0.020247365 -8.735233e-19)
(0.029862288 -0.013951964 9.0757764e-19)
(0.027782296 -0.0083277289 -4.1760113e-18)
(0.025021646 -0.0034726462 -3.6515578e-18)
(0.021753574 0.00054299265 2.5341183e-18)
(0.01815287 0.0036812921 1.2135868e-18)
(0.014397673 0.0059379494 6.9791419e-19)
(0.010656675 0.0073426047 1.5256523e-18)
(0.007084559 0.0079559283 -1.7151637e-18)
(0.0038159177 0.0078664384 -7.0840827e-19)
(0.00095739137 0.0071860498 -4.517274e-19)