/*--------------------------------*- C++ -*----------------------------------*\
| =========                 |                                                 |
| \\      /  F ield         | OpenFOAM: The Open Source CFD Toolbox           |
|  \\    /   O peration     | Version:  2106                                  |
|   \\  /    A nd           | Website:  www.openfoam.com                      |
|    \\/     M anipulation  |                                                 |
\*---------------------------------------------------------------------------*/
FoamFile
{
    version     2.0;
    format      ascii;
    arch        "LSB;label=32;scalar=64";
    class       volScalarField;
    location    "0.14";
    object      p;
}
// * * * * * * * * * * * * * * * * * * * * * * * * * * * * * * * * * * * * * //

dimensions      [1 -1 -2 0 0 0 0];

internalField   nonuniform List<scalar> 
32768
(
350.64726
350.6572
350.62301
350.5507
350.43728
350.28106
350.08192
349.83995
349.55538
349.22836
348.85906
348.44752
347.99372
347.49767
346.95943
346.37905
345.75645
345.09155
344.38425
343.63443
342.84202
342.00671
341.1287
340.2071
339.24284
338.23431
337.18192
336.08775
334.94162
333.7669
332.52048
331.2635
329.92934
328.55947
327.16491
325.67664
324.18504
322.64016
321.00789
319.37824
317.69097
315.91424
314.13588
312.30853
310.39833
308.46421
306.48726
304.45336
302.38052
300.25192
298.07593
295.87558
293.62702
291.31657
288.97256
286.60082
284.18228
281.72391
279.23686
276.70742
274.13561
271.54207
268.93077
266.28449
263.59196
260.89203
258.1753
255.40942
252.64
249.87271
247.06996
244.25733
241.43106
238.5725
235.73445
232.88846
230.0106
227.15494
224.29599
221.41799
218.55196
215.68572
212.81517
209.97674
207.13767
204.27719
201.46679
198.671
195.84825
193.07635
190.32785
187.5589
184.84651
182.16451
179.45847
176.79654
174.19147
171.57309
168.97308
166.44997
163.9528
161.44309
158.97695
156.57128
154.17174
151.78012
149.46423
147.19339
144.9119
142.68576
140.54258
138.39357
136.24076
134.1606
132.13871
130.11794
128.12575
126.2119
124.36285
122.51669
120.67797
118.90705
117.18642
115.4694
113.77584
112.12258
110.49478
108.888
107.30252
105.74837
104.24492
102.79288
101.37719
99.999174
98.664793
97.342233
96.003866
94.683057
93.41479
92.199424
91.025119
89.886338
88.80294
87.766812
86.728582
85.694778
84.714812
83.766835
82.832694
81.916765
80.99403
80.109339
79.328848
78.649375
78.077065
77.589592
76.977812
76.365578
75.93775
75.458159
74.846005
74.110424
73.498394
73.087709
72.754572
72.413632
72.191954
72.153743
72.263637
72.424757
72.614806
72.844526
73.042604
73.097904
73.018868
72.85554
72.525979
71.951331
71.168056
70.244282
69.184626
67.986606
66.629968
65.027904
63.081536
60.81746
58.352502
55.829623
53.016139
49.964732
47.480668
45.33291
43.255484
41.620696
39.672369
36.649864
33.420753
30.552083
27.734764
26.257574
26.159219
24.421389
18.881021
31.541675
2.3030215
1.0617844
1.0891822
1.0198749
0.86749452
0.75814714
0.67825912
0.61528083
0.56488914
0.52351191
0.48884734
0.45933629
0.43388011
0.41168703
0.3921588
0.37485024
0.35939211
0.34551178
0.33300125
0.32166857
0.31136371
0.30196434
0.29336726
0.28548514
0.27824372
0.2715794
0.26543768
0.25977059
0.25453788
0.24970363
0.24523608
0.2411075
0.2372935
0.23377287
0.23052578
0.22753546
0.2247869
0.22226629
0.21996422
0.21786796
0.21596808
0.2142566
0.21272625
0.21137084
0.21018365
0.20916102
0.20829859
0.20759291
0.20704201
0.20664326
0.20639567
0.20630488
341.89835
341.90669
341.87319
341.80177
341.68802
341.53152
341.33225
341.0903
340.80593
340.4791
340.1097
339.69786
339.24367
338.74723
338.20855
337.62761
337.0044
336.33885
335.63092
334.88042
334.08742
333.25136
332.37287
331.45033
330.4858
329.47607
328.42374
327.32784
326.18255
325.00427
323.76043
322.49967
321.16416
319.79903
318.39639
316.90998
315.42358
313.86273
312.24093
310.614
308.90665
307.14385
305.36877
303.51966
301.61882
299.69305
297.69842
295.66392
293.59832
291.46233
289.28266
287.08367
284.82788
282.51384
280.1757
277.80032
275.36959
272.91039
270.42794
267.89336
265.31527
262.72363
260.10917
257.45256
254.75892
252.0652
249.34156
246.56902
243.80336
241.02817
238.21981
235.41035
232.58016
229.72337
226.88818
224.02713
221.14784
218.29752
215.42776
212.55166
209.69098
206.81221
203.94112
201.11113
198.2566
195.39491
192.59641
189.78418
186.96407
184.20622
181.43183
178.66438
175.97507
173.26874
170.55514
167.92277
165.30439
162.6653
160.08968
157.57271
155.04439
152.53748
150.09835
147.68471
145.26205
142.88683
140.59155
138.29856
136.00314
133.80042
131.65672
129.48649
127.34294
125.28509
123.25676
121.21735
119.22588
117.33079
115.48111
113.62077
111.79862
110.04979
108.30727
106.56451
104.88668
103.2574
101.62922
100.01536
98.445046
96.909624
95.397761
93.921655
92.494485
91.123856
89.799496
88.486431
87.16578
85.855529
84.578085
83.343836
82.148072
80.998235
79.920905
78.897635
77.881863
76.867662
75.877607
74.917162
73.979861
73.055192
72.146445
71.295518
70.537211
69.85658
69.24387
68.685966
68.106236
67.533602
66.975269
66.389421
65.790234
65.235717
64.769749
64.393859
64.049363
63.786342
63.611962
63.591504
63.708163
63.877158
64.068496
64.271776
64.416307
64.432497
64.342948
64.158602
63.818217
63.27763
62.55194
61.651345
60.532438
59.215407
57.778762
56.122327
54.161475
51.835285
49.140188
46.631788
44.162012
41.196468
38.954154
36.913385
33.909908
31.704654
30.096204
27.771991
25.043171
22.322898
20.112271
17.955447
12.185938
10.591955
29.017996
4.7849183
0.27157397
0.80262725
0.96287325
0.88624142
0.79100804
0.71191557
0.64589739
0.59080997
0.54485369
0.50616328
0.47324339
0.44491446
0.42029247
0.39870664
0.37963162
0.36265745
0.34747392
0.33382357
0.32147872
0.3102791
0.30008615
0.29078026
0.28226135
0.27444503
0.26725938
0.26064265
0.25454159
0.24890965
0.24370756
0.23889982
0.2344553
0.23034692
0.22655077
0.2230459
0.21981245
0.21683441
0.21409719
0.21158788
0.2092928
0.20720311
0.20530946
0.20360342
0.20207776
0.20072598
0.19954331
0.19852427
0.19766473
0.1969616
0.1964119
0.19601436
0.19576825
0.19567774
333.13457
333.1424
333.10902
333.03762
332.92355
332.76669
332.56707
332.32481
332.04003
331.7129
331.34338
330.93155
330.47748
329.98116
329.44258
328.8617
328.23849
327.57286
326.86479
326.11405
325.32078
324.48425
323.60548
322.68206
321.71761
320.70609
319.65493
318.55566
317.41317
316.23
314.98924
313.7234
312.38797
311.02504
309.61287
308.13472
306.6424
305.07315
303.46404
301.82595
300.10904
298.36293
296.57341
294.71368
292.82941
290.88887
288.88454
286.86329
284.78523
282.63637
280.46726
278.26585
275.99047
273.67824
271.34601
268.956
266.51745
264.0658
261.5744
259.02217
256.44795
253.86382
251.23557
248.5631
245.87333
243.18247
240.43949
237.6646
234.91002
232.11924
229.30235
226.4944
223.65043
220.79794
217.967
215.08585
212.21293
209.36235
206.47408
203.60477
200.73792
197.84036
194.98782
192.1577
189.26864
186.42724
183.63815
180.7928
177.9926
175.23377
172.42352
169.68508
166.99959
164.2481
161.55206
158.95054
156.30629
153.65331
151.10165
148.58774
146.03115
143.52194
141.10847
138.68269
136.23352
133.89127
131.61826
129.28176
126.98842
124.82665
122.65426
120.45161
118.34724
116.31569
114.25924
112.21925
110.27096
108.38175
106.48542
104.60424
102.82061
101.09576
99.327275
97.566866
95.892166
94.271867
92.652501
91.034329
89.472955
87.983993
86.494493
84.983994
83.529045
82.167163
80.834226
79.492124
78.181809
76.919107
75.665932
74.418724
73.216326
72.079892
70.999531
69.946197
68.921757
67.935026
66.961335
65.993251
65.047117
64.14154
63.28132
62.457485
61.665193
60.915897
60.248442
59.66905
59.1111
58.52837
57.941287
57.37547
56.821825
56.300788
55.855433
55.499332
55.222528
55.021512
54.915543
54.94431
55.062206
55.213464
55.438902
55.692909
55.811624
55.810464
55.801953
55.693999
55.360617
54.871661
54.195116
53.264173
52.064375
50.649634
49.013177
47.176116
45.384055
43.193054
40.599922
38.123019
35.679359
32.274342
29.383365
27.957864
24.536341
23.029257
22.128895
17.529918
14.11749
11.076208
8.5706678
3.8300147
3.5165492
25.629099
7.9567442
0.5445591
0.56208709
0.70221578
0.76162934
0.74210104
0.69777789
0.64721732
0.59862387
0.55467796
0.51589249
0.48197674
0.45228928
0.42623046
0.40325654
0.38288659
0.36473739
0.34848174
0.33386001
0.3206536
0.30867495
0.2977759
0.28782996
0.27872936
0.2703828
0.26271229
0.25565082
0.24914058
0.24313127
0.23758076
0.23244736
0.22769882
0.22330672
0.21924461
0.21548916
0.21201952
0.20881852
0.20586937
0.20315741
0.2006701
0.19839515
0.19632303
0.19444484
0.19275249
0.19123874
0.18989741
0.18872333
0.18771167
0.18685853
0.18616047
0.1856147
0.18521966
0.18497517
0.18488392
324.35629
324.36367
324.33017
324.25856
324.1441
323.98674
323.78658
323.54372
323.25829
322.9304
322.56007
322.14734
321.69224
321.1948
320.65502
320.07289
319.44837
318.7814
318.07192
317.31975
316.52498
315.68694
314.80654
313.88155
312.91533
311.90202
310.84939
309.74724
308.605
307.41638
306.17787
304.90552
303.56929
302.20596
300.7849
299.31058
297.81291
296.23628
294.63052
292.98626
291.25969
289.5177
287.72145
285.85184
283.96785
282.0203
280.0104
277.98534
275.89641
273.74125
271.57392
269.36238
267.07077
264.75907
262.42246
260.02043
257.5749
255.11997
252.61464
250.04935
247.47813
244.89084
242.24525
239.56016
236.86975
234.17275
231.40959
228.63721
225.88684
223.07177
220.249
217.43491
214.5725
211.73011
208.89554
205.99231
203.1308
200.26766
197.35577
194.49776
191.61642
188.70334
185.87572
183.02882
180.10978
177.29618
174.49132
171.61549
168.84772
166.06651
163.2299
160.53471
157.82786
155.04091
152.38404
149.77461
147.09117
144.46961
141.94122
139.38027
136.81388
134.34328
131.92094
129.45944
127.02634
124.72582
122.43438
120.05679
117.78765
115.65457
113.45723
111.23936
109.16957
107.15023
105.05682
103.02323
101.14515
99.271589
97.306169
95.401978
93.659318
91.932168
90.143023
88.421156
86.781892
85.127935
83.478866
81.888345
80.341141
78.825532
77.346188
75.876149
74.437481
73.07579
71.738592
70.379203
69.042487
67.775436
66.556339
65.349035
64.166267
63.041675
61.962966
60.894537
59.856009
58.849168
57.857433
56.901886
55.977992
55.078056
54.220445
53.427763
52.688393
51.95466
51.22797
50.560204
49.93857
49.334232
48.784148
48.262767
47.71733
47.222378
46.82716
46.5136
46.297145
46.149969
46.084567
46.161076
46.333586
46.519422
46.776113
47.067859
47.208751
47.277631
47.309476
47.155294
46.716819
46.338929
45.846019
44.938981
43.574615
42.063495
40.510781
38.668372
37.157629
34.710657
31.213564
28.828766
26.517601
22.049818
18.98205
20.286718
13.151421
6.8529732
10.805095
13.244687
5.1249927
2.4539925
7.8654739
5.1592677
2.6428558
0.10248065
-0.42994182
0.10646742
0.33122296
0.50747081
0.59316374
0.61088444
0.59947291
0.57340972
0.54217495
0.51033686
0.48000428
0.45201996
0.42659752
0.40365846
0.38299758
0.36438173
0.34758009
0.33238825
0.31860682
0.30606481
0.29463242
0.28418515
0.27461331
0.26582527
0.25774215
0.25029528
0.24342489
0.23707875
0.23121124
0.2257816
0.22075565
0.21610217
0.21179288
0.20780335
0.20411193
0.20069915
0.1975482
0.19464331
0.19197063
0.18951776
0.18727415
0.18522992
0.18337621
0.18170538
0.18021048
0.17888558
0.17772548
0.17672565
0.17588233
0.17519221
0.17465267
0.17426213
0.17402058
0.17393015
315.5636
315.57061
315.53679
315.46471
315.34969
315.19166
314.99074
314.74706
314.46073
314.13183
313.76045
313.34661
312.89035
312.39169
311.85063
311.26717
310.64126
309.97285
309.26189
308.50819
307.71182
306.87214
305.98998
305.06321
304.09507
303.07972
302.02521
300.92042
299.77678
298.58444
297.34516
296.06828
294.7301
293.36409
291.93618
290.46407
288.95847
287.37622
285.7738
284.11688
282.3854
280.64585
278.83743
276.95983
275.07541
273.119
271.10051
269.06983
266.97
264.80951
262.63737
260.41172
258.10841
255.79314
253.4475
251.03521
248.5766
246.11474
243.59808
241.02207
238.44678
235.84643
233.18672
230.49148
227.79504
225.08876
222.30881
219.53716
216.7745
213.93647
211.12045
208.28808
205.40791
202.5792
199.72399
196.8031
193.95958
191.06689
188.14061
185.30034
182.38444
179.46566
176.66277
173.78124
170.85272
168.0654
165.22086
162.33726
159.59465
156.77193
153.93164
151.26431
148.52464
145.72226
143.09847
140.49687
137.76991
135.13259
132.65606
130.08315
127.4523
125.02241
122.6467
120.11528
117.66947
115.44803
113.13813
110.72225
108.49656
106.35615
104.10497
101.92209
99.917655
97.87964
95.750221
93.714527
91.845282
90.006882
88.080354
86.176127
84.395447
82.627381
80.836525
79.155821
77.566352
75.932676
74.249689
72.638605
71.136491
69.625275
68.075814
66.597017
65.216853
63.880574
62.545189
61.215071
59.918145
58.657756
57.409685
56.173621
54.981878
53.862916
52.788619
51.719337
50.688327
49.697891
48.727439
47.776531
46.846424
45.958189
45.109445
44.297719
43.532327
42.790821
42.098671
41.475484
40.813979
40.114659
39.533404
39.064127
38.616111
38.203512
37.84324
37.545103
37.313013
37.160856
37.150505
37.266508
37.450673
37.75895
38.18939
38.546044
38.624152
38.803196
38.996307
38.889815
38.31775
37.666756
37.159203
36.466948
35.409298
33.85373
32.068054
29.764253
28.320227
26.07878
22.60833
21.097304
18.856248
10.847827
8.1396928
9.379238
2.3624273
3.9710078
5.44427
-0.24758714
-0.39694374
-0.34656951
-0.28977303
-0.22525208
-0.26170259
-0.32657064
-0.25116333
0.020199497
0.23159141
0.37742931
0.46448334
0.50013028
0.50800352
0.49965738
0.48274886
0.46193884
0.43992609
0.41816594
0.39742783
0.37804859
0.36011104
0.34360387
0.32845951
0.31457603
0.3018481
0.29016991
0.2794437
0.26957834
0.26049209
0.25211256
0.24437537
0.23722328
0.23060556
0.22447712
0.2187982
0.21353247
0.20864961
0.20412188
0.19992308
0.19603092
0.19242557
0.18908911
0.18600561
0.1831606
0.18054116
0.1781357
0.17593415
0.17392709
0.17210622
0.17046423
0.16899483
0.16769243
0.16655151
0.16556779
0.16473788
0.16405869
0.1635277
0.16314346
0.16290595
0.1628172
306.75671
306.76329
306.72899
306.65627
306.5405
306.38163
306.17977
305.93505
305.64759
305.31748
304.94479
304.52958
304.07186
303.57168
303.02901
302.44387
301.8162
301.14595
300.43305
299.67734
298.87884
298.03702
297.15249
296.22347
295.25262
294.23489
293.1774
292.06979
290.92348
289.72715
288.48586
287.20419
285.86266
284.49328
283.05841
281.58576
280.07228
278.48437
276.88127
275.21047
273.478
271.7331
269.91049
268.03103
266.13865
264.16806
262.14687
260.10589
257.98748
255.82808
253.64557
251.3977
249.08828
246.76568
244.40516
241.98078
239.50759
237.03523
234.50193
231.92058
229.33637
226.71235
224.03848
221.33368
218.63046
215.90635
213.1136
210.34197
207.5481
204.69368
201.88772
199.02317
196.13888
193.31785
190.42133
187.49185
184.66092
181.73127
178.80361
175.97932
173.02299
170.10302
167.3119
164.37416
161.45031
158.68842
155.78945
152.92369
150.20617
147.32499
144.50146
141.85039
139.05241
136.25672
133.64982
131.01354
128.29942
125.68583
123.17026
120.58786
117.98553
115.54201
113.14764
110.62931
108.20157
105.97312
103.62161
101.21289
99.053077
96.924049
94.60511
92.410896
90.468349
88.433893
86.303523
84.32929
82.431017
80.479926
78.579161
76.80584
75.047635
73.223722
71.41766
69.727269
68.105911
66.491558
64.880657
63.277015
61.747873
60.283998
58.770343
57.243069
55.825572
54.498143
53.154757
51.815923
50.562381
49.374823
48.18288
46.98054
45.758772
44.561213
43.435736
42.352702
41.320272
40.325437
39.386039
38.494836
37.605127
36.747048
35.904959
35.091556
34.335713
33.55838
32.817627
32.192566
31.542228
30.856903
30.296866
29.819496
29.343714
28.906171
28.515775
28.197708
28.005568
27.964934
28.085037
28.31069
28.58606
28.975004
29.501238
30.044481
30.202897
30.447739
30.38648
30.184995
30.10915
29.874082
29.326244
28.3745
26.819692
25.071707
23.25322
19.852828
20.493741
18.061223
8.4113597
5.2176167
6.7223926
6.3579081
9.6501567
7.4486621
0.49496547
-0.38219702
-0.2918148
-0.16116318
-0.13910518
-0.18369552
-0.23387908
-0.25635579
-0.26938277
-0.21059756
-0.11248557
0.034540382
0.17705135
0.29152445
0.36610547
0.4081032
0.42697874
0.43044941
0.42431877
0.41261389
0.39798613
0.38211743
0.36601922
0.35027798
0.33522366
0.32101744
0.307718
0.29532094
0.2838062
0.27312709
0.26322684
0.25405019
0.24554287
0.23765316
0.23033289
0.22353772
0.21722715
0.21136438
0.20591604
0.20085245
0.19614665
0.19177291
0.1877101
0.18393833
0.18043962
0.17719776
0.17419822
0.17142785
0.16887482
0.16652848
0.16437933
0.16241877
0.16063909
0.15903343
0.15759598
0.15632108
0.15520396
0.15424073
0.15342793
0.15276258
0.15224249
0.15186609
0.15163364
0.15154689
297.93587
297.94197
297.90706
297.8335
297.71681
297.55691
297.35391
297.10795
296.81915
296.48759
296.11335
295.69649
295.23705
294.73504
294.19047
293.60331
292.97355
292.3011
291.58591
290.82782
290.0268
289.18242
288.2951
287.36339
286.38936
285.36884
284.30769
283.19708
282.04694
280.84675
279.60225
278.3151
276.97051
275.59549
274.15418
272.68026
271.15562
269.56455
267.95733
266.2709
264.53893
262.78573
260.94613
259.06626
257.16263
255.17559
253.15208
251.09459
248.9599
246.80161
244.59879
242.32651
240.01928
237.68267
235.29868
232.85921
230.37628
227.89137
225.33342
222.74803
220.14871
217.49525
214.81326
212.09859
209.38331
206.62843
203.82926
201.05404
198.21602
195.36423
192.56175
189.65064
186.77255
183.94406
180.9956
178.0791
175.24492
172.27536
169.35789
166.52985
163.5433
160.63633
157.83051
154.8446
151.93716
149.16123
146.22073
143.38917
140.65859
137.74609
134.94646
132.28244
129.45397
126.67117
124.08995
121.39573
118.62924
116.10712
113.61104
110.90992
108.34464
106.00581
103.50698
100.92996
98.62539
96.391844
93.949489
91.574182
89.445726
87.287211
85.000601
82.84999
80.865612
78.798472
76.703945
74.781776
72.93872
70.947761
68.965185
67.216829
65.506834
63.686207
61.899438
60.256218
58.62284
56.925136
55.297564
53.775936
52.252939
50.749408
49.350409
47.928022
46.454897
45.071176
43.722015
42.338292
41.055146
39.869764
38.692571
37.569832
36.461468
35.320566
34.162324
33.004146
31.926361
30.924304
29.969834
29.029868
28.135496
27.347804
26.565561
25.782065
25.044613
24.27495
23.568666
22.96411
22.243063
21.509306
21.033405
20.627687
20.11958
19.644262
19.199966
18.730624
18.391798
18.319674
18.5084
18.86982
19.360485
20.00282
20.684229
21.477761
21.943493
22.100105
21.917355
21.63212
21.549207
20.804219
20.499224
20.475128
19.226601
17.68309
15.360391
9.7929902
10.703902
11.149852
5.2588718
3.8936865
0.66855667
0.0077962482
-0.28044279
-0.23150446
-0.12144071
-0.18616011
-0.21965343
-0.18380175
-0.18012482
-0.2004629
-0.20588308
-0.20087354
-0.191033
-0.13631424
-0.057201584
0.041630354
0.14217182
0.22826284
0.29167268
0.33330939
0.35716625
0.36779847
0.36919672
0.36448934
0.35597398
0.34525959
0.33342686
0.32117879
0.3089834
0.2971164
0.28573137
0.27491959
0.26471311
0.25511731
0.2461253
0.23771533
0.22985802
0.22252218
0.21567636
0.20928962
0.20333225
0.1977763
0.19259562
0.18776631
0.18326544
0.17907278
0.17516987
0.17153961
0.16816638
0.16503601
0.16213562
0.15945352
0.15697908
0.15470273
0.1526158
0.15071048
0.14897975
0.14741734
0.14601755
0.14477547
0.14368693
0.14274812
0.14195572
0.14130701
0.14079984
0.14043291
0.14020644
0.14012213
289.10136
289.10692
289.07126
288.99671
288.87892
288.7178
288.51347
288.26607
287.9757
287.64246
287.26643
286.84766
286.3862
285.88207
285.33527
284.74577
284.11355
283.43855
282.72067
281.95979
281.15585
280.30847
279.41791
278.48304
277.50535
276.48152
275.4162
274.30197
273.14748
271.94269
270.69435
269.40119
268.05246
266.67138
265.22313
263.74553
262.21013
260.6155
258.99984
257.30055
255.56695
253.80096
251.94533
250.06503
248.1457
246.14043
244.11391
242.03665
239.88987
237.72003
235.49664
233.20627
230.89565
228.53513
226.12978
223.67473
221.17948
218.67659
216.09402
213.49954
210.87989
208.19821
205.50853
202.78139
200.04898
197.25347
194.45397
191.66796
188.78285
185.94323
183.12529
180.17331
177.30194
174.45585
171.45516
168.55673
165.70811
162.70784
159.78254
156.94476
153.92974
151.02752
148.2209
145.19239
142.31094
139.51962
136.52261
133.71541
130.9597
128.00824
125.23532
122.55269
119.699
116.93322
114.36478
111.65912
108.85891
106.33535
103.86895
101.14909
98.537783
96.228691
93.744265
91.13983
88.852866
86.612648
84.145892
81.819049
79.730783
77.493125
75.171646
73.13996
71.165922
68.994925
66.955265
65.098231
63.195662
61.236531
59.320855
57.50955
55.776019
54
52.192504
50.550058
49.011189
47.354959
45.657498
44.09401
42.614954
41.101498
39.66703
38.336895
36.951727
35.576359
34.234531
32.842589
31.537579
30.342672
29.090313
27.865056
26.735057
25.694517
24.727586
23.635558
22.519487
21.503521
20.556947
19.586324
18.646186
17.782674
16.916088
16.168105
15.52977
14.7727
14.140931
13.561002
12.749604
11.972276
11.579489
11.228348
10.762427
10.299437
9.8295311
9.314052
9.1527578
9.2211409
9.565046
10.047244
10.625521
11.35994
12.13884
13.132424
13.816724
13.604358
13.648036
12.834786
12.874639
12.178729
11.172383
11.456172
9.0893273
5.6251213
3.7844302
3.1761978
10.046004
5.7718961
-0.079485487
-0.17003235
-0.13623432
-0.12986938
-0.20739444
-0.21954205
-0.19556893
-0.20704065
-0.20465514
-0.18447051
-0.18106578
-0.18445435
-0.17940742
-0.16643262
-0.14329527
-0.097472703
-0.034026471
0.039562211
0.11413416
0.18076952
0.23385223
0.27231016
0.29757451
0.31208766
0.3184008
0.31878481
0.31506886
0.30864729
0.30054135
0.29148275
0.28197793
0.27236542
0.26287404
0.25365028
0.24478143
0.23631812
0.2282871
0.22069588
0.21353813
0.20680282
0.20047492
0.1945367
0.18896931
0.18375365
0.17887094
0.17430315
0.17003291
0.16604411
0.16232165
0.15885147
0.15562052
0.1526168
0.14982925
0.14724776
0.14486304
0.14266665
0.14065092
0.13880889
0.13713425
0.13562136
0.13426507
0.13306094
0.13200522
0.13109434
0.13032529
0.12969564
0.12920337
0.12884745
0.12862785
0.12854654
280.25355
280.25847
280.22195
280.14626
280.02719
279.86467
279.65882
279.40976
279.11761
278.78246
278.40438
277.98345
277.51969
277.01313
276.46378
275.87161
275.2366
274.55866
273.83773
273.07367
272.2664
271.4156
270.52139
269.58287
268.60109
267.57343
266.50346
265.38509
264.22557
263.0158
261.76275
260.4629
259.11002
257.72081
256.26663
254.78273
253.23587
251.63856
250.01022
248.30006
246.56264
244.7795
242.91102
241.0268
239.08707
237.06542
235.03543
232.92986
230.77503
228.58913
226.34219
224.03435
221.71488
219.32746
216.90085
214.42625
211.91936
209.38971
206.78618
204.17508
201.52908
198.82497
196.12688
193.37732
190.62132
187.79065
184.99163
182.18094
179.26147
176.42773
173.56455
170.59357
167.7377
164.84881
161.81837
158.91903
156.05032
153.0306
150.07761
147.23813
144.20485
141.25983
138.47015
135.43084
132.53085
129.74005
126.73347
123.90231
121.13057
118.1586
115.36877
112.69441
109.80641
107.04961
104.47882
101.7129
98.958372
96.475846
93.914185
91.206141
88.693046
86.299446
83.725888
81.238501
78.99462
76.64783
74.198944
71.920771
69.819242
67.5862
65.257057
63.217986
61.299105
59.118043
57.022552
55.257565
53.359556
51.322301
49.520829
47.758034
45.913907
44.142231
42.428542
40.756151
39.134598
37.549943
35.990574
34.403873
32.822757
31.351666
29.975595
28.562937
27.151011
25.930739
24.679883
23.227418
21.949787
20.815047
19.599706
18.356317
17.08338
15.846566
14.861908
13.855009
12.853447
11.960366
11.057594
10.109828
9.1437962
8.3237825
7.3840985
6.4749929
5.8828358
4.9210423
4.4871765
3.9341509
3.3211473
2.8934015
2.6718816
2.488716
2.3168877
2.1203314
1.7948701
1.3474434
1.0319695
1.1289603
1.6096927
2.1000501
2.4001929
2.7743446
3.6684535
5.0811205
6.1596306
5.9675356
4.5622272
2.864677
1.9041118
1.863969
2.9862635
6.4410567
9.2532764
5.3993751
0.24345753
-0.8547113
-0.68536261
-0.37693197
-0.34826121
-0.3162009
-0.25019226
-0.24105384
-0.24373693
-0.22452984
-0.21192739
-0.20905471
-0.2009455
-0.1881446
-0.18073591
-0.17434218
-0.16281317
-0.14472576
-0.11741001
-0.075911214
-0.024998251
0.032092902
0.089819508
0.14281584
0.18727699
0.22176902
0.24655815
0.26283372
0.27215193
0.2760733
0.27597433
0.27299247
0.2680226
0.26174743
0.25466931
0.24715519
0.23946903
0.23178929
0.22424653
0.21692266
0.20987046
0.20312013
0.19668857
0.19058273
0.184802
0.17934085
0.1741907
0.16934107
0.16478038
0.16049661
0.15647763
0.15271156
0.14918691
0.14589271
0.14281857
0.13995473
0.13729207
0.13482213
0.13253705
0.1304296
0.12849316
0.12672169
0.1251097
0.1236522
0.12234459
0.12118293
0.12016386
0.11928433
0.11854153
0.11793321
0.11745776
0.11711401
0.11690212
0.11682421
271.39281
271.39702
271.35952
271.28252
271.16202
270.99792
270.79035
270.53944
270.24528
269.90798
269.52762
269.10425
268.63791
268.12863
267.57642
266.98125
266.34309
265.66187
264.93751
264.16988
263.35887
262.50422
261.60594
260.66331
259.67701
258.64501
257.56993
256.44685
255.28178
254.06641
252.80807
251.50084
250.14321
248.7451
247.28449
245.79251
244.23436
242.63301
240.98946
239.27018
237.52551
235.72158
233.84518
231.94917
229.98905
227.95178
225.91143
223.78073
221.61375
219.40612
217.1344
214.8167
212.47384
210.05497
207.61467
205.11331
202.59773
200.02732
197.40387
194.77703
192.10059
189.37158
186.66432
183.88409
181.09751
178.24448
175.44109
172.5955
169.64304
166.81021
163.903
160.92245
158.03932
155.11469
152.08542
149.16203
146.28799
143.22153
140.25826
137.42026
134.34486
131.38629
128.581
125.50559
122.61786
119.81065
116.76769
113.96056
111.17607
108.15962
105.38315
102.71089
99.762849
97.022972
94.478598
91.625686
88.870484
86.435856
83.822548
81.086329
78.647461
76.283983
73.630994
71.109996
68.939317
66.568703
64.100303
61.87493
59.726915
57.464685
55.244079
53.211003
51.194975
49.098107
47.068159
45.211206
43.315415
41.339259
39.503098
37.806236
36.040863
34.157258
32.388315
30.889795
29.275863
27.482997
26.028005
24.636791
22.979259
21.427125
20.160655
18.828378
17.248167
15.879484
14.792254
13.358511
12.037719
11.031264
9.8152424
8.6870423
7.5985597
5.9788706
5.0505188
3.7491508
3.2166362
2.9156585
2.5716397
2.159192
1.7501723
1.4308334
1.0777756
0.74249743
0.44798857
0.076118024
-0.25550907
-0.47801877
-0.57403894
-0.59366464
-0.5794128
-0.55523512
-0.52414968
-0.48715748
-0.45514908
-0.43193315
-0.41415517
-0.40318918
-0.398907
-0.39830446
-0.40975311
-0.42934037
-0.44655098
-0.45495496
-0.46477918
-0.45707942
-0.41695155
-0.37190901
-0.36045965
-0.40213673
-0.50106959
-0.57911467
-0.58135523
-0.50347157
-0.45161212
-0.53156868
-0.56623172
-0.46795971
-0.40754958
-0.34154118
-0.28820163
-0.26587858
-0.25386462
-0.23685022
-0.22379498
-0.21411067
-0.20328451
-0.19109232
-0.18000783
-0.16786025
-0.15232353
-0.13117767
-0.10343948
-0.067091576
-0.024703297
0.021298856
0.067589019
0.11081812
0.14839698
0.17901206
0.20244941
0.21922017
0.23022688
0.23649844
0.23903436
0.23872141
0.23630617
0.23239184
0.22744402
0.22182379
0.21580458
0.20958794
0.20332057
0.19710796
0.19102169
0.18511099
0.17941324
0.17394982
0.16873217
0.16376557
0.15905076
0.15458523
0.1503642
0.14638143
0.14262975
0.13910148
0.13578874
0.13268365
0.12977848
0.12706573
0.12453825
0.12218934
0.12001254
0.11800189
0.11615188
0.11445744
0.11291383
0.11151679
0.11026243
0.10914752
0.10816886
0.10732365
0.10660962
0.10602484
0.1055677
0.10523735
0.10503396
0.1049598
262.51961
262.523
262.4844
262.40595
262.28385
262.118
261.90852
261.65554
261.35917
261.01949
260.63658
260.21051
259.74132
259.22903
258.67364
258.07514
257.4335
256.74864
256.02048
255.2489
254.43376
253.57484
252.67207
251.72488
250.73365
249.69677
248.61619
247.48784
246.31669
245.09527
243.83076
242.51594
241.15256
239.74494
238.27773
236.77544
235.20678
233.59894
231.93896
230.21109
228.45647
226.62858
224.7479
222.83458
220.84888
218.80375
216.74313
214.58663
212.40587
210.17519
207.87619
205.54627
203.17229
200.7238
198.27174
195.73441
193.2055
190.59051
187.95421
185.30701
182.59038
179.8312
177.12058
174.31342
171.47757
168.6256
165.78145
162.90127
159.95474
157.06277
154.12286
151.16657
148.21954
145.29488
142.24111
139.26319
136.41039
133.27397
130.33697
127.51087
124.31583
121.40393
118.61101
115.41753
112.55189
109.7898
106.64446
103.83987
101.08556
98.004906
95.254935
92.571577
89.570913
86.83658
84.304414
81.429532
78.676262
76.230927
73.567084
70.862315
68.425611
66.018699
63.444741
60.930029
58.640327
56.303729
53.901225
51.648709
49.490083
47.22903
45.011841
43.077129
41.022057
38.824864
36.991947
35.136789
33.026934
31.206655
29.447314
27.578976
25.923866
24.178148
22.270471
20.715893
19.310865
17.493318
15.813633
14.520432
13.069041
11.449239
10.054077
8.8968308
7.1832109
5.6681325
4.6137117
3.5125978
2.9201882
2.474385
2.0153881
1.5243353
1.0369526
0.54206653
0.1739129
-0.15449381
-0.26364173
-0.23796006
-0.22448572
-0.22757153
-0.23565671
-0.24914669
-0.27340902
-0.30799476
-0.35430771
-0.41608224
-0.48189928
-0.53785825
-0.57849731
-0.60259809
-0.59754037
-0.56527553
-0.52228973
-0.47805124
-0.44088707
-0.41508281
-0.40021635
-0.39238806
-0.3839601
-0.38784809
-0.41026556
-0.43986097
-0.46956043
-0.49110769
-0.49269046
-0.47115046
-0.41110317
-0.36006075
-0.347509
-0.37377639
-0.45578248
-0.54007455
-0.5768184
-0.55067221
-0.53431321
-0.56026535
-0.51512554
-0.45060847
-0.40258328
-0.3530209
-0.31185011
-0.28488718
-0.26569962
-0.2482239
-0.23324739
-0.22002354
-0.2068818
-0.19338438
-0.17969815
-0.16442155
-0.14637973
-0.12467185
-0.097996916
-0.065841528
-0.029777817
0.0084332172
0.046664871
0.082749021
0.114901
0.1420475
0.16381622
0.18036468
0.19218424
0.19994205
0.20433687
0.20604598
0.20566624
0.20370606
0.2005813
0.19663083
0.19211833
0.18724857
0.1821755
0.17702014
0.171866
0.16678002
0.16181006
0.15698878
0.15233848
0.1478739
0.14360399
0.13953336
0.13566344
0.13199333
0.12852052
0.12524133
0.12215137
0.11924572
0.11651927
0.11396665
0.11158282
0.10936296
0.10730176
0.10539458
0.1036371
0.10202538
0.10055533
0.099223384
0.098026686
0.096961886
0.096026564
0.095218302
0.094535259
0.093975824
0.093538509
0.093222697
0.093028536
0.092958433
253.63444
253.63688
253.59706
253.51702
253.39317
253.22539
253.01382
252.75858
252.45977
252.11747
251.73178
251.30275
250.83042
250.31482
249.75596
249.15381
248.50834
247.81949
247.08717
246.31125
245.49161
244.62801
243.72035
242.76814
241.77155
240.72935
239.64279
238.50873
237.33093