/*--------------------------------*- C++ -*----------------------------------*\
| =========                 |                                                 |
| \\      /  F ield         | OpenFOAM: The Open Source CFD Toolbox           |
|  \\    /   O peration     | Version:  2106                                  |
|   \\  /    A nd           | Website:  www.openfoam.com                      |
|    \\/     M anipulation  |                                                 |
\*---------------------------------------------------------------------------*/
FoamFile
{
    version     2.0;
    format      ascii;
    arch        "LSB;label=32;scalar=64";
    class       volVectorField;
    location    "0.14";
    object      U;
}
// * * * * * * * * * * * * * * * * * * * * * * * * * * * * * * * * * * * * * //

dimensions      [0 1 -1 0 0 0 0];

internalField   nonuniform List<vector> 
32768
(
(0.001058323 -0.001349746 0)
(0.004906721 -0.0018126974 0)
(0.0094582917 -0.0019452972 0)
(0.014173159 -0.0020096806 0)
(0.018919906 -0.0020289275 0)
(0.023687141 -0.0020341313 0)
(0.028465308 -0.0020375267 0)
(0.033250368 -0.0020429878 0)
(0.038047302 -0.0020484649 0)
(0.04286791 -0.0020827213 0)
(0.047707319 -0.002126207 0)
(0.052563986 -0.0021719184 0)
(0.057437436 -0.0022171076 0)
(0.062327661 -0.0022609951 0)
(0.067235194 -0.0023028151 0)
(0.072161331 -0.002342047 0)
(0.077107772 -0.0023789824 0)
(0.082076114 -0.0024141 0)
(0.087068165 -0.0024480145 0)
(0.092085103 -0.0024807647 0)
(0.097129782 -0.0025135442 0)
(0.10220128 -0.0025446558 0)
(0.10730699 -0.0025784437 0)
(0.11243755 -0.0026071284 0)
(0.1176148 -0.0026448496 0)
(0.12280763 -0.0026696625 0)
(0.12806595 -0.0027121964 0)
(0.1333303 -0.0027378773 0)
(0.13866695 -0.00277328 0)
(0.14402657 -0.0028215536 0)
(0.14943021 -0.0028213621 0)
(0.15489541 -0.0029178064 0)
(0.16039279 -0.002875805 0)
(0.16594499 -0.0029867437 0)
(0.17152601 -0.0029946136 0)
(0.1772325 -0.002993782 0)
(0.18287209 -0.0031241412 0)
(0.18863804 -0.0030811949 0)
(0.19453929 -0.0031317009 0)
(0.20028595 -0.0032406008 0)
(0.20620719 -0.0031988882 0)
(0.21231789 -0.003258067 0)
(0.21824959 -0.0033575179 0)
(0.2242535 -0.0033219642 0)
(0.23051117 -0.0033810358 0)
(0.23673344 -0.0034792561 0)
(0.24289224 -0.0034532293 0)
(0.24915361 -0.0034869317 0)
(0.25555215 -0.0035878625 0)
(0.2620224 -0.0036075787 0)
(0.26844789 -0.0036073985 0)
(0.27485247 -0.0036668601 0)
(0.28138849 -0.0037185212 0)
(0.28805736 -0.0037422118 0)
(0.29473627 -0.0037902529 0)
(0.30138116 -0.0038275154 0)
(0.30802876 -0.0038244735 0)
(0.31474125 -0.0038560412 0)
(0.321571 -0.0039380148 0)
(0.32848411 -0.0039811394 0)
(0.33537616 -0.0039695439 0)
(0.34220733 -0.0039802153 0)
(0.34904091 -0.0040259023 0)
(0.35597361 -0.0040608874 0)
(0.36300936 -0.0040874711 0)
(0.37005352 -0.0041410795 0)
(0.3771136 -0.0041632684 0)
(0.38419615 -0.0041514602 0)
(0.39119227 -0.0041632961 0)
(0.39816186 -0.0041812803 0)
(0.40523901 -0.0042176424 0)
(0.41240101 -0.0042785368 0)
(0.41963553 -0.0043028475 0)
(0.42687663 -0.0043040122 0)
(0.43399837 -0.0043166822 0)
(0.44109096 -0.0043017209 0)
(0.44822806 -0.0043140963 0)
(0.45536398 -0.0043621153 0)
(0.4625619 -0.0043840095 0)
(0.46984477 -0.0044179347 0)
(0.4771293 -0.0044535648 0)
(0.48438157 -0.0044363747 0)
(0.4916003 -0.004423293 0)
(0.49878486 -0.0044563569 0)
(0.50599568 -0.004454098 0)
(0.51322597 -0.0044491996 0)
(0.520398 -0.004488758 0)
(0.52759907 -0.004488485 0)
(0.53486843 -0.0044952189 0)
(0.54206664 -0.0045378888 0)
(0.54924172 -0.0045127046 0)
(0.55647926 -0.0045001534 0)
(0.56368143 -0.0045528656 0)
(0.57085865 -0.0045383943 0)
(0.57807218 -0.004501668 0)
(0.58523655 -0.0045350702 0)
(0.59233589 -0.0045334809 0)
(0.59943076 -0.0044790427 0)
(0.60645791 -0.0044820044 0)
(0.61339287 -0.0045134316 0)
(0.62037721 -0.0045000164 0)
(0.62747807 -0.0044972425 0)
(0.63460232 -0.0045378062 0)
(0.6416747 -0.0045447764 0)
(0.64869424 -0.0044887237 0)
(0.65563526 -0.0044540375 0)
(0.66245445 -0.0044617052 0)
(0.66919782 -0.0044283642 0)
(0.67593498 -0.0043729709 0)
(0.68265898 -0.0043801037 0)
(0.68940034 -0.0044088675 0)
(0.69623922 -0.0043987176 0)
(0.70312716 -0.004375717 0)
(0.70991768 -0.0043571138 0)
(0.71654052 -0.0043151845 0)
(0.72300409 -0.0042503983 0)
(0.7293383 -0.0042000677 0)
(0.73559408 -0.0042063604 0)
(0.7418545 -0.0042113176 0)
(0.7482004 -0.0041961852 0)
(0.75462701 -0.0041853944 0)
(0.7610643 -0.0042189466 0)
(0.76750035 -0.0042100073 0)
(0.77393578 -0.0041283697 0)
(0.78030304 -0.0040424998 0)
(0.78655391 -0.0039873418 0)
(0.79270245 -0.0039346406 0)
(0.79874435 -0.0038647783 0)
(0.8046283 -0.0038099664 0)
(0.81030497 -0.0037862314 0)
(0.81578412 -0.0037635655 0)
(0.82113979 -0.0037188503 0)
(0.8265003 -0.0036838418 0)
(0.83202579 -0.0036924994 0)
(0.83781497 -0.0037424296 0)
(0.8438259 -0.0037753648 0)
(0.8498989 -0.0037933804 0)
(0.85582536 -0.0037181076 0)
(0.86141594 -0.0035568227 0)
(0.86658327 -0.00333885 0)
(0.87141717 -0.0031968558 0)
(0.87613484 -0.003145323 0)
(0.88093664 -0.0031720575 0)
(0.8859257 -0.00319897 0)
(0.89109641 -0.0031714744 0)
(0.89633502 -0.003049557 0)
(0.90147946 -0.0028075523 0)
(0.90640699 -0.0025330662 0)
(0.91101919 -0.0023865913 0)
(0.91514757 -0.0024092993 0)
(0.9188546 -0.0024895462 0)
(0.92218608 -0.0025240419 0)
(0.92520305 -0.0024607092 0)
(0.92820465 -0.0023907204 0)
(0.93160221 -0.0023275296 0)
(0.93570202 -0.0021611806 0)
(0.9404503 -0.0016014668 0)
(0.94534166 -0.00046101552 0)
(0.94867212 0.00046958656 0)
(0.9506413 0.00076478578 0)
(0.95131837 0.00063853243 0)
(0.95127578 0.00050438618 0)
(0.95098467 0.00044678774 0)
(0.95071232 0.00055428299 0)
(0.95053822 0.00082101453 0)
(0.95043534 0.0009606968 0)
(0.95095622 0.00041646985 0)
(0.95237337 -0.00038357057 0)
(0.9547742 -0.00118213 0)
(0.95819892 -0.00191307 0)
(0.96259761 -0.0025668839 0)
(0.96791474 -0.0031426495 0)
(0.97413292 -0.0036280727 0)
(0.98105818 -0.0040205453 0)
(0.98826672 -0.0043470339 0)
(0.99541348 -0.0046598601 0)
(1.0024656 -0.0049983331 0)
(1.0095942 -0.0053477283 0)
(1.0169807 -0.0056534634 0)
(1.024752 -0.005854628 0)
(1.0330651 -0.0059297721 0)
(1.0421941 -0.0059150997 0)
(1.052423 -0.0058376286 0)
(1.0637282 -0.0056521342 0)
(1.0754214 -0.0053134057 0)
(1.0861754 -0.0049733132 0)
(1.0947788 -0.0050079128 0)
(1.1011708 -0.005464832 0)
(1.1067052 -0.0061558326 0)
(1.1133426 -0.0069181664 0)
(1.1226241 -0.0071990946 0)
(1.134386 -0.0063353533 0)
(1.1473499 -0.0052692287 0)
(1.1605179 -0.005488105 0)
(1.1734904 -0.0069414393 0)
(1.1858993 -0.0090443969 0)
(1.1978161 -0.011208717 0)
(1.2100191 -0.013300156 0)
(1.2236941 -0.015143412 0)
(1.2390855 -0.016375029 0)
(1.2543935 -0.019377436 0)
(1.2702908 -0.028847385 0)
(1.2856611 -0.035710908 0)
(1.265051 -0.019005687 0)
(1.1473727 -0.016314693 0)
(1.1369048 0.082846538 0)
(0.72979334 0.12117034 0)
(0.50978747 0.085625604 0)
(0.40859077 0.049434627 0)
(0.32746319 0.030340197 0)
(0.27307303 0.020413672 0)
(0.23429689 0.014760078 0)
(0.20486893 0.011322682 0)
(0.18166392 0.0086215691 0)
(0.1627919 0.0072074934 0)
(0.14708849 0.0057800015 0)
(0.13376598 0.0050355561 0)
(0.12231203 0.00436538 0)
(0.112326 0.0038044202 0)
(0.10356643 0.0033514239 0)
(0.095811058 0.0029504535 0)
(0.088837731 0.0027547721 0)
(0.082547666 0.0023755692 0)
(0.076859857 0.0021274978 0)
(0.071680292 0.0019293377 0)
(0.066934356 0.0017598245 0)
(0.062566498 0.0016125592 0)
(0.058530315 0.0014837538 0)
(0.054786279 0.0013705543 0)
(0.051299686 0.0012706215 0)
(0.048044762 0.0011826162 0)
(0.044990973 0.0010372643 0)
(0.042116716 0.0010213793 0)
(0.039408287 0.00096880211 0)
(0.036846402 0.00091467906 0)
(0.034416598 0.00086489516 0)
(0.032103577 0.00082081387 0)
(0.029900259 0.00082169992 0)
(0.027795208 0.00074888836 0)
(0.025774999 0.0007098232 0)
(0.023834212 0.0006774069 0)
(0.02195892 0.00064909349 0)
(0.020147041 0.0006259213 0)
(0.018397376 0.00060678783 0)
(0.016698764 0.00059026119 0)
(0.015045443 0.00059455462 0)
(0.013432374 0.00056077909 0)
(0.011856758 0.00052980462 0)
(0.01031219 0.00053342375 0)
(0.0087931937 0.00053588436 0)
(0.0072971497 0.00051613762 0)
(0.0058181121 0.00050781013 0)
(0.0043569725 0.00050133157 0)
(0.0029199319 0.0004950695 0)
(0.001516452 0.00046361829 0)
(0.00035677871 0.00035126665 0)
(0.0010314568 -0.0045362258 0)
(0.0053966934 -0.0067166339 0)
(0.010739765 -0.0072687501 0)
(0.016081251 -0.0074459289 0)
(0.02148388 -0.0074970177 0)
(0.026905422 -0.0075127162 0)
(0.032335132 -0.0075226641 0)
(0.03776642 -0.0075328581 0)
(0.04321031 -0.0075560433 0)
(0.048637682 -0.0075575304 0)
(0.054061194 -0.0075513303 0)
(0.059485692 -0.0075432084 0)
(0.064915416 -0.0075371496 0)
(0.070353806 -0.0075353048 0)
(0.07580418 -0.0075378964 0)
(0.081269042 -0.0075445314 0)
(0.086750739 -0.00755516 0)
(0.092251102 -0.0075696563 0)
(0.097773442 -0.00758829 0)
(0.10331654 -0.0076099388 0)
(0.1088907 -0.0076370806 0)
(0.11447759 -0.0076632517 0)
(0.12012496 -0.0077023139 0)
(0.12573702 -0.0077265018 0)
(0.13150911 -0.0077826887 0)
(0.13708569 -0.0078080217 0)
(0.14307844 -0.0078468434 0)
(0.14853192 -0.0079749546 0)
(0.15481942 -0.0077852016 0)
(0.1601637 -0.0083441322 0)
(0.16663728 -0.0075691184 0)
(0.17208197 -0.0087121586 0)
(0.17852233 -0.0076970719 0)
(0.18427027 -0.0084241486 0)
(0.19045514 -0.008547777 0)
(0.19687324 -0.0078946911 0)
(0.20248999 -0.0087971021 0)
(0.20929918 -0.0085638396 0)
(0.21557995 -0.0082402171 0)
(0.22132952 -0.0088752483 0)
(0.2283534 -0.0088379509 0)
(0.23493138 -0.0085290852 0)
(0.24077712 -0.0089647136 0)
(0.24765757 -0.0089672012 0)
(0.25462392 -0.0089674616 0)
(0.26100688 -0.0091278361 0)
(0.26759844 -0.0090029548 0)
(0.2744297 -0.009186738 0)
(0.28142617 -0.009429643 0)
(0.28841247 -0.0093063798 0)
(0.29511452 -0.0092366231 0)
(0.30191881 -0.0094369857 0)
(0.30911105 -0.0095802565 0)
(0.31635864 -0.0095880688 0)
(0.32344366 -0.0096163238 0)
(0.33046379 -0.0096053145 0)
(0.33752278 -0.0095841157 0)
(0.34475527 -0.0097349505 0)
(0.35219014 -0.0099285379 0)
(0.35964188 -0.0099027751 0)
(0.36691891 -0.0097847258 0)
(0.37411231 -0.0097642823 0)
(0.38136886 -0.0098815433 0)
(0.38889547 -0.010015798 0)
(0.39650615 -0.0099620374 0)
(0.40393376 -0.010116262 0)
(0.41157869 -0.010119147 0)
(0.41917167 -0.0099013529 0)
(0.42639036 -0.0099262114 0)
(0.43383685 -0.010017909 0)
(0.44151101 -0.010039861 0)
(0.44916258 -0.010255074 0)
(0.45707315 -0.010268281 0)
(0.46479076 -0.010027858 0)
(0.47214082 -0.01010798 0)
(0.47980835 -0.010019559 0)
(0.48740552 -0.0099564267 0)
(0.49493626 -0.010153071 0)
(0.50275508 -0.010175728 0)
(0.51063293 -0.010198051 0)
(0.51838673 -0.010216395 0)
(0.52614332 -0.010117973 0)
(0.53383412 -0.010000514 0)
(0.54143765 -0.010127694 0)
(0.54925476 -0.01009248 0)
(0.55698818 -0.00991522 0)
(0.56449417 -0.010095345 0)
(0.57239897 -0.010097519 0)
(0.58028268 -0.0099319122 0)
(0.58777677 -0.010039058 0)
(0.59559801 -0.010019715 0)
(0.60348402 -0.0098875189 0)
(0.61106813 -0.010024221 0)
(0.61884848 -0.0099983981 0)
(0.62673285 -0.0098350556 0)
(0.63434801 -0.0098411205 0)
(0.642011 -0.0098734249 0)
(0.64975546 -0.0096490998 0)
(0.65719829 -0.0094994006 0)
(0.66456688 -0.0096015728 0)
(0.67227157 -0.009716729 0)
(0.68014379 -0.009706784 0)
(0.68790675 -0.0097431976 0)
(0.69557698 -0.0097280838 0)
(0.70326209 -0.0095362138 0)
(0.71081515 -0.0092868915 0)
(0.7181289 -0.009276371 0)
(0.72546178 -0.0092046595 0)
(0.73286074 -0.0090663672 0)
(0.74015178 -0.0091632895 0)
(0.74756679 -0.0093835832 0)
(0.75531965 -0.0093750743 0)
(0.76306458 -0.0092994461 0)
(0.77053644 -0.0091825114 0)
(0.77777244 -0.0089376309 0)
(0.78486695 -0.0086047911 0)
(0.79185229 -0.0084463023 0)
(0.79876529 -0.0084340573 0)
(0.80573554 -0.0085612292 0)
(0.81292857 -0.0086173487 0)
(0.82018218 -0.0086588456 0)
(0.82737971 -0.0087839976 0)
(0.83468444 -0.0088234954 0)
(0.84200966 -0.0087355909 0)
(0.84916061 -0.0086104593 0)
(0.85623863 -0.0084669265 0)
(0.86332835 -0.0083252909 0)
(0.87031642 -0.0081129254 0)
(0.87705979 -0.0077696442 0)
(0.88350295 -0.0074239784 0)
(0.88968278 -0.0071919495 0)
(0.89568505 -0.0071116833 0)
(0.90178541 -0.007243272 0)
(0.90830031 -0.0076163703 0)
(0.915287 -0.0080759432 0)
(0.92259431 -0.0082900531 0)
(0.92998791 -0.0081563004 0)
(0.93711778 -0.0078207919 0)
(0.94363751 -0.0072961893 0)
(0.94948354 -0.0067778873 0)
(0.9550269 -0.0064617889 0)
(0.96068635 -0.0064527068 0)
(0.96664927 -0.0067327842 0)
(0.97302592 -0.0070606609 0)
(0.97981 -0.0072536817 0)
(0.98677503 -0.0073710093 0)
(0.99362998 -0.0073949296 0)
(1.0001852 -0.0070916533 0)
(1.0063276 -0.006368409 0)
(1.0119232 -0.005454068 0)
(1.0168093 -0.0045471454 0)
(1.020883 -0.0038177721 0)
(1.0244195 -0.0035625849 0)
(1.0280692 -0.0039932402 0)
(1.0324572 -0.0052239939 0)
(1.0379884 -0.0068385811 0)
(1.0448644 -0.0080235828 0)
(1.0530587 -0.0078011142 0)
(1.0619456 -0.0060502975 0)
(1.0701845 -0.0035338374 0)
(1.0765355 -0.0013164451 0)
(1.0805068 -3.7920415e-05 0)
(1.0827053 0.00017003653 0)
(1.0840487 -0.0001022578 0)
(1.0852547 -0.00051435255 0)
(1.0869551 -0.0012524088 0)
(1.0893662 -0.0022320824 0)
(1.0923761 -0.0033370579 0)
(1.0961911 -0.0045254855 0)
(1.1008966 -0.0057279081 0)
(1.1062935 -0.0069998842 0)
(1.1124876 -0.0084127533 0)
(1.1196121 -0.0096278362 0)
(1.1270929 -0.010180656 0)
(1.1340496 -0.010128379 0)
(1.1401832 -0.0097711198 0)
(1.145825 -0.0093718793 0)
(1.1514083 -0.0092568711 0)
(1.1571015 -0.0095682462 0)
(1.1629486 -0.010359228 0)
(1.1693131 -0.011682892 0)
(1.1769304 -0.013635055 0)
(1.1864575 -0.015921623 0)
(1.1978207 -0.017678961 0)
(1.2093573 -0.017514202 0)
(1.2181441 -0.014779043 0)
(1.2227628 -0.010464309 0)
(1.2249049 -0.006862716 0)
(1.2279147 -0.0058187326 0)
(1.2352889 -0.0084449943 0)
(1.2485259 -0.013803744 0)
(1.2642888 -0.018566173 0)
(1.2782688 -0.021550239 0)
(1.2902438 -0.02188764 0)
(1.3015704 -0.018622131 0)
(1.312395 -0.014304834 0)
(1.3234647 -0.012011792 0)
(1.3358958 -0.011607759 0)
(1.3515888 -0.012140602 0)
(1.3663843 -0.015355172 0)
(1.3702812 -0.021247561 0)
(1.3554666 -0.014383328 0)
(1.2984556 0.016459562 0)
(1.1432889 0.035819513 0)
(1.2651801 0.36289837 0)
(0.89624936 0.40204706 0)
(0.61634814 0.33361298 0)
(0.53920894 0.23237799 0)
(0.45980586 0.14623377 0)
(0.3934246 0.097645153 0)
(0.34187476 0.069635542 0)
(0.30093823 0.052357634 0)
(0.26793078 0.040904461 0)
(0.24084732 0.033397611 0)
(0.21821925 0.027459953 0)
(0.19900937 0.023401913 0)
(0.18245396 0.019938601 0)
(0.16802533 0.017258352 0)
(0.15533019 0.015177191 0)
(0.14405369 0.013260998 0)
(0.13390256 0.01194135 0)
(0.12476543 0.010763373 0)
(0.11651175 0.0097519747 0)
(0.10895168 0.0088879597 0)
(0.10200124 0.0081395836 0)
(0.09559178 0.0074871528 0)
(0.089657804 0.0069159312 0)
(0.084141815 0.0064135977 0)
(0.078995204 0.0059699524 0)
(0.074176155 0.0055765354 0)
(0.06965049 0.0052209711 0)
(0.065384024 0.0049858196 0)
(0.061350917 0.0046496265 0)
(0.057529654 0.0043852352 0)
(0.053898 0.0041574115 0)
(0.050437573 0.0039543002 0)
(0.047130173 0.0037720751 0)
(0.04396631 0.0035557099 0)
(0.040930366 0.0034455327 0)
(0.038005256 0.0033179914 0)
(0.035181522 0.0031958812 0)
(0.032455851 0.0031182115 0)
(0.029817376 0.0029910578 0)
(0.027249902 0.0028989304 0)
(0.024750731 0.002818838 0)
(0.022313577 0.0027264719 0)
(0.019931562 0.002684835 0)
(0.017594596 0.0026336028 0)
(0.015298661 0.0025856096 0)
(0.013042283 0.0025298121 0)
(0.010816192 0.0025078092 0)
(0.0086166679 0.0024876955 0)
(0.0064424287 0.0024448151 0)
(0.0043024587 0.002382007 0)
(0.0022299894 0.0021996005 0)
(0.00047961124 0.0015250066 0)
(0.0010386777 -0.0077047688 0)
(0.0053839632 -0.011603229 0)
(0.010669058 -0.012544175 0)
(0.015975709 -0.012794357 0)
(0.021346868 -0.012866012 0)
(0.026733405 -0.012890842 0)
(0.032124848 -0.012905506 0)
(0.037520485 -0.012921374 0)
(0.042919198 -0.012938856 0)
(0.048324356 -0.012960667 0)
(0.053739752 -0.01298905 0)
(0.059166216 -0.013024022 0)
(0.064604973 -0.013065207 0)
(0.070057759 -0.013111799 0)
(0.075526134 -0.01316341 0)
(0.081011478 -0.013219841 0)
(0.086515472 -0.013280809 0)
(0.092039131 -0.0133461 0)
(0.09758579 -0.013415599 0)
(0.10315229 -0.013489259 0)
(0.10875302 -0.01356693 0)
(0.11435796 -0.013649219 0)
(0.12004339 -0.013733889 0)
(0.12564601 -0.013827908 0)
(0.13150936 -0.013911922 0)
(0.13697443 -0.014035001 0)
(0.14322487 -0.014081388 0)
(0.14832149 -0.014309068 0)
(0.15516044 -0.014172923 0)
(0.15987593 -0.014758231 0)
(0.16702324 -0.014073136 0)
(0.17198863 -0.015382588 0)
(0.1786566 -0.01408464 0)
(0.18449239 -0.015441158 0)
(0.19052174 -0.015120977 0)
(0.19701517 -0.014651604 0)
(0.20272738 -0.015955598 0)
(0.2095191 -0.015433034 0)
(0.21564161 -0.015141459 0)
(0.22165221 -0.016111565 0)
(0.22868303 -0.016217034 0)
(0.23496717 -0.015589922 0)
(0.2411033 -0.016165264 0)
(0.24809071 -0.016590779 0)
(0.25473022 -0.016684326 0)
(0.26129872 -0.016389089 0)
(0.26802713 -0.016413969 0)
(0.27468461 -0.017211839 0)
(0.28172016 -0.017459479 0)
(0.28884599 -0.016907934 0)
(0.29540861 -0.016894326 0)
(0.30219082 -0.017575648 0)
(0.30962801 -0.017824272 0)
(0.31680019 -0.017765469 0)
(0.3236685 -0.017784114 0)
(0.33082179 -0.017664358 0)
(0.33803416 -0.017738832 0)
(0.34524485 -0.018313929 0)
(0.35260507 -0.018677289 0)
(0.3600248 -0.018380303 0)
(0.36728567 -0.018115854 0)
(0.37454971 -0.018244574 0)
(0.38189583 -0.018577765 0)
(0.38951022 -0.018867473 0)
(0.39697369 -0.018774193 0)
(0.40423153 -0.019142782 0)
(0.41205747 -0.019059537 0)
(0.41970668 -0.018593403 0)
(0.42685755 -0.018676434 0)
(0.43448895 -0.019015829 0)
(0.44206206 -0.01920988 0)
(0.44958253 -0.019676635 0)
(0.45760447 -0.019597491 0)
(0.4653016 -0.019062795 0)
(0.47260177 -0.019237814 0)
(0.48044084 -0.019107155 0)
(0.48798794 -0.019161372 0)
(0.49542564 -0.019528252 0)
(0.50330644 -0.019684415 0)
(0.5111903 -0.01979568 0)
(0.51899677 -0.019740702 0)
(0.52682846 -0.019477584 0)
(0.53440139 -0.019427981 0)
(0.54194842 -0.019761086 0)
(0.54993402 -0.019532346 0)
(0.5574649 -0.019340301 0)
(0.56487943 -0.019794237 0)
(0.5730844 -0.019801142 0)
(0.58099478 -0.019552222 0)
(0.58849329 -0.019739889 0)
(0.59643652 -0.019687383 0)
(0.60419428 -0.019677924 0)
(0.61171374 -0.019844882 0)
(0.61953639 -0.019715965 0)
(0.62726668 -0.019622613 0)
(0.63475483 -0.019687992 0)
(0.64258411 -0.019542843 0)
(0.65053868 -0.019216075 0)
(0.65798822 -0.019096197 0)
(0.66534772 -0.019306266 0)
(0.67319882 -0.019604675 0)
(0.68111467 -0.019812602 0)
(0.68868366 -0.019756052 0)
(0.69626118 -0.019575825 0)
(0.7039875 -0.019277165 0)
(0.71150312 -0.019035604 0)
(0.71894301 -0.018933837 0)
(0.72658444 -0.018728408 0)
(0.73395989 -0.018594964 0)
(0.74102027 -0.018913805 0)
(0.74839839 -0.019318961 0)
(0.75613845 -0.019406699 0)
(0.76371059 -0.019230842 0)
(0.77116467 -0.01889952 0)
(0.77849157 -0.01834454 0)
(0.78566155 -0.017862555 0)
(0.79278222 -0.017788167 0)
(0.8000452 -0.018026484 0)
(0.80741971 -0.018259182 0)
(0.81480321 -0.018335053 0)
(0.82189913 -0.018455358 0)
(0.82886768 -0.018605683 0)
(0.83606996 -0.018551453 0)
(0.84327009 -0.01835467 0)
(0.85013804 -0.018216973 0)
(0.85683322 -0.018034492 0)
(0.86359609 -0.01777044 0)
(0.87056982 -0.017365828 0)
(0.87764586 -0.016783131 0)
(0.88461202 -0.016075041 0)
(0.89144377 -0.01556019 0)
(0.89806334 -0.015497594 0)
(0.90437545 -0.01601608 0)
(0.9105996 -0.016987463 0)
(0.91721677 -0.017901839 0)
(0.92428648 -0.018267052 0)
(0.93157085 -0.017966525 0)
(0.9388199 -0.016958094 0)
(0.94574543 -0.015549281 0)
(0.95197958 -0.014411439 0)
(0.95751237 -0.014060971 0)
(0.96282219 -0.0144813 0)
(0.96843888 -0.015413201 0)
(0.97460855 -0.016305154 0)
(0.9812313 -0.016790226 0)
(0.98799182 -0.016664655 0)
(0.99453937 -0.016037534 0)
(1.0007919 -0.015104932 0)
(1.0068478 -0.014015009 0)
(1.0127704 -0.012721373 0)
(1.0185229 -0.011314512 0)
(1.0239938 -0.010191909 0)
(1.0293148 -0.009903581 0)
(1.0345943 -0.010615509 0)
(1.0398027 -0.012311523 0)
(1.0450611 -0.014497964 0)
(1.0506357 -0.016513886 0)
(1.0568445 -0.017389894 0)
(1.0636456 -0.016433853 0)
(1.0703019 -0.013633571 0)
(1.0761998 -0.0096087874 0)
(1.0807095 -0.005762443 0)
(1.0839444 -0.0033198815 0)
(1.0866658 -0.002184692 0)
(1.0894299 -0.0021353982 0)
(1.0925027 -0.0031986998 0)
(1.0956287 -0.0050319423 0)
(1.0988603 -0.007369615 0)
(1.102954 -0.0099064529 0)
(1.1080674 -0.012144214 0)
(1.1134483 -0.014193466 0)
(1.1189038 -0.01641013 0)
(1.1245926 -0.018030971 0)
(1.1299683 -0.018088499 0)
(1.1345309 -0.017046327 0)
(1.1390923 -0.016080594 0)
(1.1450097 -0.01582304 0)
(1.1528233 -0.016214675 0)
(1.1622256 -0.016958599 0)
(1.1725002 -0.01796789 0)
(1.1825238 -0.019753242 0)
(1.1911854 -0.022977503 0)
(1.1979131 -0.026775182 0)
(1.2031766 -0.028425394 0)
(1.208255 -0.025142381 0)
(1.2144646 -0.017258377 0)
(1.2219058 -0.010568332 0)
(1.2306131 -0.010060786 0)
(1.2402333 -0.015977611 0)
(1.2533049 -0.027129554 0)
(1.2714752 -0.036691235 0)
(1.2909235 -0.035015973 0)
(1.3109512 -0.027763055 0)
(1.325707 -0.027064011 0)
(1.3311768 -0.030166733 0)
(1.3347061 -0.033783403 0)
(1.336002 -0.037234495 0)
(1.3376483 -0.045914053 0)
(1.3412022 -0.05574057 0)
(1.3336464 -0.046125254 0)
(1.3058354 -0.015240577 0)
(1.2335754 0.024385521 0)
(1.0437006 0.065780828 0)
(0.7514624 0.071111684 0)
(0.69556674 0.52418034 0)
(0.49905156 0.52723463 0)
(0.48858757 0.419974 0)
(0.46507069 0.29096238 0)
(0.42313903 0.20345715 0)
(0.37923462 0.14804753 0)
(0.33923977 0.11175057 0)
(0.30454378 0.087170642 0)
(0.27485921 0.069925413 0)
(0.24947709 0.05751593 0)
(0.2277132 0.048193983 0)
(0.20884944 0.041083668 0)
(0.19235905 0.035480235 0)
(0.17781821 0.031015171 0)
(0.16489235 0.027347054 0)
(0.15332068 0.024525669 0)
(0.14287091 0.021962797 0)
(0.13340407 0.019651415 0)
(0.12478421 0.017934939 0)
(0.11687667 0.016417765 0)
(0.10959048 0.015086844 0)
(0.10285046 0.013920979 0)
(0.096591175 0.012897027 0)
(0.090756631 0.011994352 0)
(0.085298633 0.011195388 0)
(0.080177036 0.010485424 0)
(0.075350622 0.0098518647 0)
(0.070796658 0.0092898917 0)
(0.066491142 0.0087806077 0)
(0.062397852 0.0083224918 0)
(0.058498759 0.0079105849 0)
(0.054777723 0.00753968 0)
(0.051219441 0.0072052881 0)
(0.047805284 0.0068969199 0)
(0.044521039 0.0066259775 0)
(0.041358592 0.0063789713 0)
(0.038303607 0.0061547522 0)
(0.035349391 0.0059176628 0)
(0.032484948 0.0057634212 0)
(0.029696606 0.0056046825 0)
(0.026979287 0.0054594623 0)
(0.024326913 0.0053502406 0)
(0.021732431 0.0052155106 0)
(0.019185967 0.0051125045 0)
(0.016683039 0.0050230965 0)
(0.014219436 0.004945817 0)
(0.011788258 0.0048825152 0)
(0.0093874886 0.0048244403 0)
(0.0070150484 0.0047567477 0)
(0.0046811902 0.0046344888 0)
(0.0024291924 0.0042841954 0)
(0.00051169108 0.0029600216 0)
(0.0010496406 -0.010887174 0)
(0.0053983362 -0.016468449 0)
(0.010677367 -0.01780534 0)
(0.015984267 -0.018155529 0)
(0.021357159 -0.018254607 0)
(0.026744849 -0.018288409 0)
(0.032136587 -0.018307629 0)
(0.03753162 -0.018326518 0)
(0.042931044 -0.018349607 0)
(0.048336816 -0.018376396 0)
(0.053751144 -0.018407762 0)
(0.059175622 -0.018444021 0)
(0.064611725 -0.018485037 0)
(0.07006098 -0.018530936 0)
(0.07552495 -0.018581968 0)
(0.081005167 -0.018638363 0)
(0.086503428 -0.018700305 0)
(0.092020906 -0.018768059 0)
(0.097560769 -0.018841563 0)
(0.10312071 -0.018921686 0)
(0.10871302 -0.019006424 0)
(0.11431351 -0.019101576 0)
(0.11998424 -0.019192529 0)
(0.12559497 -0.019314229 0)
(0.13141891 -0.019389106 0)
(0.13693384 -0.019576529 0)
(0.14308496 -0.019572509 0)
(0.14829773 -0.019916946 0)
(0.15499729 -0.019705658 0)
(0.15979361 -0.020386846 0)
(0.16695342 -0.01972306 0)
(0.17175273 -0.021000156 0)
(0.17866732 -0.019823113 0)
(0.18427539 -0.021153954 0)
(0.1904001 -0.020866713 0)
(0.19686574 -0.020451536 0)
(0.20262787 -0.021804746 0)
(0.20933403 -0.021286805 0)
(0.21541592 -0.021000406 0)
(0.22159145 -0.0221015 0)
(0.22860404 -0.022203643 0)
(0.23457016 -0.021549716 0)
(0.24098432 -0.022193659 0)
(0.24816375 -0.022750671 0)
(0.25444761 -0.022810125 0)
(0.26093921 -0.02244684 0)
(0.26794132 -0.022639182 0)
(0.27473061 -0.02346492 0)
(0.28150473 -0.023750472 0)
(0.28856325 -0.023149719 0)
(0.29517252 -0.023103704 0)
(0.30206908 -0.024023174 0)
(0.30970726 -0.024288075 0)
(0.31673129 -0.024082311 0)
(0.32329279 -0.024082557 0)
(0.33045897 -0.024152792 0)
(0.33799037 -0.024304534 0)
(0.34540576 -0.024849818 0)
(0.35267211 -0.025034771 0)
(0.35971788 -0.024779731 0)
(0.36690113 -0.024739751 0)
(0.37433113 -0.024874834 0)
(0.38186046 -0.025131791 0)
(0.38973787 -0.025407426 0)
(0.39712038 -0.025114011 0)
(0.40407197 -0.025792628 0)
(0.41181073 -0.025745254 0)
(0.41925674 -0.025143999 0)
(0.4264822 -0.025289331 0)
(0.43490479 -0.025529838 0)
(0.44242553 -0.025600415 0)
(0.44978468 -0.026363146 0)
(0.45749908 -0.026261066 0)
(0.46488458 -0.025567979 0)
(0.47207677 -0.025816066 0)
(0.48037301 -0.025571839 0)
(0.48826246 -0.02559101 0)
(0.49563147 -0.025935238 0)
(0.50360902 -0.026274824 0)
(0.51135154 -0.026494409 0)
(0.51889429 -0.026260586 0)
(0.52669692 -0.025810305 0)
(0.53413724 -0.025804896 0)
(0.54180928 -0.026160462 0)
(0.55011863 -0.025755783 0)
(0.55749209 -0.025597737 0)
(0.56492113 -0.026269557 0)
(0.57339888 -0.026411527 0)
(0.58120727 -0.026073765 0)
(0.58868461 -0.025957223 0)
(0.59658757 -0.025882693 0)
(0.60417572 -0.025946312 0)
(0.61187703 -0.025870427 0)
(0.61969275 -0.025673866 0)
(0.62703137 -0.025697462 0)
(0.63453499 -0.025895029 0)
(0.64264978 -0.025873414 0)
(0.65065928 -0.025387795 0)
(0.65819282 -0.025035954 0)
(0.66584772 -0.025353443 0)
(0.67380155 -0.025647055 0)
(0.68162004 -0.025717171 0)
(0.68908649 -0.025601021 0)
(0.6964219 -0.025340311 0)
(0.70377723 -0.024963579 0)
(0.71108712 -0.024978197 0)
(0.71883289 -0.024911821 0)
(0.72694349 -0.024359489 0)
(0.73441783 -0.023987533 0)
(0.74134666 -0.024295822 0)
(0.74869079 -0.024699759 0)
(0.75634222 -0.024967833 0)
(0.76381723 -0.024944365 0)
(0.77132144 -0.024550193 0)
(0.77886483 -0.023730985 0)
(0.78599523 -0.023295744 0)
(0.79303578 -0.023342162 0)
(0.8005275 -0.023646603 0)
(0.80833113 -0.023729953 -2.284417e-34)
(0.81572573 -0.023611668 -1.2045677e-29)
(0.82234791 -0.023477596 0)
(0.82894643 -0.023594793 0)
(0.8360804 -0.023479044 0)
(0.84315133 -0.023133935 0)
(0.84987871 -0.022697793 0)
(0.85648818 -0.022548203 0)
(0.86311146 -0.022519136 0)
(0.86995361 -0.022545714 0)
(0.87733817 -0.022403898 -1.8083585e-34)
(0.8850825 -0.021937189 -9.8924348e-30)
(0.89275197 -0.020998826 -1.7415984e-34)
(0.90010346 -0.02019574 -9.6075597e-30)
(0.90681045 -0.020095766 0)
(0.91282656 -0.020912676 0)
(0.91858491 -0.02208727 0)
(0.92448619 -0.022969621 0)
(0.93078343 -0.023204383 0)
(0.93751922 -0.022544488 0)
(0.94443381 -0.020791422 -1.43279e-34)
(0.95110007 -0.018792945 -7.8944884e-30)
(0.95737205 -0.017623385 0)
(0.96330591 -0.017768082 0)
(0.9692598 -0.018910635 0)
(0.97554172 -0.020221054 0)
(0.98200143 -0.021123752 0)
(0.988434 -0.021248021 0)
(0.99462403 -0.020666972 0)
(1.000437 -0.019747839 0)
(1.0061971 -0.018654747 0)
(1.0121669 -0.017479881 0)
(1.0184084 -0.016065542 -9.748069e-35)
(1.0246904 -0.014688557 -5.0604193e-30)
(1.0308719 -0.014083771 0)
(1.0371493 -0.014524241 0)
(1.0435416 -0.016045201 0)
(1.0497113 -0.018261129 0)
(1.0553412 -0.020333713 0)
(1.0604146 -0.021095519 0)
(1.064712 -0.019726655 0)
(1.0682328 -0.016341833 0)
(1.0715372 -0.011873852 6.1230914e-35)
(1.0748532 -0.0078291551 2.9401236e-30)
(1.0783546 -0.0058047213 0)
(1.0826068 -0.0056030464 0)
(1.0878091 -0.0064031633 2.1369537e-35)
(1.093659 -0.0074995067 7.0215071e-31)
(1.0993397 -0.0087132973 0)
(1.1041309 -0.010846314 0)
(1.1080782 -0.013815986 0)
(1.11176 -0.016353463 0)
(1.1148978 -0.018282401 -3.2295743e-35)
(1.1174992 -0.020015576 -1.4286707e-30)
(1.1201386 -0.020849858 0)
(1.1230335 -0.020376943 0)
(1.1265549 -0.019888249 0)
(1.1315653 -0.020758578 0)
(1.1392186 -0.023264948 0)
(1.1502371 -0.026535535 0)
(1.1636758 -0.029298598 0)
(1.1765555 -0.030630081 0)
(1.1858734 -0.03024524 0)
(1.1907257 -0.028694608 0)
(1.1932124 -0.027428591 0)
(1.1975018 -0.027892621 0)
(1.2066585 -0.029420903 0)
(1.2201777 -0.029672319 0)
(1.23664 -0.02853701 0)
(1.2550084 -0.02740934 0)
(1.2724219 -0.030119811 0)
(1.2874992 -0.040315404 0)
(1.3039341 -0.05263313 0)
(1.3153031 -0.058526852 0)
(1.3249784 -0.060627485 0)
(1.3241176 -0.049331846 0)
(1.2997572 -0.027060397 0)
(1.2489409 -0.013296192 0)
(1.1873164 -0.014801651 0)
(1.143861 -0.018758212 0)
(1.0977303 -0.010128344 0)
(1.027901 0.022325875 0)
(0.96257218 0.065946757 0)
(0.84872954 0.13976701 0)
(0.60840558 0.42675383 0)
(0.39522891 0.56050547 0)
(0.31342523 0.57766121 0)
(0.33928213 0.53216437 0)
(0.3812897 0.41319825 0)
(0.38568853 0.31091372 0)
(0.36864555 0.23674598 0)
(0.34303842 0.18315334 0)
(0.31549021 0.14447741 0)
(0.28903095 0.11626141 0)
(0.2647961 0.095509158 -2.8539634e-33)
(0.24305663 0.079472132 -1.4591641e-28)
(0.2236902 0.067511162 0)
(0.20646356 0.058097194 0)
(0.1911254 0.0505672 0)
(0.17740249 0.044458548 0)
(0.16504346 0.039429044 0)
(0.15385936 0.035273414 0)
(0.14372931 0.03176821 0)
(0.13448671 0.028763595 0)
(0.12598951 0.026214626 0)
(0.11816652 0.024017593 0)
(0.11094091 0.022107857 0)
(0.10423721 0.020437373 0)
(0.097993266 0.01896856 0)
(0.092157637 0.017671246 0)
(0.086686303 0.016520702 0)
(0.081540394 0.015496324 0)
(0.076688439 0.014588384 -5.5174152e-34)
(0.072098858 0.013692276 -2.8566464e-29)
(0.06774342 0.013011154 0)
(0.063602997 0.01236121 0)
(0.059657633 0.01176535 0)
(0.055887857 0.011225487 0)
(0.052277883 0.010736831 0)
(0.048809799 0.010292521 0)
(0.045471101 0.0098933759 0)
(0.042253538 0.009532999 0)
(0.039144572 0.0092066723 0)
(0.036132607 0.0089073378 0)
(0.033207895 0.0086434073 0)
(0.030362951 0.0084042454 0)
(0.027589496 0.0081886046 -1.7217312e-34)
(0.02487974 0.0079731568 -8.6493172e-30)
(0.02222677 0.0078252105 1.3741245e-34)
(0.019624688 0.0077004721 6.7894357e-30)
(0.017066881 0.0075529094 0)
(0.014546032 0.0074385686 0)
(0.012058005 0.0073422102 -7.498413e-35)
(0.0096003149 0.0072443436 -3.359643e-30)
(0.0071715912 0.0071507375 -4.5538254e-35)
(0.0047828524 0.0069602741 -1.7269751e-30)
(0.0024811405 0.0064332995 1.604655e-35)