/*--------------------------------*- C++ -*----------------------------------*\
| =========                 |                                                 |
| \\      /  F ield         | OpenFOAM: The Open Source CFD Toolbox           |
|  \\    /   O peration     | Version:  2106                                  |
|   \\  /    A nd           | Website:  www.openfoam.com                      |
|    \\/     M anipulation  |                                                 |
\*---------------------------------------------------------------------------*/
FoamFile
{
    version     2.0;
    format      ascii;
    arch        "LSB;label=32;scalar=64";
    class       volScalarField;
    location    "0.195";
    object      p_rgh;
}
// * * * * * * * * * * * * * * * * * * * * * * * * * * * * * * * * * * * * * //

dimensions      [1 -1 -2 0 0 0 0];

internalField   nonuniform List<scalar> 
32768
(
264.05216
264.09238
264.11344
264.11681
264.08925
264.02826
263.93325
263.80393
263.64078
263.44445
263.21545
262.95419
262.66118
262.33692
261.98211
261.59704
261.18265
260.73872
260.26559
259.76569
259.23155
258.68213
258.08221
257.48478
256.8318
256.15829
255.47952
254.73008
253.98559
253.21991
252.3849
251.55258
250.70593
249.79259
248.86372
247.92889
246.94628
245.93437
244.89631
243.83449
242.7562
241.64018
240.48244
239.32115
238.14414
236.92276
235.68139
234.43158
233.13917
231.8379
230.54546
229.20042
227.83563
226.47235
225.09771
223.70685
222.29852
220.89058
219.46137
218.01938
216.58549
215.14536
213.68771
212.23126
210.7866
209.31798
207.84064
206.38358
204.92329
203.46164
202.00215
200.53227
199.07025
197.62498
196.16644
194.69615
193.25809
191.8325
190.36667
188.91516
187.51607
186.07875
184.62344
183.23002
181.811
180.35887
178.97865
177.61006
176.17316
174.76365
173.42323
172.0423
170.63056
169.27335
167.91787
166.53011
165.1811
163.8666
162.51301
161.15109
159.8352
158.51767
157.18379
155.86662
154.56907
153.26366
151.94054
150.64879
149.39416
148.1051
146.79971
145.55911
144.32815
143.03613
141.77434
140.57925
139.35602
138.09385
136.87182
135.70269
134.51766
133.3022
132.11669
130.98045
129.83116
128.62859
127.45469
126.365
125.24538
124.06346
122.9417
121.88967
120.78965
119.64879
118.57259
117.54003
116.46975
115.38988
114.35326
113.33623
112.30281
111.27265
110.27156
109.28813
108.31788
107.34698
106.36456
105.40549
104.46936
103.52399
102.57262
101.64535
100.74557
99.839999
98.935428
98.050693
97.184582
96.329843
95.477205
94.637205
93.803209
92.966972
92.151676
91.352519
90.558802
89.763815
88.969927
88.209631
87.480095
86.73691
85.977192
85.251996
84.54766
83.83734
83.125006
82.431178
81.76559
81.100016
80.444949
79.795661
79.147138
78.51534
77.862572
77.201672
76.57646
75.981954
75.404505
74.837933
74.301564
73.776956
73.231635
72.726023
72.237629
71.713532
71.209953
70.730785
70.289437
69.895705
69.49953
69.074828
68.668709
68.330362
67.994518
67.666905
67.414256
67.16296
66.845781
66.463422
66.062783
65.658471
65.282853
64.97529
64.70483
64.400465
64.118442
63.939667
63.916448
64.041064
64.268202
64.576592
64.980352
65.451621
65.951173
66.544148
67.310062
68.269719
69.34508
70.511591
71.957562
73.90041
76.53587
79.712388
83.558062
88.363759
94.602073
102.00722
111.54002
123.34132
138.60332
157.06866
180.9815
209.08399
243.82802
285.06297
332.80123
387.33878
445.84971
507.70326
568.80113
624.68155
669.19801
696.39646
706.32001
717.92696
730.9003
745.88715
264.02337
264.06142
264.0831
264.08792
264.05981
263.99868
263.9036
263.77445
263.61143
263.41494
263.18552
262.92369
262.63008
262.30522
261.94998
261.56423
261.14934
260.7045
260.2311
259.73014
259.1966
258.64451
258.04776
257.44602
256.79382
256.12414
255.43775
254.69336
253.95272
253.17313
252.34754
251.52145
250.65624
249.75085
248.83322
247.88268
246.8977
245.89792
244.85368
243.78837
242.71183
241.59105
240.43682
239.27954
238.09146
236.86597
235.635
234.38085
233.08317
231.78673
230.4871
229.13764
227.78308
226.41685
225.03681
223.6439
222.23292
220.83156
219.40044
217.95225
216.52134
215.08351
213.62084
212.16371
210.71889
209.25091
207.78067
206.3142
204.84863
203.40247
201.93662
200.45556
199.00752
197.56636
196.09303
194.62638
193.20449
191.76522
190.29105
188.86469
187.45566
185.99179
184.56655
183.18368
181.73092
180.29322
178.93595
177.53726
176.09717
174.72348
173.36747
171.95627
170.57307
169.23211
167.85018
166.46406
165.13626
163.80627
162.43921
161.10281
159.79275
158.4501
157.11752
155.82043
154.51778
153.19633
151.88589
150.61287
149.33441
148.02399
146.7509
145.52715
144.25671
142.96037
141.73619
140.53071
139.2761
138.02888
136.83403
135.65418
134.44531
133.23381
132.0725
130.94027
129.76718
128.56026
127.4204
126.32854
125.16872
123.99498
122.91047
121.84007
120.70597
119.58785
118.54402
117.49423
116.3993
115.33478
114.32064
113.29687
112.24385
111.20835
110.21152
109.23476
108.26475
107.2824
106.30103
105.35987
104.43256
103.47395
102.50463
101.57926
100.69479
99.794276
98.877847
97.994752
97.14013
96.277245
95.415691
94.581809
93.756874
92.921879
92.09632
91.290874
90.503621
89.715884
88.929053
88.160722
87.413544
86.680489
85.937129
85.202905
84.48673
83.783546
83.084123
82.385519
81.70387
81.039008
80.388876
79.738143
79.091055
78.45558
77.815882
77.168932
76.530443
75.925929
75.351255
74.789058
74.243232
73.717956
73.194411
72.663896
72.136929
71.626268
71.138316
70.669382
70.235328
69.832387
69.435251
69.037398
68.655205
68.311002
67.978625
67.640151
67.338033
67.06779
66.677102
66.261774
65.934596
65.604318
65.29893
65.004405
64.702069
64.413007
64.181015
64.048923
64.014767
64.101207
64.292047
64.560241
64.922455
65.370497
65.846
66.423486
67.140163
68.005983
68.990694
70.046758
71.456563
73.276387
75.580368
78.454242
82.185206
86.792199
92.567121
99.563147
108.28127
119.46388
133.41031
151.11713
173.03544
200.41413
233.3581
272.39267
318.97227
371.19007
428.43339
488.59929
549.92553
607.27653
653.33329
688.2624
706.92749
712.86281
726.69101
746.86539
263.96018
263.99828
264.0202
264.02502
263.99655
263.93496
263.8394
263.7097
263.54622
263.34945
263.11995
262.85826
262.56502
262.24052
261.88568
261.49992
261.08572
260.64013
260.16845
259.66519
259.1351
258.57884
257.98687
257.38037
256.73027
256.0636
255.36961
254.63357
253.88967
253.10334
252.28932
251.45763
250.58455
249.69161
248.76829
247.80882
246.83644
245.82934
244.77555
243.72572
242.63966
241.50665
240.36431
239.20831
238.00443
236.78287
235.55917
234.28717
232.99289
231.71023
230.39014
229.03595
227.69183
226.32033
224.93987
223.5394
222.13237
220.73273
219.28462
217.84266
216.42689
214.97516
213.50343
212.05839
210.60593
209.13717
207.66994
206.19297
204.74813
203.30263
201.80553
200.33868
198.91261
197.44945
195.96538
194.5273
193.11098
191.6387
190.17619
188.77969
187.3325
185.8633
184.48844
183.07561
181.59398
180.21117
178.85187
177.40356
175.98964
174.64731
173.24697
171.83131
170.49667
169.13877
167.72357
166.37044
165.06088
163.69506
162.32685
161.02265
159.69517
158.33015
157.0214
155.7425
154.42303
153.08236
151.79658
150.54991
149.22821
147.89642
146.68438
145.46196
144.12161
142.85409
141.69081
140.43858
139.1442
137.94363
136.77446
135.55198
134.32444
133.15145
132.01222
130.85029
129.64221
128.46457
127.37088
126.24054
125.03729
123.91562
122.86794
121.74189
120.57534
119.50336
118.47747
117.38757
116.2933
115.26542
114.2543
113.21523
112.17012
111.13717
110.12449
109.14628
108.17673
107.18616
106.21725
105.28525
104.34219
103.3962
102.4586
101.51512
100.60041
99.713691
98.801629
97.898392
97.044253
96.19067
95.328643
94.486682
93.668149
92.857901
92.039782
91.224465
90.411232
89.612299
88.867736
88.113266
87.328443
86.579689
85.867388
85.14852
84.410236
83.67925
82.985878
82.307034
81.620637
80.953079
80.307637
79.661516
79.018952
78.369525
77.718988
77.09183
76.486801
75.887818
75.287408
74.705907
74.142298
73.600322
73.073305
72.544653
72.031716
71.533189
71.042179
70.593993
70.188425
69.777879
69.360675
68.955177
68.570243
68.207668
67.856391
67.530704
67.234342
66.912772
66.552955
66.220345
65.887341
65.534839
65.195177
64.886325
64.591342
64.345461
64.164896
64.060297
64.035519
64.099585
64.267788
64.526869
64.873555
65.2998
65.666834
66.177881
66.87208
67.654761
68.49268
69.457457
70.761574
72.315616
74.187554
76.626692
79.882051
83.887886
88.792245
94.884574
102.44615
112.31807
124.3276
139.47899
159.01125
183.30818
212.62393
248.1043
290.81609
339.70573
394.54906
453.08416
514.58743
574.60366
629.54405
675.12891
708.1556
736.8183
761.35532
775.63763
263.86493
263.90276
263.92462
263.92934
263.90044
263.83823
263.74194
263.61144
263.44709
263.2494
263.01892
262.75615
262.46171
262.13599
261.77989
261.39305
260.97762
260.53105
260.05847
259.55358
259.02438
258.46422
257.87583
257.26448
256.61568
255.95083
255.24936
254.51975
253.77366
252.98081
252.17413
251.33912
250.45993
249.57053
248.64706
247.68252
246.70931
245.69937
244.64564
243.59656
242.5001
241.36496
240.22768
239.06784
237.8529
236.63334
235.40915
234.12436
232.83956
231.55481
230.21368
228.86707
227.52482
226.14469
224.76746
223.35735
221.95024
220.54793
219.0919
217.65979
216.24388
214.77876
213.30955
211.86594
210.40632
208.94653
207.47384
205.99241
204.56231
203.10208
201.59608
200.14803
198.72165
197.2478
195.76751
194.34334
192.92053
191.43087
189.99003
188.60246
187.12366
185.67082
184.32357
182.87512
181.39327
180.0517
178.6738
177.1939
175.80769
174.48388
173.05518
171.64138
170.33024
168.96043
167.53614
166.20432
164.89749
163.50688
162.15163
160.86915
159.51205
158.14476
156.87011
155.58026
154.2393
152.91642
151.6522
150.38411
149.03884
147.73224
146.54419
145.28555
143.93011
142.71182
141.54991
140.2595
138.97512
137.80339
136.62667
135.38342
134.15929
133.00084
131.87122
130.69307
129.45849
128.3069
127.24496
126.07518
124.85164
123.7794
122.73498
121.55948
120.41084
119.39262
118.33816
117.20175
116.13443
115.14259
114.11183
113.0455
112.02032
111.02159
110.00922
109.01268
108.02877
107.03092
106.07338
105.15582
104.19501
103.22203
102.30288
101.40956
100.48948
99.556949
98.659694
97.788471
96.904263
96.025787
95.182383
94.355119
93.522954
92.696737
91.890747
91.102141
90.295457
89.490525
88.718253
87.956539
87.217245
86.474797
85.72537
85.005365
84.292322
83.575818
82.860472
82.145179
81.468206
80.827864
80.171749
79.50597
78.875542
78.267919
77.618748
76.94734
76.33525
75.756229
75.17391
74.59446
74.0176
73.466643
72.922737
72.371029
71.862626
71.387909
70.912157
70.46235
70.045743
69.631655
69.22354
68.834475
68.47175
68.129385
67.781269
67.434426
67.092066
66.738668
66.391738
66.053776
65.697136
65.354979
65.067878
64.784964
64.511012
64.292064
64.12215
64.003034
63.959103
63.996664
64.117945
64.334736
64.640874
65.034143
65.429131
65.785936
66.373245
67.043934
67.705619
68.526957
69.621555
70.890435
72.184858
74.226166
76.829732
80.024145
83.855998
88.799069
94.848329
102.39313
111.79738
123.89418
140.06157
159.45855
184.58003
214.5568
250.87016
294.98965
345.05395
402.31386
466.08978
531.3997
596.05493
654.84045
703.26731
742.14433
768.06996
781.87433
263.73726
263.77493
263.79659
263.80087
263.77133
263.70826
263.61098
263.47939
263.31387
263.11494
262.88319
262.61916
262.32347
261.99655
261.63932
261.25148
260.8351
260.38764
259.91443
259.40849
258.87932
258.31766
257.72992
257.11718
256.46786
255.80411
255.09847
254.37275
253.62435
252.82738
252.02732
251.18511
250.30495
249.41808
248.49127
247.52238
246.55026
245.53615
244.48163
243.42865
242.32739
241.18921
240.05306
238.88593
237.66371
236.44671
235.21522
233.92304
232.64583
231.34653
229.99612
228.66189
227.30678
225.92103
224.54733
223.12827
221.71855
220.31077
218.85665
217.42895
216.00122
214.53116
213.06791
211.61595
210.15768
208.70685
207.22275
205.74779
204.31331
202.83902
201.35416
199.9059
198.46107
197.00386
195.52958
194.09513
192.67384
191.18546
189.74936
188.36581
186.87997
185.43207
184.09406
182.63868
181.15666
179.82645
178.44238
176.95136
175.57992
174.26304
172.82464
171.41416
170.11212
168.73899
167.30404
165.98208
164.68798
163.28472
161.92862
160.65745
159.30125
157.93462
156.6576
155.37064
154.02508
152.69615
151.46225
150.19261
148.80429
147.52342
146.3726
145.06635
143.70688
142.54167
141.35437
140.02929
138.78035
137.61889
136.41651
135.18389
133.96662
132.79036
131.67064
130.50469
129.25692
128.1144
127.06656
125.87072
124.63803
123.59411
122.54594
121.3382
120.19978
119.2258
118.16984
117.00102
115.94161
114.9746
113.9338
112.84871
111.82244
110.82919
109.83024
108.84765
107.853
106.84667
105.89902
104.9761
104.02158
103.04963
102.09598
101.20047
100.3197
99.381927
98.45279
97.613935
96.75967
95.853384
94.991873
94.179162
93.35818
92.516956
91.692228
90.902907
90.098638
89.316996
88.565421
87.777467
87.015233
86.301124
85.5849
84.850512
84.103539
83.405693
82.734039
82.016309
81.290996
80.611199
79.969328
79.330375
78.677666
78.046186
77.43644
76.821707
76.209014
75.593071
74.988729
74.406178
73.845698
73.303433
72.745133
72.189666
71.67118
71.173957
70.712567
70.29188
69.877878
69.460814
69.057419
68.675407
68.304346
67.940253
67.595723
67.262911
66.909788
66.546637
66.229322
65.935902
65.591091
65.23381
64.920377
64.606252
64.311182
64.07747
63.89599
63.779552
63.738509
63.781359
63.914402
64.121721
64.371929
64.722255
65.255319
65.436614
65.988735
66.566651
67.054978
67.583903
68.251132
69.098424
69.835198
71.025248
72.501164
74.489852
76.773719
79.81194
83.926672
89.132327
95.672385
103.86386
115.45081
129.5571
148.4405
171.14278
201.45543
238.19343
281.98417
335.5553
399.27906
470.3051
544.95036
614.86142
677.58403
727.79717
761.13634
779.07424
263.5773
263.61481
263.63612
263.63975
263.60936
263.5452
263.44667
263.31371
263.14674
262.9463
262.713
262.44743
262.15021
261.82182
261.46307
261.07391
260.65603
260.20753
259.73283
259.22604
258.6958
258.13291
257.54498
256.93073
256.28085
255.61706
254.90852
254.18532
253.43338
252.63561
251.83751
250.98807
250.11192
249.22122
248.29116
247.32123
246.3481
245.32376
244.27616
243.2128
242.10628
240.96687
239.83198
238.64858
237.42441
236.21116
234.96443
233.66937
232.39617
231.07553
229.72425
228.39928
227.02498
225.639
224.25839
222.83903
221.4263
220.005
218.56141
217.1329
215.68434
214.21712
212.7648
211.29627
209.84016
208.39496
206.90166
205.43738
203.98947
202.50835
201.05017
199.5946
198.13488
196.68495
195.21697
193.78556
192.35184
190.86653
189.4552
188.05934
186.56054
185.13722
183.79567
182.31839
180.85822
179.55139
178.13518
176.62979
175.30163
173.99026
172.51752
171.11426
169.83669
168.44768
167.00235
165.71037
164.40884
162.987
161.6603
160.38001
159.00824
157.67749
156.39358
155.08704
153.75559
152.42108
151.18425
149.9306
148.53428
147.25573
146.11709
144.79267
143.44897
142.30243
141.08428
139.75371
138.52876
137.35506
136.14353
134.94999
133.73362
132.51868
131.39982
130.24248
128.99562
127.87198
126.82483
125.61444
124.39855
123.35358
122.26606
121.06829
119.96845
118.96466
117.88944
116.77665
115.73014
114.71223
113.67545
112.63499
111.6008
110.57103
109.57679
108.61159
107.61158
106.60338
105.67104
104.74678
103.78853
102.84329
101.89562
100.94886
100.03345
99.136807
98.22445
97.327103
96.482663
95.654117
94.795659
93.937759
93.129151
92.331265
91.492275
90.647711
89.843192
89.086875
88.302657
87.523141
86.807948
86.053886
85.303864
84.626548
83.914383
83.165837
82.483093
81.830331
81.130491
80.429217
79.747976
79.067898
78.452801
77.851726
77.180784
76.559449
75.994009
75.409145
74.803379
74.159051
73.556818
73.025708
72.483969
71.97961
71.482898
70.963832
70.503411
70.053965
69.621502
69.230031
68.83557
68.447578
68.084038
67.728033
67.384662
67.056613
66.729961
66.394338
66.051542
65.711095
65.353251
64.992882
64.663424
64.365843
64.088243
63.843545
63.649322
63.517533
63.45944
63.49275
63.617838
63.806637
64.022882
64.290554
64.747877
65.067467
65.281428
65.788713
66.177384
66.397324
66.747721
67.113507
67.598959
68.338374
69.31311
70.921561
73.168402
75.127984
76.804459
78.183156
79.246877
82.484503
87.63096
95.322138
105.3651
117.59882
136.96057
163.56916
202.55554
259.21978
323.2211
397.58994
477.29206
559.5982
635.41355
696.25285
740.12339
765.67852
263.38524
263.42259
263.44343
263.44619
263.4147
263.34921
263.24916
263.11456
262.94584
262.74359
262.50845
262.24102
261.94196
261.6118
261.25128
260.86052
260.4409
259.99114
259.51469
259.00705
258.47523
257.91149
257.32288
256.70693
256.05745
255.39176
254.68239
253.96057
253.20369
252.40844
251.60879
250.75318
249.88243
248.98492
248.05279
247.0802
246.10681
245.07123
244.03084
242.95108
241.84506
240.70434
239.56254
238.36164
237.14617
235.92673
234.6623
233.37035
232.09001
230.75403
229.40543
228.07812
226.68814
225.30035
223.90801
222.4987
221.07684
219.63866
218.20923
216.7707
215.30731
213.84985
212.39907
210.92262
209.46769
208.00506
206.5227
205.07418
203.59202
202.12505
200.6955
199.20909
197.75056
196.31849
194.83431
193.41003
191.98612
190.48746
189.09422
187.7048
186.1853
184.77403
183.44153
181.94902
180.50366
179.20983
177.77279
176.2759
174.96199
173.64474
172.17399
170.76293
169.49627
168.1106
166.65145
165.38166
164.08264
162.64139
161.33134
160.05896
158.68229
157.35529
156.06513
154.75742
153.43718
152.11637
150.87336
149.5942
148.21299
146.96737
145.80177
144.45987
143.15364
142.00041
140.75236
139.44848
138.22877
137.02205
135.83198
134.6704
133.44143
132.2347
131.11821
129.91742
128.66612
127.58649
126.53366
125.29725
124.11514
123.09532
121.96822
120.75732
119.70953
118.68778
117.53529
116.46707
115.50396
114.42833
113.32592
112.35941
111.39245
110.31364
109.26973
108.33365
107.35072
106.31326
105.35724
104.45614
103.51488
102.54848
101.6418
100.75399
99.787625
98.822731
97.95532
97.088321
96.167257
95.312383
94.528867
93.692192
92.825762
92.023099
91.26885
90.450382
89.580469
88.815403
88.073561
87.266718
86.508204
85.80399
85.071092
84.314428
83.615185
82.920346
82.203383
81.530424
80.849557
80.184053
79.55964
78.858326
78.178516
77.587292
76.964311
76.325038
75.724353
75.13226
74.54819
73.944092
73.312739
72.711154
72.149533
71.66263
71.17779
70.695259
70.270865
69.815757
69.383383
69.007893
68.617321
68.220426
67.851652
67.499655
67.161615
66.835666
66.511351
66.189636
65.88234
65.554389
65.171177
64.76355
64.373282
64.027015
63.744653
63.496614
63.259015
63.098184
63.028619
63.064551
63.204719
63.429144
63.748376
64.075885
64.32679
64.707823
64.841132
65.097198
65.164203
65.054581
64.80042
64.367854
63.667182
62.802367
62.45189
62.262122
60.734878
56.765177
51.964983
46.82947
42.071516
38.421444
36.703195
36.843922
37.115034
37.230481
38.39742
39.611247
43.262448
118.83008
200.95833
291.44335
388.83412
487.14211
575.83015
648.37268
701.88072
733.13775
263.16125
263.19842
263.21868
263.22036
263.18755
263.12047
263.01864
262.8821
262.71133
262.50697
262.26966
262.00007
261.69886
261.3666
261.004
260.61134
260.18973
259.7384
259.26002
258.75121
258.21772
257.65281
257.06351
256.44555
255.79684
255.12832
254.41961
253.69692
252.93602
252.14454
251.33999
250.48107
249.61525
248.70754
247.77496
246.8007
245.82263
244.77937
243.73954
242.64784
241.53983
240.39419
239.24336
238.02897
236.8256
235.58476
234.30927
233.02546
231.72067
230.38446
229.03542
227.69066
226.2986
224.90457
223.49915
222.09746
220.66186
219.21367
217.79766
216.33362
214.87011
213.43078
211.95766
210.48525
209.03717
207.54686
206.07901
204.65054
203.13549
201.6686
200.26559
198.76589
197.29808
195.88034
194.40326
192.96547
191.5465
190.06603
188.6618
187.26228
185.76767
184.36109
182.99968
181.51956
180.1153
178.79639
177.32326
175.87985
174.57739
173.20509
171.75625
170.38037
169.09469
167.70526
166.27235
164.98892
163.66696
162.26058
160.94861
159.64682
158.32006
156.99999
155.66783
154.37603
153.05677
151.73565
150.51648
149.21119
147.83301
146.63723
145.4231
144.06059
142.81893
141.63974
140.34977
139.10771
137.9015
136.6236
135.45532
134.32734
133.05278
131.87184
130.81203
129.56608
128.28177
127.22843
126.16099
124.91842
123.77507
122.75126
121.61527
120.4482
119.40778
118.34815
117.18062
116.10698
115.14719
114.09586
112.98698
111.97466
111.03824
110.03493
108.97309
107.9864
107.03013
106.01864
105.01342
104.0848
103.17595
102.20913
101.25971
100.39425
99.506005
98.554297
97.637403
96.764009
95.901441
95.008221
94.129823
93.335646
92.526757
91.653782
90.834856
90.064651
89.303087
88.522209
87.707062
87.005896
86.299761
85.481988
84.775013
84.085114
83.293187
82.580387
81.933869
81.221784
80.454115
79.751977
79.135232
78.493735
77.907323
77.323798
76.663981
76.00722
75.422327
74.868524
74.212134
73.446086
72.868653
72.362927
71.691789
71.255791
70.784443
70.098045
69.779795
67.965885
64.731464
61.680122
58.714725
55.798695
52.918164
50.141868
47.534964
45.060402
42.634812
40.210382
37.753003
35.226637
32.610171
29.95456
27.418213
25.121222
23.11752
21.426356
20.059117
19.1115
18.692419
18.779413
19.266817
20.096173
21.211954
22.437018
23.51093
24.345876
24.984195
25.249923
24.752407
23.185371
20.698207
17.541163
13.737768
9.6536166
6.0621789
2.8655028
-0.0079762957
-0.28077243
-0.26993998
-0.25990799
-0.26039273
-0.25380177
-0.246584
-0.22553978
-0.20016304
-0.17855019
-0.14973
-0.10887295
-0.028576434
4.5879848
24.648294
116.21623
257.20498
391.14535
500.49936
584.84592
643.68071
677.06143
262.90557
262.94251
262.96208
262.96251
262.92815
262.85922
262.75531
262.61653
262.44341
262.2366
261.99681
261.72472
261.42102
261.08634
260.72137
260.32649
259.90264
259.44948
258.96896
258.45879
257.9234
257.35726
256.76714
256.14694
255.49942
254.82756
254.12007
253.39558
252.63166
251.8433
251.03321
250.1729
249.30856
248.39242
247.45767
246.48442
245.49328
244.45306
243.40058
242.30731
241.1876
240.04098
238.87509
237.65387
236.4521
235.19689
233.90723
232.62627
231.29734
229.96567
228.61022
227.24055
225.85397
224.4546
223.03935
221.63033
220.18112
218.73573
217.32347
215.83023
214.3743
212.94786
211.44739
209.98812
208.53235
207.03242
205.58332
204.1425
202.62914
201.16497
199.74478
198.25515
196.8071
195.37032
193.89423
192.47755
191.04176
189.57185
188.17958
186.75339
185.28039
183.90644
182.50652
181.02575
179.65752
178.31188
176.8407
175.42852
174.10845
172.73387
171.28388
169.90954
168.64966
167.24527
165.82165
164.56143
163.2037
161.80968
160.51836
159.18791
157.89064
156.58831
155.22568
153.95883
152.64006
151.28591
150.08816
148.78842
147.40143
146.24159
145.01213
143.61287
142.40485
141.22931
139.91342
138.70227
137.52492
136.22149
135.0347
133.90858
132.62251
131.44548
130.42203
129.19441
127.91543
126.84346
125.72298
124.47451
123.38042
122.35669
121.18084
120.06477
119.08632
117.96946
116.78655
115.77351
114.75826
113.63902
112.60911
111.62846
110.59862
109.60773
108.64535
107.65136
106.65706
105.67479
104.68708
103.72806
102.80075
101.83622
100.87251
99.973582
99.056579
98.165293
97.340431
96.417792
95.505607
94.737813
93.88199
92.959999
92.12668
91.346664
90.505614
89.58688
88.773579
88.145418
87.358235
86.560399
85.956138
85.26464
84.449957
83.767506
83.100146
82.299278
81.563553
81.000916
80.213882
79.321632
78.673797
74.977531
69.584004
64.410444
59.147033
53.785137
48.65054
43.720411
38.589994
33.251685
28.113914
23.276343
18.636095
14.227608
9.9330883
5.7500671
1.875456
-0.12208886
-0.15293053
-0.13709327
-0.13326479
-0.13504168
-0.13820927
-0.14228346
-0.14779934
-0.15493495
-0.16375493
-0.17366453
-0.18352246
-0.19222025
-0.1990425
-0.2046853
-0.20779333
-0.20891884
-0.20911271
-0.20889907
-0.20898395
-0.20960007
-0.21179284
-0.21488985
-0.21770938
-0.21932149
-0.21885943
-0.21799385
-0.21813095
-0.22014009
-0.22481037
-0.23415247
-0.24807398
-0.2644737
-0.27880732
-0.28405393
-0.28001528
-0.27265875
-0.2573896
-0.232911
-0.20521934
-0.20223641
-0.22088418
-0.23621423
-0.25136735
-0.26180543
-0.26141259
-0.2519807
-0.23850108
-0.22830241
-0.22370237
-0.21029553
-0.18934754
-0.12892629
0.10927938
6.0105776
90.8849
268.66997
403.42992
500.74337
565.33481
599.53052
262.61843
262.65512
262.67389
262.67287
262.63674
262.56571
262.45943
262.31809
262.14228
261.93269
261.69006
261.41512
261.10861
260.77118
260.40351
260.00611
259.57977
259.12445
258.64166
258.12982
257.59245
257.02497
256.43367
255.81175
255.16469
254.48997
253.78414
253.05627
252.29179
251.50473
250.68779
249.83051
248.9608
248.04171
247.10061
246.13093
245.12152
244.08817
243.01812
241.92777
240.78892
239.64617
238.45512
237.23929
236.01826
234.76306
233.45918
232.1696
230.82757
229.48767
228.12688
226.7358
225.35007
223.94257
222.52253
221.10064
219.63466
218.20656
216.77719
215.26815
213.82368
212.38733
210.86976
209.42849
207.96882
206.44542
205.02031
203.57486
202.04003
200.6045
199.17927
197.66022
196.24176
194.82424
193.31102
191.90473
190.50064
189.01229
187.60297
186.20971
184.74726
183.35784
181.96152
180.49559
179.12719
177.74287
176.31354
174.94399
173.56019
172.20152
170.78979
169.36707
168.11686
166.73585
165.29866
164.06547
162.71638
161.30433
160.01741
158.70007
157.39904
156.09239
154.74106
153.48102
152.1682
150.80593
149.59227
148.32052
146.95585
145.75412
144.52922
143.16606
141.91855
140.72028
139.45417
138.24379
137.03512
135.77826
134.60967
133.42038
132.13719
131.00424
129.92693
128.70418
127.53352
126.44241
125.25577
124.04512
122.93364
121.86525
120.71285
119.5991
118.62898
117.54139
116.37539
115.38635
114.36142
113.18527
112.14028
111.21552
110.18763
109.13146
108.15097
107.22539
106.28847
105.26602
104.25986
103.3587
102.43127
101.44056
100.5019
99.578257
98.576129
97.635004
96.872507
95.958421
95.033315
94.194246
93.418927
92.666151
91.777866
90.878525
90.229908
89.32926
88.204658
87.642256
83.587341
76.242494
69.265686
62.425252
55.490758
48.559544
41.708582
34.914749
28.22603
21.665987
15.126213
8.6489255
2.3593832
-0.015870969
-0.03663734
-0.050011919
-0.071554195
-0.09731347
-0.1231906
-0.14862259
-0.17308778
-0.19369788
-0.20923093
-0.21897048
-0.21867577
-0.20748028
-0.18799248
-0.16435287
-0.14101635
-0.1366321
-0.138414
-0.13470002
-0.13295849
-0.13399484
-0.13713312
-0.14171679
-0.14750867
-0.15474536
-0.16379396
-0.17391241
-0.18376173
-0.19264393
-0.20021515
-0.20539217
-0.20791634
-0.20874581
-0.20832495
-0.2072268
-0.20692424
-0.20883694
-0.21268955
-0.21799628
-0.22341821
-0.22583793
-0.22464764
-0.22102328
-0.21811206
-0.21795536
-0.2208904
-0.22816567
-0.2408146
-0.25653333
-0.27202512
-0.28024418
-0.27929539
-0.27464821
-0.25967469
-0.22668714
-0.21059767
-0.22767271
-0.24985355
-0.26391551
-0.27004505
-0.2710557
-0.26816766
-0.26228818
-0.25727266
-0.25762359
-0.26365465
-0.27016072
-0.26119517
-0.2132447
-0.094229839
-0.035595412
10.004859
135.9994
300.95276
408.28358
473.79844
506.92222
262.3001
262.33649
262.35436
262.35172
262.31361
262.24019
262.13124
261.98702
261.80817
261.59544
261.34961
261.07148
260.76179
260.42126
260.05059
259.65035
259.22125
258.7635
258.27822
257.76452
257.22497
256.65617
256.06341
255.43999
254.79314
254.11583
253.41159
252.68091
251.91598
251.12926
250.3054
249.45365
248.57318
247.65666
246.70634
245.73756
244.71321
243.68278
242.59635
241.50634
240.34971
239.20533
237.99724
236.7664
235.55572
234.27837
232.94493
231.66374
230.30394
228.94677
227.5921
226.17852
224.78785
223.36501
221.94418
220.50757
219.02685
217.61945
216.15439
214.65257
213.20743
211.75239
210.2469
208.78317
207.34448
205.8157
204.36017
202.94405
201.40139
199.96083
198.55439
197.01849
195.59327
194.20212
192.68704
191.25846
189.88828
188.41121
186.95533
185.60291
184.17481
182.72432
181.35444
179.93132
178.51842
177.12691
175.74109
174.36513
172.96145
171.62636
170.21112
168.78554
167.55469
166.15458
164.7107
163.49924
162.16648
160.75734
159.45957
158.16519
156.86513
155.51814
154.20241
152.9641
151.62714
150.29179
149.05474
147.75821
146.47828
145.2546
143.95363
142.66806
141.4157
140.14598
138.93454
137.73618
136.48606
135.25883
134.13258
132.91844
131.60546
130.51652
129.4076
128.12113
127.04378
125.98406
124.72866
123.58624
122.51718
121.34949
120.18753
119.14568
118.12907
116.9659
115.87225
114.96077
113.8878
112.72553
111.73286
110.74934
109.72378
108.71454
107.62274
106.61869
105.83254
104.80288
103.73971
102.85644
102.04894
101.04998
100.04186
99.251663
98.158574
96.970552
96.28449
89.819605
80.461322
71.504172
62.766692
54.118404
45.487592
36.97962
28.644472
20.187844
11.803699
3.8678054
-0.019470023
-0.027794662
-0.019084223
-0.015762988
-0.014616649
-0.013654828
-0.011883218
-0.0092825437
-0.0083148934
-0.0092513389
-0.010512841
-0.013711458
-0.020188586
-0.019941115
-0.031927068
-0.05001868
-0.072480964
-0.098742096
-0.12580411
-0.1517048
-0.17716007
-0.20147974
-0.21917824
-0.2257964
-0.22224251
-0.21223333
-0.19385229
-0.17062328
-0.14985054
-0.13430568
-0.13018692
-0.12888628
-0.12959106
-0.13248234
-0.13670738
-0.1415977
-0.14735678
-0.15486001
-0.16440906
-0.17516432
-0.18574382
-0.19501802
-0.20242011
-0.20701196
-0.20939123
-0.21016638
-0.20951605
-0.20813521
-0.20719974
-0.2082561
-0.21121748
-0.21526661
-0.2192851
-0.22036947
-0.21863167
-0.21717525
-0.21742159
-0.22005663
-0.22542221
-0.23447514
-0.24652248
-0.26022661
-0.27213228
-0.27807549
-0.2763991
-0.2689048
-0.25452369
-0.23524023
-0.22440523
-0.2273884
-0.23698052
-0.24813447
-0.25838413
-0.26505328
-0.26748093
-0.26741636
-0.26811936
-0.27236491
-0.28038667
-0.28895401
-0.29256082
-0.27540284
-0.21255966
-0.12465787
-0.037011738
51.184827
223.90084
321.26422
383.66704
412.62359
261.95087
261.98691
262.00379
261.99936
261.95903
261.88296
261.77102
261.62357
261.44131
261.22507
260.97567
260.69397
260.38076
260.03679
259.66278
259.25937
258.82724
258.36675
257.8788
257.36298
256.82117
256.25097
255.65652
255.03215
254.38461
253.70599
253.00258
252.26943
251.50531
250.71699
249.88824
249.04123
248.14838
247.2366
246.27608
245.30486
244.26947
243.23729
242.13644
241.03866
239.87429
238.7122
237.50339
236.25693
235.03118
233.73608
232.38716
231.10775
229.71985
228.35195
227.00033
225.55822
224.16659
222.73462
221.29306
219.85599
218.36822
216.94881
215.47197
213.97343
212.5185
211.05769
209.55698
208.07694
206.64175
205.12513
203.64605
202.22297
200.71099
199.26704
197.83159
196.31502
194.90765
193.48657
191.99192
190.59016
189.19069