/*--------------------------------*- C++ -*----------------------------------*\
| =========                 |                                                 |
| \\      /  F ield         | OpenFOAM: The Open Source CFD Toolbox           |
|  \\    /   O peration     | Version:  2106                                  |
|   \\  /    A nd           | Website:  www.openfoam.com                      |
|    \\/     M anipulation  |                                                 |
\*---------------------------------------------------------------------------*/
FoamFile
{
    version     2.0;
    format      ascii;
    arch        "LSB;label=32;scalar=64";
    class       volScalarField;
    location    "0.195";
    object      reconstructedDistanceFunction;
}
// * * * * * * * * * * * * * * * * * * * * * * * * * * * * * * * * * * * * * //

dimensions      [0 1 0 0 0 0 0];

internalField   nonuniform List<scalar> 
32768
(
0
0
0
0
0
0
0
0
0
0
0
0
0
0
0
0
0
0
0
0
0
0
0
0
0
0
0
0
0
0
0
0
0
0
0
0
0
0
0
0
0
0
0
0
0
0
0
0
0
0
0
0
0
0
0
0
0
0
0
0
0
0
0
0
0
0
0
0
0
0
0
0
0
0
0
0
0
0
0
0
0
0
0
0
0
0
0
0
0
0
0
0
0
0
0
0
0
0
0
0
0
0
0
0
0
0
0
0
0
0
0
0
0
0
0
0
0
0
0
0
0
0
0
0
0
0
0
0
0
0
0
0
0
0
0
0
0
0
0
0
0
0
0
0
0
0
0
0
0
0
0
0
0
0
0
0
0
0
0
0
0
0
0
0
0
0
0
0
0
0
0
0
0
0
0
0
0
0
0
0
0
0
0
0
0
0
0
0
0
0
0
0
0
0
0
0
0
0
0
0
0
0
0
0
0
0
0
0
0
0
0
0
0
0
0
0
0
0
0
0
0
0
0
0
0
0
0
0
0
0
0
0
0
0
0
0
0
0
0
0
0
0
0
0
0
0
0
0
0
0
0
0
0.0025185074
0.001887083
0.0012556586
0.00062423424
0
0
0
0
0
0
0
0
0
0
0
0
0
0
0
0
0
0
0
0
0
0
0
0
0
0
0
0
0
0
0
0
0
0
0
0
0
0
0
0
0
0
0
0
0
0
0
0
0
0
0
0
0
0
0
0
0
0
0
0
0
0
0
0
0
0
0
0
0
0
0
0
0
0
0
0
0
0
0
0
0
0
0
0
0
0
0
0
0
0
0
0
0
0
0
0
0
0
0
0
0
0
0
0
0
0
0
0
0
0
0
0
0
0
0
0
0
0
0
0
0
0
0
0
0
0
0
0
0
0
0
0
0
0
0
0
0
0
0
0
0
0
0
0
0
0
0
0
0
0
0
0
0
0
0
0
0
0
0
0
0
0
0
0
0
0
0
0
0
0
0
0
0
0
0
0
0
0
0
0
0
0
0
0
0
0
0
0
0
0
0
0
0
0
0
0
0
0
0
0
0
0
0
0
0
0
0
0
0
0
0
0
0
0
0
0
0
0
0
0
0
0
0
0
0
0
0
0
0
0
0
0
0
0
0
0
0
0
0
0
0
0
0
0
0
0
0
0
0
0
0
0
0.0031499315
0.0025185071
0.0018870828
0.0012556584
0
0
0
0
0
0
0
0
0
0
0
0
0
0
0
0
0
0
0
0
0
0
0
0
0
0
0
0
0
0
0
0
0
0
0
0
0
0
0
0
0
0
0
0
0
0
0
0
0
0
0
0
0
0
0
0
0
0
0
0
0
0
0
0
0
0
0
0
0
0
0
0
0
0
0
0
0
0
0
0
0
0
0
0
0
0
0
0
0
0
0
0
0
0
0
0
0
0
0
0
0
0
0
0
0
0
0
0
0
0
0
0
0
0
0
0
0
0
0
0
0
0
0
0
0
0
0
0
0
0
0
0
0
0
0
0
0
0
0
0
0
0
0
0
0
0
0
0
0
0
0
0
0
0
0
0
0
0
0
0
0
0
0
0
0
0
0
0
0
0
0
0
0
0
0
0
0
0
0
0
0
0
0
0
0
0
0
0
0
0
0
0
0
0
0
0
0
0
0
0
0
0
0
0
0
0
0
0
0
0
0
0
0
0
0
0
0
0
0
0
0
0
0
0
0
0
0
0
0
0
0
0
0
0
0
0
0
0
0
0
0
0
0
0
0
0
0
0
0
0
0
0
0.0037813556
0.0031499312
0.0025185069
0.0018870825
0
0
0
0
0
0
0
0
0
0
0
0
0
0
0
0
0
0
0
0
0
0
0
0
0
0
0
0
0
0
0
0
0
0
0
0
0
0
0
0
0
0
0
0
0
0
0
0
0
0
0
0
0
0
0
0
0
0
0
0
0
0
0
0
0
0
0
0
0
0
0
0
0
0
0
0
0
0
0
0
0
0
0
0
0
0
0
0
0
0
0
0
0
0
0
0
0
0
0
0
0
0
0
0
0
0
0
0
0
0
0
0
0
0
0
0
0
0
0
0
0
0
0
0
0
0
0
0
0
0
0
0
0
0
0
0
0
0
0
0
0
0
0
0
0
0
0
0
0
0
0
0
0
0
0
0
0
0
0
0
0
0
0
0
0
0
0
0
0
0
0
0
0
0
0
0
0
0
0
0
0
0
0
0
0
0
0
0
0
0
0
0
0
0
0
0
0
0
0
0
0
0
0
0
0
0
0
0
0
0
0
0
0
0
0
0
0
0
0
0
0
0
0
0
0
0
0
0
0
0
0
0.0032477769
0.0032023524
0.0031590146
0.0031107106
0.0030507014
0.0029847682
0.0029170622
0.0028570708
0.0028110664
0.0027860307
0.0027815171
0.0027839934
0.0027909123
0.0028158279
0.0028596234
0.002912486
0.0030668467
0.0032984375
0.003557397
0.0039259651
0
0.0044127798
0.0037813554
0.003149931
0.0025185066
0
0
0
0
0
0
0
0
0
0
0
0
0
0
0
0
0
0
0
0
0
0
0
0
0
0
0
0
0
0
0
0
0
0
0
0
0
0
0
0
0
0
0
0
0
0
0
0
0
0
0
0
0
0
0
0
0
0
0
0
0
0
0
0
0
0
0
0
0
0
0
0
0
0
0
0
0
0
0
0
0
0
0
0
0
0
0
0
0
0
0
0
0
0
0
0
0
0
0
0
0
0
0
0
0
0
0
0
0
0
0
0
0
0
0
0
0
0
0
0
0
0
0
0
0
0
0
0
0
0
0
0
0
0
0
0
0
0
0
0
0
0
0
0
0
0
0
0
0
0
0
0
0
0
0
0
0
0
0
0
0
0
0
0
0
0
0
0
0
0
0
0
0
0
0
0
0
0
0
0
0
0
0
0
0
0
0
0
0
0
0
0
0.0032360589
0.0031885539
0.0031443785
0.0031021759
0.0030610381
0.0030217456
0.0029836565
0.0029464339
0.0029099894
0.0028749002
0.0028416086
0.0028097056
0.0027784201
0.0027472308
0.0027156861
0.0026834224
0.0026503806
0.0026172026
0.0025855455
0.0025567452
0.0025315001
0.0025102239
0.002493196
0.0024814372
0.0024761281
0.0024770594
0.0024830174
0.0024931638
0.0025066839
0.0025214922
0.0025347595
0.0025450607
0.0025524122
0.00255468
0.002547476
0.0025273572
0.002495702
0.0024554329
0.0024072652
0.0023561416
0.0023104851
0.0022672008
0.0022193232
0.0021598333
0.0020943412
0.0020265613
0.0019658985
0.0019189039
0.0018931988
0.001888549
0.0018910414
0.0018980755
0.0019233817
0.0019689462
0.00203296
0.0021916429
0.002454266
0.0027440393
0.0031126074
0.0035733069
0.0040950638
0
0
0
0
0
0
0
0
0
0
0
0
0
0
0
0
0
0
0
0
0
0
0
0
0
0
0
0
0
0
0
0
0
0
0
0
0
0
0
0
0
0
0
0
0
0
0
0
0
0
0
0
0
0
0
0
0
0
0
0
0
0
0
0
0
0
0
0
0
0
0
0
0
0
0
0
0
0
0
0
0
0
0
0
0
0
0
0
0
0
0
0
0
0
0
0
0
0
0
0
0
0
0
0
0
0
0
0
0
0
0
0
0
0
0
0
0
0
0
0
0
0
0
0
0
0
0
0
0
0
0
0
0
0
0
0
0
0
0
0
0
0
0
0
0
0
0
0
0
0
0
0
0
0
0
0
0
0
0
0
0
0
0
0
0
0
0
0
0
0
0
0
0
0
0
0
0
0
0.0033379953
0.0032714193
0.0032056682
0.0031420466
0.0030792974
0.0030183419
0.0029592247
0.0028995841
0.0028397503
0.0027819014
0.0027253578
0.0026671801
0.0026077391
0.0025503826
0.0024958379
0.0024433133
0.0023932525
0.0023444071
0.0022967892
0.0022524765
0.0022101873
0.002168985
0.0021296224
0.0020914863
0.002054231
0.0020177447
0.0019825936
0.0019492391
0.0019172957
0.0018859951
0.0018548094
0.0018232841
0.0017910508
0.0017580313
0.0017248343
0.0016931037
0.0016641986
0.0016388452
0.0016174695
0.001600349
0.0015885112
0.0015831621
0.001584098
0.0015900881
0.001600279
0.0016138328
0.0016286367
0.0016418705
0.001652138
0.0016594584
0.0016617135
0.0016546018
0.0016347385
0.0016034309
0.0015635482
0.0015156819
0.0014645064
0.0014186179
0.0013753869
0.0013279359
0.0012689652
0.0012039142
0.0011360605
0.0010747261
0.0010267415
0.0010003669
0.00099558088
0.00099808935
0.0010052388
0.0010309354
0.001078269
0.001153434
0.0013341929
0.0016028622
0.0019306816
0.0023363416
0.0028385167
0.0034037908
0.0040322606
0
0
0
0
0
0
0
0
0
0
0
0
0
0
0
0
0
0
0
0
0
0
0
0
0
0
0
0
0
0
0
0
0
0
0
0
0
0
0
0
0
0
0
0
0
0
0
0
0
0
0
0
0
0
0
0
0
0
0
0
0
0
0
0
0
0
0
0
0
0
0
0
0
0
0
0
0
0
0
0
0
0
0
0
0
0
0
0
0
0
0
0
0
0
0
0
0
0
0
0
0
0
0
0
0
0
0
0
0
0
0
0
0
0
0
0
0
0
0
0
0
0
0
0
0
0
0
0
0
0
0
0
0
0
0
0
0
0
0
0
0
0
0
0
0
0
0
0
0
0
0
0
0
0
0
0
0
0
0
0
0
0
0
0
0
0.0033013698
0.0032243784
0.0031517514
0.0030780913
0.0030040113
0.002932977
0.002862671
0.0027918022
0.0027213041
0.0026515823
0.0025825006
0.002514422
0.0024475401
0.0023809242
0.002315076
0.0022510747
0.0021884949
0.0021274074
0.0020682375
0.0020086174
0.0019487336
0.0018907751
0.0018342258
0.0017761421
0.0017167043
0.0016592094
0.0016045007
0.0015518348
0.0015016716
0.0014527554
0.0014050244
0.0013605745
0.0013181987
0.0012769318
0.0012374992
0.0011993162
0.0011620281
0.0011255
0.0010902869
0.0010568696
0.0010248857
0.00099357007
0.00096238811
0.00093088213
0.00089867917
0.00086568207
0.00083246596
0.00080066194
0.00077165193
0.00074619025
0.00072471514
0.00070750188
0.00069558525
0.00069019603
0.00069113666
0.00069715881
0.00070739416
0.00072098179
0.00073578114
0.00074898154
0.00075921524
0.00076650453
0.00076874696
0.0007617275
0.00074211981
0.00071115986
0.00067166342
0.00062409855
0.00057287118
0.0005267506
0.00048357312
0.0004365485
0.00037809701
0.00031348725
0.00024555961
0.00018355382
0.00013457903
0.00010753494
0.00010261274
0.00010513731
0.00011240202
0.00013848921
0.00018759168
0.00027390802
0.00047674295
0.00074875577
0.0010993763
0.0015906748
0.0021472437
0.0027703602
0.0034257734
0.0041519843
0
0
0
0
0
0
0
0
0
0
0
0
0
0
0
0
0
0
0
0
0
0
0
0
0
0
0
0
0
0
0
0
0
0
0
0
0
0
0
0
0
0
0
0
0
0
0
0
0
0
0
0
0
0
0
0
0
0
0
0
0
0
0
0
0
0
0
0
0
0
0
0
0
0
0
0
0
0
0
0
0
0
0
0
0
0
0
0
0
0
0
0
0
0
0
0
0
0
0
0
0
0
0
0
0
0
0
0
0
0
0
0
0
0
0
0
0
0
0
0
0
0
0
0
0
0
0
0
0
0
0
0
0
0
0
0
0
0
0
0
0
0
0
0
0
0
0
0
0
0
0
0
0.0034010836
0.0033113559
0.0032235073
0.0031409652
0.0030547787
0.0029692222
0.0028869647
0.0028059651
0.0027257618
0.0026460271
0.0025673444
0.0024900005
0.0024118028
0.0023346097
0.0022617122
0.0021881886
0.002114023
0.0020428381
0.0019724922
0.0019016345
0.0018311077
0.0017613327
0.0016921837
0.0016240225
0.0015570848
0.001490429
0.0014244839
0.0013603803
0.0012976925
0.0012364729
0.0011772503
0.0011176507
0.0010577169
0.00099964883
0.00094309378
0.00088510405
0.00082566954
0.00076803626
0.0007131636
0.00066035626
0.0006100907
0.00056110364
0.00051325968
0.00046867247
0.00042621013
0.00038487865
0.00034537603
0.00030714597
0.00026982525
0.00023325533
0.00019798025
0.0001645001
0.00013247578
0.00010114505
6.996678e-05
3.8480149e-05
6.3075403e-06
-2.6667189e-05
-5.9902356e-05
-9.1779854e-05
-0.00012089468
-0.00014646466
-0.0001680392
-0.00018534517
-0.00019734073
-0.00020276999
-0.00020182473
-0.0001957705
-0.00018549067
-0.00017186926
-0.00015707441
-0.00014390743
-0.00013370749
-0.0001264493
-0.00012421953
-0.00013114676
-0.0001504989
-0.00018111121
-0.00022022132
-0.0002674848
-0.00031876405
-0.00036511666
-0.00040824071
-0.00045483886
-0.00051277113
-0.00057693974
-0.00064494124
-0.0007076185
-0.00075758343
-0.00078529698
-0.00079035539
-0.00078781472
-0.00078043473
-0.00075395704
-0.00070308555
-0.00060561796
-0.00036921243
-6.4601912e-05
0.0003537095
0.00089069655
0.0015084597
0.0021720891
0.0029122859
0.0036639007
0
0
0
0
0
0
0
0
0
0
0
0
0
0
0
0
0
0
0
0
0
0
0
0
0
0
0
0
0
0
0
0
0
0
0
0
0
0
0
0
0
0
0
0
0
0
0
0
0
0
0
0
0
0
0
0
0
0
0
0
0
0
0
0
0
0
0
0
0
0
0
0
0
0
0
0
0
0
0
0
0
0
0
0
0
0
0
0
0
0
0
0
0
0
0
0
0
0
0
0
0
0
0
0
0
0
0
0
0
0
0
0
0
0
0
0
0
0
0
0
0
0
0
0
0
0
0
0
0
0
0
0
0
0
0
0
0
0
0
0
0
0
0.0034258096
0.003330726
0.0032356187
0.0031457622
0.0030534099
0.002959868
0.0028694174
0.0027802281
0.0026906742
0.0026012731
0.0025126068
0.0024228553
0.002334716
0.0022520234
0.0021659384
0.0020802736
0.0019977888
0.0019166591
0.0018363975
0.0017565916
0.001677809
0.001600445
0.0015222358
0.0014448411
0.0013717733
0.0012982858
0.0012240347
0.0011526991
0.0010823134
0.0010114667
0.00094091129
0.00087108302
0.00080186671
0.00073362296
0.00066662964
0.00059993383
0.00053389181
0.00046968585
0.00040688998
0.00034553838
0.00028626316
0.00022668403
0.00016670015
0.00010852257
5.1961762e-05
-5.9339794e-06
-6.5365232e-05
-0.00012313689
-0.00017817354
-0.00023112228
-0.00028149019
-0.00033054811
-0.00037850505
-0.00042322954
-0.00046577847
-0.00050717452
-0.00054674716
-0.00058502421
-0.00062237764
-0.00065898937
-0.0006943264
-0.00072786941
-0.00075993417
-0.00079127997
-0.00082245456
-0.00085392183
-0.00088606409
-0.00091901647
-0.00095227065
-0.00098422165
-0.0010134413
-0.0010391196
-0.0010607936
-0.0010781922
-0.0010902667
-0.001095736
-0.0010947861
-0.0010886998
-0.0010783755
-0.0010647203
-0.0010499299
-0.0010367964
-0.0010266302
-0.0010194031
-0.001017186
-0.001024021
-0.0010431176
-0.0010733823
-0.0011121061
-0.0011590681
-0.0012103993
-0.0012569839
-0.0013000545
-0.0013462262
-0.0014036393
-0.0014673667
-0.0015354421
-0.0015987908
-0.0016497459
-0.0016781289
-0.0016833235
-0.0016807668
-0.0016732715
-0.0016464033
-0.0015937628
-0.0014875016
-0.0012206163
-0.00088325581
-0.00036585057
0.00024655935
0.00093239062
0.0016725874
0.0024458759
0.0032216231
0
0
0
0
0
0
0
0
0
0
0
0
0
0
0
0
0
0
0
0
0
0
0
0
0
0
0
0
0
0
0
0
0
0
0
0
0
0
0
0
0
0
0
0
0
0
0
0
0
0
0
0
0
0
0
0
0
0
0
0
0
0
0
0
0
0
0
0
0
0
0
0
0
0
0
0
0
0
0
0
0
0
0
0
0
0
0
0
0
0
0
0
0
0
0
0
0
0
0
0
0
0
0
0
0
0
0
0
0
0
0
0
0
0
0
0
0
0
0
0
0
0
0
0
0
0
0
0
0
0
0
0
0
0.003421777
0.0033193618
0.0032169899
0.0031196703
0.0030195729
0.0029203621
0.0028241789
0.00272849
0.0026326398
0.0025379266
0.0024428614
0.0023475397
0.0022574915
0.0021652704
0.0020716952
0.0019810362
0.0018917506
0.0018021869
0.0017127618
0.0016241301
0.0015343548
0.0014459246
0.0013624041
0.0012770981
0.001191325
0.0011086129
0.001027353
0.00094703319
0.00086715613
0.00078827351
0.0007108894
0.00063266887
0.00055507242
0.00048183434
0.00040838308
0.00033404631
0.00026256022
0.00019213453
0.00012129895
5.0714906e-05
-1.9166592e-05
-8.8450263e-05
-0.00015677657
-0.00022382557
-0.00029056134
-0.00035670031
-0.00042100858
-0.0004839125
-0.00054539614
-0.00060472401
-0.00066428264
-0.00072431657
-0.0007826037
-0.00083917026
-0.00089697201
-0.0009564
-0.00101431
-0.0010695107
-0.0011226008
-0.0011730711
-0.0012221999
-0.0012702698
-0.0013151316
-0.0013577671
-0.0013992277
-0.0014388703
-0.0014771944
-0.0015145805
-0.0015512341
-0.0015866331
-0.0016202389
-0.0016523441
-0.001683705
-0.0017148759
-0.0017463238
-0.0017784357
-0.0018113657
-0.001844639
-0.0018766634
-0.0019059879
-0.0019317745
-0.0019535479
-0.0019710393
-0.0019831927
-0.001988702
-0.0019877475
-0.0019816291
-0.0019712603
-0.0019575714
-0.0019427855
-0.0019296854
-0.001919553
-0.001912357
-0.0019101525
-0.0019168953
-0.0019357363
-0.0019656533
-0.0020039908
-0.0020506515
-0.0021020345
-0.0021488512
-0.0021918684
-0.0022391884
-0.0022945074
-0.0023577937
-0.002425943
-0.0024899632
-0.0025419083
-0.0025709608
-0.0025762917
-0.0025737188
-0.0025661082
-0.0025388495
-0.0024844401
-0.0023449516
-0.0020598854
-0.0016223977
-0.0010153411
-0.00030730783
0.00045210391
0.0012278511
0.0020833228
0.0028956931
0.0036981311
0
0
0
0
0
0
0
0
0
0
0
0
0
0
0
0
0
0
0
0
0
0
0
0
0
0
0
0
0
0
0
0
0
0
0
0
0
0
0
0
0
0
0
0
0
0
0
0
0
0
0
0
0
0
0
0
0
0
0
0
0
0
0
0
0
0
0
0
0
0
0
0
0
0
0
0
0
0
0
0
0
0
0
0
0
0
0
0
0
0
0
0
0
0
0
0
0
0
0
0
0
0
0
0
0
0
0
0
0
0
0
0
0
0
0
0
0
0
0
0
0
0
0
0
0.0033691504
0.0032616607
0.003157173
0.003052558
0.0029461552
0.0028418324
0.002738557
0.0026359557
0.0025346508
0.002432294
0.00232973
0.0022322357
0.0021321779
0.0020328219
0.0019364335
0.0018406718
0.0017447716
0.0016500436
0.0015549968
0.0014594607
0.0013688113
0.0012771308
0.0011835225
0.0010926551
0.0010032732
0.00091369953
0.00082425045
0.0007356533
0.00064585422
0.00055713332
0.00047343408
0.00038825784
0.00030237644
0.00021943704
0.00013804703
5.7668909e-05
-2.2279351e-05
-0.00010126196
-0.00017866617
-0.0002568981
-0.00033469623
-0.00040810459
-0.00048151969
-0.00055594199
-0.00062757872
-0.00069804427
-0.0007688688
-0.00083948148
-0.00090941621
-0.00097876723
-0.0010471761
-0.0011142808
-0.0011810565
-0.0012472924
-0.001311703
-0.001374715
-0.0014363306
-0.0014957112
-0.0015552493
-0.0016153333
-0.00167373
-0.0017303023
-0.00178801
-0.0018474348
-0.0019054832
-0.0019608478
-0.0020140794
-0.002064652
-0.0021138516
-0.0021620345
-0.0022070336
-0.0022497557
-0.0022912809
-0.0023309935
-0.0023693646
-0.0024067834
-0.0024434788
-0.0024789397
-0.0025126084
-0.0025447541
-0.00257613
-0.0026072972
-0.0026387258
-0.0026708074
-0.002703715
-0.0027370073
-0.0027691052
-0.0027985345
-0.0028244294
-0.0028463023
-0.0028638863
-0.0028761187
-0.0028816681
-0.0028807089
-0.0028745585
-0.0028641451
-0.0028504224
-0.0028356411
-0.0028225743
-0.0028124757
-0.0028053108
-0.002803119
-0.0028097696
-0.002828355
-0.0028579244
-0.0028958755
-0.0029422348
-0.0029936697
-0.0030407185
-0.0030836822
-0.0031306451
-0.0031853755
-0.0032482207
-0.0033164438
0
0
0
0
0
0
-0.0034312957
-0.0033751173
-0.0031926909
-0.0028658879
-0.0022772415
-0.0015416681
-0.00072452736
8.7842824e-05
0.00090021301
0.0017178028
0.0025610286
0.0034042543
0
0
0
0
0
0
0
0
0
0
0
0
0
0
0
0
0
0
0
0
0
0
0
0
0
0
0
0
0
0
0
0
0
0
0
0
0
0
0
0
0
0
0
0
0
0
0
0
0
0
0
0
0
0
0
0
0
0
0
0
0
0
0
0
0
0
0
0
0
0
0
0
0
0
0
0
0
0
0
0
0
0
0
0
0
0
0
0
0
0
0
0
0
0
0
0
0
0
0
0
0
0
0
0
0
0
0
0
0
0
0
0
0
0
0
0.0034686483
0.0033559001
0.0032436616
0.0031340837
0.0030235852
0.002913898
0.0028060887
0.0026982237
0.0025899499
0.0024827033
0.0023750643
0.0022704353
0.0021658465
0.0020594351
0.0019549842
0.0018515707
0.0017488419
0.0016475245
0.0015452262
0.0014424702
0.0013448012
0.0012447829
0.0011452817
0.0010486881
0.00095285362
0.00085690347
0.0007621606
0.00066713217
0.00057138173
0.00048052849
0.00038899121
0.00029534976
0.00020427398
0.0001147958
2.5212193e-05
-6.42609e-05
-0.00015282345
-0.00024264632
-0.00033165801
-0.0004155359
-0.00050058244
-0.00058657214
-0.00066973884
-0.00075125897
-0.00083169538
-0.00091171484
-0.00099079743
-0.0010682217
-0.0011464651
-0.0012244649
-0.0012980435
-0.0013714224
-0.0014459303
-0.0015177177
-0.0015882231
-0.0016590366
-0.0017296778
-0.0017996658
-0.0018690842
-0.0019375756
-0.002004736
-0.0020715517
-0.0021378845
-0.0022023974
-0.0022655175
-0.0023272652
-0.0023866984
-0.002446216
-0.00250635
-0.0025648562
-0.0026214343
-0.0026790481
-0.0027384695
-0.0027966563
-0.0028521849
-0.0029055579
-0.0029562329
-0.0030055034
-0.0030537993
-0.0030989356
-0.0031417443
-0.003183334
-0.0032231167
-0.0032615347
0
0
0
0
0
0
0
0
0
0
0
0
0
0
0
0
0
0
0
0
0
0
0
0
0
0
0
0
0
0
0
0
0
0
0
0
0
0
0
0
0
0
0
0
0
0
0
-0.0040440947
-0.0035269015
-0.0027200073
-0.0019076371
-0.0011057511
-0.00026252539
0.00058070035
0.0014179841
0.0022852053
0.0031524264
0
0
0
0
0
0
0
0
0
0
0
0
0
0
0
0
0
0
0
0
0
0
0
0
0
0
0
0
0
0
0
0
0
0
0
0
0
0
0
0
0
0
0
0
0
0
0
0
0
0
0
0
0
0
0
0
0
0
0
0
0
0
0
0
0
0
0
0
0
0
0
0
0
0
0
0
0
0
0
0
0
0
0
0
0
0
0
0
0
0
0
0
0
0
0
0
0
0
0
0
0
0
0
0
0
0
0
0
0.0033870241
0.0032710138
0.0031580884
0.0030417803
0.0029246639
0.0028104295
0.002696736
0.0025829297
0.0024701073
0.0023576824
0.0022479696
0.0021374546
0.0020276292
0.0019196864
0.0018118065
0.0017035286
0.0015962561
0.0014884678
0.0013835809
0.001279135
0.0011727149
0.001068136
0.00096458435
0.00086172808
0.00076039831
0.00065815839
0.00055521031
0.00045636632
0.00035738801
0.00025774152
0.00016094268
6.5035413e-05
-3.0964681e-05
-0.00012572239
-0.00022073242
-0.00031669727
-0.00040775428
-0.00049914836
-0.00059282299
-0.00068410712
-0.00077368162
-0.00086327514
-0.00095277225
-0.0010413002
-0.0011311469
-0.0012204493
-0.0013045059
-0.0013894227
-0.0014755207
-0.0015589147
-0.001640565
-0.0017210597
-0.0018011503
-0.0018803329
-0.0019577773
-0.002036032
-0.0021142335
-0.0021879824
-0.0022613252
-0.0023359186
-0.0024078566
-0.0024784019
-0.0025492043
-0.0026198742
-0.0026899154
-0.0027594012
-0.0028279752
-0.0028951912
-0.0029620468
-0.0030284767
-0.0030930918
-0.00315632
-0.0032181997
-0.0032776855
0
0
0
0
0
0
0
0
0
0
0
0
0
0
0
0
0
0
0
0
0
0
0
0
0
0
0
0
0
0
0
0
0
0
0
0
0
0
0
0
0
0
0
0
0
0
0
0
0
0
0
0
0
0
0
0
0
0
0
0
0
0
0
0
0
-0.0039031171
-0.0030860793
-0.0022428536
-0.0013965659
-0.00051228234
0.00035904955
0.0012303814
0.0021017133
0.0029893374
0
0
0
0
0
0
0
0
0
0
0
0
0
0
0
0
0
0
0
0
0
0
0
0
0
0
0
0
0
0
0
0
0
0
0
0
0
0
0
0
0
0
0
0
0
0
0
0
0
0
0
0
0
0
0
0
0
0
0
0
0
0
0
0
0
0
0
0
0
0
0
0
0
0
0
0
0
0
0
0
0
0
0
0
0
0
0
0
0
0
0
0
0
0
0
0
0
0
0
0
0.003434672
0.0033171019
0.0032017521
0.0030874112
0.0029714425
0.0028545682
0.0027378094
0.0026205959
0.0025031136
0.0023856129
0.0022726613
0.0021564052
0.0020392695
0.0019248407
0.0018110546
0.0016972112
0.0015843145
0.0014717032
0.0013618555
0.001251324
0.0011413604
0.0010332842
0.00092538931
0.00081710726
0.00070980892
0.00060187142
0.0004968171
0.00039242352
0.00028599481
0.00018128776
7.7598036e-05
-2.5385752e-05
-0.00012672796
-0.0002289094
-0.00033204955
-0.00043108128
-0.00053000694
-0.00062979865
-0.00072680272
-0.00082278278
-0.00091883285
-0.0010136054
-0.001108597
-0.0012047763
-0.001296037
-0.0013872879
-0.0014809957
-0.0015724882
-0.001662159
-0.0017517625
-0.0018412836
-0.001929777
-0.0020196474
-0.0021092407
-0.0021934759
-0.002278263
-0.0023644693
-0.0024480906
-0.002529871
-0.0026104239
-0.0026905858
-0.0027698684
-0.0028473329
-0.002925599
-0.0030040022
-0.0030779213
-0.0031514116
-0.003225907
-0.0032979955
-0.0033685807
0
0
0
0
0
0
0
0
0
0
0
0
0
0
0
0
0
0
0
0
0
0
0
0
0
0
0
0
0
0
0
0
0
0
0
0
0
0
0
0
0
0
0
0
0
0
0
0
0
0
0
0
0
0
0
0
0
0
0
0
0
0
0
0
0
0
0
0
0
0
0
0
0
0
0
0
0
0
-0.0033216595
-0.0024503276
-0.0015638251
-0.0006870416
0.00018974188
0.0010665254
0.0019433089
0.0028278108
0
0
0
0
0
0
0
0
0
0
0
0
0
0
0
0
0
0
0
0
0
0
0
0
0
0
0
0
0
0
0
0
0
0
0
0
0
0
0
0
0
0
0
0
0
0
0
0
0
0
0
0
0
0
0
0
0
0
0
0
0
0
0
0
0
0
0
0
0
0
0
0
0
0
0
0
0
0
0
0
0
0
0
0
0
0
0
0
0
0
0
0
0.0034954002
0.0033751542
0.0032560268
0.003137782
0.0030210082
0.0029054447
0.0027877594
0.0026687074
0.0025494093
0.0024319067
0.0023153985
0.0022018558
0.002086029
0.0019692502
0.0018525235
0.0017353756
0.0016179325
0.001500212
0.0013862696
0.0012710302
0.0011538751
0.0010392519
0.00092537313
0.00081149268
0.00069852171
0.00058572398
0.0004755771
0.00036519342
0.00025509159
0.000146882
3.8972119e-05
-6.9314069e-05
-0.00017663825
-0.000284725
-0.00038994675
-0.00049428796
-0.00060072532
-0.00070556045
-0.00080938828
-0.00091249959
-0.0010138542
-0.0011159772
-0.0012193094
-0.0013185289
-0.0014174019
-0.0015173388
-0.0016145481
-0.001710601
-0.001806701
-0.0019014884
-0.0019964616
-0.0020928553
-0.0021843198
-0.0022754275
-0.0023691685
-0.0024608694
-0.0025506365
-0.0026402498
-0.0027297949
-0.0028182537
-0.002908148
-0.002998032
-0.0030824458
-0.0031663366
-0.0032534179
-0.0033372665
0
0
0
0
0
0
0
0
0
0
0
0
0
0
0
0
0
0
0
0
0
0
0
0
0
0
0
0
0
0
0
0
0
0
0
0
0
0
0
0
0
0
0
0
0
0
0
0
0
0
0
0
0
0
0
0
0
0
0
0
0
0
0
0
0
0
0
0
0
0
0
0
0
0
0
0
0
0
0
0
0
0
0
0
0
0
0
0
0
0
-0.0034866372
-0.0026098537
-0.0017245771
-0.0008525552
1.9466713e-05
0.0008914886
0.0017635105
0.0026149581
0
0
0
0
0
0
0
0
0
0
0
0
0
0
0
0
0
0
0
0
0
0
0
0
0
0
0
0
0
0
0
0
0
0
0
0
0
0
0
0
0
0
0
0
0
0
0
0
0
0
0
0
0
0
0
0
0
0
0
0
0
0
0
0
0
0
0
0
0
0
0
0
0
0
0
0
0
0
0
0
0
0
0
0
0
0.0034594724
0.0033342791
0.0032127358
0.0030900979
0.0029678948
0.0028483594
0.0027299323
0.0026104026
0.0024906571
0.0023708956
0.0022526395
0.0021356781
0.002020075
0.0019025903
0.0017837102
0.0016643919
0.0015467116
0.001429943
0.0013163004
0.0012006155
0.0010839322
0.00096723761
0.00085015527
0.00073275131
0.00061481103
0.00050069193
0.00038565514
0.00026848078
0.00015366302
3.9691691e-05
-7.4225847e-05
-0.00018727106
-0.00030025525
-0.00041054436
-0.00052093717
-0.00063117721
-0.00073952022
-0.00084744506
-0.00095573542
-0.0010630854
-0.0011713214
-0.0012767106
-0.0013809995
-0.0014874454
-0.0015924087
-0.0016963746
-0.0017996134
-0.0019009805
-0.002003045
-0.0021065693
-0.0022059765
-0.0023047968
-0.002404879
-0.0025022935
-0.0025984192
-0.0026945692
-0.0027893713
-0.0028843262
-0.0029809343
-0.0030726026
-0.0031636115
-0.0032573412
-0.0033492505
0
0
0
0
0
0
0
0
0
0
0
0
0
0
0
0
0
0
0
0
0
0
0
0
0
0
0
0
0
0
0
0
0
0
0
0
0
0
0
0
0
0
0
0
0
0
0
0
0
0
0
0
0
0
0
0
0
0
0
0
0
0
0
0
0
0
0
0
0
0
0
0
0
0
0
0
0
0
0
0
0
0
0
0
0
0
0
0
0
0
0
0
0
0
0
0
0
0
0
0
-0.0036608994
-0.0027888775
-0.0019168556
-0.0010662563
-0.00019621062
0.000673835
0.0015438806
0.0023957812
0
0
0
0
0
0
0
0
0
0
0
0
0
0
0
0
0
0
0
0
0
0
0
0
0
0
0
0
0
0
0
0
0
0
0
0
0
0
0
0
0
0
0
0
0
0
0
0
0
0
0
0
0
0
0
0
0
0
0
0
0
0
0
0
0
0
0
0
0
0
0
0
0
0
0
0
0
0
0.0034198174
0.0032997152
0.0031794971
0.0030593965
0.0029401765
0.0028200384
0.0026980821
0.0025750684
0.0024510819
0.0023267971
0.0022055323
0.0020832318
0.0019634342
0.0018449138
0.0017254565
0.0016057683
0.0014859311
0.0013674971
0.0012503481
0.0011347053
0.0010174212
0.00089871297
0.00077937451
0.00066151643
0.00054448741
0.00043074498
0.00031520195
0.00019861424
8.1951719e-05
-3.5065047e-05
-0.00015242983
-0.0002705899
-0.00038488573
-0.00049971991
-0.00061691358
-0.00073192581
-0.00084598975
-0.00095994437
-0.0010730639
-0.0011862344
-0.0012966658
-0.0014070678
-0.001517446
-0.0016259224
-0.0017338622
-0.0018421568
-0.0019495326
-0.0020579179
-0.0021634744
-0.0022685597
-0.0023741656
-0.0024792569
-0.0025833609
-0.0026867273
-0.0027881067
-0.0028901128
-0.0029938291
-0.0030934241
-0.0031916344
-0.0032924192
-0.0033900389
0
0
0
0
0
0
0
0
0
0
0
0
0
0
0
0
0
0
0
0
0
0
0
0
0
0
0
0
0
0
0
0
0
0
0
0
0
0
0
0
0
0
0
0
0
0
0
0
0
0
0
0
0
0
0
0
0
0
0
0
0
0
0
0
0
0
0
0
0
0
0
0
0
0
0
0
0
0
0
0
0
0
0
0
0
0
0
0
0
0
0
0
0
0
0
0
0
0
0
0
0
0
0
0
0
0
0
0
0
0
-0.0030073794
-0.0021573371
-0.0012803315
-0.00040332584
0.00047367982
0.0013826943
0.0022613798
0
0
0
0
0
0
0
0
0
0
0
0
0
0
0
0
0
0
0
0
0
0
0
0
0
0
0
0
0
0
0
0
0
0
0
0
0
0
0
0
0
0
0
0
0
0
0
0
0
0
0
0
0
0
0
0
0
0
0
0
0
0
0
0
0
0
0
0
0
0
0.0034925447
0.0033679806
0.0032460562
0.003126292
0.0030090482
0.0028913891
0.0027727852
0.0026539992
0.0025348707
0.0024148601
0.0022945887
0.0021744725
0.0020552485
0.0019352303
0.0018134702
0.0016906511
0.0015667765
0.0014423442
0.0013209666
0.0011985688
0.0010785091
0.00095989537
0.00084051039
0.00072087954
0.00060096666
0.00048249914
0.00036501804
0.00024933566
0.00013225214
1.3715746e-05
-0.00010564285
-0.00022367872
-0.00034096814
-0.00045522715
-0.00057021157
-0.00068670375
-0.00080333417
-0.00092028536
-0.001037611
-0.0011559908
-0.0012704634
-0.001385095
-0.0015023079
-0.0016175146
-0.0017316712
-0.0018456629
-0.0019588566
-0.0020722137
-0.0021827872
-0.0022930318
-0.0024037148
-0.0025123247
-0.0026202794
-0.0027285781
-0.0028359798
-0.0029445143
-0.0030502383
-0.0031552974
-0.0032608857
-0.0033661051
-0.0034703472
0
0
0
0
0
0
0
0
0
0
0
0
0
0
0
0
0
0
0
0
0
0
0
0
0
0
0
0
0
0
0
0
0
0
0
0
0
0
0
0
0
0
0
0
0
0
0
0
0
0
0
0
0
0
0
0
0
0
0
0
0
0
0
0
0
0
0
0
0
0
0
0
0
0
0
0
0
0
0
0
0
0
0
0
0
0
0
0
0
0
0
0
0
0
0
0
0
0
0
0
0
0
0
0
0
0
0
0
0
0
0
0
0
0
0
0
0
0
-0.0031698086
-0.002291123
-0.0014046614
-0.00052210166
0.00036045815
0.001243018
0.0021255778
0
0
0
0
0
0
0
0
0
0
0
0
0
0
0
0
0
0
0
0
0
0
0
0
0
0
0
0
0
0
0
0
0
0
0
0
0
0
0
0
0
0
0
0
0
0
0
0
0
0
0
0
0
0
0
0
0
0
0
0
0
0
0
0.0034927683
0.0033644958
0.0032357566
0.0031083134
0.0029831523
0.0028580843
0.0027330892
0.0026085082
0.0024840112
0.0023612465
0.0022413281
0.002123895
0.0020062229
0.001887703
0.0017689667
0.0016499156
0.0015300049
0.0014095184
0.0012895484
0.0011703205
0.0010504222
0.00092885824
0.00080623377
0.00068247103
0.00055789121
0.00043640094
0.00031390576
0.00019358401
7.4876924e-05
-4.4435696e-05
-0.00016400922
-0.0002839978
-0.00040261349
-0.00052031201
-0.00063603402
-0.00075291694
-0.00087128148
-0.00099066022
-0.0011088739
-0.0012264237
-0.0013408007
-0.0014556251
-0.0015720217
-0.0016886201
-0.0018055057
-0.0019227921
-0.0020413918
-0.002156041
-0.0022702845
-0.0023877023
-0.0025031035
-0.0026173526
-0.0027313814
-0.0028446494
-0.0029581929
-0.0030689087
-0.0031791459
-0.0032899836
-0.0033987269
0
0
0
0
0
0
0
0
0
0
0
0
0
0
0
0
0
0
0
0
0
0
0
0
0
0
0
0
0
0
0
0
0
0
0
0
0
0
0
0
0
0
0
0
0
0
0
0
0
0
0
0
0
0
0
0
0
0
0
0
0
0
0
0
0
0
0
0
0
0
0
0
0
0
0
0
0
0
0
0
0
0
0
0
0
0
0
0
0
0
0
0
0
0
0
0
0
0
0
0
0
0
0
0
0
0
0
0
0
0
0
0
0
0
0
0
0
0
0
0
0
0
0
0
0
0
0
-0.0033057273
-0.002425023
-0.0015428051
-0.00066058716
0.00022163075
0.0011038487
0.0019860666
0
0
0
0
0
0
0
0
0
0
0
0
0
0
0
0
0
0
0
0
0
0
0
0
0
0
0
0
0
0
0
0
0
0
0
0
0
0
0
0
0
0
0
0
0
0
0
0
0
0
0
0
0
0
0
0
0.0035330964
0.0033974782
0.0032621815
0.0031286948
0.0029980501
0.002867602
0.0027373737
0.0026086802
0.002480806
0.0023525184
0.0022244309
0.002099072
0.0019739108
0.0018488911
0.0017243052
0.0015997291
0.0014766732
0.0013563642
0.0012387418
0.0011210566
0.0010026208
0.00088393425
0.00076496051
0.00064514974
0.00052467315
0.00040462434
0.00028539253
0.0001656141
4.4246312e-05
-7.8183568e-05
-0.00020183439
-0.00032656175
-0.00044769759
-0.00057075724
-0.00069134111
-0.00081014152
-0.00092938178
-0.001048898
-0.0011689623
-0.0012877261
-0.0014056421
-0.0015214037
-0.001638086
-0.0017562787
-0.0018756776
-0.001994069
-0.0021118792
-0.0022263743
-0.0023410386
-0.0024573397
-0.0025739059
-0.002690726
-0.0028079732
-0.0029267927
-0.0030416187
-0.0031557116
-0.0032730967
-0.0033886923
-0.0035032594
0
0
0
0
0
0
0
0
0
0
0
0
0
0
0
0
0
0
0
0
0
0
0
0
0
0
0
0
0
0
0
0
0
0
0
0
0
0
0
0
0
0
0
0
0
0
0
0
0
0
0
0
0
0
0
0
0
0
0
0
0
0
0
0
0
0
0
0
0
0
0
0
0
0
0
0
0
0
0
0
0
0
0
0
0
0
0
0
0
0
0
0
0
0
0
0
0
0
0
0
0
0
0
0
0
0
0
0
0
0
0
0
0
0
0
0
0
0
0
0
0
0
0
0
0
0
0
0
0
0
0
0
0
0
-0.0034453885
-0.0025653568
-0.0016841535
-0.00080295014
7.8253174e-05
0.00095945649
0.0018406598
0
0
0
0
0
0
0
0
0
0
0
0
0
0
0
0
0
0
0
0
0
0
0
0
0
0
0
0
0
0
0
0
0
0
0
0
0
0
0
0
0
0
0
0
0
0
0
0
0
0
0.0034883292
0.0033449763
0.0032024411
0.0030621533
0.0029245448
0.0027870151
0.002650148
0.0025148294
0.0023798307
0.002245697
0.0021147918
0.0019842201
0.0018538865
0.0017250267
0.0015970952
0.0014688102
0.0013405485
0.0012149918
0.0010897372
0.00096469296
0.00084010219
0.00071544706
0.00059209988
0.00047165279
0.00035358861
0.00023589041
0.00011753861
-1.0982345e-06
-0.00011999457
-0.00023970543
-0.00036017215
-0.00048029973
-0.00059953547
-0.00071919402
-0.00084036561
-0.0009626009
-0.0010861398
-0.0012110147
-0.0013322773
-0.0014554202
-0.0015762662
-0.00169516
-0.0018143279
-0.0019337867
-0.0020539267
-0.0021728388
-0.002291039
-0.0024067734
-0.0025232551
-0.0026412759
-0.002760695
-0.0028792642
-0.0029973348
-0.0031119479
-0.0032263017
-0.0033426577
-0.0034592992
0
0
0
0
0
0
0
0
0
0
0
0
0
0
0
0
0
0
0
0
0
0
0
0
0
0
0
0
0
0
0
0
0
0
0
0
0
0
0
0
0
0
0
0
0
0
0
0
0
0
0
0
0
0
0
0
0
0
0
0
0
0
0
0
0
0
0
0
0
0
0
0
0
0
0
0
0
0
0
0
0
0
0
0
0
0
0
0
0
0
0
0
0
0
0
0
0
0
0
0
0
0
0
0
0
0
0
0
0
0
0
0
0
0
0
0
0
0
0
0
0
0
0
0
0
0
0
0
0
0
0
0
0
0
0
0
0
0
0
0
0
0
0
-0.0027123087
-0.0018300964
-0.00094788421
-6.5671989e-05
0.00081654021
0.0016987524
0
0
0
0
0
0
0
0
0
0
0
0
0
0
0
0
0
0
0
0
0
0
0
0
0
0
0
0
0
0
0
0
0
0
0
0
0
0
0
0
0
0
0
0
0.0034803721
0.0033329934
0.0031859098
0.0030405358
0.0028953911
0.0027509427
0.0026070033
0.0024634382
0.0023205582
0.0021802014
0.0020426339
0.0019047007
0.0017676824
0.0016322261
0.0014971153
0.0013626992
0.0012315335
0.0011008381
0.00097039927
0.00084137314
0.00071338445
0.00058510194
0.00045666607
0.00033091152
0.00020556365
8.0494837e-05
-4.4100819e-05
-0.000168835
-0.00029247343
-0.00041326268
-0.00053156458
-0.00064927582
-0.0007675436
-0.00088613072
-0.0010049496
-0.0011245606
-0.0012450174
-0.0013647542
-0.0014844635
-0.0016040021
-0.0017249775
-0.0018470182
-0.0019704452
-0.0020954677
-0.0022168569
-0.0023400832
-0.0024611913
-0.0025801784
-0.0026992739
-0.0028186755
-0.0029388912
-0.0030579514
-0.0031761814
-0.003292143
-0.0034083916
0
0
0
0
0
0
0
0
0
0
0
0
0
0
0
0
0
0
0
0
0
0
0
0
0
0
0
0
0
0
0
0
0
0
0
0
0
0
0
0
0
0
0
0
0
0
0
0
0
0
0
0
0
0
0
0
0
0
0
0
0
0
0
0
0
0
0
0
0
0
0
0
0
0
0
0
0
0
0
0
0
0
0
0
0
0
0
0
0
0
0
0
0
0
0
0
0
0
0
0
0
0
0
0
0
0
0
0
0
0
0
0
0
0
0
0
0
0
0
0
0
0
0
0
0
0
0
0
0
0
0
0
0
0
0
0
0
0
0
0
0
0
0
0
0
0
0
0
0
0
0
-0.002850294
-0.0019655683
-0.0010808426
-0.00019611684
0.00068860888
0.0015733346
0
0
0
0
0
0
0
0
0
0
0
0
0
0
0
0
0
0
0