/*--------------------------------*- C++ -*----------------------------------*\
| =========                 |                                                 |
| \\      /  F ield         | OpenFOAM: The Open Source CFD Toolbox           |
|  \\    /   O peration     | Version:  2106                                  |
|   \\  /    A nd           | Website:  www.openfoam.com                      |
|    \\/     M anipulation  |                                                 |
\*---------------------------------------------------------------------------*/
FoamFile
{
    version     2.0;
    format      ascii;
    arch        "LSB;label=32;scalar=64";
    class       volVectorField;
    location    "0.195";
    object      U_0;
}
// * * * * * * * * * * * * * * * * * * * * * * * * * * * * * * * * * * * * * //

dimensions      [0 1 -1 0 0 0 0];

internalField   nonuniform List<vector> 
32768
(
(0.00014523501 -0.00070194825 0)
(0.0031267532 -0.0014846358 0)
(0.0074625773 -0.0018138895 0)
(0.012264444 -0.002009237 0)
(0.017268005 -0.0020779518 0)
(0.022360956 -0.0021014191 0)
(0.027481046 -0.0021092637 0)
(0.032606274 -0.0021128123 0)
(0.037739906 -0.0021282306 0)
(0.042883113 -0.0021729214 0)
(0.048026328 -0.0022272014 0)
(0.053166331 -0.0022813777 0)
(0.058301861 -0.0023317456 0)
(0.063430042 -0.0023764176 0)
(0.068552676 -0.0024189569 0)
(0.073663861 -0.0024537416 0)
(0.078777821 -0.0024905127 0)
(0.08387429 -0.0025122418 0)
(0.088988439 -0.0025443663 0)
(0.094077223 -0.0025622099 0)
(0.09918927 -0.002577624 0)
(0.10429047 -0.0026210626 0)
(0.10939393 -0.0025901004 0)
(0.11450813 -0.0026826402 0)
(0.11963839 -0.0026123294 0)
(0.1247597 -0.0027039489 0)
(0.12986435 -0.0026981815 0)
(0.13508896 -0.0026674333 0)
(0.14018932 -0.0027791078 0)
(0.14532851 -0.002715396 0)
(0.15064732 -0.0027373797 0)
(0.15577324 -0.0028317174 0)
(0.16090096 -0.0027610288 0)
(0.16628407 -0.0027836148 0)
(0.17155141 -0.0028848243 0)
(0.1766758 -0.0028244521 0)
(0.1819791 -0.0028109122 0)
(0.18738716 -0.0029234018 0)
(0.19269836 -0.0028970328 0)
(0.19792935 -0.002863474 0)
(0.20321355 -0.0029193033 0)
(0.20864812 -0.0029407833 0)
(0.21409542 -0.0029340519 0)
(0.21938226 -0.0029597583 0)
(0.22463366 -0.0029409289 0)
(0.23002745 -0.0029283732 0)
(0.23547689 -0.0029948332 0)
(0.24089377 -0.0030146642 0)
(0.24626142 -0.0029472416 0)
(0.25149287 -0.0029452901 0)
(0.25674211 -0.0029805393 0)
(0.26222034 -0.0029907968 0)
(0.26769601 -0.0030081736 0)
(0.27297215 -0.002968094 0)
(0.27816757 -0.0029501507 0)
(0.28338277 -0.0029478794 0)
(0.28864452 -0.0029438739 0)
(0.29397858 -0.0029896918 0)
(0.29933048 -0.0029822503 0)
(0.30452697 -0.0029171502 0)
(0.30959981 -0.0028973913 0)
(0.31471936 -0.0029240672 0)
(0.3198592 -0.0029097112 0)
(0.32494892 -0.0028958326 0)
(0.33006475 -0.0029072326 0)
(0.33526775 -0.0028983134 0)
(0.34037365 -0.0028886756 0)
(0.34524175 -0.0028272114 0)
(0.35007174 -0.0027840562 0)
(0.3550325 -0.0028532643 0)
(0.3600324 -0.0028688131 0)
(0.3649775 -0.0027925928 0)
(0.36988596 -0.0027928462 0)
(0.37476565 -0.0028280057 0)
(0.37958519 -0.0027643241 0)
(0.38432611 -0.0027102195 0)
(0.38901893 -0.0027690517 0)
(0.39375424 -0.0027745961 0)
(0.39854771 -0.002705237 0)
(0.40326854 -0.0027449062 0)
(0.40789464 -0.002764982 0)
(0.41258044 -0.00266485 0)
(0.41730991 -0.0026918406 0)
(0.42195807 -0.0027636584 0)
(0.42655563 -0.0026541402 0)
(0.43106792 -0.0025967495 0)
(0.43544455 -0.0026793043 0)
(0.43990735 -0.0026770041 0)
(0.44456875 -0.0026276262 0)
(0.44916443 -0.0026781435 0)
(0.45356721 -0.0026739998 0)
(0.45799727 -0.0025806492 0)
(0.46253415 -0.0026036284 0)
(0.4670211 -0.00266419 0)
(0.47139082 -0.0025888168 0)
(0.47566151 -0.0025245852 0)
(0.47985887 -0.0025761804 0)
(0.48410458 -0.0026045575 0)
(0.48850218 -0.0025725547 0)
(0.49295686 -0.0025974663 0)
(0.49732795 -0.002623912 0)
(0.50160812 -0.0025575802 0)
(0.50582997 -0.0025049726 0)
(0.51003866 -0.0025412973 0)
(0.51428297 -0.0025761927 0)
(0.51853128 -0.002529091 0)
(0.52271559 -0.0024904883 0)
(0.52680194 -0.0025324674 0)
(0.53085988 -0.0025392621 0)
(0.53498433 -0.0024790013 0)
(0.53916774 -0.0024973812 0)
(0.54334573 -0.0025729132 0)
(0.54750874 -0.0025273923 0)
(0.55164044 -0.0024395701 0)
(0.55568093 -0.0024576052 0)
(0.55967524 -0.0024857594 0)
(0.56372525 -0.002442849 0)
(0.56780299 -0.002410469 0)
(0.57178449 -0.0024127307 0)
(0.57563815 -0.0024276909 0)
(0.57945992 -0.0023995729 0)
(0.58333914 -0.0023787549 0)
(0.58728669 -0.0024102767 0)
(0.59126551 -0.0024602358 0)
(0.59525498 -0.0024337171 0)
(0.59922607 -0.0023516543 0)
(0.60306901 -0.0023492087 0)
(0.60677318 -0.0023835728 0)
(0.61051658 -0.0023456126 0)
(0.61436072 -0.0023116655 0)
(0.61819232 -0.0023589634 0)
(0.6220044 -0.0023714112 0)
(0.62585413 -0.0022968446 0)
(0.62966472 -0.0022473931 0)
(0.63333032 -0.0022853247 0)
(0.63691267 -0.0023055776 0)
(0.64053562 -0.0023006143 0)
(0.64424366 -0.002302423 0)
(0.64800184 -0.0023520617 0)
(0.65174357 -0.0023416278 0)
(0.6554255 -0.0022944465 0)
(0.65902497 -0.0022353702 0)
(0.66255933 -0.0022124576 0)
(0.66611924 -0.0022292318 0)
(0.66977146 -0.0022659286 0)
(0.6735219 -0.002264983 0)
(0.67732499 -0.002232651 0)
(0.6810834 -0.0022165757 0)
(0.68470734 -0.002212789 0)
(0.68816777 -0.0021914678 0)
(0.69154007 -0.0021608922 0)
(0.69491939 -0.002147542 0)
(0.69833332 -0.0021660888 0)
(0.70183091 -0.0021948184 0)
(0.70541795 -0.002183253 0)
(0.70900704 -0.0021520506 0)
(0.7125575 -0.0021424983 0)
(0.7160963 -0.0021364462 0)
(0.71964551 -0.0021193852 0)
(0.72318928 -0.0021130932 0)
(0.72669605 -0.0021129295 0)
(0.73015654 -0.0021348987 0)
(0.73357759 -0.0021150192 0)
(0.73695423 -0.0020757983 0)
(0.74026757 -0.0020561029 0)
(0.74354695 -0.0020623365 0)
(0.74686607 -0.0020925266 0)
(0.75024255 -0.0020952055 0)
(0.75363188 -0.0020500772 0)
(0.7570323 -0.0020286562 0)
(0.76044444 -0.0020325502 0)
(0.76383309 -0.0019786104 0)
(0.76718837 -0.00191041 0)
(0.77047875 -0.0018766893 0)
(0.77368797 -0.0018612768 0)
(0.77688675 -0.0018678456 0)
(0.78014182 -0.001863108 0)
(0.78347282 -0.0018698465 0)
(0.7868782 -0.0019153334 0)
(0.79035116 -0.0018918236 0)
(0.79380033 -0.0018009464 0)
(0.79694378 -0.0017154953 0)
(0.79982587 -0.0017033313 0)
(0.80248215 -0.0017244714 0)
(0.80502994 -0.0017429719 0)
(0.80762892 -0.0017639334 0)
(0.81037244 -0.001781839 0)
(0.8132949 -0.0017797403 0)
(0.81640197 -0.0017382158 0)
(0.81964971 -0.001582857 0)
(0.82295743 -0.0013714184 0)
(0.82587652 -0.0011492016 0)
(0.82850135 -0.00092240122 0)
(0.8308323 -0.00089289428 0)
(0.83299208 -0.001014303 0)
(0.8351733 -0.0011015098 0)
(0.83740061 -0.0012080217 0)
(0.83964736 -0.0013334802 0)
(0.84187307 -0.0013793948 0)
(0.84399523 -0.0012604156 0)
(0.84600092 -0.00097875128 0)
(0.84792286 -0.00060929495 0)
(0.84993222 -0.00021531067 0)
(0.85193657 0.00014087082 0)
(0.85377096 0.00037931799 0)
(0.85537671 0.00047125677 0)
(0.85665513 0.00037536364 0)
(0.85744662 0.00010140543 0)
(0.85785089 -0.00016431515 0)
(0.8581439 -0.00015838666 0)
(0.85839192 0.00017305432 0)
(0.85855831 0.00057376435 0)
(0.85867082 0.00094998543 0)
(0.85869097 0.0011520078 0)
(0.85866932 0.001038909 0)
(0.8590917 0.00036432895 0)
(0.86033582 -0.00048428883 0)
(0.86233486 -0.0012275206 0)
(0.86493738 -0.0018303774 0)
(0.86796346 -0.0023108306 0)
(0.87127591 -0.0027077482 0)
(0.87480915 -0.0030525517 0)
(0.87853144 -0.0033419608 0)
(0.8824032 -0.003585238 0)
(0.88639453 -0.0037587226 0)
(0.89042281 -0.0038729374 0)
(0.89430241 -0.0039618734 0)
(0.89829256 -0.0040260153 0)
(0.90222558 -0.0039767614 0)
(0.90615933 -0.003766112 0)
(0.91021927 -0.0034348159 0)
(0.91454121 -0.0030565847 0)
(0.9187544 -0.0026806363 0)
(0.92214111 -0.0022399749 0)
(0.92434221 -0.0016836006 0)
(0.92480073 -0.00011767915 0)
(0.92331843 0.0013632329 0)
(0.91964557 0.003160592 0)
(0.91321544 0.0056135915 0)
(0.90265258 0.0082833809 0)
(0.8875329 0.01177722 0)
(0.86640147 0.015143901 0)
(0.8376504 0.019773671 0)
(0.80008085 0.02542409 0)
(0.75193199 0.031919329 0)
(0.69178623 0.040136537 0)
(0.6191627 0.048485677 0)
(0.53127345 0.058952887 0)
(0.43000356 0.065093746 0)
(0.31426997 0.068806474 0)
(0.18796338 0.064291748 0)
(0.059469134 0.046455501 0)
(-0.048925268 0.032238759 0)
(-0.11968148 -0.014345789 0)
(-0.12327559 -0.06771471 0)
(-0.048805806 -0.091061718 0)
(5.1905409e-05 -0.0024927966 0)
(0.0034567515 -0.0059084474 0)
(0.008760267 -0.0072257534 0)
(0.014253278 -0.0078001795 0)
(0.020035031 -0.0080158581 0)
(0.025875149 -0.0080917412 0)
(0.031743274 -0.0081172135 0)
(0.03760796 -0.0081159123 0)
(0.04347157 -0.0081142826 0)
(0.049293117 -0.0080789663 0)
(0.055084966 -0.008026706 0)
(0.060853862 -0.007968566 0)
(0.066606298 -0.0079129631 0)
(0.072335993 -0.007860948 0)
(0.078066633 -0.007819469 0)
(0.083753395 -0.0077758504 0)
(0.089504455 -0.0077504259 0)
(0.095110632 -0.0077167467 0)
(0.10095659 -0.0076727174 0)
(0.10641024 -0.0077462662 0)
(0.11242519 -0.0074740166 0)
(0.11771451 -0.0079904659 0)
(0.12385453 -0.0071219558 0)
(0.1290851 -0.0082210785 0)
(0.1352406 -0.0071794565 0)
(0.14061141 -0.0077161247 0)
(0.14636759 -0.0079871088 0)
(0.15250631 -0.0071231541 0)
(0.15758499 -0.0079099863 0)
(0.16371801 -0.0078515112 0)
(0.16980866 -0.0073499702 0)
(0.17489345 -0.0077396012 0)
(0.18091247 -0.0079240277 0)
(0.18725092 -0.007597972 0)
(0.1925854 -0.0076637029 0)
(0.19824026 -0.0077894097 0)
(0.20447012 -0.0077786622 0)
(0.2104268 -0.0079287389 0)
(0.21616665 -0.0076425036 0)
(0.22185593 -0.007678014 0)
(0.22778264 -0.0079586554 0)
(0.23405587 -0.0079720826 0)
(0.24002269 -0.0076944927 0)
(0.24557104 -0.0077540277 0)
(0.25144146 -0.0078240024 0)
(0.25765596 -0.0078449289 0)
(0.26364594 -0.0079298643 0)
(0.26965114 -0.0079639473 0)
(0.27559852 -0.0075166655 0)
(0.28105639 -0.0076211152 0)
(0.28703653 -0.007996658 0)
(0.29355801 -0.0078221623 0)
(0.29940753 -0.0078323171 0)
(0.30510285 -0.0075612582 0)
(0.310834 -0.0075552212 0)
(0.31667014 -0.0075791784 0)
(0.32257468 -0.0076448537 0)
(0.32869429 -0.0078427482 0)
(0.33471407 -0.0075614254 0)
(0.34019786 -0.0073878821 0)
(0.34585384 -0.0073729979 0)
(0.35171759 -0.0074279781 0)
(0.35744719 -0.0073225717 0)
(0.36304718 -0.0073489023 0)
(0.36891153 -0.0075624371 0)
(0.37500876 -0.0073728955 0)
(0.38050321 -0.0071312524 0)
(0.38564277 -0.006988606 0)
(0.39122803 -0.0069986489 0)
(0.39702545 -0.0071934221 0)
(0.4026304 -0.0071655143 0)
(0.40816656 -0.007026915 0)
(0.41374709 -0.0070405054 0)
(0.41925227 -0.0070142593 0)
(0.42465018 -0.0068177418 0)
(0.4299576 -0.0066554878 0)
(0.43523339 -0.0068039617 0)
(0.44072344 -0.0069035883 0)
(0.44629726 -0.006670916 0)
(0.45147929 -0.006637994 0)
(0.45659798 -0.0068228099 0)
(0.46217909 -0.0066351236 0)
(0.46758733 -0.0066181377 0)
(0.47277033 -0.0067785121 0)
(0.47811685 -0.0064074681 0)
(0.48310571 -0.0061426582 0)
(0.4878551 -0.0064092614 0)
(0.49323284 -0.0065817656 0)
(0.49890377 -0.006419086 0)
(0.50387995 -0.0063740488 0)
(0.50863109 -0.0064342668 0)
(0.5139456 -0.0063035725 0)
(0.51933965 -0.0063420144 0)
(0.52441003 -0.0063915529 0)
(0.52935614 -0.0060982318 0)
(0.53417 -0.0058369888 0)
(0.53886996 -0.005981172 0)
(0.54382004 -0.0062035886 0)
(0.54912972 -0.0062003053 0)
(0.55428561 -0.0061919626 0)
(0.55921624 -0.0061885058 0)
(0.56407965 -0.0059719327 0)
(0.56887626 -0.0059055694 0)
(0.57380939 -0.0059524311 0)
(0.57882332 -0.0060379063 0)
(0.58376043 -0.0059320153 0)
(0.58855347 -0.0056992135 0)
(0.5931607 -0.0057065341 0)
(0.59781915 -0.005833707 0)
(0.60269211 -0.0057585197 0)
(0.60762859 -0.0057719966 0)
(0.61245125 -0.0059815199 0)
(0.61730659 -0.0058912148 0)
(0.62210661 -0.0055566381 0)
(0.62670926 -0.0056455155 0)
(0.63138043 -0.0057737088 0)
(0.63627294 -0.0057000844 0)
(0.64114047 -0.0055473634 0)
(0.64569043 -0.0054888545 0)
(0.65002735 -0.00541758 0)
(0.65445586 -0.0053309628 0)
(0.65908915 -0.0053783861 0)
(0.66382525 -0.0055460337 0)
(0.66850901 -0.0056594156 0)
(0.67326177 -0.0055974256 0)
(0.67803337 -0.0053167801 0)
(0.68238188 -0.0051967862 0)
(0.68655715 -0.0053085627 0)
(0.69112358 -0.0052552965 0)
(0.69579677 -0.0052121748 0)
(0.70027107 -0.0053876211 0)
(0.70481697 -0.0055148767 0)
(0.7095079 -0.0053228684 0)
(0.71397792 -0.0050971969 0)
(0.718134 -0.005047689 0)
(0.72229939 -0.005033485 0)
(0.72667434 -0.0049939041 0)
(0.73122919 -0.005130799 0)
(0.73580456 -0.005221068 0)
(0.74026507 -0.005179485 0)
(0.74463208 -0.0050149835 0)
(0.74878795 -0.0049341848 0)
(0.75286574 -0.004936046 0)
(0.75711538 -0.0050244029 0)
(0.7615227 -0.0052263827 0)
(0.76615683 -0.005337529 0)
(0.77087335 -0.0053080326 0)
(0.7754488 -0.0052246872 0)
(0.77974367 -0.0049499507 0)
(0.78377702 -0.0047063582 0)
(0.78785174 -0.004628676 0)
(0.79190884 -0.0047106098 0)
(0.79594554 -0.004799795 0)
(0.80026522 -0.0049182056 0)
(0.80465147 -0.0050315463 0)
(0.8089012 -0.005007711 0)
(0.81313366 -0.0049850287 0)
(0.81743343 -0.0050207651 0)
(0.82180764 -0.0049969388 0)
(0.82614477 -0.0049883334 0)
(0.83045998 -0.0048804476 0)
(0.83477284 -0.0047915988 0)
(0.83906078 -0.0047800507 0)
(0.84321132 -0.0046667145 0)
(0.84717563 -0.0045741694 0)
(0.85118686 -0.0045443646 0)
(0.85538062 -0.0046144336 0)
(0.85959423 -0.0047771473 0)
(0.86370149 -0.0048388564 0)
(0.86793272 -0.0047853729 0)
(0.87220953 -0.0047705242 0)
(0.87644095 -0.0048735679 0)
(0.88062492 -0.0047768865 0)
(0.8845691 -0.0046389497 0)
(0.88845222 -0.0045390234 0)
(0.89243985 -0.0046458453 0)
(0.89656055 -0.0048024977 0)
(0.90086724 -0.0048810383 0)
(0.90541755 -0.005061762 0)
(0.91032109 -0.0050798456 0)
(0.9151425 -0.0048468559 0)
(0.91942859 -0.0043766042 0)
(0.92319755 -0.0038187237 0)
(0.92660312 -0.003513528 0)
(0.92989495 -0.0034587575 0)
(0.93322999 -0.0036513045 0)
(0.93671863 -0.0039212242 0)
(0.94046562 -0.0042558818 0)
(0.94452617 -0.0046841821 0)
(0.94895963 -0.0049583387 0)
(0.95362859 -0.0048772275 0)
(0.95833329 -0.004537605 0)
(0.96284332 -0.0040577691 0)
(0.96681968 -0.0036300835 0)
(0.970296 -0.0033950845 0)
(0.97366704 -0.0033205207 0)
(0.97713973 -0.0033406689 0)
(0.9806187 -0.0032184513 0)
(0.98394396 -0.0029245086 0)
(0.98701222 -0.0027488915 0)
(0.98981545 -0.0028878265 0)
(0.9926144 -0.0033056515 0)
(0.99581645 -0.0037535356 0)
(0.99971291 -0.0040332767 0)
(1.004263 -0.0039600987 0)
(1.009219 -0.0034321279 0)
(1.0144944 -0.0024840599 0)
(1.0194167 -0.0013751315 0)
(1.0232372 -0.00056922183 0)
(1.0259905 -0.00034861236 0)
(1.0281126 -0.00054020656 0)
(1.0300387 -0.00085997258 0)
(1.0318844 -0.0010886834 0)
(1.0337324 -0.0011317504 0)
(1.035823 -0.0013501866 0)
(1.0381449 -0.0019304783 0)
(1.0408641 -0.002694504 0)
(1.0440434 -0.0033383064 0)
(1.0475585 -0.0038088725 0)
(1.0510813 -0.0040596657 0)
(1.0545266 -0.0042390181 0)
(1.0578512 -0.0042787968 0)
(1.0611467 -0.0042540799 0)
(1.0642062 -0.0043014159 0)
(1.0669862 -0.0043667675 0)
(1.0688987 -0.004220405 0)
(1.0694715 -0.0040395474 0)
(1.0693248 -0.0039792409 0)
(1.0684997 -0.0039594752 0)
(1.0687631 -0.0043732117 0)
(1.0696979 -0.0053998347 0)
(1.0727614 -0.0057609107 0)
(1.0747989 -0.0053243771 0)
(1.0771442 -0.0034856388 0)
(1.076798 -0.0013876463 0)
(1.0771542 0.00165918 0)
(1.0751859 0.0031095809 0)
(1.0743982 0.0073302916 0)
(1.0679585 0.0098424446 0)
(1.0647815 0.018882235 0)
(1.0507472 0.021567771 0)
(1.0402636 0.037072134 0)
(1.0151224 0.044669048 0)
(0.99167945 0.060852692 0)
(0.94968493 0.077506664 0)
(0.90526157 0.091042215 0)
(0.84770564 0.11548356 0)
(0.77362568 0.12910101 0)
(0.70051161 0.15403527 0)
(0.59097665 0.17016373 0)
(0.49416365 0.17956146 0)
(0.37525409 0.18363433 0)
(0.24291104 0.14801361 0)
(0.14981105 0.080955454 0)
(0.064733833 0.00031914594 0)
(0.019373217 -0.097055901 0)
(6.0991574e-05 -0.0041849277 0)
(0.003454731 -0.010260058 0)
(0.0086706446 -0.01252574 0)
(0.014113457 -0.013399412 0)
(0.019849361 -0.013737784 0)
(0.025641788 -0.013859801 0)
(0.031452872 -0.013890965 0)
(0.037268617 -0.013886854 0)
(0.043074587 -0.013866772 0)
(0.04887038 -0.013842548 0)
(0.054657052 -0.013820763 0)
(0.060433533 -0.013804776 0)
(0.066204646 -0.013794678 0)
(0.071958045 -0.013790579 0)
(0.077731775 -0.013787442 0)
(0.083435661 -0.013793876 0)
(0.089277272 -0.013784088 0)
(0.094820856 -0.013826254 0)
(0.10090865 -0.013756081 0)
(0.10606891 -0.013940745 0)
(0.11262482 -0.013615803 0)
(0.1173259 -0.014251565 0)
(0.12415585 -0.013291433 0)
(0.12895828 -0.014629878 0)
(0.13528133 -0.013303291 0)
(0.14087897 -0.014189822 0)
(0.1464436 -0.01434486 0)
(0.15259859 -0.013394034 0)
(0.15797263 -0.014417235 0)
(0.16399739 -0.014366437 0)
(0.16990016 -0.013790199 0)
(0.17536393 -0.014065191 0)
(0.18143492 -0.014694707 0)
(0.1874463 -0.014311436 0)
(0.19296667 -0.013927592 0)
(0.19894689 -0.01436208 0)
(0.20492372 -0.01482075 0)
(0.21086364 -0.014690571 0)
(0.21679527 -0.013889518 0)
(0.22240448 -0.014448655 0)
(0.22852979 -0.01501894 0)
(0.23484115 -0.014915357 0)
(0.24055764 -0.014215332 0)
(0.24611103 -0.0144354 0)
(0.25247619 -0.014691384 0)
(0.25865896 -0.014900688 0)
(0.26425814 -0.01497061 0)
(0.27043978 -0.014813297 0)
(0.2764728 -0.013940277 0)
(0.28206501 -0.014421162 0)
(0.2881056 -0.015318671 0)
(0.29466963 -0.014985276 0)
(0.30024945 -0.014585399 0)
(0.3059918 -0.014083144 0)
(0.31196733 -0.014452611 0)
(0.31794096 -0.01439137 0)
(0.32373242 -0.014771826 0)
(0.32988377 -0.015127552 0)
(0.33602596 -0.01416582 0)
(0.34126946 -0.013858314 0)
(0.34682001 -0.014306046 0)
(0.35309627 -0.014377924 0)
(0.35908645 -0.013922122 0)
(0.36441894 -0.014252583 0)
(0.37025069 -0.01475105 0)
(0.37644521 -0.014231705 0)
(0.38182156 -0.013442411 0)
(0.38687087 -0.013283563 0)
(0.39255926 -0.013968372 0)
(0.39882294 -0.014266011 0)
(0.40459791 -0.013722429 0)
(0.40969162 -0.013648611 0)
(0.41508687 -0.013880878 0)
(0.42086936 -0.013634595 0)
(0.42633205 -0.013117669 0)
(0.43141828 -0.013127847 0)
(0.43676959 -0.013593693 0)
(0.44271974 -0.013565381 0)
(0.44833511 -0.013110948 0)
(0.45324489 -0.013155185 0)
(0.4585155 -0.013315366 0)
(0.46410013 -0.013167679 0)
(0.46915919 -0.013384973 0)
(0.47453506 -0.013310343 0)
(0.48008965 -0.012432405 0)
(0.48485765 -0.012282586 0)
(0.48976806 -0.012950694 0)
(0.49561007 -0.01335068 0)
(0.50133046 -0.01295203 0)
(0.50605929 -0.012569924 0)
(0.51071168 -0.012598366 0)
(0.51588588 -0.012860375 0)
(0.52115971 -0.013055424 0)
(0.5264853 -0.012702138 0)
(0.53165034 -0.011997963 0)
(0.5363558 -0.011847843 0)
(0.54107905 -0.012255666 0)
(0.54631306 -0.012675778 0)
(0.5517625 -0.012723568 0)
(0.55686451 -0.012692268 0)
(0.56176788 -0.012344755 0)
(0.56644509 -0.011908155 0)
(0.57101418 -0.012105472 0)
(0.57598574 -0.012410134 0)
(0.58121978 -0.012365965 0)
(0.58639121 -0.012030438 0)
(0.59117369 -0.01174034 0)
(0.5957148 -0.01176185 0)
(0.60057691 -0.011874026 0)
(0.60556123 -0.011972554 0)
(0.61028455 -0.012193516 0)
(0.61515432 -0.012290917 0)
(0.62029678 -0.011855369 0)
(0.62490799 -0.011556254 0)
(0.6292671 -0.011795603 0)
(0.63412486 -0.011966935 0)
(0.63918605 -0.011928138 0)
(0.64405403 -0.011673749 0)
(0.64861277 -0.011358641 0)
(0.65303557 -0.01115831 0)
(0.65745074 -0.01120887 0)
(0.66197219 -0.011539014 0)
(0.66671377 -0.011877271 0)
(0.67159453 -0.011949523 0)
(0.67654715 -0.011709637 0)
(0.6812921 -0.011171407 0)
(0.68550782 -0.010977027 0)
(0.68982167 -0.011151141 0)
(0.69459562 -0.011182606 0)
(0.69917552 -0.011213695 0)
(0.70351055 -0.01146966 0)
(0.708225 -0.011524114 0)
(0.71304383 -0.011119894 0)
(0.71727232 -0.010769079 0)
(0.72125331 -0.010690503 0)
(0.72546588 -0.010633504 0)
(0.72979824 -0.010869073 0)
(0.73439432 -0.011292811 0)
(0.73935425 -0.011343749 0)
(0.74417916 -0.010946032 0)
(0.74863407 -0.010521731 0)
(0.75280133 -0.010337983 0)
(0.75681528 -0.010503039 0)
(0.76089136 -0.010824627 0)
(0.76519153 -0.011227754 0)
(0.7698135 -0.011424559 0)
(0.77450447 -0.01139746 0)
(0.77910239 -0.011121354 0)
(0.78347949 -0.010480645 0)
(0.78747046 -0.010013103 0)
(0.79149842 -0.010022149 0)
(0.79575696 -0.010245092 0)
(0.80003759 -0.010548879 0)
(0.80453027 -0.010721385 0)
(0.80912488 -0.010684417 0)
(0.81340669 -0.010643222 0)
(0.81750214 -0.010615502 0)
(0.82160291 -0.010640828 0)
(0.82575514 -0.010705672 0)
(0.83001835 -0.010715825 0)
(0.83429982 -0.010588785 0)
(0.83866948 -0.010509925 0)
(0.84321673 -0.010376886 0)
(0.84751727 -0.010105534 0)
(0.85168173 -0.010016441 0)
(0.85597145 -0.010115527 0)
(0.86006895 -0.01030075 0)
(0.86422948 -0.010263343 0)
(0.86853442 -0.010351516 0)
(0.87280317 -0.010456473 0)
(0.87701244 -0.010350184 0)
(0.88146701 -0.010294544 0)
(0.88597078 -0.010000486 0)
(0.88995024 -0.0097004224 0)
(0.89369532 -0.0095991831 0)
(0.89740083 -0.0097981595 0)
(0.90113192 -0.010126544 0)
(0.90508916 -0.01057729 0)
(0.90924982 -0.011216088 0)
(0.9140212 -0.011440724 0)
(0.91920258 -0.010810734 0)
(0.92401385 -0.0097218712 0)
(0.92834005 -0.0087781122 0)
(0.93232512 -0.0082071089 0)
(0.93592855 -0.0081104831 0)
(0.93957703 -0.008464616 0)
(0.94339908 -0.0089644265 0)
(0.94717556 -0.0095246232 0)
(0.95120637 -0.010191038 0)
(0.955422 -0.010664077 0)
(0.95958761 -0.01063385 0)
(0.96389715 -0.010141503 0)
(0.96828787 -0.0092055708 0)
(0.97218464 -0.0082294187 0)
(0.97559122 -0.0077475172 0)
(0.97905136 -0.007798736 0)
(0.9827309 -0.0081072275 0)
(0.98650057 -0.0081579615 0)
(0.99031611 -0.0078271135 0)
(0.99407361 -0.0072145947 0)
(0.9976209 -0.0067073687 0)
(1.00101 -0.0067807153 0)
(1.0042827 -0.007373386 0)
(1.0075456 -0.0081796871 0)
(1.0109785 -0.0090192286 0)
(1.0148361 -0.0095430798 0)
(1.0191535 -0.0094750286 0)
(1.0237952 -0.0084505509 0)
(1.0284642 -0.0066797777 0)
(1.032535 -0.0050780261 0)
(1.0357614 -0.0040242847 0)
(1.0386016 -0.0033459832 0)
(1.0411618 -0.0028527014 0)
(1.0434726 -0.0027595168 0)
(1.0459559 -0.0033838676 0)
(1.0488523 -0.0046577483 0)
(1.0523291 -0.0063131838 0)
(1.0559957 -0.0078284159 0)
(1.0592527 -0.0086909024 0)
(1.0619246 -0.0090319178 0)
(1.0642257 -0.0092916673 0)
(1.0663473 -0.009477649 0)
(1.0687453 -0.0094774337 0)
(1.0714956 -0.0092428246 0)
(1.0743773 -0.0081534674 0)
(1.0767892 -0.0061481028 0)
(1.0778421 -0.0041876565 0)
(1.0777607 -0.0031504735 0)
(1.0776631 -0.0032276862 0)
(1.0788882 -0.0052051873 0)
(1.0811989 -0.0072182531 0)
(1.0850872 -0.0084043741 0)
(1.0871161 -0.0075267193 0)
(1.0889858 -0.0044894125 0)
(1.0889698 -0.0018661226 0)
(1.0908775 0.0015243512 0)
(1.090147 0.0039485605 0)
(1.0900884 0.010174476 0)
(1.0842181 0.014725928 0)
(1.0799545 0.023848766 0)
(1.067768 0.036097249 0)
(1.0556392 0.047127929 0)
(1.0403485 0.068494587 0)
(1.0214967 0.090176144 0)
(0.99180365 0.1156572 0)
(0.95678004 0.14756242 0)
(0.90596618 0.17977193 0)
(0.85070062 0.21260391 0)
(0.78767299 0.24306498 0)
(0.71318816 0.2751562 0)
(0.62254489 0.29402389 0)
(0.51409689 0.29501468 0)
(0.42126458 0.25628378 0)
(0.30743073 0.19361617 0)
(0.1753739 0.089240676 0)
(0.067431251 0.0048635239 0)
(8.0620683e-05 -0.0059341079 0)
(0.0034916503 -0.014600832 0)
(0.0087118189 -0.017812958 0)
(0.014168953 -0.019044674 0)
(0.019920607 -0.019519216 0)
(0.025725367 -0.019687407 0)
(0.03154853 -0.019730177 0)
(0.037371593 -0.019719249 0)
(0.043186713 -0.019688076 0)
(0.048990216 -0.019649042 0)
(0.054782077 -0.019606282 0)
(0.060561816 -0.019563018 0)
(0.066333541 -0.019519033 0)
(0.072088022 -0.019478477 0)
(0.077851899 -0.019433354 0)
(0.083563362 -0.019411132 0)
(0.089365043 -0.019347764 0)
(0.094962978 -0.019391786 0)
(0.10092661 -0.019234182 0)
(0.10625446 -0.019466484 0)
(0.11255913 -0.019048547 0)
(0.11751506 -0.019674904 0)
(0.12410236 -0.018790888 0)
(0.12902193 -0.019907973 0)
(0.13532863 -0.018806353 0)
(0.14082464 -0.019548627 0)
(0.14653612 -0.019641899 0)
(0.15244951 -0.018853533 0)
(0.15804773 -0.019778535 0)
(0.16402191 -0.019661464 0)
(0.16963604 -0.019178783 0)
(0.17543896 -0.019450605 0)
(0.18152864 -0.020090107 0)
(0.18715913 -0.019610489 0)
(0.19280609 -0.019214139 0)
(0.19909545 -0.019927599 0)
(0.20490795 -0.020187485 0)
(0.210522 -0.019904772 0)
(0.21667493 -0.019179711 0)
(0.22240902 -0.020120676 0)
(0.2286434 -0.020361392 0)
(0.2345873 -0.020221279 0)
(0.24030489 -0.019284261 0)
(0.24587981 -0.02007113 0)
(0.25270509 -0.020293516 0)
(0.25870977 -0.020112267 0)
(0.26391333 -0.020056373 0)
(0.27019474 -0.020183971 0)
(0.27618409 -0.01940457 0)
(0.28231185 -0.019820287 0)
(0.28825595 -0.020589568 0)
(0.29446334 -0.020211981 0)
(0.29982644 -0.019603732 0)
(0.30570135 -0.01933053 0)
(0.31199435 -0.019952319 0)
(0.31820649 -0.019367444 0)
(0.32370367 -0.020072933 0)
(0.32960938 -0.020436218 0)
(0.33578629 -0.018910712 0)
(0.34097357 -0.018600595 0)
(0.34662165 -0.019618604 0)
(0.35326937 -0.019771387 0)
(0.35930161 -0.018851679 0)
(0.36423892 -0.018976265 0)
(0.3698928 -0.019728869 0)
(0.37617449 -0.019239079 0)
(0.38169181 -0.017804163 0)
(0.38669845 -0.01784296 0)
(0.39237182 -0.019531388 0)
(0.39904794 -0.01945937 0)
(0.40474712 -0.017989174 0)
(0.40931003 -0.01800938 0)
(0.41457912 -0.018641004 0)
(0.42069085 -0.018305425 0)
(0.42630932 -0.017517074 0)
(0.43121005 -0.017616791 0)
(0.43653283 -0.018452394 0)
(0.44274751 -0.018369583 0)
(0.44828891 -0.017586202 0)
(0.45298473 -0.017378385 0)
(0.45840149 -0.01752034 0)
(0.46387205 -0.017494888 0)
(0.4687573 -0.017810742 0)
(0.47431228 -0.017603559 0)
(0.47984242 -0.01670525 0)
(0.48450177 -0.016579653 0)
(0.48969069 -0.017366052 0)
(0.49572264 -0.018021679 0)
(0.50126259 -0.017337108 0)
(0.50582863 -0.016244333 0)
(0.51045197 -0.016126559 0)
(0.51551177 -0.017025165 0)
(0.52073476 -0.017520508 0)
(0.5261906 -0.016929011 0)
(0.5313683 -0.015958014 0)
(0.53602224 -0.015788234 0)
(0.54089158 -0.016260229 0)
(0.5463556 -0.016872379 0)
(0.55175593 -0.016974861 0)
(0.55674895 -0.016704624 0)
(0.56170341 -0.015821484 0)
(0.56607735 -0.015289405 0)
(0.57033839 -0.015833584 0)
(0.57544636 -0.01650507 0)
(0.58086243 -0.016486075 0)
(0.58603302 -0.015924991 0)
(0.5908598 -0.015486104 0)
(0.59569493 -0.015520972 0)
(0.60072038 -0.015451117 0)
(0.60551507 -0.01561789 0)
(0.6099894 -0.016079812 0)
(0.61490488 -0.016120911 0)
(0.62002686 -0.01529296 0)
(0.62445191 -0.015095889 0)
(0.62885946 -0.015358721 0)
(0.63378274 -0.015535477 0)
(0.63871972 -0.015652913 0)
(0.64360313 -0.015522258 0)
(0.64838927 -0.014759626 -1.404044e-34)
(0.65291876 -0.014302395 -8.0080731e-30)
(0.65730881 -0.014443302 0)
(0.661816 -0.015065426 0)
(0.666453 -0.015519881 0)
(0.67128787 -0.01566447 0)
(0.67636092 -0.015315689 0)
(0.68100764 -0.014628295 0)
(0.68506549 -0.014237098 0)
(0.68956984 -0.014435047 0)
(0.69449002 -0.014542853 -1.330073e-34)
(0.69893452 -0.014626793 -6.868517e-30)
(0.70320311 -0.01483215 -1.2885996e-34)
(0.7079904 -0.014915665 -7.5417424e-30)
(0.71272861 -0.01432227 0)
(0.71679953 -0.013759073 0)
(0.720907 -0.013582333 0)
(0.72523507 -0.013580149 0)
(0.72939109 -0.014081807 0)
(0.73382869 -0.015048584 0)
(0.73889094 -0.015285023 -1.2165778e-34)
(0.74404819 -0.014601385 -6.7862583e-30)
(0.74870597 -0.013725813 0)
(0.75288032 -0.01317483 0)
(0.75689268 -0.013181941 0)
(0.76087742 -0.013685529 0)
(0.76493758 -0.014352133 0)
(0.76931248 -0.014774308 0)
(0.77388797 -0.014886823 0)
(0.77848701 -0.014496789 0)
(0.78288426 -0.013544542 0)
(0.78709677 -0.013003925 0)
(0.79124488 -0.013007342 -1.0507182e-34)
(0.79523756 -0.013202049 -5.8868584e-30)
(0.7995637 -0.013784811 0)
(0.80437784 -0.014223065 0)
(0.8090137 -0.013871384 0)
(0.8134274 -0.013522243 0)
(0.81767427 -0.013510889 0)
(0.82165419 -0.01344654 0)
(0.82554644 -0.013551376 0)
(0.82945773 -0.013716804 0)
(0.83359672 -0.013819896 9.6023467e-35)
(0.83820311 -0.013939487 5.2935981e-30)
(0.84278682 -0.013701774 0)
(0.84713382 -0.013166155 0)
(0.85156924 -0.013030054 9.3354531e-35)
(0.85606463 -0.013094282 5.1164966e-30)
(0.86028927 -0.013249842 0)
(0.86433912 -0.013211902 0)
(0.86824543 -0.013328706 0)
(0.87227739 -0.013442881 0)
(0.87640437 -0.013671939 8.504657e-35)
(0.88066411 -0.013876474 4.6484837e-30)
(0.88522463 -0.013186126 0)
(0.88953789 -0.01241294 0)
(0.89367693 -0.012234511 0)
(0.89770192 -0.012278747 0)
(0.90137767 -0.012537553 0)
(0.90500412 -0.013130315 0)
(0.90899996 -0.014132478 0)
(0.91338031 -0.015121619 0)
(0.91786657 -0.014870351 0)
(0.92237649 -0.013478672 0)
(0.92728205 -0.012277947 0)
(0.9322133 -0.011349583 0)
(0.93649477 -0.010915682 0)
(0.94046225 -0.01112413 0)
(0.94457197 -0.011438782 0)
(0.94860887 -0.012035011 0)
(0.95258607 -0.012907033 0)
(0.95628311 -0.013418346 0)
(0.95980809 -0.013458398 0)
(0.9634313 -0.01334397 0)
(0.96705131 -0.012470493 0)
(0.97043324 -0.01099232 0)
(0.97380583 -0.010324012 0)
(0.97755625 -0.010673764 0)
(0.98167661 -0.010944455 0)
(0.98585592 -0.010732042 0)
(0.98993048 -0.010358301 0)
(0.9938614 -0.0098594414 0)
(0.99780409 -0.0096480695 0)
(1.0016215 -0.0097996042 0)
(1.0054332 -0.010251994 0)
(1.0092183 -0.010913618 0)
(1.0128506 -0.011485987 0)
(1.0163833 -0.011753072 0)
(1.0196639 -0.011769426 0)
(1.0227558 -0.011073645 0)
(1.0261509 -0.0094598239 0)
(1.0298408 -0.0075500715 0)
(1.0334049 -0.0064306631 0)
(1.0369141 -0.0060428372 0)
(1.0403964 -0.0057004826 -2.8504586e-35)
(1.0439232 -0.0058362707 -1.2524673e-30)
(1.0476981 -0.0067544707 0)
(1.0519899 -0.0084472329 0)
(1.0563234 -0.010024156 0)
(1.0600076 -0.010551328 0)
(1.0626958 -0.010123983 0)
(1.0642947 -0.0094649244 0)
(1.0649031 -0.0091251848 0)
(1.0649459 -0.0091329761 0)
(1.064843 -0.0095408341 0)
(1.0655788 -0.010537527 0)
(1.0673438 -0.01026285 0)
(1.0697319 -0.0080599726 0)
(1.0720759 -0.0053143374 0)
(1.0746455 -0.004081084 0)
(1.0774494 -0.0052049479 0)
(1.0813266 -0.0085500244 0)
(1.0847945 -0.011263997 1.901323e-34)
(1.0885419 -0.011579983 1.481278e-29)
(1.0903327 -0.0088592662 0)
(1.091946 -0.0057807622 0)
(1.092458 -0.0028456242 0)
(1.09487 0.00012525048 0)
(1.0955132 0.0046450271 0)
(1.0994521 0.012039481 0)
(1.095474 0.02114288 0)
(1.0942826 0.034677457 0)
(1.0803249 0.047197117 0)
(1.0759176 0.062103468 0)
(1.0563283 0.082555435 0)
(1.0435238 0.10734311 0)
(1.0252363 0.14201306 4.6421929e-33)
(0.99504481 0.17821588 3.0541684e-28)
(0.95254206 0.22129494 -6.2418738e-33)
(0.90049153 0.25488069 -3.9309996e-28)
(0.83369458 0.29360675 0)
(0.73853708 0.33921936 0)
(0.65938183 0.367638 7.1533433e-33)
(0.54644545 0.38010783 3.4868465e-28)