/*--------------------------------*- C++ -*----------------------------------*\
| =========                 |                                                 |
| \\      /  F ield         | OpenFOAM: The Open Source CFD Toolbox           |
|  \\    /   O peration     | Version:  2106                                  |
|   \\  /    A nd           | Website:  www.openfoam.com                      |
|    \\/     M anipulation  |                                                 |
\*---------------------------------------------------------------------------*/
FoamFile
{
    version     2.0;
    format      ascii;
    arch        "LSB;label=32;scalar=64";
    class       volVectorField;
    location    "0.025";
    object      U;
}
// * * * * * * * * * * * * * * * * * * * * * * * * * * * * * * * * * * * * * //

dimensions      [0 1 -1 0 0 0 0];

internalField   nonuniform List<vector> 
4096
(
(-0.0060933907 0.006071276 0)
(-0.018220654 0.0060122028 0)
(-0.03017063 0.0058946493 0)
(-0.041827104 0.0057197934 0)
(-0.053076801 0.0054893856 0)
(-0.063810517 0.0052057295 0)
(-0.073924207 0.0048716563 0)
(-0.083320006 0.0044904936 0)
(-0.091907196 0.0040660292 0)
(-0.099603085 0.0036024699 0)
(-0.1063338 0.0031043963 0)
(-0.11203501 0.0025767147 0)
(-0.11665247 0.0020246044 0)
(-0.12014258 0.0014534553 0)
(-0.12247291 0.00086878294 0)
(-0.12362157 0.00027649059 0)
(-0.12357954 -0.00031799093 0)
(-0.12234787 -0.00090879257 0)
(-0.11993976 -0.0014902687 0)
(-0.11637951 -0.0020568653 0)
(-0.11170241 -0.0026031924 0)
(-0.10595435 -0.0031240728 0)
(-0.099191351 -0.0036145882 0)
(-0.091478997 -0.0040701233 0)
(-0.082891792 -0.0044864057 0)
(-0.073512428 -0.0048595433 0)
(-0.063430993 -0.0051860566 0)
(-0.05274411 -0.0054629088 0)
(-0.041554025 -0.00568753 0)
(-0.029967653 -0.0058578391 0)
(-0.018095572 -0.0059722604 0)
(-0.0060510038 -0.0060297362 0)
(0.0060512364 -0.0060297356 0)
(0.018095802 -0.0059722587 0)
(0.029967878 -0.0058578363 0)
(0.041554244 -0.0056875261 0)
(0.052744319 -0.0054629038 0)
(0.063431192 -0.0051860506 0)
(0.073512614 -0.0048595363 0)
(0.082891963 -0.0044863979 0)
(0.091479152 -0.0040701147 0)
(0.099191488 -0.003614579 0)
(0.10595447 -0.003124063 0)
(0.11170251 -0.0026031821 0)
(0.11637959 -0.0020568547 0)
(0.11993981 -0.0014902578 0)
(0.1223479 -0.00090878149 0)
(0.12357955 -0.00031797981 0)
(0.12362156 0.00027650166 0)
(0.12247287 0.00086879385 0)
(0.12014252 0.001453466 0)
(0.1166524 0.0020246147 0)
(0.11203491 0.0025767246 0)
(0.10633369 0.0031044057 0)
(0.09960295 0.0036024786 0)
(0.091907045 0.0040660372 0)
(0.083319839 0.0044905009 0)
(0.073924027 0.0048716627 0)
(0.063810325 0.005205735 0)
(0.053076599 0.0054893901 0)
(0.041826894 0.005719797 0)
(0.030170414 0.0058946519 0)
(0.018220434 0.0060122044 0)
(0.0060931678 0.0060712765 0)
(-0.0061459828 0.018256098 0)
(-0.0183779 0.018078455 0)
(-0.030430952 0.017724951 0)
(-0.042187891 0.017199129 0)
(-0.05353444 0.016506257 0)
(-0.064360433 0.015653261 0)
(-0.07456091 0.01464866 0)
(-0.084037157 0.01350246 0)
(-0.092697673 0.012226055 0)
(-0.10045906 0.010832099 0)
(-0.10724683 0.0093343661 0)
(-0.1129961 0.007747613 0)
(-0.11765221 0.0060874165 0)
(-0.12117121 0.004370007 0)
(-0.12352031 0.0026120851 0)
(-0.12467797 0.00083081008 0)
(-0.12463437 -0.00095662158 0)
(-0.12339112 -0.002733063 0)
(-0.12096144 -0.0044814583 0)
(-0.1173699 -0.0061851017 0)
(-0.1126521 -0.0078277858 0)
(-0.10685436 -0.0093939448 0)
(-0.1000332 -0.010868792 0)
(-0.092254783 -0.012238454 0)
(-0.083594251 -0.013490086 0)
(-0.074135003 -0.014611987 0)
(-0.063967886 -0.0155937 0)
(-0.053190334 -0.016426095 0)
(-0.041905443 -0.017101448 0)
(-0.030221011 -0.017613503 0)
(-0.018248529 -0.017957523 0)
(-0.0061021459 -0.01813033 0)
(0.0061023816 -0.018130329 0)
(0.018248762 -0.017957518 0)
(0.03022124 -0.017613494 0)
(0.041905665 -0.017101436 0)
(0.053190546 -0.01642608 0)
(0.063968087 -0.015593682 0)
(0.074135191 -0.014611966 0)
(0.083594424 -0.013490062 0)
(0.09225494 -0.012238428 0)
(0.10003334 -0.010868765 0)
(0.10685448 -0.0093939153 0)
(0.1126522 -0.0078277549 0)
(0.11736998 -0.0061850696 0)
(0.1209615 -0.0044814255 0)
(0.12339115 -0.0027330297 0)
(0.12463438 -0.0009565881 0)
(0.12467796 0.00083084339 0)
(0.12352028 0.002612118 0)
(0.12117115 0.0043700391 0)
(0.11765213 0.0060874474 0)
(0.112996 0.0077476427 0)
(0.10724671 0.0093343941 0)
(0.10045892 0.010832125 0)
(0.09269752 0.01222608 0)
(0.084036989 0.013502482 0)
(0.074560728 0.014648679 0)
(0.064360238 0.015653278 0)
(0.053534235 0.01650627 0)
(0.042187678 0.01719914 0)
(0.030430732 0.017724959 0)
(0.018377676 0.01807846 0)
(0.0061457572 0.0182561 0)
(-0.0062239053 0.030583255 0)
(-0.01861088 0.030285612 0)
(-0.030816651 0.029693316 0)
(-0.042722441 0.028812307 0)
(-0.054212485 0.027651413 0)
(-0.065175191 0.026222251 0)
(-0.075504248 0.024539096 0)
(-0.08509968 0.022618727 0)
(-0.093868827 0.02048024 0)
(-0.10172725 0.018144843 0)
(-0.10859953 0.015635627 0)
(-0.11442001 0.012977318 0)
(-0.11913337 0.01019602 0)
(-0.12269517 0.0073189385 0)
(-0.12507224 0.004374102 0)
(-0.12624288 0.0013901484 0)
(-0.12619712 -0.0016040926 0)
(-0.12493672 -0.0045798252 0)
(-0.12247511 -0.0075085104 0)
(-0.1188372 -0.010362177 0)
(-0.11405911 -0.013113684 0)
(-0.10818778 -0.015736963 0)
(-0.10128046 -0.018207256 0)
(-0.093404169 -0.020501331 0)
(-0.084635004 -0.022597685 0)
(-0.075057405 -0.024476729 0)
(-0.064763348 -0.026120955 0)
(-0.053851464 -0.027515081 0)
(-0.042426111 -0.028646178 0)
(-0.030596394 -0.029503774 0)
(-0.018475154 -0.030079941 0)
(-0.0061779191 -0.030369358 0)
(0.0061781601 -0.030369355 0)
(0.018475392 -0.030079932 0)
(0.030596627 -0.029503759 0)
(0.042426337 -0.028646158 0)
(0.053851682 -0.027515056 0)
(0.064763554 -0.026120925 0)
(0.075057598 -0.024476694 0)
(0.084635181 -0.022597645 0)
(0.093404329 -0.020501287 0)
(0.1012806 -0.018207209 0)
(0.1081879 -0.015736913 0)
(0.11405921 -0.013113632 0)
(0.11883728 -0.010362123 0)
(0.12247516 -0.0075084552 0)
(0.12493675 -0.0045797692 0)
(0.12619714 -0.0016040363 0)
(0.12624287 0.0013902044 0)
(0.1250722 0.0043741572 0)
(0.12269511 0.0073189923 0)
(0.11913329 0.010196072 0)
(0.1144199 0.012977368 0)
(0.10859941 0.015635674 0)
(0.10172711 0.018144887 0)
(0.093868671 0.02048028 0)
(0.085099509 0.022618763 0)
(0.075504062 0.024539128 0)
(0.065174992 0.026222279 0)
(0.054212276 0.027651436 0)
(0.042722223 0.028812325 0)
(0.030816427 0.029693329 0)
(0.018610652 0.03028562 0)
(0.0062236751 0.030583258 0)
(-0.0063292728 0.043092969 0)
(-0.018925918 0.042673494 0)
(-0.031338196 0.041838761 0)
(-0.04344526 0.040597148 0)
(-0.055129336 0.038961106 0)
(-0.066276902 0.036947018 0)
(-0.076779819 0.034575017 0)
(-0.086536406 0.031868764 0)
(-0.095452437 0.028855188 0)
(-0.10344206 0.025564191 0)
(-0.11042861 0.022028327 0)
(-0.11634537 0.018282457 0)
(-0.12113615 0.014363377 0)
(-0.12475583 0.010309438 0)
(-0.12717073 0.0061601561 0)
(-0.12835889 0.0019558351 0)
(-0.12831025 -0.0022628858 0)
(-0.12702667 -0.0064554065 0)
(-0.12452189 -0.010581533 0)
(-0.12082131 -0.014601869 0)
(-0.11596172 -0.018478189 0)
(-0.1099909 -0.02217378 0)
(-0.10296709 -0.025653776 0)
(-0.094958475 -0.028885463 0)
(-0.086042424 -0.031838566 0)
(-0.076304795 -0.034485505 0)
(-0.065839085 -0.036801632 0)
(-0.054745547 -0.038765432 0)
(-0.043130243 -0.040358706 0)
(-0.03110405 -0.041566714 0)
(-0.018781636 -0.042378297 0)
(-0.0062803933 -0.042785967 0)
(0.0062806419 -0.042785963 0)
(0.018781883 -0.042378285 0)
(0.031104292 -0.041566694 0)
(0.043130477 -0.040358678 0)
(0.054745771 -0.038765396 0)
(0.065839297 -0.036801589 0)
(0.076304993 -0.034485455 0)
(0.086042606 -0.03183851 0)
(0.09495864 -0.028885402 0)
(0.10296724 -0.02565371 0)
(0.10999102 -0.022173709 0)
(0.11596182 -0.018478115 0)
(0.12082139 -0.014601793 0)
(0.12452194 -0.010581454 0)
(0.1270267 -0.0064553273 0)
(0.12831026 -0.0022628062 0)
(0.12835888 0.0019559143 0)
(0.12717069 0.0061602341 0)
(0.12475577 0.010309514 0)
(0.12113607 0.01436345 0)
(0.11634527 0.018282527 0)
(0.11042849 0.022028394 0)
(0.10344191 0.025564253 0)
(0.095452276 0.028855245 0)
(0.08653623 0.031868816 0)
(0.076779628 0.034575063 0)
(0.066276698 0.036947057 0)
(0.055129121 0.038961139 0)
(0.043445037 0.040597174 0)
(0.031337966 0.041838779 0)
(0.018925684 0.042673505 0)
(0.0063290362 0.043092973 0)
(-0.0064641346 0.055840701 0)
(-0.01932914 0.055297003 0)
(-0.032005727 0.054215078 0)
(-0.0443704 0.052605797 0)
(-0.056302811 0.050485313 0)
(-0.067686968 0.047874878 0)
(-0.078412394 0.04480061 0)
(-0.088375225 0.0412932 0)
(-0.09747923 0.037387575 0)
(-0.10563675 0.033122515 0)
(-0.11276954 0.028540237 0)
(-0.11880952 0.02368594 0)
(-0.12369937 0.018607331 0)
(-0.1273931 0.013354128 0)
(-0.12985642 0.0079775501 0)
(-0.131067 0.0025298106 0)
(-0.13101468 -0.0029364238 0)
(-0.12970145 -0.0083685377 0)
(-0.12714145 -0.013714462 0)
(-0.12336069 -0.018923171 0)
(-0.11839682 -0.023945153 0)
(-0.11229869 -0.028732864 0)
(-0.10512583 -0.033241157 0)
(-0.096947876 -0.037427671 0)
(-0.087843848 -0.041253211 0)
(-0.077901409 -0.044682071 0)
(-0.067216008 -0.047682344 0)
(-0.055889969 -0.050226182 0)
(-0.044031537 -0.052290028 0)
(-0.031753859 -0.053854805 0)
(-0.019173941 -0.054906071 0)
(-0.0064115627 -0.055434134 0)
(0.0064118213 -0.055434129 0)
(0.019174197 -0.054906055 0)
(0.03175411 -0.053854778 0)
(0.04403178 -0.052289991 0)
(0.055890202 -0.050226135 0)
(0.067216228 -0.047682287 0)
(0.077901615 -0.044682006 0)
(0.087844037 -0.041253138 0)
(0.096948047 -0.037427591 0)
(0.10512599 -0.03324107 0)
(0.11229882 -0.028732773 0)
(0.11839693 -0.023945057 0)
(0.12336077 -0.018923072 0)
(0.12714151 -0.013714361 0)
(0.12970149 -0.0083684344 0)
(0.13101469 -0.0029363201 0)
(0.13106699 0.0025299137 0)
(0.12985638 0.0079776517 0)
(0.12739304 0.013354227 0)
(0.12369928 0.018607427 0)
(0.11880941 0.023686032 0)
(0.11276941 0.028540323 0)
(0.1056366 0.033122596 0)
(0.097479064 0.037387649 0)
(0.088375042 0.041293268 0)
(0.078412196 0.04480067 0)
(0.067686756 0.047874929 0)
(0.056302588 0.050485355 0)
(0.044370168 0.052605831 0)
(0.032005488 0.054215102 0)
(0.019328897 0.055297017 0)
(0.0064638894 0.055840706 0)
(-0.0066306413 0.068887821 0)
(-0.019826974 0.068216892 0)
(-0.032829884 0.066881793 0)
(-0.045512602 0.064895954 0)
(-0.057751599 0.062279331 0)
(-0.069427834 0.059058177 0)
(-0.080427943 0.055264754 0)
(-0.090645366 0.05093697 0)
(-0.0999814 0.046117959 0)
(-0.10834616 0.040855613 0)
(-0.11565944 0.035202056 0)
(-0.12185148 0.02921309 0)
(-0.1268636 0.022947603 0)
(-0.13064872 0.016466958 0)
(-0.13317179 0.0098343575 0)
(-0.13441004 0.0031142148 0)
(-0.13435317 -0.003628498 0)
(-0.13300335 -0.010328879 0)
(-0.1303752 -0.016922715 0)
(-0.12649549 -0.023347087 0)
(-0.12140293 -0.029540952 0)
(-0.11514768 -0.0354457 0)
(-0.10779085 -0.041005677 0)
(-0.099403872 -0.046168677 0)
(-0.090067812 -0.050886392 0)
(-0.079872553 -0.055114823 0)
(-0.068915948 -0.058814654 0)
(-0.057302882 -0.061951573 0)
(-0.045144293 -0.064496558 0)
(-0.032556133 -0.066426106 0)
(-0.019658295 -0.067722427 0)
(-0.0065735096 -0.068373581 0)
(0.006573781 -0.068373574 0)
(0.019658563 -0.067722407 0)
(0.032556396 -0.066426073 0)
(0.045144548 -0.064496512 0)
(0.057303126 -0.061951515 0)
(0.068916179 -0.058814584 0)
(0.079872769 -0.055114742 0)
(0.090068011 -0.050886301 0)
(0.099404052 -0.046168578 0)
(0.10779101 -0.04100557 0)
(0.11514782 -0.035445586 0)
(0.12140304 -0.029540832 0)
(0.12649558 -0.023346963 0)
(0.13037526 -0.016922589 0)
(0.13300339 -0.010328751 0)
(0.13435318 -0.0036283693 0)
(0.13441002 0.0031143428 0)
(0.13317175 0.0098344836 0)
(0.13064865 0.016467081 0)
(0.12686351 0.022947722 0)
(0.12185137 0.029213203 0)
(0.11565931 0.035202163 0)
(0.10834601 0.040855713 0)
(0.099981227 0.046118052 0)
(0.090645175 0.050937053 0)
(0.080427736 0.055264827 0)
(0.069427614 0.05905824 0)
(0.057751367 0.062279383 0)
(0.04551236 0.064895996 0)
(0.032829635 0.066881823 0)
(0.019826721 0.06821691 0)
(0.0066303853 0.068887827 0)
(-0.0068313665 0.082299872 0)
(-0.020427116 0.081498041 0)
(-0.033823401 0.079902468 0)
(-0.046889504 0.077529225 0)
(-0.059498061 0.074402193 0)
(-0.071526349 0.070552789 0)
(-0.082857523 0.066019614 0)
(-0.093381777 0.060848021 0)
(-0.10299743 0.055089611 0)
(-0.11161191 0.048801665 0)
(-0.11914267 0.042046521 0)
(-0.12551792 0.034890903 0)
(-0.13067733 0.027405211 0)
(-0.13457253 0.019662789 0)
(-0.13716756 0.011739171 0)
(-0.13843913 0.0037113137 0)
(-0.13837676 -0.0043431652 0)
(-0.13698285 -0.012346745 0)
(-0.13427257 -0.020222741 0)
(-0.13027364 -0.027896026 0)
(-0.12502601 -0.035293724 0)
(-0.11858144 -0.042345871 0)
(-0.11100293 -0.048986041 0)
(-0.10236408 -0.055151927 0)
(-0.092748395 -0.060785882 0)
(-0.082248447 -0.065835406 0)
(-0.070964981 -0.07025359 0)
(-0.059005969 -0.073999499 0)
(-0.046485595 -0.077038512 0)
(-0.033523192 -0.079342593 0)
(-0.020242138 -0.080890521 0)
(-0.0067687219 -0.081668055 0)
(0.0067690089 -0.081668047 0)
(0.020242422 -0.080890497 0)
(0.03352347 -0.079342553 0)
(0.046485865 -0.077038456 0)
(0.059006228 -0.073999429 0)
(0.070965226 -0.070253505 0)
(0.082248675 -0.065835308 0)
(0.092748605 -0.060785772 0)
(0.10236427 -0.055151807 0)
(0.11100309 -0.048985911 0)
(0.11858159 -0.042345733 0)
(0.12502613 -0.03529358 0)
(0.13027373 -0.027895877 0)
(0.13427263 -0.020222588 0)
(0.13698289 -0.01234659 0)
(0.13837677 -0.0043430101 0)
(0.13843911 0.0037114678 0)
(0.13716752 0.011739323 0)
(0.13457246 0.019662937 0)
(0.13067723 0.027405354 0)
(0.1255178 0.034891039 0)
(0.11914253 0.042046651 0)
(0.11161175 0.048801786 0)
(0.10299725 0.055089722 0)
(0.093381575 0.060848121 0)
(0.082857305 0.066019703 0)
(0.071526117 0.070552866 0)
(0.059497816 0.074402257 0)
(0.04688925 0.077529275 0)
(0.03382314 0.079902504 0)
(0.020426849 0.081498062 0)
(0.0068310975 0.082299879 0)
(-0.0070698084 0.096147983 0)
(-0.021140021 0.095210858 0)
(-0.035003585 0.093346077 0)
(-0.048525081 0.090572456 0)
(-0.061572586 0.086917947 0)
(-0.074019002 0.082419325 0)
(-0.085743348 0.077121765 0)
(-0.096631962 0.071078343 0)
(-0.10657963 0.064349433 0)
(-0.1154906 0.057002047 0)
(-0.12327953 0.049109099 0)
(-0.12987225 0.040748615 0)
(-0.13520647 0.032002907 0)
(-0.13923231 0.022957705 0)
(-0.14191272 0.013701279 0)
(-0.14322379 0.0043235433 0)
(-0.14315487 -0.0050848359 0)
(-0.14170859 -0.014433322 0)
(-0.13890081 -0.023632372 0)
(-0.13476034 -0.032594276 0)
(-0.12932863 -0.041233965 0)
(-0.1226593 -0.04946978 0)
(-0.11481759 -0.057224199 0)
(-0.10587969 -0.064424518 0)
(-0.095931988 -0.071003474 0)
(-0.085070235 -0.076899817 0)
(-0.073398612 -0.082058824 0)
(-0.061028756 -0.086432747 0)
(-0.048078707 -0.0899812 0)
(-0.034671815 -0.092671488 0)
(-0.020935601 -0.094478861 0)
(-0.0070005876 -0.09538671 0)
(0.0070008932 -0.095386701 0)
(0.020935904 -0.094478832 0)
(0.034672111 -0.09267144 0)
(0.048078994 -0.089981134 0)
(0.061029031 -0.086432663 0)
(0.073398872 -0.082058724 0)
(0.085070477 -0.076899702 0)
(0.095932211 -0.071003344 0)
(0.10587989 -0.064424376 0)
(0.11481776 -0.057224046 0)
(0.12265945 -0.049469617 0)
(0.12932875 -0.041233794 0)
(0.13476044 -0.0325941 0)
(0.13890088 -0.023632192 0)
(0.14170863 -0.014433139 0)
(0.14315488 -0.0050846529 0)
(0.14322378 0.004323725 0)
(0.14191268 0.013701458 0)
(0.13923223 0.02295788 0)
(0.13520637 0.032003075 0)
(0.12987213 0.040748776 0)
(0.12327938 0.049109251 0)
(0.11549043 0.057002189 0)
(0.10657943 0.064349563 0)
(0.096631749 0.071078461 0)
(0.085743118 0.07712187 0)
(0.074018757 0.082419415 0)
(0.061572327 0.086918022 0)
(0.048524813 0.090572515 0)
(0.035003308 0.09334612 0)
(0.021139739 0.095210883 0)
(0.0070695239 0.096147992 0)
(-0.0073510791 0.11051149 0)
(-0.021980974 0.10943387 0)
(-0.036395729 0.10728955 0)
(-0.050454376 0.10410019 0)
(-0.064019602 0.099898001 0)
(-0.076959147 0.094725347 0)
(-0.089147148 0.088634261 0)
(-0.1004654 0.081685863 0)
(-0.11080451 0.073949674 0)
(-0.12006501 0.065502838 0)
(-0.12815826 0.056429275 0)
(-0.13500728 0.04681877 0)
(-0.14054751 0.036766011 0)
(-0.14472727 0.026369594 0)
(-0.14750828 0.015731008 0)
(-0.14886587 0.0049536034 0)
(-0.14878918 -0.0058584283 0)
(-0.14728117 -0.016601069 0)
(-0.14435846 -0.027171464 0)
(-0.14005116 -0.03746888 0)
(-0.13440247 -0.047395632 0)
(-0.1274682 -0.056857964 0)
(-0.11931623 -0.065766879 0)
(-0.11002578 -0.074038919 0)
(-0.099686622 -0.081596878 0)
(-0.088398257 -0.088370462 0)
(-0.076268914 -0.094296868 0)
(-0.063414548 -0.099321306 0)
(-0.04995775 -0.10339744 0)
(-0.036026613 -0.10648775 0)
(-0.021753548 -0.10856384 0)
(-0.0072740769 -0.10960666 0)
(0.007274404 -0.10960665 0)
(0.021753872 -0.1085638 0)
(0.03602693 -0.10648769 0)
(0.049958057 -0.10339736 0)
(0.063414842 -0.099321208 0)
(0.076269192 -0.094296751 0)
(0.088398516 -0.088370327 0)
(0.09968686 -0.081596727 0)
(0.11002599 -0.074038753 0)
(0.11931642 -0.065766701 0)
(0.12746837 -0.056857774 0)
(0.1344026 -0.047395434 0)
(0.14005126 -0.037468674 0)
(0.14435853 -0.027171254 0)
(0.14728121 -0.016600857 0)
(0.1487892 -0.0058582158 0)
(0.14886585 0.0049538143 0)
(0.14750823 0.015731215 0)
(0.14472719 0.026369796 0)
(0.1405474 0.036766206 0)
(0.13500715 0.046818957 0)
(0.1281581 0.056429452 0)
(0.12006483 0.065503003 0)
(0.11080431 0.073949826 0)
(0.10046517 0.081686 0)
(0.089146904 0.088634382 0)
(0.076958887 0.094725452 0)
(0.064019327 0.099898088 0)
(0.050454091 0.10410026 0)
(0.036395435 0.10728959 0)
(0.021980675 0.1094339 0)
(0.0073507768 0.1105115 0)
(-0.0076827831 0.12548194 0)
(-0.022972709 0.1242577 0)
(-0.038037464 0.12182163 0)
(-0.052729524 0.11819842 0)
(-0.066905214 0.11342473 0)
(-0.080426181 0.10754878 0)
(-0.093160801 0.10062981 0)
(-0.10498551 0.092737374 0)
(-0.11578602 0.083950567 0)
(-0.12545844 0.074357147 0)
(-0.13391029 0.064052554 0)
(-0.14106131 0.053138862 0)
(-0.14684424 0.041723691 0)
(-0.15120533 0.029919066 0)
(-0.15410482 0.017840255 0)
(-0.1555172 0.0056046114 0)
(-0.15543137 -0.0066695961 0)
(-0.15385062 -0.018864324 0)
(-0.15079253 -0.030862874 0)
(-0.1462887 -0.042550977 0)
(-0.14038437 -0.053817838 0)
(-0.13313795 -0.064557129 0)
(-0.12462037 -0.07466793 0)
(-0.11491441 -0.084055611 0)
(-0.10411386 -0.092632636 0)
(-0.092322593 -0.10031931 0)
(-0.079653626 -0.10704445 0)
(-0.066227998 -0.11274593 0)
(-0.052173669 -0.11737125 0)
(-0.037624329 -0.12087787 0)
(-0.022718167 -0.12323362 0)
(-0.00759661 -0.12441691 0)
(0.0075969616 -0.1244169 0)
(0.022718515 -0.12323358 0)
(0.03762467 -0.1208778 0)
(0.052173999 -0.11737116 0)
(0.066228313 -0.11274582 0)
(0.079653924 -0.10704431 0)
(0.092322871 -0.10031916 0)
(0.10411411 -0.092632462 0)
(0.11491464 -0.084055419 0)
(0.12462057 -0.074667724 0)
(0.13313812 -0.06455691 0)
(0.14038452 -0.053817609 0)
(0.14628881 -0.042550741 0)
(0.15079261 -0.030862633 0)
(0.15385067 -0.01886408 0)
(0.15543138 -0.0066693521 0)
(0.15551718 0.0056048535 0)
(0.15410476 0.017840493 0)
(0.15120524 0.029919297 0)
(0.14684412 0.041723915 0)
(0.14106117 0.053139076 0)
(0.13391012 0.064052756 0)
(0.12545825 0.074357336 0)
(0.1157858 0.08395074 0)
(0.10498527 0.092737531 0)
(0.09316054 0.10062995 0)
(0.080425903 0.1075489 0)
(0.066904922 0.11342483 0)
(0.05272922 0.1181985 0)
(0.038037151 0.12182168 0)
(0.02297239 0.12425773 0)
(0.0076824607 0.12548195 0)
(-0.0080760656 0.14116902 0)
(-0.024148547 0.1397909 0)
(-0.039983945 0.13704866 0)
(-0.055426951 0.13297017 0)
(-0.070326336 0.12759681 0)
(-0.084536516 0.12098299 0)
(-0.097919041 0.11319552 0)
(-0.11034399 0.10431287 0)
(-0.12169128 0.094424242 0)
(-0.13185181 0.083628571 0)
(-0.14072853 0.07203342 0)
(-0.14823733 0.05975379 0)
(-0.15430776 0.046910884 0)
(-0.15888365 0.033630814 0)
(-0.16192351 0.020043296 0)
(-0.16340084 0.0062803401 0)
(-0.16330424 -0.007525058 0)
(-0.16163743 -0.021240194 0)
(-0.15841908 -0.034733907 0)
(-0.15368254 -0.047877792 0)
(-0.14747548 -0.06054736 0)
(-0.13985931 -0.072623156 0)
(-0.13090861 -0.083991808 0)
(-0.12071034 -0.094547013 0)
(-0.109363 -0.10419045 0)
(-0.096975685 -0.1128326 0)
(-0.083667047 -0.12039351 0)
(-0.069564165 -0.12680343 0)
(-0.054801367 -0.13200336 0)
(-0.039518989 -0.13594558 0)
(-0.023862083 -0.13859394 0)
(-0.007979097 -0.13992419 0)
(0.0079794761 -0.13992418 0)
(0.023862458 -0.13859389 0)
(0.039519356 -0.1359455 0)
(0.054801723 -0.13200326 0)
(0.069564505 -0.1268033 0)
(0.083667369 -0.12039336 0)
(0.096975984 -0.11283242 0)
(0.10936327 -0.10419025 0)
(0.12071058 -0.094546794 0)
(0.13090883 -0.083991572 0)
(0.13985949 -0.072622906 0)
(0.14747563 -0.060547099 0)
(0.15368266 -0.047877522 0)
(0.15841916 -0.034733633 0)
(0.16163748 -0.021239916 0)
(0.16330425 -0.0075247803 0)
(0.16340081 0.0062806154 0)
(0.16192345 0.020043567 0)
(0.15888356 0.033631077 0)
(0.15430764 0.046911138 0)
(0.14823717 0.059754033 0)
(0.14072835 0.072033649 0)
(0.1318516 0.083628785 0)
(0.12169104 0.094424439 0)
(0.11034373 0.10431305 0)
(0.097918762 0.11319568 0)
(0.084536219 0.12098312 0)
(0.070326023 0.12759693 0)
(0.055426625 0.13297026 0)
(0.03998361 0.13704873 0)
(0.024148206 0.13979093 0)
(0.0080757208 0.14116904 0)
(-0.0085467808 0.15770875 0)
(-0.02555589 0.1561681 0)
(-0.042313638 0.15310251 0)
(-0.058655387 0.14854322 0)
(-0.074420861 0.14253662 0)
(-0.089455816 0.1351437 0)
(-0.10361363 0.12643937 0)
(-0.11675678 0.11651154 0)
(-0.12875824 0.10546015 0)
(-0.1395027 0.09339598 0)
(-0.14888768 0.080439455 0)
(-0.15682445 0.066719259 0)
(-0.16323881 0.05237095 0)
(-0.16807168 0.037535517 0)
(-0.17127953 0.022357904 0)
(-0.17283469 0.0069855555 0)
(-0.17272542 -0.0084330441 0)
(-0.17095591 -0.023749784 0)
(-0.16754614 -0.038818312 0)
(-0.16253154 -0.053495376 0)
(-0.15596262 -0.067642109 0)
(-0.14790438 -0.081125266 0)
(-0.13843571 -0.093818392 0)
(-0.12764855 -0.10560291 0)
(-0.11564702 -0.11636917 0)
(-0.10254645 -0.12601731 0)
(-0.088472224 -0.13445817 0)
(-0.073558651 -0.14161394 0)
(-0.057947694 -0.14741885 0)
(-0.041787659 -0.15181966 0)
(-0.025231837 -0.15477607 0)
(-0.0084371015 -0.15626105 0)
(0.0084375109 -0.15626104 0)
(0.025232242 -0.15477602 0)
(0.041788056 -0.15181957 0)
(0.057948078 -0.14741873 0)
(0.073559018 -0.14161379 0)
(0.088472571 -0.13445799 0)
(0.10254677 -0.12601711 0)
(0.11564732 -0.11636894 0)
(0.12764881 -0.10560267 0)
(0.13843594 -0.093818124 0)
(0.14790458 -0.081124983 0)
(0.15596278 -0.067641813 0)
(0.16253167 -0.05349507 0)
(0.16754623 -0.038818001 0)
(0.17095596 -0.02374947 0)
(0.17272543 -0.0084327302 0)
(0.17283466 0.0069858664 0)
(0.17127947 0.02235821 0)
(0.16807158 0.037535814 0)
(0.16323868 0.052371237 0)
(0.15682429 0.066719532 0)
(0.14888749 0.080439714 0)
(0.13950247 0.093396222 0)
(0.12875798 0.10546037 0)
(0.1167565 0.11651174 0)
(0.10361333 0.12643955 0)
(0.089455498 0.13514386 0)
(0.074420526 0.14253674 0)
(0.058655038 0.14854332 0)
(0.04231328 0.15310258 0)
(0.025555525 0.15616814 0)
(0.0085464117 0.15770877 0)
(-0.0091166788 0.17527408 0)
(-0.027259768 0.17356048 0)
(-0.045134195 0.17015084 0)
(-0.06256402 0.16508001 0)
(-0.079378007 0.15839976 0)
(-0.095411423 0.15017815 0)
(-0.11050775 0.14049874 0)
(-0.12452027 0.12945957 0)
(-0.13731356 0.11717208 0)
(-0.14876482 0.10375974 0)
(-0.158765 0.089356681 0)
(-0.16721981 0.074106198 0)
(-0.17405052 0.058159141 0)
(-0.17919457 0.041672311 0)
(-0.18260598 0.024806821 0)
(-0.18425565 0.0077264701 0)
(-0.18413145 -0.0094038619 0)
(-0.18223814 -0.026419772 0)
(-0.17859722 -0.043158853 0)
(-0.17324661 -0.05946216 0)
(-0.16624021 -0.075175627 0)
(-0.15764733 -0.090151421 0)
(-0.14755202 -0.10424924 0)
(-0.13605223 -0.11733752 0)
(-0.12325885 -0.12929457 0)
(-0.10929473 -0.14000961 0)
(-0.094293408 -0.14938368 0)
(-0.078397963 -0.15733046 0)
(-0.061759612 -0.16377697 0)
(-0.04453634 -0.16866414 0)
(-0.026891441 -0.17194725 0)
(-0.00899203 -0.17359633 0)
(0.0089924726 -0.17359631 0)
(0.026891878 -0.1719472 0)
(0.044536768 -0.16866404 0)
(0.061760027 -0.16377684 0)
(0.078398359 -0.15733029 0)
(0.094293782 -0.14938348 0)
(0.10929507 -0.14000938 0)
(0.12325917 -0.12929431 0)
(0.13605251 -0.11733723 0)
(0.14755227 -0.10424893 0)
(0.15764754 -0.0901511 0)
(0.16624038 -0.075175293 0)
(0.17324674 -0.059461816 0)
(0.17859731 -0.043158503 0)
(0.18223819 -0.026419419 0)
(0.18413146 -0.0094035093 0)
(0.18425562 0.007726819 0)
(0.18260591 0.024807164 0)
(0.17919446 0.041672644 0)
(0.17405038 0.058159462 0)
(0.16721964 0.074106504 0)
(0.15876479 0.089356971 0)
(0.14876458 0.10376001 0)
(0.13731329 0.11717233 0)
(0.12451997 0.1294598 0)
(0.11050743 0.14049894 0)
(0.095411083 0.15017832 0)
(0.079377648 0.1583999 0)
(0.062563646 0.16508012 0)
(0.045133811 0.17015092 0)
(0.027259376 0.17356053 0)
(0.0091162833 0.17527409 0)
(-0.0098144368 0.19408779 0)
(-0.029345923 0.19218857 0)
(-0.048587563 0.18840967 0)
(-0.067349577 0.18278986 0)
(-0.085447309 0.17538675 0)
(-0.10270318 0.16627605 0)
(-0.11894857 0.15555067 0)
(-0.13402549 0.14331965 0)
(-0.14778828 0.1297068 0)
(-0.16010493 0.1148493 0)
(-0.1708584 0.098896098 0)
(-0.1799476 0.082006185 0)
(-0.1872883 0.064346845 0)
(-0.19281366 0.046091837 0)
(-0.19647476 0.027419573 0)
(-0.19824075 0.0085113172 0)
(-0.19809899 -0.010450567 0)
(-0.1960549 -0.029284322 0)
(-0.19213183 -0.047810444 0)
(-0.18637069 -0.06585328 0)
(-0.17882946 -0.083242562 0)
(-0.16958266 -0.099814901 0)
(-0.15872061 -0.11541521 0)
(-0.14634856 -0.12989804 0)
(-0.13258568 -0.14312885 0)
(-0.11756399 -0.15498514 0)
(-0.10142705 -0.16535748 0)
(-0.084328658 -0.17415044 0)
(-0.066431407 -0.1812833 0)
(-0.047905163 -0.18669075 0)
(-0.02892552 -0.19032336 0)
(-0.0096721823 -0.19214798 0)
(0.0096726608 -0.19214796 0)
(0.028925993 -0.1903233 0)
(0.047905627 -0.18669064 0)
(0.066431855 -0.18128315 0)
(0.084329087 -0.17415025 0)
(0.10142745 -0.16535726 0)
(0.11756436 -0.15498488 0)
(0.13258602 -0.14312856 0)
(0.14634886 -0.12989772 0)
(0.15872088 -0.11541487 0)
(0.16958289 -0.09981454 0)
(0.17882964 -0.083242186 0)
(0.18637083 -0.065852894 0)
(0.19213193 -0.047810052 0)
(0.19605495 -0.029283926 0)
(0.198099 -0.010450173 0)
(0.19824072 0.0085117067 0)
(0.19647469 0.027419955 0)
(0.19281355 0.046092208 0)
(0.18728814 0.064347203 0)
(0.17994741 0.082006526 0)
(0.17085817 0.098896421 0)
(0.16010467 0.1148496 0)
(0.14778799 0.12970707 0)
(0.13402518 0.1433199 0)
(0.11894822 0.1555509 0)
(0.10270282 0.16627624 0)
(0.085446925 0.17538691 0)
(0.067349177 0.18278999 0)
(0.048587152 0.18840976 0)
(0.029345504 0.19218863 0)
(0.0098140129 0.19408781 0)
(-0.010676273 0.21443727 0)
(-0.03192265 0.21233683 0)
(-0.052853032 0.20815766 0)
(-0.073260554 0.20194284 0)
(-0.092943994 0.19375634 0)
(-0.11170992 0.18368225 0)
(-0.12937474 0.17182374 0)
(-0.14576661 0.1583018 0)
(-0.16072715 0.14325382 0)
(-0.17411305 0.12683193 0)
(-0.18579737 0.10920118 0)
(-0.19567067 0.090537653 0)
(-0.2036419 0.071026472 0)
(-0.20963902 0.050859749 0)
(-0.21360941 0.030234577 0)
(-0.21552009 0.0093510416 0)
(-0.21535775 -0.011589692 0)
(-0.21312863 -0.032387224 0)
(-0.20885827 -0.05284369 0)
(-0.20259117 -0.072765481 0)
(-0.19439031 -0.091964906 0)
(-0.18433656 -0.11026182 0)
(-0.17252791 -0.12748518 0)
(-0.15907857 -0.14347455 0)
(-0.14411792 -0.15808149 0)
(-0.1277893 -0.17117081 0)
(-0.11024866 -0.18262177 0)
(-0.091663062 -0.19232903 0)
(-0.07220919 -0.20020353 0)
(-0.052071647 -0.20617319 0)
(-0.031441277 -0.21018347 0)
(-0.010513408 -0.21219778 0)
(0.010513926 -0.21219775 0)
(0.031441789 -0.21018339 0)
(0.052072148 -0.20617307 0)
(0.072209675 -0.20020336 0)
(0.091663525 -0.19232882 0)
(0.11024909 -0.18262152 0)
(0.12778971 -0.17117052 0)
(0.14411829 -0.15808116 0)
(0.1590789 -0.14347419 0)
(0.17252819 -0.1274848 0)
(0.1843368 -0.11026141 0)
(0.19439051 -0.091964486 0)
(0.20259132 -0.072765049 0)
(0.20885837 -0.052843252 0)
(0.21312869 -0.032386783 0)
(0.21535776 -0.011589253 0)
(0.21552005 0.0093514744 0)
(0.21360932 0.030235 0)
(0.20963889 0.050860161 0)
(0.20364174 0.071026868 0)
(0.19567047 0.090538031 0)
(0.18579713 0.10920153 0)
(0.17411277 0.12683226 0)
(0.16072684 0.14325413 0)
(0.14576627 0.15830208 0)
(0.12937438 0.17182398 0)
(0.11170953 0.18368247 0)
(0.092943583 0.19375652 0)
(0.073260126 0.20194298 0)
(0.052852591 0.20815776 0)
(0.0319222 0.21233689 0)
(0.010675819 0.21443729 0)
(-0.011745775 0.23668982 0)
(-0.035120279 0.23436886 0)
(-0.058146386 0.22975104 0)
(-0.080596057 0.22288421 0)
(-0.10224754 0.21383939 0)
(-0.12288773 0.20270992 0)
(-0.1423145 0.18961031 0)
(-0.16033874 0.17467481 0)
(-0.17678638 0.15805577 0)
(-0.19150002 0.13992181 0)
(-0.20434047 0.12045574 0)
(-0.2151879 0.09985245 0)
(-0.22394282 0.078316615 0)
(-0.23052671 0.056060441 0)
(-0.2348824 0.033301407 0)
(-0.23697423 0.010260082 0)
(-0.23678805 -0.012841957 0)
(-0.23433099 -0.035784091 0)
(-0.22963126 -0.058348549 0)
(-0.22273772 -0.080322231 0)
(-0.21371944 -0.10149851 0)
(-0.20266505 -0.12167897 0)
(-0.18968201 -0.14067518 0)
(-0.17489561 -0.15831029 0)
(-0.15844786 -0.17442064 0)
(-0.14049615 -0.18885718 0)
(-0.1212118 -0.20148672 0)
(-0.10077843 -0.21219308 0)
(-0.079390254 -0.22087803 0)
(-0.057250228 -0.2274621 0)
(-0.034568213 -0.23188511 0)
(-0.011559014 -0.23410673 0)
(0.011559575 -0.2341067 0)
(0.034568767 -0.23188503 0)
(0.057250771 -0.22746196 0)
(0.079390779 -0.22087785 0)
(0.10077894 -0.21219284 0)
(0.12121227 -0.20148643 0)
(0.14049659 -0.18885685 0)
(0.15844826 -0.17442028 0)
(0.17489597 -0.15830989 0)
(0.18968232 -0.14067475 0)
(0.20266531 -0.12167852 0)
(0.21371965 -0.10149804 0)
(0.22273788 -0.08032175 0)
(0.22963137 -0.058348061 0)
(0.23433104 -0.035783602 0)
(0.23678805 -0.012841471 0)
(0.23697419 0.01026056 0)
(0.23488231 0.033301875 0)
(0.23052658 0.056060895 0)
(0.22394265 0.078317052 0)
(0.21518768 0.099852867 0)
(0.20434021 0.12045614 0)
(0.19149973 0.13992218 0)
(0.17678605 0.15805611 0)
(0.16033838 0.17467512 0)
(0.1423141 0.18961059 0)
(0.12288731 0.20271016 0)
(0.10224709 0.21383959 0)
(0.080595598 0.22288437 0)
(0.058145912 0.22975116 0)
(0.035119796 0.23436893 0)
(0.011745287 0.23668984 0)
(-0.013072466 0.26130673 0)
(-0.039086891 0.25874131 0)
(-0.064712816 0.25363725 0)
(-0.089695992 0.24604771 0)
(-0.11378923 0.23605161 0)
(-0.13675508 0.22375265 0)
(-0.15836839 0.209278 0)
(-0.17841871 0.19277673 0)
(-0.19671241 0.1744179 0)