/*--------------------------------*- C++ -*----------------------------------*\
| =========                 |                                                 |
| \\      /  F ield         | OpenFOAM: The Open Source CFD Toolbox           |
|  \\    /   O peration     | Version:  2106                                  |
|   \\  /    A nd           | Website:  www.openfoam.com                      |
|    \\/     M anipulation  |                                                 |
\*---------------------------------------------------------------------------*/
FoamFile
{
    version     2.0;
    format      ascii;
    arch        "LSB;label=32;scalar=64";
    class       volScalarField;
    location    "0.235";
    object      p;
}
// * * * * * * * * * * * * * * * * * * * * * * * * * * * * * * * * * * * * * //

dimensions      [1 -1 -2 0 0 0 0];

internalField   nonuniform List<scalar> 
32768
(
202.66157
202.70594
202.7562
202.80917
202.84125
202.85056
202.8344
202.79136
202.7215
202.6257
202.50498
202.36009
202.19227
202.00233
201.791
201.56177
201.30742
201.04749
200.74707
200.4572
200.12922
199.78115
199.44392
199.05496
198.66098
198.27058
197.8344
197.38237
196.93348
196.4587
195.95045
195.43746
194.90805
194.36439
193.79543
193.20054
192.60264
191.99803
191.3635
190.70578
190.04405
189.37066
188.68887
187.98453
187.27064
186.5442
185.80671
185.07966
184.31903
183.55794
182.81482
182.02939
181.23853
180.47692
179.70228
178.90785
178.11865
177.33146
176.53634
175.73861
174.94118
174.15869
173.38168
172.57115
171.76041
170.98228
170.20141
169.40711
168.6082
167.8137
167.04156
166.27198
165.47373
164.67374
163.89627
163.12209
162.34633
161.56753
160.78153
160.01296
159.24516
158.45194
157.67961
156.92417
156.13536
155.35171
154.61277
153.84876
153.04932
152.28781
151.53352
150.74818
149.97436
149.22687
148.46355
147.66004
146.87863
146.1504
145.38562
144.57648
143.81923
143.07556
142.27768
141.49398
140.74902
139.97686
139.18657
138.41132
137.63887
136.87138
136.10453
135.32711
134.5653
133.80024
133.00384
132.22635
131.47719
130.69448
129.9009
129.16133
128.41402
127.60762
126.82576
126.09474
125.32328
124.52414
123.77062
123.02147
122.24167
121.46764
120.70477
119.933
119.17089
118.42372
117.65516
116.87801
116.13861
115.39903
114.62046
113.85874
113.14087
112.40673
111.62122
110.86077
110.15035
109.4119
108.64189
107.9062
107.20423
106.46945
105.72103
105.01131
104.29656
103.56451
102.83873
102.11196
101.39711
100.69631
99.990036
99.281492
98.570727
97.86759
97.179342
96.471803
95.75657
95.076704
94.405294
93.715765
93.024778
92.358368
91.703197
91.01258
90.313188
89.66032
89.016593
88.344005
87.673691
87.034701
86.407585
85.753572
85.093201
84.464012
83.837451
83.195575
82.570218
81.961913
81.347606
80.724942
80.115307
79.531712
78.947193
78.345063
77.757281
77.191366
76.617358
76.048583
75.49889
74.947456
74.399854
73.877687
73.375937
72.845675
72.334376
71.859716
71.400465
70.941896
70.514581
70.151535
69.796231
69.474761
69.178089
68.91777
68.745157
68.665448
68.721166
68.881305
69.208346
69.68691
70.335497
71.198216
72.237945
73.557199
75.338787
77.590203
80.509581
84.070141
88.499589
93.907807
100.44201
108.40986
117.84439
129.19389
142.61474
157.95462
175.90085
196.06594
218.43834
243.00255
268.69374
294.81577
319.67798
340.62939
354.90035
362.63611
369.53319
373.95663
374.26877
373.2823
369.75509
360.00874
345.18303
336.60002
346.26449
381.35716
428.46393
445.40073
193.89534
193.93701
193.98789
194.04147
194.07302
194.08251
194.06619
194.02318
193.9533
193.85706
193.73572
193.59001
193.42159
193.23084
193.0193
192.78909
192.53543
192.27243
191.97574
191.68168
191.35357
191.01083
190.66641
190.27974
189.89357
189.49232
189.05676
188.61646
188.15842
187.67762
187.18048
186.6669
186.12993
185.58826
185.0195
184.42601
183.83004
183.21677
182.5807
181.93064
181.26937
180.58748
179.90363
179.20532
178.48965
177.75761
177.02654
176.29699
175.52888
174.77599
174.02737
173.23935
172.46042
171.69095
170.90829
170.12261
169.33394
168.54179
167.75098
166.95427
166.15415
165.37265
164.58952
163.78208
162.98652
162.19867
161.40479
160.62362
159.83029
159.03319
158.25873
157.4799
156.68706
155.90513
155.12097
154.33198
153.56298
152.79088
152.00806
151.2372
150.45818
149.67202
148.91374
148.1443
147.34845
146.58751
145.84346
145.05548
144.27591
143.53109
142.75328
141.96288
141.20797
140.45973
139.68109
138.88553
138.12627
137.38041
136.58702
135.80299
135.06642
134.29492
133.49066
132.73312
131.98074
131.19504
130.41776
129.64725
128.86978
128.09729
127.32122
126.55311
125.79977
125.01667
124.22576
123.47177
122.70252
121.8974
121.13598
120.40873
119.62165
118.81796
118.07939
117.33163
116.52511
115.75056
115.01197
114.24158
113.4636
112.70204
111.9317
111.15966
110.40615
109.64504
108.86963
108.11857
107.38227
106.61129
105.83605
105.10504
104.37742
103.6079
102.83832
102.11103
101.37969
100.61617
99.86832
99.154181
98.428611
97.680646
96.960891
96.249892
95.51061
94.788221
94.075337
93.341927
92.621732
91.920956
91.219309
90.51124
89.803276
89.105523
88.408401
87.694473
86.984068
86.297052
85.628833
84.953666
84.254171
83.576976
82.928402
82.250926
81.55244
80.886237
80.238961
79.579198
78.911826
78.262577
77.624596
76.97751
76.329763
75.693382
75.057442
74.421972
73.794012
73.183377
72.584939
71.968543
71.346697
70.755342
70.175169
69.582482
68.995551
68.419691
67.841594
67.271722
66.720503
66.161953
65.614928
65.089001
64.595453
64.076087
63.5643
63.079978
62.613686
62.167144
61.720942
61.331404
60.968823
60.638892
60.329601
60.066214
59.878451
59.794508
59.813773
59.93528
60.206446
60.608323
61.175968
61.951429
62.969106
64.290773
65.966514
68.078552
70.755628
74.179773
78.342751
83.470368
89.682509
97.255826
106.30199
117.01859
129.75108
144.47332
161.53105
180.78871
202.19321
225.5795
250.01483
275.17518
299.28441
321.03339
340.88671
355.91445
364.38303
367.48608
365.66257
364.4546
361.12322
348.70072
329.86938
313.34293
319.3622
345.78295
387.44456
407.21243
185.08771
185.13078
185.18218
185.23574
185.26699
185.27595
185.25897
185.21508
185.14452
185.04786
184.92637
184.7805
184.61277
184.42167
184.21196
183.97979
183.72991
183.46311
183.17234
182.87427
182.54794
182.21003
181.85892
181.47856
181.09445
180.68484
180.25836
179.81846
179.35317
178.87844
178.38238
177.86126
177.33063
176.78896
176.20906
175.6241
175.03105
174.40527
173.77104
173.1262
172.45813
171.77421
171.09521
170.39358
169.66643
168.93961
168.22288
167.47196
166.70464
165.96602
165.19763
164.41334
163.64715
162.86868
162.0826
161.29883
160.50647
159.71742
158.93164
158.12699
157.33409
156.55995
155.75611
154.95309
154.17378
153.37177
152.5842
151.81528
151.00762
150.21214
149.44539
148.6565
147.87031
147.09669
146.30392
145.52016
144.75398
143.97907
143.20302
142.4222
141.63513
140.87422
140.12019
139.32111
138.53742
137.81002
137.03567
136.22715
135.48847
134.74141
133.93048
133.1571
132.4274
131.66503
130.86012
130.08387
129.35602
128.57544
127.76259
127.02684
126.2878
125.46455
124.68608
123.96259
123.17787
122.38992
121.63399
120.85294
120.07348
119.30428
118.52068
117.76481
117.01064
116.20741
115.43056
114.69261
113.8981
113.09423
112.37321
111.63277
110.79983
110.02178
109.32087
108.53139
107.7042
106.97038
106.23309
105.43625
104.66816
103.91918
103.13711
102.36885
101.62706
100.84629
100.06556
99.345016
98.603215
97.798836
97.039716
96.348219
95.598307
94.789509
94.050527
93.357058
92.583306
91.790155
91.092085
90.404141
89.626447
88.869873
88.199392
87.487165
86.717991
85.986484
85.283077
84.568729
83.843596
83.122102
82.422721
81.724729
81.019336
80.326107
79.62331
78.911559
78.219057
77.523555
76.828128
76.159328
75.498356
74.815585
74.123322
73.45319
72.794424
72.116105
71.435697
70.781327
70.13945
69.493401
68.831693
68.1762
67.551423
66.916584
66.26712
65.644641
65.026706
64.39597
63.780837
63.184707
62.584037
61.978092
61.373648
60.787874
60.209984
59.630483
59.058175
58.492781
57.926452
57.382447
56.853969
56.310065
55.777172
55.266142
54.780305
54.274643
53.782821
53.332108
52.91479
52.504688
52.090397
51.743521
51.427827
51.167005
50.928341
50.815971
50.776132
50.820777
51.026533
51.333092
51.826511
52.49582
53.388006
54.514482
55.984236
57.884146
60.258019
63.253547
66.972129
71.497549
77.110221
83.967071
91.987806
101.82241
113.25594
126.5418
142.06205
159.38088
178.82485
199.91853
222.189
245.15749
267.64353
288.83668
307.54052
322.28512
333.35507
341.34162
347.39135
351.00394
345.49836
329.56248
306.52377
286.29394
287.68331
317.16039
355.5908
379.64105
176.24607
176.28821
176.33989
176.39343
176.4243
176.43254
176.41461
176.36962
176.29778
176.19982
176.07695
175.92978
175.76057
175.56831
175.35758
175.12398
174.87519
174.605
174.31809
174.01659
173.69118
173.35747
172.99999
172.62437
172.2431
171.82596
171.4069
170.9653
170.49944
170.02233
169.52815
169.00626
168.47669
167.92801
167.34841
166.76826
166.17031
165.53793
164.90432
164.26023
163.58905
162.90372
162.22125
161.51582
160.78526
160.06478
159.34559
158.58097
157.82472
157.08164
156.30094
155.53132
154.76563
153.97573
153.19041
152.40878
151.61496
150.82875
150.04086
149.23603
148.4535
147.66996
146.856
146.07053
145.29107
144.48074
143.70744
142.93171
142.11774
141.34111
140.56549
139.76309
139.00157
138.23433
137.42399
136.64673
135.88782
135.10592
134.33153
133.55686
132.76851
132.01353
131.2619
130.45295
129.68307
128.96294
128.16264
127.3659
126.65382
125.88004
125.06596
124.32108
123.5844
122.80144
121.99935
121.2475
120.52224
119.71556
118.90393
118.19502
117.44603
116.60685
115.85311
115.13416
114.33062
113.54514
112.79202
112.00993
111.23644
110.46401
109.68383
108.93442
108.16249
107.363
106.61772
105.86461
105.04137
104.26502
103.56681
102.78425
101.94121
101.21632
100.506
99.671166
98.870915
98.158121
97.385753
96.592281
95.850485
95.086264
94.302894
93.561388
92.796009
91.988141
91.242532
90.537492
89.755771
88.952079
88.2401
87.54431
86.749576
85.946539
85.25468
84.548884
83.739067
82.965294
82.294413
81.58436
80.782706
80.044912
79.385755
78.660434
77.89613
77.176581
76.468353
75.749152
75.03183
74.311637
73.60024
72.900019
72.194499
71.493453
70.803717
70.105662
69.399
68.717607
68.047687
67.341626
66.644195
65.99922
65.345601
64.64367
63.953589
63.30646
62.655479
61.963788
61.290754
60.666032
60.035086
59.375973
58.722626
58.090033
57.470654
56.839055
56.201571
55.601145
54.997972
54.359133
53.750648
53.184406
52.588212
51.971169
51.379572
50.803992
50.226967
49.6676
49.10696
48.552344
48.017132
47.502974
46.996966
46.461155
45.934858
45.426215
44.961166
44.456172
43.999672
43.58306
43.198431
42.818475
42.445615
42.154241
41.885993
41.747407
41.625151
41.621612
41.732545
41.923175
42.29955
42.779795
43.434332
44.377223
45.55346
47.100564
49.109953
51.586966
54.741339
58.508665
63.325713
69.171537
76.045125
84.388595
94.446457
106.02217
119.49198
134.90528
152.06721
171.06427
191.37193
212.39323
233.40922
253.58245
272.06004
288.21241
302.17158
313.71145
322.19716
325.06027
321.48301
311.43241
297.5787
284.03017
290.0194
319.60379
359.86294
379.32093
167.36684
167.40915
167.46106
167.51441
167.5447
167.55191
167.53267
167.48613
167.41257
167.31283
167.18823
167.03948
166.86885
166.67544
166.46403
166.22972
165.98136
165.71062
165.42495
165.1237
164.79855
164.46761
164.10808
163.73584
163.35608
162.93506
162.52432
162.07592
161.61463
161.13451
160.64269
160.11699
159.59026
159.03412
158.45924
157.87469
157.2734
156.63999
156.00244
155.35821
154.68311
153.99619
153.30883
152.60062
151.86929
151.15233
150.42019
149.65384
148.90805
148.15
147.36914
146.60975
145.83457
145.04098
144.25852
143.47647
142.68592
141.89972
141.10365
140.30726
139.53072
138.73199
137.92464
137.15354
136.3615
135.55471
134.79273
134.00207
133.19069
132.43167
131.64692
130.84066
130.09033
129.32629
128.51885
127.74068
126.97832
126.19798
125.42931
124.6629
123.87031
123.11547
122.36999
121.55566
120.7936
120.07887
119.26512
118.47789
117.77568
116.99613
116.18665
115.44092
114.70465
113.9212
113.11265
112.37457
111.65655
110.8305
110.02404
109.33007
108.56075
107.72651
106.99405
106.26151
105.45998
104.68092
103.9106
103.13883
102.38089
101.58633
100.80676
100.08222
99.294746
98.47831
97.757741
97.017274
96.178376
95.402932
94.712573
93.910488
93.060141
92.365488
91.65829
90.797898
90.013605
89.312897
88.512383
87.715151
86.990879
86.219073
85.432842
84.714339
83.952568
83.120172
82.371837
81.691673
80.905607
80.079167
79.387249
78.712006
77.887783
77.070148
76.407987
75.702352
74.864743
74.111981
73.474025
72.736705
71.912926
71.20456
70.542345
69.777957
69.023654
68.342398
67.635481
66.893559
66.173272
65.479526
64.770478
64.045009
63.349896
62.66198
61.940197
61.234875
60.561664
59.879032
59.188172
58.504518
57.819948
57.136053
56.473075
55.825516
55.149031
54.452586
53.797842
53.155012
52.470282
51.787545
51.148642
50.531788
49.900984
49.238952
48.597451
47.995974
47.373681
46.741962
46.150751
45.558134
44.926602
44.3158
43.744612
43.167035
42.553031
41.948091
41.363884
40.797901
40.231055
39.690673
39.158488
38.612371
38.09616
37.608065
37.113748
36.570415
36.077976
35.583744
35.10917
34.617634
34.189244
33.817166
33.43628
33.075131
32.733902
32.553423
32.361182
32.263892
32.243112
32.341357
32.570066
32.882163
33.38774
34.028894
34.91201
36.087617
37.528958
39.436537
41.755443
44.724667
48.489485
52.944422
58.675493
65.356592
73.452411
83.14589
94.349448
107.35837
122.10357
138.89338
157.3408
176.83849
196.73449
216.45033
235.55435
253.40992
269.63994
283.81578
295.0393
302.20758
306.19401
307.43106
306.58586
308.32991
321.82957
348.00521
377.20952
396.74916
158.45129
158.49367
158.54573
158.59875
158.62828
158.63419
158.61328
158.56478
158.48906
158.38712
158.26032
158.10967
157.93716
157.74255
157.52973
157.29504
157.04617
156.77528
156.49054
156.18917
155.8654
155.5355
155.17594
154.80699
154.42621
154.00619
153.59939
153.14431
152.69096
152.20417
151.71584
151.18576
150.66222
150.09522
149.52952
148.93515
148.33061
147.69709
147.05624
146.40899
145.72752
145.04107
144.34758
143.63624
142.90462
142.18878
141.4393
140.67653
139.93824
139.16474
138.38867
137.62875
136.84542
136.05502
135.27128
134.48889
133.70466
132.91106
132.1109
131.32817
130.54759
129.74068
128.94968
128.17697
127.37651
126.58704
125.82018
125.01147
124.22499
123.4781
122.67032
121.87391
121.13703
120.35341
119.55671
118.80172
118.02058
117.227
116.48904
115.73117
114.91489
114.17005
113.43545
112.61485
111.8598
111.14068
110.33055
109.5623
108.83839
108.06053
107.28366
106.51582
105.76587
105.00291
104.19174
103.45599
102.74967
101.90927
101.10123
100.42639
99.645083
98.805768
98.090048
97.349596
96.541934
95.768076
94.992295
94.232402
93.492093
92.681881
91.887731
91.173574
90.397987
89.57868
88.845827
88.111203
87.29076
86.513092
85.806907
85.008109
84.17209
83.459795
82.735881
81.9142
81.142008
80.398936
79.611261
78.846156
78.079896
77.284347
76.539884
75.824384
75.039226
74.235848
73.499594
72.78847
72.016847
71.211117
70.489498
69.802545
68.999455
68.192387
67.512825
66.801509
65.98991
65.240371
64.578822
63.845057
63.047649
62.341397
61.660845
60.881954
60.12242
59.444909
58.747354
58.021923
57.297459
56.575078
55.88801
55.198338
54.470598
53.777495
53.100008
52.380057
51.67504
50.998819
50.305528
49.612886
48.939424
48.263356
47.583969
46.920373
46.275083
45.613822
44.930408
44.270075
43.62302
42.959495
42.281674
41.615202
40.996021
40.390811
39.737526
39.081233
38.481619
37.890345
37.268821
36.651975
36.073437
35.491324
34.867643
34.262632
33.70734
33.129687
32.503256
31.911707
31.350185
30.793679
30.245104
29.729904
29.198099
28.655181
28.141297
27.64811
27.160459
26.63334
26.160973
25.719898
25.242866
24.729394
24.338805
23.981174
23.559211
23.28274
22.987924
22.79512
22.636262
22.589957
22.630308
22.705066
22.92156
23.2071
23.62243
24.230756
25.139288
26.371612
27.962629
29.985242
32.457203
35.660092
39.649932
44.530022
50.677913
58.014084
66.743623
77.443229
89.211414
103.42185
120.02603
136.98225
155.88834
175.60257
195.36064
215.16916
234.25996
252.08348
267.99837
282.06486
294.65557
306.30497
317.07979
330.59254
350.19814
377.86082
408.13102
428.75998
149.49937
149.54191
149.59408
149.64663
149.67516
149.67946
149.65649
149.60557
149.52722
149.42259
149.29314
149.14011
148.9654
148.76926
148.55488
148.31979
148.07017
147.79965
147.51586
147.21427
146.89366
146.56304
146.20622
145.84029
145.45693
145.0422
144.63411
144.17771
143.72766
143.23901
142.74938
142.21914
141.69078
141.12438
140.55858
139.95457
139.34925
138.71373
138.06834
137.41517
136.72876
136.04308
135.34224
134.62676
133.89481
133.17321
132.41573
131.65748
130.91484
130.13461
129.36314
128.59175
127.80872
127.02766
126.2332
125.45231
124.67271
123.86804
123.07516
122.3027
121.5092
120.70139
119.93003
119.15157
118.34143
117.56871
116.80509
115.98253
115.20919
114.48014
113.66272
112.86345
112.13114
111.34704
110.55519
109.81141
109.0371
108.22574
107.49235
106.75317
105.93038
105.18619
104.45546
103.64004
102.89679
102.16213
101.35685
100.61495
99.869664
99.086221
98.332969
97.559531
96.804016
96.049228
95.238225
94.499764
93.793898
92.961511
92.154926
91.471721
90.704279
89.872276
89.133966
88.401494
87.612298
86.814045
86.038925
85.308038
84.553438
83.736113
82.959883
82.233129
81.450972
80.652222
79.917991
79.181203
78.369245
77.585453
76.869661
76.07476
75.264269
74.547471
73.778158
72.976677
72.243085
71.458608
70.665316
69.956172
69.17244
68.325703
67.603254
66.906493
66.098091
65.304199
64.598668
63.883852
63.090758
62.299474
61.596071
60.873428
60.051598
59.281817
58.599615
57.855197
57.081964
56.369367
55.653832
54.887831
54.147461
53.476824
52.75951
51.965319
51.236369
50.554663
49.807028
49.07474
48.407638
47.692158
46.945487
46.266535
45.597237
44.886285
44.182902
43.511475
42.826412
42.114335
41.404793
40.723123
40.03652
39.341361
38.679349
38.026023
37.342029
36.68184
36.057128
35.393108
34.707223
34.077719
33.458947
32.769332
32.07477
31.447092
30.848463
30.218694
29.562156
28.952325
28.395098
27.782278
27.135321
26.570193
26.005853
25.358474
24.747754
24.223408
23.635523
23.020207
22.463874
21.919483
21.369949
20.821501
20.306059
19.783917
19.241016
18.666904
18.154131
17.655206
17.123072
16.627087
16.169959
15.73933
15.238481
14.73684
14.338094
14.052679
13.702574
13.323628
13.071252
12.983789
12.87844
12.755311
12.728294
12.71995
12.86563
13.131684
13.322355
13.519487
13.91748
14.634117
15.784312
17.293002
19.31856
21.998169
25.655197
30.228409
36.002002
44.094987
54.834047
68.21606
82.032341
98.527606
115.23375
132.05461
152.72821
173.67499
195.85549
218.41407
240.10911
261.59848
282.39886
303.13932
325.34782
349.41092
375.97572
406.20248
433.38091
448.55047
140.51115
140.55395
140.6062
140.65816
140.68548
140.68784
140.6624
140.60857
140.52705
140.41919
140.28658
140.1307
139.9534
139.75541
139.53932
139.3037
139.05347
138.78334
138.50084
138.19922
137.88242
137.55121
137.19839
136.83457
136.44905
136.04235
135.62778
135.17747
134.72289
134.24042
133.73871
133.21897
132.6744
132.12018
131.53913
130.93567
130.32786
129.68905
129.03174
128.3769
127.68862
126.99522
126.29089
125.57014
124.8375
124.10291
123.34545
122.59238
121.83615
121.0569
120.28576
119.50175
118.72199
117.94886
117.14391
116.3643
115.58313
114.77169
113.99832
113.22374
112.41458
111.6199
110.85318
110.07027
109.26655
108.49724
107.73042
106.91567
106.15038
105.4118
104.60415
103.82523
103.07274
102.28522
101.52012
100.77409
99.996025
99.195921
98.454817
97.710413
96.910414
96.169044
95.424844
94.631063
93.890556
93.136166
92.358519
91.622592
90.843643
90.086448
89.348887
88.547787
87.807319
87.069578
86.252372
85.503423
84.782575
83.967344
83.188281
82.481214
81.70507
80.909186
80.154274
79.397317
78.641396
77.839823
77.054273
76.347872
75.576806
74.744349
73.990163
73.262743
72.472853
71.684848
70.944999
70.211475
69.423
68.635495
67.897536
67.102677
66.309457
65.586242
64.807956
64.022084
63.2774
62.485139
61.71425
60.99301
60.199286
59.38323
58.662478
57.929521
57.129242
56.362455
55.635193
54.923916
54.155995
53.337151
52.636576
51.940104
51.106097
50.333403
49.654712
48.888024
48.116095
47.442337
46.717294
45.910546
45.181999
44.534758
43.813694
43.034518
42.334406
41.639344
40.870643
40.13333
39.437458
38.740403
38.044097
37.307183
36.606221
35.969816
35.270776
34.532323
33.8846
33.237161
32.501008
31.795085
31.131159
30.429394
29.742645
29.108898
28.440403
27.730218
27.081335
26.466872
25.787754
25.104108
24.479395
23.844422
23.197314
22.554871
21.883792
21.259571
20.688599
20.07035
19.448499
18.85874
18.260858
17.634912
17.027283
16.447634
15.844852
15.206639
14.581043
14.02473
13.520065
12.948514
12.409993
11.918408
11.425181
10.84703
10.303567
9.8038844
9.2854134
8.6617489
8.0702025
7.5875673
6.9714819
6.4119786
6.0597299
5.4718709
4.6219354
4.3456404
3.901998
3.596705
3.4897224
3.391219
3.2426524
3.0615768
2.8593159
2.6756175
2.5145724
2.3518518
2.186168
2.0315009
1.893554
1.8021076
1.7005168
1.6198442
1.6355374
1.5636132
1.5786862
1.7051661
1.6512735
1.4320308
1.6780876
17.950838
33.237412
49.125277
66.064923
88.328163
109.52797
131.59242
155.91344
181.668
209.45142
237.84421
266.85926
295.82143
324.74037
354.2878
383.8736
413.40852
438.40131
452.02689
131.48677
131.5299
131.58225
131.63351
131.65941
131.65948
131.6311
131.57382
131.48854
131.37683
131.24049
131.08124
130.90096
130.70077
130.48285
130.24665
129.99585
129.72655
129.44533
129.14463
128.83174
128.50087
128.15238
127.79073
127.40419
127.0066
126.58387
126.14378
125.67938
125.20684
124.6919
124.1819
123.62307
123.07504
122.48159
121.87543
121.26026
120.6274
119.95715
119.29349
118.6049
117.90198
117.19536
116.46203
115.73237
114.9895
114.22436
113.47594
112.70354
111.92881
111.15552
110.36499
109.58646
108.80633
108.00919
107.2245
106.4358
105.63528
104.86555
104.08798
103.27453
102.48766
101.72792
100.94173
100.13852
99.382313
98.6123
97.79476
97.048769
96.299722
95.489232
94.738026
93.986988
93.181854
92.426411
91.700151
90.90844
90.110623
89.39579
88.63404
87.828136
87.11624
86.366984
85.570066
84.838627
84.085764
83.327186
82.58
81.781603
81.058293
80.324339
79.499125
78.781781
78.049153
77.216996
76.473196
75.755655
74.940299
74.163098
73.468017
72.688606
71.888789
71.144009
70.381431
69.615958
68.823048
68.047712
67.336262
66.568948
65.742403
64.984633
64.266633
63.477491
62.670083
61.936248
61.213086
60.407306
59.641326
58.924649
58.108626
57.32226
56.591705
55.793834
55.04035
54.291338
53.475496
52.730322
51.997439
51.17838
50.408392
49.705713
48.934834
48.144001
47.400569
46.64578
45.920276
45.177745
44.362678
43.634796
42.932194
42.148997
41.397762
40.664271
39.907564
39.174526
38.453968
37.719485
36.95593
36.213565
35.546572
34.811312
34.036068
33.395813
32.703747
31.89648
31.202066
30.519757
29.741459
29.049251
28.410809
27.664472
26.939651
26.312053
25.614859
24.880301
24.224976
23.559671
22.87553
22.189951
21.473275
20.811248
20.178772
19.512073
18.852677
18.191248
17.50077
16.828414
16.189561
15.500659
14.775786
14.160349
13.611145
12.943043
12.268983
11.701346
11.158114
10.593294
9.9622782
9.3250992
8.7656094
8.1595308
7.4590626
6.9064662
6.4406464
5.5919946
4.8488276
4.4837691
4.0317736
3.7245247
3.4927667
3.2842026
3.0264729
2.7233225
2.4604361
2.2175759
1.9111955
1.6239437
1.3888552
1.1216033
0.84492554
0.59935661
0.35399403
0.11105322
-0.029163592
-0.20771533
-0.27651421
-0.24480089
-0.22091694
-0.20775521
-0.1963833
-0.18748169
-0.18188401
-0.17956017
-0.17924967
-0.18005826
-0.18123744
-0.18322499
-0.18540081
-0.18724131
-0.1886878
-0.18748858
-0.18550519
-0.17985631
-0.17217784
-0.16079596
-0.13833538
-0.097138174
-0.12350855
0.36507021
0.24661931
0.45886075
22.003689
51.387026
81.240357
112.06186
143.16807
175.9547
210.42427
245.35531
279.99236
313.5588
346.15265
378.61613
408.52156
432.63615
445.64475
122.42634
122.46987
122.52239
122.57281
122.59708
122.59451
122.5627
122.50135
122.41164
122.2954
122.15469
121.99149
121.8078
121.60506
121.38522
121.14836
120.89723
120.62919
120.34928
120.05094
119.74132
119.4126
119.0685
118.70957
118.32378
117.93432
117.50308
117.07632
116.60289
116.13369
115.61285
115.10423
114.53981
113.98663
113.38622
112.78425
112.15119
111.51415
110.84018
110.17018
109.47347
108.76476
108.05427
107.30377
106.57987
105.8298
105.05053
104.30831
103.52261
102.74602
101.9718
101.17787
100.39905
99.604316
98.823155
98.031805
97.233874
96.45761
95.669973
94.888361
94.099661
93.301075
92.541321
91.773171
90.960158
90.204706
89.451498
88.631207
87.890436
87.143808
86.339214
85.593561
84.842911
84.054946
83.290033
82.558652
81.78849
80.98825
80.27752
79.526899
78.71142
78.00052
77.272305
76.476514
75.741645
75.00312
74.250826
73.491781
72.701032
71.995555
71.244825
70.418955
69.72226
68.984301
68.148292
67.401763
66.68919
65.893407
65.104443
64.40161
63.637762
62.834632
62.077951
61.337129
60.576607
59.763319
59.009937
58.284003
57.501088
56.718082
55.947841
55.210567
54.463662
53.642131
52.88172
52.199725
51.37706
50.573582
49.893849
49.104091
48.30583
47.564664
46.775018
46.005459
45.24325
44.455866
43.700905
42.945067
42.146303
41.387061
40.677098
39.914767
39.159076
38.412062
37.610374
36.904618
36.175817
35.339831
34.623504
33.889621
33.104263
32.416516
31.660902
30.879687
30.217
29.484414
28.665112
27.957204
27.271166
26.535727
25.779962
25.018509
24.360645
23.671747
22.902656
22.223299
21.51354
20.759642
20.080992
19.406816
18.71644
18.025144
17.300455
16.602994
15.948684
15.200606
14.429571
13.861591
13.246025
12.46373
11.771206
11.210642
10.564977
9.8516975
9.2295803
8.6378406
7.8901191
7.1878297
6.6514596
5.8042719
4.9593687
4.508345
4.0127375
3.6391181
3.3436401
3.1086741
2.8715322
2.5936054
2.2891523
1.9903236
1.6890743
1.3875305
1.1110358
0.82644955
0.51365355
0.226393
-0.064203021
-0.12999823
-0.13992217
-0.13896592
-0.14231676
-0.14672427
-0.15182283
-0.15830625
-0.16734951
-0.17844136
-0.19073287
-0.20317829
-0.21574232
-0.22810467
-0.23754959
-0.24253293
-0.24400061
-0.23476915
-0.24172212
-0.25142103
-0.24029145
-0.22455657
-0.21291739
-0.20257911
-0.19482244
-0.19180541
-0.19099859
-0.19114457
-0.1932554
-0.19664747
-0.20059509
-0.2048394
-0.20878989
-0.21230602
-0.21420674
-0.21436386
-0.21277515
-0.20722075
-0.19895288
-0.19002244
-0.18526933
-0.19233292
-0.15572849
-0.1144581
-0.049217643
-0.25132992
-0.39437808
13.960509
52.444017
94.91363
136.57047
177.54366
217.7299
257.59695
295.99724
332.35127
364.74762
392.65871
414.62629
426.96933
113.32996
113.37391
113.42676
113.47621
113.49868
113.4931
113.4573
113.39118
113.29625
113.17471
113.0289
112.86113
112.67355
112.46795
112.24606
112.0086
111.75738
111.49114
111.21287
110.9182
110.61167
110.28742
109.94714
109.59219
109.20996
108.82347
108.39249
107.97057
107.49213
107.02294
106.5038
105.98341
105.42471
104.85533
104.25723
103.64562
103.00441
102.36363
101.67801
101.00261
100.29559
99.580139
98.862483
98.10306
97.375868
96.61969
95.828365
95.083876
94.298748
93.505384
92.737877
91.942137
91.1473
90.361673
89.57774
88.778969
87.995414
87.213958
86.421366
85.644269
84.865711
84.073968
83.307425
82.541467
81.737116
80.981857
80.234322
79.423088
78.686226
77.936902
77.146855
76.410196
75.641794
74.880152
74.127651
73.365496
72.616867
71.844698
71.105332
70.352972
69.575843
68.852452
68.117879
67.34933
66.620463
65.87846
65.122212
64.371104
63.599516
62.885165
62.122617
61.32553
60.61409
59.85907
59.064535
58.313156
57.580914
56.796174
56.010918
55.306635
54.540409
53.745963
52.991116
52.242665
51.4944
50.695864
49.931233
49.194035
48.417076
47.634456
46.879737
46.129075
45.37619
44.596969
43.820003
43.110658
42.325283
41.536457
40.820247
40.036928
39.278298
38.496365
37.714261
36.973337
36.164195
35.396171
34.644913
33.85722
33.085222
32.322498
31.591422
30.859255
30.123103
29.387933
28.592754
27.873675
27.135789
26.292533
25.563943
24.819365
24.057056
23.365225
22.594491
21.871439
21.19853
20.453173
19.670771
18.919981
18.249478
17.594847
16.777635
15.984739
15.334857
14.551863
13.800148
13.2069
12.479111
11.689059
11.061599
10.443127
9.6800488
9.0084353
8.4213981
7.6183417
6.9048743
6.3202182
5.3562236
4.6900438
4.2163599
3.7665742
3.3971982
3.1075732
2.8165298
2.4976864
2.1882734
1.882919
1.5469794
1.2233644
0.90832536
0.56629778
0.23771773
-0.084492348
-0.16247902
-0.17186972
-0.16504538
-0.16102242
-0.1583111
-0.15606553
-0.15503699
-0.15560375
-0.15673742
-0.15792324
-0.16016874
-0.16174843
-0.16118595
-0.1599415
-0.15746139
-0.14866052
-0.1473414
-0.14748585
-0.14983585
-0.15361595
-0.15900464
-0.16696186
-0.17699968
-0.18859368
-0.20148012
-0.21475832
-0.22788374
-0.24104418
-0.2528264
-0.26159679
-0.26606682
-0.2649698
-0.26197163
-0.25899742
-0.2482869
-0.23488146
-0.2230888
-0.21355894
-0.2072372
-0.20411376
-0.20331007
-0.20476456
-0.20775064
-0.21159157
-0.2162809
-0.2216293
-0.22682118
-0.23171017
-0.23595188
-0.23891825
-0.24073059
-0.24043446
-0.23881511
-0.23586536
-0.22835716
-0.2217886
-0.2066012
-0.181688
-0.16610804
-0.16564706
-0.07955249
-0.08466268
-0.74909995
31.160241
84.843318
136.64428
184.90045
230.58564
273.0575
310.67375
342.02431
368.36222
388.24341
398.96478
104.19774
104.24201
104.29548
104.3438
104.36435
104.35538
104.31496
104.24328
104.14225
104.0145
103.86278
103.68974
103.49779
103.28895
103.06497
102.82695
102.57607
102.31219
102.03621
101.74659
101.44352
101.12573
100.78975
100.43982
100.06329
99.67636
99.253258
98.824651
98.354033
97.873206
97.363516
96.821746
96.276423
95.684021
95.089438
94.46666
93.816955
93.166059
92.475529
91.784972
91.076985
90.34338
89.621392
88.861147
88.10931
87.358734
86.56496
85.795711
85.029688
84.21204
83.443612
82.657974
81.836313
81.069787
80.278206
79.463555
78.712495
77.911876
77.116512
76.359938
75.577067
74.787796
74.026334
73.266557
72.458096
71.707975
70.972461
70.16463
69.431467
68.685252
67.909554
67.174839
66.40308
65.664173
64.912977
64.140706
63.402956
62.646563
61.894536
61.139059
60.39264
59.668047
58.927048
58.180353
57.458634
56.703251
55.962865
55.229198
54.44772
53.730823
52.97283
52.193598
51.468485
50.705145
49.938688
49.173293
48.4486
47.679703
46.86856
46.163822