/*--------------------------------*- C++ -*----------------------------------*\
| =========                 |                                                 |
| \\      /  F ield         | OpenFOAM: The Open Source CFD Toolbox           |
|  \\    /   O peration     | Version:  2306                                  |
|   \\  /    A nd           | Website:  www.openfoam.com                      |
|    \\/     M anipulation  |                                                 |
\*---------------------------------------------------------------------------*/
FoamFile
{
    version     2.0;
    format      ascii;
    arch        "LSB;label=32;scalar=64";
    class       surfaceScalarField;
    location    "0.51";
    object      phi_0;
}
// * * * * * * * * * * * * * * * * * * * * * * * * * * * * * * * * * * * * * //

dimensions      [0 3 -1 0 0 0 0];

oriented        oriented;

internalField   nonuniform List<scalar> 
12640
(
1.4926828e-09
-1.4926828e-09
6.0208371e-09
-4.5281542e-09
1.3429691e-08
-7.4088536e-09
2.3634186e-08
-1.0204496e-08
3.6553346e-08
-1.2919159e-08
5.2120281e-08
-1.5566935e-08
7.027565e-08
-1.8155369e-08
9.0950155e-08
-2.0674505e-08
1.1406172e-07
-2.3111562e-08
1.3951519e-07
-2.5453469e-08
1.6720316e-07
-2.7687975e-08
1.9700702e-07
-2.980386e-08
2.2879824e-07
-3.1791216e-08
2.6243929e-07
-3.3641053e-08
2.9778483e-07
-3.5345537e-08
3.3468259e-07
-3.6897764e-08
3.7297412e-07
-3.8291526e-08
4.1249572e-07
-3.9521605e-08
4.530795e-07
-4.0583777e-08
4.9455415e-07
-4.147465e-08
5.3674632e-07
-4.2192172e-08
5.7948034e-07
-4.2734018e-08
6.2258053e-07
-4.3100193e-08
6.6587077e-07
-4.3290237e-08
7.0917685e-07
-4.3306084e-08
7.5232543e-07
-4.3148577e-08
7.9514613e-07
-4.28207e-08
8.3747062e-07
-4.2324488e-08
8.791383e-07
-4.1667684e-08
9.1998991e-07
-4.0851611e-08
9.5987486e-07
-3.9884944e-08
9.986471e-07
-3.8772235e-08
1.0361767e-06
-3.7529585e-08
1.0723522e-06
-3.6175526e-08
1.1070368e-06
-3.4684636e-08
1.1401064e-06
-3.3069509e-08
1.1714506e-06
-3.1344286e-08
1.2009767e-06
-2.9526099e-08
1.228605e-06
-2.7628243e-08
1.2542623e-06
-2.5657329e-08
1.2778865e-06
-2.362422e-08
1.2994292e-06
-2.1542667e-08
1.3188385e-06
-1.9409311e-08
1.3360786e-06
-1.7240075e-08
1.3511038e-06
-1.5025253e-08
1.3639e-06
-1.2796136e-08
1.3744758e-06
-1.0575824e-08
1.3828396e-06
-8.3637633e-09
1.3889868e-06
-6.1472289e-09
1.3929345e-06
-3.9476691e-09
1.3946758e-06
-1.7413922e-09
1.3942222e-06
4.5363469e-10
1.3917835e-06
2.4386975e-09
1.3873358e-06
4.4477183e-09
1.3809304e-06
6.4054113e-09
1.3726208e-06
8.3096258e-09
1.3624776e-06
1.0143112e-08
1.3505704e-06
1.1907217e-08
1.336985e-06
1.3585439e-08
1.3218007e-06
1.5184243e-08
1.3051003e-06
1.6700455e-08
1.2869787e-06
1.8121593e-08
1.2675238e-06
1.9454897e-08
1.2468217e-06
2.0702145e-08
1.2249762e-06
2.1845403e-08
1.2020842e-06
2.2892023e-08
1.1782372e-06
2.3847069e-08
1.153528e-06
2.4709111e-08
1.1280528e-06
2.5475243e-08
1.1019021e-06
2.6150721e-08
1.0751668e-06
2.6735317e-08
1.0479362e-06
2.7230513e-08
1.0202975e-06
2.7638711e-08
9.92335e-07
2.7962537e-08
9.6412598e-07
2.8209013e-08
9.357537e-07
2.8372286e-08
9.0729385e-07
2.8459847e-08
8.788195e-07
2.8474348e-08
8.5038298e-07
2.8436529e-08
2.83176e-08
2.4392974e-09
-3.9319802e-09
9.5606338e-09
-1.1649491e-08
2.1197735e-08
-1.9045955e-08
3.7134763e-08
-2.6141524e-08
5.7222817e-08
-3.3007213e-08
8.1348083e-08
-3.96922e-08
1.0939172e-07
-4.6199007e-08
1.4122138e-07
-5.2504165e-08
1.7668404e-07
-5.8574222e-08
2.1560412e-07
-6.4373546e-08
2.5778442e-07
-6.9868278e-08
3.0300762e-07
-7.5027057e-08
3.5103845e-07
-7.9822048e-08
4.016256e-07
-8.4228199e-08
4.545045e-07
-8.8224445e-08
5.0939822e-07
-9.1791483e-08
5.6601977e-07
-9.4913074e-08
6.2407364e-07
-9.7575475e-08
6.8325843e-07
-9.9768566e-08
7.432671e-07
-1.0148332e-07
8.0379106e-07
-1.0271613e-07
8.6451937e-07
-1.0346232e-07
9.2514247e-07
-1.037233e-07
9.8535218e-07
-1.0349994e-07
1.0448455e-06
-1.0279943e-07
1.1033247e-06
-1.0162774e-07
1.1604983e-06
-9.9994271e-08
1.2160828e-06
-9.7909032e-08
1.2698105e-06
-9.5395376e-08
1.3214197e-06
-9.2460846e-08
1.3706683e-06
-8.9133516e-08
1.4173187e-06
-8.5422675e-08
1.4611555e-06
-8.1366397e-08
1.5019603e-06
-7.6980286e-08
1.5395527e-06
-7.2277034e-08
1.5737768e-06
-6.7293644e-08
1.6044793e-06
-6.2046723e-08
1.6315313e-06
-5.6578112e-08
1.654829e-06
-5.092593e-08
1.6742781e-06
-4.5106459e-08
1.6898056e-06
-3.9151757e-08
1.7013661e-06
-3.3103147e-08
1.7089199e-06
-2.6963038e-08
1.7124754e-06
-2.0795614e-08
1.7119852e-06
-1.4535072e-08
1.7075126e-06
-8.3235466e-09
1.6991706e-06
-2.2337858e-09
1.6868595e-06
3.9472741e-09
1.6706761e-06
1.0036201e-08
1.6507552e-06
1.5973286e-08
1.6272321e-06
2.1781636e-08
1.600231e-06
2.7454803e-08
1.5697411e-06
3.2928544e-08
1.5359854e-06
3.820341e-08
1.499131e-06
4.3259803e-08
1.459338e-06
4.8102658e-08
1.4167776e-06
5.2703476e-08
1.371621e-06
5.7063827e-08
1.3240523e-06
6.1154133e-08
1.2742662e-06
6.4970398e-08
1.2224417e-06
6.8524916e-08
1.1687782e-06
7.1785141e-08
1.1134692e-06
7.4763837e-08
1.0566907e-06
7.7480683e-08
9.986799e-07
7.985621e-08
9.3961138e-07
8.196054e-08
8.796783e-07
8.3780148e-08
8.1907425e-07
8.5313167e-08
7.5797887e-07
8.6570621e-08
6.9657461e-07
8.7554988e-08
6.350382e-07
8.8271731e-08
5.7354178e-07
8.8726932e-08
5.1224626e-07
8.8934227e-08
4.5130743e-07
8.8901369e-08
3.9088692e-07
8.8629533e-08
3.3111397e-07
8.8145227e-08
2.7212069e-07
8.7453127e-08
2.1403194e-07
8.6563111e-08
1.570127e-07
8.5455757e-08
8.4206792e-08
2.3173222e-09
-6.2493025e-09
9.0884144e-09
-1.8420583e-08
2.0178816e-08
-3.0136357e-08
3.5387961e-08
-4.1350669e-08
5.4558222e-08
-5.2177474e-08
7.7548774e-08
-6.2682753e-08
1.0421063e-07
-7.2860867e-08
1.343808e-07
-8.2674327e-08
1.6787604e-07
-9.2069469e-08
2.0449089e-07
-1.0098839e-07
2.4399782e-07
-1.0937521e-07
2.8614798e-07
-1.1717721e-07
3.3067352e-07
-1.2434759e-07
3.7728933e-07
-1.3084402e-07
4.2569656e-07
-1.3663167e-07
4.7558249e-07
-1.4167741e-07
5.2662449e-07
-1.4595507e-07
5.7849141e-07
-1.494424e-07
6.308472e-07
-1.5212435e-07
6.8334977e-07
-1.539859e-07
7.356575e-07
-1.5502386e-07
7.8742926e-07
-1.5523409e-07
8.3832458e-07
-1.5461862e-07
8.8800772e-07
-1.5318308e-07
9.3615211e-07
-1.5094382e-07
9.8243736e-07
-1.4791298e-07
1.0265543e-06
-1.4411126e-07
1.0682e-06
-1.3955467e-07
1.1070978e-06
-1.3429318e-07
1.1429716e-06
-1.2833464e-07
1.175576e-06
-1.2173793e-07
1.2046659e-06
-1.1451255e-07
1.2300359e-06
-1.0673639e-07
1.2514802e-06
-9.8424613e-08
1.2688363e-06
-8.963315e-08
1.2819512e-06
-8.0408583e-08
1.2906925e-06
-7.0787955e-08
1.2949612e-06
-6.0846837e-08
1.2946786e-06
-5.0643329e-08
1.2897833e-06
-4.0211125e-08
1.2802336e-06
-2.9602055e-08
1.266038e-06
-1.8907621e-08
1.2472526e-06
-8.1776394e-09
1.2238623e-06
2.5947544e-09
1.1957415e-06
1.3585665e-08
1.1630972e-06
2.4320833e-08
1.1259647e-06
3.4898704e-08
1.0845967e-06
4.5315281e-08
1.0391109e-06
5.5522021e-08
9.8961837e-07
6.5465781e-08
9.3627354e-07
7.5126457e-08
8.792651e-07
8.4463242e-08
8.1875933e-07
9.3434313e-08
7.5500969e-07
1.0195305e-07
6.8819767e-07
1.1007183e-07
6.1855748e-07
1.1774285e-07
5.4631469e-07
1.2494627e-07
4.7172423e-07
1.3165429e-07
3.9501091e-07
1.3786745e-07
3.1642923e-07
1.4355207e-07
2.3625075e-07
1.487034e-07
1.547018e-07
1.533341e-07
7.2043752e-08
1.5742188e-07
-1.1415356e-08
1.6093979e-07
-9.5516135e-08
1.6395699e-07
-1.800011e-07
1.6644551e-07
-2.6462119e-07
1.6840023e-07
-3.4913999e-07
1.6983197e-07
-4.3332886e-07
1.7075949e-07
-5.1696675e-07
1.7119289e-07
-5.9984204e-07
1.7114701e-07
-6.817525e-07
1.706374e-07
-7.625035e-07
1.6968523e-07
-8.4191077e-07
1.6830864e-07
-9.1980377e-07
1.6652253e-07
-9.9601587e-07
1.6435732e-07
-1.0703932e-06
1.6183045e-07
-1.1427928e-06
1.5896271e-07
-1.2131038e-06
1.5576682e-07
1.5228902e-07
1.853212e-09
-8.1025145e-09
7.3732077e-09
-2.3940578e-08
1.6482106e-08
-3.9245255e-08
2.9056936e-08
-5.3925499e-08
4.4961188e-08
-6.8081725e-08
6.4042865e-08
-8.176443e-08
8.6137167e-08
-9.4955168e-08
1.1106486e-07
-1.0760202e-07
1.3862906e-07
-1.1963367e-07
1.6861439e-07
-1.3097372e-07
2.0078592e-07
-1.4154674e-07
2.3488989e-07
-1.5128118e-07
2.7065537e-07
-1.6011307e-07
3.0779508e-07
-1.6798372e-07
3.4600874e-07
-1.7484534e-07
3.8498428e-07
-1.8065295e-07
4.2439999e-07
-1.8537078e-07
4.6392557e-07
-1.8896798e-07
5.0322778e-07
-1.9142656e-07
5.4197238e-07
-1.9273049e-07
5.7982146e-07
-1.9287295e-07
6.1643802e-07
-1.9185064e-07
6.5149437e-07
-1.8967497e-07
6.8466199e-07
-1.863507e-07
7.1562475e-07
-1.8190658e-07
7.4408425e-07
-1.7637249e-07
7.6973934e-07
-1.6976635e-07
7.9231132e-07
-1.6212664e-07
8.1153775e-07
-1.5351962e-07
8.2715917e-07
-1.4395606e-07
8.3896034e-07
-1.3353909e-07
8.467289e-07
-1.222811e-07
8.5027627e-07
-1.1028377e-07
8.4942874e-07
-9.7577081e-08
8.4405924e-07
-8.4263647e-08
8.3402701e-07
-7.0376353e-08
8.1925439e-07
-5.6015343e-08
7.9969833e-07
-4.129077e-08
7.7528069e-07
-2.6225692e-08
7.4599389e-07
-1.0924322e-08
7.1178936e-07
4.6024766e-09
6.7272736e-07
2.0154383e-08
6.288572e-07
3.5692515e-08
5.802263e-07
5.1225657e-08
5.2706176e-07
6.6750199e-08
4.6941283e-07
8.1969767e-08
4.0737627e-07
9.6935267e-08
3.41151e-07
1.1154055e-07
2.7090585e-07
1.2576716e-07
1.9679955e-07
1.3957208e-07
1.1908022e-07
1.5284579e-07
3.7992544e-08
1.6555091e-07
-4.6220973e-08
1.7764783e-07
-1.3340541e-07
1.8913749e-07
-2.2327158e-07
1.99938e-07
-3.1554609e-07
2.1001735e-07
-4.0995149e-07
2.1935167e-07
-5.0621359e-07
2.2791639e-07
-6.0404325e-07
2.3569712e-07
-7.0316284e-07
2.4267166e-07
-8.032934e-07
2.4883396e-07
-9.0414124e-07
2.5418193e-07
-1.0054279e-06
2.5870855e-07
-1.1069002e-06
2.6241205e-07
-1.208256e-06
2.6531284e-07
-1.3092295e-06
2.6741906e-07
-1.4095659e-06
2.6873656e-07
-1.5090153e-06
2.692814e-07
-1.6073322e-06
2.6907635e-07
-1.7042824e-06
2.681431e-07
-1.7996418e-06
2.6650642e-07
-1.8931978e-06
2.6419336e-07
-1.984747e-06
2.6123445e-07
-2.0740984e-06
2.5766005e-07
-2.1610766e-06
2.5350074e-07
-2.2455124e-06
2.4879312e-07
-2.3272521e-06
2.4357013e-07
-2.4061549e-06
2.3786547e-07
-2.4821003e-06
2.3171229e-07
2.2515333e-07
1.4330334e-09
-9.535548e-09
5.7766501e-09
-2.8284195e-08
1.3023421e-08
-4.6492026e-08
2.3121617e-08
-6.4023695e-08
3.5961905e-08
-8.0922013e-08
5.1395116e-08
-9.7197641e-08
6.9250643e-08
-1.128107e-07
8.9342415e-08
-1.2769379e-07
1.114668e-07
-1.4175806e-07
1.3540462e-07
-1.5491153e-07
1.6092102e-07
-1.6706315e-07
1.8776218e-07
-1.7812233e-07
2.1566017e-07
-1.8801107e-07
2.4433836e-07
-1.966619e-07
2.7349809e-07
-2.0400507e-07
3.0283591e-07
-2.0999077e-07
3.3203878e-07
-2.1457365e-07
3.6079576e-07
-2.1772496e-07
3.8877116e-07
-2.1940196e-07
4.1564955e-07
-2.1960888e-07
4.4110279e-07
-2.1832619e-07
4.6481778e-07
-2.1556564e-07
4.8646815e-07
-2.1132533e-07
5.0576477e-07
-2.0564732e-07
5.2238768e-07
-1.9852949e-07
5.3606697e-07
-1.9005178e-07
5.4650391e-07
-1.8020328e-07
5.5347377e-07
-1.6909651e-07
5.5670745e-07
-1.5675329e-07
5.5601196e-07
-1.4326057e-07
5.5116154e-07
-1.2868868e-07
5.4194331e-07
-1.1306287e-07
5.2823509e-07
-9.6575547e-08
5.0989186e-07
-7.9233844e-08
4.868129e-07
-6.1184686e-08
4.5885583e-07
-4.2419289e-08
4.2603467e-07
-2.3194186e-08
3.8823093e-07
-3.4870282e-09
3.4549526e-07
1.6509982e-08
2.977571e-07
3.6813839e-08
2.4517493e-07
5.7184651e-08
1.8772039e-07
7.7608912e-08
1.2548762e-07
9.7925292e-08
5.8562468e-08
1.1815081e-07
-1.2728625e-08
1.3804129e-07
-8.8449019e-08
1.5769016e-07
-1.6839795e-07
1.768842e-07
-2.5239575e-07
1.9553834e-07
-3.4021959e-07
2.1359101e-07
-4.3162299e-07
2.3097548e-07
-5.2638444e-07
2.4760724e-07
-6.2425901e-07
2.6342548e-07
-7.249886e-07
2.7837743e-07
-8.2827044e-07
2.9241932e-07
-9.3383095e-07
3.0549851e-07
-1.041384e-06
3.1757042e-07
-1.1506347e-06
3.2860236e-07
-1.2612846e-06
3.3856625e-07
-1.37303e-06
3.4744257e-07
-1.4855716e-06
3.5521319e-07
-1.5986076e-06
3.6187003e-07
-1.7118364e-06
3.6741073e-07
-1.8249634e-06
3.7183547e-07
-1.9377023e-06
3.7515102e-07
-2.0497628e-06
3.7737331e-07
-2.1608637e-06
3.7851996e-07
-2.2707371e-06
3.7860996e-07
-2.3791242e-06
3.776685e-07
-2.485774e-06
3.7572618e-07
-2.5904471e-06
3.7281621e-07
-2.6929157e-06
3.6897498e-07
-2.7929642e-06
3.6424183e-07
-2.8903887e-06
3.58659e-07
-2.9849988e-06
3.5227015e-07
-3.0766185e-06
3.4512045e-07
-3.1650831e-06
3.3725769e-07
-3.2502424e-06
3.2872944e-07
-3.3319607e-06
3.1958381e-07
-3.4101179e-06
3.0986949e-07
2.996378e-07
1.1658512e-09
-1.0701399e-08
4.7371023e-09
-3.1855446e-08
1.0743767e-08
-5.249869e-08
1.9176301e-08
-7.2456229e-08
2.9948709e-08
-9.1694422e-08
4.2921616e-08
-1.1017055e-07
5.7927463e-08
-1.2781654e-07
7.4776803e-08
-1.4454313e-07
9.3264302e-08
-1.6024556e-07
1.1316795e-07
-1.7481518e-07
1.3425054e-07
-1.8814574e-07
1.5626373e-07
-2.0013552e-07
1.7894083e-07
-2.1068816e-07
2.0200007e-07
-2.1972115e-07
2.2515519e-07
-2.271602e-07
2.4810567e-07
-2.3294125e-07
2.705444e-07
-2.3701238e-07
2.9215468e-07
-2.3933524e-07
3.1264073e-07
-2.3988801e-07
3.3166527e-07
-2.3863342e-07
3.4892673e-07
-2.3558765e-07
3.6410846e-07
-2.3074737e-07
3.7691144e-07
-2.2412831e-07
3.8702716e-07
-2.1576305e-07
3.9418872e-07
-2.0569104e-07
3.9809002e-07
-1.9395308e-07
3.9852057e-07
-1.8063384e-07
3.9522859e-07
-1.6580453e-07
3.879373e-07
-1.4946199e-07
3.7646298e-07
-1.3178625e-07
3.6062134e-07
-1.1284704e-07
3.4028679e-07
-9.2728331e-08
3.1528291e-07
-7.1571663e-08
2.8541809e-07
-4.9369028e-08
2.5071482e-07
-2.6481419e-08
2.1102516e-07
-2.7296291e-09
1.6633687e-07
2.1494111e-08
1.1664066e-07
4.6209179e-08
6.1929629e-08
7.1221011e-08
2.3405197e-09
9.6402948e-08
-6.2182833e-08
1.21708e-07
-1.3157065e-07
1.4699673e-07
-2.0573569e-07
1.7209032e-07
-2.8449429e-07
1.9690941e-07
-3.677596e-07
2.213066e-07
-4.5527986e-07
2.4521042e-07
-5.4688312e-07
2.6848746e-07
-6.4237182e-07
2.9102705e-07
-7.4151853e-07
3.1273772e-07
-8.4407433e-07
3.3353128e-07
-9.4978616e-07
3.5331907e-07
-1.0583863e-06
3.7202565e-07
-1.1695931e-06
3.8958422e-07
-1.2831087e-06
4.0593493e-07
-1.3986329e-06
4.2102266e-07
-1.5158616e-06
4.347991e-07
-1.6344847e-06
4.4722555e-07
-1.7541897e-06
4.5827123e-07
-1.8746609e-06
4.679137e-07
-1.9955846e-06
4.761369e-07
-2.1166481e-06
4.8293359e-07
-2.237541e-06
4.8830362e-07
-2.3579585e-06
4.9225301e-07
-2.4776025e-06
4.9479494e-07
-2.596179e-06
4.9594984e-07
-2.7134026e-06
4.9574354e-07
-2.8289987e-06
4.9420609e-07
-2.9427033e-06
4.9137315e-07
-3.054263e-06
4.8728581e-07
-3.1634359e-06
4.8198916e-07
-3.2699931e-06
4.7553217e-07
-3.3737185e-06
4.6796723e-07
-3.4744093e-06
4.5934976e-07
-3.5718765e-06
4.4973741e-07
-3.6659459e-06
4.3918978e-07
-3.7564565e-06
4.2776833e-07
-3.8432624e-06
4.1553528e-07
-3.926232e-06
4.0255346e-07
-4.0052488e-06
3.8888627e-07
3.745977e-07
1.0435297e-09
-1.1744929e-08
4.2410441e-09
-3.5052961e-08
9.6296277e-09
-5.7887274e-08
1.7212637e-08
-8.0039238e-08
2.6916606e-08
-1.0139839e-07
3.8613374e-08
-1.2186732e-07
5.2140517e-08
-1.4134369e-07
6.7308236e-08
-1.5971085e-07
8.3911195e-08
-1.7684852e-07
1.0172552e-07
-1.9262951e-07
1.205114e-07
-2.0693162e-07
1.4001399e-07
-2.1963811e-07
1.5996594e-07
-2.3064011e-07
1.8008837e-07
-2.3984357e-07
2.0008819e-07
-2.4716002e-07
2.1966857e-07
-2.5252164e-07
2.3852918e-07
-2.5587299e-07
2.5634399e-07
-2.5715005e-07
2.7280548e-07
-2.5634949e-07
2.8761568e-07
-2.5344363e-07
3.0043655e-07
-2.4840851e-07
3.1097759e-07
-2.4128841e-07
3.1893385e-07
-2.3208456e-07
3.2400293e-07
-2.2083213e-07
3.2592591e-07
-2.0761402e-07
3.2440486e-07
-1.9243203e-07
3.1921002e-07
-1.7543899e-07
3.1005892e-07
-1.5665344e-07
2.9682869e-07
-1.3623176e-07
2.7921819e-07
-1.1417576e-07
2.5708955e-07
-9.0718385e-08
2.3031361e-07
-6.5952399e-08
1.986853e-07
-3.9943348e-08
1.6218134e-07
-1.2865067e-08
1.2069621e-07
1.5003714e-08
7.4120356e-08
4.3846215e-08
2.2447493e-08
7.3166975e-08
-3.4231858e-08
1.0288853e-07
-9.6019686e-08
1.3300884e-07
-1.6288527e-07
1.6326854e-07
-2.3472112e-07
1.9354385e-07
-3.1141108e-07
2.2368669e-07
-3.9285611e-07
2.5353536e-07
-4.7890245e-07
2.8295575e-07
-5.6939821e-07
3.1180235e-07
-6.6413853e-07
3.3995074e-07
-7.6291817e-07
3.672671e-07
-8.6551728e-07
3.9362616e-07
-9.7169418e-07
4.1891461e-07
-1.0811896e-06
4.4302671e-07
-1.1937336e-06
4.6586303e-07
-1.3090426e-06
4.8733472e-07
-1.426821e-06
5.0736256e-07
-1.5467622e-06
5.2587618e-07
-1.6685534e-06
5.4281385e-07
-1.7918771e-06
5.5812273e-07
-1.9164115e-06
5.7175998e-07
-2.0418327e-06
5.8369242e-07
-2.1678154e-06
5.9389646e-07
-2.2940361e-06
6.0235751e-07
-2.4201729e-06
6.090704e-07
-2.5459079e-06
6.1403861e-07
-2.6709287e-06
6.1727383e-07
-2.7949296e-06
6.187959e-07
-2.9176122e-06
6.1863244e-07
-3.0386868e-06
6.1681814e-07
-3.1578744e-06
6.1339368e-07
-3.2749073e-06
6.0840601e-07
-3.3895294e-06
6.0190788e-07
-3.5014972e-06
5.9395705e-07
-3.6105808e-06
5.846157e-07
-3.7165636e-06
5.7395002e-07
-3.8192433e-06
5.6202951e-07
-3.9184323e-06
5.4892642e-07
-4.0139577e-06
5.3471518e-07
-4.1056614e-06
5.1947198e-07
-4.1934002e-06
5.0327408e-07
-4.2770461e-06
4.861994e-07
-4.356486e-06
4.6832617e-07
4.4973254e-07
1.0219907e-09
-1.276692e-08
4.1350287e-09
-3.8165998e-08
9.3651187e-09
-6.3117364e-08
1.6709208e-08
-8.7383328e-08
2.6096647e-08
-1.1078583e-07
3.740607e-08
-1.3317674e-07
5.0478176e-08
-1.5441579e-07
6.5126638e-08
-1.7435931e-07
8.1142682e-08
-1.9286457e-07
9.8299827e-08
-2.0978665e-07
1.1635305e-07
-2.2498485e-07
1.350436e-07
-2.3832866e-07
1.5409582e-07
-2.4969233e-07
1.7322761e-07
-2.5897537e-07
1.9214247e-07
-2.6607488e-07
2.1053192e-07
-2.7091108e-07
2.2808008e-07
-2.7342115e-07
2.4448834e-07
-2.7355831e-07
2.5942274e-07
-2.7128388e-07
2.7255567e-07
-2.6657656e-07
2.8360494e-07
-2.5945779e-07
2.9222827e-07
-2.4991174e-07
2.9811763e-07
-2.3797393e-07
3.0102909e-07
-2.2374359e-07
3.0060202e-07
-2.0718695e-07
2.9663145e-07
-1.8846147e-07
2.8882774e-07
-1.6763527e-07
2.7696731e-07
-1.4479302e-07
2.6079883e-07
-1.2006328e-07
2.4019677e-07
-9.3573688e-08
2.1491472e-07
-6.5436336e-08
1.8481913e-07
-3.5856817e-08
1.4978436e-07
-4.9085827e-09
1.0972743e-07
2.7191869e-08
6.4447456e-08
6.0283685e-08
1.4101359e-08
9.4192316e-08
-4.1354371e-08
1.286227e-07
-1.0211353e-07
1.6364768e-07
-1.6804685e-07
1.9894216e-07
-2.391107e-07
2.343324e-07
-3.152181e-07
2.6965124e-07
-3.9625717e-07
3.0472576e-07
-4.8210281e-07
3.39381e-07
-5.7259892e-07
3.7345186e-07
-6.6757184e-07
4.0677528e-07
-7.6681893e-07
4.3919783e-07
-8.7012158e-07
4.7056976e-07
-9.7724457e-07
5.0074915e-07
-1.0879343e-06
5.2960432e-07
-1.2019208e-06
5.5701318e-07
-1.3189208e-06
5.828631e-07
-1.4386385e-06
6.0705244e-07
-1.5607666e-06
6.2949064e-07
-1.6849884e-06
6.5009793e-07
-1.81098e-06
6.6880551e-07
-1.9384129e-06
6.8555562e-07
-2.0669548e-06
7.0030183e-07
-2.1962714e-06
7.1300906e-07
-2.3260284e-06
7.2365343e-07
-2.4558927e-06
7.3222187e-07
-2.5855344e-06
7.387121e-07
-2.7146279e-06
7.4313203e-07
-2.8428534e-06
7.4549936e-07
-2.9698987e-06
7.4584122e-07
-3.0954598e-06
7.4419359e-07
-3.2192424e-06
7.4060072e-07
-3.3409631e-06
7.3511431e-07
-3.4603502e-06
7.2779318e-07
-3.5771449e-06
7.1870259e-07
-3.6911015e-06
7.0791363e-07
-3.8019883e-06
6.9550244e-07
-3.9095879e-06
6.8154962e-07
-4.0136979e-06
6.6613951e-07
-4.114131e-06
6.4935953e-07
-4.2107153e-06
6.3129949e-07
-4.3032944e-06
6.1205105e-07
-4.3917272e-06
5.9170697e-07
-4.4758885e-06
5.7036064e-07
-4.5556679e-06
5.4810555e-07
5.2503471e-07
1.060494e-09
-1.3827414e-08
4.2691579e-09
-4.1374663e-08
9.6344145e-09
-6.848262e-08
1.713765e-08
-9.4886563e-08
2.670494e-08
-1.2035312e-07
3.8214503e-08
-1.446863e-07
5.1509379e-08
-1.6771067e-07
6.6403076e-08
-1.8925301e-07
8.2683782e-08
-2.0914527e-07
1.0011919e-07
-2.2722206e-07
1.18459e-07
-2.4332466e-07
1.3743474e-07
-2.573044e-07
1.567703e-07
-2.6902789e-07
1.7616437e-07
-2.7836944e-07
1.9531386e-07
-2.8522436e-07
2.1390159e-07
-2.8949882e-07
2.3161093e-07
-2.9113048e-07
2.4810901e-07
-2.900564e-07
2.6307685e-07
-2.8625172e-07
2.7617696e-07
-2.7967668e-07
2.8708064e-07
-2.7036147e-07
2.9548006e-07
-2.5831116e-07
3.0107642e-07
-2.4357029e-07
3.0351152e-07
-2.2617868e-07
3.0256796e-07
-2.0624339e-07
2.9794113e-07
-1.8383464e-07
2.8934512e-07
-1.5903927e-07
2.7656431e-07
-1.3201221e-07
2.5933191e-07
-1.0283088e-07
2.3751346e-07
-7.1755233e-08
2.1090389e-07
-3.882677e-08
1.7931707e-07
-4.2699928e-09
1.4270246e-07
3.1706029e-08
1.0086879e-07
6.9025541e-08
5.3800609e-08
1.0735186e-07
1.4619256e-09
1.46531e-07
-5.6317684e-08
1.8640231e-07
-1.1940892e-07
2.2673892e-07
-1.8779268e-07
2.6732592e-07
-2.6141644e-07
3.0795616e-07
-3.4019352e-07
3.4842832e-07
-4.2400976e-07
3.8854199e-07
-5.1272809e-07
4.2809934e-07
-6.0618534e-07
4.669091e-07
-7.0419595e-07
5.0478589e-07
-8.0655065e-07
5.4155252e-07
-9.1302043e-07
5.7703954e-07
-1.0233581e-06
6.1108678e-07
-1.1372985e-06
6.4354481e-07
-1.2545608e-06
6.7427539e-07
-1.3748496e-06
7.0315189e-07
-1.4978572e-06
7.3006006e-07
-1.6232649e-06
7.5489832e-07
-1.7507448e-06
7.775779e-07
-1.8799623e-06
7.9802298e-07
-2.0105774e-06
8.1617076e-07
-2.1422472e-06
8.3197159e-07
-2.274627e-06
8.4538885e-07
-2.4073724e-06
8.5639883e-07
-2.5401409e-06
8.6499044e-07
-2.6725937e-06
8.7116484e-07
-2.8043967e-06
8.7493502e-07
-2.9352226e-06
8.7632524e-07
-3.0647519e-06
8.7537054e-07
-3.1926744e-06
8.7211609e-07
-3.3186902e-06
8.6661647e-07
-3.4425108e-06
8.5893496e-07
-3.5638605e-06
8.4914286e-07
-3.6824767e-06
8.3731877e-07
-3.7981108e-06
8.2354776e-07
-3.910529e-06
8.0792064e-07
-4.0195126e-06
7.9053317e-07
-4.1248582e-06
7.714852e-07
-4.2263787e-06
7.5087998e-07
-4.3239025e-06
7.2882329e-07
-4.4172743e-06
7.0542291e-07
-4.506355e-06
6.8078761e-07
-4.5910211e-06
6.5502677e-07
-4.6711652e-06
6.282496e-07
6.0056452e-07
1.1320734e-09
-1.4959487e-08
4.5404123e-09
-4.4783001e-08
1.0216076e-08
-7.4158284e-08
1.8123259e-08
-1.0279375e-07
2.8179314e-08
-1.3040918e-07
4.0260536e-08
-1.5676752e-07
5.4207202e-08
-1.8165734e-07
6.9829313e-08
-2.0487512e-07
8.6910521e-08
-2.2622648e-07
1.0521179e-07
-2.4552332e-07
1.2447556e-07
-2.6258843e-07
1.4442344e-07
-2.7725229e-07
1.647625e-07
-2.8936694e-07
1.8518695e-07
-2.987939e-07
2.0537544e-07
-3.0541284e-07
2.250113e-07
-3.0913468e-07
2.4374582e-07
-3.0986501e-07
2.6125243e-07
-3.0756301e-07
2.7717461e-07
-3.021739e-07
2.911966e-07
-2.9369867e-07
3.0295725e-07
-2.8212212e-07
3.1213633e-07
-2.6749023e-07
3.1840683e-07
-2.4984079e-07
3.2145878e-07
-2.2923063e-07
3.2097765e-07
-2.0576226e-07
3.1668159e-07
-1.7953858e-07
3.0831615e-07
-1.5067383e-07
2.9559248e-07
-1.1928854e-07
2.7836163e-07
-8.5600028e-08
2.5633714e-07
-4.9730742e-08
2.2935273e-07
-1.1842357e-08
1.9726602e-07
2.7816712e-08
1.5989959e-07
6.9072456e-08
1.1728714e-07
1.1163799e-07
6.9162098e-08
1.5547691e-07
1.5626347e-08
2.0006675e-07
-4.3416905e-08
2.4544556e-07
-1.0799315e-07
2.9131517e-07
-1.780196e-07
3.3735237e-07
-2.5343256e-07
3.8336912e-07
-3.3414082e-07
4.2913658e-07
-4.200247e-07
4.7442587e-07
-5.1093842e-07
5.1901306e-07
-6.0671046e-07
5.6268115e-07
-7.0714539e-07
6.0522082e-07
-8.1202471e-07
6.4643184e-07
-9.2110894e-07
6.8612378e-07
-1.0341393e-06
7.2411713e-07
-1.150839e-06
7.602445e-07
-1.2709149e-06
7.9435132e-07
-1.3940595e-06
8.2629653e-07
-1.5199526e-06
8.5595317e-07
-1.6482631e-06
8.8320881e-07
-1.778651e-06
9.0796576e-07
-1.9107693e-06
9.3014129e-07
-2.0442663e-06
9.496677e-07
-2.178787e-06
9.6649231e-07
-2.3139755e-06
9.8057734e-07
-2.4494763e-06
9.9189971e-07
-2.5849367e-06
1.0004507e-06
-2.7200075e-06
1.0062357e-06
-2.8543456e-06
1.0092731e-06
-2.987615e-06
1.0095946e-06
-3.1194883e-06
1.0072438e-06
-3.249648e-06
1.0022758e-06
-3.3777877e-06
9.947562e-07
-3.5036134e-06
9.8476067e-07
-3.6268443e-06
9.7237376e-07
-3.7472137e-06
9.5768814e-07
-3.8644696e-06
9.4080367e-07
-3.9783756e-06
9.2182663e-07
-4.088711e-06
9.0086864e-07
-4.1952717e-06
8.7804584e-07
-4.2978697e-06
8.5347801e-07
-4.3963341e-06
8.2728765e-07
-4.4905104e-06
7.9959922e-07
-4.580261e-06
7.7053819e-07
-4.6654647e-06
7.4023048e-07
-4.7460166e-06
7.0880149e-07
6.7637564e-07
1.2221279e-09
-1.6181615e-08
4.8907653e-09
-4.8451639e-08
1.0982625e-08
-8.0250143e-08
1.9446828e-08
-1.1125795e-07
3.0190593e-08
-1.4115294e-07
4.3083974e-08
-1.696609e-07
5.7960773e-08
-1.9653413e-07
7.4625666e-08
-2.2154001e-07
9.285688e-08
-2.4445769e-07
1.124039e-07
-2.6507035e-07
1.33001e-07
-2.8318552e-07
1.5435662e-07
-2.9860791e-07
1.7616482e-07
-3.1117515e-07
1.981061e-07
-3.2073517e-07
2.198493e-07
-3.2715605e-07
2.4104847e-07
-3.3033384e-07
2.6136122e-07
-3.3017776e-07
2.8042448e-07
-3.2662627e-07
2.9788643e-07
-3.1963585e-07
3.1338465e-07
-3.0919689e-07
3.2657205e-07
-2.9530952e-07
3.3710406e-07
-2.7802224e-07
3.446308e-07
-2.5736754e-07
3.4884046e-07
-2.3344028e-07
3.4940956e-07
-2.0633136e-07
3.4604189e-07
-1.7617092e-07
3.3844681e-07
-1.4307874e-07
3.2638591e-07
-1.0722764e-07
3.0960639e-07
-6.8820506e-08
2.8787841e-07
-2.8002754e-08
2.6101675e-07
1.5019304e-08
2.2888463e-07
5.9948825e-08
1.9127112e-07
1.0668597e-07
1.4817323e-07
1.5473588e-07
9.9562228e-08
2.0408792e-07
4.518085e-08
2.5444812e-07
-1.4806257e-08
3.0543267e-07
-8.0573271e-08
3.5708218e-07
-1.519392e-07
4.0871829e-07
-2.288649e-07
4.6029483e-07
-3.1125558e-07
5.1152726e-07
-3.9898421e-07
5.621545e-07
-4.9189613e-07
6.1192498e-07
-5.8981044e-07
6.6059545e-07
-6.9252145e-07
7.0793183e-07
-7.9979998e-07
7.5371037e-07
-9.1139503e-07
7.9771882e-07
-1.0270354e-06
8.3975755e-07
-1.1464316e-06
8.7964065e-07
-1.2692772e-06
9.171969e-07
-1.3952511e-06
9.5227043e-07
-1.5240193e-06
9.8472145e-07
-1.6552371e-06
1.0144266e-06
-1.7885507e-06
1.0412794e-06
-1.9235996e-06
1.0651902e-06
-2.0600186e-06
1.0860867e-06
-2.1974397e-06
1.1039134e-06
-2.3354941e-06
1.1186317e-06
-2.4738141e-06
1.1302198e-06
-2.6120352e-06
1.1386718e-06
-2.7497972e-06
1.1439977e-06
-2.8867465e-06
1.1462224e-06
-3.0225373e-06
1.1453854e-06
-3.1568332e-06
1.1415398e-06
-3.2893088e-06
1.1347513e-06
-3.4196504e-06
1.1250978e-06
-3.5475575e-06
1.1126678e-06
-3.6727437e-06
1.09756e-06
-3.7949376e-06
1.0798821e-06
-3.9138835e-06
1.0597496e-06
-4.029342e-06
1.0372851e-06
-4.1410903e-06
1.012617e-06
-4.2489229e-06
9.8587844e-07
-4.3526515e-06
9.5720665e-07
-4.4521055e-06
9.2674156e-07
-4.5471313e-06
8.9462505e-07
-4.6375931e-06
8.6099999e-07
-4.723372e-06
8.2600939e-07
-4.8043661e-06
7.8979558e-07
7.5249939e-07
1.324203e-09
-1.7505818e-08
5.293362e-09
-5.2420798e-08
1.1873553e-08
-8.6830335e-08
2.1001007e-08
-1.203854e-07
3.2572501e-08
-1.5272444e-07
4.6448893e-08
-1.835373e-07
6.2456729e-08
-2.1254197e-07
8.0392922e-08
-2.394762e-07
1.0002225e-07
-2.6408703e-07
1.2108937e-07
-2.8613746e-07
1.4331021e-07
-3.0540637e-07
1.6638348e-07
-3.2168118e-07
1.8998829e-07
-3.3477995e-07
2.137874e-07
-3.4453429e-07
2.3743425e-07
-3.5080289e-07
2.6056353e-07
-3.5346313e-07
2.8281477e-07
-3.5242899e-07
3.0380876e-07
-3.4762026e-07
3.2317171e-07
-3.389988e-07
3.4053558e-07
-3.2656076e-07
3.5552139e-07
-3.1029533e-07
3.6776595e-07
-2.9026679e-07
3.7691877e-07
-2.6652036e-07
3.8264667e-07
-2.3916818e-07
3.8459431e-07
-2.08279e-07
3.8245524e-07
-1.7403185e-07
3.759626e-07
-1.365861e-07
3.648207e-07
-9.6085743e-08
3.4876328e-07
-5.2763077e-08
3.275775e-07
-6.8169863e-09
3.0111804e-07
4.147877e-08
2.6910185e-07
9.1965017e-08
2.3154232e-07
1.4424549e-07
1.8821057e-07
1.9806763e-07
1.3898341e-07
2.5331508e-07
8.392407e-08
3.0950746e-07
2.2891209e-08
3.6646554e-07
-4.3773291e-08
4.2374668e-07
-1.1640488e-07
4.8134989e-07
-1.9482228e-07
5.3871222e-07
-2.7890315e-07
5.9560813e-07
-3.6850814e-07
6.5175949e-07
-4.6347212e-07
7.0688896e-07
-5.636036e-07
7.6072693e-07
-6.6868554e-07
8.1301377e-07
-7.7847666e-07
8.6350149e-07
-8.92713e-07
9.1195516e-07
-1.0111097e-06
9.5815425e-07
-1.1333628e-06
1.0018938e-06
-1.2591513e-06
1.0429853e-06
-1.3881388e-06
1.081258e-06
-1.5199761e-06
1.1165587e-06
-1.6543029e-06
1.1487534e-06
-1.7907501e-06
1.1777265e-06
-1.9289419e-06
1.203382e-06
-2.0684981e-06
1.2256429e-06
-2.209036e-06
1.2444513e-06
-2.3501725e-06
1.2597683e-06
-2.4915263e-06
1.2715736e-06
-2.6327195e-06
1.279865e-06
-2.7733797e-06
1.2846579e-06
-2.9131416e-06
1.2859843e-06
-3.0516485e-06
1.2838924e-06
-3.1885542e-06
1.2784455e-06
-3.323524e-06
1.2697211e-06
-3.4562362e-06
1.25781e-06
-3.5863832e-06
1.2428148e-06
-3.7136726e-06
1.2248493e-06
-3.8378277e-06
1.2040371e-06
-3.9585886e-06
1.1805105e-06
-4.0757127e-06
1.1544092e-06
-4.1889751e-06
1.1258793e-06
-4.2981688e-06
1.0950722e-06
-4.4031053e-06
1.0621431e-06
-4.5036142e-06
1.0272504e-06
-4.5995433e-06
9.9055422e-07
-4.6907589e-06
9.5221553e-07
-4.7771447e-06
9.123952e-07
-4.8586022e-06
8.7125308e-07
8.289471e-07
1.4363801e-09
-1.8942198e-08
5.7386531e-09
-5.6723071e-08
1.2865311e-08
-9.3956993e-08
2.2742225e-08
-1.3026232e-07
3.5255298e-08
-1.6523751e-07
5.0255013e-08
-1.9853701e-07
6.7558594e-08
-2.2984555e-07
8.6951302e-08
-2.5886891e-07
1.0818921e-07
-2.8532493e-07
1.3100065e-07
-3.089489e-07
1.5508912e-07
-3.2949484e-07
1.8013618e-07
-3.4672824e-07
2.058041e-07
-3.6044786e-07
2.3174044e-07
-3.7047063e-07
2.57571e-07
-3.7663346e-07
2.8291872e-07
-3.7881085e-07
3.0739359e-07
-3.7690387e-07
3.3061072e-07
-3.7083739e-07
3.521701e-07
-3.6055818e-07
3.7167075e-07
-3.4606141e-07
3.8873962e-07
-3.273642e-07
4.0297308e-07
-3.0450025e-07
4.1401405e-07
-2.7756134e-07
4.2147876e-07
-2.4663288e-07
4.2505271e-07
-2.1185296e-07
4.2438766e-07
-1.733668e-07
4.1916895e-07
-1.3136739e-07
4.0912828e-07
-8.6045076e-08
3.9399936e-07
-3.7634149e-08
3.7350865e-07
1.3673719e-08
3.4744496e-07
6.7542465e-08
3.1575164e-07
1.2365833e-07
2.7818099e-07
1.8181615e-07
2.3456723e-07
2.4168139e-07
1.8494097e-07
3.0294134e-07
1.2927744e-07
3.6517099e-07
6.7418237e-08
4.2832474e-07
-5.5674978e-10
4.9172167e-07
-7.459408e-08
5.5538723e-07
-1.5463008e-07
6.1874822e-07
-2.4054126e-07
6.8151931e-07
-3.3218227e-07
7.434005e-07
-4.2937823e-07
8.0408493e-07
-5.3192614e-07
8.6327484e-07
-6.3959631e-07
9.2068394e-07
-7.5213386e-07
9.7603905e-07
-8.6926031e-07
1.0290816e-06
-9.9067542e-07
1.0795694e-06
-1.1160592e-06
1.1272776e-06
-1.2450739e-06
1.1720001e-06
-1.3773665e-06
1.2135505e-06
-1.5125703e-06
1.2517625e-06
-1.6503078e-06
1.2864909e-06
-1.7901927e-06
1.3176114e-06
-1.9318322e-06
1.3450215e-06
-2.0748292e-06
1.3686398e-06
-2.2187845e-06
1.3884066e-06
-2.3632993e-06
1.4042831e-06
-2.5079768e-06
1.4162511e-06
-2.6524246e-06
1.4243129e-06
-2.7962565e-06