/*--------------------------------*- C++ -*----------------------------------*\
| =========                 |                                                 |
| \\      /  F ield         | OpenFOAM: The Open Source CFD Toolbox           |
|  \\    /   O peration     | Version:  2106                                  |
|   \\  /    A nd           | Website:  www.openfoam.com                      |
|    \\/     M anipulation  |                                                 |
\*---------------------------------------------------------------------------*/
FoamFile
{
    version     2.0;
    format      ascii;
    arch        "LSB;label=32;scalar=64";
    class       volScalarField;
    location    "3.3";
    object      p_rgh;
}
// * * * * * * * * * * * * * * * * * * * * * * * * * * * * * * * * * * * * * //

dimensions      [1 -1 -2 0 0 0 0];

internalField   nonuniform List<scalar> 
90000
(
0.00333333
0.00333446
0.00333654
0.00333961
0.0033437
0.00334881
0.00335493
0.00336206
0.00337018
0.00337927
0.00338933
0.00340033
0.00341225
0.00342508
0.00343879
0.00345335
0.00346874
0.00348494
0.00350191
0.00351963
0.00353806
0.00355718
0.00357695
0.00359734
0.0036183
0.00363981
0.00366183
0.00368431
0.00370723
0.00373053
0.00375418
0.00377814
0.00380236
0.0038268
0.00385143
0.00387619
0.00390105
0.00392595
0.00395086
0.00397573
0.00400052
0.00402519
0.00404969
0.00407398
0.00409801
0.00412174
0.00414514
0.00416816
0.00419075
0.00421289
0.00423453
0.00425562
0.00427614
0.00429606
0.00431532
0.0043339
0.00435177
0.00436889
0.00438524
0.00440078
0.00441548
0.00442933
0.0044423
0.00445435
0.00446548
0.00447566
0.00448487
0.0044931
0.00450034
0.00450656
0.00451176
0.00451593
0.00451906
0.00452114
0.00452218
0.00452217
0.00452112
0.00451901
0.00451587
0.00451168
0.00450646
0.00450022
0.00449297
0.00448472
0.00447549
0.00446529
0.00445415
0.00444208
0.00442909
0.00441523
0.00440051
0.00438495
0.00436859
0.00435145
0.00433356
0.00431496
0.00429568
0.00427575
0.00425521
0.0042341
0.00421244
0.00419029
0.00416768
0.00414464
0.00412123
0.00409748
0.00407343
0.00404912
0.00402461
0.00399992
0.00397512
0.00395023
0.0039253
0.00390038
0.00387551
0.00385073
0.00382609
0.00380163
0.00377739
0.00375342
0.00372975
0.00370643
0.0036835
0.003661
0.00363896
0.00361743
0.00359645
0.00357604
0.00355625
0.00353711
0.00351866
0.00350091
0.00348392
0.0034677
0.00345228
0.00343769
0.00342396
0.00341111
0.00339915
0.00338812
0.00337803
0.0033689
0.00336074
0.00335357
0.0033474
0.00334224
0.0033381
0.00333499
0.0033329
0.00333186
0.00333238
0.00333344
0.0033355
0.00333858
0.00334267
0.00334779
0.00335393
0.00336107
0.0033692
0.00337832
0.00338839
0.00339941
0.00341136
0.0034242
0.00343793
0.00345252
0.00346794
0.00348417
0.00350117
0.00351892
0.00353739
0.00355654
0.00357634
0.00359676
0.00361776
0.00363931
0.00366136
0.00368389
0.00370684
0.00373018
0.00375388
0.00377787
0.00380214
0.00382663
0.00385129
0.0038761
0.003901
0.00392594
0.0039509
0.00397581
0.00400065
0.00402536
0.0040499
0.00407423
0.0040983
0.00412208
0.00414552
0.00416857
0.00419121
0.00421338
0.00423506
0.00425619
0.00427675
0.00429669
0.00431599
0.0043346
0.0043525
0.00436966
0.00438603
0.0044016
0.00441633
0.0044302
0.00444319
0.00445527
0.00446641
0.00447661
0.00448584
0.00449408
0.00450133
0.00450756
0.00451277
0.00451695
0.00452008
0.00452217
0.00452321
0.0045232
0.00452215
0.00452004
0.00451689
0.00451269
0.00450747
0.00450121
0.00449395
0.00448569
0.00447644
0.00446623
0.00445506
0.00444297
0.00442996
0.00441608
0.00440133
0.00438574
0.00436935
0.00435218
0.00433426
0.00431563
0.00429632
0.00427635
0.00425578
0.00423463
0.00421294
0.00419075
0.00416809
0.00414502
0.00412156
0.00409777
0.00407368
0.00404933
0.00402477
0.00400005
0.0039752
0.00395026
0.00392529
0.00390033
0.00387541
0.00385059
0.00382591
0.00380141
0.00377713
0.00375311
0.0037294
0.00370604
0.00368307
0.00366053
0.00363846
0.00361689
0.00359587
0.00357543
0.00355561
0.00353643
0.00351794
0.00350017
0.00348315
0.0034669
0.00345145
0.00343684
0.00342308
0.00341021
0.00339824
0.00338719
0.00337708
0.00336793
0.00335976
0.00335258
0.00334639
0.00334123
0.00333708
0.00333396
0.00333188
0.00333083
0.0033303
0.00333134
0.0033334
0.00333649
0.00334061
0.00334575
0.00335191
0.00335908
0.00336725
0.00337639
0.0033865
0.00339756
0.00340955
0.00342244
0.00343622
0.00345086
0.00346633
0.00348261
0.00349967
0.00351749
0.00353602
0.00355524
0.00357511
0.0035956
0.00361668
0.0036383
0.00366043
0.00368303
0.00370606
0.00372949
0.00375326
0.00377735
0.00380169
0.00382627
0.00385102
0.00387591
0.0039009
0.00392593
0.00395097
0.00397598
0.0040009
0.00402569
0.00405032
0.00407473
0.00409889
0.00412275
0.00414627
0.00416941
0.00419212
0.00421437
0.00423612
0.00425733
0.00427796
0.00429798
0.00431734
0.00433602
0.00435398
0.00437119
0.00438762
0.00440325
0.00441803
0.00443195
0.00444498
0.0044571
0.00446829
0.00447852
0.00448778
0.00449605
0.00450332
0.00450958
0.00451481
0.004519
0.00452214
0.00452424
0.00452529
0.00452528
0.00452422
0.0045221
0.00451894
0.00451473
0.00450948
0.00450321
0.00449592
0.00448763
0.00447835
0.0044681
0.0044569
0.00444476
0.00443171
0.00441778
0.00440297
0.00438734
0.00437089
0.00435366
0.00433568
0.00431698
0.0042976
0.00427757
0.00425692
0.0042357
0.00421393
0.00419166
0.00416893
0.00414577
0.00412224
0.00409836
0.00407418
0.00404975
0.00402511
0.0040003
0.00397536
0.00395034
0.00392528
0.00390023
0.00387523
0.00385032
0.00382555
0.00380096
0.0037766
0.0037525
0.00372871
0.00370527
0.00368222
0.0036596
0.00363745
0.00361581
0.00359471
0.0035742
0.00355431
0.00353507
0.00351651
0.00349868
0.0034816
0.00346529
0.00344979
0.00343513
0.00342132
0.0034084
0.00339639
0.0033853
0.00337516
0.00336598
0.00335778
0.00335057
0.00334437
0.00333918
0.00333502
0.00333189
0.0033298
0.00332875
0.00332713
0.00332817
0.00333025
0.00333336
0.00333751
0.00334268
0.00334888
0.00335609
0.0033643
0.00337349
0.00338366
0.00339478
0.00340683
0.00341979
0.00343364
0.00344835
0.00346391
0.00348028
0.00349743
0.00351533
0.00353396
0.00355328
0.00357326
0.00359386
0.00361504
0.00363678
0.00365902
0.00368174
0.0037049
0.00372844
0.00375234
0.00377655
0.00380103
0.00382573
0.00385061
0.00387563
0.00390075
0.00392591
0.00395109
0.00397622
0.00400127
0.0040262
0.00405095
0.00407549
0.00409978
0.00412376
0.00414741
0.00417066
0.0041935
0.00421586
0.00423773
0.00425905
0.00427978
0.0042999
0.00431937
0.00433815
0.0043562
0.00437351
0.00439002
0.00440573
0.00442059
0.00443458
0.00444768
0.00445986
0.00447111
0.0044814
0.00449071
0.00449902
0.00450633
0.00451262
0.00451787
0.00452209
0.00452525
0.00452736
0.00452841
0.0045284
0.00452733
0.00452521
0.00452202
0.00451779
0.00451252
0.00450622
0.00449889
0.00449056
0.00448123
0.00447092
0.00445966
0.00444746
0.00443434
0.00442033
0.00440546
0.00438974
0.0043732
0.00435588
0.00433781
0.00431901
0.00429953
0.00427939
0.00425864
0.0042373
0.00421542
0.00419304
0.00417019
0.00414691
0.00412325
0.00409925
0.00407495
0.00405039
0.00402561
0.00400067
0.0039756
0.00395045
0.00392527
0.00390008
0.00387495
0.00384991
0.00382501
0.0038003
0.0037758
0.00375158
0.00372766
0.0037041
0.00368093
0.00365819
0.00363593
0.00361417
0.00359297
0.00357235
0.00355235
0.00353301
0.00351436
0.00349644
0.00347926
0.00346287
0.00344729
0.00343255
0.00341868
0.00340569
0.00339361
0.00338247
0.00337227
0.00336304
0.0033548
0.00334755
0.00334132
0.00333611
0.00333192
0.00332878
0.00332667
0.00332562
0.0033229
0.00332395
0.00332604
0.00332918
0.00333336
0.00333858
0.00334482
0.00335209
0.00336036
0.00336962
0.00337986
0.00339105
0.00340319
0.00341624
0.00343019
0.00344501
0.00346067
0.00347715
0.00349442
0.00351245
0.00353121
0.00355066
0.00357078
0.00359152
0.00361286
0.00363474
0.00365714
0.00368002
0.00370334
0.00372705
0.00375111
0.00377549
0.00380013
0.00382501
0.00385006
0.00387526
0.00390055
0.00392589
0.00395124
0.00397655
0.00400177
0.00402687
0.0040518
0.00407651
0.00410096
0.00412512
0.00414892
0.00417234
0.00419534
0.00421786
0.00423987
0.00426134
0.00428222
0.00430248
0.00432209
0.00434099
0.00435918
0.0043766
0.00439323
0.00440904
0.00442401
0.0044381
0.00445129
0.00446356
0.00447488
0.00448524
0.00449462
0.00450299
0.00451035
0.00451668
0.00452197
0.00452621
0.0045294
0.00453152
0.00453258
0.00453257
0.0045315
0.00452936
0.00452615
0.00452189
0.00451658
0.00451024
0.00450286
0.00449447
0.00448507
0.0044747
0.00446336
0.00445107
0.00443786
0.00442376
0.00440877
0.00439294
0.00437629
0.00435885
0.00434066
0.00432173
0.00430211
0.00428183
0.00426093
0.00423945
0.00421742
0.00419488
0.00417187
0.00414843
0.0041246
0.00410043
0.00407596
0.00405123
0.00402629
0.00400117
0.00397593
0.00395061
0.00392524
0.00389989
0.00387458
0.00384937
0.0038243
0.00379941
0.00377474
0.00375035
0.00372627
0.00370254
0.00367921
0.00365631
0.00363389
0.00361199
0.00359063
0.00356987
0.00354974
0.00353026
0.00351148
0.00349343
0.00347614
0.00345964
0.00344395
0.00342911
0.00341514
0.00340206
0.0033899
0.00337867
0.00336841
0.00335912
0.00335082
0.00334352
0.00333724
0.00333199
0.00332778
0.00332461
0.0033225
0.00332143
0.0033176
0.00331866
0.00332078
0.00332395
0.00332817
0.00333344
0.00333974
0.00334707
0.00335542
0.00336476
0.00337509
0.00338638
0.00339863
0.00341179
0.00342586
0.00344081
0.00345661
0.00347323
0.00349066
0.00350884
0.00352776
0.00354738
0.00356767
0.0035886
0.00361011
0.00363219
0.00365478
0.00367786
0.00370138
0.00372529
0.00374957
0.00377415
0.00379901
0.0038241
0.00384938
0.00387479
0.0039003
0.00392586
0.00395143
0.00397696
0.0040024
0.00402772
0.00405286
0.00407779
0.00410245
0.00412681
0.00415083
0.00417445
0.00419764
0.00422036
0.00424257
0.00426422
0.00428528
0.00430572
0.00432549
0.00434456
0.0043629
0.00438048
0.00439725
0.0044132
0.0044283
0.00444251
0.00445582
0.00446819
0.00447961
0.00449006
0.00449952
0.00450797
0.00451539
0.00452178
0.00452711
0.00453139
0.00453461
0.00453675
0.00453781
0.0045378
0.00453672
0.00453456
0.00453133
0.00452703
0.00452168
0.00451527
0.00450783
0.00449937
0.0044899
0.00447943
0.00446799
0.0044556
0.00444228
0.00442805
0.00441293
0.00439697
0.00438017
0.00436258
0.00434422
0.00432513
0.00430535
0.00428489
0.00426381
0.00424214
0.00421992
0.00419718
0.00417397
0.00415033
0.0041263
0.00410192
0.00407724
0.0040523
0.00402714
0.0040018
0.00397634
0.0039508
0.00392521
0.00389964
0.00387411
0.00384868
0.00382339
0.00379829
0.00377341
0.00374881
0.00372452
0.00370058
0.00367705
0.00365396
0.00363134
0.00360925
0.00358771
0.00356677
0.00354646
0.00352682
0.00350788
0.00348967
0.00347223
0.00345558
0.00343976
0.00342479
0.00341069
0.0033975
0.00338524
0.00337392
0.00336356
0.00335419
0.00334582
0.00333846
0.00333213
0.00332683
0.00332259
0.00331939
0.00331726
0.00331619
0.00331123
0.00331231
0.00331445
0.00331766
0.00332193
0.00332725
0.00333363
0.00334104
0.00334947
0.00335891
0.00336935
0.00338076
0.00339313
0.00340644
0.00342065
0.00343575
0.00345172
0.00346852
0.00348612
0.00350449
0.00352361
0.00354343
0.00356393
0.00358507
0.00360681
0.00362911
0.00365194
0.00367526
0.00369902
0.00372318
0.00374771
0.00377255
0.00379766
0.00382301
0.00384855
0.00387422
0.0039
0.00392582
0.00395166
0.00397745
0.00400316
0.00402873
0.00405414
0.00407932
0.00410424
0.00412886
0.00415312
0.00417699
0.00420042
0.00422337
0.00424581
0.00426769
0.00428897
0.00430962
0.00432959
0.00434886
0.00436739
0.00438515
0.0044021
0.00441821
0.00443346
0.00444783
0.00446127
0.00447377
0.00448531
0.00449587
0.00450542
0.00451396
0.00452146
0.00452791
0.0045333
0.00453763
0.00454087
0.00454304
0.00454411
0.0045441
0.00454301
0.00454083
0.00453756
0.00453322
0.00452781
0.00452134
0.00451383
0.00450527
0.0044957
0.00448513
0.00447357
0.00446105
0.00444759
0.00443321
0.00441794
0.00440181
0.00438484
0.00436707
0.00434852
0.00432924
0.00430924
0.00428858
0.00426728
0.00424538
0.00422293
0.00419996
0.00417651
0.00415262
0.00412834
0.00410371
0.00407878
0.00405357
0.00402815
0.00400256
0.00397683
0.00395103
0.00392518
0.00389934
0.00387355
0.00384786
0.0038223
0.00379694
0.00377181
0.00374695
0.00372241
0.00369823
0.00367445
0.00365112
0.00362827
0.00360595
0.00358419
0.00356303
0.00354251
0.00352267
0.00350353
0.00348513
0.00346751
0.00345069
0.00343471
0.00341959
0.00340535
0.00339202
0.00337963
0.00336819
0.00335773
0.00334826
0.0033398
0.00333237
0.00332597
0.00332062
0.00331633
0.0033131
0.00331095
0.00330987
0.00330379
0.00330487
0.00330705
0.0033103
0.00331462
0.00332002
0.00332647
0.00333397
0.00334251
0.00335206
0.00336263
0.00337418
0.0033867
0.00340016
0.00341455
0.00342984
0.00344599
0.00346299
0.0034808
0.0034994
0.00351874
0.00353881
0.00355955
0.00358094
0.00360294
0.00362551
0.00364862
0.00367221
0.00369626
0.00372071
0.00374553
0.00377067
0.00379608
0.00382174
0.00384758
0.00387356
0.00389964
0.00392578
0.00395192
0.00397802
0.00400404
0.00402992
0.00405563
0.00408112
0.00410634
0.00413125
0.0041558
0.00417995
0.00420367
0.0042269
0.0042496
0.00427174
0.00429328
0.00431418
0.00433439
0.0043539
0.00437265
0.00439062
0.00440777
0.00442408
0.00443951
0.00445405
0.00446765
0.00448031
0.00449198
0.00450267
0.00451234
0.00452097
0.00452857
0.0045351
0.00454055
0.00454493
0.00454821
0.0045504
0.00455149
0.00455149
0.00455038
0.00454817
0.00454487
0.00454047
0.004535
0.00452845
0.00452084
0.00451219
0.0045025
0.0044918
0.00448011
0.00446744
0.00445381
0.00443926
0.00442381
0.00440749
0.00439031
0.00437233
0.00435356
0.00433404
0.0043138
0.00429289
0.00427134
0.00424918
0.00422646
0.00420321
0.00417948
0.00415531
0.00413074
0.00410581
0.00408058
0.00405507
0.00402935
0.00400344
0.00397741
0.00395129
0.00392514
0.00389899
0.00387289
0.00384689
0.00382103
0.00379536
0.00376993
0.00374477
0.00371994
0.00369547
0.0036714
0.00364779
0.00362467
0.00360208
0.00358006
0.00355865
0.00353789
0.0035178
0.00349844
0.00347982
0.00346199
0.00344497
0.0034288
0.00341349
0.00339908
0.0033856
0.00337306
0.00336148
0.0033509
0.00334132
0.00333276
0.00332523
0.00331876
0.00331335
0.003309
0.00330574
0.00330356
0.00330246
0.00329525
0.00329635
0.00329856
0.00330186
0.00330624
0.00331171
0.00331825
0.00332586
0.00333451
0.0033442
0.00335491
0.00336662
0.00337931
0.00339296
0.00340755
0.00342304
0.00343941
0.00345664
0.0034747
0.00349355
0.00351316
0.00353349
0.00355452
0.0035762
0.0035985
0.00362138
0.0036448
0.00366871
0.00369308
0.00371787
0.00374302
0.0037685
0.00379427
0.00382027
0.00384646
0.0038728
0.00389924
0.00392573
0.00395223
0.00397868
0.00400505
0.00403129
0.00405735
0.00408318
0.00410875
0.00413399
0.00415888
0.00418336
0.0042074
0.00423095
0.00425396
0.0042764
0.00429823
0.00431942
0.00433991
0.00435967
0.00437868
0.0043969
0.00441428
0.00443082
0.00444646
0.00446119
0.00447498
0.00448781
0.00449964
0.00451047
0.00452027
0.00452903
0.00453672
0.00454334
0.00454888
0.00455331
0.00455664
0.00455886
0.00455997
0.00455996
0.00455884
0.0045566
0.00455325
0.0045488
0.00454325
0.00453661
0.0045289
0.00452013
0.00451031
0.00449946
0.00448761
0.00447477
0.00446096
0.00444621
0.00443055
0.004414
0.00439659
0.00437836
0.00435934
0.00433955
0.00431904
0.00429785
0.004276
0.00425354
0.00423051
0.00420694
0.00418289
0.00415839
0.00413349
0.00410822
0.00408264
0.00405679
0.00403071
0.00400446
0.00397807
0.0039516
0.00392509
0.00389858
0.00387213
0.00384577
0.00381957
0.00379355
0.00376777
0.00374227
0.0037171
0.00369229
0.00366791
0.00364397
0.00362054
0.00359764
0.00357532
0.00355362
0.00353258
0.00351222
0.00349259
0.00347373
0.00345565
0.0034384
0.00342201
0.0034065
0.00339189
0.00337822
0.00336551
0.00335378
0.00334305
0.00333334
0.00332467
0.00331704
0.00331048
0.00330499
0.00330059
0.00329728
0.00329507
0.00329396
0.0032856
0.00328673
0.00328897
0.00329231
0.00329677
0.00330232
0.00330897
0.00331669
0.00332548
0.00333532
0.00334619
0.00335808
0.00337096
0.00338482
0.00339963
0.00341535
0.00343198
0.00344947
0.0034678
0.00348694
0.00350684
0.00352749
0.00354883
0.00357084
0.00359348
0.00361671
0.00364048
0.00366476
0.0036895
0.00371466
0.00374019
0.00376606
0.00379222
0.00381861
0.0038452
0.00387194
0.00389878
0.00392567
0.00395257
0.00397943
0.0040062
0.00403283
0.00405929
0.00408551
0.00411146
0.0041371
0.00416236
0.00418722
0.00421162
0.00423552
0.00425889
0.00428167
0.00430383
0.00432534
0.00434614
0.00436621
0.0043855
0.00440399
0.00442165
0.00443843
0.00445431
0.00446927
0.00448327
0.00449629
0.0045083
0.0045193
0.00452925
0.00453814
0.00454595
0.00455267
0.00455829
0.00456279
0.00456617
0.00456842
0.00456955
0.00456954
0.0045684
0.00456613
0.00456273
0.00455821
0.00455257
0.00454584
0.00453801
0.0045291
0.00451913
0.00450812
0.00449609
0.00448305
0.00446903
0.00445406
0.00443816
0.00442136
0.00440369
0.00438518
0.00436587
0.00434578
0.00432496
0.00430345
0.00428127
0.00425847
0.00423508
0.00421116
0.00418675
0.00416187
0.00413659
0.00411094
0.00408497
0.00405873
0.00403226
0.00400561
0.00397882
0.00395195
0.00392503
0.00389812
0.00387127
0.00384452
0.00381791
0.0037915
0.00376533
0.00373944
0.00371389
0.00368871
0.00366395
0.00363966
0.00361587
0.00359262
0.00356997
0.00354794
0.00352657
0.00350591
0.00348599
0.00346683
0.00344849
0.00343097
0.00341433
0.00339858
0.00338376
0.00336989
0.00335698
0.00334508
0.00333418
0.00332433
0.00331552
0.00330778
0.00330112
0.00329555
0.00329108
0.00328772
0.00328548
0.00328435
0.00327483
0.00327598
0.00327825
0.00328166
0.00328619
0.00329184
0.0032986
0.00330645
0.00331539
0.00332539
0.00333645
0.00334853
0.00336163
0.00337572
0.00339078
0.00340677
0.00342367
0.00344145
0.00346009
0.00347955
0.00349978
0.00352077
0.00354247
0.00356485
0.00358787
0.00361148
0.00363565
0.00366033
0.00368549
0.00371107
0.00373703
0.00376333
0.00378992
0.00381676
0.00384379
0.00387097
0.00389826
0.0039256
0.00395295
0.00398026
0.00400748
0.00403456
0.00406145
0.00408812
0.0041145
0.00414056
0.00416625
0.00419152
0.00421633
0.00424063
0.00426439
0.00428756
0.00431009
0.00433195
0.0043531
0.0043735
0.00439312
0.00441192
0.00442987
0.00444694
0.00446308
0.00447829
0.00449252
0.00450576
0.00451798
0.00452916
0.00453928
0.00454831
0.00455626
0.00456309
0.0045688
0.00457338
0.00457681
0.00457911
0.00458025
0.00458024
0.00457908
0.00457677
0.00457332
0.00456872
0.00456299
0.00455614
0.00454818
0.00453913
0.004529
0.0045178
0.00450556
0.00449231
0.00447806
0.00446283
0.00444667
0.00442959
0.00441162
0.0043928
0.00437317
0.00435275
0.00433158
0.0043097
0.00428715
0.00426397
0.0042402
0.00421588
0.00419105
0.00416576
0.00414006
0.00411398
0.00408758
0.0040609
0.00403399
0.00400689
0.00397965
0.00395233
0.00392497
0.00389761
0.00387031
0.00384311
0.00381606
0.00378921
0.0037626
0.00373628
0.0037103
0.0036847
0.00365953
0.00363483
0.00361065
0.00358701
0.00356398
0.00354159
0.00351986
0.00349886
0.0034786
0.00345913
0.00344048
0.00342267
0.00340575
0.00338975
0.00337467
0.00336057
0.00334745
0.00333535
0.00332427
0.00331425
0.0033053
0.00329743
0.00329066
0.003285
0.00328045
0.00327704
0.00327476
0.00327361
0.00326292
0.00326408
0.0032664
0.00326987
0.00327449
0.00328024
0.00328712
0.00329512
0.00330422
0.0033144
0.00332566
0.00333797
0.00335131
0.00336565
0.00338098
0.00339726
0.00341447
0.00343258
0.00345156
0.00347137
0.00349197
0.00351334
0.00353544
0.00355822
0.00358166
0.0036057
0.00363031
0.00365544
0.00368105
0.00370709
0.00373353
0.0037603
0.00378738
0.0038147
0.00384223
0.00386991
0.00389769
0.00392553
0.00395337
0.00398118
0.00400889
0.00403646
0.00406385
0.004091
0.00411786
0.0041444
0.00417055
0.00419628
0.00422154
0.00424629
0.00427048
0.00429407
0.00431701
0.00433927
0.00436081
0.00438158
0.00440156
0.0044207
0.00443898
0.00445635
0.00447279
0.00448827
0.00450277
0.00451625
0.00452869
0.00454007
0.00455037
0.00455958
0.00456766
0.00457462
0.00458043
0.00458509
0.0045886
0.00459093
0.00459209
0.00459208
0.00459091
0.00458855
0.00458504
0.00458036
0.00457452
0.00456755
0.00455945
0.00455023
0.00453991
0.00452851
0.00451605
0.00450255
0.00448804
0.00447254
0.00445608
0.00443869
0.0044204
0.00440124
0.00438124
0.00436045
0.0043389
0.00431662
0.00429366
0.00427006
0.00424586
0.00422109
0.00419581
0.00417007
0.00414389
0.00411734
0.00409046
0.0040633
0.00403589
0.0040083
0.00398057
0.00395275
0.00392489
0.00389704
0.00386924
0.00384155
0.00381401
0.00378667
0.00375958
0.00373278
0.00370633
0.00368027
0.00365464
0.00362949
0.00360487
0.00358081
0.00355736
0.00353455
0.00351244
0.00349105
0.00347043
0.0034506
0.00343161
0.00341349
0.00339626
0.00337996
0.00336462
0.00335026
0.0033369
0.00332458
0.0033133
0.0033031
0.00329399
0.00328597
0.00327908
0.00327332
0.00326869
0.00326521
0.00326289
0.00326172
0.00324984
0.00325103
0.00325339
0.00325693
0.00326164
0.0032675
0.00327452
0.00328267
0.00329195
0.00330234
0.00331382
0.00332637
0.00333997
0.0033546
0.00337023
0.00338683
0.00340438
0.00342284
0.00344219
0.00346238
0.00348339
0.00350518
0.00352771
0.00355094
0.00357483
0.00359935
0.00362444
0.00365006
0.00367617
0.00370273
0.00372968
0.00375698
0.00378459
0.00381244
0.00384051
0.00386873
0.00389706
0.00392544
0.00395383
0.00398218
0.00401044
0.00403855
0.00406648
0.00409416
0.00412155
0.00414861
0.00417527
0.00420151
0.00422727
0.0042525
0.00427716
0.00430121
0.00432461
0.0043473
0.00436926
0.00439045
0.00441082
0.00443034
0.00444897
0.00446669
0.00448345
0.00449924
0.00451402
0.00452776
0.00454045
0.00455205
0.00456256
0.00457194
0.00458019
0.00458728
0.00459321
0.00459796
0.00460153
0.00460391
0.0046051
0.00460509
0.00460389
0.00460149
0.0045979
0.00459313
0.00458719
0.00458008
0.00457181
0.00456241
0.00455189
0.00454027
0.00452757
0.0045138
0.00449901
0.0044832
0.00446642
0.00444869
0.00443003
0.0044105
0.00439011
0.00436891
0.00434694
0.00432422
0.00430081
0.00427675
0.00425207
0.00422682
0.00420104
0.00417479
0.0041481
0.00412103
0.00409362
0.00406593
0.00403799
0.00400986
0.00398158
0.00395322
0.00392481
0.00389641
0.00386807
0.00383983
0.00381175
0.00378388
0.00375626
0.00372894
0.00370197
0.00367539
0.00364927
0.00362362
0.00359852
0.00357399
0.00355008
0.00352683
0.00350428
0.00348248
0.00346145
0.00344124
0.00342188
0.0034034
0.00338583
0.00336922
0.00335357
0.00333893
0.00332532
0.00331275
0.00330126
0.00329086
0.00328156
0.00327339
0.00326637
0.00326049
0.00325577
0.00325223
0.00324986
0.00324867
0.00323557
0.00323678
0.0032392
0.00324281
0.00324762
0.00325361
0.00326077
0.0032691
0.00327857
0.00328918
0.0033009
0.00331371
0.0033276
0.00334253
0.00335849
0.00337544
0.00339336
0.00341221
0.00343196
0.00345258
0.00347403
0.00349627
0.00351928
0.00354299
0.00356739
0.00359241
0.00361803
0.00364419
0.00367085
0.00369796
0.00372548
0.00375335
0.00378154
0.00380998
0.00383863
0.00386745
0.00389637
0.00392535
0.00395434
0.00398328
0.00401213
0.00404083
0.00406934
0.00409761
0.00412557
0.0041532
0.00418043
0.00420721
0.00423351
0.00425928
0.00428446
0.00430901
0.0043329
0.00435607
0.00437849
0.00440012
0.00442092
0.00444085
0.00445988
0.00447796
0.00449508
0.0045112
0.00452629
0.00454032
0.00455328
0.00456513
0.00457585
0.00458543
0.00459385
0.0046011
0.00460715
0.004612
0.00461565
0.00461808
0.00461929
0.00461928
0.00461805
0.00461561
0.00461194
0.00460707
0.004601
0.00459374
0.0045853
0.00457571
0.00456497
0.0045531
0.00454013
0.00452608
0.00451097
0.00449483
0.0044777
0.00445959
0.00444055
0.0044206
0.00439979
0.00437814
0.00435571
0.00433251
0.00430861
0.00428404
0.00425884
0.00423306
0.00420675
0.00417994
0.0041527
0.00412506
0.00409707
0.00406879
0.00404027
0.00401155
0.00398268
0.00395372
0.00392472
0.00389572
0.00386679
0.00383796
0.00380929
0.00378083
0.00375263
0.00372474
0.0036972
0.00367008
0.0036434
0.00361722
0.00359159
0.00356655
0.00354214
0.0035184
0.00349538
0.00347312
0.00345165
0.00343102
0.00341125
0.00339239
0.00337446
0.00335749
0.00334152
0.00332657
0.00331267
0.00329985
0.00328811
0.00327749
0.00326801
0.00325967
0.00325249
0.00324649
0.00324168
0.00323806
0.00323564
0.00323443
0.00322009
0.00322133
0.0032238
0.00322749
0.0032324
0.00323853
0.00324585
0.00325437
0.00326405
0.0032749
0.00328688
0.00329998
0.00331417
0.00332944
0.00334575
0.00336308
0.00338139
0.00340066
0.00342086
0.00344193
0.00346386
0.00348661
0.00351012
0.00353437
0.0035593
0.00358489
0.00361107
0.00363782
0.00366507
0.00369279
0.00372092
0.00374941
0.00377822
0.0038073
0.00383659
0.00386605
0.00389562
0.00392524
0.00395488
0.00398447
0.00401396
0.00404331
0.00407245
0.00410135
0.00412994
0.00415818
0.00418602
0.0042134
0.00424029
0.00426663
0.00429237
0.00431747
0.00434189
0.00436558
0.00438851
0.00441062
0.00443188
0.00445226
0.00447171
0.0044902
0.0045077
0.00452418
0.00453961
0.00455396
0.0045672
0.00457932
0.00459028
0.00460008
0.00460868
0.00461609
0.00462228
0.00462724
0.00463097
0.00463345
0.00463469
0.00463468
0.00463343
0.00463093
0.00462718
0.0046222
0.00461599
0.00460857
0.00459995
0.00459014
0.00457915
0.00456702
0.00455376
0.0045394
0.00452395
0.00450746
0.00448994
0.00447143
0.00445196
0.00443157
0.00441029
0.00438816
0.00436522
0.00434151
0.00431708
0.00429195
0.00426619
0.00423984
0.00421294
0.00418553
0.00415768
0.00412942
0.00410081
0.0040719
0.00404274
0.00401338
0.00398387
0.00395427
0.00392462
0.00389498
0.00386539
0.00383592
0.00380662
0.00377752
0.00374869
0.00372018
0.00369203
0.0036643
0.00363703
0.00361027
0.00358407
0.00355847
0.00353352
0.00350925
0.00348572
0.00346297
0.00344102
0.00341993
0.00339972
0.00338044
0.00336211
0.00334477
0.00332844
0.00331316
0.00329895
0.00328584
0.00327384
0.00326299
0.00325329
0.00324477
0.00323743
0.0032313
0.00322638
0.00322268
0.00322021
0.00321897
0.00320336
0.00320463
0.00320716
0.00321094
0.00321597
0.00322224
0.00322974
0.00323845
0.00324837
0.00325946
0.00327173
0.00328514
0.00329967
0.00331529
0.00333199
0.00334973
0.00336847
0.00338819
0.00340886
0.00343044
0.00345288
0.00347616
0.00350023
0.00352504
0.00355057
0.00357675
0.00360356
0.00363093
0.00365882
0.00368719
0.00371599
0.00374515
0.00377464
0.00380441
0.00383439
0.00386454
0.0038948
0.00392513
0.00395546
0.00398575
0.00401594
0.00404598
0.00407581
0.00410538
0.00413465
0.00416356
0.00419205
0.00422008
0.0042476
0.00427456
0.00430092
0.00432661
0.00435161
0.00437586
0.00439932
0.00442196
0.00444372
0.00446458
0.00448449
0.00450342
0.00452134
0.00453821
0.004554
0.00456868
0.00458224
0.00459464
0.00460587
0.00461589
0.0046247
0.00463228
0.00463862
0.0046437
0.00464751
0.00465006
0.00465133
0.00465132
0.00465003
0.00464747
0.00464364
0.00463854
0.00463219
0.00462459
0.00461576
0.00460572
0.00459448
0.00458206
0.00456849
0.00455378
0.00453798
0.00452109
0.00450316
0.00448421
0.00446428
0.00444341
0.00442163
0.00439898
0.0043755
0.00435123
0.00432622
0.0043005
0.00427413
0.00424716
0.00421962
0.00419157
0.00416306
0.00413414
0.00410485
0.00407526
0.00404541
0.00401536
0.00398516
0.00395485
0.0039245
0.00389416
0.00386389
0.00383372
0.00380372
0.00377395
0.00374444
0.00371526
0.00368645
0.00365806
0.00363015
0.00360276
0.00357594
0.00354974
0.0035242
0.00349937
0.00347528
0.00345199
0.00342953
0.00340794
0.00338726
0.00336752
0.00334876
0.00333101
0.00331431
0.00329867
0.00328413
0.0032707
0.00325843
0.00324732
0.00323739
0.00322867
0.00322116
0.00321489
0.00320985
0.00320606
0.00320353
0.00320226
0.00318537
0.00318667
0.00318926
0.00319313
0.00319829
0.00320471
0.00321239
0.00322132
0.00323149
0.00324286
0.00325543
0.00326917
0.00328406
0.00330007
0.00331718
0.00333535
0.00335456
0.00337477
0.00339595
0.00341806
0.00344106
0.00346491
0.00348958
0.00351501
0.00354116
0.003568
0.00359547
0.00362352
0.0036521
0.00368117
0.00371068
0.00374057
0.00377079
0.00380129
0.00383201
0.00386291
0.00389392
0.003925
0.00395609
0.00398712
0.00401806
0.00404884
0.00407942
0.00410973
0.00413972
0.00416934
0.00419854
0.00422727
0.00425548
0.0042831
0.00431011
0.00433644
0.00436206
0.00438692
0.00441096
0.00443416
0.00445647
0.00447784
0.00449825
0.00451765
0.00453601
0.00455329
0.00456948
0.00458453
0.00459842
0.00461113
0.00462264
0.00463291
0.00464194
0.00464971
0.0046562
0.00466141
0.00466532
0.00466793
0.00466923
0.00466922
0.0046679
0.00466528
0.00466135
0.00465613
0.00464962
0.00464183
0.00463278
0.00462249
0.00461097
0.00459825
0.00458434
0.00456927
0.00455306
0.00453576
0.00451738
0.00449796
0.00447754
0.00445615
0.00443383
0.00441062
0.00438655
0.00436168
0.00433605
0.0043097
0.00428268
0.00425503
0.00422681
0.00419806
0.00416885
0.00413921
0.0041092
0.00407887
0.00404828
0.00401749
0.00398653
0.00395548
0.00392438
0.00389329
0.00386226
0.00383135
0.00380061
0.00377009
0.00373986
0.00370995
0.00368043
0.00365134
0.00362274
0.00359467
0.00356719
0.00354034
0.00351417
0.00348873
0.00346405
0.00344018
0.00341717
0.00339504
0.00337385
0.00335363
0.0033344
0.00331622
0.00329909
0.00328307
0.00326817
0.00325442
0.00324184
0.00323045
0.00322028
0.00321135
0.00320365
0.00319722
0.00319206
0.00318818
0.00318559
0.00318429
0.00316607
0.0031674
0.00317006
0.00317403
0.00317932
0.00318591
0.0031938
0.00320296
0.00321338
0.00322505
0.00323794
0.00325204
0.00326732
0.00328374
0.00330129
0.00331994
0.00333964
0.00336038
0.00338211
0.00340479
0.00342838
0.00345285
0.00347815
0.00350424
0.00353108
0.00355861
0.00358678
0.00361556
0.00364489
0.00367471
0.00370498
0.00373565
0.00376665
0.00379794
0.00382946
0.00386116
0.00389298
0.00392486
0.00395675
0.0039886
0.00402034
0.00405192
0.00408328
0.00411438
0.00414515
0.00417554
0.0042055
0.00423498
0.00426391
0.00429226
0.00431997
0.00434699
0.00437327
0.00439877
0.00442344
0.00444724
0.00447013
0.00449206
0.00451299
0.0045329
0.00455174
0.00456947
0.00458608
0.00460152
0.00461578
0.00462882
0.00464062
0.00465116
0.00466043
0.0046684
0.00467506
0.0046804
0.00468442
0.00468709
0.00468842
0.00468842
0.00468707
0.00468437
0.00468035
0.00467499
0.00466831
0.00466032
0.00465104
0.00464048
0.00462866
0.0046156
0.00460133
0.00458587
0.00456925
0.00455149
0.00453264
0.00451271
0.00449176
0.00446981
0.00444691
0.0044231
0.00439841
0.00437289
0.00434659
0.00431956
0.00429183
0.00426347
0.00423452
0.00420503
0.00417505
0.00414464
0.00411385
0.00408274
0.00405136
0.00401976
0.00398801
0.00395615
0.00392424
0.00389235
0.00386051
0.0038288
0.00379726
0.00376596
0.00373494
0.00370426