/*--------------------------------*- C++ -*----------------------------------*\
| =========                 |                                                 |
| \\      /  F ield         | OpenFOAM: The Open Source CFD Toolbox           |
|  \\    /   O peration     | Version:  2106                                  |
|   \\  /    A nd           | Website:  www.openfoam.com                      |
|    \\/     M anipulation  |                                                 |
\*---------------------------------------------------------------------------*/
FoamFile
{
    version     2.0;
    format      ascii;
    arch        "LSB;label=32;scalar=64";
    class       volVectorField;
    location    "3.3";
    object      U;
}
// * * * * * * * * * * * * * * * * * * * * * * * * * * * * * * * * * * * * * //

dimensions      [0 1 -1 0 0 0 0];

internalField   nonuniform List<vector> 
90000
(
(-3.15338e-05 3.14953e-05 0)
(-9.45147e-05 3.14187e-05 0)
(-0.000157286 3.12933e-05 0)
(-0.000219755 3.11177e-05 0)
(-0.000281822 3.08905e-05 0)
(-0.000343382 3.06114e-05 0)
(-0.000404332 3.02803e-05 0)
(-0.000464568 2.98973e-05 0)
(-0.000523985 2.94629e-05 0)
(-0.000582482 2.89776e-05 0)
(-0.000639957 2.8442e-05 0)
(-0.000696311 2.7857e-05 0)
(-0.000751445 2.72235e-05 0)
(-0.000805264 2.65425e-05 0)
(-0.000857672 2.58152e-05 0)
(-0.00090858 2.50428e-05 0)
(-0.000957898 2.42265e-05 0)
(-0.00100554 2.33679e-05 0)
(-0.00105142 2.24683e-05 0)
(-0.00109546 2.15294e-05 0)
(-0.00113758 2.05527e-05 0)
(-0.00117772 1.95399e-05 0)
(-0.00121579 1.84929e-05 0)
(-0.00125173 1.74134e-05 0)
(-0.00128548 1.63033e-05 0)
(-0.00131698 1.51645e-05 0)
(-0.00134617 1.39991e-05 0)
(-0.00137301 1.2809e-05 0)
(-0.00139744 1.15963e-05 0)
(-0.00141942 1.03632e-05 0)
(-0.00143891 9.11172e-06 0)
(-0.00145589 7.84417e-06 0)
(-0.00147031 6.56272e-06 0)
(-0.00148215 5.26961e-06 0)
(-0.0014914 3.9671e-06 0)
(-0.00149803 2.65748e-06 0)
(-0.00150203 1.34303e-06 0)
(-0.0015034 2.60702e-08 0)
(-0.00150214 -1.29111e-06 0)
(-0.00149824 -2.6062e-06 0)
(-0.00149171 -3.91689e-06 0)
(-0.00148256 -5.22087e-06 0)
(-0.00147081 -6.51587e-06 0)
(-0.00145648 -7.7996e-06 0)
(-0.0014396 -9.0698e-06 0)
(-0.00142018 -1.03242e-05 0)
(-0.00139828 -1.15607e-05 0)
(-0.00137391 -1.2777e-05 0)
(-0.00134714 -1.39711e-05 0)
(-0.001318 -1.51407e-05 0)
(-0.00128654 -1.62839e-05 0)
(-0.00125283 -1.73986e-05 0)
(-0.00121691 -1.84828e-05 0)
(-0.00117886 -1.95347e-05 0)
(-0.00113873 -2.05524e-05 0)
(-0.0010966 -2.1534e-05 0)
(-0.00105255 -2.24779e-05 0)
(-0.00100664 -2.33824e-05 0)
(-0.000958965 -2.42458e-05 0)
(-0.000909604 -2.50667e-05 0)
(-0.000858643 -2.58435e-05 0)
(-0.000806173 -2.6575e-05 0)
(-0.000752286 -2.72598e-05 0)
(-0.000697075 -2.78967e-05 0)
(-0.000640639 -2.84846e-05 0)
(-0.000583075 -2.90224e-05 0)
(-0.000524487 -2.95092e-05 0)
(-0.000464975 -2.99441e-05 0)
(-0.000404646 -3.03264e-05 0)
(-0.000343605 -3.06553e-05 0)
(-0.000281959 -3.09302e-05 0)
(-0.000219818 -3.11508e-05 0)
(-0.000157289 -3.13166e-05 0)
(-9.44847e-05 -3.14273e-05 0)
(-3.15151e-05 -3.14826e-05 0)
(3.15151e-05 -3.14826e-05 0)
(9.44846e-05 -3.14273e-05 0)
(0.000157289 -3.13166e-05 0)
(0.000219818 -3.11508e-05 0)
(0.000281959 -3.09302e-05 0)
(0.000343605 -3.06553e-05 0)
(0.000404646 -3.03264e-05 0)
(0.000464975 -2.99441e-05 0)
(0.000524487 -2.95092e-05 0)
(0.000583075 -2.90224e-05 0)
(0.000640639 -2.84846e-05 0)
(0.000697075 -2.78967e-05 0)
(0.000752286 -2.72598e-05 0)
(0.000806173 -2.6575e-05 0)
(0.000858643 -2.58435e-05 0)
(0.000909604 -2.50667e-05 0)
(0.000958965 -2.42458e-05 0)
(0.00100664 -2.33824e-05 0)
(0.00105255 -2.24779e-05 0)
(0.0010966 -2.1534e-05 0)
(0.00113873 -2.05524e-05 0)
(0.00117886 -1.95347e-05 0)
(0.00121691 -1.84828e-05 0)
(0.00125283 -1.73986e-05 0)
(0.00128654 -1.62839e-05 0)
(0.001318 -1.51407e-05 0)
(0.00134714 -1.39711e-05 0)
(0.00137391 -1.2777e-05 0)
(0.00139828 -1.15607e-05 0)
(0.00142018 -1.03242e-05 0)
(0.0014396 -9.0698e-06 0)
(0.00145648 -7.7996e-06 0)
(0.00147081 -6.51587e-06 0)
(0.00148256 -5.22087e-06 0)
(0.00149171 -3.91688e-06 0)
(0.00149824 -2.6062e-06 0)
(0.00150214 -1.29111e-06 0)
(0.0015034 2.60708e-08 0)
(0.00150203 1.34303e-06 0)
(0.00149803 2.65748e-06 0)
(0.0014914 3.9671e-06 0)
(0.00148215 5.26961e-06 0)
(0.00147031 6.56272e-06 0)
(0.00145589 7.84417e-06 0)
(0.00143891 9.11172e-06 0)
(0.00141942 1.03632e-05 0)
(0.00139744 1.15963e-05 0)
(0.00137301 1.2809e-05 0)
(0.00134617 1.39991e-05 0)
(0.00131698 1.51645e-05 0)
(0.00128548 1.63033e-05 0)
(0.00125173 1.74134e-05 0)
(0.00121579 1.84929e-05 0)
(0.00117772 1.95399e-05 0)
(0.00113758 2.05527e-05 0)
(0.00109546 2.15294e-05 0)
(0.00105142 2.24683e-05 0)
(0.00100554 2.33679e-05 0)
(0.000957897 2.42265e-05 0)
(0.00090858 2.50428e-05 0)
(0.000857672 2.58152e-05 0)
(0.000805263 2.65425e-05 0)
(0.000751445 2.72235e-05 0)
(0.000696311 2.7857e-05 0)
(0.000639957 2.8442e-05 0)
(0.000582482 2.89776e-05 0)
(0.000523985 2.9463e-05 0)
(0.000464567 2.98974e-05 0)
(0.000404332 3.02804e-05 0)
(0.000343381 3.06115e-05 0)
(0.000281821 3.08907e-05 0)
(0.000219754 3.1118e-05 0)
(0.000157283 3.12938e-05 0)
(9.45105e-05 3.14199e-05 0)
(3.15313e-05 3.14978e-05 0)
(-3.16103e-05 9.45638e-05 0)
(-9.47434e-05 9.43346e-05 0)
(-0.000157666 9.3958e-05 0)
(-0.000220286 9.34301e-05 0)
(-0.000282502 9.27478e-05 0)
(-0.000344209 9.19098e-05 0)
(-0.000405305 9.09158e-05 0)
(-0.000465684 8.97661e-05 0)
(-0.000525243 8.84619e-05 0)
(-0.00058388 8.70049e-05 0)
(-0.000641493 8.5397e-05 0)
(-0.000697982 8.36406e-05 0)
(-0.000753248 8.17386e-05 0)
(-0.000807196 7.96941e-05 0)
(-0.00085973 7.75104e-05 0)
(-0.00091076 7.51913e-05 0)
(-0.000960196 7.27406e-05 0)
(-0.00100795 7.01627e-05 0)
(-0.00105394 6.74618e-05 0)
(-0.00109809 6.46427e-05 0)
(-0.00114031 6.17103e-05 0)
(-0.00118054 5.86696e-05 0)
(-0.00121871 5.5526e-05 0)
(-0.00125473 5.22848e-05 0)
(-0.00128857 4.89517e-05 0)
(-0.00132014 4.55326e-05 0)
(-0.0013494 4.20333e-05 0)
(-0.0013763 3.846e-05 0)
(-0.00140079 3.4819e-05 0)
(-0.00142283 3.11165e-05 0)
(-0.00144237 2.7359e-05 0)
(-0.00145938 2.35531e-05 0)
(-0.00147384 1.97055e-05 0)
(-0.00148571 1.58228e-05 0)
(-0.00149498 1.19119e-05 0)
(-0.00150163 7.97962e-06 0)
(-0.00150565 4.03285e-06 0)
(-0.00150702 7.8498e-08 0)
(-0.00150575 -3.8765e-06 0)
(-0.00150184 -7.82521e-06 0)
(-0.0014953 -1.17607e-05 0)
(-0.00148613 -1.56761e-05 0)
(-0.00147435 -1.95644e-05 0)
(-0.00145999 -2.34189e-05 0)
(-0.00144306 -2.72328e-05 0)
(-0.0014236 -3.09993e-05 0)
(-0.00140164 -3.47118e-05 0)
(-0.00137722 -3.83639e-05 0)
(-0.00135038 -4.1949e-05 0)
(-0.00132117 -4.54608e-05 0)
(-0.00128964 -4.88932e-05 0)
(-0.00125584 -5.22401e-05 0)
(-0.00121984 -5.54955e-05 0)
(-0.00118169 -5.86538e-05 0)
(-0.00114147 -6.17093e-05 0)
(-0.00109924 -6.46566e-05 0)
(-0.00105508 -6.74906e-05 0)
(-0.00100906 -7.02062e-05 0)
(-0.000961275 -7.27986e-05 0)
(-0.000911795 -7.52633e-05 0)
(-0.000860712 -7.75958e-05 0)
(-0.000808116 -7.9792e-05 0)
(-0.000754099 -8.1848e-05 0)
(-0.000698755 -8.37603e-05 0)
(-0.000642183 -8.55253e-05 0)
(-0.000584481 -8.714e-05 0)
(-0.000525751 -8.86016e-05 0)
(-0.000466096 -8.99073e-05 0)
(-0.000405621 -9.10549e-05 0)
(-0.000344433 -9.20424e-05 0)
(-0.000282639 -9.2868e-05 0)
(-0.000220348 -9.35303e-05 0)
(-0.000157669 -9.4028e-05 0)
(-9.47124e-05 -9.43603e-05 0)
(-3.15911e-05 -9.45266e-05 0)
(3.1591e-05 -9.45266e-05 0)
(9.47124e-05 -9.43603e-05 0)
(0.000157669 -9.4028e-05 0)
(0.000220348 -9.35303e-05 0)
(0.000282639 -9.2868e-05 0)
(0.000344433 -9.20424e-05 0)
(0.000405621 -9.10549e-05 0)
(0.000466096 -8.99073e-05 0)
(0.000525751 -8.86016e-05 0)
(0.000584481 -8.714e-05 0)
(0.000642183 -8.55253e-05 0)
(0.000698755 -8.37603e-05 0)
(0.000754099 -8.1848e-05 0)
(0.000808116 -7.9792e-05 0)
(0.000860712 -7.75958e-05 0)
(0.000911795 -7.52633e-05 0)
(0.000961275 -7.27986e-05 0)
(0.00100906 -7.02062e-05 0)
(0.00105508 -6.74906e-05 0)
(0.00109924 -6.46566e-05 0)
(0.00114147 -6.17093e-05 0)
(0.00118169 -5.86538e-05 0)
(0.00121984 -5.54955e-05 0)
(0.00125584 -5.22401e-05 0)
(0.00128964 -4.88932e-05 0)
(0.00132117 -4.54608e-05 0)
(0.00135038 -4.1949e-05 0)
(0.00137722 -3.83639e-05 0)
(0.00140164 -3.47118e-05 0)
(0.0014236 -3.09993e-05 0)
(0.00144306 -2.72328e-05 0)
(0.00145999 -2.34189e-05 0)
(0.00147435 -1.95644e-05 0)
(0.00148613 -1.5676e-05 0)
(0.0014953 -1.17607e-05 0)
(0.00150184 -7.82521e-06 0)
(0.00150575 -3.8765e-06 0)
(0.00150702 7.84997e-08 0)
(0.00150565 4.03285e-06 0)
(0.00150163 7.97963e-06 0)
(0.00149498 1.19119e-05 0)
(0.00148571 1.58228e-05 0)
(0.00147384 1.97055e-05 0)
(0.00145938 2.35531e-05 0)
(0.00144237 2.7359e-05 0)
(0.00142283 3.11165e-05 0)
(0.00140079 3.4819e-05 0)
(0.0013763 3.846e-05 0)
(0.0013494 4.20333e-05 0)
(0.00132014 4.55326e-05 0)
(0.00128857 4.89517e-05 0)
(0.00125473 5.22848e-05 0)
(0.00121871 5.5526e-05 0)
(0.00118054 5.86696e-05 0)
(0.00114031 6.17103e-05 0)
(0.00109809 6.46427e-05 0)
(0.00105394 6.74618e-05 0)
(0.00100795 7.01627e-05 0)
(0.000960196 7.27407e-05 0)
(0.00091076 7.51913e-05 0)
(0.00085973 7.75105e-05 0)
(0.000807195 7.96941e-05 0)
(0.000753248 8.17387e-05 0)
(0.000697981 8.36407e-05 0)
(0.000641493 8.53971e-05 0)
(0.00058388 8.7005e-05 0)
(0.000525243 8.84621e-05 0)
(0.000465683 8.97663e-05 0)
(0.000405304 9.0916e-05 0)
(0.000344208 9.19102e-05 0)
(0.0002825 9.27483e-05 0)
(0.000220285 9.34308e-05 0)
(0.000157665 9.39591e-05 0)
(9.47412e-05 9.43368e-05 0)
(3.16092e-05 9.4568e-05 0)
(-3.17359e-05 0.000157844 0)
(-9.51198e-05 0.000157462 0)
(-0.000158295 0.000156831 0)
(-0.000221166 0.000155948 0)
(-0.00028363 0.000154809 0)
(-0.000345583 0.00015341 0)
(-0.000406922 0.000151751 0)
(-0.000467542 0.000149832 0)
(-0.000527339 0.000147655 0)
(-0.00058621 0.000145223 0)
(-0.000644052 0.000142539 0)
(-0.000700766 0.000139608 0)
(-0.000756253 0.000136433 0)
(-0.000810416 0.000133021 0)
(-0.00086316 0.000129376 0)
(-0.000914394 0.000125505 0)
(-0.000964027 0.000121415 0)
(-0.00101197 0.000117112 0)
(-0.00105815 0.000112604 0)
(-0.00110247 0.000107898 0)
(-0.00114487 0.000103004 0)
(-0.00118526 9.79285e-05 0)
(-0.00122357 9.26813e-05 0)
(-0.00125974 8.72713e-05 0)
(-0.00129371 8.1708e-05 0)
(-0.00132541 7.6001e-05 0)
(-0.00135479 7.01603e-05 0)
(-0.0013818 6.4196e-05 0)
(-0.00140639 5.81185e-05 0)
(-0.00142851 5.19385e-05 0)
(-0.00144813 4.56668e-05 0)
(-0.00146521 3.93142e-05 0)
(-0.00147973 3.28919e-05 0)
(-0.00149165 2.64112e-05 0)
(-0.00150096 1.98834e-05 0)
(-0.00150763 1.33198e-05 0)
(-0.00151166 6.73207e-06 0)
(-0.00151304 1.31656e-07 0)
(-0.00151177 -6.46984e-06 0)
(-0.00150785 -1.30608e-05 0)
(-0.00150128 -1.96298e-05 0)
(-0.00149207 -2.61651e-05 0)
(-0.00148025 -3.26553e-05 0)
(-0.00146583 -3.90891e-05 0)
(-0.00144883 -4.5455e-05 0)
(-0.0014293 -5.1742e-05 0)
(-0.00140725 -5.79388e-05 0)
(-0.00138273 -6.40347e-05 0)
(-0.00135579 -7.00188e-05 0)
(-0.00132646 -7.58806e-05 0)
(-0.0012948 -8.16098e-05 0)
(-0.00126087 -8.71962e-05 0)
(-0.00122473 -9.26301e-05 0)
(-0.00118643 -9.79018e-05 0)
(-0.00114604 -0.000103002 0)
(-0.00110364 -0.000107922 0)
(-0.00105931 -0.000112652 0)
(-0.00101311 -0.000117185 0)
(-0.000965126 -0.000121512 0)
(-0.000915449 -0.000125626 0)
(-0.000864161 -0.000129519 0)
(-0.000811354 -0.000133185 0)
(-0.000757121 -0.000136617 0)
(-0.000701556 -0.000139809 0)
(-0.000644757 -0.000142755 0)
(-0.000586823 -0.00014545 0)
(-0.000527858 -0.00014789 0)
(-0.000467964 -0.000150069 0)
(-0.000407247 -0.000151985 0)
(-0.000345814 -0.000153633 0)
(-0.000283772 -0.000155011 0)
(-0.000221231 -0.000156116 0)
(-0.000158301 -0.000156947 0)
(-9.50921e-05 -0.000157502 0)
(-3.17177e-05 -0.000157779 0)
(3.17177e-05 -0.000157779 0)
(9.50921e-05 -0.000157502 0)
(0.000158301 -0.000156947 0)
(0.000221231 -0.000156116 0)
(0.000283772 -0.000155011 0)
(0.000345814 -0.000153633 0)
(0.000407247 -0.000151985 0)
(0.000467964 -0.000150069 0)
(0.000527858 -0.00014789 0)
(0.000586823 -0.00014545 0)
(0.000644756 -0.000142755 0)
(0.000701555 -0.000139809 0)
(0.000757121 -0.000136617 0)
(0.000811354 -0.000133185 0)
(0.000864161 -0.000129519 0)
(0.000915449 -0.000125626 0)
(0.000965126 -0.000121512 0)
(0.00101311 -0.000117185 0)
(0.00105931 -0.000112652 0)
(0.00110364 -0.000107922 0)
(0.00114604 -0.000103002 0)
(0.00118643 -9.79018e-05 0)
(0.00122473 -9.26301e-05 0)
(0.00126087 -8.71962e-05 0)
(0.0012948 -8.16098e-05 0)
(0.00132646 -7.58806e-05 0)
(0.00135579 -7.00188e-05 0)
(0.00138273 -6.40347e-05 0)
(0.00140725 -5.79388e-05 0)
(0.0014293 -5.1742e-05 0)
(0.00144883 -4.5455e-05 0)
(0.00146583 -3.90891e-05 0)
(0.00148025 -3.26553e-05 0)
(0.00149207 -2.61651e-05 0)
(0.00150128 -1.96298e-05 0)
(0.00150785 -1.30608e-05 0)
(0.00151177 -6.46984e-06 0)
(0.00151304 1.31659e-07 0)
(0.00151166 6.73207e-06 0)
(0.00150763 1.33198e-05 0)
(0.00150096 1.98834e-05 0)
(0.00149165 2.64112e-05 0)
(0.00147973 3.2892e-05 0)
(0.00146521 3.93142e-05 0)
(0.00144813 4.56668e-05 0)
(0.00142851 5.19385e-05 0)
(0.00140639 5.81185e-05 0)
(0.0013818 6.4196e-05 0)
(0.00135479 7.01603e-05 0)
(0.00132541 7.6001e-05 0)
(0.00129371 8.1708e-05 0)
(0.00125974 8.72713e-05 0)
(0.00122357 9.26813e-05 0)
(0.00118526 9.79285e-05 0)
(0.00114487 0.000103004 0)
(0.00110247 0.000107898 0)
(0.00105815 0.000112604 0)
(0.00101197 0.000117112 0)
(0.000964027 0.000121415 0)
(0.000914393 0.000125505 0)
(0.00086316 0.000129376 0)
(0.000810415 0.000133021 0)
(0.000756253 0.000136433 0)
(0.000700766 0.000139608 0)
(0.000644052 0.00014254 0)
(0.000586209 0.000145223 0)
(0.000527339 0.000147655 0)
(0.000467542 0.000149832 0)
(0.000406922 0.000151751 0)
(0.000345582 0.00015341 0)
(0.000283629 0.00015481 0)
(0.000221165 0.000155949 0)
(0.000158294 0.000156832 0)
(9.51187e-05 0.000157463 0)
(3.17354e-05 0.000157847 0)
(-3.19125e-05 0.000221427 0)
(-9.56495e-05 0.000220891 0)
(-0.000159178 0.000220006 0)
(-0.0002224 0.000218767 0)
(-0.000285213 0.000217168 0)
(-0.000347513 0.000215205 0)
(-0.000409195 0.000212877 0)
(-0.000470153 0.000210185 0)
(-0.000530284 0.000207132 0)
(-0.000589484 0.00020372 0)
(-0.000647649 0.000199955 0)
(-0.00070468 0.000195843 0)
(-0.000760477 0.00019139 0)
(-0.000814942 0.000186603 0)
(-0.000867981 0.00018149 0)
(-0.000919501 0.00017606 0)
(-0.000969412 0.000170322 0)
(-0.00101763 0.000164286 0)
(-0.00106406 0.000157962 0)
(-0.00110863 0.000151361 0)
(-0.00115126 0.000144495 0)
(-0.00119188 0.000137376 0)
(-0.00123041 0.000130015 0)
(-0.00126678 0.000122426 0)
(-0.00130094 0.000114622 0)
(-0.00133282 0.000106616 0)
(-0.00136237 9.84227e-05 0)
(-0.00138953 9.0056e-05 0)
(-0.00141425 8.15305e-05 0)
(-0.0014365 7.28611e-05 0)
(-0.00145623 6.40631e-05 0)
(-0.00147341 5.51517e-05 0)
(-0.00148801 4.61425e-05 0)
(-0.0015 3.70512e-05 0)
(-0.00150936 2.78939e-05 0)
(-0.00151607 1.86865e-05 0)
(-0.00152013 9.44507e-06 0)
(-0.00152152 1.85911e-07 0)
(-0.00152024 -9.07478e-06 0)
(-0.00151629 -1.83208e-05 0)
(-0.00150968 -2.75358e-05 0)
(-0.00150043 -3.67037e-05 0)
(-0.00148854 -4.58083e-05 0)
(-0.00147404 -5.48337e-05 0)
(-0.00145695 -6.3764e-05 0)
(-0.00143731 -7.25835e-05 0)
(-0.00141514 -8.12766e-05 0)
(-0.00139048 -8.9828e-05 0)
(-0.00136339 -9.82227e-05 0)
(-0.0013339 -0.000106446 0)
(-0.00130206 -0.000114483 0)
(-0.00126794 -0.00012232 0)
(-0.00123159 -0.000129943 0)
(-0.00119308 -0.000137338 0)
(-0.00115247 -0.000144493 0)
(-0.00110984 -0.000151394 0)
(-0.00106525 -0.00015803 0)
(-0.00101879 -0.000164389 0)
(-0.000970541 -0.000170459 0)
(-0.000920585 -0.00017623 0)
(-0.00086901 -0.000181692 0)
(-0.000815907 -0.000186834 0)
(-0.00076137 -0.000191649 0)
(-0.000705493 -0.000196126 0)
(-0.000648375 -0.00020026 0)
(-0.000590117 -0.00020404 0)
(-0.000530821 -0.000207463 0)
(-0.000470591 -0.00021052 0)
(-0.000409533 -0.000213208 0)
(-0.000347755 -0.00021552 0)
(-0.000285365 -0.000217453 0)
(-0.000222473 -0.000219004 0)
(-0.000159189 -0.000220169 0)
(-9.5626e-05 -0.000220947 0)
(-3.18958e-05 -0.000221337 0)
(3.18957e-05 -0.000221337 0)
(9.56259e-05 -0.000220947 0)
(0.000159189 -0.000220169 0)
(0.000222473 -0.000219004 0)
(0.000285365 -0.000217453 0)
(0.000347755 -0.00021552 0)
(0.000409533 -0.000213208 0)
(0.000470591 -0.00021052 0)
(0.000530821 -0.000207463 0)
(0.000590117 -0.00020404 0)
(0.000648375 -0.00020026 0)
(0.000705493 -0.000196126 0)
(0.00076137 -0.000191649 0)
(0.000815907 -0.000186834 0)
(0.00086901 -0.000181692 0)
(0.000920585 -0.00017623 0)
(0.000970541 -0.000170459 0)
(0.00101879 -0.000164389 0)
(0.00106525 -0.00015803 0)
(0.00110984 -0.000151394 0)
(0.00115247 -0.000144493 0)
(0.00119308 -0.000137338 0)
(0.00123159 -0.000129943 0)
(0.00126794 -0.00012232 0)
(0.00130206 -0.000114483 0)
(0.0013339 -0.000106446 0)
(0.00136339 -9.82227e-05 0)
(0.00139048 -8.9828e-05 0)
(0.00141514 -8.12766e-05 0)
(0.00143731 -7.25835e-05 0)
(0.00145695 -6.3764e-05 0)
(0.00147404 -5.48337e-05 0)
(0.00148854 -4.58083e-05 0)
(0.00150043 -3.67037e-05 0)
(0.00150968 -2.75358e-05 0)
(0.00151629 -1.83207e-05 0)
(0.00152024 -9.07477e-06 0)
(0.00152151 1.85917e-07 0)
(0.00152013 9.44508e-06 0)
(0.00151607 1.86865e-05 0)
(0.00150936 2.78939e-05 0)
(0.0015 3.70513e-05 0)
(0.00148801 4.61425e-05 0)
(0.00147341 5.51517e-05 0)
(0.00145623 6.40631e-05 0)
(0.0014365 7.28612e-05 0)
(0.00141425 8.15305e-05 0)
(0.00138953 9.0056e-05 0)
(0.00136237 9.84227e-05 0)
(0.00133282 0.000106616 0)
(0.00130094 0.000114622 0)
(0.00126678 0.000122426 0)
(0.00123041 0.000130015 0)
(0.00119188 0.000137376 0)
(0.00115126 0.000144495 0)
(0.00110863 0.000151362 0)
(0.00106406 0.000157962 0)
(0.00101763 0.000164286 0)
(0.000969412 0.000170322 0)
(0.000919501 0.00017606 0)
(0.000867981 0.00018149 0)
(0.000814942 0.000186603 0)
(0.000760476 0.00019139 0)
(0.000704679 0.000195843 0)
(0.000647649 0.000199956 0)
(0.000589483 0.00020372 0)
(0.000530284 0.000207132 0)
(0.000470153 0.000210185 0)
(0.000409194 0.000212877 0)
(0.000347512 0.000215205 0)
(0.000285212 0.000217168 0)
(0.000222399 0.000218767 0)
(0.000159177 0.000220007 0)
(9.56487e-05 0.000220893 0)
(3.19122e-05 0.000221429 0)
(-3.21419e-05 0.000285415 0)
(-9.63372e-05 0.000284726 0)
(-0.000160323 0.000283584 0)
(-0.000224001 0.000281987 0)
(-0.000287267 0.000279925 0)
(-0.000350016 0.000277394 0)
(-0.000412142 0.000274394 0)
(-0.000473539 0.000270924 0)
(-0.000534104 0.000266988 0)
(-0.00059373 0.000262591 0)
(-0.000652314 0.000257739 0)
(-0.000709756 0.000252438 0)
(-0.000765955 0.000246698 0)
(-0.000820813 0.000240528 0)
(-0.000874235 0.000233938 0)
(-0.000926126 0.000226939 0)
(-0.000976397 0.000219543 0)
(-0.00102496 0.000211762 0)
(-0.00107173 0.000203611 0)
(-0.00111662 0.000195103 0)
(-0.00115956 0.000186253 0)
(-0.00120047 0.000177076 0)
(-0.00123928 0.000167588 0)
(-0.00127592 0.000157806 0)
(-0.00131032 0.000147747 0)
(-0.00134243 0.000137428 0)
(-0.00137219 0.000126867 0)
(-0.00139955 0.000116082 0)
(-0.00142446 0.000105093 0)
(-0.00144687 9.39187e-05 0)
(-0.00146674 8.25782e-05 0)
(-0.00148404 7.10916e-05 0)
(-0.00149875 5.94789e-05 0)
(-0.00151083 4.77605e-05 0)
(-0.00152025 3.59569e-05 0)
(-0.00152702 2.40886e-05 0)
(-0.0015311 1.21766e-05 0)
(-0.0015325 2.41677e-07 0)
(-0.00153122 -1.16952e-05 0)
(-0.00152724 -2.36132e-05 0)
(-0.00152059 -3.54913e-05 0)
(-0.00151127 -4.73086e-05 0)
(-0.0014993 -5.90445e-05 0)
(-0.00148469 -7.06782e-05 0)
(-0.00146748 -8.21893e-05 0)
(-0.0014477 -9.35576e-05 0)
(-0.00142537 -0.000104763 0)
(-0.00140054 -0.000115786 0)
(-0.00137325 -0.000126607 0)
(-0.00134354 -0.000137206 0)
(-0.00131148 -0.000147566 0)
(-0.00127711 -0.000157668 0)
(-0.0012405 -0.000167494 0)
(-0.00120171 -0.000177026 0)
(-0.00116081 -0.000186249 0)
(-0.00111787 -0.000195145 0)
(-0.00107296 -0.000203699 0)
(-0.00102616 -0.000211895 0)
(-0.000977566 -0.00021972 0)
(-0.000927249 -0.000227159 0)
(-0.000875301 -0.000234199 0)
(-0.000821814 -0.000240828 0)
(-0.000766882 -0.000247034 0)
(-0.000710601 -0.000252806 0)
(-0.00065307 -0.000258133 0)
(-0.00059439 -0.000263007 0)
(-0.000534665 -0.000267418 0)
(-0.000473999 -0.00027136 0)
(-0.000412499 -0.000274824 0)
(-0.000350274 -0.000277804 0)
(-0.000287432 -0.000280296 0)
(-0.000224084 -0.000282295 0)
(-0.000160342 -0.000283797 0)
(-9.63186e-05 -0.0002848 0)
(-3.21268e-05 -0.000285302 0)
(3.21268e-05 -0.000285302 0)
(9.63185e-05 -0.0002848 0)
(0.000160342 -0.000283797 0)
(0.000224084 -0.000282295 0)
(0.000287432 -0.000280296 0)
(0.000350274 -0.000277804 0)
(0.000412499 -0.000274824 0)
(0.000473999 -0.00027136 0)
(0.000534665 -0.000267418 0)
(0.00059439 -0.000263007 0)
(0.00065307 -0.000258133 0)
(0.000710601 -0.000252806 0)
(0.000766882 -0.000247034 0)
(0.000821814 -0.000240828 0)
(0.000875301 -0.000234199 0)
(0.000927249 -0.000227159 0)
(0.000977566 -0.00021972 0)
(0.00102616 -0.000211895 0)
(0.00107296 -0.000203699 0)
(0.00111787 -0.000195145 0)
(0.00116081 -0.000186249 0)
(0.00120171 -0.000177026 0)
(0.0012405 -0.000167494 0)
(0.00127711 -0.000157668 0)
(0.00131148 -0.000147566 0)
(0.00134354 -0.000137206 0)
(0.00137325 -0.000126607 0)
(0.00140054 -0.000115786 0)
(0.00142537 -0.000104763 0)
(0.0014477 -9.35576e-05 0)
(0.00146748 -8.21893e-05 0)
(0.00148469 -7.06782e-05 0)
(0.0014993 -5.90445e-05 0)
(0.00151127 -4.73086e-05 0)
(0.00152059 -3.54913e-05 0)
(0.00152724 -2.36132e-05 0)
(0.00153122 -1.16952e-05 0)
(0.0015325 2.41686e-07 0)
(0.0015311 1.21766e-05 0)
(0.00152702 2.40886e-05 0)
(0.00152025 3.59569e-05 0)
(0.00151082 4.77605e-05 0)
(0.00149875 5.94789e-05 0)
(0.00148404 7.10916e-05 0)
(0.00146674 8.25782e-05 0)
(0.00144686 9.39187e-05 0)
(0.00142446 0.000105093 0)
(0.00139955 0.000116082 0)
(0.00137219 0.000126867 0)
(0.00134243 0.000137428 0)
(0.00131032 0.000147747 0)
(0.00127592 0.000157806 0)
(0.00123928 0.000167589 0)
(0.00120047 0.000177076 0)
(0.00115956 0.000186253 0)
(0.00111662 0.000195103 0)
(0.00107173 0.000203611 0)
(0.00102496 0.000211762 0)
(0.000976397 0.000219543 0)
(0.000926126 0.000226939 0)
(0.000874234 0.000233938 0)
(0.000820813 0.000240528 0)
(0.000765955 0.000246698 0)
(0.000709756 0.000252438 0)
(0.000652314 0.000257739 0)
(0.000593729 0.000262591 0)
(0.000534103 0.000266988 0)
(0.000473539 0.000270924 0)
(0.000412141 0.000274394 0)
(0.000350015 0.000277395 0)
(0.000287266 0.000279926 0)
(0.000224 0.000281987 0)
(0.000160323 0.000283585 0)
(9.63367e-05 0.000284727 0)
(3.21417e-05 0.000285416 0)
(-3.24254e-05 0.000349915 0)
(-9.71868e-05 0.000349071 0)
(-0.000161737 0.000347672 0)
(-0.000225977 0.000345713 0)
(-0.000289802 0.000343185 0)
(-0.000353105 0.000340083 0)
(-0.000415779 0.000336404 0)
(-0.000477719 0.00033215 0)
(-0.000538818 0.000327324 0)
(-0.000598971 0.000321934 0)
(-0.000658073 0.000315985 0)
(-0.000716023 0.000309487 0)
(-0.000772718 0.00030245 0)
(-0.000828061 0.000294885 0)
(-0.000881955 0.000286806 0)
(-0.000934305 0.000278225 0)
(-0.000985021 0.000269158 0)
(-0.00103401 0.00025962 0)
(-0.0010812 0.000249627 0)
(-0.00112649 0.000239196 0)
(-0.00116981 0.000228346 0)
(-0.00121108 0.000217096 0)
(-0.00125023 0.000205464 0)
(-0.00128719 0.000193472 0)
(-0.0013219 0.000181139 0)
(-0.0013543 0.000168488 0)
(-0.00138432 0.00015554 0)
(-0.00141192 0.000142319 0)
(-0.00143705 0.000128846 0)
(-0.00145966 0.000115147 0)
(-0.00147971 0.000101243 0)
(-0.00149717 8.71609e-05 0)
(-0.00151201 7.29239e-05 0)
(-0.00152419 5.85572e-05 0)
(-0.00153371 4.40861e-05 0)
(-0.00154053 2.95357e-05 0)
(-0.00154465 1.49316e-05 0)
(-0.00154607 2.99393e-07 0)
(-0.00154477 -1.43353e-05 0)
(-0.00154077 -2.89467e-05 0)
(-0.00153406 -4.35093e-05 0)
(-0.00152465 -5.79974e-05 0)
(-0.00151258 -7.23856e-05 0)
(-0.00149785 -8.66486e-05 0)
(-0.00148048 -0.000100761 0)
(-0.00146052 -0.000114699 0)
(-0.001438 -0.000128437 0)
(-0.00141295 -0.000141951 0)
(-0.00138542 -0.000155218 0)
(-0.00135545 -0.000168213 0)
(-0.00132311 -0.000180914 0)
(-0.00128844 -0.000193299 0)
(-0.0012515 -0.000205346 0)
(-0.00121237 -0.000217033 0)
(-0.0011711 -0.00022834 0)
(-0.00112778 -0.000239247 0)
(-0.00108248 -0.000249734 0)
(-0.00103527 -0.000259783 0)
(-0.000986239 -0.000269377 0)
(-0.000935476 -0.000278497 0)
(-0.000883068 -0.000287129 0)
(-0.000829107 -0.000295256 0)
(-0.000773688 -0.000302865 0)
(-0.000716908 -0.000309941 0)
(-0.000658867 -0.000316473 0)
(-0.000599666 -0.000322448 0)
(-0.000539411 -0.000327857 0)
(-0.000478207 -0.000332689 0)
(-0.000416161 -0.000336936 0)
(-0.000353383 -0.00034059 0)
(-0.000289984 -0.000343646 0)
(-0.000226074 -0.000346096 0)
(-0.000161766 -0.000347938 0)
(-9.71737e-05 -0.000349168 0)
(-3.24121e-05 -0.000349783 0)
(3.2412e-05 -0.000349783 0)
(9.71737e-05 -0.000349168 0)
(0.000161766 -0.000347938 0)
(0.000226074 -0.000346096 0)
(0.000289984 -0.000343646 0)
(0.000353383 -0.00034059 0)
(0.000416161 -0.000336936 0)
(0.000478207 -0.000332689 0)
(0.000539411 -0.000327857 0)
(0.000599666 -0.000322448 0)
(0.000658867 -0.000316473 0)
(0.000716908 -0.000309941 0)
(0.000773688 -0.000302865 0)
(0.000829107 -0.000295256 0)
(0.000883068 -0.000287129 0)
(0.000935476 -0.000278497 0)
(0.000986239 -0.000269377 0)
(0.00103527 -0.000259783 0)
(0.00108248 -0.000249734 0)
(0.00112778 -0.000239247 0)
(0.0011711 -0.00022834 0)
(0.00121237 -0.000217033 0)
(0.0012515 -0.000205346 0)
(0.00128844 -0.000193299 0)
(0.00132311 -0.000180914 0)
(0.00135545 -0.000168213 0)
(0.00138542 -0.000155218 0)
(0.00141295 -0.000141951 0)
(0.001438 -0.000128437 0)
(0.00146052 -0.000114699 0)
(0.00148048 -0.000100761 0)
(0.00149785 -8.66486e-05 0)
(0.00151258 -7.23856e-05 0)
(0.00152465 -5.79974e-05 0)
(0.00153406 -4.35092e-05 0)
(0.00154077 -2.89467e-05 0)
(0.00154477 -1.43352e-05 0)
(0.00154607 2.99407e-07 0)
(0.00154465 1.49316e-05 0)
(0.00154053 2.95357e-05 0)
(0.00153371 4.40861e-05 0)
(0.00152419 5.85573e-05 0)
(0.00151201 7.29239e-05 0)
(0.00149717 8.71609e-05 0)
(0.00147971 0.000101243 0)
(0.00145966 0.000115147 0)
(0.00143705 0.000128846 0)
(0.00141192 0.000142319 0)
(0.00138432 0.00015554 0)
(0.0013543 0.000168488 0)
(0.0013219 0.000181139 0)
(0.00128719 0.000193472 0)
(0.00125023 0.000205464 0)
(0.00121108 0.000217096 0)
(0.00116981 0.000228346 0)
(0.00112649 0.000239196 0)
(0.0010812 0.000249627 0)
(0.00103401 0.00025962 0)
(0.000985021 0.000269158 0)
(0.000934305 0.000278226 0)
(0.000881955 0.000286806 0)
(0.000828061 0.000294885 0)
(0.000772718 0.00030245 0)
(0.000716022 0.000309487 0)
(0.000658073 0.000315985 0)
(0.000598971 0.000321934 0)
(0.000538818 0.000327325 0)
(0.000477719 0.00033215 0)
(0.000415779 0.000336404 0)
(0.000353104 0.000340083 0)
(0.000289801 0.000343186 0)
(0.000225977 0.000345714 0)
(0.000161737 0.000347673 0)
(9.71865e-05 0.000349072 0)
(3.24252e-05 0.000349916 0)
(-3.27639e-05 0.000415036 0)
(-9.82015e-05 0.000414036 0)
(-0.000163426 0.000412377 0)
(-0.000228337 0.000410054 0)
(-0.000292828 0.000407055 0)
(-0.000356793 0.000403375 0)
(-0.000420122 0.000399011 0)
(-0.00048271 0.000393966 0)
(-0.000544447 0.000388243 0)
(-0.000605229 0.000381849 0)
(-0.000664949 0.000374793 0)
(-0.000723504 0.000367086 0)
(-0.000780793 0.000358739 0)
(-0.000836714 0.000349767 0)
(-0.000891172 0.000340185 0)
(-0.00094407 0.000330007 0)
(-0.000995317 0.000319253 0)
(-0.00104482 0.00030794 0)
(-0.0010925 0.000296087 0)
(-0.00113826 0.000283716 0)
(-0.00118204 0.000270847 0)
(-0.00122374 0.000257502 0)
(-0.00126331 0.000243706 0)
(-0.00130066 0.000229482 0)
(-0.00133573 0.000214855 0)
(-0.00136847 0.000199849 0)
(-0.00139881 0.000184492 0)
(-0.0014267 0.00016881 0)
(-0.00145209 0.00015283 0)
(-0.00147494 0.000136581 0)
(-0.0014952 0.00012009 0)
(-0.00151285 0.000103387 0)
(-0.00152784 8.65005e-05 0)
(-0.00154015 6.946e-05 0)
(-0.00154977 5.22956e-05 0)
(-0.00155667 3.50372e-05 0)
(-0.00156084 1.7715e-05 0)
(-0.00156227 3.59524e-07 0)
(-0.00156096 -1.69989e-05 0)
(-0.00155691 -3.43299e-05 0)
(-0.00155013 -5.16029e-05 0)
(-0.00154064 -6.87877e-05 0)
(-0.00152843 -8.5854e-05 0)
(-0.00151355 -0.000102772 0)
(-0.00149601 -0.000119511 0)
(-0.00147584 -0.000136043 0)
(-0.00145308 -0.000152338 0)
(-0.00142777 -0.000168368 0)
(-0.00139995 -0.000184104 0)
(-0.00136967 -0.000199518 0)
(-0.00133699 -0.000214584 0)
(-0.00130196 -0.000229274 0)
(-0.00126464 -0.000243564 0)
(-0.00122509 -0.000257426 0)
(-0.0011834 -0.000270838 0)
(-0.00113962 -0.000283775 0)
(-0.00109384 -0.000296215 0)
(-0.00104614 -0.000308135 0)
(-0.000996596 -0.000319514 0)
(-0.0009453 -0.000330332 0)
(-0.000892343 -0.000340571 0)
(-0.000837816 -0.000350211 0)
(-0.000781815 -0.000359236 0)
(-0.000724439 -0.00036763 0)
(-0.000665788 -0.000375377 0)
(-0.000605966 -0.000382465 0)
(-0.000545078 -0.000388881 0)
(-0.000483231 -0.000394612 0)
(-0.000420534 -0.00039965 0)
(-0.000357096 -0.000403985 0)
(-0.000293031 -0.000407609 0)
(-0.000228449 -0.000410516 0)
(-0.000163466 -0.000412701 0)
(-9.81949e-05 -0.000414159 0)
(-3.27527e-05 -0.000414889 0)
(3.27526e-05 -0.000414889 0)
(9.81948e-05 -0.000414159 0)
(0.000163466 -0.000412701 0)
(0.000228449 -0.000410516 0)
(0.000293031 -0.000407609 0)
(0.000357096 -0.000403985 0)
(0.000420534 -0.00039965 0)
(0.000483231 -0.000394612 0)
(0.000545078 -0.000388881 0)
(0.000605966 -0.000382465 0)
(0.000665788 -0.000375377 0)
(0.000724439 -0.00036763 0)
(0.000781815 -0.000359236 0)
(0.000837815 -0.000350211 0)
(0.000892343 -0.000340571 0)
(0.0009453 -0.000330332 0)
(0.000996596 -0.000319514 0)
(0.00104614 -0.000308135 0)
(0.00109384 -0.000296215 0)
(0.00113962 -0.000283775 0)
(0.0011834 -0.000270838 0)
(0.00122509 -0.000257426 0)
(0.00126464 -0.000243564 0)
(0.00130196 -0.000229274 0)
(0.00133699 -0.000214584 0)
(0.00136967 -0.000199518 0)
(0.00139995 -0.000184104 0)
(0.00142777 -0.000168368 0)
(0.00145308 -0.000152338 0)
(0.00147584 -0.000136043 0)
(0.00149601 -0.000119511 0)
(0.00151355 -0.000102772 0)
(0.00152843 -8.58539e-05 0)
(0.00154064 -6.87877e-05 0)
(0.00155013 -5.16029e-05 0)
(0.00155691 -3.43299e-05 0)
(0.00156096 -1.69989e-05 0)
(0.00156227 3.59543e-07 0)
(0.00156084 1.77151e-05 0)
(0.00155667 3.50372e-05 0)
(0.00154977 5.22956e-05 0)
(0.00154015 6.94601e-05 0)
(0.00152784 8.65005e-05 0)
(0.00151285 0.000103387 0)
(0.0014952 0.00012009 0)
(0.00147494 0.000136581 0)
(0.00145209 0.00015283 0)
(0.0014267 0.00016881 0)
(0.00139881 0.000184492 0)
(0.00136847 0.000199849 0)
(0.00133573 0.000214855 0)
(0.00130066 0.000229482 0)
(0.00126331 0.000243706 0)
(0.00122374 0.000257503 0)
(0.00118204 0.000270847 0)
(0.00113826 0.000283716 0)