/*--------------------------------*- C++ -*----------------------------------*\
| =========                 |                                                 |
| \\      /  F ield         | OpenFOAM: The Open Source CFD Toolbox           |
|  \\    /   O peration     | Version:  2306                                  |
|   \\  /    A nd           | Website:  www.openfoam.com                      |
|    \\/     M anipulation  |                                                 |
\*---------------------------------------------------------------------------*/
FoamFile
{
    version     2.0;
    format      ascii;
    arch        "LSB;label=32;scalar=64";
    class       volVectorField;
    location    "0.21";
    object      U;
}
// * * * * * * * * * * * * * * * * * * * * * * * * * * * * * * * * * * * * * //

dimensions      [0 1 -1 0 0 0 0];

internalField   nonuniform List<vector> 
6400
(
(0.0015465341 0.001077927 1.5505565e-19)
(0.0015507576 0.0010111717 3.4176807e-20)
(0.0015522433 0.0009457653 -2.5136323e-20)
(0.0015511797 0.00088177219 4.0812012e-20)
(0.0015477469 0.00081924525 -3.8720094e-20)
(0.0015421173 0.00075822653 5.6697419e-20)
(0.0015344549 0.00069874849 1.5307664e-20)
(0.0015249159 0.00064083502 5.354927e-20)
(0.0015136484 0.00058450193 3.8761286e-20)
(0.0015007929 0.00052975819 2.9401767e-20)
(0.001486482 0.00047660634 6.6885629e-21)
(0.0014708413 0.00042504341 6.5866041e-20)
(0.001453989 0.00037506152 2.0540033e-20)
(0.0014360364 0.0003266483 -3.0952635e-20)
(0.0014170882 0.00027978767 -1.971965e-20)
(0.0013972424 0.00023446009 1.4219243e-20)
(0.0013765912 0.00019064322 5.7830375e-21)
(0.0013552207 0.0001483122 3.3780015e-20)
(0.0013332113 0.00010744015 -1.9562699e-20)
(0.0013106376 6.7998137e-05 -1.6106384e-20)
(0.0012875686 2.9956341e-05 1.2280332e-20)
(0.0012640732 -6.7152261e-06 -2.058208e-20)
(0.0012402114 -4.2051257e-05 1.0922829e-20)
(0.0012160364 -7.6084072e-05 -1.0467498e-20)
(0.0011916011 -0.00010884664 -2.1727231e-20)
(0.0011669539 -0.00014037282 1.3715174e-20)
(0.0011421392 -0.00017069662 7.6424727e-21)
(0.0011171977 -0.00019985196 1.4500687e-20)
(0.0010921673 -0.00022787257 6.8544315e-21)
(0.0010670823 -0.00025479224 -1.7023828e-20)
(0.0010419743 -0.000280644 -5.5280189e-22)
(0.0010168724 -0.00030546106 4.2011334e-20)
(0.00099180294 -0.00032927565 4.2574751e-20)
(0.00096678979 -0.00035211977 -2.8462501e-21)
(0.00094185465 -0.00037402451 -1.1292993e-20)
(0.00091701721 -0.00039502073 2.9845933e-21)
(0.00089229514 -0.00041513834 1.7506874e-21)
(0.00086770424 -0.00043440641 2.2916106e-20)
(0.00084325867 -0.00045285368 4.2577508e-21)
(0.00081897091 -0.0004705079 -3.0545065e-20)
(0.00079485198 -0.0004873961 -4.7259926e-21)
(0.00077091167 -0.00050354441 1.9556734e-20)
(0.00074715834 -0.00051897824 8.568454e-21)
(0.00072359911 -0.00053372216 -8.5088992e-23)
(0.00070024018 -0.00054780012 -8.1557691e-21)
(0.00067708657 -0.00056123508 -4.7591439e-21)
(0.00065414228 -0.00057404933 1.8458274e-20)
(0.00063141064 -0.00058626433 2.4600446e-20)
(0.00060889412 -0.00059790067 -1.2692851e-20)
(0.00058659432 -0.00060897841 -1.0065853e-20)
(0.0005645123 -0.00061951651 -1.136249e-21)
(0.00054264845 -0.00062953343 -1.8681156e-22)
(0.00052100241 -0.00063904702 1.725549e-20)
(0.00049957344 -0.000648074 1.2744686e-20)
(0.00047836038 -0.00065663073 -9.0747539e-21)
(0.00045736147 -0.00066473263 1.3314005e-22)
(0.00043657456 -0.00067239446 6.3739349e-21)
(0.00041599719 -0.00067963053 1.0601981e-20)
(0.00039562659 -0.00068645437 -9.7276704e-22)
(0.00037545968 -0.00069287875 -1.6975021e-20)
(0.00035549294 -0.0006989159 -8.5034957e-22)
(0.00033572281 -0.00070457752 1.7193881e-21)
(0.00031614539 -0.00070987452 8.5778392e-21)
(0.00029675658 -0.00071481736 2.4095334e-21)
(0.00027755225 -0.0007194159 -5.4047848e-21)
(0.00025852794 -0.00072367943 -1.7950912e-21)
(0.00023967916 -0.00072761661 2.4135068e-23)
(0.00022100129 -0.00073123563 8.6958163e-21)
(0.00020248966 -0.00073454423 3.5915655e-21)
(0.00018413949 -0.00073754932 -7.8019636e-21)
(0.00016594588 -0.00074025777 6.5663029e-21)
(0.00014790391 -0.00074267564 4.0105825e-21)
(0.00013000874 -0.00074480838 -2.7856918e-22)
(0.00011225542 -0.0007466614 1.5294545e-21)
(9.4638981e-05 -0.00074823926 4.1933393e-21)
(7.7154881e-05 -0.00074954668 1.0499417e-20)
(5.9798645e-05 -0.00075058881 -2.7219301e-22)
(4.255942e-05 -0.00075137288 -3.9496537e-21)
(2.5420001e-05 -0.00075191256 -6.6702437e-21)
(8.4150568e-06 -0.00075222391 -1.1691175e-20)
(0.0014806115 0.001052821 2.0145578e-20)
(0.0014860663 0.00098903332 2.2623094e-20)
(0.0014888564 0.00092643719 1.1439889e-20)
(0.001489158 0.00086510123 -8.2135275e-20)
(0.0014871404 0.00080508297 -8.4518106e-20)
(0.0014829659 0.00074642922 -1.0791667e-21)
(0.0014767893 0.00068917754 -9.9633812e-21)
(0.0014687586 0.00063335702 1.971801e-20)
(0.0014590146 0.00057898889 -4.371587e-20)
(0.0014476909 0.00052608738 -1.030318e-20)
(0.0014349144 0.00047466034 1.0321604e-21)
(0.0014208054 0.00042471025 4.5894232e-20)
(0.0014054772 0.00037623445 -9.1764874e-21)
(0.001389037 0.00032922576 -8.4830416e-20)
(0.0013715859 0.00028367314 -2.9143539e-20)
(0.0013532188 0.00023956204 6.6761321e-21)
(0.0013340251 0.00019687496 -1.1247379e-21)
(0.0013140884 0.00015559176 -7.6595682e-21)
(0.0012934872 0.00011569009 -4.4071484e-20)
(0.0012722946 7.7145531e-05 -9.4562152e-21)
(0.0012505787 3.9932752e-05 4.8527049e-21)
(0.0012284052 4.0255859e-06 -3.0948643e-21)
(0.0012058343 -3.0609569e-05 4.6917194e-21)
(0.0011829197 -6.3997832e-05 -1.2554769e-20)
(0.0011597129 -9.6169186e-05 -8.1471265e-21)
(0.0011362618 -0.00012715448 1.0525015e-20)
(0.0011126108 -0.00015698454 -9.1399562e-22)
(0.0010888007 -0.00018569018 7.3405641e-21)
(0.0010648691 -0.00021330233 -2.3233964e-21)
(0.001040851 -0.00023985193 1.0679909e-20)
(0.0010167781 -0.00026536944 2.4604732e-20)
(0.00099267963 -0.00028988553 2.0522446e-20)
(0.0009685825 -0.00031343015 2.2281559e-20)
(0.00094451117 -0.00033603303 -3.9282658e-21)
(0.00092048795 -0.0003577232 -4.9310895e-21)
(0.00089653308 -0.0003785295 7.1461185e-21)
(0.00087266488 -0.00039848003 4.2845458e-21)
(0.00084889975 -0.00041760199 8.0434049e-21)
(0.00082525252 -0.00043592251 -9.3401082e-21)
(0.00080173654 -0.00045346781 -1.1322534e-20)
(0.00077836354 -0.00047026343 2.8449103e-21)
(0.00075514388 -0.00048633408 9.4664607e-21)
(0.00073208677 -0.00050170394 5.8566715e-21)
(0.00070920011 -0.00051639625 3.6058623e-21)
(0.00068649078 -0.00053043402 4.1590038e-21)
(0.00066396464 -0.00054383892 7.6660909e-21)
(0.0006416265 -0.00055663228 1.4868926e-20)
(0.00061948037 -0.00056883473 1.678537e-20)
(0.00059752948 -0.00058046595 5.5368049e-21)
(0.00057577624 -0.00059154506 6.1962723e-21)
(0.00055422228 -0.00060209036 1.0794074e-21)
(0.00053286875 -0.00061211961 -8.2473718e-21)
(0.0005117161 -0.00062164982 5.0119634e-21)
(0.00049076424 -0.00063069729 1.2254022e-20)
(0.0004700126 -0.00063927777 9.6361482e-21)
(0.00044946017 -0.00064740598 1.4817013e-20)
(0.00042910553 -0.00065509635 9.2528566e-21)
(0.00040894686 -0.00066236266 1.6515614e-20)
(0.00038898195 -0.00066921803 5.0561214e-21)
(0.0003692083 -0.00067567479 -1.6726636e-21)
(0.00034962311 -0.00068174476 5.8514409e-21)
(0.00033022333 -0.0006874394 -4.7061956e-21)
(0.00031100565 -0.0006927692 6.0011203e-21)
(0.00029196666 -0.00069774448 9.1589448e-21)
(0.0002731027 -0.00070237476 8.458521e-21)
(0.00025440988 -0.00070666897 1.3609683e-21)
(0.00023588425 -0.00071063573 -3.261087e-21)
(0.00021752172 -0.00071428293 4.3664081e-21)
(0.00019931807 -0.00071761814 6.1125029e-22)
(0.00018126905 -0.0007206482 4.1396748e-21)
(0.00016337035 -0.00072337963 8.0061115e-21)
(0.00014561745 -0.00072581853 3.463106e-21)
(0.00012800596 -0.00072797028 6.6636245e-21)
(0.00011053144 -0.00072984006 3.3586001e-21)
(9.3189384e-05 -0.00073143241 6.4433909e-21)
(7.5975728e-05 -0.00073275205 5.103472e-21)
(5.8886386e-05 -0.00073380399 2.1817517e-21)
(4.191106e-05 -0.00073459547 5.7806708e-21)
(2.5033137e-05 -0.00073514029 2.2968201e-21)
(8.2870546e-06 -0.00073545464 -8.3704943e-21)
(0.0014176843 0.0010274061 3.4525544e-20)
(0.0014242174 0.00096648061 -1.3883177e-20)
(0.0014281624 0.00090660147 -5.3443752e-20)
(0.0014296838 0.00084784063 -5.0695196e-20)
(0.0014289402 0.00079025928 -3.0882558e-20)
(0.001426084 0.00073390835 -3.4263042e-20)
(0.0014212614 0.00067882964 -4.7588342e-20)
(0.001414612 0.00062505675 -5.8009786e-20)
(0.0014062693 0.00057261556 -5.2015905e-20)
(0.0013963606 0.00052152492 -4.6962313e-21)
(0.0013850066 0.00047179748 8.8804032e-22)
(0.0013723223 0.00042344053 -3.7478782e-20)
(0.0013584163 0.00037645611 -1.1276889e-19)
(0.0013433916 0.00033084176 -7.9340874e-20)
(0.0013273455 0.00028659101 2.9116258e-20)
(0.0013103696 0.00024369388 5.3074897e-21)
(0.0012925504 0.00020213733 -4.2098494e-20)
(0.0012739692 0.00016190551 -5.7299733e-20)
(0.0012547022 0.00012298022 -4.8432406e-20)
(0.0012348211 8.5341284e-05 1.5371403e-21)
(0.0012143926 4.8966846e-05 8.9027406e-21)
(0.0011934775 1.3834089e-05 -2.1015706e-20)
(0.0011721379 -2.0084567e-05 -3.81513e-20)
(0.0011504294 -5.2812476e-05 -3.5432874e-21)
(0.0011283999 -8.4376562e-05 -3.5860109e-21)
(0.0011060966 -0.00011480404 3.6297596e-22)
(0.0010835639 -0.00014412288 -2.3113774e-20)
(0.0010608426 -0.00017236075 -3.2470892e-20)
(0.0010379703 -0.00019954597 -1.7452453e-20)
(0.0010149819 -0.00022570665 1.2116218e-20)
(0.00099190943 -0.00025087082 1.5399389e-20)
(0.00096878238 -0.00027506676 -1.9958154e-20)
(0.00094562785 -0.00029832212 -1.8801456e-20)
(0.00092247068 -0.00032066454 5.5610916e-21)
(0.00089933365 -0.00034212106 3.1537728e-21)
(0.00087623751 -0.00036271847 -2.0692274e-20)
(0.000853201 -0.00038248311 -3.3908711e-20)
(0.00083024122 -0.00040144043 -8.3159077e-21)
(0.00080737368 -0.00041961605 -1.0341515e-20)
(0.00078461218 -0.00043703451 -1.7346392e-20)
(0.00076196909 -0.00045371997 1.0384801e-20)
(0.00073945552 -0.00046969581 -5.5096496e-21)
(0.00071708133 -0.00048498497 -1.1068036e-20)
(0.0006948552 -0.0004996094 3.5047297e-21)
(0.00067278461 -0.00051359102 -2.4993781e-21)
(0.00065087601 -0.00052695046 -1.3724354e-21)
(0.00062913502 -0.00053970801 -3.9775853e-21)
(0.00060756633 -0.00055188341 -1.1564748e-20)
(0.00058617381 -0.00056349552 2.0926257e-21)
(0.00056496059 -0.00057456251 1.8743798e-20)
(0.00054392903 -0.00058510194 5.8918369e-21)
(0.00052308082 -0.00059513095 -1.6936573e-20)
(0.00050241715 -0.00060466579 -1.1786108e-20)
(0.00048193865 -0.0006137222 -2.3190797e-22)
(0.00046164531 -0.00062231524 3.7292628e-21)
(0.00044153675 -0.00063045919 9.8293587e-21)
(0.00042161223 -0.00063816802 1.6045e-22)
(0.00040187047 -0.00064545491 4.916235e-21)
(0.00038230985 -0.00065233254 -1.6641108e-21)
(0.00036292855 -0.000658813 -2.5909971e-21)
(0.00034372434 -0.00066490757 7.698074e-21)
(0.00032469472 -0.0006706274 -9.279e-21)
(0.00030583701 -0.00067598273 1.1020585e-21)
(0.00028714823 -0.00068098352 2.0235774e-21)
(0.00026862521 -0.00068563906 1.7958023e-21)
(0.0002502647 -0.00068995798 6.4433231e-22)
(0.00023206322 -0.0006939487 -6.9250827e-21)
(0.0002140172 -0.00069761891 -1.7306724e-21)
(0.00019612294 -0.000700976 -1.6247193e-21)
(0.00017837669 -0.00070402672 1.0069578e-21)
(0.00016077458 -0.00070677727 2.0008264e-21)
(0.00014331259 -0.00070923367 -2.7988239e-21)
(0.00012598675 -0.0007114013 2.0765516e-21)
(0.0001087931 -0.00071328515 -3.4196106e-21)
(9.1727592e-05 -0.00071488972 -2.6517313e-21)
(7.4786541e-05 -0.00071621964 -2.7820736e-21)
(5.7966284e-05 -0.00071727982 1.0180768e-21)
(4.1257079e-05 -0.00071807764 1.6332867e-22)
(2.4642918e-05 -0.00071862677 -1.176787e-21)
(8.1579476e-06 -0.00071894369 -2.9568138e-21)
(0.0013576403 0.0010017937 7.2265889e-20)
(0.0013651111 0.00094362451 -2.3740908e-20)
(0.0013700729 0.00088636799 -2.1761799e-20)
(0.001372679 0.00083009861 9.5958562e-21)
(0.0013730779 0.00077488038 2.6567218e-20)
(0.0013714124 0.00072076764 -3.3135729e-20)
(0.00136782 0.00066780583 -5.8694419e-20)
(0.0013624326 0.00061603233 -5.3400359e-20)
(0.0013553763 0.00056547689 -3.8349324e-22)
(0.0013467719 0.00051616254 -1.6537122e-20)
(0.0013367344 0.00046810617 -3.5350738e-20)
(0.0013253731 0.00042131928 -4.1808454e-20)
(0.0013127922 0.00037580804 -1.1686513e-20)
(0.0012990903 0.00033157436 -4.6668158e-21)
(0.0012843609 0.00028861592 -3.6017906e-21)
(0.0012686922 0.00024692689 -8.0634292e-21)
(0.0012521677 0.00020649824 2.10081e-21)
(0.001234866 0.00016731809 2.3279316e-20)
(0.0012168613 0.00012937211 -7.6599484e-21)
(0.001198223 9.2644006e-05 1.4009109e-20)
(0.0011790162 5.7114875e-05 -1.3535098e-20)
(0.0011593013 2.2765166e-05 -1.7113965e-20)
(0.0011391385 -1.0425675e-05 7.2132206e-21)
(0.0011185812 -4.2480822e-05 1.4237419e-21)
(0.0010976772 -7.3424527e-05 -2.8002225e-21)
(0.001076474 -0.00010328008 -9.2451924e-21)
(0.001055015 -0.00013207264 -2.4806897e-20)
(0.0010333406 -0.0001598271 -3.0921478e-21)
(0.0010114885 -0.00018656907 6.9854642e-21)
(0.00098949313 -0.00021232412 1.5240808e-20)
(0.00096738677 -0.00023711797 2.7268198e-20)
(0.00094519902 -0.0002609765 -8.1998293e-21)
(0.00092295721 -0.00028392524 -1.4128309e-20)
(0.00090068648 -0.00030598977 5.414778e-21)
(0.00087840985 -0.00032719515 4.7134854e-21)
(0.00085614839 -0.00034756629 2.0614687e-21)
(0.00083392138 -0.00036712773 -1.842238e-20)
(0.00081174639 -0.00038590335 -1.8192682e-21)
(0.0007896394 -0.00040391722 -7.0190828e-21)
(0.00076761477 -0.00042119221 -3.5098024e-21)
(0.00074568546 -0.00043775122 9.4212627e-21)
(0.00072386322 -0.00045361632 -1.200461e-21)
(0.00070215839 -0.00046880902 1.0792816e-20)
(0.00068058018 -0.00048335039 2.362409e-21)
(0.00065913679 -0.00049726086 6.79278e-21)
(0.00063783536 -0.0005105603 3.8870637e-21)
(0.00061668213 -0.00052326801 -4.9750787e-21)
(0.00059568237 -0.00053540266 -6.2442095e-21)
(0.00057484055 -0.00054698239 -3.881949e-21)
(0.00055416039 -0.00055802445 2.3123733e-20)
(0.00053364496 -0.00056854574 1.7807498e-20)
(0.00051329669 -0.00057856254 -2.0111687e-22)
(0.00049311726 -0.00058809054 4.8410602e-21)
(0.00047310783 -0.0005971449 3.1223794e-22)
(0.00045326912 -0.00060573991 1.7465147e-21)
(0.00043360134 -0.0006138895 3.2775816e-21)
(0.00041410423 -0.00062160706 -2.7651827e-21)
(0.0003947772 -0.00062890535 6.8176313e-21)
(0.00037561923 -0.00063579646 -7.5964056e-22)
(0.00035662893 -0.00064229226 2.2719207e-22)
(0.00033780469 -0.00064840352 6.7993586e-21)
(0.00031914455 -0.00065414114 -3.7989023e-21)
(0.00030064633 -0.00065951493 1.050261e-20)
(0.00028230759 -0.00066453457 1.0683475e-20)
(0.00026412572 -0.0006692091 1.7484214e-21)
(0.00024609793 -0.000673547 -2.5602849e-21)
(0.00022822126 -0.00067755629 -4.861544e-21)
(0.00021049265 -0.0006812446 7.5718592e-21)
(0.00019290885 -0.000684619 2.871011e-21)
(0.0001754665 -0.00068768614 1.2799648e-21)
(0.00015816222 -0.0006904521 2.2853523e-21)
(0.00014099258 -0.00069292266 1.2692383e-21)
(0.00012395399 -0.00069510315 3.689031e-21)
(0.00010704283 -0.00069699846 5.4860686e-21)
(9.0255543e-05 -0.00069861304 -2.7112242e-21)
(7.3588874e-05 -0.00069995139 -1.9179708e-21)
(5.7039527e-05 -0.00070101835 6.5830041e-21)
(4.0598291e-05 -0.00070182138 5.5401148e-21)
(2.4249759e-05 -0.00070237408 -6.323551e-21)
(8.0278621e-06 -0.00070269315 -3.7679015e-21)
(0.0013003676 0.00097608439 1.5801452e-19)
(0.0013086468 0.00092056575 7.8286831e-20)
(0.0013144981 0.00086583696 -2.3448013e-20)
(0.0013180642 0.00081197432 5.9714743e-20)
(0.0013194834 0.00075904401 8.0483264e-20)
(0.0013188897 0.00070710309 2.160034e-20)
(0.0013164119 0.00065619995 2.9300619e-20)
(0.0013121744 0.00060637511 -1.6993794e-21)
(0.0013062963 0.00055766172 4.6426926e-20)
(0.0012988918 0.00051008636 2.5124014e-20)
(0.0012900702 0.00046366963 1.3476579e-20)
(0.0012799357 0.00041842669 5.9754782e-20)
(0.0012685875 0.0003743675 4.4787708e-20)
(0.0012561199 0.0003314978 2.1997655e-20)
(0.0012426226 0.00028981897 2.5274708e-21)
(0.0012281806 0.00024932909 1.8545105e-20)
(0.0012128741 0.00021002268 8.6427617e-20)
(0.0011967792 0.00017189158 4.2573364e-20)
(0.0011799674 0.00013492505 -2.6669957e-20)
(0.0011625064 9.9110256e-05 1.1702443e-20)
(0.0011444594 6.4431755e-05 -2.9039724e-21)
(0.0011258853 3.0873739e-05 1.2157278e-20)
(0.0011068434 -1.581108e-06 3.1946725e-20)
(0.0010873852 -3.2956732e-05 -8.3525429e-21)
(0.0010675574 -6.3269897e-05 3.865326e-21)
(0.0010474075 -9.2542046e-05 -2.8771314e-21)
(0.0010269783 -0.00012079561 9.3038434e-21)
(0.0010063097 -0.00014805324 7.9732781e-21)
(0.0009854389 -0.00017433781 -1.4157597e-21)
(0.00096440038 -0.00019967261 6.6208944e-21)
(0.00094322623 -0.00022408109 6.3433016e-22)
(0.00092194607 -0.00024758678 1.3686135e-20)
(0.00090058731 -0.00027021336 2.7444294e-20)
(0.00087917521 -0.00029198424 1.4663639e-20)
(0.000857733 -0.00031292259 5.6383745e-21)
(0.00083628219 -0.00033305163 -7.2003718e-22)
(0.00081484239 -0.00035239409 6.6151274e-21)
(0.00079343146 -0.00037097232 2.6493666e-20)
(0.00077206577 -0.00038880885 -4.3255187e-21)
(0.00075076021 -0.00040592505 5.8662224e-21)
(0.00072952825 -0.00042234251 1.1984994e-20)
(0.00070838205 -0.00043808198 1.4419005e-21)
(0.00068733255 -0.00045316364 1.4762521e-20)
(0.00066638949 -0.00046760755 5.79909e-21)
(0.00064556155 -0.000481433 1.9725309e-21)
(0.00062485657 -0.00049465887 -6.4564097e-22)
(0.00060428126 -0.00050730344 7.7997991e-21)
(0.00058384144 -0.00051938448 1.7025162e-20)
(0.00056354221 -0.00053091928 -3.9866858e-21)
(0.00054338791 -0.00054192432 5.5673098e-21)
(0.00052338213 -0.00055241574 3.2198733e-21)
(0.0005035278 -0.00056240914 -3.1666918e-21)
(0.00048382731 -0.00057191939 2.1949645e-20)
(0.00046428235 -0.00058096115 5.2738603e-21)
(0.00044489413 -0.00058954813 4.9908063e-21)
(0.00042566353 -0.00059769373 1.8102228e-21)
(0.00040659082 -0.00060541079 -1.8517687e-21)
(0.0003876759 -0.0006127117 1.2475807e-20)
(0.00036891834 -0.00061960797 -2.6016633e-21)
(0.00035031725 -0.00062611104 -3.3832567e-21)
(0.0003318715 -0.00063223144 4.502991e-21)
(0.00031357969 -0.00063797965 -6.0898916e-21)
(0.00029544016 -0.0006433652 1.248939e-20)
(0.00027745104 -0.00064839734 1.0193483e-20)
(0.00025961013 -0.00065308494 3.7176381e-21)
(0.00024191514 -0.00065743624 2.7676427e-21)
(0.00022436357 -0.00066145892 -5.11143e-21)
(0.00020695276 -0.00066516058 1.1123736e-20)
(0.00018967997 -0.00066854788 3.2950909e-21)
(0.00017254234 -0.00067162743 -1.971671e-21)
(0.00015553691 -0.00067440521 2.5930528e-21)
(0.00013866062 -0.00067688666 6.2044719e-22)
(0.00012191039 -0.00067907719 4.4418137e-21)
(0.00010528302 -0.00068098141 8.2372674e-21)
(8.8775287e-05 -0.00068260386 9.2095289e-21)
(7.2384365e-05 -0.00068394883 5.6505781e-21)
(5.6107412e-05 -0.00068502117 -3.1731474e-21)
(3.9935681e-05 -0.00068582834 2.3825345e-22)
(2.3854324e-05 -0.00068638392 -1.1341589e-20)
(7.8970203e-06 -0.00068670472 -1.2772362e-20)
(0.0012457547 0.00095036848 9.0793265e-20)
(0.0012547242 0.00089739529 1.2196157e-19)
(0.0012613481 0.00084509949 2.8356523e-21)
(0.0012657588 0.00079355841 8.3023247e-21)
(0.0012680853 0.00074283996 3.7606575e-20)
(0.0012684525 0.00069300321 7.985839e-20)
(0.0012669815 0.00064409891 6.9321359e-20)
(0.001263789 0.00059617007 -1.3631808e-20)
(0.0012589874 0.00054925292 -3.2200933e-20)
(0.0012526846 0.00050337698 2.3755233e-20)
(0.0012449841 0.00045856597 6.293888e-20)
(0.0012359849 0.00041483832 5.8317617e-20)
(0.0012257815 0.00037220745 1.9696825e-20)
(0.0012144642 0.00033068229 2.1190275e-20)
(0.0012021185 0.00029026777 7.6503225e-21)
(0.001188826 0.00025096526 3.4815803e-20)
(0.001174664 0.0002127727 5.8340977e-20)
(0.0011597057 0.00017568526 3.3490557e-21)
(0.0011440204 0.00013969549 -1.4661111e-21)
(0.0011276734 0.00010479353 3.3066105e-21)
(0.0011107266 7.0967392e-05 5.4401677e-21)
(0.0010932379 3.8204177e-05 1.2259367e-20)
(0.0010752601 6.4890493e-06 2.834481e-21)
(0.0010568475 -2.4198185e-05 -9.6132282e-21)
(0.0010380493 -5.3871688e-05 1.3962391e-20)
(0.0010189079 -8.2550579e-05 1.5036509e-20)
(0.00099946573 -0.00011025468 -1.9246077e-21)
(0.00097976253 -0.00013700399 6.4830153e-22)
(0.0009598351 -0.00016281904 6.6445998e-21)
(0.00093971764 -0.00018772089 -4.914294e-21)
(0.00091944206 -0.00021173076 -1.3793162e-21)
(0.00089903804 -0.00023487013 3.3475055e-20)
(0.00087853286 -0.00025716056 3.1314806e-20)
(0.00085795181 -0.00027862361 -2.5956244e-21)
(0.0008373184 -0.00029928066 -9.3783467e-21)
(0.00081665423 -0.00031915328 -4.2963855e-22)
(0.00079597913 -0.00033826237 2.8723959e-20)
(0.00077531134 -0.00035662892 3.3678414e-20)
(0.00075466763 -0.00037427377 -1.3056993e-20)
(0.00073406322 -0.00039121714 -2.8137277e-20)
(0.00071351194 -0.00040747899 6.6095328e-21)
(0.00069302638 -0.00042307901 2.994028e-20)
(0.00067261796 -0.00043803611 8.1320517e-21)
(0.00065229691 -0.00045236919 -3.7900437e-21)
(0.00063207241 -0.00046609663 -8.739694e-21)
(0.00061195272 -0.00047923624 -1.3635582e-21)
(0.00059194508 -0.00049180518 1.5743946e-20)
(0.00057205589 -0.0005038205 1.2363848e-20)
(0.00055229078 -0.00051529866 -1.7389907e-21)
(0.00053265459 -0.00052625528 -4.642822e-21)
(0.00051315145 -0.00053670573 -8.8253696e-21)
(0.00049378483 -0.00054666503 -3.131508e-21)
(0.0004745576 -0.00055614728 1.0041503e-20)
(0.00045547209 -0.00056516654 2.0690086e-21)
(0.00043653001 -0.00057373594 -4.0070715e-21)
(0.00041773263 -0.00058186841 7.1500904e-21)
(0.00039908082 -0.00058957624 1.1209256e-20)
(0.000380575 -0.00059687126 1.0484523e-20)
(0.0003622152 -0.00060376473 -9.0721644e-21)
(0.00034400109 -0.00061026747 -7.8948598e-21)
(0.00032593205 -0.0006163898 2.3430396e-21)
(0.00030800714 -0.0006221417 -7.8235155e-21)
(0.00029022519 -0.00062753261 -2.4230678e-22)
(0.00027258477 -0.0006325712 2.8462257e-21)
(0.00025508416 -0.00063726616 -1.9976859e-21)
(0.00023772148 -0.0006416255 3.3896035e-21)
(0.00022049476 -0.0006456567 -5.6166576e-21)
(0.00020340187 -0.00064936709 4.592688e-21)
(0.00018644041 -0.00065276311 6.3566218e-21)
(0.00016960793 -0.00065585126 -8.9741737e-22)
(0.00015290191 -0.0006586373 6.5371453e-21)
(0.00013631971 -0.00066112658 3.8534536e-21)
(0.0001198586 -0.00066332432 4.6179538e-21)
(0.00010351584 -0.00066523511 2.6287691e-21)
(8.7288706e-05 -0.00066686331 5.5846424e-21)
(7.1174672e-05 -0.00066821322 4.4167416e-21)
(5.517128e-05 -0.00066928958 -1.5535649e-21)
(3.927022e-05 -0.00067009986 -2.9809788e-21)
(2.345723e-05 -0.00067065763 -9.0224274e-21)
(7.765646e-06 -0.0006709797 -1.2209821e-20)
(0.0011936918 0.00092472675 1.2693845e-20)
(0.0012032437 0.00087419512 4.2463435e-20)
(0.0012105329 0.00082423807 -2.3851019e-20)
(0.001215682 0.0007749335 -1.0584658e-19)
(0.0012188111 0.00072635043 -3.3943039e-20)
(0.0012200366 0.00067854934 3.8084056e-20)
(0.0012194719 0.00063158286 9.8350026e-22)
(0.0012172264 0.00058549611 -1.8797166e-20)
(0.0012134059 0.00054032762 -8.5159775e-20)
(0.0012081124 0.00049610959 -4.7936454e-21)
(0.0012014436 0.0004528684 3.994234e-20)
(0.0011934934 0.00041062524 2.4206595e-20)
(0.0011843518 0.00036939659 -2.3148998e-20)
(0.0011741046 0.00032919425 -5.8894576e-20)
(0.0011628338 0.00029002629 -1.6806686e-21)
(0.0011506173 0.000251897 3.7544588e-20)
(0.0011375294 0.00021480746 1.3314577e-20)
(0.0011236405 0.00017875581 -4.3978657e-20)
(0.0011090174 0.00014373758 -4.2473906e-20)
(0.0010937232 0.00010974575 -1.7279683e-21)
(0.0010778178 7.677134e-05 2.7140129e-20)
(0.0010613574 4.4803681e-05 4.5237148e-21)
(0.0010443941 1.382993e-05 -2.0643928e-20)
(0.0010269801 -1.6162245e-05 -1.2056046e-20)
(0.0010091628 -4.5189327e-05 9.0811327e-21)
(0.00099098473 -7.3267447e-05 2.7351576e-20)
(0.00097248751 -0.00010041352 -2.4425818e-21)
(0.00095370996 -0.00012664502 -1.0607972e-20)
(0.00093468845 -0.00015198035 -9.4381785e-21)
(0.00091545695 -0.00017643837 -1.8554222e-21)
(0.00089604698 -0.00020003816 2.4386824e-20)
(0.00087648792 -0.00022279936 1.6546323e-20)
(0.00085680711 -0.00024474129 1.0082976e-20)
(0.00083702985 -0.00026588394 1.5788218e-21)
(0.0008171796 -0.00028624692 -4.6467421e-22)
(0.00079727814 -0.00030585015 4.1236258e-21)
(0.00077734547 -0.00032471286 1.1755014e-20)
(0.00075740007 -0.00034285469 3.8285003e-21)
(0.00073745889 -0.00036029486 -7.485418e-21)
(0.00071753744 -0.00037705237 -1.6705796e-20)
(0.00069764997 -0.00039314573 1.7803667e-21)
(0.0006778094 -0.00040859352 1.6113185e-20)
(0.00065802749 -0.00042341353 9.794564e-22)
(0.000638315 -0.00043762349 3.9114696e-21)
(0.00061868157 -0.00045124074 3.8322623e-21)
(0.00059913581 -0.0004642822 9.8040987e-21)
(0.00057968545 -0.00047676394 1.3778024e-20)
(0.00056033736 -0.00048870221 -4.5808072e-21)
(0.00054109759 -0.00050011266 9.3019084e-22)
(0.00052197146 -0.00051101012 8.1432769e-21)
(0.00050296367 -0.00052140928 4.4650764e-21)
(0.00048407815 -0.00053132431 -5.4523768e-21)
(0.00046531819 -0.00054076888 -5.6582285e-21)
(0.00044668661 -0.00054975625 6.6213041e-21)
(0.00042818568 -0.00055829907 -2.4914505e-21)
(0.0004098172 -0.00056640969 1.0757034e-20)
(0.00039158244 -0.00057409993 1.1419018e-20)
(0.00037348233 -0.00058138113 9.4250507e-21)
(0.00035551738 -0.00058826417 -3.1936867e-21)
(0.00033768772 -0.00059475937 -1.4553135e-21)
(0.00031999321 -0.00060087672 1.1351966e-20)
(0.00030243336 -0.00060662583 -8.3248655e-21)
(0.00028500743 -0.00061201589 -1.1065366e-20)
(0.00026771444 -0.00061705513 2.385074e-21)
(0.00025055314 -0.00062175201 5.1123559e-21)
(0.00023352215 -0.00062611429 8.2895332e-21)
(0.00021661989 -0.00063014934 -4.5497773e-21)
(0.00019984457 -0.00063386404 -4.6293446e-21)
(0.00018319429 -0.00063726476 7.6026913e-21)
(0.00016666694 -0.00064035778 7.3524323e-21)
(0.0001502604 -0.00064314873 1.0964973e-20)
(0.00013397261 -0.00064564294 6.5097078e-21)
(0.00011780116 -0.00064784517 -1.7103916e-21)
(0.00010174365 -0.00064976027 3.5126749e-21)
(8.5797745e-05 -0.00065139227 -3.8278528e-22)
(6.9961302e-05 -0.00065274546 -2.6193321e-21)
(5.4232167e-05 -0.00065382455 3.6742469e-21)
(3.8602578e-05 -0.00065463694 2.7525754e-21)
(2.3058785e-05 -0.00065519619 -6.695313e-22)
(7.6338013e-06 -0.00065551913 -9.0422334e-21)
(0.0011440706 0.00089923105 -5.1711263e-21)
(0.0011541068 0.00085103874 -1.2309439e-19)
(0.001161963 0.0008033272 -1.3806722e-20)
(0.0011677531 0.00075617455 3.1820479e-21)
(0.0011715881 0.0007096504 4.7206806e-21)
(0.0011735768 0.00066381611 -5.2602854e-21)
(0.001173825 0.00061872574 -1.3126791e-19)
(0.0011724352 0.00057442605 -4.8079252e-20)
(0.0011695067 0.00053095748 -6.9572204e-21)
(0.0011651356 0.0004883543 6.6290005e-21)
(0.0011594144 0.00044664534 -1.0233687e-21)
(0.0011524317 0.0004058541 -1.0360655e-19)
(0.0011442732 0.00036599958 -5.5453925e-20)
(0.0011350203 0.00032709637 -9.6583654e-21)
(0.0011247513 0.00028915507 4.2318618e-20)
(0.0011135407 0.00025218271 -2.7993141e-21)
(0.0011014597 0.00021618314 -1.0217244e-19)
(0.0010885757 0.00018115726 -3.8769839e-20)
(0.0010749533 0.00014710316 -5.2023595e-21)
(0.0010606532 0.00011401675 1.7833342e-20)
(0.0010457332 8.189152e-05 1.7546934e-21)
(0.0010302478 5.0719403e-05 -6.9095212e-20)
(0.0010142481 2.0490405e-05 -2.1049804e-20)
(0.00099778452 -8.8059567e-06 2.3652795e-20)
(0.00098090279 -3.7183105e-05 -2.2139004e-21)
(0.00096364471 -6.4655242e-05 -1.3174611e-20)
(0.00094605127 -9.1236703e-05 -6.0340668e-20)
(0.0009281607 -0.0001169429 -1.6429208e-20)
(0.00091000868 -0.0001417901 5.5478726e-21)
(0.00089162858 -0.00016579512 -4.2643869e-21)
(0.00087305164 -0.00018897508 2.5989729e-21)
(0.00085430698 -0.00021134771 -5.2671318e-20)
(0.00083542176 -0.00023293047 -2.8563539e-20)
(0.00081642119 -0.00025374161 1.4921511e-20)
(0.00079732875 -0.00027379916 -3.2781777e-21)
(0.00077816617 -0.00029312136 -2.0015043e-20)
(0.00075895358 -0.00031172602 -4.5008595e-20)
(0.00073970967 -0.0003296313 -1.4113133e-20)
(0.00072045156 -0.00034685494 -5.6472171e-22)
(0.00070119493 -0.00036341463 -1.8222549e-20)
(0.00068195435 -0.00037932777 -4.8633971e-21)
(0.0006627431 -0.00039461161 -3.7009416e-20)
(0.00064357323 -0.00040928295 -1.560494e-20)
(0.00062445581 -0.00042335842 8.7489627e-21)
(0.00060540084 -0.00043685422 -9.1088023e-21)
(0.00058641734 -0.00044978642 -1.0838064e-20)
(0.00056751345 -0.00046217014 -2.3346353e-20)
(0.00054869654 -0.00047402085 -1.7105583e-20)
(0.00052997307 -0.00048535321 3.5723821e-21)
(0.00051134874 -0.00049618145 2.3455428e-21)
(0.00049282866 -0.00050651954 1.5309371e-22)
(0.00047441719 -0.00051638085 -2.1477961e-20)
(0.00045611817 -0.00052577856 -1.6171218e-20)
(0.00043793484 -0.00053472514 2.3149441e-22)
(0.00041986991 -0.00054323286 -8.0447197e-21)
(0.00040192568 -0.00055131344 -7.2930624e-21)
(0.00038410384 -0.0005589782 -1.8760638e-20)
(0.0003664057 -0.00056623804 -4.2626443e-21)
(0.00034883225 -0.00057310338 -1.1797209e-21)
(0.00033138406 -0.00057958419 -8.0894602e-21)
(0.00031406147 -0.00058569004 -1.2552293e-21)
(0.00029686445 -0.00059143015 -2.2194341e-20)
(0.00027979264 -0.00059681343 -1.2474697e-20)
(0.00026284548 -0.00060184781 -5.3377439e-21)
(0.00024602222 -0.00060654148 -5.2750637e-21)
(0.00022932186 -0.00061090189 -4.8312262e-21)
(0.00021274315 -0.00061493618 -1.2179953e-20)
(0.00019628472 -0.00061865098 -7.2697436e-21)
(0.0001799451 -0.00062205258 -5.9443331e-22)
(0.00016372269 -0.00062514694 -4.6364479e-21)
(0.00014761571 -0.00062793963 -4.4786888e-21)
(0.00013162231 -0.00063043587 -7.3225114e-21)
(0.00011574061 -0.00063264014 -8.8571739e-21)
(9.9968584e-05 -0.0006345573 -7.7122629e-21)
(8.4304165e-05 -0.00063619121 -7.6822942e-21)
(6.8745648e-05 -0.00063754609 -6.4014002e-21)
(5.3291285e-05 -0.00063862664 -1.9428798e-21)
(3.7933654e-05 -0.00063944021 -2.9011387e-21)
(2.2659541e-05 -0.00064000027 -9.4286946e-22)
(7.5016895e-06 -0.0006403237 -6.4444703e-21)
(0.0010967852 0.00087394493 1.2062093e-19)
(0.0011072163 0.00082799164 -8.9652462e-21)
(0.0011155501 0.00078243386 -1.4840845e-21)
(0.0011218915 0.00073734941 -3.915204e-20)
(0.0011263436 0.00069280807 -5.5505469e-20)
(0.0011290076 0.00064887175 -3.6526214e-20)
(0.001129982 0.00060559542 -3.8256532e-20)
(0.0011293628 0.00056302713 -1.4831423e-20)
(0.0011272431 0.00052120874 -2.785195e-20)
(0.0011237134 0.00048017633 -5.3271867e-20)
(0.0011188606 0.00043996063 -2.7921875e-20)
(0.0011127688 0.00040058719 -2.133906e-20)
(0.0011055189 0.00036207718 2.3704979e-20)