/*--------------------------------*- C++ -*----------------------------------*\
| =========                 |                                                 |
| \\      /  F ield         | OpenFOAM: The Open Source CFD Toolbox           |
|  \\    /   O peration     | Version:  2106                                  |
|   \\  /    A nd           | Website:  www.openfoam.com                      |
|    \\/     M anipulation  |                                                 |
\*---------------------------------------------------------------------------*/
FoamFile
{
    version     2.0;
    format      ascii;
    arch        "LSB;label=32;scalar=64";
    class       volVectorField;
    location    "0.023";
    object      U;
}
// * * * * * * * * * * * * * * * * * * * * * * * * * * * * * * * * * * * * * //

dimensions      [0 1 -1 0 0 0 0];

internalField   nonuniform List<vector> 
16384
(
(0.0004750452 -0.00047382665 0)
(0.0014235631 -0.00047225854 0)
(0.0023673715 -0.00046913029 0)
(0.0033033571 -0.00046445776 0)
(0.0042284466 -0.0004582646 0)
(0.0051396213 -0.00045058204 0)
(0.0060339331 -0.00044144865 0)
(0.0069085177 -0.00043091003 0)
(0.0077606096 -0.00041901846 0)
(0.0085875541 -0.00040583249 0)
(0.0093868199 -0.00039141649 0)
(0.01015601 -0.00037584016 0)
(0.010892873 -0.00035917803 0)
(0.01159531 -0.00034150886 0)
(0.012261385 -0.00032291512 0)
(0.012889329 -0.00030348237 0)
(0.013477549 -0.00028329867 0)
(0.014024629 -0.00026245398 0)
(0.014529335 -0.00024103953 0)
(0.014990618 -0.00021914724 0)
(0.015407613 -0.00019686915 0)
(0.015779637 -0.00017429678 0)
(0.016106192 -0.00015152063 0)
(0.01638696 -0.00012862962 0)
(0.016621797 -0.00010571054 0)
(0.016810732 -8.2847651e-05 0)
(0.016953961 -6.0122131e-05 0)
(0.017051836 -3.7611747e-05 0)
(0.017104866 -1.5390515e-05 0)
(0.017113697 6.4719532e-06 0)
(0.017079118 2.7910679e-05 0)
(0.017002039 4.8865701e-05 0)
(0.016883488 6.928084e-05 0)
(0.016724597 8.9106083e-05 0)
(0.016526595 0.00010829667 0)
(0.016290795 0.00012681323 0)
(0.016018583 0.00014462191 0)
(0.015711409 0.00016169432 0)
(0.015370771 0.00017800757 0)
(0.014998211 0.00019354414 0)
(0.0145953 0.00020829177 0)
(0.014163626 0.00022224326 0)
(0.01370479 0.00023539629 0)
(0.013220392 0.0002477531 0)
(0.012712021 0.00025932022 0)
(0.01218125 0.00027010812 0)
(0.01162963 0.00028013084 0)
(0.011058677 0.00028940554 0)
(0.010469872 0.00029795212 0)
(0.0098646518 0.00030579272 0)
(0.0092444085 0.00031295126 0)
(0.0086104842 0.00031945295 0)
(0.0079641696 0.0003253238 0)
(0.0073067028 0.00033059014 0)
(0.0066392691 0.00033527809 0)
(0.0059630019 0.00033941315 0)
(0.0052789846 0.00034301969 0)
(0.004588253 0.00034612059 0)
(0.0038917987 0.00034873677 0)
(0.003190574 0.00035088687 0)
(0.0024854959 0.00035258696 0)
(0.001777452 0.0003538502 0)
(0.0010673069 0.00035468667 0)
(0.00035590794 0.00035510318 0)
(-0.00035590788 0.00035510318 0)
(-0.0010673069 0.00035468667 0)
(-0.001777452 0.0003538502 0)
(-0.0024854958 0.00035258696 0)
(-0.003190574 0.00035088687 0)
(-0.0038917987 0.00034873677 0)
(-0.0045882529 0.00034612059 0)
(-0.0052789846 0.00034301969 0)
(-0.0059630019 0.00033941315 0)
(-0.0066392691 0.00033527809 0)
(-0.0073067028 0.00033059014 0)
(-0.0079641696 0.00032532381 0)
(-0.0086104842 0.00031945295 0)
(-0.0092444084 0.00031295126 0)
(-0.0098646517 0.00030579272 0)
(-0.010469872 0.00029795212 0)
(-0.011058677 0.00028940554 0)
(-0.01162963 0.00028013084 0)
(-0.01218125 0.00027010813 0)
(-0.012712021 0.00025932022 0)
(-0.013220392 0.0002477531 0)
(-0.01370479 0.00023539629 0)
(-0.014163626 0.00022224327 0)
(-0.0145953 0.00020829177 0)
(-0.014998211 0.00019354414 0)
(-0.015370771 0.00017800757 0)
(-0.015711409 0.00016169432 0)
(-0.016018583 0.00014462191 0)
(-0.016290795 0.00012681323 0)
(-0.016526595 0.00010829667 0)
(-0.016724597 8.9106084e-05 0)
(-0.016883488 6.9280841e-05 0)
(-0.017002039 4.8865702e-05 0)
(-0.017079118 2.791068e-05 0)
(-0.017113697 6.4719543e-06 0)
(-0.017104866 -1.5390514e-05 0)
(-0.017051836 -3.7611746e-05 0)
(-0.016953961 -6.012213e-05 0)
(-0.016810732 -8.2847649e-05 0)
(-0.016621797 -0.00010571054 0)
(-0.01638696 -0.00012862962 0)
(-0.016106192 -0.00015152063 0)
(-0.015779637 -0.00017429678 0)
(-0.015407613 -0.00019686915 0)
(-0.014990618 -0.00021914724 0)
(-0.014529335 -0.00024103953 0)
(-0.014024629 -0.00026245398 0)
(-0.013477549 -0.00028329867 0)
(-0.012889329 -0.00030348237 0)
(-0.012261385 -0.00032291512 0)
(-0.01159531 -0.00034150886 0)
(-0.010892873 -0.00035917803 0)
(-0.01015601 -0.00037584016 0)
(-0.00938682 -0.00039141649 0)
(-0.0085875541 -0.00040583249 0)
(-0.0077606097 -0.00041901846 0)
(-0.0069085178 -0.00043091003 0)
(-0.0060339331 -0.00044144865 0)
(-0.0051396214 -0.00045058204 0)
(-0.0042284466 -0.0004582646 0)
(-0.0033033572 -0.00046445776 0)
(-0.0023673715 -0.00046913029 0)
(-0.0014235632 -0.00047225854 0)
(-0.00047504526 -0.00047382665 0)
(0.0004803192 -0.0014253123 0)
(0.0014393693 -0.0014205962 0)
(0.0023936624 -0.0014111879 0)
(0.0033400539 -0.0013971352 0)
(0.0042754394 -0.0013785091 0)
(0.0051967699 -0.0013554036 0)
(0.0061010669 -0.0013279346 0)
(0.0069854375 -0.0012962392 0)
(0.0078470874 -0.0012604747 0)
(0.0086833348 -0.0012208171 0)
(0.0094916222 -0.00117746 0)
(0.010269528 -0.0011306128 0)
(0.011014776 -0.0010804998 0)
(0.011725245 -0.0010273577 0)
(0.012398978 -0.00097143456 0)
(0.013034187 -0.00091298753 0)
(0.013629261 -0.00085228143 0)
(0.014182767 -0.00078958672 0)
(0.014693457 -0.00072517772 0)
(0.015160267 -0.00065933085 0)
(0.015582321 -0.00059232279 0)
(0.015958927 -0.00052442875 0)
(0.016289577 -0.00045592086 0)
(0.016573947 -0.00038706644 0)
(0.016811888 -0.00031812657 0)
(0.017003426 -0.00024935453 0)
(0.017148753 -0.00018099451 0)
(0.017248223 -0.0001132803 0)
(0.017302344 -4.6434235e-05 0)
(0.017311767 1.9333987e-05 0)
(0.017277283 8.3829024e-05 0)
(0.017199809 0.00014686887 0)
(0.017080377 0.00020828664 0)
(0.01692013 0.0002679314 0)
(0.016720306 0.0003256683 0)
(0.016482228 0.00038137879 0)
(0.016207293 0.00043496088 0)
(0.015896963 0.00048632912 0)
(0.015552753 0.00053541453 0)
(0.015176215 0.00058216427 0)
(0.014768937 0.00062654135 0)
(0.014332524 0.000668524 0)
(0.013868592 0.00070810505 0)
(0.013378756 0.00074529115 0)
(0.012864625 0.00078010182 0)
(0.012327788 0.00081256842 0)
(0.011769814 0.00084273303 0)
(0.011192235 0.00087064722 0)
(0.010596551 0.0008963707 0)
(0.0099842163 0.00091997 0)
(0.0093566398 0.00094151699 0)
(0.0087151809 0.00096108741 0)
(0.008061147 0.00097875945 0)
(0.0073957928 0.00099461221 0)
(0.0067203199 0.0010087243 0)
(0.0060358774 0.0010211722 0)
(0.0053435643 0.0010320294 0)
(0.0046444315 0.0010413646 0)
(0.0039394855 0.0010492406 0)
(0.0032296931 0.0010557137 0)
(0.0025159854 0.001060832 0)
(0.0017992643 0.0010646352 0)
(0.0010804078 0.0010671535 0)
(0.00036027716 0.0010684075 0)
(-0.0003602771 0.0010684075 0)
(-0.0010804078 0.0010671535 0)
(-0.0017992642 0.0010646352 0)
(-0.0025159853 0.001060832 0)
(-0.003229693 0.0010557137 0)
(-0.0039394855 0.0010492406 0)
(-0.0046444314 0.0010413646 0)
(-0.0053435642 0.0010320294 0)
(-0.0060358774 0.0010211722 0)
(-0.0067203198 0.0010087243 0)
(-0.0073957928 0.00099461221 0)
(-0.008061147 0.00097875945 0)
(-0.0087151809 0.00096108741 0)
(-0.0093566398 0.00094151699 0)
(-0.0099842163 0.00091997001 0)
(-0.010596551 0.00089637071 0)
(-0.011192235 0.00087064722 0)
(-0.011769814 0.00084273303 0)
(-0.012327788 0.00081256842 0)
(-0.012864625 0.00078010182 0)
(-0.013378756 0.00074529115 0)
(-0.013868592 0.00070810505 0)
(-0.014332524 0.000668524 0)
(-0.014768937 0.00062654135 0)
(-0.015176215 0.00058216428 0)
(-0.015552753 0.00053541453 0)
(-0.015896963 0.00048632913 0)
(-0.016207293 0.00043496088 0)
(-0.016482228 0.00038137879 0)
(-0.016720306 0.0003256683 0)
(-0.01692013 0.0002679314 0)
(-0.017080377 0.00020828664 0)
(-0.017199809 0.00014686888 0)
(-0.017277283 8.3829027e-05 0)
(-0.017311767 1.933399e-05 0)
(-0.017302344 -4.6434232e-05 0)
(-0.017248223 -0.0001132803 0)
(-0.017148753 -0.00018099451 0)
(-0.017003426 -0.00024935453 0)
(-0.016811888 -0.00031812657 0)
(-0.016573947 -0.00038706644 0)
(-0.016289577 -0.00045592085 0)
(-0.015958927 -0.00052442875 0)
(-0.015582321 -0.00059232278 0)
(-0.015160267 -0.00065933085 0)
(-0.014693457 -0.00072517772 0)
(-0.014182767 -0.00078958671 0)
(-0.013629261 -0.00085228143 0)
(-0.013034187 -0.00091298753 0)
(-0.012398978 -0.00097143456 0)
(-0.011725245 -0.0010273577 0)
(-0.011014776 -0.0010804998 0)
(-0.010269528 -0.0011306128 0)
(-0.0094916222 -0.00117746 0)
(-0.0086833348 -0.0012208171 0)
(-0.0078470874 -0.0012604747 0)
(-0.0069854375 -0.0012962392 0)
(-0.006101067 -0.0013279346 0)
(-0.0051967699 -0.0013554036 0)
(-0.0042754395 -0.0013785091 0)
(-0.003340054 -0.0013971352 0)
(-0.0023936624 -0.0014111879 0)
(-0.0014393694 -0.0014205962 0)
(-0.00048031926 -0.0014253123 0)
(0.00049000871 -0.0023926018 0)
(0.0014684103 -0.0023846915 0)
(0.0024419723 -0.0023689109 0)
(0.0034074957 -0.00234534 0)
(0.0043618217 -0.002314098 0)
(0.005301848 -0.0022753422 0)
(0.006224544 -0.0022292669 0)
(0.0071269653 -0.002176102 0)
(0.008006268 -0.0021161108 0)
(0.0088597219 -0.0020495883 0)
(0.0096847228 -0.0019768589 0)
(0.010478804 -0.0018982736 0)
(0.011239647 -0.001814208 0)
(0.011965091 -0.0017250588 0)
(0.012653139 -0.0016312416 0)
(0.013301968 -0.0015331874 0)
(0.013909932 -0.0014313399 0)
(0.014475568 -0.0013261521 0)
(0.014997598 -0.0012180839 0)
(0.015474935 -0.0011075984 0)
(0.015906677 -0.00099515925 0)
(0.016292112 -0.00088122771 0)
(0.016630716 -0.00076625984 0)
(0.016922146 -0.00065070376 0)
(0.017166244 -0.00053499708 0)
(0.017363025 -0.00041956449 0)
(0.017512673 -0.00030481542 0)
(0.01761554 -0.00019114193 0)
(0.01767213 -7.8916756e-05 0)
(0.017683097 3.1508364e-05 0)
(0.017649234 0.00013980402 0)
(0.017571464 0.00024566569 0)
(0.017450829 0.00034881348 0)
(0.017288483 0.00044899361 0)
(0.017085676 0.00054597927 0)
(0.016843747 0.00063957102 0)
(0.016564111 0.00072959712 0)
(0.01624825 0.00081591352 0)
(0.015897699 0.00089840374 0)
(0.015514035 0.00097697839 0)
(0.015098871 0.0010515746 0)
(0.014653837 0.0011221549 0)
(0.014180577 0.0011887066 0)
(0.013680736 0.00125124 0)
(0.013155952 0.0013097868 0)
(0.012607846 0.001364399 0)
(0.012038015 0.0014151464 0)
(0.011448028 0.0014621146 0)
(0.010839414 0.0015054032 0)
(0.01021366 0.0015451229 0)
(0.0095722091 0.0015813939 0)
(0.0089164529 0.0016143425 0)
(0.0082477318 0.0016440993 0)
(0.0075673331 0.0016707966 0)
(0.0068764906 0.0016945657 0)
(0.0061763861 0.0017155348 0)
(0.0054681502 0.0017338264 0)
(0.0047528655 0.0017495557 0)
(0.00403157 0.0017628278 0)
(0.0033052612 0.0017737367 0)
(0.0025749011 0.0017823631 0)
(0.0018414221 0.0017887734 0)
(0.0011057326 0.0017930183 0)
(0.00036872374 0.0017951321 0)
(-0.00036872369 0.0017951321 0)
(-0.0011057325 0.0017930183 0)
(-0.001841422 0.0017887734 0)
(-0.0025749011 0.0017823632 0)
(-0.0033052611 0.0017737367 0)
(-0.0040315699 0.0017628278 0)
(-0.0047528655 0.0017495557 0)
(-0.0054681501 0.0017338264 0)
(-0.0061763861 0.0017155348 0)
(-0.0068764906 0.0016945657 0)
(-0.007567333 0.0016707966 0)
(-0.0082477318 0.0016440993 0)
(-0.0089164529 0.0016143425 0)
(-0.0095722091 0.0015813939 0)
(-0.01021366 0.0015451229 0)
(-0.010839414 0.0015054032 0)
(-0.011448028 0.0014621146 0)
(-0.012038015 0.0014151464 0)
(-0.012607846 0.001364399 0)
(-0.013155952 0.0013097868 0)
(-0.013680736 0.00125124 0)
(-0.014180577 0.0011887066 0)
(-0.014653837 0.0011221549 0)
(-0.015098871 0.0010515746 0)
(-0.015514035 0.0009769784 0)
(-0.015897699 0.00089840374 0)
(-0.01624825 0.00081591352 0)
(-0.016564111 0.00072959712 0)
(-0.016843747 0.00063957103 0)
(-0.017085676 0.00054597927 0)
(-0.017288483 0.00044899362 0)
(-0.017450829 0.00034881348 0)
(-0.017571464 0.00024566569 0)
(-0.017649234 0.00013980402 0)
(-0.017683097 3.1508369e-05 0)
(-0.01767213 -7.891675e-05 0)
(-0.01761554 -0.00019114193 0)
(-0.017512673 -0.00030481541 0)
(-0.017363025 -0.00041956448 0)
(-0.017166244 -0.00053499708 0)
(-0.016922147 -0.00065070375 0)
(-0.016630716 -0.00076625983 0)
(-0.016292112 -0.00088122771 0)
(-0.015906677 -0.00099515924 0)
(-0.015474935 -0.0011075984 0)
(-0.014997598 -0.0012180839 0)
(-0.014475568 -0.0013261521 0)
(-0.013909932 -0.0014313399 0)
(-0.013301968 -0.0015331874 0)
(-0.012653139 -0.0016312416 0)
(-0.011965091 -0.0017250588 0)
(-0.011239647 -0.001814208 0)
(-0.010478804 -0.0018982736 0)
(-0.0096847229 -0.0019768589 0)
(-0.008859722 -0.0020495883 0)
(-0.0080062681 -0.0021161108 0)
(-0.0071269654 -0.002176102 0)
(-0.0062245441 -0.0022292669 0)
(-0.0053018481 -0.0022753422 0)
(-0.0043618217 -0.002314098 0)
(-0.0034074957 -0.00234534 0)
(-0.0024419724 -0.0023689109 0)
(-0.0014684104 -0.0023846915 0)
(-0.00049000877 -0.0023926018 0)
(0.00050407725 -0.0033836674 0)
(0.0015105767 -0.0033724959 0)
(0.0025121193 -0.0033502096 0)
(0.003505428 -0.0033169212 0)
(0.0044872671 -0.0032727986 0)
(0.0054544585 -0.0032180637 0)
(0.0064038967 -0.0031529904 0)
(0.0073325643 -0.0030779026 0)
(0.0082375462 -0.0029931716 0)
(0.009116043 -0.0028992133 0)
(0.0099653838 -0.0027964849 0)
(0.010783038 -0.0026854815 0)
(0.011566624 -0.0025667322 0)
(0.012313924 -0.0024407965 0)
(0.013022885 -0.0023082602 0)
(0.013691631 -0.0021697308 0)
(0.014318467 -0.0020258339 0)
(0.014901885 -0.0018772083 0)
(0.015440566 -0.0017245023 0)
(0.015933382 -0.0015683689 0)
(0.016379397 -0.0014094619 0)
(0.016777869 -0.001248432 0)
(0.017128245 -0.0010859223 0)
(0.017430161 -0.00092256502 0)
(0.017683437 -0.00075897766 0)
(0.017888072 -0.00059575954 0)
(0.01804424 -0.00043348865 0)
(0.018152284 -0.00027271863 0)
(0.018212703 -0.00011397602 0)
(0.018226151 4.2242202e-05 0)
(0.018193423 0.00019547075 0)
(0.018115451 0.00034527837 0)
(0.017993287 0.00049126898 0)
(0.017828097 0.00063308325 0)
(0.017621149 0.00077039963 0)
(0.017373803 0.0009029351 0)
(0.017087499 0.0010304456 0)
(0.016763743 0.0011527261 0)
(0.016404102 0.0012696102 0)
(0.016010185 0.00138097 0)
(0.015583638 0.0014867146 0)
(0.01512613 0.0015867893 0)
(0.014639344 0.001681174 0)
(0.014124965 0.0017698813 0)
(0.013584674 0.0018529541 0)
(0.013020137 0.0019304637 0)
(0.012432996 0.0020025067 0)
(0.011824866 0.0020692023 0)
(0.011197322 0.0021306893 0)
(0.010551902 0.0021871226 0)
(0.0098900943 0.0022386698 0)
(0.0092133404 0.0022855082 0)
(0.0085230291 0.0023278207 0)
(0.0078204963 0.0023657928 0)
(0.0071070247 0.0023996088 0)
(0.0063838441 0.0024294486 0)
(0.0056521335 0.0024554844 0)
(0.0049130232 0.0024778779 0)
(0.0041675989 0.002496777 0)
(0.0034169054 0.0025123136 0)
(0.0026619517 0.0025246013 0)
(0.0019037168 0.0025337334 0)
(0.0011431556 0.0025397811 0)
(0.00038120579 0.0025427929 0)
(-0.00038120574 0.0025427929 0)
(-0.0011431556 0.0025397811 0)
(-0.0019037167 0.0025337334 0)
(-0.0026619516 0.0025246013 0)
(-0.0034169053 0.0025123136 0)
(-0.0041675989 0.002496777 0)
(-0.0049130232 0.0024778779 0)
(-0.0056521334 0.0024554844 0)
(-0.0063838441 0.0024294486 0)
(-0.0071070247 0.0023996088 0)
(-0.0078204963 0.0023657928 0)
(-0.0085230291 0.0023278207 0)
(-0.0092133403 0.0022855082 0)
(-0.0098900942 0.0022386698 0)
(-0.010551902 0.0021871226 0)
(-0.011197322 0.0021306894 0)
(-0.011824866 0.0020692024 0)
(-0.012432996 0.0020025067 0)
(-0.013020137 0.0019304637 0)
(-0.013584674 0.0018529541 0)
(-0.014124965 0.0017698813 0)
(-0.014639344 0.001681174 0)
(-0.01512613 0.0015867893 0)
(-0.015583638 0.0014867146 0)
(-0.016010185 0.00138097 0)
(-0.016404102 0.0012696102 0)
(-0.016763743 0.0011527261 0)
(-0.017087499 0.0010304456 0)
(-0.017373803 0.00090293511 0)
(-0.017621149 0.00077039963 0)
(-0.017828097 0.00063308326 0)
(-0.017993287 0.00049126899 0)
(-0.018115451 0.00034527837 0)
(-0.018193423 0.00019547075 0)
(-0.018226151 4.224221e-05 0)
(-0.018212703 -0.00011397601 0)
(-0.018152284 -0.00027271862 0)
(-0.01804424 -0.00043348864 0)
(-0.017888072 -0.00059575953 0)
(-0.017683437 -0.00075897765 0)
(-0.017430161 -0.00092256501 0)
(-0.017128245 -0.0010859223 0)
(-0.016777869 -0.001248432 0)
(-0.016379397 -0.0014094619 0)
(-0.015933382 -0.0015683689 0)
(-0.015440566 -0.0017245023 0)
(-0.014901885 -0.0018772083 0)
(-0.014318467 -0.0020258338 0)
(-0.013691631 -0.0021697308 0)
(-0.013022885 -0.0023082602 0)
(-0.012313924 -0.0024407965 0)
(-0.011566625 -0.0025667322 0)
(-0.010783038 -0.0026854815 0)
(-0.0099653838 -0.0027964849 0)
(-0.009116043 -0.0028992133 0)
(-0.0082375462 -0.0029931716 0)
(-0.0073325644 -0.0030779026 0)
(-0.0064038968 -0.0031529904 0)
(-0.0054544586 -0.0032180637 0)
(-0.0044872672 -0.0032727986 0)
(-0.003505428 -0.0033169212 0)
(-0.0025121193 -0.0033502096 0)
(-0.0015105768 -0.0033724959 0)
(-0.00050407731 -0.0033836674 0)
(0.00052252859 -0.0044071747 0)
(0.0015658799 -0.0043926524 0)
(0.002604122 -0.0043636813 0)
(0.003633877 -0.0043204074 0)
(0.0046518094 -0.0042630486 0)
(0.0056546421 -0.0041918925 0)
(0.0066391729 -0.0041072943 0)
(0.0076022893 -0.0040096739 0)
(0.0085409837 -0.003899513 0)
(0.0094523666 -0.0037773506 0)
(0.01033368 -0.0036437796 0)
(0.01118231 -0.0034994419 0)
(0.011995794 -0.0033450237 0)
(0.012771837 -0.0031812504 0)
(0.013508315 -0.0030088814 0)
(0.014203281 -0.0028287049 0)
(0.014854978 -0.0026415319 0)
(0.015461836 -0.002448191 0)
(0.01602248 -0.0022495229 0)
(0.016535732 -0.0020463748 0)
(0.01700061 -0.0018395948 0)
(0.01741633 -0.0016300271 0)
(0.017782302 -0.0014185065 0)
(0.01809813 -0.0012058535 0)
(0.018363607 -0.00099286981 0)
(0.018578712 -0.00078033386 0)
(0.0187436 -0.00056899655 0)
(0.018858601 -0.00035957746 0)
(0.01892421 -0.00015276126 0)
(0.018941076 5.0805499e-05 0)
(0.018909999 0.00025051726 0)
(0.018831916 0.00044581203 0)
(0.018707893 0.00063617342 0)
(0.018539111 0.00082113247 0)
(0.018326862 0.0010002691 0)
(0.01807253 0.0011732129 0)
(0.017777584 0.0013396438 0)
(0.017443566 0.0014992925 0)
(0.017072079 0.0016519396 0)
(0.016664774 0.0017974152 0)
(0.016223343 0.001935598 0)
(0.0157495 0.0020664133 0)
(0.015244981 0.0021898313 0)
(0.014711524 0.0023058647 0)
(0.014150865 0.0024145658 0)
(0.013564727 0.0025160236 0)
(0.012954814 0.0026103602 0)
(0.012322798 0.0026977273 0)
(0.01167032 0.0027783018 0)
(0.010998978 0.002852282 0)
(0.010310325 0.0029198829 0)
(0.0096058676 0.002981332 0)
(0.0088870582 0.0030368646 0)
(0.0081552976 0.0030867194 0)
(0.0074119331 0.0031311337 0)
(0.0066582593 0.0031703394 0)
(0.0058955194 0.0032045585 0)
(0.0051249079 0.0032339994 0)
(0.0043475742 0.0032588532 0)
(0.0035646266 0.0032792902 0)
(0.0027771373 0.0032954569 0)
(0.0019861481 0.0033074737 0)
(0.0011926768 0.003315433 0)
(0.00039772324 0.0033193968 0)
(-0.00039772318 0.0033193968 0)
(-0.0011926767 0.003315433 0)
(-0.0019861481 0.0033074737 0)
(-0.0027771372 0.0032954569 0)
(-0.0035646265 0.0032792902 0)
(-0.0043475742 0.0032588532 0)
(-0.0051249078 0.0032339994 0)
(-0.0058955193 0.0032045585 0)
(-0.0066582592 0.0031703394 0)
(-0.0074119331 0.0031311337 0)
(-0.0081552975 0.0030867194 0)
(-0.0088870581 0.0030368646 0)
(-0.0096058675 0.002981332 0)
(-0.010310325 0.0029198829 0)
(-0.010998978 0.002852282 0)
(-0.01167032 0.0027783018 0)
(-0.012322798 0.0026977273 0)
(-0.012954814 0.0026103602 0)
(-0.013564727 0.0025160236 0)
(-0.014150865 0.0024145658 0)
(-0.014711524 0.0023058647 0)
(-0.015244981 0.0021898314 0)
(-0.0157495 0.0020664134 0)
(-0.016223343 0.0019355981 0)
(-0.016664774 0.0017974153 0)
(-0.017072079 0.0016519396 0)
(-0.017443566 0.0014992925 0)
(-0.017777584 0.0013396439 0)
(-0.01807253 0.0011732129 0)
(-0.018326862 0.0010002691 0)
(-0.018539111 0.00082113248 0)
(-0.018707893 0.00063617343 0)
(-0.018831916 0.00044581204 0)
(-0.018909999 0.00025051728 0)
(-0.018941076 5.080551e-05 0)
(-0.01892421 -0.00015276124 0)
(-0.018858601 -0.00035957745 0)
(-0.0187436 -0.00056899654 0)
(-0.018578712 -0.00078033385 0)
(-0.018363607 -0.00099286979 0)
(-0.01809813 -0.0012058535 0)
(-0.017782302 -0.0014185065 0)
(-0.01741633 -0.0016300271 0)
(-0.01700061 -0.0018395948 0)
(-0.016535732 -0.0020463748 0)
(-0.01602248 -0.0022495229 0)
(-0.015461836 -0.002448191 0)
(-0.014854978 -0.0026415319 0)
(-0.014203281 -0.0028287049 0)
(-0.013508315 -0.0030088814 0)
(-0.012771837 -0.0031812504 0)
(-0.011995794 -0.0033450237 0)
(-0.01118231 -0.0034994419 0)
(-0.01033368 -0.0036437796 0)
(-0.0094523666 -0.0037773506 0)
(-0.0085409837 -0.003899513 0)
(-0.0076022894 -0.0040096739 0)
(-0.0066391729 -0.0041072943 0)
(-0.0056546421 -0.0041918925 0)
(-0.0046518094 -0.0042630486 0)
(-0.0036338771 -0.0043204074 0)
(-0.002604122 -0.0043636813 0)
(-0.00156588 -0.0043926524 0)
(-0.00052252865 -0.0044071747 0)
(0.00054540687 -0.0054719436 0)
(0.0016344522 -0.0054539573 0)
(0.0027182008 -0.0054180754 0)
(0.0037931505 -0.0053644781 0)
(0.0048558428 -0.0052934344 0)
(0.0059028792 -0.0052052994 0)
(0.0069309378 -0.0051005116 0)
(0.0079367892 -0.0049795894 0)
(0.0089173115 -0.0048431273 0)
(0.0098695043 -0.0046917908 0)
(0.010790502 -0.0045263119 0)
(0.011677587 -0.0043474828 0)
(0.012528199 -0.0041561508 0)
(0.013339945 -0.0039532115 0)
(0.014110613 -0.0037396024 0)
(0.014838171 -0.0035162966 0)
(0.015520779 -0.0032842955 0)
(0.016156796 -0.0030446223 0)
(0.016744776 -0.0027983154 0)
(0.017283477 -0.002546421 0)
(0.017771859 -0.0022899871 0)
(0.018209085 -0.0020300566 0)
(0.018594521 -0.0017676611 0)
(0.018927729 -0.0015038152 0)
(0.019208468 -0.0012395103 0)
(0.019436688 -0.00097570924 0)
(0.019612524 -0.00071334146 0)
(0.019736288 -0.00045329794 0)
(0.019808465 -0.00019642698 0)
(0.019829701 5.6469827e-05 0)
(0.019800798 0.00030464109 0)
(0.0197227 0.00054738892 0)
(0.019596487 0.00078407136 0)
(0.019423362 0.0010141047 0)
(0.01920464 0.0012369653 0)
(0.018941736 0.0014521907 0)
(0.018636155 0.0016593801 0)
(0.018289482 0.0018581954 0)
(0.017903364 0.0020483599 0)
(0.017479503 0.0022296582 0)
(0.017019645 0.0024019344 0)
(0.016525565 0.0025650907 0)
(0.015999059 0.0027190844 0)
(0.015441932 0.0028639255 0)
(0.014855989 0.0029996733 0)
(0.014243024 0.0031264323 0)
(0.013604814 0.0032443483 0)
(0.012943108 0.0033536037 0)
(0.012259622 0.0034544126 0)
(0.011556034 0.0035470154 0)
(0.010833978 0.003631674 0)
(0.010095037 0.0037086656 0)
(0.0093407467 0.0037782774 0)
(0.0085725881 0.0038408012 0)
(0.0077919896 0.0038965274 0)
(0.0070003265 0.0039457399 0)
(0.006198923 0.0039887109 0)
(0.0053890541 0.0040256959 0)
(0.0045719492 0.0040569293 0)
(0.0037487964 0.00408262 0)
(0.0029207474 0.0041029479 0)
(0.0020889232 0.0041180611 0)
(0.0012544204 0.0041280726 0)
(0.00041831751 0.0041330591 0)
(-0.00041831746 0.0041330591 0)
(-0.0012544203 0.0041280726 0)
(-0.0020889232 0.0041180611 0)
(-0.0029207473 0.0041029479 0)
(-0.0037487963 0.00408262 0)
(-0.0045719491 0.0040569293 0)
(-0.005389054 0.0040256959 0)
(-0.006198923 0.0039887109 0)
(-0.0070003265 0.0039457399 0)
(-0.0077919895 0.0038965274 0)
(-0.008572588 0.0038408012 0)
(-0.0093407466 0.0037782774 0)
(-0.010095037 0.0037086656 0)
(-0.010833978 0.003631674 0)
(-0.011556034 0.0035470154 0)
(-0.012259622 0.0034544126 0)
(-0.012943108 0.0033536037 0)
(-0.013604814 0.0032443483 0)
(-0.014243024 0.0031264323 0)
(-0.014855989 0.0029996733 0)
(-0.015441932 0.0028639255 0)
(-0.015999059 0.0027190844 0)
(-0.016525565 0.0025650907 0)
(-0.017019645 0.0024019345 0)
(-0.017479503 0.0022296582 0)
(-0.017903364 0.0020483599 0)
(-0.018289482 0.0018581954 0)
(-0.018636155 0.0016593802 0)
(-0.018941736 0.0014521907 0)
(-0.01920464 0.0012369654 0)
(-0.019423362 0.0010141048 0)
(-0.019596487 0.00078407138 0)
(-0.0197227 0.00054738893 0)
(-0.019800798 0.00030464111 0)
(-0.019829701 5.6469841e-05 0)
(-0.019808465 -0.00019642697 0)
(-0.019736288 -0.00045329793 0)
(-0.019612524 -0.00071334144 0)
(-0.019436688 -0.00097570922 0)
(-0.019208468 -0.0012395103 0)
(-0.018927729 -0.0015038152 0)
(-0.018594521 -0.0017676611 0)
(-0.018209085 -0.0020300566 0)
(-0.017771859 -0.0022899871 0)
(-0.017283477 -0.002546421 0)
(-0.016744776 -0.0027983154 0)
(-0.016156796 -0.0030446223 0)
(-0.01552078 -0.0032842955 0)
(-0.014838171 -0.0035162966 0)
(-0.014110613 -0.0037396024 0)
(-0.013339945 -0.0039532115 0)
(-0.012528199 -0.0041561508 0)
(-0.011677587 -0.0043474828 0)
(-0.010790502 -0.0045263119 0)
(-0.0098695043 -0.0046917908 0)
(-0.0089173115 -0.0048431273 0)
(-0.0079367892 -0.0049795894 0)
(-0.0069309378 -0.0051005116 0)
(-0.0059028792 -0.0052052994 0)
(-0.0048558429 -0.0052934344 0)
(-0.0037931506 -0.0053644781 0)
(-0.0027182008 -0.0054180754 0)
(-0.0016344522 -0.0054539573 0)
(-0.00054540693 -0.0054719436 0)
(0.00057279667 -0.0065868956 0)
(0.0017165471 -0.0065653084 0)
(0.0028547775 -0.0065222424 0)
(0.0039838379 -0.0064579132 0)
(0.0051001231 -0.0063726422 0)
(0.0062000899 -0.006266854 0)
(0.007280274 -0.0061410728 0)
(0.0083373068 -0.0059959183 0)
(0.0093679299 -0.0058321013 0)
(0.010369011 -0.0056504174 0)
(0.011337556 -0.0054517414 0)
(0.012270723 -0.0052370208 0)
(0.013165834 -0.0050072684 0)
(0.014020383 -0.0047635548 0)
(0.014832048 -0.0045070011 0)
(0.015598697 -0.0042387707 0)
(0.016318394 -0.0039600611 0)
(0.016989406 -0.0036720962 0)
(0.017610206 -0.0033761176 0)
(0.018179474 -0.0030733771 0)
(0.0186961 -0.0027651286 0)
(0.019159185 -0.0024526203 0)
(0.019568037 -0.0021370872 0)
(0.019922171 -0.0018197442 0)
(0.020221302 -0.001501779 0)
(0.020465347 -0.0011843458 0)
(0.020654411 -0.00086855894 0)
(0.020788788 -0.00055548766 0)
(0.020868949 -0.00024615045 0)
(0.020895534 5.8489432e-05 0)
(0.020869347 0.00035752817 0)
(0.020791341 0.00065012551 0)
(0.02066261 0.00093550753 0)
(0.02048438 0.0012129695 0)
(0.020257995 0.0014818781 0)
(0.019984907 0.0017416727 0)
(0.019666664 0.0019918664 0)
(0.019304897 0.0022320466 0)
(0.018901308 0.0024618742 0)
(0.018457661 0.0026810833 0)
(0.017975764 0.0028894791 0)
(0.017457465 0.003086936 0)
(0.016904632 0.0032733949 0)
(0.01631915 0.0034488596 0)
(0.015702905 0.0036133931 0)
(0.015057778 0.0037671127 0)
(0.014385633 0.0039101856 0)
(0.01368831 0.004042823 0)
(0.012967618 0.0041652743 0)
(0.01222533 0.0042778211 0)
(0.011463173 0.0043807707 0)
(0.01068283 0.0044744496 0)
(0.0098859308 0.0045591966 0)
(0.0090740557 0.0046353561 0)
(0.0082487303 0.0047032718 0)
(0.0074114278 0.0047632796 0)
(0.0065635695 0.0048157022 0)
(0.0057065278 0.0048608423 0)
(0.0048416288 0.0048989781 0)
(0.0039701573 0.0049303576 0)
(0.0030933608 0.0049551944 0)
(0.0022124561 0.0049736642 0)
(0.0013286351 0.0049859014 0)
(0.00044307157 0.0049919971 0)
(-0.00044307152 0.0049919971 0)
(-0.001328635 0.0049859014 0)
(-0.002212456 0.0049736642 0)
(-0.0030933607 0.0049551944 0)
(-0.0039701572 0.0049303576 0)
(-0.0048416288 0.0048989781 0)
(-0.0057065277 0.0048608423 0)
(-0.0065635695 0.0048157022 0)
(-0.0074114277 0.0047632796 0)
(-0.0082487303 0.0047032718 0)
(-0.0090740556 0.0046353561 0)
(-0.0098859307 0.0045591966 0)
(-0.01068283 0.0044744496 0)
(-0.011463173 0.0043807707 0)
(-0.01222533 0.0042778211 0)
(-0.012967618 0.0041652743 0)
(-0.01368831 0.004042823 0)
(-0.014385633 0.0039101857 0)
(-0.015057778 0.0037671127 0)
(-0.015702905 0.0036133931 0)
(-0.01631915 0.0034488596 0)
(-0.016904632 0.0032733949 0)
(-0.017457465 0.003086936 0)
(-0.017975764 0.0028894791 0)
(-0.018457661 0.0026810833 0)
(-0.018901308 0.0024618742 0)
(-0.019304897 0.0022320466 0)
(-0.019666664 0.0019918664 0)
(-0.019984907 0.0017416727 0)
(-0.020257995 0.0014818781 0)
(-0.02048438 0.0012129696 0)
(-0.02066261 0.00093550755 0)
(-0.020791341 0.00065012552 0)
(-0.020869347 0.00035752819 0)
(-0.020895534 5.8489449e-05 0)
(-0.020868949 -0.00024615044 0)
(-0.020788788 -0.00055548764 0)
(-0.020654411 -0.00086855893 0)
(-0.020465347 -0.0011843457 0)
(-0.020221302 -0.001501779 0)
(-0.019922171 -0.0018197442 0)
(-0.019568037 -0.0021370872 0)
(-0.019159185 -0.0024526203 0)
(-0.0186961 -0.0027651286 0)
(-0.018179474 -0.0030733771 0)
(-0.017610206 -0.0033761176 0)
(-0.016989407 -0.0036720962 0)
(-0.016318394 -0.0039600611 0)
(-0.015598697 -0.0042387707 0)
(-0.014832048 -0.0045070011 0)
(-0.014020383 -0.0047635548 0)
(-0.013165834 -0.0050072684 0)
(-0.012270723 -0.0052370208 0)
(-0.011337556 -0.0054517414 0)
(-0.010369011 -0.0056504173 0)
(-0.00936793 -0.0058321013 0)
(-0.0083373068 -0.0059959183 0)
(-0.0072802741 -0.0061410728 0)
(-0.0062000899 -0.006266854 0)
(-0.0051001232 -0.0063726422 0)
(-0.003983838 -0.0064579132 0)
(-0.0028547776 -0.0065222424 0)
(-0.0017165471 -0.0065653084 0)
(-0.00057279673 -0.0065868956 0)
(0.0006048233 -0.0077611504 0)
(0.0018125403 -0.0077358015 0)
(0.0030144774 -0.0076852301 0)
(0.0042068126 -0.0076096886 0)
(0.0053857699 -0.0075095525 0)
(0.0065476377 -0.007385318 0)
(0.0076887862 -0.007237598 0)
(0.008805684 -0.007067117 0)
(0.0098949143 -0.0068747055 0)
(0.01095319 -0.0066612936 0)
(0.011977369 -0.0064279041 0)
(0.012964464 -0.0061756442 0)
(0.013911659 -0.0059056979 0)
(0.014816315 -0.0056193168 0)
(0.015675984 -0.0053178115 0)
(0.016488416 -0.0050025422 0)
(0.01725156 -0.0046749091 0)
(0.01796358 -0.0043363433 0)
(0.01862285 -0.0039882972 0)
(0.01922796 -0.003632235 0)
(0.019777718 -0.0032696239 0)
(0.02027115 -0.0029019247 0)
(0.020707498 -0.0025305836 0)
(0.021086217 -0.0021570234 0)
(0.021406975 -0.0017826358 0)
(0.021669644 -0.001408774 0)
(0.021874299 -0.0010367454 0)
(0.022021207 -0.00066780495 0)
(0.022110823 -0.00030314936 0)
(0.02214378 5.6088702e-05 0)
(0.02212088 0.00040884505 0)
(0.022043087 0.00075412952 0)
(0.021911512 0.0010910286 0)
(0.021727405 0.0014187092 0)
(0.021492145 0.0017364208 0)
(0.021207223 0.0020434977 0)
(0.020874237 0.00233936 0)
(0.020494874 0.002623514 0)
(0.020070899 0.0028955521 0)
(0.019604143 0.0031551519 0)
(0.019096494 0.003402074 0)
(0.018549878 0.0036361604 0)
(0.017966251 0.0038573305 0)
(0.017347591 0.0040655777 0)
(0.016695879 0.004260965 0)
(0.016013095 0.0044436192 0)
(0.015301208 0.0046137259 0)
(0.014562164 0.0047715227 0)
(0.013797882 0.0049172923 0)
(0.013010242 0.005051356 0)
(0.012201088 0.0051740653 0)
(0.011372213 0.005285795 0)
(0.010525363 0.0053869348 0)
(0.009662232 0.0054778817 0)
(0.0087844609 0.0055590323 0)
(0.0078936378 0.0056307749 0)
(0.0069912989 0.0056934826 0)
(0.0060789307 0.0057475061 0)
(0.0051579736 0.0057931674 0)
(0.0042298257 0.0058307541 0)