/*--------------------------------*- C++ -*----------------------------------*\
| =========                 |                                                 |
| \\      /  F ield         | OpenFOAM: The Open Source CFD Toolbox           |
|  \\    /   O peration     | Version:  2306                                  |
|   \\  /    A nd           | Website:  www.openfoam.com                      |
|    \\/     M anipulation  |                                                 |
\*---------------------------------------------------------------------------*/
FoamFile
{
    version     2.0;
    format      ascii;
    arch        "LSB;label=32;scalar=64";
    class       surfaceScalarField;
    location    "0.09";
    object      phi;
}
// * * * * * * * * * * * * * * * * * * * * * * * * * * * * * * * * * * * * * //

dimensions      [0 3 -1 0 0 0 0];

oriented        oriented;

internalField   nonuniform List<scalar> 
12640
(
-2.8137045e-06
-4.8493204e-06
-2.7174518e-06
-4.7827948e-06
-2.6254995e-06
-4.7182006e-06
-2.5375995e-06
-4.6554982e-06
-2.4535199e-06
-4.5946474e-06
-2.3730438e-06
-4.5356081e-06
-2.2959679e-06
-4.4783401e-06
-2.2221021e-06
-4.4228033e-06
-2.1512678e-06
-4.3689584e-06
-2.083298e-06
-4.3167665e-06
-2.0180354e-06
-4.2661895e-06
-1.9553328e-06
-4.2171903e-06
-1.8950517e-06
-4.1697323e-06
-1.8370617e-06
-4.1237804e-06
-1.7812404e-06
-4.0793e-06
-1.7274725e-06
-4.0362579e-06
-1.6756494e-06
-3.9946219e-06
-1.6256688e-06
-3.9543608e-06
-1.5774342e-06
-3.9154448e-06
-1.5308546e-06
-3.8778447e-06
-1.4858442e-06
-3.8415329e-06
-1.4423217e-06
-3.8064827e-06
-1.4002105e-06
-3.7726683e-06
-1.3594381e-06
-3.7400654e-06
-1.319936e-06
-3.7086504e-06
-1.2816392e-06
-3.6784008e-06
-1.2444863e-06
-3.6492953e-06
-1.208419e-06
-3.6213134e-06
-1.173382e-06
-3.5944357e-06
-1.139323e-06
-3.5686436e-06
-1.1061923e-06
-3.5439198e-06
-1.0739425e-06
-3.5202474e-06
-1.0425288e-06
-3.4976108e-06
-1.0119084e-06
-3.475995e-06
-9.8204085e-07
-3.4553861e-06
-9.5288736e-07
-3.4357708e-06
-9.2441107e-07
-3.4171366e-06
-8.9657684e-07
-3.399472e-06
-8.6935119e-07
-3.382766e-06
-8.427021e-07
-3.3670085e-06
-8.1659901e-07
-3.3521901e-06
-7.9101265e-07
-3.338302e-06
-7.659151e-07
-3.3253362e-06
-7.4127955e-07
-3.3132853e-06
-7.1708039e-07
-3.3021425e-06
-6.9329297e-07
-3.2919018e-06
-6.6989368e-07
-3.2825577e-06
-6.4685984e-07
-3.2741051e-06
-6.2416965e-07
-3.26654e-06
-6.0180211e-07
-3.2598584e-06
-5.7973698e-07
-3.2540572e-06
-5.579548e-07
-3.2491337e-06
-5.3643673e-07
-3.2450858e-06
-5.1516467e-07
-3.2419118e-06
-4.9412103e-07
-3.2396109e-06
-4.7328883e-07
-3.2381821e-06
-4.526517e-07
-3.2376254e-06
-4.3219374e-07
-3.2379413e-06
-4.1189957e-07
-3.2391306e-06
-3.9175426e-07
-3.2411945e-06
-3.7174336e-07
-3.2441348e-06
-3.5185287e-07
-3.247954e-06
-3.3206915e-07
-3.2526548e-06
-3.12379e-07
-3.2582405e-06
-2.9276952e-07
-3.2647152e-06
-2.7322815e-07
-3.2720834e-06
-2.537426e-07
-3.2803503e-06
-2.3430083e-07
-3.2895216e-06
-2.1489086e-07
-3.2996039e-06
-1.9550089e-07
-3.3106046e-06
-1.7611901e-07
-3.3225316e-06
-1.5673335e-07
-3.3353937e-06
-1.3733177e-07
-3.3492005e-06
-1.1790197e-07
-3.3639621e-06
-9.843131e-08
-3.3796893e-06
-7.8906746e-08
-3.3963934e-06
-5.9314961e-08
-3.4140844e-06
-3.9642202e-08
-3.4327661e-06
-1.9874921e-08
-3.4524193e-06
-3.4729972e-06
-2.6875718e-06
-4.9465757e-06
-2.5947809e-06
-4.8755856e-06
-2.5061909e-06
-4.8067906e-06
-2.4215558e-06
-4.7401332e-06
-2.340646e-06
-4.6755572e-06
-2.263247e-06
-4.6130072e-06
-2.1891581e-06
-4.552429e-06
-2.1181917e-06
-4.4937697e-06
-2.0501721e-06
-4.436978e-06
-1.9849347e-06
-4.3820039e-06
-1.9223253e-06
-4.328799e-06
-1.862199e-06
-4.2773166e-06
-1.80442e-06
-4.2275113e-06
-1.7488608e-06
-4.1793396e-06
-1.6954013e-06
-4.1327594e-06
-1.6439289e-06
-4.0877303e-06
-1.5943375e-06
-4.0442133e-06
-1.5465271e-06
-4.0021712e-06
-1.5004037e-06
-3.9615682e-06
-1.4558785e-06
-3.92237e-06
-1.4128678e-06
-3.8845436e-06
-1.3712927e-06
-3.8480578e-06
-1.3310786e-06
-3.8128824e-06
-1.292155e-06
-3.7789889e-06
-1.2544555e-06
-3.74635e-06
-1.2179168e-06
-3.7149394e-06
-1.1824795e-06
-3.6847326e-06
-1.148087e-06
-3.6557059e-06
-1.1146858e-06
-3.6278368e-06
-1.0822252e-06
-3.6011043e-06
-1.0506571e-06
-3.5754879e-06
-1.0199356e-06
-3.5509688e-06
-9.9001753e-07
-3.5275289e-06
-9.6086153e-07
-3.505151e-06
-9.3242836e-07
-3.4838193e-06
-9.0468068e-07
-3.4635185e-06
-8.7758295e-07
-3.4442343e-06
-8.5110128e-07
-3.4259537e-06
-8.2520335e-07
-3.4086639e-06
-7.9985834e-07
-3.3923535e-06
-7.750368e-07
-3.3770116e-06
-7.5071058e-07
-3.3626282e-06
-7.2685279e-07
-3.349194e-06
-7.0343766e-07
-3.3367004e-06
-6.8044054e-07
-3.3251396e-06
-6.5783772e-07
-3.3145046e-06
-6.3560657e-07
-3.3047888e-06
-6.1372525e-07
-3.2959865e-06
-5.9217282e-07
-3.2880924e-06
-5.7092913e-07
-3.281102e-06
-5.4997478e-07
-3.2750115e-06
-5.2929103e-07
-3.2698174e-06
-5.0885986e-07
-3.265517e-06
-4.8866383e-07
-3.2621079e-06
-4.6868617e-07
-3.2595885e-06
-4.4891056e-07
-3.2579577e-06
-4.2932129e-07
-3.2572147e-06
-4.0990317e-07
-3.2573595e-06
-3.9064146e-07
-3.2583923e-06
-3.7152189e-07
-3.260314e-06
-3.5253072e-07
-3.263126e-06
-3.336546e-07
-3.2668301e-06
-3.1488061e-07
-3.2714288e-06
-2.961962e-07
-3.2769249e-06
-2.7758927e-07
-3.2833222e-06
-2.59048e-07
-3.2906247e-06
-2.4056091e-07
-3.2988374e-06
-2.2211673e-07
-3.3079658e-06
-2.037043e-07
-3.3180163e-06
-1.8531269e-07
-3.3289962e-06
-1.6693083e-07
-3.3409135e-06
-1.4854763e-07
-3.3537769e-06
-1.301518e-07
-3.3675963e-06
-1.1173168e-07
-3.3823822e-06
-9.3275297e-08
-3.3981457e-06
-7.4770191e-08
-3.4148985e-06
-5.6203383e-08
-3.4326511e-06
-3.7561591e-08
-3.4514079e-06
-1.8831454e-08
-3.4711494e-06
-3.4918287e-06
-2.5557866e-06
-5.0399115e-06
-2.4667895e-06
-4.9645828e-06
-2.3818713e-06
-4.8917088e-06
-2.3007898e-06
-4.8212147e-06
-2.2233193e-06
-4.7530277e-06
-2.1492492e-06
-4.6870773e-06
-2.0783828e-06
-4.6232954e-06
-2.0105362e-06
-4.5616163e-06
-1.9455375e-06
-4.5019766e-06
-1.8832259e-06
-4.4443155e-06
-1.8234506e-06
-4.3885742e-06
-1.7660706e-06
-4.3346966e-06
-1.7109533e-06
-4.2826286e-06
-1.6579746e-06
-4.2323183e-06
-1.6070178e-06
-4.1837162e-06
-1.5579733e-06
-4.1367748e-06
-1.5107381e-06
-4.0914486e-06
-1.4652151e-06
-4.0476942e-06
-1.4213132e-06
-4.0054701e-06
-1.3789464e-06
-3.9647368e-06
-1.3380337e-06
-3.9254564e-06
-1.2984985e-06
-3.8875929e-06
-1.260269e-06
-3.851112e-06
-1.2232768e-06
-3.8159811e-06
-1.1874578e-06
-3.782169e-06
-1.1527511e-06
-3.7496461e-06
-1.1190992e-06
-3.7183845e-06
-1.0864477e-06
-3.6883574e-06
-1.0547449e-06
-3.6595396e-06
-1.023942e-06
-3.6319071e-06
-9.9399274e-07
-3.6054372e-06
-9.6485309e-07
-3.5801085e-06
-9.3648131e-07
-3.5559007e-06
-9.0883775e-07
-3.5327946e-06
-8.8188474e-07
-3.5107723e-06
-8.555864e-07
-3.4898168e-06
-8.2990862e-07
-3.4699121e-06
-8.0481888e-07
-3.4510434e-06
-7.8028622e-07
-3.4331966e-06
-7.5628107e-07
-3.4163587e-06
-7.3277523e-07
-3.4005175e-06
-7.0974173e-07
-3.3856617e-06
-6.8715482e-07
-3.3717809e-06
-6.6498986e-07
-3.3588654e-06
-6.4322319e-07
-3.3469063e-06
-6.2183224e-07
-3.3358956e-06
-6.0079526e-07
-3.3258258e-06
-5.8009147e-07
-3.3166903e-06
-5.597008e-07
-3.3084831e-06
-5.3960398e-07
-3.3011988e-06
-5.1978251e-07
-3.294833e-06
-5.0021845e-07
-3.2893815e-06
-4.8089462e-07
-3.2848408e-06
-4.6179434e-07
-3.2812082e-06
-4.4290159e-07
-3.2784813e-06
-4.2420081e-07
-3.2766585e-06
-4.0567702e-07
-3.2757385e-06
-3.8731567e-07
-3.2757208e-06
-3.6910274e-07
-3.2766052e-06
-3.5102472e-07
-3.278392e-06
-3.3306846e-07
-3.2810822e-06
-3.1522135e-07
-3.2846772e-06
-2.974712e-07
-3.2891789e-06
-2.7980621e-07
-3.2945899e-06
-2.6221504e-07
-3.3009133e-06
-2.4468668e-07
-3.308153e-06
-2.2721052e-07
-3.3163135e-06
-2.0977613e-07
-3.3254002e-06
-1.9237332e-07
-3.3354191e-06
-1.7499205e-07
-3.3463775e-06
-1.5762222e-07
-3.3582833e-06
-1.4025363e-07
-3.3711455e-06
-1.2287583e-07
-3.3849741e-06
-1.05478e-07
-3.39978e-06
-8.8048854e-08
-3.4155748e-06
-7.0576522e-08
-3.4323708e-06
-5.3048538e-08
-3.4501791e-06
-3.5451883e-08
-3.4690046e-06
-1.777333e-08
-3.488828e-06
-3.509602e-06
-2.4185225e-06
-5.1289774e-06
-2.3336451e-06
-5.04946e-06
-2.2527023e-06
-4.9726517e-06
-2.1754574e-06
-4.8984597e-06
-2.1016901e-06
-4.826795e-06
-2.0311953e-06
-4.7575721e-06
-1.9637813e-06
-4.6907093e-06
-1.8992695e-06
-4.6261281e-06
-1.8374928e-06
-4.5637533e-06
-1.7782951e-06
-4.5035132e-06
-1.7215304e-06
-4.445339e-06
-1.6670617e-06
-4.3891653e-06
-1.6147611e-06
-4.3349292e-06
-1.5645083e-06
-4.2825711e-06
-1.5161906e-06
-4.2320338e-06
-1.4697023e-06
-4.1832631e-06
-1.4249438e-06
-4.136207e-06
-1.3818218e-06
-4.0908162e-06
-1.3402482e-06
-4.0470437e-06
-1.3001404e-06
-4.0048446e-06
-1.2614203e-06
-3.9641764e-06
-1.2240146e-06
-3.9249986e-06
-1.1878539e-06
-3.8872728e-06
-1.1528727e-06
-3.8509622e-06
-1.1190095e-06
-3.8160322e-06
-1.0862059e-06
-3.7824498e-06
-1.0544066e-06
-3.7501838e-06
-1.0235596e-06
-3.7192045e-06
-9.9361543e-07
-3.6894838e-06
-9.6452732e-07
-3.6609952e-06
-9.3625099e-07
-3.6337136e-06
-9.0874432e-07
-3.6076152e-06
-8.8196749e-07
-3.5826775e-06
-8.5588256e-07
-3.5588795e-06
-8.3045357e-07
-3.5362013e-06
-8.0564626e-07
-3.5146241e-06
-7.8142808e-07
-3.4941303e-06
-7.5776804e-07
-3.4747034e-06
-7.346366e-07
-3.456328e-06
-7.1200556e-07
-3.4389897e-06
-6.8984806e-07
-3.422675e-06
-6.6813846e-07
-3.4073713e-06
-6.4685219e-07
-3.3930672e-06
-6.2596578e-07
-3.3797518e-06
-6.054568e-07
-3.3674153e-06
-5.8530371e-07
-3.3560487e-06
-5.6548586e-07
-3.3456436e-06
-5.4598344e-07
-3.3361927e-06
-5.267774e-07
-3.3276891e-06
-5.0784944e-07
-3.3201268e-06
-4.8918194e-07
-3.3135005e-06
-4.7075788e-07
-3.3078055e-06
-4.525609e-07
-3.3030378e-06
-4.3457518e-07
-3.2991939e-06
-4.1678543e-07
-3.296271e-06
-3.991769e-07
-3.294267e-06
-3.817353e-07
-3.2931801e-06
-3.6444688e-07
-3.2930092e-06
-3.4729831e-07
-3.2937538e-06
-3.3027674e-07
-3.2954136e-06
-3.133698e-07
-3.2979892e-06
-2.9656553e-07
-3.3014815e-06
-2.798525e-07
-3.3058919e-06
-2.6321973e-07
-3.3112227e-06
-2.4665662e-07
-3.3174764e-06
-2.301531e-07
-3.3246566e-06
-2.1369937e-07
-3.3327672e-06
-1.9728608e-07
-3.3418135e-06
-1.80904e-07
-3.3518012e-06
-1.6454408e-07
-3.3627374e-06
-1.4819729e-07
-3.3746301e-06
-1.3185452e-07
-3.3874883e-06
-1.1550626e-07
-3.4013223e-06
-9.914268e-08
-3.4161436e-06
-8.2753161e-08
-3.4319643e-06
-6.6326556e-08
-3.4487975e-06
-4.9850813e-08
-3.4666549e-06
-3.3313182e-08
-3.4855422e-06
-1.6700545e-08
-3.5054406e-06
-3.5263025e-06
-2.2759815e-06
-5.2134313e-06
-2.1955419e-06
-5.1298996e-06
-2.1188701e-06
-5.0493235e-06
-2.045737e-06
-4.9715928e-06
-1.9759295e-06
-4.8966025e-06
-1.909249e-06
-4.8242526e-06
-1.8455106e-06
-4.7544477e-06
-1.7845419e-06
-4.6870968e-06
-1.7261819e-06
-4.6221133e-06
-1.6702802e-06
-4.5594149e-06
-1.6166962e-06
-4.498923e-06
-1.5652985e-06
-4.440563e-06
-1.515964e-06
-4.3842637e-06
-1.4685773e-06
-4.3299578e-06
-1.4230303e-06
-4.2775808e-06
-1.3792216e-06
-4.2270718e-06
-1.337056e-06
-4.1783727e-06
-1.2964439e-06
-4.1314283e-06
-1.2573013e-06
-4.0861863e-06
-1.219549e-06
-4.0425969e-06
-1.1831127e-06
-4.0006128e-06
-1.147922e-06
-3.9601893e-06
-1.113911e-06
-3.9212838e-06
-1.0810172e-06
-3.883856e-06
-1.0491818e-06
-3.8478676e-06
-1.0183492e-06
-3.8132824e-06
-9.8846693e-07
-3.7800661e-06
-9.5948526e-07
-3.7481861e-06
-9.3135723e-07
-3.7176118e-06
-9.0403843e-07
-3.6883141e-06
-8.7748662e-07
-3.6602654e-06
-8.516619e-07
-3.6334399e-06
-8.2652638e-07
-3.607813e-06
-8.0204415e-07
-3.5833618e-06
-7.78181e-07
-3.5600645e-06
-7.5490448e-07
-3.5379006e-06
-7.3218369e-07
-3.5168511e-06
-7.0998931e-07
-3.4968978e-06
-6.8829328e-07
-3.4780241e-06
-6.6706896e-07
-3.460214e-06
-6.4629092e-07
-3.443453e-06
-6.259348e-07
-3.4277274e-06
-6.0597748e-07
-3.4130245e-06
-5.8639669e-07
-3.3993326e-06
-5.6717118e-07
-3.3866408e-06
-5.4828069e-07
-3.3749392e-06
-5.2970561e-07
-3.3642187e-06
-5.1142725e-07
-3.3544711e-06
-4.934276e-07
-3.3456887e-06
-4.7568937e-07
-3.337865e-06
-4.5819589e-07
-3.330994e-06
-4.4093108e-07
-3.3250703e-06
-4.238795e-07
-3.3200894e-06
-4.0702613e-07
-3.3160472e-06
-3.9035654e-07
-3.3129406e-06
-3.7385678e-07
-3.3107668e-06
-3.5751334e-07
-3.3095236e-06
-3.4131317e-07
-3.3092094e-06
-3.2524365e-07
-3.3098233e-06
-3.0929267e-07
-3.3113646e-06
-2.9344857e-07
-3.3138333e-06
-2.7770018e-07
-3.3172299e-06
-2.620367e-07
-3.3215554e-06
-2.4644801e-07
-3.3268114e-06
-2.3092439e-07
-3.3330001e-06
-2.154566e-07
-3.3401244e-06
-2.0003588e-07
-3.348188e-06
-1.8465386e-07
-3.3571955e-06
-1.6930248e-07
-3.3671526e-06
-1.5397385e-07
-3.378066e-06
-1.3866017e-07
-3.3899437e-06
-1.2335341e-07
-3.402795e-06
-1.0804531e-07
-3.4166304e-06
-9.2727018e-08
-3.4314619e-06
-7.7388924e-08
-3.4473025e-06
-6.2020492e-08
-3.4641659e-06
-4.6610163e-08
-3.4820652e-06
-3.1145384e-08
-3.501007e-06
-1.5613068e-08
-3.5209729e-06
-3.5419156e-06
-2.1283942e-06
-5.2929419e-06
-2.0526999e-06
-5.205594e-06
-1.9805849e-06
-5.1214384e-06
-1.9118293e-06
-5.0403483e-06
-1.8462287e-06
-4.9622031e-06
-1.7835929e-06
-4.8868884e-06
-1.7237449e-06
-4.8142957e-06
-1.6665196e-06
-4.744322e-06
-1.6117633e-06
-4.6768697e-06
-1.5593324e-06
-4.6118459e-06
-1.5090927e-06
-4.5491627e-06
-1.4609189e-06
-4.4887368e-06
-1.4146937e-06
-4.430489e-06
-1.3703072e-06
-4.3743442e-06
-1.3276568e-06
-4.3202313e-06
-1.2866458e-06
-4.2680828e-06
-1.2471838e-06
-4.2178347e-06
-1.2091858e-06
-4.1694263e-06
-1.1725721e-06
-4.1228e-06
-1.1372676e-06
-4.0779014e-06
-1.1032017e-06
-4.0346788e-06
-1.0703078e-06
-3.9930831e-06
-1.0385235e-06
-3.9530681e-06
-1.0077896e-06
-3.9145898e-06
-9.7805053e-07
-3.8776067e-06
-9.4925371e-07
-3.8420792e-06
-9.2134948e-07
-3.8079703e-06
-8.9429095e-07
-3.7752447e-06
-8.6803375e-07
-3.743869e-06
-8.4253591e-07
-3.7138119e-06
-8.1775764e-07
-3.6850436e-06
-7.936613e-07
-3.6575362e-06
-7.7021118e-07
-3.6312632e-06
-7.4737333e-07
-3.6061996e-06
-7.2511563e-07
-3.5823221e-06
-7.0340753e-07
-3.5596087e-06
-6.8221994e-07
-3.5380387e-06
-6.6152519e-07
-3.5175926e-06
-6.4129699e-07
-3.4982523e-06
-6.2151023e-07
-3.4800008e-06
-6.0214099e-07
-3.4628223e-06
-5.8316644e-07
-3.446702e-06
-5.6456475e-07
-3.4316262e-06
-5.4631511e-07
-3.4175822e-06
-5.2839754e-07
-3.4045584e-06
-5.1079292e-07
-3.3925438e-06
-4.9348296e-07
-3.3815287e-06
-4.7645009e-07
-3.3715039e-06
-4.5967736e-07
-3.3624614e-06
-4.4314856e-07
-3.3543938e-06
-4.2684803e-07
-3.3472945e-06
-4.1076071e-07
-3.3411576e-06
-3.9487198e-07
-3.3359781e-06
-3.7916783e-07
-3.3317514e-06
-3.6363466e-07
-3.3284738e-06
-3.4825928e-07
-3.3261421e-06
-3.33029e-07
-3.3247538e-06
-3.1793152e-07
-3.3243069e-06
-3.0295497e-07
-3.3247998e-06
-2.880879e-07
-3.3262317e-06
-2.7331939e-07
-3.3286018e-06
-2.5863892e-07
-3.3319103e-06
-2.4403658e-07
-3.3361577e-06
-2.2950295e-07
-3.341345e-06
-2.1502917e-07
-3.3474738e-06
-2.00607e-07
-3.3545465e-06
-1.862287e-07
-3.3625663e-06
-1.7188704e-07
-3.3715372e-06
-1.5757517e-07
-3.3814645e-06
-1.4328652e-07
-3.3923547e-06
-1.2901467e-07
-3.4042156e-06
-1.1475302e-07
-3.4170567e-06
-1.0049461e-07
-3.4308888e-06
-8.6231835e-08
-3.4457247e-06
-7.1956189e-08
-3.4615781e-06
-5.7657931e-08
-3.4784641e-06
-4.3325982e-08
-3.4963972e-06
-2.8947956e-08
-3.515385e-06
-1.4510513e-08
-3.5354104e-06
-3.5564261e-06
-1.9760189e-06
-5.3671914e-06
-1.9053646e-06
-5.2762483e-06
-1.8380801e-06
-5.1887229e-06
-1.7739563e-06
-5.1044721e-06
-1.7127991e-06
-5.0233603e-06
-1.6544281e-06
-4.9452595e-06
-1.5986753e-06
-4.8700485e-06
-1.5453845e-06
-4.7976128e-06
-1.4944102e-06
-4.727844e-06
-1.4456164e-06
-4.6606396e-06
-1.3988765e-06
-4.5959026e-06
-1.354072e-06
-4.5335413e-06
-1.3110922e-06
-4.4734688e-06
-1.2698335e-06
-4.4156029e-06
-1.2301989e-06
-4.3598658e-06
-1.1920977e-06
-4.3061841e-06
-1.1554444e-06
-4.2544879e-06
-1.1201593e-06
-4.2047114e-06
-1.0861673e-06
-4.1567921e-06
-1.0533977e-06
-4.110671e-06
-1.0217842e-06
-4.0662922e-06
-9.9126437e-07
-4.0236029e-06
-9.6177951e-07
-3.982553e-06
-9.3327415e-07
-3.9430952e-06
-9.0569612e-07
-3.9051847e-06
-8.789961e-07
-3.8687792e-06
-8.5312762e-07
-3.8338388e-06
-8.2804672e-07
-3.8003255e-06
-8.0371186e-07
-3.7682039e-06
-7.8008373e-07
-3.73744e-06
-7.5712513e-07
-3.7080022e-06
-7.3480085e-07
-3.6798605e-06
-7.130775e-07
-3.6529865e-06
-6.9192336e-07
-3.6273537e-06
-6.7130844e-07
-3.6029371e-06
-6.5120413e-07
-3.579713e-06
-6.3158333e-07
-3.5576595e-06
-6.1242024e-07
-3.5367557e-06
-5.9369026e-07
-3.5169822e-06
-5.7537001e-07
-3.498321e-06
-5.5743714e-07
-3.4807551e-06
-5.3987041e-07
-3.4642687e-06
-5.2264951e-07
-3.4488471e-06
-5.0575497e-07
-3.4344768e-06
-4.8916819e-07
-3.4211451e-06
-4.7287141e-07
-3.4088406e-06
-4.5684755e-07
-3.3975525e-06
-4.4108021e-07
-3.3872713e-06
-4.2555366e-07
-3.377988e-06
-4.1025278e-07
-3.3696947e-06
-3.9516296e-07
-3.3623843e-06
-3.8027015e-07
-3.3560504e-06
-3.6556079e-07
-3.3506875e-06
-3.5102166e-07
-3.3462905e-06
-3.3664012e-07
-3.3428553e-06
-3.2240382e-07
-3.3403784e-06
-3.0830088e-07
-3.3388568e-06
-2.9431969e-07
-3.3382881e-06
-2.8044912e-07
-3.3386704e-06
-2.6667846e-07
-3.3400023e-06
-2.5299741e-07
-3.3422829e-06
-2.3939618e-07
-3.3455116e-06
-2.2586559e-07
-3.3496883e-06
-2.1239703e-07
-3.3548136e-06
-1.9898248e-07
-3.3608884e-06
-1.8561468e-07
-3.3679143e-06
-1.7228699e-07
-3.3758939e-06
-1.5899341e-07
-3.3848307e-06
-1.4572848e-07
-3.3947294e-06
-1.3248716e-07
-3.405596e-06
-1.1926455e-07
-3.4174382e-06
-1.0605569e-07
-3.4302655e-06
-9.2855272e-08
-3.4440892e-06
-7.9657211e-08
-3.4589227e-06
-6.6454279e-08
-3.4747811e-06
-5.3237681e-08
-3.4916807e-06
-3.9996973e-08
-3.5096379e-06
-2.6719751e-08
-3.5286622e-06
-1.3392248e-08
-3.5487379e-06
-3.5698183e-06
-1.8191409e-06
-5.4358777e-06
-1.7538065e-06
-5.3415827e-06
-1.691612e-06
-5.2509174e-06
-1.632361e-06
-5.1637232e-06
-1.575871e-06
-5.0798503e-06
-1.5219728e-06
-4.9991577e-06
-1.4705091e-06
-4.9215122e-06
-1.4213333e-06
-4.8467885e-06
-1.3743093e-06
-4.7748681e-06
-1.3293097e-06
-4.7056391e-06
-1.2862162e-06
-4.6389961e-06
-1.244918e-06
-4.5748395e-06
-1.2053118e-06
-4.513075e-06
-1.1673008e-06
-4.4536139e-06
-1.1307945e-06
-4.3963721e-06
-1.0957082e-06
-4.3412703e-06
-1.0619625e-06
-4.2882336e-06
-1.029483e-06
-4.2371909e-06
-9.9819959e-07
-4.1880754e-06
-9.6804673e-07
-4.1408239e-06
-9.3896266e-07
-4.0953763e-06
-9.1088932e-07
-4.0516762e-06
-8.837721e-07
-4.0096702e-06
-8.5755952e-07
-3.9693077e-06
-8.3220312e-07
-3.9305411e-06
-8.076571e-07
-3.8933252e-06
-7.8387834e-07
-3.8576175e-06
-7.6082601e-07
-3.8233779e-06
-7.3846164e-07
-3.7905682e-06
-7.1674878e-07
-3.7591529e-06
-6.9565299e-07
-3.7290981e-06
-6.7514157e-07
-3.7003719e-06
-6.5518362e-07
-3.6729445e-06
-6.357499e-07
-3.6467875e-06
-6.1681248e-07
-3.6218745e-06
-5.9834502e-07
-3.5981805e-06
-5.8032239e-07
-3.5756821e-06
-5.627207e-07
-3.5543574e-06
-5.455173e-07
-3.5341856e-06
-5.286905e-07
-3.5151478e-06
-5.1221977e-07
-3.4972259e-06
-4.9608537e-07
-3.4804031e-06
-4.8026857e-07
-3.4646639e-06
-4.6475143e-07
-3.4499939e-06
-4.4951678e-07
-3.4363798e-06
-4.3454817e-07
-3.4238092e-06
-4.1982989e-07
-3.4122708e-06
-4.0534681e-07
-3.4017544e-06
-3.9108439e-07
-3.3922504e-06
-3.770286e-07
-3.3837505e-06
-3.6316606e-07
-3.3762469e-06
-3.4948371e-07
-3.3697328e-06
-3.35969e-07
-3.3642022e-06
-3.2260971e-07
-3.3596498e-06
-3.0939407e-07
-3.356071e-06
-2.9631062e-07
-3.3534619e-06
-2.8334821e-07
-3.3518192e-06
-2.7049604e-07
-3.3511402e-06
-2.5774367e-07
-3.3514228e-06
-2.4508106e-07
-3.3526649e-06
-2.3249854e-07
-3.3548654e-06
-2.19987e-07
-3.3580231e-06
-2.075379e-07
-3.3621374e-06
-1.9514338e-07
-3.3672081e-06
-1.8279635e-07
-3.3732354e-06
-1.7049049e-07
-3.3802202e-06
-1.5822034e-07
-3.3881641e-06
-1.4598118e-07
-3.3970699e-06
-1.3376912e-07
-3.4069415e-06
-1.2158078e-07
-3.4177843e-06
-1.0941314e-07
-3.4296059e-06
-9.7263215e-08
-3.4424155e-06
-8.5127626e-08
-3.4562249e-06
-7.3002184e-08
-3.4710482e-06
-6.0881266e-08
-3.486902e-06
-4.8757374e-08
-3.5038046e-06
-3.6620698e-08
-3.5217746e-06
-2.4458808e-08
-3.5408241e-06
-1.2257157e-08
-3.5609395e-06
-3.5820755e-06
-1.6580714e-06
-5.498717e-06
-1.5983196e-06
-5.4013345e-06
-1.5414586e-06
-5.3077785e-06
-1.487306e-06
-5.2178757e-06
-1.435693e-06
-5.1314633e-06
-1.3864626e-06
-5.0483881e-06
-1.3394691e-06
-4.9685057e-06
-1.2945771e-06
-4.8916805e-06
-1.2516605e-06
-4.8177847e-06
-1.2106018e-06
-4.7466978e-06
-1.1712915e-06
-4.6783064e-06
-1.1336275e-06
-4.6125035e-06
-1.0975142e-06
-4.5491882e-06
-1.0628626e-06
-4.4882655e-06
-1.0295893e-06
-4.4296455e-06
-9.9761605e-07
-4.3732436e-06
-9.668698e-07
-4.3189798e-06
-9.3728197e-07
-4.2667788e-06
-9.087882e-07
-4.2165692e-06
-8.8132809e-07
-4.168284e-06
-8.548449e-07
-4.1218595e-06
-8.2928527e-07
-4.0772359e-06
-8.0459899e-07
-4.0343565e-06
-7.8073879e-07
-3.9931679e-06
-7.5766016e-07
-3.9536197e-06
-7.3532112e-07
-3.9156643e-06
-7.1368202e-07
-3.8792566e-06
-6.9270551e-07
-3.8443544e-06
-6.7235624e-07
-3.8109175e-06
-6.5260083e-07
-3.7789083e-06
-6.3340767e-07
-3.7482912e-06
-6.1474691e-07
-3.7190327e-06
-5.9659022e-07
-3.6911011e-06
-5.7891072e-07
-3.664467e-06
-5.61683e-07
-3.6391022e-06
-5.4488286e-07
-3.6149806e-06
-5.2848734e-07
-3.5920776e-06
-5.1247463e-07
-3.57037e-06
-4.9682395e-07
-3.5498363e-06
-4.8151557e-07
-3.5304562e-06
-4.6653061e-07
-3.5122108e-06
-4.5185115e-07
-3.4950825e-06
-4.3746002e-07
-3.479055e-06
-4.2334086e-07
-3.4641131e-06
-4.0947796e-07
-3.4502427e-06
-3.9585637e-07
-3.4374308e-06
-3.8246163e-07
-3.4256655e-06
-3.6928003e-07
-3.414936e-06
-3.5629823e-07
-3.4052322e-06
-3.4350347e-07
-3.3965452e-06
-3.3088347e-07
-3.3888669e-06
-3.1842628e-07
-3.38219e-06
-3.0612039e-07
-3.3765081e-06
-2.9395466e-07
-3.3718155e-06
-2.8191815e-07
-3.3681075e-06
-2.7000031e-07
-3.3653797e-06
-2.5819082e-07
-3.3636287e-06
-2.4647956e-07
-3.3628515e-06
-2.3485682e-07
-3.3630455e-06
-2.2331312e-07
-3.3642087e-06
-2.1183939e-07
-3.3663391e-06
-2.0042715e-07
-3.3694354e-06
-1.8906843e-07
-3.3734961e-06
-1.7775605e-07
-3.3785205e-06
-1.6648373e-07
-3.3845077e-06
-1.5524614e-07
-3.3914578e-06
-1.4403898e-07
-3.3993713e-06
-1.3285901e-07
-3.4082498e-06
-1.2170396e-07
-3.4180965e-06
-1.1057242e-07
-3.4289159e-06
-9.9463542e-08
-3.4407147e-06
-8.8376708e-08
-3.4535023e-06
-7.7310946e-08
-3.4672906e-06
-6.626441e-08
-3.4820947e-06
-5.5233708e-08
-3.4979327e-06
-4.4212919e-08
-3.5148254e-06
-3.3193117e-08
-3.5327944e-06
-2.2161848e-08
-3.5518554e-06
-1.1103413e-08
-3.571998e-06
-3.5931789e-06
-1.4931461e-06
-5.5554463e-06
-1.4392203e-06
-5.4552602e-06
-1.3879182e-06
-5.3590806e-06
-1.3390732e-06
-5.2667208e-06
-1.292531e-06
-5.1780056e-06
-1.2481484e-06
-5.0927706e-06
-1.2057927e-06
-5.0108615e-06
-1.1653402e-06
-4.932133e-06
-1.1266762e-06
-4.8564488e-06
-1.0896935e-06
-4.7836805e-06
-1.0542927e-06
-4.7137073e-06
-1.0203805e-06
-4.6464156e-06
-9.8787036e-07
-4.5816984e-06
-9.5668108e-07
-4.5194548e-06
-9.267369e-07
-4.4595897e-06
-8.9796684e-07
-4.4020136e-06
-8.7030451e-07
-4.3466421e-06
-8.4368764e-07
-4.2933956e-06
-8.1805784e-07
-4.242199e-06
-7.9336034e-07
-4.1929815e-06
-7.6954364e-07
-4.1456762e-06
-7.465594e-07
-4.1002201e-06
-7.243621e-07
-4.0565538e-06
-7.0290895e-07
-4.0146211e-06
-6.8215961e-07
-3.9743691e-06
-6.6207607e-07
-3.9357478e-06
-6.4262246e-07
-3.8987102e-06
-6.2376499e-07
-3.8632119e-06
-6.0547166e-07
-3.8292108e-06
-5.8771229e-07
-3.7966677e-06
-5.7045833e-07
-3.7655452e-06
-5.5368276e-07
-3.7358082e-06
-5.3735999e-07
-3.7074239e-06
-5.2146576e-07
-3.6803612e-06
-5.0597709e-07
-3.6545909e-06
-4.9087213e-07
-3.6300856e-06
-4.761302e-07
-3.6068196e-06
-4.6173159e-07
-3.5847687e-06
-4.4765756e-07
-3.5639104e-06
-4.3389028e-07
-3.5442235e-06
-4.2041278e-07
-3.5256883e-06
-4.0720886e-07
-3.5082865e-06
-3.9426309e-07
-3.4920008e-06
-3.8156067e-07
-3.4768155e-06
-3.6908746e-07
-3.4627159e-06
-3.5682998e-07
-3.4496882e-06
-3.4477525e-07
-3.4377202e-06
-3.3291083e-07
-3.4268004e-06
-3.2122477e-07
-3.4169183e-06
-3.0970554e-07
-3.4080645e-06
-2.9834203e-07
-3.4002304e-06
-2.8712346e-07
-3.3934085e-06
-2.7603943e-07
-3.3875921e-06
-2.6507978e-07
-3.3827751e-06
-2.5423461e-07
-3.3789526e-06
-2.4349421e-07
-3.3761201e-06
-2.3284908e-07
-3.3742738e-06
-2.2228984e-07
-3.3734107e-06
-2.1180735e-07
-3.373528e-06
-2.0139273e-07
-3.3746233e-06
-1.910374e-07
-3.3766944e-06
-1.807333e-07
-3.3797395e-06
-1.7047298e-07
-3.3837565e-06
-1.6024987e-07
-3.3887436e-06
-1.5005838e-07
-3.3946992e-06
-1.398941e-07
-3.4016221e-06
-1.2975391e-07
-3.4095115e-06
-1.1963611e-07
-3.4183677e-06
-1.0954025e-07
-3.4281924e-06
-9.9467134e-08
-3.438989e-06
-8.9418455e-08
-3.4507634e-06
-7.9396444e-08
-3.4635243e-06
-6.9403172e-08
-3.4772838e-06
-5.9439932e-08
-3.4920579e-06
-4.9506054e-08
-3.5078666e-06
-3.9597981e-08
-3.5247335e-06
-2.970811e-08
-3.5426843e-06
-1.9823988e-08
-3.5617395e-06
-9.9282502e-09
-3.5818937e-06
-3.6031072e-06
-1.3247237e-06
-5.6058252e-06
-1.2768462e-06
-5.5031377e-06
-1.2313086e-06
-5.4046182e-06
-1.1879617e-06
-5.3100677e-06
-1.146667e-06
-5.2193002e-06
-1.1072964e-06
-5.1321412e-06
-1.0697308e-06
-5.048427e-06
-1.0338597e-06
-4.9680041e-06
-9.9958018e-07
-4.8907283e-06
-9.6679655e-07
-4.8164641e-06
-9.3541969e-07
-4.7450842e-06
-9.0536646e-07
-4.6764689e-06
-8.7655927e-07
-4.6105056e-06
-8.4892572e-07
-4.5470883e-06
-8.2239806e-07
-4.4861173e-06
-7.9691297e-07
-4.4274987e-06
-7.7241115e-07
-4.371144e-06
-7.4883703e-07
-4.3169697e-06
-7.2613858e-07
-4.2648975e-06
-7.0426689e-07
-4.2148532e-06
-6.8317612e-07
-4.166767e-06
-6.628231e-07
-4.1205731e-06
-6.4316736e-07
-4.0762095e-06
-6.241707e-07
-4.0336177e-06
-6.0579724e-07
-3.9927425e-06
-5.880131e-07
-3.953532e-06
-5.7078641e-07
-3.9159369e-06
-5.5408702e-07
-3.8799112e-06
-5.3788656e-07
-3.8454113e-06
-5.2215809e-07
-3.8123961e-06
-5.0687626e-07
-3.780827e-06
-4.9201707e-07
-3.7506674e-06
-4.7755774e-07
-3.7218833e-06
-4.6347671e-07
-3.6944422e-06
-4.4975359e-07
-3.668314e-06
-4.3636902e-07
-3.6434702e-06
-4.2330452e-07
-3.619884e-06
-4.1054266e-07
-3.5975305e-06
-3.9806679e-07
-3.5763862e-06
-3.8586113e-07
-3.5564291e-06
-3.7391057e-07
-3.5376389e-06
-3.6220079e-07
-3.5199963e-06
-3.5071804e-07
-3.5034835e-06
-3.3944925e-07
-3.4880843e-06
-3.283819e-07
-3.4737832e-06
-3.1750398e-07
-3.4605662e-06
-3.0680401e-07
-3.4484202e-06
-2.9627098e-07
-3.4373334e-06
-2.8589423e-07
-3.427295e-06
-2.7566359e-07
-3.4182951e-06
-2.6556913e-07
-3.4103249e-06
-2.5560135e-07
-3.4033763e-06
-2.4575096e-07
-3.3974425e-06
-2.3600887e-07
-3.3925172e-06
-2.2636615e-07
-3.3885953e-06
-2.1681405e-07
-3.3856722e-06
-2.0734386e-07
-3.383744e-06
-1.9794693e-07
-3.3828076e-06
-1.886147e-07
-3.3828603e-06
-1.7933867e-07
-3.3838993e-06
-1.7011069e-07
-3.3859224e-06
-1.6092296e-07
-3.3889272e-06
-1.517684e-07
-3.392911e-06
-1.426408e-07
-3.3978712e-06
-1.3353518e-07
-3.4038049e-06
-1.2444789e-07
-3.4107093e-06
-1.1537708e-07
-3.4185823e-06
-1.0632249e-07
-3.4274222e-06
-9.7285745e-08
-3.4372291e-06
-8.8270106e-08
-3.4480046e-06
-7.9280229e-08
-3.4597533e-06
-7.0321819e-08
-3.4724827e-06
-6.1400793e-08
-3.4862049e-06
-5.2522387e-08
-3.5009363e-06
-4.3689891e-08
-3.5166991e-06
-3.4903032e-08
-3.5335203e-06
-2.6156301e-08
-3.551431e-06
-1.7437539e-08
-3.5704583e-06
-8.7272054e-09
-3.590604e-06
-3.6118344e-06
-1.1531838e-06
-5.6496382e-06
-1.1115537e-06
-5.5447679e-06
-1.0719649e-06
-5.4442069e-06
-1.0342867e-06
-5.3477459e-06
-9.9839782e-07
-5.2551891e-06
-9.6418594e-07
-5.1663531e-06
-9.3154685e-07
-5.0810661e-06
-9.0038377e-07
-4.9991672e-06
-8.7060671e-07
-4.9205054e-06
-8.4213195e-07
-4.8449389e-06
-8.1488151e-07
-4.7723346e-06
-7.887827e-07
-4.7025677e-06
-7.6376767e-07
-4.6355206e-06
-7.3977316e-07
-4.5710828e-06
-7.1673995e-07
-4.5091505e-06
-6.9461273e-07
-4.4496259e-06
-6.733397e-07
-4.392417e-06
-6.5287237e-07
-4.3374371e-06
-6.3316527e-07
-4.2846046e-06
-6.1417574e-07
-4.2338427e-06
-5.9586374e-07
-4.185079e-06
-5.7819169e-07
-4.1382452e-06
-5.6112423e-07
-4.093277e-06
-5.4462807e-07
-4.0501139e-06
-5.2867189e-07
-4.0086987e-06
-5.1322624e-07
-3.9689776e-06
-4.9826327e-07
-3.9308999e-06
-4.8375674e-07
-3.8944178e-06
-4.6968186e-07
-3.8594862e-06
-4.5601529e-07
-3.8260627e-06
-4.4273489e-07
-3.7941074e-06
-4.2981976e-07
-3.7635826e-06
-4.1725006e-07
-3.7344529e-06
-4.0500709e-07
-3.7066852e-06
-3.9307305e-07
-3.6802481e-06
-3.8143106e-07
-3.6551122e-06
-3.7006519e-07
-3.6312499e-06
-3.5896017e-07
-3.6086355e-06
-3.4810159e-07
-3.5872448e-06
-3.3747567e-07
-3.5670551e-06
-3.2706936e-07
-3.5480452e-06
-3.1687014e-07
-3.5301955e-06
-3.0686613e-07
-3.5134876e-06
-2.9704595e-07
-3.4979045e-06
-2.8739872e-07
-3.4834304e-06
-2.7791403e-07
-3.4700509e-06
-2.6858194e-07
-3.4577523e-06
-2.5939281e-07
-3.4465226e-06
-2.5033744e-07
-3.4363504e-06
-2.4140695e-07
-3.4272256e-06
-2.325928e-07
-3.419139e-06
-2.2388661e-07
-3.4120825e-06
-2.1528035e-07
-3.4060488e-06
-2.0676601e-07
-3.4010316e-06
-1.9833582e-07
-3.3970255e-06
-1.8998192e-07
-3.3940261e-06
-1.8169642e-07
-3.3920296e-06
-1.7347137e-07
-3.3910327e-06
-1.652987e-07
-3.3910329e-06
-1.5717032e-07
-3.3920277e-06
-1.4907816e-07
-3.3940146e-06
-1.410146e-07
-3.3969907e-06
-1.3297257e-07
-3.4009531e-06
-1.2494603e-07
-3.4058977e-06
-1.1693029e-07
-3.4118206e-06
-1.0892248e-07
-3.4187172e-06
-1.009217e-07
-3.4265831e-06
-9.2929274e-08
-3.4354147e-06
-8.4948984e-08
-3.4452094e-06
-7.6986827e-08
-3.4559668e-06
-6.9050956e-08
-3.4676891e-06
-6.1151178e-08
-3.4803825e-06
-5.3298213e-08
-3.4940578e-06
-4.5502638e-08
-3.5087319e-06
-3.7773047e-08
-3.5244286e-06
-3.0114166e-08
-3.5411792e-06
-2.2523829e-08
-3.5590213e-06
-1.4991101e-08
-3.577991e-06
-7.4941203e-09
-3.598101e-06
-3.6193285e-06
-9.7892295e-07
-5.6866964e-06
-9.4371471e-07
-5.5799761e-06
-9.1023618e-07
-5.4776854e-06
-8.7837609e-07
-5.379606e-06
-8.4803143e-07
-5.2855338e-06
-8.1910671e-07
-5.1952778e-06
-7.9151341e-07
-5.1086594e-06
-7.6516926e-07
-5.0255114e-06
-7.3999782e-07
-4.9456768e-06
-7.1592797e-07
-4.8690087e-06
-6.9289345e-07
-4.7953691e-06
-6.7083254e-07
-4.7246286e-06
-6.4968763e-07
-4.6566655e-06
-6.2940493e-07
-4.5913655e-06
-6.0993422e-07
-4.5286212e-06
-5.9122854e-07
-4.4683316e-06
-5.7324391e-07
-4.4104016e-06
-5.5593921e-07
-4.3547418e-06
-5.3927582e-07
-4.301268e-06
-5.232176e-07
-4.2499009e-06
-5.0773057e-07
-4.200566e-06
-4.9278284e-07
-4.1531929e-06
-4.7834442e-07