/*--------------------------------*- C++ -*----------------------------------*\
| =========                 |                                                 |
| \\      /  F ield         | OpenFOAM: The Open Source CFD Toolbox           |
|  \\    /   O peration     | Version:  2106                                  |
|   \\  /    A nd           | Website:  www.openfoam.com                      |
|    \\/     M anipulation  |                                                 |
\*---------------------------------------------------------------------------*/
FoamFile
{
    version     2.0;
    format      ascii;
    arch        "LSB;label=32;scalar=64";
    class       surfaceScalarField;
    location    "0.022";
    object      phi;
}
// * * * * * * * * * * * * * * * * * * * * * * * * * * * * * * * * * * * * * //

dimensions      [0 3 -1 0 0 0 0];

oriented        oriented;

internalField   nonuniform List<scalar> 
130560
(
6.2431322e-06
-6.2431322e-06
1.2481949e-05
-6.238817e-06
1.871214e-05
-6.2301905e-06
2.49294e-05
-6.2172605e-06
3.1129439e-05
-6.2000386e-06
3.7307979e-05
-6.1785404e-06
4.3460765e-05
-6.1527852e-06
4.9583561e-05
-6.1227961e-06
5.5672161e-05
-6.0886001e-06
6.1722389e-05
-6.0502279e-06
6.7730103e-05
-6.007714e-06
7.3691199e-05
-5.9610963e-06
7.9601615e-05
-5.9104164e-06
8.5457335e-05
-5.8557197e-06
9.125439e-05
-5.7970548e-06
9.6988864e-05
-5.7344738e-06
0.0001026569
-5.6680322e-06
0.00010825468
-5.5977887e-06
0.00011377849
-5.5238052e-06
0.00011922464
-5.4461469e-06
0.00012458952
-5.3648818e-06
0.0001298696
-5.280081e-06
0.00013506142
-5.1918183e-06
0.00014016159
-5.1001704e-06
0.0001451668
-5.0052165e-06
0.00015007384
-4.9070385e-06
0.00015487956
-4.8057208e-06
0.00015958091
-4.7013498e-06
0.00016417493
-4.5940145e-06
0.00016865873
-4.4838059e-06
0.00017302955
-4.3708168e-06
0.00017728469
-4.2551422e-06
0.00018142157
-4.1368786e-06
0.0001854377
-4.0161242e-06
0.00018933067
-3.892979e-06
0.00019309822
-3.767544e-06
0.00019673814
-3.6399217e-06
0.00020024836
-3.5102157e-06
0.00020362689
-3.3785307e-06
0.00020687186
-3.2449722e-06
0.00020998151
-3.1096466e-06
0.00021295417
-2.9726609e-06
0.00021578829
-2.8341225e-06
0.00021848243
-2.6941396e-06
0.00022103525
-2.5528202e-06
0.00022344552
-2.4102729e-06
0.00022571213
-2.266606e-06
0.00022783406
-2.1219281e-06
0.0002298104
-1.9763473e-06
0.00023164037
-1.8299716e-06
0.00023332328
-1.6829084e-06
0.00023485855
-1.5352648e-06
0.0002362457
-1.3871471e-06
0.00023748436
-1.2386609e-06
0.00023857427
-1.0899109e-06
0.00023951527
-9.4100107e-07
0.0002403073
-7.9203409e-07
0.00024095041
-6.4311162e-07
0.00024144475
-4.9433405e-07
0.00024179055
-3.4580045e-07
0.00024198816
-1.976085e-07
0.00024203801
-4.985439e-08
0.00024194064
9.7366702e-08
0.00024169668
2.4396263e-07
0.00024130684
3.8984319e-07
0.00024077192
5.3491677e-07
0.00024009283
6.7909655e-07
0.00023927053
8.2229691e-07
0.00023830609
9.6443409e-07
0.00023720067
1.1054263e-06
0.00023595547
1.2451939e-06
0.00023457181
1.3836593e-06
0.00023305107
1.520747e-06
0.00023139468
1.6563837e-06
0.00022960419
1.7904982e-06
0.00022768116
1.9230217e-06
0.00022562728
2.0538875e-06
0.00022344425
2.1830312e-06
0.00022113386
2.3103905e-06
0.00021869795
2.4359056e-06
0.00021613843
2.5595188e-06
0.00021345726
2.6811748e-06
0.00021065644
2.8008202e-06
0.00020773803
2.9184043e-06
0.00020470415
3.0338782e-06
0.00020155696
3.1471955e-06
0.00019829865
3.2583118e-06
0.00019493146
3.3671848e-06
0.00019145769
3.4737745e-06
0.00018787964
3.5780427e-06
0.00018419969
3.6799535e-06
0.00018042022
3.7794727e-06
0.00017654365
3.8765684e-06
0.00017257244
3.9712102e-06
0.00016850907
4.0633698e-06
0.00016435605
4.1530206e-06
0.00016011591
4.2401376e-06
0.00015579121
4.3246978e-06
0.00015138453
4.4066794e-06
0.00014689847
4.4860624e-06
0.00014233564
4.5628283e-06
0.00013769868
4.6369599e-06
0.00013299024
4.7084413e-06
0.00012821298
4.7772581e-06
0.00012336959
4.843397e-06
0.00011846274
4.9068458e-06
0.00011349515
4.9675935e-06
0.00010846952
5.0256301e-06
0.00010338857
5.0809465e-06
9.8255036e-05
5.1335346e-06
9.3071649e-05
5.1833871e-06
8.7841152e-05
5.2304974e-06
8.2566292e-05
5.2748597e-06
7.7249823e-05
5.3164689e-06
7.1894503e-05
5.3553203e-06
6.6503093e-05
5.3914101e-06
6.1078358e-05
5.4247347e-06
5.5623067e-05
5.4552912e-06
5.013999e-05
5.4830768e-06
4.4631901e-05
5.5080894e-06
3.9101574e-05
5.5303271e-06
3.3551785e-05
5.5497881e-06
2.7985314e-05
5.5664714e-06
2.2404939e-05
5.5803756e-06
1.6813439e-05
5.5915e-06
1.1213595e-05
5.5998438e-06
5.6081881e-06
5.6054066e-06
5.5221687e-15
5.6081881e-06
-5.6081881e-06
5.6081881e-06
-1.1213595e-05
5.6054066e-06
-1.6813439e-05
5.5998438e-06
-2.2404939e-05
5.5915e-06
-2.7985314e-05
5.5803756e-06
-3.3551785e-05
5.5664714e-06
-3.9101574e-05
5.5497881e-06
-4.4631901e-05
5.5303271e-06
-5.013999e-05
5.5080894e-06
-5.5623067e-05
5.4830768e-06
-6.1078358e-05
5.4552912e-06
-6.6503093e-05
5.4247347e-06
-7.1894503e-05
5.3914101e-06
-7.7249823e-05
5.3553203e-06
-8.2566292e-05
5.3164689e-06
-8.7841152e-05
5.2748597e-06
-9.3071649e-05
5.2304974e-06
-9.8255036e-05
5.1833871e-06
-0.00010338857
5.1335346e-06
-0.00010846952
5.0809465e-06
-0.00011349515
5.0256301e-06
-0.00011846274
4.9675935e-06
-0.00012336959
4.9068458e-06
-0.00012821298
4.843397e-06
-0.00013299024
4.7772581e-06
-0.00013769868
4.7084413e-06
-0.00014233564
4.6369599e-06
-0.00014689847
4.5628283e-06
-0.00015138453
4.4860624e-06
-0.00015579121
4.4066794e-06
-0.00016011591
4.3246978e-06
-0.00016435605
4.2401376e-06
-0.00016850907
4.1530206e-06
-0.00017257244
4.0633698e-06
-0.00017654365
3.9712102e-06
-0.00018042022
3.8765684e-06
-0.00018419969
3.7794727e-06
-0.00018787964
3.6799535e-06
-0.00019145769
3.5780427e-06
-0.00019493146
3.4737745e-06
-0.00019829865
3.3671848e-06
-0.00020155696
3.2583118e-06
-0.00020470415
3.1471955e-06
-0.00020773803
3.0338782e-06
-0.00021065644
2.9184043e-06
-0.00021345726
2.8008202e-06
-0.00021613843
2.6811748e-06
-0.00021869795
2.5595188e-06
-0.00022113386
2.4359056e-06
-0.00022344425
2.3103905e-06
-0.00022562728
2.1830312e-06
-0.00022768116
2.0538875e-06
-0.00022960419
1.9230217e-06
-0.00023139468
1.7904982e-06
-0.00023305107
1.6563837e-06
-0.00023457181
1.520747e-06
-0.00023595547
1.3836593e-06
-0.00023720067
1.2451939e-06
-0.00023830609
1.1054263e-06
-0.00023927053
9.6443409e-07
-0.00024009283
8.2229691e-07
-0.00024077192
6.7909655e-07
-0.00024130684
5.3491677e-07
-0.00024169668
3.8984319e-07
-0.00024194064
2.4396263e-07
-0.00024203801
9.7366702e-08
-0.00024198816
-4.9854391e-08
-0.00024179055
-1.976085e-07
-0.00024144475
-3.4580046e-07
-0.00024095041
-4.9433405e-07
-0.0002403073
-6.4311162e-07
-0.00023951527
-7.9203409e-07
-0.00023857427
-9.4100107e-07
-0.00023748436
-1.0899109e-06
-0.0002362457
-1.2386609e-06
-0.00023485855
-1.3871471e-06
-0.00023332328
-1.5352648e-06
-0.00023164038
-1.6829084e-06
-0.0002298104
-1.8299716e-06
-0.00022783406
-1.9763473e-06
-0.00022571213
-2.1219281e-06
-0.00022344552
-2.266606e-06
-0.00022103525
-2.4102729e-06
-0.00021848243
-2.5528202e-06
-0.00021578829
-2.6941396e-06
-0.00021295417
-2.8341225e-06
-0.00020998151
-2.9726609e-06
-0.00020687186
-3.1096466e-06
-0.00020362689
-3.2449722e-06
-0.00020024836
-3.3785307e-06
-0.00019673814
-3.5102157e-06
-0.00019309822
-3.6399217e-06
-0.00018933067
-3.767544e-06
-0.0001854377
-3.892979e-06
-0.00018142157
-4.0161242e-06
-0.00017728469
-4.1368786e-06
-0.00017302955
-4.2551422e-06
-0.00016865873
-4.3708168e-06
-0.00016417493
-4.4838059e-06
-0.00015958091
-4.5940145e-06
-0.00015487956
-4.7013498e-06
-0.00015007384
-4.8057208e-06
-0.0001451668
-4.9070385e-06
-0.00014016159
-5.0052165e-06
-0.00013506142
-5.1001704e-06
-0.0001298696
-5.1918183e-06
-0.00012458952
-5.280081e-06
-0.00011922464
-5.3648818e-06
-0.00011377849
-5.4461469e-06
-0.00010825468
-5.5238052e-06
-0.0001026569
-5.5977887e-06
-9.6988864e-05
-5.6680322e-06
-9.125439e-05
-5.7344738e-06
-8.5457335e-05
-5.7970548e-06
-7.9601615e-05
-5.8557197e-06
-7.3691199e-05
-5.9104164e-06
-6.7730103e-05
-5.9610963e-06
-6.1722389e-05
-6.007714e-06
-5.5672161e-05
-6.0502279e-06
-4.9583561e-05
-6.0886001e-06
-4.3460765e-05
-6.1227961e-06
-3.7307979e-05
-6.1527852e-06
-3.1129439e-05
-6.1785404e-06
-2.49294e-05
-6.2000386e-06
-1.871214e-05
-6.2172605e-06
-1.2481949e-05
-6.2301905e-06
-6.2431323e-06
-6.238817e-06
-6.2431322e-06
6.2522615e-06
-1.2495394e-05
1.2500201e-05
-1.2486757e-05
1.8739501e-05
-1.2469491e-05
2.4965852e-05
-1.2443611e-05
3.1174954e-05
-1.2409141e-05
3.7362526e-05
-1.2366112e-05
4.3524303e-05
-1.2314562e-05
4.9656045e-05
-1.2254539e-05
5.575354e-05
-1.2186095e-05
6.1812604e-05
-1.2109292e-05
6.782909e-05
-1.20242e-05
7.3798887e-05
-1.1930893e-05
7.9717927e-05
-1.1829457e-05
8.5582187e-05
-1.171998e-05
9.1387694e-05
-1.1602561e-05
9.7130525e-05
-1.1477305e-05
0.00010280681
-1.134432e-05
0.00010841275
-1.1203727e-05
0.00011394459
-1.1055648e-05
0.00011939866
-1.0900214e-05
0.00012477134
-1.073756e-05
0.00013005909
-1.056783e-05
0.00013525844
-1.0391171e-05
0.00014036601
-1.0207737e-05
0.00014537848
-1.0017685e-05
0.00015029262
-9.8211809e-06
0.00015510529
-9.6183923e-06
0.00015981343
-9.4094927e-06
0.00016441408
-9.1946601e-06
0.00016890435
-8.9740764e-06
0.00017328146
-8.7479279e-06
0.00017754272
-8.5164042e-06
0.00018168554
-8.2796988e-06
0.00018570743
-8.0380083e-06
0.00018960598
-7.7915325e-06
0.00019337891
-7.5404739e-06
0.00019702403
-7.2850375e-06
0.00020053924
-7.0254308e-06
0.00020392257
-6.7618632e-06
0.00020717215
-6.4945459e-06
0.00021028619
-6.2236919e-06
0.00021326305
-5.9495154e-06
0.00021610116
-5.6722315e-06
0.00021879907
-5.3920563e-06
0.00022135546
-5.1092066e-06
0.00022376909
-4.8238994e-06
0.00022603883
-4.5363516e-06
0.00022816368
-4.2467805e-06
0.00023014274
-3.9554025e-06
0.0002319752
-3.6624336e-06
0.00023366038
-3.3680892e-06
0.0002351977
-3.0725833e-06
0.00023658668
-2.7761287e-06
0.00023782696
-2.4789369e-06
0.00023891826
-2.1812176e-06
0.00023986044
-1.8831786e-06
0.00024065343
-1.5850256e-06
0.00024129728
-1.2869621e-06
0.00024179214
-9.8918891e-07
0.00024213824
-6.9190445e-07
0.00024233594
-3.9530422e-07
0.00024238567
-9.9580804e-08
0.00024228796
1.9507624e-07
0.00024204344
4.8848144e-07
0.00024165283
7.8045256e-07
0.00024111693
1.0708095e-06
0.00024043665
1.359377e-06
0.00023961297
1.6459838e-06
0.00023864694
1.9304621e-06
0.00023753972
2.2126483e-06
0.00023629253
2.4923831e-06
0.00023490668
2.7695109e-06
0.00023338354
3.0438808e-06
0.00023172458
3.3153461e-06
0.00022993131
3.5837644e-06
0.00022800534
3.8489978e-06
0.00022594831
4.1109129e-06
0.00022376196
4.3693807e-06
0.00022144808
4.6242768e-06
0.0002190085
4.8754812e-06
0.00021644514
5.1228786e-06
0.00021375996
5.3663582e-06
0.00021095497
5.6058134e-06
0.00020803223
5.8411424e-06
0.00020499386
6.0722476e-06
0.00020184202
6.299036e-06
0.00019857891
6.5214188e-06
0.00019520678
6.7393114e-06
0.00019172792
6.9526337e-06
0.00018814466
7.1613095e-06
0.00018445934
7.3652666e-06
0.00018067438
7.5644369e-06
0.00017679219
7.7587563e-06
0.00017281524
7.9481642e-06
0.000168746
8.1326039e-06
0.000164587
8.3120222e-06
0.00016034077
8.4863692e-06
0.00015600987
8.6555987e-06
0.00015159688
8.8196673e-06
0.00014710441
8.978535e-06
0.00014253507
9.1321645e-06
0.00013789151
9.2805217e-06
0.00013317638
9.423575e-06
0.00012839234
9.5612952e-06
0.00012354208
9.6936558e-06
0.0001186283
9.8206327e-06
0.00011365368
9.9422037e-06
0.00010862097
1.0058349e-05
0.00010353286
1.016905e-05
9.8392107e-05
1.0274291e-05
9.3201437e-05
1.0374057e-05
8.79636e-05
1.0468335e-05
8.2681346e-05
1.0557113e-05
7.7357433e-05
1.0640382e-05
7.1994621e-05
1.0718132e-05
6.6595676e-05
1.0790355e-05
6.1163366e-05
1.0857045e-05
5.5700463e-05
1.0918194e-05
5.0209741e-05
1.0973799e-05
4.4693976e-05
1.1023854e-05
3.9155948e-05
1.1068356e-05
3.3598435e-05
1.1107301e-05
2.8024219e-05
1.1140687e-05
2.2436082e-05
1.1168512e-05
1.6836808e-05
1.1190774e-05
1.122918e-05
1.1207472e-05
5.6159822e-06
1.1218604e-05
5.5680177e-15
1.122417e-05
-5.6159822e-06
1.122417e-05
-1.122918e-05
1.1218604e-05
-1.6836808e-05
1.1207472e-05
-2.2436082e-05
1.1190774e-05
-2.8024219e-05
1.1168512e-05
-3.3598435e-05
1.1140687e-05
-3.9155948e-05
1.1107301e-05
-4.4693976e-05
1.1068356e-05
-5.0209741e-05
1.1023854e-05
-5.5700463e-05
1.0973799e-05
-6.1163366e-05
1.0918194e-05
-6.6595676e-05
1.0857045e-05
-7.1994621e-05
1.0790355e-05
-7.7357433e-05
1.0718132e-05
-8.2681346e-05
1.0640382e-05
-8.79636e-05
1.0557113e-05
-9.3201437e-05
1.0468335e-05
-9.8392107e-05
1.0374057e-05
-0.00010353286
1.0274291e-05
-0.00010862097
1.016905e-05
-0.00011365368
1.0058349e-05
-0.0001186283
9.9422037e-06
-0.00012354208
9.8206327e-06
-0.00012839234
9.6936558e-06
-0.00013317638
9.5612952e-06
-0.00013789151
9.423575e-06
-0.00014253507
9.2805217e-06
-0.00014710441
9.1321645e-06
-0.00015159688
8.978535e-06
-0.00015600987
8.8196673e-06
-0.00016034077
8.6555987e-06
-0.000164587
8.4863692e-06
-0.000168746
8.3120222e-06
-0.00017281524
8.1326039e-06
-0.00017679219
7.9481642e-06
-0.00018067438
7.7587563e-06
-0.00018445934
7.5644369e-06
-0.00018814466
7.3652666e-06
-0.00019172792
7.1613095e-06
-0.00019520678
6.9526337e-06
-0.00019857891
6.7393114e-06
-0.00020184202
6.5214188e-06
-0.00020499386
6.299036e-06
-0.00020803223
6.0722476e-06
-0.00021095497
5.8411423e-06
-0.00021375996
5.6058134e-06
-0.00021644514
5.3663582e-06
-0.0002190085
5.1228786e-06
-0.00022144808
4.8754812e-06
-0.00022376196
4.6242768e-06
-0.00022594831
4.3693807e-06
-0.00022800534
4.1109129e-06
-0.00022993131
3.8489978e-06
-0.00023172458
3.5837644e-06
-0.00023338354
3.3153461e-06
-0.00023490668
3.0438808e-06
-0.00023629253
2.7695109e-06
-0.00023753972
2.4923831e-06
-0.00023864694
2.2126483e-06
-0.00023961297
1.9304621e-06
-0.00024043665
1.6459838e-06
-0.00024111693
1.359377e-06
-0.00024165283
1.0708095e-06
-0.00024204344
7.8045256e-07
-0.00024228796
4.8848143e-07
-0.00024238567
1.9507624e-07
-0.00024233594
-9.9580804e-08
-0.00024213824
-3.9530422e-07
-0.00024179214
-6.9190445e-07
-0.00024129728
-9.8918891e-07
-0.00024065343
-1.2869621e-06
-0.00023986044
-1.5850256e-06
-0.00023891826
-1.8831786e-06
-0.00023782696
-2.1812176e-06
-0.00023658668
-2.4789369e-06
-0.0002351977
-2.7761287e-06
-0.00023366038
-3.0725833e-06
-0.0002319752
-3.3680892e-06
-0.00023014274
-3.6624336e-06
-0.00022816368
-3.9554025e-06
-0.00022603883
-4.2467805e-06
-0.00022376909
-4.5363516e-06
-0.00022135546
-4.8238994e-06
-0.00021879907
-5.1092066e-06
-0.00021610116
-5.3920563e-06
-0.00021326305
-5.6722315e-06
-0.00021028619
-5.9495154e-06
-0.00020717215
-6.2236919e-06
-0.00020392257
-6.4945459e-06
-0.00020053924
-6.7618632e-06
-0.00019702403
-7.0254308e-06
-0.00019337891
-7.2850375e-06
-0.00018960598
-7.5404739e-06
-0.00018570743
-7.7915325e-06
-0.00018168554
-8.0380083e-06
-0.00017754272
-8.2796988e-06
-0.00017328146
-8.5164042e-06
-0.00016890435
-8.7479279e-06
-0.00016441408
-8.9740764e-06
-0.00015981343
-9.1946601e-06
-0.00015510529
-9.4094927e-06
-0.00015029262
-9.6183923e-06
-0.00014537848
-9.8211809e-06
-0.00014036601
-1.0017685e-05
-0.00013525844
-1.0207737e-05
-0.00013005909
-1.0391171e-05
-0.00012477134
-1.056783e-05
-0.00011939866
-1.073756e-05
-0.00011394459
-1.0900214e-05
-0.00010841275
-1.1055648e-05
-0.00010280681
-1.1203727e-05
-9.7130525e-05
-1.134432e-05
-9.1387694e-05
-1.1477305e-05
-8.5582187e-05
-1.1602561e-05
-7.9717927e-05
-1.171998e-05
-7.3798887e-05
-1.1829457e-05
-6.782909e-05
-1.1930893e-05
-6.1812604e-05
-1.20242e-05
-5.575354e-05
-1.2109292e-05
-4.9656045e-05
-1.2186095e-05
-4.3524303e-05
-1.2254539e-05
-3.7362526e-05
-1.2314562e-05
-3.1174954e-05
-1.2366112e-05
-2.4965852e-05
-1.2409141e-05
-1.8739501e-05
-1.2443611e-05
-1.2500201e-05
-1.2469491e-05
-6.2522615e-06
-1.2486757e-05
-1.2495394e-05
6.2683461e-06
-1.876374e-05
1.2532359e-05
-1.875077e-05
1.8787711e-05
-1.8724842e-05
2.5030079e-05
-1.8685979e-05
3.1255154e-05
-1.8634217e-05
3.7458643e-05
-1.8569601e-05
4.3636271e-05
-1.849219e-05
4.9783787e-05
-1.8402054e-05
5.5896966e-05
-1.8299274e-05
6.1971616e-05
-1.8183942e-05
6.8003577e-05
-1.805616e-05
7.3988728e-05
-1.7916045e-05
7.9922992e-05
-1.7763721e-05
8.5802335e-05
-1.7599323e-05
9.1622771e-05
-1.7422998e-05
9.738037e-05
-1.7234903e-05
0.00010307125
-1.7035205e-05
0.00010869161
-1.6824079e-05
0.00011423767
-1.6601713e-05
0.00011970576
-1.6368301e-05
0.00012509225
-1.6124049e-05
0.00013039359
-1.586917e-05
0.0001356063
-1.5603886e-05
0.00014072699
-1.5328427e-05
0.00014575234
-1.5043032e-05
0.00015067911
-1.4747947e-05
0.00015550414
-1.4443425e-05
0.00016022437
-1.4129726e-05
0.00016483683
-1.3807118e-05
0.00016933863
-1.3475873e-05
0.00017372697
-1.3136272e-05
0.00017799917
-1.2788599e-05
0.00018215261
-1.2433145e-05
0.00018618481
-1.2070204e-05
0.00019009335
-1.1700078e-05
0.00019387595
-1.132307e-05
0.0001975304
-1.0939488e-05
0.00020105461
-1.0549644e-05
0.0002044466
-1.0153851e-05
0.00020770448
-9.7524283e-06
0.00021082649
-9.3456942e-06
0.00021381094
-8.9339707e-06
0.00021665629
-8.5175811e-06
0.00021936108
-8.0968498e-06
0.00022192398
-7.6721023e-06
0.00022434375
-7.2436645e-06
0.00022661926
-6.8118623e-06
0.0002287495
-6.3770217e-06
0.00023073356
-5.9394679e-06
0.00023257065
-5.4995254e-06
0.00023426008
-5.0575172e-06
0.00023580126
-4.6137651e-06
0.00023719372
-4.1685887e-06
0.00023843709
-3.7223055e-06
0.00023953111
-3.2752303e-06
0.0002404756
-2.8276753e-06
0.00024127053
-2.3799493e-06
0.00024191592
-1.932358e-06
0.00024241194
-1.4852031e-06
0.00024275881
-1.0387824e-06
0.0002429569
-5.9338962e-07
0.00024300663
-1.493138e-07
0.00024290855
2.931606e-07
0.00024266328
7.337545e-07
0.00024227153
1.1721937e-06
0.00024173413
1.6082089e-06
0.00024105197
2.0415367e-06
0.00024022604
2.4719194e-06
0.0002392574
2.8991054e-06
0.0002381472
3.322849e-06
0.00023689667
3.7429105e-06
0.00023550712
4.1590568e-06
0.00023397994
4.571061e-06
0.00023231659
4.9787028e-06
0.00023051858
5.3817684e-06
0.00022858753
5.7800507e-06
0.00022652509
6.1733493e-06
0.000224333
6.5614707e-06
0.00022201305
6.9442279e-06
0.00021956709
7.3214408e-06
0.00021699703
7.6929362e-06
0.00021430484
8.0585476e-06
0.00021149254
8.4181152e-06
0.0002085622
8.771486e-06
0.00020551593
9.1185135e-06
0.00020235591
9.4590581e-06
0.00019908434
9.7929863e-06
0.00019570348
1.0120171e-05
0.00019221562
1.0440493e-05
0.0001886231
1.0753836e-05
0.00018492827
1.1060093e-05
0.00018113355
1.1359162e-05
0.00017724136
1.1650945e-05
0.00017325417
1.1935353e-05
0.00016917447
1.22123e-05
0.00016500479
1.2481707e-05
0.00016074766
1.2743498e-05
0.00015640565
1.2997603e-05
0.00015198136
1.3243959e-05
0.00014747739
1.3482505e-05
0.00014289637
1.3713185e-05
0.00013824095
1.3935948e-05
0.00013351377
1.4150746e-05
0.00012871753
1.4357536e-05
0.00012385491
1.4556278e-05
0.00011892861
1.4746935e-05
0.00011394134
1.4929475e-05
0.00010889582
1.5103867e-05
0.00010379478
1.5270085e-05
9.8640971e-05
1.5428104e-05
9.3437125e-05
1.5577902e-05
8.8186e-05
1.571946e-05
8.2890353e-05
1.585276e-05
7.7552948e-05
1.5977787e-05
7.2176553e-05
1.6094527e-05
6.6763939e-05
1.6202969e-05
6.1317882e-05
1.6303102e-05
5.584116e-05
1.6394916e-05
5.0336554e-05
1.6478405e-05
4.4806846e-05
1.6553561e-05
3.9254823e-05
1.6620379e-05
3.3683269e-05
1.6678854e-05
2.8094974e-05
1.6728983e-05
2.2492725e-05
1.6770761e-05
1.6879313e-05
1.6804187e-05
1.1257527e-05
1.6829257e-05
5.6301593e-06
1.6845972e-05
5.6764089e-15
1.685433e-05
-5.6301593e-06
1.685433e-05
-1.1257527e-05
1.6845972e-05
-1.6879313e-05
1.6829257e-05
-2.2492725e-05
1.6804187e-05
-2.8094974e-05
1.6770761e-05
-3.3683269e-05
1.6728983e-05
-3.9254823e-05
1.6678854e-05
-4.4806846e-05
1.6620379e-05
-5.0336554e-05
1.6553561e-05
-5.584116e-05
1.6478405e-05
-6.1317882e-05
1.6394916e-05
-6.6763939e-05
1.6303102e-05
-7.2176553e-05
1.6202969e-05
-7.7552948e-05
1.6094527e-05
-8.2890353e-05
1.5977787e-05
-8.8186e-05
1.585276e-05
-9.3437125e-05
1.571946e-05
-9.8640971e-05
1.5577902e-05
-0.00010379478
1.5428104e-05
-0.00010889582
1.5270085e-05
-0.00011394134
1.5103867e-05
-0.00011892861
1.4929475e-05
-0.00012385491
1.4746935e-05
-0.00012871753
1.4556278e-05
-0.00013351377
1.4357536e-05
-0.00013824095
1.4150746e-05
-0.00014289637
1.3935948e-05
-0.00014747739
1.3713185e-05
-0.00015198136
1.3482505e-05
-0.00015640565
1.3243959e-05
-0.00016074766
1.2997603e-05
-0.00016500479
1.2743498e-05
-0.00016917447
1.2481707e-05
-0.00017325417
1.22123e-05
-0.00017724136
1.1935353e-05
-0.00018113355
1.1650945e-05
-0.00018492827
1.1359162e-05
-0.0001886231
1.1060093e-05
-0.00019221562
1.0753836e-05
-0.00019570348
1.0440493e-05
-0.00019908434
1.0120171e-05
-0.00020235591
9.7929863e-06
-0.00020551593
9.4590581e-06
-0.0002085622
9.1185135e-06
-0.00021149254
8.771486e-06
-0.00021430484
8.4181152e-06
-0.00021699703
8.0585476e-06
-0.00021956709
7.6929362e-06
-0.00022201305
7.3214408e-06
-0.000224333
6.9442279e-06
-0.00022652509
6.5614707e-06
-0.00022858753
6.1733493e-06
-0.00023051858
5.7800507e-06
-0.00023231659
5.3817684e-06
-0.00023397994
4.9787028e-06
-0.00023550712
4.571061e-06
-0.00023689667
4.1590568e-06
-0.0002381472
3.7429105e-06
-0.0002392574
3.322849e-06
-0.00024022604
2.8991054e-06
-0.00024105197
2.4719194e-06
-0.00024173413
2.0415367e-06
-0.00024227153
1.6082089e-06
-0.00024266328
1.1721937e-06
-0.00024290855
7.337545e-07
-0.00024300663
2.931606e-07
-0.0002429569
-1.493138e-07
-0.00024275881
-5.9338963e-07
-0.00024241194
-1.0387824e-06
-0.00024191592
-1.4852031e-06
-0.00024127053
-1.932358e-06
-0.0002404756
-2.3799493e-06
-0.00023953111
-2.8276753e-06
-0.00023843709
-3.2752303e-06
-0.00023719372
-3.7223055e-06
-0.00023580126
-4.1685887e-06
-0.00023426008
-4.6137651e-06
-0.00023257065
-5.0575172e-06
-0.00023073356
-5.4995254e-06
-0.0002287495
-5.9394679e-06
-0.00022661926
-6.3770217e-06
-0.00022434375
-6.8118623e-06
-0.00022192398
-7.2436645e-06
-0.00021936108
-7.6721023e-06
-0.00021665629
-8.0968498e-06
-0.00021381094
-8.5175811e-06
-0.00021082649
-8.9339707e-06
-0.00020770448
-9.3456942e-06
-0.0002044466
-9.7524283e-06
-0.00020105461
-1.0153851e-05
-0.0001975304
-1.0549644e-05
-0.00019387595
-1.0939488e-05
-0.00019009335
-1.132307e-05
-0.00018618481
-1.1700078e-05
-0.00018215261
-1.2070204e-05
-0.00017799917
-1.2433145e-05
-0.00017372697
-1.2788599e-05
-0.00016933863
-1.3136272e-05
-0.00016483683
-1.3475873e-05
-0.00016022437
-1.3807118e-05
-0.00015550414
-1.4129726e-05
-0.00015067911
-1.4443425e-05
-0.00014575234
-1.4747947e-05
-0.00014072699
-1.5043032e-05
-0.0001356063
-1.5328427e-05
-0.00013039359
-1.5603886e-05
-0.00012509225
-1.586917e-05
-0.00011970576
-1.6124049e-05
-0.00011423767
-1.6368301e-05
-0.00010869161
-1.6601713e-05
-0.00010307125
-1.6824079e-05
-9.738037e-05
-1.7035205e-05
-9.1622771e-05
-1.7234903e-05
-8.5802335e-05
-1.7422998e-05
-7.9922992e-05
-1.7599323e-05
-7.3988728e-05
-1.7763721e-05
-6.8003577e-05
-1.7916045e-05
-6.1971616e-05
-1.805616e-05
-5.5896966e-05
-1.8183942e-05
-4.9783787e-05
-1.8299274e-05
-4.3636271e-05
-1.8402054e-05
-3.7458643e-05
-1.849219e-05
-3.1255154e-05
-1.8569601e-05
-2.5030079e-05
-1.8634217e-05
-1.8787711e-05
-1.8685979e-05
-1.2532359e-05
-1.8724842e-05
-6.2683461e-06
-1.875077e-05
-1.876374e-05
6.2913758e-06
-2.5055116e-05
1.2578403e-05
-2.5037797e-05
1.8856737e-05
-2.5003176e-05
2.512204e-05
-2.4951282e-05
3.1369988e-05
-2.4882164e-05
3.759627e-05
-2.4795884e-05
4.3796598e-05
-2.4692518e-05
4.9966704e-05
-2.457216e-05
5.6102348e-05
-2.4434918e-05
6.2199322e-05
-2.4280916e-05
6.8253452e-05
-2.4110291e-05
7.4260603e-05
-2.3923196e-05
8.021668e-05
-2.3719798e-05
8.6117636e-05
-2.3500279e-05
9.1959471e-05
-2.3264833e-05
9.7738239e-05
-2.3013671e-05
0.00010345005
-2.2747015e-05
0.00010909107
-2.24651e-05
0.00011465753
-2.2168176e-05
0.00012014573
-2.1856503e-05
0.00012555204
-2.1530354e-05
0.00013087288
-2.1190015e-05
0.00013610478
-2.0835782e-05
0.00014124431
-2.0467963e-05
0.00014628816
-2.0086875e-05
0.00015123306
-1.9692849e-05
0.00015607585
-1.928622e-05
0.00016081347
-1.8867339e-05
0.00016544291
-1.843656e-05
0.00016996129
-1.7994249e-05
0.00017436579
-1.7540779e-05
0.00017865372
-1.7076531e-05
0.00018282247
-1.6601892e-05
0.00018686953
-1.6117257e-05
0.00019079247
-1.5623027e-05
0.00019458901
-1.5119607e-05
0.00019825693
-1.4607408e-05
0.00020179413
-1.4086847e-05
0.00020519862
-1.3558343e-05
0.00020846852
-1.302232e-05
0.00021160203
-1.2479205e-05
0.00021459748
-1.1929428e-05
0.00021745332
-1.137342e-05
0.00022016809
-1.0811614e-05
0.00022274043
-1.0244445e-05
0.00022516911
-9.6723481e-06
0.00022745301
-9.0957586e-06
0.0002295911
-8.5151116e-06
0.00023158247
-7.9308416e-06
0.00023342633
-7.3433817e-06
0.00023512198
-6.7531635e-06
0.00023666883
-6.1606164e-06
0.00023806641
-5.5661674e-06
0.00023931434
-4.9702403e-06
0.00024041237
-4.3732558e-06
0.00024136032
-3.7756306e-06
0.00024215815
-3.1777772e-06
0.0002428059
-2.5801036e-06
0.00024330371
-1.9830129e-06
0.00024365183
-1.3869028e-06
0.0002438506
-7.9216543e-07
0.00024390047
-1.9918678e-07
0.00024380198
3.9165333e-07
0.00024355575
9.7998189e-07
0.00024316252
1.5654327e-06
0.00024262308
2.1476463e-06
0.00024193834
2.726271e-06
0.0002411093
3.3009628e-06
0.00024013702
3.8713854e-06
0.00023902266
4.4372108e-06
0.00023776745
4.9981188e-06
0.00023637271
5.5537982e-06
0.00023483982
6.103946e-06
0.00023317026
6.6482678e-06
0.00023136555
7.1864783e-06
0.0002294273
7.7183009e-06
0.00022735718
8.2434679e-06
0.00022515693
8.7617209e-06
0.00022282835
9.2728102e-06
0.00022037329
9.7764955e-06
0.00021779368
1.0272545e-05
0.00021509149
1.0760737e-05
0.00021226875
1.1240858e-05
0.00020932754
1.1712703e-05
0.00020626997
1.2176077e-05
0.00020309824
1.2630794e-05
0.00019981455
1.3076675e-05
0.00019642117
1.3513551e-05
0.0001929204
1.3941261e-05
0.00018931458
1.4359652e-05
0.0001856061
1.4768581e-05
0.00018179735
1.516791e-05
0.00017789078
1.555751e-05
0.00017388887
1.5937262e-05
0.00016979412
1.630705e-05
0.00016560906
1.6666769e-05
0.00016133624
1.7016318e-05
0.00015697824
1.7355605e-05
0.00015253766
1.7684543e-05
0.00014801711
1.8003052e-05
0.00014341924
1.8311058e-05
0.00013874669
1.8608492e-05
0.00013400215
1.889529e-05
0.00012918829
1.9171395e-05
0.00012430781
1.9436753e-05
0.00011936343
1.9691317e-05
0.00011435787
1.9935042e-05
0.00010929385
2.0167887e-05
0.00010417411
2.0389818e-05
9.9001416e-05
2.0600801e-05
9.3778511e-05
2.0800807e-05
8.8508161e-05
2.0989811e-05
8.3193133e-05
2.1167788e-05
7.78362e-05
2.133472e-05
7.2440141e-05
2.1490587e-05
6.7007737e-05
2.1635373e-05
6.1541773e-05
2.1769066e-05
5.6045036e-05
2.1891652e-05
5.0520319e-05
2.2003122e-05
4.4970413e-05
2.2103467e-05
3.9398113e-05
2.2192679e-05
3.3806216e-05
2.2270752e-05
2.8197518e-05
2.2337681e-05
2.2574819e-05
2.2393461e-05
1.6940917e-05
2.2438088e-05
1.1298613e-05
2.2471561e-05
5.6507068e-06
2.2493878e-05
5.7907459e-15
2.2505036e-05
-5.6507068e-06
2.2505036e-05
-1.1298613e-05
2.2493878e-05
-1.6940917e-05
2.2471561e-05
-2.2574819e-05
2.2438088e-05
-2.8197518e-05
2.2393461e-05
-3.3806216e-05
2.2337681e-05
-3.9398113e-05
2.2270752e-05
-4.4970413e-05
2.2192679e-05
-5.0520319e-05
2.2103467e-05
-5.6045036e-05
2.2003122e-05
-6.1541773e-05
2.1891652e-05
-6.7007737e-05
2.1769066e-05
-7.2440141e-05
2.1635373e-05
-7.78362e-05
2.1490587e-05
-8.3193133e-05
2.133472e-05
-8.8508161e-05
2.1167788e-05
-9.3778511e-05
2.0989811e-05
-9.9001416e-05
2.0800807e-05
-0.00010417411
2.0600801e-05
-0.00010929385
2.0389818e-05
-0.00011435787
2.0167887e-05
-0.00011936343
1.9935042e-05
-0.00012430781
1.9691317e-05
-0.00012918829
1.9436753e-05
-0.00013400215
1.9171395e-05
-0.00013874669
1.889529e-05
-0.00014341924
1.8608492e-05
-0.00014801711
1.8311058e-05
-0.00015253766
1.8003052e-05
-0.00015697824
1.7684543e-05
-0.00016133624
1.7355605e-05
-0.00016560906
1.7016318e-05
-0.00016979412
1.6666769e-05
-0.00017388887
1.630705e-05
-0.00017789078
1.5937262e-05
-0.00018179735
1.555751e-05
-0.0001856061
1.516791e-05
-0.00018931458
1.4768581e-05
-0.0001929204
1.4359652e-05
-0.00019642117
1.3941261e-05
-0.00019981455
1.3513551e-05
-0.00020309824
1.3076675e-05
-0.00020626997
1.2630794e-05
-0.00020932754
1.2176077e-05
-0.00021226875
1.1712703e-05
-0.00021509149
1.1240858e-05
-0.00021779368
1.0760737e-05
-0.00022037329
1.0272545e-05
-0.00022282835
9.7764955e-06
-0.00022515693
9.2728102e-06
-0.00022735718
8.7617209e-06
-0.0002294273
8.2434679e-06
-0.00023136555
7.7183009e-06
-0.00023317026
7.1864783e-06
-0.00023483982
6.6482678e-06
-0.00023637271
6.103946e-06
-0.00023776745
5.5537982e-06
-0.00023902266
4.9981188e-06
-0.00024013702
4.4372108e-06
-0.0002411093
3.8713854e-06
-0.00024193834
3.3009628e-06
-0.00024262308
2.726271e-06
-0.00024316252
2.1476463e-06
-0.00024355575
1.5654327e-06
-0.00024380198
9.7998189e-07
-0.00024390047
3.9165333e-07
-0.0002438506
-1.9918678e-07
-0.00024365183
-7.9216543e-07
-0.00024330371
-1.3869028e-06
-0.0002428059
-1.9830129e-06
-0.00024215815
-2.5801036e-06
-0.00024136032
-3.1777772e-06
-0.00024041237
-3.7756306e-06
-0.00023931434
-4.3732558e-06
-0.00023806641
-4.9702403e-06
-0.00023666883
-5.5661674e-06
-0.00023512198
-6.1606164e-06
-0.00023342633
-6.7531635e-06
-0.00023158247
-7.3433817e-06
-0.0002295911
-7.9308416e-06
-0.00022745301
-8.5151116e-06
-0.00022516911
-9.0957586e-06
-0.00022274043
-9.6723481e-06
-0.00022016809
-1.0244445e-05
-0.00021745332
-1.0811614e-05
-0.00021459748
-1.137342e-05
-0.00021160203
-1.1929428e-05
-0.00020846852
-1.2479205e-05
-0.00020519862
-1.302232e-05
-0.00020179413
-1.3558343e-05
-0.00019825693
-1.4086847e-05
-0.00019458901
-1.4607408e-05
-0.00019079247
-1.5119606e-05
-0.00018686953
-1.5623027e-05
-0.00018282247
-1.6117257e-05
-0.00017865372
-1.6601892e-05
-0.00017436579
-1.7076531e-05
-0.00016996129
-1.7540779e-05
-0.00016544291
-1.7994249e-05
-0.00016081347
-1.843656e-05
-0.00015607585
-1.8867339e-05
-0.00015123306
-1.928622e-05
-0.00014628816
-1.9692849e-05
-0.00014124431
-2.0086875e-05
-0.00013610478
-2.0467963e-05
-0.00013087288
-2.0835782e-05
-0.00012555204
-2.1190015e-05
-0.00012014573
-2.1530354e-05
-0.00011465753
-2.1856503e-05
-0.00010909107
-2.2168176e-05
-0.00010345005
-2.24651e-05
-9.7738239e-05
-2.2747015e-05
-9.1959471e-05
-2.3013671e-05
-8.6117636e-05
-2.3264833e-05
-8.021668e-05
-2.3500279e-05
-7.4260603e-05
-2.3719798e-05