/*--------------------------------*- C++ -*----------------------------------*\
| =========                 |                                                 |
| \\      /  F ield         | OpenFOAM: The Open Source CFD Toolbox           |
|  \\    /   O peration     | Version:  2306                                  |
|   \\  /    A nd           | Website:  www.openfoam.com                      |
|    \\/     M anipulation  |                                                 |
\*---------------------------------------------------------------------------*/
FoamFile
{
    version     2.0;
    format      ascii;
    arch        "LSB;label=32;scalar=64";
    class       volVectorField;
    location    "0.52";
    object      U;
}
// * * * * * * * * * * * * * * * * * * * * * * * * * * * * * * * * * * * * * //

dimensions      [0 1 -1 0 0 0 0];

internalField   nonuniform List<vector> 
6400
(
(-0.0030457826 -0.10360339 9.7119234e-17)
(-0.0069396604 -0.10322186 1.3241322e-16)
(-0.011274857 -0.10204652 -1.325992e-19)
(-0.015275762 -0.10032454 -3.4985415e-17)
(-0.019153595 -0.098126307 -1.5135036e-16)
(-0.022737207 -0.095538913 -3.3445462e-17)
(-0.026003146 -0.092638183 -4.5268939e-17)
(-0.028938913 -0.089487737 -3.0073684e-17)
(-0.031539321 -0.086146846 5.8950321e-18)
(-0.0338081 -0.082670844 -3.6142663e-17)
(-0.035756682 -0.079110021 -1.5632403e-17)
(-0.037402415 -0.075508444 -9.0474086e-18)
(-0.038766563 -0.071903296 -1.2676207e-17)
(-0.039872557 -0.06832486 3.1642538e-18)
(-0.040744504 -0.064796938 4.7833045e-18)
(-0.041406053 -0.061337515 1.23959e-17)
(-0.04187962 -0.057959561 -2.8333664e-18)
(-0.042185875 -0.054671925 7.0712622e-18)
(-0.042343463 -0.051480185 1.5630578e-17)
(-0.042368925 -0.048387441 1.3948475e-17)
(-0.042276766 -0.045394971 7.6489223e-18)
(-0.042079593 -0.042502779 4.3746684e-18)
(-0.041788317 -0.039710041 1.5176376e-18)
(-0.041412378 -0.037015429 1.2535692e-17)
(-0.040959957 -0.034417353 1.9496505e-17)
(-0.040438193 -0.03191413 3.3797393e-18)
(-0.039853369 -0.029504099 -3.9140328e-19)
(-0.03921108 -0.027185691 7.4077617e-18)
(-0.038516382 -0.02495747 1.4536805e-17)
(-0.037773913 -0.022818143 1.6233844e-17)
(-0.036987989 -0.020766547 4.7858671e-18)
(-0.036162683 -0.018801629 8.7912243e-19)
(-0.035301888 -0.016922424 2.4734917e-18)
(-0.034409361 -0.015128021 6.9090273e-18)
(-0.033488757 -0.013417539 8.889368e-18)
(-0.032543651 -0.011790093 -1.078415e-18)
(-0.03157755 -0.010244769 -1.0162651e-18)
(-0.030593903 -0.0087805959 2.09503e-18)
(-0.029596097 -0.0073965291 4.145172e-18)
(-0.028587456 -0.0060914281 7.4742035e-18)
(-0.027571234 -0.0048640449 4.3091734e-18)
(-0.026550601 -0.0037130187 4.7099301e-19)
(-0.025528639 -0.0026368716 -4.7342161e-18)
(-0.024508335 -0.001633985 -3.9621342e-18)
(-0.023492581 -0.00070260082 -6.1348598e-19)
(-0.02248423 0.00015923105 -1.0897912e-18)
(-0.021485635 0.0009533783 -4.2578887e-18)
(-0.020499444 0.0016820191 -4.6127853e-18)
(-0.019527961 0.0023473653 -4.2766917e-18)
(-0.018573343 0.0029517408 -4.6384486e-19)
(-0.017637586 0.0034975582 1.921871e-18)
(-0.016722518 0.0039873058 2.9612458e-19)
(-0.01582979 0.0044235359 8.3880037e-21)
(-0.014960877 0.0048088516 -1.1567022e-18)
(-0.014117075 0.0051458936 -2.4205456e-19)
(-0.013299503 0.0054373264 2.0113847e-18)
(-0.0125091 0.0056858252 2.1950682e-18)
(-0.011746635 0.0058940617 4.6037932e-19)
(-0.011012705 0.0060646914 -1.3515341e-18)
(-0.010307741 0.0062003407 -2.9299111e-19)
(-0.0096320167 0.0063035954 1.2938163e-18)
(-0.0089856526 0.0063769884 4.8170941e-19)
(-0.0083686256 0.0064229899 -1.6005593e-18)
(-0.007780777 0.0064439971 -1.6613609e-18)
(-0.0072218216 0.0064423255 3.9042644e-20)
(-0.0066913579 0.0064202014 9.7879564e-19)
(-0.0061888779 0.0063797549 1.004071e-18)
(-0.0057137779 0.0063230145 2.5841719e-19)
(-0.0052653686 0.006251902 -6.2252675e-19)
(-0.0048428862 0.0061682293 6.4334547e-19)
(-0.0044455031 0.0060736963 1.034745e-18)
(-0.0040723379 0.0059698885 1.4016306e-19)
(-0.0037224666 0.0058582777 -4.7132785e-19)
(-0.0033949312 0.0057402218 -1.0418594e-18)
(-0.0030887502 0.0056169661 1.1668094e-20)
(-0.0028029271 0.005489647 4.9879189e-20)
(-0.0025364596 0.0053592936 -8.1527927e-20)
(-0.0022883449 0.005226831 -4.8043905e-19)
(-0.0020575912 0.0050930851 -6.8695192e-19)
(-0.0018432213 0.004958791 -4.0113517e-19)
(-0.002702111 -0.095202331 2.3749832e-17)
(-0.0061580316 -0.09488805 -1.3929169e-16)
(-0.010015893 -0.093904651 -1.8454375e-17)
(-0.013592736 -0.092454595 -2.0844481e-18)
(-0.017078426 -0.090591094 2.3400082e-17)
(-0.020321943 -0.088384098 1.9948919e-17)
(-0.023302462 -0.085894982 -7.8065592e-18)
(-0.026007771 -0.083175489 2.2631072e-17)
(-0.02843122 -0.080274 1.2374748e-18)
(-0.030573075 -0.0772362 -9.4087048e-18)
(-0.032439889 -0.074104256 9.7054682e-18)
(-0.03404322 -0.070915899 8.9905173e-18)
(-0.035398191 -0.067703804 5.861893e-18)
(-0.036522194 -0.064495411 1.2675154e-17)
(-0.037433729 -0.061313088 4.8220217e-18)
(-0.038151456 -0.058174549 -1.5200995e-18)
(-0.038693517 -0.055093369 1.1261877e-17)
(-0.039077056 -0.052079593 1.4686494e-17)
(-0.039317904 -0.049140355 1.7464241e-17)
(-0.039430427 -0.046280486 1.5380423e-17)
(-0.039427507 -0.043503037 2.0361723e-17)
(-0.039320577 -0.040809731 1.3094072e-17)
(-0.039119736 -0.038201345 7.886582e-18)
(-0.03883389 -0.035677997 1.8543479e-17)
(-0.038470899 -0.033239381 -1.3445996e-18)
(-0.038037727 -0.030884929 5.3713546e-19)
(-0.037540586 -0.028613933 1.0361159e-17)
(-0.036985066 -0.02642563 1.3489922e-17)
(-0.036376253 -0.024319254 1.8714768e-17)
(-0.035718829 -0.02229407 -3.8257289e-19)
(-0.035017157 -0.020349373 8.8729458e-19)
(-0.034275349 -0.01848449 6.7145851e-18)
(-0.033497315 -0.016698768 6.8093806e-18)
(-0.032686814 -0.014991562 1.0794611e-17)
(-0.031847478 -0.013362211 -4.5563104e-18)
(-0.03098284 -0.011810023 -3.6494959e-19)
(-0.030096345 -0.010334257 4.0108301e-18)
(-0.029191361 -0.0089341002 4.6645213e-18)
(-0.028271179 -0.0076086594 6.523237e-18)
(-0.027339017 -0.0063569427 -2.9498671e-18)
(-0.026398012 -0.0051778506 -3.8195053e-18)
(-0.025451214 -0.0040701709 -2.8591699e-18)
(-0.024501579 -0.0030325789 -5.9837771e-18)
(-0.023551962 -0.0020636284 -3.7068038e-18)
(-0.022605122 -0.0011617354 -1.6340158e-18)
(-0.021663728 -0.00032517539 -1.5343169e-18)
(-0.020730248 0.00044789766 -4.4587621e-18)
(-0.019806985 0.001159296 -5.5014092e-18)
(-0.018896229 0.0018111041 -4.0345838e-18)
(-0.018000037 0.0024054317 -7.4908108e-19)
(-0.01712033 0.0029444813 6.7107081e-19)
(-0.016258867 0.0034305286 -7.4157375e-19)
(-0.015417246 0.0038659097 -7.0230379e-19)
(-0.0145969 0.0042530103 -1.7590723e-18)
(-0.013799096 0.0045942536 -1.0953794e-18)
(-0.013024936 0.0048920875 5.5047827e-19)
(-0.012275359 0.0051489729 7.8602635e-19)
(-0.011551141 0.0053673704 6.3264151e-19)
(-0.0108529 0.0055497293 -1.6256101e-18)
(-0.010181104 0.005698475 -1.9653747e-18)
(-0.0095360686 0.0058159991 -4.2573767e-19)
(-0.0089179711 0.0059046479 -9.7355097e-19)
(-0.0083268528 0.0059667133 -1.9427771e-18)
(-0.0077626287 0.006004423 -1.8691928e-18)
(-0.0072250955 0.0060199331 -7.8309059e-19)
(-0.0067139399 0.0060153209 8.5120746e-20)
(-0.0062287484 0.0059925776 7.2137673e-20)
(-0.0057690167 0.0059536044 -1.0545963e-19)
(-0.0053341588 0.0059002065 -7.5641797e-19)
(-0.0049235172 0.005834091 -8.1196314e-20)
(-0.004536372 0.0057568635 4.3668077e-19)
(-0.0041719511 0.0056700273 -3.6144664e-20)
(-0.0038294391 0.0055749822 -7.1784472e-19)
(-0.0035079864 0.0054730247 -1.0305987e-18)
(-0.0032067179 0.0053653499 -3.4739796e-19)
(-0.0029247409 0.0052530521 -2.6338591e-19)
(-0.0026611538 0.0051371283 -4.9460051e-19)
(-0.0024150512 0.0050184809 -7.1828007e-19)
(-0.0021855341 0.00489792 -7.3188559e-19)
(-0.0019717135 0.0047761718 -6.0424489e-19)
(-0.0024084439 -0.087729768 1.3564039e-17)
(-0.005489703 -0.087468754 -1.0551413e-16)
(-0.0089374823 -0.086640508 2.7432422e-17)
(-0.012147546 -0.085411827 1.0179141e-16)
(-0.015291214 -0.083822811 9.6341356e-17)
(-0.018234576 -0.081929743 2.7895645e-17)
(-0.020959033 -0.079782514 4.9278737e-17)
(-0.02345284 -0.077423411 5.231114e-17)
(-0.025708501 -0.074892192 5.038258e-17)
(-0.027723981 -0.072226794 2.6944689e-17)
(-0.029502413 -0.069462719 2.4069987e-17)
(-0.031051167 -0.0666323 -5.7900143e-19)
(-0.032380802 -0.063764152 3.3909009e-18)
(-0.033504095 -0.060882914 -3.4093096e-18)
(-0.034435141 -0.058009267 -4.3957893e-18)
(-0.035188574 -0.055160173 8.0105664e-18)
(-0.035778987 -0.052349201 1.372203e-18)
(-0.036220499 -0.049586942 4.5816798e-20)
(-0.036526437 -0.046881441 -4.1234503e-18)
(-0.03670916 -0.044238659 -5.3235595e-18)
(-0.036779975 -0.041662886 -9.1954363e-18)
(-0.036749117 -0.039157098 -1.102419e-17)
(-0.0366258 -0.036723284 4.501887e-18)
(-0.036418286 -0.034362693 1.1334622e-18)
(-0.036133989 -0.032076043 8.0572791e-18)
(-0.035779573 -0.029863681 8.6933806e-18)
(-0.035361056 -0.0277257 -1.6323633e-18)
(-0.034883908 -0.025662023 3.4441538e-18)
(-0.034353142 -0.023672472 2.62088e-18)
(-0.033773397 -0.021756805 7.785511e-18)
(-0.033149007 -0.019914738 9.5955146e-18)
(-0.032484054 -0.018145948 -1.8551592e-18)
(-0.031782419 -0.016450079 1.9768438e-19)
(-0.031047819 -0.014826736 8.6633409e-22)
(-0.030283835 -0.013275477 4.5321376e-18)
(-0.029493933 -0.011795798 8.8118097e-18)
(-0.02868148 -0.01038713 -1.5149463e-18)
(-0.027849754 -0.0090488193 4.685643e-19)
(-0.027001946 -0.0077801204 -1.1010621e-18)
(-0.026141165 -0.0065801882 7.122381e-19)
(-0.025270433 -0.0054480687 7.2124084e-18)
(-0.024392683 -0.0043826953 -1.4639184e-19)
(-0.02351075 -0.0033828893 -4.396069e-18)
(-0.022627367 -0.0024473604 -1.9064397e-18)
(-0.021745163 -0.001574695 -1.3393751e-18)
(-0.020866652 -0.00076335161 -1.1531596e-18)
(-0.019994339 -1.1643573e-05 -3.3909269e-18)
(-0.0191303 0.00068210662 -3.3363227e-18)
(-0.018276736 0.0013197445 -2.0555591e-18)
(-0.017435652 0.0019032029 3.957598e-19)
(-0.016608882 0.0024344912 7.8653329e-19)
(-0.015798123 0.0029156884 -2.9598754e-19)
(-0.015004918 0.0033489311 -7.8233917e-19)
(-0.01423066 0.0037364045 -9.2828935e-19)
(-0.013476585 0.0040803305 1.370964e-18)
(-0.012743779 0.0043829573 -2.6203e-19)
(-0.012033174 0.0046465476 -1.0233836e-19)
(-0.011345551 0.004873367 1.0745752e-18)
(-0.010681547 0.0050656739 -1.2660545e-19)
(-0.010041655 0.0052257078 -1.1724942e-19)
(-0.0094262309 0.00535568 -1.2911217e-18)
(-0.0088354982 0.0054577637 -1.4154592e-18)
(-0.0082695553 0.0055340849 -6.7434549e-19)
(-0.0077283817 0.0055867136 -6.8591577e-19)
(-0.007211846 0.0056176571 4.9201314e-19)
(-0.0067197136 0.0056288528 -4.5292142e-19)
(-0.006251655 0.0056221622 -2.0617501e-19)
(-0.0058072548 0.0055993659 7.3193035e-19)
(-0.0053860193 0.0055621595 1.5807423e-19)
(-0.0049873864 0.0055121499 4.7397546e-19)
(-0.0046107339 0.0054508533 -2.6780583e-19)
(-0.0042553878 0.0053796933 -4.1571108e-19)
(-0.0039206314 0.0053000003 -2.6009424e-19)
(-0.0036057133 0.0052130105 -1.9510043e-19)
(-0.0033098553 0.0051198686 2.4918268e-19)
(-0.0030322597 0.0050216273 -7.4360023e-19)
(-0.0027721168 0.0049192496 -8.4956323e-19)
(-0.002528611 0.0048136132 -3.8392139e-19)
(-0.0023009283 0.0047055098 -2.4868557e-19)
(-0.0020882608 0.0045956541 -5.2110233e-20)
(-0.0021561752 -0.081052952 9.1572247e-17)
(-0.0049153377 -0.080834546 1.2622228e-16)
(-0.0080091473 -0.080132437 4.4884053e-17)
(-0.010900472 -0.07908493 1.5110403e-17)
(-0.013744487 -0.077722134 1.9324151e-17)
(-0.016421953 -0.076089491 7.4296429e-18)
(-0.01891624 -0.074227741 4.9884561e-18)
(-0.021216224 -0.072171604 4.1347405e-17)
(-0.023314018 -0.069953941 8.8851995e-18)
(-0.025206099 -0.067606403 -8.2966742e-18)
(-0.026893216 -0.06515899 -9.7172138e-18)
(-0.028379713 -0.062639444 -6.8903931e-18)
(-0.029672751 -0.06007277 3.2074913e-18)
(-0.030781582 -0.057480955 1.7056664e-18)
(-0.031716843 -0.054882909 1.4376681e-17)
(-0.032489932 -0.052294571 -2.2716086e-17)
(-0.033112518 -0.049729113 -1.2361539e-17)
(-0.033596149 -0.047197218 -5.9420725e-18)
(-0.033951968 -0.044707375 -1.3631729e-18)
(-0.034190517 -0.042266224 9.6582428e-18)
(-0.034321631 -0.039878871 -1.0818381e-17)
(-0.034354379 -0.037549176 -4.8315443e-18)
(-0.034297062 -0.035280016 1.5117621e-18)
(-0.034157251 -0.033073499 7.5222781e-18)
(-0.033941838 -0.030931146 1.5742679e-17)
(-0.033657101 -0.028854036 -1.7573251e-18)
(-0.033308779 -0.026842917 -1.6508388e-18)
(-0.032902139 -0.024898291 4.9850953e-18)
(-0.032442044 -0.023020481 6.2959809e-18)
(-0.031933019 -0.021209678 1.40605e-17)
(-0.031379306 -0.019465966 7.0852795e-20)
(-0.03078491 -0.017789343 -4.5785469e-18)
(-0.030153636 -0.016179725 4.2949906e-19)
(-0.029489127 -0.014636953 1.3905507e-18)
(-0.028794883 -0.013160791 9.1513312e-18)
(-0.028074285 -0.011750918 -1.6663506e-18)
(-0.027330607 -0.01040693 -4.3751197e-18)
(-0.026567028 -0.009128327 -8.1108258e-19)
(-0.025786633 -0.0079145094 8.1038206e-19)
(-0.02499242 -0.0067647736 5.3275307e-18)
(-0.024187295 -0.0056783061 8.2519708e-20)
(-0.023374075 -0.0046541812 -2.5928319e-18)
(-0.02255548 -0.0036913614 -1.0405687e-18)
(-0.021734127 -0.0027887008 -1.6060709e-18)
(-0.020912529 -0.0019449417 -3.1036274e-18)
(-0.020093093 -0.0011587102 -2.4613058e-18)
(-0.019278123 -0.00042852148 -1.0553019e-18)
(-0.018469835 0.0002472787 -3.6993709e-19)
(-0.017670149 0.00087022655 -1.1144795e-18)
(-0.016881034 0.0014421167 -9.5924374e-19)
(-0.016104252 0.0019647852 -1.1051107e-18)
(-0.015341439 0.0024401269 8.4908943e-22)
(-0.014594088 0.0028700934 -1.677537e-19)
(-0.01386355 0.0032566844 7.1499434e-19)
(-0.013151033 0.0036019361 1.4689861e-18)
(-0.012457602 0.0039079116 -2.4282381e-18)
(-0.011784179 0.0041766909 -1.0111662e-18)
(-0.011131551 0.004410359 4.9186111e-19)
(-0.010500364 0.0046109976 6.5434613e-19)
(-0.0098911354 0.0047806741 4.5929545e-19)
(-0.0093042517 0.0049214327 -2.3151505e-18)
(-0.0087399777 0.0050352854 -2.0626008e-18)
(-0.0081984605 0.0051242041 -8.1741314e-19)
(-0.0076797362 0.005190112 -4.2129116e-20)
(-0.007183737 0.0052348771 7.8485159e-19)
(-0.0067102976 0.0052603063 -1.0850815e-18)
(-0.0062591635 0.0052681389 -4.2725617e-19)
(-0.005829998 0.0052600423 6.8840709e-19)
(-0.0054223906 0.0052376081 1.9282953e-19)
(-0.0050358649 0.0052023484 4.9251716e-19)
(-0.004669886 0.005155694 -6.290936e-19)
(-0.004323869 0.005098992 -6.9050154e-19)
(-0.0039971866 0.0050335053 -4.2277966e-19)
(-0.0036891763 0.0049604119 -1.4917882e-19)
(-0.0033991479 0.0048808059 3.4330596e-19)
(-0.0031263905 0.0047956984 -9.5288063e-19)
(-0.0028701788 0.0047060184 -1.1123435e-18)
(-0.0026297793 0.0046126161 -6.2308557e-19)
(-0.0024044565 0.0045162637 -3.9177387e-19)
(-0.0021934773 0.0044176617 2.0693344e-19)
(-0.0019382702 -0.075061817 9.2298878e-17)
(-0.0044190672 -0.074877809 1.0529083e-16)
(-0.0072058374 -0.074278902 4.5226385e-18)
(-0.0098189048 -0.073380542 -8.1307484e-17)
(-0.012399322 -0.072205224 -2.5315082e-17)
(-0.014840497 -0.070789792 -7.6556667e-17)
(-0.017127573 -0.069167682 -3.9484717e-17)
(-0.01925015 -0.067367537 -1.8377461e-17)
(-0.021200278 -0.065416651 -4.5946226e-17)
(-0.022973515 -0.063341553 -1.89308e-17)
(-0.024568972 -0.061167673 6.5883135e-18)
(-0.025988815 -0.058918849 2.847906e-17)
(-0.027237679 -0.056616904 8.3082267e-18)
(-0.028322121 -0.054281381 1.7087092e-17)
(-0.029250074 -0.05192943 1.8595405e-18)
(-0.03003034 -0.04957584 5.1923803e-18)
(-0.030672187 -0.047233146 1.5523166e-17)
(-0.031185006 -0.044911815 5.4642777e-18)
(-0.031578053 -0.042620446 9.6210611e-18)
(-0.031860258 -0.040366024 7.088644e-19)
(-0.032040108 -0.038154148 4.1849285e-19)
(-0.032125566 -0.035989266 -3.1375861e-18)
(-0.032124045 -0.033874882 -6.5252858e-19)
(-0.032042404 -0.031813734 5.9034388e-18)
(-0.031886978 -0.029807957 -1.0487072e-18)
(-0.03166361 -0.027859201 -5.6667104e-18)
(-0.031377703 -0.02596874 -2.2857661e-18)
(-0.031034261 -0.02413755 1.6467095e-18)
(-0.030637941 -0.022366375 5.7841901e-18)
(-0.030193103 -0.020655774 1.2773834e-18)
(-0.02970385 -0.019006155 -5.5468601e-18)
(-0.029174066 -0.017417797 -4.7779638e-18)
(-0.028607449 -0.015890863 -1.1321664e-18)
(-0.028007536 -0.01442541 3.7539167e-18)
(-0.027377726 -0.013021391 2.3912882e-18)
(-0.026721297 -0.011678661 -6.9777708e-18)
(-0.026041417 -0.010396971 -4.4059485e-18)
(-0.025341157 -0.0091759672 -1.3588244e-18)
(-0.02462349 -0.0080151904 5.4133921e-18)
(-0.023891301 -0.006914072 1.0104316e-18)
(-0.023147381 -0.005871933 -3.3436e-18)
(-0.022394433 -0.0048879822 -2.992882e-18)
(-0.021635062 -0.0039613172 -5.9913096e-18)
(-0.020871774 -0.003090928 -4.2855765e-18)
(-0.020106972 -0.0022757004 -2.8913309e-18)
(-0.019342952 -0.0015144118 3.5198739e-19)
(-0.018581898 -0.00080573 3.6406008e-19)
(-0.017825967 -0.00014820493 -2.2445527e-18)
(-0.017077037 0.00045968031 -2.4997336e-18)
(-0.016336911 0.0010194119 -1.1171506e-18)
(-0.015607314 0.0015327266 1.6152956e-19)
(-0.014889826 0.0020013396 7.0400429e-19)
(-0.014185888 0.0024270304 2.3089777e-21)
(-0.013496812 0.0028116271 4.7851244e-19)
(-0.012823772 0.0031569946 -2.0616446e-19)
(-0.012167814 0.0034650251 -6.9288177e-19)
(-0.011529851 0.0037376291 3.7891352e-19)
(-0.010910665 0.0039767249 2.3114706e-19)
(-0.010310914 0.0041842304 5.0274753e-19)
(-0.0097311299 0.0043620533 -3.7146697e-20)
(-0.0091717276 0.0045120831 -1.0248655e-18)
(-0.0086330057 0.004636182 -1.1930082e-18)
(-0.0081151538 0.0047361784 -1.5367654e-18)
(-0.0076182573 0.0048138586 -2.4064095e-19)
(-0.0071423038 0.0048709608 3.5113468e-19)
(-0.0066871894 0.0049091692 -3.1720197e-19)
(-0.0062527258 0.0049301086 1.1213979e-19)
(-0.0058386471 0.0049353401 4.3315622e-19)
(-0.0054446166 0.0049263567 2.0017095e-19)
(-0.0050702348 0.0049045809 5.75621e-19)
(-0.0047150457 0.0048713616 5.48781e-21)
(-0.0043785445 0.0048279727 -2.4945995e-19)
(-0.0040601847 0.0047756121 -5.5937283e-19)
(-0.0037593847 0.0047154009 -2.0285377e-19)
(-0.0034755343 0.0046483837 2.1975369e-19)
(-0.0032080017 0.0045755298 -6.5252216e-19)
(-0.0029561388 0.0044977339 -8.2152331e-19)
(-0.0027192871 0.0044158175 -5.8315255e-19)
(-0.0024967836 0.0043305319 -1.9664085e-19)
(-0.0022879645 0.0042425611 2.8341248e-19)
(-0.0017490197 -0.069664762 1.6978015e-17)
(-0.003987967 -0.069508755 -1.1285862e-16)
(-0.0065070938 -0.068994841 5.5689494e-17)
(-0.0088761719 -0.068220014 -3.8928399e-17)
(-0.011223827 -0.067200959 -1.2790078e-18)
(-0.013454423 -0.06596769 1.6865012e-17)
(-0.015554699 -0.064547798 -1.5667456e-17)
(-0.017515036 -0.062965025 -2.3711284e-17)
(-0.019327642 -0.061242151 -1.5197946e-17)
(-0.020987563 -0.059401503 -1.1380283e-17)
(-0.022492806 -0.057464707 -7.4565954e-18)
(-0.02384398 -0.055452278 -1.6420344e-17)
(-0.02504385 -0.053383255 -2.0272691e-17)
(-0.026096919 -0.051274961 -1.7081755e-17)
(-0.027009008 -0.049142862 -1.4289082e-17)
(-0.027786842 -0.047000553 -5.0072511e-19)
(-0.028437729 -0.044859799 -9.577893e-18)
(-0.028969258 -0.042730652 -1.1500403e-17)
(-0.02938907 -0.040621593 -8.7588745e-18)
(-0.029704684 -0.0385397 -8.9326586e-18)
(-0.029923375 -0.036490827 -7.5474873e-18)
(-0.030052085 -0.034479776 -7.5690345e-18)
(-0.030097376 -0.032510468 -1.0226648e-17)
(-0.030065413 -0.030586088 -5.6242401e-18)
(-0.029961961 -0.028709217 -4.6570932e-18)
(-0.029792407 -0.026881943 -9.59482e-18)
(-0.02956178 -0.025105951 -1.1140567e-17)
(-0.029274785 -0.023382595 -6.4600068e-18)
(-0.028935835 -0.021712965 -2.3397289e-19)
(-0.028549086 -0.020097929 -3.8903727e-19)
(-0.028118468 -0.01853817 -8.446678e-18)
(-0.027647714 -0.017034211 -8.4024953e-18)
(-0.027140385 -0.015586434 -2.1319843e-18)
(-0.026599892 -0.014195088 3.8638371e-18)
(-0.026029514 -0.012860303 9.0534783e-19)
(-0.02543241 -0.011582091 -4.9931148e-18)
(-0.024811633 -0.010360349 -2.5480107e-18)
(-0.024170137 -0.0091948633 2.7444612e-19)
(-0.023510781 -0.0080853047 3.4703203e-18)
(-0.022836333 -0.0070312333 3.0190175e-18)
(-0.022149469 -0.0060320967 2.4222198e-18)
(-0.021452778 -0.0050872306 -3.6125761e-18)
(-0.020748752 -0.0041958611 -6.7051261e-18)
(-0.020039791 -0.0033571072 -3.7784641e-18)
(-0.01932819 -0.0025699869 -1.5549397e-18)
(-0.018616146 -0.001833417 1.6069494e-18)
(-0.017905746 -0.0011462165 -1.7669262e-18)
(-0.017198969 -0.00050711075 -3.5365529e-18)
(-0.016497823 8.5322197e-05 -1.3674617e-18)
(-0.015803893 0.00063248306 -2.129104e-20)
(-0.015118815 0.0011358351 1.2053201e-18)
(-0.014444161 0.0015969672 1.9858037e-19)
(-0.013781315 0.0020175087 -6.8659024e-19)
(-0.013131543 0.0023991301 -1.1218217e-18)
(-0.012495992 0.002743538 -3.3101756e-19)
(-0.011875683 0.0030524668 1.5436453e-18)
(-0.011271517 0.0033276701 6.2222512e-19)
(-0.010684272 0.0035709119 -1.7946742e-19)
(-0.010114611 0.0037839585 -1.0492252e-18)
(-0.0095630807 0.0039685695 -2.927365e-19)
(-0.0090301154 0.0041264904 3.2371275e-19)
(-0.0085160435 0.0042594446 -1.1807872e-18)
(-0.0080210905 0.0043691268 -1.8616352e-18)
(-0.0075453847 0.0044571956 -1.1949032e-18)
(-0.0070889622 0.0045252679 6.8157068e-20)
(-0.0066517733 0.0045749133 1.5666167e-19)
(-0.0062336883 0.004607649 -3.7828822e-19)
(-0.0058345039 0.0046249357 -8.7822843e-20)
(-0.0054539499 0.0046281737 -2.2281408e-19)
(-0.0050916952 0.0046187001 6.6580738e-19)
(-0.0047473548 0.0045977862 5.196315e-19)
(-0.0044204962 0.0045666357 -2.1801123e-19)
(-0.0041106458 0.0045263837 -7.7345517e-19)
(-0.0038172955 0.0044780962 -6.1334473e-19)
(-0.0035399078 0.0044227692 1.7715393e-19)
(-0.0032779228 0.0043613305 -2.7504611e-19)
(-0.0030307631 0.0042946401 -7.6669728e-19)
(-0.0027978392 0.0042234908 -6.8939772e-19)
(-0.0025785542 0.0041486109 -2.0835769e-19)
(-0.0023723089 0.0040706667 5.5792878e-20)
(-0.0015837952 -0.064785163 3.5486305e-17)
(-0.0036115387 -0.064652123 5.6836107e-18)
(-0.0058962466 -0.064208658 4.3292437e-17)
(-0.0080504723 -0.06353678 6.9010855e-17)
(-0.010191851 -0.062648722 4.75247e-17)
(-0.012234276 -0.06156906 3.8804373e-17)
(-0.01416592 -0.060320688 2.6472008e-17)
(-0.015977959 -0.058923382 3.3848158e-17)
(-0.017662902 -0.057396246 2.318059e-17)
(-0.019215567 -0.055758146 1.0446019e-17)
(-0.020633247 -0.054027529 1.1669138e-17)
(-0.021915451 -0.052222082 -1.0757627e-17)
(-0.023063565 -0.050358418 -1.3261228e-18)
(-0.024080533 -0.048451868 -8.9524173e-18)
(-0.024970528 -0.046516323 3.1304352e-18)
(-0.025738622 -0.044564193 1.8425104e-19)
(-0.026390526 -0.042606413 -7.0670439e-18)
(-0.026932332 -0.040652504 -1.5206621e-18)
(-0.02737031 -0.038710666 3.9608964e-20)
(-0.027710756 -0.036787899 3.2354528e-18)
(-0.027959869 -0.034890127 1.2228383e-17)
(-0.028123662 -0.033022332 8.8400695e-18)
(-0.028207905 -0.031188685 -1.7116385e-18)
(-0.028218097 -0.029392665 3.9082491e-18)
(-0.028159445 -0.027637169 -1.4998992e-18)
(-0.028036872 -0.025924602 -1.6076913e-18)
(-0.02785502 -0.024256961 2.5101298e-18)
(-0.027618273 -0.022635898 1.9832422e-18)
(-0.027330776 -0.021062776 6.1711886e-18)
(-0.026996455 -0.019538716 -8.2326646e-19)
(-0.026619042 -0.018064632 -3.9197959e-18)
(-0.026202097 -0.016641256 6.8745128e-19)
(-0.025749025 -0.015269156 1.8651286e-18)
(-0.025263092 -0.013948754 4.8084188e-18)
(-0.024747442 -0.012680336 -1.4938169e-18)
(-0.024205106 -0.011464057 -8.5440156e-19)
(-0.023639013 -0.01029995 2.6688898e-18)
(-0.023051993 -0.0091879264 2.8370734e-18)
(-0.022446787 -0.0081277818 4.6878028e-18)
(-0.021826044 -0.0071191951 5.1309713e-18)
(-0.021192327 -0.0061617327 2.233131e-18)
(-0.02054811 -0.0052548495 -4.8066678e-18)
(-0.019895775 -0.0043978918 -5.8186089e-18)
(-0.019237614 -0.0035901002 -2.4153775e-18)
(-0.018575826 -0.0028306156 1.2722138e-18)
(-0.017912506 -0.002118483 1.3618952e-18)
(-0.017249655 -0.0014526534 -3.2746064e-18)
(-0.016589173 -0.0008319896 -2.8953686e-18)
(-0.015932845 -0.00025526581 -5.1879342e-19)
(-0.015282403 0.00027893477 1.9983543e-18)
(-0.01463938 0.0007717894 2.0858312e-18)
(-0.014005207 0.0012247892 6.793084e-19)
(-0.013381241 0.0016394206 1.7333221e-20)
(-0.012768717 0.0020172046 -8.7336893e-19)
(-0.012168751 0.0023597004 2.5503594e-18)
(-0.01158234 0.0026684963 2.3430986e-18)
(-0.011010371 0.0029452006 6.2177975e-19)
(-0.010453617 0.0031914346 1.0889839e-18)
(-0.0099127411 0.0034088239 -4.9481049e-19)
(-0.009388299 0.0035989908 9.5164387e-19)
(-0.0088807434 0.0037635473 7.8207091e-19)
(-0.0083904263 0.0039040876 -9.4030081e-19)
(-0.0079176039 0.004022182 -7.0703805e-19)
(-0.0074624412 0.0041193698 -5.1082055e-19)
(-0.0070250167 0.0041971548 1.3762344e-18)
(-0.0066053281 0.0042569991 7.251039e-19)
(-0.0062032977 0.004300319 -3.4274395e-19)
(-0.0058187777 0.0043284808 5.917663e-19)
(-0.0054515567 0.004342797 3.7097211e-19)
(-0.0051013655 0.0043445239 1.3297882e-18)
(-0.0047678826 0.0043348589 8.6163096e-19)
(-0.0044507405 0.0043149387 8.7206363e-20)
(-0.0041495316 0.004285838 1.7789072e-20)
(-0.003863814 0.0042485689 -1.7394017e-19)
(-0.0035931166 0.0042040807 7.2620791e-19)
(-0.0033369449 0.00415326 1.0413299e-19)
(-0.0030947862 0.0040969318 -6.0237783e-19)
(-0.0028661139 0.0040358599 -2.9280782e-19)
(-0.0026503924 0.0039707489 -1.16423e-19)
(-0.0024470812 0.0039022459 7.0002912e-20)
(-0.001438827 -0.060358579 5.9026666e-17)
(-0.0032812181 -0.060244506 4.7018582e-17)
(-0.0053596604 -0.059859806 3.2357738e-17)
(-0.0073239213 -0.059274238 7.0891517e-17)
(-0.0092818677 -0.058496622 3.1189981e-17)
(-0.011155713 -0.057547182 -3.4367775e-17)
(-0.01293491 -0.056445024 5.9651378e-17)
(-0.014611413 -0.055206704 2.8445283e-17)
(-0.016178125 -0.053848316 2.1215605e-17)
(-0.017629827 -0.052385867 3.6831861e-17)
(-0.018963375 -0.050835139 1.4873134e-17)
(-0.02017752 -0.049211411 1.2903771e-17)
(-0.021272639 -0.047529192 1.2379424e-17)
(-0.022250496 -0.045802034 9.8439392e-18)
(-0.023113986 -0.04404238 1.46533e-17)
(-0.023866869 -0.042261501 -4.1097903e-18)
(-0.024513557 -0.040469487 1.5219135e-17)
(-0.025058905 -0.038675265 1.2790891e-17)
(-0.025508027 -0.036886653 1.0684473e-17)
(-0.025866164 -0.035110449 1.4007385e-17)
(-0.026138571 -0.033352516 6.9431017e-19)
(-0.026330428 -0.031617882 -6.7070049e-18)
(-0.026446779 -0.029910841 2.687912e-18)
(-0.026492497 -0.028235043 3.1328616e-18)
(-0.026472254 -0.02659359 -1.8254852e-18)
(-0.026390516 -0.024989111 2.3915238e-18)
(-0.026251539 -0.023423826 -3.7286031e-18)
(-0.026059378 -0.021899612 8.005472e-19)
(-0.025817894 -0.020418045 4.0285447e-18)
(-0.025530768 -0.018980449 -1.5594193e-18)
(-0.025201521 -0.017587924 5.4129627e-19)
(-0.024833523 -0.016241375 -4.0041381e-18)
(-0.024430007 -0.014941531 -5.5617922e-19)
(-0.023994085 -0.013688964 2.3068906e-18)
(-0.023528754 -0.012484093 -4.2652682e-19)
(-0.023036909 -0.011327205 3.0014188e-18)
(-0.022521347 -0.010218453 -1.5279833e-18)
(-0.021984772 -0.0091578643 4.4398128e-20)
(-0.021429802 -0.0081453479 -2.2240267e-19)
(-0.020858969 -0.0071806935 -4.0091946e-18)
(-0.020274718 -0.0062635774 -3.3530795e-18)
(-0.019679412 -0.0053935652 -6.1752995e-19)
(-0.019075325 -0.0045701148 6.496534e-19)
(-0.018464646 -0.0037925808 -1.3787963e-18)
(-0.017849471 -0.0030602189 -1.6412301e-18)
(-0.017231804 -0.0023721917 -2.2077447e-18)
(-0.016613554 -0.0017275713 2.7072461e-19)
(-0.015996529 -0.0011253436 1.6767384e-18)
(-0.015382419 -0.0005644047 -3.9852518e-19)
(-0.014772963 -4.3589203e-05 3.8568919e-19)
(-0.014169582 0.00043838798 3.6050371e-20)
(-0.013573625 0.00088270827 1.1550191e-18)
(-0.012986429 0.001290775 3.591906e-19)
(-0.01240919 0.0016639694 6.3359563e-19)
(-0.011842988 0.0020037131 3.0710239e-18)
(-0.011288797 0.0023114596 1.5496747e-19)
(-0.010747487 0.0025886832 1.1888819e-18)
(-0.010219822 0.0028368726 1.7422537e-18)
(-0.0097064635 0.0030575234 1.1532916e-18)
(-0.009207975 0.0032521303 1.1382307e-18)
(-0.0087248213 0.0034221816 -7.8861822e-19)
(-0.0082573742 0.003569151 -1.5889886e-19)
(-0.0078059156 0.003694493 1.746718e-19)
(-0.0073706419 0.003799636 4.3707085e-19)
(-0.0069516687 0.0038859778 1.1959608e-18)
(-0.0065490349 0.0039548799 -2.6025891e-19)
(-0.0061627084 0.0040076638 2.3760239e-19)
(-0.0057925909 0.004045607 1.0649547e-18)
(-0.0054385233 0.0040699393 7.9461665e-19)
(-0.0051002913 0.0040818404 1.0486322e-18)
(-0.0047776305 0.0040824374 5.7790968e-20)
(-0.0044702321 0.0040728026 8.324849e-20)
(-0.0041777479 0.0040539531 2.7362701e-19)
(-0.003899796 0.0040268491 2.9957123e-19)
(-0.0036359655 0.0039923939 6.1267316e-19)
(-0.0033858216 0.0039514339 -3.8508349e-19)
(-0.0031489102 0.0039047594 -5.808697e-19)
(-0.0029247627 0.0038531049 -2.2135256e-19)
(-0.0027128994 0.0037971504 -4.3294425e-20)
(-0.0025128345 0.0037375232 1.8794179e-19)
(-0.0013110356 -0.0563305 5.2598434e-17)
(-0.0029900029 -0.056232192 3.9251955e-17)
(-0.0048861593 -0.055896806 2.7696899e-18)
(-0.0066818109 -0.055384022 -5.0304719e-17)
(-0.0084761034 -0.054700034 -1.0932025e-17)
(-0.010198545 -0.053861569 -3.1339046e-18)
(-0.011839721 -0.052884662 8.1071951e-18)
(-0.013392334 -0.051783243 -1.5276266e-17)
(-0.014849728 -0.050570936 1.6423672e-17)
(-0.016206773 -0.049261373 -7.6587747e-18)
(-0.017460095 -0.047868099 -1.7207266e-17)
(-0.018607933 -0.046404342 1.9974205e-18)
(-0.019649934 -0.044882785 -7.1119623e-18)
(-0.020586977 -0.043315404 -3.5224079e-19)
(-0.021420967 -0.041713324 -4.4561467e-18)
(-0.022154626 -0.040086747 -1.9747156e-18)
(-0.022791319 -0.03844493 -4.781989e-18)
(-0.023334876 -0.036796178 -6.660699e-18)
(-0.023789443 -0.03514787 -6.8205299e-18)
(-0.024159361 -0.033506521 -9.211855e-18)
(-0.024449059 -0.03187784 -1.0310259e-17)
(-0.024662977 -0.030266801 -1.240461e-17)
(-0.024805503 -0.02867772 -6.5812924e-18)
(-0.02488093 -0.027114327 -2.0436345e-18)
(-0.024893429 -0.02557984 5.5001199e-18)
(-0.024847027 -0.024077026 -1.8888349e-18)
(-0.0247456 -0.022608263 -6.1060273e-18)
(-0.024592873 -0.021175587 -9.9400783e-19)
(-0.024392421 -0.019780736 2.8136269e-19)
(-0.024147676 -0.018425185 5.5595353e-18)
(-0.023861935 -0.017110187 -8.0467044e-19)
(-0.02353837 -0.015836787 -5.1529522e-18)
(-0.023180036 -0.014605847 -1.234063e-18)
(-0.022789879 -0.013418063 5.8376811e-19)
(-0.022370745 -0.012273975 6.2914619e-18)
(-0.021925385 -0.01117398 2.488458e-19)
(-0.02145646 -0.01011834 -4.2447175e-18)
(-0.020966547 -0.0091071894 -1.6953993e-18)
(-0.020458138 -0.0081405365 -3.9800079e-19)
(-0.019933646 -0.0072182735 4.1902588e-18)
(-0.019395401 -0.0063401778 7.4863061e-18)
(-0.018845655 -0.0055059169 2.8510199e-18)
(-0.018286576 -0.0047150523 -3.8858409e-18)