/*--------------------------------*- C++ -*----------------------------------*\
| =========                 |                                                 |
| \\      /  F ield         | OpenFOAM: The Open Source CFD Toolbox           |
|  \\    /   O peration     | Version:  2106                                  |
|   \\  /    A nd           | Website:  www.openfoam.com                      |
|    \\/     M anipulation  |                                                 |
\*---------------------------------------------------------------------------*/
FoamFile
{
    version     2.0;
    format      ascii;
    arch        "LSB;label=32;scalar=64";
    class       surfaceScalarField;
    location    "0.001";
    object      phi_0;
}
// * * * * * * * * * * * * * * * * * * * * * * * * * * * * * * * * * * * * * //

dimensions      [0 3 -1 0 0 0 0];

oriented        oriented;

internalField   nonuniform List<scalar> 
8064
(
-0.00046540893
0.00046540893
-0.00092626623
0.0004608573
-0.001378067
0.00045180075
-0.0018163991
0.00043833211
-0.0022369883
0.00042058918
-0.0026357414
0.0003987531
-0.0030087875
0.00037304612
-0.0033525165
0.00034372896
-0.0036636142
0.00031109773
-0.0039390947
0.00027548049
-0.0041763282
0.00023723352
-0.0043730656
0.00019673739
-0.0045274584
0.00015439279
-0.0046380739
0.00011061551
-0.0047039017
6.5827822e-05
-0.0047243819
2.0480159e-05
-0.0046993814
-2.5000516e-05
-0.0046292034
-7.0177982e-05
-0.004514584
-0.0001146194
-0.0043566817
-0.00015790228
-0.0041570639
-0.00019961783
-0.00391769
-0.00023937392
-0.0036408915
-0.00027679845
-0.003329349
-0.00031154255
-0.0029860654
-0.00034328354
-0.0026143379
-0.00037172756
-0.0022177258
-0.00039661208
-0.0018000178
-0.00041770797
-0.0013651964
-0.00043482144
-0.00091740083
-0.00044779553
-0.0004608894
-0.00045651143
-5.9924378e-14
-0.0004608894
0.0004608894
-0.0004608894
0.00091740083
-0.00045651143
0.0013651964
-0.00044779553
0.0018000178
-0.00043482144
0.0022177258
-0.00041770797
0.0026143379
-0.00039661208
0.0029860654
-0.00037172756
0.003329349
-0.00034328354
0.0036408915
-0.00031154255
0.00391769
-0.00027679845
0.0041570639
-0.00023937392
0.0043566817
-0.00019961783
0.004514584
-0.00015790228
0.0046292034
-0.0001146194
0.0046993814
-7.0177982e-05
0.0047243819
-2.5000516e-05
0.0047039017
2.0480158e-05
0.0046380739
6.5827822e-05
0.0045274584
0.00011061551
0.0043730656
0.00015439279
0.0041763282
0.00019673739
0.0039390947
0.00023723352
0.0036636142
0.00027548049
0.0033525165
0.00031109773
0.0030087875
0.00034372896
0.0026357414
0.00037304612
0.0022369883
0.0003987531
0.0018163991
0.00042058918
0.001378067
0.00043833211
0.00092626623
0.00045180075
0.00046540893
0.0004608573
0.00046540893
-0.00047119566
0.00093660459
-0.00093778037
0.00092744202
-0.0013951906
0.000909211
-0.0018389571
0.00088209864
-0.0022647506
0.00084638268
-0.0026684257
0.00080242815
-0.0030460625
0.00075068293
-0.0033940059
0.00069167232
-0.003708901
0.00062599292
-0.0039877261
0.00055430558
-0.0042278205
0.00047732788
-0.0044269092
0.00039582609
-0.0045831231
0.00031060669
-0.0046950148
0.00022250727
-0.0047615744
0.00013238739
-0.0047822236
4.1129333e-05
-0.0047568345
-5.0389571e-05
-0.0046857197
-0.00014129277
-0.0045696274
-0.00023071177
-0.0044097323
-0.00031779738
-0.0042076228
-0.00040172726
-0.003965284
-0.00048171273
-0.003685077
-0.00055700554
-0.0033697153
-0.0006269042
-0.0030222389
-0.0006907599
-0.0026459846
-0.00074798188
-0.0022445544
-0.0007980423
-0.0018217818
-0.00084048059
-0.0013816961
-0.00087490712
-0.00092848523
-0.00090100641
-0.00046645705
-0.00091853961
-1.6587048e-13
-0.00092734645
0.00046645705
-0.00092734645
0.00092848523
-0.00091853961
0.0013816961
-0.00090100641
0.0018217818
-0.00087490712
0.0022445544
-0.00084048059
0.0026459846
-0.0007980423
0.0030222389
-0.00074798188
0.0033697153
-0.0006907599
0.003685077
-0.0006269042
0.003965284
-0.00055700554
0.0042076228
-0.00048171273
0.0044097323
-0.00040172726
0.0045696274
-0.00031779738
0.0046857197
-0.00023071177
0.0047568345
-0.00014129277
0.0047822236
-5.0389571e-05
0.0047615744
4.1129333e-05
0.0046950148
0.00013238739
0.0045831231
0.00022250727
0.0044269092
0.00031060669
0.0042278205
0.00039582609
0.0039877261
0.00047732788
0.003708901
0.00055430558
0.0033940059
0.00062599292
0.0030460625
0.00069167232
0.0026684257
0.00075068293
0.0022647506
0.00080242815
0.0018389571
0.00084638268
0.0013951906
0.00088209864
0.00093778037
0.000909211
0.00047119566
0.00092744202
0.00093660459
-0.00048097422
0.0014175788
-0.00095723714
0.0014037049
-0.0014241261
0.0013761
-0.0018770752
0.0013350477
-0.002311662
0.0012809695
-0.0027236527
0.0012144189
-0.0031090449
0.0011360751
-0.0034641074
0.0010467348
-0.0037854167
0.00094730228
-0.0040698904
0.00083877927
-0.0043148158
0.00072225321
-0.0045178747
0.00059888503
-0.0046771644
0.00046989636
-0.0047912134
0.00033655628
-0.0048589943
0.00020016834
-0.0048799253
6.2060328e-05
-0.0048538796
-7.6435307e-05
-0.0047811815
-0.0002139909
-0.0046625994
-0.00034929383
-0.0044993365
-0.00048106026
-0.0042930171
-0.00060804668
-0.0040456692
-0.00072906062
-0.0037597039
-0.00084297087
-0.0034378911
-0.00094871702
-0.0030833326
-0.0010453184
-0.0026994325
-0.001131882
-0.0022898646
-0.0012076102
-0.0018585382
-0.001271807
-0.0014095618
-0.0013238835
-0.00094720511
-0.0013633631
-0.00047585996
-0.0013898848
-7.478633e-14
-0.0014032064
0.00047585996
-0.0014032064
0.00094720511
-0.0013898848
0.0014095618
-0.0013633631
0.0018585382
-0.0013238835
0.0022898646
-0.001271807
0.0026994325
-0.0012076102
0.0030833326
-0.001131882
0.0034378911
-0.0010453184
0.0037597039
-0.00094871702
0.0040456692
-0.00084297087
0.0042930171
-0.00072906062
0.0044993365
-0.00060804668
0.0046625994
-0.00048106026
0.0047811815
-0.00034929383
0.0048538796
-0.0002139909
0.0048799253
-7.6435308e-05
0.0048589943
6.2060328e-05
0.0047912134
0.00020016834
0.0046771644
0.00033655628
0.0045178747
0.00046989636
0.0043148158
0.00059888503
0.0040698904
0.00072225321
0.0037854167
0.00083877927
0.0034641074
0.00094730228
0.0031090449
0.0010467348
0.0027236527
0.0011360751
0.002311662
0.0012144189
0.0018770752
0.0012809695
0.0014241261
0.0013350477
0.00095723714
0.0013761
0.00048097422
0.0014037049
0.0014175788
-0.0004951028
0.0019126816
-0.00098534903
0.0018939512
-0.0014659326
0.0018566835
-0.0019321476
0.0018012627
-0.002379437
0.0017282589
-0.0028034393
0.0016384212
-0.0032000325
0.0015326683
-0.0035653755
0.0014120778
-0.0038959458
0.0012778726
-0.0041885736
0.001131407
-0.004440471
0.00097415067
-0.0046492582
0.00080767221
-0.0048129836
0.00063362173
-0.0049301404
0.00045371311
-0.0049996784
0.00026970632
-0.0050210086
8.3390547e-05
-0.0049940082
-0.00010343576
-0.0049190181
-0.00028898099
-0.004796836
-0.00047147591
-0.0046287059
-0.00064919033
-0.0044163041
-0.00082044855
-0.0041617208
-0.00098364386
-0.0038674394
-0.0011372523
-0.0035363109
-0.0012798455
-0.0031715267
-0.0014101025
-0.0027765878
-0.0015268209
-0.0023552716
-0.0016289264
-0.0019115968
-0.0017154818
-0.0014497861
-0.0017856942
-0.0009742272
-0.0018389219
-0.00048943296
-0.001874679
-3.3460191e-14
-0.0018926394
0.00048943296
-0.0018926394
0.0009742272
-0.001874679
0.0014497861
-0.0018389219
0.0019115968
-0.0017856942
0.0023552716
-0.0017154818
0.0027765878
-0.0016289264
0.0031715267
-0.0015268209
0.0035363109
-0.0014101025
0.0038674394
-0.0012798455
0.0041617208
-0.0011372523
0.0044163041
-0.00098364386
0.0046287059
-0.00082044855
0.004796836
-0.00064919033
0.0049190181
-0.00047147591
0.0049940082
-0.00028898099
0.0050210086
-0.00010343576
0.0049996784
8.3390547e-05
0.0049301404
0.00026970632
0.0048129836
0.00045371311
0.0046492582
0.00063362173
0.004440471
0.00080767221
0.0041885736
0.00097415067
0.0038959458
0.001131407
0.0035653755
0.0012778726
0.0032000325
0.0014120778
0.0028034393
0.0015326683
0.002379437
0.0016384212
0.0019321476
0.0017282589
0.0014659326
0.0018012627
0.00098534903
0.0018566835
0.0004951028
0.0018939512
0.0019126816
-0.00051388834
0.00242657
-0.0010227265
0.0024027893
-0.0015215171
0.0023554741
-0.002005368
0.0022851136
-0.0024695427
0.0021924336
-0.0029095095
0.002078388
-0.0033209875
0.0019441463
-0.0036999895
0.0017910799
-0.0040428615
0.0016207446
-0.0043463175
0.001434863
-0.0046074705
0.0012353037
-0.0048238585
0.0010240603
-0.0049934659
0.00080322905
-0.0051147393
0.00057498651
-0.0051865996
0.00034156661
-0.0052084475
0.0001052385
-0.0051801666
-0.00013171667
-0.0051021206
-0.00036702698
-0.0049751462
-0.00059845029
-0.004800542
-0.00082379459
-0.0045800532
-0.0010409373
-0.0043158533
-0.0012478438
-0.0040105212
-0.0014425843
-0.0036670162
-0.0016233506
-0.0032886482
-0.0017884705
-0.002879047
-0.0019364221
-0.0024421276
-0.0020658459
-0.0019820536
-0.0021755557
-0.0015031994
-0.0022645485
-0.0010101091
-0.0023320122
-0.00050745608
-0.002377332
-5.3863855e-14
-0.0024000955
0.00050745608
-0.0024000955
0.0010101091
-0.002377332
0.0015031994
-0.0023320122
0.0019820536
-0.0022645485
0.0024421276
-0.0021755557
0.002879047
-0.0020658459
0.0032886482
-0.0019364221
0.0036670162
-0.0017884705
0.0040105212
-0.0016233506
0.0043158533
-0.0014425843
0.0045800532
-0.0012478438
0.004800542
-0.0010409373
0.0049751462
-0.00082379459
0.0051021206
-0.00059845029
0.0051801666
-0.00036702698
0.0052084475
-0.00013171667
0.0051865996
0.0001052385
0.0051147393
0.00034156662
0.0049934659
0.00057498651
0.0048238585
0.00080322905
0.0046074705
0.0010240603
0.0043463175
0.0012353037
0.0040428615
0.001434863
0.0036999895
0.0016207446
0.0033209875
0.0017910799
0.0029095095
0.0019441463
0.0024695427
0.002078388
0.002005368
0.0021924336
0.0015215171
0.0022851136
0.0010227265
0.0023554741
0.00051388834
0.0024027893
0.00242657
-0.00053761484
0.0029641848
-0.0010699342
0.0029351086
-0.0015917185
0.0028772584
-0.0020978395
0.0027912345
-0.0025833336
0.0026779277
-0.0030434539
0.0025385083
-0.0034737186
0.0023744109
-0.0038699558
0.0021873171
-0.0042283456
0.0019791344
-0.0045454559
0.0017519733
-0.0048182749
0.0015081227
-0.0050442378
0.0012500232
-0.0052212485
0.00098023978
-0.0053476962
0.00070143419
-0.0054224665
0.00041633687
-0.0054449474
0.00012771945
-0.0054150314
-0.00016163266
-0.0053331119
-0.0004489465
-0.0052000754
-0.00073148679
-0.0050172897
-0.0010065803
-0.0047865875
-0.0012716395
-0.0045102472
-0.0015241841
-0.0041909689
-0.0017618627
-0.0038318476
-0.0019824719
-0.0034363432
-0.0021839748
-0.0030082478
-0.0023645175
-0.0025516495
-0.0025224442
-0.0020708948
-0.0026563104
-0.0015705485
-0.0027648948
-0.0010553522
-0.0028472085
-0.00053018104
-0.0029025031
-5.2839246e-14
-0.0029302765
0.00053018104
-0.0029302765
0.0010553522
-0.0029025031
0.0015705485
-0.0028472085
0.0020708948
-0.0027648948
0.0025516495
-0.0026563104
0.0030082478
-0.0025224442
0.0034363432
-0.0023645175
0.0038318476
-0.0021839748
0.0041909689
-0.0019824719
0.0045102472
-0.0017618627
0.0047865875
-0.0015241841
0.0050172897
-0.0012716395
0.0052000754
-0.0010065803
0.0053331119
-0.00073148679
0.0054150314
-0.0004489465
0.0054449474
-0.00016163266
0.0054224665
0.00012771945
0.0053476962
0.00041633687
0.0052212485
0.00070143419
0.0050442378
0.00098023978
0.0048182749
0.0012500232
0.0045454559
0.0015081227
0.0042283456
0.0017519733
0.0038699558
0.0019791344
0.0034737186
0.0021873171
0.0030434539
0.0023744109
0.0025833336
0.0025385083
0.0020978395
0.0026779277
0.0015917185
0.0027912345
0.0010699342
0.0028772584
0.00053761484
0.0029351086
0.0029641848
-0.00056657315
0.0035307579
-0.0011275503
0.0034960858
-0.0016773951
0.0034271033
-0.0022106903
0.0033245297
-0.0027221944
0.0031894319
-0.0032068972
0.0030232111
-0.0036600711
0.0028275848
-0.0040773193
0.0026045653
-0.0044546193
0.0023564344
-0.0047883615
0.0020857155
-0.0050753827
0.0017951439
-0.0053129937
0.0014876342
-0.0054990017
0.0011662478
-0.005631727
0.00083415946
-0.0057100137
0.00049462361
-0.0057332358
0.00015094156
-0.0057012976
-0.00019357084
-0.0056146299
-0.00053561428
-0.0054741807
-0.00087193595
-0.0052814029
-0.0011993582
-0.0050382363
-0.001514806
-0.0047470874
-0.001815333
-0.0044108038
-0.0020981463
-0.0040326465
-0.0023606293
-0.0036162577
-0.0026003636
-0.0031656268
-0.0028151484
-0.0026850529
-0.0030030181
-0.0021791047
-0.0031622587
-0.0016525789
-0.0032914206
-0.0011104567
-0.0033893307
-0.00055785901
-0.0034551009
-4.1880911e-14
-0.0034881355
0.00055785901
-0.0034881355
0.0011104567
-0.0034551009
0.0016525789
-0.0033893307
0.0021791047
-0.0032914206
0.0026850529
-0.0031622587
0.0031656268
-0.0030030181
0.0036162577
-0.0028151484
0.0040326465
-0.0026003636
0.0044108039
-0.0023606293
0.0047470874
-0.0020981463
0.0050382363
-0.001815333
0.0052814029
-0.001514806
0.0054741807
-0.0011993582
0.0056146299
-0.00087193595
0.0057012976
-0.00053561428
0.0057332358
-0.00019357084
0.0057100137
0.00015094157
0.005631727
0.00049462361
0.0054990017
0.00083415946
0.0053129937
0.0011662478
0.0050753827
0.0014876342
0.0047883615
0.0017951439
0.0044546193
0.0020857155
0.0040773193
0.0023564344
0.0036600711
0.0026045653
0.0032068972
0.0028275848
0.0027221944
0.0030232111
0.0022106903
0.0031894319
0.0016773951
0.0033245297
0.0011275503
0.0034271033
0.00056657315
0.0034960858
0.0035307579
-0.00060108404
0.004131842
-0.0011962123
0.004091214
-0.0017794933
0.0040103844
-0.0023451638
0.0038902002
-0.0028876501
0.0037319182
-0.0034016273
0.0035371882
-0.0038820745
0.0033080321
-0.0043243268
0.0030468176
-0.0047241209
0.0027562285
-0.0050776365
0.0024392311
-0.0053815309
0.0020990384
-0.0056329687
0.001739072
-0.0058296439
0.0013629229
-0.0059697965
0.00097431206
-0.0060522236
0.00057705072
-0.006076284
0.00017500203
-0.0060418982
-0.00022795667
-0.0059495426
-0.00062796984
-0.0058002402
-0.0010212384
-0.0055955455
-0.0014040529
-0.0053375267
-0.0017728248
-0.0050287426
-0.002124117
-0.0046722168
-0.002454672
-0.0042714074
-0.0027614388
-0.0038301734
-0.0030415976
-0.0033527389
-0.0032925829
-0.0028436529
-0.003512104
-0.0023077482
-0.0036981634
-0.0017500967
-0.0038490722
-0.0011759638
-0.0039634635
-0.00059076156
-0.0040403031
-9.4496351e-16
-0.0040788971
0.00059076156
-0.0040788971
0.0011759638
-0.0040403031
0.0017500967
-0.0039634635
0.0023077482
-0.0038490722
0.0028436529
-0.0036981634
0.0033527389
-0.003512104
0.0038301734
-0.0032925829
0.0042714074
-0.0030415976
0.0046722168
-0.0027614388
0.0050287426
-0.002454672
0.0053375267
-0.002124117
0.0055955455
-0.0017728248
0.0058002402
-0.0014040529
0.0059495426
-0.0010212384
0.0060418982
-0.00062796984
0.006076284
-0.00022795667
0.0060522236
0.00017500203
0.0059697965
0.00057705072
0.0058296439
0.00097431206
0.0056329687
0.0013629229
0.0053815309
0.001739072
0.0050776365
0.0020990384
0.0047241209
0.0024392311
0.0043243268
0.0027562285
0.0038820745
0.0030468176
0.0034016273
0.0033080321
0.0028876501
0.0035371882
0.0023451638
0.0037319182
0.0017794933
0.0038902002
0.0011962123
0.0040103844
0.00060108404
0.004091214
0.004131842
-0.0006415146
0.0047733566
-0.0012766496
0.004726349
-0.0018990956
0.0046328303
-0.0025026819
0.0044937865
-0.0030814439
0.0043106802
-0.003629687
0.0040854313
-0.0041420464
0.0038203914
-0.0046135425
0.0035183137
-0.0050396307
0.0031823167
-0.005416245
0.0028158454
-0.0057398348
0.0024226282
-0.0060073953
0.0020066324
-0.0062164904
0.0015720181
-0.0063652697
0.0011230913
-0.0064524777
0.0006642588
-0.0064774586
0.00019998286
-0.0064401536
-0.00026526161
-0.0063410952
-0.00072702823
-0.006181395
-0.0011809386
-0.0059627281
-0.0016227198
-0.005687313
-0.0020482399
-0.0053578875
-0.0024535425
-0.0049776807
-0.0028348789
-0.0045503809
-0.0031887386
-0.0040801006
-0.0035118779
-0.0035713375
-0.0038013461
-0.0030289325
-0.004054509
-0.0024580259
-0.0042690699
-0.0018640105
-0.0044430876
-0.0012524831
-0.0045749909
-0.00062919474
-0.0046635915
5.6113021e-14
-0.0047080918
0.00062919474
-0.0047080918
0.0012524831
-0.0046635915
0.0018640105
-0.0045749909
0.0024580259
-0.0044430876
0.0030289325
-0.0042690699
0.0035713375
-0.004054509
0.0040801006
-0.0038013461
0.0045503809
-0.0035118779
0.0049776807
-0.0031887386
0.0053578875
-0.0028348789
0.005687313
-0.0024535425
0.0059627281
-0.0020482399
0.006181395
-0.0016227198
0.0063410952
-0.0011809386
0.0064401536
-0.00072702823
0.0064774586
-0.00026526161
0.0064524777
0.00019998286
0.0063652697
0.0006642588
0.0062164904
0.0011230913
0.0060073953
0.0015720181
0.0057398348
0.0020066324
0.005416245
0.0024226282
0.0050396307
0.0028158454
0.0046135425
0.0031823167
0.0041420464
0.0035183137
0.003629687
0.0038203914
0.0030814439
0.0040854313
0.0025026819
0.0043106802
0.0018990956
0.0044937865
0.0012766496
0.0046328303
0.0006415146
0.004726349
0.0047733566
-0.00068828973
0.0054616463
-0.0013697067
0.005407766
-0.0020374546
0.0053005783
-0.0026848893
0.0051412212
-0.0033055917
0.0049313826
-0.0038934377
0.0046732773
-0.0044426637
0.0043696174
-0.0049479261
0.0040235762
-0.0054043558
0.0036387463
-0.005807604
0.0032190935
-0.0061538819
0.0027689061
-0.0064399923
0.0022927428
-0.0066633528
0.0017953785
-0.0068220116
0.0012817502
-0.0069146572
0.00075690441
-0.0069406201
0.00022594568
-0.0068998693
-0.00030601238
-0.0067930043
-0.00083389324
-0.0066212413
-0.0013527016
-0.0063863958
-0.0018575653
-0.0060908607
-0.0023437749
-0.0057375809
-0.0028068224
-0.0053300225
-0.0032424373
-0.0048721397
-0.0036466214
-0.0043683366
-0.0040156809
-0.0038234261
-0.0043462565
-0.0032425855
-0.0046353496
-0.0026313089
-0.0048803465
-0.0019953581
-0.0050790384
-0.0013407108
-0.0052296383
-0.00067350798
-0.0053307943
2.016439e-13
-0.0053815998
0.00067350798
-0.0053815998
0.0013407108
-0.0053307943
0.0019953581
-0.0052296383
0.0026313089
-0.0050790384
0.0032425855
-0.0048803465
0.0038234261
-0.0046353496
0.0043683366
-0.0043462565
0.0048721397
-0.0040156809
0.0053300225
-0.0036466214
0.0057375809
-0.0032424373
0.0060908607
-0.0028068224
0.0063863958
-0.0023437749
0.0066212413
-0.0018575653
0.0067930043
-0.0013527016
0.0068998693
-0.00083389324
0.0069406201
-0.00030601238
0.0069146572
0.00022594568
0.0068220116
0.00075690441
0.0066633528
0.0012817502
0.0064399923
0.0017953785
0.0061538819
0.0022927428
0.005807604
0.0027689061
0.0054043558
0.0032190935
0.0049479261
0.0036387463
0.0044426637
0.0040235762
0.0038934377
0.0043696174
0.0033055917
0.0046732773
0.0026848893
0.0049313826
0.0020374546
0.0051412212
0.0013697067
0.0053005783
0.00068828973
0.005407766
0.0054616463
-0.00074190099
0.0062035473
-0.0014763599
0.0061422249
-0.002196019
0.0060202373
-0.0028936876
0.0058388898
-0.0035624231
0.0056001181
-0.004195607
0.0053064612
-0.0047870172
0.0049610275
-0.0053308929
0.0045674519
-0.0058219937
0.0041298471
-0.0062556492
0.003652749
-0.0066278012
0.0031410582
-0.0069350362
0.0025999778
-0.0071746089
0.0020349512
-0.0073444577
0.001451599
-0.0074432119
0.00085565859
-0.0074701915
0.00025292531
-0.0074254019
-0.000350802
-0.0073095225
-0.0009497726
-0.0071238918
-0.0015383324
-0.0068704872
-0.0021109699
-0.0065519021
-0.00266236
-0.0061713179
-0.0031874066
-0.005732472
-0.0036812831
-0.0052396219
-0.0041394715
-0.0046975046
-0.0045577983
-0.0041112924
-0.0049324687
-0.0034865458
-0.0052600963
-0.0028291622
-0.0055377301
-0.0021453236
-0.005762877
-0.0014414414
-0.0059335205
-0.00072410001
-0.0060481357
3.2318695e-13
-0.0061056998
0.00072410001
-0.0061056998
0.0014414414
-0.0060481357
0.0021453236
-0.0059335205
0.0028291622
-0.005762877
0.0034865458
-0.0055377301
0.0041112924
-0.0052600963
0.0046975046
-0.0049324687
0.0052396219
-0.0045577983
0.005732472
-0.0041394715
0.0061713179
-0.0036812831
0.0065519021
-0.0031874066
0.0068704872
-0.00266236
0.0071238918
-0.0021109699
0.0073095225
-0.0015383324
0.0074254019
-0.0009497726
0.0074701915
-0.000350802
0.0074432119
0.00025292531
0.0073444577
0.00085565859
0.0071746089
0.001451599
0.0069350362
0.0020349512
0.0066278012
0.0025999778
0.0062556492
0.0031410582
0.0058219937
0.003652749
0.0053308929
0.0041298471
0.0047870172
0.0045674519
0.004195607
0.0049610275
0.0035624231
0.0053064612
0.0028936876
0.0056001181
0.002196019
0.0058388898
0.0014763599
0.0060202373
0.00074190099
0.0061422249
0.0062035473
-0.00080291453
0.0070064618
-0.001597734
0.0069370444
-0.0023764567
0.00679896
-0.0031312659
0.006593699
-0.003854619
0.0063234711
-0.004539332
0.0059911743
-0.0051786593
0.0056003548
-0.005766365
0.0051551577
-0.0062967874
0.0046602695
-0.006764893
0.0041208546
-0.0071663212
0.0035424864
-0.0074974185
0.0029310751
-0.0077552616
0.0022927942
-0.007937671
0.0016340085
-0.0080432162
0.00096120384
-0.0080712125
0.0002809216
-0.0080217119
-0.00040030267
-0.0078954891
-0.0010759953
-0.0076940242
-0.0017397973
-0.0074194805
-0.0023855137
-0.0070746792
-0.0030071613
-0.0066630704
-0.0035990153
-0.0061886989
-0.0041556547
-0.0056561655
-0.0046720049
-0.005070584
-0.0051433798
-0.0044375337
-0.0055655189
-0.0037630086
-0.0059346214
-0.0030533621
-0.0062473766
-0.002315251
-0.006500988
-0.0015555763
-0.0066931952
-0.0007814232
-0.0068222888
2.4973835e-13
-0.006887123
0.0007814232
-0.006887123
0.0015555763
-0.0068222888
0.002315251
-0.0066931952
0.0030533621
-0.006500988
0.0037630086
-0.0062473766
0.0044375337
-0.0059346214
0.005070584
-0.0055655189
0.0056561655
-0.0051433798
0.0061886989
-0.0046720049
0.0066630704
-0.0041556547
0.0070746792
-0.0035990153
0.0074194805
-0.0030071613
0.0076940242
-0.0023855137
0.0078954891
-0.0017397973
0.0080217119
-0.0010759953
0.0080712125
-0.00040030267
0.0080432162
0.0002809216
0.007937671
0.00096120384
0.0077552616
0.0016340085
0.0074974185
0.0022927942
0.0071663212
0.0029310751
0.006764893
0.0035424864
0.0062967874
0.0041208546
0.005766365
0.0046602695
0.0051786593
0.0051551577
0.004539332
0.0056003548
0.003854619
0.0059911743
0.0031312659
0.0063234711
0.0023764567
0.006593699
0.001597734
0.00679896
0.00080291453
0.0069370444
0.0070064618
-0.00087197923
0.0078784411
-0.0017351179
0.0078001831
-0.0025806791
0.0076445212
-0.0034001316
0.0074131515
-0.0041852487
0.0071085882
-0.0049282028
0.0067341284
-0.0056216529
0.0062938049
-0.0062588248
0.0057923295
-0.0068335811
0.0052350258
-0.0073404811
0.0046277546
-0.0077748281
0.0039768334
-0.0081327045
0.0032889514
-0.0084109947
0.0025710844
-0.0086073965
0.0018304103
-0.0087204217
0.0010742291
-0.0087493891
0.00030988904
-0.008694411
-0.00045528078
-0.0085563754
-0.001214031
-0.0083369252
-0.0019592475
-0.008038435
-0.0026840039
-0.0076639837
-0.0033816126
-0.007217324
-0.004045675
-0.0067028464
-0.0046701323
-0.0061255382
-0.0052493131
-0.0054909372
-0.0057779807
-0.0048050808
-0.0062513753
-0.0040744502
-0.0066652521
-0.0033059117
-0.0070159151
-0.0025066554
-0.0073002444
-0.0016841318
-0.0075157188
-0.00084598747
-0.0076604331
9.2844584e-14
-0.0077331105
0.00084598747
-0.0077331105
0.0016841318
-0.0076604331
0.0025066554
-0.0075157188
0.0033059117
-0.0073002444
0.0040744502
-0.0070159151
0.0048050808
-0.0066652521
0.0054909372
-0.0062513753
0.0061255382
-0.0057779807
0.0067028464
-0.0052493131
0.007217324
-0.0046701323
0.0076639837
-0.004045675
0.008038435
-0.0033816126
0.0083369252
-0.0026840039
0.0085563754
-0.0019592475
0.008694411
-0.001214031
0.0087493891
-0.00045528078
0.0087204217
0.00030988904
0.0086073965
0.0010742291
0.0084109947
0.0018304103
0.0081327045
0.0025710844
0.0077748281
0.0032889514
0.0073404811
0.0039768334
0.0068335811
0.0046277546
0.0062588248
0.0052350258
0.0056216529
0.0057923295
0.0049282028
0.0062938049
0.0041852487
0.0067341284
0.0034001316
0.0071085882
0.0025806791
0.0074131515
0.0017351179
0.0076445212
0.00087197923
0.0078001831
0.0078784411
-0.00094983581
0.0088282769
-0.0018899827
0.0087403299
-0.0028108671
0.0085654057
-0.0037031452
0.0083054296
-0.0045578128
0.0079632559
-0.0053663113
0.0075426269
-0.0061206254
0.007048119
-0.0068133726
0.0064850768
-0.0074378813
0.0058595345
-0.0079882559
0.0051781292
-0.0084594282
0.0044480057
-0.0088471936
0.0036767169
-0.0091482326
0.0028721234
-0.009360118
0.0020422957
-0.0094813106
0.0011954216
-0.0095111452
0.00033972366
-0.0094498115
-0.00051661445
-0.0092983313
-0.0013655112
-0.0090585344
-0.0021990444
-0.0087330336
-0.0030095048
-0.0083251967
-0.0037894494
-0.007839115
-0.0045317567
-0.0072795659
-0.0052296814
-0.0066519691
-0.0058769099
-0.0059623376
-0.0064676123
-0.0052172215
-0.0069964914
-0.0044236479
-0.0074588256
-0.003589057
-0.0078505059
-0.0027212352
-0.0081680662
-0.0018282466
-0.0084087074
-0.00091836414
-0.0085703156
-4.0128374e-14
-0.0086514746
0.00091836414
-0.0086514746
0.0018282466
-0.0085703156
0.0027212352
-0.0084087074
0.003589057
-0.0081680662
0.0044236479
-0.0078505059
0.0052172215
-0.0074588256
0.0059623376
-0.0069964914
0.0066519691
-0.0064676123
0.0072795659
-0.0058769099
0.007839115
-0.0052296814
0.0083251967
-0.0045317567
0.0087330336
-0.0037894494
0.0090585344
-0.0030095048
0.0092983313
-0.0021990444
0.0094498115
-0.0013655112
0.0095111452
-0.00051661445
0.0094813106
0.00033972366
0.009360118
0.0011954216
0.0091482326
0.0020422957
0.0088471936
0.0028721234
0.0084594282
0.0036767169
0.0079882559
0.0044480057
0.0074378813
0.0051781292
0.0068133726
0.0058595345
0.0061206254
0.0064850768
0.0053663113
0.007048119
0.0045578128
0.0075426269
0.0037031452
0.0079632559
0.0028108671
0.0083054296
0.0018899827
0.0085654057
0.00094983581
0.0087403299
0.0088282769
-0.0010373271
0.009865604
-0.002064002
0.0097670049
-0.0030695018
0.0095709055
-0.00404356
0.0092794878
-0.0049762908
0.0088959866
-0.0058583069
0.008424643
-0.0066808308
0.0078706429
-0.0074357944
0.0072400403
-0.0081159267
0.0065396669
-0.0087148268
0.0057770293
-0.0092270187
0.0049601976
-0.009647989
0.0040976872
-0.0099742058
0.0031983402
-0.01020312
0.0022712101
-0.010333154
0.0013254554
-0.010363677
0.00037024638
-0.010294977
-0.00058531396
-0.010128235
-0.0015322536
-0.0098654919
-0.0024617873
-0.0095096279
-0.0033653687
-0.0090643321
-0.0042347452
-0.0085340719
-0.005062017
-0.0079240548
-0.0058396985
-0.0072401829
-0.0065607818
-0.006488999
-0.0072187962
-0.005677626
-0.0078078644
-0.0048137007
-0.008322751
-0.0039053031
-0.0087589035
-0.0029608839
-0.0091124854
-0.00198919
-0.0093804014
-0.00099918991
-0.0095603156
-2.88719e-13
-0.0096506645
0.00099918991
-0.0096506645
0.00198919
-0.0095603156
0.0029608839
-0.0093804014
0.0039053031
-0.0091124854
0.0048137007
-0.0087589035
0.005677626
-0.008322751
0.006488999
-0.0078078644
0.0072401829
-0.0072187962
0.0079240548
-0.0065607818
0.0085340719
-0.0058396985
0.0090643321
-0.005062017
0.0095096279
-0.0042347452
0.0098654919
-0.0033653687
0.010128235
-0.0024617873
0.010294977
-0.0015322536
0.010363677
-0.00058531396
0.010333154
0.00037024638
0.01020312
0.0013254554
0.0099742058
0.0022712101
0.009647989
0.0031983402
0.0092270187
0.0040976872
0.0087148268
0.0049601976
0.0081159267
0.0057770293
0.0074357944
0.0065396669
0.0066808308
0.0072400403
0.0058583069
0.0078706429
0.0049762908
0.008424643
0.00404356
0.0088959866
0.0030695018
0.0092794878
0.002064002
0.0095709055
0.0010373271
0.0097670049
0.009865604
-0.0011354098
0.011001014
-0.0022590759
0.010890671
-0.0033593992
0.010671229
-0.0044250679
0.010345156
-0.0054451968
0.0099161155
-0.0064094612
0.0093889074
-0.0073082217
0.0087694034
-0.0081326383
0.0080644569
-0.0088747694
0.0072817979
-0.0095276532
0.0064299132
-0.010085369
0.0055179134
-0.010543075
0.0045553931
-0.010897023
0.0035522887
-0.011144555
0.0025187417
-0.011284074
0.0014649738
-0.011315009
0.00040118181
-0.011237778
-0.00066254542
-0.011053743
-0.0017162877
-0.010765189
-0.002750342
-0.010375288
-0.0037552694
-0.0098880843
-0.004721949
-0.0093084596
-0.0056416416
-0.0086420979
-0.0065060602
-0.0078954366
-0.0073074431
-0.0070756085
-0.0080386242
-0.006190375
-0.0086930979
-0.005248052
-0.0092650739
-0.004257432
-0.0097495235
-0.0032277035
-0.010142214
-0.0021683703
-0.010439735
-0.001089171
-0.010639515
-4.8824669e-13
-0.010739836
0.001089171
-0.010739836
0.0021683703
-0.010639515
0.0032277035
-0.010439735
0.004257432
-0.010142214
0.005248052
-0.0097495235
0.006190375
-0.0092650739
0.0070756085
-0.0086930979
0.0078954366
-0.0080386242
0.0086420979
-0.0073074431
0.0093084596
-0.0065060602
0.0098880843
-0.0056416416
0.010375288
-0.004721949
0.010765189
-0.0037552694
0.011053743
-0.002750342
0.011237778
-0.0017162877
0.011315009
-0.00066254542
0.011284074
0.00040118181
0.011144555
0.0014649738
0.010897023
0.0025187417
0.010543075
0.0035522887
0.010085369
0.0045553931
0.0095276532
0.0055179134
0.0088747694
0.0064299132
0.0081326383
0.0072817979
0.0073082217
0.0080644569
0.0064094612
0.0087694034
0.0054451968
0.0093889074
0.0044250679
0.0099161155
0.0033593992
0.010345156
0.0022590759
0.010671229
0.0011354098
0.010890671
0.011001014
-0.001245168
0.012246182
-0.002477357
0.01212286
-0.0036837497
0.011877622
-0.0048518508
0.011513258
-0.0059696436
0.011033908
-0.0070257419
0.010445006
-0.0080095323
0.0097531939
-0.0089113051
0.0089662297
-0.0097223679
0.0080928607
-0.010435138
0.0071426836
-0.011043212
0.0061259874
-0.011541404
0.0050535846
-0.011925755
0.0039366396
-0.012193516
0.0027865034
-0.012343108
0.001614565
-0.012374057
0.0004321314
-0.012286944
-0.00074965807
-0.01208335
-0.0019198823
-0.011765821
-0.0030678704
-0.011337856
-0.0041832352
-0.01080388
-0.0052559245
-0.01016923
-0.0062762914
-0.0094401141
-0.0072351764
-0.008623562
-0.0081239952
-0.0077273632
-0.0089348231
-0.0067599899
-0.0096604712
-0.0057305145
-0.010294549
-0.0046485214
-0.010831517
-0.0035240176
-0.011266718
-0.0023673437
-0.011596408
-0.0011890876
-0.011817771
-3.8295988e-13
-0.011928923
0.0011890876
-0.011928923
0.0023673437
-0.011817771
0.0035240176
-0.011596408
0.0046485214
-0.011266718
0.0057305145
-0.010831517
0.0067599899
-0.010294549
0.0077273632
-0.0096604712
0.008623562
-0.0089348231
0.0094401141
-0.0081239952
0.01016923
-0.0072351764
0.01080388
-0.0062762914
0.011337856
-0.0052559245
0.011765821
-0.0041832352
0.01208335
-0.0030678704
0.012286944
-0.0019198823
0.012374057
-0.00074965807
0.012343108
0.0004321314
0.012193516
0.001614565
0.011925755
0.0027865034
0.011541404
0.0039366396
0.011043212
0.0050535846
0.010435138
0.0061259874
0.0097223679
0.0071426836
0.0089113051
0.0080928607
0.0080095323
0.0089662297
0.0070257419
0.0097531939
0.0059696436