/*--------------------------------*- C++ -*----------------------------------*\
| =========                 |                                                 |
| \\      /  F ield         | OpenFOAM: The Open Source CFD Toolbox           |
|  \\    /   O peration     | Version:  2106                                  |
|   \\  /    A nd           | Website:  www.openfoam.com                      |
|    \\/     M anipulation  |                                                 |
\*---------------------------------------------------------------------------*/
FoamFile
{
    version     2.0;
    format      ascii;
    arch        "LSB;label=32;scalar=64";
    class       volScalarField;
    location    "0.095";
    object      p_rgh;
}
// * * * * * * * * * * * * * * * * * * * * * * * * * * * * * * * * * * * * * //

dimensions      [1 -1 -2 0 0 0 0];

internalField   nonuniform List<scalar> 
32768
(
431.26809
431.26599
431.22875
431.15998
431.05964
430.92701
430.7619
430.5643
430.3341
430.07121
429.77561
429.44727
429.08597
428.6915
428.26363
427.8021
427.30664
426.77693
426.21261
425.6133
424.97856
424.30794
423.60094
422.857
422.07555
421.25594
420.39752
419.49952
418.56129
417.58172
416.56056
415.49574
414.38822
413.23438
412.03551
410.79104
409.49069
408.15864
406.74481
405.31973
403.80402
402.24626
400.65316
398.95599
397.23814
395.45412
393.57638
391.67065
389.68452
387.61215
385.5038
383.30203
381.01352
378.68031
376.26217
373.74183
371.15434
368.49475
365.74027
362.90169
359.97334
356.94929
353.83991
350.64587
347.36125
343.96658
340.46892
336.89508
333.22985
329.45006
325.5716
321.60987
317.55108
313.38359
309.11381
304.75161
300.29948
295.75512
291.12405
286.40892
281.59979
276.69775
271.72124
266.68837
261.6144
256.4871
251.2859
246.01881
240.70411
235.36299
230.02424
224.69589
219.36554
214.04082
208.73321
203.42634
198.13268
192.89261
187.71048
182.5867
177.52818
172.52412
167.58723
162.76662
158.10886
153.62286
149.23391
144.89552
140.6113
136.40936
132.22918
128.17965
124.29506
120.45919
116.94998
113.84963
110.72743
107.30529
104.06764
101.18972
97.541696
94.127723
91.046414
88.225283
85.473345
82.640167
79.685881
76.945603
74.331786
71.571347
68.637277
65.582619
62.321172
58.766272
54.909233
50.87747
46.751701
42.835551
39.68752
38.397317
33.804271
24.684646
34.219891
2.4684112
0.84532079
0.84548445
0.77604852
0.65577065
0.57388675
0.51532766
0.46960115
0.43277751
0.40213065
0.37600514
0.35333106
0.33338124
0.31563897
0.29972288
0.28534285
0.27227282
0.2603321
0.24937889
0.2392812
0.22994661
0.22129306
0.2132465
0.20574495
0.19873998
0.1921765
0.18601894
0.18023278
0.17478592
0.16965003
0.1648007
0.16021577
0.15587527
0.15176129
0.14785771
0.14414988
0.14062451
0.13726951
0.13407382
0.13102737
0.12812091
0.12534597
0.12269477
0.12016004
0.11773552
0.11541444
0.11319124
0.11106087
0.10901852
0.1070596
0.10517988
0.10337541
0.10164252
0.099977786
0.098377991
0.096840158
0.09536148
0.093939313
0.092571199
0.091254808
0.089988069
0.088768606
0.087594637
0.086464434
0.085376306
0.084328619
0.083319834
0.082348507
0.081413269
0.080512842
0.079645953
0.078811631
0.078008649
0.077236146
0.07649305
0.075778477
0.075091622
0.074430896
0.073796124
0.073187109
0.072602569
0.072041832
0.071504335
0.070989498
0.070496758
0.070025579
0.069575453
0.069145904
0.068736472
0.068346811
0.067976464
0.067625051
0.067292223
0.066977652
0.066681031
0.066402003
0.066140344
0.065895785
0.065668075
0.065457216
0.065262784
0.065084604
0.064922535
0.064776438
0.064646193
0.064531564
0.064432559
0.064349062
0.06428102
0.064228478
0.064191326
0.064169386
0.064163255
431.25594
431.25324
431.2165
431.14821
431.04771
430.91484
430.74957
430.55183
430.32158
430.0588
429.76321
429.43466
429.07305
428.6782
428.24988
427.78786
427.29185
426.76154
426.19659
425.59661
424.96118
424.28982
423.58205
422.83731
422.05502
421.23453
420.37521
419.47621
418.53704
417.55625
416.53422
415.46773
414.35963
413.20348
412.00459
410.75683
409.45762
408.11989
406.70885
405.2783
403.75888
402.20764
400.6026
398.90448
397.19636
395.3902
393.51925
391.62057
389.6135
387.5439
385.43884
383.22474
380.93712
378.60101
376.16764
373.6492
371.0681
368.393
365.62129
362.78743
359.86189
356.82576
353.70552
350.50621
347.21213
343.809
340.31089
336.73053
333.04983
329.26012
325.37709
321.40801
317.3377
313.15896
308.88419
304.5189
300.05436
295.48982
290.84335
286.11704
281.30051
276.39437
271.41071
266.36694
261.27207
256.12666
250.91629
245.63989
240.31608
234.96616
229.61532
224.2725
218.9349
213.61085
208.29432
202.97797
197.68689
192.44142
187.24213
182.10856
177.05322
172.06598
167.15467
162.34187
157.66005
153.13357
148.74512
144.45325
140.2145
136.01404
131.87528
127.86513
124.00901
120.30644
116.80093
113.49084
110.22844
106.85566
103.55283
100.18225
97.081579
94.016746
91.13849
88.435956
85.754267
82.851746
79.762384
77.198908
74.634853
71.874026
68.896882
65.719861
62.316366
58.768536
55.004371
51.077075
46.746969
43.226211
39.742776
35.975529
29.984503
36.27202
12.024476
0.54779137
0.65575586
0.73388871
0.67289857
0.60347665
0.54704983
0.4999113
0.46019228
0.4265643
0.39776752
0.37279372
0.35087612
0.3314475
0.31407944
0.29844107
0.28427286
0.27136739
0.25955701
0.24870207
0.23869651
0.22943851
0.22084574
0.21285072
0.20539379
0.19842029
0.19189162
0.18576392
0.18000233
0.17457849
0.16946218
0.16462936
0.16005914
0.15573183
0.15162967
0.14773669
0.1440384
0.14052162
0.13717437
0.13398571
0.13094563
0.12804497
0.12527531
0.12262895
0.12009875
0.11767837
0.11536074
0.11314086
0.11101366
0.10897421
0.10701796
0.1051407
0.1033385
0.10160772
0.099944928
0.09834693
0.09681078
0.095333665
0.093912954
0.092546203
0.091231126
0.089965633
0.088747142
0.087574158
0.086444928
0.08535771
0.084310867
0.083302872
0.082332283
0.081397739
0.080497947
0.079631681
0.078797938
0.07799548
0.077223477
0.076480797
0.075766467
0.0750796
0.074419927
0.073786318
0.073177243
0.072592782
0.072032287
0.071495068
0.070980502
0.070488018
0.070017081
0.069567185
0.069137852
0.068728645
0.068339156
0.067968982
0.06761773
0.067285055
0.066970636
0.066674163
0.066395254
0.066133731
0.06588936
0.065661911
0.065450987
0.065256554
0.065078417
0.064916391
0.064770322
0.064640058
0.064525558
0.064426633
0.064343186
0.064275184
0.064222553
0.064185293
0.064163304
0.064157169
431.2338
431.23082
431.19407
431.12568
431.02492
430.89173
430.72609
430.52796
430.2973
430.03404
429.73811
429.40925
429.0473
428.65208
428.22337
427.76093
427.26446
426.73365
426.16812
425.5675
424.93134
424.2592
423.55055
422.80485
422.02151
421.19989
420.33935
419.43902
418.49846
417.51606
416.49255
415.42396
414.31458
413.15533
411.95608
410.7035
409.40546
408.06138
406.65133
405.21464
403.69231
402.14175
400.52485
398.83151
397.11633
395.29888
393.4384
391.52378
389.50536
387.45059
385.32527
383.09755
380.82235
378.47064
376.01949
373.50623
370.91868
368.22148
365.44653
362.61207
359.66572
356.61741
353.49606
350.28166
346.96665
343.55686
340.05336
336.45336
332.75175
328.9477
325.05504
321.07447
316.9836
312.78545
308.49915
304.11809
299.62728
295.03944
290.37618
285.63103
280.79625
275.87461
270.87264
265.80365
260.68106
255.50774
250.26677
244.96907
239.63474
234.27503
228.91452
223.56077
218.20215
212.84869
207.50625
202.17045
196.86061
191.59881
186.3972
181.28153
176.24619
171.27258
166.37772
161.57438
156.89239
152.34554
147.93446
143.64726
139.44833
135.31312
131.25939
127.33333
123.54875
119.89471
116.37692
113.00418
109.69557
106.39563
103.14628
99.916838
96.780474
93.782653
90.990878
88.43583
85.877644
83.094417
80.366794
77.635764
75.00874
72.21795
69.285141
66.245576
62.850213
59.271108
55.237396
51.231601
46.934824
45.195825
40.008436
37.295159
47.619929
16.261834
0.4675711
0.1278722
0.47257127
0.5621509
0.56902896
0.54359925
0.5095104
0.47517218
0.44326702
0.41451504
0.38885171
0.3659591
0.34548737
0.32710145
0.31050761
0.29545884
0.28174993
0.26920894
0.25769414
0.24708116
0.23727209
0.22818103
0.21973006
0.21185478
0.20450053
0.19761734
0.19116539
0.18510502
0.1794031
0.17402947
0.16895938
0.16416937
0.1596366
0.1553423
0.1512698
0.14740357
0.14372944
0.14023454
0.13690716
0.13373657
0.13071297
0.12782736
0.12507148
0.12243767
0.11991888
0.11750833
0.11520101
0.11299073
0.11087213
0.10884053
0.10689153
0.10502098
0.10322502
0.10150004
0.099842647
0.098249628
0.096718204
0.095245508
0.093828896
0.092465926
0.091154279
0.089891703
0.088676698
0.087506945
0.086380602
0.08529604
0.084251682
0.083246021
0.08227763
0.081345182
0.080447454
0.079583351
0.078751232
0.077950444
0.077179786
0.076438421
0.075725433
0.075039911
0.074381219
0.073748357
0.073140688
0.072557429
0.07199797
0.071461695
0.070948009
0.070456352
0.069986197
0.069537053
0.069108464
0.06869999
0.06831106
0.067941396
0.06759066
0.067258474
0.066944486
0.066648379
0.066369959
0.066108871
0.06586486
0.065637698
0.065427128
0.065232992
0.065055119
0.064893334
0.064747472
0.064617402
0.064503025
0.06440421
0.064320885
0.064252956
0.064200362
0.064163078
0.064141111
0.064134997
431.20162
431.19834
431.16138
431.09272
430.99158
430.85789
430.69168
430.49291
430.26153
429.99746
429.70059
429.37074
429.00771
428.61132
428.18133
427.7175
427.21952
426.68709
426.11985
425.51741
424.87933
424.20514
423.49435
422.74639
421.96067
421.13653
420.27334
419.3702
418.42667
417.44115
416.4143
415.34223
414.22911
413.06584
411.86278
410.60492
409.30425
407.95225
406.54098
405.09511
403.56765
402.01377
400.3839
398.68834
396.96687
395.13523
393.27168
391.34921
389.31484
387.25692
385.11949
382.87662
380.59448
378.23007
375.76239
373.23901
370.63732
367.92056
365.13509
362.28559
359.3155
356.24913
353.11565
349.88029
346.53979
343.11217
339.58948
335.96271
332.2309
328.40423
324.49645
320.48858
316.36167
312.13702
307.82677
303.41452
298.89181
294.27781
289.58494
284.80478
279.93756
274.98546
269.94947
264.83864
259.66974
254.45321
249.18066
243.86052
238.50983
233.1364
227.74777
222.35101
216.94251
211.54426
206.16609
200.80522
195.49612
190.24602
185.03322
179.90602
174.88156
169.94564
165.10047
160.3033
155.59655
151.02337
146.59257
142.33117
138.18347
134.10781
130.15809
126.36785
122.73673
119.25277
115.83143
112.41167
109.01524
105.68659
102.45158
99.28792
96.235325
93.288188
90.624415
88.251586
85.960851
83.241951
80.75831
78.057216
75.495098
72.790551
69.987522
66.834044
63.190365
59.658167
55.361732
51.382982
46.694319
37.52086
40.065428
53.84931
10.945312
0.50926981
0.30389413
0.28542025
0.39839025
0.46915073
0.49072314
0.48570286
0.46779911
0.44497473
0.42103934
0.39780118
0.37598379
0.35582825
0.33734968
0.32044808
0.30498318
0.29081021
0.27779278
0.26580699
0.25474334
0.24450447
0.23500616
0.22617365
0.21794311
0.21025623
0.20306307
0.19632334
0.18999415
0.18404199
0.17843476
0.17314297
0.16814567
0.16342209
0.15894851
0.15470677
0.15068173
0.14685846
0.1432232
0.13976356
0.13646822
0.13332682
0.13032987
0.12746864
0.12473508
0.12212177
0.11962187
0.11722897
0.11493762
0.11274205
0.11063715
0.10861827
0.10668108
0.10482148
0.10303575
0.1013203
0.099671792
0.098086981
0.09656325
0.095097813
0.093687953
0.092331292
0.091025596
0.089768721
0.088558863
0.087393967
0.086272244
0.085192041
0.084151787
0.083149989
0.082185234
0.081256191
0.080361598
0.079500231
0.078671175
0.077873266
0.077105246
0.076366347
0.075655728
0.074972558
0.074315719
0.073684613
0.073078754
0.072497293
0.071939508
0.071404794
0.070892578
0.070402308
0.069933463
0.069485542
0.069058068
0.068650591
0.068262761
0.067894139
0.067544337
0.067213011
0.066899836
0.066604503
0.066326765
0.066066309
0.065822879
0.065596251
0.065386219
0.065192586
0.065015159
0.064853767
0.064708273
0.06457853
0.064464404
0.064365806
0.064282655
0.064214865
0.064162375
0.064125176
0.064103308
0.064097323
431.15945
431.15587
431.11856
431.04946
430.94775
430.81339
430.64641
430.44676
430.2144
429.94922
429.65112
429.31993
428.95548
428.55756
428.12592
427.66033
427.16047
426.62604
426.05666
425.45195
424.81148
424.13476
423.42129
422.6705
421.88179
421.0545
420.18797
419.28131
418.33405
417.3446
416.31352
415.23707
414.11918
412.9509
411.74273
410.47877
409.17318
407.81342
406.39751
404.94239
403.40897
401.8463
400.20578
398.50616
396.77003
394.92881
393.05949
391.11966
389.07242
387.00987
384.85389
382.59087
380.30003
377.92374
375.43259
372.89128
370.27272
367.53595
364.7362
361.86223
358.86387
355.77293
352.62271
349.36647
345.99542
342.53421
338.97965
335.33095
331.56814
327.7053
323.76881
319.72525
315.55512
311.29213
306.9492
302.50192
297.94042
293.29378
288.56509
283.73318
278.81359
273.81589
268.73524
263.57965
258.36615
253.10249
247.78359
242.42751
237.04446
231.63062
226.19657
220.75359
215.28903
209.83919
204.42902
199.05017
193.74404
188.50675
183.29399
178.15936
173.09515
168.11684
163.28386
158.55327
153.90466
149.33781
144.90392
140.65837
136.60161
132.69059
128.91844
125.26703
121.70308
118.26246
114.91828
111.60399
108.3097
105.00392
101.72507
98.589408
95.628658
92.9026
90.363329
88.09763
86.14802
83.716092
81.264456
78.744607
76.254395
73.682648
70.719794
67.702154
63.920883
60.28995
55.039278
45.950266
46.964189
52.937513
28.041885
3.177002
0.12886593
0.28933979
0.28860802
0.30716292
0.36337653
0.41227823
0.43236042
0.4353132
0.42723663
0.41305263
0.39600891
0.37802889
0.36019487
0.34306736
0.32689866
0.3117767
0.29770204
0.28463055
0.27249688
0.26122974
0.25075437
0.24100963
0.23192506
0.2234372
0.21549914
0.20806833
0.20109723
0.19454674
0.18838269
0.18257359
0.17709316
0.17191783
0.16702363
0.1623885
0.15799478
0.15382611
0.14986675
0.14610255
0.14252073
0.13910959
0.13585835
0.13275717
0.12979695
0.12696935
0.12426663
0.12168168
0.1192079
0.11683917
0.11456993
0.11239482
0.11030892
0.10830766
0.10638681
0.10454236
0.1027708
0.10106863
0.09943251
0.097859563
0.096346508
0.094890832
0.093490254
0.092142378
0.090844956
0.089595891
0.088393264
0.087235186
0.086119902
0.085045771
0.084011238
0.083014837
0.082055152
0.081130883
0.080240788
0.079383667
0.078558624
0.077764518
0.077000137
0.076264618
0.075557139
0.074876823
0.07422296
0.073594732
0.072991467
0.07241242
0.071856933
0.071324397
0.070814239
0.070325916
0.06985891
0.069412722
0.068986878
0.068580941
0.068194561
0.067827313
0.067478799
0.067148682
0.066836644
0.066542381
0.066265614
0.066006066
0.065763486
0.065537644
0.065328347
0.065135375
0.064958542
0.064797705
0.064652709
0.064523417
0.064409683
0.064311404
0.064228514
0.064160942
0.064108622
0.064071563
0.064049809
0.064043922
431.10756
431.10361
431.06584
430.99614
430.89371
430.75851
430.59054
430.38979
430.15618
429.88962
429.59
429.25716
428.89091
428.49106
428.05736
427.58955
427.08734
426.55039
425.97834
425.3708
424.72731
424.04741
423.33056
422.57621
421.78373
420.95245
420.08169
419.17059
418.21857
417.22419
416.18773
415.10584
413.98177
412.80747
411.59232
410.32134
409.00863
407.63982
406.21739
404.75118
403.2097
401.6366
399.98298
398.27668
396.5237
394.67061
392.79175
390.82988
388.77324
386.69639
384.51481
382.23903
379.93298
377.52913
375.01933
372.46014
369.81233
367.05169
364.23296
361.32769
358.29679
355.17869
352.00376
348.71649
345.30797
341.80891
338.2168
334.53687
330.73662
326.83443
322.85271
318.75652
314.53945
310.23096
305.84416
301.35485
296.74841
292.05451
287.27287
282.37656
277.39112
272.33583
267.205
261.99698
256.73095
251.41727
246.03354
240.61885
235.18372
229.70258
224.20451
218.70309
213.18609
207.71223
202.27039
196.85955
191.55263
186.30289
181.05168
175.91077
170.83527
165.80735
160.93787
156.19556
151.62535
147.13561
142.77174
138.6332
134.60804
130.77993
127.23035
123.82256
120.48716
117.2138
113.86206
110.45066
107.14349
103.9694
100.85352
97.786753
94.82292
92.070878
89.581891
87.475938
85.43781
83.783546
81.641671
79.344367
76.896558
74.632599
71.377989
68.682058
64.235816
56.046415
54.79992
57.236552
38.555341
8.747058
0.050803997
0.068044858
0.13450659
0.21593386
0.25547473
0.29061299
0.33322558
0.36566357
0.38447646
0.39139967
0.38936019
0.38139444
0.36990783
0.35658358
0.3425295
0.32842415
0.31466363
0.30146635
0.28893946
0.27712224
0.26601378
0.2555917
0.24582039
0.2366626
0.22807216
0.22000915
0.21243642
0.20531614
0.19861418
0.19229873
0.18634151
0.18071629
0.17539829
0.17036567
0.16559796
0.16107482
0.15678224
0.15270595
0.14882947
0.14513987
0.14162556
0.13827572
0.1350803
0.13203003
0.12911637
0.12633141
0.12366784
0.12111887
0.11867825
0.11634012
0.11409908
0.11195008
0.10988838
0.10790957
0.10600959
0.1041844
0.10243082
0.10074558
0.099125199
0.097566938
0.096067571
0.094624698
0.093236123
0.09189951
0.090612659
0.089373526
0.088180206
0.087030882
0.085923843
0.084857483
0.083830278
0.082840807
0.081887615
0.08096948
0.080085222
0.079233691
0.07841371
0.077624207
0.076864442
0.076133393
0.075430083
0.07475369
0.074103518
0.073478806
0.072878828
0.072302891
0.071750353
0.071220612
0.0707131
0.070227279
0.069762637
0.06931869
0.068894981
0.068491069
0.068106541
0.067741004
0.067394126
0.067065559
0.066754976
0.066462074
0.066186571
0.065928202
0.065686722
0.065461903
0.065253537
0.065061423
0.064885382
0.064725242
0.064580879
0.064452135
0.064338891
0.064241053
0.064158531
0.064091248
0.064039166
0.064002273
0.063980637
0.06397481
431.04631
431.04193
431.00358
430.93314
430.82983
430.6936
430.52445
430.32236
430.08726
429.81905
429.51761
429.18279
428.8144
428.41224
427.97607
427.50562
427.00058
426.46062
425.88538
425.27444
424.62736
423.94365
423.22277
422.46415
421.66716
420.83112
419.95533
419.03891
418.08125
417.08096
416.03811
414.94972
413.81832
412.63685
411.41334
410.13416
408.8125
407.43362
406.00235
404.52385
402.97254
401.38634
399.71894
398.00257
396.22997
394.36467
392.47152
390.4845
388.41798
386.3213
384.11136
381.81948
379.49415
377.06064
374.52661
371.94063
369.26419
366.481
363.62803
360.6801
357.62124
354.48061
351.26071
347.9302
344.48554
340.94096
337.3086
333.59203
329.73892
325.78717
321.7553
317.5926
313.32193
308.97114
304.52856
299.97441
295.30792
290.56105
285.70784
280.73736
275.69035
270.56642
265.37319
260.10623
254.76732
249.38062
243.91979
238.4334
232.92152
227.36194
221.80526
216.241
210.67097
205.19082
199.71573
194.24969
188.91077
183.58872
178.27118
173.10449
168.03608
163.03319
158.17463
153.4531
148.8794
144.46599
140.19147
136.10575
132.2016
128.52688
125.13556
121.86977
118.70938
115.6902
112.64069
109.48325
106.23627
102.86183
99.597717
96.598222
93.735507
91.288617
89.557892
87.732926
85.660818
84.011303
82.781064
80.703278
78.151805
76.57913
71.711108
66.337906
65.740219
67.123296
44.673591
11.892425
-0.022082848
-0.040157533
0.025084017
0.07986009
0.13067907
0.1844025
0.22711798
0.26530457
0.29953397
0.32610693
0.34376836
0.3527384
0.35453573
0.3510186
0.34388771
0.33449175
0.32382021
0.31255778
0.30115906
0.2899145
0.27900157
0.26852184
0.25852703
0.24903651
0.24005062
0.23155333
0.2235281
0.21595289
0.20879989
0.20204211
0.19565614
0.18961737
0.18390317
0.17849312
0.17336513
0.16850036
0.16388228
0.15949505
0.15532492
0.15135656
0.14757782
0.14397706
0.14054347
0.13726704
0.13413855
0.13114941
0.12829169
0.12555802
0.12294155
0.12043594
0.11803525
0.11573399
0.11352703
0.11140956
0.1093771
0.10742546
0.10555071
0.10374918
0.10201749
0.10035239
0.098750833
0.097209925
0.095727179
0.09430013
0.092926243
0.091603323
0.090329305
0.089102221
0.087920218
0.086781535
0.085684511
0.084627582
0.083609274
0.082628216
0.081682956
0.080772264
0.079895048
0.079050172
0.078236448
0.077452907
0.07669875
0.075973025
0.07527479
0.074603248
0.073957563
0.073336987
0.072740998
0.072168867
0.071619933
0.0710936
0.070589312
0.07010654
0.069644778
0.06920355
0.068782405
0.068380921
0.067998661
0.067635276
0.067290417
0.066963742
0.066654933
0.06636369
0.066089735
0.06583281
0.065592672
0.065369095
0.06516187
0.064970802
0.064795714
0.064636444
0.064492835
0.064364773
0.06425214
0.064154837
0.064072762
0.064005844
0.063954046
0.06391736
0.063895855
0.063890074
430.9761
430.97123
430.9322
430.86089
430.75654
430.6191
430.44858
430.24493
430.00809
429.73796
429.43441
429.09729
428.72642
428.32158
427.88253
427.40899
426.90067
426.35722
425.77826
425.16337
424.51211
423.82397
423.0984
422.33483
421.5326
420.69102
419.80937
418.88678
417.92256
416.91541
415.86515
414.76918
413.6293
412.4395
411.20621
409.91766
408.58529
407.19504
405.75315
404.26043
402.69785
401.09623
399.41297
397.68463
395.88896
394.01076
392.09906
390.08344
388.00728
385.88426
383.64045
381.33686
378.98395
376.51044
373.95583
371.34054
368.62659
365.81136
362.92246
359.9321
356.83633
353.66726
350.3919
347.01124
343.52742
339.93615
336.25368
332.48472
328.57524
324.56198
320.46898
316.24313
311.91169
307.50244
302.99037
298.35935
293.61557
288.80661
283.87044
278.81651
273.71061
268.51026
263.23096
257.87742
252.45189
246.97616
241.41609
235.85809
230.26281
224.61723
219.01807
213.37545
207.72413
202.20505
196.64789
191.12731
185.75513
180.35345
175.00139
169.82608
164.69497
159.72147
154.98076
150.31246
145.7597
141.24551
137.05521
133.11758
129.19688
125.68492
122.5536
119.49303
116.59951
113.82947
110.94127
107.905
104.93018
101.70272
98.30363
95.17577
91.988088
89.071586
87.451743
86.167625
85.230135
84.327129
83.095674
80.828027
77.304869
74.840119
73.564192
76.659522
42.407023
9.3063775
-0.18993607
-0.19026239
-0.091234695
-0.049769184
0.01152572
0.066182035
0.11375124
0.1600349
0.20167895
0.23713852
0.26731461
0.29120128
0.30812717
0.31832513
0.32267992
0.3223818
0.31862903
0.31246593
0.30472436
0.29603518
0.28685447
0.27750147
0.26819358
0.25907377
0.25023228
0.2417222
0.23357207
0.22579198
0.21838424
0.2113417
0.2046507
0.19829639
0.19226336
0.18653505
0.18109532
0.17592532
0.17101093
0.16633955
0.16189429
0.15766185
0.15362968
0.14978622
0.14612051
0.14262221
0.1392817
0.13609005
0.13303891
0.1301205
0.12732757
0.12465335
0.12209154
0.11963625
0.11728199
0.1150236
0.11285628
0.11077554
0.10877716
0.10685719
0.1050119
0.10323798
0.10153183
0.099890254
0.098310762
0.096790577
0.095327318
0.093918435
0.092561599
0.091254681
0.089995685
0.088782716
0.087613979
0.086487775
0.085402495
0.084356613
0.083348687
0.082377338
0.081441371
0.08053958
0.079670687
0.078833629
0.078027362
0.077250925
0.076503375
0.075783775
0.075091358
0.074425315
0.073784905
0.07316943
0.072578193
0.072010566
0.071465876
0.070943553
0.070443057
0.069963869
0.069505493
0.069067463
0.068649336
0.068250693
0.067871128
0.067510279
0.067167798
0.066843354
0.066536635
0.066247348
0.065975222
0.06572
0.065481443
0.065259326
0.065053445
0.064863611
0.064689649
0.064531398
0.064388706
0.064261452
0.064149542
0.064052852
0.063971295
0.063904811
0.063853341
0.063816904
0.063795546
0.063789813
430.89743
430.892
430.85219
430.77988
430.67434
430.53553
430.36343
430.15801
429.91919
429.64687
429.34093
429.0012
428.6275
428.21961
427.77728
427.30025
426.78819
426.24076
425.65757
425.03819
424.38217
423.689
422.95811
422.1889
421.38073
420.53286
419.64457
418.71497
417.7433
416.72836
415.66971
414.56511
413.41568
412.21631
410.97213
409.67271
408.32836
406.92514
405.47093
403.96255
402.38638
400.76809
399.06663
397.32328
395.5039
393.60918
391.67531
389.63183
387.53985
385.38544
383.11097
380.78784
378.40044
375.88901
373.30651
370.65842
367.90029
365.04915
362.12029
359.08164
355.94358
352.73898
349.40222
345.96597
342.43351
338.79034
335.05766
331.21924
327.24025
323.16396
319.00261
314.70804
310.30962
305.82396
301.22497
296.51007
291.67809
286.79411
281.76699
276.62862
271.45188
266.14591
260.76958
255.31007
249.7739
244.2104
238.54672
232.91952
227.21675
221.46378
215.82256
210.06645
204.34523
198.76786
193.05183
187.46562
182.09065
176.60078
171.26423
166.1273
160.97157
155.87535
151.138
146.58613
142.07846
137.65347
133.41862
129.45389
125.70161
122.38642
119.53063
116.62075
113.85229
111.5399
109.22125
106.34871
103.45115
99.852231
95.995985
93.250904
89.802466
86.899594
88.206292
86.654733
86.235769
85.530623
83.213126
81.227239
85.032024
69.100686
30.289116
2.6909411
-0.30163055
-0.27239534
-0.2112566
-0.17687216
-0.10787982
-0.052274299
0.0020465928
0.051525762
0.097073584
0.13967103
0.17745028
0.21019395
0.23786357
0.26000338
0.27646107
0.28746237
0.29358973
0.2956539
0.29451856
0.29097834
0.28572012
0.27929943
0.27213974
0.26456009
0.25679461
0.24900982
0.24132145
0.2338073
0.22651905
0.21948486
0.21272457
0.20624758
0.20005183
0.19413061
0.18847853
0.18308786
0.17794629
0.17304295
0.16836796
0.16390779
0.15965231
0.15559012
0.1517115
0.1480078
0.14446858
0.14108499
0.13784885
0.13475237
0.13178819
0.12894939
0.12622947
0.12362233
0.12112224
0.11872384
0.11642207
0.1142122
0.11208982
0.11005075
0.10809104
0.10620703
0.10439518
0.10265237
0.10097508
0.099360611
0.097806435
0.096309936
0.094868792
0.093480638
0.092143248
0.090854584
0.089612732
0.088415877
0.087262294
0.086150347
0.085078488
0.084045249
0.083049249
0.08208916
0.081163854
0.080272095
0.079412665
0.078584554
0.07778676
0.077018369
0.076278341
0.075565898
0.074880246
0.074220606
0.073586305
0.072976641
0.072390832
0.071828283
0.071288425
0.070770693
0.070274545
0.069799468
0.069344981
0.068910626
0.068495967
0.068100595
0.067724118
0.067366175
0.067026425
0.066704544
0.066400227
0.066113189
0.065843166
0.065589901
0.065353156
0.065132715
0.064928382
0.064739968
0.064567303
0.064410219
0.064268591
0.064142281
0.064031183
0.063935204
0.063854251
0.06378825
0.063737171
0.063701004
0.063679812
0.06367413
430.81086
430.8048
430.76411
430.69068
430.58381
430.44345
430.26959
430.06218
429.82115
429.54639
429.23776
428.89511
428.51825
428.10695
427.66097
427.18002
426.66378
426.1119
425.52398
424.89959
424.23826
423.53946
422.80262
422.02713
421.21231
420.35743
419.46172
418.5243
417.54434
416.52068
415.45271
414.33842
413.17841
411.96831
410.71199
409.40054
408.04256
406.62529
405.15668
403.63128
402.03992
400.40211
398.6822
396.91941
395.07519
393.1627
391.2008
389.12962
387.0189
384.82593
382.52071
380.17787
377.74346
375.19519
372.58253
369.89337
367.08945
364.19329
361.21819
358.13441
354.94942
351.68806
348.2903
344.79207
341.21604
337.50998
333.70567
329.78871
325.7412
321.59893
317.35758
312.98663
308.5099
303.9268
299.23165
294.4277
289.49881
284.53179
279.39903
274.17089
268.90239
263.45887
257.9709
252.39132
246.74532
241.08839
235.30185
229.61422
223.77285
217.89396
212.19506
206.23131
200.42862
194.83217
188.98997
183.36867
177.93899
172.36857
167.01671
161.8933
156.71535
151.55436
146.78004
142.1481
137.60718
133.48701
129.35997
125.2728
121.59835
118.22549
115.61652
113.27975
110.75787
108.93861
107.62037
104.65109
102.43615
98.130288
93.425187
89.761904
87.463425
73.753296
65.039279
62.704139
64.162873
59.036097
41.315106
21.541859
5.264704
-0.35644958
-0.2839326
-0.28385059
-0.28598456
-0.25389413
-0.20287958
-0.1572399
-0.10391634
-0.053429419
-0.0050264182
0.04051762
0.082468034
0.12096748
0.15545986
0.18561812
0.21121626
0.23206059
0.24814596
0.25966109
0.26703518
0.27085103
0.27174272
0.27032046
0.26714619
0.26268719
0.25732679
0.25136916
0.24504802
0.23853898
0.23197239
0.2254419
0.21901564
0.21273796
0.20664298
0.20074928
0.19506609
0.18960125
0.18435451
0.17932023
0.1744963
0.16987856
0.16545728
0.1612255
0.15717519
0.15329849
0.14958865
0.1460362
0.14263445
0.13937624
0.13625451
0.13326254
0.13039402
0.12764292
0.12500354
0.12247049
0.12003865
0.11770321
0.11545962
0.11330354
0.111231
0.10923823
0.10732151
0.1054775
0.10370281
0.10199464
0.10034975
0.098765459
0.097239533
0.095769462
0.09435297
0.092988044
0.091672417
0.090404173
0.089181507
0.088002689
0.086866075
0.085770104
0.084713295
0.083694244
0.082711629
0.081764193
0.08085079
0.07997027
0.079121491
0.078303418
0.077515117
0.076755691
0.07602421
0.075319833
0.074641836
0.07398947
0.073362054
0.072758833
0.072179103
0.071622251
0.071087831
0.070575269
0.070084017
0.069613573
0.069163468
0.068733254
0.068322504
0.067930818
0.067557816
0.067203145
0.066866473
0.066547481
0.066245874
0.065961368
0.065693716
0.065442656
0.065207955
0.064989403
0.064786818
0.064600006
0.064428796
0.064273052
0.064132604
0.064007364
0.063897196
0.063802009
0.063721729
0.063656281
0.06360563
0.06356977
0.063548762
0.063543138
430.71699
430.71024
430.66859
430.59392
430.48558
430.34351
430.1677
429.9581
429.71462
429.43716
429.12557
428.7797
428.39935
427.98429
427.53428
427.04901
426.52816
425.97137
425.37825
424.74833
424.08114
423.37615
422.63276
421.85034
421.02821
420.16561
419.26174
418.31571
417.32663
416.29337
415.21517
414.0902
412.91859
411.69661
410.42709
409.10221
407.72945
406.2965
404.81213
403.26792
401.65971
400.0006
398.26004
396.47556
394.60491
392.67106
390.67879
388.57949
386.44181
384.21114
381.87303
379.50272
377.01858
374.4305
371.78745
369.04536
366.19192
363.24963
360.22522
357.08587
353.84874
350.51796
347.06387
343.50365
339.86241
336.08578
332.20384
328.20279
324.08673
319.8688
315.52911
311.07285
306.50696
301.8152
297.01675
292.11492
287.08433
282.02164
276.76456
271.43276
266.03503
260.43946
254.85811
249.14763
243.38223
237.6078
231.67696
225.9055
219.87286
213.87029
208.0988
201.95172
196.05351
190.342
184.3816
178.84965
173.33894
167.60561
162.27175
157.05843
151.76401
146.64998
141.83746
137.06255
132.44331
128.6286
124.77776
120.60032
116.89668
113.65514
110.7728
108.43822
106.73617
105.65799
106.29135
104.77005
101.08255
93.411381
63.667885
29.811243
4.3729072
-0.46894033
-0.49371508
-0.48129819
-0.470628
-0.42572254
-0.36281515
-0.32635077
-0.35195114
-0.3473598
-0.31552973
-0.27756103
-0.25745843
-0.22542231
-0.18578616
-0.14349096
-0.098153626
-0.053249252
-0.0099379961
0.031005538
0.069095487
0.10411292
0.13564684
0.1634423
0.18727584
0.20703259
0.22273533
0.23454587
0.24279755
0.24791966
0.2503802
0.25066401
0.24921781
0.24643299
0.24265097
0.23815129
0.23315645
0.22784181
0.22234256
0.21676468
0.21118307
0.20565613
0.20022722
0.19492206
0.18976299
0.18476397
0.17993104
0.1752691
0.17077913
0.16645826
0.16230413
0.15831461
0.154483
0.1508051
0.14727413
0.14388432
0.1406306
0.13750737
0.13450892
0.13162978
0.12886468
0.12620854
0.12365649
0.12120387
0.11884623
0.11657933
0.11439917
0.11230174
0.1102835