/*--------------------------------*- C++ -*----------------------------------*\
| =========                 |                                                 |
| \\      /  F ield         | OpenFOAM: The Open Source CFD Toolbox           |
|  \\    /   O peration     | Version:  2106                                  |
|   \\  /    A nd           | Website:  www.openfoam.com                      |
|    \\/     M anipulation  |                                                 |
\*---------------------------------------------------------------------------*/
FoamFile
{
    version     2.0;
    format      ascii;
    arch        "LSB;label=32;scalar=64";
    class       volVectorField;
    location    "0.095";
    object      U_0;
}
// * * * * * * * * * * * * * * * * * * * * * * * * * * * * * * * * * * * * * //

dimensions      [0 1 -1 0 0 0 0];

internalField   nonuniform List<vector> 
32768
(
(0.0014061195 -0.0015357387 0)
(0.0051999595 -0.0017539083 0)
(0.0092878767 -0.0017970172 0)
(0.013432524 -0.0018201684 0)
(0.017583214 -0.0018297167 0)
(0.021748044 -0.0018360885 0)
(0.025927678 -0.001843137 0)
(0.03012301 -0.0018514811 0)
(0.034336519 -0.0018614991 0)
(0.038571582 -0.0018738394 0)
(0.042836287 -0.0018959713 0)
(0.047131452 -0.0019245543 0)
(0.051458715 -0.0019567982 0)
(0.055820002 -0.0019912018 0)
(0.060217468 -0.0020270117 0)
(0.064653536 -0.0020638651 0)
(0.069130793 -0.0021016071 0)
(0.073651959 -0.0021401986 0)
(0.078219874 -0.0021796723 0)
(0.08283748 -0.0022201014 0)
(0.087507807 -0.0022615821 0)
(0.092233966 -0.0023042207 0)
(0.097019145 -0.0023481303 0)
(0.10186659 -0.0023934144 0)
(0.10677965 -0.0024401996 0)
(0.11176164 -0.0024885294 0)
(0.11681623 -0.0025386561 0)
(0.12194634 -0.002590265 0)
(0.12715694 -0.002644393 0)
(0.13244842 -0.0026989533 0)
(0.13783123 -0.0027585297 0)
(0.14329554 -0.0028143485 0)
(0.14886965 -0.0028823392 0)
(0.15451599 -0.0029363935 0)
(0.16030099 -0.0030154438 0)
(0.1661442 -0.0030689099 0)
(0.17214685 -0.0031516224 0)
(0.17822208 -0.0032224273 0)
(0.18442943 -0.0032809098 0)
(0.19077471 -0.0034004417 0)
(0.19720228 -0.0034139966 0)
(0.20380984 -0.0035697936 0)
(0.2105007 -0.0036103738 0)
(0.2173777 -0.0036758626 0)
(0.2243435 -0.0038483165 0)
(0.23148614 -0.0038553368 0)
(0.23879928 -0.0039587481 0)
(0.24617388 -0.0041318022 0)
(0.25378971 -0.0041581934 0)
(0.26157301 -0.0042451888 0)
(0.2694042 -0.0044108342 0)
(0.27748156 -0.0044939368 0)
(0.28577727 -0.004581818 0)
(0.29413322 -0.0046986696 0)
(0.30266188 -0.0048021411 0)
(0.31144756 -0.0049304621 0)
(0.32039681 -0.0050678754 0)
(0.32946605 -0.0051468083 0)
(0.3387038 -0.005223691 0)
(0.34816107 -0.0053856399 0)
(0.35783582 -0.0055481836 0)
(0.36766128 -0.0056357644 0)
(0.37762976 -0.0057110967 0)
(0.38778905 -0.0058378701 0)
(0.39815335 -0.0059862184 0)
(0.40872801 -0.0061105458 0)
(0.41946815 -0.0062246686 0)
(0.43032955 -0.0063379942 0)
(0.4413841 -0.0064472683 0)
(0.45267879 -0.0065584348 0)
(0.46413846 -0.0066699589 0)
(0.475715 -0.0067845733 0)
(0.4874452 -0.0069049955 0)
(0.49936635 -0.0070244597 0)
(0.51148106 -0.0071414421 0)
(0.52376148 -0.0072517957 0)
(0.53617111 -0.0073399056 0)
(0.54870321 -0.0074107445 0)
(0.56138223 -0.0074977474 0)
(0.57423151 -0.0076071268 0)
(0.58723703 -0.0077181657 0)
(0.60033139 -0.0078081109 0)
(0.61344141 -0.0078658535 0)
(0.62654457 -0.0079072085 0)
(0.6397344 -0.0079543641 0)
(0.653149 -0.008026841 0)
(0.66682146 -0.0081136701 0)
(0.68064419 -0.0081698486 0)
(0.69441508 -0.008176527 0)
(0.70797472 -0.0081475351 0)
(0.72131312 -0.0081071565 0)
(0.73454163 -0.0080814808 0)
(0.74780927 -0.0080929476 0)
(0.76121483 -0.0081330715 0)
(0.77478196 -0.0081541634 0)
(0.78844182 -0.0081356945 0)
(0.8020151 -0.008083281 0)
(0.815352 -0.0079723774 0)
(0.82841964 -0.0078052072 0)
(0.84123087 -0.0076315534 0)
(0.85380773 -0.0074705408 0)
(0.86613302 -0.0072968109 0)
(0.87809328 -0.0070708985 0)
(0.88954298 -0.0067840006 0)
(0.9004579 -0.0065111745 0)
(0.91109367 -0.0063606963 0)
(0.92185009 -0.006387684 0)
(0.93291141 -0.0064661985 0)
(0.94404539 -0.0062962354 0)
(0.9547319 -0.0057130029 0)
(0.96444379 -0.0048484864 0)
(0.97252103 -0.0040349764 0)
(0.9786342 -0.0034909315 0)
(0.98345481 -0.0031480004 0)
(0.98757044 -0.0028977297 0)
(0.99200172 -0.0027125479 0)
(0.99743242 -0.0021533124 0)
(1.0034496 -0.00015407307 0)
(1.0065685 0.0018047192 0)
(1.0071659 0.0023823057 0)
(1.0064538 0.0022239753 0)
(1.0045981 0.0018933341 0)
(1.0021769 0.0015973792 0)
(0.99920783 0.0014284569 0)
(0.99593285 0.0015234262 0)
(0.99290815 0.0014755786 0)
(0.99110562 0.00039139307 0)
(0.99162905 -0.000574197 0)
(0.99365222 -0.0014103105 0)
(0.99713983 -0.0022127061 0)
(1.0018098 -0.0029313327 0)
(1.0071684 -0.0035929096 0)
(1.0126695 -0.0042961214 0)
(1.0179138 -0.0050538322 0)
(1.0229813 -0.0058065383 0)
(1.028594 -0.0065368094 0)
(1.0359284 -0.0073438513 0)
(1.0462912 -0.0084698081 0)
(1.0603621 -0.0098850056 0)
(1.0764525 -0.011924099 0)
(1.0911874 -0.017251302 0)
(1.1040534 -0.020790553 0)
(1.0843749 -0.012798615 0)
(0.97479896 -0.010482769 0)
(0.99186757 0.072204639 0)
(0.62477058 0.097607447 0)
(0.45520587 0.06849374 0)
(0.37083762 0.039000101 0)
(0.30451896 0.023684278 0)
(0.26054873 0.015923532 0)
(0.22872165 0.011597249 0)
(0.20424598 0.0089508042 0)
(0.18461436 0.0071992719 0)
(0.16837754 0.0059516457 0)
(0.15464366 0.0050233243 0)
(0.14282469 0.0043100002 0)
(0.13251548 0.0037464736 0)
(0.1234255 0.0032912173 0)
(0.11533895 0.002916881 0)
(0.10809186 0.0026038455 0)
(0.10154521 0.0023603731 0)
(0.095630327 0.0019969383 0)
(0.090245974 0.0018941716 0)
(0.085303835 0.0017434156 0)
(0.080762337 0.0016066806 0)
(0.076580114 0.0013640132 0)
(0.072702383 0.0013251669 0)
(0.06912463 0.0012476393 0)
(0.065803976 0.00115641 0)
(0.062701949 0.0011581184 0)
(0.059802166 0.0010181865 0)
(0.057092003 0.00093019651 0)
(0.054554866 0.00086349159 0)
(0.052171078 0.00080729788 0)
(0.049929309 0.00075657641 0)
(0.047817842 0.00071016464 0)
(0.045825898 0.00066754698 0)
(0.043944127 0.00062831297 0)
(0.042164222 0.00059214728 0)
(0.040478649 0.00055876968 0)
(0.038880554 0.00052792012 0)
(0.037363698 0.00049936362 0)
(0.035922394 0.00047288819 0)
(0.034551456 0.00044830109 0)
(0.033246057 0.00042542235 0)
(0.032002234 0.00040411649 0)
(0.030814014 0.00038504497 0)
(0.029682078 0.00040131672 0)
(0.028602445 0.00035431573 0)
(0.0275679 0.00033328155 0)
(0.026577308 0.00031725989 0)
(0.025628259 0.0003028134 0)
(0.024718692 0.00028936712 0)
(0.023846341 0.00027676714 0)
(0.02300907 0.00026491441 0)
(0.022204949 0.0002537515 0)
(0.021432172 0.00024325065 0)
(0.020688841 0.00023341583 0)
(0.019973375 0.00022405428 0)
(0.019284496 0.00021518822 0)
(0.018620767 0.00020683197 0)
(0.017980919 0.00019900442 0)
(0.017362956 0.00019253527 0)
(0.016768024 0.00020375218 0)
(0.016194113 0.00018041593 0)
(0.015638066 0.00017183833 0)
(0.015100271 0.00016549945 0)
(0.014579878 0.00015972176 0)
(0.01407622 0.00015427758 0)
(0.013588501 0.00014911736 0)
(0.013115954 0.0001442153 0)
(0.012657782 0.00013949071 0)
(0.012213716 0.0001341704 0)
(0.011781808 0.00011720122 0)
(0.011362403 0.00012423606 0)
(0.010954597 0.00011038169 0)
(0.010557605 0.0001180819 0)
(0.010172101 0.00011635328 0)
(0.0097965858 0.00011392297 0)
(0.0094328567 0.00011093108 0)
(0.0090784253 0.00010783127 0)
(0.0087303416 0.00011305034 0)
(0.0083907821 0.00010159327 0)
(0.0080601977 9.8652056e-05 0)
(0.0077373798 9.6422985e-05 0)
(0.0074216323 9.4226176e-05 0)
(0.0071127595 9.2090006e-05 0)
(0.0068104875 9.0040881e-05 0)
(0.0065145092 8.8081917e-05 0)
(0.0062244816 8.6174215e-05 0)
(0.0059402392 8.3893585e-05 0)
(0.005660935 7.6269705e-05 0)
(0.0053866341 8.0475319e-05 0)
(0.0051175154 7.9679028e-05 0)
(0.0048528385 7.8382688e-05 0)
(0.0045924415 7.7122846e-05 0)
(0.0043359662 7.6252025e-05 0)
(0.0040836643 7.9284665e-05 0)
(0.0038349805 7.4053895e-05 0)
(0.0035893045 7.2495426e-05 0)
(0.0033467954 7.1252935e-05 0)
(0.0031065764 7.0277527e-05 0)
(0.0028690329 6.9559831e-05 0)
(0.0026345074 6.9110402e-05 0)
(0.0024021505 6.8817871e-05 0)
(0.0021717678 7.0597129e-05 0)
(0.0019431723 6.7743375e-05 0)
(0.0017163773 6.5241285e-05 0)
(0.0014910033 6.6686644e-05 0)
(0.0012667018 6.7732783e-05 0)
(0.0010434126 6.6081498e-05 0)
(0.00082085682 6.5667207e-05 0)
(0.00060035218 6.4938597e-05 0)
(0.00038628186 6.2814857e-05 0)
(0.00018531574 5.5247553e-05 0)
(3.7309694e-05 3.7044678e-05 0)
(0.0014182552 -0.0050243644 0)
(0.0056707935 -0.0062312123 0)
(0.010334522 -0.0064266437 0)
(0.014978337 -0.0064810943 0)
(0.019641218 -0.0065037403 0)
(0.024315648 -0.0065221778 0)
(0.029002648 -0.0065434981 0)
(0.033704616 -0.0065688854 0)
(0.038423698 -0.0065987722 0)
(0.043163549 -0.0066345662 0)
(0.047919801 -0.006668732 0)
(0.052695441 -0.0067022378 0)
(0.057494833 -0.0067372749 0)
(0.062321866 -0.0067750921 0)
(0.067180136 -0.0068164649 0)
(0.07207307 -0.0068619141 0)
(0.077003999 -0.0069117782 0)
(0.081976213 -0.0069662749 0)
(0.086992992 -0.0070255505 0)
(0.092057613 -0.0070897051 0)
(0.097173365 -0.0071588107 0)
(0.10234355 -0.0072329217 0)
(0.1075715 -0.0073120941 0)
(0.11286051 -0.0073963548 0)
(0.11821417 -0.0074858023 0)
(0.12363532 -0.0075803207 0)
(0.12912903 -0.0076803963 0)
(0.13469456 -0.0077848528 0)
(0.14034613 -0.007896814 0)
(0.14606187 -0.0080089187 0)
(0.15190262 -0.0081374712 0)
(0.15775072 -0.0082497197 0)
(0.1638509 -0.008403914 0)
(0.16975832 -0.0085131787 0)
(0.17625273 -0.0086702151 0)
(0.18209546 -0.0088632027 0)
(0.18911553 -0.0088265657 0)
(0.19488323 -0.0094304225 0)
(0.20230351 -0.008822132 0)
(0.20835079 -0.010036332 0)
(0.21570912 -0.0091456325 0)
(0.22249384 -0.010035321 0)
(0.22958872 -0.01014981 0)
(0.23706543 -0.0098406185 0)
(0.24415939 -0.010656611 0)
(0.25199387 -0.010605123 0)
(0.25957085 -0.010583744 0)
(0.26721301 -0.011173323 0)
(0.27558145 -0.011224161 0)
(0.28355748 -0.011316298 0)
(0.29159264 -0.011783318 0)
(0.30041938 -0.011834569 0)
(0.30906557 -0.012084278 0)
(0.31757377 -0.012400476 0)
(0.32658314 -0.012588999 0)
(0.33590267 -0.01278657 0)
(0.34519397 -0.013083285 0)
(0.35458105 -0.01330903 0)
(0.36417487 -0.013518812 0)
(0.37406867 -0.013856814 0)
(0.38419049 -0.01405557 0)
(0.3943515 -0.014250358 0)
(0.40470626 -0.014514711 0)
(0.41524206 -0.01480509 0)
(0.42595982 -0.015121023 0)
(0.4369903 -0.015287547 0)
(0.44809495 -0.015446883 0)
(0.45926452 -0.015744425 0)
(0.47079663 -0.016058303 0)
(0.48257367 -0.016290048 0)
(0.49435619 -0.016480326 0)
(0.50622671 -0.016683425 0)
(0.51832161 -0.01689995 0)
(0.5306758 -0.017135773 0)
(0.54327204 -0.017367629 0)
(0.55600629 -0.01757467 0)
(0.56881289 -0.017761452 0)
(0.58172965 -0.017948567 0)
(0.59481647 -0.018185323 0)
(0.60811393 -0.018422843 0)
(0.62158903 -0.018535557 0)
(0.63510354 -0.018534114 0)
(0.64858188 -0.018487076 0)
(0.66201603 -0.018523373 0)
(0.67574317 -0.018837341 0)
(0.6898768 -0.019236566 0)
(0.70435293 -0.019533351 0)
(0.71885725 -0.01958441 0)
(0.73302919 -0.019311995 0)
(0.74681709 -0.018909309 0)
(0.76041397 -0.018652221 0)
(0.77407448 -0.018610666 0)
(0.78805651 -0.018730367 0)
(0.80237966 -0.018985893 0)
(0.81701878 -0.019247742 0)
(0.83172875 -0.019219855 0)
(0.84612382 -0.018945704 0)
(0.86018492 -0.01861013 0)
(0.87400254 -0.018249599 0)
(0.88764569 -0.017942979 0)
(0.90124298 -0.017629211 0)
(0.91469876 -0.017140859 0)
(0.92768128 -0.016465296 0)
(0.93989918 -0.015734857 0)
(0.95146216 -0.01523986 0)
(0.96325606 -0.015292401 0)
(0.97600184 -0.015572618 0)
(0.98972573 -0.015843353 0)
(1.0036149 -0.015604434 0)
(1.0167048 -0.014793482 0)
(1.0281279 -0.012953939 0)
(1.0373697 -0.010224797 0)
(1.0442626 -0.0074087082 0)
(1.0493422 -0.0056618974 0)
(1.0540899 -0.005878505 0)
(1.0600845 -0.0077162649 0)
(1.0681262 -0.0093850055 0)
(1.0781544 -0.0088749652 0)
(1.0889046 -0.0060722762 0)
(1.0980806 -0.002440869 0)
(1.1034618 0.00052839706 0)
(1.1049966 0.0025461321 0)
(1.1036665 0.0039601647 0)
(1.1010101 0.0049089279 0)
(1.0980517 0.0049089825 0)
(1.0958301 0.003471364 0)
(1.0951517 0.00087752544 0)
(1.0966262 -0.0018314848 0)
(1.0999478 -0.0040835014 0)
(1.1046265 -0.0058801091 0)
(1.1099247 -0.0071941727 0)
(1.1146838 -0.0075192107 0)
(1.1181907 -0.0067477106 0)
(1.1200988 -0.0054425137 0)
(1.1215802 -0.0050254718 0)
(1.124747 -0.0067944805 0)
(1.132082 -0.010773009 0)
(1.1447801 -0.015677405 0)
(1.1597226 -0.021549667 0)
(1.1668769 -0.027354119 0)
(1.1577979 -0.020248853 0)
(1.1134926 0.0023173851 0)
(1.0048706 0.013811765 0)
(1.0714448 0.31769867 0)
(0.80457085 0.32086889 0)
(0.58744287 0.28015965 0)
(0.52296555 0.1910592 0)
(0.45576786 0.11966769 0)
(0.39939781 0.08013937 0)
(0.35487871 0.057651331 0)
(0.31889609 0.043948621 0)
(0.28938209 0.034989781 0)
(0.26472445 0.028752953 0)
(0.2437705 0.024207159 0)
(0.22571642 0.020759437 0)
(0.20996005 0.018057662 0)
(0.19605783 0.015886739 0)
(0.18367905 0.014107942 0)
(0.1725748 0.012626337 0)
(0.16254511 0.011377153 0)
(0.15344404 0.010311382 0)
(0.14514072 0.0093933861 0)
(0.13750315 0.0085982953 0)
(0.13048751 0.0078941469 0)
(0.12401758 0.0072463524 0)
(0.11801941 0.0068127141 0)
(0.11245284 0.0062778712 0)
(0.1072712 0.0057054331 0)
(0.10241629 0.0053772698 0)
(0.097884297 0.0049427445 0)
(0.093630747 0.0046811683 0)
(0.089638032 0.0044006934 0)
(0.085887366 0.0041402307 0)
(0.082350427 0.0038945453 0)
(0.079010046 0.0036680691 0)
(0.075851554 0.0034609266 0)
(0.072861141 0.0032702656 0)
(0.070026286 0.003094032 0)
(0.067335786 0.002930839 0)
(0.064779462 0.0027794848 0)
(0.062348024 0.0026388964 0)
(0.060032983 0.0025081242 0)
(0.057826555 0.00238632 0)
(0.055721606 0.0022727252 0)
(0.053711462 0.0021666925 0)
(0.051790339 0.0020677314 0)
(0.049951014 0.001976907 0)
(0.048194 0.0018459301 0)
(0.046512463 0.0017956122 0)
(0.044897421 0.001726375 0)
(0.043347201 0.0016552983 0)
(0.041858712 0.0015870867 0)
(0.040428709 0.0015225673 0)
(0.039053873 0.0014617184 0)
(0.037731184 0.001404206 0)
(0.036457967 0.0013497967 0)
(0.035231779 0.001298409 0)
(0.034049664 0.0012501775 0)
(0.032909365 0.0012040932 0)
(0.031809286 0.0011602758 0)
(0.030747231 0.0011188922 0)
(0.0297212 0.0010798555 0)
(0.02872884 0.0010423422 0)
(0.027771307 0.00098390676 0)
(0.026845353 0.00096916398 0)
(0.025947028 0.00094079094 0)
(0.025076601 0.00091078667 0)
(0.024233032 0.00088171213 0)
(0.023415171 0.00085394946 0)
(0.022621824 0.0008275017 0)
(0.021851854 0.00080231321 0)
(0.021104125 0.00077827626 0)
(0.020377679 0.00075594956 0)
(0.019670966 0.00074939472 0)
(0.018983755 0.00071595068 0)
(0.018314326 0.0007088116 0)
(0.017662361 0.00067720148 0)
(0.017028165 0.00065750667 0)
(0.016410276 0.00064021793 0)
(0.015805925 0.00061280256 0)
(0.015214964 0.00060696522 0)
(0.014642442 0.00059198554 0)
(0.014083786 0.00057856956 0)
(0.013534651 0.0005657947 0)
(0.01299744 0.00055324729 0)
(0.012471893 0.00054111628 0)
(0.011957456 0.00052950683 0)
(0.011453532 0.00051844655 0)
(0.010959585 0.0005079281 0)
(0.010475078 0.00049794758 0)
(0.0099995132 0.0004889877 0)
(0.0095323447 0.0004871904 0)
(0.009073227 0.0004720346 0)
(0.0086217968 0.00046322191 0)
(0.0081775911 0.00045567107 0)
(0.0077401936 0.00044859756 0)
(0.00730916 0.00044148907 0)
(0.0068845955 0.00043000179 0)
(0.0064656904 0.00042901558 0)
(0.0060515923 0.00042406358 0)
(0.005642318 0.00041906711 0)
(0.0052382442 0.00041781581 0)
(0.0048385264 0.00040997743 0)
(0.004442138 0.00040573088 0)
(0.0040494028 0.00040189577 0)
(0.003660053 0.00039617836 0)
(0.0032737276 0.00039580484 0)
(0.0028896468 0.00039351635 0)
(0.0025078666 0.00039109721 0)
(0.0021285427 0.00038737682 0)
(0.0017509487 0.0003871218 0)
(0.0013753677 0.00038563154 0)
(0.0010037115 0.00037760384 0)
(0.00064330888 0.00035767673 0)
(0.00030856341 0.00030684444 0)
(5.6009525e-05 0.0001856734 0)
(0.0014193625 -0.0085402899 0)
(0.005656683 -0.010722218 0)
(0.010289035 -0.011052623 0)
(0.014910991 -0.011120819 0)
(0.019552729 -0.011151719 0)
(0.02420504 -0.011181186 0)
(0.028869133 -0.011215758 0)
(0.033547582 -0.011256752 0)
(0.038242784 -0.011304543 0)
(0.042957065 -0.011358976 0)
(0.047693544 -0.011420598 0)
(0.052455638 -0.011489973 0)
(0.057245996 -0.011567234 0)
(0.062067199 -0.01165239 0)
(0.066921941 -0.011745427 0)
(0.071813048 -0.011846338 0)
(0.076743421 -0.011955125 0)
(0.081716013 -0.012071799 0)
(0.086733821 -0.012196405 0)
(0.091799892 -0.012329 0)
(0.096917303 -0.012469658 0)
(0.10208919 -0.01261847 0)
(0.10731871 -0.012775539 0)
(0.11260903 -0.012940979 0)
(0.11796367 -0.013114919 0)
(0.1233852 -0.013297471 0)
(0.1288791 -0.013488797 0)
(0.13444322 -0.013688955 0)
(0.14009528 -0.013898189 0)
(0.14580425 -0.014116528 0)
(0.15165335 -0.014343684 0)
(0.15747246 -0.014582031 0)
(0.16362173 -0.014823379 0)
(0.16941896 -0.015092 0)
(0.17609404 -0.01532551 0)
(0.18162906 -0.01567134 0)
(0.1890635 -0.015807876 0)
(0.19431308 -0.01639051 0)
(0.20221898 -0.016185607 0)
(0.20790223 -0.017303178 0)
(0.21537706 -0.016543939 0)
(0.22219378 -0.018055437 0)
(0.22921611 -0.017507805 0)
(0.23664117 -0.018053559 0)
(0.24374957 -0.018993095 0)
(0.25173049 -0.018536616 0)
(0.25897706 -0.019182828 0)
(0.26672895 -0.020115785 0)
(0.27527975 -0.019882468 0)
(0.28301617 -0.020159496 0)
(0.29097119 -0.021229805 0)
(0.29990044 -0.021392661 0)
(0.30852702 -0.021592224 0)
(0.31708871 -0.022022596 0)
(0.32595071 -0.02271068 0)
(0.33503558 -0.023234778 0)
(0.34449951 -0.023595728 0)
(0.35420343 -0.023702631 0)
(0.36353566 -0.024286635 0)
(0.37299454 -0.025218401 0)
(0.38320463 -0.025487665 0)
(0.39368515 -0.025716468 0)
(0.40413574 -0.026234319 0)
(0.41443643 -0.026784402 0)
(0.42481633 -0.027359528 0)
(0.43581067 -0.02777654 0)
(0.44715047 -0.028136923 0)
(0.45841848 -0.02870995 0)
(0.46983751 -0.029341361 0)
(0.48151806 -0.029676202 0)
(0.49325142 -0.029931282 0)
(0.50502882 -0.030374088 0)
(0.51705051 -0.030908924 0)
(0.52936918 -0.031490183 0)
(0.5419577 -0.032028893 0)
(0.55479682 -0.032374559 0)
(0.56774691 -0.032590424 0)
(0.58068526 -0.032884001 0)
(0.59355442 -0.033397709 0)
(0.60657413 -0.033884383 0)
(0.61983078 -0.034200333 0)
(0.63339681 -0.034266538 0)
(0.64707483 -0.034244453 0)
(0.66080848 -0.034532814 0)
(0.67468871 -0.035269766 0)
(0.68880752 -0.036119712 0)
(0.70320216 -0.036554067 0)
(0.71746563 -0.036293944 0)
(0.73133752 -0.035559576 0)
(0.74494908 -0.034935402 0)
(0.75847659 -0.03476066 0)
(0.77227119 -0.035091871 0)
(0.78660971 -0.035781112 0)
(0.80137592 -0.036533841 0)
(0.81630524 -0.036915591 0)
(0.83111811 -0.03665444 0)
(0.84553151 -0.036002779 0)
(0.85935162 -0.035276308 0)
(0.87260651 -0.034598012 0)
(0.88568753 -0.034197828 0)
(0.89918438 -0.033872825 0)
(0.91316388 -0.033105112 0)
(0.92711751 -0.031667556 0)
(0.94028464 -0.029938358 0)
(0.95235398 -0.02923187 0)
(0.9638912 -0.030311666 0)
(0.97588646 -0.03233189 0)
(0.98895858 -0.033612219 0)
(1.0025029 -0.03277344 0)
(1.0154538 -0.029702914 0)
(1.0268181 -0.025077751 0)
(1.0365881 -0.019837176 0)
(1.0450535 -0.015285153 0)
(1.0526608 -0.012886237 0)
(1.0597497 -0.013458204 0)
(1.0665207 -0.016426518 0)
(1.0735368 -0.019664378 0)
(1.0812729 -0.020575184 0)
(1.0893216 -0.017884909 0)
(1.0962854 -0.012051217 0)
(1.1006532 -0.0049018252 0)
(1.1019779 0.0011573663 0)
(1.1012858 0.0047990107 0)
(1.1002001 0.0061162406 0)
(1.0994996 0.0059088883 0)
(1.0992781 0.0040294808 0)
(1.1006483 -0.00070108451 0)
(1.103756 -0.0059692162 0)
(1.1075923 -0.0099812083 0)
(1.1112859 -0.012454821 0)
(1.1143109 -0.01298331 0)
(1.1161707 -0.011685389 0)
(1.1175806 -0.0096257874 0)
(1.1205798 -0.0087088819 0)
(1.1271659 -0.010857856 0)
(1.138537 -0.016983916 0)
(1.1540981 -0.025934911 0)
(1.1673164 -0.036465603 0)
(1.1714386 -0.041183458 0)
(1.1539464 -0.016366417 0)
(1.0879279 0.022876627 0)
(0.95451178 0.048107217 0)
(0.89747572 0.1531467 0)
(0.66459688 0.41699462 0)
(0.54264818 0.42677667 0)
(0.52209047 0.34591652 0)
(0.49316857 0.24119709 0)
(0.45219471 0.1698922 0)
(0.41051804 0.12505624 0)
(0.37276197 0.095892307 0)
(0.33984723 0.075931947 0)
(0.31143578 0.062318218 0)
(0.28691614 0.052035356 0)
(0.26563161 0.044283456 0)
(0.24698151 0.038278298 0)
(0.23050575 0.033507412 0)
(0.21584428 0.029636005 0)
(0.20270537 0.026438496 0)
(0.19086091 0.023757145 0)
(0.18011468 0.021482071 0)
(0.17033084 0.019523809 0)
(0.16137927 0.017828343 0)
(0.15313117 0.016352506 0)
(0.14552482 0.015052275 0)
(0.13849739 0.013927815 0)
(0.13197438 0.012792701 0)
(0.1259065 0.01191589 0)
(0.12024252 0.011226851 0)
(0.11493781 0.010421229 0)
(0.10997122 0.0098283072 0)
(0.10531289 0.0091749945 0)
(0.10093167 0.0085082595 0)
(0.096792556 0.0080496196 0)
(0.09288943 0.0075986124 0)
(0.089207437 0.0071742542 0)
(0.085721575 0.0067832164 0)
(0.082415671 0.0064215598 0)
(0.079277513 0.006086241 0)
(0.07629563 0.0057750177 0)
(0.073459187 0.0054857753 0)
(0.070758274 0.0052165953 0)
(0.068183845 0.0049657671 0)
(0.065727604 0.0047317461 0)
(0.063381935 0.0045131393 0)
(0.06113996 0.0043087368 0)
(0.058995143 0.0041175437 0)
(0.056942938 0.0039390518 0)
(0.05497517 0.0037655304 0)
(0.053085792 0.003608552 0)
(0.0512749 0.003459542 0)
(0.04953664 0.0033185938 0)
(0.047865963 0.003185543 0)
(0.046259102 0.0030599503 0)
(0.044712528 0.0029414595 0)
(0.043223058 0.0028291786 0)
(0.041788005 0.0027226569 0)
(0.040405227 0.0026219077 0)
(0.039070487 0.0025274825 0)
(0.037781515 0.0024370347 0)
(0.036537698 0.0023508296 0)
(0.035336124 0.002269326 0)
(0.03417449 0.002192274 0)
(0.033051324 0.0021191907 0)
(0.03196303 0.0020468699 0)
(0.030908228 0.0019818126 0)
(0.029887687 0.0019188181 0)
(0.028898517 0.0018584523 0)
(0.02793893 0.0018008294 0)
(0.027007618 0.0017458563 0)
(0.026103402 0.0016934324 0)
(0.025225009 0.0016435138 0)
(0.024371175 0.0015959689 0)
(0.023540217 0.0015506833 0)
(0.022732881 0.0015076878 0)
(0.021947318 0.0014662297 0)
(0.021181713 0.0014282597 0)
(0.020436128 0.0013895557 0)
(0.019708556 0.0013536545 0)
(0.018999003 0.0013200908 0)
(0.018305832 0.0012993003 0)
(0.017628883 0.0012577147 0)
(0.016968616 0.0012146176 0)
(0.016323252 0.0011968817 0)
(0.015691787 0.0011715678 0)
(0.015073655 0.0011460317 0)
(0.014468327 0.0011214933 0)
(0.013875266 0.0010980979 0)
(0.013293889 0.0010758485 0)
(0.012723602 0.0010547205 0)
(0.012163852 0.0010346851 0)
(0.011614 0.0010157372 0)
(0.011074109 0.00099788263 0)
(0.010543391 0.00098074498 0)
(0.010020776 0.00096456713 0)
(0.0095062768 0.00094934714 0)
(0.0089995109 0.00093503449 0)
(0.0085000679 0.00092150682 0)
(0.0080071096 0.00090826404 0)
(0.0075204381 0.00089686656 0)
(0.0070400129 0.00088580034 0)
(0.006565078 0.00087508877 0)
(0.0060955938 0.00086162161 0)
(0.0056309061 0.00085637398 0)
(0.0051702873 0.00084867068 0)
(0.0047136999 0.00084146767 0)
(0.0042608979 0.0008371264 0)
(0.0038114836 0.00082872795 0)
(0.0033647485 0.00082328546 0)
(0.0029206457 0.00081841233 0)
(0.0024790253 0.0008141166 0)
(0.0020395202 0.00081024305 0)
(0.001602675 0.00080411543 0)
(0.0011704427 0.00078884076 0)
(0.00075089614 0.0007470814 0)
(0.00036118951 0.00064265404 0)
(6.3618091e-05 0.0003885392 0)
(0.0014216346 -0.012048508 0)
(0.0056534573 -0.015190772 0)
(0.01027622 -0.01566194 0)
(0.014891649 -0.015757412 0)
(0.019527927 -0.015799984 0)
(0.024174562 -0.015840669 0)
(0.028832517 -0.015888392 0)
(0.033504579 -0.015944928 0)
(0.038193363 -0.016010671 0)
(0.042901491 -0.016085673 0)
(0.047631827 -0.016169725 0)
(0.052387312 -0.016263085 0)
(0.057170726 -0.016365987 0)
(0.061984796 -0.016478564 0)
(0.066832291 -0.016600884 0)
(0.071716033 -0.016733015 0)
(0.076638895 -0.016875055 0)
(0.081603786 -0.017027133 0)
(0.08661367 -0.017189416 0)
(0.091671567 -0.017362092 0)
(0.096780565 -0.017545386 0)
(0.10194378 -0.01773953 0)
(0.10716441 -0.017944757 0)
(0.11244562 -0.018161307 0)
(0.11779094 -0.018389374 0)
(0.12320301 -0.018629234 0)
(0.12868719 -0.018880903 0)
(0.13424178 -0.019145117 0)
(0.13988334 -0.019420516 0)
(0.14558399 -0.019711295 0)
(0.15141917 -0.020007502 0)
(0.15723717 -0.020332894 0)
(0.16335836 -0.020635725 0)
(0.16917849 -0.021022072 0)
(0.17579279 -0.021290068 0)
(0.18137993 -0.02179962 0)
(0.18876011 -0.021944571 0)
(0.19396669 -0.022710205 0)
(0.20205207 -0.022525638 0)
(0.20733164 -0.023842304 0)
(0.21534685 -0.023045127 0)
(0.22163791 -0.024859262 0)
(0.22891599 -0.024281551 0)
(0.23638998 -0.024905902 0)
(0.24330552 -0.026162431 0)
(0.25132543 -0.025730154 0)
(0.25868347 -0.026316658 0)
(0.26639444 -0.02757214 0)
(0.27479686 -0.027690941 0)
(0.28258288 -0.027677523 0)
(0.29071648 -0.028817102 0)
(0.29954384 -0.029604557 0)
(0.30800196 -0.029924599 0)
(0.31660037 -0.030045063 0)
(0.32570442 -0.030833497 0)
(0.33479642 -0.031858394 0)
(0.34391016 -0.032717295 0)
(0.35369166 -0.032550154 0)
(0.36326163 -0.032857971 0)
(0.37268235 -0.034107916 0)
(0.38282678 -0.035044203 0)
(0.39333789 -0.035663077 0)
(0.40372926 -0.035850811 0)
(0.41402808 -0.035999288 0)
(0.424403 -0.036978272 0)
(0.43549079 -0.038171646 0)
(0.44703169 -0.038670915 0)
(0.45832744 -0.039046307 0)
(0.46954932 -0.039766212 0)
(0.4810069 -0.040301429 0)
(0.49273101 -0.040701607 0)
(0.50476284 -0.041224353 0)
(0.51713347 -0.041887939 0)
(0.529584 -0.042711122 0)
(0.54206326 -0.043555324 0)
(0.55469973 -0.04410093 0)
(0.56747182 -0.044309096 0)
(0.58037664 -0.044457793 0)
(0.59329199 -0.044870499 0)
(0.6064288 -0.045473742 0)
(0.61988641 -0.04614434 0)
(0.63377976 -0.046560193 0)
(0.64783085 -0.046710603 0)
(0.66174304 -0.046970618 0)
(0.67548367 -0.047714413 0)
(0.68915888 -0.048619448 0)
(0.70293055 -0.04896335 0)
(0.71680511 -0.048532534 0)
(0.73074787 -0.047592375 0)
(0.74486743 -0.04686598 0)
(0.75924979 -0.046879879 0)
(0.7739389 -0.047688131 0)
(0.78879967 -0.048751402 0)
(0.80347989 -0.049615855 0)
(0.81794348 -0.049890997 0)
(0.83227241 -0.049289804 0)
(0.84618287 -0.04796861 0)
(0.85964961 -0.046469477 0)
(0.87268849 -0.045386665 0)
(0.88549588 -0.045347102 0)
(0.8986865 -0.045806619 0)
(0.91260731 -0.045692326 0)
(0.92735419 -0.044263715 0)
(0.94246605 -0.041732894 0)
(0.95690865 -0.039714613 0)
(0.96995694 -0.039648263 0)
(0.98155852 -0.041451726 0)
(0.99270991 -0.043202317 0)
(1.0042658 -0.042848577 0)
(1.0157079 -0.039748644 0)
(1.0262846 -0.034605838 0)
(1.0358309 -0.028795706 0)
(1.0447629 -0.023634146 0)
(1.053744 -0.020413425 0)
(1.0632189 -0.020008288 0)
(1.0727546 -0.02207263 0)
(1.0814173 -0.024780138 0)
(1.0884169 -0.025423534 0)
(1.0935174 -0.021825971 -3.7703132e-34)
(1.0967184 -0.01432589 -2.0490163e-29)
(1.0981472 -0.0054616011 0)
(1.0984841 0.0016426855 0)
(1.0987756 0.0054476127 0)
(1.09948 0.0063805364 0)
(1.1006497 0.0055132917 0)
(1.1030892 0.0021166151 0)
(1.1072514 -0.0041817641 0)
(1.1110093 -0.0092408485 0)
(1.1136266 -0.011954302 -3.0375326e-34)
(1.1148473 -0.0129384 -1.7675306e-29)
(1.1148515 -0.012920076 -3.3835705e-34)
(1.1158716 -0.011696505 -2.1442874e-29)
(1.1197162 -0.011998347 0)
(1.1274077 -0.015566216 0)
(1.1395956 -0.023094623 0)
(1.1535259 -0.035280987 0)
(1.1617218 -0.047137087 0)
(1.1552588 -0.047275788 0)
(1.1165827 -0.008119739 1.1065778e-33)
(1.0154931 0.039755198 -1.8407858e-29)
(0.85316292 0.090584398 0)
(0.8084293 0.26235894 0)
(0.54377599 0.40756127 0)
(0.43360696 0.48760579 0)
(0.44157251 0.45656665 0)
(0.4547875 0.35580714 0)
(0.445983 0.26687336 0)
(0.4221428 0.20462147 0)
(0.39296662 0.16022579 0)
(0.36354069 0.12820364 0)
(0.33597032 0.10492329 -2.7156733e-33)
(0.31092375 0.087250174 -1.42055e-28)
(0.28853471 0.07406039 0)
(0.26858261 0.063777578 0)
(0.25075588 0.055591894 0)
(0.23477996 0.048959793 0)
(0.22041059 0.043501599 0)
(0.20742951 0.038947359 0)
(0.19565018 0.035096771 0)
(0.18491397 0.0318246 0)
(0.1750893 0.028942551 1.1402782e-33)
(0.1660656 0.026640281 5.9069311e-29)
(0.15775098 0.024409833 0)
(0.15006284 0.022484473 0)
(0.14293308 0.020762356 8.4467073e-34)
(0.13630935 0.019376242 4.4171995e-29)
(0.13012692 0.017965627 0)
(0.12434747 0.016737496 0)
(0.11894088 0.015628358 0)
(0.11386678 0.014643706 0)
(0.10911085 0.01372681 5.7339836e-34)
(0.10463269 0.012990767 3.0296479e-29)
(0.1003896 0.012192858 0)
(0.096382132 0.011478818 0)
(0.092603389 0.010840139 0)
(0.089023961 0.010254709 0)
(0.085625956 0.0097141795 0)
(0.082398397 0.0092137801 0)
(0.079330115 0.0087493832 0)
(0.076410001 0.0083175264 0)
(0.073627926 0.007915319 0)
(0.07097471 0.0075402287 0)
(0.068441976 0.0071899694 0)
(0.066022046 0.0068624651 0)
(0.063707987 0.0065558396 0)
(0.061493162 0.0062683607 0)
(0.059372578 0.005998263 0)
(0.057338035 0.0057418729 0)
(0.055384498 0.0055031279 0)
(0.053510916 0.0052792182 0)
(0.051711586 0.0050677463 0)
(0.049981677 0.0048678547 0)
(0.048317441 0.0046789816 0)
(0.046714749 0.0045009407 0)
(0.045170226 0.0043318222 0)
(0.043681633 0.0041709008 0)
(0.042246859 0.0040181273 0)
(0.040862055 0.0038765842 0)
(0.039524316 0.0037382108 0)
(0.038232493 0.0036081914 0)
(0.036984049 0.003485133 0)
(0.035776574 0.0033681858 0)
(0.034608385 0.0032566253 0)
(0.033476109 0.0031493799 0)
(0.032378593 0.0030490475 0)
(0.031316048 0.0029537565 0)
(0.030285837 0.002862598 0)
(0.029286205 0.0027754305 0)
(0.028315747 0.0026921462 0)
(0.027373272 0.0026126184 0)
(0.02645752 0.0025369425 0)
(0.025567093 0.0024649776 0)
(0.024701023 0.0023961167 -9.1192601e-35)
(0.023857494 0.0023157482 -4.9137548e-30)
(0.023035329 0.0022661652 0)
(0.022236159 0.0022084423 0)
(0.021457823 0.0021512369 0)
(0.020697402 0.0020965713 0)
(0.019954951 0.0020444875 0)
(0.019230965 0.0019948636 0)
(0.018524509 0.0019474015 0)
(0.017832538 0.0019003591 0)
(0.017155471 0.0018586007 0)
(0.016493958 0.0018180111 0)
(0.015846591 0.0017789404 0)
(0.015212501 0.0017415777 0)
(0.014591019 0.0017059506 0)
(0.013981572 0.0016720459 0)
(0.013383603 0.0016398368 0)
(0.012796543 0.0016092894 0)
(0.012219905 0.0015799486 -4.3387002e-35)
(0.011652911 0.0015454937 -2.3130598e-30)
(0.011095175 0.0015259312 0)
(0.010546495 0.0015019864 0)
(0.010006244 0.001478673 0)
(0.0094739277 0.0014566369 0)
(0.0089490854 0.0014358048 0)
(0.0084309404 0.0014161281 0)
(0.0079193328 0.0013981311 0)
(0.0074141809 0.0013812989 0)
(0.0069147779 0.001365468 0)
(0.0064206862 0.0013503165 0)
(0.0059315036 0.0013371209 0)
(0.0054468797 0.0013246655 0)
(0.0049664439 0.0013129757 -1.7646618e-35)