/*--------------------------------*- C++ -*----------------------------------*\
| =========                 |                                                 |
| \\      /  F ield         | OpenFOAM: The Open Source CFD Toolbox           |
|  \\    /   O peration     | Version:  2306                                  |
|   \\  /    A nd           | Website:  www.openfoam.com                      |
|    \\/     M anipulation  |                                                 |
\*---------------------------------------------------------------------------*/
FoamFile
{
    version     2.0;
    format      ascii;
    arch        "LSB;label=32;scalar=64";
    class       surfaceScalarField;
    location    "0.21";
    object      phi_0;
}
// * * * * * * * * * * * * * * * * * * * * * * * * * * * * * * * * * * * * * //

dimensions      [0 3 -1 0 0 0 0];

oriented        oriented;

internalField   nonuniform List<scalar> 
12640
(
-9.6922933e-10
9.6922929e-10
-4.1844374e-09
3.2152079e-09
-9.6544557e-09
5.4700185e-09
-1.7493124e-08
7.8386685e-09
-2.7687957e-08
1.0194833e-08
-4.0182421e-08
1.2494464e-08
-5.4935729e-08
1.4753308e-08
-7.1907929e-08
1.69722e-08
-9.1057274e-08
1.9149344e-08
-1.1233983e-07
2.128256e-08
-1.3570871e-07
2.3368874e-08
-1.611134e-07
2.5404688e-08
-1.8849954e-07
2.7386148e-08
-2.1780888e-07
2.9309335e-08
-2.4897922e-07
3.117034e-08
-2.8194456e-07
3.2965343e-08
-3.1663519e-07
3.4690625e-08
-3.5297779e-07
3.63426e-08
-3.9089562e-07
3.791783e-08
-4.3030862e-07
3.9413002e-08
-4.7113356e-07
4.0824946e-08
-5.1328423e-07
4.2150665e-08
-5.5667198e-07
4.3387745e-08
-6.0120816e-07
4.4536184e-08
-6.4681747e-07
4.5609316e-08
-6.9341518e-07
4.6597706e-08
-7.4088105e-07
4.7465876e-08
-7.8911266e-07
4.8231608e-08
-8.3801389e-07
4.8901225e-08
-8.8748843e-07
4.9474539e-08
-9.3743922e-07
4.9950789e-08
-9.877687e-07
5.0329482e-08
-1.0383792e-06
5.0610462e-08
-1.0891732e-06
5.0794008e-08
-1.1400539e-06
5.0880724e-08
-1.1909254e-06
5.0871544e-08
-1.2416932e-06
5.0767732e-08
-1.292264e-06
5.0570815e-08
-1.3425466e-06
5.0282594e-08
-1.3924517e-06
4.9905114e-08
-1.4418923e-06
4.9440648e-08
-1.490784e-06
4.8891701e-08
-1.539045e-06
4.8260947e-08
-1.5865963e-06
4.7551264e-08
-1.633362e-06
4.6765686e-08
-1.6792694e-06
4.5907415e-08
-1.7242491e-06
4.4979767e-08
-1.7682353e-06
4.398619e-08
-1.8111655e-06
4.2930225e-08
-1.852981e-06
4.1815493e-08
-1.8936267e-06
4.0645694e-08
-1.9330513e-06
3.9424585e-08
-1.9712072e-06
3.8155908e-08
-2.0080507e-06
3.6843484e-08
-2.0435418e-06
3.5491082e-08
-2.0776443e-06
3.410251e-08
-2.1103258e-06
3.2681488e-08
-2.1415575e-06
3.1231734e-08
-2.1713144e-06
2.9756901e-08
-2.199575e-06
2.8260555e-08
-2.2263212e-06
2.6746217e-08
-2.2515385e-06
2.5217288e-08
-2.2752156e-06
2.3677097e-08
-2.2973444e-06
2.2128829e-08
-2.31792e-06
2.0575588e-08
-2.3369403e-06
1.9020336e-08
-2.3544063e-06
1.7465947e-08
-2.3703214e-06
1.5915148e-08
-2.384692e-06
1.4370551e-08
-2.3975267e-06
1.2834697e-08
-2.4088368e-06
1.1310077e-08
-2.4186359e-06
9.7991212e-09
-2.4269401e-06
8.3042094e-09
-2.4337676e-06
6.8275011e-09
-2.4391385e-06
5.3708799e-09
-2.4430737e-06
3.9351896e-09
-2.4455892e-06
2.5155599e-09
-2.4466598e-06
1.070587e-09
-2.4462731e-06
-3.866727e-10
-1.6376203e-09
-2.4796606e-09
3.44889e-09
-9.9712005e-09
1.0706748e-08
-2.2543045e-08
1.8041863e-08
-4.0222314e-08
2.5517937e-08
-6.2988577e-08
3.2961096e-08
-9.0790765e-08
4.0296652e-08
-1.2355741e-07
4.7519954e-08
-1.6120694e-07
5.4621732e-08
-2.0364818e-07
6.159058e-08
-2.507803e-07
6.8414678e-08
-3.0249293e-07
7.5081508e-08
-3.586662e-07
8.1577953e-08
-4.1917078e-07
8.7890731e-08
-4.8386815e-07
9.4006701e-08
-5.5261082e-07
9.9913017e-08
-6.2524277e-07
1.0559729e-07
-7.0159983e-07
1.1104768e-07
-7.8151018e-07
1.1625295e-07
-8.6479491e-07
1.2120255e-07
-9.5126858e-07
1.2588668e-07
-1.04074e-06
1.3029632e-07
-1.1330127e-06
1.3442336e-07
-1.2278857e-06
1.3826077e-07
-1.3251523e-06
1.4180283e-07
-1.4245879e-06
1.4504493e-07
-1.5259673e-06
1.4797704e-07
-1.6290939e-06
1.505925e-07
-1.7337553e-06
1.5289297e-07
-1.8397322e-06
1.5487813e-07
-1.9468049e-06
1.5654723e-07
-2.0547542e-06
1.5790008e-07
-2.163362e-06
1.5893731e-07
-2.272412e-06
1.5966047e-07
-2.38169e-06
1.6007199e-07
-2.4909845e-06
1.6017523e-07
-2.6000874e-06
1.5997444e-07
-2.7087943e-06
1.5947468e-07
-2.8169054e-06
1.5868188e-07
-2.9242255e-06
1.5760272e-07
-3.030565e-06
1.5624457e-07
-3.1357398e-06
1.5461551e-07
-3.2395724e-06
1.5272424e-07
-3.3418914e-06
1.5058001e-07
-3.4425328e-06
1.4819262e-07
-3.5413394e-06
1.4557231e-07
-3.6381617e-06
1.4272973e-07
-3.7328579e-06
1.3967593e-07
-3.8252939e-06
1.3642222e-07
-3.9153439e-06
1.329802e-07
-4.00289e-06
1.2936161e-07
-4.0878227e-06
1.2557839e-07
-4.1700407e-06
1.2164258e-07
-4.249451e-06
1.175662e-07
-4.3259688e-06
1.1336132e-07
-4.3995176e-06
1.0903991e-07
-4.470029e-06
1.0461388e-07
-4.5374425e-06
1.0009497e-07
-4.6017055e-06
9.5494736e-08
-4.6627732e-06
9.082454e-08
-4.7206081e-06
8.6095464e-08
-4.7751801e-06
8.1318278e-08
-4.8264663e-06
7.6503498e-08
-4.8744505e-06
7.1661242e-08
-4.9191229e-06
6.6801288e-08
-4.9604804e-06
6.1933037e-08
-4.9985255e-06
5.7065455e-08
-5.0332667e-06
5.2207153e-08
-5.0647178e-06
4.7366279e-08
-5.0928979e-06
4.2550642e-08
-5.1178309e-06
3.7767668e-08
-5.1395453e-06
3.3024513e-08
-5.1580742e-06
2.8328041e-08
-5.173455e-06
2.3684928e-08
-5.185729e-06
1.9101563e-08
-5.1949423e-06
1.4584157e-08
-5.2011462e-06
1.0139069e-08
-5.2044029e-06
5.7722466e-09
-5.204804e-06
1.471706e-09
-5.2023925e-06
-2.7981585e-09
-6.975904e-09
-3.29848e-09
6.7473698e-09
-1.3079703e-08
2.0487971e-08
-2.9366648e-08
3.4328808e-08
-5.2115806e-08
4.8267095e-08
-8.1295253e-08
6.2140543e-08
-1.168568e-07
7.5858194e-08
-1.587227e-07
8.9385858e-08
-2.0679536e-07
1.026944e-07
-2.6096096e-07
1.1575618e-07
-3.2109063e-07
1.2854434e-07
-3.8704138e-07
1.4103226e-07
-4.5865689e-07
1.5319346e-07
-5.3576801e-07
1.6500186e-07
-6.1819336e-07
1.7643204e-07
-7.0573982e-07
1.8745949e-07
-7.9820321e-07
1.9806068e-07
-8.9536885e-07
2.0821332e-07
-9.9701228e-07
2.1789638e-07
-1.1028999e-06
2.2709022e-07
-1.21279e-06
2.357767e-07
-1.3264329e-06
2.4393924e-07
-1.4435724e-06
2.5156289e-07
-1.5639461e-06
2.5863444e-07
-1.6872857e-06
2.651424e-07
-1.8133177e-06
2.7107695e-07
-1.9417691e-06
2.7642847e-07
-2.0723655e-06
2.8118892e-07
-2.204827e-06
2.8535443e-07
-2.3388722e-06
2.889233e-07
-2.4742201e-06
2.9189513e-07
-2.6105909e-06
2.9427091e-07
-2.7477067e-06
2.9605316e-07
-2.8852923e-06
2.9724602e-07
-3.0230755e-06
2.9785523e-07
-3.1607885e-06
2.9788816e-07
-3.2981678e-06
2.9735377e-07
-3.4349556e-06
2.9626251e-07
-3.5709001e-06
2.9462634e-07
-3.705756e-06
2.9245859e-07
-3.8392853e-06
2.8977387e-07
-3.9712578e-06
2.8658801e-07
-4.1014515e-06
2.8291797e-07
-4.2296532e-06
2.787817e-07
-4.3556587e-06
2.7419809e-07
-4.4792732e-06
2.6918684e-07
-4.6003118e-06
2.6376833e-07
-4.7185995e-06
2.5796361e-07
-4.8339714e-06
2.5179419e-07
-4.9462732e-06
2.4528199e-07
-5.0553609e-06
2.3844928e-07
-5.161101e-06
2.3131849e-07
-5.2633707e-06
2.2391222e-07
-5.3620575e-06
2.1625301e-07
-5.4570596e-06
2.0836341e-07
-5.5482854e-06
2.0026576e-07
-5.6356537e-06
1.9198219e-07
-5.7190933e-06
1.835345e-07
-5.7985426e-06
1.7494413e-07
-5.8739501e-06
1.6623203e-07
-5.9452733e-06
1.5741867e-07
-6.012479e-06
1.4852393e-07
-6.0755426e-06
1.3956707e-07
-6.134448e-06
1.3056672e-07
-6.1891875e-06
1.2154074e-07
-6.2397607e-06
1.1250629e-07
-6.2861751e-06
1.0347982e-07
-6.3284449e-06
9.4476933e-08
-6.3665911e-06
8.5512497e-08
-6.4006411e-06
7.6600621e-08
-6.4306281e-06
6.7754686e-08
-6.456591e-06
5.8987398e-08
-6.4785738e-06
5.0310886e-08
-6.4966257e-06
4.173676e-08
-6.5108001e-06
3.3276009e-08
-6.5211551e-06
2.4939185e-08
-6.5277538e-06
1.6737757e-08
-6.5306714e-06
8.689807e-09
-6.5300695e-06
8.6978475e-10
-6.5257891e-06
-7.0785218e-09
-1.4773161e-08
-3.6433758e-09
1.0390746e-08
-1.4464565e-08
3.1309161e-08
-3.2426345e-08
5.2290588e-08
-5.7458857e-08
7.3299607e-08
-8.9515689e-08
9.4197376e-08
-1.2854225e-07
1.1488476e-07
-1.7445747e-07
1.3530108e-07
-2.2715778e-07
1.5539471e-07
-2.8652021e-07
1.7511861e-07
-3.5240405e-07
1.9442817e-07
-4.2465208e-07
2.1328029e-07
-5.030917e-07
2.3163308e-07
-5.8753576e-07
2.4944591e-07
-6.7778329e-07
2.6667958e-07
-7.7362031e-07
2.832965e-07
-8.7482048e-07
2.9926086e-07
-9.8114595e-07
3.1453879e-07
-1.0923481e-06
3.2909851e-07
-1.2081683e-06
3.4291045e-07
-1.3283389e-06
3.5594736e-07
-1.4525841e-06
3.6818443e-07
-1.5806206e-06
3.7959937e-07
-1.7121586e-06
3.9017246e-07
-1.8469029e-06
3.9988666e-07
-1.9845535e-06
4.0872753e-07
-2.1248078e-06
4.166828e-07
-2.2673614e-06
4.2374252e-07
-2.4119073e-06
4.2990034e-07
-2.5581373e-06
4.351533e-07
-2.7057433e-06
4.3950111e-07
-2.8544184e-06
4.42946e-07
-3.0038579e-06
4.4549266e-07
-3.1537602e-06
4.4714829e-07
-3.3038275e-06
4.4792253e-07
-3.4537667e-06
4.4782744e-07
-3.6032904e-06
4.4687743e-07
-3.7521171e-06
4.4508918e-07
-3.8999722e-06
4.424815e-07
-4.0465889e-06
4.3907529e-07
-4.1917084e-06
4.3489333e-07
-4.3350806e-06
4.2996019e-07
-4.4764646e-06
4.2430206e-07
-4.6156296e-06
4.1794663e-07
-4.7523544e-06
4.1092293e-07
-4.8864287e-06
4.0326113e-07
-5.0176528e-06
3.9499246e-07
-5.1458382e-06
3.8614902e-07
-5.2708076e-06
3.7676359e-07
-5.3923952e-06
3.6686955e-07
-5.5104465e-06
3.5650064e-07
-5.624819e-06
3.4569093e-07
-5.7353813e-06
3.3447457e-07
-5.8420139e-06
3.2288564e-07
-5.9446087e-06
3.1095816e-07
-6.0430687e-06
2.987258e-07
-6.1373084e-06
2.8622187e-07
-6.227253e-06
2.7347912e-07
-6.3128386e-06
2.605297e-07
-6.3940116e-06
2.4740507e-07
-6.4707288e-06
2.3413585e-07
-6.5429566e-06
2.2075176e-07
-6.6106711e-06
2.0728159e-07
-6.6738575e-06
1.9375309e-07
-6.7325097e-06
1.8019291e-07
-6.78663e-06
1.6662661e-07
-6.8362288e-06
1.5307858e-07
-6.8813239e-06
1.3957204e-07
-6.9219404e-06
1.2612896e-07
-6.9581099e-06
1.1277021e-07
-6.9898707e-06
9.9515444e-08
-7.0172665e-06
8.6383216e-08
-7.0403467e-06
7.3391078e-08
-7.0591656e-06
6.0555613e-08
-7.0737822e-06
4.7892609e-08
-7.0842601e-06
3.5417165e-08
-7.0906678e-06
2.3145413e-08
-7.0930815e-06
1.1103528e-08
-7.091581e-06
-6.3072048e-10
-7.0862105e-06
-1.2449022e-08
-2.3912507e-08
-3.7708557e-09
1.4161602e-08
-1.5009099e-08
4.2547404e-08
-3.3662971e-08
7.094446e-08
-5.9659008e-08
9.9295645e-08
-9.2938671e-08
1.2747704e-07
-1.3343692e-07
1.5538301e-07
-1.8106759e-07
1.8293174e-07
-2.3572334e-07
2.1005045e-07
-2.9727698e-07
2.3667225e-07
-3.6558275e-07
2.6273395e-07
-4.4047751e-07
2.8817506e-07
-5.2178179e-07
3.1293736e-07
-6.093007e-07
3.3696482e-07
-7.0282484e-07
3.6020372e-07
-8.0213108e-07
3.8260274e-07
-9.0698342e-07
4.0411319e-07
-1.0171338e-06
4.2468913e-07
-1.1323228e-06
4.4428756e-07
-1.252281e-06
4.6286859e-07
-1.3767291e-06
4.8039554e-07
-1.5053798e-06
4.9683508e-07
-1.6379378e-06
5.1215735e-07
-1.7741014e-06
5.2633604e-07
-1.9135631e-06
5.3934841e-07
-2.0560109e-06
5.5117536e-07
-2.2011294e-06
5.6180126e-07
-2.348601e-06
5.7121415e-07
-2.4981068e-06
5.7940609e-07
-2.6493267e-06
5.8637323e-07
-2.801941e-06
5.9211543e-07
-2.9556312e-06
5.966362e-07
-3.1100811e-06
5.9994254e-07
-3.2649777e-06
6.0204488e-07
-3.4200122e-06
6.0295705e-07
-3.5748809e-06
6.0269609e-07
-3.7292857e-06
6.0128227e-07
-3.8829354e-06
5.9873885e-07
-4.0355459e-06
5.9509198e-07
-4.1868411e-06
5.9037054e-07
-4.3365537e-06
5.8460593e-07
-4.4844255e-06
5.7783194e-07
-4.6302079e-06
5.7008452e-07
-4.7736629e-06
5.6140158e-07
-4.9145627e-06
5.5182275e-07
-5.0526908e-06
5.4138926e-07
-5.187842e-06
5.3014365e-07
-5.3198226e-06
5.181296e-07
-5.4484507e-06
5.0539168e-07
-5.5735564e-06
4.9197518e-07
-5.6949816e-06
4.7792588e-07
-5.8125806e-06
4.6328991e-07
-5.9262195e-06
4.4811346e-07
-6.0357765e-06
4.3244267e-07
-6.1411418e-06
4.163234e-07
-6.2422171e-06
3.9980113e-07
-6.3389159e-06
3.8292071e-07
-6.4311631e-06
3.657263e-07
-6.5188946e-06
3.4826115e-07
-6.602057e-06
3.305675e-07
-6.6806076e-06
3.126865e-07
-6.7545139e-06
2.9465806e-07
-6.8237531e-06
2.7652076e-07
-6.8883118e-06
2.5831179e-07
-6.9481857e-06
2.4006683e-07
-7.0033792e-06
2.2182004e-07
-7.0539046e-06
2.0360404e-07
-7.0997823e-06
1.8544978e-07
-7.14104e-06
1.6738663e-07
-7.1777121e-06
1.494423e-07
-7.2098396e-06
1.316429e-07
-7.2374693e-06
1.1401293e-07
-7.2606536e-06
9.6575428e-08
-7.27945e-06
7.9351961e-08
-7.2939201e-06
6.2362753e-08
-7.30413e-06
4.5627082e-08
-7.3101494e-06
2.9164771e-08
-7.3120517e-06
1.300584e-08
-7.3098378e-06
-2.8446339e-09
-7.3037395e-06
-1.8547267e-08
-3.3880884e-08
-3.8175941e-09
1.7979196e-08
-1.5230239e-08
5.3960049e-08
-3.4189394e-08
8.9903614e-08
-6.0628388e-08
1.2573464e-07
-9.4482175e-08
1.6133083e-07
-1.3567673e-07
1.9657756e-07
-1.8412015e-07
2.3137517e-07
-2.3970131e-07
2.6563162e-07
-3.0228991e-07
2.9926085e-07
-3.717372e-07
3.3218123e-07
-4.4787685e-07
3.6431471e-07
-5.3052589e-07
3.9558639e-07
-6.1948556e-07
4.2592449e-07
-7.1454216e-07
4.5526033e-07
-8.1546796e-07
4.8352854e-07
-9.2202197e-07
5.1066721e-07
-1.0339509e-06
5.3661804e-07
-1.1509899e-06
5.6132658e-07
-1.2728637e-06
5.8474237e-07
-1.3992873e-06
6.0681911e-07
-1.529967e-06
6.2751483e-07
-1.6646016e-06
6.4679197e-07
-1.8028831e-06
6.6461751e-07
-1.9444977e-06
6.8096306e-07
-2.0891273e-06
6.9580488e-07
-2.2364499e-06
7.0912389e-07
-2.3861415e-06
7.2090577e-07
-2.5378765e-06
7.311411e-07
-2.6913286e-06
7.3982536e-07
-2.846172e-06
7.4695882e-07
-3.0020822e-06
7.5254638e-07
-3.1587371e-06
7.5659747e-07
-3.3158182e-06
7.5912594e-07
-3.4730111e-06
7.601499e-07
-3.6300066e-06
7.5969166e-07
-3.7865019e-06
7.577775e-07
-3.9422005e-06
7.5443751e-07
-4.096814e-06
7.4970543e-07
-4.2500618e-06
7.4361841e-07
-4.4016727e-06
7.3621678e-07
-4.5513846e-06
7.2754382e-07
-4.6989456e-06
7.1764552e-07
-4.8441143e-06
7.0657033e-07
-4.9866604e-06
6.9436885e-07
-5.1263647e-06
6.810936e-07
-5.2630199e-06
6.6679878e-07
-5.3964302e-06
6.5153993e-07
-5.5264122e-06
6.3537373e-07
-5.6527947e-06
6.1835769e-07
-5.7754187e-06
6.0054991e-07
-5.8941377e-06
5.8200885e-07
-6.0088173e-06
5.6279306e-07
-6.1193355e-06
5.4296093e-07
-6.2255826e-06
5.2257049e-07
-6.3274607e-06
5.016792e-07
-6.4248838e-06
4.8034376e-07
-6.5177773e-06
4.5861984e-07
-6.6060782e-06
4.3656203e-07
-6.6897343e-06
4.1422359e-07
-6.7687041e-06
3.9165633e-07
-6.8429565e-06
3.6891046e-07
-6.9124703e-06
3.4603454e-07
-6.9772338e-06
3.230753e-07
-7.0372445e-06
3.0007755e-07
-7.0925087e-06
2.7708419e-07
-7.1430407e-06
2.5413609e-07
-7.188863e-06
2.3127203e-07
-7.2300051e-06
2.0852876e-07
-7.2665037e-06
1.8594089e-07
-7.2984018e-06
1.6354094e-07
-7.3257482e-06
1.4135936e-07
-7.3485973e-06
1.1942454e-07
-7.3670083e-06
9.776296e-08
-7.3810448e-06
7.6399204e-08
-7.3907743e-06
5.535662e-08
-7.3962684e-06
3.4658862e-08
-7.3975999e-06
1.4337392e-08
-7.3948208e-06
-5.623789e-09
-7.3880804e-06
-2.5287639e-08
-4.4521612e-08
-3.845504e-09
2.18247e-08
-1.5362339e-08
6.5476885e-08
-3.4510307e-08
1.0905158e-07
-6.123106e-08
1.5245539e-07
-9.5457252e-08
1.9555702e-07
-1.3710887e-07
2.3822917e-07
-1.8608907e-07
2.8035537e-07
-2.4228288e-07
3.2182544e-07
-3.0555693e-07
3.625349e-07
-3.757597e-07
4.02384e-07
-4.5272217e-07
4.4127719e-07
-5.3625859e-07
4.7912281e-07
-6.2616719e-07
5.1583309e-07
-7.222311e-07
5.5132423e-07
-8.2421912e-07
5.8551655e-07
-9.3188658e-07
6.1833467e-07
-1.0449763e-06
6.4970775e-07
-1.1632194e-06
6.7956966e-07
-1.2863362e-06
7.0785923e-07
-1.4140375e-06
7.345204e-07
-1.5460251e-06
7.595024e-07
-1.681993e-06
7.8275991e-07
-1.8216287e-06
8.0425315e-07
-1.9646137e-06
8.2394803e-07
-2.110625e-06
8.4181617e-07
-2.259336e-06
8.5783495e-07
-2.4104179e-06
8.7198763e-07
-2.5635401e-06
8.842633e-07
-2.7183717e-06
8.9465695e-07
-2.8745822e-06
9.0316938e-07
-3.0318429e-06
9.0980704e-07
-3.1898273e-06
9.1458191e-07
-3.3482128e-06
9.1751139e-07
-3.506681e-06
9.1861809e-07
-3.664919e-06
9.1792966e-07
-3.8226201e-06
9.1547866e-07
-3.9794848e-06
9.1130221e-07
-4.1352212e-06
9.0544185e-07
-4.2895461e-06
8.9794325e-07
-4.4421852e-06
8.8885588e-07
-4.5928742e-06
8.7823282e-07
-4.741359e-06
8.6613036e-07
-4.8873964e-06
8.5260773e-07
-5.0307543e-06
8.3772676e-07
-5.1712123e-06
8.2155159e-07
-5.3085618e-06
8.0414828e-07
-5.4426065e-06
7.8558455e-07
-5.5731622e-06
7.6592942e-07
-5.7000574e-06
7.4525289e-07
-5.8231331e-06
7.2362559e-07
-5.9422428e-06
7.0111863e-07
-6.0572528e-06
6.7780304e-07
-6.1680416e-06
6.5374974e-07
-6.2745002e-06
6.2902911e-07
-6.3765319e-06
6.0371082e-07
-6.4740516e-06
5.7786351e-07
-6.5669864e-06
5.5155464e-07
-6.6552746e-06
5.2485022e-07
-6.7388657e-06
4.9781464e-07
-6.8177199e-06
4.7051053e-07
-6.8918079e-06
4.4299853e-07
-6.9611106e-06
4.1533721e-07
-7.0256182e-06
3.8758294e-07
-7.0853304e-06
3.5978974e-07
-7.1402555e-06
3.3200925e-07
-7.19041e-06
3.0429064e-07
-7.2358186e-06
2.7668058e-07
-7.276513e-06
2.4922317e-07
-7.3125321e-06
2.2195995e-07
-7.343921e-06
1.9492985e-07
-7.3707309e-06
1.681693e-07
-7.3930185e-06
1.4171214e-07
-7.4108453e-06
1.1558975e-07
-7.4242772e-06
8.983112e-08
-7.4333838e-06
6.4463207e-08
-7.4382362e-06
3.9511303e-08
-7.4389006e-06
1.5001814e-08
-7.4354525e-06
-9.0719633e-09
-7.4280327e-06
-3.2707388e-08
-5.585283e-08
-3.8754331e-09
2.5700133e-08
-1.54921e-08
7.7093551e-08
-3.4817039e-08
1.2837652e-07
-6.1798465e-08
1.7943682e-07
-9.6368806e-08
2.3012736e-07
-1.3844452e-07
2.8030489e-07
-1.8792493e-07
3.2983577e-07
-2.4469151e-07
3.7859202e-07
-3.0860766e-07
4.2645105e-07
-3.7951885e-07
4.7329519e-07
-4.5725313e-07
5.1901146e-07
-5.4162169e-07
5.6349137e-07
-6.3241965e-07
6.0663105e-07
-7.2942677e-07
6.4833135e-07
-8.324083e-07
6.8849808e-07
-9.4111584e-07
7.2704222e-07
-1.0552882e-06
7.6388014e-07
-1.1746525e-06
7.9893391e-07
-1.2989247e-06
8.3213145e-07
-1.4278111e-06
8.6340679e-07
-1.561009e-06
8.9270027e-07
-1.6982077e-06
9.1995869e-07
-1.8390901e-06
9.4513547e-07
-1.9833328e-06
9.6819075e-07
-2.1306081e-06
9.8909149e-07
-2.2805847e-06
1.0078115e-06
-2.4329287e-06
1.0243316e-06
-2.5873048e-06
1.0386395e-06
-2.7433775e-06
1.0507296e-06
-2.9008117e-06
1.0606036e-06
-3.0592741e-06
1.0682695e-06
-3.2184342e-06
1.073742e-06
-3.377965e-06
1.0770422e-06
-3.5375443e-06
1.0781974e-06
-3.6968554e-06
1.0772408e-06
-3.8555882e-06
1.0742115e-06
-4.0134398e-06
1.0691538e-06
-4.1701153e-06
1.0621173e-06
-4.3253285e-06
1.0531565e-06
-4.4788029e-06
1.0423302e-06
-4.6302717e-06
1.0297017e-06
-4.7794791e-06
1.0153377e-06
-4.92618e-06
9.9930864e-07
-5.070141e-06
9.816878e-07
-5.2111407e-06
9.6255121e-07
-5.3489695e-06
9.4197715e-07
-5.4834307e-06
9.2004577e-07
-5.61434e-06
8.968387e-07
-5.7415258e-06
8.7243869e-07
-5.8648295e-06
8.4692925e-07
-5.9841051e-06
8.2039422e-07
-6.0992196e-06
7.9291753e-07
-6.2100526e-06
7.6458275e-07
-6.3164964e-06
7.3547288e-07
-6.4184555e-06
7.0566992e-07
-6.5158467e-06
6.7525474e-07
-6.6085987e-06
6.4430664e-07
-6.6966517e-06
6.1290326e-07
-6.7799574e-06
5.8112027e-07
-6.858478e-06
5.490312e-07
-6.9321867e-06
5.1670721e-07
-7.0010665e-06
4.84217e-07
-7.0651102e-06
4.5162662e-07
-7.1243198e-06
4.1899935e-07
-7.1787061e-06
3.8639561e-07
-7.2282884e-06
3.5387291e-07
-7.2730936e-06
3.2148577e-07
-7.3131561e-06
2.8928564e-07
-7.3485171e-06
2.5732098e-07
-7.3792244e-06
2.2563714e-07
-7.4053315e-06
1.9427641e-07
-7.4268975e-06
1.6327811e-07
-7.4439862e-06
1.3267847e-07
-7.4566659e-06
1.0251084e-07
-7.4650084e-06
7.2805662e-08
-7.4690875e-06
4.3590418e-08
-7.4689749e-06
1.4889172e-08
-7.4647626e-06
-1.3284219e-08
-7.4565542e-06
-4.0915784e-08
-6.7977543e-08
-3.912738e-09
2.9612871e-08
-1.564569e-08
8.8826503e-08
-3.5170658e-08
1.4790149e-07
-6.2440143e-08
2.067063e-07
-9.7386948e-08
2.6507417e-07
-1.3992542e-07
3.2284336e-07
-1.8995191e-07
3.7986226e-07
-2.4734464e-07
4.3598475e-07
-3.1196368e-07
4.9107009e-07
-3.8365121e-07
5.4498272e-07
-4.6223186e-07
5.9759212e-07
-5.4751336e-07
6.4877287e-07
-6.3928714e-07
6.9840483e-07
-7.373291e-07
7.4637331e-07
-8.4140041e-07
7.925694e-07
-9.512484e-07
8.368902e-07
-1.0666074e-06
8.7923915e-07
-1.1871997e-06
9.1952624e-07
-1.3127366e-06
9.5766835e-07
-1.4429193e-06
9.9358945e-07
-1.5774399e-06
1.0272209e-06
-1.7159826e-06
1.0585014e-06
-1.8582247e-06
1.0873776e-06
-2.0038377e-06
1.1138037e-06
-2.1524883e-06
1.1377421e-06
-2.3038399e-06
1.1591631e-06
-2.4575531e-06
1.1780448e-06
-2.6132873e-06
1.1943737e-06
-2.7707016e-06
1.208144e-06
-2.929456e-06
1.2193579e-06
-3.0892121e-06
1.2280255e-06
-3.2496344e-06
1.2341643e-06
-3.4103916e-06
1.2377993e-06
-3.5711569e-06
1.2389627e-06
-3.7316096e-06
1.2376935e-06
-3.8914355e-06
1.2340374e-06
-4.0503281e-06
1.2280464e-06
-4.2079891e-06
1.2197783e-06
-4.3641294e-06
1.2092968e-06
-4.5184695e-06
1.1966704e-06
-4.6707405e-06
1.1819726e-06
-4.8206841e-06
1.1652814e-06
-4.9680538e-06
1.1466783e-06
-5.1126146e-06
1.1262486e-06
-5.2541439e-06
1.1040805e-06
-5.3924316e-06
1.0802649e-06
-5.5272804e-06
1.0548946e-06
-5.6585059e-06
1.0280642e-06
-5.7859367e-06
9.9986951e-07
-5.9094147e-06
9.7040718e-07
-6.0287946e-06
9.3977419e-07
-6.1439446e-06
9.080675e-07
-6.2547455e-06
8.7538369e-07
-6.3610912e-06
8.4181852e-07
-6.4628879e-06
8.0746665e-07
-6.5600544e-06
7.7242127e-07
-6.6525216e-06
7.367738e-07
-6.740232e-06
7.0061365e-07
-6.8231396e-06
6.6402789e-07
-6.9012095e-06
6.271011e-07
-6.9744173e-06
5.8991505e-07
-7.042749e-06
5.5254865e-07
-7.1062001e-06
5.1507773e-07
-7.1647756e-06
4.7757485e-07
-7.2184892e-06
4.4010925e-07
-7.2673631e-06
4.027468e-07
-7.3114272e-06
3.6554986e-07
-7.3507189e-06
3.2857727e-07
-7.3852822e-06
2.918843e-07
-7.4151677e-06
2.5552268e-07
-7.4404318e-06
2.1954057e-07
-7.4611364e-06
1.8398262e-07
-7.4773479e-06
1.4888999e-07
-7.4891373e-06
1.1430029e-07
-7.4965794e-06
8.0247763e-08
-7.499752e-06
4.6763e-08
-7.498731e-06
1.3868126e-08
-7.493614e-06
-1.8401157e-08
-7.4844901e-06
-5.0039679e-08
-8.1019708e-08
-3.9580952e-09
3.3570966e-08
-1.5828891e-08
1.006973e-07
-3.5586916e-08
1.6765951e-07
-6.3187087e-08
2.3430647e-07
-9.8562455e-08
3.0044953e-07
-1.4162584e-07
3.6590675e-07
-1.9227108e-07
4.305075e-07
-2.5037332e-07
4.9408698e-07
-3.1578922e-07
5.56486e-07
-3.8835735e-07
6.1755084e-07
-4.6789852e-07
6.7713329e-07
-5.5421644e-07
7.3509079e-07
-6.4709827e-07
7.9128667e-07
-7.4631545e-07
8.4559048e-07
-8.5162442e-07
8.9787836e-07
-9.6276752e-07
9.480333e-07
-1.0794739e-06
9.9594552e-07
-1.2014605e-06
1.0415128e-06
-1.3284328e-06
1.0846407e-06
-1.4600864e-06
1.1252431e-06
-1.5961075e-06
1.1632419e-06
-1.7361742e-06
1.1985681e-06
-1.8799577e-06
1.231161e-06
-2.0271232e-06
1.2609693e-06
-2.1773314e-06
1.2879503e-06
-2.3302393e-06
1.3120709e-06
-2.4855014e-06
1.3333069e-06
-2.6427709e-06
1.3516432e-06
-2.801701e-06
1.3670741e-06
-2.9619456e-06
1.3796026e-06
-3.1231608e-06
1.3892407e-06
-3.2850057e-06
1.3960092e-06
-3.4471434e-06
1.399937e-06
-3.6092423e-06
1.4010616e-06
-3.7709768e-06
1.399428e-06
-3.9320284e-06
1.395089e-06
-4.0920863e-06
1.3881043e-06
-4.2508485e-06
1.3785405e-06
-4.4080224e-06
1.3664707e-06
-4.5633255e-06
1.3519734e-06
-4.7164859e-06
1.3351331e-06
-4.8672433e-06
1.3160387e-06
-5.0153489e-06
1.2947839e-06
-5.1605664e-06
1.2714661e-06
-5.302672e-06
1.2461861e-06
-5.4414547e-06
1.2190476e-06
-5.5767167e-06
1.1901566e-06
-5.7082736e-06
1.1596211e-06
-5.8359544e-06
1.1275503e-06
-5.9596015e-06
1.0940543e-06
-6.0790708e-06
1.0592435e-06
-6.1942315e-06
1.0232282e-06
-6.3049662e-06
9.8611834e-07
-6.4111704e-06
9.4802272e-07
-6.5127526e-06
9.0904886e-07
-6.6096339e-06
8.6930256e-07
-6.7017476e-06
8.2888752e-07
-6.789039e-06
7.879051e-07
-6.8714651e-06
7.4645396e-07
-6.9489939e-06
7.0462986e-07
-7.0216042e-06
6.6252533e-07
-7.0892851e-06
6.2022956e-07
-7.1520355e-06
5.778282e-07
-7.2098639e-06
5.354032e-07
-7.2627873e-06
4.9303265e-07
-7.3108312e-06
4.5079076e-07
-7.3540291e-06
4.0874774e-07
-7.3924216e-06
3.6696976e-07
-7.4260563e-06
3.2551893e-07
-7.4549869e-06
2.8445331e-07
-7.4792732e-06
2.4382685e-07
-7.4989801e-06
2.036895e-07
-7.5141773e-06
1.6408722e-07
-7.524939e-06
1.2506195e-07
-7.5313429e-06
8.6651641e-08
-7.5334696e-06
4.8889703e-08
-7.5314029e-06
1.1801418e-08
-7.5252361e-06
-2.456792e-08
-7.5150601e-06
-6.0215612e-08
-9.5113384e-08
-4.0112286e-09
3.7582195e-08
-1.6042124e-08
1.1272819e-07
-3.6068598e-08
1.8768599e-07
-6.4046696e-08
2.6228457e-07
-9.9909309e-08
3.3631215e-07
-1.4356782e-07
4.0956526e-07
-1.9491366e-07
4.8185334e-07
-2.5381891e-07
5.5299224e-07
-3.2013672e-07
6.228038e-07
-3.9370169e-07
6.9111581e-07
-4.7433043e-07
7.5776203e-07
-5.6182207e-07
8.2258243e-07
-6.5595897e-07
8.8542356e-07
-7.5650741e-07
9.4613893e-07
-8.6321843e-07
1.0045894e-06
-9.7582867e-07
1.0606436e-06
-1.0940614e-06
1.1141782e-06
-1.2176272e-06
1.1650786e-06
-1.3462253e-06
1.2132389e-06
-1.4795447e-06
1.2585624e-06
-1.6172647e-06
1.3009619e-06
-1.7590566e-06
1.34036e-06
-1.9045845e-06
1.376689e-06
-2.0535068e-06
1.4098915e-06
-2.2054769e-06
1.4399204e-06
-2.3601446e-06
1.4667387e-06
-2.5171576e-06
1.4903199e-06
-2.6761621e-06
1.5106477e-06
-2.8368044e-06
1.5277163e-06
-2.9987317e-06
1.5415299e-06
-3.1615937e-06
1.5521026e-06
-3.325043e-06
1.5594585e-06
-3.488737e-06
1.563631e-06
-3.6523383e-06
1.5646629e-06
-3.8155158e-06
1.5626056e-06
-3.9779461e-06
1.5575192e-06
-4.1393136e-06
1.5494718e-06
-4.2993121e-06
1.538539e-06
-4.4576449e-06
1.5248035e-06
-4.6140262e-06
1.5083547e-06
-4.7681811e-06
1.489288e-06
-4.9198465e-06
1.4677041e-06
-5.0687715e-06
1.443709e-06
-5.2147181e-06
1.4174127e-06
-5.3574611e-06
1.3889291e-06
-5.4967888e-06
1.3583752e-06
-5.6325029e-06
1.3258708e-06
-5.7644191e-06
1.2915373e-06
-5.8923666e-06
1.2554979e-06
-6.0161888e-06
1.2178764e-06
-6.1357426e-06
1.1787973e-06
-6.2508988e-06
1.1383844e-06
-6.3615417e-06
1.0967613e-06
-6.4675693e-06
1.0540502e-06
-6.5688922e-06
1.0103718e-06
-6.6654344e-06
9.658447e-07
-6.757132e-06
9.2058515e-07
-6.8439336e-06
8.7470667e-07
-6.9257993e-06
8.2831968e-07
-7.0027007e-06
7.8153128e-07
-7.0746203e-06
7.3444488e-07
-7.1415508e-06
6.8716007e-07
-7.203495e-06
6.3977243e-07
-7.2604651e-06
5.9237327e-07
-7.312482e-06
5.4504963e-07
-7.3595753e-06
4.9788405e-07
-7.4017822e-06
4.5095462e-07
-7.4391473e-06
4.043348e-07
-7.4717218e-06
3.5809349e-07
-7.4995635e-06
3.12295e-07
-7.5227357e-06
2.6699903e-07
-7.5413069e-06
2.2226075e-07
-7.5553506e-06
1.7813086e-07
-7.5649441e-06
1.3465556e-07
-7.570169e-06
9.1876515e-08
-7.5711097e-06
4.9830369e-08
-7.567852e-06
8.5436992e-09
-7.5604936e-06
-3.192624e-08
-7.549125e-06
-7.1584316e-08
-1.103977e-07
-4.0718784e-09
4.1654073e-08
-1.6285001e-08
1.2494132e-07
-3.6615856e-08
2.0801684e-07
-6.5020775e-08
2.9068949e-07
-1.0143203e-07
3.727234e-07
-1.4575939e-07
4.5389261e-07
-1.9789181e-07
5.3398577e-07
-2.5769819e-07
6.1279862e-07
-3.2502789e-07
6.901335e-07
-3.9971127e-07
7.657992e-07
-4.8156028e-07
8.3961103e-07
-5.7036898e-07
9.1139114e-07
-6.659143e-07
9.8096888e-07
-7.6795675e-07
1.0481814e-06
-8.7624125e-07
1.1128739e-06
-9.9049804e-07
1.1749003e-06
-1.1104436e-06
1.2341237e-06
-1.2357816e-06
1.2904166e-06
-1.366204e-06
1.3436613e-06
-1.5013922e-06
1.3937506e-06
-1.6410181e-06
1.4405878e-06
-1.784745e-06
1.4840869e-06
-1.9322293e-06
1.5241733e-06
-2.0831212e-06
1.5607834e-06
-2.2370662e-06
1.5938654e-06
-2.3937062e-06
1.6233787e-06
-2.5526809e-06
1.6492945e-06
-2.7136286e-06
1.6715954e-06
-2.8761879e-06
1.6902756e-06
-3.0399985e-06
1.7053405e-06
-3.2047027e-06
1.7168069e-06
-3.3699463e-06
1.7247021e-06
-3.5353798e-06
1.7290645e-06
-3.7006593e-06
1.7299424e-06
-3.8654479e-06
1.7273942e-06
-4.0294162e-06
1.7214875e-06
-4.1922435e-06
1.7122992e-06
-4.3536188e-06
1.6999143e-06
-4.5132412e-06
1.6844259e-06
-4.6708207e-06
1.6659342e-06
-4.8260791e-06
1.6445464e-06
-4.9787506e-06
1.6203756e-06
-5.1285818e-06
1.5935402e-06
-5.2753327e-06
1.5641636e-06
-5.4187768e-06
1.5323732e-06
-5.5587015e-06
1.4982999e-06
-5.6949082e-06
1.4620774e-06
-5.8272124e-06
1.4238415e-06
-5.9554441e-06
1.3837296e-06
-6.0794475e-06
1.3418798e-06
-6.1990808e-06
1.2984306e-06
-6.3142168e-06
1.2535204e-06
-6.4247419e-06
1.2072864e-06
-6.5305563e-06
1.1598647e-06
-6.6315738e-06
1.1113893e-06
-6.7277213e-06
1.0619921e-06
-6.8189382e-06
1.0118021e-06
-6.9051768e-06
9.6094527e-07
-6.986401e-06
9.0954389e-07
-7.0625863e-06
8.5771659e-07
-7.1337193e-06
8.0557781e-07
-7.1997969e-06
7.5323769e-07
-7.2608263e-06
7.0080179e-07
-7.3168239e-06
6.4837086e-07
-7.3678151e-06
5.9604089e-07
-7.4138339e-06
5.4390285e-07
-7.4549218e-06
4.9204255e-07
-7.4911279e-06
4.4054083e-07
-7.5225076e-06
3.8947326e-07
-7.549123e-06
3.3891037e-07
-7.5710415e-06
2.8891753e-07
-7.5883358e-06
2.3955505e-07
-7.6010832e-06
1.9087822e-07
-7.6093651e-06
1.4293743e-07
-7.6132666e-06
9.5778028e-08
-7.6128759e-06
4.9439708e-08
-7.6082838e-06
3.9515968e-09
-7.5995884e-06
-4.0621646e-08
-7.5868831e-06
-8.428957e-08
-1.2701495e-07
-4.1399454e-09
4.5794018e-08
-1.6557382e-08
1.3735875e-07
-3.7228896e-08
2.2868835e-07
-6.611055e-08
3.1957114e-07
-1.0313359e-07
4.0974644e-07
-1.4820589e-07
4.9896491e-07
-2.0121372e-07
5.869936e-07
-2.6202253e-07
6.7360744e-07
-3.3047765e-07
7.5858862e-07
-4.0640483e-07
8.4172637e-07
-4.8961086e-07
9.2281707e-07
-5.7988425e-07
1.0016645e-06
-6.7699589e-07
1.0780805e-06
-7.8069987e-07
1.1518853e-06
-8.9073428e-07
1.2229083e-06
-1.0068222e-06
1.2909882e-06
-1.1286725e-06
1.3559741e-06
-1.2559811e-06
1.4177252e-06
-1.3884319e-06
1.4761122e-06
-1.5256979e-06
1.5310166e-06
-1.6674424e-06
1.5823323e-06
-1.8133201e-06
1.6299646e-06
-1.9629784e-06
1.6738316e-06
-2.1160587e-06
1.7138638e-06
-2.2721976e-06
1.7500043e-06
-2.4310279e-06
1.7822091e-06
-2.5921805e-06
1.8104471e-06
-2.755285e-06
1.8346999e-06
-2.9199713e-06
1.8549619e-06
-3.0858708e-06
1.8712401e-06
-3.2526176e-06
1.8835537e-06
-3.4198496e-06
1.8919341e-06
-3.5872098e-06
1.8964247e-06
-3.7543472e-06
1.8970798e-06
-3.920918e-06
1.893965e-06
-4.0865866e-06
1.8871562e-06
-4.2510266e-06
1.8767392e-06
-4.4139214e-06
1.8628091e-06
-4.5749654e-06
1.8454698e-06
-4.7338644e-06
1.8248332e-06
-4.8903365e-06
1.8010185e-06
-5.0441124e-06
1.7741515e-06
-5.1949365e-06
1.7443642e-06
-5.3425665e-06
1.7117936e-06
-5.4867745e-06
1.6765812e-06
-5.6273469e-06
1.6388724e-06
-5.7640848e-06
1.5988153e-06
-5.8968039e-06
1.5565606e-06
-6.0253347e-06
1.5122604e-06
-6.1495226e-06
1.4660677e-06
-6.2692276e-06
1.4181356e-06
-6.3843243e-06
1.3686171e-06
-6.4947016e-06
1.3176638e-06
-6.6002628e-06
1.2654258e-06
-6.7009246e-06
1.2120511e-06