/*--------------------------------*- C++ -*----------------------------------*\
| =========                 |                                                 |
| \\      /  F ield         | OpenFOAM: The Open Source CFD Toolbox           |
|  \\    /   O peration     | Version:  2106                                  |
|   \\  /    A nd           | Website:  www.openfoam.com                      |
|    \\/     M anipulation  |                                                 |
\*---------------------------------------------------------------------------*/
FoamFile
{
    version     2.0;
    format      ascii;
    arch        "LSB;label=32;scalar=64";
    class       surfaceScalarField;
    location    "0.041";
    object      phi;
}
// * * * * * * * * * * * * * * * * * * * * * * * * * * * * * * * * * * * * * //

dimensions      [0 3 -1 0 0 0 0];

oriented        oriented;

internalField   nonuniform List<scalar> 
130560
(
1.3117412e-08
-1.3117397e-08
2.6153388e-08
-1.3035982e-08
3.9026739e-08
-1.2873354e-08
5.1656712e-08
-1.2629972e-08
6.3963215e-08
-1.2306503e-08
7.5867094e-08
-1.1903878e-08
8.7290312e-08
-1.1423217e-08
9.8156161e-08
-1.0865849e-08
1.0838957e-07
-1.0233413e-08
1.1791717e-07
-9.5275992e-09
1.2666754e-07
-8.7503605e-09
1.3457156e-07
-7.9040287e-09
1.4156245e-07
-6.99089e-09
1.4757594e-07
-6.0134819e-09
1.5255055e-07
-4.9746176e-09
1.5642754e-07
-3.8769891e-09
1.5915189e-07
-2.7243422e-09
1.6067119e-07
-1.5192984e-09
1.6093673e-07
-2.6554268e-10
1.5990333e-07
1.0333966e-09
1.5752934e-07
2.3739957e-09
1.5377716e-07
3.7521755e-09
1.4861301e-07
5.1641534e-09
1.4200748e-07
6.6055317e-09
1.3393465e-07
8.0728279e-09
1.2437331e-07
9.561342e-09
1.1330707e-07
1.1066237e-08
1.0072808e-07
1.2578986e-08
8.6611833e-08
1.4116251e-08
7.0969579e-08
1.5642254e-08
5.3798785e-08
1.7170795e-08
3.5103835e-08
1.869495e-08
1.4894345e-08
2.020949e-08
-6.8155378e-09
2.1709883e-08
-3.0006977e-08
2.319144e-08
-5.4656768e-08
2.464979e-08
-8.0737276e-08
2.6080508e-08
-1.0821648e-07
2.7479208e-08
-1.3705805e-07
2.8841568e-08
-1.6722139e-07
3.0163339e-08
-1.9866174e-07
3.1440352e-08
-2.3133027e-07
3.2668531e-08
-2.6517418e-07
3.3843907e-08
-3.001368e-07
3.4962617e-08
-3.3615772e-07
3.6020925e-08
-3.7317295e-07
3.7015227e-08
-4.1111501e-07
3.7942061e-08
-4.4991312e-07
3.8798113e-08
-4.8949335e-07
3.9580229e-08
-5.2977877e-07
4.028542e-08
-5.7068965e-07
4.0910873e-08
-6.121436e-07
4.1453956e-08
-6.5405583e-07
4.1912226e-08
-6.9633926e-07
4.2283435e-08
-7.389048e-07
4.2565533e-08
-7.8166148e-07
4.2756679e-08
-8.2451672e-07
4.2855243e-08
-8.6737653e-07
4.2859808e-08
-9.1014571e-07
4.276918e-08
-9.5272809e-07
4.2582386e-08
-9.9502677e-07
4.2298679e-08
-1.0369443e-06
4.1917539e-08
-1.078383e-06
4.1438678e-08
-1.119245e-06
4.0862039e-08
-1.1594328e-06
4.0187797e-08
-1.1988492e-06
3.9416361e-08
-1.2373976e-06
3.8548369e-08
-1.2749823e-06
3.7584695e-08
-1.3115087e-06
3.6526439e-08
-1.3468836e-06
3.5374931e-08
-1.3810154e-06
3.4131727e-08
-1.413814e-06
3.2798606e-08
-1.4451915e-06
3.1377565e-08
-1.4750623e-06
2.9870818e-08
-1.5033431e-06
2.828079e-08
-1.5299532e-06
2.661011e-08
-1.5548149e-06
2.4861611e-08
-1.5778532e-06
2.3038318e-08
-1.5989966e-06
2.1143444e-08
-1.618177e-06
1.9180386e-08
-1.6353297e-06
1.7152712e-08
-1.6503939e-06
1.5064159e-08
-1.6633125e-06
1.2918622e-08
-1.6740326e-06
1.0720144e-08
-1.6825055e-06
8.4729065e-09
-1.6886868e-06
6.1812403e-09
-1.6925364e-06
3.8495686e-09
-1.6940188e-06
1.4824516e-09
-1.6931034e-06
-9.1544538e-10
-1.689764e-06
-3.3393962e-09
-1.6839794e-06
-5.7845646e-09
-1.6757333e-06
-8.2460515e-09
-1.6650145e-06
-1.0718899e-08
-1.6518163e-06
-1.3198103e-08
-1.6361377e-06
-1.5678619e-08
-1.6179823e-06
-1.8155381e-08
-1.597359e-06
-2.0623306e-08
-1.5742817e-06
-2.3077312e-08
-1.5487694e-06
-2.5512326e-08
-1.5208461e-06
-2.7923294e-08
-1.4905409e-06
-3.0305199e-08
-1.4578878e-06
-3.2653066e-08
-1.4229259e-06
-3.4961978e-08
-1.3856988e-06
-3.7227085e-08
-1.3462552e-06
-3.9443617e-08
-1.3046483e-06
-4.1606895e-08
-1.2609359e-06
-4.371234e-08
-1.2151804e-06
-4.5755486e-08
-1.1674485e-06
-4.7731991e-08
-1.1178108e-06
-4.9637645e-08
-1.0663424e-06
-5.1468382e-08
-1.0131221e-06
-5.3220289e-08
-9.5823253e-07
-5.4889615e-08
-9.0175975e-07
-5.6472781e-08
-8.4379336e-07
-5.7966386e-08
-7.8442614e-07
-5.9367218e-08
-7.2375388e-07
-6.0672263e-08
-6.6187517e-07
-6.1878707e-08
-5.9889123e-07
-6.2983946e-08
-5.3490563e-07
-6.3985595e-08
-4.7002415e-07
-6.4881488e-08
-4.0435446e-07
-6.5669686e-08
-3.3800598e-07
-6.6348485e-08
-2.7108956e-07
-6.6916413e-08
-2.0371732e-07
-6.737224e-08
-1.3600235e-07
-6.7714979e-08
-6.8058462e-08
-6.7943885e-08
-4.7174009e-16
-6.8058462e-08
6.8058461e-08
-6.8058462e-08
1.3600235e-07
-6.7943885e-08
2.0371732e-07
-6.7714979e-08
2.7108956e-07
-6.737224e-08
3.3800598e-07
-6.6916413e-08
4.0435446e-07
-6.6348485e-08
4.7002415e-07
-6.5669686e-08
5.3490563e-07
-6.4881488e-08
5.9889123e-07
-6.3985595e-08
6.6187517e-07
-6.2983946e-08
7.2375388e-07
-6.1878707e-08
7.8442614e-07
-6.0672263e-08
8.4379336e-07
-5.9367218e-08
9.0175975e-07
-5.7966386e-08
9.5823253e-07
-5.6472781e-08
1.0131221e-06
-5.4889616e-08
1.0663424e-06
-5.322029e-08
1.1178108e-06
-5.1468383e-08
1.1674485e-06
-4.9637645e-08
1.2151804e-06
-4.7731991e-08
1.2609359e-06
-4.5755486e-08
1.3046483e-06
-4.371234e-08
1.3462552e-06
-4.1606895e-08
1.3856988e-06
-3.9443618e-08
1.4229259e-06
-3.7227085e-08
1.4578878e-06
-3.4961978e-08
1.4905409e-06
-3.2653066e-08
1.5208461e-06
-3.0305199e-08
1.5487694e-06
-2.7923294e-08
1.5742817e-06
-2.5512326e-08
1.597359e-06
-2.3077313e-08
1.6179823e-06
-2.0623306e-08
1.6361377e-06
-1.8155381e-08
1.6518163e-06
-1.5678619e-08
1.6650144e-06
-1.3198103e-08
1.6757333e-06
-1.07189e-08
1.6839794e-06
-8.2460517e-09
1.689764e-06
-5.7845647e-09
1.6931034e-06
-3.3393964e-09
1.6940188e-06
-9.1544554e-10
1.6925364e-06
1.4824514e-09
1.6886868e-06
3.8495684e-09
1.6825055e-06
6.1812401e-09
1.6740326e-06
8.4729063e-09
1.6633125e-06
1.0720144e-08
1.6503939e-06
1.2918622e-08
1.6353297e-06
1.5064159e-08
1.618177e-06
1.7152712e-08
1.5989966e-06
1.9180385e-08
1.5778532e-06
2.1143444e-08
1.5548149e-06
2.3038318e-08
1.5299532e-06
2.4861611e-08
1.5033431e-06
2.661011e-08
1.4750623e-06
2.828079e-08
1.4451915e-06
2.9870818e-08
1.413814e-06
3.1377565e-08
1.3810154e-06
3.2798606e-08
1.3468836e-06
3.4131727e-08
1.3115087e-06
3.5374931e-08
1.2749823e-06
3.6526439e-08
1.2373976e-06
3.7584695e-08
1.1988492e-06
3.8548369e-08
1.1594328e-06
3.9416361e-08
1.119245e-06
4.0187797e-08
1.078383e-06
4.0862039e-08
1.0369443e-06
4.1438678e-08
9.9502677e-07
4.1917539e-08
9.527281e-07
4.2298678e-08
9.1014571e-07
4.2582386e-08
8.6737653e-07
4.276918e-08
8.2451672e-07
4.2859808e-08
7.8166148e-07
4.2855243e-08
7.389048e-07
4.2756679e-08
6.9633926e-07
4.2565533e-08
6.5405583e-07
4.2283435e-08
6.121436e-07
4.1912226e-08
5.7068965e-07
4.1453956e-08
5.2977877e-07
4.0910873e-08
4.8949335e-07
4.0285419e-08
4.4991313e-07
3.9580228e-08
4.1111501e-07
3.8798113e-08
3.7317295e-07
3.7942061e-08
3.3615772e-07
3.7015227e-08
3.001368e-07
3.6020925e-08
2.6517418e-07
3.4962616e-08
2.3133027e-07
3.3843906e-08
1.9866174e-07
3.2668531e-08
1.6722139e-07
3.1440351e-08
1.3705805e-07
3.0163339e-08
1.0821648e-07
2.8841568e-08
8.0737277e-08
2.7479207e-08
5.4656768e-08
2.6080508e-08
3.0006978e-08
2.464979e-08
6.8155388e-09
2.3191439e-08
-1.4894344e-08
2.1709883e-08
-3.5103834e-08
2.020949e-08
-5.3798784e-08
1.8694949e-08
-7.0969578e-08
1.7170794e-08
-8.6611832e-08
1.5642253e-08
-1.0072808e-07
1.4116251e-08
-1.1330707e-07
1.2578986e-08
-1.2437331e-07
1.1066237e-08
-1.3393465e-07
9.5613417e-09
-1.4200748e-07
8.0728276e-09
-1.4861301e-07
6.6055315e-09
-1.5377716e-07
5.1641532e-09
-1.5752933e-07
3.7521752e-09
-1.5990333e-07
2.3739954e-09
-1.6093673e-07
1.0333964e-09
-1.6067118e-07
-2.6554285e-10
-1.5915188e-07
-1.5192986e-09
-1.5642754e-07
-2.7243425e-09
-1.5255055e-07
-3.8769893e-09
-1.4757593e-07
-4.9746178e-09
-1.4156245e-07
-6.0134821e-09
-1.3457156e-07
-6.99089e-09
-1.2666753e-07
-7.9040288e-09
-1.1791717e-07
-8.7503609e-09
-1.0838957e-07
-9.5275993e-09
-9.8156159e-08
-1.0233413e-08
-8.729031e-08
-1.0865849e-08
-7.5867092e-08
-1.1423218e-08
-6.3963213e-08
-1.1903878e-08
-5.1656709e-08
-1.2306503e-08
-3.9026737e-08
-1.2629973e-08
-2.6153381e-08
-1.2873356e-08
-1.3117393e-08
-1.3035989e-08
-1.3117403e-08
1.3738956e-08
-2.6856344e-08
2.7396009e-08
-2.6693037e-08
4.0889439e-08
-2.6366783e-08
5.4138e-08
-2.5878533e-08
6.7061154e-08
-2.5229655e-08
7.957925e-08
-2.4421973e-08
9.1613754e-08
-2.3457721e-08
1.0308741e-07
-2.2339499e-08
1.139248e-07
-2.107081e-08
1.2405199e-07
-1.9654779e-08
1.3339718e-07
-1.809555e-08
1.4189068e-07
-1.6397534e-08
1.4946532e-07
-1.4565526e-08
1.5605621e-07
-1.260437e-08
1.6160201e-07
-1.0520417e-08
1.660425e-07
-8.3174822e-09
1.6932347e-07
-6.0053118e-09
1.713913e-07
-3.5871289e-09
1.7219702e-07
-1.0712602e-09
1.7169499e-07
1.5354323e-09
1.698436e-07
4.2253875e-09
1.6660455e-07
6.9912188e-09
1.6194377e-07
9.8249431e-09
1.5583098e-07
1.2718318e-08
1.4824065e-07
1.5663156e-08
1.3915074e-07
1.8651256e-08
1.2854235e-07
2.1674623e-08
1.1639512e-07
2.4726219e-08
1.0273253e-07
2.7778846e-08
8.7519346e-08
3.0855435e-08
7.0762221e-08
3.392792e-08
5.2468048e-08
3.6989123e-08
3.2646619e-08
4.003092e-08
1.1311557e-08
4.3044946e-08
-1.151815e-08
4.6021148e-08
-3.5819593e-08
4.8951233e-08
-6.1565327e-08
5.1826243e-08
-8.8723497e-08
5.4637379e-08
-1.1725792e-07
5.7375994e-08
-1.4712816e-07
6.0033572e-08
-1.7828957e-07
6.2601762e-08
-2.1069343e-07
6.5072401e-08
-2.4428706e-07
6.7437535e-08
-2.7901387e-07
6.9689426e-08
-3.1481354e-07
7.1820589e-08
-3.5162211e-07
7.3823803e-08
-3.8937218e-07
7.5692131e-08
-4.27993e-07
7.7418932e-08
-4.6741066e-07
7.8997886e-08
-5.0754824e-07
8.0423003e-08
-5.4832601e-07
8.1688646e-08
-5.8966159e-07
8.2789538e-08
-6.3147015e-07
8.3720781e-08
-6.7366458e-07
8.4477866e-08
-7.1615573e-07
8.5056687e-08
-7.588526e-07
8.5453548e-08
-8.0166254e-07
8.5665178e-08
-8.4449147e-07
8.5688736e-08
-8.8724411e-07
8.5521821e-08
-9.298242e-07
8.5162477e-08
-9.7213472e-07
8.4609203e-08
-1.0140781e-06
8.386095e-08
-1.0555566e-06
8.2917132e-08
-1.0964722e-06
8.1777627e-08
-1.1367272e-06
8.0442778e-08
-1.1762242e-06
7.8913392e-08
-1.2148666e-06
7.7190742e-08
-1.2525584e-06
7.5276565e-08
-1.2892051e-06
7.3173057e-08
-1.324713e-06
7.0882871e-08
-1.3589904e-06
6.8409113e-08
-1.3919471e-06
6.5755333e-08
-1.4234951e-06
6.2925522e-08
-1.4535483e-06
5.9924102e-08
-1.4820235e-06
5.6755917e-08
-1.5088396e-06
5.3426224e-08
-1.5339187e-06
4.9940681e-08
-1.5571857e-06
4.6305334e-08
-1.5785688e-06
4.2526609e-08
-1.5979998e-06
3.8611292e-08
-1.6154136e-06
3.4566521e-08
-1.6307492e-06
3.0399764e-08
-1.6439494e-06
2.6118809e-08
-1.654961e-06
2.1731746e-08
-1.663735e-06
1.7246911e-08
-1.6702267e-06
1.2673009e-08
-1.674396e-06
8.0188435e-09
-1.6762071e-06
3.2935541e-09
-1.675629e-06
-1.4935341e-09
-1.6726354e-06
-6.332972e-09
-1.6672049e-06
-1.1215083e-08
-1.6593209e-06
-1.6130071e-08
-1.6489718e-06
-2.106802e-08
-1.636151e-06
-2.601892e-08
-1.6208569e-06
-3.0972685e-08
-1.6030931e-06
-3.5919179e-08
-1.5828682e-06
-4.0848238e-08
-1.5601958e-06
-4.5749696e-08
-1.5350947e-06
-5.0613403e-08
-1.5075888e-06
-5.5429255e-08
-1.4777067e-06
-6.0187213e-08
-1.4454825e-06
-6.4877327e-08
-1.4109547e-06
-6.948976e-08
-1.374167e-06
-7.4014812e-08
-1.3351677e-06
-7.844294e-08
-1.2940098e-06
-8.2764784e-08
-1.2507509e-06
-8.6971185e-08
-1.2054532e-06
-9.105321e-08
-1.158183e-06
-9.5002172e-08
-1.109011e-06
-9.8809649e-08
-1.0580119e-06
-1.0246751e-07
-1.0052643e-06
-1.0596792e-07
-9.5085051e-07
-1.0930338e-07
-8.9485657e-07
-1.1246673e-07
-8.3737179e-07
-1.1545116e-07
-7.7848875e-07
-1.1825026e-07
-7.1830303e-07
-1.2085799e-07
-6.5691302e-07
-1.2326871e-07
-5.9441974e-07
-1.2547723e-07
-5.3092657e-07
-1.2747877e-07
-4.6653906e-07
-1.2926899e-07
-4.0136472e-07
-1.3084403e-07
-3.3551275e-07
-1.3220046e-07
-2.6909382e-07
-1.3333534e-07
-2.0221984e-07
-1.3424622e-07
-1.350037e-07
-1.3493112e-07
-6.7559042e-08
-1.3538854e-07
-5.1624594e-16
-1.356175e-07
6.7559041e-08
-1.356175e-07
1.350037e-07
-1.3538854e-07
2.0221984e-07
-1.3493112e-07
2.6909382e-07
-1.3424622e-07
3.3551275e-07
-1.3333534e-07
4.0136472e-07
-1.3220046e-07
4.6653906e-07
-1.3084403e-07
5.3092657e-07
-1.2926899e-07
5.9441974e-07
-1.2747877e-07
6.5691302e-07
-1.2547723e-07
7.1830303e-07
-1.2326871e-07
7.7848875e-07
-1.2085799e-07
8.3737179e-07
-1.1825026e-07
8.9485656e-07
-1.1545116e-07
9.5085051e-07
-1.1246673e-07
1.0052643e-06
-1.0930338e-07
1.0580119e-06
-1.0596792e-07
1.109011e-06
-1.0246751e-07
1.158183e-06
-9.8809649e-08
1.2054532e-06
-9.5002172e-08
1.2507509e-06
-9.1053211e-08
1.2940098e-06
-8.6971186e-08
1.3351677e-06
-8.2764785e-08
1.374167e-06
-7.8442941e-08
1.4109547e-06
-7.4014812e-08
1.4454825e-06
-6.948976e-08
1.4777067e-06
-6.4877327e-08
1.5075888e-06
-6.0187213e-08
1.5350947e-06
-5.5429256e-08
1.5601958e-06
-5.0613404e-08
1.5828682e-06
-4.5749696e-08
1.6030931e-06
-4.0848239e-08
1.6208569e-06
-3.5919179e-08
1.636151e-06
-3.0972685e-08
1.6489718e-06
-2.6018921e-08
1.6593209e-06
-2.1068021e-08
1.6672049e-06
-1.6130071e-08
1.6726354e-06
-1.1215083e-08
1.675629e-06
-6.3329724e-09
1.6762071e-06
-1.4935345e-09
1.674396e-06
3.2935538e-09
1.6702267e-06
8.0188431e-09
1.663735e-06
1.2673009e-08
1.654961e-06
1.7246911e-08
1.6439494e-06
2.1731746e-08
1.6307492e-06
2.6118809e-08
1.6154136e-06
3.0399764e-08
1.5979997e-06
3.4566521e-08
1.5785688e-06
3.8611292e-08
1.5571857e-06
4.2526609e-08
1.5339187e-06
4.6305334e-08
1.5088396e-06
4.994068e-08
1.4820235e-06
5.3426224e-08
1.4535483e-06
5.6755917e-08
1.4234951e-06
5.9924102e-08
1.3919471e-06
6.2925522e-08
1.3589904e-06
6.5755332e-08
1.324713e-06
6.8409112e-08
1.2892051e-06
7.0882871e-08
1.2525584e-06
7.3173057e-08
1.2148666e-06
7.5276565e-08
1.1762242e-06
7.7190742e-08
1.1367272e-06
7.8913391e-08
1.0964722e-06
8.0442777e-08
1.0555566e-06
8.1777627e-08
1.0140781e-06
8.2917132e-08
9.7213472e-07
8.3860949e-08
9.298242e-07
8.4609202e-08
8.8724411e-07
8.5162477e-08
8.4449147e-07
8.552182e-08
8.0166254e-07
8.5688736e-08
7.588526e-07
8.5665178e-08
7.1615573e-07
8.5453548e-08
6.7366458e-07
8.5056686e-08
6.3147015e-07
8.4477866e-08
5.8966159e-07
8.372078e-08
5.4832601e-07
8.2789537e-08
5.0754824e-07
8.1688645e-08
4.6741066e-07
8.0423003e-08
4.27993e-07
7.8997885e-08
3.8937218e-07
7.7418932e-08
3.5162211e-07
7.5692131e-08
3.1481354e-07
7.3823803e-08
2.7901387e-07
7.1820588e-08
2.4428706e-07
6.9689425e-08
2.1069344e-07
6.7437534e-08
1.7828957e-07
6.50724e-08
1.4712816e-07
6.2601761e-08
1.1725792e-07
6.0033572e-08
8.8723498e-08
5.7375994e-08
6.1565328e-08
5.4637378e-08
3.5819594e-08
5.1826242e-08
1.1518151e-08
4.8951233e-08
-1.1311556e-08
4.6021147e-08
-3.2646618e-08
4.3044945e-08
-5.2468047e-08
4.0030919e-08
-7.076222e-08
3.6989122e-08
-8.7519345e-08
3.392792e-08
-1.0273253e-07
3.0855435e-08
-1.1639512e-07
2.7778845e-08
-1.2854235e-07
2.4726219e-08
-1.3915074e-07
2.1674622e-08
-1.4824065e-07
1.8651255e-08
-1.5583098e-07
1.5663156e-08
-1.6194376e-07
1.2718318e-08
-1.6660455e-07
9.8249427e-09
-1.6984359e-07
6.9912183e-09
-1.7169499e-07
4.225387e-09
-1.7219702e-07
1.5354317e-09
-1.713913e-07
-1.0712607e-09
-1.6932347e-07
-3.5871293e-09
-1.660425e-07
-6.0053122e-09
-1.6160201e-07
-8.3174827e-09
-1.5605621e-07
-1.0520417e-08
-1.4946532e-07
-1.260437e-08
-1.4189068e-07
-1.4565526e-08
-1.3339717e-07
-1.6397535e-08
-1.2405198e-07
-1.809555e-08
-1.139248e-07
-1.9654779e-08
-1.030874e-07
-2.107081e-08
-9.1613752e-08
-2.23395e-08
-7.9579248e-08
-2.3457721e-08
-6.7061152e-08
-2.4421973e-08
-5.4137999e-08
-2.5229655e-08
-4.0889436e-08
-2.5878532e-08
-2.7396003e-08
-2.6366783e-08
-1.373894e-08
-2.669304e-08
-2.6856351e-08
1.4949544e-08
-4.1805882e-08
2.9816237e-08
-4.1559734e-08
4.4517545e-08
-4.106809e-08
5.8971404e-08
-4.0332393e-08
7.309629e-08
-3.9354539e-08
8.6811788e-08
-3.8137471e-08
1.000384e-07
-3.6684329e-08
1.1269822e-07
-3.4999327e-08
1.2471479e-07
-3.3087371e-08
1.3601326e-07
-3.0953248e-08
1.4652112e-07
-2.8603411e-08
1.5616801e-07
-2.6044427e-08
1.6488561e-07
-2.328312e-08
1.726087e-07
-2.0327467e-08
1.7927409e-07
-1.7185807e-08
1.8482322e-07
-1.3866604e-08
1.8919779e-07
-1.0379881e-08
1.9234554e-07
-6.7348785e-09
1.9421632e-07
-2.9420395e-09
1.9476384e-07
9.8790896e-10
1.939454e-07
5.0438229e-09
1.9172233e-07
9.2142974e-09
1.8805996e-07
1.3487306e-08
1.8292748e-07
1.7850807e-08
1.7629829e-07
2.2292345e-08
1.6815022e-07
2.679932e-08
1.5846612e-07
3.1358729e-08
1.4723532e-07
3.595702e-08
1.3443613e-07
4.0578037e-08
1.2007651e-07
4.5215051e-08
1.0415368e-07
4.9850754e-08
8.6671034e-08
5.4471765e-08
6.7637355e-08
5.9064599e-08
4.7067314e-08
6.3614986e-08
2.4977975e-08
6.8110487e-08
1.3920797e-09
7.2537129e-08
-2.3663234e-08
7.6881556e-08
-5.0156455e-08
8.11306e-08
-7.8051763e-08
8.5271303e-08
-1.0730904e-07
8.9290846e-08
-1.3788395e-07
9.3176672e-08
-1.6972806e-07
9.6916515e-08
-2.0278895e-07
1.0049842e-07
-2.3701027e-07
1.0391074e-07
-2.7233191e-07
1.0714223e-07
-3.0869013e-07
1.1018203e-07
-3.460177e-07
1.1301969e-07
-3.8424401e-07
1.1564525e-07
-4.232953e-07
1.1804917e-07
-4.6309476e-07
1.2022247e-07
-5.0356276e-07
1.2215664e-07
-5.4461698e-07
1.2384376e-07
-5.8617265e-07
1.2527645e-07
-6.2814269e-07
1.2644791e-07
-6.7043798e-07
1.2735198e-07
-7.129675e-07
1.2798307e-07
-7.5563858e-07
1.2833625e-07
-7.983571e-07
1.2840725e-07
-8.4102771e-07
1.2819244e-07
-8.8355409e-07
1.2768886e-07
-9.2583912e-07
1.2689423e-07
-9.6778514e-07
1.2580697e-07
-1.0092942e-06
1.2442616e-07
-1.0502682e-06
1.2275162e-07
-1.0906092e-06
1.2078383e-07
-1.1302198e-06
1.1852398e-07
-1.169003e-06
1.1597396e-07
-1.2068628e-06
1.1313637e-07
-1.2437042e-06
1.1001447e-07
-1.2794336e-06
1.0661223e-07
-1.3139588e-06
1.029343e-07
-1.3471894e-06
9.8985968e-08
-1.3790371e-06
9.4773221e-08
-1.4094157e-06
9.0302672e-08
-1.4382413e-06
8.5581572e-08
-1.4654329e-06
8.0617793e-08
-1.490912e-06
7.5419807e-08
-1.5146034e-06
6.9996673e-08
-1.5364348e-06
6.4358014e-08
-1.5563375e-06
5.8513999e-08
-1.5742463e-06
5.2475322e-08
-1.5900997e-06
4.6253175e-08
-1.6038401e-06
3.9859229e-08
-1.615414e-06
3.3305604e-08
-1.6247719e-06
2.6604835e-08
-1.6318688e-06
1.9769883e-08
-1.636664e-06
1.2814039e-08
-1.6391214e-06
5.7509528e-09
-1.6392095e-06
-1.4054176e-09
-1.6369016e-06
-8.640843e-09
-1.6321759e-06
-1.5940847e-08
-1.6250152e-06
-2.329074e-08
-1.6154076e-06
-3.0675654e-08
-1.6033459e-06
-3.8080578e-08
-1.5888282e-06
-4.5490388e-08
-1.5718575e-06
-5.2889884e-08
-1.5524419e-06
-6.0263825e-08
-1.5305946e-06
-6.7596963e-08
-1.506334e-06
-7.4874079e-08
-1.4796832e-06
-8.2080018e-08
-1.4506707e-06
-8.9199724e-08
-1.4193297e-06
-9.6218275e-08
-1.3856986e-06
-1.0312092e-07
-1.3498203e-06
-1.098931e-07
-1.3117427e-06
-1.1652052e-07
-1.2715184e-06
-1.2298912e-07
-1.2292044e-06
-1.2928518e-07
-1.1848623e-06
-1.3539529e-07
-1.1385581e-06
-1.4130642e-07
-1.0903618e-06
-1.4700594e-07
-1.0403476e-06
-1.5248166e-07
-9.8859373e-07
-1.5772182e-07
-9.3518193e-07
-1.6271517e-07
-8.8019768e-07
-1.6745098e-07
-8.2372981e-07
-1.7191903e-07
-7.6587038e-07
-1.7610969e-07
-7.0671445e-07
-1.8001392e-07
-6.4635991e-07
-1.8362325e-07
-5.8490724e-07
-1.869299e-07
-5.2245933e-07
-1.8992669e-07
-4.591212e-07
-1.9260712e-07
-3.9499986e-07
-1.9496538e-07
-3.3020397e-07
-1.9699635e-07
-2.648437e-07
-1.9869561e-07
-1.9903044e-07
-2.0005948e-07
-1.3287658e-07
-2.0108499e-07
-6.6495223e-08
-2.017699e-07
-5.5159009e-16
-2.0211273e-07
6.6495222e-08
-2.0211273e-07
1.3287658e-07
-2.017699e-07
1.9903044e-07
-2.0108499e-07
2.648437e-07
-2.0005948e-07
3.3020397e-07
-1.9869561e-07
3.9499985e-07
-1.9699635e-07
4.591212e-07
-1.9496538e-07
5.2245933e-07
-1.9260712e-07
5.8490724e-07
-1.8992669e-07
6.4635991e-07
-1.869299e-07
7.0671445e-07
-1.8362325e-07
7.6587038e-07
-1.8001392e-07
8.2372981e-07
-1.7610969e-07
8.8019768e-07
-1.7191903e-07
9.3518193e-07
-1.6745098e-07
9.8859373e-07
-1.6271517e-07
1.0403476e-06
-1.5772182e-07
1.0903618e-06
-1.5248166e-07
1.1385581e-06
-1.4700594e-07
1.1848623e-06
-1.4130642e-07
1.2292044e-06
-1.3539529e-07
1.2715184e-06
-1.2928518e-07
1.3117427e-06
-1.2298912e-07
1.3498203e-06
-1.1652052e-07
1.3856986e-06
-1.098931e-07
1.4193297e-06
-1.0312092e-07
1.4506707e-06
-9.6218276e-08
1.4796832e-06
-8.9199725e-08
1.506334e-06
-8.2080019e-08
1.5305946e-06
-7.487408e-08
1.5524419e-06
-6.7596964e-08
1.5718575e-06
-6.0263825e-08
1.5888282e-06
-5.2889884e-08
1.6033459e-06
-4.5490388e-08
1.6154076e-06
-3.8080579e-08
1.6250152e-06
-3.0675655e-08
1.6321759e-06
-2.329074e-08
1.6369016e-06
-1.5940847e-08
1.6392095e-06
-8.6408435e-09
1.6391214e-06
-1.4054181e-09
1.636664e-06
5.7509523e-09
1.6318688e-06
1.2814038e-08
1.6247719e-06
1.9769882e-08
1.615414e-06
2.6604835e-08
1.6038401e-06
3.3305604e-08
1.5900997e-06
3.9859228e-08
1.5742463e-06
4.6253174e-08
1.5563375e-06
5.2475321e-08
1.5364348e-06
5.8513998e-08
1.5146034e-06
6.4358013e-08
1.490912e-06
6.9996672e-08
1.4654329e-06
7.5419807e-08
1.4382413e-06
8.0617793e-08
1.4094157e-06
8.5581572e-08
1.3790371e-06
9.0302671e-08
1.3471894e-06
9.477322e-08
1.3139588e-06
9.8985967e-08
1.2794336e-06
1.029343e-07
1.2437042e-06
1.0661223e-07
1.2068628e-06
1.1001447e-07
1.169003e-06
1.1313637e-07
1.1302198e-06
1.1597396e-07
1.0906092e-06
1.1852398e-07
1.0502682e-06
1.2078383e-07
1.0092942e-06
1.2275162e-07
9.6778514e-07
1.2442616e-07
9.2583912e-07
1.2580697e-07
8.8355409e-07
1.2689423e-07
8.4102771e-07
1.2768886e-07
7.983571e-07
1.2819244e-07
7.5563858e-07
1.2840725e-07
7.129675e-07
1.2833625e-07
6.7043798e-07
1.2798307e-07
6.2814269e-07
1.2735198e-07
5.8617265e-07
1.2644791e-07
5.4461698e-07
1.2527645e-07
5.0356276e-07
1.2384376e-07
4.6309476e-07
1.2215664e-07
4.232953e-07
1.2022247e-07
3.8424401e-07
1.1804917e-07
3.460177e-07
1.1564524e-07
3.0869013e-07
1.1301969e-07
2.7233191e-07
1.1018203e-07
2.3701027e-07
1.0714223e-07
2.0278895e-07
1.0391074e-07
1.6972806e-07
1.0049842e-07
1.3788395e-07
9.6916515e-08
1.0730904e-07
9.3176672e-08
7.8051765e-08
8.9290845e-08
5.0156456e-08
8.5271302e-08
2.3663235e-08
8.1130599e-08
-1.3920787e-09
7.6881556e-08
-2.4977974e-08
7.2537128e-08
-4.7067313e-08
6.8110486e-08
-6.7637354e-08
6.3614986e-08
-8.6671033e-08
5.9064598e-08
-1.0415368e-07
5.4471765e-08
-1.2007651e-07
4.9850753e-08
-1.3443612e-07
4.521505e-08
-1.4723532e-07
4.0578036e-08
-1.5846612e-07
3.5957019e-08
-1.6815022e-07
3.1358728e-08
-1.7629829e-07
2.6799319e-08
-1.8292747e-07
2.2292344e-08
-1.8805996e-07
1.7850806e-08
-1.9172232e-07
1.3487305e-08
-1.939454e-07
9.2142966e-09
-1.9476384e-07
5.0438222e-09
-1.9421631e-07
9.8790822e-10
-1.9234553e-07
-2.9420402e-09
-1.8919778e-07
-6.7348792e-09
-1.8482321e-07
-1.0379881e-08
-1.7927409e-07
-1.3866605e-08
-1.726087e-07
-1.7185807e-08
-1.648856e-07
-2.0327468e-08
-1.5616801e-07
-2.3283121e-08
-1.4652112e-07
-2.6044428e-08
-1.3601325e-07
-2.8603411e-08
-1.2471478e-07
-3.0953249e-08
-1.1269822e-07
-3.3087371e-08
-1.0003839e-07
-3.4999327e-08
-8.6811786e-08
-3.668433e-08
-7.3096287e-08
-3.8137472e-08
-5.8971403e-08
-3.935454e-08
-4.4517542e-08
-4.0332393e-08
-2.9816233e-08
-4.1068092e-08
-1.4949531e-08
-4.1559736e-08
-4.1805887e-08
1.6753583e-08
-5.8559459e-08
3.3423076e-08
-5.822923e-08
4.992467e-08
-5.7569684e-08
6.6174934e-08
-5.6582658e-08
8.2091219e-08
-5.5270825e-08
9.7591974e-08
-5.3638226e-08
1.1259615e-07
-5.1688503e-08
1.2702479e-07
-4.9427967e-08
1.4079997e-07
-4.6862555e-08
1.5384619e-07
-4.3999472e-08
1.6608929e-07
-4.0846505e-08
1.7745756e-07
-3.7412701e-08
1.8788192e-07
-3.3707483e-08
1.9729565e-07
-2.9741193e-08
2.0563491e-07
-2.5525072e-08
2.1283889e-07
-2.1070579e-08
2.1884974e-07
-1.6390729e-08
2.2361295e-07
-1.1498094e-08
2.2707765e-07
-6.4067388e-09
2.2919645e-07
-1.1308928e-09
2.2992571e-07
4.31457e-09
2.2922575e-07
9.9142485e-09
2.2706072e-07
1.5652337e-08
2.2339898e-07
2.151255e-08
2.1821308e-07
2.7478243e-08
2.1148e-07
3.3532404e-08
2.0318104e-07
3.9657685e-08
1.9330176e-07
4.5836303e-08
1.8182991e-07
5.2049887e-08
1.6876295e-07
5.8282008e-08
1.5409933e-07
6.4514377e-08
1.3784271e-07
7.0728384e-08
1.2000149e-07
7.6905816e-08
1.0058803e-07
8.3028442e-08
7.9620155e-08
8.9078365e-08
5.7119754e-08
9.503753e-08
3.3113238e-08
1.0088807e-07
7.631511e-09
1.0661233e-07
-1.9290179e-08
1.1219299e-07
-4.7612214e-08
1.1761288e-07
-7.7290732e-08
1.2285519e-07
-1.0827776e-07
1.2790354e-07
-1.4052131e-07
1.3274197e-07
-1.7396541e-07
1.3735485e-07
-2.0855033e-07
1.4172715e-07
-2.4421265e-07
1.4584435e-07
-2.8088545e-07
1.4969249e-07
-3.1849841e-07
1.532582e-07
-3.5697799e-07
1.5652875e-07
-3.9624761e-07
1.5949209e-07
-4.3622783e-07
1.6213686e-07
-4.7683649e-07
1.6445242e-07
-5.1798893e-07
1.6642889e-07
-5.595982e-07
1.6805719e-07
-6.0157524e-07
1.6932901e-07
-6.4382906e-07
1.7023689e-07
-6.8626703e-07
1.7077422e-07
-7.2879502e-07
1.7093524e-07
-7.7131765e-07
1.7071507e-07
-8.1373852e-07
1.7010973e-07
-8.5596044e-07
1.6911615e-07
-8.9788563e-07
1.6773216e-07
-9.3941598e-07
1.6595652e-07
-9.8045328e-07
1.6378892e-07
-1.0208994e-06
1.6122998e-07
-1.0606567e-06
1.5828126e-07
-1.099628e-06
1.5494524e-07
-1.137717e-06
1.5122534e-07
-1.1748284e-06
1.4712588e-07
-1.2108683e-06
1.4265211e-07
-1.2457442e-06
1.378102e-07
-1.2793654e-06
1.3260719e-07
-1.3116432e-06
1.2705101e-07
-1.3424909e-06
1.2115044e-07
-1.3718245e-06
1.1491514e-07
-1.3995623e-06
1.0835557e-07
-1.4256255e-06
1.0148299e-07
-1.4499383e-06
9.4309456e-08
-1.472428e-06
8.6847774e-08
-1.4930255e-06
7.9111478e-08
-1.511665e-06
7.1114799e-08
-1.5282844e-06
6.2872638e-08
-1.5428257e-06
5.440053e-08
-1.5552348e-06
4.5714626e-08
-1.5654615e-06
3.6831598e-08
-1.5734604e-06
2.7768715e-08
-1.57919e-06
1.8543688e-08
-1.5826137e-06
9.1746847e-09
-1.5836994e-06
-3.1970705e-10
-1.5824198e-06
-9.9205146e-09
-1.5787522e-06
-1.960846e-08
-1.5726789e-06
-2.9363974e-08
-1.5641873e-06
-3.9167248e-08
-1.5532696e-06
-4.899828e-08
-1.5399231e-06
-5.8836919e-08
-1.5241501e-06
-6.8662912e-08
-1.5059579e-06
-7.8455948e-08
-1.4853592e-06
-8.819571e-08
-1.4623714e-06
-9.7861914e-08
-1.437017e-06
-1.0743437e-07
-1.4093237e-06
-1.16893e-07
-1.3793241e-06
-1.2621792e-07
-1.3470555e-06
-1.3538948e-07
-1.3125604e-06
-1.4438827e-07
-1.2758856e-06
-1.5319523e-07
-1.2370831e-06
-1.6179164e-07
-1.1962091e-06
-1.7015918e-07
-1.1533244e-06
-1.7828001e-07
-1.1084941e-06
-1.8613674e-07
-1.0617875e-06
-1.9371255e-07
-1.013278e-06
-2.0099116e-07
-9.6304285e-07
-2.0795693e-07
-9.1116317e-07
-2.1459485e-07
-8.5772355e-07
-2.208906e-07
-8.02812e-07
-2.2683059e-07
-7.4651974e-07
-2.3240195e-07
-6.8894102e-07
-2.3759263e-07
-6.301729e-07
-2.4239138e-07
-5.7031503e-07
-2.4678777e-07
-5.0946945e-07
-2.5077226e-07
-4.4774037e-07
-2.5433619e-07
-3.8523394e-07
-2.5747181e-07
-3.2205801e-07
-2.6017228e-07
-2.5832189e-07
-2.6243173e-07
-1.9413615e-07
-2.6424523e-07
-1.2961231e-07
-2.6560882e-07
-6.4862671e-08
-2.6651954e-07
-5.7898314e-16
-2.669754e-07
6.486267e-08
-2.669754e-07
1.2961231e-07
-2.6651954e-07
1.9413615e-07
-2.6560882e-07
2.5832189e-07
-2.6424523e-07
3.2205801e-07
-2.6243173e-07
3.8523394e-07
-2.6017228e-07
4.4774037e-07
-2.5747181e-07
5.0946945e-07
-2.543362e-07
5.7031503e-07
-2.5077226e-07
6.301729e-07
-2.4678777e-07
6.8894102e-07
-2.4239138e-07
7.4651974e-07
-2.3759263e-07
8.02812e-07
-2.3240195e-07
8.5772355e-07
-2.2683059e-07
9.1116317e-07
-2.208906e-07
9.6304285e-07
-2.1459485e-07
1.013278e-06
-2.0795693e-07
1.0617875e-06
-2.0099116e-07
1.1084941e-06
-1.9371255e-07
1.1533244e-06
-1.8613674e-07
1.1962091e-06
-1.7828001e-07
1.2370831e-06
-1.7015918e-07
1.2758856e-06
-1.6179164e-07
1.3125604e-06
-1.5319523e-07
1.3470555e-06
-1.4438827e-07
1.3793241e-06
-1.3538948e-07
1.4093237e-06
-1.2621792e-07
1.437017e-06
-1.16893e-07
1.4623714e-06
-1.0743437e-07
1.4853592e-06
-9.7861915e-08
1.5059579e-06
-8.8195711e-08
1.5241501e-06
-7.8455949e-08
1.5399231e-06
-6.8662913e-08
1.5532696e-06
-5.883692e-08
1.5641873e-06
-4.8998281e-08
1.5726789e-06
-3.9167249e-08
1.5787522e-06
-2.9363975e-08
1.5824198e-06
-1.9608461e-08
1.5836994e-06
-9.9205154e-09
1.5826137e-06
-3.1970781e-10
1.57919e-06
9.1746839e-09
1.5734604e-06
1.8543688e-08
1.5654615e-06
2.7768714e-08
1.5552348e-06
3.6831597e-08
1.5428257e-06
4.5714625e-08
1.5282844e-06
5.440053e-08
1.511665e-06
6.2872638e-08
1.4930255e-06
7.1114799e-08
1.472428e-06
7.9111477e-08
1.4499383e-06
8.6847774e-08
1.4256255e-06
9.4309455e-08
1.3995623e-06
1.0148299e-07
1.3718245e-06
1.0835557e-07
1.3424909e-06
1.1491514e-07
1.3116432e-06
1.2115044e-07
1.2793654e-06
1.27051e-07
1.2457442e-06
1.3260719e-07
1.2108683e-06
1.378102e-07
1.1748284e-06
1.4265211e-07
1.137717e-06
1.4712588e-07
1.099628e-06
1.5122534e-07
1.0606567e-06
1.5494524e-07
1.0208994e-06
1.5828126e-07
9.8045328e-07
1.6122998e-07
9.3941598e-07
1.6378892e-07
8.9788563e-07
1.6595652e-07
8.5596044e-07
1.6773216e-07
8.1373852e-07
1.6911615e-07
7.7131765e-07
1.7010973e-07
7.2879502e-07
1.7071507e-07
6.8626703e-07
1.7093524e-07
6.4382906e-07
1.7077422e-07
6.0157524e-07
1.7023689e-07
5.595982e-07
1.6932901e-07
5.1798893e-07
1.6805718e-07
4.7683649e-07
1.6642889e-07
4.3622783e-07
1.6445242e-07
3.9624762e-07
1.6213686e-07
3.5697799e-07
1.5949209e-07
3.1849841e-07
1.5652875e-07
2.8088545e-07
1.532582e-07
2.4421265e-07
1.4969249e-07
2.0855033e-07
1.4584435e-07
1.7396541e-07
1.4172715e-07
1.4052131e-07
1.3735485e-07
1.0827776e-07
1.3274197e-07
7.7290733e-08
1.2790354e-07
4.7612215e-08
1.2285519e-07
1.929018e-08
1.1761288e-07
-7.6315099e-09
1.1219299e-07
-3.3113237e-08
1.0661233e-07
-5.7119753e-08
1.0088807e-07
-7.9620154e-08
9.5037528e-08
-1.0058803e-07
8.9078363e-08
-1.2000149e-07
8.3028441e-08
-1.3784271e-07
7.6905815e-08
-1.5409932e-07
7.0728382e-08
-1.6876295e-07
6.4514376e-08
-1.818299e-07
5.8282007e-08
-1.9330176e-07
5.2049886e-08
-2.0318104e-07
4.5836301e-08
-2.1148e-07
3.9657684e-08
-2.1821308e-07
3.3532403e-08
-2.2339898e-07
2.7478242e-08
-2.2706072e-07
2.1512548e-08
-2.2922575e-07
1.5652335e-08
-2.299257e-07
9.9142474e-09
-2.2919645e-07
4.314569e-09
-2.2707765e-07
-1.1308939e-09
-2.2361295e-07
-6.4067398e-09
-2.1884974e-07
-1.1498095e-08
-2.1283889e-07
-1.639073e-08
-2.0563491e-07
-2.107058e-08
-1.9729565e-07
-2.5525073e-08
-1.8788192e-07
-2.9741194e-08
-1.7745756e-07
-3.3707484e-08
-1.6608929e-07
-3.7412702e-08