/*--------------------------------*- C++ -*----------------------------------*\
| =========                 |                                                 |
| \\      /  F ield         | OpenFOAM: The Open Source CFD Toolbox           |
|  \\    /   O peration     | Version:  2106                                  |
|   \\  /    A nd           | Website:  www.openfoam.com                      |
|    \\/     M anipulation  |                                                 |
\*---------------------------------------------------------------------------*/
FoamFile
{
    version     2.0;
    format      ascii;
    arch        "LSB;label=32;scalar=64";
    class       volScalarField;
    location    "0.035";
    object      p;
}
// * * * * * * * * * * * * * * * * * * * * * * * * * * * * * * * * * * * * * //

dimensions      [1 -1 -2 0 0 0 0];

internalField   nonuniform List<scalar> 
65536
(
-5.4107462
-5.4074877
-5.4009725
-5.3912046
-5.3781899
-5.3619362
-5.3424534
-5.319753
-5.2938489
-5.2647565
-5.2324933
-5.1970789
-5.1585345
-5.1168833
-5.0721503
-5.0243625
-4.9735487
-4.9197393
-4.8629669
-4.8032656
-4.7406712
-4.6752216
-4.606956
-4.5359155
-4.462143
-4.3856828
-4.3065809
-4.224885
-4.1406442
-4.0539093
-3.9647324
-3.8731672
-3.7792689
-3.683094
-3.5847004
-3.4841473
-3.3814953
-3.2768061
-3.1701429
-3.0615697
-2.9511521
-2.8389565
-2.7250504
-2.6095024
-2.4923822
-2.3737602
-2.253708
-2.1322977
-2.0096025
-1.8856963
-1.7606537
-1.6345501
-1.5074614
-1.3794641
-1.2506354
-1.1210528
-0.99079434
-0.85993858
-0.72856429
-0.59675061
-0.46457696
-0.33212295
-0.19946838
-0.066693157
0.066122726
0.19889926
0.33155644
0.46401435
0.59619318
0.72801336
0.8593954
0.99026015
1.1205288
1.2501228
1.3789641
1.5069752
1.6340787
1.7601983
1.8852578
2.0091819
2.1318961
2.2533262
2.3733992
2.4920427
2.6091853
2.7247562
2.838686
2.950906
3.0613484
3.1699469
3.276636
3.3813513
3.4840298
3.5846096
3.6830301
3.779232
3.8731574
3.9647496
4.0539534
4.1407152
4.2249826
4.3067049
4.3858328
4.4623186
4.5361163
4.6071813
4.675471
4.740944
4.803561
4.8632843
4.9200779
4.9739074
5.0247406
5.0725468
5.1172971
5.1589646
5.1975243
5.2329528
5.2652289
5.294333
5.3202476
5.3429572
5.3624481
5.3787084
5.3917285
5.4015004
5.4080182
5.4112782
5.4112782
5.4080182
5.4015004
5.3917285
5.3787084
5.3624481
5.3429572
5.3202476
5.294333
5.2652289
5.2329528
5.1975243
5.1589646
5.1172971
5.0725468
5.0247406
4.9739074
4.9200779
4.8632843
4.803561
4.740944
4.675471
4.6071813
4.5361163
4.4623186
4.3858328
4.3067049
4.2249826
4.1407152
4.0539534
3.9647496
3.8731574
3.779232
3.6830301
3.5846096
3.4840298
3.3813513
3.276636
3.1699469
3.0613484
2.950906
2.838686
2.7247562
2.6091853
2.4920427
2.3733992
2.2533262
2.1318961
2.0091819
1.8852578
1.7601983
1.6340787
1.5069752
1.3789641
1.2501228
1.1205288
0.99026015
0.8593954
0.72801336
0.59619319
0.46401435
0.33155644
0.19889926
0.066122728
-0.066693156
-0.19946838
-0.33212295
-0.46457696
-0.59675061
-0.72856428
-0.85993857
-0.99079434
-1.1210528
-1.2506354
-1.3794641
-1.5074614
-1.6345501
-1.7606537
-1.8856963
-2.0096025
-2.1322977
-2.253708
-2.3737602
-2.4923822
-2.6095024
-2.7250504
-2.8389565
-2.9511521
-3.0615697
-3.1701429
-3.2768061
-3.3814953
-3.4841473
-3.5847004
-3.683094
-3.7792689
-3.8731672
-3.9647324
-4.0539093
-4.1406442
-4.224885
-4.3065809
-4.3856828
-4.462143
-4.5359155
-4.606956
-4.6752216
-4.7406712
-4.8032656
-4.8629669
-4.9197393
-4.9735487
-5.0243625
-5.0721503
-5.1168833
-5.1585345
-5.1970789
-5.2324933
-5.2647565
-5.2938489
-5.319753
-5.3424534
-5.3619362
-5.3781899
-5.3912046
-5.4009725
-5.4074877
-5.4107462
-5.4139924
-5.4107319
-5.4042128
-5.394439
-5.3814165
-5.365153
-5.3456583
-5.3229443
-5.2970244
-5.2679145
-5.2356319
-5.200196
-5.1616283
-5.119952
-5.075192
-5.0273753
-4.9765308
-4.922689
-4.8658823
-4.8061449
-4.7435128
-4.6780236
-4.6097168
-4.5386335
-4.4648165
-4.3883101
-4.3091605
-4.2274154
-4.1431238
-4.0563365
-3.9671059
-3.8754855
-3.7815307
-3.6852978
-3.5868449
-3.4862312
-3.3835174
-3.2787652
-3.1720377
-3.0633992
-2.9529152
-2.840652
-2.7266774
-2.61106
-2.4938693
-2.375176
-2.2550516
-2.1335683
-2.0107994
-1.8868188
-1.7617012
-1.6355218
-1.5083568
-1.3802827
-1.2513767
-1.1217163
-0.9913798
-0.86044558
-0.72899254
-0.59709987
-0.46484702
-0.33231367
-0.19957965
-0.066724935
0.06617045
0.19902644
0.33176299
0.46430014
0.59655806
0.728457
0.85991755
0.9908605
1.121207
1.2508784
1.3797966
1.5078841
1.6350635
1.7612583
1.8863924
2.0103905
2.1331777
2.2546803
2.3748248
2.493539
2.6107513
2.7263911
2.8403887
2.9526755
3.0631837
3.1718468
3.2785993
3.3833769
3.4861164
3.586756
3.685235
3.7814941
3.8754753
3.9671219
4.0563787
4.143192
4.2275094
4.3092802
4.388455
4.4649862
4.5388277
4.6099349
4.678265
4.7437769
4.8064311
4.8661897
4.9230169
4.9768784
5.0277417
5.0755762
5.120353
5.1620453
5.2006278
5.2360773
5.2683724
5.2974938
5.3234238
5.3461468
5.3656492
5.3819192
5.3949469
5.4047246
5.4112464
5.4145082
5.4145082
5.4112464
5.4047246
5.3949469
5.3819192
5.3656492
5.3461468
5.3234238
5.2974938
5.2683724
5.2360773
5.2006278
5.1620453
5.120353
5.0755762
5.0277417
4.9768784
4.9230169
4.8661897
4.8064311
4.7437769
4.678265
4.6099349
4.5388277
4.4649862
4.388455
4.3092802
4.2275094
4.143192
4.0563787
3.9671219
3.8754753
3.7814941
3.685235
3.586756
3.4861164
3.3833769
3.2785993
3.1718468
3.0631837
2.9526755
2.8403887
2.7263911
2.6107513
2.493539
2.3748248
2.2546803
2.1331777
2.0103905
1.8863924
1.7612583
1.6350635
1.5078841
1.3797966
1.2508784
1.121207
0.9908605
0.85991755
0.728457
0.59655806
0.46430014
0.33176299
0.19902644
0.066170451
-0.066724934
-0.19957965
-0.33231367
-0.46484702
-0.59709987
-0.72899254
-0.86044558
-0.9913798
-1.1217163
-1.2513767
-1.3802827
-1.5083568
-1.6355218
-1.7617012
-1.8868188
-2.0107994
-2.1335683
-2.2550516
-2.375176
-2.4938693
-2.61106
-2.7266774
-2.840652
-2.9529152
-3.0633992
-3.1720377
-3.2787652
-3.3835174
-3.4862312
-3.5868449
-3.6852978
-3.7815307
-3.8754855
-3.9671059
-4.0563365
-4.1431238
-4.2274154
-4.3091605
-4.3883101
-4.4648165
-4.5386335
-4.6097168
-4.6780236
-4.7435128
-4.8061449
-4.8658823
-4.922689
-4.9765308
-5.0273753
-5.075192
-5.1199519
-5.1616283
-5.200196
-5.2356319
-5.2679145
-5.2970244
-5.3229443
-5.3456583
-5.365153
-5.3814165
-5.394439
-5.4042128
-5.4107319
-5.4139924
-5.4205044
-5.4172399
-5.4107129
-5.4009274
-5.3878891
-5.371606
-5.3520879
-5.3293464
-5.3033954
-5.2742503
-5.2419288
-5.2064502
-5.167836
-5.1261094
-5.0812954
-5.0334211
-4.9825153
-4.9286086
-4.8717334
-4.811924
-4.7492164
-4.6836483
-4.6152592
-4.5440902
-4.4701842
-4.3935856
-4.3143407
-4.232497
-4.1481038
-4.061212
-3.9718738
-3.8801431
-3.786075
-3.6897262
-3.5911547
-3.4904198
-3.3875823
-3.2827039
-3.1758479
-3.0670786
-2.9564615
-2.8440632
-2.7299513
-2.6141947
-2.4968629
-2.3780268
-2.2577577
-2.1361282
-2.0132116
-1.8890818
-1.7638136
-1.6374824
-1.5101644
-1.3819362
-1.2528751
-1.1230588
-0.9925655
-0.8614738
-0.72986269
-0.59781143
-0.46539957
-0.33270689
-0.19981331
-0.066798904
0.066256204
0.19927185
0.33216791
0.4648643
0.5972811
0.7293385
0.86095696
0.99205718
1.1225602
1.2523873
1.3814604
1.5097016
1.6370337
1.7633799
1.8886642
2.0128111
2.1357457
2.2573941
2.3776828
2.4965394
2.6138923
2.7296708
2.8438051
2.9562265
3.0668672
3.1756606
3.2825411
3.3874442
3.4903069
3.5910671
3.6896642
3.7860386
3.8801324
3.9718888
4.0612526
4.1481698
4.2325883
4.314457
4.3937266
4.4703495
4.5442794
4.6154717
4.6838837
4.749474
4.8122032
4.8720334
4.9289286
4.9828545
5.0337787
5.0816705
5.1265009
5.168243
5.2068717
5.2423636
5.2746974
5.3038536
5.3298147
5.3525649
5.3720906
5.38838
5.4014234
5.4112128
5.4177423
5.4210081
5.4210081
5.4177423
5.4112128
5.4014234
5.38838
5.3720906
5.3525649
5.3298147
5.3038536
5.2746974
5.2423636
5.2068717
5.168243
5.1265009
5.0816705
5.0337787
4.9828545
4.9289286
4.8720334
4.8122032
4.749474
4.6838837
4.6154717
4.5442794
4.4703495
4.3937266
4.314457
4.2325883
4.1481698
4.0612526
3.9718888
3.8801324
3.7860386
3.6896642
3.5910671
3.4903069
3.3874442
3.2825411
3.1756606
3.0668672
2.9562265
2.8438051
2.7296708
2.6138923
2.4965394
2.3776828
2.2573941
2.1357457
2.0128111
1.8886643
1.7633799
1.6370337
1.5097016
1.3814604
1.2523873
1.1225602
0.99205719
0.86095697
0.7293385
0.5972811
0.4648643
0.33216791
0.19927185
0.066256205
-0.066798902
-0.19981331
-0.33270689
-0.46539957
-0.59781143
-0.72986269
-0.8614738
-0.9925655
-1.1230588
-1.2528751
-1.3819362
-1.5101644
-1.6374824
-1.7638136
-1.8890818
-2.0132116
-2.1361282
-2.2577577
-2.3780268
-2.4968629
-2.6141947
-2.7299513
-2.8440631
-2.9564615
-3.0670786
-3.1758479
-3.2827039
-3.3875823
-3.4904198
-3.5911547
-3.6897262
-3.786075
-3.8801431
-3.9718738
-4.061212
-4.1481038
-4.232497
-4.3143407
-4.3935856
-4.4701842
-4.5440902
-4.6152592
-4.6836483
-4.7492164
-4.811924
-4.8717334
-4.9286086
-4.9825153
-5.0334211
-5.0812954
-5.1261094
-5.167836
-5.2064502
-5.2419288
-5.2742503
-5.3033954
-5.3293464
-5.3520879
-5.371606
-5.3878891
-5.4009274
-5.4107129
-5.4172399
-5.4205044
-5.4302778
-5.4270075
-5.4204687
-5.4106655
-5.3976037
-5.3812912
-5.3617378
-5.3389553
-5.3129574
-5.2837597
-5.2513798
-5.2158372
-5.1771533
-5.1353514
-5.0904565
-5.0424958
-4.9914981
-4.9374941
-4.8805162
-4.8205989
-4.7577781
-4.6920916
-4.6235791
-4.5522816
-4.4782422
-4.4015054
-4.3221174
-4.240126
-4.1555806
-4.0685319
-3.9790325
-3.8871363
-3.7928984
-3.6963758
-3.5976264
-3.4967098
-3.3936866
-3.288619
-3.1815702
-3.0726047
-2.961788
-2.8491868
-2.7348691
-2.6189037
-2.5013603
-2.3823097
-2.2618237
-2.1399749
-2.0168365
-1.8924828
-1.7669886
-1.6404296
-1.512882
-1.3844226
-1.2551287
-1.1250784
-0.99434975
-0.86302169
-0.73117328
-0.59888395
-0.46623338
-0.33330149
-0.20016836
-0.066914192
0.066380738
0.19963613
0.33277169
0.46570722
0.59836264
0.730658
0.86251362
0.99385005
1.1245882
1.2546492
1.3839548
1.512427
1.6399884
1.7665623
1.8920722
2.0164426
2.1395987
2.261466
2.3819713
2.5010419
2.6186061
2.734593
2.8489328
2.9615566
3.0723964
3.1813856
3.2884585
3.3935504
3.4965982
3.5975398
3.6963142
3.792862
3.8871251
3.9790466
4.0685711
4.1556448
4.240215
4.322231
4.4016433
4.4784039
4.5524668
4.6237872
4.6923221
4.7580304
4.8208724
4.8808102
4.9378077
4.9918306
5.0428464
5.0908242
5.1357352
5.1775524
5.2162505
5.2518063
5.2841982
5.3134068
5.3394145
5.3622056
5.3817665
5.3980852
5.411152
5.4209589
5.4275002
5.4307718
5.4307718
5.4275002
5.4209589
5.411152
5.3980852
5.3817665
5.3622056
5.3394145
5.3134068
5.2841982
5.2518063
5.2162505
5.1775524
5.1357352
5.0908242
5.0428464
4.9918306
4.9378077
4.8808102
4.8208724
4.7580304
4.6923221
4.6237872
4.5524668
4.4784039
4.4016433
4.322231
4.2402151
4.1556448
4.0685711
3.9790466
3.8871251
3.792862
3.6963142
3.5975398
3.4965982
3.3935504
3.2884585
3.1813856
3.0723964
2.9615566
2.8489328
2.734593
2.6186061
2.5010419
2.3819713
2.261466
2.1395987
2.0164426
1.8920722
1.7665623
1.6399884
1.512427
1.3839548
1.2546492
1.1245882
0.99385005
0.86251362
0.730658
0.59836264
0.46570723
0.33277169
0.19963613
0.066380739
-0.066914191
-0.20016836
-0.33330149
-0.46623338
-0.59888395
-0.73117328
-0.86302169
-0.99434975
-1.1250784
-1.2551287
-1.3844226
-1.512882
-1.6404296
-1.7669886
-1.8924828
-2.0168365
-2.1399749
-2.2618237
-2.3823097
-2.5013603
-2.6189037
-2.7348691
-2.8491868
-2.961788
-3.0726047
-3.1815702
-3.288619
-3.3936866
-3.4967098
-3.5976264
-3.6963758
-3.7928984
-3.8871363
-3.9790325
-4.0685319
-4.1555806
-4.240126
-4.3221174
-4.4015054
-4.4782422
-4.5522816
-4.6235791
-4.6920916
-4.7577781
-4.8205989
-4.8805162
-4.9374941
-4.9914981
-5.0424958
-5.0904565
-5.1353514
-5.1771533
-5.2158372
-5.2513798
-5.2837597
-5.3129574
-5.3389553
-5.3617378
-5.3812912
-5.3976037
-5.4106655
-5.4204687
-5.4270075
-5.4302778
-5.4433201
-5.4400419
-5.4334874
-5.4236606
-5.4105675
-5.3942158
-5.3746154
-5.3517781
-5.3257177
-5.2964499
-5.2639922
-5.2283642
-5.1895873
-5.1476849
-5.1026821
-5.0546061
-5.0034859
-4.949352
-4.8922373
-4.8321759
-4.7692041
-4.7033598
-4.6346826
-4.5632138
-4.4889965
-4.4120752
-4.3324965
-4.250308
-4.1655594
-4.0783015
-3.9885871
-3.8964699
-3.8020056
-3.705251
-3.6062643
-3.5051052
-3.4018345
-3.2965144
-3.1892084
-3.079981
-2.968898
-2.8560263
-2.7414339
-2.6251898
-2.507364
-2.3880274
-2.267252
-2.1451103
-2.0216761
-1.8970237
-1.771228
-1.644365
-1.516511
-1.387743
-1.2581386
-1.1277758
-0.99673316
-0.86508966
-0.73292458
-0.60031751
-0.46734836
-0.33409722
-0.20064437
-0.067070195
0.066544824
0.20012019
0.33357544
0.46683016
0.59980408
0.73241707
0.86458925
0.99624098
1.1272929
1.2576662
1.3872821
1.5160627
1.6439303
1.770808
1.8966191
2.0212881
2.1447396
2.2668994
2.3876939
2.5070502
2.6248964
2.7411617
2.8557758
2.9686697
3.0797755
3.1890261
3.2963558
3.4016998
3.5049948
3.6061784
3.7051898
3.8019691
3.8964583
3.9886002
4.0783394
4.1656218
4.2503949
4.3326075
4.4122101
4.4891548
4.5633953
4.6348866
4.7035859
4.7694517
4.8324443
4.8925258
4.9496599
5.0038123
5.0549504
5.1030432
5.1480619
5.1899793
5.2287701
5.2644111
5.2968807
5.3261593
5.3522293
5.3750751
5.3946828
5.4110406
5.4241387
5.4339692
5.4405261
5.4438056
5.4438056
5.4405261
5.4339692
5.4241387
5.4110406
5.3946828
5.3750751
5.3522293
5.3261593
5.2968807
5.2644111
5.2287701
5.1899793
5.1480619
5.1030432
5.0549504
5.0038123
4.9496599
4.8925258
4.8324443
4.7694517
4.7035859
4.6348866
4.5633953
4.4891549
4.4122101
4.3326075
4.2503949
4.1656218
4.0783394
3.9886002
3.8964583
3.8019691
3.7051898
3.6061784
3.5049948
3.4016998
3.2963558
3.1890261
3.0797755
2.9686697
2.8557758
2.7411617
2.6248964
2.5070502
2.3876939
2.2668994
2.1447396
2.0212881
1.8966191
1.770808
1.6439303
1.5160627
1.3872821
1.2576662
1.1272929
0.99624098
0.86458925
0.73241707
0.59980408
0.46683016
0.33357544
0.20012019
0.066544825
-0.067070194
-0.20064437
-0.33409722
-0.46734836
-0.60031751
-0.73292457
-0.86508966
-0.99673316
-1.1277758
-1.2581386
-1.387743
-1.516511
-1.644365
-1.771228
-1.8970237
-2.0216761
-2.1451103
-2.267252
-2.3880274
-2.507364
-2.6251898
-2.7414339
-2.8560263
-2.968898
-3.079981
-3.1892084
-3.2965144
-3.4018345
-3.5051052
-3.6062643
-3.705251
-3.8020056
-3.8964699
-3.9885871
-4.0783015
-4.1655594
-4.250308
-4.3324965
-4.4120752
-4.4889965
-4.5632138
-4.6346826
-4.7033598
-4.7692041
-4.8321759
-4.8922373
-4.949352
-5.0034859
-5.0546061
-5.1026821
-5.1476848
-5.1895873
-5.2283642
-5.2639922
-5.2964499
-5.3257177
-5.3517781
-5.3746154
-5.3942158
-5.4105675
-5.4236606
-5.4334874
-5.4400419
-5.4433201
-5.4596398
-5.4563518
-5.4497776
-5.4399214
-5.4267889
-5.4103882
-5.390729
-5.3678233
-5.3416847
-5.3123291
-5.279774
-5.2440391
-5.2051459
-5.1631178
-5.1179801
-5.06976
-5.0184864
-4.9641902
-4.9069041
-4.8466626
-4.7835019
-4.7174601
-4.6485769
-4.5768938
-4.5024538
-4.4253019
-4.3454844
-4.2630495
-4.1780466
-4.0905271
-4.0005436
-3.9081501
-3.8134025
-3.7163577
-3.6170742
-3.5156116
-3.4120312
-3.3063952
-3.1987674
-3.0892124
-2.9777962
-2.8645861
-2.74965
-2.6330573
-2.5148781
-2.3951836
-2.2740459
-2.151538
-2.0277337
-1.9027074
-1.7765345
-1.6492911
-1.5210536
-1.3918995
-1.2619065
-1.1311528
-0.99971725
-0.86767903
-0.73511767
-0.60211302
-0.4687452
-0.33509456
-0.20124161
-0.067266985
0.066748595
0.2007244
0.3345797
0.46823387
0.60160638
0.73461688
0.86718522
0.99923155
1.1306763
1.2614403
1.3914447
1.5206112
1.648862
1.7761198
1.902308
2.0273505
2.151172
2.2736978
2.3948542
2.5145681
2.6327674
2.7493809
2.8643384
2.9775705
3.0890091
3.198587
3.3062381
3.4118977
3.5155021
3.6169887
3.7162966
3.8133658
3.9081379
4.0005557
4.0905637
4.1781075
4.2631344
4.3455932
4.4254341
4.5026092
4.5770719
4.6487773
4.7176823
4.7837452
4.8469264
4.9071878
4.9644929
5.0188075
5.0700986
5.1183354
5.1634888
5.2055317
5.2444386
5.2801863
5.312753
5.3421193
5.3682673
5.3911815
5.4108478
5.4272546
5.4403919
5.4502518
5.4568284
5.4601177
5.4601177
5.4568284
5.4502518
5.4403919
5.4272546
5.4108478
5.3911815
5.3682673
5.3421193
5.312753
5.2801863
5.2444386
5.2055317
5.1634888
5.1183354
5.0700986
5.0188075
4.9644929
4.9071878
4.8469264
4.7837452
4.7176823
4.6487773
4.5770719
4.5026092
4.4254341
4.3455932
4.2631344
4.1781075
4.0905637
4.0005557
3.9081379
3.8133658
3.7162966
3.6169887
3.5155021
3.4118977
3.3062381
3.198587
3.0890091
2.9775705
2.8643384
2.7493809
2.6327674
2.5145681
2.3948542
2.2736978
2.151172
2.0273505
1.902308
1.7761198
1.648862
1.5206112
1.3914447
1.2614403
1.1306763
0.99923155
0.86718522
0.73461688
0.60160638
0.46823387
0.3345797
0.2007244
0.066748596
-0.067266985
-0.20124161
-0.33509456
-0.4687452
-0.60211302
-0.73511767
-0.86767903
-0.99971725
-1.1311528
-1.2619065
-1.3918995
-1.5210536
-1.6492911
-1.7765345
-1.9027074
-2.0277337
-2.151538
-2.2740459
-2.3951836
-2.5148781
-2.6330573
-2.74965
-2.8645861
-2.9777962
-3.0892124
-3.1987674
-3.3063952
-3.4120312
-3.5156116
-3.6170742
-3.7163577
-3.8134025
-3.9081501
-4.0005436
-4.0905271
-4.1780466
-4.2630495
-4.3454844
-4.4253019
-4.5024538
-4.5768938
-4.6485769
-4.7174601
-4.7835019
-4.8466626
-4.9069041
-4.9641902
-5.0184864
-5.06976
-5.1179801
-5.1631178
-5.2051459
-5.2440391
-5.279774
-5.3123291
-5.3416847
-5.3678233
-5.390729
-5.4103882
-5.4267889
-5.4399214
-5.4497776
-5.4563518
-5.4596398
-5.4792467
-5.4759468
-5.4693491
-5.4594574
-5.4462778
-5.4298181
-5.4100884
-5.3871003
-5.3608679
-5.3314068
-5.2987348
-5.2628716
-5.2238387
-5.1816596
-5.1363598
-5.0879664
-5.0365086
-4.9820174
-4.9245255
-4.8640676
-4.8006801
-4.7344011
-4.6652704
-4.5933298
-4.5186224
-4.4411934
-4.3610892
-4.2783581
-4.1930499
-4.105216
-4.0149092
-3.9221839
-3.827096
-3.7297026
-3.6300623
-3.5282353
-3.4242828
-3.3182674
-3.2102529
-3.1003044
-2.988488
-2.8748712
-2.7595223
-2.6425107
-2.523907
-2.4037826
-2.2822098
-2.1592618
-2.0350127
-1.9095374
-1.7829113
-1.6552108
-1.5265128
-1.3968947
-1.2664348
-1.1352115
-1.0033038
-0.87079139
-0.73775393
-0.60427158
-0.47042478
-0.33629414
-0.20196048
-0.06750472
0.066992137
0.20144906
0.33578505
0.46991917
0.6037706
0.73725871
0.87030307
1.0028235
1.1347402
1.2659737
1.3964449
1.5260751
1.6547864
1.7825011
1.9091423
2.0346336
2.1588996
2.2818652
2.4034565
2.5236001
2.6422237
2.7592558
2.8746258
2.9882643
3.1001029
3.210074
3.3181115
3.4241502
3.5281263
3.6299772
3.7296414
3.8270589
3.922171
4.0149205
4.1052514
4.1931092
4.2784412
4.3611958
4.4413232
4.5187752
4.593505
4.6654676
4.7346197
4.8009197
4.8643275
4.924805
4.9823157
5.036825
5.0883001
5.1367099
5.1820253
5.224219
5.2632655
5.2991413
5.3318249
5.3612964
5.3875383
5.4105346
5.4302715
5.4467371
5.4599215
5.4698168
5.476417
5.4797181
5.4797181
5.476417
5.4698168
5.4599215
5.4467371
5.4302715
5.4105346
5.3875383
5.3612964
5.3318249
5.2991413
5.2632655
5.224219
5.1820253
5.1367099
5.0883001
5.036825
4.9823157
4.924805
4.8643275
4.8009197
4.7346197
4.6654676
4.593505
4.5187752
4.4413232
4.3611958
4.2784412
4.1931092
4.1052514
4.0149205
3.922171
3.8270589
3.7296414
3.6299772
3.5281263
3.4241502
3.3181115
3.210074
3.1001029
2.9882643
2.8746258
2.7592558
2.6422237
2.5236001
2.4034565
2.2818652
2.1588996
2.0346336
1.9091423
1.7825011
1.6547864
1.5260751
1.3964449
1.2659737
1.1347402
1.0028235
0.87030307
0.73725871
0.6037706
0.46991917
0.33578505
0.20144906
0.066992138
-0.067504719
-0.20196048
-0.33629414
-0.47042478
-0.60427158
-0.73775393
-0.87079139
-1.0033038
-1.1352115
-1.2664348
-1.3968947
-1.5265128
-1.6552108
-1.7829113
-1.9095374
-2.0350127
-2.1592618
-2.2822098
-2.4037826
-2.523907
-2.6425107
-2.7595222
-2.8748712
-2.988488
-3.1003044
-3.2102529
-3.3182674
-3.4242828
-3.5282353
-3.6300623
-3.7297026
-3.827096
-3.9221839
-4.0149092
-4.105216
-4.1930499
-4.2783581
-4.3610892
-4.4411934
-4.5186224
-4.5933298
-4.6652704
-4.7344011
-4.8006801
-4.8640676
-4.9245255
-4.9820174
-5.0365086
-5.0879664
-5.1363598
-5.1816596
-5.2238387
-5.2628716
-5.2987348
-5.3314068
-5.3608679
-5.3871003
-5.4100884
-5.4298181
-5.4462778
-5.4594574
-5.4693491
-5.4759468
-5.4792467
-5.5021525
-5.4988388
-5.4922135
-5.4822805
-5.4690458
-5.4525173
-5.432705
-5.4096209
-5.3832788
-5.3536945
-5.3208859
-5.2848728
-5.2456767
-5.2033213
-5.157832
-5.1092363
-5.0575634
-5.0028444
-4.9451122
-4.8844015
-4.8207489
-4.7541928
-4.6847731
-4.6125317
-4.537512
-4.4597592
-4.3793201
-4.2962431
-4.2105783
-4.1223771
-4.0316927
-3.9385797
-3.8430942
-3.7452935
-3.6452367
-3.5429839
-3.4385968
-3.3321381
-3.2236719
-3.1132637
-3.0009798
-2.8868879
-2.7710566
-2.6535558
-2.5344562
-2.4138295
-2.2917484
-2.1682863
-2.0435177
-1.9175177
-1.7903622
-1.6621278
-1.5328916
-1.4027316
-1.2717262
-1.1399542
-1.0074951
-0.87442862
-0.74083493
-0.60679451
-0.47238811
-0.3376967
-0.20280142
-0.067783539
0.067275599
0.20229463
0.33719221
0.47188706
0.60629804
0.74034416
0.87394467
1.0070191
1.1394872
1.2712692
1.4022857
1.5324578
1.661707
1.7899555
1.917126
2.0431418
2.1679271
2.2914066
2.413506
2.5341517
2.653271
2.7707921
2.8866442
3.0007576
3.1130634
3.223494
3.3319829
3.4384647
3.5428752
3.6451516
3.7452322
3.8430567
3.9385661
4.031703
4.1224112
4.2106361
4.2963245
4.3794248
4.4598869
4.5376624
4.6127043
4.6849675
4.7544084
4.8209853
4.8846579
4.945388
5.0031389
5.0578759
5.1095659
5.1581779
5.2036825
5.2460524
5.285262
5.3212876
5.3541077
5.3837023
5.4100537
5.4331461
5.4529654
5.4694998
5.4827392
5.4926758
5.4993035
5.5026184
5.5026184
5.4993035
5.4926758
5.4827392
5.4694998
5.4529654
5.4331461
5.4100537
5.3837023
5.3541077
5.3212876
5.285262
5.2460524
5.2036825
5.1581779
5.1095659
5.0578759
5.0031389
4.945388
4.8846579
4.8209853
4.7544084
4.6849675
4.6127043
4.5376624
4.4598869
4.3794248
4.2963245
4.2106361
4.1224112
4.031703
3.9385661
3.8430567
3.7452322
3.6451516
3.5428752
3.4384647
3.3319829
3.223494
3.1130634
3.0007576
2.8866442
2.7707921
2.653271
2.5341517
2.413506
2.2914066
2.1679271
2.0431418
1.917126
1.7899555
1.661707
1.5324578
1.4022857
1.2712692
1.1394872
1.0070191
0.87394467
0.74034416
0.60629804
0.47188706
0.33719221
0.20229463
0.067275599
-0.067783539
-0.20280142
-0.3376967
-0.47238811
-0.60679451
-0.74083493
-0.87442862
-1.0074951
-1.1399542
-1.2717262
-1.4027316
-1.5328916
-1.6621278
-1.7903622
-1.9175177
-2.0435177
-2.1682863
-2.2917484
-2.4138295
-2.5344562
-2.6535558
-2.7710566
-2.8868879
-3.0009798
-3.1132637
-3.2236719
-3.3321381
-3.4385968
-3.5429839
-3.6452367
-3.7452935
-3.8430942
-3.9385797
-4.0316927
-4.1223771
-4.2105783
-4.2962431
-4.3793201
-4.4597592
-4.537512
-4.6125317
-4.6847731
-4.7541928
-4.8207489
-4.8844015
-4.9451122
-5.0028444
-5.0575634
-5.1092363
-5.157832
-5.2033213
-5.2456767
-5.2848728
-5.3208859
-5.3536945
-5.3832788
-5.4096209
-5.432705
-5.4525173
-5.4690458
-5.4822805
-5.4922135
-5.4988388
-5.5021525
-5.528371
-5.5250416
-5.5183846
-5.5084043
-5.4951065
-5.4784993
-5.4585926
-5.4353985
-5.4089309
-5.3792056
-5.3462407
-5.310056
-5.2706731
-5.2281159
-5.1824099
-5.1335826
-5.0816635
-5.0266837
-4.9686764
-4.9076764
-4.8437205
-4.7768472
-4.7070968
-4.6345111
-4.5591339
-4.4810106
-4.4001882
-4.3167153
-4.2306422
-4.1420207
-4.0509041
-3.9573474
-3.8614068
-3.7631401
-3.6626064
-3.5598663
-3.4549817
-3.3480156
-3.2390325
-3.1280981
-3.0152791
-2.9006434
-2.7842601
-2.6661993
-2.5465321
-2.4253305
-2.3026675
-2.178617
-2.0532538
-1.9266533
-1.7988917
-1.6700461
-1.540194
-1.4094137
-1.2777839
-1.145384
-1.0122936
-0.87859289
-0.74436252
-0.6096833
-0.47463636
-0.33930305
-0.20376492
-0.068103603
0.067599158
0.20326161
0.33880203
0.47413874
0.60919022
0.74387509
0.87811222
1.0118207
1.14492
1.27733
1.4089707
1.539763
1.6696281
1.7984876
1.9262639
2.0528802
2.1782599
2.3023277
2.4250088
2.5462292
2.665916
2.7839969
2.9004009
3.0150578
3.1278986
3.2388552
3.3478609
3.4548498
3.5597576
3.6625211
3.7630783
3.8613687
3.957333
4.0509135
4.1420537
4.2306987
4.3167951
4.4002911
4.4811364
4.5592822
4.6346815
4.7072887
4.7770603
4.8439542
4.90793
4.9689492
5.0269751
5.0819727
5.1339088
5.1827522
5.2284735
5.2710451
5.3104413
5.3466385
5.3796148
5.4093503
5.4358272
5.4590295
5.4789431
5.4955562
5.5088587
5.5188426
5.5255019
5.5288325
5.5288325
5.5255019
5.5188426
5.5088587
5.4955562
5.4789431
5.4590295
5.4358272
5.4093503
5.3796148
5.3466385
5.3104413
5.2710451
5.2284735
5.1827522
5.1339088
5.0819727
5.0269751
4.9689492
4.90793
4.8439542
4.7770603
4.7072887
4.6346815
4.5592822
4.4811364
4.4002911
4.3167951
4.2306987
4.1420537
4.0509135
3.957333
3.8613687
3.7630783
3.6625211
3.5597576
3.4548498
3.3478609
3.2388552
3.1278986
3.0150578
2.9004009
2.7839969
2.665916
2.5462292
2.4250088
2.3023277
2.1782599
2.0528802
1.9262639
1.7984876
1.6696281
1.539763
1.4089707
1.27733
1.14492
1.0118207
0.87811222
0.74387509
0.60919022
0.47413874
0.33880203
0.20326161
0.067599158
-0.068103603
-0.20376492
-0.33930305
-0.47463636
-0.6096833
-0.74436252
-0.87859289
-1.0122936
-1.145384
-1.2777839
-1.4094137
-1.540194
-1.6700461
-1.7988917
-1.9266533
-2.0532538
-2.178617
-2.3026675
-2.4253305
-2.5465321
-2.6661993
-2.7842601
-2.9006434
-3.0152791
-3.1280981
-3.2390325
-3.3480156
-3.4549817
-3.5598663
-3.6626064
-3.7631401
-3.8614068
-3.9573474
-4.0509041
-4.1420207
-4.2306422
-4.3167153
-4.4001882
-4.4810106
-4.5591339
-4.6345111
-4.7070968
-4.7768472
-4.8437205
-4.9076764
-4.9686764
-5.0266837
-5.0816635
-5.1335826
-5.1824099
-5.2281159
-5.2706731
-5.310056
-5.3462407
-5.3792056
-5.4089309
-5.4353985
-5.4585926
-5.4784993
-5.4951065
-5.5084043
-5.5183846
-5.5250416
-5.528371
-5.557918
-5.5545708
-5.5478783
-5.5378446
-5.5244758
-5.5077798
-5.4877668
-5.4644487
-5.4378396
-5.4079555
-5.3748145
-5.3384363
-5.298843
-5.2560584
-5.2101081
-5.1610199
-5.1088233
-5.0535497
-4.9952324
-4.9339064
-4.8696087
-4.802378
-4.7322548
-4.6592812
-4.5835011
-4.5049603
-4.4237059
-4.3397869
-4.2532537
-4.1641586
-4.072555
-3.9784983
-3.8820448
-3.7832529
-3.6821819
-3.5788926
-3.4734474
-3.3659095
-3.2563439
-3.1448165
-3.0313945
-2.916146
-2.7991406
-2.6804487
-2.5601418
-2.4382924
-2.3149737
-2.1902601
-2.0642268
-1.9369495
-1.808505
-1.6789707
-1.5484245
-1.416945
-1.2846116
-1.1515039
-1.0177021
-0.88328672
-0.74833883
-0.6129397
-0.47717088
-0.34111418
-0.20485155
-0.0684651
0.067963017
0.2043506
0.34061549
0.47667558
0.6124489
0.74785365
0.88280824
1.0172314
1.1510421
1.2841597
1.416504
1.5479953
1.6785544
1.8081025
1.9365617
2.0638546
2.1899044
2.3146352
2.4379718
2.55984
2.6801663
2.7988781
2.9159041
3.0311737
3.1446174
3.2561668
3.3657548
3.4733154
3.5787837
3.6820962
3.7831906
3.8820061
3.9784831
4.0725634
4.1641905
4.253309
4.3398654
4.4238074
4.5050845
4.5836477
4.6594497
4.7324448
4.8025891
4.8698402
4.9341577
4.9955028
5.0538386
5.1091299
5.1613434
5.2104477
5.2564132
5.2992121
5.3388187
5.3752092
5.4083616
5.4382559
5.4648742
5.4882004
5.5082204
5.5249222
5.5382957
5.548333
5.5550278
5.5583762
5.5583762
5.5550278
5.548333
5.5382957
5.5249222
5.5082204
5.4882004
5.4648742
5.4382559
5.4083616
5.3752092
5.3388187
5.2992121
5.2564132
5.2104477
5.1613434
5.1091299
5.0538386
4.9955028
4.9341577
4.8698402
4.8025891
4.7324448
4.6594497
4.5836477
4.5050845
4.4238074
4.3398654
4.253309
4.1641905
4.0725634
3.9784831
3.8820061
3.7831906
3.6820962
3.5787837
3.4733154
3.3657548
3.2561668
3.1446174
3.0311737
2.9159041
2.7988781
2.6801663
2.55984
2.4379718
2.3146352
2.1899044
2.0638546
1.9365617
1.8081025
1.6785544
1.5479953
1.416504
1.2841597
1.1510421
1.0172314
0.88280824
0.74785365
0.6124489
0.47667558
0.34061549
0.2043506
0.067963017
-0.0684651
-0.20485155
-0.34111418
-0.47717088
-0.6129397
-0.74833883
-0.88328672
-1.0177021
-1.1515039
-1.2846116
-1.416945
-1.5484245
-1.6789707
-1.808505
-1.9369495
-2.0642268
-2.1902601
-2.3149737
-2.4382924
-2.5601418
-2.6804487
-2.7991406
-2.916146
-3.0313945
-3.1448165
-3.2563439
-3.3659095
-3.4734474
-3.5788926
-3.6821819
-3.7832529
-3.8820448
-3.9784983
-4.072555
-4.1641586
-4.2532537
-4.3397869
-4.4237059
-4.5049603
-4.5835011
-4.6592812
-4.7322548
-4.802378
-4.8696087
-4.9339064
-4.9952324
-5.0535497
-5.1088233
-5.1610199
-5.2101081
-5.2560584
-5.298843
-5.3384363
-5.3748145
-5.4079555
-5.4378396
-5.4644487
-5.4877668
-5.5077798
-5.5244758
-5.5378446
-5.5478783
-5.5545708
-5.557918
-5.5908113
-5.5874443
-5.5807122
-5.5706191
-5.5571712
-5.5403764
-5.520245
-5.4967889
-5.4700224
-5.4399615
-5.4066243
-5.3700309
-5.3302033
-5.2871655
-5.2409434
-5.1915647
-5.1390592
-5.0834585
-5.0247961
-4.9631073
-4.8984291
-4.8308006
-4.7602623
-4.6868569
-4.6106284
-4.5316228
-4.4498875
-4.3654718
-4.2784266
-4.1888042
-4.0966585
-4.002045
-3.9050208
-3.8056441
-3.7039749
-3.6000744
-3.494005
-3.3858307
-3.2756166
-3.1634291
-3.0493357
-2.9334051
-2.8157072
-2.6963127
-2.5752937
-2.452723
-2.3286744
-2.2032226
-2.0764433
-1.9484126
-1.8192078
-1.6889067
-1.5575878
-1.4253301
-1.2922134
-1.1583178
-1.0237239
-0.88851293
-0.75276625
-0.61656566
-0.4799932
-0.34313116
-0.20606198
-0.068868242
0.068367399
0.20556226
0.34263369
0.47949911
0.61607605
0.75228222
0.88803557
1.0232543
1.1578569
1.2917624
1.42489
1.5571595
1.6884913
1.8188061
1.9480255
2.0760717
2.2028674
2.3283363
2.4524028
2.5749921
2.6960304
2.8154448
2.9331632
3.0491148
3.1632297
3.2754392
3.3856756
3.4938726
3.5999649
3.7038886
3.8055812
3.9049813
4.002029
4.0966659
4.188835
4.2784808
4.3655492
4.4499877
4.5317456
4.6107735
4.6870239
4.7604508
4.83101
4.8986589
4.9633568
5.0250648
5.0837456
5.1393639
5.1918863
5.241281
5.2875183
5.3305704
5.3704112
5.4070169
5.4403654
5.4704365
5.4972122
5.5206764
5.5408148
5.5576154
5.571068
5.5811646
5.587899
5.5912672
5.5912672
5.587899
5.5811646
5.571068
5.5576154
5.5408148
5.5206764
5.4972122
5.4704365
5.4403654
5.4070169
5.3704112
5.3305704
5.2875183
5.241281
5.1918863
5.1393639
5.0837456
5.0250648
4.9633568
4.8986589
4.83101
4.7604508
4.6870239
4.6107735
4.5317456
4.4499877
4.3655492
4.2784808
4.188835
4.0966659
4.002029
3.9049812
3.8055812
3.7038886
3.5999649
3.4938726
3.3856756
3.2754392
3.1632297
3.0491148
2.9331632
2.8154448
2.6960304
2.5749921
2.4524028
2.3283363
2.2028674
2.0760717
1.9480255
1.8188061
1.6884912
1.5571595
1.42489
1.2917624
1.1578569
1.0232543
0.88803557
0.75228222
0.61607605
0.47949911
0.34263369
0.20556226
0.068367398
-0.068868243
-0.20606198
-0.34313116
-0.47999321
-0.61656566
-0.75276625
-0.88851293
-1.0237239
-1.1583178
-1.2922134
-1.4253301
-1.5575878
-1.6889067
-1.8192078
-1.9484126
-2.0764433