/*--------------------------------*- C++ -*----------------------------------*\
| =========                 |                                                 |
| \\      /  F ield         | OpenFOAM: The Open Source CFD Toolbox           |
|  \\    /   O peration     | Version:  2106                                  |
|   \\  /    A nd           | Website:  www.openfoam.com                      |
|    \\/     M anipulation  |                                                 |
\*---------------------------------------------------------------------------*/
FoamFile
{
    version     2.0;
    format      ascii;
    arch        "LSB;label=32;scalar=64";
    class       volVectorField;
    location    "0.035";
    object      U;
}
// * * * * * * * * * * * * * * * * * * * * * * * * * * * * * * * * * * * * * //

dimensions      [0 1 -1 0 0 0 0];

internalField   nonuniform List<vector> 
65536
(
(-8.2880919e-05 8.287928e-05 0)
(-0.00024861231 8.2848832e-05 0)
(-0.00041425239 8.2787908e-05 0)
(-0.00057974015 8.269645e-05 0)
(-0.00074501448 8.257437e-05 0)
(-0.00091001405 8.2421554e-05 0)
(-0.0010746773 8.2237859e-05 0)
(-0.0012389422 8.2023117e-05 0)
(-0.0014027467 8.177713e-05 0)
(-0.001566028 8.1499678e-05 0)
(-0.0017287229 8.1190516e-05 0)
(-0.0018907678 8.0849375e-05 0)
(-0.0020520985 8.0475966e-05 0)
(-0.0022126501 8.0069978e-05 0)
(-0.0023723572 7.9631081e-05 0)
(-0.0025311536 7.9158931e-05 0)
(-0.0026889726 7.8653164e-05 0)
(-0.0028457464 7.8113406e-05 0)
(-0.0030014068 7.753927e-05 0)
(-0.0031558845 7.6930359e-05 0)
(-0.0033091098 7.6286269e-05 0)
(-0.0034610117 7.5606591e-05 0)
(-0.0036115188 7.4890911e-05 0)
(-0.0037605586 7.4138816e-05 0)
(-0.0039080579 7.3349893e-05 0)
(-0.0040539427 7.2523733e-05 0)
(-0.0041981379 7.1659935e-05 0)
(-0.0043405681 7.0758103e-05 0)
(-0.0044811567 6.9817855e-05 0)
(-0.0046198266 6.8838822e-05 0)
(-0.0047564997 6.782065e-05 0)
(-0.0048910975 6.6763005e-05 0)
(-0.0050235408 6.5665571e-05 0)
(-0.0051537496 6.452806e-05 0)
(-0.0052816435 6.3350205e-05 0)
(-0.0054071416 6.2131772e-05 0)
(-0.0055301625 6.0872555e-05 0)
(-0.0056506245 5.9572381e-05 0)
(-0.0057684454 5.8231113e-05 0)
(-0.005883543 5.6848652e-05 0)
(-0.0059958347 5.5424939e-05 0)
(-0.0061052382 5.3959956e-05 0)
(-0.0062116708 5.245373e-05 0)
(-0.00631505 5.0906334e-05 0)
(-0.0064152937 4.9317888e-05 0)
(-0.0065123198 4.7688564e-05 0)
(-0.0066060469 4.6018583e-05 0)
(-0.0066963938 4.4308221e-05 0)
(-0.0067832801 4.2557807e-05 0)
(-0.006866626 4.0767728e-05 0)
(-0.0069463527 3.8938428e-05 0)
(-0.007022382 3.7070409e-05 0)
(-0.0070946372 3.5164233e-05 0)
(-0.0071630424 3.3220522e-05 0)
(-0.0072275233 3.1239962e-05 0)
(-0.0072880069 2.9223299e-05 0)
(-0.0073444217 2.7171342e-05 0)
(-0.007396698 2.5084964e-05 0)
(-0.0074447678 2.2965103e-05 0)
(-0.0074885652 2.0812758e-05 0)
(-0.0075280261 1.8628993e-05 0)
(-0.0075630889 1.6414938e-05 0)
(-0.007593694 1.4171783e-05 0)
(-0.0076197846 1.1900783e-05 0)
(-0.0076413061 9.6032553e-06 0)
(-0.007658207 7.28058e-06 0)
(-0.0076704382 4.9341952e-06 0)
(-0.0076779538 2.5655986e-06 0)
(-0.007680711 1.7636501e-07 0)
(-0.00767867 -2.2318897e-06 0)
(-0.0076717944 -4.6574987e-06 0)
(-0.0076600512 -7.0987337e-06 0)
(-0.0076434109 -9.5538095e-06 0)
(-0.0076218476 -1.2020891e-05 0)
(-0.0075953391 -1.4498092e-05 0)
(-0.0075638672 -1.6983481e-05 0)
(-0.0075274173 -1.947508e-05 0)
(-0.0074859791 -2.1970867e-05 0)
(-0.0074395461 -2.4468781e-05 0)
(-0.0073881163 -2.696672e-05 0)
(-0.0073316916 -2.9462549e-05 0)
(-0.0072702785 -3.1954098e-05 0)
(-0.0072038877 -3.4439169e-05 0)
(-0.0071325343 -3.6915534e-05 0)
(-0.0070562379 -3.9380943e-05 0)
(-0.0069750228 -4.1833125e-05 0)
(-0.0068889177 -4.426979e-05 0)
(-0.0067979559 -4.6688635e-05 0)
(-0.0067021752 -4.9087345e-05 0)
(-0.0066016184 -5.1463597e-05 0)
(-0.0064963327 -5.3815064e-05 0)
(-0.0063863699 -5.6139418e-05 0)
(-0.0062717866 -5.8434337e-05 0)
(-0.0061526439 -6.06975e-05 0)
(-0.0060290077 -6.2926602e-05 0)
(-0.0059009485 -6.5119346e-05 0)
(-0.0057685412 -6.7273458e-05 0)
(-0.0056318652 -6.9386681e-05 0)
(-0.0054910048 -7.1456786e-05 0)
(-0.0053460483 -7.348157e-05 0)
(-0.0051970884 -7.5458863e-05 0)
(-0.0050442225 -7.7386532e-05 0)
(-0.0048875518 -7.9262483e-05 0)
(-0.0047271818 -8.1084663e-05 0)
(-0.0045632221 -8.2851067e-05 0)
(-0.0043957863 -8.4559741e-05 0)
(-0.0042249917 -8.6208783e-05 0)
(-0.0040509594 -8.7796347e-05 0)
(-0.0038738143 -8.9320648e-05 0)
(-0.0036936846 -9.0779963e-05 0)
(-0.0035107021 -9.2172636e-05 0)
(-0.0033250015 -9.3497078e-05 0)
(-0.0031367209 -9.4751775e-05 0)
(-0.0029460014 -9.5935284e-05 0)
(-0.0027529866 -9.7046241e-05 0)
(-0.002557823 -9.8083361e-05 0)
(-0.0023606595 -9.904544e-05 0)
(-0.0021616475 -9.993136e-05 0)
(-0.0019609402 -0.00010074009 0)
(-0.0017586931 -0.00010147067 0)
(-0.0015550633 -0.00010212226 0)
(-0.0013502098 -0.0001026941 0)
(-0.0011442926 -0.0001031855 0)
(-0.0009374733 -0.00010359588 0)
(-0.00072991449 -0.00010392478 0)
(-0.00052177958 -0.00010417179 0)
(-0.00031323268 -0.00010433663 0)
(-0.00010443839 -0.00010441909 0)
(0.00010443839 -0.00010441909 0)
(0.00031323268 -0.00010433663 0)
(0.00052177958 -0.00010417179 0)
(0.00072991449 -0.00010392478 0)
(0.0009374733 -0.00010359588 0)
(0.0011442926 -0.0001031855 0)
(0.0013502098 -0.0001026941 0)
(0.0015550633 -0.00010212226 0)
(0.0017586931 -0.00010147067 0)
(0.0019609402 -0.00010074009 0)
(0.0021616475 -9.993136e-05 0)
(0.0023606595 -9.904544e-05 0)
(0.002557823 -9.8083361e-05 0)
(0.0027529866 -9.7046241e-05 0)
(0.0029460014 -9.5935284e-05 0)
(0.0031367209 -9.4751775e-05 0)
(0.0033250015 -9.3497078e-05 0)
(0.0035107021 -9.2172636e-05 0)
(0.0036936846 -9.0779963e-05 0)
(0.0038738143 -8.9320648e-05 0)
(0.0040509594 -8.7796347e-05 0)
(0.0042249917 -8.6208783e-05 0)
(0.0043957863 -8.4559741e-05 0)
(0.0045632221 -8.2851067e-05 0)
(0.0047271818 -8.1084663e-05 0)
(0.0048875518 -7.9262483e-05 0)
(0.0050442225 -7.7386532e-05 0)
(0.0051970884 -7.5458863e-05 0)
(0.0053460483 -7.348157e-05 0)
(0.0054910048 -7.1456786e-05 0)
(0.0056318652 -6.9386681e-05 0)
(0.0057685412 -6.7273458e-05 0)
(0.0059009485 -6.5119346e-05 0)
(0.0060290077 -6.2926602e-05 0)
(0.0061526439 -6.06975e-05 0)
(0.0062717866 -5.8434337e-05 0)
(0.0063863699 -5.6139418e-05 0)
(0.0064963327 -5.3815063e-05 0)
(0.0066016184 -5.1463596e-05 0)
(0.0067021752 -4.9087345e-05 0)
(0.0067979559 -4.6688635e-05 0)
(0.0068889177 -4.426979e-05 0)
(0.0069750228 -4.1833125e-05 0)
(0.0070562379 -3.9380943e-05 0)
(0.0071325343 -3.6915534e-05 0)
(0.0072038877 -3.4439169e-05 0)
(0.0072702785 -3.1954098e-05 0)
(0.0073316916 -2.9462549e-05 0)
(0.0073881163 -2.696672e-05 0)
(0.0074395461 -2.4468781e-05 0)
(0.0074859791 -2.1970867e-05 0)
(0.0075274173 -1.947508e-05 0)
(0.0075638672 -1.6983481e-05 0)
(0.0075953391 -1.4498092e-05 0)
(0.0076218476 -1.2020891e-05 0)
(0.0076434109 -9.5538095e-06 0)
(0.0076600512 -7.0987336e-06 0)
(0.0076717944 -4.6574986e-06 0)
(0.00767867 -2.2318897e-06 0)
(0.007680711 1.7636506e-07 0)
(0.0076779538 2.5655987e-06 0)
(0.0076704382 4.9341953e-06 0)
(0.007658207 7.28058e-06 0)
(0.0076413061 9.6032554e-06 0)
(0.0076197846 1.1900783e-05 0)
(0.007593694 1.4171783e-05 0)
(0.0075630889 1.6414938e-05 0)
(0.0075280261 1.8628993e-05 0)
(0.0074885652 2.0812758e-05 0)
(0.0074447678 2.2965103e-05 0)
(0.007396698 2.5084964e-05 0)
(0.0073444217 2.7171342e-05 0)
(0.0072880069 2.9223299e-05 0)
(0.0072275233 3.1239962e-05 0)
(0.0071630424 3.3220522e-05 0)
(0.0070946372 3.5164233e-05 0)
(0.007022382 3.7070409e-05 0)
(0.0069463527 3.8938428e-05 0)
(0.006866626 4.0767729e-05 0)
(0.0067832801 4.2557807e-05 0)
(0.0066963938 4.4308221e-05 0)
(0.0066060469 4.6018583e-05 0)
(0.0065123198 4.7688564e-05 0)
(0.0064152937 4.9317888e-05 0)
(0.00631505 5.0906334e-05 0)
(0.0062116708 5.245373e-05 0)
(0.0061052382 5.3959956e-05 0)
(0.0059958347 5.5424939e-05 0)
(0.005883543 5.6848652e-05 0)
(0.0057684454 5.8231113e-05 0)
(0.0056506245 5.9572381e-05 0)
(0.0055301625 6.0872555e-05 0)
(0.0054071416 6.2131772e-05 0)
(0.0052816435 6.3350206e-05 0)
(0.0051537496 6.452806e-05 0)
(0.0050235408 6.5665571e-05 0)
(0.0048910975 6.6763005e-05 0)
(0.0047564997 6.782065e-05 0)
(0.0046198266 6.8838822e-05 0)
(0.0044811567 6.9817855e-05 0)
(0.0043405681 7.0758103e-05 0)
(0.0041981379 7.1659935e-05 0)
(0.0040539427 7.2523733e-05 0)
(0.0039080579 7.3349893e-05 0)
(0.0037605586 7.4138816e-05 0)
(0.0036115188 7.4890911e-05 0)
(0.0034610117 7.5606591e-05 0)
(0.0033091098 7.6286269e-05 0)
(0.0031558845 7.6930359e-05 0)
(0.0030014068 7.753927e-05 0)
(0.0028457464 7.8113406e-05 0)
(0.0026889726 7.8653164e-05 0)
(0.0025311536 7.9158931e-05 0)
(0.0023723572 7.9631081e-05 0)
(0.0022126501 8.0069978e-05 0)
(0.0020520985 8.0475966e-05 0)
(0.0018907678 8.0849375e-05 0)
(0.0017287229 8.1190516e-05 0)
(0.001566028 8.1499678e-05 0)
(0.0014027467 8.177713e-05 0)
(0.0012389422 8.2023117e-05 0)
(0.0010746773 8.2237859e-05 0)
(0.00091001405 8.2421554e-05 0)
(0.00074501449 8.257437e-05 0)
(0.00057974016 8.269645e-05 0)
(0.00041425239 8.2787908e-05 0)
(0.00024861232 8.2848832e-05 0)
(8.2880913e-05 8.287928e-05 0)
(-8.281451e-05 0.00024860399 0)
(-0.00024841316 0.00024851269 0)
(-0.0004139207 0.00024833001 0)
(-0.00057927628 0.00024805577 0)
(-0.00074441892 0.00024768972 0)
(-0.00090928743 0.0002472315 0)
(-0.0010738204 0.00024668069 0)
(-0.0012379559 0.00024603677 0)
(-0.0014016321 0.00024529917 0)
(-0.0015647862 0.00024446722 0)
(-0.0017273552 0.00024354018 0)
(-0.0018892757 0.00024251724 0)
(-0.0020504836 0.00024139754 0)
(-0.002210914 0.00024018014 0)
(-0.0023705018 0.00023886405 0)
(-0.0025291808 0.00023744824 0)
(-0.0026868843 0.00023593162 0)
(-0.0028435449 0.00023431305 0)
(-0.0029990944 0.00023259139 0)
(-0.0031534636 0.00023076543 0)
(-0.0033065827 0.00022883396 0)
(-0.0034583811 0.00022679576 0)
(-0.0036087873 0.00022464958 0)
(-0.003757729 0.00022239417 0)
(-0.003905133 0.00022002831 0)
(-0.0040509254 0.00021755076 0)
(-0.0041950313 0.00021496032 0)
(-0.0043373752 0.00021225579 0)
(-0.0044778806 0.00020943603 0)
(-0.0046164705 0.00020649993 0)
(-0.004753067 0.00020344643 0)
(-0.0048875914 0.00020027452 0)
(-0.0050199646 0.00019698325 0)
(-0.0051501067 0.00019357176 0)
(-0.0052779374 0.00019003924 0)
(-0.0054033758 0.000186385 0)
(-0.0055263404 0.0001826084 0)
(-0.0056467496 0.00017870893 0)
(-0.0057645213 0.00017468617 0)
(-0.0058795732 0.00017053984 0)
(-0.0059918229 0.00016626975 0)
(-0.0061011878 0.00016187583 0)
(-0.0062075854 0.00015735818 0)
(-0.0063109332 0.00015271701 0)
(-0.006411149 0.00014795269 0)
(-0.0065081507 0.00014306571 0)
(-0.006601857 0.00013805674 0)
(-0.0066921865 0.00013292662 0)
(-0.0067790588 0.00012767632 0)
(-0.0068623943 0.00012230701 0)
(-0.0069421138 0.00011682001 0)
(-0.0070181393 0.00011121684 0)
(-0.007090394 0.00010549916 0)
(-0.0071588021 9.9668867e-05 0)
(-0.007223289 9.3727995e-05 0)
(-0.0072837817 8.7678786e-05 0)
(-0.0073402087 8.152367e-05 0)
(-0.0073925002 7.5265262e-05 0)
(-0.0074405883 6.8906373e-05 0)
(-0.0074844067 6.2450002e-05 0)
(-0.0075238915 5.5899342e-05 0)
(-0.007558981 4.9257777e-05 0)
(-0.0075896155 4.252888e-05 0)
(-0.007615738 3.5716416e-05 0)
(-0.007637294 2.8824336e-05 0)
(-0.0076542317 2.1856779e-05 0)
(-0.0076665021 1.4818065e-05 0)
(-0.0076740593 7.7126939e-06 0)
(-0.0076768601 5.4535188e-07 0)
(-0.0076748649 -6.6790931e-06 0)
(-0.0076680371 -1.3955636e-05 0)
(-0.0076563436 -2.1279086e-05 0)
(-0.0076397548 -2.8644092e-05 0)
(-0.0076182448 -3.6045147e-05 0)
(-0.0075917912 -4.3476597e-05 0)
(-0.0075603758 -5.0932643e-05 0)
(-0.0075239838 -5.8407352e-05 0)
(-0.0074826049 -6.589466e-05 0)
(-0.0074362326 -7.3388378e-05 0)
(-0.0073848646 -8.0882205e-05 0)
(-0.0073285028 -8.8369732e-05 0)
(-0.0072671537 -9.584445e-05 0)
(-0.0072008278 -0.00010329976 0)
(-0.0071295401 -0.00011072898 0)
(-0.0070533103 -0.00011812537 0)
(-0.0069721625 -0.00012548209 0)
(-0.0068861253 -0.00013279229 0)
(-0.0067952319 -0.00014004906 0)
(-0.0066995202 -0.00014724544 0)
(-0.0065990327 -0.00015437446 0)
(-0.0064938166 -0.00016142916 0)
(-0.0063839238 -0.00016840253 0)
(-0.0062694106 -0.00017528762 0)
(-0.0061503383 -0.00018207745 0)
(-0.0060267725 -0.00018876511 0)
(-0.0058987837 -0.00019534371 0)
(-0.0057664469 -0.00020180643 0)
(-0.0056298414 -0.00020814649 0)
(-0.0054890512 -0.0002143572 0)
(-0.0053441649 -0.00022043195 0)
(-0.0051952751 -0.00022636424 0)
(-0.0050424789 -0.00023214766 0)
(-0.0048858778 -0.00023777592 0)
(-0.0047255771 -0.00024324287 0)
(-0.0045616865 -0.0002485425 0)
(-0.0043943194 -0.00025366892 0)
(-0.0042235932 -0.00025861645 0)
(-0.004049629 -0.00026337954 0)
(-0.0038725517 -0.00026795282 0)
(-0.0036924894 -0.00027233115 0)
(-0.0035095739 -0.00027650953 0)
(-0.00332394 -0.00028048321 0)
(-0.0031357258 -0.00028424764 0)
(-0.0029450723 -0.00028779849 0)
(-0.0027521232 -0.00029113168 0)
(-0.002557025 -0.00029424333 0)
(-0.0023599266 -0.00029712984 0)
(-0.0021609793 -0.00029978785 0)
(-0.0019603366 -0.00030221426 0)
(-0.0017581537 -0.00030440624 0)
(-0.001554588 -0.00030636121 0)
(-0.0013497982 -0.00030807687 0)
(-0.0011439447 -0.00030955122 0)
(-0.00093718887 -0.0003107825 0)
(-0.0007296934 -0.00031176929 0)
(-0.00052162173 -0.00031251039 0)
(-0.000313138 -0.00031300495 0)
(-0.00010440684 -0.00031325238 0)
(0.00010440684 -0.00031325238 0)
(0.000313138 -0.00031300495 0)
(0.00052162173 -0.00031251039 0)
(0.0007296934 -0.00031176929 0)
(0.00093718887 -0.0003107825 0)
(0.0011439447 -0.00030955122 0)
(0.0013497982 -0.00030807687 0)
(0.001554588 -0.00030636121 0)
(0.0017581537 -0.00030440624 0)
(0.0019603366 -0.00030221426 0)
(0.0021609793 -0.00029978785 0)
(0.0023599266 -0.00029712984 0)
(0.002557025 -0.00029424333 0)
(0.0027521232 -0.00029113168 0)
(0.0029450723 -0.00028779849 0)
(0.0031357258 -0.00028424764 0)
(0.00332394 -0.00028048321 0)
(0.0035095739 -0.00027650953 0)
(0.0036924894 -0.00027233115 0)
(0.0038725517 -0.00026795282 0)
(0.004049629 -0.00026337954 0)
(0.0042235932 -0.00025861645 0)
(0.0043943194 -0.00025366892 0)
(0.0045616865 -0.0002485425 0)
(0.0047255771 -0.00024324287 0)
(0.0048858778 -0.00023777592 0)
(0.0050424789 -0.00023214766 0)
(0.0051952751 -0.00022636424 0)
(0.0053441649 -0.00022043195 0)
(0.0054890512 -0.0002143572 0)
(0.0056298414 -0.00020814649 0)
(0.0057664469 -0.00020180643 0)
(0.0058987837 -0.00019534371 0)
(0.0060267725 -0.00018876511 0)
(0.0061503383 -0.00018207745 0)
(0.0062694106 -0.00017528762 0)
(0.0063839238 -0.00016840253 0)
(0.0064938166 -0.00016142916 0)
(0.0065990327 -0.00015437446 0)
(0.0066995202 -0.00014724544 0)
(0.0067952319 -0.00014004906 0)
(0.0068861253 -0.00013279229 0)
(0.0069721625 -0.00012548209 0)
(0.0070533103 -0.00011812537 0)
(0.0071295401 -0.00011072898 0)
(0.0072008278 -0.00010329976 0)
(0.0072671537 -9.584445e-05 0)
(0.0073285028 -8.8369732e-05 0)
(0.0073848646 -8.0882205e-05 0)
(0.0074362326 -7.3388378e-05 0)
(0.0074826049 -6.589466e-05 0)
(0.0075239838 -5.8407352e-05 0)
(0.0075603758 -5.0932643e-05 0)
(0.0075917912 -4.3476596e-05 0)
(0.0076182448 -3.6045147e-05 0)
(0.0076397548 -2.8644092e-05 0)
(0.0076563436 -2.1279086e-05 0)
(0.0076680371 -1.3955636e-05 0)
(0.0076748649 -6.6790931e-06 0)
(0.0076768601 5.4535192e-07 0)
(0.0076740593 7.7126939e-06 0)
(0.0076665021 1.4818065e-05 0)
(0.0076542317 2.1856779e-05 0)
(0.007637294 2.8824336e-05 0)
(0.007615738 3.5716416e-05 0)
(0.0075896155 4.252888e-05 0)
(0.007558981 4.9257777e-05 0)
(0.0075238915 5.5899342e-05 0)
(0.0074844067 6.2450002e-05 0)
(0.0074405883 6.8906373e-05 0)
(0.0073925002 7.5265262e-05 0)
(0.0073402087 8.152367e-05 0)
(0.0072837817 8.7678786e-05 0)
(0.007223289 9.3727995e-05 0)
(0.0071588021 9.9668868e-05 0)
(0.007090394 0.00010549917 0)
(0.0070181393 0.00011121684 0)
(0.0069421138 0.00011682001 0)
(0.0068623943 0.00012230701 0)
(0.0067790588 0.00012767632 0)
(0.0066921865 0.00013292662 0)
(0.006601857 0.00013805674 0)
(0.0065081507 0.00014306571 0)
(0.006411149 0.00014795269 0)
(0.0063109332 0.00015271701 0)
(0.0062075854 0.00015735818 0)
(0.0061011878 0.00016187583 0)
(0.0059918229 0.00016626975 0)
(0.0058795732 0.00017053984 0)
(0.0057645213 0.00017468617 0)
(0.0056467496 0.00017870893 0)
(0.0055263404 0.0001826084 0)
(0.0054033758 0.000186385 0)
(0.0052779374 0.00019003924 0)
(0.0051501067 0.00019357176 0)
(0.0050199646 0.00019698325 0)
(0.0048875914 0.00020027452 0)
(0.004753067 0.00020344643 0)
(0.0046164705 0.00020649993 0)
(0.0044778806 0.00020943603 0)
(0.0043373752 0.00021225579 0)
(0.0041950313 0.00021496032 0)
(0.0040509254 0.00021755076 0)
(0.003905133 0.00022002831 0)
(0.003757729 0.00022239417 0)
(0.0036087873 0.00022464958 0)
(0.0034583811 0.00022679576 0)
(0.0033065827 0.00022883396 0)
(0.0031534636 0.00023076543 0)
(0.0029990944 0.00023259139 0)
(0.0028435449 0.00023431305 0)
(0.0026868843 0.00023593162 0)
(0.0025291808 0.00023744824 0)
(0.0023705018 0.00023886405 0)
(0.002210914 0.00024018014 0)
(0.0020504836 0.00024139754 0)
(0.0018892757 0.00024251724 0)
(0.0017273552 0.00024354018 0)
(0.0015647862 0.00024446722 0)
(0.0014016321 0.00024529917 0)
(0.0012379559 0.00024603677 0)
(0.0010738204 0.00024668069 0)
(0.00090928743 0.0002472315 0)
(0.00074441892 0.00024768972 0)
(0.00057927628 0.00024805577 0)
(0.0004139207 0.00024833001 0)
(0.00024841316 0.00024851269 0)
(8.2814506e-05 0.00024860399 0)
(-8.2667937e-05 0.00041411687 0)
(-0.00024797357 0.00041396493 0)
(-0.00041318846 0.0004136609 0)
(-0.00057825203 0.0004132045 0)
(-0.00074310353 0.00041259528 0)
(-0.00090768204 0.00041183268 0)
(-0.0010719263 0.00041091597 0)
(-0.0012357749 0.0004098443 0)
(-0.0013991659 0.0004086167 0)
(-0.0015620369 0.00040723206 0)
(-0.0017243253 0.00040568913 0)
(-0.0018859677 0.00040398659 0)
(-0.0020469002 0.00040212296 0)
(-0.0022070584 0.0004000967 0)
(-0.0023663771 0.00039790615 0)
(-0.0025247906 0.00039554958 0)
(-0.0026822323 0.00039302517 0)
(-0.002838635 0.00039033103 0)
(-0.0029939306 0.00038746523 0)
(-0.0031480504 0.00038442577 0)
(-0.0033009245 0.00038121063 0)
(-0.0034524827 0.00037781774 0)
(-0.0036026535 0.00037424504 0)
(-0.0037513648 0.00037049045 0)
(-0.0038985437 0.00036655189 0)
(-0.0040441164 0.00036242731 0)
(-0.0041880082 0.0003581147 0)
(-0.0043301436 0.00035361206 0)
(-0.0044704464 0.00034891748 0)
(-0.0046088397 0.0003440291 0)
(-0.0047452456 0.00033894514 0)
(-0.0048795858 0.00033366392 0)
(-0.0050117811 0.00032818385 0)
(-0.0051417518 0.00032250348 0)
(-0.0052694176 0.00031662147 0)
(-0.0053946977 0.00031053663 0)
(-0.0055175108 0.00030424792 0)
(-0.0056377754 0.00029775447 0)
(-0.0057554093 0.00029105558 0)
(-0.0058703305 0.00028415076 0)
(-0.0059824564 0.00027703968 0)
(-0.0060917046 0.00026972226 0)
(-0.0061979926 0.00026219862 0)
(-0.0063012379 0.0002544691 0)
(-0.0064013584 0.00024653432 0)
(-0.0064982721 0.0002383951 0)
(-0.0065918974 0.00023005256 0)
(-0.0066821532 0.00022150805 0)
(-0.0067689591 0.00021276323 0)
(-0.0068522352 0.00020382001 0)
(-0.0069319026 0.0001946806 0)
(-0.0070078832 0.0001853475 0)
(-0.0070801001 0.00017582352 0)
(-0.0071484774 0.00016611177 0)
(-0.0072129406 0.00015621565 0)
(-0.0072734166 0.0001461389 0)
(-0.0073298338 0.00013588556 0)
(-0.0073821225 0.00012545998 0)
(-0.0074302145 0.00011486684 0)
(-0.0074740436 0.00010411114 0)
(-0.0075135458 9.3198192e-05 0)
(-0.0075486592 8.2133631e-05 0)
(-0.0075793241 7.0923412e-05 0)
(-0.0076054834 5.9573803e-05 0)
(-0.0076270826 4.809139e-05 0)
(-0.0076440697 3.6483065e-05 0)
(-0.0076563956 2.4756028e-05 0)
(-0.0076640142 1.2917782e-05 0)
(-0.0076668824 9.7613081e-07 0)
(-0.0076649602 -1.1060851e-05 0)
(-0.0076582112 -2.3184782e-05 0)
(-0.0076466019 -3.5387016e-05 0)
(-0.0076301027 -4.7658638e-05 0)
(-0.0076086876 -5.9990473e-05 0)
(-0.0075823341 -7.2373099e-05 0)
(-0.0075510236 -8.4796852e-05 0)
(-0.0075147416 -9.7251841e-05 0)
(-0.0074734773 -0.00010972796 0)
(-0.0074272241 -0.0001222149 0)
(-0.0073759798 -0.00013470215 0)
(-0.007319746 -0.00014717903 0)
(-0.007258529 -0.00015963469 0)
(-0.0071923393 -0.00017205813 0)
(-0.0071211918 -0.00018443822 0)
(-0.0070451058 -0.0001967637 0)
(-0.0069641055 -0.00020902321 0)
(-0.0068782192 -0.00022120529 0)
(-0.00678748 -0.00023329843 0)
(-0.0066919259 -0.00024529104 0)
(-0.006591599 -0.00025717151 0)
(-0.0064865464 -0.0002689282 0)
(-0.0063768199 -0.00028054946 0)
(-0.0062624758 -0.00029202367 0)
(-0.006143575 -0.00030333922 0)
(-0.0060201833 -0.00031448458 0)
(-0.0058923709 -0.00032544827 0)
(-0.0057602125 -0.00033621889 0)
(-0.0056237877 -0.00034678516 0)
(-0.0054831802 -0.00035713593 0)
(-0.0053384783 -0.00036726018 0)
(-0.0051897747 -0.00037714704 0)
(-0.0050371665 -0.00038678586 0)
(-0.0048807548 -0.00039616613 0)
(-0.004720645 -0.00040527761 0)
(-0.0045569467 -0.00041411026 0)
(-0.0043897731 -0.00042265428 0)
(-0.0042192417 -0.00043090018 0)
(-0.0040454734 -0.00043883872 0)
(-0.003868593 -0.00044646095 0)
(-0.0036887286 -0.00045375826 0)
(-0.0035060119 -0.00046072237 0)
(-0.0033205776 -0.00046734532 0)
(-0.0031325637 -0.00047361953 0)
(-0.0029421112 -0.00047953779 0)
(-0.0027493638 -0.00048509327 0)
(-0.0025544678 -0.00049027954 0)
(-0.0023575722 -0.00049509057 0)
(-0.0021588282 -0.00049952077 0)
(-0.0019583891 -0.00050356496 0)
(-0.0017564102 -0.00050721841 0)
(-0.0015530489 -0.00051047684 0)
(-0.0013484638 -0.00051333642 0)
(-0.0011428151 -0.00051579378 0)
(-0.0009362644 -0.00051784603 0)
(-0.0007289742 -0.00051949074 0)
(-0.00052110792 -0.00052072599 0)
(-0.00031282968 -0.00052155029 0)
(-0.00010430406 -0.00052196269 0)
(0.00010430406 -0.00052196269 0)
(0.00031282968 -0.00052155029 0)
(0.00052110792 -0.00052072599 0)
(0.0007289742 -0.00051949074 0)
(0.0009362644 -0.00051784603 0)
(0.0011428151 -0.00051579378 0)
(0.0013484638 -0.00051333642 0)
(0.0015530489 -0.00051047684 0)
(0.0017564102 -0.00050721841 0)
(0.0019583891 -0.00050356496 0)
(0.0021588282 -0.00049952077 0)
(0.0023575722 -0.00049509057 0)
(0.0025544678 -0.00049027954 0)
(0.0027493638 -0.00048509327 0)
(0.0029421112 -0.00047953779 0)
(0.0031325637 -0.00047361953 0)
(0.0033205776 -0.00046734532 0)
(0.0035060119 -0.00046072237 0)
(0.0036887286 -0.00045375826 0)
(0.003868593 -0.00044646095 0)
(0.0040454734 -0.00043883872 0)
(0.0042192417 -0.00043090018 0)
(0.0043897731 -0.00042265428 0)
(0.0045569467 -0.00041411025 0)
(0.004720645 -0.00040527761 0)
(0.0048807548 -0.00039616613 0)
(0.0050371665 -0.00038678586 0)
(0.0051897747 -0.00037714704 0)
(0.0053384783 -0.00036726018 0)
(0.0054831802 -0.00035713593 0)
(0.0056237877 -0.00034678516 0)
(0.0057602125 -0.00033621889 0)
(0.0058923709 -0.00032544827 0)
(0.0060201833 -0.00031448458 0)
(0.006143575 -0.00030333922 0)
(0.0062624758 -0.00029202367 0)
(0.0063768199 -0.00028054946 0)
(0.0064865464 -0.0002689282 0)
(0.006591599 -0.00025717151 0)
(0.0066919259 -0.00024529104 0)
(0.00678748 -0.00023329843 0)
(0.0068782192 -0.00022120529 0)
(0.0069641055 -0.00020902321 0)
(0.0070451058 -0.0001967637 0)
(0.0071211918 -0.00018443822 0)
(0.0071923393 -0.00017205813 0)
(0.007258529 -0.00015963469 0)
(0.007319746 -0.00014717903 0)
(0.0073759798 -0.00013470215 0)
(0.0074272241 -0.0001222149 0)
(0.0074734773 -0.00010972796 0)
(0.0075147416 -9.7251841e-05 0)
(0.0075510236 -8.4796851e-05 0)
(0.0075823341 -7.2373099e-05 0)
(0.0076086876 -5.9990473e-05 0)
(0.0076301027 -4.7658638e-05 0)
(0.0076466019 -3.5387016e-05 0)
(0.0076582112 -2.3184782e-05 0)
(0.0076649602 -1.106085e-05 0)
(0.0076668824 9.761309e-07 0)
(0.0076640142 1.2917783e-05 0)
(0.0076563956 2.4756028e-05 0)
(0.0076440697 3.6483065e-05 0)
(0.0076270826 4.809139e-05 0)
(0.0076054834 5.9573803e-05 0)
(0.0075793241 7.0923412e-05 0)
(0.0075486592 8.2133631e-05 0)
(0.0075135458 9.3198192e-05 0)
(0.0074740436 0.00010411114 0)
(0.0074302145 0.00011486684 0)
(0.0073821225 0.00012545998 0)
(0.0073298338 0.00013588556 0)
(0.0072734166 0.0001461389 0)
(0.0072129406 0.00015621565 0)
(0.0071484774 0.00016611177 0)
(0.0070801001 0.00017582352 0)
(0.0070078832 0.0001853475 0)
(0.0069319026 0.0001946806 0)
(0.0068522352 0.00020382001 0)
(0.0067689591 0.00021276323 0)
(0.0066821532 0.00022150806 0)
(0.0065918974 0.00023005256 0)
(0.0064982721 0.0002383951 0)
(0.0064013584 0.00024653432 0)
(0.0063012379 0.0002544691 0)
(0.0061979926 0.00026219862 0)
(0.0060917046 0.00026972226 0)
(0.0059824564 0.00027703968 0)
(0.0058703305 0.00028415076 0)
(0.0057554093 0.00029105558 0)
(0.0056377754 0.00029775447 0)
(0.0055175108 0.00030424792 0)
(0.0053946977 0.00031053663 0)
(0.0052694176 0.00031662147 0)
(0.0051417518 0.00032250348 0)
(0.0050117811 0.00032818385 0)
(0.0048795858 0.00033366392 0)
(0.0047452456 0.00033894514 0)
(0.0046088397 0.0003440291 0)
(0.0044704464 0.00034891748 0)
(0.0043301436 0.00035361206 0)
(0.0041880082 0.0003581147 0)
(0.0040441164 0.00036242731 0)
(0.0038985437 0.00036655189 0)
(0.0037513648 0.00037049045 0)
(0.0036026535 0.00037424504 0)
(0.0034524827 0.00037781774 0)
(0.0033009245 0.00038121063 0)
(0.0031480504 0.00038442577 0)
(0.0029939306 0.00038746523 0)
(0.002838635 0.00039033103 0)
(0.0026822323 0.00039302517 0)
(0.0025247906 0.00039554958 0)
(0.0023663771 0.00039790615 0)
(0.0022070584 0.0004000967 0)
(0.0020469002 0.00040212296 0)
(0.0018859677 0.00040398659 0)
(0.0017243253 0.00040568913 0)
(0.0015620369 0.00040723206 0)
(0.0013991659 0.0004086167 0)
(0.0012357749 0.0004098443 0)
(0.0010719263 0.00041091597 0)
(0.00090768204 0.00041183268 0)
(0.00074310353 0.00041259528 0)
(0.00057825203 0.0004132045 0)
(0.00041318846 0.0004136609 0)
(0.00024797357 0.00041396493 0)
(8.2667933e-05 0.00041411687 0)
(-8.2442251e-05 0.00057925213 0)
(-0.00024729669 0.00057903986 0)
(-0.00041206094 0.0005786151 0)
(-0.00057667476 0.00057797746 0)
(-0.00074107778 0.00057712632 0)
(-0.00090520941 0.00057606088 0)
(-0.0010690088 0.00057478012 0)
(-0.0012324148 0.00057328285 0)
(-0.0013953659 0.0005715677 0)
(-0.0015578001 0.00056963311 0)
(-0.001719655 0.00056747734 0)
(-0.0018808675 0.00056509852 0)
(-0.0020413743 0.00056249459 0)
(-0.0022011111 0.00055966336 0)
(-0.0023600132 0.00055660252 0)
(-0.002518015 0.00055330963 0)
(-0.0026750504 0.00054978214 0)
(-0.0028310524 0.0005460174 0)
(-0.0029859533 0.00054201269 0)
(-0.0031396845 0.0005377652 0)
(-0.0032921767 0.00053327209 0)
(-0.0034433596 0.00052853047 0)
(-0.0035931624 0.00052353742 0)
(-0.0037415129 0.00051829003 0)
(-0.0038883387 0.00051278538 0)
(-0.004033566 0.00050702059 0)
(-0.0041771205 0.00050099281 0)
(-0.004318927 0.00049469926 0)
(-0.0044589094 0.00048813724 0)
(-0.004596991 0.00048130413 0)
(-0.0047330942 0.00047419743 0)
(-0.0048671408 0.00046681477 0)
(-0.0049990519 0.00045915392 0)
(-0.0051287478 0.00045121283 0)
(-0.0052561486 0.00044298961 0)
(-0.0053811734 0.00043448259 0)
(-0.0055037413 0.00042569029 0)
(-0.0056237706 0.00041661149 0)
(-0.0057411796 0.0004072452 0)
(-0.005855886 0.00039759068 0)
(-0.0059678077 0.00038764751 0)
(-0.0060768622 0.00037741554 0)
(-0.0061829671 0.00036689491 0)
(-0.00628604 0.00035608612 0)
(-0.0063859989 0.00034498999 0)
(-0.0064827617 0.00033360767 0)
(-0.0065762471 0.00032194071 0)
(-0.0066663738 0.000309991 0)
(-0.0067530614 0.00029776083 0)
(-0.0068362303 0.00028525288 0)
(-0.0069158013 0.00027247023 0)
(-0.0069916964 0.00025941637 0)
(-0.0070638388 0.00024609521 0)
(-0.0071321524 0.00023251109 0)
(-0.0071965627 0.00021866879 0)
(-0.0072569967 0.0002045735 0)
(-0.0073133827 0.00019023088 0)
(-0.0073656508 0.00017564701 0)
(-0.0074137328 0.00016082843 0)
(-0.0074575625 0.00014578213 0)
(-0.0074970758 0.00013051554 0)
(-0.0075322106 0.00011503654 0)
(-0.0075629072 9.9353453e-05 0)
(-0.0075891084 8.3475053e-05 0)
(-0.0076107595 6.7410548e-05 0)
(-0.0076278084 5.1169582e-05 0)
(-0.0076402059 3.4762227e-05 0)
(-0.0076479058 1.819898e-05 0)
(-0.0076508648 1.4907539e-06 0)
(-0.0076490429 -1.5351138e-05 0)
(-0.0076424032 -3.2314978e-05 0)
(-0.0076309124 -4.9388664e-05 0)
(-0.0076145406 -6.6559719e-05 0)
(-0.0075932616 -8.3815303e-05 0)
(-0.0075670527 -0.00010114223 0)
(-0.0075358953 -0.00011852697 0)
(-0.0074997746 -0.00013595568 0)
(-0.0074586796 -0.00015341421 0)
(-0.0074126036 -0.00017088813 0)
(-0.007361544 -0.00018836273 0)
(-0.0073055025 -0.00020582306 0)
(-0.007244485 -0.00022325394 0)
(-0.0071785019 -0.00024063995 0)
(-0.0071075678 -0.00025796551 0)
(-0.0070317021 -0.00027521486 0)
(-0.0069509283 -0.00029237209 0)
(-0.006865275 -0.00030942117 0)
(-0.0067747749 -0.00032634597 0)
(-0.0066794656 -0.00034313027 0)
(-0.0065793894 -0.0003597578 0)
(-0.006474593 -0.00037621226 0)
(-0.0063651279 -0.00039247735 0)
(-0.0062510503 -0.00040853679 0)
(-0.0061324211 -0.00042437433 0)
(-0.0060093056 -0.00043997381 0)
(-0.0058817739 -0.00045531915 0)
(-0.0057499007 -0.00047039441 0)
(-0.0056137652 -0.00048518378 0)
(-0.005473451 -0.00049967163 0)
(-0.0053290462 -0.00051384253 0)
(-0.0051806434 -0.00052768129 0)
(-0.0050283395 -0.00054117294 0)
(-0.0048722354 -0.00055430281 0)
(-0.0047124363 -0.00056705652 0)
(-0.0045490517 -0.00057942003 0)
(-0.0043821947 -0.00059137962 0)
(-0.0042119825 -0.00060292197 0)
(-0.004038536 -0.00061403414 0)
(-0.0038619797 -0.00062470362 0)
(-0.0036824417 -0.00063491835 0)
(-0.0035000535 -0.0006446667 0)
(-0.0033149496 -0.00065393755 0)
(-0.0031272681 -0.00066272027 0)
(-0.0029371495 -0.00067100475 0)
(-0.0027447377 -0.00067878145 0)
(-0.0025501787 -0.00068604133 0)
(-0.0023536215 -0.00069277598 0)
(-0.002155217 -0.00069897754 0)
(-0.0019551185 -0.00070463876 0)
(-0.0017534814 -0.00070975303 0)
(-0.0015504625 -0.00071431434 0)
(-0.0013462207 -0.00071831732 0)
(-0.001140916 -0.00072175727 0)
(-0.00093470987 -0.00072463013 0)
(-0.00072776465 -0.0007269325 0)
(-0.00052024371 -0.00072866166 0)
(-0.00031231105 -0.00072981558 0)
(-0.00010413116 -0.00073039288 0)
(0.00010413116 -0.00073039288 0)
(0.00031231105 -0.00072981558 0)
(0.00052024371 -0.00072866166 0)
(0.00072776465 -0.0007269325 0)
(0.00093470987 -0.00072463013 0)
(0.001140916 -0.00072175727 0)
(0.0013462207 -0.00071831732 0)
(0.0015504625 -0.00071431434 0)
(0.0017534814 -0.00070975303 0)
(0.0019551185 -0.00070463876 0)
(0.002155217 -0.00069897754 0)
(0.0023536215 -0.00069277598 0)
(0.0025501787 -0.00068604133 0)
(0.0027447377 -0.00067878144 0)
(0.0029371495 -0.00067100475 0)
(0.0031272681 -0.00066272027 0)