/*--------------------------------*- C++ -*----------------------------------*\
| =========                 |                                                 |
| \\      /  F ield         | OpenFOAM: The Open Source CFD Toolbox           |
|  \\    /   O peration     | Version:  2306                                  |
|   \\  /    A nd           | Website:  www.openfoam.com                      |
|    \\/     M anipulation  |                                                 |
\*---------------------------------------------------------------------------*/
FoamFile
{
    version     2.0;
    format      ascii;
    arch        "LSB;label=32;scalar=64";
    class       volVectorField;
    location    "0.28";
    object      U;
}
// * * * * * * * * * * * * * * * * * * * * * * * * * * * * * * * * * * * * * //

dimensions      [0 1 -1 0 0 0 0];

internalField   nonuniform List<vector> 
6400
(
(0.0015265756 0.026702013 -9.7501621e-18)
(0.0033758162 0.026463816 -2.5979035e-17)
(0.0054669339 0.025745257 8.8590822e-18)
(0.007369593 0.024673159 5.2073317e-18)
(0.0091533862 0.023276013 3.5050008e-17)
(0.010737629 0.021593411 1.1552658e-18)
(0.012088165 0.019671031 7.6563084e-18)
(0.013179832 0.017557284 4.5713337e-18)
(0.013995818 0.015303714 -7.0754104e-18)
(0.014528124 0.012963263 6.0896901e-18)
(0.01477758 0.010588442 1.3752759e-19)
(0.014753211 0.0082297994 1.2939364e-18)
(0.014471422 0.0059339106 2.688487e-18)
(0.013954272 0.0037422651 -5.3283935e-19)
(0.013228262 0.0016906628 1.8860069e-18)
(0.012324662 -0.00019193554 -2.2371367e-18)
(0.011277394 -0.0018844785 3.8345367e-18)
(0.01012005 -0.0033726453 1.4619982e-18)
(0.0088855098 -0.0046487034 3.9429112e-19)
(0.0076050512 -0.0057110199 3.3110901e-18)
(0.0063075768 -0.006563039 2.8611835e-18)
(0.0050188023 -0.00721278 2.094224e-18)
(0.0037611991 -0.0076717945 1.405082e-18)
(0.0025537662 -0.0079539095 7.0924351e-19)
(0.0014115752 -0.00807543 1.5461001e-18)
(0.00034719888 -0.0080529286 2.3361531e-18)
(-0.00062724275 -0.0079067169 3.6743336e-20)
(-0.0015073199 -0.0076523565 2.7388964e-19)
(-0.0022924477 -0.007308036 1.3403331e-18)
(-0.0029802299 -0.006890142 2.7283911e-18)
(-0.0035715341 -0.0064141024 2.0757263e-18)
(-0.0040688166 -0.0058941722 2.4021362e-20)
(-0.0044758289 -0.0053432973 -1.8413948e-19)
(-0.004797323 -0.0047730648 7.6240162e-19)
(-0.0050387895 -0.0041936919 2.1763269e-18)
(-0.0052062294 -0.0036140446 1.5162835e-19)
(-0.005305936 -0.0030417095 -9.3505069e-19)
(-0.005344358 -0.0024830696 4.6270626e-20)
(-0.005327924 -0.001943371 3.6538872e-19)
(-0.0052629466 -0.0014268296 1.6389966e-18)
(-0.0051555377 -0.00093673875 1.2278897e-18)
(-0.0050115262 -0.00047555196 1.1681368e-19)
(-0.0048364984 -4.5025671e-05 -1.350994e-18)
(-0.0046357224 0.00035410465 -9.1420941e-19)
(-0.0044139417 0.00072103726 2.1206452e-20)
(-0.0041754579 0.0010557809 -2.4360781e-19)
(-0.0039242785 0.0013587082 -9.0804906e-19)
(-0.003664002 0.0016305087 -1.0170929e-18)
(-0.003397845 0.0018721333 -1.0919975e-18)
(-0.0031286588 0.0020847411 -2.3241504e-19)
(-0.0028589485 0.0022696503 3.3520376e-19)
(-0.002590893 0.0024282958 -1.038682e-19)
(-0.002326368 0.0025621919 -1.1150668e-19)
(-0.0020669687 0.0026728998 -3.3232225e-19)
(-0.0018140354 0.002762003 -3.223651e-20)
(-0.0015686721 0.0028310833 4.8313637e-19)
(-0.0013317653 0.0028816949 3.9942825e-19)
(-0.0011040159 0.002915363 -6.0759429e-20)
(-0.00088596017 0.0029335636 -4.1665129e-19)
(-0.0006779767 0.0029377063 -8.7005504e-20)
(-0.00048031177 0.0029291495 2.6308458e-19)
(-0.00029310316 0.0029091702 6.9668801e-20)
(-0.00011641478 0.0028789851 -4.4498321e-19)
(4.9717907e-05 0.0028397936 -4.5874261e-19)
(0.00020549649 0.0027925851 9.3620089e-20)
(0.00035117363 0.0027383732 2.1956597e-19)
(0.00048691003 0.0026780736 2.1717227e-19)
(0.00061297325 0.0026125325 4.3750462e-20)
(0.00072966231 0.0025425294 -1.3961919e-19)
(0.00083730063 0.0024687789 2.0689578e-19)
(0.00093623035 0.0023919339 3.3720618e-19)
(0.0010268066 0.0023125889 -7.9047073e-20)
(0.0011093925 0.0022312836 -1.5969116e-19)
(0.0011843555 0.0021485062 -2.4733907e-19)
(0.0012520638 0.0020646964 6.2686605e-20)
(0.0013128832 0.0019802494 6.525043e-20)
(0.0013671751 0.0018955188 -5.0917782e-21)
(0.0014152941 0.00181082 -9.9536437e-20)
(0.0014575869 0.0017264329 -1.2965415e-19)
(0.0014943904 0.0016426045 -4.8902589e-20)
(0.0012881486 0.022715966 -4.0416336e-18)
(0.0028512188 0.022517929 4.0067028e-17)
(0.004619254 0.021917847 8.9173962e-18)
(0.0062308194 0.021021671 6.9226165e-18)
(0.0077450536 0.019852276 -7.0778064e-18)
(0.0090937479 0.018442543 -5.4657066e-18)
(0.010248902 0.016829908 7.9826613e-18)
(0.011189324 0.01505417 -5.4561886e-18)
(0.011900627 0.013157466 2.1989729e-18)
(0.012375538 0.011183268 4.4483462e-18)
(0.012614012 0.0091748043 -2.356973e-18)
(0.012622337 0.007173852 -8.2786645e-20)
(0.012413048 0.0052191573 2.672832e-19)
(0.012003687 0.0033454418 -8.3955015e-19)
(0.011415258 0.0015833398 3.7970946e-19)
(0.010672474 -4.2145122e-05 1.9462823e-18)
(0.0098028124 -0.00151301 1.6597817e-18)
(0.0088339246 -0.0028151228 2.2466748e-19)
(0.0077929683 -0.003940751 1.7618963e-18)
(0.0067060987 -0.0048870372 6.7213033e-19)
(0.0055977485 -0.0056555286 -8.8430734e-19)
(0.0044899617 -0.0062515913 1.4221969e-18)
(0.0034024197 -0.0066836177 1.7203995e-18)
(0.0023518248 -0.0069623378 1.6762485e-18)
(0.0013519018 -0.0071004998 3.1511258e-18)
(0.00041325471 -0.0071115526 2.1192185e-18)
(-0.00045160885 -0.0070114566 1.6014755e-18)
(-0.0012375726 -0.0068141386 1.8902621e-18)
(-0.0019444671 -0.0065344574 3.7506333e-18)
(-0.0025686637 -0.0061863925 1.1347527e-18)
(-0.0031101629 -0.0057832453 3.7814447e-19)
(-0.0035703395 -0.0053374354 1.4398095e-18)
(-0.0039517675 -0.0048603636 1.4660204e-18)
(-0.0042579773 -0.0043623457 2.9200046e-18)
(-0.0044932275 -0.0038525824 -7.5630409e-19)
(-0.0046623152 -0.0033391557 -2.7620805e-19)
(-0.0047704074 -0.0028290646 5.6738639e-19)
(-0.0048228535 -0.0023282814 1.0239824e-18)
(-0.004825064 -0.0018417747 1.6958751e-18)
(-0.0047824491 -0.0013736479 -8.8924365e-19)
(-0.004700296 -0.00092715669 -1.362893e-18)
(-0.0045836993 -0.0005048302 -9.8746687e-19)
(-0.0044374984 -0.00010851042 -1.5898965e-18)
(-0.0042664037 0.00026060574 -1.0616735e-18)
(-0.0040747355 0.00060178585 -3.433065e-19)
(-0.0038663514 0.00091471865 -3.0988781e-19)
(-0.0036448913 0.0011994894 -9.8547862e-19)
(-0.0034136618 0.0014565 -1.3868025e-18)
(-0.0031756434 0.0016864134 -1.0941732e-18)
(-0.0029335011 0.0018901033 -3.699097e-19)
(-0.0026895972 0.0020686096 -7.339879e-20)
(-0.0024460066 0.0022230987 -4.2148819e-19)
(-0.0022045339 0.0023548293 -3.2626163e-19)
(-0.0019667322 0.0024651207 -4.9435131e-19)
(-0.001733924 0.0025553302 -3.8604986e-19)
(-0.0015072184 0.0026268304 3.3808355e-20)
(-0.0012875218 0.0026809831 8.6760582e-20)
(-0.0010755662 0.002719135 -1.1173104e-21)
(-0.00087193527 0.0027426026 -5.6801904e-19)
(-0.00067706074 0.0027526551 -6.2194893e-19)
(-0.00049124584 0.0027505154 -1.6983668e-19)
(-0.00031469063 0.0027373503 -2.5940449e-19)
(-0.00014752237 0.0027142662 -5.5197789e-19)
(1.0162625e-05 0.0026823337 -5.2259317e-19)
(0.00015847987 0.0026425507 -2.1201533e-19)
(0.00029760779 0.0025958086 -2.8573716e-20)
(0.00042765337 0.0025429713 -7.0246272e-21)
(0.00054881745 0.0024848365 -1.3036275e-19)
(0.00066133623 0.002422142 -2.2215909e-19)
(0.00076547326 0.0023555672 -2.0254019e-20)
(0.00086151335 0.0022857363 1.2910584e-19)
(0.00094975737 0.0022132203 -5.1092272e-20)
(0.0010305177 0.0021385403 -2.2087703e-19)
(0.0011041137 0.0020621703 -2.5369303e-19)
(0.0011708686 0.0019845394 -5.0459124e-20)
(0.0012311069 0.0019060354 -3.5843643e-20)
(0.0012851511 0.0018270075 -8.0478371e-20)
(0.0013333199 0.0017477687 -1.7346263e-19)
(0.0013759267 0.0016685987 -1.6276337e-19)
(0.0014132783 0.0015897461 -8.6521775e-20)
(0.0010890149 0.019346891 3.3695347e-18)
(0.0024123883 0.019181655 3.7316788e-17)
(0.0039098176 0.018679255 2.8568014e-18)
(0.0052770349 0.017928319 -1.4175641e-17)
(0.0065643801 0.016947314 -1.5572721e-17)
(0.0077141615 0.015763568 1.1645876e-18)
(0.0087033526 0.01440782 -4.3435728e-18)
(0.0095139664 0.012912824 -3.6138768e-18)
(0.010133653 0.011313143 -7.1989823e-18)
(0.010555828 0.0096445597 -1.8446573e-18)
(0.010779743 0.0079427568 -3.9580848e-18)
(0.010809959 0.0062422561 1.7924402e-19)
(0.010655984 0.0045756483 6.2118499e-19)
(0.010331803 0.0029719684 1.627447e-18)
(0.0098541614 0.0014571543 3.4700103e-18)
(0.0092417126 5.2713563e-05 -2.7629449e-18)
(0.0085176477 -0.0012249422 -3.4124364e-19)
(0.0077052247 -0.0023633065 3.0147057e-19)
(0.0068261233 -0.0033546832 1.432059e-18)
(0.0059023307 -0.0041954939 -4.6181146e-19)
(0.004954571 -0.0048858895 -2.2776815e-19)
(0.0040017342 -0.0054292944 1.0381907e-18)
(0.0030609222 -0.0058316407 -1.5517128e-18)
(0.0021467563 -0.0061013227 6.7561562e-19)
(0.0012716043 -0.0062481832 -1.461573e-19)
(0.00044491678 -0.0062831702 -1.5795344e-18)
(-0.00032168319 -0.00621831 -9.1958885e-19)
(-0.0010227845 -0.0060667583 -5.7783603e-19)
(-0.0016577317 -0.0058401262 8.7320184e-19)
(-0.0022225837 -0.0055503786 1.0290532e-18)
(-0.0027166678 -0.0052089606 -5.0493812e-19)
(-0.0031405297 -0.004826656 -1.0211497e-18)
(-0.0034958176 -0.0044134673 -6.5621116e-19)
(-0.0037850805 -0.0039785364 -1.2477023e-19)
(-0.0040115761 -0.0035301018 9.0670686e-19)
(-0.0041791043 -0.0030754906 8.9292875e-19)
(-0.0042918448 -0.0026211133 -1.0432365e-18)
(-0.0043542167 -0.0021724926 -2.960684e-19)
(-0.004370778 -0.0017343291 -6.8959584e-19)
(-0.0043461313 -0.0013105546 2.2460403e-20)
(-0.0042848208 -0.00090432594 1.4327225e-18)
(-0.0041912547 -0.00051816787 -2.701473e-19)
(-0.0040696846 -0.00015399625 -1.1692008e-18)
(-0.0039242798 0.00018679614 -6.9880661e-19)
(-0.0037588887 0.00050336014 -2.7509082e-19)
(-0.003577003 0.00079519406 -1.8778694e-19)
(-0.0033819165 0.0010621615 -6.9152317e-19)
(-0.0031766502 0.0013044308 -8.1570514e-19)
(-0.0029639501 0.0015224249 -5.7451735e-19)
(-0.0027462918 0.0017167758 1.567804e-20)
(-0.0025258889 0.0018882843 6.1819732e-20)
(-0.0023047028 0.0020378837 -1.8176269e-19)
(-0.0020844564 0.0021666079 -1.8660765e-19)
(-0.0018666474 0.0022755625 -1.8680825e-19)
(-0.0016525659 0.0023659021 3.6916969e-19)
(-0.0014433105 0.00243881 -7.5434896e-20)
(-0.0012397938 0.0024954745 -1.1717149e-19)
(-0.0010427648 0.0025370781 1.7969153e-19)
(-0.0008528367 0.0025647891 -5.5365387e-20)
(-0.00067048188 0.0025797477 -9.169489e-21)
(-0.00049605034 0.0025830491 -3.3349219e-19)
(-0.00032979787 0.0025757472 -3.7355763e-19)
(-0.00017188659 0.00255885 -1.5548857e-19)
(-2.2457018e-05 0.0025333552 -5.4762123e-20)
(0.0001185124 0.0025001677 1.4306658e-19)
(0.00025113669 0.002460121 -1.5949077e-19)
(0.00037548426 0.0024140207 -1.2710276e-19)
(0.00049169625 0.002362614 1.2854971e-19)
(0.00059995277 0.0023065957 9.5606336e-20)
(0.00070046367 0.002246609 8.396352e-20)
(0.00079346238 0.0021832479 -1.2192447e-19)
(0.00087920067 0.0021170582 -1.3769379e-19)
(0.00095794423 0.002048541 -9.2279711e-20)
(0.0010299686 0.0019781538 1.8188341e-20)
(0.0010955557 0.0019063131 8.3078281e-20)
(0.0011549911 0.0018333974 -2.1239747e-19)
(0.0012085612 0.0017597493 -2.1417556e-19)
(0.0012565513 0.0016856776 -6.0964587e-20)
(0.0012992435 0.0016114595 6.8479403e-21)
(0.0013369156 0.0015373436 2.8174481e-20)
(0.00092230049 0.016494225 -7.7694504e-18)
(0.0020445202 0.016355916 -1.744265e-17)
(0.0033148145 0.015934243 -4.2187614e-18)
(0.0044765503 0.015303528 -1.5921649e-18)
(0.0055725948 0.014478709 -1.0332054e-18)
(0.0065540124 0.013482584 -2.0034807e-18)
(0.0074018685 0.012340403 2.4953968e-18)
(0.008100905 0.011079085 -7.3491666e-18)
(0.0086404585 0.0097272039 -3.7687109e-19)
(0.0090145818 0.008314142 4.6824123e-18)
(0.0092221178 0.0068696272 6.839852e-18)
(0.0092663647 0.0054223014 3.8390421e-18)
(0.009154419 0.0039992767 6.0551258e-19)
(0.0088971811 0.0026251605 2.9095079e-19)
(0.0085081057 0.0013218005 -5.600318e-18)
(0.0080024488 0.00010762645 4.8200986e-18)
(0.0073986969 -0.0010019074 1.5504298e-18)
(0.0067158356 -0.0019964859 -1.0626831e-18)
(0.0059720953 -0.0028684821 -1.3021784e-18)
(0.0051858121 -0.0036139751 -4.9277173e-18)
(0.0043744458 -0.0042321284 -4.3595101e-19)
(0.0035542341 -0.0047248919 9.5581914e-19)
(0.0027399254 -0.0050964894 1.8366398e-18)
(0.0019443139 -0.0053532765 3.4940179e-18)
(0.0011785291 -0.0055028444 7.8166975e-19)
(0.00045109063 -0.0055540686 -3.7415266e-19)
(-0.00022771107 -0.0055163178 7.8744063e-19)
(-0.00085243117 -0.005401077 1.289389e-18)
(-0.0014216423 -0.0052177909 2.5604413e-18)
(-0.0019315384 -0.0049766219 2.1174711e-18)
(-0.0023809533 -0.0046873773 -6.1273422e-19)
(-0.0027698147 -0.0043593886 -2.5363549e-19)
(-0.0030990537 -0.0040014003 4.1390435e-19)
(-0.0033704366 -0.0036214828 6.3884452e-19)
(-0.0035864055 -0.0032269825 1.9306065e-18)
(-0.0037499288 -0.0028245008 -5.1872895e-19)
(-0.0038643689 -0.0024198693 -8.9319199e-19)
(-0.003933366 -0.0020181868 -7.1332555e-20)
(-0.0039607381 -0.001623841 1.5803542e-19)
(-0.003950354 -0.0012405356 1.1709553e-18)
(-0.003906092 -0.00087131563 1.5335092e-20)
(-0.0038318002 -0.00051867227 -5.3852113e-19)
(-0.003731196 -0.0001845592 -1.1216363e-19)
(-0.0036079253 0.00012958328 -3.7342065e-19)
(-0.0034654105 0.00042276422 -6.3238922e-19)
(-0.0033067998 0.00069434296 -6.5207995e-19)
(-0.0031350649 0.00094401455 -2.2880864e-19)
(-0.0029529534 0.0011717605 2.6173722e-20)
(-0.0027629829 0.0013778061 -2.3827061e-19)
(-0.0025674415 0.0015625807 -2.2985347e-19)
(-0.0023683912 0.0017266815 -3.7375492e-19)
(-0.0021676749 0.0018708406 -6.9437096e-20)
(-0.0019669255 0.001995896 -4.9572204e-20)
(-0.0017675761 0.002102765 1.9107117e-19)
(-0.0015708737 0.0021924223 4.6989917e-19)
(-0.0013778938 0.0022658807 -5.9377762e-19)
(-0.0011895431 0.0023241714 -4.2629241e-19)
(-0.0010065761 0.0023683287 -5.1961308e-20)
(-0.00082961981 0.0023993837 9.1110849e-20)
(-0.00065917792 0.0024183546 1.8990648e-19)
(-0.00049564019 0.0024262211 -5.2008096e-19)
(-0.00033929635 0.0024239368 -5.6602503e-19)
(-0.00019033111 0.0024124251 -2.213827e-19)
(-4.8942747e-05 0.0023925623 -3.9821652e-22)
(8.4821515e-05 0.0023652293 2.6786068e-19)
(0.00021103624 0.0023311642 -1.8383062e-19)
(0.00032972385 0.0022911275 -2.4594243e-19)
(0.0004409743 0.0022458155 3.715091e-20)
(0.00054491916 0.00219588 3.2003215e-20)
(0.00064172074 0.0021419272 1.3674774e-19)
(0.00073156652 0.00208452 -1.3139286e-19)
(0.00081466401 0.0020241782 -2.8159283e-19)
(0.00089123677 0.0019613811 -2.0787249e-19)
(0.00096152021 0.0018965683 -4.1807429e-20)
(0.0010257583 0.0018301426 1.3045822e-19)
(0.0010842008 0.001762471 -1.2118767e-19)
(0.0011371005 0.0016938879 -2.4745644e-19)
(0.0011847113 0.001624696 -1.4877695e-19)
(0.0012272861 0.0015551687 -1.2931732e-19)
(0.0012650753 0.0014855527 7.0571424e-20)
(0.00078245459 0.014074819 -1.2421479e-17)
(0.0017355327 0.013958679 -1.8645464e-17)
(0.0028147859 0.013603889 2.2298637e-18)
(0.0038033197 0.013072903 1.5449875e-17)
(0.0047377389 0.012377856 1.8745444e-19)
(0.0055764628 0.011537782 1.2589893e-17)
(0.0063037505 0.010573493 3.8367955e-18)
(0.0069067493 0.0095072253 8.5966052e-19)
(0.0073761993 0.0083625451 5.8452e-18)
(0.0077068886 0.0071637827 6.9685453e-19)
(0.007897388 0.0059355665 -2.0043655e-18)
(0.0079497184 0.0047017815 -2.4830689e-18)
(0.0078693681 0.0034851465 3.6957965e-19)
(0.0076651014 0.0023064659 -9.4583996e-19)
(0.007347512 0.0011842917 1.2152206e-18)
(0.0069289125 0.00013458682 4.8139493e-20)
(0.0064242651 -0.00082931623 3.985116e-19)
(0.0058491838 -0.0016979221 9.9545315e-19)
(0.005218874 -0.0024641293 1.0729892e-18)
(0.0045486008 -0.0031239089 1.3694188e-18)
(0.0038532025 -0.0036758171 7.5422921e-19)
(0.0031464931 -0.0041206717 -8.3256178e-19)
(0.0024412261 -0.0044614796 6.9039456e-19)
(0.0017486575 -0.0047028787 2.4409956e-19)
(0.0010785913 -0.0048508208 -7.0694707e-19)
(0.00043875919 -0.004912425 1.0796937e-18)
(-0.00016181089 -0.0048951456 4.0465617e-19)
(-0.00071783545 -0.004808568 6.5595272e-19)
(-0.001227317 -0.0046605895 9.5234931e-19)
(-0.00168665 -0.0044597999 -2.9772091e-19)
(-0.0020943397 -0.0042145789 -1.5569411e-20)
(-0.0024498696 -0.0039329788 -1.0963784e-19)
(-0.002753626 -0.0036226198 2.4167424e-19)
(-0.0030067593 -0.0032906034 6.8731284e-19)
(-0.0032110527 -0.0029434554 1.5042177e-19)
(-0.0033687932 -0.002587093 -9.7864191e-19)
(-0.0034826625 -0.0022268042 -7.5860424e-19)
(-0.0035556315 -0.0018672598 -1.4640723e-19)
(-0.0035908604 -0.0015125136 1.2179187e-18)
(-0.0035916111 -0.0011660237 -8.8429852e-20)
(-0.0035612149 -0.00083072974 -8.4266556e-19)
(-0.0035029875 -0.00050903986 -7.1366051e-19)
(-0.0034201349 -0.0002028717 -1.3113032e-18)
(-0.0033158631 8.628728e-05 -8.5662133e-19)
(-0.0031932184 0.00035736714 -5.0601445e-19)
(-0.0030550079 0.00060962345 4.9064423e-20)
(-0.0029039055 0.00084262133 1.1049987e-20)
(-0.0027424018 0.0010561943 -5.1380832e-19)
(-0.0025727957 0.0012504069 -5.4249859e-19)
(-0.0023971921 0.0014255201 -3.3372504e-19)
(-0.0022175023 0.0015819591 -1.6995761e-19)
(-0.0020354481 0.001720284 -8.9466734e-21)
(-0.0018525676 0.0018411626 -9.449737e-20)
(-0.0016702228 0.0019453476 2.0766719e-19)
(-0.0014896094 0.0020336544 1.7460928e-19)
(-0.0013117701 0.0021069442 -1.3630585e-19)
(-0.001137596 0.0021661067 -9.5076678e-20)
(-0.00096783776 0.0022120417 -1.2727552e-19)
(-0.0008031261 0.0022456565 1.5164036e-19)
(-0.00064398332 0.002267852 2.0519672e-19)
(-0.00049082408 0.0022795055 -2.1020604e-19)
(-0.00034396394 0.0022814806 -3.3580056e-19)
(-0.00020364265 0.0022746087 -3.9033977e-19)
(-7.0042231e-05 0.0022596712 -1.6854905e-20)
(5.6721851e-05 0.0022374957 2.4363412e-19)
(0.00017664131 0.0022087617 -4.7904648e-20)
(0.00028974259 0.0021741671 -9.6885361e-20)
(0.00039605854 0.0021343614 4.639099e-20)
(0.00049567886 0.0020899537 7.5572436e-20)
(0.00058872413 0.0020415143 2.6442678e-19)
(0.00067534091 0.001989574 -1.4192747e-20)
(0.00075569734 0.0019346262 -1.9369117e-19)
(0.00082997871 0.0018771272 -1.7713709e-19)
(0.00089838399 0.0018174983 1.1062956e-20)
(0.00096112253 0.0017561264 1.7925734e-19)
(0.0010184111 0.0016933664 -6.5285391e-20)
(0.0010704715 0.0016295427 -1.9871944e-19)
(0.0011175284 0.0015649509 -1.6145802e-19)
(0.0011598073 0.0014998589 -5.1986198e-20)
(0.0011975333 0.0014345096 1.6954901e-19)
(0.00066485033 0.012019611 1.4150576e-19)
(0.0014754508 0.011921781 3.1599266e-17)
(0.0023937006 0.01162257 -9.0487108e-18)
(0.0032359653 0.011174514 9.8036253e-18)
(0.0040335168 0.010587601 3.0558721e-18)
(0.0047509752 0.0098776546 -2.0172007e-18)
(0.0053753743 0.0090619612 7.9127609e-19)
(0.0058957462 0.0081588605 3.748157e-18)
(0.0063040524 0.0071878464 2.5580857e-18)
(0.006595585 0.0061691283 -1.7886421e-18)
(0.0067687946 0.0051231535 -2.7434692e-18)
(0.0068251412 0.0040698574 1.2681096e-18)
(0.0067686348 0.0030283908 5.8815926e-19)
(0.0066060728 0.0020163882 1.4031021e-19)
(0.0063460845 0.0010494342 5.69998e-19)
(0.0059986933 0.00014149165 -1.9234144e-18)
(0.005575898 -0.0006959642 2.4935975e-19)
(0.005090562 -0.0014542564 -1.0150162e-18)
(0.0045553904 -0.002126934 -1.0965996e-18)
(0.0039831292 -0.0027099448 -2.8990869e-19)
(0.0033863649 -0.0032014482 -3.8004508e-19)
(0.0027768822 -0.0036015806 -1.3654144e-18)
(0.0021656597 -0.0039122248 -1.2799623e-18)
(0.0015625261 -0.0041369218 -2.9154882e-18)
(0.00097612274 -0.0042801642 -2.6811665e-18)
(0.00041348998 -0.004347713 -1.058771e-18)
(-0.00011752903 -0.0043454998 -2.5196197e-18)
(-0.00061194911 -0.0042814207 -2.1415734e-18)
(-0.0010673627 -0.0041621149 -1.7187543e-18)
(-0.001480414 -0.0039948259 -1.3701977e-18)
(-0.0018494009 -0.0037867002 -1.4263524e-18)
(-0.002173497 -0.0035446711 -2.03961e-18)
(-0.0024526805 -0.003275362 -1.1088259e-18)
(-0.0026876221 -0.0029850026 -1.7925018e-19)
(-0.0028795767 -0.0026793694 -3.820617e-19)
(-0.0030302757 -0.002363746 -8.5133371e-19)
(-0.0031418355 -0.0020429084 -9.5092614e-19)
(-0.003216658 -0.0017211034 -2.3870454e-19)
(-0.0032573497 -0.0014020622 4.715905e-19)
(-0.0032666672 -0.001089022 3.3471625e-19)
(-0.00324744 -0.00078475875 5.5640732e-19)
(-0.0032024938 -0.00049154362 -6.6829076e-19)
(-0.0031346225 -0.00021126123 -1.3002138e-18)
(-0.0030466247 5.4574338e-05 -7.8017597e-19)
(-0.0029411831 0.00030486275 -3.4149791e-19)
(-0.0028208102 0.00053878732 3.1128196e-19)
(-0.0026879009 0.00075581626 -4.0204368e-19)
(-0.0025447036 0.00095566803 -7.7032853e-19)
(-0.0023933091 0.0011382781 -2.60046e-19)
(-0.0022356456 0.0013037693 -9.8482825e-20)
(-0.0020734769 0.0014524227 8.5956472e-20)
(-0.0019084038 0.0015846518 -1.5673013e-19)
(-0.0017418673 0.0017009785 -2.5030617e-19)
(-0.0015751539 0.0018020119 -1.7652026e-19)
(-0.0014094024 0.0018884274 6.8069121e-20)
(-0.0012456153 0.0019609519 3.1468353e-19)
(-0.0010846604 0.002020348 -2.1941298e-20)
(-0.00092727594 0.0020673945 -1.4615738e-19)
(-0.00077408948 0.0021028867 -1.4267789e-19)
(-0.00062563252 0.002127618 1.0099766e-19)
(-0.00048233312 0.0021423706 2.509241e-20)
(-0.00034453034 0.0021479185 -3.5190659e-19)
(-0.00021248964 0.0021450134 -5.0294841e-19)
(-8.6413319e-05 0.0021343767 -2.4592928e-19)
(3.3549376e-05 0.0021167211 1.8272145e-19)
(0.00014734292 0.0020927179 1.3290584e-20)
(0.00025495822 0.0020629918 -1.9108541e-19)
(0.00035639701 0.0020281464 -1.1833098e-19)
(0.00045171132 0.0019887499 2.1232517e-20)
(0.00054098491 0.0019453362 3.0167358e-19)
(0.00062432816 0.0018984048 -2.3803759e-21)
(0.00070187385 0.0018484219 -1.6010099e-19)
(0.00077377313 0.0017958208 -1.9521627e-19)
(0.00084019198 0.001741003 -3.8404724e-20)
(0.00090130808 0.0016843393 1.8492497e-19)
(0.0009573082 0.0016261711 -6.064718e-20)
(0.0010083856 0.0015668119 -1.7391452e-19)
(0.0010547379 0.0015065485 -1.3708699e-19)
(0.0010965653 0.0014456425 -1.3758099e-21)
(0.0011340689 0.001384332 1.2385046e-19)
(0.00056575551 0.010271255 2.6974671e-19)
(0.0012560945 0.010188639 7.1557127e-18)
(0.0020384127 0.0099356524 1.9270194e-18)
(0.0027569481 0.0095567509 -3.0436573e-18)
(0.003438444 0.0090601076 -4.7963835e-18)
(0.0040528029 0.0084589742 -2.3595902e-18)
(0.0045891842 0.0077676725 3.3669444e-18)
(0.0050382831 0.0070013445 -2.4425824e-18)
(0.0053931292 0.0061762266 -8.8223015e-19)
(0.005649603 0.0053090479 2.5920228e-18)
(0.005806079 0.0044169523 -6.5968498e-19)
(0.0058633482 0.0035165623 1.3649585e-18)
(0.0058245714 0.0026239563 -3.5470355e-19)
(0.0056949936 0.0017540917 3.0268065e-19)
(0.0054815507 0.00092034953 -6.0360753e-19)
(0.0051924272 0.00013467753 -1.7282519e-18)
(0.0048373213 -0.00059297337 1.1426358e-18)
(0.0044268644 -0.0012547652 1.3830268e-19)
(0.0039716171 -0.0018448675 5.3298156e-19)
(0.003482271 -0.002359308 5.5989778e-19)
(0.0029694718 -0.0027960698 -1.225837e-18)
(0.002443308 -0.003154754 2.0019274e-19)
(0.0019131481 -0.0034365386 6.2865946e-19)
(0.0013876348 -0.0036439251 3.6676653e-19)
(0.00087435032 -0.0037804307 7.0495818e-19)
(0.00037960657 -0.0038505491 6.8403915e-19)
(-8.9699002e-05 -0.0038591095 2.3095262e-19)
(-0.00052898327 -0.0038125502 5.3197948e-19)
(-0.00093562461 -0.0037164484 1.2352839e-18)
(-0.0013064971 -0.0035769017 3.7467449e-19)
(-0.001639792 -0.0033999952 -2.7117392e-19)
(-0.0019344765 -0.003191688 2.2269499e-19)
(-0.0021902301 -0.0029577248 5.7824364e-19)
(-0.0024073548 -0.0027035566 1.136383e-18)
(-0.0025866876 -0.0024342828 1.5925076e-19)
(-0.0027295128 -0.0021546086 3.2393388e-19)
(-0.0028374733 -0.0018688236 6.0860169e-19)
(-0.0029124987 -0.0015807797 8.2272992e-19)
(-0.0029567423 -0.001293896 1.2443006e-18)
(-0.0029725038 -0.0010111619 1.263526e-18)
(-0.0029621465 -0.00073516404 8.6870404e-19)
(-0.002928102 -0.0004680825 -6.701053e-19)
(-0.002872816 -0.00021172054 -1.1186073e-18)
(-0.0027987099 3.2427397e-05 -6.3062149e-19)
(-0.0027081365 0.0002632383 2.6679175e-19)
(-0.0026033317 0.00047985379 3.7252461e-19)
(-0.0024864355 0.00068167461 -5.5715771e-19)
(-0.0023594722 0.00086833198 -6.3553293e-19)
(-0.0022243368 0.0010396598 -1.2768267e-19)
(-0.002082789 0.0011956682 4.1138072e-19)
(-0.0019364501 0.0013365192 3.6238347e-19)
(-0.0017868015 0.0014625026 4.4979296e-20)
(-0.0016351871 0.0015740156 1.0662269e-20)
(-0.0014828155 0.0016715427 -5.5408508e-20)
(-0.0013307648 0.0017556373 6.7824445e-19)
(-0.0011799923 0.0018269075 4.5722765e-19)
(-0.0010313364 0.0018860028 4.8292517e-20)
(-0.00088551614 0.0019335937 2.9055259e-19)
(-0.0007431499 0.0019703724 3.5975534e-20)
(-0.00060477139 0.0019970363 3.2543224e-19)
(-0.00047081485 0.0020142846 1.7685924e-19)
(-0.00034162804 0.0020228006 -2.3894229e-19)
(-0.00021750335 0.002023267 -1.2529327e-19)
(-9.8662563e-05 0.0020163337 -2.7255102e-20)
(1.4728588e-05 0.0020026448 3.7161454e-19)
(0.00012257398 0.0019828198 1.5053688e-19)
(0.00022483168 0.001957434 -1.1769325e-19)
(0.00032147743 0.0019270444 1.5620414e-19)
(0.00041253134 0.0018921791 1.9412708e-19)
(0.00049804522 0.0018533363 2.853987e-19)
(0.00057809766 0.0018109845 1.4004804e-19)
(0.00065279006 0.0017655627 7.4623541e-21)
(0.000722243 0.0017174808 4.1788837e-20)
(0.00078659291 0.0016671203 7.7712925e-20)
(0.00084598889 0.0016148349 1.9262543e-19)
(0.00090059029 0.001560952 3.2251809e-20)
(0.0009505642 0.0015057732 -1.0118177e-19)
(0.00099608334 0.001449576 -1.7274554e-21)
(0.0010373243 0.0013926142 6.3124307e-20)
(0.001074466 0.0013351202 6.2207744e-20)
(0.00048207692 0.0087819535 -4.1678257e-18)
(0.0010707067 0.0087119883 -2.4224151e-18)
(0.0017380045 0.0084976127 3.2629182e-18)
(0.0023516957 0.0081765043 -8.5031422e-18)
(0.0029346329 0.0077554032 -1.5965882e-19)
(0.003461105 0.0072453914 1.1441194e-17)
(0.0039221129 0.006658403 -5.8590117e-18)
(0.0043097998 0.0060070188 -5.0770713e-20)
(0.004618054 0.0053046551 2.8333031e-18)
(0.0048432172 0.0045653466 -2.8902403e-18)
(0.0049836691 0.0038033316 1.2477255e-18)
(0.0050398334 0.0030326234 3.9719574e-19)
(0.0050140578 0.0022668137 -7.0086273e-19)
(0.0049105106 0.0015184871 3.6225831e-19)
(0.0047347844 0.00079911561 -7.1851251e-19)
(0.0044934637 0.00011893132 2.9720737e-18)
(0.004194454 -0.00051336545 -4.3883874e-19)
(0.0038465276 -0.0010907972 3.4475912e-19)
(0.0034585255 -0.001608085 1.5661096e-18)
(0.0030393844 -0.0020614622 -4.9768612e-19)
(0.002598131 -0.0024488423 6.3187707e-19)
(0.0021433483 -0.0027694268 8.7995095e-19)
(0.0016831291 -0.0030239436 -3.8538624e-20)
(0.0012249675 -0.0032139821 5.7843055e-19)
(0.00077551433 -0.0033424254 3.7737859e-19)
(0.00034049834 -0.0034126251 -1.7553192e-19)
(-7.4168882e-05 -0.0034285934 -1.1658603e-19)
(-0.00046424232 -0.0033955544 3.710093e-19)
(-0.00082699994 -0.0033181622 1.1460515e-18)
(-0.0011595708 -0.0032015496 1.7723667e-19)
(-0.0014601092 -0.0030508911 -3.6118395e-19)
(-0.0017274543 -0.0028713009 -4.5510115e-19)
(-0.0019610738 -0.0026677526 1.1405044e-19)
(-0.0021609922 -0.002445005 7.492204e-19)
(-0.0023277178 -0.0022075481 1.3826459e-19)
(-0.0024621707 -0.0019595607 4.2900524e-19)
(-0.0025656127 -0.0017048786 -3.2578874e-19)
(-0.002639576 -0.0014469838 2.4805622e-19)
(-0.0026858043 -0.0011889979 2.6233119e-19)
(-0.0027062196 -0.00093367072 -6.7822855e-19)
(-0.0027028433 -0.00068339072 -7.8115978e-19)
(-0.0026777212 -0.00044023361 -1.0049119e-19)
(-0.0026329583 -0.00020591718 4.7898666e-19)
(-0.0025706715 1.8118763e-05 -1.3410048e-19)
(-0.0024929121 0.00023074565 -2.1543997e-19)
(-0.0024016665 0.00043108469 -4.4784007e-19)
(-0.0022988406 0.00061849191 1.5524478e-19)
(-0.0021862507 0.00079253458 5.0589233e-19)
(-0.0020656091 0.00095296795 -6.8279698e-21)
(-0.0019385164 0.0010997122 1.1721672e-19)
(-0.0018064572 0.0012328312 -3.7353126e-20)
(-0.0016707975 0.0013525117 2.3670238e-19)
(-0.0015327849 0.0014590448 2.0404353e-19)
(-0.0013935494 0.0015528079 3.1052423e-19)
(-0.0012541068 0.0016342483 7.5505325e-19)
(-0.0011153651 0.0017038702 1.0331544e-20)
(-0.00097812913 0.0017622223 1.928955e-19)
(-0.00084309465 0.0018098786 4.0664746e-19)
(-0.00071086455 0.0018474381 3.5778941e-19)
(-0.00058196302 0.001875512 3.3355293e-19)
(-0.00045683159 0.0018947228 -1.4068e-19)
(-0.00033582628 0.0019056751 -6.6751325e-20)
(-0.00021924785 0.0019089756 4.759989e-20)
(-0.00010733684 0.0019052197 1.5937057e-19)
(-2.729118e-07 0.0018949852 2.8002155e-19)
(0.00010181921 0.0018788389 -2.9386869e-21)
(0.00019886748 0.0018573102 -2.6621269e-20)
(0.00029082612 0.0018309122 1.9820456e-19)
(0.00037768814 0.0018001341 1.5544396e-19)
(0.00045947763 0.0017654392 1.3429893e-19)
(0.00053624557 0.0017272659 3.5496408e-20)
(0.00060806588 0.001686026 -5.2021981e-20)
(0.00067503187 0.0016421064 2.8729311e-20)
(0.00073725348 0.001595868 9.8611813e-20)
(0.00079485414 0.0015476475 1.1985781e-19)
(0.00084796823 0.0014977573 -1.807545e-20)
(0.00089673901 0.0014464869 -1.5300771e-19)
(0.00094131646 0.0013941032 -3.7287898e-20)
(0.00098185551 0.001340852 -1.7315043e-20)
(0.0010185143 0.0012869589 -2.057376e-21)
(0.00041129004 0.0075116998 -3.0733681e-19)
(0.00091378117 0.0074522723 1.3288742e-18)
(0.0014836199 0.0072702211 -2.1785159e-18)
(0.0020082844 0.0069975256 6.9862434e-18)
(0.0025073098 0.0066397877 2.3223196e-18)
(0.0029588167 0.0062063041 1.6583639e-18)
(0.0033552734 0.0057070319 -7.0238254e-19)
(0.0036898894 0.0051524165 4.3432112e-18)
(0.0039574316 0.004553611 -2.1863611e-18)
(0.0041547159 0.0039224108 2.3165587e-18)
(0.0042801608 0.0032706391 3.5837419e-18)
(0.0043339068 0.0026101581 4.4581167e-19)
(0.004317679 0.0019523668 1.1370949e-18)
(0.0042346472 0.0013080706 7.4579874e-19)
(0.004089382 0.00068695787 3.6553106e-20)
(0.003887313 9.7868182e-05 -6.713189e-19)
(0.0036348761 -0.00045165689 7.0638359e-19)
(0.0033393028 -0.00095537429 3.4996488e-19)
(0.0030079536 -0.0014085449 4.5360301e-20)
(0.00264832 -0.0018076851 -7.0527863e-19)
(0.0022680916 -0.0021506595 -7.1480168e-19)
(0.0018745463 -0.0024364903 -1.4016936e-18)
(0.0014746725 -0.0026654407 -6.7838168e-19)
(0.0010749576 -0.0028385807 3.5991189e-19)
(0.0006812376 -0.002958121 -1.2497208e-18)
(0.00029866918 -0.0030266145 -1.378614e-18)
(-6.7685481e-05 -0.0030474138 -9.9215695e-19)
(-0.00041389402 -0.0030246775 -8.8592128e-19)
(-0.0007372605 -0.0029623092 -4.6978136e-20)
(-0.0010351584 -0.0028646234 -3.716952e-19)
(-0.0013057578 -0.0027360142 -1.2877184e-18)
(-0.0015478294 -0.0025808648 -1.1370571e-18)