/*--------------------------------*- C++ -*----------------------------------*\
| =========                 |                                                 |
| \\      /  F ield         | OpenFOAM: The Open Source CFD Toolbox           |
|  \\    /   O peration     | Version:  2306                                  |
|   \\  /    A nd           | Website:  www.openfoam.com                      |
|    \\/     M anipulation  |                                                 |
\*---------------------------------------------------------------------------*/
FoamFile
{
    version     2.0;
    format      ascii;
    arch        "LSB;label=32;scalar=64";
    class       volVectorField;
    location    "0.28";
    object      U_0;
}
// * * * * * * * * * * * * * * * * * * * * * * * * * * * * * * * * * * * * * //

dimensions      [0 1 -1 0 0 0 0];

internalField   nonuniform List<vector> 
6400
(
(0.0015219836 0.026628411 -9.5643213e-18)
(0.0033654109 0.026390926 -2.5760434e-17)
(0.00545016 0.025674809 8.8823272e-18)
(0.0073472146 0.024606397 5.1580633e-18)
(0.0091259524 0.023214058 3.4830622e-17)
(0.010706008 0.021537159 1.0867379e-18)
(0.012053325 0.019621122 7.5670209e-18)
(0.013142775 0.01751411 4.5205367e-18)
(0.013957532 0.015267431 -7.0577015e-18)
(0.014489541 0.01293381 6.0587003e-18)
(0.014739543 0.010565573 1.3267789e-19)
(0.014716451 0.0082131216 1.2916341e-18)
(0.014436545 0.0059229181 2.6835276e-18)
(0.013921756 0.0037363741 -5.2397717e-19)
(0.013198459 0.0016892458 1.885701e-18)
(0.012297794 -0.00018951586 -2.2280041e-18)
(0.011253576 -0.0018788646 3.8244704e-18)
(0.010099311 -0.0033644306 1.4623728e-18)
(0.0088677977 -0.0046384434 4.0063018e-19)
(0.0075902544 -0.00569922 3.3074258e-18)
(0.0062955375 -0.006550148 2.8550481e-18)
(0.0050093311 -0.0071991903 2.0886634e-18)
(0.0037540858 -0.0076578425 1.4004825e-18)
(0.0025487878 -0.0079398753 7.0864556e-19)
(0.0014085026 -0.0080615446 1.543392e-18)
(0.00034582839 -0.0080393787 2.3299153e-18)
(-0.00062713505 -0.0078936391 3.5396904e-20)
(-0.0015059533 -0.0076398679 2.7353238e-19)
(-0.0022899966 -0.0072962136 1.339431e-18)
(-0.0029768693 -0.0068790392 2.7251744e-18)
(-0.0035674221 -0.0064037516 2.0701997e-18)
(-0.0040640958 -0.0058845884 2.2326411e-20)
(-0.0044706269 -0.0053344812 -1.8379792e-19)
(-0.0047917527 -0.0047650058 7.6146181e-19)
(-0.0050329504 -0.0041863706 2.172243e-18)
(-0.0052002083 -0.0036074349 1.5026368e-19)
(-0.0052998079 -0.0030357805 -9.3393513e-19)
(-0.0053381873 -0.0024777865 4.5680474e-20)
(-0.0053217654 -0.0019386968 3.6492871e-19)
(-0.0052568449 -0.0014227252 1.6361725e-18)
(-0.0051495259 -0.00093316301 1.225825e-18)
(-0.0050056124 -0.00047245838 1.1713365e-19)
(-0.004830783 -4.2350117e-05 -1.3498997e-18)
(-0.0046302235 0.00035631769 -9.1421568e-19)
(-0.0044086035 0.0007228502 2.032983e-20)
(-0.0041703158 0.0010572359 -2.4358634e-19)
(-0.0039193463 0.0013598401 -9.069654e-19)
(-0.0036592864 0.001631349 -1.0160933e-18)
(-0.003393349 0.001872711 -1.0912896e-18)
(-0.0031243834 0.0020850832 -2.3264955e-19)
(-0.0028548923 0.0022697819 3.3454045e-19)
(-0.0025870535 0.00242824 -1.0379868e-19)
(-0.002322741 0.0025619704 -1.1156487e-19)
(-0.0020635492 0.0026725321 -3.3205978e-19)
(-0.0018108176 0.0027615075 -3.198509e-20)
(-0.0015656495 0.0028304766 4.8265371e-19)
(-0.0013289308 0.0028809922 3.9893368e-19)
(-0.0011013622 0.0029145781 -6.0807135e-20)
(-0.00088347971 0.0029327091 -4.1631121e-19)
(-0.00067566174 0.0029367935 -8.6876635e-20)
(-0.00047815456 0.0029281886 2.626575e-19)
(-0.000291096 0.0029081704 6.9358321e-20)
(-0.00011455038 0.0028779542 -4.4469766e-19)
(5.1446955e-05 0.0028387406 -4.5839129e-19)
(0.00020709791 0.002791515 9.3655657e-20)
(0.00035265452 0.0027372921 2.1940067e-19)
(0.00048827717 0.0026769867 2.1704305e-19)
(0.00061423322 0.0026114443 4.3707819e-20)
(0.00073082138 0.0025414439 -1.3946788e-19)
(0.00083836488 0.0024676995 2.0687521e-19)
(0.00093720557 0.0023908638 3.369421e-19)
(0.0010276983 0.0023115305 -7.899925e-20)
(0.0011102059 0.0022302393 -1.5948883e-19)
(0.0011850956 0.0021474777 -2.4722321e-19)
(0.0012527353 0.0020636855 6.2617953e-20)
(0.0013134905 0.0019792574 6.5108795e-20)
(0.0013677225 0.0018945469 -5.1045153e-21)
(0.0014157856 0.0018098691 -9.9263263e-20)
(0.0014580262 0.0017255036 -1.2938702e-19)
(0.0014947811 0.0016416976 -4.8873476e-20)
(0.0012843913 0.022654433 -4.0416343e-18)
(0.0028426969 0.022456957 3.9892908e-17)
(0.0046054997 0.021858815 8.8819764e-18)
(0.0062124334 0.02096558 6.8935205e-18)
(0.0077224548 0.019800033 -7.0679679e-18)
(0.0090676166 0.018394888 -5.4697331e-18)
(0.010220001 0.016787383 7.9233957e-18)
(0.01115845 0.015017126 -5.4313926e-18)
(0.011868574 0.013126066 2.1955871e-18)
(0.012343065 0.011157503 4.432033e-18)
(0.012581815 0.0091545171 -2.3403152e-18)
(0.012591029 0.0071587606 -7.6625788e-20)
(0.012383148 0.005208883 2.7135713e-19)
(0.011975614 0.003339536 -8.2806976e-19)
(0.01138934 0.0015813086 3.8146547e-19)
(0.010648915 -4.0820066e-05 1.9444969e-18)
(0.0097817419 -0.0015088238 1.6572322e-18)
(0.0088154127 -0.0028085744 2.2915896e-19)
(0.0077769978 -0.0039323077 1.7642302e-18)
(0.0066926023 -0.0048771283 6.7522445e-19)
(0.0055866179 -0.0056445414 -8.7906913e-19)
(0.0044810569 -0.0062398684 1.4193392e-18)
(0.0033955803 -0.0066714575 1.7171768e-18)
(0.0023468752 -0.0069499942 1.6742641e-18)
(0.001348656 -0.0070881848 3.1439921e-18)
(0.00041155208 -0.0070994375 2.1130442e-18)
(-0.00045196 -0.006999694 1.5980408e-18)
(-0.0012367628 -0.0068028248 1.8878769e-18)
(-0.0019426405 -0.0065236759 3.7445349e-18)
(-0.0025659744 -0.0061762027 1.1318819e-18)
(-0.0031067502 -0.005773687 3.7652927e-19)
(-0.0035663307 -0.0053285315 1.4366993e-18)
(-0.0039472774 -0.0048521236 1.462299e-18)
(-0.0042531089 -0.004354768 2.9146759e-18)
(-0.0044880724 -0.0038456566 -7.5720261e-19)
(-0.004656954 -0.0033328644 -2.7687852e-19)
(-0.0047649108 -0.0028233852 5.6672673e-19)
(-0.0048172825 -0.0023231873 1.022248e-18)
(-0.004819471 -0.0018372363 1.6929062e-18)
(-0.0047768782 -0.0013696342 -8.899023e-19)
(-0.0046947833 -0.00092363648 -1.3617655e-18)
(-0.0045782757 -0.00050177626 -9.8679331e-19)
(-0.0044322095 -0.00010591607 -1.5888416e-18)
(-0.0042612703 0.00026283494 -1.060964e-18)
(-0.0040697559 0.00060365517 -3.4344023e-19)
(-0.0038615402 0.00091625301 -3.1004292e-19)
(-0.0036402601 0.0012007167 -9.8502628e-19)
(-0.0034092187 0.0014574477 -1.385541e-18)
(-0.0031713933 0.0016871076 -1.0935027e-18)
(-0.0029294465 0.0018905685 -3.6994604e-19)
(-0.0026857386 0.0020688691 -7.3401531e-20)
(-0.002442343 0.0022231739 -4.2134444e-19)
(-0.0022010629 0.0023547402 -3.2631304e-19)
(-0.0019634502 0.0024648858 -4.9419094e-19)
(-0.0017308267 0.0025549667 -3.858899e-19)
(-0.0015043007 0.0026263541 3.3555273e-20)
(-0.0012847779 0.0026804085 8.6762405e-20)
(-0.0010729902 0.0027184754 -1.379039e-21)
(-0.00086952077 0.0027418699 -5.6765889e-19)
(-0.0006748011 0.0027518603 -6.2149249e-19)
(-0.00048913433 0.0027496686 -1.6982696e-19)
(-0.00031272052 0.0027364603 -2.5918172e-19)
(-0.000145687 0.0027133412 -5.515745e-19)
(1.1869556e-05 0.0026813812 -5.2218538e-19)
(0.00016006515 0.002641577 -2.1193092e-19)
(0.00029907811 0.0025948195 -2.8489074e-20)
(0.00042901479 0.002541972 -6.9452897e-21)
(0.00055007597 0.0024838317 -1.3030458e-19)
(0.00066249766 0.0024211356 -2.2202323e-19)
(0.00076654319 0.0023545629 -2.0135544e-20)
(0.00086249713 0.0022847372 1.2897899e-19)
(0.00095066016 0.0022122291 -5.111211e-20)
(0.0010313443 0.0021375594 -2.2065656e-19)
(0.0011048688 0.0020612018 -2.5348216e-19)
(0.0011715568 0.0019835851 -5.0396896e-20)
(0.0012317323 0.0019050967 -3.5717171e-20)
(0.0012857176 0.0018260858 -8.0396966e-20)
(0.0013338314 0.001746865 -1.733738e-19)
(0.0013763868 0.0016677138 -1.6259678e-19)
(0.0014136902 0.0015888809 -8.6401631e-20)
(0.0010859249 0.019295269 3.3341595e-18)
(0.0024053733 0.019130478 3.7148567e-17)
(0.0038984836 0.01862963 2.8674284e-18)
(0.0052618569 0.017881054 -1.4080127e-17)
(0.0065456796 0.016903149 -1.5472356e-17)
(0.0076924748 0.015723114 1.1726388e-18)
(0.0086792847 0.014371536 -4.3166646e-18)
(0.0094881541 0.012881019 -3.5725487e-18)
(0.010106737 0.011285978 -7.1424601e-18)
(0.010528426 0.0096220597 -1.8239154e-18)
(0.010752431 0.0079248248 -3.9315164e-18)
(0.010783251 0.0062286916 1.8540495e-19)
(0.010630322 0.0045661695 6.2136218e-19)
(0.010307551 0.0029662309 1.6253151e-18)
(0.0098316048 0.00145477 3.4619176e-18)
(0.0092210748 5.3266427e-05 -2.7547314e-18)
(0.0084990616 -0.0012218471 -3.4184751e-19)
(0.0076887482 -0.0023580821 3.0191339e-19)
(0.0068117752 -0.0033477202 1.430593e-18)
(0.0058900795 -0.0041871559 -4.5925673e-19)
(0.0049443462 -0.0048765086 -2.2709314e-19)
(0.0039934353 -0.0054191689 1.0329129e-18)
(0.003054428 -0.0058210332 -1.5498431e-18)
(0.0021419306 -0.0060904612 6.7407282e-19)
(0.0012683005 -0.0062372607 -1.4414085e-19)
(0.00044299069 -0.0062723443 -1.5757248e-18)
(-0.00032238011 -0.0062077335 -9.1768413e-19)
(-0.0010224028 -0.006056517 -5.7596409e-19)
(-0.0016564085 -0.0058303054 8.7120137e-19)
(-0.0022204502 -0.0055410408 1.0273927e-18)
(-0.0027138455 -0.0052001497 -5.0279205e-19)
(-0.0031371311 -0.0048184008 -1.0206928e-18)
(-0.0034919455 -0.0044057838 -6.5633892e-19)
(-0.0037808281 -0.0039714302 -1.2614993e-19)
(-0.0040070269 -0.0035235695 9.0423604e-19)
(-0.0041743329 -0.0030695222 8.9286641e-19)
(-0.004286917 -0.0026156932 -1.0411816e-18)
(-0.00434919 -0.002167601 -2.9607579e-19)
(-0.0043657026 -0.0017299432 -6.8954553e-19)
(-0.0043410502 -0.0013066497 2.127626e-20)
(-0.0042797711 -0.00090087662 1.4303649e-18)
(-0.0041862691 -0.00051514931 -2.698472e-19)
(-0.004064795 -0.0001513839 -1.1681816e-18)
(-0.0039195079 0.00018904473 -6.9854257e-19)
(-0.003754247 0.00050526891 -2.7512503e-19)
(-0.0035725043 0.00079678692 -1.8771091e-19)
(-0.0033775721 0.0010634631 -6.9131486e-19)
(-0.0031724686 0.0013054654 -8.149535e-19)
(-0.0029599373 0.001523216 -5.7396952e-19)
(-0.0027424518 0.0017173456 1.5541053e-20)
(-0.0025222234 0.001888654 6.1579957e-20)
(-0.0023012123 0.0020380731 -1.8181375e-19)
(-0.0020811398 0.0021666356 -1.8640073e-19)
(-0.0018635025 0.0022754458 -1.8652631e-19)
(-0.0016495896 0.0023656571 3.6905924e-19)
(-0.0014404992 0.0024384516 -7.5438637e-20)
(-0.0012371428 0.0024950164 -1.1710353e-19)
(-0.0010402692 0.0025365328 1.7951043e-19)
(-0.00085049127 0.0025641684 -5.5325764e-20)
(-0.000668281 0.002579062 -9.1386721e-21)
(-0.00049398824 0.0025823081 -3.3331893e-19)
(-0.00032786872 0.0025749595 -3.7321308e-19)
(-0.00017008451 0.0025580237 -1.5532355e-19)
(-2.0776434e-05 0.0025324975 -5.4659747e-20)
(0.00012007743 0.0024992849 1.4286846e-19)
(0.00025259226 0.0024592189 -1.5941418e-19)
(0.00037683586 0.0024131046 -1.2706661e-19)
(0.00049294933 0.0023616884 1.2842516e-19)
(0.00060111263 0.0023056648 9.5574009e-20)
(0.00070153543 0.0022456765 8.3852016e-20)
(0.00079445098 0.0021823169 -1.2201108e-19)
(0.00088011089 0.0021161317 -1.3762e-19)
(0.00095878056 0.0020476214 -9.2290685e-20)
(0.0010307354 0.0019772433 1.8333788e-20)
(0.0010962573 0.0019054136 8.3082926e-20)
(0.0011556313 0.0018325105 -2.1233561e-19)
(0.0012091438 0.0017588764 -2.1396617e-19)
(0.0012570799 0.0016848199 -6.0996281e-20)
(0.0012997216 0.001610618 6.8779101e-21)
(0.0013373462 0.0015365191 2.818712e-20)
(0.00091974685 0.016450783 -7.7252314e-18)
(0.0020387181 0.016312831 -1.7327549e-17)
(0.0033054315 0.015892406 -4.1762553e-18)
(0.0044639647 0.015263595 -1.571923e-18)
(0.0055570547 0.014441287 -1.0194294e-18)
(0.0065359429 0.013448179 -1.9990529e-18)
(0.0073817519 0.012309403 2.493694e-18)
(0.008079253 0.011051761 -7.3025248e-18)
(0.0086177899 0.0097037093 -3.6697297e-19)
(0.0089914019 0.0082945207 4.6658656e-18)
(0.0091989021 0.0068538251 6.8181336e-18)
(0.0092435449 0.0054101783 3.8292234e-18)
(0.0091323717 0.0039906227 6.0905519e-19)
(0.0088762231 0.0026197122 2.9529703e-19)
(0.0084884929 0.0013192562 -5.5803149e-18)
(0.0079843803 0.00010766353 4.8031e-18)
(0.0073823054 -0.00099963524 1.5433178e-18)
(0.0067011969 -0.0019923086 -1.058761e-18)
(0.0059592419 -0.0028627223 -1.2961345e-18)
(0.0051747354 -0.0036069393 -4.9112534e-18)
(0.0043651032 -0.0042241005 -4.3543802e-19)
(0.0035465556 -0.0047161302 9.5023236e-19)
(0.0027338207 -0.0050872243 1.8299975e-18)
(0.0019396775 -0.0053437114 3.4861508e-18)
(0.0011752454 -0.0054931542 7.8284746e-19)
(0.00044903931 -0.0055444011 -3.7359099e-19)
(-0.00022864969 -0.0055068022 7.8470691e-19)
(-0.00085238041 -0.0053918093 1.2867497e-18)
(-0.0014207225 -0.0052088519 2.5560811e-18)
(-0.0019298623 -0.0049680738 2.1152476e-18)
(-0.0023786268 -0.0046792664 -6.1208995e-19)
(-0.0027669368 -0.0043517476 -2.5543668e-19)
(-0.003095716 -0.0039942497 4.1146029e-19)
(-0.0033667228 -0.0036148336 6.3659736e-19)
(-0.0035823914 -0.003220837 1.9283362e-18)
(-0.0037456827 -0.0028188549 -5.1794153e-19)
(-0.0038599518 -0.0024147132 -8.9250198e-19)
(-0.0039288319 -0.0020135064 -7.1738485e-20)
(-0.0039561343 -0.0016196192 1.5689241e-19)
(-0.003945722 -0.0012367528 1.168636e-18)
(-0.0039014678 -0.00086795084 1.4849892e-20)
(-0.0038272155 -0.00051570334 -5.3839442e-19)
(-0.0037266787 -0.00018196253 -1.1269112e-19)
(-0.0036034972 0.00013183554 -3.732425e-19)
(-0.0034610881 0.0004246959 -6.3218398e-19)
(-0.0033025969 0.00069597651 -6.5153858e-19)
(-0.0031309931 0.00094537219 -2.2855568e-19)
(-0.0029490217 0.001172864 2.6065928e-20)
(-0.0027591984 0.0013786765 -2.380823e-19)
(-0.002563809 0.0015632382 -2.2962702e-19)
(-0.0023649136 0.0017271453 -3.7360969e-19)
(-0.0021643537 0.001871129 -6.9567421e-20)
(-0.0019637608 0.0019960261 -4.9578794e-20)
(-0.001764567 0.002102753 1.9105565e-19)
(-0.0015680183 0.002192283 4.6967699e-19)
(-0.0013751893 0.0022656282 -5.9315614e-19)
(-0.0011869861 0.0023238188 -4.2626242e-19)
(-0.0010041627 0.0023678877 -5.2126167e-20)
(-0.00082734576 0.0023988654 9.0892035e-20)
(-0.00065703852 0.0024177693 1.8989079e-19)
(-0.00049363052 0.0024255779 -5.1957031e-19)
(-0.00033741143 0.0024232442 -5.656892e-19)
(-0.00018856567 0.0024116908 -2.2130569e-19)
(-4.7292126e-05 0.0023917934 -5.3023461e-22)
(8.6362621e-05 0.0023644318 2.677529e-19)
(0.00021247348 0.0023303442 -1.835281e-19)
(0.00033106201 0.0022902901 -2.4608667e-19)
(0.00044221831 0.0022449653 3.6922317e-20)
(0.00054607386 0.002195021 3.1886291e-20)
(0.00064279085 0.0021410633 1.3659468e-19)
(0.00073255653 0.0020836544 -1.3113449e-19)
(0.00081557836 0.0020233138 -2.8145976e-19)
(0.00089207965 0.0019605204 -2.0773601e-19)
(0.00096229567 0.0018957138 -4.1729292e-20)
(0.0010264703 0.0018292961 1.3038206e-19)
(0.001084853 0.0017616343 -1.2102637e-19)
(0.0011376965 0.0016930624 -2.47347e-19)
(0.0011852544 0.0016238831 -1.4865866e-19)
(0.0012277796 0.0015543696 -1.2925562e-19)
(0.0012655222 0.0014847682 7.0567452e-20)
(0.00078033499 0.014038159 -1.2359572e-17)
(0.0017307128 0.013922306 -1.854807e-17)
(0.0028069847 0.013568525 2.2218939e-18)
(0.0037928402 0.013039084 1.536195e-17)
(0.0047247738 0.012346082 1.6137812e-19)
(0.0055613513 0.011508473 1.2512605e-17)
(0.0062868785 0.010546977 3.8010304e-18)
(0.0068885299 0.009483738 8.4785224e-19)
(0.0073570538 0.0083422294 5.8095149e-18)
(0.007687232 0.0071466933 6.8799825e-19)
(0.0078776148 0.005921678 -1.9945604e-18)
(0.0079301898 0.0046909977 -2.4704583e-18)
(0.0078504045 0.003477312 3.7223661e-19)
(0.0076469778 0.0023013785 -9.3788558e-19)
(0.0073304544 0.001181715 1.2127011e-18)
(0.0069131005 0.00013426061 4.7210983e-20)
(0.0064098266 -0.00082766675 3.9807549e-19)
(0.0058362 -0.0016945712 9.9380838e-19)
(0.0052073877 -0.0024593458 1.07269e-18)
(0.0045386196 -0.0031179511 1.3675738e-18)
(0.0038447044 -0.0036689273 7.5117804e-19)
(0.0031394313 -0.0041130726 -8.3226573e-19)
(0.0024355344 -0.0044533731 6.8799593e-19)
(0.0017442554 -0.0046944443 2.4468844e-19)
(0.0010753879 -0.0048422158 -7.0450135e-19)
(0.00043665639 -0.0049037845 1.0758e-18)
(-0.00016291027 -0.0048865858 4.0194854e-19)
(-0.00071803328 -0.004800183 6.5488843e-19)
(-0.0012267166 -0.0046524567 9.5251685e-19)
(-0.0016853477 -0.0044519806 -2.9582575e-19)
(-0.0020924275 -0.0042071201 -1.7257238e-20)
(-0.0024474344 -0.0039259153 -1.1163233e-19)
(-0.0027507488 -0.0036159756 2.4022228e-19)
(-0.0030035149 -0.0032843931 6.8714763e-19)
(-0.0032075097 -0.002937686 1.5109564e-19)
(-0.0033650138 -0.002581765 -9.7794416e-19)
(-0.0034787028 -0.0022219126 -7.5748959e-19)
(-0.0035515417 -0.0018627953 -1.461157e-19)
(-0.0035866848 -0.0015084637 1.2171244e-18)
(-0.0035873891 -0.0011623731 -8.7231678e-20)
(-0.0035569809 -0.00082746126 -8.4162342e-19)
(-0.0034987718 -0.00050613494 -7.1317368e-19)
(-0.0034159635 -0.00020031014 -1.3100854e-18)
(-0.0033117576 8.8527143e-05 -8.5605189e-19)
(-0.0031891966 0.00035930615 -5.0631299e-19)
(-0.0030510844 0.00061128188 4.8614291e-20)
(-0.0029000922 0.00084401903 1.0993443e-20)
(-0.0027387084 0.0010573507 -5.1328101e-19)
(-0.0025692298 0.0012513409 -5.4199071e-19)
(-0.0023937593 0.0014262501 -3.3355591e-19)
(-0.0022142065 0.0015825025 -1.6997406e-19)
(-0.0020322917 0.0017206574 -9.1576102e-21)
(-0.0018495518 0.0018413819 -9.4585674e-20)
(-0.0016673475 0.0019454276 2.0759994e-19)
(-0.0014868737 0.0020336092 1.7472101e-19)
(-0.0013091723 0.0021067867 -1.360615e-19)
(-0.0011351336 0.0021658492 -9.5377946e-20)
(-0.00096550777 0.0022116954 -1.2725988e-19)
(-0.00080092502 0.0022452318 1.5178703e-19)
(-0.00064190736 0.0022673588 2.0524178e-19)
(-0.0004888692 0.0022789525 -2.0989324e-19)
(-0.0003421258 0.002280876 -3.3572589e-19)
(-0.00020191673 0.0022739599 -3.9007532e-19)
(-6.8424639e-05 0.002258985 -1.6773896e-20)
(5.8236011e-05 0.0022367785 2.4358943e-19)
(0.00017805713 0.002208019 -4.7764347e-20)
(0.00029106411 0.002173404 -9.6900318e-20)
(0.00039729027 0.0021335825 4.6278744e-20)
(0.00049682522 0.0020891631 7.5600969e-20)
(0.00058978939 0.0020407156 2.6431329e-19)
(0.00067632923 0.0019887707 -1.4215565e-20)
(0.00075661279 0.0019338212 -1.9364109e-19)
(0.00083082515 0.0018763232 -1.7692737e-19)
(0.0008991652 0.0018166975 1.1026714e-20)
(0.00096184215 0.001755331 1.7930982e-19)
(0.0010190726 0.0016925782 -6.5143338e-20)
(0.0010710782 0.0016287633 -1.9872486e-19)
(0.0011180835 0.0015641816 -1.6132365e-19)
(0.0011603139 0.001499101 -5.1943007e-20)
(0.0011979942 0.0014337641 1.6949974e-19)
(0.00066308359 0.011988598 1.2823961e-19)
(0.0014714304 0.011890998 3.1467932e-17)
(0.0023871884 0.011592609 -9.0115179e-18)
(0.0032272055 0.011145813 9.749225e-18)
(0.0040226597 0.010560573 3.0357e-18)
(0.0047382925 0.0098526497 -2.0188112e-18)
(0.0053611773 0.0090392576 7.7935423e-19)
(0.0058803696 0.0081386624 3.728083e-18)
(0.00628784 0.0071702841 2.5392011e-18)
(0.0065788779 0.0061542616 -1.7829322e-18)
(0.0067519199 0.0051109764 -2.7317663e-18)
(0.0068084029 0.0040603051 1.2635852e-18)
(0.0067523053 0.0030213491 5.8204832e-19)
(0.006590389 0.0020117027 1.3604597e-19)
(0.0063312451 0.0010469188 5.6457719e-19)
(0.0059848598 0.00014093884 -1.9185219e-18)
(0.0055631905 -0.00069477688 2.4603854e-19)
(0.0050790621 -0.0014515544 -1.0159651e-18)
(0.004545147 -0.0021229411 -1.0943855e-18)
(0.0039741608 -0.0027048784 -2.8959645e-19)
(0.0033786645 -0.0031955145 -3.7905954e-19)
(0.0027704206 -0.0035949717 -1.3623378e-18)
(0.0021603897 -0.003905116 -1.2777051e-18)
(0.0015583869 -0.0041294716 -2.9079507e-18)
(0.00097304318 -0.0042725128 -2.6750268e-18)
(0.00041139154 -0.0043399832 -1.0585485e-18)
(-0.00011872541 -0.0043377968 -2.5160426e-18)
(-0.00061232801 -0.0042738335 -2.1368507e-18)
(-0.0010670113 -0.0041547168 -1.7129761e-18)
(-0.0014794146 -0.0039876763 -1.3659219e-18)
(-0.001847833 -0.0037798458 -1.4249368e-18)
(-0.0021714365 -0.0035381477 -2.0375672e-18)
(-0.0024501988 -0.0032691957 -1.1068417e-18)
(-0.0026847858 -0.0029792109 -1.7709386e-19)
(-0.0028764474 -0.0026739626 -3.7995185e-19)
(-0.0030269099 -0.002358728 -8.4992648e-19)
(-0.0031382844 -0.0020382783 -9.484049e-19)
(-0.0032129678 -0.0017168559 -2.369406e-19)
(-0.0032535618 -0.0013981885 4.7316128e-19)
(-0.0032628186 -0.0010855106 3.3581984e-19)
(-0.0032435633 -0.00078159605 5.5601439e-19)
(-0.0031986176 -0.00048871431 -6.6792063e-19)
(-0.0031307717 -0.00020874849 -1.2993314e-18)
(-0.0030428205 5.6788157e-05 -7.7949518e-19)
(-0.0029374434 0.00030679546 -3.4150103e-19)
(-0.0028171498 0.00054045675 3.1038474e-19)
(-0.002684332 0.00075723999 -4.0193952e-19)
(-0.0025412364 0.00095686334 -7.6940208e-19)
(-0.0023899517 0.001139262 -2.5984912e-19)
(-0.0022324043 0.0013045582 -9.8639382e-20)
(-0.0020703564 0.0014530324 8.5553648e-20)
(-0.0019054071 0.0015850976 -1.5706065e-19)
(-0.0017389965 0.0017012749 -2.5027323e-19)
(-0.0015724097 0.0018021725 -1.7617495e-19)
(-0.0014067847 0.0018884652 6.8452538e-20)
(-0.0012431232 0.001960879 3.1436749e-19)
(-0.0010822924 0.0020201759 -2.221195e-20)
(-0.0009250297 0.0020671338 -1.4607135e-19)
(-0.00077196234 0.0021025472 -1.4242833e-19)
(-0.00062362147 0.0021272091 1.0120902e-19)
(-0.00048043479 0.0021419005 2.4952595e-20)
(-0.00034274109 0.0021473952 -3.5181757e-19)
(-0.00021080569 0.002144444 -5.0258737e-19)
(-8.4830959e-05 0.0021337676 -2.4561702e-19)
(3.5034147e-05 0.0021160789 1.8277125e-19)
(0.00014873439 0.0020920477 1.3152859e-20)
(0.00025626029 0.0020622986 -1.9085156e-19)
(0.00035761367 0.0020274348 -1.1835365e-19)
(0.00045284655 0.0019880239 2.1336809e-20)
(0.00054204252 0.0019445996 3.0159667e-19)
(0.00062531202 0.0018976609 -2.5759304e-21)
(0.00070278765 0.0018476737 -1.6015808e-19)
(0.00077462044 0.001795071 -1.9503327e-19)
(0.00084097629 0.001740254 -3.8403546e-20)
(0.00090203279 0.0016835931 1.8485648e-19)
(0.00095797656 0.0016254297 -6.061831e-20)
(0.0010090007 0.0015660769 -1.7385935e-19)
(0.0010553028 0.0015058214 -1.3690932e-19)
(0.0010970828 0.0014449247 -1.3480438e-21)
(0.0011345417 0.0013836244 1.2384084e-19)
(0.00056427723 0.010244961 2.6974673e-19)
(0.0012527282 0.010162533 7.1335776e-18)
(0.0020329562 0.0099102176 1.9482733e-18)
(0.0027495992 0.0095323488 -3.0088658e-18)
(0.0034293206 0.0090370803 -4.7557929e-18)
(0.0040421242 0.0084376151 -2.3346318e-18)
(0.0045772018 0.0077482171 3.3737572e-18)
(0.0050252694 0.0069839694 -2.41808e-18)
(0.0053793657 0.0061610497 -8.6568956e-19)
(0.0056353711 0.0052961294 2.594004e-18)
(0.0057916511 0.0044062995 -6.5125029e-19)
(0.0058489793 0.0035081332 1.3619743e-18)
(0.0058104935 0.0026176673 -3.5452644e-19)
(0.0056814109 0.0017498246 2.9923646e-19)
(0.0054686369 0.00091795876 -6.0135525e-19)
(0.0051803261 0.00013399728 -1.7229309e-18)
(0.004826144 -0.00059212326 1.1377714e-18)
(0.0044166906 -0.0012525699 1.3716397e-19)
(0.0039624981 -0.0018415135 5.3280205e-19)
(0.0034742325 -0.0023549779 5.6141648e-19)
(0.0029625172 -0.0027909388 -1.2180065e-18)
(0.0024374214 -0.0031489871 2.0249701e-19)
(0.0019082972 -0.0034302885 6.282105e-19)
(0.0013837743 -0.0036373307 3.6749674e-19)
(0.00087142501 -0.0037736167 7.0320439e-19)
(0.00037755381 -0.0038436256 6.8182094e-19)
(-9.0943004e-05 -0.0038521723 2.3049701e-19)
(-0.00052948835 -0.0038056819 5.3157439e-19)
(-0.00093546405 -0.0037097177 1.2345362e-18)
(-0.0013057409 -0.0035703653 3.742828e-19)
(-0.0016385086 -0.0033936988 -2.714643e-19)
(-0.0019327318 -0.0031856675 2.2175926e-19)
(-0.002188087 -0.0029520073 5.7723451e-19)
(-0.0024048723 -0.0026981615 1.1349413e-18)
(-0.0025839207 -0.0024292229 1.5883762e-19)
(-0.0027265125 -0.0021498906 3.2322443e-19)
(-0.0028342862 -0.0018644496 6.0843489e-19)
(-0.0029091672 -0.0015767476 8.2195498e-19)
(-0.0029533048 -0.0012902002 1.2431037e-18)
(-0.0029689946 -0.0010077942 1.2626922e-18)
(-0.0029585963 -0.00073211387 8.6779516e-19)
(-0.0029245377 -0.00046533759 -6.6998193e-19)
(-0.0028692615 -0.00020926711 -1.1175426e-18)
(-0.0027951857 3.4603998e-05 -6.2976891e-19)
(-0.0027046602 0.0002651531 2.6634705e-19)
(-0.0025999181 0.00048152224 3.7195282e-19)
(-0.0024830972 0.00068311216 -5.5692558e-19)
(-0.0023562194 0.00086955394 -6.3486286e-19)
(-0.0022211779 0.0010406813 -1.2720331e-19)
(-0.0020797309 0.001196504 4.110718e-19)
(-0.0019334978 0.0013371836 3.6183678e-19)
(-0.001783959 0.0014630094 4.45413e-20)
(-0.0016324569 0.001574378 1.0726849e-20)
(-0.001480199 0.0016717733 -5.4945499e-20)
(-0.0013282628 0.0017557481 6.7784835e-19)
(-0.0011776045 0.0018269098 4.5668284e-19)
(-0.0010290619 0.0018859072 4.8220251e-20)
(-0.00088335353 0.0019334101 2.902325e-19)
(-0.00074109712 0.0019701102 3.6074297e-20)
(-0.00060282608 0.0019967042 3.2525635e-19)
(-0.00046897429 0.0020138906 1.7676146e-19)
(-0.00033988919 0.0020223522 -2.3880447e-19)
(-0.00021586309 0.0020227711 -1.252328e-19)
(-9.7117591e-05 0.0020157966 -2.7095774e-20)
(1.6181747e-05 0.0020020724 3.7140826e-19)
(0.0001239389 0.0019822174 1.5043045e-19)
(0.00022611193 0.0019568064 -1.1764461e-19)
(0.00032267656 0.0019263963 1.5615224e-19)
(0.0004136529 0.0018915143 1.940892e-19)
(0.00049909273 0.0018526585 2.8518416e-19)
(0.00057907457 0.0018102971 1.399894e-19)
(0.00065369973 0.0017648686 7.5141289e-21)
(0.00072308878 0.0017167827 4.164067e-20)
(0.00078737797 0.0016664207 7.7801652e-20)
(0.00084671635 0.001614136 1.9243132e-19)
(0.00090126319 0.0015602557 3.2214464e-20)
(0.00095118546 0.0015050812 -1.0112095e-19)
(0.00099665576 0.0014488898 -1.6850461e-21)
(0.0010378506 0.0013919352 6.3204078e-20)
(0.0010749487 0.0013344495 6.2149046e-20)
(0.00048083554 0.0087596189 -4.1302381e-18)
(0.0010678779 0.0086898073 -2.3884737e-18)
(0.0017334164 0.0084759829 3.276202e-18)
(0.0023455094 0.0081557248 -8.4408336e-18)
(0.0029269415 0.0077357587 -1.4293032e-19)
(0.0034520858 0.0072271277 1.1408386e-17)
(0.0039119704 0.0066417201 -5.8106426e-18)
(0.0042987567 0.0059920694 -2.8777266e-20)
(0.0046063417 0.0052915446 2.8403364e-18)
(0.0048310684 0.004554134 -2.867167e-18)
(0.0049713108 0.0037940317 1.2513104e-18)
(0.0050274803 0.0030252111 4.0075762e-19)
(0.005001907 0.0022612288 -6.9510601e-19)
(0.004898738 0.0015146392 3.6385742e-19)
(0.0047235419 0.00079689041 -7.1290082e-19)
(0.0044828786 0.00011819635 2.9635386e-18)
(0.0041846278 -0.00051275588 -4.3545043e-19)
(0.0038375358 -0.0010889954 3.470049e-19)
(0.0034504198 -0.0016052461 1.5651372e-18)
(0.0030321949 -0.0020577396 -4.9196623e-19)
(0.0025918682 -0.0024443849 6.3202559e-19)
(0.002138006 -0.002764376 8.7665549e-19)
(0.0016786864 -0.0030184321 -3.789898e-20)
(0.0012213914 -0.0032081312 5.7837168e-19)
(0.00077276258 -0.0033363456 3.7708771e-19)
(0.00033852171 -0.0034064148 -1.7465955e-19)
(-7.5422198e-05 -0.003422339 -1.1703659e-19)
(-0.00046482977 -0.0033893322 3.704847e-19)
(-0.00082698252 -0.003312036 1.1447017e-18)
(-0.0011590079 -0.003195573 1.773305e-19)
(-0.0014590594 -0.0030451081 -3.6008367e-19)
(-0.0017259749 -0.0028657467 -4.551319e-19)
(-0.0019592197 -0.0026624546 1.1355651e-19)
(-0.0021588156 -0.0024399838 7.479605e-19)
(-0.0023252678 -0.0022028181 1.3795975e-19)
(-0.0024594929 -0.0019551308 4.2944965e-19)
(-0.0025627494 -0.0017007532 -3.2491673e-19)
(-0.0026365659 -0.0014431634 2.4811896e-19)
(-0.0026826826 -0.0011854796 2.6209756e-19)
(-0.0027030183 -0.00093044887 -6.7733168e-19)
(-0.0026995909 -0.00068045755 -7.798682e-19)
(-0.0026744431 -0.00043757948 -1.0019442e-19)
(-0.0026296771 -0.00020353099 4.7855361e-19)
(-0.002567407 2.0249156e-05 -1.3385552e-19)
(-0.0024896815 0.00023263286 -2.1530625e-19)
(-0.0023984842 0.00043274201 -4.4714662e-19)
(-0.002295719 0.00061993282 1.5518079e-19)
(-0.0021832003 0.00079377256 5.0528927e-19)
(-0.0020626385 0.00095401638 -6.8236899e-21)
(-0.0019356328 0.0011005842 1.1726425e-19)
(-0.0018036661 0.0012335397 -3.7173636e-20)
(-0.0016681032 0.0013530692 2.3649951e-19)
(-0.0015301906 0.0014594633 2.0409757e-19)
(-0.0013910571 0.0015530989 3.1062123e-19)
(-0.0012517176 0.0016344229 7.5439878e-19)
(-0.0011130796 0.0017039388 1.0537876e-20)
(-0.00097594701 0.0017621948 1.9267567e-19)
(-0.00084101503 0.0018097644 4.063039e-19)
(-0.00070888601 0.0018472458 3.5773412e-19)
(-0.00058008379 0.0018752498 3.3326366e-19)
(-0.00045504952 0.0018943983 -1.40477e-19)
(-0.00033413894 0.0019052955 -6.6802517e-20)
(-0.0002176526 0.0019085474 4.7485446e-20)
(-0.00010583083 0.0019047491 1.5927386e-19)
(1.1467859e-06 0.0018944778 2.7973688e-19)
(0.00010315569 0.0018782999 -2.9214216e-21)
(0.00020012391 0.0018567442 -2.6739495e-20)
(0.00029200564 0.0018303237 1.9804336e-19)
(0.00037879391 0.0017995269 1.5531656e-19)
(0.00046051281 0.0017648171 1.3413117e-19)
(0.0005372133 0.0017266321 3.5430652e-20)
(0.00060896921 0.0016853835 -5.2045689e-20)
(0.00067587388 0.0016414578 2.8565397e-20)
(0.00073803713 0.0015952158 9.8628053e-20)
(0.00079558223 0.0015469939 1.1975054e-19)
(0.00084864361 0.0014971043 -1.801817e-20)
(0.0008973644 0.0014458361 -1.5292088e-19)
(0.00094189447 0.0013934564 -3.7232766e-20)
(0.00098238863 0.0013402104 -1.7287276e-20)
(0.001019005 0.0012863238 -2.0442927e-21)
(0.00041024416 0.0074926983 -2.8964837e-19)
(0.00091139627 0.0074333968 1.3377287e-18)
(0.0014797497 0.0072518004 -2.1794016e-18)
(0.0020030606 0.0069798078 6.9463911e-18)
(0.0025008058 0.0066230108 2.3063292e-18)
(0.0029511772 0.0061906748 1.654741e-18)
(0.0033466654 0.0056927201 -6.9165269e-19)
(0.0036804953 0.0051395543 4.3325837e-18)
(0.0039474419 0.0045422918 -2.1730765e-18)
(0.0041443242 0.0039126909 2.3070032e-18)
(0.0042695568 0.003262538 3.5676106e-18)
(0.0043232717 0.0026036626 4.4388636e-19)
(0.0043071803 0.0019474336 1.134128e-18)
(0.0042244358 0.0013046314 7.4534773e-19)
(0.0040795902 0.00068492274 3.8232799e-20)
(0.0038780536 9.7131536e-05 -6.6956902e-19)
(0.0036262408 -0.00045121353 7.0339785e-19)
(0.0033313621 -0.00095387602 3.4771909e-19)
(0.0030007582 -0.0014061206 4.4268184e-20)
(0.0026419017 -0.0018044637 -7.0393028e-19)
(0.0022624661 -0.0021467673 -7.147747e-19)
(0.0018697143 -0.0024320486 -1.400799e-18)
(0.0014706215 -0.0026605641 -6.7823408e-19)
(0.0010716646 -0.0028333752 3.5966458e-19)
(0.0006786706 -0.0029526843 -1.2446485e-18)
(0.00029678976 -0.0030210339 -1.3754583e-18)
(-6.8919242e-05 -0.0030417676 -9.9163181e-19)
(-0.00041452913 -0.0030190352 -8.8416002e-19)
(-0.00073734739 -0.0029567296 -4.6135686e-20)
(-0.0010347472 -0.0028591566 -3.6910341e-19)
(-0.0013048987 -0.0027307019 -1.285012e-18)
(-0.0015465719 -0.0025757414 -1.1366112e-18)