/*--------------------------------*- C++ -*----------------------------------*\
| =========                 |                                                 |
| \\      /  F ield         | OpenFOAM: The Open Source CFD Toolbox           |
|  \\    /   O peration     | Version:  2306                                  |
|   \\  /    A nd           | Website:  www.openfoam.com                      |
|    \\/     M anipulation  |                                                 |
\*---------------------------------------------------------------------------*/
FoamFile
{
    version     2.0;
    format      ascii;
    arch        "LSB;label=32;scalar=64";
    class       volVectorField;
    location    "0.45";
    object      U;
}
// * * * * * * * * * * * * * * * * * * * * * * * * * * * * * * * * * * * * * //

dimensions      [0 1 -1 0 0 0 0];

internalField   nonuniform List<vector> 
6400
(
(0.0090948405 -0.2552312 9.0699733e-17)
(0.02090377 -0.25520171 -1.4375177e-16)
(0.03417594 -0.25360739 7.4057464e-17)
(0.046696139 -0.25074591 2.8186192e-16)
(0.059238438 -0.24646647 7.5605539e-17)
(0.07134531 -0.24080148 -1.1188293e-17)
(0.082972818 -0.23380373 -5.186305e-17)
(0.094060998 -0.22550332 -1.5374983e-18)
(0.1045058 -0.21593202 -4.1136176e-17)
(0.11417589 -0.20514344 -5.0786983e-17)
(0.12293284 -0.19322446 -2.7355555e-17)
(0.13064746 -0.1802976 -3.0126319e-17)
(0.13721259 -0.16651652 -2.3112224e-17)
(0.14255118 -0.15205729 1.4668335e-18)
(0.14661995 -0.13710824 9.5782016e-18)
(0.14940925 -0.12185989 -6.1845729e-17)
(0.15094018 -0.10649639 -3.4177927e-17)
(0.15126007 -0.091188754 -2.3523562e-17)
(0.15043709 -0.076090127 2.0573024e-19)
(0.14855458 -0.06133292 3.7023518e-17)
(0.14570564 -0.047027521 1.5662272e-17)
(0.14198809 -0.033262458 2.6836361e-18)
(0.13750028 -0.020105635 3.786572e-18)
(0.13233819 -0.0076062796 -1.7466119e-17)
(0.12659624 0.0042031623 -2.7572924e-17)
(0.12035179 0.01530396 3.1935952e-18)
(0.11368038 0.025688103 3.2990844e-17)
(0.10664743 0.035355177 5.5900016e-17)
(0.099309006 0.044309897 3.7495997e-17)
(0.091712905 0.052559865 8.6694524e-18)
(0.083899558 0.060113535 6.7074019e-18)
(0.075903219 0.066978559 8.758996e-18)
(0.06775343 0.073160531 2.1277229e-17)
(0.059476529 0.078662086 1.4068647e-17)
(0.05109715 0.083482438 6.6276705e-18)
(0.042640086 0.087617252 1.4230937e-17)
(0.034131544 0.09105901 2.8620917e-17)
(0.025600354 0.093797173 4.714791e-17)
(0.017081104 0.095819465 3.879842e-17)
(0.008609992 0.097113695 4.3026296e-17)
(0.00020686925 0.097666756 4.0529219e-17)
(-0.0080575223 0.097463975 1.949853e-17)
(-0.016124691 0.096500232 6.1120361e-18)
(-0.023940937 0.094773084 -1.1159539e-17)
(-0.031439847 0.092287403 1.8668247e-17)
(-0.038551442 0.089056926 4.7519939e-17)
(-0.045202748 0.085105901 2.5413949e-17)
(-0.051319709 0.080470545 -2.3872283e-18)
(-0.056829477 0.075200122 -1.0413698e-17)
(-0.061663076 0.069357556 1.8348778e-18)
(-0.065758298 0.063019417 1.1563564e-17)
(-0.069062716 0.056275202 1.1777734e-17)
(-0.071536581 0.049225824 -3.629842e-18)
(-0.073155306 0.041981324 -7.1050203e-18)
(-0.07391122 0.034657865 -1.7597304e-17)
(-0.073814859 0.027374337 -1.4042239e-17)
(-0.072895626 0.020248577 -6.2440518e-18)
(-0.071201501 0.013393408 -1.8993706e-17)
(-0.068797949 0.0069127584 -1.0270525e-17)
(-0.065761283 0.00089699258 -1.1316125e-17)
(-0.062179975 -0.0045696681 -1.0279516e-17)
(-0.058160823 -0.0094328474 -5.7592983e-18)
(-0.053808335 -0.013649472 -1.7630539e-17)
(-0.049228866 -0.017196013 -6.7026553e-18)
(-0.044527327 -0.020067143 -8.4634732e-18)
(-0.039803623 -0.022274448 -9.3895736e-18)
(-0.035150037 -0.023844811 1.966545e-18)
(-0.030649114 -0.024818336 -1.3074338e-18)
(-0.026372094 -0.02524604 -3.6118157e-18)
(-0.022377811 -0.025187432 -4.1415786e-18)
(-0.018712055 -0.024707986 -6.47022e-18)
(-0.015407452 -0.02387664 -4.3829904e-18)
(-0.012483951 -0.022763519 2.4332169e-18)
(-0.009949549 -0.021437996 1.2417296e-18)
(-0.007801162 -0.019966574 2.5390521e-18)
(-0.0060260644 -0.018411271 -3.0250556e-19)
(-0.0046024441 -0.016828964 -1.7127098e-18)
(-0.0035014896 -0.015268248 1.4086151e-18)
(-0.0026892695 -0.013771215 1.0194512e-18)
(-0.0021275311 -0.012371149 1.0793527e-18)
(0.01036432 -0.28374806 1.6539859e-16)
(0.023782201 -0.28364728 -2.1863205e-16)
(0.038677931 -0.28159472 4.1081165e-17)
(0.052524923 -0.27814034 -7.5448684e-17)
(0.066292915 -0.27321099 -1.2429002e-16)
(0.079557436 -0.26686875 8.6995572e-17)
(0.092338193 -0.25914192 -8.1063088e-17)
(0.10459571 -0.25000896 -1.0282351e-17)
(0.11620832 -0.23945283 5.3289023e-17)
(0.12700432 -0.22749712 -7.6707558e-18)
(0.13679731 -0.21422214 2.0755838e-17)
(0.14541366 -0.19976518 -7.1764781e-17)
(0.15271173 -0.18431023 -6.7634559e-17)
(0.15859267 -0.16807303 -5.2269506e-17)
(0.16300415 -0.15128505 -5.5655866e-17)
(0.16593859 -0.13417908 -2.8623795e-17)
(0.16742812 -0.11697762 -3.4856695e-17)
(0.16753753 -0.099884261 -4.9109312e-17)
(0.16635658 -0.083078096 -4.119176e-17)
(0.16399238 -0.066710652 -3.5257142e-17)
(0.1605622 -0.050904927 1.3729332e-17)
(0.15618714 -0.035756168 1.683797e-18)
(0.15098682 -0.021333957 -1.9394145e-18)
(0.14507583 -0.0076849317 -2.5581084e-17)
(0.13856586 0.0051634898 -2.189128e-17)
(0.13154563 0.017201246 1.6415365e-17)
(0.12410065 0.028429679 3.4206981e-17)
(0.11630263 0.03885817 4.7763733e-17)
(0.10821134 0.048501251 3.2380913e-17)
(0.099875925 0.057375736 3.1776742e-18)
(0.091336143 0.065498244 1.6474306e-17)
(0.082624003 0.07288324 1.6456873e-17)
(0.073765667 0.079541535 1.3486661e-17)
(0.064783398 0.085479246 8.6797799e-18)
(0.055697458 0.09069733 9.566888e-18)
(0.046528372 0.095191481 2.2574266e-18)
(0.037298484 0.098952378 1.0640704e-17)
(0.028033653 0.1019664 3.1720424e-17)
(0.018766655 0.10421736 3.7549414e-17)
(0.0095337007 0.10568587 4.4194915e-17)
(0.00035131813 0.10635387 3.2698398e-17)
(-0.0087036447 0.10619937 1.7445294e-17)
(-0.017567807 0.10520972 1.4234162e-17)
(-0.026182445 0.10337561 -1.5687486e-17)
(-0.0344724 0.10069567 3.4966749e-18)
(-0.042357328 0.097178581 3.0074399e-17)
(-0.049752138 0.092845245 3.2981382e-17)
(-0.05656918 0.087730762 4.3708305e-18)
(-0.062720991 0.081886007 -5.8006889e-18)
(-0.068123541 0.075378645 1.7087751e-18)
(-0.072699876 0.068293402 4.1235144e-18)
(-0.076383975 0.060731423 1.7894966e-17)
(-0.079124539 0.052808607 -1.1462936e-17)
(-0.080888306 0.044652896 -1.3114326e-17)
(-0.081662472 0.036400579 -1.7716366e-18)
(-0.081456417 0.028192038 -1.2426943e-17)
(-0.080302685 0.020167048 -9.5624222e-18)
(-0.078256573 0.012459698 -1.7865156e-17)
(-0.075395699 0.0051940396 -2.1362977e-17)
(-0.071809618 -0.001521945 -1.1543524e-17)
(-0.067603587 -0.0075945059 -1.1214676e-17)
(-0.062906973 -0.012955352 -5.7980537e-18)
(-0.057842759 -0.017556764 -1.9112701e-17)
(-0.052537628 -0.021373923 -1.8151105e-17)
(-0.047115498 -0.024403664 -1.1454355e-17)
(-0.041693743 -0.026663077 -1.0005513e-17)
(-0.036380029 -0.028187356 -2.1939605e-18)
(-0.031269837 -0.029027137 1.5758263e-18)
(-0.026444707 -0.029245603 -3.4376567e-18)
(-0.021971067 -0.02891552 -5.8673652e-18)
(-0.017899559 -0.02811617 -4.4653645e-18)
(-0.014265042 -0.026930308 -3.2323118e-18)
(-0.011087422 -0.025441513 2.845857e-18)
(-0.0083725587 -0.023732074 -2.6799577e-18)
(-0.0061130702 -0.021880313 -5.9145628e-19)
(-0.0042908266 -0.019958116 7.8651541e-19)
(-0.0028764889 -0.018032965 -2.203205e-18)
(-0.0018331629 -0.016158984 8.2452041e-19)
(-0.0011185546 -0.014385323 1.1453644e-18)
(-0.00068442471 -0.01274866 2.9512397e-19)
(0.012029635 -0.31643061 4.7208173e-16)
(0.027450232 -0.31601849 5.970492e-16)
(0.044202159 -0.31307917 5.0280018e-16)
(0.059417038 -0.30864151 2.8086363e-16)
(0.07438089 -0.30281352 9.3899839e-17)
(0.088784394 -0.29568179 6.8040157e-17)
(0.10276019 -0.28719634 5.7184531e-17)
(0.11629829 -0.27722177 -1.0142072e-17)
(0.12924186 -0.26564521 1.9049955e-18)
(0.14135065 -0.25243421 6.2014892e-17)
(0.15236238 -0.23765515 6.4238265e-17)
(0.16203712 -0.2214657 4.6565902e-17)
(0.17018489 -0.2040931 3.5926943e-18)
(0.17667864 -0.18580826 1.614824e-17)
(0.18145643 -0.16690097 -7.9817401e-18)
(0.18451636 -0.14765948 1.4620718e-17)
(0.18590754 -0.12835506 -2.901041e-18)
(0.18571947 -0.10923149 -5.4894556e-18)
(0.18407116 -0.090498713 -1.6216837e-17)
(0.18110079 -0.072329973 -2.6268886e-17)
(0.17695654 -0.054861565 2.7620281e-17)
(0.17178861 -0.038194646 6.0996434e-17)
(0.16574285 -0.022398633 2.1497476e-18)
(0.15895645 -0.0075150144 -3.7839948e-17)
(0.15156096 0.0064393473 -2.3881029e-17)
(0.14365806 0.0194645 1.5016198e-17)
(0.13534436 0.031574984 4.9438967e-17)
(0.12669782 0.042793582 2.0376108e-17)
(0.11778143 0.053147787 -1.7680541e-17)
(0.1086446 0.062666393 -7.2321944e-18)
(0.099324942 0.071376513 4.2612196e-18)
(0.089850494 0.079301258 1.5725621e-17)
(0.080242126 0.086458004 -5.7679223e-18)
(0.070516038 0.092857241 -1.5760275e-17)
(0.060686137 0.098502047 -1.2875913e-17)
(0.050766719 0.10338807 -2.8425976e-17)
(0.04077458 0.10750389 -1.9083242e-17)
(0.030731379 0.11083203 -1.2504841e-17)
(0.02066589 0.11335062 -1.633065e-17)
(0.010612588 0.11503291 -3.6844648e-18)
(0.00058628819 0.11585194 -1.1259919e-17)
(-0.0093312806 0.11577912 -8.5415607e-18)
(-0.019073708 0.11479051 -1.253577e-17)
(-0.028575399 0.11286783 -4.8003849e-17)
(-0.037751618 0.11000121 -5.3246878e-17)
(-0.046510174 0.10619197 -9.4212678e-18)
(-0.054751754 0.10145561 2.3570987e-17)
(-0.062372433 0.095824396 -3.4339617e-18)
(-0.069266915 0.089349653 -3.2234398e-17)
(-0.075332498 0.082103339 -3.3675526e-17)
(-0.080473628 0.074178766 -1.4878195e-18)
(-0.08460684 0.065690149 1.6585361e-17)
(-0.087665738 0.056770825 -2.2363579e-18)
(-0.089605484 0.047570058 -1.8971178e-17)
(-0.090406086 0.038248494 -7.4494028e-20)
(-0.090074709 0.028972793 1.8401797e-17)
(-0.088647103 0.019909548 1.858807e-17)
(-0.086186953 0.011218299 9.0272237e-18)
(-0.082786876 0.0030445275 -1.3748773e-17)
(-0.078551318 -0.0044701509 -5.8101225e-18)
(-0.073610247 -0.011228551 2.3227781e-17)
(-0.068116099 -0.017147345 1.539087e-17)
(-0.06221685 -0.022172331 -6.4956987e-18)
(-0.056063362 -0.026277278 -8.7035254e-18)
(-0.049802458 -0.029462291 -6.8393058e-19)
(-0.043572323 -0.031751792 1.1095449e-17)
(-0.037498714 -0.033191631 1.6605919e-17)
(-0.031692099 -0.033845657 8.2084342e-18)
(-0.026245733 -0.033792062 -1.6910863e-18)
(-0.021234442 -0.033119763 1.9342786e-18)
(-0.016713986 -0.031924694 1.4745717e-18)
(-0.012721215 -0.03030613 3.3380497e-19)
(-0.0092753935 -0.028363565 5.0145124e-18)
(-0.006379338 -0.02619441 -1.5848455e-18)
(-0.0040196036 -0.023891385 -1.2102007e-18)
(-0.0021722291 -0.021536798 -2.6116081e-18)
(-0.00079781715 -0.019211659 5.1884934e-19)
(0.00015059116 -0.01697787 8.6511536e-19)
(0.00072456673 -0.014889516 1.9391652e-19)
(0.00098568591 -0.012987328 7.5339192e-19)
(0.01421331 -0.35455333 5.1117994e-16)
(0.032072754 -0.35324521 4.5343225e-16)
(0.050857334 -0.34862186 1.9871423e-16)
(0.067388706 -0.34253543 2.7087129e-16)
(0.083430682 -0.33544717 1.8036716e-16)
(0.098914695 -0.32742026 -3.2217409e-17)
(0.11414344 -0.31821157 1.9107328e-17)
(0.12913452 -0.30745806 1.6574035e-17)
(0.14365752 -0.29487469 1.7612353e-17)
(0.15735541 -0.28033639 2.2060375e-17)
(0.16984728 -0.26388969 -2.6177684e-18)
(0.18079657 -0.24572583 5.0403408e-18)
(0.18994821 -0.22613745 -9.1707156e-18)
(0.19714163 -0.20547448 -1.3920976e-17)
(0.20230805 -0.18410668 3.3290923e-17)
(0.20545888 -0.16239523 1.9339654e-18)
(0.20667028 -0.14067325 -3.4504092e-17)
(0.20606724 -0.11923365 -3.3860812e-17)
(0.20380852 -0.098322566 -3.2544143e-17)
(0.20007308 -0.078137343 2.9312325e-18)
(0.19504848 -0.058827574 1.500434e-17)
(0.1889211 -0.040498543 3.6803123e-17)
(0.18186865 -0.023216362 1.4645948e-17)
(0.1740572 -0.0070133868 2.1601044e-17)
(0.16563945 0.0081084969 3.3701117e-17)
(0.15673097 0.022164294 4.6841813e-17)
(0.14744161 0.035186314 5.3971242e-17)
(0.13785526 0.047214967 5.0872536e-17)
(0.12803703 0.05829458 4.8960099e-17)
(0.118035 0.068469298 4.7825857e-17)
(0.10788268 0.077779515 2.4640052e-17)
(0.097601819 0.086259165 2.3900802e-17)
(0.087205534 0.093933754 2.8317568e-17)
(0.076701443 0.10081914 2.77258e-17)
(0.066094642 0.10692097 2.757586e-17)
(0.055390906 0.11223471 1.6457977e-17)
(0.044599277 0.11674639 2.108614e-17)
(0.03373484 0.12043366 2.8813326e-17)
(0.02282106 0.12326668 2.6413219e-17)
(0.011889287 0.12521195 2.9492551e-17)
(0.00095139362 0.12623019 -3.0257516e-18)
(-0.0099065378 0.12628252 -2.0507592e-17)
(-0.02061575 0.1253326 -2.8581152e-17)
(-0.031103204 0.12335004 -3.6929664e-17)
(-0.041273597 0.12031341 -3.7818899e-17)
(-0.051021243 0.11621374 -9.3441466e-18)
(-0.060230208 0.11105834 1.9466108e-17)
(-0.06877712 0.10487425 3.666993e-18)
(-0.076534964 0.097711449 -1.4977677e-17)
(-0.083377863 0.089645286 -4.0664441e-18)
(-0.089186766 0.080777832 1.7560083e-18)
(-0.093855787 0.07123784 -1.5115246e-17)
(-0.097298741 0.061178913 -5.311731e-18)
(-0.0994552 0.05077577 -7.9149563e-18)
(-0.10029511 0.040218651 1.5186642e-17)
(-0.099822082 0.029706527 4.1518178e-17)
(-0.098075896 0.019439266 2.5555356e-17)
(-0.095132881 0.0096092496 -2.6315846e-18)
(-0.091091735 0.00039155862 -8.4186447e-18)
(-0.086081176 -0.0080460688 3.8825808e-19)
(-0.080274691 -0.015586564 3.5877666e-17)
(-0.073840467 -0.022133002 2.4657699e-17)
(-0.066959099 -0.027624276 -1.738883e-18)
(-0.059811528 -0.032033361 -9.2427353e-18)
(-0.052572348 -0.035365324 -8.5370524e-18)
(-0.045404568 -0.037654398 1.4008591e-17)
(-0.038455188 -0.03896015 2.3526133e-17)
(-0.031851966 -0.039363025 9.7033592e-18)
(-0.025701367 -0.038959757 -1.0196006e-17)
(-0.020087397 -0.037858912 -1.1765446e-17)
(-0.015071056 -0.036176428 1.970009e-18)
(-0.010690728 -0.034031273 6.8879665e-19)
(-0.0069641194 -0.03154183 1.2794421e-18)
(-0.003890257 -0.02882324 -3.4078624e-18)
(-0.0014469634 -0.025984449 -3.236458e-18)
(0.00039627171 -0.023124875 -5.8409441e-18)
(0.0016878617 -0.020333842 -4.9030118e-19)
(0.0024928386 -0.017686045 1.4229956e-18)
(0.0028752771 -0.015239672 6.3418872e-19)
(0.0029084266 -0.013040115 1.2400242e-18)
(0.016797691 -0.39956048 8.522875e-16)
(0.037303114 -0.39622844 1.1051892e-15)
(0.058077679 -0.38867226 2.4913874e-16)
(0.075768708 -0.37996679 4.2980556e-16)
(0.092747769 -0.37118592 3.1613033e-16)
(0.10932532 -0.36223549 1.0324011e-16)
(0.12600693 -0.35247575 5.549409e-17)
(0.14280756 -0.34112924 5.9236708e-17)
(0.15935129 -0.32762731 2.0995818e-17)
(0.17509057 -0.31170798 6.306738e-17)
(0.18946692 -0.29340035 7.4808977e-17)
(0.20200954 -0.27295747 5.5786128e-17)
(0.21238139 -0.25077494 6.5542561e-17)
(0.22038789 -0.22731825 3.0826089e-17)
(0.22596365 -0.20306732 7.793382e-17)
(0.22914901 -0.17847892 8.3706778e-17)
(0.23006447 -0.15396359 5.9056888e-18)
(0.22888705 -0.12987303 -7.4645521e-19)
(0.22583003 -0.1064947 -1.0553435e-17)
(0.22112592 -0.084051537 6.1133529e-17)
(0.21501232 -0.062705259 5.8541973e-17)
(0.20772047 -0.04256206 2.389424e-17)
(0.19946673 -0.02367992 6.2513692e-17)
(0.19045165 -0.0060760598 3.6153258e-17)
(0.18085075 0.010265426 6.0017879e-17)
(0.17079662 0.025384015 1.3015108e-16)
(0.16041239 0.039334956 9.8211716e-17)
(0.14978709 0.052181276 8.8038471e-17)
(0.13898647 0.063988888 8.0715266e-17)
(0.12805513 0.074821342 8.7437131e-17)
(0.11701972 0.084735628 1.1166825e-16)
(0.10589275 0.093779042 6.9460657e-17)
(0.09467647 0.10198701 3.9852434e-17)
(0.083366771 0.10938186 5.2134989e-17)
(0.071956855 0.11597224 8.282592e-17)
(0.060441088 0.12175335 1.0788982e-16)
(0.048818108 0.12670781 9.1951041e-17)
(0.03709363 0.13080717 8.1762076e-17)
(0.025284998 0.13401259 1.0206323e-16)
(0.013417482 0.13628049 8.8139631e-17)
(0.0014976675 0.13755906 1.7134915e-17)
(-0.010383423 0.13779391 -3.369808e-17)
(-0.022155426 0.13693423 -3.9102095e-17)
(-0.033738258 0.1349339 -2.9199598e-17)
(-0.045024982 0.13175622 -3.1832741e-17)
(-0.055894684 0.12737813 2.2895485e-18)
(-0.066212122 0.12179503 1.8364844e-17)
(-0.075830796 0.11502544 1.5595589e-18)
(-0.084597274 0.10711536 -1.1494517e-17)
(-0.092356922 0.098141894 -8.9722907e-18)
(-0.098960965 0.088215623 -9.0558981e-19)
(-0.10427461 0.077481258 -9.2992893e-18)
(-0.10818567 0.066115906 -1.746443e-18)
(-0.11061288 0.054324767 -8.1676067e-18)
(-0.11151217 0.042334281 5.0872232e-18)
(-0.1108812 0.030383356 2.8858968e-17)
(-0.10876239 0.01871347 3.8516898e-17)
(-0.10524434 0.0075589177 9.2303906e-18)
(-0.10044711 -0.0028663106 -5.7777766e-18)
(-0.094525514 -0.012372889 -2.2231785e-18)
(-0.087687609 -0.020808361 3.195188e-17)
(-0.080139571 -0.028062144 3.8081785e-17)
(-0.072099349 -0.034066144 2.451437e-18)
(-0.06378398 -0.038793716 -7.0494368e-18)
(-0.055401511 -0.042257293 -9.5641243e-18)
(-0.047144486 -0.044504284 2.7544126e-18)
(-0.039184755 -0.045611944 2.1336125e-17)
(-0.031669893 -0.045681598 1.3969679e-17)
(-0.024721069 -0.044832896 -3.75381e-18)
(-0.01843211 -0.043198298 -1.2835829e-17)
(-0.012869191 -0.040917732 -4.8335515e-18)
(-0.0080715161 -0.038133393 1.2441686e-19)
(-0.0040541263 -0.034985883 3.1590935e-18)
(-0.00081021516 -0.031612661 -1.6738044e-18)
(0.0016868961 -0.028141795 -1.1044755e-18)
(0.0034844933 -0.024692089 -4.5503695e-18)
(0.0046469696 -0.021359112 -3.5092633e-18)
(0.005249255 -0.018231884 -7.6427695e-19)
(0.0053737698 -0.015377976 1.5204527e-18)
(0.0051097709 -0.0128473 6.9355671e-19)
(0.019024633 -0.45198118 8.1654337e-16)
(0.041540787 -0.44501012 1.0974115e-15)
(0.063762116 -0.43309304 6.8478962e-16)
(0.082399253 -0.42072933 4.6734566e-16)
(0.100361 -0.40997106 4.9025165e-16)
(0.11839332 -0.40030706 1.9377976e-16)
(0.13713607 -0.3904197 5.3710478e-17)
(0.15651857 -0.37885144 -1.4790328e-16)
(0.17590263 -0.36461192 -6.4328321e-17)
(0.19445431 -0.34726226 -8.525628e-17)
(0.21136852 -0.32683686 -1.9473804e-16)
(0.22600062 -0.30370443 -1.0795254e-16)
(0.23791881 -0.27842496 -1.3810252e-16)
(0.24690308 -0.25163432 -2.1650229e-17)
(0.25291417 -0.22396462 -2.7283724e-17)
(0.25605071 -0.19599666 -5.5971173e-17)
(0.25650723 -0.16823556 -6.4384254e-17)
(0.25453926 -0.14110075 -9.0902372e-17)
(0.25043641 -0.11492429 -1.5226739e-17)
(0.24450195 -0.089954152 8.4633883e-17)
(0.23703692 -0.066360874 1.102147e-16)
(0.22832782 -0.044246417 2.7509849e-17)
(0.21863748 -0.023654291 4.5587788e-17)
(0.20820595 -0.0045792434 4.5815048e-17)
(0.19723283 0.013022757 4.5773385e-17)
(0.18587413 0.029221427 1.104886e-16)
(0.17426265 0.044101905 9.0784831e-17)
(0.1624917 0.057756732 7.3370007e-17)
(0.15062555 0.070279282 8.5677113e-17)
(0.13870222 0.081757395 6.8634667e-17)
(0.12673798 0.092268541 1.0202884e-16)
(0.11473225 0.1018763 6.3827575e-17)
(0.10267246 0.11062803 6.7674559e-18)
(0.090538922 0.11855363 3.3241356e-17)
(0.078309206 0.12566524 5.9838919e-17)
(0.065962709 0.13195759 1.0208882e-16)
(0.053484438 0.13740889 9.8492788e-17)
(0.040868011 0.14198304 6.8055262e-17)
(0.028121359 0.14563132 1.1386968e-16)
(0.015263076 0.14829516 8.3812536e-17)
(0.0022913848 0.14991018 -2.0995315e-18)
(-0.010700502 0.15040241 -2.6115516e-17)
(-0.02363896 0.14970206 -2.2388917e-17)
(-0.036438483 0.14774341 -2.8212917e-17)
(-0.048979556 0.14446995 -3.5724391e-17)
(-0.061124362 0.13983966 -9.967988e-18)
(-0.07271545 0.13383119 1.514952e-17)
(-0.083578975 0.12645 1.7136273e-17)
(-0.093529499 0.11773425 -1.4986038e-17)
(-0.10237674 0.10776013 -4.0405975e-17)
(-0.10993427 0.096645792 -3.2836321e-17)
(-0.11602991 0.084553059 -2.0256507e-17)
(-0.12051722 0.071686161 -2.649825e-17)
(-0.12328669 0.058286892 4.9685187e-18)
(-0.12427481 0.044626073 4.5938765e-17)
(-0.12347023 0.030992251 1.3754846e-17)
(-0.12091736 0.017678545 -7.6268213e-18)
(-0.11672198 0.00496892 -2.3209452e-17)
(-0.11102336 -0.0068654206 4.0812732e-18)
(-0.10401579 -0.017604233 3.9762146e-17)
(-0.095950095 -0.027064574 3.0320061e-17)
(-0.087079218 -0.035116123 1.2603945e-17)
(-0.077667678 -0.041682526 -9.0570633e-18)
(-0.067977019 -0.046739167 6.5411062e-18)
(-0.058255793 -0.050309224 1.2955142e-17)
(-0.048731652 -0.052457823 7.0350186e-18)
(-0.039605372 -0.053285103 1.8647776e-17)
(-0.031047021 -0.052918684 2.1829374e-17)
(-0.023193925 -0.051506503 1.9748162e-18)
(-0.0161501 -0.049209926 -4.0105996e-18)
(-0.0099863702 -0.046197741 5.352444e-19)
(-0.004741819 -0.042639944 4.4093963e-18)
(-0.00042911009 -0.038704149 1.6678987e-17)
(0.0029643178 -0.034554656 2.1950426e-18)
(0.0054827987 -0.030338886 -1.9067186e-18)
(0.007186418 -0.026190914 -2.4240952e-19)
(0.0081538151 -0.022228104 4.9268566e-20)
(0.0084783778 -0.018550261 4.6622658e-18)
(0.0082629418 -0.015234649 1.7336996e-18)
(0.0076166925 -0.012336516 -2.0791123e-18)
(0.019236578 -0.50909122 8.9713323e-16)
(0.041444739 -0.49710742 8.3103921e-16)
(0.063698586 -0.4802624 8.1210614e-16)
(0.083075496 -0.46389568 3.0162169e-16)
(0.10255709 -0.45159401 2.683393e-16)
(0.12315556 -0.44196601 1.566393e-16)
(0.1453333 -0.43278899 3.2614758e-16)
(0.16877462 -0.42161425 2.2074833e-16)
(0.19241094 -0.40690753 1.5314182e-16)
(0.21502654 -0.38804442 2.3014444e-16)
(0.23550948 -0.36512329 1.52263e-16)
(0.25300894 -0.33871803 4.4283174e-18)
(0.26699034 -0.3096464 -2.577409e-17)
(0.27722355 -0.27879522 -3.3612017e-17)
(0.28373061 -0.24700788 2.1212229e-17)
(0.28671538 -0.2150258 -7.2731611e-17)
(0.2864955 -0.18346673 3.5338855e-17)
(0.2834485 -0.15282343 -7.1554531e-17)
(0.27797466 -0.12347092 -1.3206203e-16)
(0.27047301 -0.095676896 -9.6370876e-17)
(0.26132554 -0.069613472 -2.0959466e-17)
(0.250886 -0.045370198 2.0570845e-17)
(0.23947209 -0.022967282 -8.6724879e-18)
(0.22737547 -0.0023688736 2.8226561e-17)
(0.2148111 0.016517724 1.7390189e-17)
(0.20196555 0.033791494 3.4279935e-17)
(0.18897981 0.04957882 9.1968553e-17)
(0.17594951 0.064010478 8.859048e-17)
(0.16293379 0.077214352 9.7172343e-17)
(0.1499598 0.089308304 5.3738923e-17)
(0.1370287 0.10039476 6.9659517e-17)
(0.12412186 0.11055684 8.8296016e-17)
(0.11120705 0.11985602 3.7660647e-17)
(0.098244218 0.12833098 5.565497e-17)
(0.08519087 0.13599759 6.6520446e-17)
(0.072007158 0.1428497 6.2615407e-17)
(0.058660547 0.1488601 9.0977017e-17)
(0.045129522 0.15398334 8.4427746e-17)
(0.031408677 0.1581584 1.2083381e-16)
(0.017507971 0.16130986 1.1280007e-16)
(0.0034158175 0.16335608 4.8520619e-17)
(-0.010777346 0.16420135 2.8629846e-17)
(-0.024993484 0.16375119 6.223884e-18)
(-0.039143222 0.1619157 -2.9571055e-17)
(-0.053094027 0.15861301 -2.9489412e-17)
(-0.066689789 0.15377609 1.1709582e-17)
(-0.07974787 0.14736044 3.6570353e-17)
(-0.092062366 0.13935226 4.6043753e-18)
(-0.10340926 0.12977638 -1.2621254e-17)
(-0.11355416 0.11870392 -1.3723703e-17)
(-0.12226295 0.10625843 -1.1936488e-17)
(-0.12931504 0.092619503 1.7810904e-18)
(-0.13451856 0.078022445 -2.4618127e-17)
(-0.13772591 0.062753064 1.0927587e-17)
(-0.13884658 0.047137184 1.1773887e-17)
(-0.13785607 0.031525826 -2.6861829e-17)
(-0.13480132 0.016277854 -1.4703503e-17)
(-0.12979894 0.0017380193 -2.9456047e-17)
(-0.12301623 -0.011748802 3.7010868e-18)
(-0.11471287 -0.023922811 2.5845377e-17)
(-0.1051804 -0.034562427 -6.7240254e-18)
(-0.09473265 -0.043514912 -1.5013328e-17)
(-0.083693209 -0.050695926 -3.1260705e-17)
(-0.072378753 -0.056085865 -4.0416311e-18)
(-0.061086935 -0.059723621 2.5690939e-17)
(-0.050087024 -0.061698222 -2.0444119e-18)
(-0.039613192 -0.062139491 -1.3035891e-17)
(-0.029860674 -0.061208299 8.7940304e-18)
(-0.020984167 -0.059087585 7.9683303e-18)
(-0.013098072 -0.055973715 1.6404336e-17)
(-0.006277107 -0.052070104 4.8498896e-18)
(-0.000559248 -0.047578294 -9.4050244e-18)
(0.0040452069 -0.042702729 1.1655193e-17)
(0.0075672072 -0.037628385 -4.1201948e-19)
(0.010060812 -0.032529976 6.7251211e-18)
(0.011603198 -0.02756546 7.6969646e-18)
(0.012293355 -0.022871189 -4.6177743e-18)
(0.012246707 -0.018561004 4.2366629e-18)
(0.011590034 -0.014722974 4.053096e-18)
(0.010456932 -0.011418411 2.6084112e-18)
(0.015365154 -0.56232853 1.2506995e-15)
(0.032741503 -0.54555926 1.5700659e-15)
(0.052511806 -0.52597702 1.0113749e-15)
(0.072372089 -0.50724502 4.1234126e-16)
(0.094541129 -0.49565822 1.0889491e-16)
(0.11984827 -0.48780953 9.4414424e-18)
(0.14778951 -0.48080352 3.026134e-17)
(0.17759246 -0.47091808 2.6533039e-16)
(0.20753706 -0.45607348 9.2124824e-17)
(0.23598415 -0.4355298 4.0005634e-17)
(0.26149844 -0.40955525 2.5130874e-16)
(0.28300885 -0.37905227 8.0837491e-17)
(0.2998639 -0.34522166 1.2545828e-16)
(0.31182376 -0.30931393 6.6658359e-17)
(0.31899943 -0.2724708 3.3463663e-17)
(0.32175515 -0.23564814 8.4293135e-17)
(0.32060208 -0.19959908 -5.5002514e-18)
(0.31610941 -0.16489019 -8.3627014e-18)
(0.30884521 -0.13192828 -2.5612688e-18)
(0.29934502 -0.10098568 4.1848273e-17)
(0.28809783 -0.07222104 9.893165e-17)
(0.27554026 -0.045697514 5.5784217e-17)
(0.26205251 -0.021398032 1.7825522e-17)
(0.24799811 0.00076282238 1.6946024e-17)
(0.23358956 0.020918752 -1.5614157e-17)
(0.21904834 0.03922866 -3.9053893e-17)
(0.20452721 0.05586842 -3.8514477e-17)
(0.19011852 0.071015683 -2.1086142e-17)
(0.17587091 0.084840814 -1.3615142e-18)
(0.1617949 0.097498259 -6.7348987e-19)
(0.14787039 0.10912044 -2.6999503e-17)
(0.13405452 0.11981362 -2.4948151e-17)
(0.12028927 0.12965564 -2.2456032e-17)
(0.10650853 0.13869503 3.5186203e-18)
(0.09264437 0.14695155 -1.425294e-18)
(0.078632779 0.15441737 -6.0055044e-17)
(0.064419196 0.16105877 -3.4959819e-17)
(0.049962951 0.16681909 1.03816e-17)
(0.035241892 0.17162176 1.5328186e-17)
(0.020254156 0.1753723 4.495369e-17)
(0.0049758919 0.17796602 4.0999984e-17)
(-0.010511587 0.17928673 3.8354991e-17)
(-0.026122895 0.17920435 2.9914849e-17)
(-0.041768509 0.17760132 -2.5859495e-17)
(-0.057303046 0.17436362 -6.9569793e-17)
(-0.072551193 0.16939155 -2.6889683e-17)
(-0.087302295 0.16260926 4.4063154e-17)
(-0.1013133 0.1539753 2.4044311e-17)
(-0.11431402 0.14349339 -1.4303417e-17)
(-0.12601573 0.13122312 -4.8438088e-17)
(-0.13612383 0.1172895 -4.0527686e-17)
(-0.1443548 0.10188944 -1.1985938e-17)
(-0.15045634 0.085293389 -1.3429815e-17)
(-0.15422874 0.067840101 3.403447e-18)
(-0.15554362 0.049923776 3.8675523e-17)
(-0.15435691 0.031974798 3.2971685e-18)
(-0.15071887 0.014437952 -2.8451416e-17)
(-0.14475792 -0.0022595546 -2.3256236e-17)
(-0.13667682 -0.017702063 -1.3989908e-18)
(-0.12681237 -0.031556147 3.63761e-17)
(-0.11551671 -0.043556989 2.0985692e-18)
(-0.10318068 -0.053527051 -3.5249186e-17)
(-0.090201921 -0.061375513 -4.4593707e-17)
(-0.07696524 -0.06709267 -5.4082623e-18)
(-0.06382765 -0.070740359 3.3546479e-17)
(-0.051107455 -0.072439972 -8.794862e-18)
(-0.039077022 -0.072360023 -1.1282717e-17)
(-0.027959245 -0.070703501 -2.595359e-18)
(-0.017926815 -0.067696457 -5.6771705e-19)
(-0.0091039715 -0.063578241 1.8721241e-17)
(-0.0015660763 -0.058588538 -9.1461193e-18)
(0.0046449042 -0.05297612 -1.2530967e-17)
(0.0095368494 -0.046973796 1.2567847e-17)
(0.013150672 -0.040801266 -7.7431776e-19)
(0.015556399 -0.034663543 -2.0465991e-18)
(0.016853123 -0.028743721 -3.9902767e-18)
(0.017163705 -0.023200188 3.7060088e-18)
(0.016630032 -0.018163843 6.8804281e-18)
(0.01540747 -0.013735113 1.4484256e-18)
(0.013659101 -0.0099821794 -4.0034973e-18)
(0.0063123467 -0.59717042 1.404458e-15)
(0.012516103 -0.57864721 1.5082808e-15)
(0.026701532 -0.56307945 5.7726281e-16)
(0.046556075 -0.546986 -3.0205729e-16)
(0.072884851 -0.54156581 -2.1922968e-16)
(0.10596875 -0.53866534 -7.0555619e-16)
(0.142581 -0.53611369 -2.5969245e-16)
(0.18148535 -0.52867041 -2.4726252e-16)
(0.22003547 -0.51402691 -3.9813708e-16)
(0.25627161 -0.49153697 -2.0125896e-16)
(0.28850908 -0.46178122 -1.4621072e-16)
(0.31547597 -0.42611535 -9.9957867e-17)
(0.33636416 -0.38625399 -1.1784531e-16)
(0.35086297 -0.34395216 -4.4231365e-17)
(0.35913758 -0.3007808 -7.5361586e-17)
(0.36173262 -0.25800557 -1.9952627e-17)
(0.35942457 -0.21656131 -5.8194228e-17)
(0.3530717 -0.1770912 -7.0936575e-17)
(0.3435036 -0.14001025 -1.5776177e-17)
(0.33146401 -0.10556295 4.086817e-17)
(0.31759487 -0.07386408 6.9527048e-18)
(0.30244159 -0.044925879 1.153337e-18)
(0.28646494 -0.018674089 -8.7402906e-18)
(0.27008478 0.0050463964 -7.1119881e-17)
(0.25353476 0.026419986 -5.7056481e-17)
(0.23707054 0.045686655 -9.8960568e-17)
(0.22084096 0.063084038 -1.5245794e-16)
(0.20493179 0.078847994 -1.2378093e-16)
(0.18937508 0.093200907 -1.2457825e-16)
(0.17415718 0.10634139 -1.0160687e-16)
(0.15922886 0.1184375 -1.6662393e-16)
(0.14451521 0.12962244 -1.8612584e-16)
(0.12992501 0.13999259 -1.426116e-16)
(0.11535912 0.14960726 -1.4310955e-16)
(0.10071794 0.1584898 -1.3621126e-16)
(0.085907766 0.16662969 -1.9769991e-16)
(0.070846932 0.17398514 -1.7668097e-16)
(0.055470659 0.18048598 -9.3864982e-17)
(0.039735573 0.18603692 -8.7084786e-17)
(0.023623457 0.19052133 -1.040622e-17)
(0.007101758 0.193805 3.2808478e-17)
(-0.0097722702 0.19575561 3.3572694e-17)
(-0.026902789 0.19619059 2.915962e-17)
(-0.044201707 0.19496415 -1.867693e-17)
(-0.061513595 0.19192117 -4.4504928e-17)
(-0.078643894 0.18691978 -1.9570813e-18)
(-0.095351645 0.17984237 5.1068684e-17)
(-0.11135151 0.17060871 3.8241179e-17)
(-0.12631862 0.15919045 -8.6489327e-18)
(-0.13989764 0.14562605 -3.0312612e-17)
(-0.15171755 0.13003517 -2.4122804e-17)
(-0.16141282 0.11262971 -4.6900225e-17)
(-0.16865033 0.09371888 -7.682454e-18)
(-0.17315925 0.073704862 -8.26651e-18)
(-0.17475772 0.053067185 2.3721533e-17)
(-0.17337105 0.032337179 3.6397868e-17)
(-0.16904989 0.012069731 -4.7392587e-19)
(-0.16194281 -0.0072013262 -1.9040486e-17)
(-0.15230172 -0.024961592 -4.8713978e-18)
(-0.14054447 -0.0407888 2.2751844e-17)
(-0.12711795 -0.054364272 3.1973707e-17)
(-0.11251022 -0.065482052 6.8128387e-19)
(-0.097212785 -0.074048025 -2.2898137e-17)
(-0.081694855 -0.080070133 -3.7761247e-18)
(-0.066384926 -0.083643626 6.6818463e-18)
(-0.051658586 -0.084933828 -3.3613273e-18)
(-0.037831193 -0.084159815 1.3448354e-17)
(-0.02515514 -0.081577903 4.1428083e-18)
(-0.013821333 -0.077466709 -1.1472173e-17)
(-0.0039572019 -0.072115138 -1.0135268e-17)
(0.0043523906 -0.06581084 -5.3295133e-18)
(0.011076301 -0.058850747 -9.1966754e-18)
(0.016238492 -0.051504585 -2.8117471e-18)
(0.019892077 -0.044032014 6.5937213e-20)
(0.022129418 -0.036670721 -1.1635103e-18)
(0.023074457 -0.029633499 -1.1805623e-17)
(0.022878395 -0.023104175 -9.1710391e-19)
(0.02171465 -0.017234045 4.2586408e-19)
(0.019772865 -0.012138566 1.0075191e-18)