/*--------------------------------*- C++ -*----------------------------------*\
| =========                 |                                                 |
| \\      /  F ield         | OpenFOAM: The Open Source CFD Toolbox           |
|  \\    /   O peration     | Version:  2106                                  |
|   \\  /    A nd           | Website:  www.openfoam.com                      |
|    \\/     M anipulation  |                                                 |
\*---------------------------------------------------------------------------*/
FoamFile
{
    version     2.0;
    format      ascii;
    arch        "LSB;label=32;scalar=64";
    class       volScalarField;
    location    "0.07";
    object      p;
}
// * * * * * * * * * * * * * * * * * * * * * * * * * * * * * * * * * * * * * //

dimensions      [1 -1 -2 0 0 0 0];

internalField   nonuniform List<scalar> 
32768
(
483.3099
483.31578
483.29903
483.2655
483.21444
483.14522
483.05766
482.9516
482.82682
482.68306
482.51996
482.33712
482.13415
481.91075
481.66646
481.4007
481.11284
480.80219
480.468
480.10947
479.72569
479.31572
478.87848
478.41285
477.91759
477.39136
476.83273
476.24013
475.61192
474.94627
474.24128
473.49487
472.70485
471.86875
470.9843
470.04822
469.05888
468.01095
466.90508
465.73257
464.49444
463.187
461.78964
460.34577
458.75859
457.15623
455.40056
453.54251
451.63564
449.54429
447.34735
445.07634
442.61569
440.00229
437.28227
434.39406
431.3163
428.05723
424.61683
421.00131
417.1766
413.0853
408.76775
404.25804
399.48074
394.4111
389.07287
383.44531
377.50776
371.26334
364.72362
357.87009
350.63611
343.01548
335.06655
326.8023
318.19841
309.23193
299.91473
290.2992
280.41699
270.27507
259.88233
249.24369
238.38438
227.36169
216.2608
205.21523
194.35649
183.70561
173.1849
162.76434
152.48646
142.2384
132.41715
123.30868
114.58485
106.31801
98.924555
92.442745
86.035635
79.850582
74.368505
68.638458
62.784236
57.189747
51.593038
46.02238
40.729807
36.002623
30.853611
24.782172
18.644382
10.303949
2.1673141
0.072557124
0.28053287
0.32828675
0.30471834
0.28198344
0.26155398
0.24366494
0.22796427
0.21394468
0.20130852
0.18984047
0.17937683
0.16978756
0.16096764
0.15282879
0.14529756
0.13830981
0.13181298
0.12575299
0.12010044
0.11481317
0.10985685
0.10520542
0.10083321
0.096714524
0.092836393
0.089176774
0.085718585
0.082446966
0.079349325
0.076413289
0.073628454
0.070984543
0.068472233
0.066083017
0.063809218
0.06164345
0.059579461
0.057611065
0.055732658
0.053939058
0.052225466
0.050587425
0.049020798
0.04752175
0.046086822
0.044713098
0.043395318
0.042132349
0.040921533
0.039759921
0.038645309
0.037575955
0.036547781
0.035560207
0.034611407
0.033699477
0.03282259
0.03197927
0.031167974
0.030387301
0.02963594
0.028912638
0.028216201
0.027545497
0.026899457
0.026277062
0.025677346
0.025099391
0.024542327
0.024005331
0.023487609
0.022988483
0.022507071
0.022042761
0.021594942
0.021163007
0.02074636
0.020344433
0.019956685
0.019582602
0.019221697
0.018873502
0.018537577
0.018213484
0.017900811
0.017599171
0.017308193
0.017027543
0.016756782
0.016495633
0.0162438
0.01600099
0.015766909
0.015541272
0.015323812
0.015114273
0.014912411
0.014717978
0.014530794
0.014350606
0.014177257
0.014010518
0.013850215
0.013696192
0.013548027
0.013405764
0.013269413
0.013138614
0.013013234
0.01289316
0.012778269
0.012668432
0.012563523
0.012463423
0.012368027
0.012277236
0.012190975
0.012109128
0.012031599
0.011958299
0.011889156
0.011824101
0.011763051
0.011705949
0.011652726
0.011603319
0.01155775
0.011515897
0.01147772
0.011443182
0.011412247
0.011384892
0.011361056
0.011340753
0.011323951
0.011310643
0.011300859
0.011294681
0.011291668
0.011292401
474.54673
474.55248
474.53619
474.50312
474.45194
474.38256
474.29485
474.18863
474.06368
473.91974
473.75649
473.57364
473.37076
473.14731
472.90276
472.63663
472.3483
472.03712
471.70234
471.34317
470.95871
470.54801
470.11001
469.64357
469.14747
468.62036
468.06082
467.46727
466.83806
466.17138
465.46533
464.71777
463.92661
463.08918
462.20362
461.26574
460.27564
459.22489
458.11929
456.94257
455.70665
454.3934
452.99974
451.54392
449.96419
448.35532
446.58623
444.75522
442.82028
440.72151
438.55935
436.24851
433.77199
431.20408
428.46364
425.53272
422.48132
419.23901
415.77194
412.13949
408.31539
404.22708
399.91161
395.3903
390.59566
385.50959
380.16631
374.54722
368.61029
362.35032
355.79095
348.91736
341.66403
334.04173
326.0947
317.815
309.18963
300.2012
290.85682
281.20261
271.27048
261.08298
250.6568
240.0027
229.15151
218.14287
207.04031
195.95478
184.9902
174.20312
163.61192
153.18315
142.86195
132.68248
122.92082
113.73477
105.11835
97.087053
89.734768
83.010439
76.685536
70.806947
65.029787
59.393081
53.994842
48.422581
42.90633
37.620901
32.525405
27.590996
21.651903
15.780291
13.936352
1.4023738
0.69291195
0.39259954
0.33059302
0.30501945
0.28387243
0.264868
0.24720356
0.23089963
0.21594179
0.20233327
0.18994437
0.1786369
0.16828662
0.15878177
0.15002963
0.14194179
0.13445471
0.12750724
0.12104225
0.11501792
0.10938507
0.10411498
0.099176438
0.094542496
0.090182851
0.08608026
0.082209188
0.078557799
0.075105932
0.071841015
0.068750082
0.065819224
0.063039869
0.06040123
0.057893408
0.055508062
0.053237717
0.05107446
0.049013437
0.047048005
0.045172142
0.043380752
0.041669128
0.040032845
0.038467777
0.036970014
0.035535943
0.03416204
0.032846713
0.031585412
0.030375595
0.029214964
0.028100953
0.027031006
0.02600445
0.025017981
0.024069997
0.023159075
0.022282459
0.021439387
0.020628415
0.019848087
0.019097056
0.018374062
0.017677912
0.017007475
0.016361681
0.015739513
0.015140005
0.014562245
0.014005367
0.013468564
0.012951075
0.012452216
0.011970763
0.011506495
0.011058768
0.010626929
0.01021037
0.0098085206
0.0094208457
0.0090468315
0.0086859889
0.0083378482
0.0080019758
0.007677934
0.0073653134
0.0070637323
0.0067728346
0.0064922887
0.0062214651
0.0059603031
0.0057084879
0.0054656985
0.0052316337
0.0050060105
0.0047885599
0.0045790246
0.004377155
0.0041827218
0.0039955456
0.0038153643
0.0036420387
0.0034752981
0.0033149421
0.0031607912
0.0030128817
0.0028709008
0.0027343779
0.0026034887
0.0024780842
0.0023580068
0.002243114
0.0021332719
0.0020283549
0.001928248
0.0018328433
0.0017420422
0.0016557973
0.0015739572
0.0014964269
0.0014231289
0.0013539951
0.0012889597
0.0012278915
0.001170786
0.0011175824
0.001068227
0.0010226041
0.00098072401
0.00094253272
0.00090798133
0.0008770334
0.00084965376
0.00082584691
0.00080555552
0.00078874328
0.00077541746
0.00076557182
0.00075928284
0.00075610606
0.00075683894
465.7623
465.76778
465.75144
465.7182
465.66679
465.59714
465.50911
465.40253
465.27718
465.13281
464.96911
464.78576
464.5824
464.35856
464.11368
463.84722
463.55857
463.24708
462.912
462.55252
462.16775
461.75671
461.31835
460.85153
460.355
459.82743
459.26737
458.67327
458.04346
457.37612
456.66935
455.92101
455.12902
454.29066
453.40416
452.46509
451.47402
450.42148
449.31544
448.13568
446.90143
445.58237
444.19376
442.73004
441.15328
439.53526
437.76526
435.93929
433.98945
431.8998
429.73433
427.40162
424.94731
422.37002
419.60185
416.69529
413.63645
410.36282
406.90981
403.28234
399.42529
395.33283
391.03364
386.49361
381.67616
376.58833
371.24166
365.60787
359.65703
353.39169
346.81619
339.90774
332.62594
324.99688
317.04448
308.74367
300.07396
291.02195
281.61943
271.91832
261.94285
251.71008
241.22794
230.51091
219.60589
208.55389
197.40422
186.25128
175.19196
164.29474
153.59592
143.08945
132.75197
122.62706
112.89689
103.71309
95.091544
87.063529
79.749397
73.146204
67.051028
61.370621
56.084036
50.674271
45.420708
40.228119
34.62914
29.03034
24.285539
18.315979
13.590649
9.6023311
1.0402868
0.28220608
0.44011853
0.36833964
0.31945653
0.29206557
0.26866075
0.24924015
0.23202804
0.21638456
0.20209614
0.18903549
0.17708061
0.16611863
0.15604565
0.14676847
0.1382009
0.13027568
0.12291904
0.11608148
0.10971073
0.10376663
0.098206032
0.092997809
0.088113287
0.083523016
0.07920719
0.075143396
0.071308041
0.067683776
0.064260906
0.061022274
0.057953793
0.055043961
0.05228258
0.049659471
0.047166067
0.04479424
0.042536246
0.040385826
0.038334665
0.036377772
0.034510172
0.032726641
0.031022339
0.029392847
0.027834086
0.026342202
0.024913699
0.02354484
0.022233909
0.020976959
0.019771252
0.018614274
0.017503778
0.016437229
0.015413448
0.014429402
0.013484047
0.012574894
0.011701292
0.010860932
0.010052181
0.0092738565
0.0085246992
0.0078034619
0.0071089568
0.0064400637
0.0057957232
0.0051749272
0.004576714
0.0040001698
0.0034444261
0.0029086451
0.0023920101
0.0018937214
0.0014135677
0.00095040712
0.00050359924
7.2579384e-05
-0.00034321713
-0.00074434336
-0.0011313283
-0.0015046909
-0.0018649199
-0.0022124885
-0.002547791
-0.0028713001
-0.0031834279
-0.0034845717
-0.0037751212
-0.0040554576
-0.0043256487
-0.0045862886
-0.0048376775
-0.0050800875
-0.0053137989
-0.0055390875
-0.0057562157
-0.0059654248
-0.0061669382
-0.0063609769
-0.0065479287
-0.0067278561
-0.0069010387
-0.0070676078
-0.0072277649
-0.0073817203
-0.0075295389
-0.0076715087
-0.007807701
-0.0079383349
-0.0080635419
-0.0081834532
-0.0082981976
-0.0084078987
-0.0085126746
-0.0086126358
-0.0087078822
-0.0087985144
-0.0088847064
-0.0089664834
-0.0090439326
-0.009117151
-0.0091862256
-0.0092512328
-0.0093121793
-0.0093691903
-0.0094223223
-0.0094716265
-0.0095171781
-0.0095590017
-0.009597144
-0.0096316484
-0.0096625574
-0.0096899027
-0.0097136947
-0.009733982
-0.0097507649
-0.009764073
-0.0097739311
-0.0097802503
-0.0097834298
-0.0097825494
456.95484
456.96008
456.9436
456.91014
456.8584
456.78833
456.69981
456.59268
456.46671
456.32165
456.15721
455.97303
455.76875
455.5439
455.29796
455.03037
454.74049
454.42765
454.0911
453.73002
453.34353
452.93065
452.49034
452.02144
451.52274
450.99288
450.43042
449.83381
449.20136
448.53127
447.82161
447.07025
446.27508
445.43338
444.54336
443.60057
442.60561
441.54887
440.4386
439.25408
438.01584
436.69051
435.29987
433.82646
432.24848
430.61832
428.84098
427.01559
425.05047
422.95414
420.78917
418.43661
415.97323
413.39709
410.61267
407.68958
404.62321
401.34336
397.87572
394.2278
390.35488
386.25827
381.94847
377.37695
372.53939
367.44139
362.07651
356.41831
350.44106
344.14953
337.53659
330.59192
323.29318
315.64433
307.64644
299.28366
290.54358
281.41946
271.95382
262.19142
252.15014
241.83309
231.23249
220.38158
209.36522
198.23561
187.03282
175.82389
164.65462
153.58844
142.72148
132.1028
121.73158
111.65433
101.9975
92.874709
84.341197
76.422031
69.185254
62.656657
56.776662
51.446101
46.288334
41.243734
36.464284
31.406542
25.728004
20.649328
14.984744
10.84187
7.183218
0.54591729
0.17425988
0.24482438
0.3096953
0.29807559
0.28665056
0.26420377
0.24506884
0.22832417
0.2130604
0.19895619
0.18587969
0.17377448
0.16256438
0.15219118
0.1425922
0.13370198
0.12545358
0.1177956
0.11066474
0.10401247
0.097804121
0.09199852
0.086561719
0.081462906
0.076673011
0.072166878
0.067923665
0.063922473
0.060144198
0.056572788
0.053195498
0.049998311
0.046967213
0.044093783
0.041361849
0.038765193
0.03629655
0.033947606
0.031710554
0.029579411
0.027545759
0.025605053
0.023752392
0.021982622
0.020291013
0.01867327
0.017125402
0.015643708
0.014224725
0.012865278
0.011561891
0.010312103
0.0091132716
0.0079626795
0.0068585941
0.0057987331
0.0047800411
0.0038017189
0.0028603176
0.0019551645
0.001085366
0.0002489844
-0.00055627357
-0.0013312848
-0.0020772408
-0.0027954287
-0.0034870482
-0.0041532141
-0.0047949788
-0.0054133412
-0.0060092533
-0.0065836215
-0.0071373046
-0.0076711186
-0.0081858301
-0.0086821876
-0.0091608203
-0.0096224861
-0.010067817
-0.010497413
-0.010911851
-0.011311689
-0.011697441
-0.012069632
-0.01242876
-0.012775315
-0.013109571
-0.013432093
-0.013743297
-0.014043556
-0.01433323
-0.014612675
-0.014882189
-0.015142144
-0.015392848
-0.015634596
-0.015867673
-0.016092354
-0.016308905
-0.016517578
-0.016718623
-0.016912278
-0.017098673
-0.017278085
-0.017450779
-0.01761689
-0.01777659
-0.017930037
-0.018077614
-0.018219289
-0.018355161
-0.018485469
-0.018610369
-0.018729992
-0.01884446
-0.018953895
-0.019058417
-0.019158147
-0.019253194
-0.019343654
-0.019429609
-0.019511164
-0.019588421
-0.019661465
-0.019730371
-0.019795207
-0.019856031
-0.01991292
-0.01996594
-0.020015148
-0.020060578
-0.020102295
-0.020140342
-0.02017476
-0.020205593
-0.020232863
-0.020256616
-0.02027686
-0.020293618
-0.020306911
-0.020316745
-0.020323054
-0.020326195
-0.0203252
448.12479
448.12979
448.11304
448.07921
448.027
447.95637
447.86719
447.7593
447.63249
447.4865
447.32103
447.13573
446.93021
446.70402
446.45665
446.18753
445.89603
445.58148
445.24312
444.88013
444.49163
444.07663
443.63409
443.16286
442.66171
442.12929
441.56415
440.96474
440.32936
439.65621
438.94334
438.18861
437.3899
436.5445
435.65054
434.70368
433.70425
432.64304
431.52774
430.33799
429.0948
427.76262
426.36856
424.88561
423.30471
421.66259
419.87958
418.04591
416.06973
413.96894
411.79188
409.42586
406.95868
404.37009
401.56163
398.63833
395.5657
392.25231
388.76997
385.12474
381.22729
377.10285
372.77795
368.18957
363.32491
358.20823
352.82752
347.13586
341.11658
334.78763
328.1381
321.1615
313.83749
306.14998
298.08499
289.63843
280.81533
271.61264
262.07625
252.23995
242.10303
231.66436
220.91493
209.89392
198.71138
187.44772
176.15468
164.87759
153.62539
142.42833
131.38798
120.61393
110.17221
100.10615
90.455343
81.282789
72.687449
64.786513
57.709586
51.649796
46.342407
41.527597
36.955671
32.407508
27.815956
22.279396
17.039624
13.137108
9.9213877
3.5359468
0.21110783
0.021348819
0.12962381
0.18436565
0.22295518
0.24179624
0.2404857
0.22902066
0.21631522
0.20344718
0.19090893
0.17886775
0.16740025
0.15656375
0.1463739
0.13682528
0.1278965
0.11955356
0.11176089
0.10447409
0.09766433
0.091286754
0.085313218
0.079709495
0.074447069
0.069500617
0.064844051
0.06045489
0.05631506
0.052402327
0.048705875
0.045211319
0.041900731
0.038761371
0.035782788
0.032954971
0.030267266
0.027711307
0.025279137
0.022963025
0.020755931
0.018650777
0.016642907
0.014726173
0.012895163
0.011145159
0.0094717558
0.0078708349
0.0063385357
0.0048713412
0.0034658284
0.0021195883
0.00082751499
-0.00041183362
-0.0016006204
-0.0027408935
-0.0038366733
-0.0048888278
-0.0059001721
-0.0068722272
-0.007806259
-0.0087042363
-0.0095682082
-0.010399505
-0.011199362
-0.011969222
-0.012710408
-0.013424139
-0.014111565
-0.014773774
-0.015411798
-0.016026623
-0.016619191
-0.017190394
-0.017741075
-0.018272038
-0.018784045
-0.019277826
-0.019754053
-0.020213411
-0.02065654
-0.021084049
-0.021496513
-0.021894486
-0.022278416
-0.022648855
-0.023006281
-0.023351109
-0.023684006
-0.024005202
-0.024315089
-0.024614066
-0.024902505
-0.025180761
-0.025449164
-0.025708051
-0.025957732
-0.026198498
-0.026430633
-0.02665441
-0.026870106
-0.027077967
-0.027278237
-0.027471151
-0.027656819
-0.027835532
-0.028007581
-0.028173091
-0.028332246
-0.028485239
-0.028632155
-0.028773233
-0.028908607
-0.029038447
-0.029162896
-0.029282083
-0.029396135
-0.029505174
-0.029609323
-0.029708698
-0.029803408
-0.029893552
-0.029979198
-0.030060468
-0.030137457
-0.030210247
-0.03027891
-0.030343517
-0.030404132
-0.030460825
-0.03051366
-0.030562692
-0.030607966
-0.03064954
-0.030687461
-0.030721768
-0.030752484
-0.030779654
-0.03080332
-0.030823495
-0.030840198
-0.030853448
-0.030863249
-0.03086953
-0.030872638
-0.030871592
439.27247
439.27718
439.26005
439.22574
439.17293
439.10157
439.01156
438.90272
438.77485
438.62767
438.4609
438.27418
438.06712
437.83927
437.5901
437.31907
437.02554
436.70884
436.3682
436.00281
435.61177
435.19411
434.74876
434.27458
433.77033
433.23466
432.66611
432.06311
431.42396
430.74685
430.02983
429.27073
428.46742
427.6172
426.71809
425.76595
424.76067
423.69372
422.5716
421.3755
420.12459
418.78517
417.38379
415.89097
414.30414
412.64843
410.85819
409.0114
407.02276
404.91541
402.72008
400.34277
397.86512
395.25417
392.43242
389.49624
386.40091
383.06848
379.56821
375.90234
371.9801
367.83719
363.48449
358.86587
353.97495
348.8332
343.42754
337.69435
331.622
325.25461
318.57059
311.53833
304.1635
296.4173
288.27084
279.73302
270.82079
261.54004
251.9226
241.96857
231.65916
221.01633
210.07264
198.87749
187.53965
176.13307
164.69397
153.26806
141.85915
130.48353
119.2482
108.31341
97.784715
87.680527
78.005023
68.77998
60.065112
52.040513
44.967726
39.38873
34.599169
30.362985
26.463608
22.753811
18.37324
13.727057
10.144789
6.6126873
0.88389473
-0.03121737
-0.015217884
0.033240925
0.075617345
0.12529771
0.1636666
0.18844418
0.19341179
0.19070947
0.18404208
0.1754947
0.16614011
0.15652157
0.14696676
0.13764358
0.12868602
0.12014834
0.11204932
0.10439214
0.097169979
0.09036653
0.083961961
0.077935497
0.072261082
0.066914654
0.061875811
0.057121521
0.052634267
0.048395457
0.04438833
0.040596105
0.037005927
0.033604074
0.030376881
0.027313277
0.024403325
0.021636068
0.019005058
0.016501195
0.014115989
0.011842434
0.0096741921
0.007605061
0.0056299054
0.0037431299
0.0019397405
0.00021524306
-0.0014345732
-0.0030136677
-0.0045257559
-0.0059742679
-0.0073624869
-0.0086933266
-0.0099699785
-0.011194912
-0.012370573
-0.013499528
-0.014583559
-0.015625221
-0.016625986
-0.017588055
-0.018513195
-0.019403036
-0.020259305
-0.021083639
-0.021876338
-0.022639463
-0.023374431
-0.02408234
-0.024764276
-0.025421306
-0.026054442
-0.026664646
-0.027252834
-0.027819881
-0.028366624
-0.028893855
-0.029402323
-0.029892738
-0.030365775
-0.030822098
-0.031262341
-0.031687109
-0.03209698
-0.032492526
-0.032874061
-0.033242215
-0.033597483
-0.033940262
-0.034271206
-0.034590542
-0.034898648
-0.035195922
-0.035482734
-0.035759439
-0.036026368
-0.036283844
-0.036532171
-0.036771637
-0.037002527
-0.037225114
-0.037439692
-0.037646473
-0.03784568
-0.038037539
-0.038222346
-0.038400274
-0.038571419
-0.038736066
-0.038894412
-0.039046632
-0.03919283
-0.039333218
-0.03946794
-0.039597153
-0.039720998
-0.03983961
-0.039953115
-0.040061636
-0.040165289
-0.040264187
-0.040358435
-0.040448134
-0.040533399
-0.040614306
-0.040690941
-0.040763391
-0.040831732
-0.040896039
-0.040956377
-0.04101281
-0.041065398
-0.041114198
-0.041159262
-0.041200643
-0.041238386
-0.041272533
-0.041303113
-0.041330163
-0.041353713
-0.04137379
-0.041390413
-0.041403601
-0.041413352
-0.041419594
-0.041422672
-0.041421602
430.39827
430.40263
430.38504
430.35012
430.29657
430.22434
430.13332
430.02334
429.89418
429.74559
429.57725
429.38883
429.17991
428.95006
428.69875
428.42543
428.12947
427.81018
427.46681
427.09853
426.70445
426.28359
425.83488
425.35717
424.8492
424.30963
423.73699
423.12969
422.48605
421.80421
421.08221
420.31791
419.5091
418.65314
417.7479
416.78948
415.77725
414.70349
413.57328
412.36963
411.10947
409.76134
408.35108
406.84669
405.25243
403.582
401.78177
399.92059
397.91644
395.80076
393.58585
391.1919
388.70389
386.06709
383.22586
380.27721
377.15616
373.79586
370.27682
366.58686
362.6418
358.46566
354.07519
349.43186
344.51784
339.34446
333.88345
328.10063
321.99261
315.5824
308.85342
301.75765
294.30109
286.47131
278.23584
269.60371
260.60589
251.23272
241.48607
231.36807
220.84268
209.95158
198.78548
187.41355
175.91092
164.32187
152.66211
140.99592
129.3564
117.77617
106.34819
95.210223
84.520513
74.311137
64.480206
55.034544
46.180855
38.164733
31.232801
26.086002
22.664673
20.130872
17.008743
13.935957
10.959512
6.871481
1.9455775
-0.010107513
-0.29304038
-0.14758865
-0.064150298
-0.011188403
0.037181596
0.081183504
0.11703571
0.1389351
0.14942282
0.15235858
0.15054268
0.14592167
0.13968858
0.13257633
0.12504839
0.11739439
0.10980118
0.10238579
0.095220377
0.08834659
0.081785144
0.075542636
0.069616185
0.063999062
0.058676076
0.05363837
0.048865324
0.044343995
0.040061866
0.036004612
0.032157852
0.028510272
0.025048607
0.021758669
0.018632605
0.015661505
0.012835277
0.010143749
0.0075809099
0.0051393587
0.0028109224
0.00058921025
-0.0015315803
-0.0035570876
-0.0054924262
-0.0073425595
-0.0091121284
-0.010805406
-0.012426373
-0.013978775
-0.01546613
-0.016891772
-0.018258771
-0.019570349
-0.020828304
-0.022035691
-0.023195139
-0.024308934
-0.025378905
-0.026407283
-0.027395748
-0.028346105
-0.029260482
-0.030140234
-0.030986808
-0.031801565
-0.032586008
-0.033341377
-0.034068872
-0.034769668
-0.035444875
-0.036095537
-0.036722645
-0.03732714
-0.037909926
-0.03847186
-0.039013754
-0.03953638
-0.04004047
-0.040526728
-0.040995823
-0.041448399
-0.041885074
-0.042306435
-0.042713041
-0.043105421
-0.043484094
-0.043849539
-0.044202235
-0.044542649
-0.044871069
-0.04518801
-0.045493879
-0.045789039
-0.046073842
-0.046348628
-0.046613721
-0.046869439
-0.047116085
-0.04735395
-0.047583307
-0.047804412
-0.048017598
-0.04822304
-0.048420966
-0.048611613
-0.048795241
-0.048972035
-0.049142112
-0.049305724
-0.049463059
-0.049614277
-0.049759633
-0.049899203
-0.050033111
-0.050161539
-0.050284635
-0.050402537
-0.050515365
-0.050623238
-0.050726273
-0.050824584
-0.050918279
-0.051007455
-0.05109222
-0.051172651
-0.051248837
-0.051320864
-0.051388809
-0.051452745
-0.051512735
-0.051568839
-0.051621119
-0.051669634
-0.051714438
-0.051755582
-0.051793108
-0.051827054
-0.051857459
-0.051884352
-0.051907762
-0.051927719
-0.051944243
-0.05195735
-0.051967036
-0.051973231
-0.05197628
-0.051975202
421.50268
421.50663
421.48849
421.45285
421.39843
421.32518
421.23298
421.12166
420.99101
420.84075
420.67059
420.48018
420.26911
420.03693
419.78313
419.50715
419.20835
418.88605
418.5395
418.16787
417.77024
417.34565
416.89302
416.41119
415.8989
415.35479
414.77738
414.16509
413.5162
412.82886
412.10109
411.33073
410.51553
409.65289
408.74054
407.77478
406.75452
405.6728
404.53324
403.32084
402.04973
400.69187
399.27015
397.75372
396.1491
394.46306
392.65073
390.77211
388.7516
386.62429
384.38605
381.97645
379.47124
376.80284
373.94785
370.97838
367.82004
364.43681
360.89827
357.17346
353.19378
348.98452
344.5606
339.88668
334.93279
329.71218
324.20486
318.36819
312.2138
305.76086
298.96282
291.79145
284.25073
276.30458
267.97994
259.27011
250.16957
240.66443
230.7379
220.39343
209.61269
198.47211
187.08512
175.50596
163.77128
151.93232
139.97779
127.9836
116.07335
104.24296
92.550158
81.159209
70.193972
59.647087
49.529569
39.85285
30.533988
22.309572
16.195215
11.883162
9.8158713
9.1875281
7.1854317
5.1798658
2.0786237
0.063144401
-0.39623756
-0.26269244
-0.22812253
-0.17224188
-0.097376247
-0.041699573
0.0043352944
0.043782918
0.074958648
0.096219013
0.10914994
0.11555037
0.11730224
0.11591343
0.11246649
0.10771499
0.10216814
0.096182118
0.089989385
0.083753813
0.077586754
0.071560506
0.065721115
0.060096142
0.054700503
0.049540467
0.04461565
0.039920285
0.03545072
0.031198428
0.027152737
0.02330409
0.019642655
0.016159652
0.012843587
0.0096881078
0.0066822774
0.0038173899
0.0010873065
-0.0015158268
-0.0039987864
-0.0063684554
-0.0086310084
-0.010792212
-0.01285753
-0.01483219
-0.016720795
-0.018527859
-0.020257728
-0.021914357
-0.023501439
-0.025022471
-0.026480744
-0.027879396
-0.029221299
-0.030509337
-0.031745556
-0.032932694
-0.034073185
-0.035169201
-0.036222593
-0.037235403
-0.038209434
-0.039146731
-0.040048072
-0.040915448
-0.041750551
-0.042554654
-0.043329023
-0.044074881
-0.044793425
-0.045485776
-0.046152999
-0.04679611
-0.047416075
-0.048013812
-0.048590197
-0.049146063
-0.0496822
-0.050199362
-0.050698266
-0.051179598
-0.051644011
-0.052092133
-0.052524567
-0.052941878
-0.05334461
-0.053733254
-0.054108506
-0.054470711
-0.054820276
-0.055157656
-0.055483211
-0.055797413
-0.056100663
-0.056393321
-0.056675731
-0.056948225
-0.057211129
-0.057464757
-0.057709413
-0.057945381
-0.058172942
-0.058392364
-0.058603823
-0.058807622
-0.05900401
-0.059193195
-0.059375389
-0.059550783
-0.059719615
-0.059882043
-0.060038245
-0.060188407
-0.060332649
-0.060471167
-0.060604083
-0.060731569
-0.060853775
-0.060970826
-0.061082843
-0.061189944
-0.061292245
-0.061389859
-0.061482892
-0.061571442
-0.061655605
-0.061735467
-0.061811119
-0.061882643
-0.061950116
-0.062013605
-0.062073174
-0.062128885
-0.062180799
-0.062228978
-0.062273473
-0.062314331
-0.062351594
-0.0623853
-0.062415489
-0.062442194
-0.06246544
-0.062485257
-0.062501663
-0.06251467
-0.062524281
-0.062530422
-0.062533442
-0.062532363
412.58624
412.58974
412.57096
412.5345
412.47909
412.40467
412.31112
412.19827
412.0659
411.91375
411.74151
411.54883
411.33531
411.10048
410.84384
410.56483
410.2628
409.93708
409.58691
409.21145
408.80979
408.38095
407.92385
407.43733
406.92012
406.37084
405.78802
405.17005
404.5152
403.82161
403.08728
402.31003
401.48759
400.61735
399.69694
398.72283
397.69349
396.60264
395.45262
394.23014
392.94688
391.57752
390.14311
388.61249
386.99638
385.29258
383.46636
381.56862
379.52813
377.38835
375.1233
372.69566
370.16983
367.46639
364.59527
361.60191
358.39855
354.99324
351.4319
347.6598
343.64568
339.40134
334.93456
330.22257
325.22849
319.94615
314.38954
308.49443
302.28693
295.78406
288.90996
281.63578
274.00243
265.95652
257.52337
248.72293
239.5017
229.81552
219.66429
209.05602
198.01145
186.6254
174.99126
163.14728
151.08328
138.85561
126.54905
114.21348
101.93248
89.783648
77.811057
66.076525
54.710408
43.897639
33.716191
23.255988
11.896501
5.6166323
-0.86498389
-0.2671321
0.34150453
0.013556328
-0.18815248
-0.13600175
-0.07938551
-0.15152544
-0.25980297
-0.25117208
-0.21405206
-0.16526726
-0.11144324
-0.064872956
-0.024289777
0.010315572
0.037921352
0.058443585
0.072402622
0.08089629
0.085150306
0.086274467
0.085164439
0.082498186
0.078782483
0.074375192
0.069548218
0.064492671
0.059341219
0.054189325
0.049103853
0.044131395
0.039301983
0.034634313
0.030140147
0.025821159
0.021683085
0.017724075
0.013937973
0.010319829
0.0068636547
0.0035649651
0.00041396864
-0.0025957332
-0.0054689753
-0.0082120943
-0.010832585
-0.013334755
-0.015727284
-0.018015791
-0.020203783
-0.02229637
-0.024298665
-0.026215796
-0.02805143
-0.029809354
-0.031493936
-0.033108761
-0.03465717
-0.036142364
-0.037567381
-0.038935126
-0.040248279
-0.041509652
-0.042721056
-0.04388485
-0.045003559
-0.046079322
-0.047113738
-0.048108646
-0.049065889
-0.049987
-0.050873721
-0.051727455
-0.052549652
-0.053341644
-0.054104442
-0.054839329
-0.055547552
-0.056230171
-0.056888198
-0.057522612
-0.058134349
-0.058724296
-0.0592933
-0.059842168
-0.060371665
-0.060882524
-0.061375444
-0.061851096
-0.062310104
-0.062753083
-0.063180619
-0.063593263
-0.063991573
-0.064376027
-0.06474726
-0.065105616
-0.065451515
-0.065785399
-0.066107635
-0.066418669
-0.066718886
-0.067008643
-0.067288279
-0.067558124
-0.067818499
-0.068069714
-0.06831206
-0.068545816
-0.068771253
-0.068988631
-0.069198161
-0.069400108
-0.06959473
-0.069782218
-0.069962786
-0.070136624
-0.070303974
-0.07046498
-0.070619825
-0.070768679
-0.070911663
-0.071048967
-0.071180767
-0.071307189
-0.071428368
-0.071544434
-0.071655512
-0.071761719
-0.071863169
-0.071959972
-0.072052233
-0.07214005
-0.072223517
-0.072302725
-0.072377757
-0.072448696
-0.072515616
-0.072578584
-0.072637665
-0.072692921
-0.072744414
-0.072792202
-0.072836334
-0.072876857
-0.072913813
-0.072947243
-0.072977184
-0.073003669
-0.073026725
-0.073046376
-0.073062641
-0.073075535
-0.073085059
-0.073091144
-0.073094134
-0.073093054
403.6496
403.65259
403.63309
403.59571
403.53918
403.46345
403.36839
403.25382
403.11953
402.96526
402.79069
402.59547
402.37919
402.1414
401.88159
401.59917
401.29354
400.96399
400.60976
400.23001
399.82384
399.39025
398.92816
398.43639
397.91367
397.35862
396.76974
396.14542
395.48392
394.78335
394.04169
393.25675
392.42622
391.5475
390.61812
389.63466
388.59523
387.49413
386.33253
385.09875
383.80203
382.41985
380.97082
379.42507
377.79471
376.07237
374.22963
372.31128
370.24882
368.09231
365.79938
363.35188
360.79891
358.0609
355.17052
352.14362
348.89929
345.46188
341.87637
338.05288
333.99169
329.71573
325.20109
320.4423
315.39347
310.04652
304.43534
298.48302
292.21651
285.64211
278.67027
271.2985
263.55871
255.42294
246.88427
237.96145
228.5684
218.66366
208.26347
197.39196
186.07916
174.42926
162.49245
150.25697
137.75657
125.0833
112.31975
99.558384
86.893154
74.317974
61.848521
49.764896
38.370715
27.585804
15.88869
7.494813
0.36880196
-0.70275233
-0.3294206
-0.31447528
-0.28730178
-0.26333039
-0.22070007
-0.19434723
-0.19849217
-0.21107775
-0.23226189
-0.2225409
-0.1978781
-0.16192832
-0.12238674
-0.084175847
-0.049539682
-0.019553752
0.0052692094
0.024651152
0.038860546
0.048538972
0.054482099
0.057484958
0.058249871
0.057354026
0.05525284
0.052299295
0.048759991
0.04483383
0.040672566
0.036387664
0.032062437
0.027753034
0.02350618
0.019351877
0.015308953
0.011391335
0.0076070255
0.0039593571
0.00045038023
-0.0029199475
-0.006154048
-0.0092544346
-0.012226054
-0.015074263
-0.017801473
-0.02041194
-0.022912073
-0.025305938
-0.027599324
-0.029796757
-0.031901596
-0.033917724
-0.035850131
-0.0377024
-0.039478533
-0.041182428
-0.042816929
-0.044385256
-0.04589056
-0.047335758
-0.048723619
-0.050056741
-0.05133776
-0.052568994
-0.053752449
-0.054890364
-0.055984774
-0.057037235
-0.058050369
-0.059025569
-0.059964142
-0.060867518
-0.061737748
-0.062575812
-0.06338335
-0.06416135
-0.06491117
-0.065633928
-0.066330615
-0.067002288
-0.067649956
-0.068274568
-0.068877024
-0.069458176
-0.070018841
-0.070559798
-0.071081793
-0.071585538
-0.072071707
-0.072540952
-0.072993838
-0.073430988
-0.073852984
-0.07426035
-0.074653664
-0.075033333
-0.075400014
-0.075754031
-0.076095789
-0.076425732
-0.076744203
-0.077051625
-0.077348399
-0.077634869
-0.077911366
-0.078178212
-0.07843572
-0.07868419
-0.07892391
-0.079155156
-0.079378189
-0.079593262
-0.079800599
-0.080000437
-0.08019305
-0.080378614
-0.080557344
-0.080729421
-0.080895076
-0.081054458
-0.081207737
-0.081355078
-0.081496655
-0.081632602
-0.081763144
-0.081888357
-0.082008368
-0.082123317
-0.08223333
-0.082338521
-0.082439
-0.082534876
-0.082626258
-0.082713243
-0.082795925
-0.082874387
-0.082948713
-0.083018983
-0.083085272
-0.08314765
-0.083206177
-0.083260917
-0.08331193
-0.08335927
-0.083402987
-0.08344313
-0.083479741
-0.083512857
-0.083542516
-0.083568747