/*--------------------------------*- C++ -*----------------------------------*\
| =========                 |                                                 |
| \\      /  F ield         | OpenFOAM: The Open Source CFD Toolbox           |
|  \\    /   O peration     | Version:  2106                                  |
|   \\  /    A nd           | Website:  www.openfoam.com                      |
|    \\/     M anipulation  |                                                 |
\*---------------------------------------------------------------------------*/
FoamFile
{
    version     2.0;
    format      ascii;
    arch        "LSB;label=32;scalar=64";
    class       volScalarField;
    location    "2.1";
    object      p_rgh;
}
// * * * * * * * * * * * * * * * * * * * * * * * * * * * * * * * * * * * * * //

dimensions      [1 -1 -2 0 0 0 0];

internalField   nonuniform List<scalar> 
90000
(
0.00333333
0.00333341
0.00333355
0.00333376
0.00333405
0.0033344
0.00333483
0.00333532
0.00333588
0.0033365
0.0033372
0.00333795
0.00333877
0.00333965
0.0033406
0.00334159
0.00334265
0.00334376
0.00334493
0.00334614
0.00334741
0.00334872
0.00335007
0.00335147
0.0033529
0.00335437
0.00335588
0.00335742
0.00335899
0.00336058
0.0033622
0.00336384
0.00336549
0.00336716
0.00336885
0.00337054
0.00337223
0.00337394
0.00337564
0.00337733
0.00337902
0.00338071
0.00338238
0.00338403
0.00338567
0.00338729
0.00338889
0.00339045
0.00339199
0.0033935
0.00339497
0.00339641
0.00339781
0.00339916
0.00340047
0.00340174
0.00340295
0.00340411
0.00340523
0.00340628
0.00340728
0.00340822
0.0034091
0.00340992
0.00341068
0.00341137
0.003412
0.00341256
0.00341305
0.00341347
0.00341382
0.00341411
0.00341432
0.00341446
0.00341453
0.00341453
0.00341446
0.00341432
0.00341411
0.00341382
0.00341347
0.00341304
0.00341255
0.00341199
0.00341137
0.00341068
0.00340992
0.0034091
0.00340822
0.00340728
0.00340628
0.00340522
0.00340411
0.00340295
0.00340173
0.00340047
0.00339916
0.0033978
0.0033964
0.00339497
0.0033935
0.00339199
0.00339045
0.00338888
0.00338729
0.00338567
0.00338403
0.00338237
0.0033807
0.00337902
0.00337733
0.00337563
0.00337393
0.00337223
0.00337053
0.00336884
0.00336716
0.00336549
0.00336383
0.00336219
0.00336058
0.00335898
0.00335741
0.00335588
0.00335437
0.0033529
0.00335146
0.00335006
0.00334871
0.0033474
0.00334614
0.00334492
0.00334376
0.00334265
0.00334159
0.00334059
0.00333965
0.00333877
0.00333795
0.00333719
0.0033365
0.00333587
0.00333531
0.00333482
0.0033344
0.00333404
0.00333376
0.00333355
0.0033334
0.00333333
0.00333326
0.00333334
0.00333348
0.00333369
0.00333398
0.00333433
0.00333476
0.00333525
0.00333581
0.00333644
0.00333713
0.00333789
0.00333871
0.00333959
0.00334054
0.00334154
0.0033426
0.00334371
0.00334488
0.00334609
0.00334736
0.00334867
0.00335003
0.00335143
0.00335287
0.00335434
0.00335585
0.00335739
0.00335896
0.00336056
0.00336218
0.00336382
0.00336548
0.00336715
0.00336884
0.00337053
0.00337223
0.00337394
0.00337564
0.00337734
0.00337903
0.00338072
0.00338239
0.00338405
0.00338569
0.00338731
0.00338891
0.00339048
0.00339202
0.00339353
0.00339501
0.00339645
0.00339785
0.0033992
0.00340052
0.00340178
0.003403
0.00340417
0.00340528
0.00340634
0.00340734
0.00340828
0.00340917
0.00340999
0.00341074
0.00341144
0.00341206
0.00341262
0.00341312
0.00341354
0.00341389
0.00341418
0.00341439
0.00341453
0.0034146
0.0034146
0.00341453
0.00341439
0.00341418
0.00341389
0.00341354
0.00341311
0.00341262
0.00341206
0.00341143
0.00341074
0.00340998
0.00340916
0.00340828
0.00340734
0.00340634
0.00340528
0.00340416
0.003403
0.00340178
0.00340051
0.0033992
0.00339784
0.00339644
0.003395
0.00339353
0.00339202
0.00339048
0.00338891
0.00338731
0.00338569
0.00338405
0.00338239
0.00338072
0.00337903
0.00337733
0.00337563
0.00337393
0.00337223
0.00337053
0.00336883
0.00336715
0.00336547
0.00336381
0.00336217
0.00336055
0.00335896
0.00335739
0.00335584
0.00335434
0.00335286
0.00335142
0.00335002
0.00334867
0.00334735
0.00334609
0.00334487
0.0033437
0.00334259
0.00334153
0.00334053
0.00333959
0.00333871
0.00333788
0.00333713
0.00333643
0.00333581
0.00333525
0.00333475
0.00333433
0.00333397
0.00333369
0.00333347
0.00333333
0.00333326
0.00333312
0.0033332
0.00333334
0.00333355
0.00333384
0.0033342
0.00333462
0.00333512
0.00333568
0.00333631
0.003337
0.00333776
0.00333859
0.00333947
0.00334042
0.00334143
0.00334249
0.0033436
0.00334477
0.003346
0.00334727
0.00334858
0.00334995
0.00335135
0.00335279
0.00335427
0.00335579
0.00335733
0.00335891
0.00336051
0.00336214
0.00336378
0.00336545
0.00336713
0.00336882
0.00337052
0.00337223
0.00337394
0.00337564
0.00337735
0.00337905
0.00338074
0.00338242
0.00338409
0.00338573
0.00338736
0.00338896
0.00339054
0.00339209
0.0033936
0.00339508
0.00339653
0.00339793
0.00339929
0.00340061
0.00340188
0.0034031
0.00340427
0.00340539
0.00340645
0.00340746
0.0034084
0.00340929
0.00341011
0.00341087
0.00341157
0.0034122
0.00341276
0.00341325
0.00341368
0.00341403
0.00341432
0.00341453
0.00341467
0.00341475
0.00341475
0.00341467
0.00341453
0.00341432
0.00341403
0.00341367
0.00341325
0.00341275
0.00341219
0.00341156
0.00341087
0.00341011
0.00340928
0.0034084
0.00340745
0.00340645
0.00340539
0.00340427
0.0034031
0.00340188
0.00340061
0.00339929
0.00339793
0.00339652
0.00339508
0.0033936
0.00339208
0.00339054
0.00338896
0.00338736
0.00338573
0.00338408
0.00338242
0.00338074
0.00337905
0.00337735
0.00337564
0.00337393
0.00337222
0.00337051
0.00336881
0.00336712
0.00336544
0.00336378
0.00336213
0.00336051
0.0033589
0.00335733
0.00335578
0.00335427
0.00335279
0.00335134
0.00334994
0.00334858
0.00334726
0.00334599
0.00334477
0.0033436
0.00334248
0.00334142
0.00334041
0.00333947
0.00333858
0.00333776
0.003337
0.0033363
0.00333567
0.00333511
0.00333462
0.00333419
0.00333383
0.00333355
0.00333333
0.00333319
0.00333312
0.00333291
0.00333298
0.00333313
0.00333334
0.00333363
0.00333399
0.00333442
0.00333491
0.00333548
0.00333611
0.00333681
0.00333758
0.0033384
0.00333929
0.00334025
0.00334126
0.00334232
0.00334345
0.00334462
0.00334585
0.00334713
0.00334845
0.00334982
0.00335123
0.00335268
0.00335417
0.00335569
0.00335725
0.00335883
0.00336044
0.00336208
0.00336373
0.0033654
0.00336709
0.00336879
0.0033705
0.00337222
0.00337394
0.00337565
0.00337737
0.00337908
0.00338078
0.00338247
0.00338414
0.0033858
0.00338743
0.00338904
0.00339063
0.00339218
0.00339371
0.00339519
0.00339665
0.00339806
0.00339943
0.00340075
0.00340203
0.00340325
0.00340443
0.00340555
0.00340662
0.00340763
0.00340858
0.00340947
0.0034103
0.00341106
0.00341176
0.0034124
0.00341296
0.00341346
0.00341388
0.00341424
0.00341453
0.00341474
0.00341489
0.00341496
0.00341496
0.00341489
0.00341474
0.00341453
0.00341424
0.00341388
0.00341345
0.00341296
0.00341239
0.00341176
0.00341106
0.0034103
0.00340947
0.00340858
0.00340763
0.00340662
0.00340555
0.00340443
0.00340325
0.00340202
0.00340074
0.00339942
0.00339805
0.00339664
0.00339519
0.0033937
0.00339218
0.00339062
0.00338904
0.00338743
0.00338579
0.00338414
0.00338246
0.00338077
0.00337907
0.00337736
0.00337565
0.00337393
0.00337221
0.0033705
0.00336879
0.00336709
0.0033654
0.00336373
0.00336207
0.00336044
0.00335883
0.00335724
0.00335569
0.00335416
0.00335268
0.00335123
0.00334981
0.00334845
0.00334712
0.00334584
0.00334462
0.00334344
0.00334232
0.00334125
0.00334024
0.00333929
0.0033384
0.00333757
0.0033368
0.00333611
0.00333547
0.00333491
0.00333441
0.00333398
0.00333362
0.00333334
0.00333312
0.00333298
0.0033329
0.00333262
0.0033327
0.00333284
0.00333306
0.00333335
0.00333371
0.00333414
0.00333464
0.00333521
0.00333585
0.00333655
0.00333732
0.00333816
0.00333905
0.00334001
0.00334103
0.0033421
0.00334323
0.00334442
0.00334565
0.00334694
0.00334827
0.00334965
0.00335107
0.00335253
0.00335403
0.00335556
0.00335713
0.00335873
0.00336035
0.00336199
0.00336366
0.00336535
0.00336705
0.00336876
0.00337048
0.00337221
0.00337394
0.00337567
0.00337739
0.00337911
0.00338083
0.00338253
0.00338421
0.00338588
0.00338752
0.00338915
0.00339074
0.00339231
0.00339384
0.00339534
0.0033968
0.00339822
0.0033996
0.00340094
0.00340222
0.00340346
0.00340464
0.00340577
0.00340685
0.00340787
0.00340882
0.00340972
0.00341055
0.00341132
0.00341203
0.00341266
0.00341323
0.00341373
0.00341416
0.00341452
0.00341481
0.00341503
0.00341517
0.00341524
0.00341524
0.00341517
0.00341503
0.00341481
0.00341452
0.00341416
0.00341373
0.00341323
0.00341266
0.00341202
0.00341132
0.00341055
0.00340972
0.00340882
0.00340786
0.00340684
0.00340577
0.00340464
0.00340345
0.00340222
0.00340093
0.0033996
0.00339822
0.0033968
0.00339534
0.00339384
0.0033923
0.00339074
0.00338914
0.00338752
0.00338587
0.00338421
0.00338252
0.00338082
0.00337911
0.00337739
0.00337566
0.00337393
0.0033722
0.00337047
0.00336875
0.00336704
0.00336534
0.00336365
0.00336199
0.00336034
0.00335872
0.00335713
0.00335556
0.00335403
0.00335253
0.00335107
0.00334965
0.00334827
0.00334693
0.00334565
0.00334441
0.00334323
0.0033421
0.00334102
0.00334
0.00333905
0.00333815
0.00333732
0.00333655
0.00333584
0.0033352
0.00333464
0.00333413
0.0033337
0.00333334
0.00333305
0.00333284
0.00333269
0.00333262
0.00333227
0.00333234
0.00333249
0.00333271
0.003333
0.00333336
0.0033338
0.0033343
0.00333488
0.00333552
0.00333623
0.00333701
0.00333785
0.00333875
0.00333972
0.00334074
0.00334183
0.00334297
0.00334416
0.00334541
0.00334671
0.00334805
0.00334944
0.00335087
0.00335235
0.00335386
0.00335541
0.00335699
0.00335859
0.00336023
0.00336189
0.00336357
0.00336527
0.00336699
0.00336871
0.00337045
0.00337219
0.00337394
0.00337568
0.00337742
0.00337916
0.00338089
0.0033826
0.0033843
0.00338598
0.00338764
0.00338928
0.00339089
0.00339247
0.00339401
0.00339553
0.003397
0.00339843
0.00339982
0.00340117
0.00340247
0.00340371
0.00340491
0.00340605
0.00340713
0.00340816
0.00340913
0.00341003
0.00341087
0.00341165
0.00341236
0.003413
0.00341357
0.00341408
0.00341451
0.00341487
0.00341516
0.00341538
0.00341553
0.0034156
0.0034156
0.00341553
0.00341538
0.00341516
0.00341487
0.00341451
0.00341407
0.00341357
0.003413
0.00341235
0.00341164
0.00341087
0.00341003
0.00340912
0.00340816
0.00340713
0.00340605
0.0034049
0.00340371
0.00340246
0.00340116
0.00339982
0.00339843
0.003397
0.00339552
0.00339401
0.00339246
0.00339088
0.00338927
0.00338764
0.00338598
0.0033843
0.0033826
0.00338088
0.00337915
0.00337742
0.00337568
0.00337393
0.00337218
0.00337044
0.00336871
0.00336698
0.00336526
0.00336357
0.00336188
0.00336022
0.00335859
0.00335698
0.0033554
0.00335385
0.00335234
0.00335087
0.00334944
0.00334805
0.0033467
0.0033454
0.00334416
0.00334296
0.00334182
0.00334074
0.00333971
0.00333874
0.00333784
0.003337
0.00333622
0.00333551
0.00333487
0.00333429
0.00333379
0.00333336
0.00333299
0.0033327
0.00333248
0.00333233
0.00333226
0.00333184
0.00333191
0.00333206
0.00333228
0.00333257
0.00333294
0.00333338
0.00333389
0.00333447
0.00333512
0.00333584
0.00333662
0.00333747
0.00333839
0.00333936
0.0033404
0.0033415
0.00334265
0.00334385
0.00334511
0.00334642
0.00334778
0.00334919
0.00335064
0.00335212
0.00335365
0.00335521
0.00335681
0.00335844
0.00336009
0.00336177
0.00336346
0.00336518
0.00336691
0.00336866
0.00337041
0.00337217
0.00337394
0.0033757
0.00337746
0.00337921
0.00338096
0.00338269
0.00338441
0.00338611
0.00338778
0.00338944
0.00339106
0.00339266
0.00339422
0.00339575
0.00339724
0.00339869
0.00340009
0.00340145
0.00340276
0.00340402
0.00340523
0.00340638
0.00340748
0.00340851
0.00340949
0.0034104
0.00341125
0.00341204
0.00341275
0.0034134
0.00341398
0.00341449
0.00341493
0.0034153
0.00341559
0.00341581
0.00341596
0.00341603
0.00341603
0.00341596
0.00341581
0.00341559
0.00341529
0.00341493
0.00341449
0.00341398
0.0034134
0.00341275
0.00341203
0.00341125
0.0034104
0.00340948
0.00340851
0.00340747
0.00340638
0.00340522
0.00340402
0.00340276
0.00340145
0.00340009
0.00339868
0.00339723
0.00339574
0.00339422
0.00339265
0.00339106
0.00338943
0.00338778
0.0033861
0.0033844
0.00338269
0.00338095
0.00337921
0.00337745
0.00337569
0.00337393
0.00337217
0.00337041
0.00336865
0.00336691
0.00336518
0.00336346
0.00336176
0.00336008
0.00335843
0.0033568
0.00335521
0.00335365
0.00335212
0.00335063
0.00334918
0.00334778
0.00334642
0.00334511
0.00334385
0.00334264
0.00334149
0.00334039
0.00333936
0.00333838
0.00333747
0.00333662
0.00333583
0.00333511
0.00333447
0.00333388
0.00333337
0.00333294
0.00333257
0.00333227
0.00333205
0.0033319
0.00333183
0.00333133
0.00333141
0.00333156
0.00333178
0.00333208
0.00333245
0.00333289
0.00333341
0.003334
0.00333466
0.00333538
0.00333618
0.00333704
0.00333796
0.00333895
0.00334
0.00334111
0.00334227
0.00334349
0.00334477
0.00334609
0.00334747
0.00334889
0.00335036
0.00335186
0.00335341
0.00335499
0.0033566
0.00335825
0.00335992
0.00336162
0.00336334
0.00336508
0.00336683
0.00336859
0.00337037
0.00337215
0.00337394
0.00337572
0.0033775
0.00337928
0.00338104
0.00338279
0.00338453
0.00338625
0.00338795
0.00338962
0.00339127
0.00339288
0.00339446
0.00339601
0.00339752
0.00339898
0.0034004
0.00340178
0.00340311
0.00340438
0.0034056
0.00340677
0.00340788
0.00340893
0.00340991
0.00341084
0.0034117
0.00341249
0.00341322
0.00341388
0.00341446
0.00341498
0.00341542
0.00341579
0.00341609
0.00341631
0.00341646
0.00341654
0.00341654
0.00341646
0.00341631
0.00341609
0.00341579
0.00341542
0.00341497
0.00341446
0.00341387
0.00341321
0.00341249
0.00341169
0.00341084
0.00340991
0.00340892
0.00340787
0.00340676
0.0034056
0.00340438
0.0034031
0.00340178
0.0034004
0.00339898
0.00339751
0.00339601
0.00339446
0.00339288
0.00339126
0.00338962
0.00338794
0.00338625
0.00338453
0.00338279
0.00338104
0.00337927
0.0033775
0.00337571
0.00337393
0.00337215
0.00337036
0.00336859
0.00336682
0.00336507
0.00336333
0.00336161
0.00335992
0.00335824
0.0033566
0.00335499
0.0033534
0.00335186
0.00335035
0.00334889
0.00334746
0.00334609
0.00334476
0.00334349
0.00334227
0.0033411
0.00333999
0.00333894
0.00333795
0.00333703
0.00333617
0.00333538
0.00333465
0.00333399
0.0033334
0.00333289
0.00333244
0.00333207
0.00333177
0.00333155
0.0033314
0.00333132
0.00333075
0.00333083
0.00333098
0.00333121
0.00333151
0.00333189
0.00333234
0.00333286
0.00333346
0.00333412
0.00333486
0.00333566
0.00333653
0.00333747
0.00333847
0.00333954
0.00334066
0.00334184
0.00334308
0.00334437
0.00334572
0.00334711
0.00334855
0.00335004
0.00335156
0.00335313
0.00335473
0.00335637
0.00335804
0.00335973
0.00336145
0.00336319
0.00336495
0.00336673
0.00336852
0.00337032
0.00337213
0.00337393
0.00337574
0.00337755
0.00337935
0.00338114
0.00338291
0.00338468
0.00338642
0.00338814
0.00338983
0.0033915
0.00339314
0.00339474
0.00339631
0.00339784
0.00339932
0.00340076
0.00340216
0.0034035
0.0034048
0.00340603
0.00340722
0.00340834
0.0034094
0.0034104
0.00341134
0.00341221
0.00341302
0.00341375
0.00341442
0.00341501
0.00341553
0.00341598
0.00341636
0.00341666
0.00341689
0.00341704
0.00341711
0.00341711
0.00341704
0.00341689
0.00341666
0.00341636
0.00341598
0.00341553
0.00341501
0.00341441
0.00341375
0.00341301
0.00341221
0.00341134
0.0034104
0.0034094
0.00340833
0.00340721
0.00340603
0.00340479
0.0034035
0.00340215
0.00340076
0.00339932
0.00339783
0.0033963
0.00339474
0.00339313
0.0033915
0.00338983
0.00338813
0.00338641
0.00338467
0.00338291
0.00338113
0.00337934
0.00337754
0.00337574
0.00337393
0.00337212
0.00337032
0.00336852
0.00336673
0.00336495
0.00336319
0.00336145
0.00335973
0.00335803
0.00335636
0.00335473
0.00335312
0.00335156
0.00335003
0.00334855
0.0033471
0.00334571
0.00334437
0.00334307
0.00334184
0.00334065
0.00333953
0.00333847
0.00333746
0.00333653
0.00333566
0.00333485
0.00333411
0.00333345
0.00333285
0.00333233
0.00333188
0.0033315
0.0033312
0.00333097
0.00333082
0.00333075
0.0033301
0.00333017
0.00333033
0.00333056
0.00333087
0.00333125
0.00333171
0.00333224
0.00333284
0.00333352
0.00333426
0.00333508
0.00333597
0.00333692
0.00333793
0.00333901
0.00334015
0.00334135
0.00334261
0.00334392
0.00334529
0.0033467
0.00334816
0.00334967
0.00335122
0.00335281
0.00335444
0.0033561
0.00335779
0.00335952
0.00336126
0.00336303
0.00336482
0.00336662
0.00336844
0.00337027
0.0033721
0.00337393
0.00337577
0.0033776
0.00337943
0.00338125
0.00338305
0.00338484
0.00338661
0.00338835
0.00339008
0.00339177
0.00339343
0.00339506
0.00339665
0.0033982
0.00339971
0.00340117
0.00340259
0.00340395
0.00340526
0.00340652
0.00340772
0.00340886
0.00340994
0.00341096
0.00341191
0.00341279
0.00341361
0.00341436
0.00341503
0.00341564
0.00341617
0.00341662
0.003417
0.00341731
0.00341754
0.00341769
0.00341777
0.00341777
0.00341769
0.00341754
0.00341731
0.003417
0.00341662
0.00341616
0.00341563
0.00341503
0.00341435
0.00341361
0.00341279
0.0034119
0.00341095
0.00340994
0.00340886
0.00340772
0.00340651
0.00340526
0.00340395
0.00340258
0.00340117
0.0033997
0.00339819
0.00339664
0.00339505
0.00339343
0.00339176
0.00339007
0.00338835
0.0033866
0.00338483
0.00338305
0.00338124
0.00337942
0.0033776
0.00337577
0.00337393
0.00337209
0.00337026
0.00336843
0.00336662
0.00336481
0.00336303
0.00336126
0.00335951
0.00335779
0.0033561
0.00335444
0.00335281
0.00335122
0.00334967
0.00334816
0.0033467
0.00334528
0.00334392
0.00334261
0.00334135
0.00334015
0.00333901
0.00333793
0.00333691
0.00333596
0.00333507
0.00333426
0.00333351
0.00333283
0.00333223
0.0033317
0.00333124
0.00333086
0.00333055
0.00333032
0.00333017
0.00333009
0.00332936
0.00332944
0.0033296
0.00332983
0.00333015
0.00333054
0.003331
0.00333154
0.00333215
0.00333284
0.0033336
0.00333443
0.00333533
0.0033363
0.00333733
0.00333843
0.00333959
0.00334081
0.00334209
0.00334342
0.00334481
0.00334625
0.00334773
0.00334927
0.00335084
0.00335246
0.00335411
0.0033558
0.00335752
0.00335927
0.00336105
0.00336285
0.00336467
0.0033665
0.00336835
0.0033702
0.00337207
0.00337393
0.0033758
0.00337766
0.00337952
0.00338137
0.0033832
0.00338502
0.00338682
0.00338859
0.00339034
0.00339207
0.00339376
0.00339541
0.00339703
0.0033986
0.00340014
0.00340163
0.00340306
0.00340445
0.00340579
0.00340706
0.00340828
0.00340944
0.00341054
0.00341157
0.00341254
0.00341344
0.00341427
0.00341503
0.00341572
0.00341633
0.00341687
0.00341733
0.00341772
0.00341803
0.00341827
0.00341842
0.0034185
0.0034185
0.00341842
0.00341827
0.00341803
0.00341772
0.00341733
0.00341687
0.00341633
0.00341571
0.00341503
0.00341427
0.00341344
0.00341254
0.00341157
0.00341054
0.00340944
0.00340828
0.00340706
0.00340578
0.00340445
0.00340306
0.00340162
0.00340013
0.0033986
0.00339702
0.00339541
0.00339375
0.00339206
0.00339034
0.00338859
0.00338681
0.00338502
0.0033832
0.00338136
0.00337952
0.00337766
0.0033758
0.00337393
0.00337206
0.0033702
0.00336834
0.0033665
0.00336466
0.00336284
0.00336105
0.00335927
0.00335752
0.0033558
0.00335411
0.00335246
0.00335084
0.00334926
0.00334773
0.00334624
0.0033448
0.00334342
0.00334208
0.0033408
0.00333958
0.00333842
0.00333733
0.00333629
0.00333533
0.00333443
0.0033336
0.00333284
0.00333215
0.00333153
0.00333099
0.00333053
0.00333014
0.00332983
0.00332959
0.00332944
0.00332936
0.00332855
0.00332863
0.00332879
0.00332903
0.00332935
0.00332975
0.00333022
0.00333077
0.0033314
0.0033321
0.00333287
0.00333371
0.00333463
0.00333562
0.00333667
0.00333779
0.00333897
0.00334021
0.00334151
0.00334287
0.00334428
0.00334574
0.00334726
0.00334882
0.00335042
0.00335207
0.00335375
0.00335547
0.00335723
0.00335901
0.00336082
0.00336265
0.0033645
0.00336636
0.00336824
0.00337014
0.00337203
0.00337393
0.00337583
0.00337773
0.00337962
0.0033815
0.00338337
0.00338522
0.00338705
0.00338886
0.00339064
0.00339239
0.00339412
0.0033958
0.00339745
0.00339905
0.00340061
0.00340213
0.00340359
0.00340501
0.00340636
0.00340767
0.00340891
0.00341009
0.00341121
0.00341226
0.00341324
0.00341416
0.003415
0.00341578
0.00341648
0.0034171
0.00341765
0.00341812
0.00341852
0.00341883
0.00341907
0.00341923
0.00341931
0.00341931
0.00341923
0.00341907
0.00341883
0.00341852
0.00341812
0.00341765
0.0034171
0.00341647
0.00341577
0.003415
0.00341415
0.00341324
0.00341225
0.0034112
0.00341008
0.0034089
0.00340766
0.00340636
0.003405
0.00340359
0.00340212
0.00340061
0.00339905
0.00339744
0.0033958
0.00339411
0.00339239
0.00339064
0.00338886
0.00338705
0.00338522
0.00338337
0.0033815
0.00337962
0.00337773
0.00337583
0.00337393
0.00337203
0.00337013
0.00336824
0.00336636
0.00336449
0.00336264
0.00336081
0.003359
0.00335722
0.00335547
0.00335375
0.00335207
0.00335042
0.00334881
0.00334725
0.00334574
0.00334427
0.00334286
0.0033415
0.0033402
0.00333896
0.00333778
0.00333666
0.00333561
0.00333462
0.00333371
0.00333286
0.00333209
0.00333139
0.00333076
0.00333021
0.00332974
0.00332934
0.00332903
0.00332879
0.00332863
0.00332855
0.00332766
0.00332775
0.00332791
0.00332815
0.00332848
0.00332888
0.00332936
0.00332992
0.00333056
0.00333128
0.00333206
0.00333293
0.00333386
0.00333486
0.00333594
0.00333708
0.00333828
0.00333955
0.00334087
0.00334226
0.0033437
0.00334519
0.00334674
0.00334833
0.00334996
0.00335164
0.00335336
0.00335511
0.0033569
0.00335871
0.00336056
0.00336242
0.00336431
0.00336622
0.00336813
0.00337006
0.003372
0.00337393
0.00337587
0.00337781
0.00337973
0.00338165
0.00338356
0.00338544
0.00338731
0.00338915
0.00339097
0.00339276
0.00339451
0.00339623
0.00339791
0.00339954
0.00340114
0.00340268
0.00340417
0.00340561
0.003407
0.00340833
0.00340959
0.0034108
0.00341194
0.00341301
0.00341401
0.00341495
0.00341581
0.0034166
0.00341731
0.00341795
0.00341851
0.00341899
0.00341939
0.00341971
0.00341996
0.00342012
0.0034202
0.0034202
0.00342012
0.00341996
0.00341971
0.00341939
0.00341899
0.0034185
0.00341794
0.00341731
0.00341659
0.0034158
0.00341494
0.00341401
0.003413
0.00341193
0.00341079
0.00340959
0.00340832
0.00340699
0.00340561
0.00340417
0.00340267
0.00340113
0.00339954
0.0033979
0.00339622
0.00339451
0.00339275
0.00339096
0.00338915
0.0033873
0.00338544
0.00338355
0.00338165
0.00337973
0.0033778
0.00337587
0.00337393
0.00337199
0.00337006
0.00336813
0.00336621
0.00336431
0.00336242
0.00336055
0.00335871
0.00335689
0.00335511
0.00335335
0.00335164
0.00334996
0.00334832
0.00334673
0.00334519
0.00334369
0.00334225
0.00334087
0.00333954
0.00333827
0.00333707
0.00333593
0.00333486
0.00333385
0.00333292
0.00333206
0.00333127
0.00333055
0.00332992
0.00332936
0.00332887
0.00332847
0.00332815
0.0033279
0.00332774
0.00332766
0.00332669
0.00332678
0.00332694
0.00332719
0.00332752
0.00332793
0.00332843
0.003329
0.00332965
0.00333038
0.00333119
0.00333207
0.00333302
0.00333404
0.00333514
0.0033363
0.00333753
0.00333882
0.00334018
0.00334159
0.00334306
0.00334459
0.00334616
0.00334779
0.00334946
0.00335117
0.00335293
0.00335472
0.00335654
0.00335839
0.00336028
0.00336218
0.00336411
0.00336605
0.00336801
0.00336998
0.00337195
0.00337393
0.00337591
0.00337789
0.00337985
0.00338181
0.00338376
0.00338568
0.00338759
0.00338947
0.00339133
0.00339315
0.00339494
0.0033967
0.00339841
0.00340008
0.00340171
0.00340328
0.00340481
0.00340628
0.00340769
0.00340905
0.00341034
0.00341157
0.00341273
0.00341383
0.00341485
0.00341581
0.00341669
0.00341749
0.00341822
0.00341887
0.00341944
0.00341993
0.00342034
0.00342067
0.00342092
0.00342109
0.00342117
0.00342117
0.00342109
0.00342092
0.00342067
0.00342034
0.00341993
0.00341944
0.00341887
0.00341822
0.00341749
0.00341668
0.0034158
0.00341485
0.00341382
0.00341273
0.00341156
0.00341033
0.00340904
0.00340769
0.00340627
0.0034048
0.00340328
0.0034017
0.00340008
0.0033984
0.00339669
0.00339494
0.00339315
0.00339132
0.00338947
0.00338758
0.00338568
0.00338375
0.00338181
0.00337985
0.00337788
0.00337591
0.00337393
0.00337195
0.00336997
0.00336801
0.00336605
0.00336411
0.00336218
0.00336027
0.00335839
0.00335654
0.00335471
0.00335292
0.00335117
0.00334945
0.00334778
0.00334616
0.00334458
0.00334306
0.00334159
0.00334017
0.00333882
0.00333753
0.0033363
0.00333513
0.00333404
0.00333301
0.00333206
0.00333118
0.00333037
0.00332964
0.00332899
0.00332842
0.00332793
0.00332752
0.00332719
0.00332694
0.00332677
0.00332669
0.00332564
0.00332572
0.00332589
0.00332615
0.00332649
0.00332691
0.00332741
0.003328
0.00332866
0.00332941
0.00333023
0.00333113
0.00333211
0.00333315
0.00333427
0.00333546
0.00333672
0.00333804
0.00333943
0.00334087
0.00334237
0.00334393
0.00334554
0.00334721
0.00334891
0.00335067
0.00335246
0.00335429
0.00335615
0.00335805
0.00335997
0.00336192
0.00336389
0.00336588
0.00336788
0.00336989
0.00337191
0.00337393
0.00337595
0.00337797
0.00337999
0.00338199
0.00338398
0.00338594
0.00338789
0.00338982
0.00339171
0.00339358
0.00339541
0.0033972
0.00339895
0.00340066
0.00340232
0.00340394
0.00340549
0.003407
0.00340844
0.00340983
0.00341115
0.00341241
0.0034136
0.00341472
0.00341576
0.00341674
0.00341764
0.00341846
0.00341921
0.00341987
0.00342046
0.00342096
0.00342138
0.00342172
0.00342197
0.00342214
0.00342222
0.00342222
0.00342214
0.00342197
0.00342171
0.00342138
0.00342096
0.00342045
0.00341987
0.0034192
0.00341846
0.00341763
0.00341673
0.00341576
0.00341471
0.00341359
0.0034124
0.00341115
0.00340982
0.00340844
0.00340699
0.00340549
0.00340393
0.00340232
0.00340066
0.00339895
0.0033972
0.0033954
0.00339357
0.00339171
0.00338981
0.00338789
0.00338594
0.00338397
0.00338198
0.00337998
0.00337797
0.00337595
0.00337393
0.00337191
0.00336989
0.00336787
0.00336587
0.00336389
0.00336192
0.00335997
0.00335804
0.00335615
0.00335428
0.00335245
0.00335066
0.00334891
0.0033472
0.00334554
0.00334393
0.00334237
0.00334087
0.00333942
0.00333804
0.00333671
0.00333546
0.00333427
0.00333315
0.0033321
0.00333112
0.00333023
0.0033294
0.00332866
0.00332799
0.00332741
0.0033269
0.00332648
0.00332614
0.00332589
0.00332572
0.00332563
0.0033245
0.00332459
0.00332476
0.00332502
0.00332537
0.0033258
0.00332632
0.00332691
0.0033276
0.00332836
0.0033292
0.00333012
0.00333112
0.00333219
0.00333334
0.00333456
0.00333584
0.00333719
0.00333861
0.00334009
0.00334163
0.00334323
0.00334488
0.00334658
0.00334832
0.00335012
0.00335195
0.00335382
0.00335573
0.00335767
0.00335964
0.00336164
0.00336365
0.00336569
0.00336774
0.00336979
0.00337186
0.00337393
0.003376
0.00337807
0.00338013
0.00338218
0.00338421
0.00338623
0.00338822
0.00339019
0.00339213
0.00339404
0.00339591
0.00339775
0.00339954
0.00340129
0.00340299
0.00340464
0.00340624
0.00340778
0.00340926
0.00341067
0.00341203
0.00341331
0.00341453
0.00341568
0.00341675
0.00341775
0.00341867
0.00341951
0.00342027
0.00342095
0.00342155
0.00342207
0.0034225
0.00342284
0.0034231
0.00342327
0.00342336
0.00342336
0.00342327
0.0034231
0.00342284
0.00342249
0.00342206
0.00342155
0.00342095
0.00342027
0.00341951
0.00341866
0.00341774
0.00341675
0.00341567
0.00341453
0.00341331
0.00341202
0.00341067
0.00340925
0.00340777
0.00340623
0.00340464
0.00340299
0.00340129
0.00339954
0.00339774
0.00339591
0.00339404
0.00339213
0.00339019
0.00338822
0.00338622
0.00338421
0.00338217
0.00338012
0.00337806
0.003376
0.00337393
0.00337186
0.00336979
0.00336773
0.00336568
0.00336365
0.00336163
0.00335964
0.00335767
0.00335573
0.00335382
0.00335195
0.00335011
0.00334832
0.00334657
0.00334487
0.00334322
0.00334162
0.00334009
0.00333861
0.00333719
0.00333584
0.00333455
0.00333333
0.00333219
0.00333111
0.00333012
0.00332919
0.00332835
0.00332759
0.00332691
0.00332631
0.00332579
0.00332536
0.00332502
0.00332476
0.00332458
0.0033245
0.00332328
0.00332337
0.00332354
0.00332381
0.00332417
0.00332461
0.00332514
0.00332575
0.00332645
0.00332723
0.00332809
0.00332904
0.00333006
0.00333116
0.00333233
0.00333358
0.0033349
0.00333628
0.00333774
0.00333925
0.00334083
0.00334246
0.00334415
0.0033459
0.00334769
0.00334953
0.00335141
0.00335333
0.00335528
0.00335727
0.00335929
0.00336133
0.0033634
0.00336548
0.00336758
0.00336969
0.00337181
0.00337393
0.00337605
0.00337817
0.00338028
0.00338238
0.00338447
0.00338653
0.00338858
0.00339059
0.00339258
0.00339454
0.00339646
0.00339834
0.00340018
0.00340197
0.00340371
0.0034054
0.00340704
0.00340861
0.00341013
0.00341158
0.00341297
0.00341429
0.00341554
0.00341671
0.00341781
0.00341883
0.00341978
0.00342064
0.00342142
0.00342212
0.00342273
0.00342326
0.0034237
0.00342405
0.00342432
0.0034245
0.00342458
0.00342458
0.0034245
0.00342432
0.00342405
0.0034237
0.00342326
0.00342273
0.00342211
0.00342142
0.00342063
0.00341977
0.00341883
0.00341781
0.00341671
0.00341553
0.00341428
0.00341297
0.00341158
0.00341013
0.00340861
0.00340703
0.0034054
0.00340371
0.00340196
0.00340017
0.00339833
0.00339645
0.00339453
0.00339258
0.00339059
0.00338857
0.00338653
0.00338446
0.00338238
0.00338028
0.00337817
0.00337605
0.00337393
0.00337181
0.00336969
0.00336758
0.00336548
0.00336339
0.00336133
0.00335928
0.00335727
0.00335528
0.00335332
0.0033514
0.00334952
0.00334768
0.00334589
0.00334415
0.00334246
0.00334082
0.00333925
0.00333773
0.00333628
0.00333489
0.00333357
0.00333233
0.00333115
0.00333005
0.00332903
0.00332809
0.00332722
0.00332644
0.00332574
0.00332513
0.0033246
0.00332416
0.0033238
0.00332354
0.00332336
0.00332327
0.00332196
0.00332205
0.00332224
0.00332251
0.00332287
0.00332333
0.00332387
0.0033245
0.00332522
0.00332602
0.0033269
0.00332787
0.00332892
0.00333005
0.00333125
0.00333253
0.00333388
0.00333531
0.0033368
0.00333835
0.00333997
0.00334165
0.00334338
0.00334517
0.00334701
0.00334889
0.00335082
0.00335279
0.0033548
0.00335684
0.00335891
0.003361
0.00336312
0.00336526
0.00336742
0.00336958
0.00337175
0.00337393
0.00337611
0.00337828
0.00338044
0.0033826
0.00338474
0.00338686
0.00338895
0.00339102
0.00339307
0.00339507
0.00339704
0.00339897
0.00340086
0.0034027
0.00340448
0.00340622
0.0034079
0.00340951
0.00341107
0.00341256
0.00341398
0.00341533
0.00341661
0.00341782
0.00341895
0.00342
0.00342096
0.00342185
0.00342265
0.00342337
0.00342399
0.00342454
0.00342499
0.00342535
0.00342562
0.00342581
0.0034259
0.0034259
0.00342581
0.00342562
0.00342535
0.00342499
0.00342453
0.00342399
0.00342336
0.00342265
0.00342185
0.00342096
0.00341999
0.00341894
0.00341781
0.00341661
0.00341533
0.00341398
0.00341255
0.00341106
0.00340951
0.00340789
0.00340621
0.00340448
0.00340269
0.00340085
0.00339897
0.00339704
0.00339507
0.00339306
0.00339102
0.00338895
0.00338685
0.00338473
0.00338259
0.00338044
0.00337827
0.0033761
0.00337393
0.00337175
0.00336958
0.00336741
0.00336526
0.00336312
0.003361
0.0033589
0.00335683