/*--------------------------------*- C++ -*----------------------------------*\
| =========                 |                                                 |
| \\      /  F ield         | OpenFOAM: The Open Source CFD Toolbox           |
|  \\    /   O peration     | Version:  2306                                  |
|   \\  /    A nd           | Website:  www.openfoam.com                      |
|    \\/     M anipulation  |                                                 |
\*---------------------------------------------------------------------------*/
FoamFile
{
    version     2.0;
    format      ascii;
    arch        "LSB;label=32;scalar=64";
    class       volVectorField;
    location    "0.49";
    object      U;
}
// * * * * * * * * * * * * * * * * * * * * * * * * * * * * * * * * * * * * * //

dimensions      [0 1 -1 0 0 0 0];

internalField   nonuniform List<vector> 
6400
(
(-0.0019181223 -0.016228173 -6.4811919e-19)
(-0.00092967531 -0.014545646 -3.8412448e-20)
(-0.00023470538 -0.012933323 -4.5932319e-19)
(0.00020100662 -0.011425069 -9.4392468e-19)
(0.00041680657 -0.01004753 -1.6271587e-18)
(0.00045642444 -0.0088189389 1.1628527e-18)
(0.0003591455 -0.0077497082 -2.2719829e-19)
(0.00016376134 -0.0068428516 3.1732376e-19)
(-9.6647308e-05 -0.006094791 3.1845081e-19)
(-0.0003897828 -0.0054959803 7.8157345e-20)
(-0.00068657306 -0.0050338503 1.938913e-19)
(-0.00096642744 -0.0046911859 1.1933312e-19)
(-0.001213658 -0.0044484876 1.1101012e-19)
(-0.0014178557 -0.0042861394 -1.4151165e-19)
(-0.00157316 -0.004184701 -3.4623235e-20)
(-0.0016780149 -0.0041260298 -1.5723388e-19)
(-0.0017345093 -0.0040940686 -1.7617697e-19)
(-0.0017474674 -0.0040753404 -2.1236522e-19)
(-0.0017235554 -0.0040592003 -2.9161222e-19)
(-0.001670452 -0.0040378683 -1.8144409e-19)
(-0.0015961286 -0.004006296 -2.2755407e-19)
(-0.0015082374 -0.0039618924 -2.4706666e-19)
(-0.0014136173 -0.0039041085 -1.9806698e-19)
(-0.0013179621 -0.0038339595 -1.630149e-19)
(-0.0012256587 -0.0037535296 -6.905095e-20)
(-0.0011397725 -0.0036655141 -1.7476978e-20)
(-0.0010621474 -0.0035728418 -7.0051466e-20)
(-0.00099355797 -0.003478357 1.6471615e-20)
(-0.00093390479 -0.0033845657 -5.422429e-20)
(-0.00088245191 -0.0032934822 -6.6137881e-20)
(-0.00083806789 -0.0032065617 -5.9264321e-20)
(-0.00079944075 -0.0031247046 -1.0141142e-20)
(-0.00076525207 -0.0030483163 -7.4737096e-20)
(-0.00073430283 -0.0029774027 -7.1567571e-20)
(-0.00070559032 -0.0029116791 1.4586412e-20)
(-0.00067834181 -0.0028506777 -1.1585131e-20)
(-0.00065201459 -0.002793842 -3.6580564e-21)
(-0.00062627229 -0.0027406025 -3.5984461e-20)
(-0.00060094699 -0.0026904333 -8.4286255e-20)
(-0.0005759944 -0.0026428855 -2.9588501e-20)
(-0.00055144914 -0.0025976017 2.5977672e-21)
(-0.00052738623 -0.002554315 5.6832109e-21)
(-0.00050389124 -0.002512838 -3.5745413e-20)
(-0.00048104018 -0.0024730463 -3.501112e-20)
(-0.00045888804 -0.0024348607 -2.8697074e-22)
(-0.00043746479 -0.0023982305 4.4615352e-20)
(-0.00041677645 -0.0023631196 5.1077272e-20)
(-0.00039680953 -0.0023294966 2.110644e-20)
(-0.0003775368 -0.0022973285 1.7574363e-22)
(-0.00035892319 -0.0022665776 3.4611438e-20)
(-0.00034093083 -0.0022372015 5.0935594e-20)
(-0.00032352285 -0.0022091532 2.0850163e-20)
(-0.00030666574 -0.0021823837 -6.4149664e-21)
(-0.00029033061 -0.0021568436 -2.0071361e-20)
(-0.00027449333 -0.002132485 -3.7621062e-20)
(-0.0002591342 -0.0021092629 -1.6779013e-20)
(-0.00024423717 -0.0020871359 -2.3367342e-20)
(-0.00022978898 -0.0020660669 -1.6785614e-20)
(-0.00021577841 -0.0020460229 -1.8836014e-20)
(-0.0002021955 -0.0020269753 -1.4834829e-20)
(-0.00018903113 -0.0020088992 5.569111e-21)
(-0.00017627656 -0.0019917732 -5.6277603e-21)
(-0.00016392319 -0.0019755793 -6.7337331e-21)
(-0.00015196237 -0.0019603025 -9.660059e-21)
(-0.0001403852 -0.0019459307 -2.3025273e-20)
(-0.00012918237 -0.0019324544 -7.0584071e-22)
(-0.000118344 -0.0019198668 1.9577504e-21)
(-0.0001078594 -0.0019081633 -1.8946221e-20)
(-9.7716895e-05 -0.0018973417 -7.3215e-21)
(-8.790354e-05 -0.0018874016 1.1196221e-20)
(-7.8404907e-05 -0.0018783444 2.6443197e-21)
(-6.9204844e-05 -0.0018701727 -1.0609362e-20)
(-6.0285273e-05 -0.0018628893 1.0183127e-20)
(-5.162604e-05 -0.0018564965 2.1187149e-20)
(-4.3204913e-05 -0.0018509938 2.0761368e-20)
(-3.4997892e-05 -0.001846376 2.3376835e-20)
(-2.6979178e-05 -0.0018426304 -2.3950162e-22)
(-1.9117567e-05 -0.0018397345 6.5901731e-21)
(-1.1377797e-05 -0.0018376577 2.1341668e-20)
(-3.7564436e-06 -0.0018364051 3.6223094e-20)
(-6.313132e-05 -0.017356279 -2.8441689e-18)
(0.00086187146 -0.015352561 -1.1876457e-18)
(0.0014515084 -0.013453423 -5.1653341e-20)
(0.0017514212 -0.011698792 3.2750839e-19)
(0.0018094112 -0.010114859 -3.0400904e-19)
(0.0016757367 -0.0087221182 1.7436001e-18)
(0.0013989154 -0.007530298 3.2484325e-19)
(0.0010248908 -0.0065405435 -5.6768722e-19)
(0.00059556658 -0.0057461852 3.0548517e-19)
(0.00014709219 -0.0051313839 3.2399164e-19)
(-0.00028905527 -0.0046786005 3.9112278e-19)
(-0.00068708489 -0.0043659281 -8.3689349e-20)
(-0.0010302127 -0.0041678826 6.8863896e-20)
(-0.0013083749 -0.00405913 -1.1718453e-19)
(-0.0015167047 -0.0040150687 -1.310477e-19)
(-0.0016556972 -0.0040131757 -2.2235709e-19)
(-0.0017301729 -0.0040339041 -2.8273593e-19)
(-0.0017480746 -0.0040612379 -3.132316e-19)
(-0.0017193132 -0.0040829269 -2.28472e-19)
(-0.0016547298 -0.0040904556 -1.5971054e-19)
(-0.001565204 -0.0040788275 -2.0591706e-19)
(-0.0014608829 -0.0040461317 -2.6714722e-19)
(-0.001350576 -0.0039929518 -2.5289154e-19)
(-0.0012413858 -0.0039217057 -1.5315251e-19)
(-0.0011385627 -0.0038359772 -5.796336e-20)
(-0.0010455683 -0.0037399258 -7.8561004e-20)
(-0.00096425574 -0.003637824 -1.5026305e-19)
(-0.00089508998 -0.0035336367 -3.3635242e-22)
(-0.00083744281 -0.0034307201 -5.7581212e-21)
(-0.00078993876 -0.0033316602 -4.0666853e-20)
(-0.00075078495 -0.003238221 -7.5333275e-20)
(-0.00071805767 -0.0031513843 -4.214336e-20)
(-0.00068992693 -0.0030714636 2.2749587e-20)
(-0.00066480811 -0.00299826 -6.6306407e-21)
(-0.00064144202 -0.0029312258 -3.6916538e-20)
(-0.00061891701 -0.0028696155 -6.1084427e-20)
(-0.0005966488 -0.0028126118 9.6126979e-21)
(-0.00057433375 -0.0027594256 1.8663002e-20)
(-0.00055188575 -0.002709365 -4.7441688e-20)
(-0.00052936633 -0.0026618712 -2.3976406e-20)
(-0.00050692003 -0.0026165264 -3.1747856e-20)
(-0.00048472175 -0.0025730438 -2.9824821e-20)
(-0.00046293879 -0.0025312443 -3.6262495e-20)
(-0.00044170731 -0.0024910291 -2.1639931e-20)
(-0.00042112154 -0.0024523519 -1.347453e-20)
(-0.00040123276 -0.002415195 -2.989267e-21)
(-0.00038205476 -0.0023795501 6.0500535e-21)
(-0.00036357288 -0.0023454068 -7.2764106e-21)
(-0.00034575399 -0.002312745 6.7040252e-21)
(-0.00032855568 -0.0022815334 9.3714684e-21)
(-0.00031193358 -0.00225173 -9.209199e-21)
(-0.00029584637 -0.002223285 -2.1462951e-20)
(-0.00028025859 -0.0021961444 -2.685852e-20)
(-0.00026514177 -0.0021702535 -3.2186431e-20)
(-0.00025047412 -0.0021455592 -2.6914444e-20)
(-0.00023623956 -0.0021220119 -2.9211793e-20)
(-0.0002224264 -0.0020995671 -2.6408392e-20)
(-0.00020902603 -0.0020781854 -4.7391757e-20)
(-0.00019603173 -0.0020578324 -2.4298064e-20)
(-0.00018343783 -0.0020384787 -4.6854969e-21)
(-0.00017123913 -0.0020200992 -4.866964e-21)
(-0.00015943046 -0.0020026725 -1.7514225e-20)
(-0.00014800651 -0.001986181 -3.5641233e-20)
(-0.00013696165 -0.0019706099 -5.1018669e-20)
(-0.00012628984 -0.0019559478 -4.4606864e-20)
(-0.0001159845 -0.0019421859 -2.7914548e-20)
(-0.00010603831 -0.0019293181 -1.6550342e-20)
(-9.6443052e-05 -0.0019173411 -2.4305717e-20)
(-8.718931e-05 -0.001906254 -2.7782905e-21)
(-7.8266214e-05 -0.0018960581 1.4688811e-21)
(-6.9661134e-05 -0.0018867566 -9.7609336e-21)
(-6.135939e-05 -0.0018783543 -1.3990458e-20)
(-5.3343976e-05 -0.0018708564 -2.5890649e-21)
(-4.5595346e-05 -0.0018642675 2.949275e-21)
(-3.8091358e-05 -0.0018585899 1.0266227e-20)
(-3.080753e-05 -0.0018538207 1.6962634e-20)
(-2.371702e-05 -0.0018499491 1.8769882e-20)
(-1.678747e-05 -0.0018469541 2.11147e-20)
(-9.982424e-06 -0.0018448056 3.281354e-20)
(-3.2938781e-06 -0.0018435098 4.2491171e-20)
(0.0021501888 -0.018458767 -1.2873585e-18)
(0.0029772294 -0.016085085 -1.70898e-18)
(0.0034224905 -0.013858718 -1.0700803e-18)
(0.0035421915 -0.011824109 1.0643727e-18)
(0.0033954559 -0.010012157 4.9403201e-20)
(0.0030424793 -0.0084429604 -1.09011e-19)
(0.0025418687 -0.0071250074 -1.2562768e-18)
(0.0019487678 -0.0060562633 -1.1915904e-18)
(0.0013132305 -0.0052249553 5.8062437e-19)
(0.00067843071 -0.0046114121 1.7945516e-19)
(7.9479813e-05 -0.004189241 -2.1190432e-19)
(-0.00045509906 -0.003928953 -4.6062815e-19)
(-0.00090620264 -0.0037992447 -6.249165e-20)
(-0.0012643109 -0.0037672711 -1.9101477e-19)
(-0.0015264033 -0.0038021404 -1.6740399e-19)
(-0.0016959846 -0.0038760366 -2.0376602e-19)
(-0.0017816557 -0.0039652964 -2.1931614e-19)
(-0.0017955429 -0.0040510315 -2.3788477e-19)
(-0.0017518153 -0.0041193197 -1.3234216e-19)
(-0.0016654044 -0.0041610954 -8.5668033e-21)
(-0.0015508829 -0.0041718023 -7.6198921e-20)
(-0.0014214801 -0.0041507316 -1.0879091e-19)
(-0.0012883606 -0.0041001983 -4.7443113e-20)
(-0.001160215 -0.0040246341 -9.5692519e-20)
(-0.0010431677 -0.0039296897 -1.0471864e-20)
(-0.00094096824 -0.0038215061 4.2093346e-20)
(-0.0008552631 -0.0037061125 -1.1334844e-19)
(-0.00078590995 -0.0035888898 -5.044446e-20)
(-0.00073142939 -0.0034742196 -1.6819895e-21)
(-0.00068949295 -0.0033653297 -4.4115562e-22)
(-0.00065736516 -0.0032642709 -1.7353183e-20)
(-0.00063228435 -0.00317201 -5.0751975e-20)
(-0.00061175225 -0.0030886301 8.256959e-21)
(-0.00059370956 -0.0030135752 8.4223325e-20)
(-0.00057660784 -0.0029458891 4.9841098e-20)
(-0.00055940568 -0.0028844199 -2.964418e-20)
(-0.00054151753 -0.0028279862 -5.5288369e-21)
(-0.00052273289 -0.0027755095 5.3838553e-20)
(-0.00050311411 -0.0027260933 4.901295e-21)
(-0.00048289121 -0.0026790559 -1.1929689e-20)
(-0.00046237086 -0.0026339267 -2.9440781e-20)
(-0.00044186659 -0.0025904187 -4.6075409e-20)
(-0.00042165208 -0.002548387 1.1750026e-22)
(-0.00040193592 -0.0025077851 7.3960589e-21)
(-0.00038285395 -0.0024686232 2.1354118e-21)
(-0.00036447435 -0.002430935 4.6997682e-21)
(-0.00034681041 -0.0023947533 -7.3936472e-21)
(-0.00032983674 -0.0023600956 -4.4076587e-20)
(-0.00031350528 -0.0023269577 -4.4567752e-20)
(-0.00029775897 -0.0022953135 7.8240933e-21)
(-0.00028254176 -0.0022651192 -2.0588545e-20)
(-0.00026780483 -0.0022363191 -1.5802459e-20)
(-0.00025350953 -0.0022088508 -1.1979895e-20)
(-0.00023962786 -0.0021826514 -3.2085916e-20)
(-0.0002261412 -0.0021576605 -2.62243e-20)
(-0.00021303836 -0.0021338233 -2.6303513e-20)
(-0.00020031326 -0.0021110911 -7.4306011e-21)
(-0.00018796305 -0.0020894225 -3.4546074e-22)
(-0.0001759864 -0.0020687818 -1.5473675e-20)
(-0.00016438255 -0.0020491393 -3.0296273e-21)
(-0.0001531506 -0.00203047 -3.8148097e-23)
(-0.0001422892 -0.002012753 -1.087652e-20)
(-0.00013179646 -0.0019959711 -3.5680195e-20)
(-0.00012166992 -0.0019801103 -5.664159e-20)
(-0.00011190653 -0.0019651597 -4.2671197e-20)
(-0.00010250256 -0.0019511114 -3.9844317e-20)
(-9.3453521e-05 -0.0019379603 -3.5435649e-20)
(-8.4753872e-05 -0.0019257042 -1.2346506e-20)
(-7.6396773e-05 -0.0019143437 -4.941454e-21)
(-6.8373718e-05 -0.0019038821 6.3500289e-22)
(-6.0674172e-05 -0.0018943248 -9.9244756e-21)
(-5.3285198e-05 -0.001885679 -6.054006e-21)
(-4.6191094e-05 -0.0018779528 2.0495372e-21)
(-3.937309e-05 -0.0018711539 -2.5927821e-21)
(-3.2809192e-05 -0.0018652875 8.4087085e-21)
(-2.6474368e-05 -0.0018603538 5.9465273e-21)
(-2.0340529e-05 -0.0018563446 1.7555243e-20)
(-1.4373818e-05 -0.0018532409 2.1333306e-20)
(-8.5361307e-06 -0.0018510136 2.2062479e-20)
(-2.8142506e-06 -0.0018496701 3.777132e-20)
(0.0047825991 -0.019503774 1.1449235e-18)
(0.0054661326 -0.016702279 7.7011067e-19)
(0.005715779 -0.014102845 -1.052115e-18)
(0.0056004791 -0.01175441 1.021096e-18)
(0.0051923393 -0.009691274 -5.5614434e-19)
(0.0045641104 -0.0079337684 -3.2691365e-19)
(0.0037864612 -0.0064883675 1.8411087e-18)
(0.0029255346 -0.0053487271 1.1752625e-18)
(0.0020408491 -0.0044970957 6.1759538e-19)
(0.0011831976 -0.0039063219 5.8005221e-19)
(0.00039381282 -0.0035418783 5.1669787e-19)
(-0.00029661465 -0.0033642142 4.3946154e-20)
(-0.00086795091 -0.0033330632 3.81754e-19)
(-0.0013105809 -0.0034071258 7.4826407e-20)
(-0.0016246677 -0.0035477092 -1.2717619e-20)
(-0.0018179516 -0.0037205749 -9.6016842e-20)
(-0.0019041895 -0.0038972177 -2.3067048e-19)
(-0.0019010713 -0.004055534 -3.0287821e-19)
(-0.0018283323 -0.0041799292 -2.272621e-19)
(-0.0017061762 -0.0042611278 -1.5726648e-19)
(-0.0015538352 -0.0042955855 -1.0169285e-19)
(-0.0013883231 -0.0042845353 -9.7979287e-20)
(-0.0012235855 -0.0042328421 -1.3612775e-19)
(-0.0010700565 -0.0041477654 -1.985993e-19)
(-0.00093468893 -0.0040377746 -2.9971492e-20)
(-0.00082131611 -0.003911663 6.1354584e-20)
(-0.00073102974 -0.0037777177 1.297551e-19)
(-0.0006626458 -0.0036430904 -1.5854807e-20)
(-0.00061338107 -0.0035133655 -3.7316142e-20)
(-0.0005795303 -0.0033924587 -4.3779356e-20)
(-0.00055704005 -0.0032826374 -1.6840294e-20)
(-0.00054201947 -0.0031846832 8.1840234e-20)
(-0.00053111723 -0.0030982306 4.0003149e-20)
(-0.00052171072 -0.0030221444 2.4217676e-20)
(-0.00051194603 -0.0029548566 4.7493574e-20)
(-0.00050068801 -0.0028946316 6.1987536e-22)
(-0.00048742644 -0.0028397931 -3.4291102e-20)
(-0.00047214275 -0.0027888903 -3.1581564e-20)
(-0.00045514795 -0.0027407837 -1.736838e-20)
(-0.0004369296 -0.0026946662 -8.8290008e-21)
(-0.00041802669 -0.0026500372 1.7204876e-20)
(-0.0003989398 -0.0026066463 3.3197696e-20)
(-0.00038007651 -0.0025644252 3.9068004e-20)
(-0.00036172782 -0.0025234191 -1.0845684e-20)
(-0.00034406819 -0.0024837287 4.9487128e-21)
(-0.00032717142 -0.0024454638 3.0161584e-20)
(-0.00031103503 -0.0024087137 5.6399637e-21)
(-0.00029560722 -0.0023735308 -2.8812998e-20)
(-0.00028081155 -0.0023399273 -8.1074369e-20)
(-0.00026656614 -0.0023078795 -2.7832203e-20)
(-0.00025279671 -0.0022773365 -6.7234033e-21)
(-0.00023944367 -0.0022482303 4.0960644e-21)
(-0.00022646443 -0.0022204855 -3.4189184e-21)
(-0.00021383238 -0.0021940269 -1.2500875e-20)
(-0.00020153394 -0.0021687844 7.3866259e-21)
(-0.0001895649 -0.0021446961 8.8762205e-21)
(-0.0001779268 -0.0021217095 7.3020997e-21)
(-0.00016662406 -0.0020997808 2.9686792e-20)
(-0.0001556619 -0.0020788741 6.15859e-21)
(-0.00014504509 -0.0020589598 -1.9508527e-21)
(-0.00013477738 -0.002040014 -5.4333744e-21)
(-0.0001248614 -0.0020220165 -7.5161399e-21)
(-0.0001152987 -0.002004951 -2.0965715e-20)
(-0.00010609002 -0.0019888043 -3.2987885e-20)
(-9.7235356e-05 -0.0019735662 -3.1613199e-20)
(-8.873402e-05 -0.0019592297 -2.2899311e-20)
(-8.0584519e-05 -0.0019457907 -1.1600919e-20)
(-7.2784315e-05 -0.0019332483 -1.1207373e-20)
(-6.5329472e-05 -0.0019216048 -9.6938044e-21)
(-5.8214229e-05 -0.0019108654 1.2125104e-20)
(-5.1430533e-05 -0.0019010382 6.7539166e-21)
(-4.4967557e-05 -0.0018921331 1.7143799e-20)
(-3.8811228e-05 -0.0018841617 1.7235607e-20)
(-3.2943786e-05 -0.0018771353 1.1888636e-20)
(-2.7343513e-05 -0.0018710628 1.511943e-20)
(-2.1984804e-05 -0.0018659483 1.4321577e-20)
(-1.6838131e-05 -0.001861787 1.0997772e-20)
(-1.186776e-05 -0.0018585624 9.9045751e-21)
(-7.0333437e-06 -0.0018562471 1.7134012e-20)
(-2.3156529e-06 -0.0018548503 2.4244207e-20)
(0.0078985285 -0.020449662 6.6854153e-19)
(0.0083824654 -0.017156147 2.7276098e-19)
(0.0083734923 -0.014131917 -2.9269615e-18)
(0.0079559507 -0.011431773 -1.8557387e-18)
(0.0072175101 -0.0090932196 -4.5325651e-18)
(0.006246188 -0.0071366875 -3.8374404e-18)
(0.0051272897 -0.005565906 -5.8632166e-19)
(0.0039401932 -0.004368907 -1.2516588e-18)
(0.0027557139 -0.0035202323 -1.2289792e-18)
(0.001633749 -0.0029827825 -1.1447279e-18)
(0.00062178919 -0.0027109323 -8.6425725e-19)
(-0.00024596218 -0.0026543906 -8.6029274e-19)
(-0.00094861476 -0.0027603832 3.9698168e-19)
(-0.0014783048 -0.0029772919 -1.2359897e-19)
(-0.001839039 -0.003256742 3.3679018e-20)
(-0.0020445371 -0.0035567022 1.5709935e-19)
(-0.0021155498 -0.0038429979 3.5892348e-20)
(-0.0020771223 -0.0040899691 6.0366187e-20)
(-0.0019562512 -0.0042804702 1.8742967e-19)
(-0.0017799122 -0.0044055606 2.4256567e-19)
(-0.0015731818 -0.0044635427 1.8092507e-19)
(-0.0013576915 -0.0044586249 1.4116924e-19)
(-0.0011506251 -0.0043993325 -4.9764718e-20)
(-0.0009642735 -0.0042968301 6.0897727e-20)
(-0.00080628464 -0.0041634143 1.9088804e-19)
(-0.00068021522 -0.0040113774 6.6087975e-20)
(-0.00058607151 -0.0038518659 7.4702739e-20)
(-0.00052100536 -0.0036942365 -1.8922727e-20)
(-0.000480299 -0.0035454244 -3.4899133e-20)
(-0.00045831063 -0.00341003 -4.7274239e-21)
(-0.00044917079 -0.0032904003 3.6493837e-20)
(-0.00044748576 -0.0031868493 7.47535e-20)
(-0.00044884203 -0.003098231 -1.2398967e-20)
(-0.00044997984 -0.0030225152 -5.0932944e-21)
(-0.00044875262 -0.0029572389 -6.3572302e-21)
(-0.00044401239 -0.002899845 8.4456258e-21)
(-0.00043545906 -0.0028479993 -2.3159934e-20)
(-0.00042341936 -0.0027997866 -6.0059019e-20)
(-0.00040859952 -0.0027537928 2.3308132e-20)
(-0.00039186837 -0.0027091025 1.8964258e-20)
(-0.00037408914 -0.0026652332 3.9331645e-20)
(-0.0003560073 -0.0026220349 5.3029706e-20)
(-0.00033819191 -0.0025795803 3.1358003e-20)
(-0.00032102018 -0.0025380652 6.3186325e-21)
(-0.00030469242 -0.0024977269 1.3315445e-20)
(-0.00028926539 -0.0024587833 3.0253693e-21)
(-0.00027469477 -0.0024213965 -1.7506404e-20)
(-0.00026087829 -0.0023856592 1.374973e-20)
(-0.00024769176 -0.0023515968 -1.614219e-20)
(-0.00023501515 -0.0023191799 -1.9878863e-20)
(-0.0002227483 -0.0022883409 -1.3459988e-20)
(-0.00021081793 -0.0022589905 -8.8386543e-21)
(-0.00019917804 -0.0022310324 -8.184314e-21)
(-0.00018780604 -0.0022043736 -3.5273239e-22)
(-0.00017669689 -0.0021789313 2.6859435e-20)
(-0.0001658568 -0.0021546354 2.467915e-20)
(-0.0001552978 -0.0021314293 2.3934211e-20)
(-0.00014503372 -0.0021092682 2.0650818e-20)
(-0.00013507758 -0.0020881168 1.7459098e-20)
(-0.00012544035 -0.0020679472 3.9136776e-21)
(-0.00011613065 -0.0020487371 -8.1203574e-21)
(-0.00010715494 -0.002030468 2.9498356e-21)
(-9.8518118e-05 -0.0020131248 -3.7251149e-21)
(-9.0223944e-05 -0.0019966952 -8.8379296e-21)
(-8.2275467e-05 -0.0019811698 -1.1086312e-20)
(-7.4675132e-05 -0.0019665423 -6.6118522e-21)
(-6.7424705e-05 -0.0019528095 1.2699684e-20)
(-6.0524984e-05 -0.001939972 -6.7750893e-21)
(-5.3975369e-05 -0.0019280336 1.845482e-21)
(-4.777332e-05 -0.0019170018 9.579311e-21)
(-4.1913756e-05 -0.0019068874 9.7093483e-21)
(-3.6388458e-05 -0.0018977039 1.9129544e-20)
(-3.1185423e-05 -0.0018894666 2.2541596e-20)
(-2.6288263e-05 -0.0018821912 2.4190745e-20)
(-2.1675773e-05 -0.0018758913 1.137201e-20)
(-1.7321824e-05 -0.0018705756 9.7440204e-21)
(-1.3195269e-05 -0.0018662438 1.0450643e-20)
(-9.2580712e-06 -0.0018628829 4.7582649e-21)
(-5.4669399e-06 -0.001860468 1.3250153e-21)
(-1.7956405e-06 -0.0018590107 9.329718e-22)
(0.011573299 -0.021246274 -5.3771432e-18)
(0.011788008 -0.017386632 -2.0497535e-18)
(0.011442921 -0.01387901 1.4488546e-18)
(0.010640842 -0.010785111 2.0202551e-18)
(0.0094883085 -0.0081458794 -1.7464562e-18)
(0.0080918009 -0.0059814241 -2.2861301e-18)
(0.0065542141 -0.0042916705 1.005765e-18)
(0.0049709036 -0.0030570841 9.416907e-20)
(0.0034265819 -0.0022432752 1.9115883e-19)
(0.0019921457 -0.0018000889 6.2524286e-19)
(0.00072201688 -0.0016674549 -4.6664992e-20)
(-0.00034599764 -0.0017811026 2.9423995e-20)
(-0.0011904912 -0.0020735478 7.5915002e-19)
(-0.0018063305 -0.0024794985 -1.696276e-19)
(-0.0022032365 -0.002938697 -1.793692e-20)
(-0.0024031689 -0.0033997166 -8.8399324e-20)
(-0.0024362698 -0.003821773 -1.8333552e-19)
(-0.002337269 -0.0041753273 -1.0811162e-19)
(-0.002142617 -0.0044420004 -4.1970977e-20)
(-0.0018879555 -0.0046140096 -5.3274952e-20)
(-0.00160566 -0.0046927054 2.7845147e-21)
(-0.0013229596 -0.0046867036 -1.2258906e-19)
(-0.0010607419 -0.0046096864 -5.4956279e-20)
(-0.00083320504 -0.0044781492 1.8181866e-19)
(-0.00064842023 -0.0043095624 1.5077733e-19)
(-0.00050905764 -0.0041207909 7.5512215e-20)
(-0.00041327074 -0.0039265062 -2.8237666e-20)
(-0.00035565944 -0.0037388827 7.5428838e-20)
(-0.00032868692 -0.0035662168 7.1494613e-20)
(-0.00032406348 -0.003413684 5.8829144e-20)
(-0.00033345167 -0.0032835335 3.7962215e-20)
(-0.00034946866 -0.003175136 1.4613792e-20)
(-0.00036641853 -0.0030860789 4.8050953e-20)
(-0.00038036526 -0.0030129979 2.5637302e-20)
(-0.00038893185 -0.0029521347 -1.1981632e-20)
(-0.00039111445 -0.0028998053 -1.9957769e-21)
(-0.00038704473 -0.0028528219 6.8686304e-21)
(-0.00037762481 -0.0028087069 -1.3408574e-20)
(-0.0003641658 -0.0027657594 2.1468851e-20)
(-0.00034808651 -0.0027230072 2.4445579e-20)
(-0.00033069091 -0.0026800753 2.534977e-20)
(-0.00031303425 -0.0026370157 3.2146827e-20)
(-0.00029586955 -0.0025941395 1.8396949e-20)
(-0.00027965177 -0.0025518768 3.0049225e-20)
(-0.00026457724 -0.002510664 2.4992908e-21)
(-0.00025064468 -0.0024708645 1.8520718e-20)
(-0.00023772628 -0.0024327297 8.865105e-21)
(-0.00022563361 -0.0023963923 -3.179312e-21)
(-0.00021416834 -0.0023618805 1.943617e-21)
(-0.00020315562 -0.0023291438 -2.3742051e-20)
(-0.00019246145 -0.0022980817 -1.7443847e-20)
(-0.0001819976 -0.0022685693 -1.8978619e-20)
(-0.00017171781 -0.0022404784 -2.9553694e-20)
(-0.00016160901 -0.0022136915 -3.1170214e-21)
(-0.0001516807 -0.0021881096 -1.2291932e-21)
(-0.00014195488 -0.0021636539 3.5193602e-21)
(-0.00013245815 -0.0021402649 -8.4903116e-21)
(-0.00012321639 -0.0021178986 1.1593866e-21)
(-0.00011425185 -0.0020965225 -4.7865524e-21)
(-0.00010558211 -0.0020761123 7.5322206e-21)
(-9.7220444e-05 -0.0020566486 -4.5396911e-22)
(-8.9176749e-05 -0.0020381156 1.5200717e-20)
(-8.145872e-05 -0.0020204996 2.2474682e-20)
(-7.4072834e-05 -0.0020037893 2.1521e-20)
(-6.7025024e-05 -0.001987976 7.7000985e-21)
(-6.0320955e-05 -0.0019730537 1.5676058e-20)
(-5.3965923e-05 -0.0019590201 4.5551288e-21)
(-4.79645e-05 -0.0019458767 4.7139771e-21)
(-4.2319963e-05 -0.0019336292 1.7890793e-20)
(-3.7033597e-05 -0.0019222875 6.1590062e-21)
(-3.2103933e-05 -0.0019118655 1.2295333e-20)
(-2.7525982e-05 -0.0019023804 1.1589618e-20)
(-2.3290454e-05 -0.0018938519 2.5844027e-20)
(-1.938287e-05 -0.0018863011 1.9920629e-20)
(-1.5782903e-05 -0.0018797473 9.3635248e-21)
(-1.2464075e-05 -0.001874205 3.1976938e-21)
(-9.3935165e-06 -0.0018696794 -4.5522879e-21)
(-6.530472e-06 -0.0018661626 -5.1822541e-21)
(-3.8278327e-06 -0.0018636331 -1.190982e-20)
(-1.2510847e-06 -0.0018621059 -2.6226846e-20)
(0.015893973 -0.021829923 2.8660118e-18)
(0.015753592 -0.017318873 -2.9598439e-19)
(0.014977452 -0.013261234 2.852276e-18)
(0.013690329 -0.0097267797 -2.8489747e-20)
(0.012021537 -0.0067605729 -2.825194e-18)
(0.010100192 -0.0043826053 -5.6567849e-19)
(0.0080510178 -0.0025894658 -9.1364946e-19)
(0.0059875841 -0.0013510265 -4.5804425e-18)
(0.004011553 -0.00061589444 -3.2156317e-19)
(0.00220845 -0.00032009394 1.0656023e-18)
(0.00063990188 -0.00038686528 1.087535e-19)
(-0.00065239309 -0.00073105287 -6.4517071e-20)
(-0.0016468208 -0.0012680279 1.823569e-19)
(-0.0023428669 -0.0019202079 2.7925146e-19)
(-0.0027583585 -0.0026092773 5.4978596e-19)
(-0.0029264498 -0.0032721861 1.784664e-19)
(-0.0028898015 -0.0038603714 2.2663241e-19)
(-0.002695881 -0.0043401202 1.0451961e-19)
(-0.0023934305 -0.004692415 4.7331217e-20)
(-0.0020291375 -0.0049118591 2.0500234e-19)
(-0.0016444677 -0.0050045555 2.0371103e-19)
(-0.0012733886 -0.0049854956 5.9259936e-20)
(-0.00094094081 -0.004875533 2.0705498e-19)
(-0.00066316119 -0.0046983681 -4.9035113e-20)
(-0.00044806653 -0.0044784153 -6.2226843e-20)
(-0.00029643126 -0.0042385496 5.5652753e-21)
(-0.00020354796 -0.0039976251 -1.0121888e-19)
(-0.00016018376 -0.0037714962 1.5669864e-19)
(-0.00015463964 -0.0035696318 5.1004566e-20)
(-0.00017521204 -0.0033972985 -7.2806911e-20)
(-0.00021023641 -0.0032566097 -2.1774394e-20)
(-0.00024966659 -0.0031451777 -1.7343715e-20)
(-0.00028634979 -0.0030586557 1.5907188e-20)
(-0.00031568577 -0.0029917147 -3.1076599e-20)
(-0.00033521434 -0.0029387494 -4.1875257e-20)
(-0.00034435993 -0.002894567 -4.6110234e-21)
(-0.00034402894 -0.0028548953 2.5253709e-20)
(-0.00033603587 -0.0028166032 1.02894e-20)
(-0.0003225921 -0.0027777289 -4.3189668e-20)
(-0.00030589191 -0.002737353 -1.8609191e-21)
(-0.00028782193 -0.0026953602 6.3802329e-20)
(-0.00026981291 -0.0026521614 4.9456531e-20)
(-0.00025281119 -0.0026084484 2.0140722e-20)
(-0.0002373185 -0.002565004 1.3974664e-20)
(-0.00022346839 -0.0025225435 -2.7447124e-21)
(-0.00021113263 -0.0024816175 2.9517398e-20)
(-0.00020003616 -0.002442578 1.4647427e-20)
(-0.00018985356 -0.0024055869 -7.4393003e-21)
(-0.00018027778 -0.0023706521 1.7036727e-20)
(-0.00017106012 -0.0023376752 -2.0137772e-20)
(-0.00016202624 -0.0023064971 -1.6264582e-20)
(-0.00015307534 -0.0022769361 -1.0256777e-20)
(-0.00014416884 -0.0022488176 1.3341879e-20)
(-0.00013531336 -0.0022219914 1.7804612e-20)
(-0.00012654271 -0.0021963396 -1.6143056e-20)
(-0.00011790255 -0.0021717756 5.8994492e-21)
(-0.00010943955 -0.0021482399 -9.4145578e-21)
(-0.00010119479 -0.002125693 -5.0425667e-21)
(-9.3200913e-05 -0.002104109 -4.3963664e-21)
(-8.5481995e-05 -0.0020834698 1.9490578e-20)
(-7.8055096e-05 -0.002063761 4.134066e-20)
(-7.0932454e-05 -0.00204497 2.7019085e-20)
(-6.4123605e-05 -0.0020270852 4.4134563e-20)
(-5.7637056e-05 -0.0020100959 4.9841712e-20)
(-5.148135e-05 -0.0019939934 3.2182158e-20)
(-4.566543e-05 -0.0019787717 2.8999942e-20)
(-4.0198479e-05 -0.001964429 1.1363206e-20)
(-3.5089409e-05 -0.0019509674 2.1413866e-21)
(-3.0346081e-05 -0.0019383943 1.1782851e-21)
(-2.597436e-05 -0.0019267222 2.7431646e-21)
(-2.1977185e-05 -0.001915968 1.7800201e-20)
(-1.8353632e-05 -0.0019061535 1.8550878e-20)
(-1.5098005e-05 -0.0018973033 3.0521462e-20)
(-1.2198489e-05 -0.0018894449 1.6616489e-20)
(-9.6362078e-06 -0.0018826043 6.7660996e-21)
(-7.3847416e-06 -0.0018768033 -8.2682457e-22)
(-5.4095322e-06 -0.0018720546 -1.0211272e-20)
(-3.6667295e-06 -0.0018683566 -1.3128173e-20)
(-2.1043503e-06 -0.0018656932 -2.0005913e-20)
(-6.7795427e-07 -0.001864084 -3.4037177e-20)
(0.020961135 -0.022121142 -2.8318181e-18)
(0.020360232 -0.016860798 1.1459615e-18)
(0.019037002 -0.012178036 -3.002702e-18)
(0.017142256 -0.0081523831 2.5168853e-19)
(0.014831964 -0.0048337526 -1.3594567e-18)
(0.012261258 -0.0022419708 -2.1485547e-18)
(0.0095839316 -0.00035989269 -3.0154769e-18)
(0.0069423137 0.00084868339 -6.6018898e-18)
(0.0044552693 0.0014495471 -9.4467987e-19)
(0.0022194334 0.0015272705 -1.8744545e-19)
(0.00030978891 0.0011810251 -5.6962313e-19)
(-0.0012277166 0.00052061809 -1.7852279e-18)
(-0.0023795858 -0.00034486549 2.3107473e-19)
(-0.0031470065 -0.0013122186 4.1087262e-19)
(-0.003554228 -0.0022925977 9.7732299e-20)
(-0.0036529133 -0.0032064047 -4.0967623e-20)
(-0.0035025996 -0.0039957693 1.8314531e-19)
(-0.0031675777 -0.0046226321 2.2834749e-19)
(-0.0027125953 -0.0050683346 9.1217758e-20)
(-0.0021983854 -0.0053316875 6.274508e-19)
(-0.0016776851 -0.0054259412 4.6022695e-19)
(-0.0011924902 -0.0053751227 4.1691192e-19)
(-0.00077238369 -0.0052099665 3.4112491e-19)
(-0.00043503074 -0.0049639269 -1.334439e-19)
(-0.00018768762 -0.0046704405 8.2801816e-20)
(-2.7518621e-05 -0.0043606117 2.9769383e-19)
(5.4385687e-05 -0.0040587975 7.2026291e-20)
(7.2835066e-05 -0.0037834932 -3.5919998e-20)
(4.5926656e-05 -0.0035464333 -2.369189e-20)
(-1.0675909e-05 -0.0033529021 2.9699102e-20)
(-8.0982896e-05 -0.0032026035 4.7279504e-20)
(-0.0001511748 -0.0030914379 5.0076947e-20)
(-0.00021261505 -0.0030122683 1.6349746e-20)
(-0.00026011283 -0.0029567158 3.4302014e-20)
(-0.00029143459 -0.0029165991 1.1159982e-20)
(-0.00030691115 -0.0028847387 -2.3508662e-21)
(-0.00030873656 -0.002855517 1.6395281e-20)
(-0.00030012383 -0.0028250849 2.1239144e-20)
(-0.0002845948 -0.0027913176 -2.2660458e-20)
(-0.00026541384 -0.0027535506 7.5125418e-21)
(-0.00024521418 -0.0027121737 1.8090603e-20)
(-0.00022585684 -0.0026681919 -7.4392671e-21)
(-0.00020846531 -0.002622885 3.6109017e-21)
(-0.00019351708 -0.0025775502 -9.8014745e-21)
(-0.00018097636 -0.0025332774 7.4971031e-21)
(-0.00017047871 -0.0024908457 6.266316e-21)
(-0.00016150758 -0.0024507061 4.1395629e-20)
(-0.00015353065 -0.0024130197 2.8572906e-20)
(-0.00014608947 -0.0023777307 3.2690328e-20)
(-0.00013884244 -0.0023446484 2.6616235e-20)
(-0.00013157275 -0.0023135164 9.2339369e-21)
(-0.00012417676 -0.0022840664 2.3169256e-20)
(-0.00011663968 -0.0022560587 5.6227036e-20)
(-0.00010900516 -0.0022293022 1.1827199e-20)
(-0.00010134636 -0.0022036591 9.3198973e-21)
(-9.3743759e-05 -0.0021790392 1.3823855e-20)
(-8.6270952e-05 -0.0021553892 2.4020465e-20)
(-7.8987461e-05 -0.0021326805 2.0851708e-20)
(-7.193679e-05 -0.0021108994 1.8773133e-20)
(-6.5148213e-05 -0.0020900378 2.7653303e-20)
(-5.8640528e-05 -0.0020700889 4.7241543e-20)
(-5.2426265e-05 -0.0020510442 4.6053534e-20)
(-4.6515129e-05 -0.0020328937 4.329875e-20)
(-4.0916553e-05 -0.0020156268 3.3643954e-20)
(-3.5641284e-05 -0.0019992339 2.6897923e-20)
(-3.0701675e-05 -0.0019837082 2.380769e-20)
(-2.6111307e-05 -0.001969047 1.7266944e-20)
(-2.1884201e-05 -0.0019552533 1.6972237e-20)
(-1.8033717e-05 -0.0019423356 -4.975316e-21)
(-1.4571291e-05 -0.0019303089 1.9897008e-20)
(-1.1505225e-05 -0.001919194 3.1228197e-20)
(-8.8396001e-06 -0.0019090169 3.2807354e-20)
(-6.5737e-06 -0.001899808 1.7789331e-20)
(-4.6994264e-06 -0.0018916027 1.3818837e-20)
(-3.2000848e-06 -0.0018844346 -1.6506709e-21)
(-2.0501222e-06 -0.001878335 -1.6412433e-20)
(-1.2135884e-06 -0.0018733255 -1.0610633e-20)
(-6.4338219e-07 -0.0018694139 -1.2937767e-20)
(-2.813571e-07 -0.001866591 -1.9028833e-20)
(-7.0992346e-08 -0.0018648839 -2.7709616e-20)
(0.026890319 -0.022022365 -1.7371222e-18)
(0.025699445 -0.015900012 2.6453991e-18)
(0.023686418 -0.010506255 -3.5960628e-18)
(0.02103368 -0.0059319997 2.2536416e-18)
(0.017930247 -0.0022312142 -8.9096704e-19)
(0.01457112 0.00058190354 -3.5436526e-18)
(0.011137245 0.0025242857 1.5422329e-18)
(0.0077933941 0.003649553 -2.0633632e-18)
(0.0046874445 0.0040405354 -1.1219457e-18)
(0.0019379701 0.0038085207 -7.7332384e-19)
(-0.00036801652 0.0030814793 9.0699844e-19)
(-0.0021787016 0.001999024 -1.5091318e-18)