/*--------------------------------*- C++ -*----------------------------------*\
| =========                 |                                                 |
| \\      /  F ield         | OpenFOAM: The Open Source CFD Toolbox           |
|  \\    /   O peration     | Version:  2306                                  |
|   \\  /    A nd           | Website:  www.openfoam.com                      |
|    \\/     M anipulation  |                                                 |
\*---------------------------------------------------------------------------*/
FoamFile
{
    version     2.0;
    format      ascii;
    arch        "LSB;label=32;scalar=64";
    class       surfaceScalarField;
    location    "0.48";
    object      phi_0;
}
// * * * * * * * * * * * * * * * * * * * * * * * * * * * * * * * * * * * * * //

dimensions      [0 3 -1 0 0 0 0];

oriented        oriented;

internalField   nonuniform List<scalar> 
12640
(
1.1898501e-09
-1.1898501e-09
4.7170361e-09
-3.5271861e-09
1.0425015e-08
-5.7079792e-09
1.8199458e-08
-7.7744412e-09
2.796931e-08
-9.769853e-09
3.9686812e-08
-1.1717502e-08
5.3307412e-08
-1.3620598e-08
6.877609e-08
-1.546868e-08
8.6025552e-08
-1.7249462e-08
1.0497637e-07
-1.8950815e-08
1.2553839e-07
-2.0562026e-08
1.4761164e-07
-2.207325e-08
1.7108778e-07
-2.3476131e-08
1.9585084e-07
-2.4763061e-08
2.2177804e-07
-2.5927209e-08
2.4874239e-07
-2.6964348e-08
2.7661099e-07
-2.7868603e-08
3.0524706e-07
-2.8636074e-08
3.3450971e-07
-2.9262642e-08
3.6425752e-07
-2.9747815e-08
3.943478e-07
-3.009028e-08
4.2463453e-07
-3.0286734e-08
4.5497645e-07
-3.034192e-08
4.8522958e-07
-3.0253128e-08
5.1525302e-07
-3.002344e-08
5.4490663e-07
-2.9653606e-08
5.7405405e-07
-2.9147426e-08
6.0256327e-07
-2.8509216e-08
6.3031107e-07
-2.7747808e-08
6.5717248e-07
-2.6861403e-08
6.8302777e-07
-2.5855294e-08
7.0776807e-07
-2.4740295e-08
7.3128608e-07
-2.3518015e-08
7.5349836e-07
-2.2212269e-08
7.7430381e-07
-2.0805446e-08
7.9363245e-07
-1.9328651e-08
8.1142545e-07
-1.7792997e-08
8.27597e-07
-1.617155e-08
8.4207627e-07
-1.4479271e-08
8.5482867e-07
-1.2752398e-08
8.6584323e-07
-1.1014561e-08
8.7505301e-07
-9.2097777e-09
8.8242097e-07
-7.3679648e-09
8.8795924e-07
-5.5382652e-09
8.916524e-07
-3.6931679e-09
8.9350872e-07
-1.8563146e-09
8.9346978e-07
3.8944427e-11
8.9172347e-07
1.7462991e-09
8.8821881e-07
3.5046745e-09
8.8298685e-07
5.2319443e-09
8.7605954e-07
6.9273179e-09
8.6748895e-07
8.5705966e-09
8.5732874e-07
1.0160208e-08
8.4563699e-07
1.1691752e-08
8.3247289e-07
1.3164093e-08
8.1791429e-07
1.4558607e-08
8.020241e-07
1.5890189e-08
7.8488922e-07
1.7134881e-08
7.6659104e-07
1.8298179e-08
7.4716835e-07
1.9422686e-08
7.2673672e-07
2.0431634e-08
7.053831e-07
2.1353618e-08
6.8319697e-07
2.218613e-08
6.6025835e-07
2.293862e-08
6.3665466e-07
2.3603697e-08
6.1246736e-07
2.4187294e-08
5.877788e-07
2.4688562e-08
5.626744e-07
2.51044e-08
5.3723986e-07
2.5434544e-08
5.1154942e-07
2.5690434e-08
4.8568156e-07
2.5867865e-08
4.5971643e-07
2.5965126e-08
4.337222e-07
2.599424e-08
4.077668e-07
2.5955394e-08
3.8191777e-07
2.5849023e-08
3.5623789e-07
2.567988e-08
3.307859e-07
2.5451986e-08
3.0561806e-07
2.5167846e-08
2.8079835e-07
2.4819718e-08
2.4433251e-08
1.6654215e-09
-2.8552716e-09
6.4541568e-09
-8.3159211e-09
1.418632e-08
-1.3440143e-08
2.464732e-08
-1.8235442e-08
3.7705538e-08
-2.2828071e-08
5.3267815e-08
-2.7279779e-08
7.1242682e-08
-3.1595466e-08
9.1527613e-08
-3.575361e-08
1.1400268e-07
-3.9724528e-08
1.3852896e-07
-4.34771e-08
1.6495002e-07
-4.6983086e-08
1.9309299e-07
-5.0216211e-08
2.227706e-07
-5.3153747e-08
2.5378262e-07
-5.5775077e-08
2.8591964e-07
-5.806423e-08
3.1896304e-07
-6.0007745e-08
3.5268683e-07
-6.159239e-08
3.8685888e-07
-6.2808132e-08
4.2124286e-07
-6.3646619e-08
4.556006e-07
-6.4105559e-08
4.8969448e-07
-6.4184153e-08
5.2328187e-07
-6.3874129e-08
5.5613253e-07
-6.3192574e-08
5.8801326e-07
-6.2133862e-08
6.1869833e-07
-6.0708508e-08
6.4796511e-07
-5.8920387e-08
6.756018e-07
-5.6784116e-08
7.0140197e-07
-5.4309379e-08
7.2517948e-07
-5.1525317e-08
7.4674873e-07
-4.8430655e-08
7.6594027e-07
-4.5046837e-08
7.8257951e-07
-4.1379535e-08
7.9654395e-07
-3.7482458e-08
8.0771068e-07
-3.3378999e-08
8.159689e-07
-2.9063665e-08
8.2124394e-07
-2.4603689e-08
8.2336244e-07
-1.9911493e-08
8.2229674e-07
-1.5105848e-08
8.1801651e-07
-1.0199044e-08
8.1050778e-07
-5.2436681e-09
7.9984904e-07
-3.5581699e-10
7.8580573e-07
4.8335384e-09
7.6849724e-07
9.9405163e-09
7.4798543e-07
1.4973548e-08
7.2427406e-07
2.001821e-08
6.9749089e-07
2.4926847e-08
6.6774644e-07
2.9783396e-08
6.3498301e-07
3.450973e-08
5.9938715e-07
3.9100534e-08
5.610564e-07
4.356269e-08
5.2013408e-07
4.7849636e-08
4.7674004e-07
5.1964632e-08
4.3101782e-07
5.5882427e-08
3.8312497e-07
5.958461e-08
3.3323057e-07
6.3058487e-08
2.8147254e-07
6.6316628e-08
2.2804466e-07
6.9318083e-08
1.7309263e-07
7.2086906e-08
1.1678822e-07
7.4602587e-08
5.9415549e-08
7.6795353e-08
1.0677479e-09
7.8779447e-08
-5.8081456e-08
8.0502818e-08
-1.1786712e-07
8.19718e-08
-1.781002e-07
8.3171697e-08
-2.3860199e-07
8.4105489e-08
-2.9919874e-07
8.4784035e-08
-3.5972173e-07
8.5211558e-08
-4.200081e-07
8.5390766e-08
-4.7990068e-07
8.5327123e-08
-5.3924599e-07
8.5035749e-08
-5.9789816e-07
8.4520028e-08
-6.5571909e-07
8.3786052e-08
-7.1257517e-07
8.2850338e-08
-7.6834072e-07
8.1720929e-08
-8.2289827e-07
8.0406588e-08
-8.7613764e-07
7.8919246e-08
-9.2795612e-07
7.7270485e-08
-9.7825935e-07
7.5471064e-08
-1.0269652e-06
7.3525541e-08
7.145915e-08
1.2841339e-09
-4.1394055e-09
4.9988438e-09
-1.2030631e-08
1.1013276e-08
-1.9454575e-08
1.915262e-08
-2.6374786e-08
2.9281537e-08
-3.2956988e-08
4.1280526e-08
-3.9278768e-08
5.5032214e-08
-4.5347153e-08
7.0410852e-08
-5.113225e-08
8.7276316e-08
-5.6589991e-08
1.0547146e-07
-6.1672246e-08
1.2482318e-07
-6.6334809e-08
1.4514204e-07
-7.0535066e-08
1.6622481e-07
-7.423652e-08
1.8785288e-07
-7.7403145e-08
2.0980551e-07
-8.0016857e-08
2.31844e-07
-8.2046231e-08
2.5372805e-07
-8.3476442e-08
2.7520753e-07
-8.4287607e-08
2.9604594e-07
-8.4485039e-08
3.1597583e-07
-8.4035438e-08
3.3475347e-07
-8.2961801e-08
3.521491e-07
-8.1269754e-08
3.6790458e-07
-7.8948055e-08
3.8178813e-07
-7.6017418e-08
3.9357743e-07
-7.2497801e-08
4.0303612e-07
-6.8379083e-08
4.0997687e-07
-6.3724867e-08
4.1417371e-07
-5.850621e-08
4.1547076e-07
-5.2822372e-08
4.1369277e-07
-4.6652671e-08
4.0870553e-07
-4.0059597e-08
4.0027143e-07
-3.294543e-08
3.8840417e-07
-2.5615204e-08
3.7294867e-07
-1.7923489e-08
3.5385936e-07
-9.9743592e-09
3.3113391e-07
-1.8782498e-09
3.0448225e-07
6.7401723e-09
2.7399809e-07
1.5378305e-08
2.3970799e-07
2.4091064e-08
2.0160958e-07
3.2854743e-08
1.5964133e-07
4.1612439e-08
1.1405082e-07
5.0424045e-08
6.4903402e-08
5.9087929e-08
1.2176916e-08
6.7700035e-08
-4.3915014e-08
7.6110138e-08
-1.033985e-07
8.4410332e-08
-1.6608132e-07
9.2466213e-08
-2.3181905e-07
1.0024746e-07
-3.0044191e-07
1.077234e-07
-3.7176826e-07
1.1488905e-07
-4.4560997e-07
1.2169134e-07
-5.217668e-07
1.2812146e-07
-6.0003184e-07
1.3414747e-07
-6.8019303e-07
1.3974579e-07
-7.6203288e-07
1.4489833e-07
-8.4531872e-07
1.4960248e-07
-9.2982924e-07
1.538286e-07
-1.0153229e-06
1.5758055e-07
-1.1015621e-06
1.6084182e-07
-1.1883598e-06
1.6359299e-07
-1.2754463e-06
1.6586596e-07
-1.3625933e-06
1.6764978e-07
-1.4495688e-06
1.6894737e-07
-1.5361562e-06
1.6975908e-07
-1.6221416e-06
1.7009088e-07
-1.7073125e-06
1.6995498e-07
-1.7914636e-06
1.6936267e-07
-1.8743986e-06
1.6832575e-07
-1.9559302e-06
1.6685873e-07
-2.0358752e-06
1.6498067e-07
-2.1140624e-06
1.6270726e-07
-2.1903323e-06
1.6005598e-07
-2.2645309e-06
1.5704889e-07
-2.3365156e-06
1.5370567e-07
-2.4061554e-06
1.500464e-07
-2.4733289e-06
1.4609269e-07
-2.5379247e-06
1.4186628e-07
-2.599842e-06
1.3738844e-07
-2.6589958e-06
1.3267925e-07
1.277647e-07
7.1837266e-10
-4.8577781e-09
2.8757954e-09
-1.4188054e-08
6.4155307e-09
-2.299431e-08
1.124752e-08
-3.1206776e-08
1.725988e-08
-3.8969348e-08
2.4325157e-08
-4.6344045e-08
3.2313095e-08
-5.3335091e-08
4.1085572e-08
-5.9904726e-08
5.0493693e-08
-6.599811e-08
6.0377382e-08
-7.1555935e-08
7.056241e-08
-7.6519837e-08
8.086148e-08
-8.0834138e-08
9.1078927e-08
-8.4453964e-08
1.0100058e-07
-8.7324793e-08
1.1041232e-07
-8.9428603e-08
1.1909032e-07
-9.072423e-08
1.268046e-07
-9.1190725e-08
1.333074e-07
-9.0790403e-08
1.3837809e-07
-8.9555738e-08
1.4178972e-07
-8.7447063e-08
1.4328987e-07
-8.4461945e-08
1.4265865e-07
-8.0638543e-08
1.3967875e-07
-7.5968155e-08
1.3413022e-07
-7.0468889e-08
1.2578191e-07
-6.4149485e-08
1.1451016e-07
-5.7107339e-08
1.0006405e-07
-4.9278758e-08
8.2353811e-08
-4.0795968e-08
6.1143184e-08
-3.1611744e-08
3.6320601e-08
-2.1830086e-08
7.7358564e-09
-1.1474856e-08
-2.4513306e-08
-6.9627072e-10
-6.0744531e-08
1.0616028e-08
-1.00977e-07
2.2308978e-08
-1.4525567e-07
3.4304319e-08
-1.9369308e-07
4.6559172e-08
-2.4604914e-07
5.9096231e-08
-3.0242175e-07
7.1750909e-08
-3.6279172e-07
8.4461031e-08
-4.2710521e-07
9.7168236e-08
-4.9530522e-07
1.0981244e-07
-5.6723268e-07
1.223515e-07
-6.4283678e-07
1.3469203e-07
-7.2193787e-07
1.4680113e-07
-8.044328e-07
1.5860506e-07
-8.9009618e-07
1.7007371e-07
-9.7876442e-07
1.8113447e-07
-1.0702505e-06
1.9173356e-07
-1.1643521e-06
2.0182498e-07
-1.2608393e-06
2.1137621e-07
-1.3594883e-06
2.2034035e-07
-1.4600548e-06
2.28688e-07
-1.5622926e-06
2.3638526e-07
-1.6659504e-06
2.4340355e-07
-1.7707725e-06
2.4972046e-07
-1.8764913e-06
2.5532129e-07
-1.9828487e-06
2.6018594e-07
-2.0895754e-06
2.6430726e-07
-2.1964088e-06
2.6767524e-07
-2.3030999e-06
2.7028411e-07
-2.4093785e-06
2.7214461e-07
-2.5149882e-06
2.7325946e-07
-2.6196771e-06
2.7363622e-07
-2.7232025e-06
2.7328449e-07
-2.8253294e-06
2.7221785e-07
-2.925829e-06
2.7045452e-07
-3.0244809e-06
2.6801457e-07
-3.1210752e-06
2.6492007e-07
-3.2154123e-06
2.6119576e-07
-3.3073011e-06
2.568695e-07
-3.396563e-06
2.5196919e-07
-3.4830315e-06
2.4652449e-07
-3.5665501e-06
2.4056747e-07
-3.6469746e-06
2.3413015e-07
-3.7241733e-06
2.2724511e-07
-3.7980264e-06
2.1994582e-07
-3.8684261e-06
2.1226592e-07
-3.9352765e-06
2.0423894e-07
-3.9984955e-06
1.9589819e-07
1.8727834e-07
2.7736547e-10
-5.1351436e-09
1.1798875e-09
-1.5090576e-08
2.7229294e-09
-2.4537352e-08
4.882993e-09
-3.3366839e-08
7.5754202e-09
-4.1661776e-08
1.0682167e-08
-4.9450792e-08
1.4065254e-08
-5.6718178e-08
1.7587143e-08
-6.3426615e-08
2.1092836e-08
-6.9503805e-08
2.4421767e-08
-7.4884868e-08
2.7404995e-08
-7.9503061e-08
2.9852441e-08
-8.3281584e-08
3.1573967e-08
-8.6175491e-08
3.2391528e-08
-8.8142356e-08
3.207408e-08
-8.9111152e-08
3.0413372e-08
-8.9063517e-08
2.7188632e-08
-8.7965991e-08
2.2219929e-08
-8.5821697e-08
1.5237166e-08
-8.2572976e-08
6.0599258e-09
-7.8269821e-08
-5.5291761e-09
-7.287285e-08
-1.9762288e-08
-6.6405426e-08
-3.6838737e-08
-5.8891707e-08
-5.694708e-08
-5.0360542e-08
-8.0268555e-08
-4.0828011e-08
-1.0696588e-07
-3.0410026e-08
-1.3721333e-07
-1.9031301e-08
-1.7115977e-07
-6.8495287e-09
-2.088861e-07
6.114587e-09
-2.5053717e-07
1.982099e-08
-2.9618798e-07
3.4175951e-08
-3.4597672e-07
4.9092474e-08
-3.9988838e-07
6.4527681e-08
-4.5796887e-07
8.0389472e-08
-5.2025045e-07
9.65859e-08
-5.8673766e-07
1.1304638e-07
-6.5734444e-07
1.2970301e-07
-7.3204116e-07
1.4644763e-07
-8.1076911e-07
1.6318899e-07
-8.934441e-07
1.7984322e-07
-9.7996033e-07
1.9632867e-07
-1.0701766e-06
2.1256777e-07
-1.1639578e-06
2.2847322e-07
-1.2611316e-06
2.4397493e-07
-1.361523e-06
2.5899645e-07
-1.4649211e-06
2.7347187e-07
-1.5711162e-06
2.873295e-07
-1.6798866e-06
3.0050396e-07
-1.7909984e-06
3.1293677e-07
-1.9041997e-06
3.2457752e-07
-2.0192355e-06
3.3537616e-07
-2.1358385e-06
3.4529103e-07
-2.253737e-06
3.5428375e-07
-2.372655e-06
3.6232153e-07
-2.4923126e-06
3.6937807e-07
-2.6124247e-06
3.7543336e-07
-2.7327091e-06
3.8047041e-07
-2.8528816e-06
3.8447967e-07
-2.9726617e-06
3.8745537e-07
-3.091775e-06
3.8939743e-07
-3.2099445e-06
3.9031411e-07
-3.3269006e-06
3.9021554e-07
-3.4423806e-06
3.8911621e-07
-3.5561305e-06
3.8703436e-07
-3.6679051e-06
3.8399251e-07
-3.7774683e-06
3.8001767e-07
-3.8845937e-06
3.7514001e-07
-3.9890663e-06
3.6939265e-07
-4.0906823e-06
3.6281182e-07
-4.1892494e-06
3.5543652e-07
-4.2845876e-06
3.473074e-07
-4.37653e-06
3.3846692e-07
-4.4649219e-06
3.2895944e-07
-4.5496219e-06
3.1883009e-07
-4.6305015e-06
3.0812474e-07
-4.7074455e-06
2.968898e-07
-4.7803515e-06
2.8517194e-07
-4.8491303e-06
2.7301769e-07
-4.9137055e-06
2.6047336e-07
2.4758524e-07
2.1283917e-11
-5.1564275e-09
1.5927344e-10
-1.5228565e-08
4.6993289e-10
-2.4848011e-08
9.5414224e-10
-3.3851049e-08
1.5567626e-09
-4.2264396e-08
2.1677367e-09
-5.0061764e-08
2.6615529e-09
-5.7211993e-08
2.8867796e-09
-6.3651843e-08
2.7011791e-09
-6.9318202e-08
1.9397165e-09
-7.4123405e-08
4.304171e-10
-7.7993762e-08
-1.9907713e-09
-8.0860395e-08
-5.5256496e-09
-8.2640617e-08
-1.0373772e-08
-8.3294232e-08
-1.6727981e-08
-8.2756943e-08
-2.47987e-08
-8.09928e-08
-3.4785704e-08
-7.7978983e-08
-4.6917549e-08
-7.3689853e-08
-6.1382758e-08
-6.810777e-08
-7.8404638e-08
-6.1247937e-08
-9.8178772e-08
-5.3098714e-08
-1.2090922e-07
-4.3674983e-08
-1.4677664e-07
-3.3024289e-08
-1.7596725e-07
-2.116993e-08
-2.0865338e-07
-8.141871e-09
-2.4495938e-07
5.8959723e-09
-2.8503723e-07
2.1046554e-08
-3.2904402e-07
3.7157255e-08
-3.7708825e-07
5.4158824e-08
-4.2924458e-07
7.1977315e-08
-4.8559001e-07
9.0521382e-08
-5.4619382e-07
1.0969628e-07
-6.1107903e-07
1.2941289e-07
-6.8025961e-07
1.4957005e-07
-7.5373652e-07
1.7006281e-07
-8.3148141e-07
1.9079128e-07
-9.1343135e-07
2.1165294e-07
-9.9951857e-07
2.3253485e-07
-1.0896571e-06
2.5332754e-07
-1.183739e-06
2.7392514e-07
-1.281635e-06
2.942246e-07
-1.3831929e-06
3.1412568e-07
-1.4882482e-06
3.3352852e-07
-1.5966134e-06
3.5234019e-07
-1.708087e-06
3.7047004e-07
-1.822448e-06
3.8783284e-07
-1.9394646e-06
4.0434612e-07
-2.0588937e-06
4.19933e-07
-2.1804804e-06
4.3452347e-07
-2.3039577e-06
4.4805485e-07
-2.4290512e-06
4.6046973e-07
-2.5554783e-06
4.7171813e-07
-2.682951e-06
4.8175641e-07
-2.8111773e-06
4.9054781e-07
-2.9398622e-06
4.9806298e-07
-3.0687086e-06
5.0427978e-07
-3.1974205e-06
5.0918226e-07
-3.3257025e-06
5.1276174e-07
-3.4532631e-06
5.1501596e-07
-3.5798151e-06
5.1594944e-07
-3.7050748e-06
5.1557376e-07
-3.828765e-06
5.1390583e-07
-3.9506167e-06
5.1096783e-07
-4.0703693e-06
5.0678704e-07
-4.1877726e-06
5.0139576e-07
-4.3025861e-06
4.9483113e-07
-4.4145805e-06
4.8713441e-07
-4.5235384e-06
4.783506e-07
-4.6292547e-06
4.6852815e-07
-4.7315369e-06
4.5771865e-07
-4.8302054e-06
4.4597593e-07
-4.9250945e-06
4.33356e-07
-5.0160517e-06
4.199166e-07
-5.1029382e-06
4.0571662e-07
-5.1856292e-06
3.9081575e-07
-5.2640136e-06
3.7527417e-07
-5.3379938e-06
3.5915214e-07
-5.4074858e-06
3.4250972e-07
-5.4724189e-06
3.2540646e-07
3.0790128e-07
-9.6438817e-11
-5.0599885e-09
-3.1218075e-10
-1.5012824e-08
-6.0595549e-10
-2.4554236e-08
-9.5004921e-10
-3.3506955e-08
-1.3997995e-09
-4.1814646e-08
-2.0479688e-09
-4.9413596e-08
-3.0168721e-09
-5.624309e-08
-4.4453964e-09
-6.2223317e-08
-6.4902193e-09
-6.7273381e-08
-9.3105875e-09
-7.1303038e-08
-1.3080742e-08
-7.4223606e-08
-1.7985325e-08
-7.5955814e-08
-2.4204831e-08
-7.6421108e-08
-3.1941206e-08
-7.5557857e-08
-4.1389915e-08
-7.3308236e-08
-5.275625e-08
-6.9626466e-08
-6.6255212e-08
-6.448002e-08
-8.2090227e-08
-5.785484e-08
-1.0046602e-07
-4.9731974e-08
-1.2159992e-07
-4.0114037e-08
-1.4568107e-07
-2.9017568e-08
-1.7289965e-07
-1.6456401e-08
-2.0344203e-07
-2.4819105e-09
-2.3747528e-07
1.2863325e-08
-2.7515047e-07
2.9533316e-08
-3.1668649e-07
4.7431991e-08
-3.621593e-07
6.6519356e-08
-4.1170028e-07
8.6698233e-08
-4.6541622e-07
1.0787477e-07
-5.2338928e-07
1.2995037e-07
-5.8568579e-07
1.5281789e-07
-6.5235447e-07
1.7636497e-07
-7.2341811e-07
2.0047653e-07
-7.9888005e-07
2.2503199e-07
-8.7872444e-07
2.4990721e-07
-9.6291073e-07
2.7497756e-07
-1.051374e-06
3.0011621e-07
-1.1440323e-06
3.2519311e-07
-1.240784e-06
3.5007925e-07
-1.3415068e-06
3.7464795e-07
-1.4460576e-06
3.9877543e-07
-1.5542731e-06
4.2234115e-07
-1.6659725e-06
4.4522792e-07
-1.7809561e-06
4.6732385e-07
-1.899008e-06
4.8852189e-07
-2.0198958e-06
5.087207e-07
-2.1433743e-06
5.2782459e-07
-2.269186e-06
5.4574466e-07
-2.3970621e-06
5.6239963e-07
-2.5267236e-06
5.7771628e-07
-2.6578829e-06
5.9162911e-07
-2.7902458e-06
6.0408099e-07
-2.9235124e-06
6.1502302e-07
-3.0573794e-06
6.2441478e-07
-3.1915409e-06
6.3222451e-07
-3.3256901e-06
6.3842901e-07
-3.4595212e-06
6.4301327e-07
-3.59273e-06
6.4597063e-07
-3.7250166e-06
6.4730248e-07
-3.8560853e-06
6.4701816e-07
-3.9856462e-06
6.4513471e-07
-4.1134165e-06
6.4167612e-07
-4.2391217e-06
6.36673e-07
-4.3624968e-06
6.3016214e-07
-4.4832872e-06
6.2218619e-07
-4.6012495e-06
6.1279334e-07
-4.7161517e-06
6.0203666e-07
-4.8277748e-06
5.8997365e-07
-4.9359124e-06
5.7666577e-07
-5.0403717e-06
5.6217791e-07
-5.1409735e-06
5.4657776e-07
-5.2375528e-06
5.2993536e-07
-5.3299589e-06
5.1232262e-07
-5.418055e-06
4.9381272e-07
-5.5017189e-06
4.744797e-07
-5.5808427e-06
4.5439798e-07
-5.6553325e-06
4.3364191e-07
-5.7251082e-06
4.1228547e-07
-5.7901036e-06
3.904018e-07
3.6806298e-07
-1.1662122e-10
-4.9433673e-09
-4.1656131e-10
-1.4712883e-08
-8.727306e-10
-2.4098067e-08
-1.4671291e-09
-3.2912556e-08
-2.2507284e-09
-4.1031047e-08
-3.3125087e-09
-4.8351814e-08
-4.7666665e-09
-5.4788933e-08
-6.7556647e-09
-6.023432e-08
-9.4317062e-09
-6.4597337e-08
-1.2957227e-08
-6.7777517e-08
-1.7512701e-08
-6.9668134e-08
-2.3281102e-08
-7.0187414e-08
-3.0454586e-08
-6.9247622e-08
-3.9234338e-08
-6.6778106e-08
-4.9821385e-08
-6.2721186e-08
-6.2432578e-08
-5.7015273e-08
-7.727347e-08
-4.9639128e-08
-9.4562325e-08
-4.0565984e-08
-1.1450763e-07
-2.9786668e-08
-1.3731988e-07
-1.730179e-08
-1.6319937e-07
-3.138076e-09
-1.923336e-07
1.2677828e-08
-2.2491478e-07
3.0099269e-08
-2.6112169e-07
4.9070238e-08
-3.0111166e-07
6.9523281e-08
-3.4505217e-07
9.1372507e-08
-3.9306777e-07
1.1453495e-07
-4.4527759e-07
1.3890806e-07
-5.0178386e-07
1.6438103e-07
-5.6266876e-07
1.9083528e-07
-6.2799531e-07
2.1814444e-07
-6.9780631e-07
2.4617597e-07
-7.7212209e-07
2.7479231e-07
-8.5094133e-07
3.0385123e-07
-9.3424105e-07
3.3320693e-07
-1.0219751e-06
3.6271159e-07
-1.1140744e-06
3.9221556e-07
-1.2104494e-06
4.2156812e-07
-1.3109896e-06
4.5061938e-07
-1.4155632e-06
4.792216e-07
-1.5240181e-06
5.0723027e-07
-1.6361817e-06
5.3450478e-07
-1.751863e-06
5.6090923e-07
-1.8708526e-06
5.8631341e-07
-1.9929241e-06
6.1059341e-07
-2.1178355e-06
6.3363216e-07
-2.245331e-06
6.5532007e-07
-2.3751421e-06
6.7555572e-07
-2.506989e-06
6.9424656e-07
-2.6405821e-06
7.1130937e-07
-2.7756234e-06
7.2667043e-07
-2.9118082e-06
7.4026578e-07
-3.0488267e-06
7.5204148e-07
-3.1863655e-06
7.6195358e-07
-3.3241093e-06
7.6996835e-07
-3.4617424e-06
7.7606208e-07
-3.5989501e-06
7.8022095e-07
-3.7354203e-06
7.8244087e-07
-3.8708451e-06
7.8272725e-07
-4.0049216e-06
7.8109473e-07
-4.1373537e-06
7.7756674e-07
-4.2678526e-06
7.7217508e-07
-4.3961389e-06
7.6495925e-07
-4.5219428e-06
7.5596606e-07
-4.6450058e-06
7.4524916e-07
-4.7650808e-06
7.3286844e-07
-4.8819336e-06
7.1888944e-07
-4.9953428e-06
7.0338279e-07
-5.1051005e-06
6.8642355e-07
-5.2110133e-06
6.6809063e-07
-5.3129016e-06
6.4846612e-07
-5.410601e-06
6.276347e-07
-5.5039613e-06
6.05683e-07
-5.5928476e-06
5.8269904e-07
-5.6771396e-06
5.587717e-07
-5.7567317e-06
5.3399006e-07
-5.8315329e-06
5.0844306e-07
-5.9014663e-06
4.8221891e-07
-5.9664692e-06
4.5540472e-07
4.2808607e-07
-8.5080712e-11
-4.8582866e-09
-3.1239935e-10
-1.4485565e-08
-6.7257992e-10
-2.3737886e-08
-1.1655944e-09
-3.2419542e-08
-1.8450405e-09
-4.0351601e-08
-2.8003237e-09
-4.7396532e-08
-4.1455202e-09
-5.3443736e-08
-6.016439e-09
-5.8363401e-08
-8.5704762e-09
-6.2043301e-08
-1.1979492e-08
-6.43685e-08
-1.641843e-08
-6.5229196e-08
-2.2082277e-08
-6.4523565e-08
-2.9171165e-08
-6.2158738e-08
-3.7888927e-08
-5.8060342e-08
-4.8456322e-08
-5.215379e-08
-6.1084012e-08
-4.4387581e-08
-7.5994537e-08
-3.4728604e-08
-9.3410237e-08
-2.3150286e-08
-1.1354468e-07
-9.6522226e-09
-1.3662878e-07
5.7823043e-09
-1.6285538e-07
2.3088522e-08
-1.9242765e-07
4.2250102e-08
-2.2554079e-07
6.321241e-08
-2.6237793e-07
8.5907385e-08
-3.0310812e-07
1.1025347e-07
-3.4789072e-07
1.3615511e-07
-3.9686325e-07
1.6350748e-07
-4.5014754e-07
1.9219235e-07
-5.0784732e-07
2.2208082e-07
-5.700466e-07
2.5303455e-07
-6.3680897e-07
2.8490682e-07
-7.0817665e-07
3.1754364e-07
-7.8416941e-07
3.5078506e-07
-8.6478435e-07
3.8446617e-07
-9.4999567e-07
4.1841825e-07
-1.0397542e-06
4.5247009e-07
-1.1339876e-06
4.8644901e-07
-1.2326014e-06
5.2018192e-07
-1.335479e-06
5.5349691e-07
-1.4424819e-06
5.8622452e-07
-1.5534505e-06
6.1819894e-07
-1.6682049e-06
6.4925915e-07
-1.7865454e-06
6.7924973e-07
-1.908254e-06
7.0802198e-07
-2.0330952e-06
7.3543467e-07
-2.1608179e-06
7.6135486e-07
-2.2911564e-06
7.8565852e-07
-2.423832e-06
8.0823135e-07
-2.5585548e-06
8.2896937e-07
-2.6950248e-06
8.4777939e-07
-2.8329338e-06
8.6457938e-07
-2.9719668e-06
8.7929877e-07
-3.1118039e-06
8.9187861e-07
-3.252122e-06
9.0227163e-07
-3.392596e-06
9.1044238e-07
-3.5329009e-06
9.1636703e-07
-3.6727133e-06
9.2003327e-07
-3.8117124e-06
9.2143999e-07
-3.9495822e-06
9.2059707e-07
-4.0860125e-06
9.1752497e-07
-4.2206999e-06
9.1225423e-07
-4.3533498e-06
9.0482495e-07
-4.4836768e-06
8.952862e-07
-4.6114061e-06
8.8369542e-07
-4.7362748e-06
8.7011779e-07
-4.858032e-06
8.5462564e-07
-4.9764401e-06
8.3729758e-07
-5.0912753e-06
8.1821801e-07
-5.202328e-06
7.9747625e-07
-5.3094033e-06
7.7516591e-07
-5.4123213e-06
7.5138406e-07
-5.5109172e-06
7.262306e-07
-5.6050417e-06
6.9980753e-07
-5.6945609e-06
6.7221824e-07
-5.7793561e-06
6.4356689e-07
-5.8593239e-06
6.1395782e-07
-5.9343757e-06
5.8349488e-07
-6.0044378e-06
5.5228097e-07
-6.0694506e-06
5.2041754e-07
4.8800397e-07
-2.6313648e-11
-4.831973e-09
-9.7316735e-11
-1.4414561e-08
-2.1692709e-10
-2.3618276e-08
-4.0718554e-10
-3.2229282e-08
-7.3004892e-10
-4.0028738e-08
-1.2719216e-09
-4.6854659e-08
-2.1517763e-09
-5.2563882e-08
-3.5040565e-09
-5.701112e-08
-5.4948751e-09
-6.0052484e-08
-8.300461e-09
-6.1562915e-08
-1.209917e-08
-6.1430484e-08
-1.7095416e-08
-5.9527321e-08
-2.3503464e-08
-5.5750688e-08
-3.1524553e-08
-5.0039252e-08
-4.1409557e-08
-4.2268787e-08
-5.336399e-08
-3.2433151e-08
-6.7615756e-08
-2.0476837e-08
-8.4421001e-08
-6.3450378e-09
-1.0400902e-07
9.9357978e-09
-1.2657335e-07
2.8346633e-08
-1.5235178e-07
4.8866951e-08
-1.8155503e-07
7.1453349e-08
-2.1438563e-07
9.604301e-08
-2.5103487e-07
1.2255662e-07
-2.9168068e-07
1.5089929e-07
-3.3648687e-07
1.809613e-07
-3.8559915e-07
2.1261976e-07
-4.3914528e-07
2.4573848e-07
-4.9723377e-07
2.801693e-07
-5.5995256e-07
3.1575334e-07
-6.2736806e-07
3.5232231e-07
-6.9952422e-07
3.896998e-07
-7.764418e-07
4.2770265e-07
-8.5811787e-07
4.6614226e-07
-9.4452557e-07
5.0482594e-07
-1.0356139e-06
5.4355838e-07
-1.1313077e-06
5.821429e-07
-1.2315087e-06
6.2038289e-07
-1.3360951e-06
6.5808329e-07
-1.4449226e-06
6.9505198e-07
-1.5578248e-06
7.3110115e-07
-1.6746142e-06
7.6604855e-07
-1.7950831e-06
7.9971861e-07
-1.9190046e-06
8.3194356e-07
-2.0461343e-06
8.6256438e-07
-2.1762112e-06
8.9143174e-07
-2.3089595e-06
9.1840678e-07
-2.44409e-06
9.4336188e-07
-2.581302e-06
9.6618137e-07
-2.7202846e-06
9.8676199e-07
-2.8607186e-06
1.0050134e-06
-3.0022781e-06
1.0208583e-06
-3.1446323e-06
1.0342328e-06
-3.2874473e-06
1.0450866e-06
-3.4303876e-06
1.0533827e-06
-3.5731182e-06
1.0590976e-06
-3.7153055e-06
1.0622206e-06
-3.8566199e-06
1.0627543e-06
-3.9967361e-06
1.0607133e-06
-4.1353358e-06
1.0561246e-06
-4.2721079e-06
1.0490264e-06
-4.4067507e-06
1.0394677e-06
-4.5389724e-06
1.0275079e-06
-4.6684926e-06
1.0132157e-06
-4.7950432e-06
9.9666839e-07
-4.9183691e-06
9.779515e-07
-5.038229e-06
9.571575e-07
-5.1543962e-06
9.343852e-07
-5.2666589e-06
9.0973891e-07
-5.3748206e-06
8.8332759e-07
-5.4787006e-06
8.5526404e-07
-5.578134e-06
8.2566404e-07
-5.672972e-06
7.9464549e-07
-5.7630816e-06
7.6232784e-07
-5.8483457e-06
7.2883108e-07
-5.9286632e-06
6.9427529e-07
-6.0039481e-06
6.5877973e-07
-6.0741296e-06
6.2246248e-07
-6.1391516e-06
5.8543959e-07
5.4782475e-07
4.4493749e-11
-4.8764666e-09
1.7558738e-10
-1.4545655e-08
3.8066826e-10
-2.3823357e-08
6.1272777e-10
-3.2461342e-08
8.0602933e-10
-4.0222039e-08
8.6943147e-10
-4.6918061e-08
6.7295481e-10
-5.2367405e-08
7.1006614e-11
-5.6409173e-08
-1.0825251e-09
-5.8898951e-08
-2.9886702e-09
-5.965677e-08
-5.8211202e-09
-5.8598035e-08
-9.8225689e-09
-5.552587e-08
-1.5186486e-08
-5.038677e-08
-2.2161953e-08
-4.3063786e-08
-3.0959034e-08
-3.3471705e-08
-4.1834564e-08
-2.1557618e-08
-5.5021468e-08
-7.2899335e-09
-7.0811758e-08
9.4452519e-09
-8.9392733e-08
2.8516774e-08
-1.1101568e-07
4.9969583e-08
-1.3591594e-07
7.3767205e-08
-1.6431802e-07
9.9855437e-08
-1.9643607e-07
1.2816105e-07
-2.3247203e-07
1.5859259e-07
-2.7261393e-07
1.9104119e-07
-3.1703408e-07
2.2538144e-07
-3.6588688e-07
2.6147257e-07
-4.1930764e-07
2.9915925e-07
-4.7741124e-07
3.382729e-07
-5.4029092e-07
3.7863302e-07
-6.0801721e-07
4.2004861e-07
-6.8063708e-07
4.6231966e-07
-7.5817315e-07
5.0523872e-07
-8.4062324e-07
5.4859234e-07
-9.2796005e-07
5.9216275e-07
-1.0201311e-06
6.3572939e-07
-1.1170586e-06
6.7907048e-07
-1.2186404e-06
7.2196467e-07
-1.3247497e-06
7.6419255e-07
-1.435236e-06
8.0553831e-07
-1.549926e-06
8.4579116e-07
-1.6686242e-06
8.8474679e-07
-1.7911143e-06
9.2220864e-07
-1.9171599e-06
9.5798915e-07
-2.0465064e-06
9.919109e-07
-2.1788822e-06
1.0238076e-06
-2.3140005e-06
1.053525e-06
-2.4515603e-06
1.0809218e-06
-2.5912493e-06
1.1058703e-06
-2.7327442e-06
1.128257e-06
-2.8757139e-06
1.147983e-06
-3.0198201e-06
1.1649645e-06
-3.1647201e-06
1.1791328e-06
-3.3100679e-06
1.1904344e-06
-3.4555164e-06
1.1988313e-06
-3.6007192e-06
1.2043004e-06
-3.745332e-06
1.2068334e-06
-3.8890144e-06
1.2064367e-06
-4.0314316e-06
1.2031305e-06
-4.1722556e-06
1.1969487e-06
-4.311167e-06
1.1879378e-06
-4.4478561e-06
1.1761568e-06
-4.582024e-06
1.1616758e-06
-4.7133839e-06
1.1445755e-06
-4.8416619e-06
1.1249464e-06
-4.9665982e-06
1.1028878e-06
-5.0879475e-06
1.0785068e-06
-5.2054797e-06
1.0519174e-06
-5.3189806e-06
1.0232398e-06
-5.4282521e-06
9.9259909e-07
-5.5331125e-06
9.6012449e-07
-5.6333969e-06
9.2594836e-07
-5.7289567e-06
8.9020534e-07
-5.8196603e-06
8.5303145e-07
-5.9053925e-06
8.1456326e-07
-5.9860543e-06
7.7493708e-07
-6.0615628e-06
7.342882e-07
-6.1318505e-06
6.9275024e-07
-6.1968654e-06
6.5045443e-07
6.075291e-07
1.2070171e-10
-4.9971684e-09
4.8024893e-10
-1.4905203e-08
1.0506063e-09
-2.4393714e-08
1.7829011e-09
-3.3193637e-08
2.5977289e-09
-4.1036868e-08
3.3909414e-09
-4.7711275e-08
4.0313083e-09
-5.3007771e-08
4.3744713e-09
-5.6752336e-08
4.2310419e-09
-5.8755523e-08
3.4317594e-09
-5.8857486e-08
1.7555186e-09
-5.6921796e-08
-1.0011902e-09
-5.2769162e-08
-5.0833885e-09
-4.6304571e-08
-1.0731103e-08
-3.7416072e-08
-1.8197685e-08
-2.6005124e-08
-2.771664e-08
-1.2038664e-08
-3.9640241e-08
4.6336652e-09
-5.4106101e-08
2.3911113e-08
-7.1423029e-08
4.5833701e-08
-9.1840583e-08
7.0387141e-08
-1.1560538e-07
9.7531997e-08
-1.4295557e-07
1.2720563e-07
-1.7411843e-07
1.5932391e-07
-2.0930836e-07
1.9378252e-07
-2.4872495e-07
2.3045779e-07
-2.9255112e-07
2.692076e-07
-3.4095107e-07
3.0987252e-07
-3.9406881e-07
3.5227699e-07
-4.5202672e-07
3.9623082e-07
-5.1492431e-07
4.4153061e-07
-5.828371e-07
4.8796139e-07
-6.5581571e-07
5.3529829e-07
-7.3388516e-07
5.8330816e-07
-8.170443e-07
6.3175148e-07
-9.0526556e-07
6.8038401e-07
-9.9849484e-07
7.2895866e-07
-1.0966516e-06
7.7722728e-07
-1.1996294e-06
8.2494238e-07
-1.3072958e-06
8.7185904e-07
-1.419494e-06
9.1773649e-07
-1.5360427e-06
9.6233988e-07
-1.6567377e-06
1.0054418e-06
-1.7813528e-06
1.0468237e-06
-1.9096413e-06
1.0862776e-06
-2.0413371e-06
1.1236067e-06
-2.1761568e-06
1.1586273e-06
-2.3138009e-06
1.1911691e-06
-2.4539557e-06
1.2210766e-06
-2.5962952e-06
1.2482098e-06
-2.740483e-06
1.2724448e-06
-2.886174e-06
1.293674e-06
-3.0330165e-06
1.3118069e-06
-3.1806539e-06
1.3267702e-06
-3.3287272e-06
1.3385077e-06
-3.476876e-06
1.3469802e-06
-3.6247413e-06
1.3521656e-06
-3.7719664e-06
1.3540586e-06
-3.9181995e-06
1.3526697e-06
-4.0630945e-06
1.3480255e-06
-4.2063133e-06
1.3401675e-06
-4.3475268e-06
1.3291513e-06
-4.4864164e-06
1.3150464e-06
-4.6226753e-06
1.2979347e-06
-4.7560097e-06
1.2779099e-06
-4.8861395e-06
1.2550762e-06
-5.0127994e-06
1.2295477e-06
-5.1357397e-06
1.2014471e-06
-5.254727e-06
1.1709047e-06
-5.3695444e-06
1.1380571e-06
-5.4799919e-06
1.1030466e-06
-5.585887e-06
1.0660196e-06
-5.6870647e-06
1.027126e-06
-5.7833772e-06
9.8651784e-07
-5.8746942e-06
9.4434849e-07
-5.9609027e-06
9.0077176e-07
-6.0419065e-06
8.5594089e-07
-6.1176261e-06
8.1000776e-07
-6.1879979e-06
7.631221e-07
-6.2529743e-06
7.1543081e-07
6.6707722e-07
2.0547082e-10
-5.2026392e-09
8.1436701e-10
-1.5514099e-08
1.7944518e-09
-2.5373799e-08
3.0890728e-09
-3.4488258e-08
4.6061322e-09
-4.2553927e-08
6.2314132e-09
-4.9336556e-08
7.8283874e-09
-5.4604746e-08
9.2367306e-09
-5.8160679e-08
1.0276708e-08
-5.9795498e-08
1.074616e-08
-5.932694e-08
1.0424207e-08
-5.6599843e-08
9.0730838e-09
-5.1418041e-08
6.4535277e-09
-4.3685015e-08
2.3224381e-09
-3.3284983e-08
-3.6013397e-09
-2.0081346e-08
-1.1629438e-08
-4.0105669e-09
-2.1984856e-08
1.4989086e-08
-3.4953474e-08
3.6879733e-08
-5.0816266e-08
6.1696491e-08
-6.9839923e-08
8.9410795e-08
-9.2288108e-08
1.1998019e-07
-1.184148e-07
1.5333232e-07
-1.4846203e-07
1.8937115e-07
-1.8265813e-07
2.2797861e-07
-2.2121581e-07
2.6901546e-07
-2.6433009e-07
3.1232188e-07
-3.1217619e-07
3.5771862e-07
-3.6490784e-07
4.0500864e-07
-4.2265586e-07
4.5397883e-07
-4.8552679e-07
5.0440154e-07
-5.5360179e-07
5.5603639e-07
-6.2693561e-07
6.0863211e-07
-7.0555591e-07
6.6192846e-07
-7.8946269e-07
7.1565826e-07
-8.7862803e-07
7.6954935e-07
-9.7299597e-07
8.2332661e-07
-1.0724827e-06
8.7671399e-07
-1.1769768e-06
9.2943652e-07
-1.28634e-06
9.8122226e-07
-1.4004078e-06
1.0318042e-06
-1.5189901e-06
1.0809222e-06
-1.6418729e-06
1.1283246e-06
-1.768819e-06
1.1737699e-06
-1.8995698e-06
1.2170284e-06
-2.0338466e-06
1.2578835e-06
-2.1713524e-06
1.296133e-06
-2.3117736e-06
1.3315902e-06
-2.454782e-06
1.364085e-06
-2.6000366e-06
1.3934645e-06
-2.7471858e-06
1.419594e-06
-2.8958693e-06
1.4423574e-06
-3.0457199e-06
1.4616576e-06
-3.1963661e-06
1.4774164e-06
-3.3474336e-06
1.4895752e-06