/*--------------------------------*- C++ -*----------------------------------*\
| =========                 |                                                 |
| \\      /  F ield         | OpenFOAM: The Open Source CFD Toolbox           |
|  \\    /   O peration     | Version:  2306                                  |
|   \\  /    A nd           | Website:  www.openfoam.com                      |
|    \\/     M anipulation  |                                                 |
\*---------------------------------------------------------------------------*/
FoamFile
{
    version     2.0;
    format      ascii;
    arch        "LSB;label=32;scalar=64";
    class       surfaceScalarField;
    location    "0.56";
    object      phi_0;
}
// * * * * * * * * * * * * * * * * * * * * * * * * * * * * * * * * * * * * * //

dimensions      [0 3 -1 0 0 0 0];

oriented        oriented;

internalField   nonuniform List<scalar> 
12640
(
-1.3949406e-09
-4.2185306e-08
-5.5787618e-09
-1.2653269e-07
-1.2543764e-08
-2.1070698e-07
-2.2275875e-08
-2.9456517e-07
-3.4753322e-08
-3.7793692e-07
-4.99471e-08
-4.6066026e-07
-6.7821372e-08
-5.4258237e-07
-8.8333699e-08
-6.2355436e-07
-1.1143527e-07
-7.0343129e-07
-1.3707106e-07
-7.8207198e-07
-1.6518009e-07
-8.5933909e-07
-1.9569569e-07
-9.3509929e-07
-2.2854572e-07
-1.0092235e-06
-2.6365284e-07
-1.0815872e-06
-3.0093476e-07
-1.1520705e-06
-3.4030456e-07
-1.2205587e-06
-3.8167095e-07
-1.2869421e-06
-4.2493874e-07
-1.3511168e-06
-4.7000885e-07
-1.4129842e-06
-5.1677912e-07
-1.4724519e-06
-5.6514403e-07
-1.5294336e-06
-6.1499555e-07
-1.5838489e-06
-6.6622338e-07
-1.6356239e-06
-7.1871508e-07
-1.684691e-06
-7.723567e-07
-1.7309893e-06
-8.2703312e-07
-1.7744643e-06
-8.8262789e-07
-1.8150679e-06
-9.3902442e-07
-1.852759e-06
-9.9610567e-07
-1.8875029e-06
-1.0537546e-06
-1.9192712e-06
-1.1118546e-06
-1.9480424e-06
-1.1702901e-06
-1.9738011e-06
-1.2289462e-06
-1.9965383e-06
-1.2877093e-06
-2.0162511e-06
-1.3464677e-06
-2.0329431e-06
-1.4051114e-06
-2.0466234e-06
-1.4635325e-06
-2.0573067e-06
-1.5216256e-06
-2.0650139e-06
-1.5792878e-06
-2.0697707e-06
-1.6364189e-06
-2.0716083e-06
-1.6929222e-06
-2.0705628e-06
-1.7487036e-06
-2.0666749e-06
-1.8036728e-06
-2.0599901e-06
-1.8577426e-06
-2.0505579e-06
-1.9108299e-06
-2.038432e-06
-1.9628548e-06
-2.02367e-06
-2.0137421e-06
-2.0063325e-06
-2.0634196e-06
-1.9864841e-06
-2.1118195e-06
-1.9641916e-06
-2.1588785e-06
-1.9395254e-06
-2.2045368e-06
-1.9125575e-06
-2.2487388e-06
-1.883363e-06
-2.2914334e-06
-1.8520186e-06
-2.3325732e-06
-1.8186022e-06
-2.3721153e-06
-1.7831942e-06
-2.4100206e-06
-1.7458754e-06
-2.4462546e-06
-1.7067278e-06
-2.4807858e-06
-1.6658346e-06
-2.5135873e-06
-1.6232792e-06
-2.5446362e-06
-1.5791448e-06
-2.5739132e-06
-1.5335158e-06
-2.6014022e-06
-1.4864758e-06
-2.6270918e-06
-1.4381082e-06
-2.6509727e-06
-1.3884958e-06
-2.6730402e-06
-1.3377212e-06
-2.6932925e-06
-1.2858659e-06
-2.7117306e-06
-1.2330107e-06
-2.7283584e-06
-1.1792345e-06
-2.743184e-06
-1.124616e-06
-2.7562163e-06
-1.0692317e-06
-2.7674687e-06
-1.0131571e-06
-2.7769554e-06
-9.5646587e-07
-2.7846942e-06
-8.9923006e-07
-2.7907046e-06
-8.4151967e-07
-2.7950084e-06
-7.8340333e-07
-2.7976289e-06
-7.2494718e-07
-2.7985914e-06
-6.6621548e-07
-2.7979234e-06
-6.072711e-07
-2.7956529e-06
-5.4817351e-07
-4.889812e-07
-1.3443206e-09
-4.0840986e-08
-5.3763289e-09
-1.2250068e-07
-1.2088703e-08
-2.039946e-07
-2.1468066e-08
-2.8518582e-07
-3.3493695e-08
-3.6591129e-07
-4.8138037e-08
-4.4601591e-07
-6.5367042e-08
-5.2535338e-07
-8.5140297e-08
-6.0378109e-07
-1.074114e-07
-6.8116018e-07
-1.3212804e-07
-7.5735534e-07
-1.5923218e-07
-8.3223494e-07
-1.8866037e-07
-9.0567107e-07
-2.2034403e-07
-9.7753988e-07
-2.5420946e-07
-1.0477218e-06
-2.901783e-07
-1.1161017e-06
-3.2816784e-07
-1.1825692e-06
-3.6809108e-07
-1.2470189e-06
-4.0985729e-07
-1.3093505e-06
-4.5337213e-07
-1.3694694e-06
-4.9853797e-07
-1.4272861e-06
-5.4525433e-07
-1.4827172e-06
-5.9341812e-07
-1.5356851e-06
-6.4292404e-07
-1.586118e-06
-6.9366468e-07
-1.6339504e-06
-7.4553113e-07
-1.6791229e-06
-7.9841331e-07
-1.7215819e-06
-8.5220014e-07
-1.7612812e-06
-9.0677966e-07
-1.7981795e-06
-9.6204018e-07
-1.8322425e-06
-1.0178692e-06
-1.8634421e-06
-1.0741553e-06
-1.8917562e-06
-1.1307875e-06
-1.9171689e-06
-1.1876555e-06
-1.9396703e-06
-1.2446503e-06
-1.9592564e-06
-1.3016646e-06
-1.975929e-06
-1.3585922e-06
-1.9896956e-06
-1.4153297e-06
-2.0005693e-06
-1.4717752e-06
-2.0085683e-06
-1.5278299e-06
-2.0137161e-06
-1.5833968e-06
-2.0160414e-06
-1.6383824e-06
-2.0155773e-06
-1.6926959e-06
-2.0123613e-06
-1.7462497e-06
-2.0064364e-06
-1.7989595e-06
-1.9978482e-06
-1.8507443e-06
-1.9866473e-06
-1.9015269e-06
-1.9728874e-06
-1.9512335e-06
-1.956626e-06
-1.9997941e-06
-1.9379235e-06
-2.0471424e-06
-1.9168432e-06
-2.0932163e-06
-1.8934514e-06
-2.137957e-06
-1.8678166e-06
-2.1813104e-06
-1.8400099e-06
-2.2232255e-06
-1.8101034e-06
-2.2636559e-06
-1.7781722e-06
-2.3025584e-06
-1.7442915e-06
-2.3398948e-06
-1.7085392e-06
-2.3756296e-06
-1.6709931e-06
-2.4097318e-06
-1.6317325e-06
-2.442174e-06
-1.5908369e-06
-2.4729324e-06
-1.5483866e-06
-2.5019868e-06
-1.5044613e-06
-2.5293211e-06
-1.4591416e-06
-2.5549218e-06
-1.4125073e-06
-2.5787793e-06
-1.3646383e-06
-2.6008873e-06
-1.3156134e-06
-2.6212421e-06
-1.265511e-06
-2.6398439e-06
-1.2144088e-06
-2.6566949e-06
-1.1623834e-06
-2.6718009e-06
-1.1095097e-06
-2.6851698e-06
-1.0558627e-06
-2.6968127e-06
-1.0015143e-06
-2.7067424e-06
-9.4653632e-07
-2.7149738e-06
-8.9099828e-07
-2.7215253e-06
-8.3496823e-07
-2.7264163e-06
-7.7851265e-07
-2.729668e-06
-7.2169534e-07
-2.7313039e-06
-6.6457969e-07
-2.7313486e-06
-6.0722631e-07
-2.7298289e-06
-5.496933e-07
-4.9203776e-07
-1.2958632e-09
-3.9545124e-08
-5.1825427e-09
-1.18614e-07
-1.1653086e-08
-1.9752405e-07
-2.0694733e-08
-2.7614416e-07
-3.2287842e-08
-3.5431818e-07
-4.6406148e-08
-4.318976e-07
-6.3017294e-08
-5.0874227e-07
-8.2082798e-08
-5.8471558e-07
-1.0355854e-07
-6.5968442e-07
-1.2739473e-07
-7.3351915e-07
-1.5353618e-07
-8.060935e-07
-1.8192246e-07
-8.7728477e-07
-2.1248824e-07
-9.4697413e-07
-2.4516343e-07
-1.0150466e-06
-2.7987334e-07
-1.0813917e-06
-3.165392e-07
-1.1459033e-06
-3.5507805e-07
-1.20848e-06
-3.9540349e-07
-1.2690251e-06
-4.3742549e-07
-1.3274474e-06
-4.8105097e-07
-1.3836606e-06
-5.26184e-07
-1.4375841e-06
-5.7272629e-07
-1.4891429e-06
-6.2057714e-07
-1.5382671e-06
-6.6963408e-07
-1.5848935e-06
-7.1979315e-07
-1.6289638e-06
-7.709487e-07
-1.6704264e-06
-8.2299462e-07
-1.7092352e-06
-8.75824e-07
-1.7453501e-06
-9.2932933e-07
-1.7787371e-06
-9.8340372e-07
-1.8093679e-06
-1.0379397e-06
-1.8372202e-06
-1.0928309e-06
-1.8622778e-06
-1.1479715e-06
-1.8845297e-06
-1.2032569e-06
-1.903971e-06
-1.2585837e-06
-1.9206022e-06
-1.31385e-06
-1.9344293e-06
-1.3689564e-06
-1.9454631e-06
-1.4238043e-06
-1.9537203e-06
-1.4782986e-06
-1.959222e-06
-1.5323458e-06
-1.9619941e-06
-1.5858555e-06
-1.9620676e-06
-1.6387398e-06
-1.959477e-06
-1.6909139e-06
-1.9542621e-06
-1.7422962e-06
-1.9464659e-06
-1.7928081e-06
-1.9361353e-06
-1.8423743e-06
-1.9233212e-06
-1.8909232e-06
-1.9080772e-06
-1.9383866e-06
-1.8904602e-06
-1.9846996e-06
-1.87053e-06
-2.0298014e-06
-1.8483496e-06
-2.0736348e-06
-1.8239835e-06
-2.116146e-06
-1.7974987e-06
-2.1572851e-06
-1.7689642e-06
-2.1970062e-06
-1.738451e-06
-2.2352669e-06
-1.7060309e-06
-2.2720281e-06
-1.6717778e-06
-2.307255e-06
-1.6357661e-06
-2.3409164e-06
-1.5980712e-06
-2.3729845e-06
-1.5587687e-06
-2.4034352e-06
-1.5179359e-06
-2.4322475e-06
-1.475649e-06
-2.4594044e-06
-1.4319848e-06
-2.4848916e-06
-1.38702e-06
-2.5086984e-06
-1.3408314e-06
-2.5308174e-06
-1.2934944e-06
-2.5512434e-06
-1.2450848e-06
-2.5699755e-06
-1.1956768e-06
-2.5870146e-06
-1.1453445e-06
-2.6023644e-06
-1.0941603e-06
-2.6160314e-06
-1.0421955e-06
-2.6280246e-06
-9.895212e-07
-2.6383554e-06
-9.3620542e-07
-2.6470377e-06
-8.823163e-07
-2.6540865e-06
-8.2791922e-07
-2.65952e-06
-7.7307921e-07
-2.6633574e-06
-7.1785787e-07
-2.6656201e-06
-6.6231711e-07
-2.6663307e-06
-6.0651515e-07
-2.6655143e-06
-5.5050971e-07
-4.94356e-07
-1.2494655e-09
-3.829566e-08
-4.996992e-09
-1.1486648e-07
-1.1235956e-08
-1.9128509e-07
-1.9954242e-08
-2.6742588e-07
-3.113312e-08
-3.4313929e-07
-4.4747645e-08
-4.1828308e-07
-6.0766964e-08
-4.9272293e-07
-7.915459e-08
-5.6632798e-07
-9.9868372e-08
-6.3897064e-07
-1.2286097e-07
-7.1052653e-07
-1.4807987e-07
-7.8087462e-07
-1.7546753e-07
-8.4989712e-07
-2.0496175e-07
-9.1747991e-07
-2.3649565e-07
-9.835127e-07
-2.6999821e-07
-1.0478892e-06
-3.0539429e-07
-1.1105073e-06
-3.4260487e-07
-1.1712693e-06
-3.815475e-07
-1.2300825e-06
-4.2213626e-07
-1.2868586e-06
-4.6428249e-07
-1.3415144e-06
-5.0789461e-07
-1.3939721e-06
-5.5287857e-07
-1.4441588e-06
-5.9913841e-07
-1.4920073e-06
-6.465761e-07
-1.5374557e-06
-6.9509229e-07
-1.5804477e-06
-7.4458602e-07
-1.6209327e-06
-7.9495565e-07
-1.6588655e-06
-8.4609894e-07
-1.6942069e-06
-8.9791285e-07
-1.7269231e-06
-9.5029466e-07
-1.7569859e-06
-1.003142e-06
-1.7843731e-06
-1.0563521e-06
-1.8090674e-06
-1.1098239e-06
-1.8310579e-06
-1.1634566e-06
-1.8503383e-06
-1.217151e-06
-1.8669079e-06
-1.2708091e-06
-1.8807711e-06
-1.3243347e-06
-1.8919375e-06
-1.3776335e-06
-1.9004215e-06
-1.4306134e-06
-1.906242e-06
-1.4831844e-06
-1.9094232e-06
-1.5352588e-06
-1.9099931e-06
-1.5867519e-06
-1.907984e-06
-1.6375815e-06
-1.9034325e-06
-1.6876683e-06
-1.896379e-06
-1.7369364e-06
-1.8868674e-06
-1.7853124e-06
-1.8749451e-06
-1.8327266e-06
-1.8606628e-06
-1.8791127e-06
-1.8440741e-06
-1.9244072e-06
-1.8252355e-06
-1.9685509e-06
-1.8042059e-06
-2.0114874e-06
-1.7810469e-06
-2.0531639e-06
-1.755822e-06
-2.0935315e-06
-1.7285966e-06
-2.1325449e-06
-1.6994377e-06
-2.1701616e-06
-1.6684141e-06
-2.2063435e-06
-1.635596e-06
-2.2410554e-06
-1.6010541e-06
-2.2742662e-06
-1.5648604e-06
-2.3059473e-06
-1.5270876e-06
-2.3360747e-06
-1.4878082e-06
-2.3646271e-06
-1.4470966e-06
-2.3915861e-06
-1.4050258e-06
-2.4169372e-06
-1.3616692e-06
-2.4406683e-06
-1.3171002e-06
-2.462771e-06
-1.2713917e-06
-2.4832396e-06
-1.2246163e-06
-2.5020708e-06
-1.1768455e-06
-2.5192647e-06
-1.1281504e-06
-2.534824e-06
-1.0786012e-06
-2.548753e-06
-1.0282666e-06
-2.5610593e-06
-9.7721472e-07
-2.5717526e-06
-9.2551217e-07
-2.5808449e-06
-8.7322391e-07
-2.58835e-06
-8.2041429e-07
-2.5942835e-06
-7.6714529e-07
-2.5986636e-06
-7.1347798e-07
-2.6015095e-06
-6.594713e-07
-2.6028416e-06
-6.05183e-07
-2.6026832e-06
-5.5066822e-07
-4.9598149e-07
-1.2050227e-09
-3.7090637e-08
-4.8192647e-09
-1.1125223e-07
-1.083643e-08
-1.8526793e-07
-1.9244965e-08
-2.5901733e-07
-3.0027073e-08
-3.323572e-07
-4.3158968e-08
-4.0515117e-07
-5.8611351e-08
-4.7727059e-07
-7.6349325e-08
-5.4858998e-07
-9.6332974e-08
-6.18987e-07
-1.185171e-07
-6.883424e-07
-1.4285171e-07
-7.5654e-07
-1.6928198e-07
-8.2346682e-07
-1.9774868e-07
-8.8901319e-07
-2.2818808e-07
-9.5307329e-07
-2.6053245e-07
-1.0155448e-06
-2.9471021e-07
-1.0763296e-06
-3.3064599e-07
-1.1353335e-06
-3.6826111e-07
-1.1924674e-06
-4.0747369e-07
-1.247646e-06
-4.4819903e-07
-1.3007891e-06
-4.9034967e-07
-1.3518214e-06
-5.3383591e-07
-1.4006726e-06
-5.7856593e-07
-1.4472773e-06
-6.2444612e-07
-1.4915755e-06
-6.7138136e-07
-1.5335125e-06
-7.1927516e-07
-1.5730388e-06
-7.6803043e-07
-1.6101103e-06
-8.1754889e-07
-1.6446883e-06
-8.6773227e-07
-1.6767397e-06
-9.1848187e-07
-1.7062364e-06
-9.6969927e-07
-1.7331556e-06
-1.0212864e-06
-1.7574804e-06
-1.0731457e-06
-1.7791986e-06
-1.1251806e-06
-1.7983034e-06
-1.1772957e-06
-1.8147928e-06
-1.2293967e-06
-1.8286701e-06
-1.281391e-06
-1.8399432e-06
-1.3331876e-06
-1.8486247e-06
-1.3846978e-06
-1.8547318e-06
-1.4358347e-06
-1.8582863e-06
-1.4865137e-06
-1.8593141e-06
-1.5366526e-06
-1.857845e-06
-1.586172e-06
-1.8539131e-06
-1.6349951e-06
-1.8475559e-06
-1.683048e-06
-1.8388144e-06
-1.7302599e-06
-1.8277333e-06
-1.7765626e-06
-1.8143601e-06
-1.8218914e-06
-1.7987453e-06
-1.8661847e-06
-1.7809421e-06
-1.9093843e-06
-1.7610065e-06
-1.9514349e-06
-1.7389962e-06
-1.9922852e-06
-1.7149719e-06
-2.0318868e-06
-1.6889951e-06
-2.0701946e-06
-1.6611298e-06
-2.1071672e-06
-1.6314415e-06
-2.1427666e-06
-1.5999968e-06
-2.1769575e-06
-1.5668632e-06
-2.2097087e-06
-1.5321091e-06
-2.2409923e-06
-1.495804e-06
-2.270783e-06
-1.4580178e-06
-2.2990589e-06
-1.4188208e-06
-2.3258016e-06
-1.3782829e-06
-2.3509958e-06
-1.336475e-06
-2.3746284e-06
-1.2934675e-06
-2.3966899e-06
-1.2493301e-06
-2.4171739e-06
-1.2041324e-06
-2.4360756e-06
-1.1579438e-06
-2.453394e-06
-1.1108321e-06
-2.46913e-06
-1.0628653e-06
-2.4832872e-06
-1.0141093e-06
-2.4958714e-06
-9.6463035e-07
-2.5068908e-06
-9.1449276e-07
-2.5163556e-06
-8.6375927e-07
-2.524278e-06
-8.1249193e-07
-2.5306722e-06
-7.6075133e-07
-2.5355538e-06
-7.085963e-07
-2.538941e-06
-6.5608441e-07
-2.5408527e-06
-6.0327126e-07
-2.5413098e-06
-5.5021141e-07
-4.9695737e-07
-1.1624437e-09
-3.5928191e-08
-4.6489908e-09
-1.0776568e-07
-1.0453641e-08
-1.7946328e-07
-1.8565403e-08
-2.5090558e-07
-2.8967309e-08
-3.2195527e-07
-4.1636759e-08
-3.9248173e-07
-5.6545771e-08
-4.6236158e-07
-7.3661187e-08
-5.3147455e-07
-9.2944955e-08
-5.9970324e-07
-1.1435404e-07
-6.6693332e-07
-1.3784079e-07
-7.3305329e-07
-1.63353e-07
-7.9795462e-07
-1.9083414e-07
-8.6153208e-07
-2.2022361e-07
-9.2368384e-07
-2.5145671e-07
-9.8431168e-07
-2.8446518e-07
-1.0433211e-06
-3.191772e-07
-1.1006215e-06
-3.5551773e-07
-1.1561269e-06
-3.9340848e-07
-1.2097552e-06
-4.3276868e-07
-1.2614289e-06
-4.7351473e-07
-1.3110753e-06
-5.1556106e-07
-1.3586263e-06
-5.588199e-07
-1.4040185e-06
-6.032016e-07
-1.4471938e-06
-6.4861537e-07
-1.4880988e-06
-6.949689e-07
-1.5266854e-06
-7.4216895e-07
-1.5629103e-06
-7.9012171e-07
-1.5967356e-06
-8.3873284e-07
-1.6281285e-06
-8.8790797e-07
-1.6570612e-06
-9.375523e-07
-1.6835113e-06
-9.8757193e-07
-1.7074607e-06
-1.0378731e-06
-1.7288973e-06
-1.0883633e-06
-1.7478133e-06
-1.1389504e-06
-1.7642057e-06
-1.1895439e-06
-1.7780766e-06
-1.2400544e-06
-1.7894327e-06
-1.2903947e-06
-1.7982845e-06
-1.3404786e-06
-1.8046479e-06
-1.3902226e-06
-1.8085424e-06
-1.4395448e-06
-1.8099919e-06
-1.4883659e-06
-1.8090239e-06
-1.536609e-06
-1.8056701e-06
-1.5841996e-06
-1.7999653e-06
-1.631066e-06
-1.7919481e-06
-1.6771393e-06
-1.7816601e-06
-1.7223533e-06
-1.7691461e-06
-1.7666452e-06
-1.7544536e-06
-1.8099545e-06
-1.7376329e-06
-1.8522246e-06
-1.7187363e-06
-1.8934014e-06
-1.6978195e-06
-1.9334343e-06
-1.674939e-06
-1.9722759e-06
-1.6501534e-06
-2.009882e-06
-1.6235238e-06
-2.046211e-06
-1.5951124e-06
-2.0812257e-06
-1.564982e-06
-2.1148914e-06
-1.5331975e-06
-2.1471762e-06
-1.4998243e-06
-2.1780519e-06
-1.4649283e-06
-2.2074937e-06
-1.4285762e-06
-2.235479e-06
-1.3908354e-06
-2.2619888e-06
-1.3517731e-06
-2.287007e-06
-1.3114571e-06
-2.3105201e-06
-1.2699543e-06
-2.3325175e-06
-1.2273326e-06
-2.3529915e-06
-1.1836583e-06
-2.3719373e-06
-1.1389981e-06
-2.3893514e-06
-1.0934179e-06
-2.4052344e-06
-1.0469822e-06
-2.4195883e-06
-9.9975553e-07
-2.4324173e-06
-9.5180151e-07
-2.4437284e-06
-9.0318166e-07
-2.4535299e-06
-8.5395753e-07
-2.4618332e-06
-8.0418884e-07
-2.4686501e-06
-7.5393449e-07
-2.4739951e-06
-7.0325112e-07
-2.4778847e-06
-6.5219479e-07
-2.4803354e-06
-6.0082028e-07
-2.481367e-06
-5.4917991e-07
-4.9732465e-07
-1.1216396e-09
-3.4806554e-08
-4.485811e-09
-1.0440151e-07
-1.0086797e-08
-1.7386229e-07
-1.7914121e-08
-2.4307825e-07
-2.7951649e-08
-3.1191776e-07
-4.0177805e-08
-3.8025557e-07
-5.4565972e-08
-4.4797342e-07
-7.1084587e-08
-5.1495591e-07
-8.9697321e-08
-5.8109052e-07
-1.1036319e-07
-6.4626743e-07
-1.3303682e-07
-7.1037965e-07
-1.5766843e-07
-7.7332303e-07
-1.8420404e-07
-8.349964e-07
-2.1258603e-07
-8.9530189e-07
-2.4275263e-07
-9.5414509e-07
-2.7463866e-07
-1.011435e-06
-3.0817573e-07
-1.0670845e-06
-3.4329196e-07
-1.1210106e-06
-3.7991293e-07
-1.1731343e-06
-4.1796118e-07
-1.2233807e-06
-4.5735725e-07
-1.2716793e-06
-4.9801901e-07
-1.3179645e-06
-5.3986261e-07
-1.3621748e-06
-5.8280257e-07
-1.4042538e-06
-6.267517e-07
-1.4441496e-06
-6.7162187e-07
-1.4818152e-06
-7.173238e-07
-1.5172084e-06
-7.6376749e-07
-1.5502919e-06
-8.1086258e-07
-1.5810334e-06
-8.5851845e-07
-1.6094054e-06
-9.0664452e-07
-1.6353852e-06
-9.551503e-07
-1.658955e-06
-1.003946e-06
-1.6801017e-06
-1.0529425e-06
-1.6988169e-06
-1.1020511e-06
-1.7150971e-06
-1.151185e-06
-1.7289428e-06
-1.200258e-06
-1.7403595e-06
-1.2491861e-06
-1.7493566e-06
-1.297886e-06
-1.755948e-06
-1.3462771e-06
-1.7601512e-06
-1.3942805e-06
-1.7619885e-06
-1.4418193e-06
-1.7614851e-06
-1.4888191e-06
-1.7586702e-06
-1.5352079e-06
-1.7535766e-06
-1.5809157e-06
-1.74624e-06
-1.6258761e-06
-1.7366998e-06
-1.6700244e-06
-1.7249977e-06
-1.7132996e-06
-1.7111785e-06
-1.7556425e-06
-1.6952897e-06
-1.7969982e-06
-1.6773807e-06
-1.8373133e-06
-1.6575044e-06
-1.8765384e-06
-1.6357137e-06
-1.914627e-06
-1.612065e-06
-1.9515351e-06
-1.5866156e-06
-1.9872228e-06
-1.5594249e-06
-2.0216521e-06
-1.5305528e-06
-2.0547886e-06
-1.5000611e-06
-2.0866011e-06
-1.4680116e-06
-2.1170614e-06
-1.434468e-06
-2.1461434e-06
-1.3994942e-06
-2.1738253e-06
-1.3631535e-06
-2.2000872e-06
-1.3255113e-06
-2.2249122e-06
-1.286632e-06
-2.2482865e-06
-1.24658e-06
-2.2701986e-06
-1.2054204e-06
-2.2906401e-06
-1.163217e-06
-2.3096045e-06
-1.1200338e-06
-2.3270881e-06
-1.0759341e-06
-2.34309e-06
-1.0309803e-06
-2.3576108e-06
-9.8523487e-07
-2.3706539e-06
-9.387586e-07
-2.3822243e-06
-8.9161125e-07
-2.3923295e-06
-8.4385236e-07
-2.4009788e-06
-7.9553983e-07
-2.4081828e-06
-7.4673021e-07
-2.413955e-06
-6.9747895e-07
-2.4183093e-06
-6.478406e-07
-2.4212618e-06
-5.9786805e-07
-2.4228294e-06
-5.4761188e-07
-4.9712268e-07
-1.0825261e-09
-3.3724028e-08
-4.3293858e-09
-1.0115465e-07
-9.7351388e-09
-1.6845654e-07
-1.7289799e-08
-2.3552359e-07
-2.6977992e-08
-3.0222958e-07
-3.877913e-08
-3.6845443e-07
-5.2667894e-08
-4.3408464e-07
-6.861418e-08
-4.9900964e-07
-8.6583373e-08
-5.6312133e-07
-1.065364e-07
-6.2631441e-07
-1.2842999e-07
-6.8848609e-07
-1.5221667e-07
-7.4953635e-07
-1.7784511e-07
-8.09368e-07
-2.0526009e-07
-8.6788692e-07
-2.3440289e-07
-9.2500229e-07
-2.6521123e-07
-9.8062662e-07
-2.9761977e-07
-1.034676e-06
-3.3156002e-07
-1.0870704e-06
-3.6696074e-07
-1.1377335e-06
-4.0374824e-07
-1.1865932e-06
-4.4184609e-07
-1.2335814e-06
-4.8117632e-07
-1.2786343e-06
-5.2165847e-07
-1.3216927e-06
-5.6321073e-07
-1.3627016e-06
-6.0574988e-07
-1.4016105e-06
-6.4919128e-07
-1.4383738e-06
-6.934496e-07
-1.47295e-06
-7.3843862e-07
-1.5053029e-06
-7.8407167e-07
-1.5354003e-06
-8.3026194e-07
-1.5632152e-06
-8.7692219e-07
-1.5887249e-06
-9.2396582e-07
-1.6119113e-06
-9.7130652e-07
-1.6327609e-06
-1.0188586e-06
-1.6512649e-06
-1.0665367e-06
-1.6674188e-06
-1.1142573e-06
-1.6812222e-06
-1.1619376e-06
-1.6926793e-06
-1.2094962e-06
-1.7017981e-06
-1.2568532e-06
-1.7085909e-06
-1.3039307e-06
-1.7130739e-06
-1.350652e-06
-1.715267e-06
-1.3969433e-06
-1.7151938e-06
-1.4427323e-06
-1.7128812e-06
-1.4879492e-06
-1.7083598e-06
-1.5325265e-06
-1.7016628e-06
-1.576399e-06
-1.6928271e-06
-1.6195046e-06
-1.6818921e-06
-1.6617832e-06
-1.6688999e-06
-1.7031779e-06
-1.653895e-06
-1.7436339e-06
-1.6369248e-06
-1.7831e-06
-1.6180382e-06
-1.8215276e-06
-1.5972862e-06
-1.8588706e-06
-1.5747219e-06
-1.8950862e-06
-1.5504e-06
-1.9301345e-06
-1.5243766e-06
-1.9639784e-06
-1.4967089e-06
-1.996584e-06
-1.4674556e-06
-2.0279193e-06
-1.4366763e-06
-2.0579568e-06
-1.4044306e-06
-2.0866703e-06
-1.3707804e-06
-2.1140371e-06
-1.3357867e-06
-2.1400374e-06
-1.2995109e-06
-2.164654e-06
-1.2620154e-06
-2.1878718e-06
-1.2233619e-06
-2.2096795e-06
-1.1836128e-06
-2.2300668e-06
-1.1428295e-06
-2.2490271e-06
-1.1010733e-06
-2.2665559e-06
-1.0584053e-06
-2.2826504e-06
-1.014886e-06
-2.2973106e-06
-9.7057461e-07
-2.3105385e-06
-9.2553052e-07
-2.3223381e-06
-8.7981156e-07
-2.3327156e-06
-8.3347497e-07
-2.3416784e-06
-7.865769e-07
-2.3492365e-06
-7.3917195e-07
-2.3554012e-06
-6.913143e-07
-2.3601852e-06
-6.4305658e-07
-2.3636032e-06
-5.9445003e-07
-2.3656706e-06
-5.455444e-07
-4.963884e-07
-1.0450197e-09
-3.2679006e-08
-4.179401e-09
-9.8020267e-08
-9.3979472e-09
-1.6323799e-07
-1.6691145e-08
-2.282304e-07
-2.6044324e-08
-2.9287642e-07
-3.74379e-08
-3.5706084e-07
-5.0847693e-08
-4.2067486e-07
-6.6245024e-08
-4.8361229e-07
-8.3596884e-08
-5.4576949e-07
-1.0286602e-07
-6.0704525e-07
-1.2401116e-07
-6.6734094e-07
-1.4698702e-07
-7.2656044e-07
-1.7174465e-07
-7.846104e-07
-1.9823133e-07
-8.4140023e-07
-2.2639104e-07
-8.968426e-07
-2.5616435e-07
-9.508533e-07
-2.8748883e-07
-1.0033515e-06
-3.2029912e-07
-1.0542601e-06
-3.5452719e-07
-1.1035055e-06
-3.9010244e-07
-1.1510179e-06
-4.2695215e-07
-1.1967317e-06
-4.650014e-07
-1.2405851e-06
-5.0417348e-07
-1.2825206e-06
-5.4439006e-07
-1.322485e-06
-5.8557137e-07
-1.3604292e-06
-6.2763662e-07
-1.3963086e-06
-6.7050371e-07
-1.4300828e-06
-7.1409029e-07
-1.4617163e-06
-7.5831318e-07
-1.4911775e-06
-8.0308887e-07
-1.5184395e-06
-8.4833412e-07
-1.5434797e-06
-8.9396549e-07
-1.5662799e-06
-9.3989994e-07
-1.5868265e-06
-9.8605515e-07
-1.6051098e-06
-1.0323492e-06
-1.6211246e-06
-1.0787015e-06
-1.63487e-06
-1.1250323e-06
-1.6463484e-06
-1.1712631e-06
-1.6555672e-06
-1.217317e-06
-1.6625369e-06
-1.2631184e-06
-1.6672724e-06
-1.308594e-06
-1.6697916e-06
-1.3536716e-06
-1.6701162e-06
-1.3982817e-06
-1.6682712e-06
-1.4423563e-06
-1.664285e-06
-1.4858302e-06
-1.6581888e-06
-1.5286401e-06
-1.6500173e-06
-1.5707255e-06
-1.6398069e-06
-1.6120278e-06
-1.6275976e-06
-1.6524916e-06
-1.6134313e-06
-1.6920638e-06
-1.5973525e-06
-1.730694e-06
-1.579408e-06
-1.7683343e-06
-1.5596458e-06
-1.8049401e-06
-1.5381161e-06
-1.8404691e-06
-1.5148711e-06
-1.8748816e-06
-1.4899639e-06
-1.9081412e-06
-1.4634492e-06
-1.940214e-06
-1.4353828e-06
-1.9710691e-06
-1.4058212e-06
-2.0006778e-06
-1.3748221e-06
-2.0290146e-06
-1.3424436e-06
-2.0560564e-06
-1.3087448e-06
-2.0817832e-06
-1.2737843e-06
-2.106177e-06
-1.2376217e-06
-2.1292227e-06
-1.2003163e-06
-2.1509078e-06
-1.1619279e-06
-2.1712219e-06
-1.1225155e-06
-2.1901569e-06
-1.0821383e-06
-2.2077075e-06
-1.0408547e-06
-2.2238706e-06
-9.98723e-07
-2.2386443e-06
-9.5580088e-07
-2.25203e-06
-9.1214488e-07
-2.2640304e-06
-8.6781101e-07
-2.2746504e-06
-8.2285484e-07
-2.2838963e-06
-7.773309e-07
-2.2917767e-06
-7.3129166e-07
-2.2983013e-06
-6.8478987e-07
-2.3034821e-06
-6.3787585e-07
-2.3073315e-06
-5.9060064e-07
-2.3098642e-06
-5.430115e-07
-4.9515665e-07
-1.0090505e-09
-3.1669956e-08
-4.0355506e-09
-9.4993767e-08
-9.0745472e-09
-1.58199e-07
-1.6116956e-08
-2.2118798e-07
-2.5148802e-08
-2.8384456e-07
-3.615141e-08
-3.4605823e-07
-4.9101704e-08
-4.0772458e-07
-6.3972362e-08
-4.6874165e-07
-8.0731869e-08
-5.2900997e-07
-9.9344701e-08
-5.884324e-07
-1.197715e-07
-6.4691415e-07
-1.4196909e-07
-7.0436287e-07
-1.6589065e-07
-7.6068881e-07
-1.9148603e-07
-8.1580493e-07
-2.1870147e-07
-8.6962704e-07
-2.4748057e-07
-9.2207427e-07
-2.7776345e-07
-9.7306861e-07
-3.0948783e-07
-1.0225358e-06
-3.4258858e-07
-1.0704047e-06
-3.7699837e-07
-1.1166081e-06
-4.1264748e-07
-1.1610825e-06
-4.4946434e-07
-1.2037682e-06
-4.8737559e-07
-1.2446094e-06
-5.2630623e-07
-1.2835544e-06
-5.6617986e-07
-1.3205555e-06
-6.0691912e-07
-1.3555693e-06
-6.4844547e-07
-1.3885565e-06
-6.9067971e-07
-1.4194821e-06
-7.335422e-07
-1.448315e-06
-7.7695295e-07
-1.4750287e-06
-8.2083189e-07
-1.4996008e-06
-8.6509876e-07
-1.522013e-06
-9.0967409e-07
-1.5422512e-06
-9.5447838e-07
-1.5603055e-06
-9.9943317e-07
-1.5761699e-06
-1.0444604e-06
-1.5898425e-06
-1.0894837e-06
-1.6013252e-06
-1.1344272e-06
-1.6106237e-06
-1.1792167e-06
-1.6177475e-06
-1.2237792e-06
-1.6227097e-06
-1.2680439e-06
-1.625527e-06
-1.311941e-06
-1.6262191e-06
-1.3554031e-06
-1.6248092e-06
-1.3983645e-06
-1.6213235e-06
-1.4407618e-06
-1.6157916e-06
-1.4825338e-06
-1.6082453e-06
-1.5236214e-06
-1.5987194e-06
-1.5639678e-06
-1.5872511e-06
-1.6035187e-06
-1.5738803e-06
-1.6422227e-06
-1.5586486e-06
-1.6800301e-06
-1.5416005e-06
-1.7168944e-06
-1.5227814e-06
-1.7527718e-06
-1.502239e-06
-1.7876199e-06
-1.4800227e-06
-1.821401e-06
-1.4561831e-06
-1.8540782e-06
-1.4307721e-06
-1.8856182e-06
-1.4038428e-06
-1.9159902e-06
-1.3754493e-06
-1.9451657e-06
-1.3456464e-06
-1.973119e-06
-1.3144902e-06
-1.9998273e-06
-1.2820367e-06
-2.0252696e-06
-1.2483418e-06
-2.0494279e-06
-1.2134631e-06
-2.072287e-06
-1.1774574e-06
-2.0938331e-06
-1.1403818e-06
-2.1140557e-06
-1.1022929e-06
-2.132946e-06
-1.0632482e-06
-2.1504974e-06
-1.0233032e-06
-2.1667058e-06
-9.825145e-07
-2.1815694e-06
-9.4093719e-07
-2.1950876e-06
-8.9862652e-07
-2.2072625e-06
-8.5563633e-07
-2.2180974e-06
-8.1202023e-07
-2.2275977e-06
-7.6783035e-07
-2.2357707e-06
-7.2311879e-07
-2.242625e-06
-6.7793559e-07
-2.2481704e-06
-6.3233053e-07
-2.2524192e-06
-5.8635169e-07
-2.2553844e-06
-5.4004678e-07
-4.9346135e-07
-9.7453984e-10
-3.0695416e-08
-3.8975468e-09
-9.2070767e-08
-8.7642826e-09
-1.5333226e-07
-1.55661e-08
-2.1438616e-07
-2.4289644e-08
-2.7512101e-07
-3.491711e-08
-3.3543076e-07
-4.7426494e-08
-3.952152e-07
-6.1791714e-08
-4.5437643e-07
-7.7982701e-08
-5.1281899e-07
-9.5965615e-08
-5.7044948e-07
-1.1570279e-07
-6.2717696e-07
-1.3715312e-07
-6.8291258e-07
-1.6027187e-07
-7.3757004e-07
-1.8501109e-07
-7.9106569e-07
-2.1131961e-07
-8.4331853e-07
-2.3914337e-07
-8.9425054e-07
-2.6842534e-07
-9.4378665e-07
-2.991058e-07
-9.9185524e-07
-3.3112268e-07
-1.0383878e-06
-3.6441144e-07
-1.0833193e-06
-3.9890564e-07
-1.1265884e-06
-4.3453663e-07
-1.1681373e-06
-4.7123415e-07
-1.2079118e-06
-5.089265e-07
-1.245862e-06
-5.4754059e-07
-1.2819415e-06
-5.8700216e-07
-1.3161078e-06
-6.2723594e-07
-1.3483227e-06
-6.6816621e-07
-1.3785518e-06
-7.0971633e-07
-1.4067649e-06
-7.5180957e-07
-1.4329355e-06
-7.9436898e-07
-1.4570413e-06
-8.3731772e-07
-1.4790642e-06
-8.8057914e-07
-1.4989897e-06
-9.2407695e-07
-1.5168076e-06
-9.677356e-07
-1.5325114e-06
-1.01148e-06
-1.5460981e-06
-1.0552364e-06
-1.5575689e-06
-1.0989316e-06
-1.5669284e-06
-1.1424943e-06
-1.5741849e-06
-1.185854e-06
-1.5793502e-06
-1.2289418e-06
-1.5824392e-06
-1.2716908e-06
-1.5834702e-06
-1.3140353e-06
-1.5824646e-06
-1.355912e-06
-1.5794469e-06
-1.3972594e-06
-1.5744443e-06
-1.4380175e-06
-1.5674869e-06
-1.4781297e-06
-1.5586072e-06
-1.5175402e-06
-1.5478405e-06
-1.5561965e-06
-1.5352242e-06
-1.5940476e-06
-1.5207973e-06
-1.6310459e-06
-1.5046022e-06
-1.6671455e-06
-1.4866818e-06
-1.7023031e-06
-1.4670814e-06
-1.7364782e-06
-1.4458477e-06
-1.7696322e-06
-1.4230289e-06
-1.8017297e-06
-1.3986746e-06
-1.8327375e-06
-1.372835e-06
-1.8626247e-06
-1.3455621e-06
-1.8913632e-06
-1.3169079e-06
-1.9189276e-06
-1.286926e-06
-1.9452943e-06
-1.2556697e-06
-1.9704428e-06
-1.2231933e-06
-1.9943547e-06
-1.1895513e-06
-2.0170139e-06
-1.1547984e-06
-2.0384062e-06
-1.1189891e-06
-2.0585208e-06
-1.0821784e-06
-2.0773481e-06
-1.0444209e-06
-2.0948809e-06
-1.0057704e-06
-2.1111143e-06
-9.6628109e-07
-2.1260451e-06
-9.2600654e-07
-2.1396723e-06
-8.8499936e-07
-2.1519965e-06
-8.433122e-07
-2.16302e-06
-8.0099614e-07
-2.1727479e-06
-7.5810286e-07
-2.1811852e-06
-7.1468122e-07
-2.1883402e-06
-6.7078073e-07
-2.1942212e-06
-6.2644943e-07
-2.1988389e-06
-5.8173409e-07
-2.202205e-06
-5.3668073e-07
-4.9133414e-07
-9.414277e-10
-2.9753986e-08
-3.7651152e-09
-8.9247076e-08
-8.4665586e-09
-1.4863082e-07
-1.5037494e-08
-2.0781523e-07
-2.3465165e-08
-2.6669335e-07
-3.3732602e-08
-3.2516333e-07
-4.5818805e-08
-3.83129e-07
-5.9698859e-08
-4.4049636e-07
-7.5344102e-08
-4.9717374e-07
-9.2722182e-08
-5.5307142e-07
-1.1179723e-07
-6.0810192e-07
-1.3252989e-07
-6.6217989e-07
-1.5487753e-07
-7.1522242e-07
-1.7879433e-07
-7.6714892e-07
-2.0423145e-07
-8.1788141e-07
-2.3113716e-07
-8.6734481e-07
-2.5945691e-07
-9.154669e-07
-2.8913373e-07
-9.6217837e-07
-3.2010826e-07
-1.0074133e-06
-3.5231883e-07
-1.0511088e-06
-3.8570165e-07
-1.0932056e-06
-4.2019117e-07
-1.1336477e-06
-4.5572028e-07
-1.1723828e-06
-4.9222014e-07
-1.2093621e-06
-5.2962081e-07
-1.2445408e-06
-5.6785087e-07
-1.2778776e-06
-6.0683862e-07
-1.309335e-06
-6.4651101e-07
-1.3388794e-06
-6.8679481e-07
-1.366481e-06
-7.2761632e-07
-1.3921141e-06
-7.6890148e-07
-1.4157562e-06
-8.1057657e-07
-1.4373892e-06
-8.5256787e-07
-1.4569985e-06
-8.9480205e-07
-1.4745734e-06
-9.372062e-07
-1.490107e-06
-9.7970838e-07
-1.503596e-06
-1.0222373e-06
-1.5150401e-06
-1.0647224e-06
-1.5244432e-06
-1.1070947e-06
-1.5318126e-06
-1.1492862e-06
-1.5371586e-06
-1.1912306e-06
-1.5404948e-06
-1.2328629e-06
-1.5418379e-06
-1.2741198e-06
-1.5412077e-06
-1.3149398e-06
-1.5386269e-06
-1.3552629e-06
-1.5341211e-06
-1.3950318e-06
-1.5277182e-06
-1.4341902e-06
-1.5194487e-06
-1.4726849e-06
-1.5093459e-06
-1.5104642e-06
-1.4974449e-06
-1.5474786e-06
-1.4837829e-06
-1.5836815e-06
-1.4683994e-06
-1.6190279e-06
-1.4513353e-06
-1.6534756e-06
-1.4326337e-06
-1.6869845e-06
-1.4123388e-06
-1.7195171e-06
-1.3904964e-06
-1.7510382e-06
-1.3671535e-06
-1.781515e-06
-1.3423584e-06
-1.8109168e-06
-1.3161602e-06
-1.8392159e-06
-1.2886088e-06
-1.8663866e-06
-1.2597552e-06
-1.8924055e-06
-1.2296509e-06
-1.9172517e-06
-1.198347e-06
-1.9409068e-06
-1.1658962e-06
-1.963354e-06
-1.1323511e-06
-1.9845796e-06
-1.0977637e-06
-2.004571e-06
-1.0621871e-06
-2.0233187e-06
-1.0256731e-06
-2.0408149e-06
-9.8827436e-07
-2.0570534e-06
-9.5004255e-07
-2.0720305e-06
-9.1102947e-07
-2.0857445e-06
-8.7128554e-07
-2.0981949e-06
-8.308619e-07
-2.1093831e-06
-7.8980803e-07
-2.1193128e-06
-7.4817307e-07
-2.1279883e-06
-7.0600568e-07
-2.1354164e-06
-6.6335262e-07
-2.1416047e-06
-6.2026109e-07
-2.1465623e-06
-5.7677614e-07
-2.1503002e-06
-5.3294315e-07
-4.8880461e-07
-9.0964745e-10
-2.8844342e-08
-3.6380154e-09
-8.6518711e-08
-8.1807959e-09
-1.4408804e-07
-1.4530102e-08
-2.0146593e-07
-2.2673779e-08
-2.5854965e-07
-3.2595588e-08
-3.1524151e-07
-4.4275501e-08
-3.7144908e-07
-5.7689771e-08
-4.2708211e-07
-7.2810969e-08
-4.8205252e-07
-8.9608265e-08
-5.3627412e-07
-1.0804734e-07
-5.8966282e-07
-1.2809064e-07
-6.421366e-07
-1.4969748e-07
-6.9361557e-07
-1.7282405e-07
-7.4402231e-07
-1.9742366e-07
-7.9328179e-07
-2.2344683e-07
-8.4132161e-07
-2.5084157e-07
-8.8807219e-07
-2.7955334e-07
-9.3346669e-07
-3.0952521e-07
-9.7744136e-07
-3.4069836e-07
-1.0199357e-06
-3.730117e-07
-1.0608922e-06
-4.064025e-07
-1.1002569e-06
-4.408064e-07
-1.1379789e-06