/*--------------------------------*- C++ -*----------------------------------*\
| =========                 |                                                 |
| \\      /  F ield         | OpenFOAM: The Open Source CFD Toolbox           |
|  \\    /   O peration     | Version:  2106                                  |
|   \\  /    A nd           | Website:  www.openfoam.com                      |
|    \\/     M anipulation  |                                                 |
\*---------------------------------------------------------------------------*/
FoamFile
{
    version     2.0;
    format      ascii;
    arch        "LSB;label=32;scalar=64";
    class       volScalarField;
    location    "0.15";
    object      p;
}
// * * * * * * * * * * * * * * * * * * * * * * * * * * * * * * * * * * * * * //

dimensions      [1 -1 -2 0 0 0 0];

internalField   nonuniform List<scalar> 
32768
(
334.29647
334.31227
334.28625
334.22409
334.12165
333.97697
333.78994
333.56067
333.28949
332.97666
332.62238
332.22674
331.78981
331.31169
330.79248
330.23236
329.63135
328.9894
328.30654
327.58264
326.81792
326.01181
325.16509
324.27649
323.34681
322.37681
321.36005
320.31344
319.20283
318.0817
316.88418
315.66371
314.4096
313.07209
311.74017
310.34268
308.87457
307.41555
305.88623
304.28394
302.68843
301.03365
299.30562
297.56405
295.77698
293.93776
292.0646
290.13554
288.16973
286.18683
284.14606
282.04749
279.93416
277.79387
275.59889
273.37272
271.1268
268.83375
266.50405
264.17076
261.80887
259.40793
256.9763
254.5323
252.08333
249.59165
247.08167
244.59158
242.06766
239.50578
236.96787
234.40722
231.82558
229.2731
226.69462
224.10789
221.53979
218.94632
216.35178
213.78435
211.20221
208.62261
206.08477
203.52288
200.95097
198.44256
195.92244
193.3797
190.89837
188.41912
185.93192
183.50269
181.07309
178.63098
176.25293
173.90119
171.52466
169.18438
166.90093
164.61463
162.33856
160.11563
157.91649
155.70823
153.53305
151.43293
149.34968
147.24238
145.19305
143.21699
141.21911
139.21491
137.30157
135.43277
133.53016
131.6664
129.90041
128.15478
126.39256
124.67
123.01884
121.37714
119.70592
118.07826
116.53035
114.98885
113.43973
111.9482
110.51277
109.07433
107.63784
106.24821
104.89976
103.55738
102.22896
100.92922
99.646727
98.38297
97.135492
95.904706
94.706384
93.558285
92.466207
91.404783
90.357991
89.319548
88.283983
87.252021
86.231209
85.23442
84.280153
83.36277
82.460244
81.57978
80.743423
79.942527
79.152424
78.374491
77.635359
76.923096
76.208927
75.481901
74.752685
74.102403
73.6143
73.272861
72.936639
72.427903
71.966128
71.668024
71.185492
70.546191
69.910564
69.414577
69.057321
68.830963
68.74346
68.741374
68.811505
68.946143
69.101982
69.310752
69.525494
69.6681
69.729371
69.670158
69.48845
69.211087
68.745878
68.106128
67.408191
66.665745
65.912656
65.229354
64.448602
63.306461
61.755004
59.941684
58.01941
56.085182
53.889653
51.273232
48.607659
46.098927
43.741278
42.208358
41.806467
41.119437
38.827666
34.988413
30.52698
27.254037
26.071679
26.198815
26.468023
28.230593
23.583597
13.810441
21.188618
1.5413223
1.0697942
1.1663782
1.0341282
0.86290374
0.74984885
0.6682011
0.6060019
0.55692356
0.51709119
0.48407066
0.45624185
0.43247397
0.41195765
0.39409651
0.37843524
0.36462296
0.352384
0.34150071
0.33179443
0.32312056
0.31536104
0.30841554
0.30220893
0.29666664
0.29173016
0.28735117
0.28348814
0.28010651
0.27717365
0.27466769
0.27256731
0.27085532
0.26952
0.26854978
0.26793971
0.2676971
325.54449
325.55858
325.53323
325.47212
325.36927
325.22429
325.03715
324.80796
324.53701
324.22433
323.8699
323.4739
323.03653
322.55796
322.03831
321.47761
320.87594
320.23331
319.54983
318.82522
318.05998
317.25303
316.40598
315.51635
314.58662
313.61524
312.59903
311.54954
310.44132
309.31591
308.11913
306.90127
305.63958
304.30697
302.9754
301.56487
300.11083
298.64783
297.10225
295.51845
293.91886
292.2447
290.53221
288.79313
286.98795
285.15404
283.28484
281.34813
279.38288
277.39748
275.34903
273.25491
271.14442
268.99291
266.79254
264.57239
262.32425
260.02362
257.6951
255.36307
252.99199
250.58567
248.15972
245.71883
243.2587
240.75889
238.26123
235.76576
233.22581
230.67438
228.14024
225.56768
222.99334
220.4355
217.84314
215.27125
212.70099
210.0931
207.51004
204.94344
202.34697
199.77552
197.23506
194.65603
192.10449
189.6013
187.04955
184.52268
182.05848
179.55028
177.06835
174.65509
172.20119
169.76513
167.41059
165.03504
162.64371
160.33613
158.05449
155.73395
153.46521
151.27055
149.0571
146.8278
144.67598
142.5906
140.47365
138.36102
136.348
134.36409
132.33465
130.35307
128.46346
126.56507
124.64818
122.81352
121.05464
119.28688
117.5137
115.80724
114.16835
112.51639
110.84803
109.24592
107.69995
106.13432
104.57637
103.09984
101.67567
100.23141
98.78541
97.404337
96.070351
94.723221
93.378907
92.076174
90.8096
89.553253
88.297645
87.069028
85.885775
84.742855
83.637451
82.556598
81.502175
80.47265
79.449807
78.427734
77.408431
76.407275
75.44408
74.519402
73.622465
72.759981
71.930117
71.119677
70.326228
69.540129
68.775902
68.053926
67.349712
66.643424
65.970231
65.380004
64.879976
64.435136
63.997011
63.544564
63.195104
62.70894
62.098955
61.591113
61.11402
60.683936
60.387091
60.235672
60.139518
60.134891
60.238129
60.390158
60.555274
60.76362
60.944623
61.028976
61.036621
60.946505
60.747791
60.4033
59.910843
59.360226
58.744029
57.951321
57.099743
56.343462
55.445457
54.227307
52.777777
51.064277
49.05008
46.955376
44.824013
42.252202
40.014717
37.997444
35.561166
33.129009
31.730047
30.906812
29.309971
26.511126
22.355575
18.915651
17.416895
16.702207
13.194819
10.278087
23.854332
45.16477
2.3839384
0.4329919
0.77719533
0.94980911
0.87713576
0.78253078
0.70199237
0.6356178
0.58137817
0.53678992
0.49969297
0.46843952
0.44180732
0.41887979
0.39897374
0.38156824
0.36625293
0.35270849
0.34068056
0.32996617
0.32039467
0.31183119
0.3041634
0.29729801
0.29115042
0.2856581
0.2807647
0.27642176
0.27258888
0.26923134
0.26632207
0.26383507
0.2617499
0.26005068
0.2587234
0.25775993
0.25715551
0.25691475
316.77387
316.78745
316.76225
316.70116
316.59797
316.45261
316.26509
316.03556
315.76418
315.45118
315.09664
314.70068
314.26348
313.7851
313.26559
312.70498
312.10336
311.46069
310.77711
310.05225
309.28686
308.4793
307.63236
306.74135
305.81265
304.83843
303.8249
302.77095
301.66619
300.53543
299.34035
298.12279
296.85356
295.5297
294.18981
292.77579
291.33259
289.85546
288.30748
286.73738
285.11987
283.44328
281.74486
279.98688
278.18005
276.35795
274.4703
272.52928
270.57687
268.57966
266.51634
264.43248
262.32083
260.15362
257.95456
255.73891
253.476
251.16518
248.84859
246.51604
244.12498
241.71472
239.29491
236.85034
234.37639
231.87747
229.3917
226.87637
224.32247
221.78773
219.24429
216.66056
214.10342
211.52885
208.92945
206.37437
203.77831
201.16352
198.60626
196.02286
193.41272
190.86724
188.30641
185.70917
183.19398
180.6642
178.08654
175.60847
173.12442
170.58408
168.14604
165.72114
163.23489
160.83493
158.48255
156.06865
153.69018
151.40145
149.09698
146.76892
144.51966
142.32966
140.10025
137.86775
135.74378
133.6567
131.50208
129.40908
127.42953
125.39848
123.33706
121.41784
119.55567
117.60417
115.68374
113.89738
112.12422
110.31545
108.57244
106.91372
105.23897
103.52638
101.888
100.34721
98.787798
97.199915
95.666233
94.191803
92.731474
91.281473
89.851876
88.464536
87.125261
85.793384
84.461468
83.164364
81.91065
80.663382
79.402192
78.165928
76.978278
75.838205
74.737026
73.666054
72.63085
71.603031
70.558223
69.525816
68.512325
67.512196
66.549798
65.625195
64.727152
63.867572
63.027934
62.207236
61.423752
60.640701
59.870992
59.150572
58.44729
57.759184
57.122764
56.534983
55.990089
55.494705
55.034648
54.593988
54.170244
53.687071
53.196031
52.736666
52.296252
51.924961
51.694229
51.559007
51.465779
51.488007
51.623171
51.779056
51.9645
52.183607
52.316566
52.35228
52.36332
52.278164
52.098223
51.766692
51.248161
50.642232
50.010693
49.252249
48.494728
47.693691
46.55718
45.184004
43.820046
42.234443
40.33355
38.517829
36.677177
33.662524
30.304924
28.282853
26.122692
23.910526
23.307764
23.475699
22.16764
16.007475
10.105666
6.9782335
6.4137409
3.1969523
-1.2430858
8.8345882
25.05313
3.0645811
0.072743121
0.44991099
0.66475896
0.73167271
0.72434291
0.68375116
0.63477005
0.58742744
0.54489207
0.50769203
0.47542678
0.44744925
0.42310763
0.40184485
0.3831667
0.36668104
0.35207608
0.33908897
0.3275042
0.31714277
0.30786173
0.29953776
0.29206698
0.28536468
0.27935469
0.27397746
0.26918095
0.26492001
0.26115619
0.25785694
0.25499552
0.25254838
0.25049633
0.24882344
0.24751651
0.24656696
0.24597127
0.2457311
307.98515
307.99829
307.97297
307.91167
307.80806
307.66217
307.47406
307.24388
306.97181
306.65803
306.30263
305.90574
305.46746
304.98791
304.46718
303.90532
303.3024
302.65839
301.97344
301.2472
300.48034
299.67139
298.82286
297.93035
297.00025
296.02375
295.01024
293.95167
292.84937
291.71227
290.51805
289.29874
288.02222
286.70349
285.3565
283.93804
282.4989
281.01338
279.45962
277.89432
276.26815
274.58477
272.88791
271.1227
269.31242
267.48604
265.58769
263.64664
261.69479
259.68268
257.60918
255.53185
253.41111
251.23268
249.03119
246.81035
244.53485
242.21795
239.90745
237.56431
235.15467
232.74373
230.32335
227.87063
225.38485
222.88638
220.40438
217.86422
215.30517
212.78013
210.21705
207.63345
205.08926
202.48686
199.88717
197.34208
194.71357
192.10362
189.56795
186.95827
184.34425
181.81778
179.22458
176.62244
174.13728
171.57021
168.98849
166.55086
164.02917
161.47506
159.07465
156.61842
154.11591
151.75673
149.38735
146.93706
144.59971
142.3309
139.96262
137.63082
135.44547
133.23686
130.95076
128.75664
126.68832
124.54607
122.35269
120.3152
118.34736
116.26648
114.2094
112.32512
110.44984
108.48677
106.60148
104.84226
103.04219
101.18534
99.456026
97.854202
96.181945
94.427561
92.7911
91.273387
89.699706
88.087307
86.584179
85.163441
83.683074
82.177549
80.763196
79.416172
78.052008
76.685102
75.381318
74.129602
72.891262
71.644146
70.395055
69.182098
68.00565
66.844019
65.683171
64.570511
63.556704
62.567484
61.543693
60.524844
59.527102
58.541839
57.585728
56.639107
55.708568
54.83088
53.978398
53.155827
52.371887
51.582078
50.835509
50.155583
49.459632
48.765623
48.147629
47.586743
47.043289
46.524165
46.038808
45.576713
45.116897
44.627093
44.127893
43.670349
43.266175
42.966014
42.830796
42.750003
42.688479
42.754855
42.902113
43.061598
43.343549
43.657241
43.758853
43.727629
43.705837
43.634136
43.496919
42.964342
42.434793
41.990156
41.133978
40.118298
39.376094
38.78288
37.736771
36.51774
35.420863
33.906078
31.400769
29.506349
28.227881
24.583969
20.314856
20.004845
16.095212
10.641318
8.5579136
12.349156
17.628399
16.017538
5.120981
1.6484729
0.03615875
-0.20781661
0.93967395
2.13619
0.72024031
-0.093646299
0.055417691
0.31676782
0.48760677
0.5659171
0.59143108
0.58344452
0.5598209
0.53049159
0.50040149
0.471797
0.44554402
0.42184647
0.40061572
0.38164451
0.36470223
0.34955633
0.33599399
0.32382973
0.31290319
0.30307563
0.29423005
0.2862641
0.27909071
0.27263482
0.26683445
0.26163439
0.25698694
0.2528522
0.24919459
0.24598499
0.24319848
0.24081336
0.23881202
0.23717955
0.23590392
0.23497698
0.23439568
0.23416062
299.17843
299.19119
299.16555
299.10376
298.99955
298.85294
298.66402
298.43296
298.15993
297.84509
297.4886
297.09056
296.6511
296.17032
295.64831
295.08513
294.48087
293.8355
293.14914
292.42148
291.65312
290.84266
289.99251
289.09832
288.16663
287.188
286.17333
285.11173
284.00897
282.86804
281.67264
280.45072
279.16894
277.85261
276.4978
275.07643
273.6399
272.14164
270.58752
269.02335
267.38453
265.69765
264.00078
262.22603
260.40966
258.57917
256.67078
254.72752
252.77032
250.74392
248.66424
246.5858
244.45373
242.26781
240.05503
237.82774
235.54609
233.22066
230.90653
228.54795
226.1282
223.71505
221.28637
218.82676
216.32905
213.8277
211.33966
208.77673
206.2292
203.70032
201.10897
198.53652
195.99029
193.35472
190.77152
188.22809
185.56326
182.97203
180.44386
177.79888
175.19725
172.68011
170.04528
167.45487
164.9801
162.37336
159.81925
157.39747
154.83475
152.29784
149.90558
147.41425
144.91719
142.57189
140.18862
137.72577
135.38905
133.14267
130.77763
128.41338
126.23576
124.05858
121.73863
119.53032
117.5041
115.34454
113.12967
111.12889
109.1547
107.0231
105.0057
103.1873
101.2578
99.248278
97.42853
95.695867
93.849657
92.000316
90.302563
88.665805
86.966505
85.262138
83.663537
82.117458
80.527027
78.933895
77.409602
75.967725
74.531802
73.048785
71.611114
70.284326
68.951556
67.561146
66.225377
64.974684
63.748837
62.514182
61.287914
60.091477
58.939087
57.82188
56.67769
55.532179
54.44222
53.40027
52.391735
51.415527
50.441234
49.476076
48.542327
47.612301
46.709808
45.825284
44.90917
44.041441
43.249202
42.452508
41.716157
41.067369
40.392
39.707392
39.108121
38.557797
37.995529
37.455404
36.957743
36.474367
36.007152
35.557736
35.111388
34.663645
34.309414
34.110562
33.970763
33.837505
33.841842
34.00031
34.164197
34.362919
34.712052
35.028092
35.152613
35.243968
35.296486
35.038314
34.906147
34.278751
33.136775
32.685444
32.253972
31.575343
30.862676
30.1106
28.853713
27.000395
25.841591
24.573057
21.971146
21.262423
20.409777
15.03877
9.5993647
10.301874
8.1299276
-0.6447515
4.528622
11.000183
11.441942
1.0005453
-0.094491402
-0.33506997
-0.20861481
-0.15501578
-0.22031587
-0.26047511
-0.54280587
-0.21281716
0.028766139
0.22347872
0.3637064
0.44300398
0.48147949
0.49209984
0.48606905
0.47115297
0.45217612
0.43192281
0.41190125
0.39286883
0.37516234
0.35887825
0.34401631
0.33049986
0.31822685
0.30709437
0.29700216
0.28785594
0.27957036
0.27206853
0.26528247
0.25915203
0.25362566
0.2486568
0.24420525
0.24023572
0.23671908
0.23362966
0.23094318
0.22864068
0.22670701
0.22512867
0.22389512
0.22299875
0.22243703
0.22221047
290.35388
290.36623
290.3401
290.27761
290.17261
290.02509
289.83516
289.60299
289.32877
289.01265
288.6548
288.25535
287.81441
287.33208
286.80847
286.24363
285.63764
284.99048
284.30225
283.5727
282.80229
281.98989
281.13743
280.24126
279.30699
278.32613
277.30909
276.24436
275.13995
273.99497
272.79728
271.57226
270.28506
268.96867
267.60645
266.18204
264.74403
263.23395
261.68138
260.1107
258.46064
256.77419
255.06834
253.28287
251.46577
249.62342
247.70212
245.76193
243.79067
241.7463
239.6685
237.57996
235.43215
233.24124
231.01377
228.77673
226.48629
224.15626
221.83084
219.44787
217.02771
214.60798
212.16586
209.69727
207.18546
204.68314
202.17593
199.59361
197.06811
194.51987
191.90463
189.34936
186.77573
184.11398
181.55247
178.99779
176.31354
173.7378
171.19936
168.52222
165.93639
163.42423
160.75384
158.17856
155.70024
153.05872
150.52881
148.10106
145.50444
142.99746
140.61006
138.08068
135.59957
133.27602
130.85521
128.39208
126.08704
123.79392
121.40374
119.10265
116.92206
114.67247
112.37726
110.24413
108.17184
105.94936
103.78655
101.82728
99.821785
97.673646
95.665148
93.861003
91.944578
89.920339
88.102691
86.405513
84.528541
82.66
81.023667
79.381955
77.617667
75.945816
74.413867
72.839847
71.201312
69.651193
68.191661
66.693439
65.173459
63.737806
62.377699
61.02358
59.668635
58.339157
57.034814
55.736886
54.471859
53.240946
52.038712
50.851273
49.695691
48.590797
47.488434
46.407372
45.355251
44.268214
43.19567
42.189487
41.201705
40.244802
39.324085
38.38225
37.479601
36.636767
35.776534
34.934008
34.110037
33.27101
32.503396
31.848941
31.213758
30.563305
29.970231
29.420918
28.843792
28.280342
27.781287
27.29505
26.808269
26.3357
25.903242
25.526474
25.20323
24.956942
24.826504
24.754445
24.825625
25.094923
25.452842
25.854399
26.328062
26.568942
26.597182
26.786178
26.897204
26.635985
26.362564
26.052324
24.800631
23.691837
22.351966
21.407716
21.475016
21.537657
20.882103
18.11275
17.086862
15.969214
10.480544
8.8488186
9.4887393
6.7385651
5.4488635
6.2700618
-0.53272275
-0.36010125
-0.92742229
-0.52936222
-0.27735491
-0.13278886
-0.10267615
-0.1210595
-0.15302708
-0.20805469
-0.28872779
-0.2712231
-0.27112989
-0.12610756
0.029037854
0.16964727
0.27755697
0.34944168
0.3920086
0.4124408
0.41769118
0.41332873
0.40334623
0.39040747
0.37619916
0.36174396
0.34763401
0.3341968
0.32158788
0.30986711
0.29904228
0.28908721
0.27995894
0.27160752
0.26398147
0.25703036
0.25070664
0.24496634
0.23976973
0.23508066
0.23086696
0.22710007
0.22375564
0.22081081
0.21824614
0.2160458
0.21419594
0.21268479
0.21150327
0.21064449
0.21010693
0.20989059
281.51177
281.52364
281.49688
281.4335
281.3275
281.17886
280.98771
280.75422
280.47857
280.16093
279.80147
279.40032
278.95761
278.47344
277.94792
277.3811
276.77305
276.12378
275.43334
274.70154
273.92873
273.114
272.25885
271.36033
270.42297
269.43971
268.41935
267.35167
266.24446
265.09511
263.89522
262.66525
261.37349
260.0557
258.68387
257.25891
255.81553
254.29374
252.74338
251.16271
249.50053
247.81523
246.09733
244.2996
242.4819
240.62227
238.6928
236.75111
234.75787
232.69864
230.62848
228.51798
226.35078
224.15599
221.9166
219.66644
217.35956
215.02623
212.68468
210.27306
207.86362
205.4311
202.96702
200.48379
197.96127
195.46171
192.92331
190.3305
187.82246
185.2454
182.61012
180.06923
177.46218
174.79361
172.2429
169.65942
166.97042
164.40368
161.83792
159.14353
156.58048
154.05083
151.36176
148.81625
146.30941
143.65483
141.14837
138.67512
136.06536
133.58346
131.18028
128.63875
126.17183
123.86702
121.41998
118.92948
116.66544
114.38434
111.93198
109.64067
107.52309
105.2052
102.85273
100.82036
98.770656
96.471375
94.326646
92.403845
90.34692
88.213862
86.284476
84.415652
82.435465
80.501838
78.709156
76.952174
75.101554
73.285799
71.629666
69.965142
68.21551
66.538507
65.005746
63.471114
61.836199
60.219116
58.777736
57.392774
55.854649
54.3168
52.985438
51.697767
50.299934
48.952541
47.718707
46.465314
45.176827
43.925899
42.727199
41.539452
40.404374
39.285912
38.152473
37.07726
36.077471
35.075999
34.029781
33.002641
31.993969
30.993819
30.032614
29.083012
28.174722
27.295807
26.419074
25.644978
24.900537
24.090721
23.324683
22.648301
21.963945
21.298762
20.752448
20.232279
19.709717
19.181647
18.646522
18.150135
17.741244
17.217769
16.600302
16.153312
15.922545
15.774598
15.591535
15.460976
15.575314
15.923749
16.416236
16.970681
17.695761
18.156935
18.322381
18.422679
18.310362
18.000196
17.702072
17.276191
15.011131
14.165225
13.842979
12.791373
11.523082
10.907817
11.903602
9.4967734
6.0461863
4.6647992
3.4071657
9.3496588
4.3130288
0.4770121
-0.4378579
-0.47976931
-0.26877973
-0.22458744
-0.36381268
-0.43692638
-0.33552579
-0.22298513
-0.17477764
-0.17065783
-0.1649891
-0.17675146
-0.20515517
-0.19438985
-0.15831644
-0.070601489
0.032493411
0.13267407
0.21607799
0.27800825
0.31962883
0.34435848
0.35627845
0.35913532
0.35595406
0.34898849
0.33982835
0.32955135
0.3188638
0.3082168
0.29788237
0.28802337
0.27872761
0.27003415
0.26195226
0.25447333
0.24757839
0.24124279
0.23543941
0.23014062
0.22531953
0.22095063
0.21701019
0.21347665
0.21033003
0.20755281
0.20513028
0.20304883
0.20129664
0.1998641
0.19874316
0.19792861
0.19741912
0.19721488
272.65235
272.66369
272.63615
272.5717
272.46451
272.31456
272.12197
271.88693
271.60962
271.29021
270.92887
270.52575
270.08098
269.59466
269.06691
268.49777
267.88732
267.23556
266.54254
265.80812
265.03251
264.21504
263.3568
262.45548
261.51461
260.52841
259.50433
258.43307
257.32258
256.16838
254.96546
253.73019
252.43357
251.11212
249.73172
248.30519
246.85296
245.32305
243.77131
242.17722
240.50568
238.8195
237.08563
235.27534
233.45723
231.57569
229.6418
227.68766
225.67541
223.60582
221.53382
219.39456
217.2158
215.01267
212.75851
210.49137
208.16805
205.82646
203.46492
201.02894
198.628
196.1752
193.6881
191.18786
188.65825
186.155
183.58148
180.9899
178.47171
175.88402
173.22896
170.67867
168.05384
165.39285
162.82429
160.22266
157.53281
154.95444
152.37482
149.6499
147.11564
144.58313
141.83947
139.31974
136.82609
134.13674
131.63357
129.16026
126.53205
124.05581
121.63841
119.07688
116.62427
114.32279
111.84824
109.36243
107.09757
104.79328
102.37183
100.10327
97.946189
95.618828
93.301686
91.239801
89.148759
86.90263
84.794648
82.831412
80.749077
78.625741
76.730001
74.889594
72.850847
70.896561
69.210434
67.418021
65.481641
63.784514
62.178501
60.393007
58.673001
57.089424
55.464294
53.864097
52.335394
50.772418
49.248823
47.862918
46.43319
44.914099
43.487808
42.173969
40.863019
39.540664
38.253866
36.991849
35.735557
34.543178
33.361754
32.129534
31.019162
29.946484
28.775458
27.657402
26.626185
25.57172
24.599836
23.654401
22.640071
21.699869
20.808213
19.827425
18.882825
18.012821
17.063191
16.174209
15.381465
14.548335
13.806501
13.325698
12.767869
11.985849
11.30621
10.815146
10.33493
9.8870848
9.4178737
8.9426878
8.6865638
8.1880498
7.5251618
6.8938541
6.2987993
5.9928516
6.0579724
6.1519544
6.425575
6.8538748
7.70861
8.4579263
9.3070572
9.8371566
10.312255
10.61904
10.180946
9.5238515
9.8381658
8.6931465
5.8714666
2.1767879
1.6227801
2.4261402
2.0248128
1.2377557
3.9069365
8.4488383
6.4335209
0.7748544
-0.7396582
-0.4960377
-0.12783346
-0.0235052
-0.20279279
-0.30879571
-0.23925967
-0.287864
-0.47287054
-0.38925339
-0.30707721
-0.23885372
-0.20443019
-0.18724296
-0.17524324
-0.17166997
-0.16820393
-0.14811052
-0.10866369
-0.044221038
0.030316932
0.10456208
0.17002173
0.22227927
0.26065763
0.28646859
0.30193007
0.30943079
0.31113078
0.30880095
0.303805
0.29714865
0.28954945
0.28150702
0.27335968
0.26533296
0.25757204
0.25016663
0.24316867
0.23660479
0.23048479
0.22480757
0.21956519
0.2147456
0.21033461
0.20631709
0.2026778
0.19940197
0.19647566
0.19388605
0.19162209
0.18967315
0.18803008
0.18668529
0.18563264
0.18486801
0.18439014
0.18420021
263.77597
263.78669
263.75826
263.69256
263.58399
263.43252
263.23828
263.00146
262.72224
262.4008
262.03732
261.63195
261.18482
260.69605
260.16574
259.59396
258.98077
258.32617
257.63022
256.89279
256.11402
255.29341
254.4317
253.52714
252.58237
251.5928
250.56445
249.48929
248.37482
247.21524
246.00931
244.76701
243.46657
242.13909
240.74995
239.32231
237.85771
236.32161
234.76595
233.15545
231.47815
229.78574
228.03439
226.21296
224.39167
222.48395
220.54734
218.57714
216.54383
214.46534
212.38355
210.21503
208.02811
205.80704
203.54327
201.25219
198.91185
196.5565
194.17382
191.71927
189.31429
186.84041
184.32879
181.81365
179.27739
176.76002
174.16219
171.5539
169.04022
166.44157
163.75731
161.17524
158.5569
155.90172
153.29571
150.67775
147.99636
145.41103
142.81995
140.0576
137.53129
135.00533
132.22661
129.6963
127.21292
124.51476
121.99345
119.52985
116.89198
114.41913
111.99782
109.40132
106.9736
104.66854
102.13756
99.682973
97.455651
95.082606
92.648494
90.44284
88.265739
85.877249
83.631796
81.60693
79.400384
77.156529
75.156642
73.151107
71.019726
68.966971
67.024524
65.163642
63.239505
61.24891
59.510509
57.771646
55.807287
54.100076
52.571071
50.778272
49.008815
47.469516
45.895226
44.223083
42.624113
41.143504
39.718295
38.271864
36.79819
35.407204
34.0494
32.592595
31.214164
29.9911
28.76394
27.453917
26.129221
25.019668
23.877369
22.610228
21.510715
20.522232
19.438734
18.281483
17.236094
16.103713
14.958264
14.074232
13.123321
12.082829
11.31402
10.509338
9.5294489
8.7107697
7.7951461
6.8459543
6.0532777
4.9739614
3.8826321
3.5762793
3.4413368
3.1191718
2.72975
2.5011243
2.3440678
2.1613478
1.9582051
1.8183334
1.7328095
1.5155005
1.208754
0.97286025
0.80438485
0.6551711
0.54522216
0.52524423
0.648163
0.8874112
1.2637047
1.782676
2.3886406
2.9443916
3.4112549
3.5096405
2.9475153
2.3426756
2.3093336
1.712072
0.28684901
-0.22726231
-0.32446611
-0.33603269
-0.40924587
-0.48945071
-0.52204286
-0.48789772
-0.39163387
-0.31831882
-0.3699467
-0.36674851
-0.26045823
-0.24266211
-0.27724611
-0.28728358
-0.25599583
-0.27741439
-0.33233137
-0.32139837
-0.28328433
-0.24317038
-0.21422789
-0.19383693
-0.17772279
-0.16417391
-0.14827287
-0.12203647
-0.084319181
-0.033567067
0.023580278
0.080979298
0.13334338
0.17735471
0.21181746
0.2370091
0.25402456
0.26431781
0.26936577
0.27049261
0.26880048
0.265162
0.26024353
0.25454084
0.2484144
0.24212195
0.23584437
0.22970616
0.22379095
0.21815312
0.21282632
0.2078297
0.20317218
0.19885588
0.19487837
0.1912344
0.18791688
0.18491811
0.18222903
0.17984177
0.17774934
0.17594443
0.17442026
0.17317125
0.17219316
0.17148267
0.17103933
0.17086532
254.883
254.89302
254.86356
254.79644
254.68631
254.53311
254.337
254.09817
253.8168
253.49308
253.12719
252.71929
252.26951
251.77797
251.24479
250.67003
250.05375
249.39598
248.69672
247.95592
247.17362
246.34946
245.48392
244.57568
243.62664
242.6332
241.60021
240.52059
239.40168
238.23625
237.02664
235.77698
234.4721
233.13722
231.74002
230.30897
228.83099
227.29001
225.72687
224.09798
222.41914
220.71276
218.94446
217.11434
215.28048
213.35308
211.40708
209.41708
207.36411
205.28027
203.1736
200.97712
198.78996
196.5387
194.26736
191.94455
189.59013
187.21916
184.81327
182.34333
179.91262
177.42894
174.89129
172.36452
169.81472
167.26924
164.65796
162.06895
159.49342
156.85173
154.21635
151.59797
148.96659
146.28916
143.68441
141.03789
138.3255
135.78418
133.15458
130.36018
127.86986
125.29063
122.48062
120.01742
117.48278
114.72254
112.26834
109.78918
107.10159
104.6657
102.24228
99.596977
97.20149
94.897998
92.310289
89.886101
87.68591
85.267681
82.850431
80.638549
78.433492
76.073149
73.806424
71.784541
69.596987
67.313946
65.322281
63.352132
61.215543
59.190191
57.233664
55.287942
53.382318
51.524922
49.773404
47.944589
46.055909
44.369834
42.712486
40.97104
39.350218
37.750381
36.115399
34.542587
32.914317
31.309195
29.974254
28.650009
27.078718
25.659223
24.453722
23.024704
21.542086
20.285625
19.094851
17.826666
16.440791
15.31265
14.302923
12.981024
11.799755
10.901098
9.7817317
8.719252
7.8562528
6.5196419
5.2816103
4.4410171
3.6471163
3.2117414
2.8963797
2.5144435
2.0681249
1.7260171
1.3261125
0.91127762
0.54518355
0.18302857
-0.19614072
-0.32911867
-0.39581132
-0.43826019
-0.47468516
-0.50425483
-0.49943001
-0.45716679
-0.40532205
-0.35404274
-0.30632047
-0.27271016
-0.25677918
-0.25947221
-0.27967397
-0.31195221
-0.34447442
-0.36742389
-0.37868901
-0.37596608
-0.35366811
-0.32887514
-0.31394733
-0.3132146
-0.33427565
-0.37375333
-0.41959877
-0.45513587
-0.4629229
-0.43082099
-0.34944523
-0.2785601
-0.25496758
-0.28229237
-0.35449572
-0.43307421
-0.4888154
-0.49914032
-0.44862322
-0.4091916
-0.42271399
-0.36445414
-0.29656896
-0.27740609
-0.28450322
-0.28496561
-0.27783877
-0.28735965
-0.29854159
-0.28932728
-0.26642573
-0.23972118
-0.21556924
-0.19469679
-0.17602011
-0.15751647
-0.13588215
-0.10863309
-0.074035628
-0.032121439
0.013692501
0.059678492
0.10253758
0.13987731
0.17053052
0.19430832
0.21168416
0.22350417
0.23074443
0.23436101
0.23520925
0.23401062
0.23134929
0.22768452
0.22336908
0.21866919
0.21378274
0.20885472
0.2039899
0.1992629
0.19472538
0.190413
0.18634884
0.18254721
0.17901601
0.17575897
0.17277643
0.17006648
0.1676267
0.16545358
0.16354301
0.16189062
0.16049264
0.15934574
0.15844671
0.15779395
0.1573875
0.15723049
245.97385
245.98309
245.95248
245.88379
245.7719
245.61678
245.41858
245.1775
244.89373
244.56747
244.19889
243.78816
243.33543
242.84082
242.30445
241.72638
241.10668
240.44538
239.74248
238.99793
238.21174
237.38364
236.51391
235.60154
234.64791
233.65013
232.61206
231.52766
230.40356
229.23217
228.018
226.7605
225.45117
224.10715
222.70269
221.26553
219.77417
218.22816
216.65471
215.00757
213.32708
211.60283
209.81509
207.98134
206.12544
204.17946
202.22246
200.21101
198.1374
196.04293
193.90551
191.6908
189.49293
187.20816
184.9259
182.5748
180.20654
177.80844
175.38374
172.8907
170.43916
167.95141
165.36954
162.82879
160.27628
157.68076
155.06915
152.48893
149.82873
147.21534
144.5821
141.89678
139.29183
136.57863
133.95948
131.31849
128.55525
126.04381
123.37474
120.54822
118.10719
115.4787
112.61417
110.21853
107.67852
104.8353
102.40216
99.923368
97.216618
94.791735
92.352605
89.70877
87.293571
84.972985
82.390052
79.966895
77.774245
75.329005
72.903633
70.729718
68.485881
66.137157
63.909614
61.818742
59.631665
57.434319
55.376007
53.336754
51.319775
49.296247
47.303567
45.418734
43.400824
41.514116
39.919539
38.055022
36.204582
34.652181
32.815037
30.922278
29.46018
27.925002
26.21224
24.708116
23.164657
21.482891
20.102776
18.861687
17.320865
15.799891
14.615482
13.284479
11.863483
10.52035
9.3352199
8.1535229
6.4703178
5.2795394
4.3200372
3.5247893
3.0132679
2.5886511
2.1284754
1.6609161
1.2041804
0.74497594
0.30395998
-0.094703859
-0.14913139
-0.14668869
-0.13756778
-0.13451903
-0.13510177
-0.137308
-0.14452015
-0.16144313
-0.18935724
-0.23035379
-0.28728869
-0.34332257
-0.40646089
-0.46649611
-0.5121187
-0.52874074
-0.51412311
-0.46268295
-0.39245229
-0.33122972
-0.28742046
-0.25975613
-0.253009
-0.26108263
-0.28237895
-0.31993671
-0.35881539
-0.38977649
-0.40591812
-0.39648743
-0.36891865
-0.33890849
-0.31676514
-0.310681
-0.32943172
-0.37093728
-0.42323548
-0.47126421
-0.49550418
-0.46354964
-0.37209055
-0.29501659
-0.27197852
-0.32327205
-0.39499173
-0.42986667
-0.4434018
-0.43360496
-0.40852605
-0.38678966
-0.38303409
-0.35303378
-0.31778741
-0.29932629
-0.29297125
-0.28846107
-0.28431746
-0.28470142
-0.28290253
-0.27246564
-0.25517293
-0.23454964
-0.21369899
-0.19352651
-0.17357536
-0.153109
-0.13019171
-0.10337183
-0.07194094
-0.036234994
0.0017633095
0.039747411
0.075612047
0.10764748
0.13487986
0.15694954
0.17400971
0.18652516
0.19512188
0.20047251
0.20322197
0.20394708
0.2031401
0.20120727
0.19847546
0.19520263
0.19158932
0.18778929
0.18391928
0.18006607
0.17629596
0.17265635
0.16918079
0.16589335
0.1628118
0.15994732
0.15730642
0.15489313
0.1527104
0.15075777
0.14903496
0.14754062
0.14627387
0.14523319
0.1444169
0.14382461
0.14345689
0.14331761
237.049
237.05736
237.02549
236.95505
236.84122
236.68397
236.48345
236.23989
235.95347
235.6244
235.25286
234.83902
234.38304
233.88505
233.34516
232.76346
232.14
231.47483
230.76794
230.01928
229.22885
228.39642
227.52213
226.60526
225.64664
224.64414
223.60058
222.51101
221.38118
220.20347
218.98407
217.71831
216.40403
215.05021
213.63836
212.19276
210.68841