/*--------------------------------*- C++ -*----------------------------------*\
| =========                 |                                                 |
| \\      /  F ield         | OpenFOAM: The Open Source CFD Toolbox           |
|  \\    /   O peration     | Version:  2106                                  |
|   \\  /    A nd           | Website:  www.openfoam.com                      |
|    \\/     M anipulation  |                                                 |
\*---------------------------------------------------------------------------*/
FoamFile
{
    version     2.0;
    format      ascii;
    arch        "LSB;label=32;scalar=64";
    class       surfaceScalarField;
    location    "0.01";
    object      phi;
}
// * * * * * * * * * * * * * * * * * * * * * * * * * * * * * * * * * * * * * //

dimensions      [0 3 -1 0 0 0 0];

oriented        oriented;

internalField   nonuniform List<scalar> 
130560
(
1.9070707e-05
-1.9070707e-05
3.8129035e-05
-1.9058328e-05
5.7162613e-05
-1.9033578e-05
7.615909e-05
-1.8996477e-05
9.5106144e-05
-1.8947054e-05
0.00011399149
-1.8885347e-05
0.0001328029
-1.8811405e-05
0.00015152818
-1.8725283e-05
0.00017015523
-1.8627049e-05
0.00018867201
-1.8516779e-05
0.00020706657
-1.8394558e-05
0.00022532705
-1.826048e-05
0.00024344169
-1.8114648e-05
0.00026139887
-1.7957175e-05
0.00027918705
-1.7788181e-05
0.00029679484
-1.7607796e-05
0.000314211
-1.7416157e-05
0.00033142441
-1.7213412e-05
0.00034842413
-1.6999715e-05
0.00036519936
-1.6775228e-05
0.00038173948
-1.6540121e-05
0.00039803405
-1.6294573e-05
0.00041407282
-1.6038769e-05
0.00042984572
-1.5772901e-05
0.00044534289
-1.5497169e-05
0.00046055467
-1.521178e-05
0.00047547162
-1.4916946e-05
0.0004900845
-1.4612887e-05
0.00050438433
-1.4299828e-05
0.00051836233
-1.3978001e-05
0.00053200997
-1.3647642e-05
0.00054531897
-1.3308995e-05
0.00055828128
-1.2962306e-05
0.0005708891
-1.2607829e-05
0.00058313492
-1.224582e-05
0.00059501147
-1.187654e-05
0.00060651172
-1.1500256e-05
0.00061762896
-1.1117237e-05
0.00062835671
-1.0727756e-05
0.0006386888
-1.0332089e-05
0.00064861932
-9.9305162e-06
0.00065814264
-9.5233193e-06
0.00066725342
-9.1107833e-06
0.00067594662
-8.6931953e-06
0.00068421746
-8.2708443e-06
0.00069206148
-7.8440212e-06
0.0006994745
-7.4130184e-06
0.00070645263
-6.9781292e-06
0.00071299228
-6.5396483e-06
0.00071909015
-6.0978709e-06
0.00072474324
-5.6530926e-06
0.00072994885
-5.2056092e-06
0.00073470457
-4.7557168e-06
0.00073900828
-4.3037108e-06
0.00074285817
-3.8498862e-06
0.0007462527
-3.3945375e-06
0.00074919066
-2.937958e-06
0.0007516711
-2.4804399e-06
0.00075369338
-2.0222739e-06
0.00075525712
-1.5637491e-06
0.00075636228
-1.1051528e-06
0.00075700905
-6.4677029e-07
0.00075719793
-1.8888562e-07
0.00075692972
2.6821764e-07
0.00075620545
7.2426473e-07
0.00075502646
1.1789955e-06
0.00075339434
1.6321137e-06
0.00075131098
2.0833584e-06
0.00074877852
2.5324648e-06
0.00074579935
2.9791702e-06
0.00074237613
3.4232155e-06
0.00073851179
3.8643451e-06
0.00073420948
4.3023077e-06
0.00072947262
4.7368556e-06
0.00072430488
5.1677452e-06
0.00071871014
5.5947369e-06
0.00071269255
6.0175957e-06
0.00070625646
6.4360907e-06
0.00069940646
6.8499955e-06
0.00069214737
7.259088e-06
0.00068448422
7.663151e-06
0.00067642225
8.0619718e-06
0.00066796691
8.4553422e-06
0.00065912385
8.843059e-06
0.00064989892
9.2249237e-06
0.00064029818
9.6007425e-06
0.00063032786
9.9703267e-06
0.00061999436
1.0333492e-05
0.0006093043
1.069006e-05
0.00059826445
1.1039856e-05
0.00058688174
1.1382711e-05
0.00057516327
1.1718461e-05
0.00056311633
1.2046946e-05
0.00055074832
1.2368011e-05
0.00053806681
1.2681508e-05
0.00052507952
1.2987291e-05
0.0005117943
1.3285221e-05
0.00049821913
1.3575162e-05
0.00048436215
1.3856985e-05
0.00047023159
1.4130564e-05
0.00045583581
1.4395778e-05
0.0004411833
1.4652512e-05
0.00042628264
1.4900653e-05
0.00041114255
1.5140097e-05
0.00039577181
1.5370739e-05
0.00038017932
1.5592484e-05
0.00036437408
1.5805237e-05
0.00034836517
1.6008911e-05
0.00033216175
1.6203422e-05
0.00031577306
1.6388689e-05
0.00029920843
1.6564637e-05
0.00028247723
1.6731195e-05
0.00026558893
1.6888297e-05
0.00024855305
1.7035879e-05
0.00023137917
1.7173882e-05
0.00021407692
1.7302253e-05
0.00019665598
1.7420942e-05
0.00017912608
1.7529901e-05
0.00016149699
1.7629088e-05
0.00014377852
1.7718465e-05
0.00012598052
1.7797998e-05
0.00010811287
1.7867656e-05
9.0185457e-05
1.7927412e-05
7.2208213e-05
1.7977244e-05
5.4191082e-05
1.8017131e-05
3.6144021e-05
1.8047061e-05
1.8077001e-05
1.806702e-05
1.4632521e-15
1.8077001e-05
-1.8077001e-05
1.8077001e-05
-3.6144021e-05
1.806702e-05
-5.4191082e-05
1.8047061e-05
-7.2208213e-05
1.8017131e-05
-9.0185457e-05
1.7977244e-05
-0.00010811287
1.7927412e-05
-0.00012598052
1.7867656e-05
-0.00014377852
1.7797998e-05
-0.00016149699
1.7718465e-05
-0.00017912608
1.7629088e-05
-0.00019665598
1.7529901e-05
-0.00021407692
1.7420942e-05
-0.00023137917
1.7302253e-05
-0.00024855305
1.7173882e-05
-0.00026558893
1.7035879e-05
-0.00028247723
1.6888297e-05
-0.00029920843
1.6731195e-05
-0.00031577306
1.6564637e-05
-0.00033216175
1.6388689e-05
-0.00034836517
1.6203422e-05
-0.00036437408
1.6008911e-05
-0.00038017932
1.5805237e-05
-0.00039577181
1.5592484e-05
-0.00041114255
1.5370739e-05
-0.00042628264
1.5140097e-05
-0.0004411833
1.4900653e-05
-0.00045583581
1.4652512e-05
-0.00047023159
1.4395778e-05
-0.00048436215
1.4130564e-05
-0.00049821913
1.3856985e-05
-0.0005117943
1.3575162e-05
-0.00052507952
1.3285221e-05
-0.00053806681
1.2987291e-05
-0.00055074832
1.2681508e-05
-0.00056311633
1.2368011e-05
-0.00057516327
1.2046946e-05
-0.00058688174
1.1718461e-05
-0.00059826445
1.1382711e-05
-0.0006093043
1.1039856e-05
-0.00061999436
1.069006e-05
-0.00063032786
1.0333492e-05
-0.00064029818
9.9703267e-06
-0.00064989892
9.6007425e-06
-0.00065912385
9.2249237e-06
-0.00066796691
8.843059e-06
-0.00067642225
8.4553422e-06
-0.00068448422
8.0619718e-06
-0.00069214737
7.663151e-06
-0.00069940646
7.259088e-06
-0.00070625646
6.8499955e-06
-0.00071269255
6.4360907e-06
-0.00071871014
6.0175957e-06
-0.00072430488
5.5947369e-06
-0.00072947262
5.1677452e-06
-0.00073420948
4.7368556e-06
-0.00073851179
4.3023077e-06
-0.00074237613
3.8643451e-06
-0.00074579935
3.4232155e-06
-0.00074877852
2.9791702e-06
-0.00075131098
2.5324648e-06
-0.00075339434
2.0833584e-06
-0.00075502646
1.6321137e-06
-0.00075620545
1.1789955e-06
-0.00075692972
7.2426473e-07
-0.00075719793
2.6821764e-07
-0.00075700905
-1.8888562e-07
-0.00075636228
-6.4677029e-07
-0.00075525712
-1.1051528e-06
-0.00075369338
-1.5637491e-06
-0.0007516711
-2.0222739e-06
-0.00074919066
-2.4804399e-06
-0.0007462527
-2.937958e-06
-0.00074285817
-3.3945375e-06
-0.00073900828
-3.8498862e-06
-0.00073470457
-4.3037108e-06
-0.00072994885
-4.7557168e-06
-0.00072474324
-5.2056092e-06
-0.00071909015
-5.6530926e-06
-0.00071299228
-6.0978709e-06
-0.00070645263
-6.5396483e-06
-0.0006994745
-6.9781292e-06
-0.00069206148
-7.4130184e-06
-0.00068421746
-7.8440212e-06
-0.00067594662
-8.2708443e-06
-0.00066725342
-8.6931953e-06
-0.00065814264
-9.1107833e-06
-0.00064861932
-9.5233193e-06
-0.0006386888
-9.9305162e-06
-0.00062835671
-1.0332089e-05
-0.00061762896
-1.0727756e-05
-0.00060651172
-1.1117237e-05
-0.00059501147
-1.1500256e-05
-0.00058313492
-1.187654e-05
-0.0005708891
-1.224582e-05
-0.00055828128
-1.2607829e-05
-0.00054531897
-1.2962306e-05
-0.00053200997
-1.3308995e-05
-0.00051836233
-1.3647642e-05
-0.00050438433
-1.3978001e-05
-0.0004900845
-1.4299828e-05
-0.00047547162
-1.4612887e-05
-0.00046055467
-1.4916946e-05
-0.00044534289
-1.521178e-05
-0.00042984572
-1.5497169e-05
-0.00041407282
-1.5772901e-05
-0.00039803405
-1.6038769e-05
-0.00038173948
-1.6294573e-05
-0.00036519936
-1.6540121e-05
-0.00034842413
-1.6775228e-05
-0.00033142441
-1.6999715e-05
-0.000314211
-1.7213412e-05
-0.00029679484
-1.7416157e-05
-0.00027918705
-1.7607796e-05
-0.00026139887
-1.7788181e-05
-0.00024344169
-1.7957175e-05
-0.00022532705
-1.8114648e-05
-0.00020706657
-1.826048e-05
-0.00018867201
-1.8394558e-05
-0.00017015523
-1.8516779e-05
-0.00015152818
-1.8627049e-05
-0.0001328029
-1.8725283e-05
-0.00011399149
-1.8811405e-05
-9.5106144e-05
-1.8885347e-05
-7.615909e-05
-1.8947054e-05
-5.7162613e-05
-1.8996477e-05
-3.8129035e-05
-1.9033578e-05
-1.9070707e-05
-1.9058328e-05
-1.9070707e-05
1.9091156e-05
-3.8161863e-05
3.8169917e-05
-3.8137089e-05
5.7223899e-05
-3.8087559e-05
7.6240734e-05
-3.8013313e-05
9.5208086e-05
-3.7914407e-05
0.00011411366
-3.7790918e-05
0.00013294519
-3.7642943e-05
0.00015169051
-3.7470595e-05
0.00017033746
-3.7274008e-05
0.00018887402
-3.7053334e-05
0.0002072882
-3.6808743e-05
0.00022556815
-3.6540425e-05
0.00024370209
-3.6248584e-05
0.00026167836
-3.5933447e-05
0.00027948543
-3.5595255e-05
0.00029711191
-3.5234268e-05
0.00031454651
-3.485076e-05
0.00033177812
-3.4445026e-05
0.00034879578
-3.4017375e-05
0.00036558869
-3.3568132e-05
0.0003821462
-3.3097638e-05
0.00039845788
-3.2606248e-05
0.00041451344
-3.2094335e-05
0.00043030283
-3.1562282e-05
0.00044581615
-3.1010491e-05
0.00046104374
-3.0439374e-05
0.00047597615
-2.9849358e-05
0.00049060415
-2.9240881e-05
0.00050491872
-2.8614395e-05
0.00051891108
-2.7970363e-05
0.00053257269
-2.7309259e-05
0.00054589527
-2.6631569e-05
0.00055887075
-2.5937788e-05
0.00057149134
-2.5228422e-05
0.00058374951
-2.4503984e-05
0.00059563797
-2.3764999e-05
0.00060714971
-2.3011998e-05
0.00061827799
-2.2245521e-05
0.00062901635
-2.1466113e-05
0.00063935859
-2.0674328e-05
0.0006492988
-1.9870726e-05
0.00065883135
-1.9055872e-05
0.0006679509
-1.8230334e-05
0.0006766524
-1.7394689e-05
0.00068493107
-1.6549514e-05
0.00069278244
-1.5695392e-05
0.00070020233
-1.4832908e-05
0.00070718685
-1.3962648e-05
0.0007137324
-1.3085204e-05
0.00071983569
-1.2201164e-05
0.00072549372
-1.1311121e-05
0.00073070378
-1.0415668e-05
0.00073546346
-9.5153958e-06
0.00073977065
-8.6108964e-06
0.00074362352
-7.7027603e-06
0.00074702056
-6.7915766e-06
0.00074996053
-5.8779322e-06
0.00075244251
-4.9624119e-06
0.00075446583
-4.0455975e-06
0.00075603015
-3.1280678e-06
0.00075713539
-2.2103976e-06
0.00075778178
-1.2931581e-06
0.00075796981
-3.7691668e-07
0.00075770027
5.3776374e-07
0.0007569742
1.4503313e-06
0.00075579295
2.3602406e-06
0.00075415813
3.2669354e-06
0.00075207161
4.1698792e-06
0.00074953553
5.0685409e-06
0.00074655231
5.9623953e-06
0.0007431246
6.8509242e-06
0.00073925533
7.7336165e-06
0.00073494767
8.6099689e-06
0.00073020504
9.4794861e-06
0.0007250311
1.034168e-05
0.00071942977
1.1196073e-05
0.00071340517
1.2042193e-05
0.00070696168
1.287958e-05
0.0007001039
1.3707778e-05
0.00069283664
1.4526346e-05
0.00068516494
1.5334847e-05
0.00067709406
1.6132857e-05
0.00066862944
1.6919959e-05
0.00065977676
1.7695746e-05
0.00065054186
1.8459821e-05
0.0006409308
1.9211797e-05
0.00063094983
1.9951296e-05
0.00062060538
2.067795e-05
0.00060990404
2.13914e-05
0.00059885259
2.2091299e-05
0.000587458
2.2777308e-05
0.00057572736
2.3449099e-05
0.00056366795
2.4106351e-05
0.00055128721
2.4748757e-05
0.0005385927
2.5376017e-05
0.00052559215
2.5987842e-05
0.00051229342
2.6583952e-05
0.0004987045
2.7164077e-05
0.00048483353
2.7727956e-05
0.00047068876
2.827534e-05
0.00045627855
2.8805986e-05
0.0004416114
2.9319662e-05
0.00042669591
2.9816147e-05
0.00041154078
3.0295227e-05
0.00039615482
3.0756697e-05
0.00038054694
3.1200364e-05
0.00036472614
3.162604e-05
0.0003487015
3.2033549e-05
0.0003324822
3.2422723e-05
0.00031607748
3.2793402e-05
0.00029949669
3.3145436e-05
0.0002827492
3.3478682e-05
0.00026584449
3.3793006e-05
0.00024879208
3.4088284e-05
0.00023160157
3.4364397e-05
0.00021428258
3.4621238e-05
0.00019684482
3.4858705e-05
0.00017929802
3.5076706e-05
0.00016165195
3.5275156e-05
0.00014391643
3.5453978e-05
0.00012610133
3.5613104e-05
0.00010821651
3.5752472e-05
9.0271895e-05
3.5872029e-05
7.2277409e-05
3.597173e-05
5.4243005e-05
3.6051536e-05
3.6178649e-05
3.6111417e-05
1.8094319e-05
3.615135e-05
1.7947564e-15
3.617132e-05
-1.8094319e-05
3.617132e-05
-3.6178649e-05
3.615135e-05
-5.4243005e-05
3.6111417e-05
-7.2277409e-05
3.6051536e-05
-9.0271895e-05
3.597173e-05
-0.00010821651
3.5872029e-05
-0.00012610133
3.5752472e-05
-0.00014391643
3.5613104e-05
-0.00016165195
3.5453978e-05
-0.00017929802
3.5275156e-05
-0.00019684482
3.5076706e-05
-0.00021428258
3.4858705e-05
-0.00023160157
3.4621238e-05
-0.00024879208
3.4364397e-05
-0.00026584449
3.4088284e-05
-0.0002827492
3.3793006e-05
-0.00029949669
3.3478682e-05
-0.00031607748
3.3145436e-05
-0.0003324822
3.2793402e-05
-0.0003487015
3.2422723e-05
-0.00036472614
3.2033549e-05
-0.00038054694
3.162604e-05
-0.00039615482
3.1200364e-05
-0.00041154078
3.0756697e-05
-0.00042669591
3.0295227e-05
-0.0004416114
2.9816147e-05
-0.00045627855
2.9319662e-05
-0.00047068876
2.8805986e-05
-0.00048483353
2.827534e-05
-0.0004987045
2.7727956e-05
-0.00051229342
2.7164077e-05
-0.00052559215
2.6583952e-05
-0.0005385927
2.5987842e-05
-0.00055128721
2.5376017e-05
-0.00056366795
2.4748757e-05
-0.00057572736
2.4106351e-05
-0.000587458
2.3449099e-05
-0.00059885259
2.2777308e-05
-0.00060990404
2.2091299e-05
-0.00062060538
2.13914e-05
-0.00063094983
2.067795e-05
-0.0006409308
1.9951296e-05
-0.00065054186
1.9211797e-05
-0.00065977676
1.8459821e-05
-0.00066862944
1.7695746e-05
-0.00067709406
1.6919959e-05
-0.00068516494
1.6132857e-05
-0.00069283664
1.5334847e-05
-0.0007001039
1.4526346e-05
-0.00070696168
1.3707778e-05
-0.00071340517
1.287958e-05
-0.00071942977
1.2042193e-05
-0.0007250311
1.1196073e-05
-0.00073020504
1.0341681e-05
-0.00073494767
9.4794861e-06
-0.00073925533
8.6099689e-06
-0.0007431246
7.7336165e-06
-0.00074655231
6.8509242e-06
-0.00074953553
5.9623953e-06
-0.00075207161
5.0685409e-06
-0.00075415813
4.1698792e-06
-0.00075579295
3.2669354e-06
-0.0007569742
2.3602406e-06
-0.00075770027
1.4503313e-06
-0.00075796981
5.3776374e-07
-0.00075778178
-3.7691668e-07
-0.00075713539
-1.2931581e-06
-0.00075603015
-2.2103976e-06
-0.00075446583
-3.1280678e-06
-0.00075244251
-4.0455975e-06
-0.00074996053
-4.9624119e-06
-0.00074702056
-5.8779322e-06
-0.00074362352
-6.7915766e-06
-0.00073977065
-7.7027603e-06
-0.00073546346
-8.6108964e-06
-0.00073070378
-9.5153958e-06
-0.00072549372
-1.0415668e-05
-0.00071983569
-1.1311121e-05
-0.0007137324
-1.2201164e-05
-0.00070718685
-1.3085204e-05
-0.00070020233
-1.3962648e-05
-0.00069278244
-1.4832908e-05
-0.00068493107
-1.5695392e-05
-0.0006766524
-1.6549514e-05
-0.0006679509
-1.7394689e-05
-0.00065883135
-1.8230334e-05
-0.0006492988
-1.9055872e-05
-0.00063935859
-1.9870726e-05
-0.00062901635
-2.0674328e-05
-0.00061827799
-2.1466113e-05
-0.00060714971
-2.2245521e-05
-0.00059563797
-2.3011998e-05
-0.00058374951
-2.3764999e-05
-0.00057149134
-2.4503984e-05
-0.00055887075
-2.5228422e-05
-0.00054589527
-2.5937788e-05
-0.00053257269
-2.6631569e-05
-0.00051891108
-2.7309259e-05
-0.00050491872
-2.7970363e-05
-0.00049060415
-2.8614395e-05
-0.00047597615
-2.9240881e-05
-0.00046104374
-2.9849358e-05
-0.00044581615
-3.0439374e-05
-0.00043030283
-3.1010491e-05
-0.00041451344
-3.1562282e-05
-0.00039845788
-3.2094335e-05
-0.0003821462
-3.2606248e-05
-0.00036558869
-3.3097638e-05
-0.00034879578
-3.3568132e-05
-0.00033177812
-3.4017375e-05
-0.00031454651
-3.4445026e-05
-0.00029711191
-3.485076e-05
-0.00027948543
-3.5234268e-05
-0.00026167836
-3.5595255e-05
-0.00024370209
-3.5933447e-05
-0.00022556815
-3.6248584e-05
-0.0002072882
-3.6540425e-05
-0.00018887402
-3.6808743e-05
-0.00017033746
-3.7053334e-05
-0.00015169051
-3.7274008e-05
-0.00013294519
-3.7470595e-05
-0.00011411366
-3.7642943e-05
-9.5208086e-05
-3.7790918e-05
-7.6240734e-05
-3.7914407e-05
-5.7223899e-05
-3.8013312e-05
-3.8169917e-05
-3.8087559e-05
-1.9091156e-05
-3.8137089e-05
-3.8161863e-05
1.9125863e-05
-5.7287726e-05
3.8239306e-05
-5.7250532e-05
5.7327918e-05
-5.7176171e-05
7.6379308e-05
-5.7064703e-05
9.5381114e-05
-5.6916213e-05
0.00011432101
-5.6730816e-05
0.00013318673
-5.6508656e-05
0.00015196604
-5.6249906e-05
0.0001706468
-5.5954766e-05
0.00018921692
-5.5623463e-05
0.00020766443
-5.5256253e-05
0.00022597743
-5.4853421e-05
0.00024414412
-5.4415275e-05
0.00026215283
-5.3942154e-05
0.00027999199
-5.343442e-05
0.00029765019
-5.2892464e-05
0.00031511613
-5.2316699e-05
0.00033237867
-5.1707566e-05
0.00034942682
-5.1065529e-05
0.00036624976
-5.0391076e-05
0.00038283684
-4.968472e-05
0.00039917759
-4.8946995e-05
0.00041526171
-4.8178458e-05
0.00043107912
-4.7379689e-05
0.00044661992
-4.6551286e-05
0.00046187441
-4.5693872e-05
0.00047683314
-4.4808085e-05
0.00049148685
-4.3894586e-05
0.0005058265
-4.2954051e-05
0.00051984332
-4.1987177e-05
0.00053352873
-4.0994676e-05
0.00054687444
-3.9977276e-05
0.00055987237
-3.8935721e-05
0.00057251472
-3.7870771e-05
0.00058479393
-3.6783197e-05
0.00059670272
-3.5673786e-05
0.00060823406
-3.4543337e-05
0.0006193812
-3.3392658e-05
0.00063013765
-3.2222572e-05
0.00064049723
-3.1033907e-05
0.00065045401
-2.9827505e-05
0.00066000235
-2.8604213e-05
0.00066913691
-2.7364887e-05
0.00067785261
-2.6110391e-05
0.00068614468
-2.4841592e-05
0.00069400866
-2.3559365e-05
0.00070144034
-2.2264589e-05
0.00070843583
-2.0958144e-05
0.00071499155
-1.9640916e-05
0.00072110418
-1.8313793e-05
0.00072677072
-1.6977662e-05
0.00073198846
-1.5633413e-05
0.000736755
-1.4281935e-05
0.00074106822
-1.2924115e-05
0.0007449263
-1.1560841e-05
0.00074832772
-1.0192996e-05
0.00075127125
-8.8214618e-06
0.00075375595
-7.4471168e-06
0.00075578119
-6.0708341e-06
0.00075734661
-4.6934825e-06
0.00075845213
-3.3159253e-06
0.00075909799
-1.9390196e-06
0.00075928469
-5.6361644e-07
0.00075901302
8.0944097e-07
0.00075828403
2.1793205e-06
0.00075709907
3.5451967e-06
0.00075545976
4.9062467e-06
0.00075336798
6.261662e-06
0.00075082587
7.6106442e-06
0.00074783586
8.9524048e-06
0.00074440062
1.0286166e-05
0.00074052308
1.161116e-05
0.00073620641
1.2926633e-05
0.00073145406
1.423184e-05
0.00072626969
1.552605e-05
0.00072065722
1.6808544e-05
0.0007146208
1.8078615e-05
0.00070816481
1.9335571e-05
0.00070129385
2.0578731e-05
0.00069401277
2.1807429e-05
0.00068632661
2.3021013e-05
0.00067824062
2.4218843e-05
0.00066976028
2.5400296e-05
0.00066089127
2.656476e-05
0.00065163945
2.7711641e-05
0.00064201089
2.8840355e-05
0.00063201185
2.9950338e-05
0.00062164876
3.1041036e-05
0.00061092825
3.2111911e-05
0.00059985711
3.3162442e-05
0.00058844229
3.419212e-05
0.00057669094
3.5200453e-05
0.00056461033
3.6186961e-05
0.0005522079
3.7151182e-05
0.00053949126
3.8092666e-05
0.00052646812
3.9010979e-05
0.00051314637
3.9905702e-05
0.00049953402
4.0776429e-05
0.0004856392
4.162277e-05
0.00047147019
4.2444349e-05
0.00045703537
4.3240804e-05
0.00044234325
4.4011787e-05
0.00042740243
4.4756964e-05
0.00041222165
4.5476015e-05
0.00039680971
4.6168635e-05
0.00038117554
4.683453e-05
0.00036532816
4.7473423e-05
0.00034927666
4.8085047e-05
0.00033303023
4.8669151e-05
0.00031659814
4.9225495e-05
0.00029998972
4.9753853e-05
0.00028321439
5.0254012e-05
0.00026628163
5.0725771e-05
0.00024920097
5.1168942e-05
0.00023198202
5.158335e-05
0.00021463442
5.1968832e-05
0.00019716789
5.2325235e-05
0.00017959218
5.2652423e-05
0.00016191706
5.2950267e-05
0.00014415239
5.3218652e-05
0.00012630802
5.3457476e-05
0.00010839385
5.3666646e-05
9.0419793e-05
5.3846082e-05
7.2395805e-05
5.3995717e-05
5.4331848e-05
5.4115493e-05
3.6237899e-05
5.4205365e-05
1.8123951e-05
5.4265298e-05
1.9178795e-15
5.4295271e-05
-1.8123951e-05
5.4295271e-05
-3.6237899e-05
5.4265298e-05
-5.4331848e-05
5.4205365e-05
-7.2395805e-05
5.4115493e-05
-9.0419793e-05
5.3995717e-05
-0.00010839385
5.3846082e-05
-0.00012630802
5.3666646e-05
-0.00014415239
5.3457476e-05
-0.00016191706
5.3218652e-05
-0.00017959218
5.2950267e-05
-0.00019716789
5.2652423e-05
-0.00021463442
5.2325235e-05
-0.00023198202
5.1968832e-05
-0.00024920097
5.158335e-05
-0.00026628163
5.1168942e-05
-0.00028321439
5.0725771e-05
-0.00029998972
5.0254012e-05
-0.00031659814
4.9753853e-05
-0.00033303023
4.9225495e-05
-0.00034927666
4.8669151e-05
-0.00036532816
4.8085047e-05
-0.00038117554
4.7473423e-05
-0.00039680971
4.683453e-05
-0.00041222165
4.6168635e-05
-0.00042740243
4.5476015e-05
-0.00044234325
4.4756964e-05
-0.00045703537
4.4011787e-05
-0.00047147019
4.3240804e-05
-0.0004856392
4.2444349e-05
-0.00049953402
4.162277e-05
-0.00051314637
4.0776429e-05
-0.00052646812
3.9905702e-05
-0.00053949126
3.9010979e-05
-0.0005522079
3.8092666e-05
-0.00056461033
3.7151182e-05
-0.00057669094
3.6186961e-05
-0.00058844229
3.5200453e-05
-0.00059985711
3.4192121e-05
-0.00061092825
3.3162442e-05
-0.00062164876
3.2111911e-05
-0.00063201185
3.1041036e-05
-0.00064201089
2.9950338e-05
-0.00065163945
2.8840355e-05
-0.00066089127
2.7711641e-05
-0.00066976028
2.656476e-05
-0.00067824062
2.5400296e-05
-0.00068632661
2.4218843e-05
-0.00069401277
2.3021013e-05
-0.00070129385
2.1807429e-05
-0.00070816481
2.0578731e-05
-0.0007146208
1.9335571e-05
-0.00072065722
1.8078615e-05
-0.00072626969
1.6808544e-05
-0.00073145406
1.552605e-05
-0.00073620641
1.423184e-05
-0.00074052308
1.2926633e-05
-0.00074440062
1.161116e-05
-0.00074783586
1.0286166e-05
-0.00075082587
8.9524048e-06
-0.00075336798
7.6106442e-06
-0.00075545976
6.261662e-06
-0.00075709907
4.9062467e-06
-0.00075828403
3.5451967e-06
-0.00075901302
2.1793205e-06
-0.00075928469
8.0944097e-07
-0.00075909799
-5.6361644e-07
-0.00075845213
-1.9390196e-06
-0.00075734661
-3.3159253e-06
-0.00075578119
-4.6934825e-06
-0.00075375595
-6.0708341e-06
-0.00075127125
-7.4471167e-06
-0.00074832772
-8.8214618e-06
-0.0007449263
-1.0192996e-05
-0.00074106822
-1.1560841e-05
-0.000736755
-1.2924115e-05
-0.00073198846
-1.4281935e-05
-0.00072677072
-1.5633413e-05
-0.00072110418
-1.6977662e-05
-0.00071499155
-1.8313793e-05
-0.00070843583
-1.9640916e-05
-0.00070144034
-2.0958144e-05
-0.00069400866
-2.2264589e-05
-0.00068614468
-2.3559365e-05
-0.00067785261
-2.4841592e-05
-0.00066913691
-2.6110391e-05
-0.00066000235
-2.7364887e-05
-0.00065045401
-2.8604213e-05
-0.00064049723
-2.9827505e-05
-0.00063013765
-3.1033907e-05
-0.0006193812
-3.2222572e-05
-0.00060823406
-3.3392658e-05
-0.00059670272
-3.4543337e-05
-0.00058479393
-3.5673786e-05
-0.00057251472
-3.6783197e-05
-0.00055987237
-3.7870771e-05
-0.00054687444
-3.8935721e-05
-0.00053352873
-3.9977276e-05
-0.00051984332
-4.0994676e-05
-0.0005058265
-4.1987177e-05
-0.00049148685
-4.2954051e-05
-0.00047683314
-4.3894586e-05
-0.00046187441
-4.4808085e-05
-0.00044661992
-4.5693872e-05
-0.00043107912
-4.6551286e-05
-0.00041526171
-4.7379689e-05
-0.00039917759
-4.8178458e-05
-0.00038283684
-4.8946995e-05
-0.00036624976
-4.968472e-05
-0.00034942682
-5.0391076e-05
-0.00033237867
-5.1065529e-05
-0.00031511613
-5.1707566e-05
-0.00029765019
-5.2316699e-05
-0.00027999199
-5.2892464e-05
-0.00026215283
-5.343442e-05
-0.00024414412
-5.3942154e-05
-0.00022597743
-5.4415275e-05
-0.00020766443
-5.4853421e-05
-0.00018921692
-5.5256253e-05
-0.0001706468
-5.5623463e-05
-0.00015196604
-5.5954766e-05
-0.00013318673
-5.6249906e-05
-0.00011432101
-5.6508656e-05
-9.5381114e-05
-5.6730816e-05
-7.6379308e-05
-5.6916213e-05
-5.7327918e-05
-5.7064703e-05
-3.8239306e-05
-5.7176171e-05
-1.9125863e-05
-5.7250532e-05
-5.7287726e-05
1.9174858e-05
-7.6462585e-05
3.8337261e-05
-7.6412934e-05
5.7474761e-05
-7.6313672e-05
7.6574933e-05
-7.6164874e-05
9.5625378e-05
-7.5966658e-05
0.00011461374
-7.5719175e-05
0.0001335277
-7.5422619e-05
0.00015235501
-7.5077219e-05
0.00017108349
-7.4683242e-05
0.00018970102
-7.4240993e-05
0.00020819558
-7.3750814e-05
0.00022655524
-7.3213083e-05
0.00024476818
-7.2628214e-05
0.00026282268
-7.1996658e-05
0.00028070716
-7.1318899e-05
0.00029841016
-7.0595458e-05
0.00031592035
-6.9826889e-05
0.00033322656
-6.9013779e-05
0.00035031778
-6.8156748e-05
0.00036718315
-6.7256448e-05
0.00038381199
-6.6313563e-05
0.00040019381
-6.5328807e-05
0.00041631827
-6.4302923e-05
0.00043217527
-6.3236686e-05
0.00044775488
-6.2130896e-05
0.00046304739
-6.0986381e-05
0.0004780433
-5.9803997e-05
0.00049273334
-5.8584624e-05
0.00050710845
-5.7329166e-05
0.00052115983
-5.6038552e-05
0.00053487889
-5.4713734e-05
0.00054825729
-5.3355684e-05
0.00056128697
-5.1965396e-05
0.00057396008
-5.0543883e-05
0.00058626906
-4.9092176e-05
0.0005982066
-4.7611326e-05
0.00060976566
-4.6102397e-05
0.00062093947
-4.4566471e-05
0.00063172155
-4.3004645e-05
0.00064210567
-4.1418026e-05
0.0006520859
-3.9807736e-05
0.00066165659
-3.8174909e-05
0.00067081239
-3.6520685e-05
0.00067954822
-3.4846218e-05
0.00068785929
-3.3152667e-05
0.00069574113
-3.1441199e-05
0.00070318953
-2.9712987e-05
0.00071020059
-2.7969207e-05
0.00071677072
-2.6211042e-05
0.0007228966
-2.4439676e-05
0.00072857523
-2.2656295e-05
0.0007338039
-2.0862085e-05
0.0007385802
-1.9058234e-05
0.00074290201
-1.7245926e-05
0.00074676752
-1.5426346e-05
0.0007501752
-1.3600673e-05
0.00075312382
-1.1770086e-05
0.00075561246
-9.935754e-06
0.00075764047
-8.0988446e-06
0.0007592075
-6.2605171e-06
0.0007603135
-4.4219237e-06
0.00076095869
-2.5842084e-06
0.00076114358
-7.4850652e-07
0.00076086896
1.0840569e-06
0.00076013592
2.9123687e-06
0.00075894579
4.7353257e-06
0.0007573002
6.5518338e-06
0.00075520105
8.3608134e-06
0.00075265049
1.0161198e-05
0.00074965096
1.1951936e-05
0.00074620514
1.3731989e-05
0.00074231597
1.5500333e-05
0.00073798664
1.7255959e-05
0.0007332206
1.8997877e-05
0.00072802155
2.0725108e-05
0.0007223934
2.2436695e-05
0.00071634032
2.4131694e-05
0.00070986671
2.5809181e-05
0.00070297719
2.7468248e-05
0.00069567661
2.9108007e-05
0.00068797004
3.0727586e-05
0.00067986275
3.2326133e-05
0.00067136023
3.3902815e-05
0.00066246817
3.5456818e-05
0.00065319247
3.6987347e-05
0.0006435392
3.8493626e-05
0.00063351464
3.9974899e-05
0.00062312524
4.1430429e-05
0.00061237765
4.28595e-05
0.00060127868
4.4261413e-05
0.00058983531
4.5635493e-05
0.00057805468
4.6981081e-05
0.00056594411
4.8297538e-05
0.00055351104
4.9584247e-05
0.0005407631
5.084061e-05
0.00052770803
5.2066046e-05
0.00051435373
5.3259997e-05
0.00050070824
5.4421923e-05
0.00048677971
5.5551302e-05
0.00047257643
5.6647632e-05
0.0004581068
5.7710432e-05
0.00044337935
5.8739238e-05
0.0004284027
5.9733604e-05
0.00041318562
6.0693105e-05
0.00039773692
6.1617331e-05
0.00038206555
6.2505894e-05
0.00036618056
6.3358421e-05
0.00035009104
6.417456e-05
0.00033380622
6.4953972e-05
0.00031733538
6.569634e-05
0.00030068787
6.6401363e-05
0.00028387312
6.7068756e-05
0.00026690064
6.7698251e-05
0.00024977998
6.8289599e-05
0.00023252077
6.8842565e-05
0.00021513267
6.9356932e-05
0.00019762541
6.9832498e-05
0.00018000875
7.0269078e-05
0.00016229252
7.0666503e-05
0.00014448655
7.102462e-05
0.00012660073
7.1343291e-05
0.00010864499
7.1622393e-05
9.0629248e-05
7.1861822e-05
7.2563482e-05
7.2061484e-05
5.445767e-05
7.2221305e-05
3.6321812e-05
7.2341223e-05
1.8165916e-05
7.2421194e-05
1.8194234e-15
7.2461187e-05
-1.8165916e-05
7.2461187e-05
-3.6321812e-05
7.2421194e-05
-5.445767e-05
7.2341223e-05
-7.2563482e-05
7.2221305e-05
-9.0629248e-05
7.2061484e-05
-0.00010864499
7.1861822e-05
-0.00012660073
7.1622393e-05
-0.00014448655
7.1343291e-05
-0.00016229252
7.102462e-05
-0.00018000875
7.0666503e-05
-0.00019762541
7.0269078e-05
-0.00021513267
6.9832498e-05
-0.00023252077
6.9356932e-05
-0.00024977998
6.8842565e-05
-0.00026690064
6.8289599e-05
-0.00028387312
6.7698251e-05
-0.00030068787
6.7068756e-05
-0.00031733538
6.6401363e-05
-0.00033380622
6.569634e-05
-0.00035009104
6.4953972e-05
-0.00036618056
6.417456e-05
-0.00038206555
6.3358421e-05
-0.00039773692
6.2505894e-05
-0.00041318562
6.1617331e-05
-0.0004284027
6.0693105e-05
-0.00044337935
5.9733604e-05
-0.0004581068
5.8739238e-05
-0.00047257643
5.7710432e-05
-0.00048677971
5.6647632e-05
-0.00050070824
5.5551302e-05
-0.00051435373
5.4421923e-05
-0.00052770803
5.3259997e-05
-0.0005407631
5.2066046e-05
-0.00055351104
5.084061e-05
-0.00056594411
4.9584247e-05
-0.00057805468
4.8297538e-05
-0.00058983531
4.6981081e-05
-0.00060127868
4.5635493e-05
-0.00061237765
4.4261413e-05
-0.00062312524
4.28595e-05
-0.00063351464
4.1430429e-05
-0.0006435392
3.9974899e-05
-0.00065319247
3.8493626e-05
-0.00066246817
3.6987347e-05
-0.00067136023
3.5456818e-05
-0.00067986275
3.3902815e-05
-0.00068797004
3.2326133e-05
-0.00069567661
3.0727586e-05
-0.00070297719
2.9108007e-05
-0.00070986671
2.7468248e-05
-0.00071634032
2.5809181e-05
-0.0007223934
2.4131694e-05
-0.00072802155
2.2436695e-05
-0.0007332206
2.0725108e-05
-0.00073798664
1.8997877e-05
-0.00074231597
1.7255959e-05
-0.00074620514
1.5500333e-05
-0.00074965096
1.3731989e-05
-0.00075265049
1.1951936e-05
-0.00075520105
1.0161198e-05
-0.0007573002
8.3608134e-06
-0.00075894579
6.5518338e-06
-0.00076013592
4.7353257e-06
-0.00076086896
2.9123687e-06
-0.00076114358
1.0840569e-06
-0.00076095869
-7.4850652e-07
-0.0007603135
-2.5842084e-06
-0.0007592075
-4.4219237e-06
-0.00075764047
-6.2605171e-06
-0.00075561246
-8.0988446e-06
-0.00075312382
-9.935754e-06
-0.0007501752
-1.1770086e-05
-0.00074676752
-1.3600673e-05
-0.00074290201
-1.5426346e-05
-0.0007385802
-1.7245926e-05
-0.0007338039
-1.9058234e-05
-0.00072857523
-2.0862085e-05
-0.0007228966
-2.2656295e-05
-0.00071677072
-2.4439676e-05
-0.00071020059
-2.6211042e-05
-0.00070318953
-2.7969207e-05
-0.00069574113
-2.9712987e-05
-0.00068785929
-3.1441199e-05
-0.00067954822
-3.3152667e-05
-0.00067081239
-3.4846218e-05
-0.00066165659
-3.6520685e-05
-0.0006520859
-3.8174909e-05
-0.00064210567
-3.9807736e-05
-0.00063172155
-4.1418026e-05
-0.00062093947
-4.3004645e-05
-0.00060976566
-4.4566472e-05
-0.0005982066
-4.6102397e-05
-0.00058626906
-4.7611326e-05
-0.00057396008
-4.9092176e-05
-0.00056128697
-5.0543883e-05
-0.00054825729
-5.1965396e-05
-0.00053487889
-5.3355684e-05
-0.00052115983
-5.4713734e-05
-0.00050710845
-5.6038552e-05
-0.00049273334
-5.7329166e-05
-0.0004780433
-5.8584624e-05
-0.00046304739
-5.9803997e-05
-0.00044775488
-6.0986381e-05
-0.00043217527
-6.2130896e-05
-0.00041631827
-6.3236686e-05
-0.00040019381
-6.4302923e-05
-0.00038381199
-6.5328807e-05
-0.00036718315
-6.6313563e-05
-0.00035031778
-6.7256448e-05
-0.00033322656
-6.8156748e-05
-0.00031592035
-6.9013779e-05
-0.00029841016
-6.9826889e-05
-0.00028070716
-7.0595458e-05
-0.00026282268
-7.1318899e-05
-0.00024476818
-7.1996658e-05