/*--------------------------------*- C++ -*----------------------------------*\
| =========                 |                                                 |
| \\      /  F ield         | OpenFOAM: The Open Source CFD Toolbox           |
|  \\    /   O peration     | Version:  2106                                  |
|   \\  /    A nd           | Website:  www.openfoam.com                      |
|    \\/     M anipulation  |                                                 |
\*---------------------------------------------------------------------------*/
FoamFile
{
    version     2.0;
    format      ascii;
    arch        "LSB;label=32;scalar=64";
    class       surfaceScalarField;
    location    "0.01";
    object      phi_0;
}
// * * * * * * * * * * * * * * * * * * * * * * * * * * * * * * * * * * * * * //

dimensions      [0 3 -1 0 0 0 0];

oriented        oriented;

internalField   nonuniform List<scalar> 
130560
(
1.9081816e-05
-1.9081816e-05
3.8151245e-05
-1.9069429e-05
5.7195912e-05
-1.9044667e-05
7.6203458e-05
-1.9007546e-05
9.5161555e-05
-1.8958097e-05
0.00011405791
-1.8896358e-05
0.00013288029
-1.8822376e-05
0.0001516165
-1.8736209e-05
0.00017025442
-1.8637924e-05
0.00018878202
-1.8527595e-05
0.00020718733
-1.8405309e-05
0.00022545849
-1.827116e-05
0.00024358374
-1.8125251e-05
0.00026155143
-1.7967694e-05
0.00027935004
-1.779861e-05
0.00029696817
-1.7618129e-05
0.00031439456
-1.7426389e-05
0.0003316181
-1.7223535e-05
0.00034862782
-1.7009724e-05
0.00036541294
-1.6785117e-05
0.00038196282
-1.6549884e-05
0.00039826702
-1.6304204e-05
0.00041431529
-1.6048262e-05
0.00043009754
-1.578225e-05
0.0004456039
-1.5506369e-05
0.00046082473
-1.5220825e-05
0.00047575056
-1.4925831e-05
0.00049037217
-1.4621607e-05
0.00050468055
-1.4308377e-05
0.00051866692
-1.3986374e-05
0.00053232275
-1.3655834e-05
0.00054563975
-1.3317001e-05
0.00055860988
-1.2970121e-05
0.00057122532
-1.2615448e-05
0.00058347856
-1.2253238e-05
0.00059536231
-1.1883754e-05
0.00060686958
-1.150726e-05
0.0006179936
-1.1124027e-05
0.00062872793
-1.0734328e-05
0.00063906637
-1.0338439e-05
0.00064900301
-9.9366397e-06
0.00065853222
-9.5292128e-06
0.00066764866
-9.1164431e-06
0.00067634728
-8.6986178e-06
0.00068462331
-8.2760262e-06
0.00069247227
-7.8489592e-06
0.00069988998
-7.4177093e-06
0.00070687255
-6.9825701e-06
0.00071341638
-6.5438364e-06
0.00071951819
-6.1018034e-06
0.00072517495
-5.6567671e-06
0.00073038398
-5.2090234e-06
0.00073514285
-4.7588683e-06
0.00073944944
-4.3065977e-06
0.00074330195
-3.8525067e-06
0.00074669884
-3.3968898e-06
0.00074963888
-2.9400406e-06
0.00075212113
-2.4822514e-06
0.00075414494
-2.0238131e-06
0.00075570996
-1.565015e-06
0.0007568161
-1.1061446e-06
0.00075746359
-6.4748727e-07
0.00075765292
-1.8932728e-07
0.00075738487
2.6805163e-07
0.00075666049
7.2437452e-07
0.00075548111
1.1793811e-06
0.00075384834
1.6327748e-06
0.00075176404
2.0842948e-06
0.00074923037
2.5336759e-06
0.00074624971
2.9806553e-06
0.00074282474
3.4249736e-06
0.00073895836
3.8663752e-06
0.00073465375
4.3046086e-06
0.00072991433
4.7394258e-06
0.00072474374
5.1705831e-06
0.0007191459
5.5978409e-06
0.00071312494
6.0209638e-06
0.00070668522
6.4397208e-06
0.00069983133
6.8538853e-06
0.0006925681
7.2632352e-06
0.00068490055
7.667553e-06
0.00067683392
8.0666258e-06
0.00066837367
8.4602454e-06
0.00065952547
8.8482083e-06
0.00065029515
9.2303159e-06
0.00064068878
9.6063744e-06
0.00063071258
9.9761947e-06
0.00062037299
1.0339593e-05
0.0006096766
1.0696389e-05
0.00059863019
1.104641e-05
0.0005872407
1.1389486e-05
0.00057551525
1.1725452e-05
0.0005634611
1.2054149e-05
0.00055108568
1.2375423e-05
0.00053839656
1.2689123e-05
0.00052540145
1.2995104e-05
0.00051210822
1.3293228e-05
0.00049852486
1.3583358e-05
0.0004846595
1.3865365e-05
0.00047052038
1.4139123e-05
0.00045611587
1.440451e-05
0.00044145445
1.4661412e-05
0.00042654474
1.4909716e-05
0.00041139542
1.5149317e-05
0.00039601531
1.5380111e-05
0.00038041331
1.5602002e-05
0.00036459841
1.5814896e-05
0.00034857971
1.6018704e-05
0.00033236637
1.6213343e-05
0.00031596763
1.6398732e-05
0.00029939284
1.6574797e-05
0.00028265137
1.6741466e-05
0.0002657527
1.6898671e-05
0.00024870635
1.7046351e-05
0.0002315219
1.7184446e-05
0.000214209
1.7312903e-05
0.00019677733
1.743167e-05
0.00017923663
1.7540701e-05
0.00016159667
1.7639955e-05
0.00014386728
1.7729391e-05
0.00012605831
1.7808977e-05
0.00010817962
1.7878681e-05
9.0241148e-05
1.7938477e-05
7.2252806e-05
1.7988342e-05
5.422455e-05
1.8028256e-05
3.6166344e-05
1.8058206e-05
1.8088166e-05
1.8078178e-05
1.8554189e-15
1.8088166e-05
-1.8088166e-05
1.8088166e-05
-3.6166344e-05
1.8078178e-05
-5.422455e-05
1.8058206e-05
-7.2252806e-05
1.8028256e-05
-9.0241148e-05
1.7988342e-05
-0.00010817962
1.7938477e-05
-0.00012605831
1.7878681e-05
-0.00014386728
1.7808977e-05
-0.00016159667
1.7729391e-05
-0.00017923663
1.7639955e-05
-0.00019677733
1.7540701e-05
-0.000214209
1.743167e-05
-0.0002315219
1.7312903e-05
-0.00024870635
1.7184446e-05
-0.0002657527
1.7046351e-05
-0.00028265137
1.6898671e-05
-0.00029939284
1.6741466e-05
-0.00031596763
1.6574797e-05
-0.00033236637
1.6398732e-05
-0.00034857971
1.6213343e-05
-0.00036459841
1.6018704e-05
-0.00038041331
1.5814896e-05
-0.00039601531
1.5602002e-05
-0.00041139542
1.5380111e-05
-0.00042654474
1.5149317e-05
-0.00044145445
1.4909717e-05
-0.00045611587
1.4661412e-05
-0.00047052038
1.440451e-05
-0.0004846595
1.4139123e-05
-0.00049852486
1.3865365e-05
-0.00051210822
1.3583358e-05
-0.00052540145
1.3293228e-05
-0.00053839656
1.2995104e-05
-0.00055108568
1.2689123e-05
-0.0005634611
1.2375423e-05
-0.00057551525
1.2054149e-05
-0.0005872407
1.1725452e-05
-0.00059863019
1.1389486e-05
-0.0006096766
1.104641e-05
-0.00062037299
1.0696389e-05
-0.00063071258
1.0339593e-05
-0.00064068878
9.9761947e-06
-0.00065029515
9.6063744e-06
-0.00065952547
9.2303159e-06
-0.00066837367
8.8482083e-06
-0.00067683392
8.4602454e-06
-0.00068490055
8.0666258e-06
-0.0006925681
7.667553e-06
-0.00069983133
7.2632352e-06
-0.00070668522
6.8538853e-06
-0.00071312494
6.4397208e-06
-0.0007191459
6.0209638e-06
-0.00072474374
5.5978409e-06
-0.00072991433
5.1705831e-06
-0.00073465375
4.7394258e-06
-0.00073895836
4.3046086e-06
-0.00074282474
3.8663752e-06
-0.00074624971
3.4249736e-06
-0.00074923037
2.9806553e-06
-0.00075176404
2.5336759e-06
-0.00075384834
2.0842948e-06
-0.00075548111
1.6327748e-06
-0.00075666049
1.1793811e-06
-0.00075738487
7.2437452e-07
-0.00075765292
2.6805164e-07
-0.00075746359
-1.8932728e-07
-0.0007568161
-6.4748727e-07
-0.00075570996
-1.1061446e-06
-0.00075414494
-1.565015e-06
-0.00075212113
-2.0238131e-06
-0.00074963888
-2.4822514e-06
-0.00074669884
-2.9400406e-06
-0.00074330195
-3.3968898e-06
-0.00073944944
-3.8525067e-06
-0.00073514285
-4.3065977e-06
-0.00073038398
-4.7588683e-06
-0.00072517495
-5.2090234e-06
-0.00071951819
-5.6567671e-06
-0.00071341638
-6.1018034e-06
-0.00070687255
-6.5438364e-06
-0.00069988998
-6.9825701e-06
-0.00069247227
-7.4177093e-06
-0.00068462331
-7.8489592e-06
-0.00067634728
-8.2760262e-06
-0.00066764866
-8.6986178e-06
-0.00065853222
-9.1164431e-06
-0.00064900301
-9.5292128e-06
-0.00063906637
-9.9366397e-06
-0.00062872793
-1.0338439e-05
-0.0006179936
-1.0734328e-05
-0.00060686958
-1.1124027e-05
-0.00059536231
-1.150726e-05
-0.00058347856
-1.1883754e-05
-0.00057122532
-1.2253238e-05
-0.00055860988
-1.2615448e-05
-0.00054563975
-1.2970121e-05
-0.00053232275
-1.3317001e-05
-0.00051866692
-1.3655834e-05
-0.00050468055
-1.3986374e-05
-0.00049037217
-1.4308377e-05
-0.00047575056
-1.4621607e-05
-0.00046082473
-1.4925831e-05
-0.0004456039
-1.5220825e-05
-0.00043009754
-1.5506369e-05
-0.00041431529
-1.578225e-05
-0.00039826702
-1.6048262e-05
-0.00038196282
-1.6304204e-05
-0.00036541294
-1.6549884e-05
-0.00034862782
-1.6785117e-05
-0.0003316181
-1.7009724e-05
-0.00031439456
-1.7223535e-05
-0.00029696817
-1.7426389e-05
-0.00027935004
-1.7618129e-05
-0.00026155143
-1.779861e-05
-0.00024358374
-1.7967694e-05
-0.00022545849
-1.8125251e-05
-0.00020718733
-1.827116e-05
-0.00018878202
-1.8405309e-05
-0.00017025442
-1.8527595e-05
-0.0001516165
-1.8637924e-05
-0.00013288029
-1.8736209e-05
-0.00011405791
-1.8822376e-05
-9.5161555e-05
-1.8896358e-05
-7.6203458e-05
-1.8958097e-05
-5.7195912e-05
-1.9007546e-05
-3.8151245e-05
-1.9044667e-05
-1.9081816e-05
-1.9069429e-05
-1.9081816e-05
1.9102273e-05
-3.8184088e-05
3.8192144e-05
-3.8159301e-05
5.7257222e-05
-3.8109745e-05
7.6285135e-05
-3.8035459e-05
9.5263538e-05
-3.7936501e-05
0.00011418013
-3.7812947e-05
0.00013302265
-3.7664894e-05
0.00015177889
-3.7492455e-05
0.00017043673
-3.7295764e-05
0.00018898411
-3.7074974e-05
0.00020740906
-3.6830254e-05
0.00022569969
-3.6561793e-05
0.00024384424
-3.6269798e-05
0.00026183104
-3.5954494e-05
0.00027964855
-3.5616122e-05
0.00029728536
-3.5254942e-05
0.0003147302
-3.4871231e-05
0.00033197195
-3.446528e-05
0.00034899962
-3.4037401e-05
0.00036580242
-3.3587917e-05
0.00038236971
-3.311717e-05
0.00039869102
-3.2625516e-05
0.00041475609
-3.2113327e-05
0.00043055483
-3.1580988e-05
0.00044607736
-3.1028899e-05
0.000461314
-3.0457472e-05
0.00047625531
-2.9867135e-05
0.00049089203
-2.9258327e-05
0.00050521515
-2.86315e-05
0.00051921589
-2.7987116e-05
0.00053288571
-2.732565e-05
0.00054621629
-2.6647587e-05
0.0005591996
-2.5953424e-05
0.00057182781
-2.5243666e-05
0.0005840934
-2.4518827e-05
0.00059598908
-2.3779432e-05
0.00060750783
-2.3026011e-05
0.00061864291
-2.2259106e-05
0.00062938784
-2.1479262e-05
0.00063973644
-2.0687033e-05
0.00064968278
-1.9882978e-05
0.00065922123
-1.9067663e-05
0.00066834644
-1.8241658e-05
0.00067705336
-1.7405538e-05
0.00068533722
-1.6559882e-05
0.00069319353
-1.5705272e-05
0.00070061812
-1.4842293e-05
0.00070760708
-1.3971534e-05
0.00071415683
-1.3093583e-05
0.00072026405
-1.2209032e-05
0.00072592576
-1.1318473e-05
0.00073113924
-1.0422499e-05
0.00073590207
-9.5217014e-06
0.00074021214
-8.6166726e-06
0.00074406764
-7.7080034e-06
0.00074746703
-6.796283e-06
0.00075040909
-5.882099e-06
0.00075289288
-4.9660364e-06
0.00075491774
-4.0486773e-06
0.00075648333
-3.1306007e-06
0.00075758956
-2.212382e-06
0.00075823667
-1.2945927e-06
0.00075842514
-3.7780037e-07
0.00075815576
5.3743157e-07
0.00075742959
1.4505509e-06
0.00075624796
2.3610121e-06
0.00075461247
3.2682583e-06
0.00075252501
4.1717527e-06
0.00074998773
5.070964e-06
0.00074700301
5.9653666e-06
0.00074357355
6.8544417e-06
0.00073970224
7.7376783e-06
0.00073539228
8.6145725e-06
0.00073064708
9.4846285e-06
0.0007254703
1.0347359e-05
0.00071986586
1.1202284e-05
0.00071383789
1.2048932e-05
0.00070739077
1.2886843e-05
0.00070052909
1.3715561e-05
0.00069325768
1.4534644e-05
0.00068558158
1.5343655e-05
0.00067750604
1.6142169e-05
0.00066903652
1.6929769e-05
0.00066017868
1.7706048e-05
0.00065093838
1.847061e-05
0.00064132169
1.9223065e-05
0.00063133485
1.9963036e-05
0.00062098429
2.0690155e-05
0.00061027661
2.1404064e-05
0.00059921861
2.2104412e-05
0.00058781724
2.2790863e-05
0.0005760796
2.3463086e-05
0.00056401299
2.4120764e-05
0.00055162482
2.4763585e-05
0.00053892269
2.5391252e-05
0.00052591432
2.6003474e-05
0.00051260758
2.6599972e-05
0.00049901046
2.7180475e-05
0.00048513111
2.7744722e-05
0.00047097777
2.8292463e-05
0.00045655882
2.8823456e-05
0.00044188276
2.933747e-05
0.0004269582
2.983428e-05
0.00041179384
3.0313674e-05
0.0003963985
3.0775448e-05
0.0003807811
3.1219407e-05
0.00036495063
3.1645364e-05
0.00034891619
3.2053142e-05
0.00033268696
3.2442573e-05
0.0003162722
3.2813497e-05
0.00029968123
3.3165763e-05
0.00028292347
3.349923e-05
0.00026600838
3.3813763e-05
0.00024894549
3.4109236e-05
0.00023174441
3.4385533e-05
0.00021441476
3.4642544e-05
0.00019696626
3.4880169e-05
0.00017940865
3.5098315e-05
0.00016175171
3.5296897e-05
0.00014400526
3.5475838e-05
0.00012617917
3.563507e-05
0.00010828332
3.5774531e-05
9.0327627e-05
3.5894168e-05
7.2322035e-05
3.5993935e-05
5.4276497e-05
3.6073794e-05
3.6200988e-05
3.6133714e-05
1.8105492e-05
3.6173674e-05
2.2807551e-15
3.6193658e-05
-1.8105492e-05
3.6193658e-05
-3.6200988e-05
3.6173674e-05
-5.4276497e-05
3.6133714e-05
-7.2322035e-05
3.6073794e-05
-9.0327627e-05
3.5993935e-05
-0.00010828332
3.5894168e-05
-0.00012617917
3.5774531e-05
-0.00014400526
3.563507e-05
-0.00016175171
3.5475838e-05
-0.00017940865
3.5296897e-05
-0.00019696626
3.5098315e-05
-0.00021441476
3.4880169e-05
-0.00023174441
3.4642544e-05
-0.00024894549
3.4385533e-05
-0.00026600838
3.4109236e-05
-0.00028292347
3.3813763e-05
-0.00029968123
3.349923e-05
-0.0003162722
3.3165763e-05
-0.00033268696
3.2813497e-05
-0.00034891619
3.2442573e-05
-0.00036495063
3.2053142e-05
-0.0003807811
3.1645364e-05
-0.0003963985
3.1219407e-05
-0.00041179384
3.0775448e-05
-0.0004269582
3.0313674e-05
-0.00044188276
2.983428e-05
-0.00045655882
2.933747e-05
-0.00047097777
2.8823456e-05
-0.00048513111
2.8292463e-05
-0.00049901046
2.7744722e-05
-0.00051260758
2.7180475e-05
-0.00052591432
2.6599972e-05
-0.00053892269
2.6003474e-05
-0.00055162482
2.5391252e-05
-0.00056401299
2.4763585e-05
-0.0005760796
2.4120764e-05
-0.00058781724
2.3463086e-05
-0.00059921861
2.2790863e-05
-0.00061027661
2.2104412e-05
-0.00062098429
2.1404064e-05
-0.00063133485
2.0690155e-05
-0.00064132169
1.9963036e-05
-0.00065093838
1.9223065e-05
-0.00066017868
1.847061e-05
-0.00066903652
1.7706048e-05
-0.00067750604
1.6929769e-05
-0.00068558158
1.6142169e-05
-0.00069325768
1.5343655e-05
-0.00070052909
1.4534644e-05
-0.00070739077
1.3715561e-05
-0.00071383789
1.2886843e-05
-0.00071986586
1.2048932e-05
-0.0007254703
1.1202284e-05
-0.00073064708
1.0347359e-05
-0.00073539228
9.4846285e-06
-0.00073970224
8.6145725e-06
-0.00074357355
7.7376783e-06
-0.00074700301
6.8544418e-06
-0.00074998773
5.9653666e-06
-0.00075252501
5.070964e-06
-0.00075461247
4.1717527e-06
-0.00075624796
3.2682583e-06
-0.00075742959
2.3610121e-06
-0.00075815576
1.4505509e-06
-0.00075842514
5.3743158e-07
-0.00075823667
-3.7780036e-07
-0.00075758956
-1.2945927e-06
-0.00075648333
-2.212382e-06
-0.00075491774
-3.1306007e-06
-0.00075289288
-4.0486772e-06
-0.00075040909
-4.9660363e-06
-0.00074746703
-5.882099e-06
-0.00074406764
-6.796283e-06
-0.00074021214
-7.7080034e-06
-0.00073590207
-8.6166726e-06
-0.00073113924
-9.5217014e-06
-0.00072592576
-1.0422499e-05
-0.00072026405
-1.1318473e-05
-0.00071415683
-1.2209032e-05
-0.00070760708
-1.3093583e-05
-0.00070061812
-1.3971534e-05
-0.00069319353
-1.4842293e-05
-0.00068533722
-1.5705272e-05
-0.00067705336
-1.6559882e-05
-0.00066834644
-1.7405538e-05
-0.00065922123
-1.8241658e-05
-0.00064968278
-1.9067663e-05
-0.00063973644
-1.9882978e-05
-0.00062938784
-2.0687033e-05
-0.00061864291
-2.1479262e-05
-0.00060750783
-2.2259106e-05
-0.00059598908
-2.3026011e-05
-0.0005840934
-2.3779432e-05
-0.00057182781
-2.4518827e-05
-0.0005591996
-2.5243666e-05
-0.00054621629
-2.5953424e-05
-0.00053288571
-2.6647587e-05
-0.00051921589
-2.732565e-05
-0.00050521515
-2.7987116e-05
-0.00049089203
-2.86315e-05
-0.00047625531
-2.9258327e-05
-0.000461314
-2.9867135e-05
-0.00044607736
-3.0457472e-05
-0.00043055483
-3.1028899e-05
-0.00041475609
-3.1580988e-05
-0.00039869102
-3.2113327e-05
-0.00038236971
-3.2625516e-05
-0.00036580242
-3.311717e-05
-0.00034899962
-3.3587917e-05
-0.00033197195
-3.4037401e-05
-0.0003147302
-3.446528e-05
-0.00029728536
-3.4871231e-05
-0.00027964855
-3.5254942e-05
-0.00026183104
-3.5616122e-05
-0.00024384424
-3.5954494e-05
-0.00022569969
-3.6269798e-05
-0.00020740906
-3.6561793e-05
-0.00018898411
-3.6830254e-05
-0.00017043673
-3.7074974e-05
-0.00015177889
-3.7295764e-05
-0.00013302265
-3.7492455e-05
-0.00011418013
-3.7664894e-05
-9.5263538e-05
-3.7812947e-05
-7.6285135e-05
-3.7936501e-05
-5.7257222e-05
-3.8035459e-05
-3.8192144e-05
-3.8109745e-05
-1.9102273e-05
-3.8159301e-05
-3.8184088e-05
1.9136993e-05
-5.7321081e-05
3.8261558e-05
-5.7283867e-05
5.7361281e-05
-5.7209467e-05
7.6423761e-05
-5.709794e-05
9.5436632e-05
-5.6949371e-05
0.00011438756
-5.6763877e-05
0.00013326427
-5.65416e-05
0.00015205453
-5.6282714e-05
0.00017074618
-5.5987417e-05
0.00018932715
-5.5655939e-05
0.00020778543
-5.5288536e-05
0.00022610912
-5.488549e-05
0.00024428644
-5.4447112e-05
0.00026230568
-5.397374e-05
0.0002801553
-5.3465737e-05
0.00029782385
-5.2923492e-05
0.00031530004
-5.2347421e-05
0.00033257272
-5.1737963e-05
0.0003496309
-5.1095582e-05
0.00036646376
-5.0420769e-05
0.00038306062
-4.9714034e-05
0.00039941101
-4.8975912e-05
0.00041550465
-4.8206962e-05
0.00043133142
-4.7407762e-05
0.00044688144
-4.6578912e-05
0.000462145
-4.5721033e-05
0.00047711263
-4.4834766e-05
0.00049177507
-4.3920769e-05
0.00050612329
-4.2979722e-05
0.0005201485
-4.2012319e-05
0.00053384212
-4.1019274e-05
0.00054719585
-4.0001315e-05
0.00056020161
-3.8959187e-05
0.0005728516
-3.7893649e-05
0.00058513824
-3.6805473e-05
0.00059705426
-3.5695447e-05
0.00060859261
-3.4564368e-05
0.00061974655
-3.3413047e-05
0.0006305096
-3.2242305e-05
0.00064087554
-3.1052974e-05
0.00065083845
-2.9845892e-05
0.0006603927
-2.862191e-05
0.00066953292
-2.7381883e-05
0.00067825406
-2.6126674e-05
0.00068655133
-2.4857153e-05
0.00069442025
-2.3574193e-05
0.00070185663
-2.2278675e-05
0.00070885658
-2.0971479e-05
0.00071541649
-1.9653493e-05
0.00072153306
-1.8325602e-05
0.00072720328
-1.6988696e-05
0.00073242445
-1.5643665e-05
0.00073719414
-1.4291399e-05
0.00074151026
-1.2932784e-05
0.00074537096
-1.156871e-05
0.00074877474
-1.0200059e-05
0.00075172036
-8.8277156e-06
0.00075420688
-7.4525565e-06
0.00075623365
-6.0754563e-06
0.00075780034
-4.697284e-06
0.00075890686
-3.3189036e-06
0.00075955344
-1.9411727e-06
0.00075974058
-5.6494274e-07
0.00075946907
8.0894242e-07
0.00075873997
2.1796501e-06
0.00075755463
3.5463545e-06
0.00075591466
4.9082321e-06
0.00075382193
6.2644739e-06
0.00075127862
7.6142809e-06
0.00074828712
8.9568642e-06
0.00074485012
1.0291445e-05
0.00074097054
1.1617257e-05
0.00073665157
1.2933542e-05
0.00073189664
1.4239558e-05
0.00072670943
1.5534572e-05
0.00072109384
1.6817865e-05
0.00071505405
1.8088729e-05
0.00070859442
1.9346472e-05
0.00070171957
2.0590412e-05
0.00069443433
2.1819883e-05
0.00068674375
2.3034232e-05
0.0006786531
2.4232819e-05
0.00067016785
2.541502e-05
0.00066129368
2.6580223e-05
0.00065203645
2.7727833e-05
0.00064240225
2.8857267e-05
0.00063239733
2.9967958e-05
0.00062202813
3.1059354e-05
0.00061130128
3.2130917e-05
0.00060022357
3.3182123e-05
0.00058880197
3.4212464e-05
0.00057704361
3.5221446e-05
0.00056495578
3.6208592e-05
0.00055254593
3.7173437e-05
0.00053982165
3.8115531e-05
0.00052679068
3.903444e-05
0.00051346091
3.9929745e-05
0.00049984034
4.0801039e-05
0.00048593713
4.1647933e-05
0.00047175955
4.2470048e-05
0.00045731598
4.3267024e-05
0.00044261494
4.4038512e-05
0.00042766504
4.4784178e-05
0.00041247501
4.5503701e-05
0.00039705369
4.6196776e-05
0.00038140998
4.686311e-05
0.00036555292
4.7502424e-05
0.00034949161
4.8114452e-05
0.00033323524
4.8698941e-05
0.00031679309
4.9255653e-05
0.00030017449
4.978436e-05
0.00028338887
5.028485e-05
0.00026644571
5.0756922e-05
0.00024935456
5.1200387e-05
0.00023212502
5.161507e-05
0.00021476676
5.2000808e-05
0.00019728948
5.2357448e-05
0.00017970294
5.2684853e-05
0.00016201694
5.2982895e-05
0.00014424132
5.3251459e-05
0.00012638595
5.3490442e-05
0.00010846073
5.3699751e-05
9.0475591e-05
5.3879307e-05
7.2440484e-05
5.4029042e-05
5.436538e-05
5.4148898e-05
3.6260265e-05
5.4238829e-05
1.8135137e-05
5.4298803e-05
2.4381216e-15
5.4328795e-05
-1.8135137e-05
5.4328795e-05
-3.6260265e-05
5.4298803e-05
-5.436538e-05
5.4238829e-05
-7.2440484e-05
5.4148898e-05
-9.0475591e-05
5.4029042e-05
-0.00010846073
5.3879307e-05
-0.00012638595
5.3699751e-05
-0.00014424132
5.3490442e-05
-0.00016201694
5.3251459e-05
-0.00017970294
5.2982895e-05
-0.00019728948
5.2684853e-05
-0.00021476676
5.2357448e-05
-0.00023212502
5.2000808e-05
-0.00024935456
5.161507e-05
-0.00026644571
5.1200387e-05
-0.00028338887
5.0756922e-05
-0.00030017449
5.028485e-05
-0.00031679309
4.978436e-05
-0.00033323524
4.9255653e-05
-0.00034949161
4.8698941e-05
-0.00036555292
4.8114452e-05
-0.00038140998
4.7502424e-05
-0.00039705369
4.686311e-05
-0.00041247501
4.6196776e-05
-0.00042766504
4.5503701e-05
-0.00044261494
4.4784178e-05
-0.00045731598
4.4038512e-05
-0.00047175955
4.3267024e-05
-0.00048593713
4.2470048e-05
-0.00049984034
4.1647933e-05
-0.00051346091
4.0801039e-05
-0.00052679068
3.9929745e-05
-0.00053982165
3.903444e-05
-0.00055254593
3.8115531e-05
-0.00056495578
3.7173437e-05
-0.00057704361
3.6208592e-05
-0.00058880197
3.5221446e-05
-0.00060022357
3.4212464e-05
-0.00061130128
3.3182123e-05
-0.00062202813
3.2130917e-05
-0.00063239733
3.1059354e-05
-0.00064240225
2.9967958e-05
-0.00065203645
2.8857267e-05
-0.00066129368
2.7727833e-05
-0.00067016785
2.6580223e-05
-0.0006786531
2.541502e-05
-0.00068674375
2.4232819e-05
-0.00069443433
2.3034232e-05
-0.00070171957
2.1819883e-05
-0.00070859442
2.0590412e-05
-0.00071505405
1.9346472e-05
-0.00072109384
1.8088729e-05
-0.00072670943
1.6817865e-05
-0.00073189664
1.5534572e-05
-0.00073665157
1.4239558e-05
-0.00074097054
1.2933542e-05
-0.00074485012
1.1617257e-05
-0.00074828712
1.0291445e-05
-0.00075127862
8.9568642e-06
-0.00075382193
7.6142809e-06
-0.00075591466
6.2644739e-06
-0.00075755463
4.9082321e-06
-0.00075873997
3.5463545e-06
-0.00075946907
2.1796501e-06
-0.00075974058
8.0894243e-07
-0.00075955344
-5.6494273e-07
-0.00075890686
-1.9411727e-06
-0.00075780034
-3.3189036e-06
-0.00075623365
-4.697284e-06
-0.00075420688
-6.0754563e-06
-0.00075172036
-7.4525565e-06
-0.00074877474
-8.8277156e-06
-0.00074537096
-1.0200059e-05
-0.00074151026
-1.156871e-05
-0.00073719414
-1.2932784e-05
-0.00073242445
-1.4291399e-05
-0.00072720328
-1.5643665e-05
-0.00072153306
-1.6988696e-05
-0.00071541649
-1.8325602e-05
-0.00070885658
-1.9653493e-05
-0.00070185663
-2.0971479e-05
-0.00069442025
-2.2278675e-05
-0.00068655133
-2.3574193e-05
-0.00067825406
-2.4857153e-05
-0.00066953292
-2.6126674e-05
-0.0006603927
-2.7381883e-05
-0.00065083845
-2.862191e-05
-0.00064087554
-2.9845892e-05
-0.0006305096
-3.1052974e-05
-0.00061974655
-3.2242305e-05
-0.00060859261
-3.3413047e-05
-0.00059705426
-3.4564368e-05
-0.00058513824
-3.5695447e-05
-0.0005728516
-3.6805473e-05
-0.00056020161
-3.7893649e-05
-0.00054719585
-3.8959187e-05
-0.00053384212
-4.0001315e-05
-0.0005201485
-4.1019274e-05
-0.00050612329
-4.2012319e-05
-0.00049177507
-4.2979722e-05
-0.00047711263
-4.3920769e-05
-0.000462145
-4.4834766e-05
-0.00044688144
-4.5721033e-05
-0.00043133142
-4.6578912e-05
-0.00041550465
-4.7407762e-05
-0.00039941101
-4.8206962e-05
-0.00038306062
-4.8975912e-05
-0.00036646376
-4.9714034e-05
-0.0003496309
-5.0420769e-05
-0.00033257272
-5.1095582e-05
-0.00031530004
-5.1737963e-05
-0.00029782385
-5.2347421e-05
-0.0002801553
-5.2923492e-05
-0.00026230568
-5.3465737e-05
-0.00024428644
-5.397374e-05
-0.00022610912
-5.4447112e-05
-0.00020778543
-5.488549e-05
-0.00018932715
-5.5288536e-05
-0.00017074618
-5.5655939e-05
-0.00015205453
-5.5987417e-05
-0.00013326427
-5.6282714e-05
-0.00011438756
-5.65416e-05
-9.5436632e-05
-5.6763877e-05
-7.6423761e-05
-5.6949371e-05
-5.7361281e-05
-5.709794e-05
-3.8261558e-05
-5.7209467e-05
-1.9136993e-05
-5.7283867e-05
-5.7321081e-05
1.9186006e-05
-7.6507087e-05
3.835955e-05
-7.645741e-05
5.7508179e-05
-7.6358096e-05
7.6619459e-05
-7.620922e-05
9.5680987e-05
-7.6010899e-05
0.0001146804
-7.5763286e-05
0.00013360537
-7.5466574e-05
0.00015244365
-7.5120991e-05
0.00017118304
-7.4726807e-05
0.00018981142
-7.4284324e-05
0.00020831677
-7.3793886e-05
0.00022668715
-7.3255871e-05
0.00024491073
-7.2670692e-05
0.00026297579
-7.2038801e-05
0.00028087074
-7.1360683e-05
0.0002985841
-7.0636858e-05
0.00031610456
-6.9867879e-05
0.00033342094
-6.9054336e-05
0.0003505222
-6.8196847e-05
0.0003673975
-6.7296065e-05
0.00038403614
-6.6352675e-05
0.00040042761
-6.536739e-05
0.00041656161
-6.4340955e-05
0.00043242799
-6.3274143e-05
0.00044801683
-6.2167755e-05
0.00046331842
-6.1022621e-05
0.00047832325
-5.9839596e-05
0.00049302204
-5.8619559e-05
0.00050740574
-5.7363417e-05
0.00052146551
-5.6072098e-05
0.00053519279
-5.4746555e-05
0.00054857924
-5.3387759e-05
0.00056161676
-5.1996706e-05
0.00057429752
-5.0574408e-05
0.00058661394
-4.9121898e-05
0.00059855872
-4.7640226e-05
0.00061012481
-4.6130458e-05
0.00062130544
-4.4593676e-05
0.00063209411
-4.3030975e-05
0.0006424846
-4.1443466e-05
0.00065247098
-3.9832271e-05
0.00066204759
-3.8198521e-05
0.00067120907
-3.6543362e-05
0.00067995034
-3.4867945e-05
0.00068826662
-3.317343e-05
0.00069615341
-3.1460984e-05
0.00070360652
-2.9731782e-05
0.00071062204
-2.7987001e-05
0.00071719637
-2.6227823e-05
0.0007233262
-2.4455433e-05
0.00072900852
-2.2671018e-05
0.00073424062
-2.0875765e-05
0.00073902008
-1.9070861e-05
0.00074334479
-1.7257493e-05
0.00074721293
-1.5436845e-05
0.00075062297
-1.3610099e-05
0.00075357368
-1.177843e-05
0.00075606414
-9.9430123e-06
0.00075809369
-8.1050121e-06
0.000759662
-6.2655896e-06
0.00076076899
-4.4258977e-06
0.0007614149
-2.5870813e-06
0.00076160024
-7.5027622e-07
0.00076132579
1.0833917e-06
0.00076059263
2.9128086e-06
0.00075940211
4.7368706e-06
0.00075775586
6.5544829e-06
0.00075565577
8.3645653e-06
0.000753104
1.0166051e-05
0.00075010298
1.1957886e-05
0.00074665539
1.3739033e-05
0.00074276418
1.5508467e-05
0.00073843254
1.7265178e-05
0.00073366393
1.9008175e-05
0.00072846202
2.0736479e-05
0.00072283075
2.2449132e-05
0.00071677429
2.4145189e-05
0.00071029704
2.5823726e-05
0.00070340362
2.7483834e-05
0.00069609888
2.9124623e-05
0.00068838788
3.0745223e-05
0.00068027592
3.234478e-05
0.00067176848
3.3922461e-05
0.00066287126
3.547745e-05
0.00065359014
3.7008952e-05
0.00064393121
3.8516191e-05
0.00063390076
3.999841e-05
0.00062350524
4.1454871e-05
0.0006127513
4.2884858e-05
0.00060164575
4.4287672e-05
0.00059019558
4.5662636e-05
0.00057840794
4.7009091e-05
0.00056629013
4.8326399e-05
0.00055384962
4.9613941e-05
0.00054109404
5.0871118e-05
0.00052803113
5.209735e-05
0.00051466879
5.3292077e-05
0.00050101507
5.4454759e-05
0.00048707813
5.5584875e-05
0.00047286626
5.6681922e-05
0.00045838787
5.7745417e-05
0.00044365148
5.8774896e-05
0.00042866575
5.9769915e-05
0.0004134394
6.0730045e-05
0.0003979813
6.1654879e-05
0.00038230038
6.2544027e-05
0.00036640569
6.3397116e-05
0.00035030635
6.4213792e-05
0.00033401157
6.4993719e-05
0.00031753065
6.5736578e-05
0.00030087294
6.6442067e-05
0.00028404789
6.7109902e-05
0.00026706499
6.7739814e-05
0.00024993383
6.8331554e-05
0.00023266401
6.8884887e-05
0.00021526522
6.9399595e-05
0.00019774719
6.9875477e-05
0.0001801197
7.0312347e-05
0.00016239256
7.0710037e-05
0.00014457563
7.1068392e-05
0.00012667879
7.1387275e-05
0.00010871198
7.1666563e-05
9.0685138e-05
7.1906151e-05
7.2608233e-05
7.2105946e-05
5.4491257e-05
7.2265874e-05
3.6344215e-05
7.2385872e-05
1.8177121e-05
7.2465896e-05
2.2720362e-15
7.2505916e-05
-1.8177121e-05
7.2505916e-05
-3.6344215e-05
7.2465896e-05
-5.4491257e-05
7.2385872e-05
-7.2608233e-05
7.2265874e-05
-9.0685138e-05
7.2105946e-05
-0.00010871198
7.1906151e-05
-0.00012667879
7.1666563e-05
-0.00014457563
7.1387275e-05
-0.00016239256
7.1068392e-05
-0.0001801197
7.0710037e-05
-0.00019774719
7.0312347e-05
-0.00021526522
6.9875477e-05
-0.00023266401
6.9399595e-05
-0.00024993383
6.8884887e-05
-0.00026706499
6.8331554e-05
-0.00028404789
6.7739814e-05
-0.00030087294
6.7109902e-05
-0.00031753065
6.6442067e-05
-0.00033401157
6.5736578e-05
-0.00035030635
6.4993719e-05
-0.00036640569
6.4213792e-05
-0.00038230038
6.3397116e-05
-0.0003979813
6.2544027e-05
-0.0004134394
6.1654879e-05
-0.00042866575
6.0730045e-05
-0.00044365148
5.9769915e-05
-0.00045838787
5.8774896e-05
-0.00047286626
5.7745417e-05
-0.00048707813
5.6681922e-05
-0.00050101507
5.5584875e-05
-0.00051466879
5.4454759e-05
-0.00052803113
5.3292077e-05
-0.00054109404
5.209735e-05
-0.00055384962
5.0871118e-05
-0.00056629013
4.9613941e-05
-0.00057840794
4.8326399e-05
-0.00059019558
4.7009091e-05
-0.00060164575
4.5662636e-05
-0.0006127513
4.4287672e-05
-0.00062350524
4.2884858e-05
-0.00063390076
4.1454871e-05
-0.00064393121
3.999841e-05
-0.00065359014
3.8516191e-05
-0.00066287126
3.7008952e-05
-0.00067176848
3.547745e-05
-0.00068027592
3.3922461e-05
-0.00068838788
3.234478e-05
-0.00069609888
3.0745223e-05
-0.00070340362
2.9124623e-05
-0.00071029704
2.7483834e-05
-0.00071677429
2.5823726e-05
-0.00072283075
2.4145189e-05
-0.00072846202
2.2449132e-05
-0.00073366393
2.0736479e-05
-0.00073843254
1.9008175e-05
-0.00074276418
1.7265178e-05
-0.00074665539
1.5508467e-05
-0.00075010298
1.3739033e-05
-0.000753104
1.1957886e-05
-0.00075565577
1.0166051e-05
-0.00075775586
8.3645653e-06
-0.00075940211
6.5544829e-06
-0.00076059263
4.7368706e-06
-0.00076132579
2.9128086e-06
-0.00076160024
1.0833917e-06
-0.0007614149
-7.5027621e-07
-0.00076076899
-2.5870813e-06
-0.000759662
-4.4258977e-06
-0.00075809369
-6.2655895e-06
-0.00075606414
-8.1050121e-06
-0.00075357368
-9.9430123e-06
-0.00075062297
-1.177843e-05
-0.00074721293
-1.3610099e-05
-0.00074334479
-1.5436845e-05
-0.00073902008
-1.7257493e-05
-0.00073424062
-1.9070861e-05
-0.00072900852
-2.0875765e-05
-0.0007233262
-2.2671018e-05
-0.00071719637
-2.4455433e-05
-0.00071062204
-2.6227823e-05
-0.00070360652
-2.7987001e-05
-0.00069615341
-2.9731782e-05
-0.00068826662
-3.1460984e-05
-0.00067995034
-3.317343e-05
-0.00067120907
-3.4867945e-05
-0.00066204759
-3.6543362e-05
-0.00065247098
-3.8198521e-05
-0.0006424846
-3.9832271e-05
-0.00063209411
-4.1443466e-05
-0.00062130544
-4.3030975e-05
-0.00061012481
-4.4593676e-05
-0.00059855872
-4.6130458e-05
-0.00058661394
-4.7640226e-05
-0.00057429752
-4.9121898e-05
-0.00056161676
-5.0574408e-05
-0.00054857924
-5.1996706e-05
-0.00053519279
-5.3387759e-05
-0.00052146551
-5.4746555e-05
-0.00050740574
-5.6072098e-05
-0.00049302204
-5.7363417e-05
-0.00047832325
-5.8619559e-05
-0.00046331842
-5.9839596e-05
-0.00044801683
-6.1022621e-05
-0.00043242799
-6.2167755e-05
-0.00041656161
-6.3274143e-05
-0.00040042761
-6.4340955e-05
-0.00038403614
-6.536739e-05
-0.0003673975
-6.6352675e-05
-0.0003505222
-6.7296065e-05
-0.00033342094
-6.8196847e-05
-0.00031610456
-6.9054336e-05
-0.0002985841
-6.9867879e-05
-0.00028087074
-7.0636858e-05
-0.00026297579
-7.1360683e-05
-0.00024491073
-7.2038801e-05