/*--------------------------------*- C++ -*----------------------------------*\
| =========                 |                                                 |
| \\      /  F ield         | OpenFOAM: The Open Source CFD Toolbox           |
|  \\    /   O peration     | Version:  2106                                  |
|   \\  /    A nd           | Website:  www.openfoam.com                      |
|    \\/     M anipulation  |                                                 |
\*---------------------------------------------------------------------------*/
FoamFile
{
    version     2.0;
    format      ascii;
    arch        "LSB;label=32;scalar=64";
    class       volVectorField;
    location    "0.01";
    object      U;
}
// * * * * * * * * * * * * * * * * * * * * * * * * * * * * * * * * * * * * * //

dimensions      [0 1 -1 0 0 0 0];

internalField   nonuniform List<vector> 
65536
(
(0.0024414476 -0.0024406769 0)
(0.007322758 -0.0024390926 0)
(0.012199315 -0.0024359252 0)
(0.017067953 -0.0024311771 0)
(0.021925515 -0.0024248521 0)
(0.026768848 -0.002416955 0)
(0.031594816 -0.002407492 0)
(0.036400291 -0.0023964704 0)
(0.041182164 -0.0023838986 0)
(0.045937344 -0.0023697865 0)
(0.050662759 -0.0023541449 0)
(0.055355361 -0.0023369859 0)
(0.060012128 -0.0023183227 0)
(0.064630064 -0.0022981696 0)
(0.069206204 -0.0022765421 0)
(0.073737616 -0.0022534568 0)
(0.078221399 -0.0022289313 0)
(0.082654691 -0.0022029845 0)
(0.087034669 -0.0021756359 0)
(0.091358549 -0.0021469065 0)
(0.095623589 -0.002116818 0)
(0.099827094 -0.0020853933 0)
(0.10396641 -0.0020526559 0)
(0.10803895 -0.0020186306 0)
(0.11204214 -0.001983343 0)
(0.1159735 -0.0019468194 0)
(0.11983058 -0.001909087 0)
(0.12361098 -0.001870174 0)
(0.12731238 -0.0018301093 0)
(0.13093249 -0.0017889223 0)
(0.13446912 -0.0017466435 0)
(0.13792009 -0.0017033039 0)
(0.14128332 -0.0016589352 0)
(0.14455679 -0.0016135696 0)
(0.14773854 -0.0015672401 0)
(0.15082666 -0.0015199802 0)
(0.15381933 -0.0014718238 0)
(0.15671479 -0.0014228054 0)
(0.15951135 -0.00137296 0)
(0.1622074 -0.0013223229 0)
(0.16480139 -0.0012709299 0)
(0.16729183 -0.0012188171 0)
(0.16967733 -0.001166021 0)
(0.17195655 -0.0011125784 0)
(0.17412825 -0.0010585261 0)
(0.17619123 -0.0010039014 0)
(0.17814439 -0.00094874184 0)
(0.17998669 -0.00089308484 0)
(0.18171719 -0.00083696812 0)
(0.18333499 -0.00078042947 0)
(0.1848393 -0.00072350673 0)
(0.18622938 -0.00066623777 0)
(0.18750457 -0.00060866044 0)
(0.18866431 -0.00055081257 0)
(0.18970808 -0.00049273193 0)
(0.19063545 -0.00043445618 0)
(0.19144608 -0.00037602287 0)
(0.19213969 -0.00031746938 0)
(0.19271607 -0.00025883293 0)
(0.19317509 -0.00020015052 0)
(0.19351671 -0.00014145891 0)
(0.19374093 -8.2794591e-05 0)
(0.19384785 -2.4193842e-05 0)
(0.19383763 3.4308005e-05 0)
(0.19371053 9.2670868e-05 0)
(0.19346681 0.00015086904 0)
(0.19310688 0.00020886011 0)
(0.19263117 0.00026661122 0)
(0.1920402 0.00032408868 0)
(0.19133455 0.0003812589 0)
(0.19051486 0.00043808871 0)
(0.18958186 0.00049454544 0)
(0.18853632 0.00055059689 0)
(0.18737908 0.00060621136 0)
(0.18611105 0.00066135767 0)
(0.18473319 0.00071600519 0)
(0.18324654 0.00077012381 0)
(0.18165218 0.00082368398 0)
(0.17995126 0.00087665673 0)
(0.17814498 0.00092901364 0)
(0.17623461 0.0009807269 0)
(0.17422145 0.0010317693 0)
(0.17210688 0.0010821142 0)
(0.16989231 0.0011317355 0)
(0.16757923 0.0011806079 0)
(0.16516915 0.0012287066 0)
(0.16266365 0.0012760074 0)
(0.16006434 0.0013224868 0)
(0.1573729 0.0013681218 0)
(0.15459103 0.0014128901 0)
(0.15172049 0.0014567702 0)
(0.14876308 0.0014997409 0)
(0.14572063 0.0015417818 0)
(0.14259504 0.0015828733 0)
(0.13938821 0.001622996 0)
(0.1361021 0.0016621316 0)
(0.13273871 0.0017002621 0)
(0.12930007 0.0017373703 0)
(0.12578823 0.0017734394 0)
(0.12220529 0.0018084534 0)
(0.11855338 0.0018423969 0)
(0.11483465 0.001875255 0)
(0.11105129 0.0019070135 0)
(0.10720551 0.0019376588 0)
(0.10329956 0.0019671777 0)
(0.099335689 0.0019955578 0)
(0.0953162 0.0020227872 0)
(0.091243404 0.0020488546 0)
(0.087119635 0.0020737492 0)
(0.082947249 0.0020974608 0)
(0.078728623 0.0021199797 0)
(0.074466151 0.0021412968 0)
(0.070162247 0.0021614036 0)
(0.06581934 0.002180292 0)
(0.061439874 0.0021979546 0)
(0.057026309 0.0022143844 0)
(0.052581117 0.0022295748 0)
(0.048106783 0.0022435201 0)
(0.043605804 0.0022562147 0)
(0.039080686 0.0022676538 0)
(0.034533946 0.002277833 0)
(0.029968108 0.0022867482 0)
(0.025385703 0.0022943962 0)
(0.020789269 0.0023007739 0)
(0.01618135 0.0023058791 0)
(0.011564494 0.0023097096 0)
(0.0069412518 0.0023122641 0)
(0.0023141765 0.0023135416 0)
(-0.0023141765 0.0023135416 0)
(-0.0069412518 0.0023122641 0)
(-0.011564494 0.0023097096 0)
(-0.01618135 0.0023058791 0)
(-0.020789269 0.0023007739 0)
(-0.025385703 0.0022943962 0)
(-0.029968108 0.0022867482 0)
(-0.034533946 0.002277833 0)
(-0.039080686 0.0022676538 0)
(-0.043605804 0.0022562147 0)
(-0.048106783 0.0022435201 0)
(-0.052581117 0.0022295748 0)
(-0.057026309 0.0022143844 0)
(-0.061439874 0.0021979546 0)
(-0.06581934 0.002180292 0)
(-0.070162247 0.0021614036 0)
(-0.074466151 0.0021412968 0)
(-0.078728623 0.0021199797 0)
(-0.082947249 0.0020974608 0)
(-0.087119635 0.0020737492 0)
(-0.091243404 0.0020488546 0)
(-0.0953162 0.0020227872 0)
(-0.099335689 0.0019955578 0)
(-0.10329956 0.0019671777 0)
(-0.10720551 0.0019376588 0)
(-0.11105129 0.0019070135 0)
(-0.11483465 0.001875255 0)
(-0.11855338 0.0018423969 0)
(-0.12220529 0.0018084534 0)
(-0.12578823 0.0017734394 0)
(-0.12930007 0.0017373703 0)
(-0.13273871 0.0017002621 0)
(-0.1361021 0.0016621316 0)
(-0.13938821 0.001622996 0)
(-0.14259504 0.0015828733 0)
(-0.14572063 0.0015417818 0)
(-0.14876308 0.0014997409 0)
(-0.15172049 0.0014567702 0)
(-0.15459103 0.0014128901 0)
(-0.1573729 0.0013681218 0)
(-0.16006434 0.0013224868 0)
(-0.16266365 0.0012760074 0)
(-0.16516915 0.0012287066 0)
(-0.16757923 0.0011806079 0)
(-0.16989231 0.0011317355 0)
(-0.17210688 0.0010821142 0)
(-0.17422145 0.0010317693 0)
(-0.17623461 0.0009807269 0)
(-0.17814498 0.00092901364 0)
(-0.17995126 0.00087665673 0)
(-0.18165218 0.00082368398 0)
(-0.18324654 0.00077012381 0)
(-0.18473319 0.00071600519 0)
(-0.18611105 0.00066135767 0)
(-0.18737908 0.00060621136 0)
(-0.18853632 0.00055059689 0)
(-0.18958186 0.00049454544 0)
(-0.19051486 0.00043808871 0)
(-0.19133455 0.00038125889 0)
(-0.1920402 0.00032408868 0)
(-0.19263117 0.00026661122 0)
(-0.19310688 0.00020886011 0)
(-0.19346681 0.00015086904 0)
(-0.19371053 9.2670867e-05 0)
(-0.19383763 3.4308004e-05 0)
(-0.19384785 -2.4193843e-05 0)
(-0.19374093 -8.2794592e-05 0)
(-0.19351671 -0.00014145891 0)
(-0.19317509 -0.00020015052 0)
(-0.19271607 -0.00025883293 0)
(-0.19213969 -0.00031746938 0)
(-0.19144608 -0.00037602287 0)
(-0.19063545 -0.00043445618 0)
(-0.18970808 -0.00049273193 0)
(-0.18866431 -0.00055081257 0)
(-0.18750457 -0.00060866044 0)
(-0.18622938 -0.00066623777 0)
(-0.1848393 -0.00072350673 0)
(-0.18333499 -0.00078042947 0)
(-0.18171719 -0.00083696812 0)
(-0.17998669 -0.00089308484 0)
(-0.17814439 -0.00094874184 0)
(-0.17619123 -0.0010039014 0)
(-0.17412825 -0.0010585261 0)
(-0.17195655 -0.0011125784 0)
(-0.16967733 -0.001166021 0)
(-0.16729183 -0.0012188171 0)
(-0.16480139 -0.0012709299 0)
(-0.1622074 -0.0013223229 0)
(-0.15951135 -0.00137296 0)
(-0.15671479 -0.0014228054 0)
(-0.15381933 -0.0014718238 0)
(-0.15082666 -0.0015199802 0)
(-0.14773854 -0.0015672401 0)
(-0.14455679 -0.0016135696 0)
(-0.14128332 -0.0016589352 0)
(-0.13792009 -0.0017033039 0)
(-0.13446912 -0.0017466435 0)
(-0.13093249 -0.0017889223 0)
(-0.12731238 -0.0018301093 0)
(-0.12361098 -0.001870174 0)
(-0.11983058 -0.001909087 0)
(-0.1159735 -0.0019468194 0)
(-0.11204214 -0.001983343 0)
(-0.10803895 -0.0020186306 0)
(-0.10396641 -0.0020526559 0)
(-0.099827094 -0.0020853933 0)
(-0.095623589 -0.002116818 0)
(-0.091358549 -0.0021469065 0)
(-0.087034669 -0.0021756359 0)
(-0.082654691 -0.0022029845 0)
(-0.078221399 -0.0022289313 0)
(-0.073737616 -0.0022534568 0)
(-0.069206204 -0.0022765421 0)
(-0.064630064 -0.0022981696 0)
(-0.060012128 -0.0023183227 0)
(-0.055355361 -0.0023369859 0)
(-0.050662759 -0.0023541449 0)
(-0.045937344 -0.0023697865 0)
(-0.041182164 -0.0023838986 0)
(-0.036400291 -0.0023964704 0)
(-0.031594816 -0.002407492 0)
(-0.026768848 -0.002416955 0)
(-0.021925515 -0.0024248521 0)
(-0.017067953 -0.0024311771 0)
(-0.012199315 -0.0024359252 0)
(-0.007322758 -0.0024390926 0)
(-0.0024414476 -0.0024406769 0)
(0.0024440655 -0.0073239848 0)
(0.0073306096 -0.0073192304 0)
(0.012212394 -0.0073097252 0)
(0.017086251 -0.0072954767 0)
(0.021949017 -0.0072764958 0)
(0.026797539 -0.0072527973 0)
(0.031628673 -0.0072243996 0)
(0.036439289 -0.0071913246 0)
(0.041226275 -0.0071535979 0)
(0.045986535 -0.0071112487 0)
(0.050716994 -0.0070643097 0)
(0.055414601 -0.007012817 0)
(0.060076329 -0.0069568104 0)
(0.06469918 -0.0068963328 0)
(0.069280184 -0.0068314307 0)
(0.073816405 -0.0067621539 0)
(0.07830494 -0.0066885553 0)
(0.082742925 -0.0066106912 0)
(0.08712753 -0.0065286209 0)
(0.09145597 -0.0064424068 0)
(0.0957255 -0.0063521143 0)
(0.099933421 -0.0062578118 0)
(0.10407708 -0.0061595705 0)
(0.10815387 -0.0060574642 0)
(0.11216125 -0.0059515698 0)
(0.1160967 -0.0058419664 0)
(0.11995778 -0.0057287358 0)
(0.12374209 -0.0056119624 0)
(0.12744731 -0.0054917327 0)
(0.13107116 -0.0053681356 0)
(0.1346114 -0.0052412622 0)
(0.13806591 -0.0051112054 0)
(0.14143257 -0.0049780604 0)
(0.14470935 -0.0048419242 0)
(0.14789431 -0.0047028955 0)
(0.15098554 -0.0045610748 0)
(0.1539812 -0.004416564 0)
(0.15687955 -0.0042694667 0)
(0.15967889 -0.0041198877 0)
(0.16237759 -0.0039679332 0)
(0.16497412 -0.0038137105 0)
(0.16746698 -0.003657328 0)
(0.16985478 -0.0034988952 0)
(0.17213619 -0.0033385222 0)
(0.17430995 -0.0031763201 0)
(0.17637487 -0.0030124006 0)
(0.17832985 -0.002846876 0)
(0.18017386 -0.0026798589 0)
(0.18190593 -0.0025114626 0)
(0.18352518 -0.0023418003 0)
(0.18503082 -0.0021709856 0)
(0.1864221 -0.0019991321 0)
(0.18769837 -0.0018263536 0)
(0.18885905 -0.0016527634 0)
(0.18990365 -0.0014784749 0)
(0.19083173 -0.0013036012 0)
(0.19164293 -0.001128255 0)
(0.19233699 -0.0009525483 0)
(0.1929137 -0.00077659293 0)
(0.19337294 -0.0006004999 0)
(0.19371464 -0.00042437954 0)
(0.19393882 -0.00024834146 0)
(0.19404559 -7.2494697e-05 0)
(0.19403509 0.00010305221 0)
(0.19390758 0.00027819483 0)
(0.19366335 0.00045282827 0)
(0.19330278 0.00062684435 0)
(0.19282632 0.00080014085 0)
(0.19223448 0.00097261593 0)
(0.19152785 0.0011441688 0)
(0.19070707 0.0013146999 0)
(0.18977286 0.0014841112 0)
(0.188726 0.0016523061 0)
(0.18756734 0.0018191896 0)
(0.18629777 0.0019846679 0)
(0.18491828 0.0021486493 0)
(0.18342989 0.0023110434 0)
(0.18183369 0.0024717614 0)
(0.18013082 0.0026307166 0)
(0.1783225 0.0027878235 0)
(0.17640998 0.0029429989 0)
(0.17439459 0.0030961609 0)
(0.17227769 0.0032472296 0)
(0.17006071 0.0033961271 0)
(0.16774511 0.0035427771 0)
(0.16533244 0.0036871051 0)
(0.16282425 0.0038290387 0)
(0.16022218 0.0039685073 0)
(0.15752789 0.004105442 0)
(0.15474309 0.004239776 0)
(0.15186955 0.0043714444 0)
(0.14890906 0.0045003839 0)
(0.14586346 0.0046265334 0)
(0.14273464 0.0047498336 0)
(0.13952451 0.0048702271 0)
(0.13623505 0.0049876581 0)
(0.13286823 0.0051020732 0)
(0.12942609 0.0052134204 0)
(0.1259107 0.0053216497 0)
(0.12232415 0.005426713 0)
(0.11866858 0.0055285639 0)
(0.11494613 0.005627158 0)
(0.11115899 0.0057224524 0)
(0.10730939 0.0058144063 0)
(0.10339956 0.0059029805 0)
(0.099431777 0.0059881375 0)
(0.095408325 0.0060698416 0)
(0.091331523 0.0061480588 0)
(0.087203708 0.0062227569 0)
(0.083027238 0.0062939052 0)
(0.078804492 0.0063614748 0)
(0.074537866 0.0064254383 0)
(0.070229776 0.0064857701 0)
(0.065882652 0.006542446 0)
(0.061498941 0.0065954437 0)
(0.057081105 0.0066447421 0)
(0.052631618 0.006690322 0)
(0.048152967 0.0067321656 0)
(0.04364765 0.0067702565 0)
(0.039118177 0.0068045801 0)
(0.034567064 0.0068351231 0)
(0.029996839 0.0068618738 0)
(0.025410035 0.0068848219 0)
(0.020809192 0.0069039587 0)
(0.016196855 0.0069192768 0)
(0.011575574 0.0069307705 0)
(0.0069479013 0.0069384354 0)
(0.0023163933 0.0069422686 0)
(-0.0023163933 0.0069422686 0)
(-0.0069479013 0.0069384354 0)
(-0.011575574 0.0069307705 0)
(-0.016196855 0.0069192768 0)
(-0.020809192 0.0069039587 0)
(-0.025410035 0.0068848219 0)
(-0.029996839 0.0068618738 0)
(-0.034567064 0.0068351231 0)
(-0.039118177 0.0068045801 0)
(-0.04364765 0.0067702565 0)
(-0.048152967 0.0067321656 0)
(-0.052631618 0.006690322 0)
(-0.057081105 0.0066447421 0)
(-0.061498941 0.0065954437 0)
(-0.065882652 0.006542446 0)
(-0.070229776 0.0064857701 0)
(-0.074537866 0.0064254383 0)
(-0.078804492 0.0063614748 0)
(-0.083027238 0.0062939052 0)
(-0.087203708 0.0062227569 0)
(-0.091331523 0.0061480588 0)
(-0.095408325 0.0060698416 0)
(-0.099431777 0.0059881375 0)
(-0.10339956 0.0059029805 0)
(-0.10730939 0.0058144063 0)
(-0.11115899 0.0057224524 0)
(-0.11494613 0.005627158 0)
(-0.11866858 0.0055285639 0)
(-0.12232415 0.005426713 0)
(-0.1259107 0.0053216497 0)
(-0.12942609 0.0052134204 0)
(-0.13286823 0.0051020732 0)
(-0.13623505 0.0049876581 0)
(-0.13952451 0.0048702271 0)
(-0.14273464 0.0047498336 0)
(-0.14586346 0.0046265334 0)
(-0.14890906 0.0045003839 0)
(-0.15186955 0.0043714444 0)
(-0.15474309 0.004239776 0)
(-0.15752789 0.004105442 0)
(-0.16022218 0.0039685073 0)
(-0.16282425 0.0038290387 0)
(-0.16533244 0.0036871051 0)
(-0.16774511 0.0035427771 0)
(-0.17006071 0.0033961271 0)
(-0.17227769 0.0032472296 0)
(-0.17439459 0.0030961609 0)
(-0.17640998 0.0029429989 0)
(-0.1783225 0.0027878235 0)
(-0.18013082 0.0026307166 0)
(-0.18183369 0.0024717614 0)
(-0.18342989 0.0023110434 0)
(-0.18491828 0.0021486493 0)
(-0.18629777 0.0019846679 0)
(-0.18756734 0.0018191896 0)
(-0.188726 0.0016523061 0)
(-0.18977286 0.0014841112 0)
(-0.19070707 0.0013146999 0)
(-0.19152785 0.0011441688 0)
(-0.19223448 0.00097261593 0)
(-0.19282632 0.00080014085 0)
(-0.19330278 0.00062684435 0)
(-0.19366335 0.00045282827 0)
(-0.19390758 0.00027819483 0)
(-0.19403509 0.00010305221 0)
(-0.19404559 -7.2494697e-05 0)
(-0.19393882 -0.00024834146 0)
(-0.19371464 -0.00042437954 0)
(-0.19337294 -0.0006004999 0)
(-0.1929137 -0.00077659293 0)
(-0.19233699 -0.0009525483 0)
(-0.19164293 -0.001128255 0)
(-0.19083173 -0.0013036012 0)
(-0.18990365 -0.0014784749 0)
(-0.18885905 -0.0016527634 0)
(-0.18769837 -0.0018263536 0)
(-0.1864221 -0.0019991321 0)
(-0.18503082 -0.0021709856 0)
(-0.18352518 -0.0023418003 0)
(-0.18190593 -0.0025114626 0)
(-0.18017386 -0.0026798589 0)
(-0.17832985 -0.002846876 0)
(-0.17637487 -0.0030124006 0)
(-0.17430995 -0.0031763201 0)
(-0.17213619 -0.0033385222 0)
(-0.16985478 -0.0034988952 0)
(-0.16746698 -0.003657328 0)
(-0.16497412 -0.0038137105 0)
(-0.16237759 -0.0039679332 0)
(-0.15967889 -0.0041198877 0)
(-0.15687955 -0.0042694667 0)
(-0.1539812 -0.004416564 0)
(-0.15098554 -0.0045610748 0)
(-0.14789431 -0.0047028955 0)
(-0.14470935 -0.0048419242 0)
(-0.14143257 -0.0049780604 0)
(-0.13806591 -0.0051112054 0)
(-0.1346114 -0.0052412622 0)
(-0.13107116 -0.0053681356 0)
(-0.12744731 -0.0054917327 0)
(-0.12374209 -0.0056119624 0)
(-0.11995778 -0.0057287358 0)
(-0.1160967 -0.0058419664 0)
(-0.11216125 -0.0059515698 0)
(-0.10815387 -0.0060574642 0)
(-0.10407708 -0.0061595705 0)
(-0.099933421 -0.0062578118 0)
(-0.0957255 -0.0063521143 0)
(-0.09145597 -0.0064424068 0)
(-0.08712753 -0.0065286209 0)
(-0.082742925 -0.0066106912 0)
(-0.07830494 -0.0066885553 0)
(-0.073816405 -0.0067621539 0)
(-0.069280184 -0.0068314307 0)
(-0.06469918 -0.0068963328 0)
(-0.060076329 -0.0069568104 0)
(-0.055414601 -0.007012817 0)
(-0.050716994 -0.0070643097 0)
(-0.045986535 -0.0071112487 0)
(-0.041226275 -0.0071535979 0)
(-0.036439289 -0.0071913246 0)
(-0.031628673 -0.0072243996 0)
(-0.026797539 -0.0072527973 0)
(-0.021949017 -0.0072764958 0)
(-0.017086251 -0.0072954767 0)
(-0.012212394 -0.0073097252 0)
(-0.0073306096 -0.0073192304 0)
(-0.0024440655 -0.0073239848 0)
(0.0024485088 -0.012214836 0)
(0.0073439362 -0.012206906 0)
(0.012234595 -0.012191052 0)
(0.017117309 -0.012167287 0)
(0.02198891 -0.012135628 0)
(0.026846237 -0.0120961 0)
(0.03168614 -0.012048735 0)
(0.036505485 -0.011993568 0)
(0.041301151 -0.011930643 0)
(0.046070036 -0.011860007 0)
(0.05080906 -0.011781716 0)
(0.055515165 -0.01169583 0)
(0.060185317 -0.011602415 0)
(0.064816513 -0.011501543 0)
(0.069405778 -0.011393291 0)
(0.073950169 -0.011277743 0)
(0.078446777 -0.011154987 0)
(0.082892732 -0.011025116 0)
(0.0872852 -0.010888229 0)
(0.09162139 -0.010744431 0)
(0.09589855 -0.010593831 0)
(0.10011398 -0.010436543 0)
(0.10426502 -0.010272686 0)
(0.10834905 -0.010102382 0)
(0.11236353 -0.0099257604 0)
(0.11630594 -0.0097429528 0)
(0.12017384 -0.0095540959 0)
(0.12396481 -0.0093593301 0)
(0.12767653 -0.0091587999 0)
(0.13130672 -0.0089526536 0)
(0.13485315 -0.0087410431 0)
(0.13831366 -0.0085241236 0)
(0.14168615 -0.0083020538 0)
(0.1449686 -0.0080749954 0)
(0.14815904 -0.0078431132 0)
(0.15125556 -0.0076065747 0)
(0.15425634 -0.0073655501 0)
(0.15715961 -0.007120212 0)
(0.15996367 -0.0068707355 0)
(0.16266691 -0.0066172974 0)
(0.16526778 -0.0063600771 0)
(0.16776479 -0.0060992551 0)
(0.17015653 -0.0058350141 0)
(0.17244168 -0.005567538 0)
(0.17461897 -0.0052970118 0)
(0.17668723 -0.0050236221 0)
(0.17864533 -0.0047475559 0)
(0.18049225 -0.0044690014 0)
(0.18222702 -0.0041881473 0)
(0.18384877 -0.0039051826 0)
(0.18535669 -0.0036202968 0)
(0.18675004 -0.0033336793 0)
(0.18802818 -0.0030455198 0)
(0.18919051 -0.0027560076 0)
(0.19023655 -0.0024653316 0)
(0.19116585 -0.0021736805 0)
(0.19197807 -0.0018812421 0)
(0.19267294 -0.0015882036 0)
(0.19325024 -0.0012947513 0)
(0.19370986 -0.0010010703 0)
(0.19405174 -0.00070734476 0)
(0.19427589 -0.00041375743 0)
(0.19438242 -0.00012048982 0)
(0.19437148 0.00017227806 0)
(0.19424332 0.00046436939 0)
(0.19399824 0.00075560842 0)
(0.19363662 0.0010458188 0)
(0.19315891 0.0013348283 0)
(0.19256563 0.0016224668 0)
(0.19185735 0.0019085663 0)
(0.19103474 0.0021929609 0)
(0.19009851 0.0024754869 0)
(0.18904944 0.0027559834 0)
(0.18788838 0.0030342917 0)
(0.18661623 0.0033102558 0)
(0.18523398 0.0035837225 0)
(0.18374265 0.003854541 0)
(0.18214333 0.0041225637 0)
(0.18043718 0.0043876454 0)
(0.1786254 0.004649644 0)
(0.17670926 0.0049084205 0)
(0.17469008 0.0051638385 0)
(0.17256924 0.0054157649 0)
(0.17034815 0.0056640695 0)
(0.1680283 0.0059086252 0)
(0.16561122 0.0061493081 0)
(0.16309848 0.0063859971 0)
(0.1604917 0.0066185746 0)
(0.15779257 0.0068469259 0)
(0.1550028 0.0070709395 0)
(0.15212415 0.007290507 0)
(0.14915842 0.0075055234 0)
(0.14610745 0.0077158865 0)
(0.14297314 0.0079214975 0)
(0.13975741 0.0081222606 0)
(0.13646221 0.0083180832 0)
(0.13308956 0.0085088759 0)
(0.12964148 0.0086945521 0)
(0.12612003 0.0088750286 0)
(0.12252733 0.0090502251 0)
(0.1188655 0.0092200644 0)
(0.1151367 0.0093844723 0)
(0.11134313 0.0095433776 0)
(0.107487 0.0096967121 0)
(0.10357056 0.0098444104 0)
(0.099596083 0.0099864102 0)
(0.095565864 0.010122652 0)
(0.09148222 0.010253079 0)
(0.087347494 0.010377638 0)
(0.083164046 0.010496277 0)
(0.078934259 0.010608948 0)
(0.074660533 0.010715606 0)
(0.070345287 0.010816208 0)
(0.065990955 0.010910714 0)
(0.061599987 0.010999086 0)
(0.057174848 0.01108129 0)
(0.052718016 0.011157293 0)
(0.048231981 0.011227066 0)
(0.043719246 0.011290581 0)
(0.039182321 0.011347815 0)
(0.034623729 0.011398744 0)
(0.030046 0.01144335 0)
(0.025451669 0.011481615 0)
(0.020843281 0.011513524 0)
(0.016223384 0.011539067 0)
(0.011594532 0.011558232 0)
(0.0069592794 0.011571013 0)
(0.0023201866 0.011577405 0)
(-0.0023201866 0.011577405 0)
(-0.0069592794 0.011571013 0)
(-0.011594532 0.011558232 0)
(-0.016223384 0.011539067 0)
(-0.020843281 0.011513524 0)
(-0.025451669 0.011481615 0)
(-0.030046 0.01144335 0)
(-0.034623729 0.011398744 0)
(-0.039182321 0.011347815 0)
(-0.043719246 0.011290581 0)
(-0.048231981 0.011227066 0)
(-0.052718016 0.011157293 0)
(-0.057174848 0.01108129 0)
(-0.061599987 0.010999086 0)
(-0.065990955 0.010910714 0)
(-0.070345287 0.010816208 0)
(-0.074660533 0.010715606 0)
(-0.078934259 0.010608948 0)
(-0.083164046 0.010496277 0)
(-0.087347494 0.010377638 0)
(-0.09148222 0.010253079 0)
(-0.095565864 0.010122652 0)
(-0.099596083 0.0099864102 0)
(-0.10357056 0.0098444104 0)
(-0.107487 0.0096967121 0)
(-0.11134313 0.0095433776 0)
(-0.1151367 0.0093844723 0)
(-0.1188655 0.0092200644 0)
(-0.12252733 0.0090502251 0)
(-0.12612003 0.0088750286 0)
(-0.12964148 0.0086945521 0)
(-0.13308956 0.0085088759 0)
(-0.13646221 0.0083180832 0)
(-0.13975741 0.0081222606 0)
(-0.14297314 0.0079214975 0)
(-0.14610745 0.0077158865 0)
(-0.14915842 0.0075055234 0)
(-0.15212415 0.007290507 0)
(-0.1550028 0.0070709395 0)
(-0.15779257 0.0068469259 0)
(-0.1604917 0.0066185746 0)
(-0.16309848 0.0063859971 0)
(-0.16561122 0.0061493081 0)
(-0.1680283 0.0059086253 0)
(-0.17034815 0.0056640695 0)
(-0.17256924 0.0054157649 0)
(-0.17469008 0.0051638385 0)
(-0.17670926 0.0049084205 0)
(-0.1786254 0.004649644 0)
(-0.18043718 0.0043876454 0)
(-0.18214333 0.0041225637 0)
(-0.18374265 0.003854541 0)
(-0.18523398 0.0035837225 0)
(-0.18661623 0.0033102558 0)
(-0.18788838 0.0030342917 0)
(-0.18904944 0.0027559834 0)
(-0.19009851 0.0024754869 0)
(-0.19103474 0.0021929609 0)
(-0.19185735 0.0019085663 0)
(-0.19256563 0.0016224668 0)
(-0.19315891 0.0013348283 0)
(-0.19363662 0.0010458188 0)
(-0.19399824 0.00075560842 0)
(-0.19424332 0.00046436939 0)
(-0.19437148 0.00017227806 0)
(-0.19438242 -0.00012048982 0)
(-0.19427589 -0.00041375742 0)
(-0.19405174 -0.00070734475 0)
(-0.19370986 -0.0010010703 0)
(-0.19325024 -0.0012947513 0)
(-0.19267294 -0.0015882036 0)
(-0.19197807 -0.0018812421 0)
(-0.19116585 -0.0021736805 0)
(-0.19023655 -0.0024653316 0)
(-0.18919051 -0.0027560076 0)
(-0.18802818 -0.0030455198 0)
(-0.18675004 -0.0033336793 0)
(-0.18535669 -0.0036202968 0)
(-0.18384877 -0.0039051826 0)
(-0.18222702 -0.0041881473 0)
(-0.18049225 -0.0044690014 0)
(-0.17864533 -0.0047475559 0)
(-0.17668723 -0.0050236221 0)
(-0.17461897 -0.0052970118 0)
(-0.17244168 -0.005567538 0)
(-0.17015653 -0.0058350141 0)
(-0.16776479 -0.0060992551 0)
(-0.16526778 -0.0063600771 0)
(-0.16266691 -0.0066172974 0)
(-0.15996367 -0.0068707355 0)
(-0.15715961 -0.007120212 0)
(-0.15425634 -0.0073655501 0)
(-0.15125556 -0.0076065747 0)
(-0.14815904 -0.0078431132 0)
(-0.1449686 -0.0080749954 0)
(-0.14168615 -0.0083020538 0)
(-0.13831366 -0.0085241236 0)
(-0.13485315 -0.0087410431 0)
(-0.13130672 -0.0089526536 0)
(-0.12767653 -0.0091587999 0)
(-0.12396481 -0.0093593301 0)
(-0.12017384 -0.0095540959 0)
(-0.11630594 -0.0097429528 0)
(-0.11236353 -0.0099257604 0)
(-0.10834905 -0.010102382 0)
(-0.10426502 -0.010272686 0)
(-0.10011398 -0.010436543 0)
(-0.09589855 -0.010593831 0)
(-0.09162139 -0.010744431 0)
(-0.0872852 -0.010888229 0)
(-0.082892732 -0.011025116 0)
(-0.078446777 -0.011154987 0)
(-0.073950169 -0.011277743 0)
(-0.069405778 -0.011393291 0)
(-0.064816513 -0.011501543 0)
(-0.060185317 -0.011602415 0)
(-0.055515165 -0.01169583 0)
(-0.05080906 -0.011781716 0)
(-0.046070036 -0.011860007 0)
(-0.041301151 -0.011930643 0)
(-0.036505485 -0.011993568 0)
(-0.03168614 -0.012048735 0)
(-0.026846237 -0.0120961 0)
(-0.02198891 -0.012135628 0)
(-0.017117309 -0.012167287 0)
(-0.012234595 -0.012191052 0)
(-0.0073439362 -0.012206906 0)
(-0.0024485088 -0.012214836 0)
(0.0024547813 -0.017116438 0)
(0.0073627493 -0.017105325 0)
(0.012265935 -0.017083106 0)
(0.017161153 -0.0170498 0)
(0.022045226 -0.017005432 0)
(0.026914984 -0.016950037 0)
(0.031767269 -0.016883657 0)
(0.036598936 -0.016806344 0)
(0.041406856 -0.016718157 0)
(0.046187919 -0.016619166 0)
(0.050939034 -0.016509446 0)
(0.055657137 -0.016389082 0)
(0.060339185 -0.016258167 0)
(0.064982164 -0.016116801 0)
(0.069583093 -0.015965094 0)
(0.074139021 -0.015803161 0)
(0.07864703 -0.015631126 0)
(0.083104241 -0.015449121 0)
(0.087507814 -0.015257285 0)
(0.091854948 -0.015055764 0)
(0.096142887 -0.01484471 0)
(0.10036892 -0.014624283 0)
(0.10453038 -0.014394651 0)
(0.10862465 -0.014155985 0)
(0.11264916 -0.013908465 0)
(0.11660141 -0.013652277 0)
(0.12047893 -0.013387612 0)
(0.12427932 -0.013114667 0)
(0.12800023 -0.012833644 0)
(0.13163938 -0.012544752 0)
(0.13519454 -0.012248202 0)
(0.13866354 -0.011944214 0)
(0.14204429 -0.011633008 0)
(0.14533474 -0.011314813 0)
(0.14853292 -0.010989858 0)
(0.15163694 -0.010658379 0)
(0.15464494 -0.010320614 0)
(0.15755518 -0.0099768059 0)
(0.16036594 -0.0096271989 0)
(0.1630756 -0.0092720415 0)
(0.16568261 -0.0089115848 0)
(0.16818548 -0.0085460822 0)
(0.17058281 -0.0081757895 0)
(0.17287325 -0.0078009644 0)
(0.17505555 -0.0074218665 0)
(0.17712852 -0.0070387571 0)
(0.17909105 -0.0066518985 0)
(0.18094211 -0.0062615543 0)
(0.18268072 -0.0058679889 0)
(0.18430601 -0.0054714674 0)
(0.18581717 -0.0050722553 0)
(0.18721347 -0.0046706182 0)
(0.18849425 -0.0042668217 0)
(0.18965894 -0.0038611313 0)
(0.19070702 -0.0034538117 0)
(0.19163808 -0.0030451272 0)
(0.19245175 -0.0026353412 0)
(0.19314777 -0.0022247161 0)
(0.19372594 -0.0018135127 0)
(0.19418612 -0.0014019906 0)
(0.19452826 -0.00099040782 0)
(0.19475239 -0.00057902043 0)
(0.1948586 -0.00016808257 0)
(0.19484705 0.00024215384 0)
(0.19471799 0.00065143986 0)
(0.19447173 0.0010595286 0)
(0.19410865 0.0014661749 0)
(0.19362919 0.0018711371 0)
(0.19303388 0.0022741764 0)
(0.19232331 0.0026750574 0)
(0.19149812 0.0030735476 0)
(0.19055905 0.0034694179 0)
(0.18950686 0.0038624425 0)
(0.18834243 0.0042523993 0)
(0.18706665 0.0046390698 0)
(0.18568051 0.0050222391 0)
(0.18418504 0.0054016962 0)
(0.18258133 0.0057772341 0)
(0.18087055 0.0061486496 0)
(0.1790539 0.0065157436 0)
(0.17713265 0.0068783212 0)
(0.17510813 0.0072361915 0)
(0.17298172 0.0075891681 0)
(0.17075484 0.0079370685 0)
(0.16842898 0.0082797147 0)
(0.16600568 0.0086169331 0)
(0.16348651 0.0089485543 0)
(0.1608731 0.0092744134 0)
(0.15816714 0.0095943498 0)
(0.15537033 0.0099082074 0)
(0.15248446 0.010215834 0)
(0.14951133 0.010517084 0)
(0.14645278 0.010811812 0)
(0.14331071 0.011099882 0)
(0.14008705 0.011381158 0)
(0.13678376 0.011655511 0)
(0.13340285 0.011922816 0)
(0.12994636 0.012182951 0)
(0.12641635 0.012435801 0)
(0.12281495 0.012681252 0)
(0.11914427 0.012919198 0)
(0.11540649 0.013149532 0)
(0.11160381 0.013372157 0)
(0.10773845 0.013586977 0)
(0.10381266 0.013793899 0)
(0.099828716 0.013992838 0)
(0.095788919 0.014183708 0)
(0.091695593 0.014366433 0)
(0.087551086 0.014540935 0)
(0.083357762 0.014707143 0)
(0.07911801 0.014864991 0)
(0.074834234 0.015014414 0)
(0.070508857 0.015155352 0)
(0.06614432 0.01528775 0)
(0.061743078 0.015411554 0)
(0.057307599 0.015526717 0)
(0.052840367 0.015633192 0)
(0.048343878 0.015730939 0)
(0.043820637 0.01581992 0)
(0.039273162 0.0159001 0)
(0.034703978 0.015971448 0)
(0.030115621 0.016033937 0)
(0.025510632 0.016087544 0)
(0.02089156 0.016132247 0)
(0.016260956 0.01616803 0)
(0.011621381 0.016194879 0)
(0.0069753937 0.016212784 0)
(0.0023255588 0.016221738 0)
(-0.0023255588 0.016221738 0)
(-0.0069753937 0.016212784 0)
(-0.011621381 0.016194879 0)
(-0.016260956 0.01616803 0)
(-0.02089156 0.016132247 0)
(-0.025510632 0.016087544 0)
(-0.030115621 0.016033937 0)
(-0.034703978 0.015971448 0)
(-0.039273162 0.0159001 0)
(-0.043820637 0.01581992 0)
(-0.048343878 0.015730939 0)
(-0.052840367 0.015633192 0)
(-0.057307599 0.015526717 0)
(-0.061743078 0.015411554 0)
(-0.06614432 0.01528775 0)
(-0.070508857 0.015155352 0)
(-0.074834234 0.015014414 0)
(-0.07911801 0.014864991 0)
(-0.083357762 0.014707143 0)
(-0.087551086 0.014540935 0)
(-0.091695593 0.014366433 0)
(-0.095788919 0.014183708 0)
(-0.099828716 0.013992838 0)
(-0.10381266 0.013793899 0)
(-0.10773845 0.013586977 0)
(-0.11160381 0.013372157 0)
(-0.11540649 0.013149532 0)
(-0.11914427 0.012919198 0)
(-0.12281495 0.012681252 0)
(-0.12641635 0.012435801 0)
(-0.12994636 0.012182951 0)
(-0.13340285 0.011922816 0)
(-0.13678376 0.011655511 0)
(-0.14008705 0.011381158 0)
(-0.14331071 0.011099882 0)
(-0.14645278 0.010811812 0)
(-0.14951133 0.010517084 0)
(-0.15248446 0.010215834 0)
(-0.15537033 0.0099082074 0)
(-0.15816714 0.0095943498 0)
(-0.1608731 0.0092744134 0)
(-0.16348651 0.0089485543 0)
(-0.16600568 0.0086169331 0)
(-0.16842898 0.0082797147 0)
(-0.17075484 0.0079370685 0)
(-0.17298172 0.0075891681 0)
(-0.17510813 0.0072361915 0)
(-0.17713265 0.0068783212 0)
(-0.1790539 0.0065157436 0)
(-0.18087055 0.0061486496 0)
(-0.18258133 0.0057772341 0)
(-0.18418504 0.0054016962 0)
(-0.18568051 0.0050222391 0)
(-0.18706665 0.0046390698 0)
(-0.18834243 0.0042523993 0)
(-0.18950686 0.0038624425 0)
(-0.19055905 0.0034694179 0)
(-0.19149812 0.0030735476 0)
(-0.19232331 0.0026750574 0)
(-0.19303388 0.0022741764 0)
(-0.19362919 0.0018711371 0)
(-0.19410865 0.0014661749 0)
(-0.19447173 0.0010595286 0)
(-0.19471799 0.00065143986 0)
(-0.19484705 0.00024215384 0)
(-0.1948586 -0.00016808257 0)
(-0.19475239 -0.00057902043 0)
(-0.19452826 -0.00099040782 0)
(-0.19418612 -0.0014019906 0)
(-0.19372594 -0.0018135127 0)
(-0.19314777 -0.0022247161 0)
(-0.19245175 -0.0026353412 0)
(-0.19163808 -0.0030451272 0)
(-0.19070702 -0.0034538117 0)
(-0.18965894 -0.0038611313 0)
(-0.18849425 -0.0042668217 0)
(-0.18721347 -0.0046706182 0)
(-0.18581717 -0.0050722553 0)
(-0.18430601 -0.0054714674 0)
(-0.18268072 -0.0058679889 0)
(-0.18094211 -0.0062615543 0)
(-0.17909105 -0.0066518985 0)
(-0.17712852 -0.0070387571 0)
(-0.17505555 -0.0074218665 0)
(-0.17287325 -0.0078009644 0)
(-0.17058281 -0.0081757895 0)
(-0.16818548 -0.0085460822 0)
(-0.16568261 -0.0089115848 0)
(-0.1630756 -0.0092720415 0)
(-0.16036594 -0.0096271989 0)
(-0.15755518 -0.0099768059 0)
(-0.15464494 -0.010320614 0)
(-0.15163694 -0.010658379 0)
(-0.14853292 -0.010989858 0)
(-0.14533474 -0.011314813 0)
(-0.14204429 -0.011633008 0)
(-0.13866354 -0.011944214 0)
(-0.13519454 -0.012248202 0)
(-0.13163938 -0.012544752 0)
(-0.12800023 -0.012833644 0)
(-0.12427932 -0.013114667 0)
(-0.12047893 -0.013387612 0)
(-0.11660141 -0.013652277 0)
(-0.11264916 -0.013908465 0)
(-0.10862465 -0.014155985 0)
(-0.10453038 -0.014394651 0)