/*--------------------------------*- C++ -*----------------------------------*\
| =========                 |                                                 |
| \\      /  F ield         | OpenFOAM: The Open Source CFD Toolbox           |
|  \\    /   O peration     | Version:  2106                                  |
|   \\  /    A nd           | Website:  www.openfoam.com                      |
|    \\/     M anipulation  |                                                 |
\*---------------------------------------------------------------------------*/
FoamFile
{
    version     2.0;
    format      ascii;
    arch        "LSB;label=32;scalar=64";
    class       volVectorField;
    location    "0.055";
    object      U_0;
}
// * * * * * * * * * * * * * * * * * * * * * * * * * * * * * * * * * * * * * //

dimensions      [0 1 -1 0 0 0 0];

internalField   nonuniform List<vector> 
32768
(
(0.0018297899 -0.0018755987 0)
(0.0059376603 -0.0019505037 0)
(0.010125024 -0.0019602269 0)
(0.014336419 -0.0019701663 0)
(0.018556832 -0.001978719 0)
(0.022791839 -0.0019872609 0)
(0.027046074 -0.0019972007 0)
(0.031322593 -0.0020087822 0)
(0.035624546 -0.0020219815 0)
(0.0399554 -0.0020368392 0)
(0.044318727 -0.0020534119 0)
(0.048718138 -0.002071739 0)
(0.053157299 -0.0020918543 0)
(0.057639953 -0.0021137988 0)
(0.062169939 -0.0021376318 0)
(0.066751182 -0.0021634618 0)
(0.071387755 -0.0021915938 0)
(0.076084538 -0.0022231674 0)
(0.080845478 -0.0022579453 0)
(0.085674666 -0.0022956287 0)
(0.090576264 -0.0023360374 0)
(0.095554539 -0.0023790671 0)
(0.10061387 -0.0024246631 0)
(0.10575875 -0.0024728056 0)
(0.1109938 -0.0025235011 0)
(0.11632376 -0.0025767755 0)
(0.12175351 -0.0026326701 0)
(0.12728806 -0.0026912385 0)
(0.13293257 -0.0027525435 0)
(0.13869232 -0.0028166561 0)
(0.14457277 -0.0028836539 0)
(0.1505795 -0.0029536189 0)
(0.15671826 -0.0030266401 0)
(0.16299494 -0.0031028016 0)
(0.16941564 -0.0031822179 0)
(0.17598649 -0.003264921 0)
(0.18271414 -0.0033511899 0)
(0.18960444 -0.0034406223 0)
(0.19666584 -0.0035345853 0)
(0.20390107 -0.0036300899 0)
(0.21132631 -0.0037341093 0)
(0.21892948 -0.0038322633 0)
(0.22675468 -0.0039524919 0)
(0.23474439 -0.0040456353 0)
(0.24301029 -0.0041912098 0)
(0.25141431 -0.0042760611 0)
(0.26014333 -0.0044430274 0)
(0.26902775 -0.0045410839 0)
(0.27819707 -0.0046894603 0)
(0.28764581 -0.004844333 0)
(0.29727741 -0.0049273387 0)
(0.30731379 -0.0051694026 0)
(0.31747331 -0.0052657145 0)
(0.32805902 -0.0053904354 0)
(0.33895776 -0.0056784778 0)
(0.34995631 -0.0057501876 0)
(0.36150372 -0.0058553079 0)
(0.37344837 -0.006203373 0)
(0.38540846 -0.0063666483 0)
(0.39781473 -0.0063679541 0)
(0.41087179 -0.0066406667 0)
(0.42413386 -0.007004649 0)
(0.43752764 -0.007120234 0)
(0.45138937 -0.0071660056 0)
(0.46581467 -0.007401304 0)
(0.48068777 -0.0077280624 0)
(0.49591064 -0.0079853868 0)
(0.5112855 -0.0081395274 0)
(0.52678844 -0.0082113833 0)
(0.54287368 -0.0082884399 0)
(0.55984125 -0.0085263354 0)
(0.57731172 -0.0088925595 0)
(0.5947964 -0.0091863398 0)
(0.61219321 -0.0092928771 0)
(0.62955392 -0.0092212567 0)
(0.64695713 -0.0090321918 0)
(0.66462067 -0.0088277827 0)
(0.68292508 -0.008797869 0)
(0.70216166 -0.0090844296 0)
(0.72198308 -0.0095405285 0)
(0.74121516 -0.0096868914 0)
(0.75838727 -0.0090592713 0)
(0.77258143 -0.0076845774 0)
(0.78417769 -0.0061511595 0)
(0.79486293 -0.0051192188 0)
(0.80663235 -0.0049431303 0)
(0.8203609 -0.0052269885 0)
(0.83493012 -0.0043392816 0)
(0.84695915 -0.0015359277 0)
(0.85185708 0.00034509609 0)
(0.85258722 0.00042771107 0)
(0.85185807 -0.00027164815 0)
(0.8507279 -0.0015220792 0)
(0.85059445 -0.0032028509 0)
(0.85257287 -0.0050340397 0)
(0.85705078 -0.0070521415 0)
(0.86386272 -0.009351043 0)
(0.86769722 -0.011490369 0)
(0.85775953 -0.011272326 0)
(0.77526671 0.06561293 0)
(0.5468874 0.09158199 0)
(0.39424299 0.063729313 0)
(0.31767858 0.03396189 0)
(0.26656327 0.018764352 0)
(0.23330041 0.011399933 0)
(0.20982801 0.0077003844 0)
(0.19196605 0.0057202441 0)
(0.17758215 0.0045369228 0)
(0.16549921 0.0037636915 0)
(0.15506386 0.0032192981 0)
(0.14587644 0.002812318 0)
(0.13767416 0.0024939331 0)
(0.13027437 0.0022363095 0)
(0.12354367 0.0020225458 0)
(0.11738218 0.0018417523 0)
(0.11170919 0.0016865836 0)
(0.10646698 0.0015520856 0)
(0.10159514 0.0014320293 0)
(0.097062232 0.0013440286 0)
(0.09283265 0.0011591187 0)
(0.088865286 0.0011248373 0)
(0.085138899 0.0010669179 0)
(0.081632895 0.0010052633 0)
(0.078329948 0.00094548403 0)
(0.075213686 0.0008895203 0)
(0.072267857 0.00083819037 0)
(0.069478557 0.00079095013 0)
(0.066831676 0.00074777487 0)
(0.0643202 0.0007067427 0)
(0.061932531 0.0006721488 0)
(0.059657469 0.00063915637 0)
(0.0574898 0.00060473154 0)
(0.055431726 0.00057004951 0)
(0.053459603 0.00053792912 0)
(0.051572967 0.0005107684 0)
(0.049775974 0.00048817509 0)
(0.04805507 0.00046500122 0)
(0.046410029 0.00048021941 0)
(0.044840908 0.00043092869 0)
(0.043329829 0.0004400906 0)
(0.041876733 0.00039580394 0)
(0.04048671 0.00040476494 0)
(0.039157202 0.00036590286 0)
(0.037878277 0.0003456459 0)
(0.036649701 0.00032970257 0)
(0.03546574 0.00031766844 0)
(0.034324204 0.00030459709 0)
(0.033227168 0.00029114852 0)
(0.032172872 0.00027878346 0)
(0.03115839 0.00026756172 0)
(0.030182347 0.00025714425 0)
(0.029240426 0.00024863847 0)
(0.028330958 0.00023914994 0)
(0.027454682 0.0002292308 0)
(0.026609938 0.00021994845 0)
(0.025794977 0.00021140586 0)
(0.025008257 0.00020341993 0)
(0.024248492 0.00019589062 0)
(0.023514519 0.00018883421 0)
(0.022804904 0.00018237474 0)
(0.022118799 0.00017614025 0)
(0.021458232 0.0001558972 0)
(0.02081923 0.00016106453 0)
(0.020199353 0.00015689381 0)
(0.019599777 0.00015060131 0)
(0.019019272 0.00013326625 0)
(0.018456355 0.00013874778 0)
(0.017914533 0.00013646534 0)
(0.017390164 0.00013325126 0)
(0.016880632 0.00013848006 0)
(0.016386243 0.00012478056 0)
(0.01590821 0.0001173516 0)
(0.015445778 0.0001129637 0)
(0.014997117 0.00010933041 0)
(0.014562096 0.00010585952 0)
(0.014140067 0.0001024544 0)
(0.013730606 9.9094968e-05 0)
(0.013333364 9.5809911e-05 0)
(0.01294796 9.2621665e-05 0)
(0.012573984 8.953983e-05 0)
(0.012211022 8.6565719e-05 0)
(0.011858673 8.3696567e-05 0)
(0.011516553 8.0926982e-05 0)
(0.011184285 7.8249986e-05 0)
(0.010861484 7.5664328e-05 0)
(0.010547816 7.3215222e-05 0)
(0.010242686 7.1250605e-05 0)
(0.009947151 7.3339474e-05 0)
(0.0096604246 6.7126634e-05 0)
(0.00938083 6.4362873e-05 0)
(0.0091086296 6.2148058e-05 0)
(0.0088438072 6.0097783e-05 0)
(0.0085862417 5.8154881e-05 0)
(0.0083356603 5.6296445e-05 0)
(0.0080918198 5.4493689e-05 0)
(0.0078545203 5.2749169e-05 0)
(0.0076235266 5.1079569e-05 0)
(0.0073985007 4.9493449e-05 0)
(0.0071792754 4.7912022e-05 0)
(0.0069657749 4.637197e-05 0)
(0.00675775 4.4902015e-05 0)
(0.0065549609 4.3529903e-05 0)
(0.0063571464 4.243135e-05 0)
(0.0061648849 4.3268294e-05 0)
(0.005977606 3.9984009e-05 0)
(0.0057943553 3.8451803e-05 0)
(0.0056153667 3.7189706e-05 0)
(0.0054406542 3.6019245e-05 0)
(0.0052701459 3.4910398e-05 0)
(0.0051036986 3.3850306e-05 0)
(0.0049411638 3.2830383e-05 0)
(0.0047823974 3.1819737e-05 0)
(0.0046272965 3.067591e-05 0)
(0.0044753885 2.8350189e-05 0)
(0.0043267785 2.8585826e-05 0)
(0.0041812572 2.6753971e-05 0)
(0.0040387635 2.7149004e-05 0)
(0.0038995569 2.6613429e-05 0)
(0.0037632909 2.5983261e-05 0)
(0.0036301036 2.5173054e-05 0)
(0.0034995484 2.4540004e-05 0)
(0.0033713882 2.4663565e-05 0)
(0.0032457028 2.3059965e-05 0)
(0.0031222949 2.2351287e-05 0)
(0.0030011485 2.1769054e-05 0)
(0.0028821706 2.1208504e-05 0)
(0.0027652967 2.0666725e-05 0)
(0.0026504499 2.014491e-05 0)
(0.002537547 1.964022e-05 0)
(0.0024264998 1.9141052e-05 0)
(0.0023172126 1.859861e-05 0)
(0.0022094596 1.7669058e-05 0)
(0.0021032805 1.772237e-05 0)
(0.0019987419 1.7409667e-05 0)
(0.0018956513 1.705623e-05 0)
(0.0017939089 1.6717136e-05 0)
(0.0016934561 1.6428167e-05 0)
(0.0015943739 1.6401061e-05 0)
(0.001496466 1.5795276e-05 0)
(0.0013995004 1.5436132e-05 0)
(0.0013035006 1.5125847e-05 0)
(0.0012083946 1.489489e-05 0)
(0.0011141803 1.4655146e-05 0)
(0.0010208291 1.4488337e-05 0)
(0.00092822717 1.4364819e-05 0)
(0.00083630844 1.4346895e-05 0)
(0.00074499302 1.4041166e-05 0)
(0.00065419608 1.3760864e-05 0)
(0.00056388644 1.3742765e-05 0)
(0.00047403653 1.3694797e-05 0)
(0.00038453401 1.355886e-05 0)
(0.00029529022 1.3451943e-05 0)
(0.00020612329 1.3101331e-05 0)
(0.00012102215 1.1767414e-05 0)
(3.9807546e-05 6.7576237e-06 0)
(-3.588583e-06 -3.6723522e-06 0)
(0.0018618492 -0.0058824553 0)
(0.0062494451 -0.0063967819 0)
(0.010762065 -0.0064448853 0)
(0.015272449 -0.0064676415 0)
(0.019791348 -0.006490216 0)
(0.024325139 -0.0065160246 0)
(0.028877877 -0.0065468021 0)
(0.033453026 -0.0065828249 0)
(0.03805419 -0.0066240832 0)
(0.042685048 -0.0066706643 0)
(0.047349305 -0.0067226799 0)
(0.052050695 -0.006780224 0)
(0.056793003 -0.006843389 0)
(0.061580066 -0.0069122816 0)
(0.066415774 -0.0069870345 0)
(0.071304037 -0.0070678347 0)
(0.076248877 -0.0071548684 0)
(0.081253374 -0.0072471766 0)
(0.086321616 -0.0073448095 0)
(0.091457939 -0.0074480448 0)
(0.096666786 -0.0075571506 0)
(0.1019527 -0.0076723899 0)
(0.10732032 -0.0077940169 0)
(0.11277435 -0.0079222749 0)
(0.11831963 -0.0080573975 0)
(0.12396107 -0.0081996102 0)
(0.1297037 -0.0083491334 0)
(0.13555268 -0.0085061846 0)
(0.14151327 -0.0086709802 0)
(0.14759087 -0.0088437369 0)
(0.15379102 -0.0090246736 0)
(0.16011936 -0.0092140105 0)
(0.16658174 -0.0094119752 0)
(0.17318404 -0.0096187825 0)
(0.17993254 -0.0098347041 0)
(0.18683292 -0.010059842 0)
(0.19389333 -0.010294821 0)
(0.20111545 -0.010538763 0)
(0.20851893 -0.010794864 0)
(0.21607824 -0.011055872 0)
(0.22387689 -0.011339435 0)
(0.23175209 -0.011608278 0)
(0.24006384 -0.011934658 0)
(0.24813491 -0.012199955 0)
(0.25720329 -0.012556271 0)
(0.26523674 -0.012915594 0)
(0.27534025 -0.013051176 0)
(0.28328187 -0.013961386 0)
(0.29422014 -0.013351337 0)
(0.30277794 -0.014972527 0)
(0.31350778 -0.014357385 0)
(0.32384204 -0.014948296 0)
(0.33379905 -0.016136956 0)
(0.34548665 -0.015615 0)
(0.35644692 -0.016169688 0)
(0.36733882 -0.017440344 0)
(0.38000586 -0.017342956 0)
(0.39211451 -0.01746676 0)
(0.40385186 -0.018450318 0)
(0.41709697 -0.019195893 0)
(0.43079625 -0.019460669 0)
(0.44394564 -0.019735171 0)
(0.45756675 -0.020287633 0)
(0.47207938 -0.021126539 0)
(0.48692871 -0.022029726 0)
(0.50212437 -0.022543179 0)
(0.5177835 -0.022562574 0)
(0.53325056 -0.022592951 0)
(0.54879757 -0.023665696 0)
(0.56566379 -0.025077749 0)
(0.58361238 -0.025896888 0)
(0.60136294 -0.026093211 0)
(0.61883757 -0.025822562 0)
(0.63651241 -0.025578507 0)
(0.65433929 -0.025490984 0)
(0.67233623 -0.02602106 0)
(0.69063108 -0.027388224 0)
(0.70998645 -0.029127975 0)
(0.73106942 -0.030321426 0)
(0.75295463 -0.029731723 0)
(0.77343178 -0.026691644 0)
(0.79038826 -0.022071991 0)
(0.80342463 -0.017885499 0)
(0.81488582 -0.016030454 0)
(0.82808836 -0.017357267 0)
(0.84473782 -0.020734284 0)
(0.86362132 -0.023311122 0)
(0.88158025 -0.021839914 0)
(0.89573044 -0.015240079 0)
(0.90428349 -0.0066643236 0)
(0.90671801 -0.00044320918 0)
(0.90482693 0.0023488791 0)
(0.90150495 0.0027826683 0)
(0.89779618 0.0012939675 0)
(0.89474 -0.0018918032 0)
(0.89197402 -0.0056674633 0)
(0.88749268 -0.0085732105 0)
(0.87022366 -0.01074177 0)
(0.876169 0.15977559 0)
(0.67522592 0.25371004 0)
(0.54868014 0.24160961 0)
(0.48548168 0.16207419 0)
(0.43634177 0.098259518 0)
(0.3953953 0.062696254 0)
(0.36173397 0.043616545 0)
(0.333657 0.032840963 0)
(0.30982755 0.026274465 0)
(0.28931866 0.021922208 0)
(0.27144164 0.018830391 0)
(0.25565278 0.016510183 0)
(0.24154821 0.014693582 0)
(0.22882789 0.013224379 0)
(0.21726514 0.012006159 0)
(0.20668491 0.010976347 0)
(0.19695092 0.010091889 0)
(0.18795093 0.0093248739 0)
(0.17960093 0.0086454423 0)
(0.17181754 0.0080616291 0)
(0.16455378 0.0074928956 0)
(0.15774639 0.007106133 0)
(0.15134463 0.0066402446 0)
(0.14532205 0.0062299347 0)
(0.13964329 0.0058641447 0)
(0.13427806 0.0055311007 0)
(0.12920332 0.0052266017 0)
(0.12439589 0.0049487209 0)
(0.11983526 0.0046933137 0)
(0.11549858 0.0044583907 0)
(0.11137623 0.0042348798 0)
(0.10745109 0.0040327332 0)
(0.10369981 0.0038424403 0)
(0.1001195 0.0036635669 0)
(0.096703661 0.003480594 0)
(0.093437228 0.0033744046 0)
(0.09032458 0.0032046257 0)
(0.08734216 0.0030563518 0)
(0.084473968 0.002935681 0)
(0.081729741 0.0027647004 0)
(0.079099949 0.0026669673 0)
(0.076573795 0.0025647183 0)
(0.074152768 0.0024723353 0)
(0.0718257 0.0023377176 0)
(0.069589574 0.0022651119 0)
(0.067433412 0.0021857235 0)
(0.065361259 0.0021026258 0)
(0.063363448 0.0020298903 0)
(0.061434637 0.0019537857 0)
(0.059578548 0.0018791361 0)
(0.057792463 0.0018081268 0)
(0.056071379 0.0017411528 0)
(0.05441294 0.0016765992 0)
(0.052810378 0.001619916 0)
(0.051260924 0.0015620988 0)
(0.04976551 0.0015069073 0)
(0.048322202 0.0014544293 0)
(0.046927948 0.0014044635 0)
(0.045580133 0.0013567638 0)
(0.044276771 0.0013110761 0)
(0.043016345 0.0012672834 0)
(0.04179686 0.0012254036 0)
(0.040618236 0.0011858332 0)
(0.039474672 0.0011481609 0)
(0.03836376 0.0011114694 0)
(0.037291508 0.0010743209 0)
(0.036254128 0.0010387114 0)
(0.035248462 0.0010200052 0)
(0.034274551 0.00097944012 0)
(0.033328856 0.0009328957 0)
(0.032409282 0.00091187654 0)
(0.031519359 0.00087483028 0)
(0.030655322 0.00085660297 0)
(0.02981891 0.00083093283 0)
(0.029007939 0.00080664788 0)
(0.028219705 0.00078214391 0)
(0.0274541 0.00075875975 0)
(0.0267099 0.00073642272 0)
(0.02598653 0.00071476345 0)
(0.02528349 0.00069376013 0)
(0.024600192 0.00067347151 0)
(0.023935973 0.00065391282 0)
(0.023290152 0.00063506734 0)
(0.022662063 0.00061691048 0)
(0.022051062 0.00059942211 0)
(0.02145652 0.0005825929 0)
(0.020877801 0.00056643796 0)
(0.020314344 0.00055092571 0)
(0.019765493 0.00053538845 0)
(0.019232502 0.00051350586 0)
(0.01871388 0.00050430538 0)
(0.018207419 0.00049242291 0)
(0.017713434 0.0004796841 0)
(0.017231879 0.00046689696 0)
(0.016762462 0.00045446706 0)
(0.016304692 0.00044250332 0)
(0.015858189 0.00043090217 0)
(0.015422674 0.00041967893 0)
(0.014997785 0.00040893638 0)
(0.014582841 0.00039872684 0)
(0.014177579 0.00038863613 0)
(0.013781992 0.00037885818 0)
(0.013395624 0.00036954052 0)
(0.013018069 0.00036058887 0)
(0.012649007 0.00035143488 0)
(0.012289049 0.00033926095 0)
(0.011937287 0.00033392766 0)
(0.011592509 0.0003270638 0)
(0.011254932 0.00031967194 0)
(0.010924552 0.00031224899 0)
(0.010601215 0.00030502299 0)
(0.010284693 0.00029804697 0)
(0.0099747333 0.00029131914 0)
(0.0096710674 0.00028483876 0)
(0.0093734123 0.0002788699 0)
(0.0090813525 0.00027503499 0)
(0.0087948952 0.00026787483 0)
(0.0085136194 0.00026401874 0)
(0.008237603 0.00025692676 0)
(0.007967024 0.00025129906 0)
(0.0077013293 0.00024620474 0)
(0.0074398696 0.00024012201 0)
(0.0071827437 0.00023658865 0)
(0.0069311661 0.00023199499 0)
(0.0066840096 0.00022807431 0)
(0.0064399457 0.00022432612 0)
(0.0061994471 0.00022051731 0)
(0.0059626329 0.00021674909 0)
(0.0057294185 0.00021311322 0)
(0.0054996404 0.00020963188 0)
(0.0052731358 0.00020630166 0)
(0.0050497376 0.00020314413 0)
(0.0048292613 0.00020030047 0)
(0.0046115029 0.00019826069 0)
(0.0043964297 0.00019482697 0)
(0.0041839872 0.00019204777 0)
(0.0039739942 0.00018959675 0)
(0.0037663013 0.00018729016 0)
(0.0035608005 0.00018493992 0)
(0.0033575145 0.00018225332 0)
(0.0031561671 0.00018086209 0)
(0.0029564602 0.00017924472 0)
(0.0027584093 0.00017760362 0)
(0.0025620965 0.00017628997 0)
(0.0023673004 0.0001745227 0)
(0.0021737286 0.00017310437 0)
(0.0019813839 0.00017180939 0)
(0.0017902167 0.00017051263 0)
(0.0016000838 0.00016972469 0)
(0.0014107683 0.00016890029 0)
(0.00122228 0.00016806488 0)
(0.001034633 0.00016723168 0)
(0.00084759843 0.00016676471 0)
(0.00066105376 0.00016612782 0)
(0.00047494291 0.00016386574 0)
(0.00029427935 0.00015469875 0)
(0.00012133188 0.00012049988 0)
(7.1484758e-06 3.9898318e-05 0)
(0.0018612395 -0.0099348757 0)
(0.0062401594 -0.010864254 0)
(0.010736334 -0.010944968 0)
(0.015234413 -0.010975052 0)
(0.019741578 -0.011009393 0)
(0.024263693 -0.011051906 0)
(0.028804511 -0.011103065 0)
(0.033367499 -0.011163025 0)
(0.037956232 -0.011231881 0)
(0.042574343 -0.011309741 0)
(0.047225496 -0.011396729 0)
(0.051913388 -0.011492977 0)
(0.056641764 -0.011598627 0)
(0.061414416 -0.011713837 0)
(0.066235184 -0.011838777 0)
(0.071107953 -0.011973628 0)
(0.076036661 -0.01211855 0)
(0.081025423 -0.012273827 0)
(0.086078477 -0.01243977 0)
(0.091200055 -0.01261663 0)
(0.09639445 -0.012804639 0)
(0.10166605 -0.013004034 0)
(0.10701934 -0.013215058 0)
(0.11245893 -0.013437969 0)
(0.11798951 -0.01367303 0)
(0.1236159 -0.013920521 0)
(0.12934304 -0.014180732 0)
(0.135176 -0.014453967 0)
(0.14111994 -0.014740543 0)
(0.1471802 -0.01504079 0)
(0.1533622 -0.01535505 0)
(0.15967155 -0.01568368 0)
(0.16611398 -0.016027047 0)
(0.17269531 -0.016385528 0)
(0.17942177 -0.016759512 0)
(0.18629889 -0.017149389 0)
(0.19333491 -0.01755557 0)
(0.20053099 -0.017978448 0)
(0.20790793 -0.018418389 0)
(0.21543689 -0.018876057 0)
(0.22320974 -0.019350709 0)
(0.23104244 -0.019846557 0)
(0.23934514 -0.020352498 0)
(0.24732858 -0.020900545 0)
(0.25645774 -0.021411499 0)
(0.26428895 -0.022073676 0)
(0.27456461 -0.022482868 0)
(0.28226134 -0.023430322 0)
(0.29320719 -0.023559519 0)
(0.30196459 -0.024834847 0)
(0.31209888 -0.024947314 0)
(0.32290753 -0.025995698 0)
(0.33276888 -0.026565965 0)
(0.34388272 -0.027510551 0)
(0.35511152 -0.027891297 0)
(0.36655356 -0.028986087 0)
(0.37807909 -0.030017228 0)
(0.39020063 -0.030396283 0)
(0.40290081 -0.03116937 0)
(0.4156285 -0.032639384 0)
(0.42847142 -0.033549869 0)
(0.44189347 -0.033860377 0)
(0.45594875 -0.034753234 0)
(0.47046285 -0.036210197 0)
(0.48502979 -0.037471585 0)
(0.49948798 -0.038326679 0)
(0.51469875 -0.038747279 0)
(0.53084021 -0.03908346 0)
(0.54729546 -0.040628675 0)
(0.56430333 -0.042744189 0)
(0.58113633 -0.043855096 0)
(0.59737137 -0.044006435 0)
(0.61420533 -0.044190826 0)
(0.63265027 -0.044597276 0)
(0.65245806 -0.044862148 0)
(0.67243737 -0.045104808 0)
(0.69138233 -0.046264264 0)
(0.7091973 -0.048889283 0)
(0.7269648 -0.051655826 0)
(0.74589127 -0.051554798 0)
(0.76598812 -0.046659296 0)
(0.78562832 -0.038616407 0)
(0.80310942 -0.031880049 0)
(0.81892167 -0.030402867 0)
(0.83559253 -0.034442797 0)
(0.85430461 -0.040184776 0)
(0.87282667 -0.04197313 0)
(0.88768787 -0.036249854 0)
(0.89714651 -0.024223736 0)
(0.90140886 -0.010704428 0)
(0.90155341 -0.00036193826 0)
(0.89906753 0.0048396216 0)
(0.8958911 0.0051496854 0)
(0.89320544 0.0021111723 0)
(0.89016834 -0.0011238256 0)
(0.88489634 -0.0025969234 0)
(0.86941685 -0.0041539119 0)
(0.82872739 0.001359414 0)
(0.66090086 0.25536546 0)
(0.56236553 0.34221254 0)
(0.5360222 0.29463487 0)
(0.50268736 0.19345936 0)
(0.46962851 0.13231268 0)
(0.43398256 0.096552699 0)
(0.40100542 0.074489304 0)
(0.37196256 0.059997027 0)
(0.3466084 0.049948688 0)
(0.32439403 0.042665847 0)
(0.30478106 0.037170407 0)
(0.28731338 0.03287829 0)
(0.2716257 0.029428841 0)
(0.25743019 0.026590926 0)
(0.24449922 0.024211015 0)
(0.23265289 0.022183646 0)
(0.22174394 0.020433546 0)
(0.21165734 0.018907205 0)
(0.20229011 0.017560487 0)
(0.19356784 0.016369566 0)
(0.18541723 0.015295662 0)
(0.17776823 0.014337377 0)
(0.1705958 0.013474364 0)
(0.16385559 0.012685958 0)
(0.15749726 0.011968375 0)
(0.15148388 0.011305203 0)
(0.14579501 0.010693548 0)
(0.1404066 0.010133248 0)
(0.13529197 0.0096162862 0)
(0.13043397 0.0091453063 0)
(0.12580874 0.0086805789 0)
(0.12140127 0.008327101 0)
(0.1172052 0.0079225346 0)
(0.11320409 0.0075434192 0)
(0.10938133 0.0072137814 0)
(0.10572484 0.0068434228 0)
(0.10223363 0.0065636955 0)
(0.098889208 0.0062907263 0)
(0.095682879 0.0060367898 0)
(0.092609778 0.0057851118 0)
(0.089652085 0.0055523021 0)
(0.086815103 0.0053257775 0)
(0.084105921 0.0051157967 0)
(0.081500986 0.0049126239 0)
(0.078984163 0.0047228394 0)
(0.076564154 0.0045421289 0)
(0.074237802 0.0043598821 0)
(0.071998244 0.0042318352 0)
(0.069844129 0.00405911 0)
(0.067768121 0.0039028544 0)
(0.06576482 0.0037574955 0)
(0.063832451 0.0036211079 0)
(0.061965591 0.0034881461 0)
(0.060165049 0.0033925679 0)
(0.058431917 0.0032613287 0)
(0.056756196 0.0031438303 0)
(0.055134718 0.0030346601 0)
(0.053566742 0.0029315047 0)
(0.052050905 0.0028332179 0)
(0.050585125 0.0027390787 0)
(0.049167493 0.0026486 0)
(0.047795606 0.0025613578 0)
(0.046469713 0.0024767229 0)
(0.045183102 0.0023996207 0)
(0.04393365 0.0023236594 0)
(0.042726194 0.0022493799 0)
(0.041557899 0.0021780703 0)
(0.04042505 0.0020967105 0)
(0.039326949 0.002039455 0)
(0.038260694 0.0019931057 0)
(0.037225203 0.0019248519 0)
(0.036221848 0.0018774716 0)
(0.035249172 0.0018131128 0)
(0.034303219 0.0017445649 0)
(0.033381885 0.001699842 0)
(0.032490234 0.0016505193 0)
(0.031626129 0.0016031879 0)
(0.030785499 0.0015579925 0)
(0.029967557 0.0015139286 0)
(0.029172011 0.0014709347 0)
(0.028398353 0.0014292544 0)
(0.027645901 0.0013890096 0)
(0.026913923 0.0013502053 0)
(0.026201695 0.0013128015 0)
(0.025508525 0.0012767529 0)
(0.024833761 0.0012420239 0)
(0.024176816 0.0012086046 0)
(0.023537119 0.0011764398 0)
(0.022914189 0.0011451395 0)
(0.022306391 0.0011131497 0)
(0.02171351 0.0010844732 0)
(0.021136501 0.0010568888 0)
(0.020574156 0.0010298222 0)
(0.020025628 0.001003413 0)
(0.019490398 0.00097790661 0)
(0.018967891 0.00095336916 0)
(0.018457782 0.00092947351 0)
(0.01795996 0.00090631108 0)
(0.017474093 0.00088419046 0)
(0.016999161 0.00086326184 0)
(0.016534946 0.00084240302 0)
(0.016081721 0.0008221077 0)
(0.015638873 0.00080274191 0)
(0.01520595 0.00078419617 0)
(0.014782588 0.00076604916 0)
(0.014367905 0.00074762088 0)
(0.013961891 0.00073129887 0)
(0.013564994 0.00071549065 0)
(0.013176508 0.00069986426 0)
(0.012795985 0.00068456855 0)
(0.012423144 0.00066974334 0)
(0.012057773 0.00065543534 0)
(0.011699572 0.00064168116 0)
(0.011348214 0.00062843919 0)
(0.011003458 0.00061569738 0)
(0.010665565 0.00060346053 0)
(0.010334075 0.00059168999 0)
(0.01000861 0.0005807507 0)
(0.0096889919 0.0005694119 0)
(0.0093745933 0.00055867878 0)
(0.0090655192 0.00054875735 0)
(0.0087614672 0.00054044501 0)
(0.0084624111 0.00052945471 0)
(0.0081686158 0.00051810694 0)
(0.007879553 0.0005108902 0)
(0.0075947525 0.00050324047 0)
(0.0073141631 0.00049537431 0)
(0.0070376523 0.00048759516 0)
(0.0067650651 0.00048009685 0)
(0.0064962332 0.00047293316 0)
(0.0062309778 0.00046610309 0)
(0.0059691341 0.00045960368 0)
(0.0057105804 0.00045345137 0)
(0.0054553864 0.00044761993 0)
(0.0052032403 0.00044197585 0)
(0.0049537224 0.00043660915 0)
(0.0047068567 0.00043156307 0)
(0.0044625906 0.00042678234 0)
(0.0042207721 0.00042216062 0)
(0.003981151 0.00041767069 0)
(0.0037436663 0.00041385462 0)
(0.0035082965 0.00041019714 0)
(0.0032748441 0.00040655699 0)
(0.0030432885 0.00040285016 0)
(0.0028133797 0.00040015291 0)
(0.0025848404 0.00039749202 0)
(0.0023576749 0.00039497042 0)
(0.002131826 0.00039277193 0)
(0.0019071387 0.00039059198 0)
(0.001683383 0.00038878088 0)
(0.0014605284 0.00038702281 0)
(0.0012385341 0.00038548777 0)
(0.0010172558 0.00038429314 0)
(0.00079665764 0.00038282206 0)
(0.00057669142 0.00037855573 0)
(0.00036218741 0.00036062715 0)
(0.00015620211 0.00029389806 0)
(1.2364331e-05 0.00012216607 0)
(0.0018582321 -0.013969425 0)
(0.0062271669 -0.015316371 0)
(0.010711789 -0.015432057 0)
(0.015199333 -0.015474289 0)
(0.019696338 -0.015522084 0)
(0.024208299 -0.015581419 0)
(0.028738795 -0.015652934 0)
(0.033291329 -0.015736815 0)
(0.037869495 -0.015833193 0)
(0.042476915 -0.015942212 0)
(0.047117243 -0.016064033 0)
(0.051794165 -0.01619883 0)
(0.056511416 -0.016346794 0)
(0.061272777 -0.016508131 0)
(0.066082081 -0.016683062 0)
(0.07094322 -0.016871815 0)
(0.075860156 -0.01707462 0)
(0.080836961 -0.01729169 0)
(0.085877796 -0.017523327 0)
(0.090986881 -0.017769854 0)
(0.09616851 -0.018031604 0)
(0.10142707 -0.018308915 0)
(0.10676704 -0.018602139 0)
(0.11219301 -0.018911641 0)
(0.11770968 -0.019237802 0)
(0.12332186 -0.01958102 0)
(0.12903447 -0.019941712 0)
(0.13485257 -0.020320311 0)
(0.14078131 -0.020717267 0)
(0.14682602 -0.021133047 0)
(0.15299213 -0.021568136 0)
(0.15928522 -0.02202303 0)
(0.16571104 -0.022498243 0)
(0.17227538 -0.022994304 0)
(0.1789845 -0.023511741 0)
(0.18584392 -0.024051136 0)
(0.19286189 -0.024612943 0)
(0.20003958 -0.025198029 0)
(0.20739778 -0.025806126 0)
(0.21490789 -0.026439997 0)
(0.22266089 -0.027094732 0)
(0.23047579 -0.02778385 0)
(0.23875417 -0.028478789 0)
(0.24672721 -0.029242455 0)
(0.25581872 -0.029948144 0)
(0.26364906 -0.030846115 0)
(0.27389989 -0.031470348 0)
(0.28150904 -0.032652696 0)
(0.29266076 -0.033006701 0)
(0.30091481 -0.034652303 0)
(0.31178963 -0.034695149 0)
(0.32168167 -0.036564848 0)
(0.33224828 -0.036863335 0)
(0.34310469 -0.038231955 0)
(0.35398524 -0.039283258 0)
(0.36597354 -0.040328826 0)
(0.37719181 -0.041392488 0)
(0.38911571 -0.04259887 0)
(0.40210101 -0.043885452 0)
(0.41485473 -0.045159715 0)
(0.42737777 -0.046149433 0)
(0.44092177 -0.047264208 0)
(0.455129 -0.049069955 0)
(0.469488 -0.050707083 0)
(0.4840771 -0.051475134 0)
(0.49866109 -0.052360837 0)
(0.5135838 -0.054176896 0)
(0.52985488 -0.055739447 0)
(0.54681481 -0.057755678 0)
(0.56369898 -0.059229808 0)
(0.58013239 -0.059362475 0)
(0.59659913 -0.059786727 0)
(0.61365972 -0.061621465 0)
(0.63218379 -0.06418109 0)
(0.65231077 -0.065617988 0)
(0.67259802 -0.06528799 0)
(0.69205647 -0.064662835 0)
(0.71040745 -0.065266976 0)
(0.72788911 -0.067496735 0)
(0.74581139 -0.069061317 0)
(0.76545055 -0.066598537 0)
(0.78630189 -0.059276049 0)
(0.80661056 -0.051173975 0)
(0.82587346 -0.048569338 0)
(0.84576147 -0.052806256 0)
(0.86683385 -0.05812858 0)
(0.8858686 -0.057047988 0)
(0.89821688 -0.046279909 0)
(0.90251074 -0.028842889 0)
(0.90139312 -0.011315112 0)
(0.89789134 0.0013888521 0)
(0.89404585 0.0074688636 0)
(0.89034436 0.0076338267 0)
(0.88620084 0.0051283426 0)
(0.87861203 0.0032917528 0)
(0.85755164 0.0022996711 0)
(0.85076694 0.050378762 0)
(0.65454792 0.21977008 0)
(0.5114213 0.37576623 0)
(0.49664899 0.37755504 0)
(0.49485059 0.30739784 0)
(0.48393916 0.2202631 0)
(0.45932201 0.16565423 0)
(0.43041928 0.12940515 0)
(0.40208946 0.10442679 0)
(0.37581847 0.086611652 0)
(0.35199069 0.073496715 0)
(0.33054686 0.063551552 0)
(0.31126097 0.05579933 0)
(0.29386649 0.049605478 0)
(0.27810953 0.044548885 0)
(0.26376665 0.040343525 0)
(0.2506478 0.036790331 0)
(0.23859346 0.033747264 0)
(0.22747093 0.031111579 0)
(0.21716843 0.028802816 0)
(0.20759361 0.026772993 0)
(0.19866597 0.024946522 0)
(0.19031899 0.02336467 -1.1619844e-34)
(0.18250177 0.021815842 -6.0760191e-30)
(0.17515323 0.02053093 0)
(0.16823549 0.019346022 0)
(0.16170838 0.018263839 0)
(0.15553622 0.017263558 0)
(0.14970542 0.016340096 0)
(0.14418502 0.015485862 0)
(0.13894261 0.014699288 0)
(0.1339616 0.013965536 0)
(0.12921918 0.013309449 -6.3146899e-35)
(0.12469571 0.012616506 -3.3464749e-30)
(0.12039885 0.012069301 -5.6710315e-35)
(0.11630329 0.011468566 -3.0108613e-30)
(0.1123836 0.010981608 0)
(0.10863392 0.010507395 0)
(0.10504319 0.010060269 0)
(0.10160573 0.0096336971 0)
(0.098317596 0.0092323516 0)
(0.095167208 0.0088443706 0)
(0.092143128 0.008495327 -3.7920725e-35)
(0.089241048 0.0081093858 -2.0238425e-30)
(0.086457442 0.0078029695 0)
(0.083781734 0.0075064437 0)
(0.081200426 0.0072210555 0)
(0.078720305 0.0069489379 0)
(0.07632984 0.006687114 0)
(0.074032662 0.0064397413 0)
(0.07183355 0.0062023494 0)
(0.069710161 0.0059755871 0)
(0.067656486 0.0057596305 0)
(0.065673897 0.0055539243 0)
(0.063757971 0.0053619397 -2.2002223e-35)
(0.061911096 0.0051488488 -1.1794348e-30)
(0.060133963 0.0049833468 0)
(0.058415558 0.0048175697 0)
(0.056752719 0.0046561006 0)
(0.055144685 0.004500215 0)
(0.053590035 0.0043502373 0)
(0.052086635 0.0042062279 0)
(0.050632153 0.0040679555 0)
(0.049224638 0.0039349343 0)
(0.047861254 0.0038052047 1.4392964e-35)
(0.046542167 0.0037043825 7.7349269e-31)
(0.045266261 0.0035768116 0)
(0.044029004 0.0034597768 0)
(0.042828985 0.0033488522 1.2200404e-35)
(0.0416651 0.0032598726 6.5576348e-31)
(0.040534978 0.0031500257 0)
(0.039440742 0.0030517532 0)
(0.038380214 0.0029577014 0)
(0.037352232 0.002868497 0)
(0.036357218 0.0027829912 9.5422404e-36)
(0.035386528 0.0027140709 5.1291638e-31)
(0.034439469 0.0026279864 0)
(0.033522645 0.0025457502 0)
(0.032634908 0.002472005 0)
(0.031771189 0.0024025748 0)
(0.03093077 0.0023353058 0)
(0.030113455 0.0022697537 0)
(0.02931869 0.002206167 0)
(0.028545681 0.0021447436 0)
(0.027793629 0.002085506 0)
(0.027061779 0.0020283878 0)
(0.026349421 0.0019732997 0)
(0.025655883 0.0019201522 0)
(0.024980543 0.0018688543 0)
(0.02432277 0.0018192564 0)
(0.023682147 0.0017709761 0)
(0.023057155 0.0017235494 0)
(0.022447481 0.0016792301 0)
(0.021853806 0.0016368568 0)
(0.021275146 0.0015956216 0)
(0.020710704 0.0015555475 0)
(0.020159965 0.0015168932 0)
(0.019622026 0.0014797574 0)
(0.019096598 0.0014432933 0)
(0.018583913 0.0014077591 0)
(0.018083491 0.0013737489 0)
(0.0175945 0.00134204 0)
(0.017116572 0.0013098863 0)
(0.016649621 0.0012789138 0)
(0.016193186 0.0012492979 0)
(0.015746852 0.0012207889 0)
(0.01531031 0.0011929988 0)
(0.01488269 0.0011657673 0)
(0.014463944 0.0011403864 0)
(0.014054448 0.00111604 0)
(0.013653559 0.0010922644 0)
(0.013260844 0.0010690908 0)
(0.012876016 0.0010466066 0)
(0.012498906 0.0010248728 0)
(0.012129224 0.001004045 0)
(0.01176658 0.00098405117 0)
(0.011410684 0.00096464182 -1.5610972e-36)
(0.011061126 0.00094421993 -8.3262538e-32)
(0.01071779 0.00092780996 0)
(0.010381377 0.00091075737 0)
(0.010051212 0.0008938774 0)
(0.0097261724 0.00087760241 0)
(0.0094064906 0.00086201208 0)
(0.0090925412 0.00084697736 0)
(0.0087838934 0.00083223191 0)
(0.0084794392 0.00081757408 0)
(0.0081794788 0.00080472835 0)
(0.0078844933 0.00079240229 0)
(0.0075940395 0.00078026288 0)
(0.0073077819 0.00076844477 0)
(0.0070255083 0.00075708317 0)
(0.0067470628 0.00074621991 0)
(0.0064722984 0.00073585736 0)
(0.0062010553 0.00072598107 0)
(0.0059331482 0.00071649839 -5.9340245e-37)