/*--------------------------------*- C++ -*----------------------------------*\
| =========                 |                                                 |
| \\      /  F ield         | OpenFOAM: The Open Source CFD Toolbox           |
|  \\    /   O peration     | Version:  2306                                  |
|   \\  /    A nd           | Website:  www.openfoam.com                      |
|    \\/     M anipulation  |                                                 |
\*---------------------------------------------------------------------------*/
FoamFile
{
    version     2.0;
    format      ascii;
    arch        "LSB;label=32;scalar=64";
    class       volVectorField;
    location    "0.2";
    object      U;
}
// * * * * * * * * * * * * * * * * * * * * * * * * * * * * * * * * * * * * * //

dimensions      [0 1 -1 0 0 0 0];

internalField   nonuniform List<vector> 
6400
(
(0.00010763779 7.8816732e-05 8.5564211e-21)
(0.00010876712 7.6116565e-05 2.703783e-21)
(0.00010982164 7.3366306e-05 -5.4141157e-21)
(0.00011080015 7.0568922e-05 -4.1421086e-22)
(0.00011170165 6.7727316e-05 2.8895152e-21)
(0.00011252514 6.4844488e-05 -1.6128175e-21)
(0.00011326969 6.192351e-05 -2.9842946e-21)
(0.0001139346 5.896741e-05 -2.6596342e-21)
(0.00011451924 5.5979273e-05 2.1396005e-21)
(0.00011502314 5.2962168e-05 1.7178158e-21)
(0.00011544596 4.991914e-05 -1.2909023e-21)
(0.00011578741 4.6853241e-05 -3.6618257e-22)
(0.00011604734 4.3767488e-05 -3.17665e-21)
(0.00011622563 4.0664886e-05 -1.0185503e-21)
(0.00011632239 3.7548517e-05 1.0436158e-21)
(0.00011633778 3.4421321e-05 -2.1205784e-21)
(0.00011627201 3.1286152e-05 -1.5815988e-21)
(0.00011612547 2.8146092e-05 -1.223087e-21)
(0.00011589857 2.5003868e-05 1.9108843e-21)
(0.00011559189 2.1862473e-05 -6.9427178e-22)
(0.00011520592 1.8724597e-05 -1.5711958e-21)
(0.00011474136 1.5593041e-05 -1.5428321e-21)
(0.00011419914 1.2470339e-05 -3.1794281e-22)
(0.00011358014 9.3593692e-06 3.5750073e-22)
(0.00011288526 6.2625552e-06 -1.4071219e-21)
(0.00011211532 3.1824782e-06 -1.9400971e-21)
(0.00011127142 1.2183363e-07 -1.5399709e-21)
(0.00011035477 -2.9172559e-06 6.5611512e-22)
(0.00010936648 -5.9321864e-06 1.9571223e-21)
(0.00010830785 -8.9206538e-06 -2.718785e-21)
(0.00010718014 -1.1880555e-05 -2.5831626e-21)
(0.00010598465 -1.4809568e-05 6.1901075e-22)
(0.00010472287 -1.7705617e-05 4.1228929e-21)
(0.00010339615 -2.056683e-05 -9.5186276e-23)
(0.00010200595 -2.3390882e-05 -3.5871104e-21)
(0.00010055383 -2.6176004e-05 -2.193193e-21)
(9.9041276e-05 -2.8920325e-05 1.2140689e-21)
(9.7469871e-05 -3.1622053e-05 2.6048565e-21)
(9.5841236e-05 -3.4279416e-05 -3.0157896e-22)
(9.4156987e-05 -3.6890851e-05 -5.2824274e-21)
(9.2418748e-05 -3.9454554e-05 -1.0443209e-21)
(9.0628317e-05 -4.1969231e-05 2.3129159e-21)
(8.8787283e-05 -4.4433133e-05 1.513953e-21)
(8.6897338e-05 -4.6845019e-05 -4.2779243e-22)
(8.496031e-05 -4.9203392e-05 -3.1590713e-21)
(8.297789e-05 -5.1507164e-05 -2.6018472e-21)
(8.0951897e-05 -5.3754998e-05 1.1815193e-21)
(7.8884079e-05 -5.5945716e-05 2.9411297e-21)
(7.6776113e-05 -5.8078111e-05 -1.917449e-22)
(7.4629837e-05 -6.0151421e-05 -9.3777397e-22)
(7.2447124e-05 -6.2164346e-05 -1.8153857e-21)
(7.0229727e-05 -6.4116056e-05 -1.6390893e-22)
(6.7979419e-05 -6.6005854e-05 3.3780776e-21)
(6.5698e-05 -6.7832683e-05 -6.7170107e-23)
(6.3387261e-05 -6.9595897e-05 -2.9561753e-21)
(6.1049005e-05 -7.12947e-05 -1.461432e-21)
(5.8685023e-05 -7.292856e-05 7.0265007e-22)
(5.6297096e-05 -7.4496772e-05 3.0613478e-21)
(5.3887015e-05 -7.5998839e-05 -1.5198119e-21)
(5.1456584e-05 -7.7434197e-05 -3.741606e-21)
(4.9007538e-05 -7.880248e-05 -1.5388947e-21)
(4.6541648e-05 -8.0103137e-05 2.6839396e-22)
(4.4060708e-05 -8.1335966e-05 3.6375359e-21)
(4.156645e-05 -8.250069e-05 6.8739793e-22)
(3.9060586e-05 -8.3596851e-05 -2.8461896e-21)
(3.6544871e-05 -8.4624406e-05 -1.9938206e-21)
(3.4021024e-05 -8.5583156e-05 -7.1679966e-22)
(3.1490711e-05 -8.6472792e-05 2.7716791e-21)
(2.8955696e-05 -8.7293393e-05 3.8208218e-22)
(2.6417686e-05 -8.8045005e-05 -2.8438791e-21)
(2.3878259e-05 -8.8727488e-05 -3.6971922e-22)
(2.1339067e-05 -8.9340787e-05 1.2055429e-22)
(1.8801856e-05 -8.9885146e-05 1.9205217e-21)
(1.6268255e-05 -9.0360751e-05 -9.3025574e-23)
(1.3739896e-05 -9.0767588e-05 -2.2625916e-21)
(1.1218387e-05 -9.1106126e-05 -2.957484e-22)
(8.7053524e-06 -9.1376668e-05 4.8007201e-22)
(6.2015922e-06 -9.1580617e-05 8.4743246e-22)
(3.7067478e-06 -9.1721066e-05 -1.5259706e-21)
(1.2276429e-06 -9.1802027e-05 -2.5447433e-21)
(0.00010499936 7.6356788e-05 -4.0370466e-21)
(0.00010607815 7.3731928e-05 -1.2722115e-22)
(0.00010708503 7.1059074e-05 1.5639256e-21)
(0.00010801885 6.834099e-05 -5.3404946e-21)
(0.00010887854 6.5580499e-05 -1.3607332e-21)
(0.00010966314 6.2780509e-05 -1.5484528e-21)
(0.0001103718 5.9943908e-05 -2.1986869e-21)
(0.00011100385 5.7073579e-05 4.4105287e-21)
(0.00011155863 5.4172532e-05 -2.5959213e-21)
(0.00011203564 5.1243615e-05 5.203268e-22)
(0.00011243455 4.828975e-05 1.4236711e-21)
(0.00011275504 4.5313953e-05 1.1776566e-21)
(0.00011299699 4.2319052e-05 1.2793513e-21)
(0.0001131603 3.9307916e-05 -4.060637e-21)
(0.00011324497 3.6283578e-05 8.4777569e-22)
(0.00011325117 3.3248737e-05 -5.9104303e-22)
(0.00011317913 3.0206303e-05 5.9201814e-22)
(0.00011302914 2.7159043e-05 3.2745942e-21)
(0.00011280154 2.4109823e-05 -3.5994787e-21)
(0.00011249688 2.1061181e-05 1.3032444e-22)
(0.00011211578 1.8016137e-05 -8.6662222e-23)
(0.00011165893 1.4976897e-05 -1.1861044e-21)
(0.00011112698 1.1946333e-05 3.18876e-21)
(0.0001105207 8.926933e-06 -1.957652e-21)
(0.00010984101 5.9212525e-06 4.1197879e-22)
(0.00010908875 2.9317811e-06 -7.8881238e-23)
(0.00010826504 -3.91273e-08 8.1154664e-22)
(0.00010737091 -2.9891656e-06 2.1169414e-21)
(0.00010640745 -5.9159215e-06 -1.4790972e-21)
(0.00010537584 -8.8171609e-06 1.7011505e-21)
(0.00010427738 -1.1690896e-05 3.4460569e-21)
(0.00010311338 -1.4534766e-05 1.6133913e-21)
(0.00010188506 -1.734681e-05 1.6108585e-22)
(0.00010059367 -2.0125103e-05 -3.4822267e-21)
(9.9240787e-05 -2.2867681e-05 2.0903928e-21)
(9.7827905e-05 -2.5572553e-05 3.428117e-21)
(9.6356407e-05 -2.8237986e-05 8.5296129e-22)
(9.4827834e-05 -3.0862171e-05 -7.8385446e-22)
(9.3243685e-05 -3.3443525e-05 -1.5065602e-21)
(9.1605525e-05 -3.5980383e-05 2.970037e-22)
(8.9915003e-05 -3.8471108e-05 8.9016571e-22)
(8.8173653e-05 -4.0914327e-05 1.7918743e-21)
(8.6383141e-05 -4.3308362e-05 3.3552933e-22)
(8.4545181e-05 -4.565209e-05 -7.3941137e-22)
(8.2661415e-05 -4.7943929e-05 8.9747757e-22)
(8.0733544e-05 -5.0182902e-05 2.8408685e-21)
(7.8763203e-05 -5.2367629e-05 4.1566647e-21)
(7.6752135e-05 -5.4496987e-05 7.7862748e-22)
(7.4702101e-05 -5.6569826e-05 -1.6291554e-21)
(7.2614743e-05 -5.8585342e-05 2.8964103e-21)
(7.0491872e-05 -6.054231e-05 2.6060841e-21)
(6.8335226e-05 -6.243989e-05 1.0252984e-21)
(6.6146511e-05 -6.4277354e-05 1.3954315e-21)
(6.3927457e-05 -6.6053647e-05 3.0396388e-22)
(6.1679774e-05 -6.7768259e-05 3.4071433e-22)
(5.940529e-05 -6.9420355e-05 1.3690068e-21)
(5.71057e-05 -7.1009303e-05 1.763477e-21)
(5.4782747e-05 -7.2534575e-05 2.1430267e-21)
(5.2438212e-05 -7.3995554e-05 -2.4350391e-22)
(5.0073733e-05 -7.5391696e-05 1.7115456e-22)
(4.7691034e-05 -7.6722666e-05 1.2181171e-21)
(4.5291888e-05 -7.7987971e-05 5.0803678e-22)
(4.2878045e-05 -7.9187351e-05 1.4502392e-21)
(4.0451185e-05 -8.0320435e-05 1.6956983e-21)
(3.8012975e-05 -8.1386913e-05 1.454791e-21)
(3.5565103e-05 -8.2386694e-05 9.7654933e-22)
(3.3109195e-05 -8.3319459e-05 7.2009337e-23)
(3.0646955e-05 -8.418512e-05 1.0410159e-21)
(2.8180094e-05 -8.4983657e-05 3.6405274e-22)
(2.5710241e-05 -8.5715036e-05 6.1327232e-23)
(2.3238986e-05 -8.6379082e-05 1.686478e-21)
(2.0767957e-05 -8.6975926e-05 1.729229e-21)
(1.8298797e-05 -8.750566e-05 2.0139982e-21)
(1.5833087e-05 -8.7968565e-05 1.1421792e-21)
(1.3372412e-05 -8.8364512e-05 4.8493442e-22)
(1.0918344e-05 -8.8693917e-05 1.9543064e-23)
(8.4725274e-06 -8.8957231e-05 1.225931e-21)
(6.0357211e-06 -8.9155738e-05 1.3746808e-21)
(3.607606e-06 -8.9292377e-05 -3.8113924e-22)
(1.1948163e-06 -8.9371145e-05 -1.5821238e-21)
(0.00010243387 7.3979947e-05 4.0298602e-21)
(0.00010346427 7.1427865e-05 4.5593737e-21)
(0.00010442547 6.8829738e-05 5.5350964e-21)
(0.00010531639 6.6188269e-05 7.2206514e-21)
(0.00010613599 6.3506132e-05 6.4302677e-21)
(0.00010688331 6.0786111e-05 4.9879361e-22)
(0.00010755755 5.8030969e-05 -8.9761299e-22)
(0.00010815803 5.5243517e-05 4.5359664e-21)
(0.00010868412 5.2426559e-05 3.5227743e-21)
(0.00010913532 4.95828e-05 5.0356242e-21)
(0.00010951127 4.6715137e-05 4.0118492e-21)
(0.00010981163 4.3826428e-05 1.5144777e-21)
(0.00011003629 4.0919247e-05 2.3769767e-21)
(0.00011018516 3.7996569e-05 4.0691358e-21)
(0.00011025824 3.5061132e-05 6.7137382e-21)
(0.00011025566 3.2115557e-05 1.3985361e-21)
(0.00011017753 2.9162789e-05 -9.9599938e-22)
(0.00011002416 2.6205318e-05 2.3703576e-21)
(0.00010979595 2.3246006e-05 2.0742621e-21)
(0.00010949341 2.0287086e-05 5.641058e-21)
(0.00010911705 1.7331791e-05 -3.5024656e-22)
(0.00010866735 1.4381991e-05 -1.7991938e-21)
(0.00010814508 1.144057e-05 3.7900557e-22)
(0.00010755113 8.5098703e-06 1.4361833e-21)
(0.00010688615 5.5924872e-06 4.7675772e-21)
(0.00010615102 2.6907344e-06 1.2828858e-22)
(0.00010534677 -1.9319486e-07 -1.4021114e-21)
(0.00010447431 -3.0569245e-06 4.6009706e-23)
(0.00010353478 -5.8983089e-06 -4.4171599e-22)
(0.00010252936 -8.7149634e-06 1.234214e-21)
(0.00010145911 -1.1505133e-05 -2.2861077e-21)
(0.00010032527 -1.4266427e-05 -1.2174839e-21)
(9.9129169e-05 -1.6996972e-05 6.1334098e-22)
(9.7872174e-05 -1.969489e-05 1.2313763e-21)
(9.6555508e-05 -2.2358309e-05 2.6922459e-21)
(9.5180552e-05 -2.498534e-05 -1.0687179e-21)
(9.3748747e-05 -2.7574136e-05 -2.6202162e-21)
(9.2261506e-05 -3.0123055e-05 3.1793806e-22)
(9.0720382e-05 -3.2630575e-05 -7.2537869e-24)
(8.9126849e-05 -3.509501e-05 1.3660072e-21)
(8.7482413e-05 -3.7514797e-05 -9.3195494e-22)
(8.5788617e-05 -3.9888514e-05 -1.7501274e-21)
(8.404711e-05 -4.221475e-05 -3.8881205e-22)
(8.2259478e-05 -4.4492132e-05 9.1344486e-22)
(8.0427332e-05 -4.6719343e-05 1.3463738e-21)
(7.8552313e-05 -4.8895255e-05 -7.8614641e-22)
(7.663597e-05 -5.1018562e-05 -8.1973248e-22)
(7.4679983e-05 -5.308826e-05 2.658222e-23)
(7.2686062e-05 -5.5103153e-05 -6.7124444e-22)
(7.0655838e-05 -5.7062357e-05 1.4495366e-21)
(6.8590973e-05 -5.8964849e-05 3.1855603e-23)
(6.6493213e-05 -6.0809748e-05 -2.1597976e-21)
(6.4364272e-05 -6.2596248e-05 -7.227899e-22)
(6.2205774e-05 -6.4323359e-05 2.9257674e-22)
(6.0019351e-05 -6.5990567e-05 9.3605896e-22)
(5.7806727e-05 -6.7597177e-05 -3.8084561e-22)
(5.5569676e-05 -6.9142416e-05 -1.6640396e-21)
(5.3309854e-05 -7.062582e-05 -5.896213e-22)
(5.1028901e-05 -7.2046734e-05 -5.228227e-22)
(4.8728556e-05 -7.3404704e-05 5.8868127e-22)
(4.6410458e-05 -7.4699237e-05 -2.0006942e-22)
(4.4076262e-05 -7.5930082e-05 -3.2363258e-21)
(4.1727674e-05 -7.7096828e-05 -6.1814445e-22)
(3.9366276e-05 -7.8199038e-05 -3.2116009e-23)
(3.699375e-05 -7.9236614e-05 8.8652673e-22)
(3.4611803e-05 -8.0209239e-05 2.4107984e-22)
(3.2222015e-05 -8.11167e-05 -2.7345786e-21)
(2.982604e-05 -8.1959021e-05 -7.681334e-22)
(2.7425474e-05 -8.2735999e-05 -7.4991918e-22)
(2.5021885e-05 -8.3447607e-05 3.2942516e-22)
(2.2616939e-05 -8.4093722e-05 7.9768584e-22)
(2.0212224e-05 -8.4674517e-05 -5.2837836e-22)
(1.7809285e-05 -8.519002e-05 -4.1982232e-22)
(1.5409638e-05 -8.5640433e-05 -2.9050666e-22)
(1.3014802e-05 -8.6025705e-05 2.8785627e-22)
(1.062637e-05 -8.6346238e-05 -3.8248834e-22)
(8.2459884e-06 -8.6602537e-05 -1.3383163e-21)
(5.8743483e-06 -8.6795673e-05 -6.5394578e-22)
(3.5111171e-06 -8.6928659e-05 -1.4476424e-21)
(1.1628444e-06 -8.700527e-05 -1.4060688e-21)
(9.9938895e-05 7.1683252e-05 -5.9835198e-21)
(0.00010092286 6.9201458e-05 -6.6732152e-22)
(0.0001018403 6.6675504e-05 1.2528179e-22)
(0.00010269012 6.4108062e-05 -1.00026e-20)
(0.00010347129 6.1501617e-05 -1.1485652e-20)
(0.00010418287 5.8858888e-05 -8.2507944e-21)
(0.00010482408 5.6182411e-05 -7.6097625e-22)
(0.00010539427 5.3475011e-05 -8.811766e-22)
(0.0001058928 5.0739291e-05 -7.3816687e-21)
(0.0001063192 4.797782e-05 -7.302067e-21)
(0.00010667312 4.5193457e-05 -3.2166042e-21)
(0.00010695423 4.2388857e-05 4.524268e-22)
(0.00010716232 3.9566528e-05 -2.2803399e-21)
(0.00010729731 3.6729337e-05 -4.9861902e-21)
(0.00010735925 3.3879804e-05 -3.9878152e-21)
(0.00010734813 3.1020629e-05 -2.6568795e-21)
(0.00010726414 2.815451e-05 4.1542743e-22)
(0.00010710758 2.5283906e-05 -1.6456481e-21)
(0.0001068788 2.2411431e-05 -4.4947769e-21)
(0.00010657821 1.9539451e-05 -1.9610779e-21)
(0.00010620628 1.6670912e-05 -2.0547556e-21)
(0.00010576364 1.3807788e-05 1.2392613e-21)
(0.00010525088 1.0952632e-05 -1.923486e-21)
(0.00010466865 8.1078668e-06 -3.532552e-21)
(0.0001040178 5.2759557e-06 -2.6300789e-22)
(0.00010329918 2.4591017e-06 5.7437621e-22)
(0.00010251373 -3.405501e-07 1.8698709e-21)
(0.00010166231 -3.1205828e-06 -9.176883e-22)
(0.00010074586 -5.8791511e-06 -3.2842816e-21)
(9.9765592e-05 -8.6138926e-06 4.3606192e-22)
(9.8722647e-05 -1.132298e-05 3.3464737e-21)
(9.7618135e-05 -1.4004161e-05 3.410458e-21)
(9.6453243e-05 -1.6655717e-05 -4.1329737e-21)
(9.522927e-05 -1.9275699e-05 -2.0628121e-21)
(9.3947518e-05 -2.1862247e-05 2.9737399e-21)
(9.2609247e-05 -2.4413675e-05 3.1604228e-21)
(9.1215801e-05 -2.692808e-05 4.6156736e-22)
(8.9768621e-05 -2.9403928e-05 -2.7235773e-21)
(8.8269137e-05 -3.18397e-05 -1.5854801e-21)
(8.6718774e-05 -3.4233792e-05 2.4835944e-21)
(8.5118996e-05 -3.6584634e-05 3.6272301e-21)
(8.3471317e-05 -3.8890901e-05 1.1072548e-21)
(8.1777275e-05 -4.1151179e-05 -2.3276107e-21)
(8.0038397e-05 -4.3364137e-05 -9.3142734e-22)
(7.825624e-05 -4.5528466e-05 2.8321883e-21)
(7.6432341e-05 -4.7643032e-05 2.7726993e-21)
(7.4568323e-05 -4.9706638e-05 1.1443192e-21)
(7.2665752e-05 -5.1718232e-05 -1.5525265e-21)
(7.072624e-05 -5.3676785e-05 -1.206046e-21)
(6.8751484e-05 -5.5581218e-05 2.037988e-21)
(6.6743056e-05 -5.7430643e-05 2.6629403e-21)
(6.4702517e-05 -5.922425e-05 8.0944623e-22)
(6.263149e-05 -6.0961095e-05 -2.3203726e-21)
(6.0531661e-05 -6.2640348e-05 -2.7888419e-22)
(5.8404715e-05 -6.4261435e-05 3.7765527e-21)
(5.6252303e-05 -6.5823705e-05 3.3328601e-21)
(5.4076035e-05 -6.7326375e-05 1.3474129e-21)
(5.1877475e-05 -6.8768906e-05 -1.5454049e-21)
(4.9658341e-05 -7.0150819e-05 -6.9247349e-22)
(4.7420273e-05 -7.147159e-05 3.467329e-21)
(4.516483e-05 -7.2730649e-05 3.7235373e-21)
(4.289374e-05 -7.3927897e-05 -9.2134213e-22)
(4.060857e-05 -7.5062782e-05 -2.2866029e-21)
(3.8310858e-05 -7.6134907e-05 2.0595744e-22)
(3.6002259e-05 -7.7144248e-05 2.8228424e-21)
(3.3684435e-05 -7.8090428e-05 2.4255314e-21)
(3.1358964e-05 -7.8973267e-05 -5.536619e-22)
(2.9027367e-05 -7.9792742e-05 -1.3866557e-21)
(2.6691245e-05 -8.0548692e-05 6.9213138e-22)
(2.435221e-05 -8.1241012e-05 2.2317991e-21)
(2.201177e-05 -8.1869655e-05 2.5307252e-21)
(1.9671441e-05 -8.2434803e-05 7.3600253e-22)
(1.7332839e-05 -8.293644e-05 -1.213212e-21)
(1.4997452e-05 -8.3374635e-05 1.2087938e-21)
(1.2666766e-05 -8.3749517e-05 2.087283e-21)
(1.0342304e-05 -8.4061353e-05 1.064239e-21)
(8.0255602e-06 -8.4310805e-05 2.7425714e-22)
(5.7173045e-06 -8.4498716e-05 -5.5300968e-22)
(3.4172889e-06 -8.4628114e-05 -3.6208451e-22)
(1.1317867e-06 -8.470265e-05 -9.1190176e-23)
(9.7511985e-05 6.9463749e-05 -1.0925321e-20)
(9.84516e-05 6.7049889e-05 -1.1524725e-20)
(9.9327121e-05 6.4593715e-05 -9.1885286e-21)
(0.00010013752 6.2097779e-05 -5.1627726e-21)
(0.00010088182 5.9564485e-05 -8.0370416e-21)
(0.00010155915 5.6996439e-05 -1.036334e-20)
(0.00010216872 5.4396032e-05 -9.7903013e-21)
(0.00010270983 5.1765924e-05 -4.3853722e-21)
(0.00010318197 4.9108707e-05 3.7208011e-21)
(0.00010358461 4.6426819e-05 -5.7661402e-21)
(0.00010391733 4.3722929e-05 -1.0343179e-20)
(0.0001041799 4.0999583e-05 -8.2902928e-21)
(0.00010437211 3.8259363e-05 -5.5247576e-21)
(0.00010449383 3.5504715e-05 2.3154397e-22)
(0.00010454504 3.2738318e-05 -3.6949763e-21)
(0.00010452579 2.9962736e-05 -5.1582309e-21)
(0.00010443626 2.7180358e-05 -5.0912625e-21)
(0.00010427666 2.4393814e-05 -5.0456561e-21)
(0.0001040473 2.1605363e-05 1.9462841e-21)
(0.00010374852 1.8817613e-05 -2.2219871e-21)
(0.00010338091 1.6032939e-05 -4.2856126e-21)
(0.00010294505 1.3253627e-05 -3.6305126e-21)
(0.00010244136 1.0482112e-05 -3.202167e-21)
(0.00010187059 7.7205778e-06 2.9809181e-21)
(0.00010123341 4.9714258e-06 1.1270475e-21)
(0.00010053064 2.2368193e-06 -8.5363534e-22)
(9.9763232e-05 -4.8121861e-07 -2.3768055e-21)
(9.8932084e-05 -3.1802182e-06 -3.3777905e-21)
(9.8038093e-05 -5.8584067e-06 2.1561826e-21)
(9.7082235e-05 -8.5137309e-06 1.2231363e-21)
(9.6065637e-05 -1.1144236e-05 -1.2951134e-21)
(9.4989409e-05 -1.3747711e-05 -3.2135409e-21)
(9.3854685e-05 -1.6322575e-05 -9.6101813e-22)
(9.2662709e-05 -1.8866986e-05 5.1222023e-21)
(9.1414675e-05 -2.1378941e-05 3.1518953e-21)
(9.0111813e-05 -2.3856905e-05 2.6687238e-22)
(8.8755491e-05 -2.6299203e-05 -1.6136414e-21)
(8.7347086e-05 -2.8704111e-05 -5.9505032e-22)
(8.5887974e-05 -3.1070224e-05 3.7291333e-21)
(8.437948e-05 -3.3395919e-05 3.8742851e-21)
(8.2822967e-05 -3.5679784e-05 2.2127801e-21)
(8.1219936e-05 -3.7920527e-05 -2.5839257e-21)
(7.9571828e-05 -4.0116635e-05 -1.6408582e-21)
(7.7880164e-05 -4.2267011e-05 3.9287887e-21)
(7.6146464e-05 -4.4370166e-05 3.7081054e-21)
(7.437216e-05 -4.6425088e-05 -1.2131864e-22)
(7.2558843e-05 -4.8430664e-05 -1.4204948e-21)
(7.0708072e-05 -5.038572e-05 8.7837514e-22)
(6.8821385e-05 -5.2289471e-05 2.8559668e-21)
(6.6900355e-05 -5.414066e-05 3.9417318e-21)
(6.4946489e-05 -5.5938368e-05 1.5451851e-21)
(6.2961408e-05 -5.7682032e-05 -9.8386687e-22)
(6.094671e-05 -5.9370555e-05 -1.0053082e-23)
(5.8903994e-05 -6.1003244e-05 2.5346248e-21)
(5.6834852e-05 -6.2579429e-05 4.5881461e-21)
(5.4740782e-05 -6.4098461e-05 2.7775996e-21)
(5.2623424e-05 -6.5559664e-05 2.0277295e-22)
(5.0484445e-05 -6.696237e-05 2.4413442e-22)
(4.832538e-05 -6.8306327e-05 1.5178923e-21)
(4.6147808e-05 -6.959079e-05 3.7740097e-21)
(4.3953351e-05 -7.0815338e-05 3.8039289e-21)
(4.1743529e-05 -7.1979805e-05 3.8336035e-22)
(3.9519912e-05 -7.3083648e-05 -2.2332315e-22)
(3.7284097e-05 -7.4126469e-05 1.0300515e-21)
(3.5037715e-05 -7.5108269e-05 2.7466046e-21)
(3.2782272e-05 -7.6028673e-05 2.5353756e-21)
(3.0519286e-05 -7.6887518e-05 2.1213261e-22)
(2.825033e-05 -7.768465e-05 5.3732016e-22)
(2.5976947e-05 -7.842012e-05 2.1141606e-21)
(2.3700623e-05 -7.9093587e-05 2.661973e-21)
(2.1422907e-05 -7.970525e-05 2.3270652e-21)
(1.9145353e-05 -8.0255084e-05 3.5611873e-22)
(1.6869366e-05 -8.074317e-05 -8.9384895e-22)
(1.4596442e-05 -8.116948e-05 1.1463954e-21)
(1.2328065e-05 -8.1534244e-05 3.3096177e-21)
(1.0065797e-05 -8.1837658e-05 2.7092175e-21)
(7.8110737e-06 -8.2080322e-05 4.2984802e-22)
(5.5645444e-06 -8.2263175e-05 -4.5329141e-22)
(3.3259702e-06 -8.2389044e-05 -7.6910552e-22)
(1.1015236e-06 -8.2461572e-05 -3.5285238e-22)
(9.5150945e-05 6.7318622e-05 -4.4063797e-21)
(9.6048017e-05 6.4970457e-05 -3.9900318e-21)
(9.6883403e-05 6.2581749e-05 -2.0679621e-21)
(9.7656067e-05 6.0154934e-05 -1.9555651e-21)
(9.8365086e-05 5.7692359e-05 -7.0738884e-22)
(9.900962e-05 5.5196448e-05 -8.4084016e-22)
(9.9588863e-05 5.2669606e-05 -2.3214501e-21)
(0.00010010214 5.0114221e-05 1.8459536e-21)
(0.00010054891 4.7532906e-05 1.4883644e-21)
(0.00010092871 4.4927932e-05 -1.1322671e-21)
(0.00010124117 4.230179e-05 -3.7217679e-22)
(0.00010148601 3.9657067e-05 -2.7350258e-21)
(0.00010166294 3.6996177e-05 -1.3646976e-21)
(0.00010177187 3.4321386e-05 -9.412502e-22)
(0.0001018128 3.1635429e-05 -5.8379775e-22)
(0.00010178573 2.8940619e-05 -5.2558661e-22)
(0.00010169085 2.6239306e-05 -2.2459153e-21)
(0.00010152838 2.3534029e-05 4.0934864e-22)
(0.00010129857 2.0826991e-05 5.7455443e-22)
(0.00010100175 1.8120675e-05 -2.4364572e-21)
(0.00010063833 1.5417264e-05 5.8844569e-22)
(0.00010020888 1.2719098e-05 -1.3137982e-21)
(9.9714008e-05 1.0028484e-05 4.666994e-22)
(9.9154255e-05 7.3475684e-06 1.0182927e-22)
(9.8530305e-05 4.6786059e-06 -5.0762635e-22)
(9.7842985e-05 2.0236837e-06 1.3032417e-21)
(9.7093025e-05 -6.1522129e-07 -2.4236065e-21)
(9.6281338e-05 -3.235793e-06 -6.1995623e-22)
(9.5408932e-05 -5.8361499e-06 1.533561e-21)
(9.4476694e-05 -8.4143743e-06 -3.7780801e-22)
(9.3485552e-05 -1.0968622e-05 1.4643605e-21)
(9.2436654e-05 -1.3496822e-05 -2.2086072e-21)
(9.1331144e-05 -1.5997262e-05 7.9776037e-22)
(9.0170069e-05 -1.8468251e-05 -9.7566701e-23)
(8.8954699e-05 -2.0907911e-05 -1.5209045e-21)
(8.7686254e-05 -2.3314585e-05 1.720037e-21)
(8.6365926e-05 -2.5686835e-05 -2.5598432e-22)
(8.4995e-05 -2.8022873e-05 -6.2647811e-22)
(8.357479e-05 -3.0321367e-05 -1.1265946e-21)
(8.2106733e-05 -3.2580671e-05 -2.1463776e-21)
(8.0592167e-05 -3.4799477e-05 2.2271853e-21)
(7.9032385e-05 -3.6976457e-05 -5.1779219e-22)
(7.7428836e-05 -3.9110227e-05 -1.6344071e-21)
(7.5782987e-05 -4.1199726e-05 -1.1246952e-21)
(7.4096205e-05 -4.324339e-05 -1.2010382e-21)
(7.2370013e-05 -4.524038e-05 -3.4460138e-22)
(7.0605918e-05 -4.7189491e-05 -2.569322e-21)
(6.8805393e-05 -4.9089607e-05 -5.0937084e-22)
(6.6969914e-05 -5.093994e-05 -4.4880969e-22)
(6.5100974e-05 -5.2739328e-05 -1.8705206e-22)
(6.3200177e-05 -5.4486772e-05 3.2421092e-22)
(6.1268957e-05 -5.6181775e-05 -2.5645836e-21)
(5.9308853e-05 -5.782334e-05 -2.4573864e-22)
(5.7321471e-05 -5.9410693e-05 -9.6532248e-23)
(5.5308383e-05 -6.0943151e-05 -6.7064808e-22)
(5.327108e-05 -6.2420057e-05 8.9420178e-22)
(5.1211034e-05 -6.3840821e-05 -1.2049666e-21)
(4.9129863e-05 -6.5204816e-05 -8.3776974e-22)
(4.7029097e-05 -6.6511749e-05 -1.7714034e-21)
(4.4910306e-05 -6.7760901e-05 -1.9609369e-21)
(4.2775025e-05 -6.8951729e-05 3.0200305e-22)
(4.0624761e-05 -7.0084258e-05 -1.8031997e-21)
(3.8461065e-05 -7.1157834e-05 -4.9043134e-23)
(3.6285472e-05 -7.2172136e-05 -5.3079144e-22)
(3.4099543e-05 -7.3127124e-05 -1.7575271e-21)
(3.1904739e-05 -7.4022367e-05 -2.2241655e-22)
(2.9702523e-05 -7.4857774e-05 -2.6362115e-21)
(2.7494465e-05 -7.5633206e-05 -3.7751058e-22)
(2.5282052e-05 -7.6348602e-05 -6.2589932e-22)
(2.3066754e-05 -7.7003789e-05 -1.4894758e-21)
(2.0850111e-05 -7.7598876e-05 4.1069792e-22)
(1.8633555e-05 -7.8133763e-05 -1.8448932e-21)
(1.6418481e-05 -7.8608559e-05 -1.7636762e-21)
(1.4206344e-05 -7.9023304e-05 -1.1362964e-21)
(1.1998639e-05 -7.9378208e-05 -1.0272512e-21)
(9.7968437e-06 -7.9673482e-05 2.5882225e-22)
(7.6023483e-06 -7.990945e-05 -1.1600403e-21)
(5.4158176e-06 -8.0087357e-05 -1.5165253e-21)
(3.2370827e-06 -8.0209829e-05 -1.5294277e-21)
(1.0721038e-06 -8.028039e-05 -1.5062787e-21)
(9.2853665e-05 6.5245207e-05 6.8859795e-21)
(9.3709991e-05 6.2960534e-05 -3.0700451e-21)
(9.45069e-05 6.0637085e-05 -1.9607126e-21)
(9.5243453e-05 5.8277122e-05 -1.726958e-21)
(9.5918671e-05 5.5882921e-05 -3.3255516e-21)
(9.6531712e-05 5.3456789e-05 2.6187993e-21)
(9.7081892e-05 5.1001015e-05 -4.6597735e-21)
(9.7568528e-05 4.8517939e-05 1.6010835e-22)
(9.7991054e-05 4.6009972e-05 3.0406447e-22)
(9.8348999e-05 4.3479354e-05 -2.5746961e-22)
(9.8642007e-05 4.0928394e-05 3.3785014e-21)
(9.8869767e-05 3.8359729e-05 -2.4398673e-21)
(9.9032106e-05 3.5775523e-05 -1.0005445e-21)
(9.912887e-05 3.3178042e-05 -2.5507575e-22)
(9.9159942e-05 3.0569867e-05 1.8163031e-22)
(9.912542e-05 2.7953188e-05 1.6914531e-21)
(9.9025422e-05 2.5330333e-05 -2.4573045e-21)
(9.8860145e-05 2.270366e-05 2.2523239e-22)
(9.8629832e-05 2.0075427e-05 -8.8355392e-22)
(9.8334871e-05 1.7447816e-05 -1.0171457e-21)
(9.7975662e-05 1.4823195e-05 2.282778e-21)
(9.7552604e-05 1.2203589e-05 -2.2823542e-21)
(9.7066235e-05 9.5913367e-06 1.2911122e-21)
(9.6517111e-05 6.9884915e-06 1.3610147e-21)
(9.5905961e-05 4.3971594e-06 -4.0956813e-22)
(9.5233512e-05 1.8194789e-06 2.0674538e-22)
(9.4500465e-05 -7.4271334e-07 -1.8799073e-21)
(9.3707705e-05 -3.2872447e-06 5.6580358e-22)
(9.2856115e-05 -5.8121961e-06 2.5727757e-21)
(9.194658e-05 -8.3157051e-06 1.6566794e-21)
(9.0980078e-05 -1.0795964e-05 2.3064209e-21)
(8.995765e-05 -1.3251184e-05 -1.6563234e-21)
(8.8880377e-05 -1.5679445e-05 -1.0006121e-22)
(8.7749291e-05 -1.8079155e-05 1.7005847e-23)
(8.6565537e-05 -2.0448696e-05 1.3605473e-21)
(8.5330303e-05 -2.2786189e-05 1.4630423e-21)
(8.4044742e-05 -2.5090357e-05 -1.6269189e-21)
(8.2710143e-05 -2.7359532e-05 8.4988801e-23)
(8.1327803e-05 -2.9592356e-05 1.6604274e-21)
(7.989899e-05 -3.1787252e-05 7.3766558e-22)
(7.8424952e-05 -3.3942781e-05 4.0339688e-22)
(7.6907015e-05 -3.6057807e-05 -1.3863214e-23)
(7.5346614e-05 -3.8131075e-05 7.5403171e-22)
(7.3745083e-05 -4.0161373e-05 1.4020243e-21)
(7.210381e-05 -4.2147187e-05 1.1192618e-21)
(7.0424291e-05 -4.4087885e-05 1.4013574e-21)
(6.8707947e-05 -4.5982067e-05 7.6664315e-22)
(6.6956171e-05 -4.7828756e-05 6.3212312e-22)
(6.5170341e-05 -4.9627068e-05 1.1215615e-21)
(6.3351934e-05 -5.1376012e-05 2.3143254e-21)
(6.1502538e-05 -5.3074671e-05 1.7509462e-22)
(5.9623642e-05 -5.4722289e-05 -1.233945e-21)
(5.7716615e-05 -5.6318103e-05 1.615109e-21)
(5.5782988e-05 -5.7861282e-05 2.2798571e-21)
(5.3824291e-05 -5.9351209e-05 1.2710185e-21)
(5.1842007e-05 -6.0787156e-05 -1.7754985e-23)
(4.9837667e-05 -6.216852e-05 7.0636293e-22)
(4.7812734e-05 -6.3494838e-05 2.2241874e-21)
(4.5768666e-05 -6.4765636e-05 1.2142239e-21)
(4.3706944e-05 -6.5980376e-05 1.6218401e-22)
(4.1629164e-05 -6.7138415e-05 1.4861055e-22)
(3.9536835e-05 -6.8239827e-05 -9.1109831e-22)
(3.7431343e-05 -6.9283857e-05 1.6179989e-21)
(3.5314239e-05 -7.0270412e-05 2.4480135e-21)
(3.3187007e-05 -7.1199229e-05 1.3608847e-21)
(3.1051089e-05 -7.2069971e-05 -1.2156024e-22)
(2.8907994e-05 -7.2882507e-05 -4.8106876e-22)
(2.6759197e-05 -7.3636805e-05 1.7200739e-21)
(2.4606111e-05 -7.4332618e-05 1.5047591e-21)
(2.2450149e-05 -7.4970012e-05 6.6530923e-22)
(2.0292809e-05 -7.5548895e-05 1.3608803e-22)
(1.8135548e-05 -7.6069246e-05 9.5106781e-22)
(1.5979743e-05 -7.6531048e-05 2.1071942e-21)
(1.3826802e-05 -7.6934535e-05 1.8510614e-21)
(1.1678108e-05 -7.7279776e-05 6.7117507e-22)
(9.5350945e-06 -7.7567092e-05 -8.2721696e-22)
(7.3992588e-06 -7.7796616e-05 6.1498734e-22)
(5.2711976e-06 -7.7969705e-05 1.1239972e-21)
(3.1506294e-06 -7.8088865e-05 -4.6370614e-22)
(1.0434549e-06 -7.8157492e-05 -1.3059976e-21)
(9.0617983e-05 6.3240871e-05 3.3448508e-21)
(9.1435359e-05 6.1017613e-05 9.9105766e-21)
(9.2195539e-05 5.8757294e-05 -1.8866181e-21)
(9.2897457e-05 5.6461996e-05 4.054204e-21)
(9.3540314e-05 5.413394e-05 3.5489712e-22)
(9.4123267e-05 5.1775324e-05 4.5302389e-21)
(9.4645585e-05 4.9388271e-05 5.553862e-21)
(9.5106631e-05 4.6975122e-05 -1.3418063e-21)
(9.550588e-05 4.4538087e-05 3.3461752e-21)
(9.5842926e-05 4.207936e-05 -2.5101898e-23)
(9.6117305e-05 3.9601216e-05 4.9557072e-21)
(9.6328725e-05 3.7106035e-05 7.2142995e-21)
(9.6477028e-05 3.4596035e-05 -1.1408479e-21)
(9.6562044e-05 3.2073343e-05 1.8114264e-21)
(9.6583735e-05 2.95404e-05 -8.4432507e-22)
(9.6542182e-05 2.699934e-05 2.7442736e-21)
(9.6437376e-05 2.4452397e-05 5.0598039e-21)
(9.62695e-05 2.1901827e-05 1.0177115e-22)
(9.6038863e-05 1.9349851e-05 7.1930719e-22)
(9.5745691e-05 1.6798446e-05 -8.6924066e-22)
(9.539042e-05 1.425004e-05 2.4005959e-21)
(9.4973491e-05 1.1706528e-05 4.8469847e-21)
(9.4495345e-05 9.1701986e-06 9.9595053e-23)
(9.39566e-05 6.6429701e-06 1.2813545e-21)
(9.3357846e-05 4.1268945e-06 -1.7210545e-21)
(9.269979e-05 1.6239677e-06 1.3384224e-22)
(9.1983144e-05 -8.6381345e-07 2.9021663e-21)
(9.1208649e-05 -3.3346455e-06 6.6060229e-22)
(9.0377265e-05 -5.78649e-06 6.1379984e-22)
(8.9489837e-05 -8.2175803e-06 -3.6605224e-21)
(8.85472e-05 -1.0626133e-05 -2.8884977e-21)
(8.7550349e-05 -1.3010457e-05 3.3534231e-21)
(8.6500318e-05 -1.5368729e-05 3.275246e-21)
(8.5398206e-05 -1.7699381e-05 1.4014909e-21)
(8.4245048e-05 -2.0000759e-05 -3.3278944e-21)
(8.3041971e-05 -2.2271175e-05 -2.9712174e-21)
(8.1790178e-05 -2.4509248e-05 1.3669997e-21)
(8.0490779e-05 -2.6713513e-05 4.2139794e-21)
(7.914504e-05 -2.8882558e-05 1.9079864e-21)
(7.7754147e-05 -3.1014811e-05 -3.2972961e-21)
(7.6319336e-05 -3.310887e-05 -2.8281696e-21)
(7.4841964e-05 -3.5163778e-05 2.9728028e-21)
(7.3323395e-05 -3.7178225e-05 4.5532291e-21)
(7.1764889e-05 -3.9150987e-05 1.6264206e-21)
(7.0167785e-05 -4.1080624e-05 -3.2719605e-21)
(6.8533495e-05 -4.296654e-05 -1.4830614e-21)
(6.6863366e-05 -4.4807345e-05 3.1669906e-21)
(6.5158787e-05 -4.6602053e-05 3.8864466e-21)
(6.3421198e-05 -4.8349811e-05 1.893949e-22)
(6.1651989e-05 -5.0049653e-05 -2.2908954e-21)
(5.9852544e-05 -5.1700822e-05 -2.057608e-21)
(5.8024312e-05 -5.3302367e-05 2.2889751e-22)
(5.6168773e-05 -5.4853608e-05 3.0959757e-21)
(5.4287376e-05 -5.6353814e-05 8.3057904e-22)
(5.2381522e-05 -5.7802309e-05 -2.2974251e-21)
(5.045266e-05 -5.9198341e-05 -1.3726383e-21)
(4.8502293e-05 -6.0541428e-05 8.4905367e-22)
(4.6531912e-05 -6.1831042e-05 3.7938533e-21)
(4.4542911e-05 -6.3066625e-05 6.6173056e-22)
(4.2536717e-05 -6.4247785e-05 -1.870808e-21)
(4.0514853e-05 -6.5373971e-05 -1.1000862e-21)
(3.8478788e-05 -6.6445046e-05 -6.7203599e-22)
(3.642987e-05 -6.746029e-05 2.9333311e-21)
(3.4369625e-05 -6.8419818e-05 6.3509387e-22)
(3.229951e-05 -6.9323083e-05 -1.5348051e-21)
(3.022091e-05 -7.0169991e-05 -3.4815939e-22)
(2.8135278e-05 -7.096024e-05 -2.1871279e-22)
(2.6044017e-05 -7.1693914e-05 2.8258339e-21)
(2.3948601e-05 -7.2370731e-05 2.5267546e-22)
(2.1850428e-05 -7.299069e-05 -1.5357084e-21)
(1.9750861e-05 -7.3553763e-05 -9.8551829e-23)
(1.7651262e-05 -7.4059895e-05 8.2069269e-22)
(1.5553064e-05 -7.4509127e-05 2.7628798e-21)
(1.3457652e-05 -7.4901611e-05 1.0768029e-21)
(1.1366379e-05 -7.5237414e-05 -8.1130885e-22)
(9.2806269e-06 -7.5516907e-05 -5.5906851e-22)
(7.201748e-06 -7.5740221e-05 1.7007059e-22)
(5.1304749e-06 -7.5908668e-05 1.9053776e-21)
(3.0665576e-06 -7.6024494e-05 -6.7245301e-22)
(1.0156228e-06 -7.609127e-05 -1.9499347e-21)
(8.8442024e-05 6.1303032e-05 -2.794939e-21)
(8.9222128e-05 5.9139283e-05 1.268936e-20)
(8.9947032e-05 5.6940052e-05 2.6728532e-22)
(9.0615853e-05 5.4707363e-05 -8.1001733e-21)
(9.1227677e-05 5.2443281e-05 -5.0295645e-22)
(9.1781768e-05 5.0149953e-05 2.8414774e-21)
(9.227742e-05 4.7829435e-05 1.0928091e-20)
(9.2713995e-05 4.5483886e-05 1.3781822e-22)
(9.3091011e-05 4.3115498e-05 -7.6569031e-21)