/*--------------------------------*- C++ -*----------------------------------*\
| =========                 |                                                 |
| \\      /  F ield         | OpenFOAM: The Open Source CFD Toolbox           |
|  \\    /   O peration     | Version:  2106                                  |
|   \\  /    A nd           | Website:  www.openfoam.com                      |
|    \\/     M anipulation  |                                                 |
\*---------------------------------------------------------------------------*/
FoamFile
{
    version     2.0;
    format      ascii;
    arch        "LSB;label=32;scalar=64";
    class       volScalarField;
    location    "0.017";
    object      p;
}
// * * * * * * * * * * * * * * * * * * * * * * * * * * * * * * * * * * * * * //

dimensions      [1 -1 -2 0 0 0 0];

internalField   nonuniform List<scalar> 
16384
(
16.784731
16.744281
16.663479
16.542518
16.381691
16.181384
15.942078
15.66435
15.348869
14.996394
14.607774
14.183944
13.725925
13.234822
12.711816
12.15817
11.575217
10.964363
10.327081
9.6649093
8.9794443
8.2723403
7.545304
6.8000901
6.0384977
5.2623654
4.473567
3.6740073
2.8656168
2.0503478
1.2301675
0.40705317
-0.41700234
-1.2400073
-2.0599849
-2.8749535
-3.6829469
-4.4820168
-5.2702372
-6.045709
-6.8065642
-7.5509711
-8.2771382
-8.9833188
-9.667815
-10.328982
-10.965232
-11.575037
-12.156934
-12.709528
-13.231495
-13.721583
-14.17862
-14.601512
-14.989246
-15.340896
-15.655622
-15.932671
-16.171382
-16.371184
-16.531601
-16.65225
-16.732843
-16.773188
-16.773188
-16.732843
-16.65225
-16.531601
-16.371184
-16.171382
-15.932671
-15.655622
-15.340896
-14.989246
-14.601511
-14.17862
-13.721583
-13.231495
-12.709528
-12.156934
-11.575037
-10.965232
-10.328982
-9.6678148
-8.9833186
-8.277138
-7.5509709
-6.806564
-6.0457088
-5.2702371
-4.4820166
-3.6829467
-2.8749534
-2.0599847
-1.2400071
-0.4170022
0.40705331
1.2301676
2.050348
2.865617
3.6740074
4.4735672
5.2623655
6.0384979
6.8000903
7.5453042
8.2723405
8.9794444
9.6649094
10.327081
10.964363
11.575217
12.15817
12.711816
13.234822
13.725925
14.183944
14.607774
14.996394
15.348869
15.664351
15.942078
16.181384
16.381691
16.542519
16.663479
16.744281
16.784731
16.826052
16.785504
16.704506
16.583252
16.422035
16.221241
15.981355
15.702953
15.386705
15.033373
14.643807
14.218945
13.75981
13.267509
12.743228
12.188229
11.603851
10.991502
10.35266
9.6888649
9.001718
8.2928774
7.5640538
6.8170063
6.0535382
5.2754926
4.4847481
3.683214
2.8728255
2.0555395
1.2333286
0.40817744
-0.41791839
-1.2429682
-2.0649813
-2.8819738
-3.6919748
-4.4930314
-5.2832124
-6.0606139
-6.8233634
-7.5696242
-8.2976005
-9.005541
-9.6917436
-10.354559
-10.992396
-11.603722
-12.187072
-12.741045
-13.264314
-13.755626
-14.213804
-14.637752
-15.026454
-15.378983
-15.694495
-15.972236
-16.211543
-16.411844
-16.572662
-16.693612
-16.774407
-16.814852
-16.814852
-16.774407
-16.693612
-16.572662
-16.411844
-16.211543
-15.972236
-15.694495
-15.378983
-15.026454
-14.637752
-14.213804
-13.755626
-13.264314
-12.741045
-12.187072
-11.603722
-10.992396
-10.354559
-9.6917435
-9.0055409
-8.2976003
-7.569624
-6.8233632
-6.0606138
-5.2832123
-4.4930312
-3.6919747
-2.8819737
-2.0649812
-1.2429681
-0.41791827
0.40817757
1.2333288
2.0555396
2.8728256
3.6832141
4.4847483
5.2754928
6.0535383
6.8170065
7.564054
8.2928776
9.0017181
9.688865
10.35266
10.991503
11.603851
12.188229
12.743228
13.267509
13.759811
14.218945
14.643807
15.033373
15.386705
15.702953
15.981355
16.221241
16.422035
16.583252
16.704506
16.785504
16.826052
16.907681
16.866938
16.78555
16.663712
16.501718
16.299958
16.058916
15.779172
15.4614
15.106365
14.714919
14.288007
13.826656
13.331977
12.805162
12.24748
11.660275
11.044963
10.403027
9.7360151
9.0455369
8.333258
7.6008974
6.8502224
6.0830453
5.3012181
4.5066285
3.701195
2.8868625
2.0655973
1.2393821
0.41021187
-0.41991058
-1.2489826
-2.0750035
-2.8959799
-3.7099315
-4.5148955
-5.3089313
-6.0901254
-6.8565961
-7.6064977
-8.3380255
-9.0494196
-9.7389695
-10.405018
-11.045966
-11.660273
-12.246467
-12.803141
-13.32896
-13.822667
-14.283077
-14.70909
-15.099686
-15.453932
-15.77098
-16.050074
-16.290546
-16.491823
-16.653423
-16.774962
-16.85615
-16.896792
-16.896792
-16.85615
-16.774962
-16.653423
-16.491823
-16.290546
-16.050074
-15.77098
-15.453932
-15.099686
-14.70909
-14.283077
-13.822667
-13.32896
-12.80314
-12.246466
-11.660273
-11.045965
-10.405018
-9.7389694
-9.0494195
-8.3380254
-7.6064976
-6.856596
-6.0901253
-5.3089312
-4.5148954
-3.7099314
-2.8959798
-2.0750033
-1.2489825
-0.41991047
0.41021198
1.2393822
2.0655974
2.8868626
3.7011951
4.5066286
5.3012183
6.0830455
6.8502226
7.6008975
8.3332582
9.045537
9.7360152
10.403027
11.044963
11.660275
12.24748
12.805162
13.331977
13.826656
14.288008
14.71492
15.106365
15.461401
15.779173
16.058916
16.299958
16.501718
16.663712
16.78555
16.866938
16.907681
17.029857
16.988821
16.906849
16.784136
16.620978
16.417768
16.174993
15.893239
15.573181
15.215592
14.82133
14.391345
13.926671
13.428429
12.897817
12.336114
11.744673
11.12492
10.47835
9.8065203
9.1110527
8.3936246
7.6559673
6.899861
6.127131
5.3396427
4.5392975
3.728028
2.9077932
2.0805738
1.2483673
0.41318314
-0.42296183
-1.2580494
-2.0900642
-2.9169984
-3.7368571
-4.547663
-5.3474613
-6.1343245
-6.9063569
-7.6616994
-8.3985341
-9.1150882
-9.8096388
-10.480517
-11.12611
-11.74487
-12.335311
-12.896018
-13.425646
-13.922927
-14.386671
-14.815767
-15.209189
-15.565998
-15.885339
-16.166451
-16.408662
-16.611394
-16.774162
-16.89658
-16.978354
-17.01929
-17.01929
-16.978354
-16.89658
-16.774162
-16.611394
-16.408662
-16.166451
-15.885339
-15.565998
-15.209189
-14.815767
-14.386671
-13.922927
-13.425646
-12.896018
-12.335311
-11.74487
-11.12611
-10.480517
-9.8096388
-9.1150881
-8.398534
-7.6616994
-6.9063568
-6.1343244
-5.3474613
-4.547663
-3.7368571
-2.9169983
-2.0900641
-1.2580493
-0.42296172
0.41318325
1.2483674
2.0805739
2.9077933
3.7280281
4.5392976
5.3396428
6.1271311
6.8998611
7.6559674
8.3936247
9.1110528
9.8065204
10.47835
11.12492
11.744673
12.336114
12.897817
13.428429
13.926671
14.391345
14.82133
15.215592
15.573182
15.893239
16.174993
16.417768
16.620978
16.784136
16.906849
16.988821
17.029857
17.192957
17.15153
17.068777
16.944895
16.780182
16.575035
16.329947
16.045506
15.722396
15.361396
14.963371
14.529282
14.060172
13.557169
13.021487
12.454414
11.857317
11.231635
10.578875
9.9006125
9.1984825
8.4741789
7.7294495
6.9660914
6.1859475
5.3909012
4.5828722
3.7638117
2.9356977
2.1005302
1.260326
0.4171143
-0.4270688
-1.2701852
-2.1101997
-2.9450852
-3.772827
-4.5914288
-5.3989167
-6.1933443
-6.9727977
-7.7353997
-8.4793147
-9.2027529
-9.9039747
-10.581295
-11.233087
-11.857785
-12.453892
-13.019977
-13.554684
-14.056733
-14.524922
-14.958129
-15.355321
-15.715547
-16.037946
-16.321749
-16.566278
-16.770951
-16.935277
-17.058866
-17.141423
-17.18275
-17.18275
-17.141423
-17.058866
-16.935277
-16.77095
-16.566278
-16.321749
-16.037946
-15.715547
-15.355321
-14.958129
-14.524921
-14.056733
-13.554684
-13.019977
-12.453892
-11.857785
-11.233087
-10.581295
-9.9039747
-9.2027529
-8.4793146
-7.7353997
-6.9727977
-6.1933443
-5.3989167
-4.5914288
-3.772827
-2.9450851
-2.1101997
-1.2701851
-0.4270687
0.4171144
1.2603261
2.1005303
2.9356978
3.7638118
4.5828723
5.3909013
6.1859476
6.9660915
7.7294496
8.474179
9.1984826
9.9006126
10.578875
11.231635
11.857317
12.454414
13.021487
13.55717
14.060172
14.529282
14.963372
15.361396
15.722396
16.045506
16.329947
16.575035
16.780182
16.944895
17.068777
17.15153
17.192957
17.397375
17.355459
17.271726
17.146379
16.979717
16.772143
16.524153
16.236344
15.909408
15.544131
15.141391
14.702156
14.227483
13.718515
13.176476
12.602671
11.998483
11.365368
10.70485
10.018523
9.3080419
8.5751198
7.8215255
7.0490776
6.2596407
5.4551209
4.6374608
3.8086351
2.9706456
2.1255163
1.2752885
0.42201572
-0.43224125
-1.2854196
-2.1354595
-2.9803092
-3.8179299
-4.6463007
-5.4634242
-6.2673304
-7.0560823
-7.8277801
-8.5805662
-9.3126294
-10.022209
-10.7076
-11.367157
-11.999295
-12.602499
-13.175322
-13.716391
-14.224412
-14.698168
-15.136526
-15.538438
-15.902944
-16.229173
-16.516346
-16.763779
-16.970881
-17.137158
-17.262214
-17.345751
-17.387569
-17.387569
-17.345751
-17.262214
-17.137158
-16.970881
-16.763779
-16.516346
-16.229173
-15.902943
-15.538438
-15.136526
-14.698168
-14.224412
-13.716391
-13.175322
-12.602499
-11.999295
-11.367157
-10.7076
-10.022209
-9.3126294
-8.5805662
-7.8277801
-7.0560822
-6.2673304
-5.4634241
-4.6463007
-3.8179298
-2.9803092
-2.1354595
-1.2854195
-0.43224115
0.42201581
1.2752886
2.1255164
2.9706457
3.8086352
4.6374609
5.455121
6.2596408
7.0490777
7.8215255
8.5751199
9.308042
10.018523
10.70485
11.365368
11.998483
12.602671
13.176476
13.718515
14.227483
14.702156
15.141391
15.544131
15.909409
16.236344
16.524153
16.772143
16.979717
17.146379
17.271726
17.355459
17.397375
17.643597
17.60109
17.516178
17.389065
17.220056
17.009557
16.758072
16.466207
16.134662
15.764233
15.355811
14.910378
14.429005
13.912849
13.363153
12.781239
12.168509
11.52644
10.856577
10.160535
9.4399935
8.6966894
7.9324164
7.1490187
6.3483876
5.5324561
4.7031946
3.862606
3.0127208
2.155592
1.2932903
0.42789882
-0.4384921
-1.3037899
-2.165905
-3.022756
-3.8722748
-4.7124115
-5.5411397
-6.3564613
-7.1564114
-7.9390632
-8.7025323
-9.4449818
-10.164626
-10.859736
-11.528642
-12.169738
-12.781487
-13.362422
-13.911152
-14.426362
-14.906821
-15.351379
-15.758974
-16.128632
-16.459472
-16.750703
-17.001631
-17.211659
-17.380284
-17.507105
-17.591821
-17.63423
-17.63423
-17.591821
-17.507105
-17.380284
-17.211658
-17.001631
-16.750703
-16.459472
-16.128632
-15.758974
-15.351379
-14.906821
-14.426362
-13.911152
-13.362422
-12.781487
-12.169738
-11.528642
-10.859736
-10.164626
-9.4449817
-8.7025323
-7.9390631
-7.1564114
-6.3564612
-5.5411396
-4.7124114
-3.8722747
-3.022756
-2.1659049
-1.3037898
-0.43849201
0.42789892
1.2932904
2.1555921
3.0127209
3.8626061
4.7031947
5.5324562
6.3483877
7.1490188
7.9324165
8.6966895
9.4399936
10.160535
10.856577
11.52644
12.16851
12.781239
13.363153
13.912849
14.429005
14.910378
15.355811
15.764233
16.134662
16.466207
16.758072
17.009557
17.220056
17.389065
17.516178
17.60109
17.643597
17.932211
17.889012
17.802717
17.673535
17.501774
17.287846
17.032265
16.735645
16.398696
16.022229
15.607148
15.154449
14.665221
14.14064
13.581968
12.990549
12.367806
11.71524
11.034422
10.326993
9.5946577
8.8391833
8.0623919
7.2661584
6.4524046
5.6230956
4.7802341
3.9258563
3.0620263
2.1908311
1.3143759
0.4347783
-0.44583635
-1.3253407
-2.2016103
-3.072529
-3.9359943
-4.7899222
-5.6322525
-6.4609541
-7.2740293
-8.0695195
-8.8455092
-9.6001313
-10.331571
-11.03807
-11.717933
-12.369526
-12.991289
-13.58173
-14.139435
-14.66307
-15.151383
-15.603205
-16.017459
-16.393155
-16.729396
-17.025381
-17.280404
-17.493858
-17.665234
-17.794125
-17.880222
-17.923322
-17.923322
-17.880222
-17.794125
-17.665234
-17.493858
-17.280404
-17.025381
-16.729396
-16.393154
-16.017459
-15.603205
-15.151383
-14.66307
-14.139435
-13.58173
-12.991289
-12.369526
-11.717933
-11.03807
-10.331571
-9.6001312
-8.8455092
-8.0695194
-7.2740292
-6.460954
-5.6322524
-4.7899221
-3.9359942
-3.0725289
-2.2016102
-1.3253406
-0.44583626
0.43477839
1.3143759
2.1908312
3.0620264
3.9258564
4.7802342
5.6230957
6.4524047
7.2661585
8.062392
8.8391833
9.5946577
10.326993
11.034422
11.71524
12.367806
12.990549
13.581968
14.14064
14.665221
15.154449
15.607148
16.022229
16.398696
16.735645
17.032265
17.287846
17.501774
17.673535
17.802717
17.889012
17.932211
18.263907
18.219913
18.13203
18.000469
17.825545
17.607678
17.347389
17.045304
16.702147
16.31874
15.896005
15.434957
14.936702
14.402438
13.833451
13.231107
12.596857
11.932227
11.238818
10.5183
9.7724108
9.0029484
8.2117692
7.4007824
6.5719459
5.727261
4.868768
3.9985411
3.118683
2.2313201
1.338597
0.44267134
-0.45429164
-1.3501244
-2.2426624
-3.1297497
-4.009244
-4.8790221
-5.7369852
-6.5810637
-7.4092228
-8.219467
-9.0098452
-9.7784555
-10.523449
-11.243036
-11.935489
-12.599144
-13.232412
-13.833775
-14.401793
-14.935108
-15.432443
-15.892611
-16.314515
-16.697145
-17.039592
-17.341038
-17.600765
-17.818156
-17.992692
-18.123959
-18.211644
-18.255538
-18.255538
-18.211644
-18.123959
-17.992692
-17.818156
-17.600765
-17.341038
-17.039592
-16.697145
-16.314514
-15.892611
-15.432443
-14.935107
-14.401793
-13.833775
-13.232412
-12.599144
-11.935489
-11.243036
-10.523449
-9.7784554
-9.0098452
-8.2194669
-7.4092227
-6.5810636
-5.7369851
-4.879022
-4.0092439
-3.1297496
-2.2426623
-1.3501243
-0.45429155
0.44267143
1.3385971
2.2313202
3.1186831
3.9985412
4.8687681
5.727261
6.571946
7.4007825
8.2117693
9.0029485
9.7724109
10.5183
11.238818
11.932227
12.596857
13.231107
13.833451
14.402439
14.936702
15.434957
15.896005
16.31874
16.702147
17.045304
17.347389
17.607678
17.825545
18.000469
18.13203
18.219913
18.263907
18.639479
18.594585
18.504904
18.37065
18.192146
17.969819
17.704201
17.395929
17.045742
16.654479
16.223079
15.752577
15.244102
14.698876
14.118208
13.503496
12.856216
12.177926
11.47026
10.734923
9.9736854
9.1883839
8.3809124
7.5532195
6.7073034
5.845207
4.9690129
4.0808383
3.1828299
2.2771584
1.3660133
0.45159749
-0.46387849
-1.3782016
-2.2891618
-3.1945581
-4.0922031
-4.9799292
-5.8555936
-6.7170837
-7.562322
-8.3892716
-9.1959409
-9.9803885
-10.740728
-11.475132
-12.181837
-12.859148
-13.505441
-14.119168
-14.698859
-15.24313
-15.750678
-16.220294
-16.650855
-17.041335
-17.390805
-17.698432
-17.963483
-18.185329
-18.363441
-18.497397
-18.586879
-18.631672
-18.631672
-18.586878
-18.497397
-18.363441
-18.185329
-17.963483
-17.698431
-17.390805
-17.041335
-16.650855
-16.220294
-15.750678
-15.24313
-14.698859
-14.119168
-13.505441
-12.859148
-12.181837
-11.475132
-10.740728
-9.9803885
-9.1959408
-8.3892715
-7.5623219
-6.7170836
-5.8555936
-4.9799291
-4.092203
-3.194558
-2.2891618
-1.3782015
-0.46387841
0.45159756
1.3660134
2.2771585
3.18283
4.0808384
4.969013
5.8452071
6.7073035
7.5532196
8.3809125
9.188384
9.9736855
10.734923
11.47026
12.177926
12.856216
13.503496
14.118209
14.698876
15.244102
15.752577
16.223079
16.654479
17.045742
17.395929
17.704201
17.969819
18.192146
18.37065
18.504904
18.594585
18.639479
19.059828
19.013926
18.922232
18.784966
18.602455
18.375137
18.103556
17.788361
17.430307
17.030252
16.589156
16.108074
15.588163
15.030668
14.436929
13.808373
13.146511
12.452934
11.729312
10.977387
10.198971
9.3959414
8.570234
7.7238418
6.8588081
5.9772222
5.0812143
4.1729497
3.2546243
2.3284585
1.3966922
0.4615787
-0.47462036
-1.409641
-2.3412226
-3.267113
-4.1850749
-5.0928906
-5.9883683
-6.8693467
-7.733701
-8.5793477
-9.40425
-10.206422
-10.983936
-11.734922
-12.457577
-13.150168
-13.811036
-14.438597
-15.031351
-15.58788
-16.106856
-16.58704
-17.027288
-17.42655
-17.783877
-18.098418
-18.369425
-18.596255
-18.778368
-18.915333
-19.006824
-19.052623
-19.052623
-19.006824
-18.915333
-18.778368
-18.596255
-18.369425
-18.098418
-17.783877
-17.42655
-17.027288
-16.58704
-16.106856
-15.58788
-15.031351
-14.438597
-13.811036
-13.150168
-12.457577
-11.734922
-10.983936
-10.206422
-9.40425
-8.5793477
-7.7337009
-6.8693466
-5.9883682
-5.0928906
-4.1850749
-3.267113
-2.3412225
-1.409641
-0.47462032
0.46157874
1.3966922
2.3284585
3.2546243
4.1729497
5.0812143
5.9772223
6.8588081
7.7238418
8.570234
9.3959414
10.198971
10.977387
11.729312
12.452934
13.146511
13.808373
14.436929
15.030668
15.588163
16.108074
16.589156
17.030253
17.430307
17.788361
18.103556
18.375137
18.602455
18.784966
18.922232
19.013926
19.059828
19.525957
19.478938
19.385014
19.244407
19.057455
18.824604
18.546411
18.223541
17.856766
17.446964
16.995117
16.502306
15.969713
15.398615
14.790384
14.146478
13.468446
12.757917
12.016601
11.246282
10.448817
9.6261266
8.7801959
7.9130658
7.0268302
6.1236296
5.2056467
4.2751007
3.3342419
2.3853461
1.4307086
0.47263937
-0.48654374
-1.4445201
-2.3989726
-3.3475927
-4.2880873
-5.2181835
-6.1356345
-7.0382256
-7.9237791
-8.7901601
-9.6352813
-10.457108
-11.253665
-12.023037
-12.763377
-13.472911
-14.149937
-14.792836
-15.400071
-15.97019
-16.501833
-16.993734
-17.444719
-17.853716
-18.219751
-18.541956
-18.819565
-19.051919
-19.238466
-19.378765
-19.472482
-19.519397
-19.519397
-19.472482
-19.378765
-19.238466
-19.051919
-18.819565
-18.541956
-18.219751
-17.853716
-17.444719
-16.993734
-16.501833
-15.97019
-15.400071
-14.792836
-14.149937
-13.472911
-12.763377
-12.023037
-11.253665
-10.457108
-9.6352813
-8.7901601
-7.9237792
-7.0382256
-6.1356345
-5.2181835
-4.2880873
-3.3475928
-2.3989726
-1.4445202
-0.48654375
0.47263937
1.4307086
2.3853461
3.334242
4.2751007
5.2056467
6.1236296
7.0268302
7.9130659
8.7801959
9.6261267
10.448817
11.246282
12.016601
12.757917
13.468446
14.146478
14.790384
15.398616
15.969713
16.502306
16.995117
17.446964
17.856766
18.223541
18.546411
18.824604
19.057455
19.244407
19.385014
19.478938
19.525957
20.038981
19.990734
19.894355
19.750074
19.558235
19.319297
19.033829
18.702513
18.326142
17.905615
17.441938
16.93622
16.389673
15.803607
15.179426
14.518628
13.8228
13.093615
12.332826
11.542263
10.72383
9.879501
9.0113105
8.1213541
7.2117806
6.2847874
5.3426151
4.3875419
3.4218782
2.4479605
1.4681461
0.48480636
-0.49967828
-1.4829249
-2.462554
-3.4361953
-4.4014938
-5.3561156
-6.2977539
-7.2241347
-8.1330222
-9.0222246
-9.8895994
-10.733058
-11.550573
-12.340179
-13.099982
-13.828159
-14.522966
-15.182742
-15.80591
-16.390982
-16.936563
-17.441353
-17.904151
-18.323856
-18.699473
-19.030108
-19.314979
-19.553409
-19.744834
-19.8888
-19.984967
-20.033108
-20.033108
-19.984967
-19.8888
-19.744834
-19.553409
-19.314979
-19.030108
-18.699473
-18.323856
-17.904151
-17.441353
-16.936563
-16.390982
-15.80591
-15.182742
-14.522966
-13.828159
-13.099982
-12.340179
-11.550573
-10.733058
-9.8895994
-9.0222247
-8.1330222
-7.2241347
-6.297754
-5.3561156
-4.4014938
-3.4361954
-2.4625541
-1.482925
-0.49967833
0.48480631
1.468146
2.4479605
3.4218782
4.3875419
5.342615
6.2847874
7.2117806
8.1213541
9.0113105
9.879501
10.72383
11.542263
12.332826
13.093615
13.8228
14.518628
15.179426
15.803607
16.389673
16.93622
17.441938
17.905615
18.326142
18.702513
19.033829
19.319297
19.558235
19.750074
19.894355
19.990734
20.038981
20.600128
20.550538
20.451475
20.303176
20.105994
19.860399
19.566977
19.226427
18.839563
18.407308
17.930695
17.410863
16.849056
16.246619
15.604996
14.925724
14.210434
13.460844
12.678755
11.866049
11.024682
10.156682
9.2641424
8.3492158
7.414112
6.4610904
5.492455
4.5105488
3.5177478
2.5164554
1.5090959
0.49810901
-0.51405692
-1.5249506
-2.5321241
-3.5331394
-4.5255737
-5.5070266
-6.4751253
-7.4275307
-8.3619437
-9.2761101
-10.167827
-11.034947
-11.875385
-12.687122
-13.468209
-14.216775
-14.931028
-15.609259
-16.24985
-16.851271
-17.412091
-17.930974
-18.406687
-18.838101
-19.224191
-19.564043
-19.856852
-20.101924
-20.298681
-20.446657
-20.545502
-20.594983
-20.594983
-20.545502
-20.446657
-20.298681
-20.101924
-19.856852
-19.564043
-19.224191
-18.838101
-18.406687
-17.930974
-17.412091
-16.851271
-16.24985
-15.609259
-14.931028
-14.216775
-13.468209
-12.687122
-11.875385
-11.034947
-10.167827
-9.2761101
-8.3619437
-7.4275308
-6.4751253
-5.5070267
-4.5255738
-3.5331394
-2.5321242
-1.5249507
-0.51405699
0.49810894
1.5090959
2.5164553
3.5177478
4.5105487
5.492455
6.4610904
7.414112
8.3492158
9.2641424
10.156682
11.024682
11.866049
12.678755
13.460844
14.210434
14.925724
15.604996
16.246619
16.849056
17.410863
17.930695
18.407308
18.839563
19.226427
19.566977
19.860399
20.105994
20.303176
20.451475
20.550538
20.600128
21.210738
21.159687
21.057705
20.905035
20.702042
20.449207
20.147132
19.796538
19.39826
18.953248
18.462563
17.927377
17.348969
16.728723
16.068123
15.368751
14.632286
13.860494
13.055229
12.218428
11.352106
10.458348
9.5393093
8.5972084
7.6343198
6.6529706
5.6555339
4.6444231
3.622086
2.5909984
1.5536583
0.51257918
-0.52971605
-1.5707016
-2.6078553
-3.6386647
-4.6606337
-5.6712889
-6.6681857
-7.6489143
-8.6111063
-9.5524397
-10.470646
-11.363513
-12.228894
-13.06471
-13.868956
-14.639705
-15.375112
-16.073421
-16.732964
-17.35217
-17.929565
-18.463777
-18.953537
-19.397683
-19.795164
-20.145039
-20.446481
-20.698777
-20.901331
-21.053667
-21.155424
-21.206362
-21.206362
-21.155424
-21.053667
-20.901331
-20.698777
-20.446481
-20.145039
-19.795164
-19.397683
-18.953537
-18.463777
-17.929565
-17.35217
-16.732964
-16.073421
-15.375112
-14.639705
-13.868956
-13.06471
-12.228894
-11.363513
-10.470646
-9.5524397
-8.6111063
-7.6489144
-6.6681857
-5.671289
-4.6606338
-3.6386647
-2.6078554
-1.5707017
-0.52971611
0.51257912
1.5536582
2.5909983
3.6220859
4.6444231
5.6555339
6.6529706
7.6343198
8.5972083
9.5393093
10.458348
11.352106
12.218428
13.055229
13.860494
14.632286
15.368751
16.068123
16.728723
17.348969
17.927377
18.462563
18.953248
19.39826
19.796538
20.147132
20.449207
20.702042
20.905035
21.057705
21.159687
21.210738
21.87227
21.819636
21.714493
21.557091
21.347804
21.087129
20.775685
20.414214
20.003575
19.544746
19.038821
18.487005
17.890617
17.251081
16.569926
15.848783
15.089379
14.293536
13.463164
12.60026
11.706899
10.785233
9.8374842
8.8659389
7.8729437
6.8608987
5.832252
4.7894935
3.7351487
2.6717722
1.6019418
0.52825131
-0.54669564
-1.6202924
-2.6899358
-3.7530331
-4.8070083
-5.8493088
-6.877412
-7.8888316
-8.8811237
-9.8518931
-10.798799
-11.719561
-12.611965
-13.473867
-14.3032
-15.097977
-15.856298
-16.576352
-17.256421
-17.894888
-18.490233
-19.041043
-19.546013
-20.003947
-20.413761
-20.774487
-21.085275
-21.345391
-21.554223
-21.711278
-21.816187
-21.868704
-21.868704
-21.816187
-21.711278
-21.554223
-21.345391
-21.085275
-20.774487
-20.413761
-20.003947
-19.546013
-19.041043
-18.490233
-17.894888
-17.256421
-16.576352
-15.856298
-15.097977
-14.3032
-13.473867
-12.611965
-11.719561
-10.798799
-9.8518931
-8.8811237
-7.8888316
-6.877412
-5.8493088
-4.8070083
-3.7530331
-2.6899358
-1.6202924
-0.54669569
0.52825126
1.6019417
2.6717722
3.7351486
4.7894934
5.8322519
6.8608986
7.8729436
8.8659389
9.8374842
10.785233
11.706899
12.60026
13.463164
14.293536
15.089379
15.848783
16.569926
17.251081
17.890617
18.487005
19.038821
19.544746
20.003575
20.414214
20.775685
21.087129
21.347804
21.557091
21.714493
21.819636
21.87227
22.586302
22.531961
22.423408
22.260901
22.044825
21.775691
21.45414
21.080933
20.656958
20.183223
19.660854
19.091096
18.475307
17.814956
17.11162
16.366982
15.582822
14.761022
13.903553
13.012474
12.089929
11.138138
10.159397
9.1560659
8.1305689
7.085385
6.0230433
4.9461163
3.8572134
2.7589748
1.6540642
0.5451624
-0.5650395
-1.6738473
-2.7785705
-3.8765292
-4.965061
-6.0415276
-7.1033223
-8.1478755
-9.1726623
-10.175208
-11.153095
-12.103967
-13.025537
-13.915593
-14.772
-15.592708
-16.375754
-17.119272
-17.821489
-18.480735
-19.095445
-19.664162
-20.18554
-20.658345
-21.081463
-21.453894
-21.774762
-22.043313
-22.258914
-22.421059
-22.529368
-22.583585
-22.583585
-22.529368
-22.421059
-22.258914
-22.043313
-21.774762
-21.453894
-21.081463
-20.658345
-20.18554
-19.664162
-19.095445
-18.480735
-17.821489
-17.119272
-16.375754
-15.592708
-14.772
-13.915593
-13.025537
-12.103967
-11.153095
-10.175208
-9.1726623
-8.1478756
-7.1033223
-6.0415277
-4.965061
-3.8765292
-2.7785706
-1.6738473
-0.56503953
0.54516235
1.6540641
2.7589747
3.8572133
4.9461162
6.0230433
7.085385
8.1305688
9.1560658
10.159397
11.138138
12.089929
13.012474
13.903553
14.761022
15.582822
16.366982
17.11162
17.814956
18.475307
19.091096
19.660854
20.183223
20.656958
21.080933
21.45414
21.775691
22.044825
22.260901
22.423408
22.531961
22.586302
23.354537
23.298361
23.186142
23.018145
22.794769
22.51654
22.184119
21.798293
21.359977
20.870211
20.330159
19.741104
19.104448
18.421709
17.694515
16.924603
16.113814
15.26409
14.377468
13.456076
12.50213
11.517926
10.505836
9.468301
8.407828
7.3269813
6.2283769
5.1146765
3.9885801
2.8528198
1.7101522
0.5633521
-0.5847954
-1.7315016
-2.8739816
-4.0094615
-5.1351856
-6.2484235
-7.3464773
-8.4266882
-9.4864434
-10.523183
-11.534405
-12.517674
-13.470626
-14.39097
-15.276503
-16.125103
-16.934746
-17.7035
-18.429536
-19.111129
-19.746664
-20.334635
-20.873655
-21.36245
-21.799869
-22.184884
-22.516589
-22.794206
-23.017084
-23.184701
-23.296663
-23.352711
-23.352711
-23.296663
-23.184701
-23.017084
-22.794206
-22.516589
-22.184884
-21.799869
-21.36245
-20.873655
-20.334635
-19.746664
-19.111129
-18.429536
-17.7035
-16.934746
-16.125103
-15.276503
-14.39097
-13.470626
-12.517674
-11.534405
-10.523183
-9.4864435
-8.4266883
-7.3464774
-6.2484236
-5.1351856
-4.0094615
-2.8739816
-1.7315016
-0.58479545
0.56335204
1.7101522
2.8528197
3.9885801
5.1146764
6.2283768
7.3269812
8.4078279
9.4683009
10.505836
11.517926
12.50213
13.456076
14.377467
15.26409
16.113814
16.924603
17.694515
18.421709
19.104448
19.741104
20.330159
20.870211
21.359977
21.798293
22.184119
22.51654
22.794769
23.018145
23.186142
23.298361
23.354537
24.178807
24.120663
24.004513
23.830631
23.599426
23.311445
22.96737
22.568012
22.114317
21.60736
21.048343
20.438592
19.779557
19.072805
18.320019
17.522997
16.683642
15.803961
14.886063
13.932149
12.944511
11.925527
10.877651
9.8034108
8.7054026
7.5862818
6.4487582
5.295589
4.1295718
2.9535374
1.7703425
0.58286271
-0.60601539
-1.7934014
-2.976409
-4.152163
-5.3178074
-6.4705126
-7.6074826
-8.7259625
-9.8232453
-10.896679
-11.943673
-12.961704
-13.948324
-14.901165
-15.817942
-16.696464
-17.534634
-18.330455
-19.082036
-19.787594
-20.445459
-21.054076
-21.612011
-22.117949
-22.570701
-22.969205
-23.312526
-23.599862
-23.83054
-24.004022
-24.119901
-24.177909
-24.177909
-24.119901
-24.004022
-23.83054
-23.599862
-23.312526
-22.969205
-22.570701
-22.117949
-21.612011
-21.054076
-20.445459
-19.787594
-19.082036
-18.330455
-17.534634
-16.696464
-15.817942
-14.901165
-13.948324
-12.961704
-11.943673
-10.896679
-9.8232454
-8.7259626
-7.6074827
-6.4705127
-5.3178075
-4.152163
-2.976409
-1.7934015
-0.60601545
0.58286264
1.7703424
2.9535373
4.1295718
5.295589
6.4487581
7.5862817
8.7054025
9.8034107
10.877651
11.925527
12.944511
13.932149
14.886063
15.803961
16.683642
17.522997
18.320019
19.072804
19.779557
20.438592
21.048343
21.60736
22.114317
22.568012
22.96737
23.311445
23.599426
23.83063
24.004513
24.120663
24.178807
25.061074
25.000826
24.880471
24.700293
24.460716
24.162305
23.805762
23.39193
22.921785
22.396438
21.817132
21.18524
20.502261
19.769816
18.989648
18.163616
17.293691
16.38195
15.430578
14.441855
13.418154
12.361939
11.275754
10.162219
9.0240251
7.8639254
6.6847304
5.4892998
4.2805356
3.0613747
1.8347814
0.60373927
-0.62875594
-1.8597048
-3.0861116
-4.3049929
-5.5133848
-6.7083509
-7.8869902
-9.0464445
-10.183906
-11.296623
-12.381911
-13.437153
-14.459811
-15.44743
-16.397646
-17.308186
-18.176881
-19.001662
-19.780572
-20.511767
-21.193518
-21.824218
-22.402383
-22.926654
-23.395803
-23.808732
-24.164475
-24.462202
-24.70122
-24.880972
-25.001039
-25.061143
-25.061143
-25.001039
-24.880972
-24.70122
-24.462202
-24.164475
-23.808732
-23.395803
-22.926654
-22.402383
-21.824218
-21.193518
-20.511767
-19.780572
-19.001662
-18.176881
-17.308186
-16.397646
-15.44743
-14.459811
-13.437153
-12.381911
-11.296623
-10.183906
-9.0464445
-7.8869902
-6.7083509
-5.5133849
-4.304993
-3.0861117
-1.8597048
-0.62875603
0.60373918
1.8347813
3.0613746
4.2805355
5.4892997
6.6847303
7.8639253
9.024025
10.162219
11.275754
12.361939
13.418154
14.441855
15.430578
16.38195
17.29369
18.163616
18.989648
19.769816
20.50226
21.18524
21.817132
22.396438
22.921785
23.39193
23.805762
24.162305
24.460716
24.700293
24.880471
25.000826
25.061074
26.003438
25.940944
25.816102
25.629205
25.380693
25.071149
24.7013
24.272018
23.784314
23.239336
22.638373
21.982844
21.274302
20.514426
19.705021
18.848013
17.945443
16.999465
16.012343
14.98644
13.92422
12.828235
11.701125
10.54561
9.364481
8.1605973
6.936876
5.6962868
4.4418436
3.1765967
1.9036254
0.62602966
-0.65307823
-1.9305817
-3.2033681
-4.4683374
-5.7224102
-6.9625358
-8.1857005
-9.3889354
-10.569324
-11.724011
-12.850207
-13.945197
-15.006348
-16.031112
-17.017038
-17.961769
-18.863055
-19.718755
-20.526841
-21.285401
-21.992648
-22.646916
-23.24667
-23.790506
-24.277151
-24.70547
-25.074466
-25.38328
-25.631196
-25.817637
-25.942171
-26.004511
-26.004511
-25.942171
-25.817637
-25.631196
-25.38328
-25.074466
-24.70547
-24.277151
-23.790506
-23.24667
-22.646916
-21.992648
-21.285401
-20.526841
-19.718755
-18.863055
-17.961769
-17.017038
-16.031112
-15.006348
-13.945197
-12.850207
-11.724011
-10.569325
-9.3889355
-8.1857006
-6.9625359
-5.7224103
-4.4683376
-3.2033682
-1.9305818
-0.65307833
0.62602956
1.9036253
3.1765966
4.4418435
5.6962867
6.9368759
8.1605972
9.3644809
10.54561
11.701125
12.828235
13.92422
14.98644
16.012343
16.999465
17.945443
18.848013
19.705021
20.514426
21.274302
21.982844
22.638373
23.239336
23.784314
24.272018
24.7013
25.071149
25.380693
25.629205
25.816102
25.940944
26.003438
27.008139
26.943252
26.81363
26.619577
26.361546
26.040143
25.65612
25.21038
24.703968
24.138076
23.514038
22.833323
22.097542
21.308434
20.467871
19.577848
18.640483
17.65801
16.632778
15.567239
14.463949
13.325559
12.154811
10.954528
9.7276114
8.4770309
7.205819
5.9170623
4.6138942
3.2994867
1.9770422
0.64978471
-0.67904836
-2.0062151
-3.3284776
-4.6426112
-5.9454125
-7.2337085
-8.5043651
-9.754295
-10.980466
-12.17991
-13.349728
-14.487099
-15.589289
-16.653651
-17.677641
-18.658814
-19.594835
-20.483483
-21.322655
-22.110372
-22.844779
-23.524153
-24.146903
-24.711574
-25.216852
-25.661561
-26.044669
-26.365289
-26.622677
-26.816241
-26.945531
-27.010251
-27.010251
-26.945531
-26.816241
-26.622677
-26.365289
-26.044669
-25.661561
-25.216852
-24.711574
-24.146903
-23.524153
-22.844779
-22.110372
-21.322655
-20.483483
-19.594835
-18.658814
-17.677641
-16.653652
-15.589289
-14.487099
-13.349728
-12.17991
-10.980466
-9.7542951
-8.5043652
-7.2337086
-5.9454126
-4.6426113
-3.3284777
-2.0062152
-0.67904847
0.64978461
1.9770421
3.2994866
4.6138941
5.9170622
7.2058189