/*--------------------------------*- C++ -*----------------------------------*\
| =========                 |                                                 |
| \\      /  F ield         | OpenFOAM: The Open Source CFD Toolbox           |
|  \\    /   O peration     | Version:  2106                                  |
|   \\  /    A nd           | Website:  www.openfoam.com                      |
|    \\/     M anipulation  |                                                 |
\*---------------------------------------------------------------------------*/
FoamFile
{
    version     2.0;
    format      ascii;
    arch        "LSB;label=32;scalar=64";
    class       volScalarField;
    location    "0.043";
    object      p;
}
// * * * * * * * * * * * * * * * * * * * * * * * * * * * * * * * * * * * * * //

dimensions      [1 -1 -2 0 0 0 0];

internalField   nonuniform List<scalar> 
256
(
2.7282668
2.3133905
1.5465753
0.54460664
-0.54001982
-1.5428886
-2.3112862
-2.7280477
-2.7289616
-2.3141973
-1.5473416
-0.545302
0.53949105
1.5423969
2.3108081
2.7273722
3.0378194
2.5756205
1.7216968
0.6061697
-0.60127148
-1.7179175
-2.5737962
-3.0381666
-3.0391179
-2.5769818
-1.7228961
-0.60719824
0.60045268
1.7171058
2.5728663
3.0368959
3.997284
3.3883235
2.2644935
0.79730433
-0.79028374
-2.2588946
-3.3852146
-3.9967484
-3.9977251
-3.3892205
-2.2656189
-0.79833442
0.78966648
2.2586627
3.3851422
3.9963402
5.0812658
4.306041
2.8769061
1.0126861
-1.0041157
-2.8710419
-4.3046083
-5.083875
-5.0848343
-4.3094879
-2.8797187
-1.0146258
1.00277
2.8696189
4.3024054
5.080367
7.7625749
6.5741884
4.3898541
1.5449566
-1.5303537
-4.3791381
-6.5705714
-7.7638606
-7.7636794
-6.5766701
-4.3932794
-1.5479569
1.5289614
4.3795285
6.5709801
7.7629065
9.8513543
8.3379957
5.5625656
1.9566426
-1.9397325
-5.5548768
-8.3428281
-9.8641729
-9.8630961
-8.3497532
-5.5731023
-1.962876
1.9356385
5.5496535
8.3350159
9.8526148
16.539081
13.976251
9.3111419
3.2709054
-3.2423386
-9.2949806
-13.988401
-16.561938
-16.550311
-13.990325
-9.3302321
-3.2904754
3.2297955
9.2925173
13.984397
16.550342
19.613996
16.558122
11.009814
3.8558176
-3.8273475
-10.882024
-16.297774
-19.243856
-19.229618
-16.298182
-10.922637
-3.8855235
3.8054063
10.988011
16.570031
19.628977
-19.077698
-16.164908
-10.826236
-3.8465008
3.774992
10.890131
16.428606
19.47188
19.457039
16.429384
10.931587
3.8331473
-3.7968235
-10.805001
-16.177509
-19.091734
-16.706823
-14.118405
-9.4080477
-3.3119192
3.2622331
9.3721452
14.107664
16.702878
16.69143
14.109875
9.40772
3.3107058
-3.2704955
-9.3892946
-14.126672
-16.718248
-9.2777995
-7.851863
-5.238688
-1.844131
1.819365
5.2149119
7.8344731
9.2645266
9.2634354
7.8410051
5.2322311
1.8413439
-1.8242615
-5.2267407
-7.8495754
-9.279381
-8.4300316
-7.1401472
-4.7682053
-1.6786084
1.661387
4.7547371
7.1332828
8.4281298
8.4282049
7.1400929
4.7699881
1.6803044
-1.6613344
-4.7568853
-7.1363746
-8.4302203
-3.5085442
-2.9724672
-1.9857062
-0.69977931
0.6903704
1.9771495
2.9659884
3.5040098
3.5044453
2.969285
1.9833728
0.69794193
-0.69277207
-1.9808647
-2.970413
-3.5082488
-5.9103262
-5.0108013
-3.3495452
-1.1799207
1.1680668
3.3397846
5.0047356
5.9082913
5.9099895
5.0108199
3.3496087
1.1797894
-1.1686717
-3.3406845
-5.0056555
-5.9087015
0.90849841
0.77044403
0.51457535
0.18008094
-0.18124911
-0.5153873
-0.77082874
-0.90891711
-0.90939141
-0.7717948
-0.51664014
-0.18270666
0.17854858
0.51306384
0.76926787
0.90800884
-7.4424772
-6.3111507
-4.2194799
-1.4862217
1.4716003
4.2069168
6.3024142
7.4386961
7.4413416
6.3104851
4.2189952
1.4859169
-1.4722635
-4.2078465
-6.3037319
-7.4398642
)
;

boundaryField
{
    leftWall
    {
        type            cyclic;
    }
    rightWall
    {
        type            cyclic;
    }
    lowerWall
    {
        type            calculated;
        value           nonuniform List<scalar> 
16
(
2.7282668
2.3133905
1.5465753
0.54460664
-0.54001982
-1.5428886
-2.3112862
-2.7280477
-2.7289616
-2.3141973
-1.5473416
-0.545302
0.53949105
1.5423969
2.3108081
2.7273722
)
;
    }
    atmosphere
    {
        type            calculated;
        value           nonuniform List<scalar> 
16
(
-6.2628003e-05
-0.00051326287
-0.0011511178
-0.001601651
0
0
0
0
0
0
0
0
-0.0016034372
-0.0011555131
-0.00051771136
-6.4507968e-05
)
;
    }
    defaultFaces
    {
        type            empty;
    }
}


// ************************************************************************* //
