/*--------------------------------*- C++ -*----------------------------------*\
| =========                 |                                                 |
| \\      /  F ield         | OpenFOAM: The Open Source CFD Toolbox           |
|  \\    /   O peration     | Version:  2106                                  |
|   \\  /    A nd           | Website:  www.openfoam.com                      |
|    \\/     M anipulation  |                                                 |
\*---------------------------------------------------------------------------*/
FoamFile
{
    version     2.0;
    format      ascii;
    arch        "LSB;label=32;scalar=64";
    class       volVectorField;
    location    "0.043";
    object      U;
}
// * * * * * * * * * * * * * * * * * * * * * * * * * * * * * * * * * * * * * //

dimensions      [0 1 -1 0 0 0 0];

internalField   nonuniform List<vector> 
256
(
(0.003535169 -0.0022222604 0)
(0.010150709 -0.001889008 0)
(0.015222084 -0.0012677392 0)
(0.017982513 -0.00045378074 0)
(0.018008939 0.00043151691 0)
(0.015292425 0.0012546408 0)
(0.010241163 0.0018892933 0)
(0.0036209507 0.002234307 0)
(-0.0035481735 0.0022368987 0)
(-0.010181341 0.0018965493 0)
(-0.015253026 0.0012645242 0)
(-0.017994878 0.00044319718 0)
(-0.017995671 -0.00044203782 0)
(-0.01526101 -0.0012573732 0)
(-0.010210675 -0.0018815175 0)
(-0.0036088364 -0.0022192457 0)
(0.0038733777 -0.011753514 0)
(0.011126836 -0.0099806712 0)
(0.016687895 -0.0066865457 0)
(0.019715332 -0.0023761141 0)
(0.019749001 0.0023004077 0)
(0.016775564 0.0066346481 0)
(0.011237148 0.009964396 0)
(0.0039739416 0.011771572 0)
(-0.0038918924 0.011780918 0)
(-0.011170413 0.0099910548 0)
(-0.016731848 0.0066710084 0)
(-0.019733075 0.0023421601 0)
(-0.01972981 -0.0023343888 0)
(-0.01673096 -0.006649384 0)
(-0.011193741 -0.0099534439 0)
(-0.0039568914 -0.011742618 0)
(0.0054514712 -0.016949987 0)
(0.015655558 -0.01440056 0)
(0.02347581 -0.0096536043 0)
(0.027725304 -0.0034425372 0)
(0.027766896 0.0033010057 0)
(0.023584536 0.0095657344 0)
(0.015795912 0.014389852 0)
(0.0055839421 0.017009708 0)
(-0.005474797 0.017026016 0)
(-0.015708694 0.014435016 0)
(-0.023529547 0.0096254508 0)
(-0.027747182 0.0033700089 0)
(-0.027743301 -0.0033729501 0)
(-0.023529696 -0.0095913881 0)
(-0.015742091 -0.014353554 0)
(-0.005563457 -0.016930573 0)
(0.0067606185 -0.033948749 0)
(0.019438792 -0.028831015 0)
(0.02915197 -0.019309004 0)
(0.034425197 -0.0068619923 0)
(0.034496573 0.0066306283 0)
(0.029333563 0.019153526 0)
(0.019663799 0.028787916 0)
(0.0069573118 0.034018331 0)
(-0.0068094526 0.034047138 0)
(-0.019549757 0.028870336 0)
(-0.029263127 0.019260347 0)
(-0.03446966 0.0067486922 0)
(-0.034447621 -0.0067438589 0)
(-0.029220517 -0.019200829 0)
(-0.019552274 -0.0287452 0)
(-0.00691459 -0.033913019 0)
(0.011991374 -0.0418991 0)
(0.034450296 -0.035598501 0)
(0.051640536 -0.023841221 0)
(0.060940878 -0.0085029013 0)
(0.061042047 0.0081158907 0)
(0.051905382 0.023606253 0)
(0.034799474 0.035578124 0)
(0.012308303 0.042085886 0)
(-0.012071125 0.042131734 0)
(-0.034619684 0.035698834 0)
(-0.051806047 0.023749836 0)
(-0.061008273 0.0082734338 0)
(-0.060971289 -0.0083418877 0)
(-0.051735405 -0.023690515 0)
(-0.034623796 -0.035468599 0)
(-0.012242013 -0.041841558 0)
(0.019045697 -0.083555493 0)
(0.054718622 -0.070940234 0)
(0.082003437 -0.047442649 0)
(0.096722207 -0.016840528 0)
(0.096909838 0.016227643 0)
(0.082490464 0.047022978 0)
(0.055349344 0.070839472 0)
(0.019582905 0.08380989 0)
(-0.019220731 0.083886209 0)
(-0.055092673 0.07106222 0)
(-0.082363366 0.047287577 0)
(-0.096864646 0.016485906 0)
(-0.096753793 -0.016584441 0)
(-0.082121293 -0.047184113 0)
(-0.054967838 -0.070698796 0)
(-0.019437861 -0.083448374 0)
(0.038076945 -0.11167096 0)
(0.10911882 -0.094829998 0)
(0.16335561 -0.063349402 0)
(0.19253377 -0.022521593 0)
(0.19260941 0.021483297 0)
(0.16367989 0.062693045 0)
(0.10975345 0.094773796 0)
(0.038790598 0.11228984 0)
(-0.038207114 0.11242934 0)
(-0.10928958 0.095124219 0)
(-0.16350404 0.0630404 0)
(-0.19260438 0.021784083 0)
(-0.19257177 -0.022210157 0)
(-0.16350104 -0.062987528 0)
(-0.10951975 -0.094431453 0)
(-0.038721098 -0.11147848 0)
(0.036072555 -0.2403317 0)
(0.10303572 -0.20370328 0)
(0.15389202 -0.13583346 0)
(0.18097491 -0.047830668 0)
(0.18054615 0.046767519 0)
(0.15299167 0.13478008 0)
(0.10239238 0.20320226 0)
(0.036123282 0.24073296 0)
(-0.035668068 0.24088349 0)
(-0.1019527 0.20381742 0)
(-0.15279865 0.13556167 0)
(-0.18055129 0.047274917 0)
(-0.18104042 -0.047394131 0)
(-0.1540613 -0.13518528 0)
(-0.10339498 -0.20298199 0)
(-0.036564886 -0.24000984 0)
(-0.03533802 -0.23802498 0)
(-0.10111707 -0.20143864 0)
(-0.15152663 -0.13382626 0)
(-0.17895897 -0.046520005 0)
(-0.17936993 0.046893783 0)
(-0.15265187 0.13342185 0)
(-0.10250709 0.20043514 0)
(-0.036228611 0.23710252 0)
(0.035773031 0.23725136 0)
(0.10206879 0.20104384 0)
(0.15246441 0.13419524 0)
(0.1793816 0.047394611 0)
(0.17902844 -0.046087998 0)
(0.15169549 -0.13317954 0)
(0.10147 -0.20071581 0)
(0.035819863 -0.23770224 0)
(-0.038320455 -0.11688687 0)
(-0.10975947 -0.098920273 0)
(-0.16420758 -0.06556038 0)
(-0.19337126 -0.022647979 0)
(-0.19327682 0.023120918 0)
(-0.16410299 0.065500266 0)
(-0.10996453 0.09818705 0)
(-0.038846499 0.11592017 0)
(0.038264852 0.11606029 0)
(0.10950188 0.098538273 0)
(0.16392699 0.065851113 0)
(0.19327132 0.023430368 0)
(0.193409 -0.022325061 0)
(0.16435322 -0.065186115 0)
(0.11016108 -0.09851193 0)
(0.038964996 -0.11669077 0)
(-0.018251178 -0.079633642 0)
(-0.052382813 -0.067456003 0)
(-0.078312201 -0.04484893 0)
(-0.092082463 -0.01559826 0)
(-0.091960959 0.015762398 0)
(-0.078051687 0.044758242 0)
(-0.052250203 0.067057595 0)
(-0.018465579 0.079160341 0)
(0.0181173 0.079234166 0)
(0.05200533 0.067273901 0)
(0.077930885 0.045015185 0)
(0.091916106 0.016013222 0)
(0.092109513 -0.015348732 0)
(0.078422256 -0.044594872 0)
(0.052623482 -0.067216082 0)
(0.018635591 -0.079526693 0)
(-0.012889 -0.051623114 0)
(-0.036984216 -0.04374511 0)
(-0.055353841 -0.029118533 0)
(-0.065197273 -0.010147009 0)
(-0.065163073 0.01023921 0)
(-0.05529446 0.029056835 0)
(-0.037010927 0.043484755 0)
(-0.013076085 0.051295487 0)
(0.012835451 0.051345351 0)
(0.036826897 0.043617074 0)
(0.055191332 0.029218219 0)
(0.065127837 0.010418933 0)
(0.065228769 -0.0099634819 0)
(0.055452271 -0.028947783 0)
(0.037163067 -0.04360139 0)
(0.013145876 -0.0515604 0)
(-0.0042776504 -0.024489666 0)
(-0.012323705 -0.020752818 0)
(-0.018443779 -0.013811808 0)
(-0.021705035 -0.0048043423 0)
(-0.021680199 0.0048731641 0)
(-0.018392942 0.013786859 0)
(-0.012312436 0.020608941 0)
(-0.0043594002 0.024301829 0)
(0.0042419616 0.02432681 0)
(0.012224137 0.020680895 0)
(0.018339547 0.013878663 0)
(0.021658837 0.0049739764 0)
(0.021721007 -0.0047032091 0)
(0.018495259 -0.013717938 0)
(0.012412586 -0.020676385 0)
(0.004403652 -0.024457212 0)
(-0.0071445659 -0.039269415 0)
(-0.020484501 -0.033288918 0)
(-0.03068319 -0.022213218 0)
(-0.036189875 -0.0077795893 0)
(-0.03618873 0.0077968461 0)
(-0.030691958 0.022162142 0)
(-0.020532196 0.033151154 0)
(-0.0072498325 0.039100874 0)
(0.0071252032 0.03912761 0)
(0.020431485 0.033226783 0)
(0.030627753 0.02226661 0)
(0.036166144 0.0079192519 0)
(0.036211467 -0.0076569666 0)
(0.030746715 -0.022105245 0)
(0.020584886 -0.033211465 0)
(0.007272382 -0.039238771 0)
(0.0026875741 0.0077798141 0)
(0.0076337795 0.0066092088 0)
(0.01143755 0.0044455615 0)
(0.013517648 0.0015941816 0)
(0.01354484 -0.001518836 0)
(0.011502071 -0.0044165697 0)
(0.0076930122 -0.006644523 0)
(0.002701145 -0.0078557805 0)
(-0.0027136797 -0.007854393 0)
(-0.0077011857 -0.0066408829 0)
(-0.011507048 -0.0044140169 0)
(-0.013547596 -0.001516836 0)
(-0.013517224 0.0015967172 0)
(-0.011433337 0.0044493045 0)
(-0.0076247116 0.0066143793 0)
(-0.0026720461 0.0077827182 0)
(-0.011191783 -0.054668604 0)
(-0.03203944 -0.046357322 0)
(-0.047981617 -0.030980824 0)
(-0.056597721 -0.010897036 0)
(-0.056592442 0.010821544 0)
(-0.047983968 0.03089169 0)
(-0.032089451 0.046258342 0)
(-0.011321799 0.054586638 0)
(0.011156014 0.054612234 0)
(0.03195126 0.046334125 0)
(0.047892183 0.031001743 0)
(0.056560425 0.010951732 0)
(0.056629271 -0.010768578 0)
(0.048073135 -0.03087007 0)
(0.032177985 -0.046283434 0)
(0.011358518 -0.05464119 0)
)
;

boundaryField
{
    leftWall
    {
        type            cyclic;
    }
    rightWall
    {
        type            cyclic;
    }
    lowerWall
    {
        type            slip;
    }
    atmosphere
    {
        type            slip;
    }
    defaultFaces
    {
        type            empty;
    }
}


// ************************************************************************* //
